FOO
141312
    1MOL0     O    1   0.062   4.535   1.201  1.0767  0.3373 -0.4553
    1MOL0     C    2   0.169   4.548   1.257 -0.4338  0.1499 -0.0821
    1MOL0     O    3   0.182   4.578   1.394  0.4855 -0.3367 -0.5250
    1MOL0     C    4   0.081   4.559   1.482  0.3946  1.0106  0.2315
    1MOL0     C    5   0.085   4.468   1.586 -0.0243  1.3325 -1.1934
    1MOL0     C    6  -0.022   4.456   1.674  0.2729  0.3496 -0.2360
    1MOL0     C    7  -0.148   4.515   1.650 -0.4995 -0.3263  1.0941
    1MOL0     O    8  -0.257   4.506   1.733 -0.2038 -0.4254 -0.0873
    1MOL0     C    9  -0.268   4.400   1.823 -0.1123  0.5703  0.2946
    1MOL0     C   10  -0.409   4.396   1.870  0.8459  0.6867 -0.8674
    1MOL0     C   11  -0.422   4.274   1.964 -0.8164 -0.0358  0.1986
    1MOL0     C   12  -0.527   4.313   2.061  1.1634 -1.2621 -0.7212
    1MOL0     C   13  -0.574   4.195   2.141  0.1260  0.1030  0.5281
    1MOL0     C   14  -0.687   4.231   2.234  0.0814 -0.2360 -0.4486
    1MOL0     C   15  -0.731   4.113   2.327 -0.1181 -0.2482 -0.0424
    1MOL0     C   16  -0.784   4.146   2.459  0.5846  0.3094  0.1929
    1MOL0     N   17  -0.817   4.025   2.539 -0.3236  0.0671 -0.2078
    1MOL0     C   18  -0.766   3.992   2.665  0.8339  0.4264 -1.1126
    1MOL0     C   19  -0.827   3.876   2.689  0.2865 -0.2071 -0.6958
    1MOL0     C   20  -0.798   3.785   2.809  0.6677  0.1073 -0.9709
    1MOL0     C   21  -0.872   3.657   2.810 -0.1843 -0.5360  0.1749
    1MOL0     C   22  -0.830   3.568   2.935  0.9445 -0.1409 -0.4192
    1MOL0     C   23  -0.908   3.436   2.932  0.2526  0.1759  0.4858
    1MOL0     O   24  -0.915   3.379   3.064  0.0258  0.0222 -0.0279
    1MOL0     C   25  -0.812   3.299   3.105 -0.1798  0.1898 -0.6930
    1MOL0     C   26  -0.699   3.260   3.035 -0.1647 -0.4923 -1.0869
    1MOL0     C   27  -0.596   3.194   3.103  0.0284  0.1992  0.9101
    1MOL0     C   28  -0.471   3.163   3.024 -0.5222  0.0836  0.7984
    1MOL0     C   29  -0.614   3.146   3.239 -0.2112 -0.9944 -0.0667
    1MOL0     C   30  -0.520   3.066   3.312 -0.3313  0.2545  0.1736
    1MOL0     O   31  -0.581   2.962   3.375 -0.5033  0.1539 -1.1134
    1MOL0     C   32  -0.503   2.868   3.437  1.2923 -0.4370 -0.8973
    1MOL0     C   33  -0.425   2.905   3.547 -0.3840 -0.1197  0.5025
    1MOL0     C   34  -0.325   2.820   3.614  0.3203 -0.4424 -0.0244
    1MOL0     C   35  -0.317   2.684   3.568 -0.6182 -0.4065  0.1423
    1MOL0     O   36  -0.236   2.613   3.652 -0.1488  0.3360  0.8018
    1MOL0     C   37  -0.253   2.472   3.639 -0.0797  0.7617  0.1068
    1MOL0     C   38  -0.159   2.411   3.749  0.2881 -0.6185 -0.7944
    1MOL0     C   39  -0.187   2.470   3.881 -0.0506 -0.9432  0.6990
    1MOL0     C   40  -0.106   2.412   3.996 -0.4539 -0.6737 -0.7850
    1MOL0     C   41  -0.114   2.253   4.000 -0.0322  0.5318 -0.2471
    1MOL0     C   42  -0.075   2.211   4.145 -0.5220  0.7231 -0.3796
    1MOL0     C   43  -0.049   2.059   4.157  0.7472 -0.4299  0.0612
    1MOL0     C   44  -0.027   2.017   4.304  0.2923 -0.3496  0.4548
    1MOL0    Cl   45   0.109   2.117   4.382  0.0266 -0.4423 -0.2439
    1MOL0     C   46  -0.411   2.643   3.464 -0.1936 -0.1654 -1.0481
    1MOL0     C   47  -0.497   2.733   3.398 -0.1442  0.3519 -0.8092
    1MOL0     O   48  -0.396   3.082   3.289  0.3191 -0.1177  0.3764
    1MOL0     C   49  -0.731   3.180   3.303  0.0080  0.1378 -0.7842
    1MOL0     C   50  -0.834   3.252   3.237 -0.1636  0.5545  0.0846
    1MOL0     N   51  -0.915   3.845   2.589 -0.1526  0.1696 -0.1936
    1MOL0     N   52  -0.916   3.938   2.501  0.3793 -0.7243 -0.7666
    1MOL0     C   53  -0.151   4.608   1.547 -0.0720 -0.9402 -0.3294
    1MOL0     C   54  -0.039   4.631   1.468  0.5186  0.5059  0.8691
    1MOL0     C   55   0.295   4.533   1.175 -0.2505 -0.1457  0.2890
    1MOL0     C   56   0.402   4.608   1.218  0.3826 -1.2532 -0.1809
    1MOL0     C   57   0.525   4.588   1.166  0.5481 -0.0736 -0.8860
    1MOL0     C   58   0.555   4.504   1.065  1.2078 -0.5703 -1.3897
    1MOL0     O   59   0.680   4.468   1.028  0.4443 -0.5572  0.0601
    1MOL0     C   60   0.795   4.522   1.104  0.6116  0.2767 -0.1073
    1MOL0     C   61   0.927   4.464   1.061 -0.9713 -0.3801 -0.1644
    1MOL0     C   62   1.044   4.512   1.155  0.0692 -0.8105  0.0412
    1MOL0     C   63   1.177   4.493   1.092 -0.4149 -0.0224  0.2531
    1MOL0     C   64   1.213   4.620   1.030  0.5465  0.3416  0.4929
    1MOL0     C   65   1.206   4.728   0.988 -0.6032 -0.5038 -0.9911
    1MOL0     C   66   0.449   4.430   1.015 -0.2733  0.0052 -0.1707
    1MOL0     C   67   0.321   4.445   1.065  0.7860  1.2784 -0.0509
    1MOL0     C   68   0.210   4.367   1.003  0.5745  0.2938  0.0818
    1MOL0     H   69   0.170   4.399   1.585 -1.1386 -0.0985 -0.9483
    1MOL0     H   70  -0.016   4.388   1.758  0.5720  0.0816 -0.4768
    1MOL0     H   71  -0.202   4.422   1.908 -0.9467 -1.5856  1.5783
    1MOL0     H   72  -0.234   4.306   1.778  1.0533  1.8063 -1.5551
    1MOL0     H   73  -0.430   4.495   1.913  1.2002 -0.4669  2.2211
    1MOL0     H   74  -0.481   4.369   1.792  0.4288  2.4000 -1.1251
    1MOL0     H   75  -0.447   4.184   1.907 -0.6153 -0.2234  0.4012
    1MOL0     H   76  -0.325   4.266   2.013 -0.6899  0.7097  0.0843
    1MOL0     H   77  -0.479   4.384   2.129  0.0132  0.6161 -1.7686
    1MOL0     H   78  -0.613   4.368   2.022 -1.2029 -1.8801  3.1188
    1MOL0     H   79  -0.485   4.160   2.195  1.4876 -0.5829 -1.9905
    1MOL0     H   80  -0.621   4.123   2.074 -0.5977  1.1574 -0.1290
    1MOL0     H   81  -0.647   4.318   2.286  0.4827 -0.8366  0.2670
    1MOL0     H   82  -0.775   4.273   2.183  0.6449  0.4341 -0.8871
    1MOL0     H   83  -0.651   4.038   2.327  0.0274 -0.1652 -2.6329
    1MOL0     H   84  -0.813   4.068   2.271  0.5996 -0.5534 -0.8635
    1MOL0     H   85  -0.713   4.209   2.513 -0.6744 -0.5591  3.0855
    1MOL0     H   86  -0.879   4.193   2.432 -0.4691 -1.0427  1.3192
    1MOL0     H   87  -0.701   4.048   2.731 -0.3245 -1.8797  2.1982
    1MOL0     H   88  -0.814   3.844   2.900 -0.3488  0.9493 -1.6715
    1MOL0     H   89  -0.690   3.766   2.808  0.9989  1.1582  2.7447
    1MOL0     H   90  -0.978   3.682   2.820  0.3095  1.0489  2.1231
    1MOL0     H   91  -0.840   3.607   2.718  2.3365  0.7781  0.2360
    1MOL0     H   92  -0.722   3.547   2.937  1.3012  1.5107 -0.7509
    1MOL0     H   93  -0.857   3.616   3.029 -4.3152 -2.7390 -0.2230
    1MOL0     H   94  -1.010   3.460   2.900 -0.0504 -0.4163  0.9817
    1MOL0     H   95  -0.861   3.371   2.857  1.0633  0.1301  1.0245
    1MOL0     H   96  -0.674   3.305   2.940  1.0342  0.1427 -0.4902
    1MOL0     H   97  -0.485   3.178   2.917  2.9855 -1.3617  0.0077
    1MOL0     H   98  -0.440   3.061   3.048 -0.2580  0.5482  2.5495
    1MOL0     H   99  -0.399   3.239   3.059 -1.3519  0.8923  0.7923
    1MOL0     H  100  -0.440   3.005   3.587 -1.7446  0.3886 -1.1281
    1MOL0     H  101  -0.281   2.843   3.710 -1.9613 -0.8554  1.1895
    1MOL0     H  102  -0.352   2.434   3.666 -0.8323 -0.2581 -3.5809
    1MOL0     H  103  -0.219   2.437   3.541  0.0436 -3.1949  1.4210
    1MOL0     H  104  -0.177   2.303   3.750 -1.6281 -0.3309 -0.6385
    1MOL0     H  105  -0.054   2.433   3.727  0.7668 -0.2918  1.5200
    1MOL0     H  106  -0.291   2.443   3.900  0.0266 -0.9752  1.0733
    1MOL0     H  107  -0.170   2.578   3.878  2.7369 -1.3283 -0.8424
    1MOL0     H  108  -0.131   2.457   4.093  0.8900  0.7225 -1.0596
    1MOL0     H  109  -0.001   2.439   3.988 -0.6364  0.8062  1.0713
    1MOL0     H  110  -0.208   2.210   3.963  1.1131 -3.0596  0.5679
    1MOL0     H  111  -0.035   2.218   3.933  1.3885  3.0668  0.0172
    1MOL0     H  112  -0.163   2.238   4.204 -0.8408 -1.4758  0.2512
    1MOL0     H  113   0.012   2.269   4.179 -1.5541 -0.1493  4.5002
    1MOL0     H  114   0.045   2.038   4.105  2.1743  0.0366  2.3302
    1MOL0     H  115  -0.138   2.013   4.115 -1.3986  1.2474  2.4486
    1MOL0     H  116   0.004   1.914   4.324  1.3336  0.4471  3.5402
    1MOL0     H  117  -0.116   2.019   4.368  1.8072 -1.2836  2.7266
    1MOL0     H  118  -0.423   2.539   3.436 -1.1548  0.1170 -1.7431
    1MOL0     H  119  -0.562   2.692   3.321 -1.2613 -2.9182  1.6862
    1MOL0     H  120  -0.747   3.149   3.405  0.4393  3.0197  0.2564
    1MOL0     H  121  -0.920   3.282   3.296  0.9626  1.0202  1.5501
    1MOL0     H  122  -0.235   4.677   1.540  3.5906  3.9998 -1.6347
    1MOL0     H  123  -0.044   4.712   1.396  2.6061 -0.6254 -0.6478
    1MOL0     H  124   0.374   4.684   1.290  1.2440 -1.8475  0.7946
    1MOL0     H  125   0.589   4.656   1.221 -1.8879  0.3415  1.6716
    1MOL0     H  126   0.805   4.631   1.107 -1.7297  0.5310  1.6997
    1MOL0     H  127   0.772   4.487   1.205 -2.2059 -0.2639 -0.8250
    1MOL0     H  128   0.946   4.484   0.955 -1.7285  0.0778 -0.2265
    1MOL0     H  129   0.923   4.356   1.078 -0.0295 -0.4999 -0.6637
    1MOL0     H  130   1.028   4.615   1.186 -1.8135 -2.1054  4.0219
    1MOL0     H  131   1.038   4.448   1.244 -0.6349 -0.6476  0.1146
    1MOL0     H  132   1.177   4.405   1.028  2.3575 -1.4618  2.0716
    1MOL0     H  133   1.245   4.470   1.174  0.0945  3.1709  0.8881
    1MOL0     H  134   1.210   4.831   0.958  0.0647  0.7733  2.8913
    1MOL0     H  135   0.476   4.369   0.930 -0.3593 -0.6352  0.2476
    1MOL0     H  136   0.182   4.296   1.080  1.5160  2.2960  2.3970
    1MOL0     H  137   0.124   4.425   0.969  0.2401  1.1347  2.2051
    1MOL0     H  138   0.241   4.314   0.912 -2.2825  2.7949 -2.6052
    2MOL0     O  139   1.817   5.215   0.551 -0.1366  0.1886  0.9844
    2MOL0     C  140   1.873   5.201   0.663  1.0683 -0.1543  0.1352
    2MOL0     O  141   1.986   5.258   0.703 -0.0253  0.5036  0.4829
    2MOL0     C  142   2.053   5.341   0.626  0.5218 -0.3936 -0.0000
    2MOL0     C  143   1.995   5.451   0.570 -0.2334  0.2143  0.2712
    2MOL0     C  144   2.076   5.545   0.514 -0.6043  0.0080  0.2150
    2MOL0     C  145   2.216   5.533   0.503 -0.2946  0.2826 -0.2552
    2MOL0     O  146   2.292   5.633   0.453 -0.9743  0.5753  0.7993
    2MOL0     C  147   2.233   5.759   0.414  0.3068  0.1289 -1.0374
    2MOL0     C  148   2.347   5.842   0.357  0.3137 -0.7148  0.3089
    2MOL0     C  149   2.456   5.888   0.464  0.3387  0.3475  0.0682
    2MOL0     C  150   2.568   5.970   0.409 -0.1662  0.6957  1.2227
    2MOL0     C  151   2.677   5.888   0.339  1.2302 -0.0006  0.1681
    2MOL0     C  152   2.809   5.960   0.326  0.0121  0.1721  0.7010
    2MOL0     C  153   2.929   5.848   0.308  1.2181  0.0543  0.6223
    2MOL0     C  154   2.907   5.758   0.193  0.7786 -0.9910  0.5860
    2MOL0     N  155   3.017   5.774   0.101  0.2745  0.2273 -1.2078
    2MOL0     C  156   3.029   5.876   0.009  0.1228  1.2679  0.6250
    2MOL0     C  157   3.150   5.862  -0.056  0.3024 -0.6298 -0.3941
    2MOL0     C  158   3.203   5.951  -0.169  0.6293  0.6464 -0.1354
    2MOL0     C  159   3.343   6.005  -0.141  0.3130 -1.0093 -0.8159
    2MOL0     C  160   3.410   6.088  -0.257 -0.4618  0.8255  0.0991
    2MOL0     C  161   3.345   6.226  -0.260 -0.5205 -0.3535 -1.0846
    2MOL0     O  162   3.396   6.309  -0.157  0.0107  0.2859  0.2634
    2MOL0     C  163   3.326   6.427  -0.134 -0.1087 -0.8229  0.7930
    2MOL0     C  164   3.225   6.480  -0.223  0.7204  0.5823  0.9185
    2MOL0     C  165   3.178   6.608  -0.197 -0.1397 -0.4623 -0.3773
    2MOL0     C  166   3.052   6.651  -0.279  0.4968  0.1003 -0.3596
    2MOL0     C  167   3.231   6.701  -0.102 -0.1971  0.3437 -0.0659
    2MOL0     C  168   3.180   6.836  -0.065 -0.6566  0.2345 -1.1550
    2MOL0     O  169   3.260   6.915   0.015  0.4870 -0.0361 -0.2174
    2MOL0     C  170   3.225   7.047   0.046  0.6283  0.4713 -0.2206
    2MOL0     C  171   3.311   7.124   0.135  0.7585 -0.1089  0.3964
    2MOL0     C  172   3.280   7.260   0.160  0.7885  0.5091 -0.3444
    2MOL0     C  173   3.161   7.321   0.114  0.5061  1.1003 -0.2110
    2MOL0     O  174   3.127   7.451   0.137  0.5646 -0.0692  0.4199
    2MOL0     C  175   3.221   7.551   0.118 -0.2770  0.8672  0.5358
    2MOL0     C  176   3.194   7.626  -0.018  0.0547 -0.0346 -0.5399
    2MOL0     C  177   3.053   7.697  -0.037 -0.6959  1.0713  0.3620
    2MOL0     C  178   2.935   7.596  -0.079 -0.6355  0.5870 -0.4417
    2MOL0     C  179   2.858   7.662  -0.188  0.6430 -0.7316  0.2731
    2MOL0     C  180   2.775   7.783  -0.135 -0.4705  0.8896 -0.5215
    2MOL0     C  181   2.687   7.844  -0.244  0.5967 -0.3251 -0.6544
    2MOL0     C  182   2.630   7.981  -0.214 -0.8830  0.2535  0.8161
    2MOL0    Cl  183   2.519   8.008  -0.347  0.1509  0.1688  0.4301
    2MOL0     C  184   3.077   7.243   0.044  0.4135  0.3725 -0.2515
    2MOL0     C  185   3.101   7.108   0.018  0.0239  0.0189  0.8473
    2MOL0     O  186   3.073   6.870  -0.116 -0.1398  0.3722  0.2314
    2MOL0     C  187   3.343   6.646  -0.029 -0.4499 -0.0917  1.1909
    2MOL0     C  188   3.392   6.511  -0.050  0.4080 -0.3797 -0.4937
    2MOL0     N  189   3.203   5.741  -0.002  0.4541 -0.0165  0.4973
    2MOL0     N  190   3.127   5.691   0.090 -0.8963  0.1087 -0.5712
    2MOL0     C  191   2.277   5.423   0.551 -0.8148 -0.1002  0.2789
    2MOL0     C  192   2.192   5.325   0.621 -0.0596  0.0048  0.5664
    2MOL0     C  193   1.818   5.081   0.741 -0.9753 -0.7042 -0.9518
    2MOL0     C  194   1.685   5.036   0.717  0.5120  0.2287 -0.5945
    2MOL0     C  195   1.635   4.932   0.787 -0.3067  0.2238 -0.4327
    2MOL0     C  196   1.711   4.858   0.872  0.1550  0.4158 -0.4846
    2MOL0     O  197   1.664   4.732   0.916 -0.4832 -0.3710 -0.1659
    2MOL0     C  198   1.566   4.733   1.025 -0.3185  0.5639 -0.1481
    2MOL0     C  199   1.628   4.728   1.163 -0.4278  0.6988 -0.4674
    2MOL0     C  200   1.739   4.628   1.166 -0.1520  1.0442 -0.0269
    2MOL0     C  201   1.821   4.632   1.299  0.4258 -0.2708  0.7170
    2MOL0     C  202   1.922   4.532   1.311  0.3223  1.0117 -0.3625
    2MOL0     C  203   2.011   4.440   1.296 -0.3241  0.0452 -0.9712
    2MOL0     C  204   1.846   4.890   0.899 -0.1205 -0.6851 -0.4357
    2MOL0     C  205   1.898   5.008   0.840 -0.3136 -0.0198 -0.6892
    2MOL0     C  206   2.047   5.027   0.862  0.4536  0.8695 -0.0523
    2MOL0     H  207   1.888   5.459   0.559 -0.3338 -1.0966  0.1493
    2MOL0     H  208   2.026   5.637   0.484 -0.8335  0.3496  1.5963
    2MOL0     H  209   2.177   5.807   0.494 -4.0975 -1.6051 -2.7831
    2MOL0     H  210   2.159   5.741   0.335  1.2900 -0.7614 -1.7827
    2MOL0     H  211   2.411   5.780   0.293  1.9747 -0.6382  1.7894
    2MOL0     H  212   2.316   5.925   0.293  2.9740 -0.5441 -0.9202
    2MOL0     H  213   2.405   5.944   0.542 -1.4633 -0.1178 -0.7345
    2MOL0     H  214   2.489   5.799   0.520 -1.4013  0.0043  0.6059
    2MOL0     H  215   2.543   6.040   0.329  1.2045  0.4173  0.5202
    2MOL0     H  216   2.621   6.008   0.497 -0.0606  0.9928  1.0312
    2MOL0     H  217   2.634   5.867   0.241  1.8115  4.0163 -1.1116
    2MOL0     H  218   2.683   5.800   0.404  2.5855  1.5485  2.2733
    2MOL0     H  219   2.811   6.031   0.244 -4.3450  3.4786  3.0443
    2MOL0     H  220   2.836   6.008   0.421  1.0467 -0.3422  0.6887
    2MOL0     H  221   2.926   5.783   0.396  0.7151 -2.5902 -1.2116
    2MOL0     H  222   3.031   5.888   0.306  0.9844  0.6493 -1.2472
    2MOL0     H  223   2.904   5.657   0.233 -4.9784 -1.3115  0.0661
    2MOL0     H  224   2.812   5.782   0.146  1.3128  1.4912  0.6297
    2MOL0     H  225   2.960   5.958  -0.005 -1.4196  0.1053  1.1102
    2MOL0     H  226   3.128   6.030  -0.179 -1.1769 -0.6163  2.2565
    2MOL0     H  227   3.210   5.890  -0.260 -0.4815 -0.5965  0.5594
    2MOL0     H  228   3.329   6.071  -0.055  0.7302 -0.5967 -1.0563
    2MOL0     H  229   3.414   5.924  -0.123  3.0869  0.7888 -2.8969
    2MOL0     H  230   3.517   6.092  -0.236 -0.4243  3.1546 -0.2048
    2MOL0     H  231   3.397   6.033  -0.350 -3.0546  2.3300 -0.5479
    2MOL0     H  232   3.348   6.273  -0.359 -3.1032 -1.0007 -1.5621
    2MOL0     H  233   3.238   6.213  -0.238 -0.1033 -1.3395  0.5732
    2MOL0     H  234   3.205   6.425  -0.314 -1.6297  0.0431  1.6971
    2MOL0     H  235   2.971   6.699  -0.224 -0.6966  0.0320 -1.9769
    2MOL0     H  236   2.996   6.566  -0.319 -0.2327  0.4418 -0.0870
    2MOL0     H  237   3.077   6.717  -0.363 -2.3923  1.9243  0.0598
    2MOL0     H  238   3.402   7.074   0.165  0.9492 -1.2528 -1.8939
    2MOL0     H  239   3.348   7.316   0.223 -1.4111  1.9896  0.8356
    2MOL0     H  240   3.199   7.614   0.205 -3.6175  0.9571 -0.2158
    2MOL0     H  241   3.327   7.525   0.119  0.4395  3.5661  0.8845
    2MOL0     H  242   3.281   7.691  -0.031  1.6624 -2.1312 -0.8076
    2MOL0     H  243   3.211   7.547  -0.091 -0.5486 -1.4860  0.8373
    2MOL0     H  244   3.057   7.770  -0.118  0.8417  0.7616  0.1390
    2MOL0     H  245   3.030   7.751   0.056 -0.0113 -1.8804  2.3846
    2MOL0     H  246   2.868   7.576   0.006  2.5705  0.2048  2.2185
    2MOL0     H  247   2.980   7.500  -0.105  3.0894  2.7466 -2.8401
    2MOL0     H  248   2.919   7.688  -0.274 -0.5404 -1.8591 -0.9476
    2MOL0     H  249   2.785   7.591  -0.228  0.7356  1.5516 -4.5660
    2MOL0     H  250   2.850   7.859  -0.111 -1.9276  2.6197 -1.1935
    2MOL0     H  251   2.728   7.755  -0.041  0.5805 -3.4882 -1.0635
    2MOL0     H  252   2.615   7.764  -0.263 -0.7733  0.5023  0.9081
    2MOL0     H  253   2.757   7.848  -0.329  2.0231  1.9201  0.5411
    2MOL0     H  254   2.709   8.054  -0.228  0.2347 -1.0418  0.1587
    2MOL0     H  255   2.577   7.991  -0.118 -0.2321  0.0189  1.2044
    2MOL0     H  256   2.994   7.293  -0.005  1.6942  3.6109  0.6713
    2MOL0     H  257   3.017   7.071  -0.040 -0.5038  0.2798  1.4410
    2MOL0     H  258   3.402   6.699   0.046  0.5180 -0.6257  0.8202
    2MOL0     H  259   3.460   6.478   0.027  1.2338  1.1135 -0.5394
    2MOL0     H  260   2.385   5.427   0.551 -0.8456  0.9626  0.0325
    2MOL0     H  261   2.234   5.234   0.662  0.7599  1.3384  2.8431
    2MOL0     H  262   1.615   5.091   0.655  0.2873  0.6677  0.0463
    2MOL0     H  263   1.537   4.898   0.757 -0.5797 -0.8724  1.5536
    2MOL0     H  264   1.512   4.828   1.016 -0.2210  0.9744  2.7246
    2MOL0     H  265   1.498   4.648   1.014  1.6747 -0.9871 -1.0448
    2MOL0     H  266   1.550   4.710   1.237  0.6463 -0.1301  0.5141
    2MOL0     H  267   1.663   4.829   1.185 -2.3158  1.4079 -0.5860
    2MOL0     H  268   1.688   4.533   1.146  2.3232 -0.4268  0.2755
    2MOL0     H  269   1.813   4.639   1.086 -1.4131  1.3173 -1.2066
    2MOL0     H  270   1.756   4.634   1.387 -2.6745 -0.1844 -1.4131
    2MOL0     H  271   1.873   4.728   1.310  3.0342 -1.4765 -0.2657
    2MOL0     H  272   2.081   4.361   1.274  0.3272  0.4450 -0.3818
    2MOL0     H  273   1.902   4.815   0.954  0.2786  1.4445  2.2853
    2MOL0     H  274   2.110   4.992   0.781 -1.6047 -0.2331 -1.2535
    2MOL0     H  275   2.067   5.133   0.885 -0.4630  0.3026  4.3959
    2MOL0     H  276   2.067   4.975   0.956 -1.3471  0.5327  0.1890
    3MOL0     O  277   2.795  10.233   8.591  0.4119  0.4631  0.2631
    3MOL0     C  278   2.906  10.278   8.585 -0.1587 -0.3455 -0.0532
    3MOL0     O  279   2.951  10.401   8.641  0.1838  0.2104 -0.5599
    3MOL0     C  280   2.870  10.506   8.682 -0.1601 -1.6017 -0.1657
    3MOL0     C  281   2.731  10.524   8.644 -0.0669  0.2367  0.5681
    3MOL0     C  282   2.660  10.626   8.684  0.0453 -0.9961 -0.3857
    3MOL0     C  283   2.726  10.730   8.753 -0.1891  0.6379  0.1533
    3MOL0     O  284   2.673  10.849   8.797  0.1278  0.2666  0.1503
    3MOL0     C  285   2.530  10.850   8.804  0.0559 -0.5035  0.7747
    3MOL0     C  286   2.488  10.967   8.899  0.0090  0.7525  0.2732
    3MOL0     C  287   2.336  10.956   8.927  0.6493 -0.9674  0.6336
    3MOL0     C  288   2.292  11.082   9.001  0.2134  0.5205  0.4811
    3MOL0     C  289   2.155  11.048   9.064 -0.6324 -0.3451 -0.9994
    3MOL0     C  290   2.091  11.156   9.153 -0.2383 -0.1508 -0.3369
    3MOL0     C  291   2.034  11.278   9.081 -0.6844  0.6484 -0.2771
    3MOL0     C  292   2.020  11.396   9.170  0.1475  1.0813  0.5652
    3MOL0     N  293   2.091  11.512   9.120 -1.3336 -0.0390  0.3087
    3MOL0     C  294   2.219  11.539   9.156  0.1432 -0.1385 -0.1913
    3MOL0     C  295   2.241  11.665   9.112 -0.1697  0.4643  0.7935
    3MOL0     C  296   2.361  11.742   9.145 -0.5776  0.7943  0.6354
    3MOL0     C  297   2.343  11.823   9.262  0.0310  0.0162 -0.2204
    3MOL0     C  298   2.476  11.824   9.346  0.0624 -0.6461  0.0790
    3MOL0     C  299   2.460  11.876   9.494  0.0899 -0.9990  0.1677
    3MOL0     O  300   2.351  11.976   9.515 -0.6539 -0.2137  0.1214
    3MOL0     C  301   2.378  12.111   9.518 -0.7473  0.0729  0.2539
    3MOL0     C  302   2.383  12.166   9.643  0.7867  0.1221 -0.2174
    3MOL0     C  303   2.414  12.306   9.653 -0.0237 -0.2746 -0.3021
    3MOL0     C  304   2.421  12.371   9.794  0.3974  0.2311  0.6388
    3MOL0     C  305   2.462  12.371   9.541  0.0805  0.5901  0.1199
    3MOL0     C  306   2.504  12.510   9.537 -0.2132 -0.4395 -0.6016
    3MOL0     O  307   2.451  12.595   9.444  0.5864 -0.3347  0.1928
    3MOL0     C  308   2.442  12.731   9.456 -0.5124 -0.2757  0.8128
    3MOL0     C  309   2.439  12.808   9.580 -0.1420  0.9858 -0.1456
    3MOL0     C  310   2.406  12.939   9.583  0.2288 -0.3365 -0.0311
    3MOL0     C  311   2.397  13.012   9.463 -0.0004  0.4787  1.0706
    3MOL0     O  312   2.379  13.145   9.467 -0.2394  0.6970 -0.1326
    3MOL0     C  313   2.389  13.225   9.586 -1.2884 -0.1814  0.0068
    3MOL0     C  314   2.535  13.222   9.667 -0.1753  0.8433  1.0917
    3MOL0     C  315   2.630  13.316   9.607 -0.0499 -0.2864 -0.0048
    3MOL0     C  316   2.755  13.329   9.700  0.3568 -0.9514  0.8055
    3MOL0     C  317   2.863  13.433   9.644  0.7577 -0.0140 -0.4641
    3MOL0     C  318   2.970  13.462   9.747 -0.5623 -1.1944 -1.2849
    3MOL0     C  319   3.086  13.361   9.736  0.1836 -0.1721 -0.5418
    3MOL0     C  320   3.195  13.357   9.843 -0.3492 -0.4640  0.4468
    3MOL0    Cl  321   3.255  13.193   9.836 -0.0393  0.1143  0.3629
    3MOL0     C  322   2.407  12.942   9.336 -0.3105 -0.2386  0.1099
    3MOL0     C  323   2.427  12.806   9.335 -0.6763 -1.0794  0.5675
    3MOL0     O  324   2.589  12.549   9.613  0.1887  0.2968 -0.2753
    3MOL0     C  325   2.466  12.310   9.418  0.0131  0.4036 -0.2849
    3MOL0     C  326   2.412  12.179   9.405 -0.0137 -0.1207 -0.1073
    3MOL0     N  327   2.126  11.711   9.062 -0.0933  0.6115 -0.1384
    3MOL0     N  328   2.035  11.620   9.061 -0.1876 -0.8480  0.2648
    3MOL0     C  329   2.865  10.716   8.793 -0.4408 -0.0372 -0.5732
    3MOL0     C  330   2.927  10.599   8.762 -0.1104 -0.2457  0.2448
    3MOL0     C  331   3.005  10.202   8.497  0.7785 -1.2471 -0.1945
    3MOL0     C  332   3.129  10.265   8.477 -0.0160  0.6378 -1.0428
    3MOL0     C  333   3.223  10.212   8.386 -0.0408  0.1137  0.0085
    3MOL0     C  334   3.189  10.107   8.298  0.3811 -0.4826  0.0543
    3MOL0     O  335   3.270  10.061   8.198 -0.3647 -0.4600 -0.6415
    3MOL0     C  336   3.406  10.113   8.193 -0.1002  0.0473 -0.5356
    3MOL0     C  337   3.471  10.011   8.096 -0.7968 -0.0707 -0.2314
    3MOL0     C  338   3.537   9.908   8.195 -0.3811  0.3284 -0.4306
    3MOL0     C  339   3.558   9.773   8.120  0.1510  0.3684  0.4095
    3MOL0     C  340   3.431   9.709   8.103 -0.1129 -0.0885 -0.7490
    3MOL0     C  341   3.320   9.658   8.097  0.4727 -0.3535 -0.2252
    3MOL0     C  342   3.062  10.051   8.313 -0.4867 -0.6449 -1.1894
    3MOL0     C  343   2.965  10.091   8.407 -0.8430  0.3215  0.8384
    3MOL0     C  344   2.835  10.003   8.413  0.3850 -0.9304 -0.4256
    3MOL0     H  345   2.692  10.453   8.571 -0.4121  0.5157  0.4815
    3MOL0     H  346   2.556  10.625   8.650  0.1695 -1.5182 -0.7490
    3MOL0     H  347   2.490  10.754   8.839 -3.5108 -0.7199 -3.1387
    3MOL0     H  348   2.493  10.865   8.702 -0.6693 -0.4721  1.0380
    3MOL0     H  349   2.543  10.955   8.993 -0.7588  3.4460  1.1676
    3MOL0     H  350   2.528  11.058   8.853  0.8988 -0.0774 -0.6452
    3MOL0     H  351   2.284  10.946   8.831 -1.8397  4.0675  1.0973
    3MOL0     H  352   2.304  10.876   8.993 -2.0140  2.0306  3.3251
    3MOL0     H  353   2.365  11.109   9.078  0.1697 -1.4882  1.2714
    3MOL0     H  354   2.275  11.152   8.918 -1.9457 -2.5408 -1.9211
    3MOL0     H  355   2.155  10.957   9.125 -1.2859  0.9346  1.0101
    3MOL0     H  356   2.080  11.044   8.984 -0.4926  1.3118 -1.2476
    3MOL0     H  357   2.010  11.114   9.213  0.4736  1.2351  1.6947
    3MOL0     H  358   2.165  11.185   9.228  0.0816  1.8669 -1.3682
    3MOL0     H  359   1.938  11.242   9.045  0.4342 -0.6971 -2.0794
    3MOL0     H  360   2.102  11.307   9.000 -0.7710  0.2582 -0.4895
    3MOL0     H  361   1.912  11.407   9.180 -0.2280 -1.4885  0.0703
    3MOL0     H  362   2.056  11.374   9.271 -1.1129 -2.2718  0.4152
    3MOL0     H  363   2.277  11.470   9.215 -3.0137 -1.1637  2.0088
    3MOL0     H  364   2.390  11.799   9.056  1.5430 -1.4099 -0.2173
    3MOL0     H  365   2.440  11.667   9.159  0.0198  1.7415  2.7331
    3MOL0     H  366   2.303  11.923   9.246  0.4231  0.0454 -1.0620
    3MOL0     H  367   2.265  11.770   9.319  0.2469  0.8437  0.8830
    3MOL0     H  368   2.516  11.722   9.347  0.7266 -0.5028 -2.6019
    3MOL0     H  369   2.552  11.886   9.298  0.7309 -0.7081  1.0343
    3MOL0     H  370   2.447  11.787   9.557  2.2469 -0.5692  1.3017
    3MOL0     H  371   2.560  11.911   9.520  1.6856 -2.5636 -3.2938
    3MOL0     H  372   2.356  12.113   9.734  1.0642  2.8493  1.5968
    3MOL0     H  373   2.508  12.436   9.804  1.0346 -0.5986  0.6572
    3MOL0     H  374   2.428  12.292   9.869  0.5668 -0.6210 -0.2512
    3MOL0     H  375   2.337  12.438   9.816  1.4386  2.2186 -1.1078
    3MOL0     H  376   2.431  12.749   9.671 -3.7889  2.4699  0.6866
    3MOL0     H  377   2.389  12.992   9.676  2.4736 -0.3821  0.4660
    3MOL0     H  378   2.366  13.323   9.543  1.1099 -0.4153 -2.0403
    3MOL0     H  379   2.309  13.204   9.657  0.3180 -0.5137  1.8107
    3MOL0     H  380   2.524  13.246   9.773  0.1408  0.1605  1.2794
    3MOL0     H  381   2.575  13.122   9.651 -1.0696  0.6131  0.2106
    3MOL0     H  382   2.567  13.405   9.593 -0.1626 -0.4052 -0.2699
    3MOL0     H  383   2.665  13.291   9.506 -2.0244 -0.0831 -0.7890
    3MOL0     H  384   2.789  13.226   9.711 -1.1010 -1.6022 -0.4989
    3MOL0     H  385   2.731  13.370   9.799  1.0611  0.1126  0.5509
    3MOL0     H  386   2.907  13.387   9.555 -0.3321  2.1418 -2.2243
    3MOL0     H  387   2.806  13.525   9.630 -0.1190 -0.1816  1.6594
    3MOL0     H  388   2.920  13.466   9.844  2.1912  0.6499  0.1737
    3MOL0     H  389   3.006  13.563   9.727  0.0909 -1.2895 -0.6169
    3MOL0     H  390   3.134  13.378   9.639  0.5854 -1.3360 -0.5605
    3MOL0     H  391   3.043  13.261   9.733  0.9935 -0.5604  0.6288
    3MOL0     H  392   3.163  13.370   9.947  1.3652  1.9736  0.7673
    3MOL0     H  393   3.259  13.445   9.829 -2.3507  0.9727 -0.2039
    3MOL0     H  394   2.387  12.995   9.244 -2.8227  0.1272  0.7771
    3MOL0     H  395   2.433  12.751   9.241  1.6596  0.9291 -0.5767
    3MOL0     H  396   2.508  12.354   9.328  0.0053  1.3227  0.1543
    3MOL0     H  397   2.402  12.130   9.308 -3.2363  2.0073 -1.0031
    3MOL0     H  398   2.922  10.794   8.841 -2.4220  0.5456  0.9608
    3MOL0     H  399   3.030  10.583   8.793 -0.4167  1.4981  2.3915
    3MOL0     H  400   3.174  10.334   8.547  0.8786 -1.4842  0.6069
    3MOL0     H  401   3.317  10.264   8.379  0.8573 -1.6091 -1.5524
    3MOL0     H  402   3.408  10.214   8.150 -2.0072  0.3127 -0.0871
    3MOL0     H  403   3.462  10.115   8.287  0.5138 -1.9752 -0.8066
    3MOL0     H  404   3.543  10.074   8.042  0.3091 -0.6374  0.5332
    3MOL0     H  405   3.390   9.979   8.031 -1.8948  0.7151  0.7004
    3MOL0     H  406   3.635   9.930   8.237 -0.5389 -1.0503  0.7895
    3MOL0     H  407   3.467   9.879   8.275 -0.4418 -3.1357 -1.5428
    3MOL0     H  408   3.625   9.710   8.180 -0.5377 -0.0234  0.7773
    3MOL0     H  409   3.609   9.798   8.026 -1.3419  1.4041 -0.1603
    3MOL0     H  410   3.222   9.615   8.103  0.4492 -0.5015 -1.4858
    3MOL0     H  411   3.051   9.963   8.251  1.8577 -1.3345 -0.7404
    3MOL0     H  412   2.761  10.035   8.339 -1.8057 -0.8768  1.6909
    3MOL0     H  413   2.868   9.907   8.371 -0.6070 -0.7717 -1.6360
    3MOL0     H  414   2.800   9.985   8.515  4.1493 -0.2073  1.1737
    4MOL0     O  415   7.745   8.374   1.547  0.1231 -0.3034 -0.3013
    4MOL0     C  416   7.778   8.261   1.594 -0.0375 -0.8318  0.4807
    4MOL0     O  417   7.808   8.241   1.728 -0.4258 -0.4696 -0.3311
    4MOL0     C  418   7.807   8.348   1.815  0.1455 -0.2947  0.1557
    4MOL0     C  419   7.918   8.437   1.830 -0.9999 -0.2800  0.2179
    4MOL0     C  420   7.913   8.547   1.915 -0.5483 -0.5854 -0.2228
    4MOL0     C  421   7.800   8.571   1.995 -0.1835  0.5925  0.1796
    4MOL0     O  422   7.794   8.682   2.077  0.0677  0.1748  1.0005
    4MOL0     C  423   7.893   8.785   2.079 -0.4671 -0.1674 -0.3700
    4MOL0     C  424   7.860   8.883   2.191  0.2556 -0.6449  0.0404
    4MOL0     C  425   7.757   8.984   2.143  0.6717  0.6435 -0.3333
    4MOL0     C  426   7.786   9.129   2.196 -0.1866  1.0253 -0.6081
    4MOL0     C  427   7.708   9.233   2.127  0.0860  0.1633 -0.8167
    4MOL0     C  428   7.554   9.235   2.168 -0.6444  0.2180 -0.0641
    4MOL0     C  429   7.489   9.348   2.086  0.2716  1.2316  0.2367
    4MOL0     C  430   7.348   9.374   2.110 -1.0776 -0.2197  0.1267
    4MOL0     N  431   7.323   9.395   2.257  0.6764  0.0934 -0.2944
    4MOL0     C  432   7.382   9.483   2.338 -0.9760 -0.7389 -0.9971
    4MOL0     C  433   7.351   9.451   2.470  0.1284  0.4166  0.0856
    4MOL0     C  434   7.384   9.529   2.595 -0.6884  0.0124  0.1098
    4MOL0     C  435   7.490   9.464   2.688 -0.7190  0.6480  0.2294
    4MOL0     C  436   7.523   9.577   2.783  0.3290 -0.0415 -0.4598
    4MOL0     C  437   7.586   9.530   2.926  0.2853  0.8065  0.2382
    4MOL0     O  438   7.563   9.631   3.025 -0.1722 -0.3931 -0.2363
    4MOL0     C  439   7.621   9.624   3.144 -0.2297 -0.3150  1.1035
    4MOL0     C  440   7.587   9.730   3.236 -0.6750  0.0723  0.6422
    4MOL0     C  441   7.654   9.737   3.358  0.2213  0.1696  0.1772
    4MOL0     C  442   7.611   9.852   3.449 -0.6187 -0.0442 -0.2842
    4MOL0     C  443   7.751   9.635   3.397  0.1304 -0.9462  0.2284
    4MOL0     C  444   7.841   9.646   3.511 -1.2665 -0.6388  0.3484
    4MOL0     O  445   7.857   9.554   3.603  0.4899 -0.1773  0.3049
    4MOL0     C  446   7.954   9.552   3.705  0.8664 -0.1110 -0.8551
    4MOL0     C  447   8.041   9.656   3.738 -0.1575 -0.4892 -0.9150
    4MOL0     C  448   8.113   9.642   3.859 -0.1655  1.0902  0.5599
    4MOL0     C  449   8.119   9.524   3.923  0.5117 -0.9975  0.3039
    4MOL0     O  450   8.213   9.525   4.027  0.3440 -0.5194 -0.4523
    4MOL0     C  451   8.311   9.425   4.022  1.0169  0.2733 -0.2695
    4MOL0     C  452   8.434   9.448   3.928  0.2532  0.3664 -0.0623
    4MOL0     C  453   8.515   9.571   3.975 -1.1877 -0.0752 -0.6801
    4MOL0     C  454   8.451   9.708   3.941 -1.0854  0.4683  0.3653
    4MOL0     C  455   8.564   9.817   3.923 -0.2771  0.1285 -0.0050
    4MOL0     C  456   8.504   9.948   3.895  0.4563  0.5185 -0.5576
    4MOL0     C  457   8.618  10.060   3.900 -0.3677 -1.1005  1.0439
    4MOL0     C  458   8.569  10.206   3.861  0.4594  0.1259 -0.5226
    4MOL0    Cl  459   8.441  10.249   3.971  0.1773  0.1070  0.1022
    4MOL0     C  460   8.044   9.421   3.888 -0.0618 -0.2978  0.7564
    4MOL0     C  461   7.965   9.432   3.767 -0.0357 -0.1840 -0.3066
    4MOL0     O  462   7.906   9.759   3.500  1.1419 -0.3551 -0.4503
    4MOL0     C  463   7.775   9.527   3.308 -0.4045 -0.0432  0.0426
    4MOL0     C  464   7.711   9.525   3.181 -0.2116  0.7847 -0.1010
    4MOL0     N  465   7.265   9.344   2.457  0.0247  0.5810 -0.8454
    4MOL0     N  466   7.244   9.315   2.335  0.1548  0.4489  0.6295
    4MOL0     C  467   7.692   8.482   1.980  0.1822 -0.8015  0.4630
    4MOL0     C  468   7.695   8.377   1.888  0.0225  0.3422  0.4261
    4MOL0     C  469   7.777   8.138   1.507 -0.2365 -1.1038 -1.0426
    4MOL0     C  470   7.834   8.022   1.561 -0.7640  0.4524  0.0712
    4MOL0     C  471   7.846   7.902   1.484 -0.4031 -0.4751 -0.5754
    4MOL0     C  472   7.805   7.901   1.350 -0.2466 -0.6601 -0.1347
    4MOL0     O  473   7.833   7.789   1.284 -0.1596 -0.0389 -0.1337
    4MOL0     C  474   7.783   7.767   1.149 -0.1522 -0.9316  0.2437
    4MOL0     C  475   7.829   7.635   1.088 -0.3271  0.0787 -0.3130
    4MOL0     C  476   7.794   7.499   1.162 -0.2822 -0.4943 -0.8430
    4MOL0     C  477   7.649   7.489   1.239  0.4888 -0.1477 -0.2520
    4MOL0     C  478   7.667   7.355   1.297  0.0189 -0.4008  0.5218
    4MOL0     C  479   7.674   7.241   1.346  0.2101  0.3364 -0.5080
    4MOL0     C  480   7.743   8.017   1.292  0.3679 -0.8543  0.6054
    4MOL0     C  481   7.725   8.135   1.372 -0.0143  0.1392  0.2281
    4MOL0     C  482   7.668   8.258   1.304  0.0354  0.1693 -0.6267
    4MOL0     H  483   7.989   8.412   1.752 -2.6944 -3.1434 -0.5588
    4MOL0     H  484   7.992   8.621   1.917 -0.4531 -0.6682  2.7254
    4MOL0     H  485   7.924   8.839   1.990  1.3079  1.8909  1.3925
    4MOL0     H  486   7.980   8.729   2.113 -1.8384 -1.5476  1.0586
    4MOL0     H  487   7.814   8.832   2.276  1.7398 -0.9638  0.6927
    4MOL0     H  488   7.950   8.931   2.230 -0.3415 -0.4174  1.1627
    4MOL0     H  489   7.749   9.001   2.035  1.5927  5.3073  0.0843
    4MOL0     H  490   7.662   8.943   2.178  0.6636  1.3203  0.4850
    4MOL0     H  491   7.774   9.136   2.305  2.2762 -0.1243 -0.1957
    4MOL0     H  492   7.891   9.157   2.191 -0.1682  0.9749 -0.5186
    4MOL0     H  493   7.726   9.214   2.021 -2.9689 -2.3507 -1.0533
    4MOL0     H  494   7.748   9.331   2.155 -0.0051  0.4765 -1.7443
    4MOL0     H  495   7.526   9.133   2.140  2.0357 -0.7260  0.4735
    4MOL0     H  496   7.534   9.251   2.275 -1.4604  2.0737 -0.4581
    4MOL0     H  497   7.494   9.330   1.978 -1.5786  1.0724  0.1490
    4MOL0     H  498   7.546   9.438   2.112 -0.9719  2.4145 -0.9827
    4MOL0     H  499   7.321   9.465   2.055  1.3933 -0.2442 -1.2816
    4MOL0     H  500   7.297   9.286   2.071  0.7904 -0.1361 -2.8077
    4MOL0     H  501   7.456   9.554   2.301  1.6332 -1.6107  2.1646
    4MOL0     H  502   7.288   9.539   2.646 -0.6957  2.3260 -0.2166
    4MOL0     H  503   7.419   9.630   2.570  1.5270 -0.1039  2.2563
    4MOL0     H  504   7.449   9.376   2.739 -1.0166  0.5496 -0.1695
    4MOL0     H  505   7.569   9.443   2.615  0.0585 -0.7531  1.4233
    4MOL0     H  506   7.592   9.652   2.743 -1.8872  3.9571  2.5056
    4MOL0     H  507   7.429   9.629   2.802 -0.5747 -2.4858  2.6872
    4MOL0     H  508   7.532   9.440   2.957 -1.3692  1.4042 -0.7694
    4MOL0     H  509   7.693   9.515   2.911  0.2987 -1.0595  1.8547
    4MOL0     H  510   7.500   9.783   3.198  0.2808 -1.1485 -3.9628
    4MOL0     H  511   7.512   9.830   3.492 -0.0815  1.5964  1.9437
    4MOL0     H  512   7.587   9.938   3.386 -1.4866  0.5704  0.8513
    4MOL0     H  513   7.685   9.877   3.525 -2.8818  0.0543  2.0463
    4MOL0     H  514   8.043   9.752   3.688 -1.5107 -0.2578 -0.5653
    4MOL0     H  515   8.182   9.723   3.879 -1.0855  1.9484  0.3428
    4MOL0     H  516   8.332   9.425   4.129 -2.4765  0.3630  0.5420
    4MOL0     H  517   8.268   9.326   4.003  1.8079  0.0066 -0.7095
    4MOL0     H  518   8.499   9.362   3.948  1.9194  1.8373  1.1198
    4MOL0     H  519   8.401   9.458   3.824  0.7693  3.1948 -0.0163
    4MOL0     H  520   8.616   9.565   3.935  0.0773  0.8378  2.0990
    4MOL0     H  521   8.520   9.552   4.083 -0.3176  0.1897 -0.6722
    4MOL0     H  522   8.372   9.732   4.013 -2.0527 -1.1477 -0.1075
    4MOL0     H  523   8.396   9.693   3.847  1.8163 -3.2367 -0.9888
    4MOL0     H  524   8.626   9.821   4.013 -1.3320  1.1026  0.7149
    4MOL0     H  525   8.622   9.792   3.834  1.2014 -0.9405  1.2063
    4MOL0     H  526   8.442   9.975   3.982 -1.0567 -0.9983 -1.1048
    4MOL0     H  527   8.449   9.938   3.801 -0.9388 -1.7095  0.4057
    4MOL0     H  528   8.692  10.031   3.824 -1.5624 -0.3593 -0.4694
    4MOL0     H  529   8.663  10.074   3.998 -1.4011  0.2436  1.3610
    4MOL0     H  530   8.530  10.212   3.760  3.0019 -1.8912 -1.7467
    4MOL0     H  531   8.642  10.288   3.865 -0.9183  1.6186 -3.5085
    4MOL0     H  532   8.037   9.328   3.943  0.1149 -1.1944 -0.6771
    4MOL0     H  533   7.910   9.352   3.718 -0.8363  1.0234 -1.4546
    4MOL0     H  534   7.839   9.447   3.342  1.5032  0.8516 -1.2362
    4MOL0     H  535   7.730   9.441   3.114 -3.1482 -0.7407  0.7861
    4MOL0     H  536   7.606   8.489   2.046  0.4051 -0.7878  0.7521
    4MOL0     H  537   7.617   8.302   1.873  0.4780  0.0090 -0.3181
    4MOL0     H  538   7.885   8.031   1.657  0.6246 -0.4540 -0.5502
    4MOL0     H  539   7.889   7.819   1.538 -2.8300 -0.1384  2.1543
    4MOL0     H  540   7.674   7.767   1.150 -0.2134 -1.1122 -1.9396
    4MOL0     H  541   7.822   7.850   1.089  1.0068 -2.0748 -0.6411
    4MOL0     H  542   7.938   7.637   1.082  0.0917  0.6921  4.2615
    4MOL0     H  543   7.786   7.631   0.987  1.8371  0.0747 -1.3028
    4MOL0     H  544   7.785   7.429   1.079 -2.6355 -0.6202 -0.5260
    4MOL0     H  545   7.871   7.476   1.237 -0.6714 -0.9231 -0.5754
    4MOL0     H  546   7.574   7.501   1.159  1.5401  3.7099 -0.8615
    4MOL0     H  547   7.626   7.572   1.306  1.1815  1.9130 -2.3850
    4MOL0     H  548   7.648   7.152   1.399 -1.8835  0.7479 -0.7467
    4MOL0     H  549   7.714   8.044   1.190  0.3043  1.7408  1.2319
    4MOL0     H  550   7.608   8.326   1.366 -1.9011 -0.4522 -1.7544
    4MOL0     H  551   7.753   8.320   1.274  1.6652 -2.1274 -1.0186
    4MOL0     H  552   7.606   8.225   1.220 -0.3885 -2.6794  0.6945
    5MOL0     O  553  11.170   5.177   0.010  0.4071  0.0170 -0.0044
    5MOL0     C  554  11.239   5.214   0.100  0.2333  0.1877  0.2607
    5MOL0     O  555  11.370   5.244   0.083  0.0406 -0.4907  0.2964
    5MOL0     C  556  11.427   5.170  -0.015  0.0072 -0.4032 -0.5769
    5MOL0     C  557  11.448   5.231  -0.133 -0.3418  0.0781  0.3333
    5MOL0     C  558  11.520   5.177  -0.240  0.3409 -0.3838  0.1021
    5MOL0     C  559  11.584   5.059  -0.214 -0.4130  0.2511  0.0321
    5MOL0     O  560  11.677   5.001  -0.308 -0.2117 -0.3603 -0.2355
    5MOL0     C  561  11.602   4.940  -0.413 -0.2336 -0.0876  0.3902
    5MOL0     C  562  11.547   4.801  -0.368 -0.7944  0.4283 -0.4728
    5MOL0     C  563  11.661   4.701  -0.334  0.5915  0.1019 -1.0912
    5MOL0     C  564  11.596   4.565  -0.310  0.9392 -0.7370 -0.6813
    5MOL0     C  565  11.683   4.452  -0.271 -0.2797 -0.0691  0.9388
    5MOL0     C  566  11.746   4.474  -0.131 -0.2218  0.1852 -0.0712
    5MOL0     C  567  11.647   4.480  -0.015 -1.2030 -0.0364  0.4850
    5MOL0     C  568  11.564   4.351   0.009  0.1886 -0.9995 -0.4953
    5MOL0     N  569  11.666   4.249   0.048  0.8285 -1.1696 -0.6319
    5MOL0     C  570  11.782   4.256   0.123  1.4008  0.1060  0.5987
    5MOL0     C  571  11.845   4.139   0.120 -0.6106  0.2379 -0.0359
    5MOL0     C  572  11.965   4.103   0.192  0.1412 -0.0732 -0.9128
    5MOL0     C  573  12.086   4.181   0.147 -0.1714  0.5877 -0.4153
    5MOL0     C  574  12.222   4.152   0.231 -0.6541 -0.3328  0.1902
    5MOL0     C  575  12.308   4.276   0.228 -0.1564 -0.1747  0.4626
    5MOL0     O  576  12.249   4.378   0.313 -0.1614  0.3791  0.2522
    5MOL0     C  577  12.235   4.507   0.263  0.2202 -0.8261 -0.4838
    5MOL0     C  578  12.107   4.561   0.239 -0.3597  0.7013 -1.0557
    5MOL0     C  579  12.092   4.690   0.176  0.3435  0.0910  0.2078
    5MOL0     C  580  11.946   4.730   0.166 -0.0517  0.4121  0.5508
    5MOL0     C  581  12.198   4.763   0.135  0.4073 -0.6655 -1.0226
    5MOL0     C  582  12.198   4.905   0.089 -0.1003  0.2006 -0.0786
    5MOL0     O  583  12.087   4.952   0.025  0.1612 -0.2110 -0.2178
    5MOL0     C  584  12.047   5.083   0.015  0.3590 -0.0094  0.1056
    5MOL0     C  585  12.110   5.197   0.056 -0.7737  0.2354  0.5241
    5MOL0     C  586  12.043   5.319   0.061 -1.0311 -0.2383  0.5952
    5MOL0     C  587  11.919   5.331   0.010  0.9925  0.4404  0.1131
    5MOL0     O  588  11.862   5.457  -0.006 -0.5713  0.1357 -0.1920
    5MOL0     C  589  11.889   5.516  -0.129 -0.2573 -0.5986  0.3013
    5MOL0     C  590  11.785   5.621  -0.165  0.7656  0.7037 -0.1156
    5MOL0     C  591  11.753   5.642  -0.314  0.5530  0.0096  0.9554
    5MOL0     C  592  11.606   5.677  -0.332  0.1383 -0.6255 -0.2460
    5MOL0     C  593  11.585   5.762  -0.454  0.1992 -0.4754 -0.6064
    5MOL0     C  594  11.446   5.740  -0.515 -0.6448  0.2067 -1.0759
    5MOL0     C  595  11.331   5.784  -0.420  0.5179 -1.0749  0.8269
    5MOL0     C  596  11.313   5.934  -0.423 -0.9662 -0.3821  0.1815
    5MOL0    Cl  597  11.278   5.995  -0.579 -0.1422  0.1356 -0.0771
    5MOL0     C  598  11.854   5.221  -0.048  0.0851 -0.6438  0.0703
    5MOL0     C  599  11.913   5.094  -0.034 -0.0414  0.3767  0.8297
    5MOL0     O  600  12.298   4.974   0.121 -1.1179  0.7416 -0.1728
    5MOL0     C  601  12.321   4.707   0.162 -0.3856 -0.3650  0.4777
    5MOL0     C  602  12.337   4.584   0.223  0.3482 -1.2252  0.1074
    5MOL0     N  603  11.771   4.051   0.048 -0.6317 -0.3545 -0.7641
    5MOL0     N  604  11.664   4.116   0.013 -0.1865  1.0107  0.6933
    5MOL0     C  605  11.579   4.995  -0.092  0.4094  0.5530  0.1065
    5MOL0     C  606  11.499   5.058   0.010  0.5796  0.0221 -0.6811
    5MOL0     C  607  11.181   5.249   0.237 -0.2367  0.2191  0.3862
    5MOL0     C  608  11.267   5.265   0.349  0.3089 -0.0136  0.6140
    5MOL0     C  609  11.222   5.295   0.480  0.4167  0.0951  0.6754
    5MOL0     C  610  11.081   5.300   0.500  0.4912 -0.0910  0.4575
    5MOL0     O  611  11.037   5.320   0.624 -0.1097  0.0169  0.0361
    5MOL0     C  612  10.893   5.291   0.661 -0.6792  1.0984 -0.8751
    5MOL0     C  613  10.890   5.309   0.811  0.4133  0.0929 -0.0125
    5MOL0     C  614  10.997   5.230   0.891  0.0494 -0.1664  0.9246
    5MOL0     C  615  10.980   5.239   1.044  0.0463 -0.1409 -0.1500
    5MOL0     C  616  11.105   5.244   1.122 -0.1643 -0.2196  0.0711
    5MOL0     C  617  11.207   5.254   1.181  0.1193 -0.2566  0.4491
    5MOL0     C  618  10.994   5.277   0.397  0.4276  1.4118  1.0993
    5MOL0     C  619  11.039   5.248   0.272  0.1791 -0.2691 -0.0948
    5MOL0     C  620  10.940   5.195   0.175  0.1520 -0.1014  0.6547
    5MOL0     H  621  11.399   5.327  -0.131 -0.5620  0.1260 -2.6362
    5MOL0     H  622  11.540   5.224  -0.336  1.4706 -1.4904 -0.2339
    5MOL0     H  623  11.670   4.910  -0.494 -0.3400 -0.0440  0.2847
    5MOL0     H  624  11.523   5.005  -0.450  0.3161 -0.5896 -1.8463
    5MOL0     H  625  11.494   4.823  -0.275 -2.9677 -2.7252 -0.8421
    5MOL0     H  626  11.472   4.752  -0.430 -1.9838  1.9545 -0.2912
    5MOL0     H  627  11.720   4.687  -0.425 -0.0941 -3.2951 -1.1497
    5MOL0     H  628  11.716   4.741  -0.249 -1.1172 -2.2935  1.2782
    5MOL0     H  629  11.504   4.579  -0.253 -0.4736  0.0213 -3.0149
    5MOL0     H  630  11.554   4.532  -0.405 -2.2628  0.9270  0.0389
    5MOL0     H  631  11.762   4.446  -0.346 -0.4272  1.8964  0.5712
    5MOL0     H  632  11.620   4.363  -0.283 -3.2622  2.1380 -1.3063
    5MOL0     H  633  11.822   4.398  -0.109  0.7087  0.2524 -2.6826
    5MOL0     H  634  11.805   4.566  -0.140 -1.1133  0.8668  0.8256
    5MOL0     H  635  11.585   4.569  -0.018  0.3456  1.0738 -0.1924
    5MOL0     H  636  11.709   4.501   0.072 -2.1012  1.6621  0.7527
    5MOL0     H  637  11.484   4.374   0.079 -0.7246  1.3203 -2.1540
    5MOL0     H  638  11.499   4.328  -0.076 -1.9005  3.1996 -0.3336
    5MOL0     H  639  11.828   4.348   0.158 -2.5293  1.4190  2.9669
    5MOL0     H  640  11.980   3.996   0.178 -1.4137 -0.3255 -0.9167
    5MOL0     H  641  11.948   4.110   0.300  1.9455  0.2037 -0.6195
    5MOL0     H  642  12.105   4.145   0.045 -0.5076 -3.3620  0.7131
    5MOL0     H  643  12.066   4.288   0.154 -2.2463  0.1882  0.5248
    5MOL0     H  644  12.207   4.139   0.338 -2.2342 -2.8827 -0.2592
    5MOL0     H  645  12.290   4.077   0.188  4.3182  3.4432  0.4694
    5MOL0     H  646  12.403   4.250   0.276 -0.7879 -0.8010  1.3993
    5MOL0     H  647  12.327   4.309   0.125 -2.2437  1.6931  0.5989
    5MOL0     H  648  12.018   4.508   0.271  0.0962  1.2306  1.2802
    5MOL0     H  649  11.936   4.837   0.188  2.2337  0.3817  2.1288
    5MOL0     H  650  11.869   4.674   0.220  0.7933 -0.9513  0.3875
    5MOL0     H  651  11.911   4.710   0.065 -0.6993  2.6170  0.2716
    5MOL0     H  652  12.207   5.188   0.103 -0.8662 -2.5786  0.3414
    5MOL0     H  653  12.109   5.397   0.097  3.0638 -1.9405 -2.4087
    5MOL0     H  654  11.991   5.551  -0.150 -0.9317  0.5770 -1.1988
    5MOL0     H  655  11.871   5.436  -0.202 -0.1512  0.1004 -0.5056
    5MOL0     H  656  11.695   5.588  -0.113  1.3195 -1.4528 -0.4144
    5MOL0     H  657  11.817   5.715  -0.118 -1.8221  0.8659  1.5417
    5MOL0     H  658  11.771   5.547  -0.366 -1.4216 -0.5644  1.2179
    5MOL0     H  659  11.821   5.717  -0.354 -2.5928  2.8045  0.4654
    5MOL0     H  660  11.565   5.730  -0.246  0.7546 -2.0140  0.9469
    5MOL0     H  661  11.550   5.583  -0.338  1.0324 -1.1079 -1.4857
    5MOL0     H  662  11.614   5.867  -0.446  0.4160 -0.3566 -2.5112
    5MOL0     H  663  11.647   5.731  -0.538 -0.1833  0.7857 -1.3732
    5MOL0     H  664  11.440   5.634  -0.539  2.3663  0.1944 -2.2880
    5MOL0     H  665  11.459   5.797  -0.608  2.7420  0.2041 -0.7166
    5MOL0     H  666  11.355   5.758  -0.316 -2.3265 -4.4496  0.8188
    5MOL0     H  667  11.236   5.746  -0.457 -0.3840  3.1636 -1.8546
    5MOL0     H  668  11.407   5.984  -0.397 -0.9790 -0.6618  0.7981
    5MOL0     H  669  11.229   5.961  -0.358 -0.8436  2.4409 -0.7064
    5MOL0     H  670  11.755   5.250  -0.080  0.5993  4.4921  2.2475
    5MOL0     H  671  11.853   5.009  -0.064  0.2107  0.5350 -0.1803
    5MOL0     H  672  12.411   4.758   0.129 -0.2189 -0.7544  0.3165
    5MOL0     H  673  12.433   4.533   0.213  2.4566  2.3854  0.4600
    5MOL0     H  674  11.634   4.902  -0.084 -0.4263 -0.0395 -0.8192
    5MOL0     H  675  11.487   5.019   0.111  0.8362 -0.3286 -0.7832
    5MOL0     H  676  11.372   5.248   0.325  1.4636  0.5116  4.5166
    5MOL0     H  677  11.289   5.312   0.564  0.6470  2.8337  0.0463
    5MOL0     H  678  10.821   5.364   0.622 -1.5228 -0.7293 -3.0132
    5MOL0     H  679  10.858   5.188   0.651 -0.4096  0.7808  1.0849
    5MOL0     H  680  10.788   5.283   0.843  0.1620  0.9951 -0.0451
    5MOL0     H  681  10.904   5.414   0.839 -2.7306  1.0163 -1.3755
    5MOL0     H  682  10.983   5.127   0.856 -1.7091  0.8635 -1.6928
    5MOL0     H  683  11.099   5.259   0.865 -0.8171 -0.2092 -3.0501
    5MOL0     H  684  10.919   5.155   1.081 -0.0595  1.1164  2.7740
    5MOL0     H  685  10.929   5.330   1.075 -0.4034 -1.3607  3.0353
    5MOL0     H  686  11.300   5.258   1.234  1.1804  2.4063 -1.4058
    5MOL0     H  687  10.886   5.283   0.411  0.5682  0.5088  2.8511
    5MOL0     H  688  10.973   5.097   0.139  0.9796 -0.3681  2.0659
    5MOL0     H  689  10.842   5.175   0.219 -0.5964  1.8769 -0.0109
    5MOL0     H  690  10.940   5.260   0.087  1.8524  0.4275  0.9932
    6MOL0     O  691   7.646   2.289  10.489 -0.4499 -0.0851 -0.1801
    6MOL0     C  692   7.670   2.205  10.580  0.9244  0.2469 -0.5705
    6MOL0     O  693   7.753   2.227  10.692 -0.2335  0.4941  0.5977
    6MOL0     C  694   7.810   2.348  10.704  0.2385 -0.1287 -0.3150
    6MOL0     C  695   7.908   2.394  10.610 -0.0090  0.3943 -0.5208
    6MOL0     C  696   7.985   2.507  10.647 -0.0553 -0.4134 -0.2132
    6MOL0     C  697   7.980   2.577  10.773  0.4063  1.2206  0.5359
    6MOL0     O  698   8.078   2.668  10.808 -0.5553 -0.5239  0.0780
    6MOL0     C  699   8.050   2.809  10.782  0.7111  0.0745 -0.1011
    6MOL0     C  700   8.113   2.875  10.649  0.1699  1.2972  0.2066
    6MOL0     C  701   8.270   2.882  10.667  0.2414 -0.9298 -1.1385
    6MOL0     C  702   8.354   2.953  10.554  0.3049  0.0724 -0.1043
    6MOL0     C  703   8.364   2.855  10.430  0.8874 -0.3406  0.2799
    6MOL0     C  704   8.510   2.805  10.412  0.1004  0.2912  0.0950
    6MOL0     C  705   8.527   2.700  10.307 -0.2276  0.3841  0.6648
    6MOL0     C  706   8.530   2.759  10.169  0.1229 -0.1875  0.6114
    6MOL0     N  707   8.457   2.679  10.072 -0.6553  0.5871 -0.6791
    6MOL0     C  708   8.323   2.695  10.048 -0.0349  0.0046 -0.0999
    6MOL0     C  709   8.305   2.634   9.927  0.2587 -0.3049  0.5545
    6MOL0     C  710   8.174   2.630   9.852  0.1041 -0.0893  0.3689
    6MOL0     C  711   8.104   2.763   9.825 -1.2109  0.7809 -1.0496
    6MOL0     C  712   8.145   2.817   9.692 -0.0493  0.2892  0.1148
    6MOL0     C  713   8.067   2.945   9.673 -0.0102 -0.3274 -0.1635
    6MOL0     O  714   8.096   3.021   9.548 -0.8915  0.2852 -0.8229
    6MOL0     C  715   8.048   3.151   9.541  1.2729  0.9969 -0.4278
    6MOL0     C  716   7.987   3.227   9.646  0.3337 -0.2040  0.5986
    6MOL0     C  717   7.930   3.357   9.610  0.0182  0.3076 -0.5192
    6MOL0     C  718   7.829   3.412   9.713  0.0330  0.2612  0.8791
    6MOL0     C  719   7.933   3.399   9.475  0.2344  0.6101  0.2960
    6MOL0     C  720   7.869   3.521   9.424  0.1301 -0.1207 -0.3436
    6MOL0     O  721   7.833   3.622   9.513 -0.7205  0.4895  0.2445
    6MOL0     C  722   7.740   3.707   9.475 -0.1413 -0.7098  0.0552
    6MOL0     C  723   7.766   3.829   9.528  0.8424 -0.1813  0.3251
    6MOL0     C  724   7.691   3.942   9.501  0.6833  1.1981  0.2832
    6MOL0     C  725   7.583   3.928   9.403  0.7761 -0.4399  0.1704
    6MOL0     O  726   7.491   4.026   9.361 -0.2565 -0.2602  0.3419
    6MOL0     C  727   7.553   4.148   9.325 -0.8479  0.4190  0.8314
    6MOL0     C  728   7.447   4.219   9.231  0.6130 -0.5576  0.4705
    6MOL0     C  729   7.322   4.285   9.303  1.0378 -0.1708 -0.8221
    6MOL0     C  730   7.247   4.383   9.201  0.1062 -0.9639  0.0696
    6MOL0     C  731   7.099   4.393   9.251  0.0590 -0.0349  0.2299
    6MOL0     C  732   6.997   4.452   9.152 -0.2716  0.6859  0.3917
    6MOL0     C  733   7.000   4.376   9.020  0.2304 -0.6872 -0.9993
    6MOL0     C  734   6.892   4.425   8.932  0.3867 -0.2802  1.0219
    6MOL0    Cl  735   6.923   4.584   8.857 -0.3239  0.2703 -0.1322
    6MOL0     C  736   7.566   3.807   9.341  0.0112  0.1457  0.0925
    6MOL0     C  737   7.637   3.689   9.383  0.6280  0.3097  0.3688
    6MOL0     O  738   7.860   3.538   9.306  0.3331  0.0461 -0.0148
    6MOL0     C  739   8.010   3.319   9.380  0.5236 -1.0099  0.4737
    6MOL0     C  740   8.065   3.198   9.411  1.1397  0.1580 -0.6913
    6MOL0     N  741   8.427   2.604   9.870 -0.0616 -0.1564  0.8735
    6MOL0     N  742   8.515   2.631   9.955 -0.2222  0.2351 -0.9117
    6MOL0     C  743   7.885   2.529  10.856  0.1402 -0.5114  0.3005
    6MOL0     C  744   7.806   2.422  10.818  0.0878  0.2436 -0.5376
    6MOL0     C  745   7.584   2.087  10.585  0.0247  0.2488  0.8083
    6MOL0     C  746   7.545   2.039  10.706  0.9403 -0.1236 -0.9081
    6MOL0     C  747   7.463   1.929  10.718 -0.0123 -0.8871  0.7392
    6MOL0     C  748   7.439   1.845  10.614  0.4800  1.0934  0.2142
    6MOL0     O  749   7.367   1.734  10.646  0.3616 -0.5088 -0.2054
    6MOL0     C  750   7.388   1.619  10.564  0.3839  0.1044  0.6806
    6MOL0     C  751   7.243   1.579  10.499  0.0423  0.0102 -0.8093
    6MOL0     C  752   7.248   1.446  10.423 -0.6167 -0.7767  0.0117
    6MOL0     C  753   7.116   1.428  10.346 -0.1918  0.1697 -1.1897
    6MOL0     C  754   7.088   1.289  10.306 -0.9563 -0.0815  0.2180
    6MOL0     C  755   7.075   1.172  10.286  0.9919  0.5638  0.4191
    6MOL0     C  756   7.483   1.885  10.486 -0.0186  0.0836  0.2345
    6MOL0     C  757   7.543   2.008  10.471  0.2458 -0.0017  0.0762
    6MOL0     C  758   7.594   2.044  10.330 -0.6215  0.0196 -0.0804
    6MOL0     H  759   7.919   2.347  10.512 -0.4837  2.8190 -1.8046
    6MOL0     H  760   8.059   2.537  10.574  0.3533 -0.4475  0.1767
    6MOL0     H  761   8.095   2.870  10.861  2.1428 -1.4582  0.3227
    6MOL0     H  762   7.944   2.833  10.790  0.5142 -0.3797 -1.2069
    6MOL0     H  763   8.091   2.817  10.559 -0.1145  0.9716  0.4776
    6MOL0     H  764   8.078   2.978  10.640  2.7258  2.0920 -1.4284
    6MOL0     H  765   8.291   2.933  10.761 -0.8079 -0.2047 -1.2777
    6MOL0     H  766   8.312   2.781  10.669  1.3453 -0.4703 -0.5362
    6MOL0     H  767   8.295   3.040  10.522  1.5297 -0.0188 -2.8996
    6MOL0     H  768   8.450   2.988  10.593  0.8559 -2.8996  1.4599
    6MOL0     H  769   8.342   2.912  10.340 -0.8531  0.5342  1.2049
    6MOL0     H  770   8.288   2.776  10.429 -1.4502  1.6231 -3.9197
    6MOL0     H  771   8.587   2.883  10.404  1.6680 -1.3245 -1.5373
    6MOL0     H  772   8.527   2.762  10.511  0.3477  2.1694  0.9207
    6MOL0     H  773   8.456   2.617  10.320 -0.6104  0.6311  0.1752
    6MOL0     H  774   8.629   2.664  10.325  0.5397  2.2697  0.3338
    6MOL0     H  775   8.480   2.854  10.186 -1.6517 -1.5199  3.5087
    6MOL0     H  776   8.630   2.782  10.129 -0.1112  2.8807  1.5353
    6MOL0     H  777   8.243   2.743  10.105 -0.3803 -0.5572 -0.1007
    6MOL0     H  778   8.103   2.567   9.907 -0.3979  0.2309  0.0959
    6MOL0     H  779   8.190   2.582   9.755  0.5675  1.4776 -0.3720
    6MOL0     H  780   7.995   2.751   9.824 -1.1207 -0.5370  0.0854
    6MOL0     H  781   8.123   2.829   9.910  0.9712 -3.7383  2.4756
    6MOL0     H  782   8.254   2.830   9.687 -0.1693  0.9270 -1.2531
    6MOL0     H  783   8.126   2.752   9.606 -0.0959  0.8191 -0.2775
    6MOL0     H  784   7.958   2.934   9.676  0.0168 -1.0522 -1.3958
    6MOL0     H  785   8.085   3.014   9.756 -2.5703 -0.7451  0.8390
    6MOL0     H  786   7.973   3.184   9.744 -2.4055 -1.9370 -0.4182
    6MOL0     H  787   7.865   3.498   9.771  2.8439 -0.6272  0.5866
    6MOL0     H  788   7.791   3.329   9.773 -0.4279 -0.8751 -0.9091
    6MOL0     H  789   7.738   3.450   9.666 -0.0196  2.4988  2.5551
    6MOL0     H  790   7.840   3.838   9.607  0.4825 -2.3021  0.9567
    6MOL0     H  791   7.700   4.028   9.567  1.2797  0.1408  1.6323
    6MOL0     H  792   7.577   4.198   9.419  2.0421 -1.5105  1.2786
    6MOL0     H  793   7.647   4.124   9.274 -2.0284 -3.5299  0.1354
    6MOL0     H  794   7.510   4.297   9.188  0.6350 -1.6416 -1.5947
    6MOL0     H  795   7.410   4.157   9.148 -0.0018 -0.4856  0.6847
    6MOL0     H  796   7.353   4.333   9.396 -2.0024 -1.7458  1.1560
    6MOL0     H  797   7.260   4.202   9.337  0.4307  1.1295  1.4793
    6MOL0     H  798   7.257   4.341   9.101 -3.7877  0.8326 -1.2605
    6MOL0     H  799   7.298   4.479   9.189  2.5430 -2.1112  0.6146
    6MOL0     H  800   7.065   4.292   9.275 -0.9848  0.4557  0.8831
    6MOL0     H  801   7.110   4.449   9.345 -2.1782 -0.8755  1.0573
    6MOL0     H  802   7.033   4.551   9.123  1.1782  0.3344  0.9217
    6MOL0     H  803   6.898   4.451   9.199 -0.3622 -1.6195  0.2975
    6MOL0     H  804   6.995   4.269   9.041  1.7389 -0.7827 -0.9954
    6MOL0     H  805   7.097   4.382   8.969  1.5979 -4.7545  0.6566
    6MOL0     H  806   6.797   4.419   8.986 -0.7107 -2.3303 -0.9566
    6MOL0     H  807   6.883   4.350   8.853 -2.0285 -2.1529  2.9364
    6MOL0     H  808   7.493   3.783   9.266  0.6791  1.9748 -1.2352
    6MOL0     H  809   7.632   3.591   9.337  4.2287  0.1831 -0.0544
    6MOL0     H  810   8.005   3.347   9.275  0.3073 -2.7413 -0.0129
    6MOL0     H  811   8.113   3.138   9.335  1.0826 -0.9520  0.1187
    6MOL0     H  812   7.886   2.565  10.959  0.6748  2.0752 -0.5296
    6MOL0     H  813   7.723   2.396  10.883 -0.0018  1.9796  0.1037
    6MOL0     H  814   7.569   2.103  10.790 -0.8206 -1.1323  0.4375
    6MOL0     H  815   7.422   1.898  10.814 -2.7867 -1.8609 -0.6318
    6MOL0     H  816   7.461   1.634  10.484 -0.6358  1.3356 -0.0580
    6MOL0     H  817   7.418   1.539  10.633 -1.4108 -0.4595  0.8674
    6MOL0     H  818   7.207   1.655  10.429  0.7936 -1.2887 -2.7043
    6MOL0     H  819   7.174   1.566  10.583  2.0987 -0.8236  0.8635
    6MOL0     H  820   7.321   1.467  10.344 -0.3151  5.7691  1.4268
    6MOL0     H  821   7.267   1.363  10.492 -1.9322 -1.1286 -0.0166
    6MOL0     H  822   7.111   1.492  10.257 -1.4461 -0.2959 -1.4707
    6MOL0     H  823   7.037   1.478  10.402  0.7679 -0.1975  0.5805
    6MOL0     H  824   7.051   1.070  10.268  1.4077  0.8360 -1.9507
    6MOL0     H  825   7.471   1.829  10.395  0.7156  1.4706 -0.7552
    6MOL0     H  826   7.511   2.094  10.279  0.5988  4.2530  1.6297
    6MOL0     H  827   7.659   2.132  10.325  0.1536 -0.3315  2.3620
    6MOL0     H  828   7.633   1.960  10.272 -0.5161  1.3502 -2.0487
    7MOL0     O  829   3.573   1.677   9.135  0.1861 -0.2451 -0.5233
    7MOL0     C  830   3.616   1.597   9.216 -0.2398 -0.8126  0.1186
    7MOL0     O  831   3.537   1.524   9.298  0.6376 -0.1191 -0.0754
    7MOL0     C  832   3.399   1.529   9.292  0.4556 -0.9305  0.0647
    7MOL0     C  833   3.336   1.492   9.178 -0.8225  0.4047 -0.2256
    7MOL0     C  834   3.197   1.495   9.167 -0.2208  0.8083 -0.3347
    7MOL0     C  835   3.120   1.538   9.278  0.3909 -0.0317  0.2164
    7MOL0     O  836   2.985   1.543   9.274  0.2990  0.4835 -0.1839
    7MOL0     C  837   2.919   1.541   9.152  0.7762 -0.0631  0.1635
    7MOL0     C  838   2.771   1.592   9.177  0.6504 -0.3329  0.3441
    7MOL0     C  839   2.776   1.741   9.216 -0.7995 -0.1710  0.2794
    7MOL0     C  840   2.644   1.814   9.213 -0.6292 -0.2411  0.2612
    7MOL0     C  841   2.645   1.952   9.278 -0.2793 -0.7208 -0.3332
    7MOL0     C  842   2.513   2.026   9.254 -0.0037 -0.1745 -0.5516
    7MOL0     C  843   2.521   2.180   9.275 -0.3567  1.5394  0.4120
    7MOL0     C  844   2.393   2.258   9.240 -0.5496 -1.0406 -0.1231
    7MOL0     N  845   2.339   2.235   9.106  0.3272  0.1339  0.2802
    7MOL0     C  846   2.248   2.144   9.082  0.2989 -0.1672 -0.6278
    7MOL0     C  847   2.222   2.149   8.950 -0.5972  0.0595  0.1627
    7MOL0     C  848   2.133   2.055   8.863  0.3005 -0.4351  0.4297
    7MOL0     C  849   2.196   1.925   8.827 -0.4683 -0.0341 -0.0855
    7MOL0     C  850   2.260   1.839   8.941 -0.2576 -0.2220 -0.3141
    7MOL0     C  851   2.319   1.705   8.889  0.6906  0.2171 -0.1729
    7MOL0     O  852   2.448   1.741   8.852 -1.2239 -0.5515  0.7316
    7MOL0     C  853   2.541   1.641   8.816 -0.0763  0.1087 -0.4556
    7MOL0     C  854   2.503   1.504   8.782  0.2544 -0.3269 -0.0455
    7MOL0     C  855   2.598   1.403   8.753  0.1209 -0.2769 -0.1096
    7MOL0     C  856   2.534   1.265   8.725 -0.2717  0.5276 -0.1674
    7MOL0     C  857   2.735   1.425   8.777 -0.9140  0.0645 -0.0059
    7MOL0     C  858   2.846   1.317   8.761  0.7088 -0.2116  0.2508
    7MOL0     O  859   2.958   1.323   8.843 -0.3039 -0.7938 -0.0868
    7MOL0     C  860   3.057   1.238   8.816 -0.4809  0.0986 -0.0731
    7MOL0     C  861   3.093   1.154   8.923 -0.7284 -0.1710 -0.0640
    7MOL0     C  862   3.203   1.068   8.904  0.9498  0.0925  0.1956
    7MOL0     C  863   3.266   1.047   8.788 -0.6334 -0.0380  0.4765
    7MOL0     O  864   3.378   0.966   8.759 -0.3545  0.0550 -0.3015
    7MOL0     C  865   3.380   0.842   8.826 -0.0720  0.1681 -0.1885
    7MOL0     C  866   3.487   0.754   8.768 -0.1595 -0.2477  0.1179
    7MOL0     C  867   3.630   0.822   8.800 -0.2165 -0.7453  0.1631
    7MOL0     C  868   3.687   0.767   8.948 -0.1216 -0.4260  0.5651
    7MOL0     C  869   3.823   0.821   8.985  0.8283  0.1942 -0.3634
    7MOL0     C  870   3.884   0.758   9.113 -0.0162  0.1183 -0.1830
    7MOL0     C  871   4.014   0.824   9.134  0.0603 -0.5242  0.1144
    7MOL0     C  872   4.090   0.785   9.257  0.1807 -0.0678  0.0148
    7MOL0    Cl  873   4.117   0.613   9.252 -0.2197  0.1522  0.0237
    7MOL0     C  874   3.224   1.127   8.683 -1.0380 -0.0005  0.6735
    7MOL0     C  875   3.126   1.230   8.700  0.0305  0.7691 -0.3522
    7MOL0     O  876   2.830   1.247   8.657  0.2876 -0.0395 -0.0626
    7MOL0     C  877   2.774   1.555   8.806 -0.2368 -0.4264 -0.2189
    7MOL0     C  878   2.680   1.662   8.824  0.6329 -0.7485  0.3348
    7MOL0     N  879   2.293   2.251   8.895  0.2395 -0.1307 -1.0031
    7MOL0     N  880   2.364   2.300   8.988 -0.4113 -0.0985  0.9184
    7MOL0     C  881   3.183   1.560   9.402 -0.4808  0.1115  0.5704
    7MOL0     C  882   3.326   1.568   9.407  0.3881  0.4820 -0.7746
    7MOL0     C  883   3.766   1.587   9.232  0.0426  0.0835  0.1413
    7MOL0     C  884   3.808   1.535   9.354 -0.4639 -0.5690  0.0871
    7MOL0     C  885   3.947   1.529   9.382  0.2449 -0.7793 -0.2468
    7MOL0     C  886   4.040   1.564   9.283  0.1353 -0.3461 -0.3159
    7MOL0     O  887   4.173   1.550   9.324 -0.2498  0.8752 -0.1566
    7MOL0     C  888   4.284   1.587   9.235 -0.3640 -0.0156 -0.5386
    7MOL0     C  889   4.312   1.736   9.229  0.2479 -0.6054 -0.4477
    7MOL0     C  890   4.447   1.759   9.155  0.0634  0.0433  1.3837
    7MOL0     C  891   4.491   1.902   9.113 -0.2422  0.6402 -0.0677
    7MOL0     C  892   4.481   1.990   9.231  0.4609 -0.6558 -0.8202
    7MOL0     C  893   4.469   2.082   9.319  0.7647  0.0468 -0.0251
    7MOL0     C  894   4.004   1.613   9.158  0.5065  0.4274  0.3194
    7MOL0     C  895   3.861   1.640   9.131 -1.4237  0.1333 -0.0829
    7MOL0     C  896   3.819   1.697   8.994 -0.1973  0.1871  1.0320
    7MOL0     H  897   3.390   1.450   9.094 -1.3919 -3.5203  1.1867
    7MOL0     H  898   3.146   1.454   9.080 -2.4197  1.6912  0.4694
    7MOL0     H  899   2.915   1.442   9.105 -0.9008  1.0449 -2.2371
    7MOL0     H  900   2.984   1.601   9.087  1.0892  0.8095  1.2576
    7MOL0     H  901   2.716   1.586   9.082  2.2878  0.1164 -0.6881
    7MOL0     H  902   2.724   1.540   9.261 -0.4126  2.9571  1.9682
    7MOL0     H  903   2.819   1.766   9.313 -0.2959 -1.3928  0.3910
    7MOL0     H  904   2.830   1.800   9.141 -2.5285 -1.2865 -1.9479
    7MOL0     H  905   2.625   1.836   9.108  5.2680 -1.2242 -1.4049
    7MOL0     H  906   2.564   1.758   9.262 -0.1036 -2.4888 -1.2763
    7MOL0     H  907   2.736   2.002   9.243 -1.9064  0.3638 -3.3537
    7MOL0     H  908   2.673   1.945   9.384  2.3833 -0.8033 -0.9712
    7MOL0     H  909   2.472   1.993   9.158  1.7611 -2.4740 -0.6084
    7MOL0     H  910   2.439   1.993   9.327  0.6891 -0.8530 -0.1446
    7MOL0     H  911   2.593   2.218   9.203 -1.3511 -1.0494 -2.1525
    7MOL0     H  912   2.547   2.194   9.380  2.9296 -0.0637 -0.0838
    7MOL0     H  913   2.319   2.238   9.317 -0.9891  0.3532 -0.1682
    7MOL0     H  914   2.417   2.364   9.238 -0.2544 -1.1154 -0.7745
    7MOL0     H  915   2.221   2.059   9.144  0.4483 -0.5713 -1.1044
    7MOL0     H  916   2.099   2.107   8.773  1.4218 -2.6836 -1.3966
    7MOL0     H  917   2.046   2.038   8.926  0.0858 -2.4315 -0.3322
    7MOL0     H  918   2.120   1.864   8.777 -0.7273  1.1657 -1.2046
    7MOL0     H  919   2.264   1.952   8.746 -1.6466 -0.0590 -1.1111
    7MOL0     H  920   2.344   1.895   8.983  1.3138 -0.2766 -3.1168
    7MOL0     H  921   2.196   1.811   9.024 -0.5115  0.7767 -0.1588
    7MOL0     H  922   2.315   1.631   8.970  0.4486 -1.8025 -1.9401
    7MOL0     H  923   2.275   1.661   8.799  1.0948  0.1760 -0.3525
    7MOL0     H  924   2.397   1.481   8.785 -0.3293  2.0212 -0.3244
    7MOL0     H  925   2.605   1.182   8.730  0.1009  0.8540  3.9717
    7MOL0     H  926   2.491   1.267   8.624 -1.3480  1.8883  0.2898
    7MOL0     H  927   2.460   1.249   8.804  0.1001  3.8359  1.0053
    7MOL0     H  928   3.036   1.162   9.015 -3.9390  4.0164 -2.0738
    7MOL0     H  929   3.222   1.009   8.993 -5.7381 -2.1378  0.6924
    7MOL0     H  930   3.401   0.847   8.934 -3.1872  0.2991  0.5103
    7MOL0     H  931   3.278   0.804   8.812 -1.1611  3.2268 -1.3095
    7MOL0     H  932   3.479   0.650   8.801 -0.9740 -0.1917  0.1102
    7MOL0     H  933   3.472   0.755   8.660 -1.3389 -0.2006  0.2704
    7MOL0     H  934   3.616   0.930   8.790 -2.1292 -0.9664  0.0431
    7MOL0     H  935   3.708   0.794   8.729  1.2996  1.8555  0.7054
    7MOL0     H  936   3.700   0.659   8.944  0.9993 -0.2731 -0.4788
    7MOL0     H  937   3.616   0.797   9.026  0.6385  0.0211  1.1098
    7MOL0     H  938   3.893   0.807   8.903  1.5008 -0.4100  0.2892
    7MOL0     H  939   3.824   0.926   9.013 -0.5360 -0.3160  1.8885
    7MOL0     H  940   3.895   0.649   9.102 -1.5481  0.1168 -2.5321
    7MOL0     H  941   3.818   0.772   9.199 -0.2237  0.9723 -0.4789
    7MOL0     H  942   4.002   0.933   9.140 -0.4549 -0.5551 -0.2575
    7MOL0     H  943   4.083   0.815   9.049  1.2991  0.7033  0.9478
    7MOL0     H  944   4.034   0.816   9.346  0.9907  0.1366  0.4639
    7MOL0     H  945   4.179   0.847   9.245  0.5065 -0.8206 -1.9252
    7MOL0     H  946   3.271   1.120   8.586 -2.2947  0.7177 -0.0029
    7MOL0     H  947   3.091   1.294   8.619 -0.3203  0.1167 -0.7203
    7MOL0     H  948   2.881   1.570   8.817  0.2126 -3.1307 -0.1729
    7MOL0     H  949   2.713   1.764   8.840  1.9344 -1.1446  0.2611
    7MOL0     H  950   3.130   1.603   9.487  0.9100  2.0270  0.5418
    7MOL0     H  951   3.366   1.608   9.499 -2.1055  2.0993 -0.2942
    7MOL0     H  952   3.732   1.524   9.431 -0.6196 -1.0009 -0.1227
    7MOL0     H  953   3.977   1.494   9.480 -1.1122  0.2555  0.5720
    7MOL0     H  954   4.377   1.531   9.255  1.3570  2.2062 -1.8433
    7MOL0     H  955   4.261   1.549   9.135 -3.2151  2.3991 -0.9218
    7MOL0     H  956   4.315   1.777   9.330 -0.0077 -3.7313  0.9345
    7MOL0     H  957   4.241   1.790   9.165 -0.4921 -1.9258 -0.7854
    7MOL0     H  958   4.528   1.716   9.214  0.1909  0.3022  1.4009
    7MOL0     H  959   4.441   1.702   9.062  3.0628 -1.1459  1.8002
    7MOL0     H  960   4.439   1.932   9.022  0.7690 -0.5985 -1.0918
    7MOL0     H  961   4.597   1.909   9.085  0.1478  3.1178  1.7298
    7MOL0     H  962   4.462   2.141   9.408  1.0817  1.9653 -1.2102
    7MOL0     H  963   4.081   1.642   9.087  1.3065  2.4031  1.8816
    7MOL0     H  964   3.804   1.805   9.007 -1.1956 -0.1835  3.5456
    7MOL0     H  965   3.894   1.672   8.918  1.5393 -0.8412  2.9826
    7MOL0     H  966   3.722   1.655   8.965 -0.6410 -0.6634  3.5042
    8MOL0     O  967   5.225   0.842  10.682 -0.5032  1.0097  0.7387
    8MOL0     C  968   5.320   0.797  10.745 -0.1221  0.0104  1.2244
    8MOL0     O  969   5.453   0.803  10.716  1.0292  0.7036  0.7391
    8MOL0     C  970   5.495   0.837  10.589 -0.6132  0.2932  0.1157
    8MOL0     C  971   5.425   0.812  10.472  0.1370  0.4791 -1.0037
    8MOL0     C  972   5.487   0.844  10.353 -0.5613 -0.4659  0.6769
    8MOL0     C  973   5.616   0.903  10.339  0.1601 -0.9716 -1.1373
    8MOL0     O  974   5.670   0.950  10.221 -0.2900 -0.4070  0.4003
    8MOL0     C  975   5.575   1.006  10.124  0.3324 -0.5591  0.3176
    8MOL0     C  976   5.619   1.131  10.052  0.2176  0.1256  0.8732
    8MOL0     C  977   5.738   1.097   9.969  0.1227 -1.0976 -0.5642
    8MOL0     C  978   5.690   1.026   9.838 -0.3684 -0.2116  0.0995
    8MOL0     C  979   5.806   0.983   9.749 -0.6744 -0.5066 -0.6938
    8MOL0     C  980   5.896   0.873   9.792 -0.7966  0.6722 -0.0964
    8MOL0     C  981   5.828   0.740   9.805  0.6436  0.0547 -0.2547
    8MOL0     C  982   5.931   0.623   9.813 -0.3303 -0.0548 -0.3917
    8MOL0     N  983   5.872   0.498   9.845  0.4285  0.8229 -0.1691
    8MOL0     C  984   5.862   0.427   9.971 -0.3824 -0.6559 -0.0318
    8MOL0     C  985   5.753   0.348   9.959 -0.0252  0.4987 -0.2432
    8MOL0     C  986   5.711   0.259  10.075  0.4223 -0.1947 -1.2879
    8MOL0     C  987   5.581   0.298  10.161 -0.5476 -0.6020 -0.7565
    8MOL0     C  988   5.544   0.441  10.146  0.4302 -0.5577 -0.4964
    8MOL0     C  989   5.411   0.473  10.209  0.5110  0.1762 -1.0929
    8MOL0     O  990   5.406   0.430  10.351 -0.9375 -0.5448 -0.4775
    8MOL0     C  991   5.284   0.422  10.403 -0.0589  0.0353  0.5815
    8MOL0     C  992   5.161   0.487  10.354 -0.5645 -0.5866  0.4073
    8MOL0     C  993   5.046   0.465  10.429 -0.1114 -0.4184  0.0451
    8MOL0     C  994   4.921   0.503  10.375  0.4426  0.5418  0.4741
    8MOL0     C  995   5.051   0.409  10.559  0.3319 -0.1436  0.3805
    8MOL0     C  996   4.950   0.393  10.665 -0.4181 -0.9836 -0.7731
    8MOL0     O  997   4.960   0.274  10.724 -0.2941 -0.3900 -0.2882
    8MOL0     C  998   4.861   0.228  10.803 -1.0313 -0.4753 -0.1078
    8MOL0     C  999   4.826   0.298  10.914  0.5274  1.1511 -0.7680
    8MOL0     C 1000   4.703   0.278  10.970  0.3161 -0.4671  0.0936
    8MOL0     C 1001   4.623   0.165  10.948 -0.4897 -0.9353  1.1692
    8MOL0     O 1002   4.506   0.149  11.023  0.1459 -0.2100  0.1133
    8MOL0     C 1003   4.479   0.018  11.067 -0.3469  0.4109 -0.2670
    8MOL0     C 1004   4.351   0.024  11.153 -0.3085  1.0537 -0.2676
    8MOL0     C 1005   4.229   0.045  11.064 -0.0356 -1.3618  0.0454
    8MOL0     C 1006   4.166  -0.093  11.034  0.6818 -0.8310 -0.1247
    8MOL0     C 1007   4.033  -0.063  10.954 -0.2896 -0.2607 -0.2294
    8MOL0     C 1008   3.960  -0.188  10.905 -1.2904 -0.4654  0.2633
    8MOL0     C 1009   3.864  -0.150  10.807 -1.0361  0.4754 -0.4568
    8MOL0     C 1010   3.777  -0.276  10.780  0.2231 -0.2518  0.4155
    8MOL0    Cl 1011   3.867  -0.409  10.702  0.5079  0.8382 -0.6185
    8MOL0     C 1012   4.678   0.080  10.843  0.5185  0.0285 -0.6976
    8MOL0     C 1013   4.800   0.105  10.778 -0.3500 -0.4672  0.5054
    8MOL0     O 1014   4.876   0.484  10.704 -0.3113 -0.5761  0.1661
    8MOL0     C 1015   5.173   0.359  10.603  0.5333 -0.5078 -0.8503
    8MOL0     C 1016   5.285   0.361  10.524  0.6180  0.4736 -0.5557
    8MOL0     N 1017   5.696   0.372   9.834  0.6647 -0.0624  1.4213
    8MOL0     N 1018   5.762   0.458   9.771  0.1385  0.2739 -0.2323
    8MOL0     C 1019   5.676   0.927  10.460 -0.2753 -1.1250  1.0975
    8MOL0     C 1020   5.623   0.890  10.579 -0.7984  0.3219 -0.5233
    8MOL0     C 1021   5.282   0.743  10.876  0.4040  0.7968 -0.5846
    8MOL0     C 1022   5.158   0.679  10.881 -0.1128  0.1757 -0.1561
    8MOL0     C 1023   5.108   0.622  10.990  0.4766 -0.3944 -0.1888
    8MOL0     C 1024   5.183   0.618  11.106 -0.1694  0.0895  0.8937
    8MOL0     O 1025   5.152   0.566  11.226 -0.0324  0.4332 -0.1572
    8MOL0     C 1026   5.037   0.480  11.220 -0.1172  0.4059 -0.3860
    8MOL0     C 1027   5.016   0.400  11.350  0.3095 -0.3282  0.2373
    8MOL0     C 1028   4.879   0.336  11.364 -0.2038  0.2015  0.0794
    8MOL0     C 1029   4.768   0.435  11.397 -0.2329  0.6856  0.3293
    8MOL0     C 1030   4.707   0.411  11.532 -0.7611 -0.7292  0.0255
    8MOL0     C 1031   4.654   0.373  11.636 -0.5314 -0.7157 -0.3117
    8MOL0     C 1032   5.314   0.677  11.104  0.5061 -0.5265 -1.6150
    8MOL0     C 1033   5.367   0.744  10.991 -0.1420 -0.1084 -0.0336
    8MOL0     C 1034   5.509   0.801  11.005 -0.2302  0.4367  0.4420
    8MOL0     H 1035   5.330   0.760  10.465  2.0638 -3.6432  0.1942
    8MOL0     H 1036   5.440   0.814  10.260  3.1741 -1.4425 -1.0907
    8MOL0     H 1037   5.481   1.030  10.175 -1.2306 -1.8010 -1.7881
    8MOL0     H 1038   5.541   0.928  10.055  1.0249  1.0702 -1.9829
    8MOL0     H 1039   5.542   1.165   9.982 -0.7832 -1.6104  1.0892
    8MOL0     H 1040   5.642   1.209  10.125 -4.0924  0.4977  2.0764
    8MOL0     H 1041   5.798   1.185   9.943  2.9875 -2.3705  1.2339
    8MOL0     H 1042   5.812   1.036  10.021  1.1237  0.8433  0.3943
    8MOL0     H 1043   5.640   0.937   9.875  0.4206  0.0136  1.8185
    8MOL0     H 1044   5.615   1.089   9.789  0.9768  0.4560 -1.1513
    8MOL0     H 1045   5.879   1.061   9.726  0.8665 -1.3677  1.0528
    8MOL0     H 1046   5.766   0.951   9.652  0.0209 -1.4347 -0.6901
    8MOL0     H 1047   5.979   0.870   9.721  2.1262  2.6582  2.9362
    8MOL0     H 1048   5.936   0.908   9.888 -2.1535 -1.0243  1.1414
    8MOL0     H 1049   5.769   0.717   9.716 -0.9220 -1.2240  1.0394
    8MOL0     H 1050   5.762   0.737   9.892 -0.9224  3.4775 -1.1513
    8MOL0     H 1051   5.976   0.605   9.716  2.3676 -1.3493  0.9849
    8MOL0     H 1052   6.017   0.650   9.875 -0.8133  3.8596 -1.1617
    8MOL0     H 1053   5.920   0.428  10.062 -0.7729  2.4945  0.3050
    8MOL0     H 1054   5.797   0.237  10.139 -0.3306  1.0114  0.2140
    8MOL0     H 1055   5.672   0.165  10.034 -5.3267  1.3882 -0.3710
    8MOL0     H 1056   5.495   0.240  10.127 -0.6175 -1.1578  0.3109
    8MOL0     H 1057   5.607   0.281  10.266 -1.8743  4.2063  0.6094
    8MOL0     H 1058   5.616   0.499  10.206 -1.1987 -0.3150  1.3150
    8MOL0     H 1059   5.526   0.482  10.047  0.8520 -1.5056 -0.9826
    8MOL0     H 1060   5.390   0.581  10.205  3.0154  0.8566  1.0643
    8MOL0     H 1061   5.328   0.425  10.157  0.4633 -0.7221 -0.2027
    8MOL0     H 1062   5.160   0.548  10.265  1.3507 -0.5411  0.3846
    8MOL0     H 1063   4.860   0.554  10.450  0.3209 -0.3771  1.0222
    8MOL0     H 1064   4.864   0.419  10.334  0.9137  0.6246 -0.3899
    8MOL0     H 1065   4.945   0.561  10.285  0.8719 -2.8625 -1.8326
    8MOL0     H 1066   4.875   0.391  10.940 -0.7921  1.3227  1.3138
    8MOL0     H 1067   4.670   0.356  11.037  0.5639 -1.1276  0.9932
    8MOL0     H 1068   4.465  -0.045  10.978 -2.7210  0.9808 -0.3608
    8MOL0     H 1069   4.563  -0.017  11.128  0.2365 -2.1003 -2.3142
    8MOL0     H 1070   4.346  -0.067  11.214 -1.9934  1.2810 -0.0407
    8MOL0     H 1071   4.358   0.108  11.223  0.5070  1.4785 -0.8336
    8MOL0     H 1072   4.255   0.103  10.975 -1.3333 -1.4971 -0.4497
    8MOL0     H 1073   4.157   0.104  11.120 -0.2886 -1.0761 -0.5755
    8MOL0     H 1074   4.153  -0.154  11.124  1.4910  3.1204  2.9514
    8MOL0     H 1075   4.224  -0.150  10.960 -2.7856 -0.7642 -3.1492
    8MOL0     H 1076   3.956  -0.003  11.003 -1.3289 -1.6472 -0.1029
    8MOL0     H 1077   4.069   0.003  10.875 -0.2404 -2.8038 -2.4985
    8MOL0     H 1078   3.913  -0.245  10.986 -0.2665  0.9109  1.8940
    8MOL0     H 1079   4.039  -0.241  10.850 -0.1720 -0.1711  1.5258
    8MOL0     H 1080   3.917  -0.113  10.718  0.2404 -1.3581 -0.5269
    8MOL0     H 1081   3.799  -0.067  10.835 -0.6899  0.8617 -0.7666
    8MOL0     H 1082   3.691  -0.258  10.715 -1.8022  1.0774  3.2542
    8MOL0     H 1083   3.740  -0.316  10.875  1.1458 -3.4650 -0.4840
    8MOL0     H 1084   4.629  -0.006  10.799  2.0721 -0.7008 -1.0680
    8MOL0     H 1085   4.839   0.033  10.708  1.7142 -2.9329  3.9081
    8MOL0     H 1086   5.191   0.318  10.701  1.1762  0.8381 -0.3867
    8MOL0     H 1087   5.378   0.312  10.553  0.6407 -1.4210 -3.3585
    8MOL0     H 1088   5.779   0.960  10.454 -0.8868  0.5973 -1.4757
    8MOL0     H 1089   5.681   0.886  10.671  0.0163 -0.6077 -1.0573
    8MOL0     H 1090   5.097   0.675  10.792 -0.9069 -0.9569  0.4139
    8MOL0     H 1091   5.002   0.596  10.982 -0.8467  4.6100 -2.9102
    8MOL0     H 1092   4.948   0.540  11.202 -2.7027 -4.0245 -5.0876
    8MOL0     H 1093   5.061   0.412  11.137  1.1977  0.6601 -0.2439
    8MOL0     H 1094   5.031   0.468  11.434 -1.2924  2.1860 -1.3775
    8MOL0     H 1095   5.093   0.322  11.361  1.3987  0.7499  0.5257
    8MOL0     H 1096   4.859   0.289  11.268 -0.7416  1.1460 -0.2851
    8MOL0     H 1097   4.890   0.262  11.445 -0.6197  1.4852  1.3553
    8MOL0     H 1098   4.706   0.428  11.307  0.0080 -0.0209  0.2166
    8MOL0     H 1099   4.806   0.538  11.394  0.9603  0.2760  1.0444
    8MOL0     H 1100   4.592   0.343  11.718 -0.2204  1.1957  0.6834
    8MOL0     H 1101   5.380   0.656  11.187 -1.9152 -0.0355  0.5773
    8MOL0     H 1102   5.518   0.903  10.966 -0.0958  1.0394  1.9936
    8MOL0     H 1103   5.556   0.798  11.104 -3.0335 -1.2095  1.8534
    8MOL0     H 1104   5.569   0.741  10.936  0.5589  1.0745  0.5633
    9MOL0     O 1105   9.001   2.093   4.195 -0.3239  0.2214  0.0479
    9MOL0     C 1106   9.058   2.145   4.101 -0.5190 -0.2853 -0.5749
    9MOL0     O 1107   9.093   2.075   3.995  0.4523 -0.6230  0.5979
    9MOL0     C 1108   9.103   1.936   4.004 -0.8697  0.8151  0.4423
    9MOL0     C 1109   9.230   1.870   4.006  0.9233  0.0842 -0.4687
    9MOL0     C 1110   9.244   1.729   3.984 -0.7696  0.4689 -0.5777
    9MOL0     C 1111   9.134   1.648   3.973 -0.2474  0.4637  0.3588
    9MOL0     O 1112   9.148   1.507   3.967  0.6617 -0.2007  0.6918
    9MOL0     C 1113   9.267   1.451   4.024 -0.2436  0.6718 -0.0847
    9MOL0     C 1114   9.260   1.298   4.045  0.2321  0.0999 -0.1406
    9MOL0     C 1115   9.181   1.259   4.168 -0.3142  0.5117  0.7153
    9MOL0     C 1116   9.173   1.108   4.186  0.1986 -0.7480 -0.8844
    9MOL0     C 1117   9.113   1.071   4.322 -0.0626  0.8693 -0.7249
    9MOL0     C 1118   9.104   0.925   4.352  0.4150  1.0034 -0.2948
    9MOL0     C 1119   9.092   0.874   4.497 -0.6361 -0.0403 -0.6003
    9MOL0     C 1120   8.950   0.885   4.535 -0.4671  0.8295  0.4532
    9MOL0     N 1121   8.911   0.962   4.664 -0.0054  0.5730 -0.6468
    9MOL0     C 1122   8.983   1.068   4.700 -0.5109 -0.5225 -0.2226
    9MOL0     C 1123   8.935   1.097   4.825 -0.1234  0.0526 -0.2082
    9MOL0     C 1124   8.994   1.203   4.919  0.9431 -0.2620  1.0546
    9MOL0     C 1125   8.938   1.344   4.872  0.0517  0.2410  0.3480
    9MOL0     C 1126   8.978   1.459   4.967  0.5926  0.4838  0.2421
    9MOL0     C 1127   8.934   1.446   5.113 -0.3819  0.3362  0.2760
    9MOL0     O 1128   8.794   1.409   5.118  0.1431 -0.4002  0.4290
    9MOL0     C 1129   8.695   1.498   5.083 -0.4570  0.0275  0.0212
    9MOL0     C 1130   8.701   1.637   5.050  0.1394  0.5534  0.6848
    9MOL0     C 1131   8.589   1.703   4.998  0.1193 -1.4242 -0.2875
    9MOL0     C 1132   8.603   1.851   4.960  0.5537  0.8264  0.4141
    9MOL0     C 1133   8.463   1.636   4.990  0.2827  0.2160 -0.2883
    9MOL0     C 1134   8.333   1.696   4.933  0.9417  0.4668 -0.1328
    9MOL0     O 1135   8.215   1.636   4.961  0.1733 -0.9693 -0.3838
    9MOL0     C 1136   8.103   1.711   4.920 -0.0211  1.1083 -0.2161
    9MOL0     C 1137   8.061   1.832   4.970 -1.5582  0.0395 -0.6107
    9MOL0     C 1138   7.941   1.898   4.924 -0.7708  0.4341  0.0422
    9MOL0     C 1139   7.858   1.832   4.830  0.3251  0.6510 -1.0055
    9MOL0     O 1140   7.739   1.883   4.804 -0.1142  0.4903 -0.3307
    9MOL0     C 1141   7.626   1.811   4.867  0.5827  0.8092  0.0086
    9MOL0     C 1142   7.488   1.839   4.803  0.1314 -0.0880  0.4640
    9MOL0     C 1143   7.504   1.799   4.656  0.5049  0.0741 -0.4341
    9MOL0     C 1144   7.387   1.846   4.570  0.8827 -0.0654  0.4791
    9MOL0     C 1145   7.383   2.001   4.560  0.1829 -0.7254  0.5446
    9MOL0     C 1146   7.266   2.063   4.633 -0.3843  0.2297 -0.2407
    9MOL0     C 1147   7.141   2.046   4.545  0.2318  0.1197  0.0825
    9MOL0     C 1148   7.011   2.112   4.590 -0.9079 -0.0159 -0.0262
    9MOL0    Cl 1149   7.032   2.276   4.641 -0.0677  0.2180 -0.0632
    9MOL0     C 1150   7.895   1.704   4.785 -0.5885 -0.0414 -0.5791
    9MOL0     C 1151   8.020   1.651   4.820 -0.5992 -1.1615 -0.3386
    9MOL0     O 1152   8.349   1.773   4.843 -0.1062 -0.3122  0.3682
    9MOL0     C 1153   8.461   1.497   5.023 -0.1278 -0.0535 -0.0643
    9MOL0     C 1154   8.576   1.428   5.067 -0.2885 -1.2487  0.2277
    9MOL0     N 1155   8.824   1.016   4.860 -0.1831  1.4600 -0.1353
    9MOL0     N 1156   8.818   0.928   4.760  0.1193  0.2948 -0.9083
    9MOL0     C 1157   9.008   1.718   3.961 -0.1896  0.9038 -0.1955
    9MOL0     C 1158   9.001   1.854   3.966  0.8045 -0.5029 -0.9028
    9MOL0     C 1159   9.076   2.293   4.098  0.3654 -0.3388  0.5280
    9MOL0     C 1160   9.175   2.333   3.997 -0.2262 -0.8116 -0.1294
    9MOL0     C 1161   9.190   2.471   3.984 -0.9151 -0.2993  0.0043
    9MOL0     C 1162   9.123   2.567   4.059 -0.4720  1.3807  0.7663
    9MOL0     O 1163   9.163   2.697   4.046 -0.0748  0.0002  0.4532
    9MOL0     C 1164   9.105   2.798   4.124 -0.7177 -1.1354  0.4369
    9MOL0     C 1165   8.960   2.837   4.082  0.3525 -0.2294 -0.9981
    9MOL0     C 1166   8.966   2.898   3.940 -0.8338  0.3141  0.5458
    9MOL0     C 1167   8.841   2.984   3.908  0.6699 -0.6081  0.4123
    9MOL0     C 1168   8.874   3.051   3.776  0.1108  0.4065  0.8478
    9MOL0     C 1169   8.907   3.109   3.674  0.7404  0.3983  0.4545
    9MOL0     C 1170   9.043   2.521   4.162 -0.2016 -0.0976 -0.3066
    9MOL0     C 1171   9.018   2.384   4.180  0.4731  0.8258  0.1059
    9MOL0     C 1172   8.936   2.350   4.303  0.1687  0.7525 -0.0775
    9MOL0     H 1173   9.314   1.932   4.035  0.6396  0.6319 -0.7999
    9MOL0     H 1174   9.346   1.693   3.978 -0.4216  1.5874 -2.4499
    9MOL0     H 1175   9.303   1.504   4.112  0.6866  2.1825 -1.3252
    9MOL0     H 1176   9.338   1.464   3.941  0.5441 -0.8735  0.3052
    9MOL0     H 1177   9.215   1.255   3.955 -0.3886  0.5536 -0.0560
    9MOL0     H 1178   9.363   1.264   4.041 -0.1580 -1.0803 -0.7424
    9MOL0     H 1179   9.234   1.296   4.256  2.3564 -2.5894  0.6317
    9MOL0     H 1180   9.076   1.288   4.157 -0.6766 -1.0062 -0.1503
    9MOL0     H 1181   9.118   1.054   4.108 -2.5547  0.9569 -0.2194
    9MOL0     H 1182   9.277   1.074   4.174  0.5202 -0.2492  0.4217
    9MOL0     H 1183   9.007   1.092   4.308 -1.3378 -4.1207 -0.4946
    9MOL0     H 1184   9.163   1.131   4.398  1.4533  0.2593 -1.1980
    9MOL0     H 1185   9.027   0.880   4.288 -1.6278 -0.8384  3.1866
    9MOL0     H 1186   9.194   0.881   4.309 -0.5828 -0.4044 -1.0502
    9MOL0     H 1187   9.148   0.938   4.566 -1.0677  1.9050 -1.9448
    9MOL0     H 1188   9.129   0.772   4.501  2.2911  0.9851  1.1074
    9MOL0     H 1189   8.883   0.915   4.454  1.9073 -0.1217 -1.9838
    9MOL0     H 1190   8.928   0.786   4.577 -1.5150  1.7074  2.0809
    9MOL0     H 1191   9.066   1.115   4.648 -0.6966  1.3903  1.1152
    9MOL0     H 1192   9.102   1.184   4.920  0.3910 -4.7073 -0.4015
    9MOL0     H 1193   8.949   1.182   5.016 -1.5236 -0.8384 -0.1434
    9MOL0     H 1194   8.969   1.361   4.768 -1.9311 -1.7795 -0.6702
    9MOL0     H 1195   8.830   1.334   4.857 -0.4471  2.0821  2.3421
    9MOL0     H 1196   9.086   1.460   4.983  0.5603 -0.9252  0.6306
    9MOL0     H 1197   8.943   1.556   4.931 -5.3544 -0.2440  2.8077
    9MOL0     H 1198   8.990   1.365   5.160  2.4917  0.9982 -1.7619
    9MOL0     H 1199   8.955   1.540   5.165 -3.6340  0.8237  0.9783
    9MOL0     H 1200   8.802   1.674   5.068  0.6522 -0.2928 -0.3229
    9MOL0     H 1201   8.703   1.878   4.995  2.6890 -3.2440 -1.6732
    9MOL0     H 1202   8.519   1.903   5.006  0.4115 -0.3114  1.5055
    9MOL0     H 1203   8.609   1.863   4.851  0.7920 -1.7851  0.0686
    9MOL0     H 1204   8.113   1.883   5.050 -0.1906 -0.3494 -1.2258
    9MOL0     H 1205   7.908   1.993   4.965 -0.4130  1.3950 -1.8060
    9MOL0     H 1206   7.645   1.704   4.856  0.9150  0.7918  0.6709
    9MOL0     H 1207   7.616   1.824   4.976 -1.6458  0.6059 -0.1231
    9MOL0     H 1208   7.420   1.769   4.852  0.4689  0.1427  1.2721
    9MOL0     H 1209   7.464   1.945   4.816  3.0479  0.8804 -1.1278
    9MOL0     H 1210   7.504   1.689   4.655 -0.6382  0.0478  0.3065
    9MOL0     H 1211   7.596   1.847   4.620 -1.0681  3.7073 -0.0014
    9MOL0     H 1212   7.297   1.797   4.608  1.3392 -0.3102  1.2741
    9MOL0     H 1213   7.416   1.809   4.471  3.2636 -0.0347  1.0978
    9MOL0     H 1214   7.472   2.055   4.595  0.2963  0.4823 -1.4807
    9MOL0     H 1215   7.380   2.028   4.455 -2.0337 -1.3365  0.4014
    9MOL0     H 1216   7.293   2.169   4.636  0.1573  0.1142 -0.9072
    9MOL0     H 1217   7.251   2.015   4.730 -1.0334  2.3728  0.7754
    9MOL0     H 1218   7.105   1.944   4.525 -0.6168  0.7958 -2.2000
    9MOL0     H 1219   7.168   2.082   4.445 -2.4899 -0.1363 -0.8276
    9MOL0     H 1220   6.978   2.056   4.677  0.3869 -2.9637 -1.3044
    9MOL0     H 1221   6.943   2.105   4.505  0.3511 -0.6667 -1.0215
    9MOL0     H 1222   7.847   1.656   4.700 -0.7658 -0.1804 -0.4023
    9MOL0     H 1223   8.042   1.555   4.775  0.4404 -1.3711  0.5606
    9MOL0     H 1224   8.371   1.435   5.025 -0.6133  0.6561  1.6132
    9MOL0     H 1225   8.559   1.321   5.074 -1.3968 -1.1132 -0.1816
    9MOL0     H 1226   8.915   1.668   3.933 -0.7466  2.6782 -1.7109
    9MOL0     H 1227   8.910   1.906   3.940  0.9611 -0.7347 -1.9939
    9MOL0     H 1228   9.225   2.260   3.935  0.6722 -0.0644 -0.2933
    9MOL0     H 1229   9.266   2.514   3.919  1.4136  0.3056  2.9286
    9MOL0     H 1230   9.122   2.764   4.227 -0.1289 -0.2226  0.6573
    9MOL0     H 1231   9.165   2.888   4.107 -0.4989 -1.7111 -2.2427
    9MOL0     H 1232   8.915   2.906   4.153  2.4064 -0.4480  0.6077
    9MOL0     H 1233   8.908   2.742   4.092  5.6268 -3.2174  3.2425
    9MOL0     H 1234   9.059   2.954   3.928 -2.6479  3.5043  0.1089
    9MOL0     H 1235   8.976   2.822   3.863  0.3365  0.8066  0.1922
    9MOL0     H 1236   8.828   3.058   3.987  2.0649 -0.0778  0.1741
    9MOL0     H 1237   8.759   2.913   3.898 -0.2838  0.5220 -0.0079
    9MOL0     H 1238   8.925   3.175   3.591 -0.1563 -1.8829 -1.6659
    9MOL0     H 1239   9.000   2.590   4.234  0.3112  0.1937 -0.2773
    9MOL0     H 1240   8.882   2.434   4.347 -1.0301 -0.2914  0.5225
    9MOL0     H 1241   8.865   2.268   4.287  0.9605 -0.0604  0.4942
    9MOL0     H 1242   9.003   2.318   4.384  0.3157 -1.3257 -0.9437
   10MOL0     O 1243   9.337   9.844   2.873 -0.6289  0.0972 -0.3010
   10MOL0     C 1244   9.266   9.754   2.923  0.9223 -1.1093  0.5649
   10MOL0     O 1245   9.136   9.749   2.894 -0.4186 -0.2810  0.5207
   10MOL0     C 1246   9.073   9.835   2.799  0.3028 -0.1512 -0.4710
   10MOL0     C 1247   9.001   9.791   2.687 -0.0849  0.3178 -0.4419
   10MOL0     C 1248   8.955   9.878   2.593 -0.1050  0.3493  0.6476
   10MOL0     C 1249   8.993  10.015   2.597 -0.1985  0.1025  0.1174
   10MOL0     O 1250   8.956  10.084   2.482 -0.3145 -0.9518  0.3606
   10MOL0     C 1251   8.938  10.222   2.486 -0.2229 -0.4902 -0.5513
   10MOL0     C 1252   8.904  10.275   2.348 -0.2062 -0.1166 -0.0742
   10MOL0     C 1253   8.926  10.427   2.330 -0.6548 -0.2204  0.1952
   10MOL0     C 1254   9.070  10.451   2.298  0.3284  0.5594  0.5253
   10MOL0     C 1255   9.096  10.602   2.283 -0.0600  0.3800 -0.3986
   10MOL0     C 1256   9.236  10.619   2.326 -1.0638 -0.2302  0.9837
   10MOL0     C 1257   9.278  10.764   2.314 -0.4482 -0.3049  0.2816
   10MOL0     C 1258   9.322  10.803   2.180 -1.0011 -0.4164 -1.0174
   10MOL0     N 1259   9.469  10.781   2.190 -1.4178 -0.3961  0.3232
   10MOL0     C 1260   9.565  10.837   2.274  0.8904  0.5160  0.2147
   10MOL0     C 1261   9.679  10.774   2.258  0.4864  0.4978  0.1393
   10MOL0     C 1262   9.795  10.822   2.334  0.1397  0.1904  0.3233
   10MOL0     C 1263   9.791  10.779   2.484 -0.1544  0.2520 -0.0507
   10MOL0     C 1264   9.763  10.625   2.514 -1.0044  0.3643  1.2711
   10MOL0     C 1265   9.859  10.539   2.431  0.0246 -0.1544  0.0456
   10MOL0     O 1266   9.988  10.595   2.407  0.2166 -0.4581 -0.5798
   10MOL0     C 1267  10.071  10.556   2.304  0.7297  0.5425  0.2027
   10MOL0     C 1268  10.036  10.468   2.198 -0.7225 -0.3919 -0.0316
   10MOL0     C 1269  10.114  10.430   2.088  0.0353  0.2340 -0.4538
   10MOL0     C 1270  10.063  10.327   1.993 -0.1520  0.5622  0.3719
   10MOL0     C 1271  10.249  10.478   2.089 -0.2178  0.1173 -0.0347
   10MOL0     C 1272  10.357  10.443   1.996  0.1844  0.3428 -0.1354
   10MOL0     O 1273  10.476  10.525   1.995 -0.0337 -0.2576 -0.3144
   10MOL0     C 1274  10.569  10.520   1.897  0.0424 -0.0169 -0.3002
   10MOL0     C 1275  10.546  10.525   1.767 -0.4048  0.0474  0.4227
   10MOL0     C 1276  10.649  10.522   1.677  0.1399 -0.6697 -0.2021
   10MOL0     C 1277  10.780  10.551   1.720 -0.6981  0.4483  0.7318
   10MOL0     O 1278  10.877  10.573   1.623 -0.8466 -0.4147 -0.2871
   10MOL0     C 1279  11.012  10.524   1.655  0.2574  0.1245  0.0665
   10MOL0     C 1280  11.100  10.569   1.533 -0.6366  0.4209 -0.0671
   10MOL0     C 1281  11.250  10.587   1.586 -0.1826 -0.0260 -0.0938
   10MOL0     C 1282  11.261  10.724   1.653  0.4338  0.0048 -0.3787
   10MOL0     C 1283  11.411  10.735   1.710 -0.2746 -0.1937  0.4173
   10MOL0     C 1284  11.410  10.807   1.850 -0.9136  0.8065 -0.1359
   10MOL0     C 1285  11.545  10.817   1.914 -0.0529  0.7383 -0.0521
   10MOL0     C 1286  11.546  10.808   2.075 -0.2281  0.1597 -0.1370
   10MOL0    Cl 1287  11.463  10.945   2.147  0.5822  0.5426 -0.2820
   10MOL0     C 1288  10.804  10.557   1.858  0.5788  0.0785 -0.5369
   10MOL0     C 1289  10.698  10.536   1.947  1.5431  0.4592 -0.1382
   10MOL0     O 1290  10.344  10.355   1.916 -0.2730  0.7809  0.7342
   10MOL0     C 1291  10.281  10.576   2.187 -1.2044  0.2827 -0.1353
   10MOL0     C 1292  10.199  10.616   2.299 -0.2158 -0.7975 -0.0416
   10MOL0     N 1293   9.652  10.661   2.175  0.0845  0.2884  0.0363
   10MOL0     N 1294   9.529  10.665   2.140  0.9077 -0.7593 -0.1859
   10MOL0     C 1295   9.063  10.071   2.706  0.6607 -1.3513  0.0067
   10MOL0     C 1296   9.097   9.980   2.809 -0.1494 -0.9199 -0.1322
   10MOL0     C 1297   9.325   9.661   3.013 -0.1399 -0.4222  0.3821
   10MOL0     C 1298   9.247   9.549   3.048 -0.0741 -0.2903  0.2385
   10MOL0     C 1299   9.304   9.444   3.132  1.1502  0.4470  0.2096
   10MOL0     C 1300   9.433   9.459   3.192  0.2335 -0.8179 -1.2353
   10MOL0     O 1301   9.473   9.363   3.281 -0.4081 -0.2460  0.3642
   10MOL0     C 1302   9.553   9.405   3.393  0.4160  0.0533  0.0412
   10MOL0     C 1303   9.475   9.455   3.508  0.7404  1.0471 -0.0370
   10MOL0     C 1304   9.360   9.365   3.542  0.7470  0.0267  1.1236
   10MOL0     C 1305   9.393   9.221   3.596 -0.2822  0.0974 -0.5889
   10MOL0     C 1306   9.271   9.144   3.639  0.2743 -1.2452  0.5507
   10MOL0     C 1307   9.180   9.075   3.680 -0.8921 -0.4293 -0.5635
   10MOL0     C 1308   9.514   9.570   3.149  1.1152 -0.3663  0.4681
   10MOL0     C 1309   9.463   9.673   3.066 -0.6499  0.5046 -0.7636
   10MOL0     C 1310   9.565   9.779   3.022  0.5127 -0.3960  0.2943
   10MOL0     H 1311   8.978   9.685   2.688  0.1465  0.2735  0.1279
   10MOL0     H 1312   8.907   9.843   2.502 -1.5945  2.5132  0.5225
   10MOL0     H 1313   9.028  10.272   2.523 -0.9707 -2.4821  4.8383
   10MOL0     H 1314   8.854  10.235   2.554  0.8714 -3.1604  1.4834
   10MOL0     H 1315   8.977  10.221   2.286  0.6206  0.8939 -0.0006
   10MOL0     H 1316   8.798  10.263   2.327  0.1172 -2.0755 -0.8639
   10MOL0     H 1317   8.876  10.466   2.242  1.5918 -2.4058 -2.2378
   10MOL0     H 1318   8.892  10.485   2.417 -3.1834 -1.8532  0.4048
   10MOL0     H 1319   9.140  10.406   2.368 -0.9798 -2.1142  0.2224
   10MOL0     H 1320   9.106  10.407   2.204 -2.3610 -0.6687 -0.0282
   10MOL0     H 1321   9.023  10.662   2.339  2.0631  2.7566  0.0134
   10MOL0     H 1322   9.075  10.616   2.176 -0.3991 -0.9099 -0.5135
   10MOL0     H 1323   9.244  10.604   2.434  2.4683  0.6456  0.9882
   10MOL0     H 1324   9.307  10.556   2.271 -1.0759  1.3562 -0.9647
   10MOL0     H 1325   9.343  10.799   2.394  1.1410  0.5760 -1.3107
   10MOL0     H 1326   9.180  10.813   2.320 -0.0926  0.2489  2.0568
   10MOL0     H 1327   9.278  10.746   2.098 -1.5877  1.5195 -2.1306
   10MOL0     H 1328   9.314  10.912   2.173  2.9694  0.1561  0.5683
   10MOL0     H 1329   9.547  10.920   2.342 -0.3299 -0.9144  1.7120
   10MOL0     H 1330   9.796  10.931   2.332  1.5420  0.1951  0.7155
   10MOL0     H 1331   9.887  10.791   2.284  1.5790 -1.6671  3.7396
   10MOL0     H 1332   9.882  10.817   2.533  0.3746  0.1142 -0.9040
   10MOL0     H 1333   9.712  10.837   2.533 -0.4561  2.4969 -2.8969
   10MOL0     H 1334   9.788  10.592   2.615  1.0101 -0.1010  0.6706
   10MOL0     H 1335   9.657  10.607   2.491 -0.7736  0.1218  0.3492
   10MOL0     H 1336   9.864  10.434   2.460  1.3408  0.3693  1.8935
   10MOL0     H 1337   9.808  10.533   2.334  0.0775 -1.5214  0.0772
   10MOL0     H 1338   9.936  10.426   2.204 -1.2262  0.6786 -0.6296
   10MOL0     H 1339   9.955  10.326   1.979  0.1580  1.1733 -3.0748
   10MOL0     H 1340  10.109  10.234   2.027 -0.4792  0.4175  0.4161
   10MOL0     H 1341  10.111  10.342   1.895 -0.0114  1.0964  0.5214
   10MOL0     H 1342  10.442  10.523   1.737 -0.4898  0.2186  0.6984
   10MOL0     H 1343  10.619  10.513   1.573 -0.9041  0.6140 -0.0260
   10MOL0     H 1344  11.052  10.559   1.750  1.3335  0.0103 -0.3341
   10MOL0     H 1345  11.003  10.415   1.660 -0.8559  0.1707 -0.5079
   10MOL0     H 1346  11.094  10.485   1.463 -2.0649  2.8747 -3.0863
   10MOL0     H 1347  11.067  10.658   1.480  2.4853  1.8106  0.1258
   10MOL0     H 1348  11.322  10.587   1.503  1.6112  3.5148  1.2147
   10MOL0     H 1349  11.281  10.509   1.656  0.3176 -1.5030 -1.8670
   10MOL0     H 1350  11.187  10.734   1.732 -0.8033 -0.6009 -1.4331
   10MOL0     H 1351  11.239  10.803   1.580  3.6632  3.4160  1.9658
   10MOL0     H 1352  11.457  10.636   1.717 -1.5619 -1.1766 -2.8806
   10MOL0     H 1353  11.477  10.785   1.638 -1.2716  0.7955  0.1769
   10MOL0     H 1354  11.348  10.759   1.926  1.5505  0.8179  2.0268
   10MOL0     H 1355  11.382  10.910   1.824 -0.1050  1.5440  1.7608
   10MOL0     H 1356  11.578  10.918   1.885 -3.6066  2.2215  0.5224
   10MOL0     H 1357  11.617  10.743   1.878  0.0554  0.1949  1.2522
   10MOL0     H 1358  11.650  10.822   2.103 -0.3456 -0.2021  0.4929
   10MOL0     H 1359  11.497  10.717   2.112  0.3488 -0.9308 -1.9200
   10MOL0     H 1360  10.901  10.570   1.903  0.1964 -0.6186  0.5244
   10MOL0     H 1361  10.709  10.531   2.055 -2.5529 -0.0008  0.4289
   10MOL0     H 1362  10.381  10.616   2.195  1.6717 -6.0141  2.4992
   10MOL0     H 1363  10.236  10.667   2.387 -1.1405  0.7207 -0.4867
   10MOL0     H 1364   9.100  10.173   2.712  0.9316 -1.2939 -1.9439
   10MOL0     H 1365   9.152  10.030   2.889  3.0046 -0.4132 -2.4216
   10MOL0     H 1366   9.143   9.537   3.019  0.0029  0.7896 -0.5508
   10MOL0     H 1367   9.258   9.348   3.151  1.5817  0.7758  3.5305
   10MOL0     H 1368   9.619   9.324   3.426  1.8387  0.2412 -2.1246
   10MOL0     H 1369   9.621   9.486   3.365 -0.7933  1.2152  0.3507
   10MOL0     H 1370   9.446   9.553   3.470  1.3013  1.2656  0.0838
   10MOL0     H 1371   9.540   9.468   3.595 -0.6654 -2.6635  1.7992
   10MOL0     H 1372   9.305   9.412   3.625 -0.9781 -1.9385  1.1782
   10MOL0     H 1373   9.292   9.348   3.457  0.9718  1.6373  0.5877
   10MOL0     H 1374   9.457   9.217   3.685  0.3341 -2.5075 -1.0525
   10MOL0     H 1375   9.447   9.170   3.516 -1.6255 -0.8397 -0.9358
   10MOL0     H 1376   9.097   9.019   3.717  0.9667 -2.4333  0.8642
   10MOL0     H 1377   9.620   9.576   3.173  0.9191 -1.2495  1.6666
   10MOL0     H 1378   9.573   9.772   2.913  1.2557  3.4381 -0.0200
   10MOL0     H 1379   9.552   9.885   3.044  3.6132  0.5426 -1.6586
   10MOL0     H 1380   9.664   9.752   3.060  0.0580 -1.4388  0.7792
   11MOL0     O 1381   0.658   3.313   9.483  0.0739 -0.2988  0.8079
   11MOL0     C 1382   0.605   3.207   9.506 -0.0135  0.1938 -0.7764
   11MOL0     O 1383   0.667   3.090   9.531  0.4078 -0.0199  0.4327
   11MOL0     C 1384   0.798   3.067   9.554 -0.4242  0.1799  0.7985
   11MOL0     C 1385   0.837   2.934   9.542  0.1165  0.8426  0.2148
   11MOL0     C 1386   0.965   2.889   9.572  0.7072  0.7551  0.8627
   11MOL0     C 1387   1.064   2.976   9.608 -0.1147  0.4947 -0.2876
   11MOL0     O 1388   1.184   2.913   9.632  0.4480 -0.2861  0.0200
   11MOL0     C 1389   1.300   2.999   9.653 -1.0615 -0.4868  0.3782
   11MOL0     C 1390   1.440   2.936   9.620  0.5575  0.4547  0.2852
   11MOL0     C 1391   1.451   2.801   9.681  0.4675 -1.0000  0.6447
   11MOL0     C 1392   1.606   2.764   9.666  0.2657 -0.0649 -0.7647
   11MOL0     C 1393   1.618   2.609   9.674 -0.2858  0.0416  0.6269
   11MOL0     C 1394   1.586   2.538   9.814 -0.1865 -0.1479  0.0412
   11MOL0     C 1395   1.623   2.394   9.809 -0.2270  0.4169 -0.0468
   11MOL0     C 1396   1.602   2.324   9.948  0.0099 -0.0559  0.0303
   11MOL0     N 1397   1.711   2.355  10.046  0.5353 -1.1714  0.4596
   11MOL0     C 1398   1.696   2.369  10.180  0.3876 -1.3107 -0.5759
   11MOL0     C 1399   1.828   2.382  10.230  0.0698 -0.3324 -0.8720
   11MOL0     C 1400   1.848   2.411  10.384  0.0213 -0.9808 -0.3110
   11MOL0     C 1401   1.730   2.466  10.461 -0.7740  0.8355 -1.2439
   11MOL0     C 1402   1.785   2.507  10.603  0.3074 -0.2990 -0.4084
   11MOL0     C 1403   1.658   2.547  10.687  0.0242 -0.0608 -0.8288
   11MOL0     O 1404   1.589   2.429  10.724  0.2713  0.1701 -0.0065
   11MOL0     C 1405   1.471   2.431  10.793 -0.3806 -0.1947  0.6891
   11MOL0     C 1406   1.443   2.318  10.871 -0.3778 -0.7743  0.2839
   11MOL0     C 1407   1.339   2.327  10.967 -0.3519 -0.0230 -0.5381
   11MOL0     C 1408   1.322   2.206  11.063  0.8593  0.4023  0.2615
   11MOL0     C 1409   1.257   2.443  10.982 -0.6345 -0.3852  0.2573
   11MOL0     C 1410   1.148   2.478  11.078  0.2520  0.6439  0.4869
   11MOL0     O 1411   1.114   2.618  11.085  0.1372 -0.2151  0.3110
   11MOL0     C 1412   1.026   2.656  11.180  0.3685 -0.1655 -0.2273
   11MOL0     C 1413   0.896   2.701  11.161  0.9548  0.8801  0.4329
   11MOL0     C 1414   0.819   2.753  11.275  0.1714  0.9547 -0.3153
   11MOL0     C 1415   0.868   2.742  11.406  0.2694  0.0505 -0.6880
   11MOL0     O 1416   0.794   2.775  11.517  0.9141 -0.1880 -0.6115
   11MOL0     C 1417   0.648   2.745  11.519  0.6367  0.6042  0.8577
   11MOL0     C 1418   0.577   2.773  11.650 -0.0709  0.1002  0.4056
   11MOL0     C 1419   0.609   2.670  11.762 -0.6066  0.5398 -0.4211
   11MOL0     C 1420   0.757   2.670  11.816 -0.0897  0.0199  0.1544
   11MOL0     C 1421   0.787   2.555  11.914  0.4997  0.7872  0.0248
   11MOL0     C 1422   0.743   2.418  11.858 -0.5615  0.8320 -0.3586
   11MOL0     C 1423   0.797   2.305  11.949 -0.3198 -0.1547  0.0419
   11MOL0     C 1424   0.808   2.169  11.881  0.5362  0.3695 -0.3014
   11MOL0    Cl 1425   0.892   2.161  11.734 -0.1622  0.1033  0.0641
   11MOL0     C 1426   0.987   2.682  11.420 -0.2316 -0.1338  0.6170
   11MOL0     C 1427   1.071   2.654  11.315  0.0263  0.1346  0.8328
   11MOL0     O 1428   1.110   2.393  11.155 -0.2146 -0.4401 -0.0953
   11MOL0     C 1429   1.281   2.546  10.889  0.7822  0.6439 -0.5008
   11MOL0     C 1430   1.383   2.543  10.802  0.2046 -0.1406 -0.0622
   11MOL0     N 1431   1.923   2.370  10.128 -0.0800 -0.6432  0.0514
   11MOL0     N 1432   1.847   2.365  10.019  0.0624 -0.5286 -0.2799
   11MOL0     C 1433   1.027   3.113   9.620 -0.8999 -0.3815 -0.1152
   11MOL0     C 1434   0.899   3.159   9.584  0.6570  0.5579 -0.6150
   11MOL0     C 1435   0.454   3.209   9.493  0.5911  0.1525 -1.4224
   11MOL0     C 1436   0.386   3.084   9.482 -0.1191 -0.2308 -1.0448
   11MOL0     C 1437   0.250   3.072   9.467 -0.4660 -0.3702  0.2168
   11MOL0     C 1438   0.179   3.188   9.450 -0.6688 -1.3217 -0.1309
   11MOL0     O 1439   0.046   3.167   9.418 -0.3364  0.4161 -0.5142
   11MOL0     C 1440  -0.043   3.280   9.407  0.6537 -0.3885 -0.5617
   11MOL0     C 1441  -0.185   3.226   9.401 -0.6774  0.1620 -0.6294
   11MOL0     C 1442  -0.279   3.348   9.374  0.2964  0.0729 -0.5726
   11MOL0     C 1443  -0.419   3.305   9.410  0.0194 -0.3191  0.9727
   11MOL0     C 1444  -0.518   3.382   9.333  0.6708 -0.4616 -0.9701
   11MOL0     C 1445  -0.600   3.439   9.265  1.0471  0.5526 -0.0098
   11MOL0     C 1446   0.236   3.319   9.464 -0.1613  0.3851  0.1290
   11MOL0     C 1447   0.377   3.328   9.489  0.2601  0.2945  0.0168
   11MOL0     C 1448   0.433   3.465   9.520  0.3098  0.2466  0.0192
   11MOL0     H 1449   0.771   2.853   9.511  0.8664 -0.7222  2.4511
   11MOL0     H 1450   0.984   2.783   9.569 -5.9464 -0.8534  0.6236
   11MOL0     H 1451   1.305   3.015   9.761  3.0244  4.5206 -0.1467
   11MOL0     H 1452   1.296   3.096   9.602  0.0860 -1.2976 -1.3771
   11MOL0     H 1453   1.445   2.933   9.511 -5.1681  1.1606 -0.3265
   11MOL0     H 1454   1.515   2.999   9.668  1.7906  0.2490 -1.3077
   11MOL0     H 1455   1.419   2.802   9.786 -0.1082  1.6359  0.5149
   11MOL0     H 1456   1.388   2.729   9.628 -0.8843  0.2591  0.4848
   11MOL0     H 1457   1.640   2.803   9.570 -0.6772  2.4509 -0.1526
   11MOL0     H 1458   1.664   2.802   9.751  0.6850  0.9840 -1.5045
   11MOL0     H 1459   1.724   2.581   9.669 -1.1870 -3.9425  0.4883
   11MOL0     H 1460   1.563   2.561   9.593 -0.3133  1.0300  0.0451
   11MOL0     H 1461   1.625   2.584   9.905 -0.6318 -1.3336  0.8564
   11MOL0     H 1462   1.479   2.538   9.834  0.0791  0.2884  1.6051
   11MOL0     H 1463   1.729   2.387   9.784 -0.1426 -1.6595  0.6966
   11MOL0     H 1464   1.563   2.340   9.735  0.1944 -1.1850  0.7217
   11MOL0     H 1465   1.512   2.361   9.997  0.7318  0.6917  0.8244
   11MOL0     H 1466   1.594   2.215   9.945  1.7022 -0.2168  0.3243
   11MOL0     H 1467   1.598   2.388  10.224  0.5199  3.1634 -1.8037
   11MOL0     H 1468   1.925   2.488  10.391 -1.3925  0.7764 -2.6101
   11MOL0     H 1469   1.888   2.321  10.431  1.8096  0.0575  0.2663
   11MOL0     H 1470   1.688   2.553  10.411 -4.1713  0.0449 -0.0101
   11MOL0     H 1471   1.656   2.386  10.467  1.9063 -1.8201  3.9632
   11MOL0     H 1472   1.832   2.417  10.644 -2.5327 -2.2172 -1.0768
   11MOL0     H 1473   1.855   2.590  10.589 -0.2952 -0.1383 -2.7803
   11MOL0     H 1474   1.685   2.593  10.782  0.6067 -3.1147  0.6003
   11MOL0     H 1475   1.596   2.611  10.625  1.9108  0.2334 -2.5287
   11MOL0     H 1476   1.513   2.237  10.852  2.5621  1.6319  0.1426
   11MOL0     H 1477   1.410   2.141  11.072  0.1430 -0.9974 -1.9384
   11MOL0     H 1478   1.248   2.140  11.015  1.7460 -2.5678  2.6325
   11MOL0     H 1479   1.290   2.232  11.165 -0.1480  1.2707 -0.2533
   11MOL0     H 1480   0.863   2.688  11.059  2.2953 -1.2562  0.2145
   11MOL0     H 1481   0.722   2.792  11.246  0.0772 -0.6746 -2.5198
   11MOL0     H 1482   0.601   2.800  11.437  0.6347  1.6346  1.5317
   11MOL0     H 1483   0.625   2.639  11.506 -1.1669  0.6567  3.0811
   11MOL0     H 1484   0.615   2.872  11.675  2.9714  0.4386 -4.3050
   11MOL0     H 1485   0.468   2.774  11.641 -0.0055 -0.1474 -0.5133
   11MOL0     H 1486   0.587   2.569  11.729 -0.6935 -0.4152  2.2909
   11MOL0     H 1487   0.546   2.693  11.849 -1.3633  0.3846 -0.9247
   11MOL0     H 1488   0.756   2.761  11.877 -3.1810  0.5513 -0.5055
   11MOL0     H 1489   0.834   2.672  11.738 -3.0098 -0.1412 -2.9709
   11MOL0     H 1490   0.895   2.543  11.927  0.4249 -1.4366 -0.9797
   11MOL0     H 1491   0.736   2.567  12.010  1.5342  0.6955  0.6048
   11MOL0     H 1492   0.789   2.413  11.759 -1.5445  0.7307 -0.8238
   11MOL0     H 1493   0.634   2.409  11.857 -0.5891  1.1416 -1.7251
   11MOL0     H 1494   0.729   2.293  12.033  1.8124 -0.4708  1.8068
   11MOL0     H 1495   0.897   2.331  11.985 -0.5355  1.1312 -0.2303
   11MOL0     H 1496   0.704   2.148  11.854 -0.3203  2.4967  1.1068
   11MOL0     H 1497   0.828   2.096  11.960 -2.2358  1.0275  1.1638
   11MOL0     H 1498   1.021   2.673  11.523 -1.4402 -5.0500  0.8648
   11MOL0     H 1499   1.174   2.623  11.327  1.0725  2.6761 -0.5935
   11MOL0     H 1500   1.234   2.644  10.889  2.2799  1.4256  1.0616
   11MOL0     H 1501   1.397   2.622  10.728 -1.7123 -1.5573 -2.0533
   11MOL0     H 1502   1.094   3.180   9.671 -1.1752  1.7481 -2.3910
   11MOL0     H 1503   0.872   3.264   9.587 -1.4781  0.0869 -1.8105
   11MOL0     H 1504   0.439   2.989   9.489  1.0342  0.4765  0.5153
   11MOL0     H 1505   0.203   2.975   9.472 -0.5520 -0.3081  0.6592
   11MOL0     H 1506  -0.035   3.353   9.488 -2.5257  0.6920 -1.0675
   11MOL0     H 1507  -0.026   3.338   9.316 -0.6939  3.6645  1.5488
   11MOL0     H 1508  -0.206   3.191   9.502  0.4484 -0.3200 -0.5475
   11MOL0     H 1509  -0.200   3.146   9.327  0.4455  2.0215 -3.0295
   11MOL0     H 1510  -0.256   3.427   9.446 -3.2585  1.4339 -0.7387
   11MOL0     H 1511  -0.260   3.377   9.270 -0.8029  2.0313 -0.2757
   11MOL0     H 1512  -0.432   3.307   9.519  1.0607 -2.8417  1.2061
   11MOL0     H 1513  -0.436   3.203   9.375  0.1825 -0.1760  0.4692
   11MOL0     H 1514  -0.669   3.501   9.210 -2.9156 -0.5978  3.1996
   11MOL0     H 1515   0.186   3.414   9.450 -2.3117 -0.4151  1.7814
   11MOL0     H 1516   0.516   3.461   9.591  1.2842 -0.3705 -1.1020
   11MOL0     H 1517   0.465   3.512   9.426 -1.8182  1.4596 -0.1640
   11MOL0     H 1518   0.356   3.532   9.558  1.1359  1.4974 -0.4375
   12MOL0     O 1519   5.715   7.766   9.784  0.0340 -1.0492 -0.1718
   12MOL0     C 1520   5.657   7.685   9.712  0.4482  0.0579  0.6780
   12MOL0     O 1521   5.707   7.558   9.689 -0.1427 -0.6402 -0.4363
   12MOL0     C 1522   5.802   7.498   9.769 -0.0611  0.2574 -0.5366
   12MOL0     C 1523   5.860   7.382   9.707  0.0568 -0.5482 -1.3498
   12MOL0     C 1524   5.950   7.303   9.772  0.6042 -0.8131  0.1214
   12MOL0     C 1525   6.003   7.359   9.888 -0.0440  0.1089  1.1749
   12MOL0     O 1526   6.110   7.298   9.953 -0.4580 -0.5940 -0.7844
   12MOL0     C 1527   6.164   7.174   9.906  0.6616  0.1883  0.7471
   12MOL0     C 1528   6.279   7.145   9.999 -0.0899 -0.0326 -0.3144
   12MOL0     C 1529   6.407   7.225   9.960  0.7060  1.0071 -0.0148
   12MOL0     C 1530   6.514   7.226  10.070  0.1017  0.8827  0.1764
   12MOL0     C 1531   6.473   7.232  10.217 -0.4080  0.8526 -0.6249
   12MOL0     C 1532   6.392   7.351  10.248  0.3364  0.2046  0.9459
   12MOL0     C 1533   6.466   7.489  10.226  1.2101 -0.4690 -0.9498
   12MOL0     C 1534   6.543   7.523  10.360  0.2314 -0.1548  0.4931
   12MOL0     N 1535   6.566   7.665  10.374  0.4333  0.1811  0.3651
   12MOL0     C 1536   6.681   7.733  10.351 -0.1798  0.3122 -1.0218
   12MOL0     C 1537   6.664   7.854  10.404 -0.4284  0.2616  0.5835
   12MOL0     C 1538   6.764   7.964  10.395  0.9000  0.1714 -1.3432
   12MOL0     C 1539   6.816   7.994  10.543 -0.2778 -0.0845 -0.4737
   12MOL0     C 1540   6.922   8.103  10.540  0.3234 -0.2687  0.5743
   12MOL0     C 1541   7.064   8.048  10.503 -1.1247  0.0475 -0.2000
   12MOL0     O 1542   7.156   8.154  10.505  0.4384 -0.4876 -0.2962
   12MOL0     C 1543   7.261   8.151  10.414 -0.1099  0.4407 -0.2461
   12MOL0     C 1544   7.393   8.140  10.462  0.5872 -0.3268 -0.2942
   12MOL0     C 1545   7.496   8.123  10.375 -0.3934  0.3204 -0.1637
   12MOL0     C 1546   7.630   8.104  10.432  0.2983  0.8839 -0.3152
   12MOL0     C 1547   7.468   8.124  10.231 -0.8433 -0.5019 -0.7177
   12MOL0     C 1548   7.567   8.120  10.130 -0.8919 -0.0893  0.9890
   12MOL0     O 1549   7.528   8.167  10.005 -0.9416 -0.4796 -0.8403
   12MOL0     C 1550   7.614   8.178   9.903  0.5560 -0.0064  0.5201
   12MOL0     C 1551   7.573   8.141   9.781  0.2230  0.5331  0.7057
   12MOL0     C 1552   7.654   8.146   9.667 -0.8157  0.4149 -0.2128
   12MOL0     C 1553   7.780   8.205   9.681 -0.0066  0.0156  0.8086
   12MOL0     O 1554   7.855   8.196   9.562 -1.3381 -0.5837 -0.1114
   12MOL0     C 1555   7.956   8.300   9.548 -0.2055  0.0448  0.1148
   12MOL0     C 1556   7.998   8.271   9.401 -0.0008  0.0105 -0.2980
   12MOL0     C 1557   8.086   8.390   9.337 -0.1164  0.8636  0.4149
   12MOL0     C 1558   8.207   8.418   9.426  0.8201  0.8037  0.3415
   12MOL0     C 1559   8.317   8.501   9.366  0.0266  0.5207 -0.2876
   12MOL0     C 1560   8.251   8.632   9.325 -0.6249  0.9416  0.4391
   12MOL0     C 1561   8.358   8.739   9.293  0.0434 -0.0004  0.2568
   12MOL0     C 1562   8.295   8.876   9.257 -0.0511  0.1329 -0.1355
   12MOL0    Cl 1563   8.235   8.875   9.095  0.2990  0.2987 -0.2945
   12MOL0     C 1564   7.818   8.258   9.805  0.3940  0.0216  0.3512
   12MOL0     C 1565   7.734   8.245   9.920 -0.8161 -0.0493  0.3187
   12MOL0     O 1566   7.673   8.072  10.158 -1.0945  0.0130 -0.1921
   12MOL0     C 1567   7.336   8.154  10.190  0.3187  0.0433 -0.2800
   12MOL0     C 1568   7.229   8.161  10.279  0.1505  0.3550 -0.1685
   12MOL0     N 1569   6.540   7.876  10.461  0.0366  0.1619 -1.0078
   12MOL0     N 1570   6.482   7.756  10.440  0.1920  0.2848  0.0875
   12MOL0     C 1571   5.959   7.478   9.942  0.2399 -0.0206  0.3477
   12MOL0     C 1572   5.855   7.547   9.888 -0.2516  0.7608 -0.3295
   12MOL0     C 1573   5.549   7.732   9.611  0.6146  1.1894 -0.5753
   12MOL0     C 1574   5.580   7.815   9.502 -0.2574 -0.3289 -0.3329
   12MOL0     C 1575   5.494   7.848   9.397 -0.2056  0.0991  0.2344
   12MOL0     C 1576   5.366   7.786   9.393 -0.0880  0.2312  0.1510
   12MOL0     O 1577   5.289   7.787   9.286  1.0080  0.9778  0.7516
   12MOL0     C 1578   5.340   7.814   9.158  0.6789  0.2493 -0.4612
   12MOL0     C 1579   5.223   7.844   9.062 -0.1132  0.3149 -0.1083
   12MOL0     C 1580   5.260   7.848   8.910  0.5230  0.7025  0.5141
   12MOL0     C 1581   5.140   7.862   8.824  0.4003 -0.1410  0.7588
   12MOL0     C 1582   5.066   7.983   8.833 -0.1214 -0.2599  0.1067
   12MOL0     C 1583   5.011   8.088   8.829  0.7011  0.4298  0.6248
   12MOL0     C 1584   5.330   7.709   9.502 -0.0892 -0.2043 -1.4265
   12MOL0     C 1585   5.417   7.672   9.609 -1.1371 -0.4651  0.1119
   12MOL0     C 1586   5.379   7.559   9.708 -0.6744 -0.0022  0.9098
   12MOL0     H 1587   5.813   7.346   9.616 -1.6765  0.3330 -0.8402
   12MOL0     H 1588   5.976   7.208   9.726  0.4431 -0.2153 -1.2618
   12MOL0     H 1589   6.195   7.185   9.802 -1.7754  0.5020 -0.0289
   12MOL0     H 1590   6.098   7.086   9.909  2.5305 -1.3009  0.2866
   12MOL0     H 1591   6.243   7.179  10.097 -1.3324  0.6459 -0.9730
   12MOL0     H 1592   6.303   7.039   9.997 -0.6199 -0.2341  1.7798
   12MOL0     H 1593   6.439   7.177   9.868 -1.3295  0.2081 -0.3621
   12MOL0     H 1594   6.373   7.326   9.938 -0.0757  0.8470  0.4109
   12MOL0     H 1595   6.567   7.131  10.060 -4.0133 -1.7180  0.4543
   12MOL0     H 1596   6.592   7.296  10.041 -0.7327  1.1990 -1.4584
   12MOL0     H 1597   6.565   7.237  10.276  0.3836  2.2435 -1.9159
   12MOL0     H 1598   6.415   7.146  10.254 -0.3426  0.8446 -0.5420
   12MOL0     H 1599   6.303   7.361  10.184  2.7686  2.6769 -2.4030
   12MOL0     H 1600   6.352   7.343  10.349 -2.2428  0.1068  0.0001
   12MOL0     H 1601   6.390   7.567  10.219  0.3381 -1.1353  0.7714
   12MOL0     H 1602   6.521   7.469  10.133  0.4460 -0.1736 -1.4761
   12MOL0     H 1603   6.497   7.477  10.448 -0.4890 -1.6507 -0.6281
   12MOL0     H 1604   6.639   7.471  10.359 -0.0227 -0.9247 -3.9565
   12MOL0     H 1605   6.770   7.686  10.312  0.6530  1.0180 -0.0209
   12MOL0     H 1606   6.713   8.053  10.359 -1.1721 -0.0097  0.9300
   12MOL0     H 1607   6.850   7.937  10.332  0.2839 -3.2511 -0.9029
   12MOL0     H 1608   6.731   8.031  10.600  0.6588  2.0928 -0.3784
   12MOL0     H 1609   6.860   7.900  10.577 -0.4795 -0.5236 -1.3798
   12MOL0     H 1610   6.894   8.184  10.473  4.2053  2.4633  1.9076
   12MOL0     H 1611   6.926   8.151  10.639  2.1984 -0.4954  0.6448
   12MOL0     H 1612   7.100   7.983  10.584  2.0205  0.8468 -0.8309
   12MOL0     H 1613   7.063   7.992  10.409  0.5365  1.2565 -0.9921
   12MOL0     H 1614   7.399   8.121  10.568 -0.8708 -0.8193 -0.2712
   12MOL0     H 1615   7.690   8.193  10.416  1.5532  0.4194  1.4872
   12MOL0     H 1616   7.684   8.015  10.399  1.1347  0.9845  0.7405
   12MOL0     H 1617   7.622   8.087  10.540  1.4810 -0.3462 -0.4043
   12MOL0     H 1618   7.478   8.089   9.765  2.1428 -3.3729  0.8039
   12MOL0     H 1619   7.629   8.097   9.573 -1.1853 -0.1709  0.1823
   12MOL0     H 1620   7.922   8.402   9.568  3.5074  1.1880  1.2996
   12MOL0     H 1621   8.032   8.282   9.624  1.5883  1.4611 -1.2403
   12MOL0     H 1622   8.056   8.178   9.397  3.1414  1.8526 -2.6038
   12MOL0     H 1623   7.915   8.269   9.330 -1.3969  1.6037  1.1883
   12MOL0     H 1624   8.009   8.466   9.322 -2.2617 -0.8503  2.0649
   12MOL0     H 1625   8.122   8.367   9.236 -0.0933  2.7761 -0.0400
   12MOL0     H 1626   8.259   8.327   9.460 -0.6511 -0.6842 -1.1898
   12MOL0     H 1627   8.171   8.469   9.515  0.5022  0.7524  0.2444
   12MOL0     H 1628   8.389   8.520   9.446 -2.8926  2.8914  2.0669
   12MOL0     H 1629   8.350   8.442   9.280  0.9773 -2.4084  1.9340
   12MOL0     H 1630   8.196   8.670   9.411  0.2397  1.9591  0.5643
   12MOL0     H 1631   8.186   8.618   9.238 -0.6512  0.2041  0.5706
   12MOL0     H 1632   8.424   8.702   9.215 -0.5096 -0.3642 -0.0423
   12MOL0     H 1633   8.417   8.756   9.384  2.4374 -0.4928 -1.1377
   12MOL0     H 1634   8.374   8.952   9.263 -1.0876  1.1603  0.8476
   12MOL0     H 1635   8.209   8.898   9.320 -1.0383 -1.1678 -0.9753
   12MOL0     H 1636   7.911   8.313   9.813  1.8327 -2.1459 -0.5289
   12MOL0     H 1637   7.772   8.286  10.013 -1.2357  0.1246  0.4129
   12MOL0     H 1638   7.311   8.149  10.084  0.3460  2.0166 -0.4230
   12MOL0     H 1639   7.125   8.165  10.248 -0.4529  2.1446  1.8805
   12MOL0     H 1640   5.999   7.519  10.034 -0.3549  1.1459  0.1071
   12MOL0     H 1641   5.820   7.635   9.941  0.3559 -0.1894  1.7454
   12MOL0     H 1642   5.679   7.859   9.497 -1.2140  2.4914  2.5518
   12MOL0     H 1643   5.531   7.909   9.315  4.2521 -2.7423 -0.2223
   12MOL0     H 1644   5.406   7.901   9.168 -0.2653  0.8021  1.4281
   12MOL0     H 1645   5.396   7.728   9.119  1.8909  0.3483  0.9680
   12MOL0     H 1646   5.169   7.933   9.096  0.6232 -0.1754  2.5743
   12MOL0     H 1647   5.159   7.756   9.078 -1.0644  1.2724  1.6748
   12MOL0     H 1648   5.327   7.934   8.895 -0.2666  1.3341  0.5362
   12MOL0     H 1649   5.306   7.752   8.883 -0.6649 -0.1048  1.2885
   12MOL0     H 1650   5.070   7.781   8.850 -2.7957  2.5149  1.1824
   12MOL0     H 1651   5.171   7.850   8.720 -0.7748  0.6799  0.2923
   12MOL0     H 1652   4.948   8.174   8.838  1.6200  1.0488  1.4335
   12MOL0     H 1653   5.236   7.656   9.510  0.4957 -1.1494 -0.5515
   12MOL0     H 1654   5.278   7.567   9.748 -1.3938 -0.1719 -0.7718
   12MOL0     H 1655   5.370   7.470   9.645  1.5819  1.1213 -1.1888
   12MOL0     H 1656   5.457   7.530   9.780  0.3582  0.9884  0.2261
   13MOL0     O 1657   6.042   3.294   6.348 -0.6258  0.1736  0.2898
   13MOL0     C 1658   6.146   3.317   6.286 -0.9100 -0.5296  0.1519
   13MOL0     O 1659   6.149   3.403   6.176  0.2910 -0.7088  0.4398
   13MOL0     C 1660   6.045   3.448   6.100  0.5455 -0.7677 -0.1586
   13MOL0     C 1661   5.916   3.385   6.097 -0.6002  0.4722 -0.3254
   13MOL0     C 1662   5.818   3.423   6.004 -0.2378  0.7348 -0.1027
   13MOL0     C 1663   5.844   3.532   5.932  0.1124 -0.0030  0.0773
   13MOL0     O 1664   5.746   3.586   5.849 -0.1633  0.2926  1.2062
   13MOL0     C 1665   5.802   3.598   5.717  0.5971  0.1830  1.4846
   13MOL0     C 1666   5.696   3.645   5.616  0.2987 -0.1516  0.0214
   13MOL0     C 1667   5.610   3.753   5.682  0.1527 -0.5287 -0.5219
   13MOL0     C 1668   5.691   3.889   5.732 -0.0358  0.7439  0.5405
   13MOL0     C 1669   5.630   3.960   5.846  0.8861 -0.1424  0.4050
   13MOL0     C 1670   5.528   4.063   5.781  0.6877 -0.2154 -0.6678
   13MOL0     C 1671   5.470   4.145   5.888  1.3150 -1.3183  0.1487
   13MOL0     C 1672   5.557   4.268   5.927 -0.4628  0.9439 -0.6628
   13MOL0     N 1673   5.491   4.397   5.924  0.5227 -0.4167 -0.1920
   13MOL0     C 1674   5.439   4.460   5.808 -0.7980 -0.3438  0.0747
   13MOL0     C 1675   5.423   4.592   5.841 -0.5424 -0.1895 -1.1433
   13MOL0     C 1676   5.391   4.701   5.748 -0.8506 -0.7425 -1.1458
   13MOL0     C 1677   5.300   4.649   5.637  0.5393 -1.0028  0.0822
   13MOL0     C 1678   5.232   4.759   5.549 -0.5144  0.3687 -0.5381
   13MOL0     C 1679   5.109   4.697   5.475  0.7322 -0.4130 -0.2935
   13MOL0     O 1680   5.142   4.577   5.405 -0.3203 -0.6018 -0.4023
   13MOL0     C 1681   5.039   4.514   5.329 -0.7885  0.2359 -0.8325
   13MOL0     C 1682   5.064   4.390   5.264 -0.1112  0.0812  1.0104
   13MOL0     C 1683   4.959   4.317   5.200 -0.1434 -0.0394 -0.6644
   13MOL0     C 1684   5.005   4.175   5.147 -0.1842 -1.2943 -0.5101
   13MOL0     C 1685   4.831   4.373   5.179 -0.0993 -0.4248 -0.3508
   13MOL0     C 1686   4.724   4.314   5.092 -0.2994  0.1942  0.0826
   13MOL0     O 1687   4.617   4.375   5.103  0.1815 -0.6613  0.0693
   13MOL0     C 1688   4.493   4.345   5.057  0.8493 -0.0275 -0.7045
   13MOL0     C 1689   4.404   4.451   5.055 -0.2974  0.2847  0.1882
   13MOL0     C 1690   4.280   4.439   5.001  1.7020  0.5717  0.5574
   13MOL0     C 1691   4.231   4.314   4.953 -0.6499 -0.3166  0.7535
   13MOL0     O 1692   4.097   4.301   4.916  0.3135 -0.6033 -0.4659
   13MOL0     C 1693   4.053   4.166   4.894  0.2810 -0.0779  0.5575
   13MOL0     C 1694   3.914   4.194   4.829 -0.1682  0.2090 -0.7344
   13MOL0     C 1695   3.816   4.262   4.928  0.9404  0.9554 -0.4526
   13MOL0     C 1696   3.672   4.260   4.887 -0.4465  0.0896  0.1331
   13MOL0     C 1697   3.588   4.342   4.996 -0.1170  0.7884 -0.0618
   13MOL0     C 1698   3.442   4.364   4.939 -1.6981 -0.2288  0.3189
   13MOL0     C 1699   3.367   4.489   5.000  0.1430  0.7015  0.3296
   13MOL0     C 1700   3.251   4.522   4.909  0.5700 -0.9523 -0.5732
   13MOL0    Cl 1701   3.173   4.669   4.973  0.1061 -0.5389 -0.4666
   13MOL0     C 1702   4.322   4.204   4.962  0.7905  0.4365 -0.2556
   13MOL0     C 1703   4.453   4.222   5.008 -0.2967  0.0430 -0.7079
   13MOL0     O 1704   4.751   4.219   5.022  0.1957 -0.4860 -0.6360
   13MOL0     C 1705   4.807   4.495   5.239 -0.9085  0.6530  0.3706
   13MOL0     C 1706   4.909   4.560   5.318  0.3246  0.8740 -0.4876
   13MOL0     N 1707   5.463   4.608   5.976 -1.0814 -0.5202 -0.1183
   13MOL0     N 1708   5.509   4.494   6.018 -0.3417  0.2047  0.3927
   13MOL0     C 1709   5.957   3.601   5.944 -1.2550  1.2599  0.7733
   13MOL0     C 1710   6.062   3.560   6.019 -0.5866 -0.0744  0.8987
   13MOL0     C 1711   6.266   3.234   6.325  0.8377 -0.1431  0.2167
   13MOL0     C 1712   6.247   3.102   6.368  0.7152 -0.2443  0.5941
   13MOL0     C 1713   6.360   3.024   6.402 -0.0362  0.2645  0.3813
   13MOL0     C 1714   6.487   3.068   6.382 -0.2064  0.6574  0.0800
   13MOL0     O 1715   6.595   2.978   6.396 -0.8068  0.3775  0.3153
   13MOL0     C 1716   6.571   2.839   6.418 -0.1677  0.3576 -0.3420
   13MOL0     C 1717   6.703   2.765   6.402 -0.7388 -0.0328  0.7713
   13MOL0     C 1718   6.800   2.791   6.524 -0.1328  0.3834 -0.7557
   13MOL0     C 1719   6.833   2.944   6.550 -0.7251  0.1492 -0.8031
   13MOL0     C 1720   6.966   2.936   6.632  0.1579 -0.1335  0.1598
   13MOL0     C 1721   7.070   2.936   6.699  0.2203 -0.6692 -0.3660
   13MOL0     C 1722   6.495   3.193   6.321  0.2878 -0.3997 -0.1534
   13MOL0     C 1723   6.394   3.281   6.297  0.0180 -0.5217 -0.4230
   13MOL0     C 1724   6.427   3.429   6.256 -0.1417  0.4720  0.8355
   13MOL0     H 1725   5.895   3.305   6.168 -1.1352  0.0205 -0.9874
   13MOL0     H 1726   5.727   3.369   5.979  0.4911 -1.1924  1.1872
   13MOL0     H 1727   5.839   3.500   5.686 -0.4316 -0.1013  1.1171
   13MOL0     H 1728   5.879   3.675   5.710  0.7150 -0.0729 -0.9017
   13MOL0     H 1729   5.724   3.666   5.512  0.3475 -5.2334 -1.2977
   13MOL0     H 1730   5.625   3.563   5.601  1.2435 -0.8418 -0.8102
   13MOL0     H 1731   5.542   3.784   5.601  1.5372 -0.4070 -1.6695
   13MOL0     H 1732   5.559   3.724   5.774  0.2430  2.3928  0.5780
   13MOL0     H 1733   5.798   3.874   5.752 -0.3116 -0.3493  1.2871
   13MOL0     H 1734   5.704   3.948   5.640 -2.6004  1.5047  0.5868
   13MOL0     H 1735   5.718   4.001   5.896  2.0171 -0.7509 -1.0226
   13MOL0     H 1736   5.579   3.895   5.918 -0.0785  1.9114  1.6885
   13MOL0     H 1737   5.569   4.127   5.702 -2.6532  0.0308 -2.3710
   13MOL0     H 1738   5.449   4.009   5.728  0.5866  0.6949 -1.4866
   13MOL0     H 1739   5.454   4.088   5.980  0.5804 -1.8938 -0.3164
   13MOL0     H 1740   5.370   4.173   5.851  1.2499  0.0568  1.2532
   13MOL0     H 1741   5.603   4.264   6.026  2.6955 -4.6570 -1.9632
   13MOL0     H 1742   5.639   4.279   5.855  1.6316 -0.5542  1.3651
   13MOL0     H 1743   5.431   4.419   5.708 -1.8775  0.2204 -0.0824
   13MOL0     H 1744   5.477   4.756   5.707  0.0954  0.0817  1.6967
   13MOL0     H 1745   5.342   4.788   5.795  3.2242  1.0096  0.3144
   13MOL0     H 1746   5.356   4.589   5.566 -0.2704  1.4320 -2.8297
   13MOL0     H 1747   5.220   4.588   5.680 -1.0055  1.7704  1.4165
   13MOL0     H 1748   5.204   4.847   5.608 -2.5128 -1.4574  1.3872
   13MOL0     H 1749   5.306   4.796   5.477  1.7899 -1.9440  0.4755
   13MOL0     H 1750   5.036   4.667   5.551  0.8807  2.8592  1.3515
   13MOL0     H 1751   5.066   4.774   5.410  0.8199 -1.1754 -1.2763
   13MOL0     H 1752   5.166   4.352   5.277  0.3031  1.6482  2.7124
   13MOL0     H 1753   5.112   4.162   5.165  0.3900  3.8595  1.4667
   13MOL0     H 1754   4.996   4.177   5.038  0.6651 -0.0362 -0.5818
   13MOL0     H 1755   4.941   4.096   5.186  1.1131 -1.8018  0.6961
   13MOL0     H 1756   4.451   4.547   5.076 -0.2477  0.5428 -0.9838
   13MOL0     H 1757   4.209   4.520   5.007 -0.6659 -1.3180 -0.3683
   13MOL0     H 1758   4.110   4.110   4.819  0.4996  1.0725 -0.1587
   13MOL0     H 1759   4.044   4.121   4.993 -3.3773  0.2404  0.5243
   13MOL0     H 1760   3.936   4.264   4.747 -0.9701  1.2223 -0.1151
   13MOL0     H 1761   3.885   4.099   4.783  1.9236 -1.0642  0.4409
   13MOL0     H 1762   3.849   4.364   4.949 -2.0686  1.7024  1.3004
   13MOL0     H 1763   3.817   4.209   5.024 -3.6802  2.1540  0.5518
   13MOL0     H 1764   3.640   4.157   4.871  0.5246  0.0338 -1.8313
   13MOL0     H 1765   3.660   4.318   4.795 -5.6431  1.6018  1.4092
   13MOL0     H 1766   3.578   4.292   5.093 -0.5176  0.3351 -0.3308
   13MOL0     H 1767   3.637   4.437   5.021  1.4231 -0.3658  1.5733
   13MOL0     H 1768   3.386   4.273   4.959  2.4406 -2.4302  3.2356
   13MOL0     H 1769   3.457   4.378   4.831 -1.1530 -0.5730  0.3490
   13MOL0     H 1770   3.437   4.572   4.984 -0.3733  0.9561 -0.7407
   13MOL0     H 1771   3.351   4.483   5.108  0.4961 -0.4957  0.3265
   13MOL0     H 1772   3.176   4.445   4.890 -1.6824  1.2130 -0.9319
   13MOL0     H 1773   3.296   4.561   4.817  0.3863 -0.0525 -0.2992
   13MOL0     H 1774   4.307   4.111   4.908  0.7665 -0.3677  1.1137
   13MOL0     H 1775   4.515   4.133   5.001 -2.3451 -1.4914 -0.3745
   13MOL0     H 1776   4.708   4.539   5.237 -0.9908  0.5483 -2.8480
   13MOL0     H 1777   4.875   4.649   5.371  1.6054 -0.4581  2.9097
   13MOL0     H 1778   5.967   3.699   5.897  0.3255  0.4011 -0.7951
   13MOL0     H 1779   6.156   3.613   6.035  0.6553 -2.1602  0.8536
   13MOL0     H 1780   6.148   3.057   6.375  0.0304  1.1869  0.4960
   13MOL0     H 1781   6.342   2.925   6.443  1.5498 -1.5730 -2.9861
   13MOL0     H 1782   6.536   2.821   6.520 -1.1490  0.1680 -0.7026
   13MOL0     H 1783   6.501   2.813   6.339 -0.0281  2.3816 -1.2140
   13MOL0     H 1784   6.742   2.793   6.304 -2.0158 -0.1256  0.2223
   13MOL0     H 1785   6.681   2.658   6.394  1.7084 -0.4678 -1.9452
   13MOL0     H 1786   6.744   2.763   6.613 -0.7932  0.0831 -1.2484
   13MOL0     H 1787   6.891   2.731   6.518 -0.6898 -0.6464  0.7070
   13MOL0     H 1788   6.762   3.001   6.611 -2.2257 -0.6918 -1.7231
   13MOL0     H 1789   6.858   3.000   6.460  1.4143 -0.2007 -0.4819
   13MOL0     H 1790   7.160   2.944   6.756  0.5391  3.2166 -1.1735
   13MOL0     H 1791   6.599   3.225   6.311  0.0697  0.9566  1.6490
   13MOL0     H 1792   6.532   3.447   6.281 -0.1617  1.1802  0.4175
   13MOL0     H 1793   6.414   3.428   6.148  1.4777 -2.2401  0.5506
   13MOL0     H 1794   6.368   3.496   6.320 -3.1134 -1.1700 -0.0009
   14MOL0     O 1795   5.458   7.597   8.636 -0.6691  0.0476  0.0763
   14MOL0     C 1796   5.467   7.540   8.529  0.3017  0.3348  0.6272
   14MOL0     O 1797   5.557   7.445   8.492 -0.4123 -0.1263  0.1309
   14MOL0     C 1798   5.633   7.378   8.580 -0.1326 -0.2263 -0.6168
   14MOL0     C 1799   5.753   7.321   8.536 -0.8702  0.0516  0.1961
   14MOL0     C 1800   5.836   7.262   8.625  0.4016 -0.0484  0.7620
   14MOL0     C 1801   5.796   7.236   8.755 -0.5092 -0.1043 -0.2399
   14MOL0     O 1802   5.872   7.189   8.845  0.4553 -0.0814 -0.3305
   14MOL0     C 1803   6.015   7.200   8.831 -0.1931  0.2817 -0.3508
   14MOL0     C 1804   6.074   7.203   8.980  0.5100  1.4725  0.0623
   14MOL0     C 1805   6.037   7.092   9.081  0.1417  0.9245 -0.4431
   14MOL0     C 1806   6.082   7.137   9.221 -0.1654 -0.9202 -0.1969
   14MOL0     C 1807   6.023   7.054   9.342 -0.0768  0.6149  0.6449
   14MOL0     C 1808   6.102   6.926   9.372  0.6601  0.1853 -0.5181
   14MOL0     C 1809   6.027   6.820   9.455  0.6295 -1.1289  0.2830
   14MOL0     C 1810   5.970   6.696   9.379 -0.2499 -0.0251 -0.3655
   14MOL0     N 1811   5.878   6.737   9.276 -0.1604  0.1401 -0.0206
   14MOL0     C 1812   5.905   6.752   9.142  0.7302  0.2696  0.2791
   14MOL0     C 1813   5.786   6.787   9.090  0.7539  0.1130  0.1325
   14MOL0     C 1814   5.755   6.827   8.947 -0.1633  0.3177  0.3940
   14MOL0     C 1815   5.829   6.740   8.838  0.7943 -0.6173 -0.0832
   14MOL0     C 1816   5.798   6.790   8.699  0.3961 -0.6183 -0.1798
   14MOL0     C 1817   5.648   6.754   8.661  0.2248 -0.8760  0.5495
   14MOL0     O 1818   5.614   6.607   8.674  0.0904 -0.6894  0.2355
   14MOL0     C 1819   5.496   6.561   8.633  0.3757  0.8214 -0.0162
   14MOL0     C 1820   5.500   6.428   8.590 -0.1874 -0.0469  1.2654
   14MOL0     C 1821   5.377   6.365   8.567  0.5577 -1.0920 -0.1970
   14MOL0     C 1822   5.379   6.226   8.515 -0.0895  0.3589  0.6671
   14MOL0     C 1823   5.245   6.432   8.600 -0.8682 -1.4574 -0.6797
   14MOL0     C 1824   5.112   6.371   8.575 -0.2984  0.1320 -0.0315
   14MOL0     O 1825   5.012   6.429   8.640 -0.4993  0.4297  0.1620
   14MOL0     C 1826   4.903   6.359   8.676 -0.2613  0.7639  0.3977
   14MOL0     C 1827   4.909   6.248   8.753  0.2286  0.6094 -0.1409
   14MOL0     C 1828   4.788   6.183   8.786  0.1897 -0.5413  0.5029
   14MOL0     C 1829   4.664   6.221   8.727  1.1592 -0.3788 -0.4730
   14MOL0     O 1830   4.548   6.165   8.773  0.3241 -0.3566  0.5914
   14MOL0     C 1831   4.468   6.110   8.666 -0.1186 -0.0324 -0.4566
   14MOL0     C 1832   4.327   6.156   8.695 -0.2683  0.3641  0.6534
   14MOL0     C 1833   4.218   6.084   8.610  0.1416 -0.2425 -0.2578
   14MOL0     C 1834   4.158   5.966   8.681 -0.2214  0.2447  0.1440
   14MOL0     C 1835   4.211   5.839   8.628  0.3476 -0.4689 -0.6477
   14MOL0     C 1836   4.171   5.715   8.715 -0.3248 -0.0654  1.2911
   14MOL0     C 1837   4.231   5.584   8.692  0.6223  1.5216  0.7330
   14MOL0     C 1838   4.185   5.522   8.558 -0.2503  0.1078  0.3401
   14MOL0    Cl 1839   4.019   5.443   8.567 -0.1934  0.1807  0.2351
   14MOL0     C 1840   4.664   6.343   8.659 -0.1678  0.1749  0.7489
   14MOL0     C 1841   4.779   6.404   8.619 -0.2228 -0.2113 -0.2207
   14MOL0     O 1842   5.094   6.297   8.478  0.2689 -0.0394  0.3757
   14MOL0     C 1843   5.254   6.565   8.646  0.1562 -0.3932 -0.3228
   14MOL0     C 1844   5.373   6.627   8.656  0.7050 -0.3876 -0.4882
   14MOL0     N 1845   5.692   6.787   9.197  0.0696 -0.4995 -0.0625
   14MOL0     N 1846   5.749   6.766   9.306  0.1348  1.1333 -0.6619
   14MOL0     C 1847   5.678   7.283   8.798  0.3702  0.5942 -0.1312
   14MOL0     C 1848   5.594   7.363   8.714  0.7900  0.6577 -0.2665
   14MOL0     C 1849   5.363   7.576   8.427 -0.2356 -0.8657 -0.5627
   14MOL0     C 1850   5.231   7.605   8.464 -0.8616  0.0665 -0.1321
   14MOL0     C 1851   5.135   7.632   8.376  0.1422  0.3312 -0.7402
   14MOL0     C 1852   5.165   7.627   8.236 -0.3395 -0.5758 -0.0512
   14MOL0     O 1853   5.073   7.654   8.139 -0.0674  0.4091 -0.3664
   14MOL0     C 1854   4.938   7.605   8.174  0.9296  0.4255  0.2039
   14MOL0     C 1855   4.850   7.617   8.047 -0.7777 -0.8137  0.4633
   14MOL0     C 1856   4.736   7.519   8.033  0.4168  0.4951 -0.4873
   14MOL0     C 1857   4.633   7.528   8.146  0.6694 -0.0434  0.5525
   14MOL0     C 1858   4.518   7.428   8.131  0.7468  0.0467 -0.2035
   14MOL0     C 1859   4.361   7.306   8.136  0.3086 -0.1435 -0.1569
   14MOL0     C 1860   5.299   7.614   8.197  0.7584 -0.6906 -0.5355
   14MOL0     C 1861   5.401   7.588   8.285  0.0308  0.0006 -0.3617
   14MOL0     C 1862   5.544   7.583   8.230 -0.4160 -0.3162  0.8099
   14MOL0     H 1863   5.786   7.344   8.436  0.0098 -0.4107  0.3756
   14MOL0     H 1864   5.936   7.227   8.603  0.1232 -2.4484  2.8378
   14MOL0     H 1865   6.042   7.298   8.790 -0.3886  0.9279  0.9990
   14MOL0     H 1866   6.056   7.123   8.765 -2.2796 -0.0493 -1.3607
   14MOL0     H 1867   6.182   7.210   8.962  0.2825 -0.5301 -2.8051
   14MOL0     H 1868   6.047   7.293   9.035  1.2365  0.6790  1.8055
   14MOL0     H 1869   5.929   7.093   9.099  0.0720 -1.5553 -0.3819
   14MOL0     H 1870   6.069   6.993   9.047 -1.2596  0.8265 -1.5962
   14MOL0     H 1871   6.192   7.131   9.223 -0.2462 -3.1270 -0.5571
   14MOL0     H 1872   6.054   7.241   9.241  0.1715  0.4129 -5.3772
   14MOL0     H 1873   5.920   7.028   9.317 -0.6090  1.1695  2.1701
   14MOL0     H 1874   6.023   7.123   9.426  0.0102  0.7738  0.5173
   14MOL0     H 1875   6.129   6.876   9.278 -1.7236  0.5100 -1.4396
   14MOL0     H 1876   6.189   6.952   9.432  0.8695 -1.0234 -0.2852
   14MOL0     H 1877   5.936   6.862   9.500  1.0892  1.0078 -0.6595
   14MOL0     H 1878   6.106   6.784   9.521  1.3799 -0.3413 -0.1719
   14MOL0     H 1879   6.054   6.631   9.353  1.3050  1.6671  0.1901
   14MOL0     H 1880   5.916   6.635   9.452 -3.5087  0.3114 -2.3044
   14MOL0     H 1881   5.998   6.744   9.086  1.2270  0.6305  1.0259
   14MOL0     H 1882   5.784   6.931   8.935  0.0053  0.2794  0.4796
   14MOL0     H 1883   5.646   6.814   8.941 -0.5670  1.1355  3.9455
   14MOL0     H 1884   5.937   6.733   8.854  0.3319 -0.6745  3.9174
   14MOL0     H 1885   5.788   6.639   8.842 -0.6158 -0.0711 -0.0431
   14MOL0     H 1886   5.812   6.898   8.712 -2.0743 -0.1077 -1.2290
   14MOL0     H 1887   5.869   6.738   8.634 -2.2094 -0.8353 -3.0666
   14MOL0     H 1888   5.575   6.812   8.716  0.6050 -2.6027  3.0443
   14MOL0     H 1889   5.642   6.796   8.560 -1.6446  0.5966  1.2159
   14MOL0     H 1890   5.599   6.384   8.580 -0.6799 -0.7184 -4.4242
   14MOL0     H 1891   5.364   6.216   8.407  0.2494  1.5836  0.5026
   14MOL0     H 1892   5.295   6.169   8.554 -1.0969  2.1635  1.2182
   14MOL0     H 1893   5.475   6.174   8.531  0.4801 -0.5123 -3.9566
   14MOL0     H 1894   4.998   6.211   8.804  1.0550  0.1380 -1.8599
   14MOL0     H 1895   4.793   6.102   8.858  1.7662  2.7283  4.4449
   14MOL0     H 1896   4.510   6.140   8.569 -1.9651  0.2452 -1.2095
   14MOL0     H 1897   4.463   6.001   8.676 -0.3683 -0.0565 -0.7993
   14MOL0     H 1898   4.309   6.144   8.802  0.7996 -0.8750  0.7143
   14MOL0     H 1899   4.332   6.261   8.666  0.5700 -0.3672 -2.2453
   14MOL0     H 1900   4.246   6.067   8.505 -2.0706  1.3488 -1.1932
   14MOL0     H 1901   4.139   6.159   8.596  0.1369 -0.1379  0.3294
   14MOL0     H 1902   4.050   5.972   8.663 -0.4192 -0.5248  1.0090
   14MOL0     H 1903   4.170   5.978   8.789  1.2184  0.3796 -0.0063
   14MOL0     H 1904   4.153   5.829   8.535  1.0367  1.9842 -1.4061
   14MOL0     H 1905   4.318   5.841   8.607  0.3920  2.3954 -0.5206
   14MOL0     H 1906   4.062   5.707   8.715 -0.2431 -1.7079  0.1294
   14MOL0     H 1907   4.193   5.746   8.818 -0.2668 -0.2275  1.3287
   14MOL0     H 1908   4.222   5.505   8.768 -0.7805 -2.1266 -2.8712
   14MOL0     H 1909   4.334   5.608   8.665 -0.2441  2.0640 -2.4911
   14MOL0     H 1910   4.250   5.446   8.514 -0.2596  0.3741 -0.1340
   14MOL0     H 1911   4.183   5.593   8.476  3.0460 -1.8729 -1.6693
   14MOL0     H 1912   4.564   6.380   8.637  0.1932 -0.1618 -1.7490
   14MOL0     H 1913   4.773   6.489   8.552  2.2199  0.6971  0.6219
   14MOL0     H 1914   5.178   6.633   8.684  1.7906  2.0602 -1.1351
   14MOL0     H 1915   5.360   6.723   8.705 -0.1446 -0.5378 -0.4047
   14MOL0     H 1916   5.643   7.263   8.898  0.0633  1.4817 -0.0509
   14MOL0     H 1917   5.495   7.383   8.755 -0.6014 -2.7308 -1.5930
   14MOL0     H 1918   5.195   7.583   8.564 -0.3202 -2.9930 -0.5077
   14MOL0     H 1919   5.041   7.667   8.417  1.1534  1.2362  0.9262
   14MOL0     H 1920   4.942   7.500   8.206  1.7575 -0.0216 -1.2671
   14MOL0     H 1921   4.899   7.665   8.257 -0.6257  2.5767 -1.9452
   14MOL0     H 1922   4.910   7.576   7.966 -1.0781 -0.8589  0.2613
   14MOL0     H 1923   4.818   7.719   8.025  1.3891 -0.4705 -1.5670
   14MOL0     H 1924   4.683   7.529   7.938 -1.2855 -4.2159 -0.3032
   14MOL0     H 1925   4.776   7.418   8.047  0.1851  0.0495 -2.6542
   14MOL0     H 1926   4.598   7.631   8.152  2.2676  0.5499 -0.0646
   14MOL0     H 1927   4.681   7.501   8.240  3.9524  0.8746 -0.7284
   14MOL0     H 1928   4.274   7.246   8.151 -0.6832  1.3065  0.1251
   14MOL0     H 1929   5.316   7.626   8.091 -2.1729  2.9431 -0.8373
   14MOL0     H 1930   5.610   7.498   8.250 -0.1833 -0.8874 -1.9821
   14MOL0     H 1931   5.547   7.603   8.123 -1.2572  1.5647  1.1028
   14MOL0     H 1932   5.589   7.674   8.271  0.5887  1.1976 -3.2145
   15MOL0     O 1933   9.167   7.878   5.925  0.4852 -0.2988  0.1000
   15MOL0     C 1934   9.222   7.767   5.924 -0.5166 -0.6004  1.0313
   15MOL0     O 1935   9.210   7.670   6.016 -0.2896  0.4617 -0.1850
   15MOL0     C 1936   9.143   7.699   6.128  0.7151  0.5149 -1.0493
   15MOL0     C 1937   9.194   7.638   6.244  0.6768 -0.5973 -0.0782
   15MOL0     C 1938   9.128   7.632   6.369  0.5073  0.2589  0.9102
   15MOL0     C 1939   9.014   7.709   6.383  0.6763  0.4745 -0.1272
   15MOL0     O 1940   8.939   7.702   6.498 -0.1504 -0.1092 -0.8008
   15MOL0     C 1941   8.808   7.649   6.480 -1.3396 -0.5316  0.7668
   15MOL0     C 1942   8.712   7.710   6.580  0.2793 -0.6974  0.6302
   15MOL0     C 1943   8.731   7.662   6.726  0.1988  0.9763  0.4663
   15MOL0     C 1944   8.613   7.723   6.804  0.0710 -0.4876 -1.1729
   15MOL0     C 1945   8.614   7.679   6.959  0.1306  0.7363 -0.2393
   15MOL0     C 1946   8.483   7.715   7.027  0.2863 -0.1916  0.2192
   15MOL0     C 1947   8.492   7.694   7.174 -0.4830  0.6345 -0.6512
   15MOL0     C 1948   8.366   7.724   7.249  0.4236 -0.0638  0.0840
   15MOL0     N 1949   8.392   7.724   7.395 -0.4618 -0.1174 -0.5004
   15MOL0     C 1950   8.382   7.620   7.477 -0.6828  0.2277 -0.5851
   15MOL0     C 1951   8.405   7.680   7.602 -0.5770  0.1601  0.0505
   15MOL0     C 1952   8.430   7.612   7.737  0.7191  0.4261  1.2273
   15MOL0     C 1953   8.559   7.650   7.803 -0.0404  0.9347 -0.6362
   15MOL0     C 1954   8.603   7.536   7.905  0.2966  0.5385 -0.2282
   15MOL0     C 1955   8.717   7.556   8.000 -0.1328  0.0386  0.3649
   15MOL0     O 1956   8.718   7.684   8.072 -0.0689  0.1870  0.3716
   15MOL0     C 1957   8.701   7.675   8.208  0.3727 -0.6866 -0.5883
   15MOL0     C 1958   8.610   7.589   8.257 -0.1511  0.2082 -0.4043
   15MOL0     C 1959   8.590   7.586   8.395  0.3558 -0.0403 -0.6337
   15MOL0     C 1960   8.470   7.499   8.411  0.8163  0.9181 -0.1611
   15MOL0     C 1961   8.659   7.670   8.483  0.2633  0.0339 -0.2183
   15MOL0     C 1962   8.652   7.670   8.635 -0.7248  0.1307  1.1613
   15MOL0     O 1963   8.728   7.761   8.709 -1.0723 -0.4825  0.7677
   15MOL0     C 1964   8.715   7.769   8.847  0.6587  0.1475 -0.4856
   15MOL0     C 1965   8.665   7.674   8.945  0.0904 -0.6786  0.5309
   15MOL0     C 1966   8.673   7.718   9.075 -0.6502  0.9831  0.7023
   15MOL0     C 1967   8.736   7.839   9.122  0.3513  0.1827 -0.0029
   15MOL0     O 1968   8.753   7.857   9.257 -1.0611  0.3248  0.0193
   15MOL0     C 1969   8.814   7.745   9.333 -0.0249 -0.4168 -0.3260
   15MOL0     C 1970   8.744   7.701   9.462  0.1900 -0.3539  0.3536
   15MOL0     C 1971   8.791   7.777   9.585  0.2192 -0.0820 -0.5970
   15MOL0     C 1972   8.777   7.929   9.567  0.2503 -0.3901  0.5103
   15MOL0     C 1973   8.794   8.005   9.701  0.0011 -1.4623  0.9295
   15MOL0     C 1974   8.669   8.015   9.780  0.5914  0.7703  1.4677
   15MOL0     C 1975   8.706   8.101   9.899  0.1831  1.3048 -0.9468
   15MOL0     C 1976   8.611   8.088  10.015  0.0384 -0.4396 -0.5208
   15MOL0    Cl 1977   8.594   7.927  10.079 -0.1674  0.0500  0.1509
   15MOL0     C 1978   8.776   7.928   9.027  0.1648  0.0216  0.2779
   15MOL0     C 1979   8.769   7.888   8.896  0.5130 -0.7761  0.1675
   15MOL0     O 1980   8.585   7.580   8.676 -0.3417 -0.2714 -0.7765
   15MOL0     C 1981   8.736   7.770   8.427 -0.8418  0.3783  0.0664
   15MOL0     C 1982   8.757   7.764   8.289 -0.3257  0.1027 -0.6995
   15MOL0     N 1983   8.423   7.815   7.587  0.0953 -0.1364  0.4226
   15MOL0     N 1984   8.402   7.836   7.462 -0.4850 -0.6138  0.2885
   15MOL0     C 1985   8.966   7.780   6.268  0.6978 -0.0597  0.2802
   15MOL0     C 1986   9.021   7.768   6.140 -0.4453 -0.3398 -0.2497
   15MOL0     C 1987   9.317   7.738   5.809  0.6821  0.1043  0.9127
   15MOL0     C 1988   9.405   7.627   5.819  0.5278  0.2641  0.0198
   15MOL0     C 1989   9.514   7.605   5.741 -0.5079  0.2778 -0.7434
   15MOL0     C 1990   9.529   7.677   5.626 -0.5158  0.0532 -0.3004
   15MOL0     O 1991   9.648   7.648   5.555 -0.0416  0.3999  0.5743
   15MOL0     C 1992   9.703   7.766   5.486  1.1528 -0.2410  0.5806
   15MOL0     C 1993   9.837   7.715   5.462 -0.7942  0.9242 -0.1069
   15MOL0     C 1994   9.924   7.829   5.393  0.1209  0.8631  0.0680
   15MOL0     C 1995  10.057   7.769   5.343 -0.3694 -0.4153 -0.3592
   15MOL0     C 1996  10.122   7.670   5.423 -0.4563 -0.3162 -1.0677
   15MOL0     C 1997  10.155   7.579   5.491  1.1027 -1.2384 -0.1798
   15MOL0     C 1998   9.430   7.776   5.595  0.1323  0.5812 -0.7061
   15MOL0     C 1999   9.325   7.811   5.682 -0.4124  0.3224  0.1640
   15MOL0     C 2000   9.235   7.933   5.647 -0.1444  0.4943 -0.5678
   15MOL0     H 2001   9.280   7.571   6.237 -0.5321 -2.0426 -2.2512
   15MOL0     H 2002   9.168   7.571   6.449  0.3047  0.4713  1.1757
   15MOL0     H 2003   8.807   7.540   6.473 -3.2697 -0.5021 -0.1301
   15MOL0     H 2004   8.765   7.679   6.384  1.2178  2.4184  0.3696
   15MOL0     H 2005   8.715   7.819   6.570  0.6982 -0.8835 -1.9578
   15MOL0     H 2006   8.611   7.676   6.557  1.1169 -2.6501 -0.4388
   15MOL0     H 2007   8.730   7.554   6.738 -2.5132  1.1482  2.7242
   15MOL0     H 2008   8.822   7.704   6.770 -0.2600  0.9228  1.4849
   15MOL0     H 2009   8.613   7.832   6.798  1.3504 -0.4537 -0.8047
   15MOL0     H 2010   8.517   7.679   6.775 -0.1874 -2.1543  1.7527
   15MOL0     H 2011   8.696   7.734   7.006 -0.3040  0.9477  0.2912
   15MOL0     H 2012   8.640   7.574   6.976  2.6583  1.4330  0.6797
   15MOL0     H 2013   8.454   7.820   7.015 -0.3909 -0.1070  2.1776
   15MOL0     H 2014   8.402   7.658   6.983 -0.6392 -0.4753  2.1899
   15MOL0     H 2015   8.569   7.752   7.225  1.7436 -2.0895 -0.6333
   15MOL0     H 2016   8.513   7.590   7.199  3.6262  1.9048  2.1664
   15MOL0     H 2017   8.341   7.826   7.218  0.3872 -0.0342  0.2089
   15MOL0     H 2018   8.290   7.651   7.218  1.2412 -0.4544 -1.0480
   15MOL0     H 2019   8.351   7.517   7.461  0.1206 -0.2805  0.8808
   15MOL0     H 2020   8.426   7.504   7.720 -2.5961  0.6937 -0.5202
   15MOL0     H 2021   8.341   7.636   7.797  0.9184  2.9211  0.6131
   15MOL0     H 2022   8.639   7.668   7.731  0.4554 -1.1718 -0.6692
   15MOL0     H 2023   8.540   7.744   7.856 -2.3864  0.9281 -1.3611
   15MOL0     H 2024   8.519   7.509   7.971 -0.3027 -0.9250 -1.5197
   15MOL0     H 2025   8.614   7.445   7.845 -1.5523 -1.0685  1.6947
   15MOL0     H 2026   8.721   7.473   8.072 -3.0816  2.0414  3.0905
   15MOL0     H 2027   8.803   7.548   7.933 -0.8869  2.7041 -1.0335
   15MOL0     H 2028   8.555   7.534   8.181 -1.0376  0.1222  0.2870
   15MOL0     H 2029   8.485   7.452   8.509 -0.1981  2.4041  0.7442
   15MOL0     H 2030   8.456   7.415   8.342 -0.3870  1.2029 -0.2882
   15MOL0     H 2031   8.382   7.564   8.408 -0.3043 -0.3907  1.9020
   15MOL0     H 2032   8.618   7.580   8.920  1.1297 -1.3394  1.0323
   15MOL0     H 2033   8.629   7.646   9.143  1.7715 -3.3570 -1.8652
   15MOL0     H 2034   8.835   7.659   9.269  0.9359 -1.4564  1.3043
   15MOL0     H 2035   8.913   7.778   9.366  1.0842 -2.3003 -1.5948
   15MOL0     H 2036   8.636   7.718   9.455  0.3433 -0.0982 -3.8851
   15MOL0     H 2037   8.767   7.595   9.476 -0.4870 -0.2614  2.6548
   15MOL0     H 2038   8.890   7.737   9.607 -0.8499 -2.0058  1.0238
   15MOL0     H 2039   8.729   7.748   9.670  1.8707  0.0191  0.6776
   15MOL0     H 2040   8.677   7.952   9.530  0.6861 -1.2215 -1.3002
   15MOL0     H 2041   8.850   7.972   9.498 -0.1319  1.3178  1.1206
   15MOL0     H 2042   8.866   7.946   9.759  0.6921 -1.5568  0.0055
   15MOL0     H 2043   8.842   8.101   9.683  1.7252 -1.7114  3.5406
   15MOL0     H 2044   8.642   7.912   9.804 -3.1100  0.2720 -3.2982
   15MOL0     H 2045   8.588   8.069   9.730  1.2210  1.7259  1.4486
   15MOL0     H 2046   8.703   8.206   9.870 -3.1611  1.2821 -1.0166
   15MOL0     H 2047   8.811   8.085   9.925  0.3783 -0.7296 -2.7839
   15MOL0     H 2048   8.515   8.125   9.977  0.1228 -1.7132 -2.0310
   15MOL0     H 2049   8.638   8.153  10.100  0.2018 -1.2572  0.0638
   15MOL0     H 2050   8.825   8.023   9.043 -0.0559  0.8639 -3.2794
   15MOL0     H 2051   8.814   7.962   8.829  2.9367  0.2984  2.7596
   15MOL0     H 2052   8.796   7.841   8.483  2.3201 -1.4596 -0.6958
   15MOL0     H 2053   8.813   7.844   8.242 -1.0365  1.8711  1.3256
   15MOL0     H 2054   8.882   7.849   6.273  1.9133  1.5287 -0.3902
   15MOL0     H 2055   8.979   7.826   6.059 -2.4214  0.5551  1.3270
   15MOL0     H 2056   9.404   7.562   5.906  1.9166 -0.6397 -0.6055
   15MOL0     H 2057   9.582   7.522   5.757  0.9412  1.6230  0.5570
   15MOL0     H 2058   9.638   7.791   5.402  2.0644  1.8850  0.4592
   15MOL0     H 2059   9.719   7.853   5.550  1.7056  1.3118 -1.5748
   15MOL0     H 2060   9.831   7.626   5.399 -1.9672 -0.7691  2.2399
   15MOL0     H 2061   9.877   7.683   5.559 -0.8942 -2.6476 -1.1201
   15MOL0     H 2062   9.874   7.878   5.308  0.4222  0.3338 -0.4279
   15MOL0     H 2063   9.936   7.905   5.470  0.1071  3.0005 -1.9308
   15MOL0     H 2064  10.131   7.850   5.340 -0.0308 -0.6339  1.2661
   15MOL0     H 2065  10.026   7.732   5.245 -4.2598  2.2937 -0.3566
   15MOL0     H 2066  10.177   7.495   5.554  2.0734  0.6395  2.1293
   15MOL0     H 2067   9.450   7.842   5.512 -3.2064  0.3783 -1.8161
   15MOL0     H 2068   9.128   7.914   5.660  0.4886 -2.0072  2.2051
   15MOL0     H 2069   9.253   8.018   5.713 -1.0834 -0.7895  1.4568
   15MOL0     H 2070   9.256   7.960   5.544 -1.6187 -2.1522 -1.6735
   16MOL0     O 2071  10.892   6.887   8.933  0.5114  0.2443 -0.2881
   16MOL0     C 2072  10.883   6.804   8.842  0.1560 -0.5061  0.1760
   16MOL0     O 2073  10.805   6.825   8.732  0.1872 -0.0029  0.1694
   16MOL0     C 2074  10.726   6.939   8.738 -1.1348  0.7281  0.0008
   16MOL0     C 2075  10.604   6.932   8.804  0.0133 -0.1235 -0.1269
   16MOL0     C 2076  10.517   7.042   8.796  0.1486  0.7933 -0.6017
   16MOL0     C 2077  10.554   7.159   8.721 -0.1463  0.4016 -0.2622
   16MOL0     O 2078  10.479   7.278   8.704  0.7257  0.0465  0.7702
   16MOL0     C 2079  10.369   7.299   8.792 -0.9091  0.2025 -0.1442
   16MOL0     C 2080  10.290   7.418   8.732 -0.4005 -0.2184  0.3886
   16MOL0     C 2081  10.364   7.551   8.717 -0.8822 -0.2756  0.5009
   16MOL0     C 2082  10.272   7.665   8.696 -0.1401 -0.4127  0.3314
   16MOL0     C 2083  10.357   7.786   8.639  0.6851 -0.4238  0.2725
   16MOL0     C 2084  10.361   7.792   8.480 -0.5872 -0.4343 -0.2142
   16MOL0     C 2085  10.395   7.938   8.446  0.4431 -0.9030 -0.1883
   16MOL0     C 2086  10.411   7.970   8.295 -0.8532  0.3351  0.5630
   16MOL0     N 2087  10.440   8.109   8.265 -0.4796 -0.4175  0.0954
   16MOL0     C 2088  10.358   8.220   8.303 -0.1038  0.6868 -0.8668
   16MOL0     C 2089  10.404   8.322   8.227  0.8019 -0.3583 -0.0722
   16MOL0     C 2090  10.358   8.468   8.224  0.4359 -0.5131  0.6311
   16MOL0     C 2091  10.256   8.479   8.111  0.5850  0.4601 -0.7694
   16MOL0     C 2092  10.198   8.623   8.104 -0.2898 -0.0191 -0.0118
   16MOL0     C 2093  10.295   8.732   8.048  0.1517 -0.2277  0.5570
   16MOL0     O 2094  10.332   8.703   7.906  0.6056  0.0017 -1.0218
   16MOL0     C 2095  10.404   8.798   7.845 -0.2384 -0.9985  0.9849
   16MOL0     C 2096  10.342   8.911   7.788 -0.2340 -0.5027  0.0969
   16MOL0     C 2097  10.415   9.022   7.741  0.5073  0.5978  0.4307
   16MOL0     C 2098  10.351   9.154   7.705 -0.8563 -0.6091  0.6383
   16MOL0     C 2099  10.554   9.006   7.738 -0.0339 -0.8907  0.2111
   16MOL0     C 2100  10.653   9.106   7.685  0.5377  0.6043 -0.1088
   16MOL0     O 2101  10.737   9.054   7.598  0.1927 -0.0756 -0.2692
   16MOL0     C 2102  10.847   9.125   7.545 -0.3553 -0.3988 -0.0562
   16MOL0     C 2103  10.842   9.176   7.411  0.2461 -0.5680  0.1217
   16MOL0     C 2104  10.944   9.264   7.356 -0.0557  0.0417 -0.0014
   16MOL0     C 2105  11.048   9.304   7.445 -0.3478 -0.7109  0.0166
   16MOL0     O 2106  11.139   9.398   7.414  0.0583  0.0073  0.2625
   16MOL0     C 2107  11.118   9.497   7.312  0.2682  0.4065 -0.5579
   16MOL0     C 2108  11.210   9.624   7.330  0.7141  0.6558 -0.6665
   16MOL0     C 2109  11.349   9.598   7.313 -0.6989  0.4428 -0.8850
   16MOL0     C 2110  11.422   9.727   7.328  0.8532 -0.2420  0.0733
   16MOL0     C 2111  11.571   9.703   7.307  1.1534  0.5153 -0.3817
   16MOL0     C 2112  11.644   9.821   7.352 -0.1618 -0.1354  0.5909
   16MOL0     C 2113  11.796   9.791   7.362 -0.0281 -0.7194 -0.4444
   16MOL0     C 2114  11.853   9.759   7.220 -0.8021 -0.5734  0.1498
   16MOL0    Cl 2115  12.022   9.809   7.210 -0.2888  0.3972 -0.4083
   16MOL0     C 2116  11.042   9.266   7.576 -0.3896 -1.1803  1.3151
   16MOL0     C 2117  10.950   9.172   7.624 -0.7462  0.6554 -0.1166
   16MOL0     O 2118  10.652   9.229   7.717  0.4217  0.1075  0.3848
   16MOL0     C 2119  10.613   8.890   7.787 -0.0474 -0.0376 -0.6320
   16MOL0     C 2120  10.539   8.786   7.851 -0.8383 -0.5725  0.5382
   16MOL0     N 2121  10.497   8.276   8.139  0.1978  0.1176 -0.1003
   16MOL0     N 2122  10.517   8.148   8.156 -0.4287 -0.8063  0.4920
   16MOL0     C 2123  10.670   7.159   8.657  0.1372 -0.4589  0.0798
   16MOL0     C 2124  10.763   7.055   8.672  0.5958  0.5088  0.6885
   16MOL0     C 2125  10.966   6.691   8.835  0.8256 -0.3171 -0.6731
   16MOL0     C 2126  10.973   6.629   8.708 -0.8092  0.1184 -0.0396
   16MOL0     C 2127  11.062   6.524   8.688  0.1299 -0.0977  0.5784
   16MOL0     C 2128  11.140   6.469   8.792  0.2423 -0.6890  0.0653
   16MOL0     O 2129  11.223   6.367   8.764  0.7975 -0.6620  0.1747
   16MOL0     C 2130  11.317   6.389   8.660 -0.1139  0.1584 -0.1061
   16MOL0     C 2131  11.460   6.354   8.703 -0.5218 -0.6975 -0.4422
   16MOL0     C 2132  11.489   6.213   8.759 -0.1653  0.5444  0.5354
   16MOL0     C 2133  11.469   6.100   8.650 -0.3910  0.3408 -0.8387
   16MOL0     C 2134  11.598   6.083   8.585 -0.6812 -0.3412 -0.3238
   16MOL0     C 2135  11.711   6.079   8.530  0.1262  1.0358  0.5846
   16MOL0     C 2136  11.118   6.519   8.919 -0.3618 -0.3798 -0.0742
   16MOL0     C 2137  11.035   6.631   8.940 -1.1783  0.8560 -0.5108
   16MOL0     C 2138  11.051   6.688   9.073  0.6094  0.1749  0.0373
   16MOL0     H 2139  10.586   6.847   8.869 -0.7891 -0.9943 -1.4470
   16MOL0     H 2140  10.425   7.043   8.853  0.6733 -3.1498  0.6257
   16MOL0     H 2141  10.404   7.330   8.891  2.2368 -1.5473 -0.5745
   16MOL0     H 2142  10.301   7.213   8.799 -2.4217  1.3345 -0.3359
   16MOL0     H 2143  10.257   7.383   8.634  0.1193  3.9159 -1.4848
   16MOL0     H 2144  10.199   7.430   8.791 -2.2904 -0.0544 -2.3801
   16MOL0     H 2145  10.436   7.566   8.798 -2.2344 -0.1528  1.7107
   16MOL0     H 2146  10.420   7.536   8.624 -0.7689  0.9123  0.3589
   16MOL0     H 2147  10.191   7.639   8.627  1.0192  0.2774 -1.3588
   16MOL0     H 2148  10.227   7.670   8.796 -0.2243 -0.4824  0.2969
   16MOL0     H 2149  10.463   7.769   8.659  1.0977  1.6311 -0.0072
   16MOL0     H 2150  10.332   7.887   8.672  1.6478  0.4696 -1.5662
   16MOL0     H 2151  10.434   7.722   8.439 -0.7306 -0.0722 -1.1100
   16MOL0     H 2152  10.266   7.754   8.441 -2.6358  0.8149  3.1394
   16MOL0     H 2153  10.484   7.980   8.494 -0.8632  0.5758  1.0829
   16MOL0     H 2154  10.312   7.997   8.488 -0.2862 -1.5569 -0.6938
   16MOL0     H 2155  10.498   7.914   8.258 -1.2282  0.1143  0.0051
   16MOL0     H 2156  10.324   7.929   8.244  0.4636  0.2732 -1.8165
   16MOL0     H 2157  10.285   8.221   8.382 -0.7235 -2.5515 -1.2610
   16MOL0     H 2158  10.439   8.538   8.200 -1.8869  2.3985  0.6941
   16MOL0     H 2159  10.322   8.479   8.327 -0.0911 -2.9444  0.7748
   16MOL0     H 2160  10.311   8.453   8.020  1.0182  0.2751 -0.4603
   16MOL0     H 2161  10.177   8.403   8.122  0.0977  1.0348 -0.2507
   16MOL0     H 2162  10.101   8.612   8.055 -0.2297 -1.5267  0.1690
   16MOL0     H 2163  10.173   8.648   8.208 -0.7042  0.1915 -0.1565
   16MOL0     H 2164  10.255   8.832   8.066 -2.9978 -1.1337 -0.6916
   16MOL0     H 2165  10.386   8.737   8.109  1.2324  1.3321 -1.0835
   16MOL0     H 2166  10.233   8.906   7.779 -0.1535 -0.4815 -1.0156
   16MOL0     H 2167  10.250   9.162   7.746 -0.3621 -0.1038  1.8000
   16MOL0     H 2168  10.346   9.172   7.597 -1.1459  0.7108  0.8467
   16MOL0     H 2169  10.402   9.244   7.742 -0.4645 -1.0530  1.1854
   16MOL0     H 2170  10.763   9.147   7.343  0.8526  1.0879 -1.3849
   16MOL0     H 2171  10.956   9.307   7.258  1.3129  0.4919  0.3430
   16MOL0     H 2172  11.136   9.458   7.212 -0.1358 -0.4903 -0.2949
   16MOL0     H 2173  11.014   9.531   7.317  0.4503  0.8233  1.8810
   16MOL0     H 2174  11.178   9.701   7.258 -3.3147  1.3653  1.5559
   16MOL0     H 2175  11.199   9.665   7.431  0.3349 -0.7726 -0.1021
   16MOL0     H 2176  11.363   9.573   7.207 -0.8898 -0.6459 -0.6705
   16MOL0     H 2177  11.373   9.509   7.372  1.8378  1.3751 -0.3854
   16MOL0     H 2178  11.406   9.771   7.427  0.5706 -1.0459  0.3944
   16MOL0     H 2179  11.388   9.791   7.245  1.4402 -0.5938 -0.4497
   16MOL0     H 2180  11.589   9.608   7.359 -0.6226 -0.6871 -1.8293
   16MOL0     H 2181  11.582   9.690   7.199  0.0793 -0.9095 -0.3495
   16MOL0     H 2182  11.603   9.852   7.448 -1.6701  1.0792 -0.3845
   16MOL0     H 2183  11.625   9.897   7.275 -0.8987  0.4486  1.3314
   16MOL0     H 2184  11.810   9.715   7.439 -0.6357 -0.7333 -0.3396
   16MOL0     H 2185  11.844   9.879   7.406  1.0579 -2.3071  1.6975
   16MOL0     H 2186  11.814   9.819   7.139  2.3527  2.9705  0.9635
   16MOL0     H 2187  11.845   9.652   7.199 -0.1764 -0.5954 -0.0159
   16MOL0     H 2188  11.118   9.313   7.639  1.3790 -0.3087 -1.3077
   16MOL0     H 2189  10.960   9.141   7.727 -1.3874 -0.2810 -0.3124
   16MOL0     H 2190  10.721   8.878   7.791 -0.1614 -0.8967  2.2814
   16MOL0     H 2191  10.583   8.698   7.897 -0.4823 -0.1387  1.0392
   16MOL0     H 2192  10.708   7.251   8.614 -1.4727 -0.5755 -1.7455
   16MOL0     H 2193  10.859   7.065   8.622  0.6604  2.1477  1.1078
   16MOL0     H 2194  10.929   6.673   8.619 -0.3857  3.3717  1.2311
   16MOL0     H 2195  11.079   6.503   8.583 -1.7549 -1.1509  0.4312
   16MOL0     H 2196  11.276   6.329   8.579  0.8805 -0.8419  0.1211
   16MOL0     H 2197  11.322   6.496   8.636 -4.7045  0.7488  0.5944
   16MOL0     H 2198  11.493   6.423   8.781 -0.9348 -1.1392  0.1358
   16MOL0     H 2199  11.530   6.368   8.620  1.5155 -2.4442  0.8685
   16MOL0     H 2200  11.586   6.199   8.809  1.5905  0.2024 -2.6694
   16MOL0     H 2201  11.417   6.197   8.839  2.2620  1.1450  2.9661
   16MOL0     H 2202  11.387   6.129   8.583 -0.7879  0.1043 -0.4598
   16MOL0     H 2203  11.450   6.004   8.700 -2.2185  0.6054 -0.9390
   16MOL0     H 2204  11.804   6.081   8.478  0.0914 -2.4090  0.1779
   16MOL0     H 2205  11.166   6.467   9.001 -2.3338  2.3573  3.0627
   16MOL0     H 2206  11.114   6.631   9.142 -0.0369 -1.6457 -0.8004
   16MOL0     H 2207  11.083   6.792   9.068  1.3394 -0.0740 -1.0173
   16MOL0     H 2208  10.955   6.677   9.124  1.8611 -2.1381  2.0583
   17MOL0     O 2209   8.990   7.893  11.443 -0.4560  0.2666 -0.6852
   17MOL0     C 2210   8.956   7.858  11.556  0.6143  0.0966 -0.8894
   17MOL0     O 2211   8.924   7.941  11.658 -0.4301  0.2999 -0.3918
   17MOL0     C 2212   8.923   8.075  11.647  0.4295 -0.2600 -0.3993
   17MOL0     C 2213   9.034   8.151  11.607 -0.7062 -0.1431  0.6140
   17MOL0     C 2214   9.029   8.295  11.600  0.1915  0.1467 -0.2500
   17MOL0     C 2215   8.915   8.366  11.638 -0.8585  0.5686  0.2933
   17MOL0     O 2216   8.920   8.502  11.617  1.5264  0.2776  0.8872
   17MOL0     C 2217   8.835   8.593  11.695 -1.3553  0.2001  0.2458
   17MOL0     C 2218   8.918   8.721  11.734 -0.2509 -0.5623 -0.0627
   17MOL0     C 2219   9.026   8.785  11.653  0.6969  0.1129 -0.4803
   17MOL0     C 2220   9.001   8.820  11.505  0.9445  0.6518 -0.1547
   17MOL0     C 2221   8.902   8.937  11.489 -0.0960 -0.1424 -0.1071
   17MOL0     C 2222   8.839   8.947  11.349  0.0245 -0.3853 -0.4923
   17MOL0     C 2223   8.938   8.962  11.225  0.2393  0.3919  0.0600
   17MOL0     C 2224   8.875   9.016  11.093  0.6363 -0.0449 -0.3624
   17MOL0     N 2225   8.753   8.955  11.041  0.4444  0.1595  0.4247
   17MOL0     C 2226   8.716   8.829  11.009  0.1182  0.0694  0.1978
   17MOL0     C 2227   8.584   8.838  10.969  0.6411  0.7175  0.3657
   17MOL0     C 2228   8.504   8.713  10.929 -0.1402 -0.0966 -0.1614
   17MOL0     C 2229   8.412   8.735  10.812 -0.4188 -0.4928  0.3628
   17MOL0     C 2230   8.481   8.801  10.691 -0.4372  0.5084  0.1996
   17MOL0     C 2231   8.414   8.768  10.552 -0.0850 -0.1249 -0.5453
   17MOL0     O 2232   8.294   8.837  10.519 -0.7676 -0.0848  0.0288
   17MOL0     C 2233   8.325   8.940  10.437  0.2887 -0.2893  0.3932
   17MOL0     C 2234   8.296   8.926  10.304  0.0009  0.6927  0.2951
   17MOL0     C 2235   8.310   9.029  10.208  0.4955 -0.2284  1.2154
   17MOL0     C 2236   8.253   9.004  10.070  0.1655 -1.1364  0.4691
   17MOL0     C 2237   8.367   9.149  10.236  0.0425 -0.1571  0.4184
   17MOL0     C 2238   8.417   9.238  10.136 -1.2651  0.1509 -0.4270
   17MOL0     O 2239   8.527   9.309  10.182 -0.6530  0.2926 -0.1042
   17MOL0     C 2240   8.593   9.417  10.117 -0.2425 -0.4109 -0.0672
   17MOL0     C 2241   8.559   9.488   9.999  0.3205  0.7769  0.3621
   17MOL0     C 2242   8.641   9.596   9.958 -0.4685 -0.0304  0.6287
   17MOL0     C 2243   8.755   9.637  10.021  0.9278  0.2054 -0.2425
   17MOL0     O 2244   8.838   9.724   9.970  0.6627  0.0510  0.4632
   17MOL0     C 2245   8.846   9.730   9.829 -0.6221 -0.7049  0.2656
   17MOL0     C 2246   8.949   9.835   9.793 -0.1835  0.1246 -0.9122
   17MOL0     C 2247   9.093   9.778   9.838  0.9886 -0.6157  0.2290
   17MOL0     C 2248   9.114   9.634   9.806  0.5228  0.6526  0.3188
   17MOL0     C 2249   9.269   9.616   9.788  0.2196  0.3508 -0.2915
   17MOL0     C 2250   9.340   9.613   9.925  0.7262 -0.4622 -1.1069
   17MOL0     C 2251   9.356   9.481   9.990 -0.7105 -0.6553 -1.0403
   17MOL0     C 2252   9.405   9.499  10.133  0.8889 -1.0280 -0.3191
   17MOL0    Cl 2253   9.412   9.322  10.215  0.2978  0.3073  0.1388
   17MOL0     C 2254   8.787   9.574  10.133  0.0557 -0.5922  0.8214
   17MOL0     C 2255   8.716   9.463  10.174 -1.5066  0.1795  1.1603
   17MOL0     O 2256   8.360   9.257  10.027  0.5355  0.2685  0.7985
   17MOL0     C 2257   8.403   9.166  10.369  1.0447 -0.1697  0.0184
   17MOL0     C 2258   8.386   9.066  10.469  0.5392 -0.3649  0.6424
   17MOL0     N 2259   8.543   8.973  10.981  0.1433 -0.5357  0.4829
   17MOL0     N 2260   8.647   9.039  11.029  0.8689 -0.2630 -0.6724
   17MOL0     C 2261   8.805   8.295  11.685  0.2841  0.1373  0.5251
   17MOL0     C 2262   8.812   8.150  11.689 -0.7784  0.6141 -0.0403
   17MOL0     C 2263   8.939   7.708  11.591 -0.3885 -0.1963 -0.6161
   17MOL0     C 2264   8.838   7.675  11.687 -0.7076  0.0960 -0.2645
   17MOL0     C 2265   8.828   7.537  11.730  0.0232 -0.9770 -0.1280
   17MOL0     C 2266   8.909   7.445  11.675  0.6706 -0.6948  0.7174
   17MOL0     O 2267   8.921   7.317  11.713  0.8555  0.1610 -0.5058
   17MOL0     C 2268   8.857   7.284  11.842 -0.6020  0.5760 -0.4095
   17MOL0     C 2269   8.907   7.140  11.877 -0.3574 -0.2929  0.1328
   17MOL0     C 2270   8.875   7.045  11.759  0.1514 -0.4076  0.4166
   17MOL0     C 2271   8.863   6.900  11.805  0.2487 -0.1896  0.1337
   17MOL0     C 2272   8.827   6.816  11.683  0.6000 -0.6176  0.2024
   17MOL0     C 2273   8.803   6.746  11.585 -0.6622 -0.1630  0.1748
   17MOL0     C 2274   9.005   7.479  11.583  0.4839  0.0808  0.2643
   17MOL0     C 2275   9.023   7.614  11.535  0.0985  0.9896  0.2770
   17MOL0     C 2276   9.154   7.636  11.460  0.1740 -0.0335  0.8126
   17MOL0     H 2277   9.119   8.092  11.576 -0.3121  0.0215  1.3613
   17MOL0     H 2278   9.106   8.358  11.557  0.7808 -0.7054 -0.4678
   17MOL0     H 2279   8.798   8.554  11.790 -1.4455 -0.6680 -0.1434
   17MOL0     H 2280   8.748   8.616  11.633 -2.1412 -3.9473 -0.4766
   17MOL0     H 2281   8.847   8.793  11.775  0.6821  0.8950 -0.9184
   17MOL0     H 2282   8.969   8.687  11.825 -2.1449 -2.5679  0.3479
   17MOL0     H 2283   9.050   8.882  11.699 -0.6254  0.2989 -0.1240
   17MOL0     H 2284   9.116   8.725  11.656 -0.6723 -1.9914  1.5962
   17MOL0     H 2285   9.094   8.838  11.451  1.3861  2.0174  0.9940
   17MOL0     H 2286   8.957   8.731  11.460  0.8865 -0.7295  2.4348
   17MOL0     H 2287   8.966   9.026  11.498  1.6836 -1.4624  0.8125
   17MOL0     H 2288   8.824   8.931  11.566  0.8344 -1.2042  0.7833
   17MOL0     H 2289   8.783   8.856  11.324  1.7151 -2.4480  2.6717
   17MOL0     H 2290   8.766   9.028  11.354  1.0670  0.5993 -0.7906
   17MOL0     H 2291   8.962   8.859  11.197  0.0675 -0.6119  3.1963
   17MOL0     H 2292   9.028   9.015  11.258 -0.4625  0.0620  2.7369
   17MOL0     H 2293   8.864   9.122  11.117  2.5342  0.2007 -0.3725
   17MOL0     H 2294   8.958   9.017  11.021  0.5424 -0.6474 -0.4788
   17MOL0     H 2295   8.773   8.738  11.023  1.0369  0.3925 -1.3272
   17MOL0     H 2296   8.448   8.668  11.011 -2.4743  4.5479  1.1449
   17MOL0     H 2297   8.570   8.632  10.897  1.1542  1.0607 -0.5403
   17MOL0     H 2298   8.373   8.634  10.792  2.8036 -1.9242  0.7941
   17MOL0     H 2299   8.324   8.795  10.839 -1.4295 -1.0830 -1.4117
   17MOL0     H 2300   8.495   8.909  10.706 -0.4907  0.1691  3.3236
   17MOL0     H 2301   8.582   8.759  10.687  0.3443  1.7508  3.4067
   17MOL0     H 2302   8.488   8.784  10.473  0.4378 -0.0401 -0.0486
   17MOL0     H 2303   8.390   8.663  10.535  0.6608 -0.1975 -1.1951
   17MOL0     H 2304   8.248   8.837  10.264  1.8961 -1.0710  1.7915
   17MOL0     H 2305   8.179   8.924  10.080 -3.1922  1.8525  1.2293
   17MOL0     H 2306   8.321   8.989   9.985 -1.4975  1.4057 -1.4650
   17MOL0     H 2307   8.186   9.086  10.045  1.7318 -0.4673 -1.9208
   17MOL0     H 2308   8.465   9.467   9.950  1.0087  3.0289 -2.1374
   17MOL0     H 2309   8.606   9.650   9.871 -1.6041  0.4570  1.3674
   17MOL0     H 2310   8.860   9.626   9.799  0.6838 -0.6126  0.4879
   17MOL0     H 2311   8.753   9.767   9.786 -0.5880  2.0667  2.3154
   17MOL0     H 2312   8.946   9.835   9.683  0.5219 -1.6786 -0.9558
   17MOL0     H 2313   8.927   9.931   9.840  3.4190  0.0593  1.2749
   17MOL0     H 2314   9.107   9.790   9.945  0.0003  4.2424  0.0409
   17MOL0     H 2315   9.169   9.840   9.789 -0.0665  0.7129  0.2289
   17MOL0     H 2316   9.069   9.609   9.709  2.4412 -3.9131  0.3599
   17MOL0     H 2317   9.074   9.563   9.878 -1.6820  1.1644 -0.3205
   17MOL0     H 2318   9.284   9.524   9.730 -1.3227 -1.8201  2.5311
   17MOL0     H 2319   9.302   9.696   9.721  0.0188  1.6284  1.0795
   17MOL0     H 2320   9.287   9.679   9.995  2.8278  0.8910 -0.7128
   17MOL0     H 2321   9.442   9.650   9.914  0.4369  1.1112  0.9266
   17MOL0     H 2322   9.432   9.419   9.941  2.8033  0.4040  2.5383
   17MOL0     H 2323   9.265   9.421   9.985  0.1829 -1.9710 -2.3529
   17MOL0     H 2324   9.328   9.564  10.177 -0.6976 -2.1895 -1.2950
   17MOL0     H 2325   9.501   9.552  10.130 -1.6390  4.2614 -0.0816
   17MOL0     H 2326   8.870   9.596  10.198  1.8255 -0.0827 -1.4846
   17MOL0     H 2327   8.751   9.397  10.253 -3.1072 -0.8380  1.0617
   17MOL0     H 2328   8.451   9.260  10.392  0.4577  0.7026 -2.0617
   17MOL0     H 2329   8.437   9.081  10.564 -1.6180  2.1002  1.5327
   17MOL0     H 2330   8.712   8.346  11.708  1.1724  1.5364  1.1727
   17MOL0     H 2331   8.732   8.086  11.725  0.6680 -0.7962  0.8085
   17MOL0     H 2332   8.796   7.754  11.748 -0.5949 -1.3276  1.7618
   17MOL0     H 2333   8.747   7.521  11.801  0.0337 -0.4588  0.0101
   17MOL0     H 2334   8.888   7.341  11.931  1.9906  0.1385 -0.9366
   17MOL0     H 2335   8.749   7.288  11.826 -0.3921  1.6146 -1.7040
   17MOL0     H 2336   8.852   7.105  11.965 -0.2254  0.9957  0.7476
   17MOL0     H 2337   9.013   7.128  11.902  0.3379 -1.0376 -2.7633
   17MOL0     H 2338   8.790   7.079  11.698  1.0396 -1.0049 -1.2200
   17MOL0     H 2339   8.951   7.063  11.683 -0.4668  1.9390  0.2577
   17MOL0     H 2340   8.795   6.884  11.890 -1.1933 -3.5349 -1.4523
   17MOL0     H 2341   8.958   6.854  11.834 -1.2370 -3.9101 -0.3241
   17MOL0     H 2342   8.795   6.685  11.497  0.6039  1.0585 -0.8427
   17MOL0     H 2343   9.068   7.395  11.555  2.3466  1.2066  0.8691
   17MOL0     H 2344   9.192   7.734  11.492 -2.6174  0.7861  1.9426
   17MOL0     H 2345   9.227   7.564  11.499 -0.6706  0.1519  2.8813
   17MOL0     H 2346   9.127   7.623  11.355  0.8332 -1.5695  0.8048
   18MOL0     O 2347   3.783   3.445   7.312 -0.6336 -0.2706  0.7576
   18MOL0     C 2348   3.790   3.387   7.199 -0.2246 -1.1954 -0.8342
   18MOL0     O 2349   3.738   3.429   7.078  0.1503  0.1011  0.9828
   18MOL0     C 2350   3.681   3.555   7.061  0.5783 -0.6719 -0.1997
   18MOL0     C 2351   3.688   3.664   7.153 -0.4376 -1.0196 -0.6430
   18MOL0     C 2352   3.613   3.784   7.134  0.5129 -0.3092 -0.2043
   18MOL0     C 2353   3.525   3.796   7.021  0.2493  0.7466  0.7537
   18MOL0     O 2354   3.438   3.899   6.996  0.1524 -0.4173  0.4569
   18MOL0     C 2355   3.449   4.019   7.092  0.7415 -0.3455 -0.4826
   18MOL0     C 2356   3.359   4.127   7.030  1.6166 -1.1902 -0.2917
   18MOL0     C 2357   3.365   4.253   7.113  0.9267  0.7612 -0.1559
   18MOL0     C 2358   3.255   4.347   7.053 -0.3150 -0.5575 -0.0741
   18MOL0     C 2359   3.261   4.485   7.115 -0.7537  0.4773  0.0868
   18MOL0     C 2360   3.372   4.573   7.045  0.5829 -0.2761 -0.7977
   18MOL0     C 2361   3.367   4.719   7.104 -1.0902  0.5468  0.3403
   18MOL0     C 2362   3.298   4.830   7.019  0.1844  0.8799  0.2574
   18MOL0     N 2363   3.159   4.789   7.011 -0.1603 -0.0779 -0.9957
   18MOL0     C 2364   3.095   4.732   6.910 -0.1035 -0.7685  0.3890
   18MOL0     C 2365   2.958   4.724   6.936  0.2883 -0.5444  0.0266
   18MOL0     C 2366   2.855   4.657   6.857 -0.8766 -0.0032  0.7551
   18MOL0     C 2367   2.865   4.507   6.877  0.3674 -0.1226 -0.1850
   18MOL0     C 2368   2.840   4.454   7.022 -0.0918 -0.0922  0.3957
   18MOL0     C 2369   2.774   4.312   7.045 -0.8885 -0.3056 -0.4051
   18MOL0     O 2370   2.856   4.202   6.997  0.2663  0.0791 -0.1186
   18MOL0     C 2371   2.818   4.071   7.029 -0.1887 -0.4624  0.1862
   18MOL0     C 2372   2.718   4.042   7.118 -0.4747  0.1791  0.5897
   18MOL0     C 2373   2.682   3.915   7.158  0.1447  0.4925 -0.8587
   18MOL0     C 2374   2.557   3.892   7.240 -0.8138  0.0076 -0.8966
   18MOL0     C 2375   2.767   3.811   7.111 -1.0023 -0.5876 -0.6619
   18MOL0     C 2376   2.743   3.677   7.174  1.0015  0.6941 -0.6986
   18MOL0     O 2377   2.717   3.675   7.314  0.2681 -0.4330 -0.0623
   18MOL0     C 2378   2.728   3.553   7.377  0.6593  0.2917 -0.4082
   18MOL0     C 2379   2.616   3.488   7.419  0.1093  0.7645 -0.0265
   18MOL0     C 2380   2.634   3.376   7.495 -0.7964  0.6977  0.5374
   18MOL0     C 2381   2.758   3.334   7.542  0.4594  0.9492  0.5802
   18MOL0     O 2382   2.754   3.235   7.634  0.0762  0.0631  0.9713
   18MOL0     C 2383   2.860   3.129   7.613 -0.2557  0.5180  0.7861
   18MOL0     C 2384   2.833   3.022   7.504  1.1930  0.4161 -0.5568
   18MOL0     C 2385   2.723   2.930   7.547 -0.9556  1.2670  0.0369
   18MOL0     C 2386   2.679   2.823   7.452  0.2599  0.6214 -0.2360
   18MOL0     C 2387   2.549   2.767   7.506  0.0061  0.5254  0.7332
   18MOL0     C 2388   2.515   2.627   7.430 -0.8015 -0.3692 -0.7113
   18MOL0     C 2389   2.446   2.524   7.526  0.2563  0.7325 -0.4590
   18MOL0     C 2390   2.410   2.403   7.432  0.0849 -0.8662 -0.2363
   18MOL0    Cl 2391   2.550   2.333   7.343  0.2091  0.2071  0.3422
   18MOL0     C 2392   2.873   3.392   7.489  0.5410  0.2947 -0.2069
   18MOL0     C 2393   2.855   3.500   7.404 -0.3295 -0.7574  0.5782
   18MOL0     O 2394   2.760   3.572   7.110 -0.5925 -0.0164 -0.2270
   18MOL0     C 2395   2.869   3.835   7.013  0.5726 -0.2446 -0.7871
   18MOL0     C 2396   2.894   3.966   6.978 -0.7693 -0.4155 -0.0857
   18MOL0     N 2397   2.959   4.744   7.071 -0.0319  0.4983 -0.5720
   18MOL0     N 2398   3.067   4.791   7.113 -1.1488  0.4321 -1.0372
   18MOL0     C 2399   3.520   3.687   6.930 -0.5769 -0.5895  0.2726
   18MOL0     C 2400   3.596   3.567   6.949  0.8304  0.2482  0.2826
   18MOL0     C 2401   3.827   3.251   7.192 -0.9067 -0.3613  0.0990
   18MOL0     C 2402   3.911   3.210   7.091 -0.5208 -0.6468  0.5761
   18MOL0     C 2403   3.969   3.082   7.092 -0.6388 -0.6610  0.0174
   18MOL0     C 2404   3.930   2.989   7.182  0.7696  0.4369 -0.3673
   18MOL0     O 2405   4.005   2.876   7.186 -0.5906 -0.0549  0.3441
   18MOL0     C 2406   3.979   2.757   7.268  0.0162  0.3163  0.2214
   18MOL0     C 2407   3.844   2.682   7.234 -0.0095 -0.4051  0.5562
   18MOL0     C 2408   3.803   2.676   7.087  0.0627  0.0551 -0.3844
   18MOL0     C 2409   3.917   2.638   6.993  1.4772  0.8178  0.6789
   18MOL0     C 2410   3.861   2.633   6.855  0.6149  0.4570 -0.2567
   18MOL0     C 2411   3.803   2.635   6.752 -0.0044 -0.0533  0.4330
   18MOL0     C 2412   3.839   3.035   7.284  0.1443  0.1322  0.5579
   18MOL0     C 2413   3.778   3.158   7.287 -1.4229  0.3777 -0.4197
   18MOL0     C 2414   3.670   3.184   7.391  0.0412 -0.0809  0.4537
   18MOL0     H 2415   3.766   3.681   7.227 -1.9357  2.5271  0.3555
   18MOL0     H 2416   3.629   3.867   7.201  1.8596  0.3039 -1.2447
   18MOL0     H 2417   3.550   4.059   7.107  0.4416  0.1105  0.3464
   18MOL0     H 2418   3.416   3.993   7.192  1.1165 -1.0473 -0.5356
   18MOL0     H 2419   3.401   4.172   6.940  2.6717 -1.5270  0.0219
   18MOL0     H 2420   3.259   4.084   7.016  0.5984  1.2464 -1.0532
   18MOL0     H 2421   3.346   4.222   7.216 -1.6975  1.5678 -0.3333
   18MOL0     H 2422   3.468   4.289   7.102  0.8081  1.1334 -0.0633
   18MOL0     H 2423   3.262   4.364   6.946  1.0252  1.8903  0.3281
   18MOL0     H 2424   3.159   4.299   7.075  0.1212 -0.8817  1.2183
   18MOL0     H 2425   3.266   4.471   7.223  1.5214 -5.0630 -0.4364
   18MOL0     H 2426   3.172   4.543   7.090 -1.1423 -0.7583 -1.5665
   18MOL0     H 2427   3.469   4.526   7.066 -0.1053 -1.9129 -1.1772
   18MOL0     H 2428   3.355   4.592   6.939  2.7223  0.9918 -0.9866
   18MOL0     H 2429   3.471   4.750   7.089 -1.5640  1.7948 -0.5932
   18MOL0     H 2430   3.329   4.721   7.207  0.7455 -1.5738  1.1412
   18MOL0     H 2431   3.302   4.931   7.061  0.0453  0.1349  2.1810
   18MOL0     H 2432   3.358   4.827   6.928  1.5974  2.4157  1.0758
   18MOL0     H 2433   3.140   4.691   6.820 -0.2939  1.1316 -0.6315
   18MOL0     H 2434   2.870   4.676   6.750 -0.7767 -3.2712  0.0928
   18MOL0     H 2435   2.756   4.696   6.881 -1.1955 -1.1356  1.3110
   18MOL0     H 2436   2.806   4.457   6.800  3.6945 -0.8968 -2.4463
   18MOL0     H 2437   2.968   4.477   6.853  0.3224 -0.6441  0.2423
   18MOL0     H 2438   2.934   4.453   7.077  0.9403 -4.2908 -1.0538
   18MOL0     H 2439   2.772   4.526   7.070  0.5289  0.0485  1.0807
   18MOL0     H 2440   2.756   4.293   7.151 -1.2458  0.6207 -0.2893
   18MOL0     H 2441   2.684   4.318   6.983  0.1488  2.9068 -1.8286
   18MOL0     H 2442   2.650   4.120   7.150  0.4754  0.2667  2.5195
   18MOL0     H 2443   2.491   3.977   7.221  1.2305  1.0704 -4.0613
   18MOL0     H 2444   2.585   3.880   7.345 -1.0792 -0.7487 -0.9032
   18MOL0     H 2445   2.501   3.804   7.206  0.8986 -1.4264 -0.1895
   18MOL0     H 2446   2.512   3.514   7.400 -1.0054 -1.5312  2.1743
   18MOL0     H 2447   2.551   3.321   7.537 -2.6602  2.5743 -0.5099
   18MOL0     H 2448   2.960   3.169   7.594 -0.8373  1.2379 -0.9780
   18MOL0     H 2449   2.868   3.062   7.699 -2.7654 -0.7276  0.1384
   18MOL0     H 2450   2.805   3.070   7.410 -1.8960 -2.1431 -1.1037
   18MOL0     H 2451   2.924   2.964   7.490  1.2165  0.2139  0.3580
   18MOL0     H 2452   2.638   2.989   7.582 -1.0128  2.1205 -1.4677
   18MOL0     H 2453   2.753   2.884   7.642 -1.6231  3.8397  1.6039
   18MOL0     H 2454   2.755   2.744   7.457 -0.0561  0.3676  0.9887
   18MOL0     H 2455   2.668   2.870   7.354  0.3447  2.6119  0.6540
   18MOL0     H 2456   2.555   2.748   7.614  0.0790  2.6133  1.1420
   18MOL0     H 2457   2.456   2.825   7.496 -1.6481 -1.4637  3.0962
   18MOL0     H 2458   2.605   2.585   7.385 -1.5559 -1.1365 -1.5269
   18MOL0     H 2459   2.448   2.639   7.345 -1.0090 -0.4978 -0.5665
   18MOL0     H 2460   2.357   2.579   7.559 -2.3722 -0.8092 -4.2543
   18MOL0     H 2461   2.513   2.503   7.610 -0.0567  1.2190 -0.0823
   18MOL0     H 2462   2.326   2.420   7.363 -1.6789 -1.1177  1.7627
   18MOL0     H 2463   2.369   2.321   7.492  3.0710 -1.0714  1.7272
   18MOL0     H 2464   2.973   3.367   7.522  0.8733  2.1973  0.3800
   18MOL0     H 2465   2.938   3.558   7.364 -1.5984  1.5503  1.0983
   18MOL0     H 2466   2.926   3.757   6.963  0.9766 -1.3351  1.2815
   18MOL0     H 2467   2.972   3.981   6.904  2.6620 -2.9198  2.6914
   18MOL0     H 2468   3.455   3.685   6.844 -1.1041 -3.6219  0.6617
   18MOL0     H 2469   3.586   3.482   6.883  0.3759  0.9058 -0.5172
   18MOL0     H 2470   3.944   3.269   7.006 -5.1232 -1.6520 -2.3445
   18MOL0     H 2471   4.038   3.049   7.016 -2.4278 -1.9848 -1.1166
   18MOL0     H 2472   4.047   2.677   7.237  0.8992 -0.0692  2.8638
   18MOL0     H 2473   3.996   2.777   7.375  3.8014  3.4914 -0.7445
   18MOL0     H 2474   3.761   2.740   7.277  0.5332  0.0434  1.0149
   18MOL0     H 2475   3.835   2.583   7.279  0.8729 -0.5132  0.5179
   18MOL0     H 2476   3.712   2.615   7.080 -1.9759  2.5255  1.9553
   18MOL0     H 2477   3.783   2.782   7.068 -0.8235 -0.2869 -1.4264
   18MOL0     H 2478   3.972   2.549   7.025  1.4773  0.7733  0.5566
   18MOL0     H 2479   3.996   2.713   6.996  1.0301  1.3411 -0.1644
   18MOL0     H 2480   3.744   2.650   6.664  0.5611  1.4414  0.2704
   18MOL0     H 2481   3.797   2.965   7.355 -1.6325  2.7425  2.2678
   18MOL0     H 2482   3.704   3.253   7.469 -2.7339  1.3836  0.5068
   18MOL0     H 2483   3.583   3.240   7.354  1.0200  3.0480  2.5464
   18MOL0     H 2484   3.636   3.093   7.442  0.2841 -0.2079  0.3919
   19MOL0     O 2485   2.041   3.407   8.036 -0.3671 -1.0190  0.0631
   19MOL0     C 2486   2.008   3.448   8.151 -0.0717  0.5049  0.1681
   19MOL0     O 2487   1.883   3.494   8.187 -0.1537 -0.0078 -0.2844
   19MOL0     C 2488   1.777   3.499   8.105  0.0481  0.0526 -0.8661
   19MOL0     C 2489   1.686   3.606   8.119  0.3065 -0.4290  0.4323
   19MOL0     C 2490   1.567   3.600   8.043  0.8016 -0.5423  0.1765
   19MOL0     C 2491   1.532   3.492   7.959  0.0072 -0.3204 -0.6723
   19MOL0     O 2492   1.413   3.487   7.901  0.4002 -0.6434  0.8196
   19MOL0     C 2493   1.304   3.413   7.958  0.5806  0.0549 -0.7261
   19MOL0     C 2494   1.225   3.329   7.857  0.6038  1.1355  0.2728
   19MOL0     C 2495   1.304   3.211   7.804 -0.1024 -0.0033 -0.5578
   19MOL0     C 2496   1.234   3.146   7.687  0.7547 -0.0766  0.9951
   19MOL0     C 2497   1.264   2.989   7.674 -0.5864  0.2169 -0.0200
   19MOL0     C 2498   1.173   2.937   7.552 -0.5765 -0.5007  0.1560
   19MOL0     C 2499   1.167   2.779   7.530 -0.1635  0.1264  0.5531
   19MOL0     C 2500   1.057   2.768   7.421 -0.2870  0.4879  0.6545
   19MOL0     N 2501   1.050   2.632   7.371  0.7133  0.0405  0.2514
   19MOL0     C 2502   1.147   2.565   7.308 -0.4482  0.9146  0.3293
   19MOL0     C 2503   1.089   2.458   7.240  0.5419 -0.5480 -0.0077
   19MOL0     C 2504   1.165   2.371   7.141 -0.6206  0.8669  0.3442
   19MOL0     C 2505   1.179   2.438   7.005  0.6593 -0.2176 -0.2996
   19MOL0     C 2506   1.260   2.565   7.006  0.3832  0.2259 -0.0039
   19MOL0     C 2507   1.319   2.592   6.865 -0.5103 -0.1144  0.8096
   19MOL0     O 2508   1.206   2.593   6.774 -0.8080 -0.1254  0.7332
   19MOL0     C 2509   1.236   2.659   6.656 -0.1909 -0.2093  0.3900
   19MOL0     C 2510   1.346   2.620   6.576  0.6535  0.4866  1.0973
   19MOL0     C 2511   1.359   2.674   6.445 -1.0577  1.4361  0.0158
   19MOL0     C 2512   1.482   2.638   6.366  0.0514 -0.1944 -0.2563
   19MOL0     C 2513   1.254   2.749   6.389 -0.4354  0.4522  0.0641
   19MOL0     C 2514   1.257   2.809   6.256  0.1165  0.6766  0.4708
   19MOL0     O 2515   1.189   2.922   6.231 -0.0407  0.1099  0.4198
   19MOL0     C 2516   1.150   2.965   6.105 -0.4919 -0.0504  0.2688
   19MOL0     C 2517   1.129   3.097   6.078 -0.1189  0.0214 -0.2964
   19MOL0     C 2518   1.102   3.167   5.959 -0.2050 -0.1065 -0.7473
   19MOL0     C 2519   1.075   3.091   5.851 -0.1813  0.3079  0.1104
   19MOL0     O 2520   1.063   3.135   5.728 -0.5334  1.1604 -0.4167
   19MOL0     C 2521   1.135   3.248   5.692 -0.3476  0.0548 -0.1611
   19MOL0     C 2522   1.163   3.227   5.549  0.3035 -0.0564 -0.8532
   19MOL0     C 2523   1.262   3.335   5.495 -0.5011  0.5789 -1.8769
   19MOL0     C 2524   1.295   3.306   5.350  0.1263 -0.1481  0.2343
   19MOL0     C 2525   1.379   3.412   5.268 -0.8679 -0.5669  0.1897
   19MOL0     C 2526   1.397   3.376   5.123  1.0306 -0.3168 -0.0656
   19MOL0     C 2527   1.520   3.448   5.056  0.3915  0.4690  0.2048
   19MOL0     C 2528   1.536   3.411   4.909 -0.2573  0.0434  0.9874
   19MOL0    Cl 2529   1.673   3.503   4.843  0.2534  0.1979 -0.3898
   19MOL0     C 2530   1.081   2.953   5.864 -0.3934  0.0459  0.7157
   19MOL0     C 2531   1.125   2.894   5.989  0.6233  0.4289 -0.0909
   19MOL0     O 2532   1.303   2.738   6.165  0.3609  0.0743  0.8285
   19MOL0     C 2533   1.151   2.783   6.475  1.6344 -0.3927  0.3223
   19MOL0     C 2534   1.140   2.736   6.609  0.2848 -1.2867  0.1801
   19MOL0     N 2535   0.955   2.454   7.287 -0.2496 -0.1767 -0.4224
   19MOL0     N 2536   0.935   2.560   7.357  0.1949 -0.1082 -0.6706
   19MOL0     C 2537   1.626   3.386   7.944  0.1283  0.2265 -0.8356
   19MOL0     C 2538   1.746   3.397   8.013  0.1468 -1.0052  0.1424
   19MOL0     C 2539   2.117   3.452   8.242 -0.0984  0.8457 -0.1183
   19MOL0     C 2540   2.217   3.351   8.244  0.2518  0.2246  0.8803
   19MOL0     C 2541   2.328   3.361   8.329 -0.8082 -0.3506 -0.9019
   19MOL0     C 2542   2.331   3.465   8.422  0.6018  0.0971  0.4789
   19MOL0     O 2543   2.423   3.474   8.525 -0.2584 -0.1403 -0.2612
   19MOL0     C 2544   2.493   3.355   8.568 -0.9190  0.4073 -0.0026
   19MOL0     C 2545   2.404   3.249   8.638  0.3340 -0.0944 -1.1789
   19MOL0     C 2546   2.289   3.307   8.736 -0.1098  0.0338  0.9398
   19MOL0     C 2547   2.335   3.408   8.830  0.2439 -0.1900  0.7080
   19MOL0     C 2548   2.446   3.379   8.923  0.5921  0.3277 -0.0663
   19MOL0     C 2549   2.537   3.334   8.992  0.7875  0.0524 -0.8020
   19MOL0     C 2550   2.233   3.569   8.417 -1.1785 -0.4885  0.0667
   19MOL0     C 2551   2.128   3.563   8.331 -0.3151 -0.1778  0.2255
   19MOL0     C 2552   2.051   3.689   8.302  0.3017  0.4112 -0.5276
   19MOL0     H 2553   1.705   3.674   8.202  0.3709  1.9137 -1.4189
   19MOL0     H 2554   1.498   3.679   8.070  0.3834 -0.0596 -2.0776
   19MOL0     H 2555   1.227   3.476   8.003  1.5266  1.7961 -1.4648
   19MOL0     H 2556   1.337   3.334   8.026 -0.8509 -1.2025 -1.4074
   19MOL0     H 2557   1.137   3.276   7.894 -0.4944  0.1252 -3.3395
   19MOL0     H 2558   1.196   3.399   7.778 -0.2446  0.9163  0.3827
   19MOL0     H 2559   1.397   3.254   7.766  1.9486 -3.8958 -0.4771
   19MOL0     H 2560   1.330   3.139   7.882 -0.0789  1.0735  0.4497
   19MOL0     H 2561   1.127   3.166   7.699  0.7443  1.8814 -1.5892
   19MOL0     H 2562   1.275   3.188   7.595 -0.1429 -0.9423  0.1883
   19MOL0     H 2563   1.223   2.949   7.768 -4.3502  5.2507  0.9198
   19MOL0     H 2564   1.371   2.970   7.667 -0.4108  1.7244 -3.0869
   19MOL0     H 2565   1.074   2.978   7.573 -0.2619  0.5333 -0.2880
   19MOL0     H 2566   1.216   2.971   7.457 -0.1720 -1.7475 -0.1371
   19MOL0     H 2567   1.141   2.716   7.616 -2.5250 -2.3831 -1.8103
   19MOL0     H 2568   1.265   2.744   7.497 -0.2727  1.2751 -1.1144
   19MOL0     H 2569   0.953   2.789   7.450 -1.8299 -2.7544 -1.9191
   19MOL0     H 2570   1.086   2.828   7.335  0.4090 -0.5196  0.1678
   19MOL0     H 2571   1.250   2.599   7.300 -0.1913  0.1960  0.4719
   19MOL0     H 2572   1.110   2.277   7.137  1.3108 -0.5282  3.0316
   19MOL0     H 2573   1.258   2.324   7.175 -1.3551 -1.3335 -0.5575
   19MOL0     H 2574   1.221   2.363   6.937 -0.7953 -0.5898 -0.8312
   19MOL0     H 2575   1.073   2.453   6.983  0.0496 -1.2849  1.6444
   19MOL0     H 2576   1.196   2.642   7.050  2.8104  0.4487  3.5455
   19MOL0     H 2577   1.349   2.552   7.068 -0.2649 -0.2199  0.8551
   19MOL0     H 2578   1.363   2.692   6.868  1.4600 -0.8850 -0.4678
   19MOL0     H 2579   1.400   2.530   6.825 -1.1590 -2.6466  3.0652
   19MOL0     H 2580   1.416   2.548   6.618  1.8858 -0.4995 -2.3083
   19MOL0     H 2581   1.451   2.564   6.291 -0.3221 -3.4892  2.8923
   19MOL0     H 2582   1.558   2.590   6.428 -0.1663 -0.8328 -0.4736
   19MOL0     H 2583   1.515   2.728   6.313 -1.1323  1.4478  1.6585
   19MOL0     H 2584   1.147   3.166   6.161  0.6332 -1.0764  0.4885
   19MOL0     H 2585   1.100   3.275   5.961 -0.7077 -0.1218  0.0044
   19MOL0     H 2586   1.069   3.334   5.704 -2.7102 -1.4717 -1.3390
   19MOL0     H 2587   1.232   3.264   5.739  0.0413 -0.5863 -0.7178
   19MOL0     H 2588   1.177   3.123   5.518 -0.9811 -0.3915 -0.3774
   19MOL0     H 2589   1.070   3.236   5.491 -0.6051  0.4521  0.6391
   19MOL0     H 2590   1.355   3.325   5.552 -0.3892 -1.0785 -2.3201
   19MOL0     H 2591   1.222   3.437   5.502  1.8173  1.5588 -1.7570
   19MOL0     H 2592   1.197   3.301   5.302  0.5643 -0.0986 -0.6727
   19MOL0     H 2593   1.344   3.209   5.349  1.3245  0.3305 -3.5963
   19MOL0     H 2594   1.353   3.518   5.266  2.9349  0.5220 -1.3623
   19MOL0     H 2595   1.473   3.413   5.323  0.2489 -0.8700 -1.6255
   19MOL0     H 2596   1.307   3.408   5.069 -0.9784 -0.8585  2.7248
   19MOL0     H 2597   1.413   3.269   5.107  1.1092 -0.5380  1.3647
   19MOL0     H 2598   1.611   3.427   5.114  1.8727 -3.4557 -3.0565
   19MOL0     H 2599   1.496   3.555   5.054 -3.8011 -0.3239 -0.5040
   19MOL0     H 2600   1.444   3.435   4.855 -1.6979 -0.3672  3.1504
   19MOL0     H 2601   1.564   3.306   4.906  1.3647  0.4583 -0.3706
   19MOL0     H 2602   1.062   2.888   5.780  2.2273  0.9691 -0.7203
   19MOL0     H 2603   1.122   2.786   6.003 -1.7433  0.6734  1.7861
   19MOL0     H 2604   1.071   2.853   6.456  0.2654 -2.2663 -1.2894
   19MOL0     H 2605   1.054   2.765   6.668  0.0946  0.9852 -1.1214
   19MOL0     H 2606   1.609   3.297   7.885  3.0840 -1.4901  0.6852
   19MOL0     H 2607   1.817   3.315   8.011  4.0031  1.9568  1.8164
   19MOL0     H 2608   2.216   3.276   8.166  1.6897  0.3548  0.7109
   19MOL0     H 2609   2.414   3.296   8.317  0.4554  1.3381 -1.3092
   19MOL0     H 2610   2.550   3.321   8.482  1.7214  1.9657  1.0023
   19MOL0     H 2611   2.576   3.385   8.633 -0.3738 -0.7919 -0.1294
   19MOL0     H 2612   2.472   3.194   8.704 -0.4296  0.9752  0.5665
   19MOL0     H 2613   2.366   3.179   8.564 -0.1020 -1.8201  0.5833
   19MOL0     H 2614   2.212   3.338   8.665 -0.7933 -2.7499  0.3444
   19MOL0     H 2615   2.253   3.221   8.793  2.1545 -0.1855  2.1567
   19MOL0     H 2616   2.248   3.432   8.891 -2.6654  0.4709 -3.3328
   19MOL0     H 2617   2.356   3.499   8.773 -0.9452  0.7814  1.7444
   19MOL0     H 2618   2.610   3.288   9.056  0.5907  0.2207 -0.4560
   19MOL0     H 2619   2.235   3.646   8.493 -0.8525 -2.6544  2.3806
   19MOL0     H 2620   2.043   3.710   8.195 -0.3423 -2.7105 -1.1822
   19MOL0     H 2621   1.949   3.681   8.340  0.2388  0.3380 -0.7125
   19MOL0     H 2622   2.080   3.783   8.349 -0.0060  0.3923 -0.2941
   20MOL0     O 2623   7.424   6.140   5.230 -0.2423  0.0924  0.0220
   20MOL0     C 2624   7.400   6.259   5.257 -0.0217  0.0809  0.5983
   20MOL0     O 2625   7.316   6.310   5.351  0.4662  0.0455 -0.6178
   20MOL0     C 2626   7.248   6.232   5.433 -0.6674  0.6793  0.2395
   20MOL0     C 2627   7.283   6.100   5.489  0.5175  0.1962  0.4100
   20MOL0     C 2628   7.201   6.040   5.582 -0.8681  0.6751  0.1759
   20MOL0     C 2629   7.086   6.092   5.630 -0.3945  0.4767  0.2274
   20MOL0     O 2630   7.008   6.034   5.729 -0.4418  0.1445  0.7507
   20MOL0     C 2631   7.004   5.889   5.744  0.2298  0.2048 -0.1819
   20MOL0     C 2632   6.959   5.803   5.620 -0.6517 -0.5814 -0.8948
   20MOL0     C 2633   7.027   5.665   5.629  0.1492  0.0707 -1.1501
   20MOL0     C 2634   7.002   5.597   5.493 -0.1152  0.2204 -0.6872
   20MOL0     C 2635   7.087   5.471   5.492 -0.0734 -0.1257 -0.6227
   20MOL0     C 2636   7.077   5.410   5.348  0.1165 -0.2146 -0.0428
   20MOL0     C 2637   6.955   5.323   5.328  0.8683 -0.3405  0.8293
   20MOL0     C 2638   6.947   5.293   5.175  0.0067 -0.5783 -0.4954
   20MOL0     N 2639   6.835   5.214   5.132 -0.0087  0.5158  1.0508
   20MOL0     C 2640   6.810   5.081   5.153 -0.3072  0.2747 -0.6612
   20MOL0     C 2641   6.693   5.052   5.091 -0.2622  0.0005 -0.6573
   20MOL0     C 2642   6.651   4.902   5.105 -0.7233  0.4808  0.6600
   20MOL0     C 2643   6.696   4.795   4.991  0.0678 -0.5530  0.3175
   20MOL0     C 2644   6.597   4.798   4.873 -0.5143 -0.1457  0.8096
   20MOL0     C 2645   6.645   4.731   4.742 -0.8318  0.3308 -0.4459
   20MOL0     O 2646   6.562   4.623   4.697  0.0810 -0.0941  0.0635
   20MOL0     C 2647   6.448   4.651   4.629  0.5636  0.2467 -1.4466
   20MOL0     C 2648   6.440   4.594   4.497 -0.0011  0.0051  0.0378
   20MOL0     C 2649   6.328   4.616   4.414  0.7457  0.6950 -0.0476
   20MOL0     C 2650   6.331   4.539   4.282 -0.0163  0.1433  0.1878
   20MOL0     C 2651   6.223   4.699   4.449  0.5986  0.1619 -0.1711
   20MOL0     C 2652   6.091   4.713   4.377 -0.1890  0.7782 -0.2877
   20MOL0     O 2653   6.059   4.840   4.335  0.1503 -0.3585 -0.2881
   20MOL0     C 2654   5.924   4.856   4.300 -0.4886 -0.3962  0.2052
   20MOL0     C 2655   5.906   4.917   4.180 -0.0347  0.0365 -0.1232
   20MOL0     C 2656   5.777   4.969   4.158  0.0575 -0.1008  0.4083
   20MOL0     C 2657   5.667   4.950   4.249  0.7047  0.0949  0.4788
   20MOL0     O 2658   5.540   4.995   4.221  0.5077 -0.0731  0.2434
   20MOL0     C 2659   5.499   5.014   4.077 -0.5249 -0.3404 -0.6838
   20MOL0     C 2660   5.354   4.990   4.065  0.2391 -0.1913 -0.6807
   20MOL0     C 2661   5.294   5.075   3.946 -0.1186 -0.5736 -0.8656
   20MOL0     C 2662   5.143   5.061   3.932 -0.2094 -0.1521 -0.5965
   20MOL0     C 2663   5.103   5.165   3.836 -0.4805 -1.0502 -1.2823
   20MOL0     C 2664   5.092   5.311   3.892 -0.8648 -0.3303 -0.1384
   20MOL0     C 2665   5.084   5.413   3.774  0.4901 -0.2205 -0.5890
   20MOL0     C 2666   4.931   5.419   3.731 -0.6307 -0.5127 -0.0272
   20MOL0    Cl 2667   4.919   5.561   3.631  0.0580 -0.0561  0.6922
   20MOL0     C 2668   5.692   4.883   4.366  0.5782 -0.0508 -0.9655
   20MOL0     C 2669   5.820   4.836   4.394 -0.6470 -0.4519  0.2801
   20MOL0     O 2670   6.011   4.618   4.379  0.6502  0.5035 -0.2640
   20MOL0     C 2671   6.233   4.760   4.577 -0.1833 -0.6188 -0.4607
   20MOL0     C 2672   6.343   4.744   4.665  0.3175  0.4131 -0.1112
   20MOL0     N 2673   6.645   5.170   5.028  0.2203 -0.3229  1.2985
   20MOL0     N 2674   6.735   5.262   5.050  0.2641  0.4428 -0.4287
   20MOL0     C 2675   7.058   6.220   5.579  0.4045 -0.2400 -0.4566
   20MOL0     C 2676   7.147   6.300   5.502  0.2309  0.4122  0.4910
   20MOL0     C 2677   7.446   6.358   5.156  0.2464 -0.1029  0.3556
   20MOL0     C 2678   7.357   6.470   5.125  0.1972  0.2017  0.0981
   20MOL0     C 2679   7.407   6.569   5.043  0.3709 -0.1400 -1.1292
   20MOL0     C 2680   7.531   6.565   4.974  0.8384  0.5404 -0.5796
   20MOL0     O 2681   7.576   6.661   4.891 -0.3944 -0.6379  0.2008
   20MOL0     C 2682   7.493   6.775   4.871 -0.3410  0.2998 -0.1737
   20MOL0     C 2683   7.549   6.878   4.764 -0.5060  0.0363 -0.9651
   20MOL0     C 2684   7.674   6.944   4.803 -0.2826 -0.3780 -0.7425
   20MOL0     C 2685   7.801   6.859   4.759  0.7320 -1.1229  0.4344
   20MOL0     C 2686   7.922   6.927   4.802  0.8083 -0.6379  0.7889
   20MOL0     C 2687   8.024   6.982   4.831 -0.7618 -0.3130  0.0074
   20MOL0     C 2688   7.601   6.450   4.991 -0.0691 -0.1632  0.5079
   20MOL0     C 2689   7.573   6.343   5.086  0.7720  0.0430  0.4874
   20MOL0     C 2690   7.667   6.231   5.099  0.0503 -0.0204 -0.3870
   20MOL0     H 2691   7.370   6.041   5.464 -0.1092 -0.3379 -0.5570
   20MOL0     H 2692   7.239   5.945   5.619  2.0750  1.1120 -1.3658
   20MOL0     H 2693   6.948   5.856   5.832  3.5007  2.1761  2.8982
   20MOL0     H 2694   7.107   5.874   5.779  0.5493  0.6420 -0.9065
   20MOL0     H 2695   6.850   5.804   5.608 -0.8356  2.6731  0.0477
   20MOL0     H 2696   7.012   5.855   5.539  1.1672 -1.7749 -0.5322
   20MOL0     H 2697   7.134   5.689   5.634 -0.4169  3.2265 -1.7646
   20MOL0     H 2698   7.000   5.598   5.711  2.3069 -1.1545 -1.3701
   20MOL0     H 2699   6.895   5.575   5.485  0.1624 -1.5822  0.0062
   20MOL0     H 2700   7.032   5.666   5.413 -1.5631  2.9180  0.9657
   20MOL0     H 2701   7.048   5.407   5.571 -1.7743  0.7622 -0.7026
   20MOL0     H 2702   7.193   5.485   5.518 -0.3792 -0.1817  0.7432
   20MOL0     H 2703   7.094   5.487   5.272 -0.1448  2.1588  2.1597
   20MOL0     H 2704   7.162   5.343   5.330  0.9962  1.5302 -3.2210
   20MOL0     H 2705   6.868   5.380   5.363 -1.3121 -3.4715  0.9788
   20MOL0     H 2706   6.967   5.234   5.391 -0.7318  0.9315  3.1020
   20MOL0     H 2707   6.941   5.381   5.111 -1.9281 -1.4589 -1.6192
   20MOL0     H 2708   7.043   5.252   5.142  1.9947  1.3071  2.4392
   20MOL0     H 2709   6.874   5.011   5.205 -2.1157 -1.0904 -0.2029
   20MOL0     H 2710   6.544   4.903   5.126 -0.7132 -1.3707  0.9378
   20MOL0     H 2711   6.691   4.859   5.198 -4.1465  1.2627  2.6805
   20MOL0     H 2712   6.798   4.825   4.965 -0.2627 -0.5919 -1.0620
   20MOL0     H 2713   6.693   4.695   5.034  2.2579 -1.2877 -1.0538
   20MOL0     H 2714   6.503   4.750   4.902 -0.3800  0.4581  2.3340
   20MOL0     H 2715   6.586   4.905   4.853  2.2478  0.2327  0.8850
   20MOL0     H 2716   6.650   4.797   4.655  1.2585  0.2186 -0.4802
   20MOL0     H 2717   6.747   4.693   4.752 -1.5006 -1.6464 -0.7061
   20MOL0     H 2718   6.529   4.547   4.457 -0.0361  1.6170 -2.0789
   20MOL0     H 2719   6.279   4.445   4.301 -0.6379  0.6256  0.9176
   20MOL0     H 2720   6.431   4.524   4.240  0.3788  0.6083  0.9392
   20MOL0     H 2721   6.272   4.591   4.206  1.0765 -0.1348 -0.8832
   20MOL0     H 2722   5.975   4.932   4.098  0.0223 -1.5403 -0.3961
   20MOL0     H 2723   5.750   5.026   4.070  0.2211  1.8442  1.5559
   20MOL0     H 2724   5.529   5.114   4.045 -0.4225 -0.6233 -1.5024
   20MOL0     H 2725   5.543   4.941   4.007  3.3661  1.4371 -0.3464
   20MOL0     H 2726   5.349   4.881   4.061  0.4677 -0.2355  0.0821
   20MOL0     H 2727   5.317   5.013   4.165  1.2624 -1.7363  0.0966
   20MOL0     H 2728   5.331   5.039   3.850  2.6882 -3.4223  1.0586
   20MOL0     H 2729   5.311   5.179   3.973  0.2955 -0.9129  0.2400
   20MOL0     H 2730   5.089   5.063   4.027  2.0032 -0.3069  0.7427
   20MOL0     H 2731   5.130   4.957   3.900 -0.6882 -0.5702  0.8727
   20MOL0     H 2732   5.178   5.161   3.756  1.2334 -1.2297  0.2407
   20MOL0     H 2733   5.011   5.135   3.786 -1.6996  1.1407 -0.4540
   20MOL0     H 2734   5.175   5.333   3.961 -0.8538 -2.0416  0.4468
   20MOL0     H 2735   4.998   5.304   3.946 -1.7817 -0.1240 -1.6647
   20MOL0     H 2736   5.147   5.397   3.686  0.5642 -1.2614 -0.3571
   20MOL0     H 2737   5.106   5.511   3.817 -2.3993  0.9301 -1.4552
   20MOL0     H 2738   4.857   5.422   3.811  0.2678 -2.1329  0.9302
   20MOL0     H 2739   4.898   5.336   3.667 -2.7143 -0.1911  0.5692
   20MOL0     H 2740   5.609   4.861   4.431  0.0283  0.4594 -1.4793
   20MOL0     H 2741   5.835   4.776   4.483 -0.9423 -0.4283  0.3469
   20MOL0     H 2742   6.155   4.817   4.627 -0.1404 -1.6180  0.8055
   20MOL0     H 2743   6.343   4.795   4.761  1.9924  1.1492 -0.4698
   20MOL0     H 2744   6.968   6.263   5.622  0.1861 -1.7082  0.6438
   20MOL0     H 2745   7.118   6.403   5.488  0.1881  0.6988  2.4022
   20MOL0     H 2746   7.261   6.482   5.174  0.6666  0.1302  1.0759
   20MOL0     H 2747   7.340   6.651   5.021 -0.6413  0.0243  2.1060
   20MOL0     H 2748   7.395   6.744   4.834 -1.5521  0.7893  2.4117
   20MOL0     H 2749   7.478   6.838   4.958  3.2652  2.1376 -0.7048
   20MOL0     H 2750   7.458   6.936   4.746 -3.0158 -3.0483  0.6529
   20MOL0     H 2751   7.566   6.834   4.666  0.3356 -1.9540  0.0050
   20MOL0     H 2752   7.681   7.044   4.759  0.0805  0.3782  0.9572
   20MOL0     H 2753   7.673   6.964   4.911 -1.6725  0.9843 -0.9752
   20MOL0     H 2754   7.808   6.848   4.650  0.1870  0.0027  0.2733
   20MOL0     H 2755   7.800   6.761   4.809  0.6175 -0.6275  1.4287
   20MOL0     H 2756   8.113   7.034   4.861 -0.6729 -0.4395 -0.0387
   20MOL0     H 2757   7.693   6.439   4.934 -2.0711 -1.3966 -2.7568
   20MOL0     H 2758   7.696   6.205   5.201 -1.3309 -1.3661 -0.3024
   20MOL0     H 2759   7.622   6.140   5.058 -0.6584  0.3356 -0.4093
   20MOL0     H 2760   7.754   6.250   5.034 -0.7261  0.1267 -1.4055
   21MOL0     O 2761   2.128   2.624   7.921 -0.8561 -0.0661 -0.6842
   21MOL0     C 2762   2.185   2.565   7.830  0.4997 -0.8339 -0.5780
   21MOL0     O 2763   2.322   2.548   7.821 -0.0488 -0.3703 -0.0962
   21MOL0     C 2764   2.392   2.581   7.934  0.0485  0.0694  0.3002
   21MOL0     C 2765   2.440   2.702   7.955 -0.1582 -0.6156 -0.1766
   21MOL0     C 2766   2.515   2.733   8.070 -0.1125  0.1464 -0.0462
   21MOL0     C 2767   2.546   2.636   8.159 -0.1007  0.5074 -0.3416
   21MOL0     O 2768   2.618   2.665   8.269 -0.2795 -0.5511 -0.9789
   21MOL0     C 2769   2.723   2.574   8.314 -0.3331  0.6314  0.1615
   21MOL0     C 2770   2.813   2.632   8.413  0.2267 -0.1855 -0.4033
   21MOL0     C 2771   2.920   2.541   8.475  0.0890  0.1061  0.1565
   21MOL0     C 2772   2.973   2.610   8.609 -0.0542  0.5881  0.3365
   21MOL0     C 2773   3.049   2.508   8.704  1.0415  0.7667  0.8501
   21MOL0     C 2774   3.125   2.571   8.824 -0.5120  0.6631  0.2878
   21MOL0     C 2775   3.212   2.465   8.891  1.4244 -0.0206  0.0470
   21MOL0     C 2776   3.257   2.515   9.029 -0.6658 -0.8309  0.1670
   21MOL0     N 2777   3.351   2.429   9.094 -0.1722 -0.6544 -0.7091
   21MOL0     C 2778   3.481   2.415   9.039  0.7926 -0.3150 -0.6817
   21MOL0     C 2779   3.521   2.294   9.083  1.2260 -0.3590 -0.4864
   21MOL0     C 2780   3.648   2.222   9.045 -1.0532 -0.6345  0.2139
   21MOL0     C 2781   3.655   2.072   9.098  0.3824 -0.9956  0.6509
   21MOL0     C 2782   3.743   2.046   9.215 -0.5684  0.3329 -0.3220
   21MOL0     C 2783   3.690   2.109   9.347 -0.2945 -0.6440  1.6769
   21MOL0     O 2784   3.789   2.118   9.444  0.6959 -0.0695 -0.2259
   21MOL0     C 2785   3.807   2.008   9.523 -0.0460  0.5810 -0.0132
   21MOL0     C 2786   3.691   1.941   9.576 -0.2926  0.3684 -0.6682
   21MOL0     C 2787   3.697   1.821   9.646 -0.4473 -0.1531 -0.1291
   21MOL0     C 2788   3.571   1.758   9.699  0.5109  0.7315  0.6926
   21MOL0     C 2789   3.827   1.762   9.669  1.0156 -1.3098  0.4705
   21MOL0     C 2790   3.849   1.646   9.771 -0.1039 -0.3865  0.0316
   21MOL0     O 2791   3.956   1.561   9.738  0.4466  0.4138 -0.4577
   21MOL0     C 2792   3.957   1.442   9.792  0.5162  0.6280  0.4087
   21MOL0     C 2793   4.060   1.404   9.875  0.6710 -0.4922  0.5998
   21MOL0     C 2794   4.046   1.287   9.945 -0.1966  0.3467 -0.3802
   21MOL0     C 2795   3.937   1.201   9.933  0.5800  0.3545 -0.3012
   21MOL0     O 2796   3.928   1.093  10.017  0.9700 -0.4188  0.1522
   21MOL0     C 2797   4.041   1.039  10.078 -0.5104  0.1210 -0.0714
   21MOL0     C 2798   4.085   1.081  10.218  1.4603  0.0446 -0.3322
   21MOL0     C 2799   4.195   0.988  10.266  0.5213  0.2741 -0.3010
   21MOL0     C 2800   4.272   1.037  10.388 -0.1195  0.7577 -0.5426
   21MOL0     C 2801   4.323   0.913  10.478  0.2105 -1.1534 -0.2728
   21MOL0     C 2802   4.447   0.950  10.556  0.4410  0.6493  0.2989
   21MOL0     C 2803   4.416   1.058  10.659 -0.0802  0.3847  0.1414
   21MOL0     C 2804   4.312   1.022  10.775  0.0013  0.1133  0.4646
   21MOL0    Cl 2805   4.413   0.956  10.910 -0.1603 -0.0717  0.0227
   21MOL0     C 2806   3.831   1.243   9.851  0.1319  0.0197  0.4609
   21MOL0     C 2807   3.847   1.362   9.777 -0.5229 -0.3493  0.7130
   21MOL0     O 2808   3.772   1.624   9.867  0.4292  0.0238  0.2086
   21MOL0     C 2809   3.939   1.832   9.617  0.0814 -0.7019 -0.9466
   21MOL0     C 2810   3.935   1.951   9.545  0.8900 -0.0214  1.1985
   21MOL0     N 2811   3.426   2.255   9.176  0.5267 -0.4667 -0.3249
   21MOL0     N 2812   3.319   2.327   9.173 -0.0268 -0.3852 -0.7270
   21MOL0     C 2813   2.504   2.505   8.138  0.0019 -1.1699 -0.1047
   21MOL0     C 2814   2.429   2.478   8.020 -0.2301  0.3932 -0.1144
   21MOL0     C 2815   2.104   2.475   7.744  1.0743  0.6362  0.6694
   21MOL0     C 2816   2.157   2.365   7.680 -0.3137  0.3332  0.3347
   21MOL0     C 2817   2.077   2.279   7.609 -0.0992  0.2299  0.1095
   21MOL0     C 2818   1.944   2.299   7.593 -0.0416  0.0666  0.5774
   21MOL0     O 2819   1.879   2.202   7.525  0.6909 -0.4586  0.4928
   21MOL0     C 2820   1.741   2.224   7.478  0.2010 -0.0806  0.4893
   21MOL0     C 2821   1.630   2.184   7.580 -0.3246 -0.0456 -0.0402
   21MOL0     C 2822   1.484   2.235   7.536  0.1078  0.8465  0.4923
   21MOL0     C 2823   1.472   2.386   7.542  0.2458  0.7767  0.8120
   21MOL0     C 2824   1.454   2.436   7.674 -0.1697 -0.1836  0.3146
   21MOL0     C 2825   1.431   2.480   7.785 -0.3470  0.3463  0.2398
   21MOL0     C 2826   1.888   2.417   7.642  0.1656 -0.2716  0.1611
   21MOL0     C 2827   1.968   2.506   7.714  1.0502 -0.2990  0.2542
   21MOL0     C 2828   1.890   2.628   7.762 -0.3457 -0.2686  0.5443
   21MOL0     H 2829   2.412   2.777   7.881  2.3611  1.5782  0.8905
   21MOL0     H 2830   2.550   2.836   8.077 -2.7907  1.3289 -1.9372
   21MOL0     H 2831   2.782   2.534   8.231  2.6833 -2.6634  3.4842
   21MOL0     H 2832   2.674   2.487   8.361 -0.3169  0.2401 -0.5418
   21MOL0     H 2833   2.860   2.724   8.376 -1.9492  0.2645 -2.2881
   21MOL0     H 2834   2.745   2.661   8.494  2.0692 -0.9287  1.5087
   21MOL0     H 2835   2.869   2.447   8.496  0.0883  0.2630  0.8892
   21MOL0     H 2836   3.008   2.524   8.413  0.4364  1.1495  0.3349
   21MOL0     H 2837   3.024   2.706   8.595 -1.4532  1.2508 -0.4026
   21MOL0     H 2838   2.881   2.631   8.664  0.2119 -1.3575  1.6437
   21MOL0     H 2839   3.122   2.459   8.639 -0.2727  0.3219 -0.3445
   21MOL0     H 2840   2.973   2.440   8.744  2.5569  0.0094  2.5605
   21MOL0     H 2841   3.194   2.645   8.783  1.0871 -0.3893  0.9475
   21MOL0     H 2842   3.060   2.609   8.903  0.1228  0.2240  1.0461
   21MOL0     H 2843   3.299   2.442   8.828  4.2130 -0.3820  3.7175
   21MOL0     H 2844   3.154   2.373   8.903 -0.2476  0.9340 -0.3484
   21MOL0     H 2845   3.306   2.613   9.021  2.3419 -2.2396  0.1202
   21MOL0     H 2846   3.175   2.534   9.099 -1.3814 -1.2479 -0.5432
   21MOL0     H 2847   3.537   2.480   8.973  1.2092 -1.1201 -1.1314
   21MOL0     H 2848   3.730   2.275   9.094 -0.2897  1.2945 -2.9240
   21MOL0     H 2849   3.657   2.233   8.937 -0.9794  1.8259  0.4209
   21MOL0     H 2850   3.554   2.034   9.120  0.4927 -0.8340  1.4560
   21MOL0     H 2851   3.695   2.009   9.018  3.3372  0.6913  0.6593
   21MOL0     H 2852   3.759   1.940   9.235  3.0825  0.6830 -0.7329
   21MOL0     H 2853   3.844   2.088   9.205 -0.9707  0.9543 -2.1274
   21MOL0     H 2854   3.662   2.211   9.318  1.7378 -0.8406 -1.4973
   21MOL0     H 2855   3.598   2.059   9.378 -1.4618  1.3562  1.6551
   21MOL0     H 2856   3.598   1.996   9.565 -0.0298  1.0642  0.4685
   21MOL0     H 2857   3.545   1.774   9.804  1.1479  1.1437  0.7884
   21MOL0     H 2858   3.561   1.653   9.669 -1.9257  1.7688 -2.8363
   21MOL0     H 2859   3.486   1.804   9.647  0.0081  1.7801  2.3742
   21MOL0     H 2860   4.154   1.458   9.881  2.3956 -3.3854  2.5490
   21MOL0     H 2861   4.122   1.264  10.018 -1.1929 -1.8046  0.0467
   21MOL0     H 2862   4.021   0.932  10.086  0.5082 -0.0666  0.1135
   21MOL0     H 2863   4.125   1.044  10.008 -1.8198  1.9450 -1.6409
   21MOL0     H 2864   4.113   1.186  10.217 -1.1326  0.8195  0.1869
   21MOL0     H 2865   3.999   1.067  10.285 -0.3836  0.5061 -2.4609
   21MOL0     H 2866   4.265   0.987  10.182  1.6159 -0.4367  0.5985
   21MOL0     H 2867   4.146   0.890  10.268 -1.9832  1.4372 -0.5866
   21MOL0     H 2868   4.206   1.104  10.445  0.8530  1.4955 -0.2617
   21MOL0     H 2869   4.353   1.098  10.348  1.2765 -0.9101 -0.3350
   21MOL0     H 2870   4.244   0.875  10.543 -1.2396  1.2353 -0.5307
   21MOL0     H 2871   4.354   0.821  10.428  1.3438 -2.9959  3.4794
   21MOL0     H 2872   4.528   0.984  10.491 -0.3312 -0.9392 -1.6076
   21MOL0     H 2873   4.483   0.856  10.600 -0.9405  0.9610  2.2112
   21MOL0     H 2874   4.367   1.142  10.607  1.0264 -0.1896 -1.9628
   21MOL0     H 2875   4.512   1.085  10.705  0.4775  2.1638 -1.8737
   21MOL0     H 2876   4.230   0.951  10.757  2.0375 -2.9763  2.4709
   21MOL0     H 2877   4.257   1.112  10.804  1.4522  0.9409  0.7113
   21MOL0     H 2878   3.737   1.187   9.852  0.9928 -1.4715  0.9069
   21MOL0     H 2879   3.758   1.384   9.718 -0.4738 -0.1132  0.7270
   21MOL0     H 2880   4.041   1.795   9.628  0.8328  1.6555  0.9946
   21MOL0     H 2881   4.020   1.995   9.493 -1.2613 -2.0110 -4.7597
   21MOL0     H 2882   2.542   2.421   8.195  2.8135  0.7628  1.1446
   21MOL0     H 2883   2.384   2.382   7.998  1.7983 -0.1779 -2.1486
   21MOL0     H 2884   2.265   2.350   7.684 -0.6813 -3.9266 -0.3790
   21MOL0     H 2885   2.127   2.193   7.566 -1.0387  1.0675 -2.8541
   21MOL0     H 2886   1.735   2.329   7.448  2.8848  0.0285  0.1394
   21MOL0     H 2887   1.721   2.171   7.384 -0.1855  0.2431  0.3847
   21MOL0     H 2888   1.656   2.227   7.677  0.7091  1.8728 -1.1008
   21MOL0     H 2889   1.624   2.075   7.581 -0.0442 -0.1653 -2.9499
   21MOL0     H 2890   1.466   2.200   7.434 -2.6229 -0.6326  1.3614
   21MOL0     H 2891   1.413   2.197   7.611 -0.0123  2.9668  1.5478
   21MOL0     H 2892   1.383   2.413   7.484 -1.6970 -0.1517  3.1403
   21MOL0     H 2893   1.548   2.443   7.488 -1.6564  3.9232  1.1628
   21MOL0     H 2894   1.415   2.509   7.887  0.2981  1.4413  0.0464
   21MOL0     H 2895   1.785   2.445   7.624  0.0376 -1.0806 -0.4634
   21MOL0     H 2896   1.952   2.710   7.800  1.5456 -0.9783 -0.8566
   21MOL0     H 2897   1.813   2.665   7.694 -2.0796 -1.6279  1.6794
   21MOL0     H 2898   1.844   2.582   7.850  0.7155 -2.8572 -0.1612
   22MOL0     O 2899  10.245   1.973   4.741  0.3546 -1.0996  0.7327
   22MOL0     C 2900  10.180   1.885   4.690 -0.6084 -0.8080 -0.5600
   22MOL0     O 2901  10.094   1.901   4.581 -0.3274 -0.4319 -0.5563
   22MOL0     C 2902  10.061   2.028   4.541  0.8196  0.6514  0.1006
   22MOL0     C 2903  10.046   2.054   4.396 -0.6864 -0.2252 -1.1452
   22MOL0     C 2904   9.989   2.179   4.360 -0.7512 -0.3877 -0.2467
   22MOL0     C 2905   9.935   2.269   4.453 -0.1097 -0.2244 -0.4823
   22MOL0     O 2906   9.860   2.383   4.421 -0.0328  0.7792 -0.0735
   22MOL0     C 2907   9.907   2.477   4.327 -0.1100 -0.0510 -0.6781
   22MOL0     C 2908   9.793   2.565   4.269  0.2862  0.1780  0.3918
   22MOL0     C 2909   9.707   2.635   4.375 -0.1547 -0.0049 -0.0399
   22MOL0     C 2910   9.778   2.765   4.415  0.2468 -0.3942  0.4040
   22MOL0     C 2911   9.684   2.871   4.493 -0.2600  0.0623 -0.4076
   22MOL0     C 2912   9.754   2.994   4.553  0.8983 -0.6663  0.6078
   22MOL0     C 2913   9.649   3.090   4.617  0.3199  0.5526 -0.6150
   22MOL0     C 2914   9.709   3.180   4.728  0.0972 -0.0389  0.9600
   22MOL0     N 2915   9.636   3.310   4.735  0.3059  0.1293  1.3209
   22MOL0     C 2916   9.697   3.421   4.695  0.2065 -1.6213 -0.1692
   22MOL0     C 2917   9.619   3.529   4.731 -0.2018  0.2911 -0.4011
   22MOL0     C 2918   9.630   3.674   4.718  0.4161  0.1022 -0.5105
   22MOL0     C 2919   9.575   3.749   4.841 -0.8765 -0.4147 -0.4988
   22MOL0     C 2920   9.601   3.897   4.826  0.4162 -0.9732 -0.0331
   22MOL0     C 2921   9.748   3.941   4.861 -0.2939  0.8023 -1.3248
   22MOL0     O 2922   9.780   3.901   4.996 -0.1666 -0.4396  0.5749
   22MOL0     C 2923   9.724   3.991   5.102  1.5861  0.5768  0.7950
   22MOL0     C 2924   9.737   3.942   5.230  0.4327 -0.1913 -0.3564
   22MOL0     C 2925   9.698   4.020   5.345  0.3621 -0.2642 -0.3981
   22MOL0     C 2926   9.719   3.949   5.476  0.8693 -0.0408  1.1807
   22MOL0     C 2927   9.641   4.146   5.333 -0.4196 -0.0450  0.9357
   22MOL0     C 2928   9.594   4.232   5.444  0.6563 -0.6017 -0.1220
   22MOL0     O 2929   9.476   4.292   5.411  0.0061  0.3405 -0.1555
   22MOL0     C 2930   9.397   4.349   5.513  0.7584 -0.0739  0.5449
   22MOL0     C 2931   9.258   4.356   5.494  0.0854 -0.1072  0.4112
   22MOL0     C 2932   9.176   4.440   5.575  0.4236  0.5481 -0.9719
   22MOL0     C 2933   9.232   4.506   5.673 -0.0586 -0.0912 -1.3198
   22MOL0     O 2934   9.154   4.603   5.735 -0.5713  0.3535 -0.2372
   22MOL0     C 2935   9.136   4.591   5.881  0.4461 -0.3446 -0.4576
   22MOL0     C 2936   9.049   4.710   5.930 -0.1573 -1.3304  0.7560
   22MOL0     C 2937   9.106   4.844   5.890 -0.6058 -0.1710 -0.1180
   22MOL0     C 2938   9.028   4.964   5.965  0.0198 -0.1857  0.2574
   22MOL0     C 2939   9.085   5.103   5.934  0.7204  0.7800 -0.1213
   22MOL0     C 2940   9.195   5.147   6.029  0.2511  0.1331  0.2743
   22MOL0     C 2941   9.231   5.294   6.030  0.9905  0.0848  0.8889
   22MOL0     C 2942   9.290   5.345   5.897  0.2597  0.4106 -0.4837
   22MOL0    Cl 2943   9.369   5.505   5.912 -0.0608  0.7165  0.4093
   22MOL0     C 2944   9.367   4.488   5.703  0.9048 -0.7367 -0.7606
   22MOL0     C 2945   9.451   4.412   5.626 -1.1895 -0.5392  0.3979
   22MOL0     O 2946   9.643   4.212   5.557  0.4711  0.5608 -0.0714
   22MOL0     C 2947   9.632   4.190   5.199  0.2798 -0.2918  0.6201
   22MOL0     C 2948   9.675   4.120   5.087  0.2256  0.4592  0.0559
   22MOL0     N 2949   9.507   3.471   4.788 -1.1095 -0.0988 -0.5398
   22MOL0     N 2950   9.516   3.346   4.790  0.1800 -0.3577 -0.7244
   22MOL0     C 2951   9.932   2.234   4.583  0.1340 -0.2479 -1.2768
   22MOL0     C 2952  10.003   2.120   4.626  0.3683 -0.1889 -0.8575
   22MOL0     C 2953  10.197   1.747   4.740 -0.4705 -0.1693 -0.9576
   22MOL0     C 2954  10.183   1.640   4.651  0.1609  0.6039  0.6806
   22MOL0     C 2955  10.185   1.494   4.687  0.4055  0.0627  0.5793
   22MOL0     C 2956  10.197   1.462   4.823  0.3327 -0.0072  0.3827
   22MOL0     O 2957  10.192   1.334   4.854 -0.6223 -0.5901  0.1367
   22MOL0     C 2958  10.212   1.293   4.989 -0.1299 -0.5469  0.4562
   22MOL0     C 2959  10.196   1.135   4.990  0.0060  0.3210  0.0456
   22MOL0     C 2960  10.293   1.060   4.887  0.9328  0.5386  1.3062
   22MOL0     C 2961  10.226   0.940   4.814 -1.6047  0.0842 -0.5498
   22MOL0     C 2962  10.175   0.835   4.910  1.0711  0.4770  0.3431
   22MOL0     C 2963  10.108   0.767   4.987  0.7476 -0.0821  0.6308
   22MOL0     C 2964  10.216   1.571   4.912 -0.2459  0.4252  0.3020
   22MOL0     C 2965  10.217   1.707   4.877 -0.2435 -0.0309  0.3937
   22MOL0     C 2966  10.220   1.800   4.993  0.7416 -0.0853 -0.1317
   22MOL0     H 2967  10.095   1.980   4.333  3.3759 -0.8922  2.3341
   22MOL0     H 2968   9.970   2.208   4.257 -3.2435  3.8998  1.1458
   22MOL0     H 2969   9.958   2.423   4.246 -4.1674 -2.8951 -1.6264
   22MOL0     H 2970   9.957   2.555   4.384 -1.3084  0.0090  0.3154
   22MOL0     H 2971   9.830   2.633   4.192  0.9636  0.6036  1.0726
   22MOL0     H 2972   9.734   2.493   4.213  1.5751 -0.1892 -0.5367
   22MOL0     H 2973   9.611   2.660   4.329  0.6296  1.1558 -1.0961
   22MOL0     H 2974   9.684   2.571   4.461  1.9832 -0.9136 -0.0805
   22MOL0     H 2975   9.859   2.742   4.484 -0.8978 -0.8580  1.6277
   22MOL0     H 2976   9.816   2.813   4.324  1.8915  0.1791  1.3485
   22MOL0     H 2977   9.635   2.814   4.573 -2.1366 -1.1390 -2.3153
   22MOL0     H 2978   9.602   2.906   4.430 -0.4780  0.5207  0.1206
   22MOL0     H 2979   9.823   2.964   4.632 -0.0427  0.9847  2.1369
   22MOL0     H 2980   9.808   3.047   4.475 -0.1462 -0.8086 -0.2244
   22MOL0     H 2981   9.564   3.030   4.648  0.7367  1.1847  2.0072
   22MOL0     H 2982   9.605   3.148   4.535 -1.6481 -2.8006 -2.0996
   22MOL0     H 2983   9.718   3.121   4.820  0.9503 -0.5318  0.5767
   22MOL0     H 2984   9.815   3.202   4.709 -0.7869  2.2680 -1.9561
   22MOL0     H 2985   9.798   3.420   4.654 -0.2535 -2.1845 -1.3487
   22MOL0     H 2986   9.575   3.705   4.629 -2.5370 -0.4973  0.9923
   22MOL0     H 2987   9.738   3.693   4.709  0.9063 -2.0626  0.2493
   22MOL0     H 2988   9.469   3.722   4.848 -0.7494 -0.5467  1.7715
   22MOL0     H 2989   9.615   3.715   4.937 -3.2736  1.1777  1.1586
   22MOL0     H 2990   9.575   3.916   4.722 -1.7009 -6.4549 -0.8505
   22MOL0     H 2991   9.539   3.960   4.891  1.6309 -0.1943  0.4110
   22MOL0     H 2992   9.810   3.890   4.786 -2.6310  1.4867 -3.8782
   22MOL0     H 2993   9.767   4.048   4.852 -0.5079  1.1430  1.4153
   22MOL0     H 2994   9.773   3.841   5.249 -1.1983 -0.2022  3.7156
   22MOL0     H 2995   9.758   3.848   5.458 -0.6778 -0.6630  1.1954
   22MOL0     H 2996   9.626   3.950   5.533 -0.2371  3.2183 -0.4515
   22MOL0     H 2997   9.789   4.001   5.541 -0.2659  0.3097  2.1480
   22MOL0     H 2998   9.216   4.316   5.402 -3.7174  2.5631  0.7280
   22MOL0     H 2999   9.070   4.463   5.576 -0.0302 -1.3444 -0.6036
   22MOL0     H 3000   9.080   4.499   5.900 -0.9044  0.6605  0.7402
   22MOL0     H 3001   9.230   4.605   5.934  0.2075 -1.6733  0.3659
   22MOL0     H 3002   8.949   4.700   5.888  0.1845  0.1817 -0.5482
   22MOL0     H 3003   9.040   4.715   6.039  0.3370  1.6394  0.7471
   22MOL0     H 3004   9.091   4.862   5.783  2.1939  1.5953 -0.3190
   22MOL0     H 3005   9.212   4.851   5.916  0.3644 -2.0501 -3.1104
   22MOL0     H 3006   9.018   4.942   6.072  1.6315 -0.2520  0.4128
   22MOL0     H 3007   8.927   4.973   5.925  0.4951  2.7369 -0.5146
   22MOL0     H 3008   9.112   5.111   5.829  0.0147  1.2998 -0.2710
   22MOL0     H 3009   9.007   5.179   5.941 -1.8813 -1.6956 -0.1423
   22MOL0     H 3010   9.296   5.105   6.019  1.1742  1.9855  1.4132
   22MOL0     H 3011   9.152   5.134   6.129  3.2122 -0.1665  1.6016
   22MOL0     H 3012   9.296   5.318   6.114  2.0815  0.8900 -0.1521
   22MOL0     H 3013   9.137   5.348   6.048 -0.9137 -1.7395 -2.5229
   22MOL0     H 3014   9.215   5.349   5.817 -2.9770 -2.6476  2.0864
   22MOL0     H 3015   9.371   5.282   5.859  0.5060  2.0027 -2.8542
   22MOL0     H 3016   9.417   4.545   5.781 -0.9595  1.2836 -0.9438
   22MOL0     H 3017   9.548   4.378   5.661 -0.7986 -0.4230 -0.5578
   22MOL0     H 3018   9.590   4.289   5.182  2.6920  0.7709  0.3714
   22MOL0     H 3019   9.666   4.152   4.984  0.9192 -1.3061 -0.5885
   22MOL0     H 3020   9.883   2.299   4.655 -0.5962 -0.6691 -1.3761
   22MOL0     H 3021  10.005   2.102   4.733 -2.1509  0.7707 -0.5814
   22MOL0     H 3022  10.168   1.663   4.546  0.6022  1.2538  0.7505
   22MOL0     H 3023  10.174   1.420   4.608 -1.5406  1.4955 -0.5914
   22MOL0     H 3024  10.313   1.318   5.021 -0.0402  1.0946 -0.9423
   22MOL0     H 3025  10.136   1.333   5.056  0.3097 -1.4439  1.5300
   22MOL0     H 3026  10.091   1.111   4.968  0.3349 -2.5419  1.1986
   22MOL0     H 3027  10.209   1.105   5.094 -1.4022  2.3374  0.8904
   22MOL0     H 3028  10.327   1.128   4.808 -2.6643  1.3424  0.2582
   22MOL0     H 3029  10.381   1.014   4.935 -0.9699 -2.2264  2.3793
   22MOL0     H 3030  10.279   0.895   4.728 -1.3602  2.1380 -1.5279
   22MOL0     H 3031  10.144   0.988   4.760 -1.7501  1.8757  1.1583
   22MOL0     H 3032  10.032   0.710   5.035  0.5101 -0.6845 -0.4116
   22MOL0     H 3033  10.230   1.556   5.018  1.0635 -1.6800 -0.0922
   22MOL0     H 3034  10.116   1.824   5.017 -0.4333 -0.5233 -4.0643
   22MOL0     H 3035  10.269   1.750   5.077  0.5330 -0.0876 -0.0095
   22MOL0     H 3036  10.270   1.896   4.979 -0.2973  0.7251  1.4606
   23MOL0     O 3037   8.585   6.786   2.615  0.5342  0.1175 -0.1119
   23MOL0     C 3038   8.494   6.737   2.677 -0.2032  0.1556 -0.2829
   23MOL0     O 3039   8.465   6.601   2.691  0.0316 -0.3074  0.1873
   23MOL0     C 3040   8.553   6.524   2.628  0.3922  0.8670 -0.2322
   23MOL0     C 3041   8.696   6.508   2.661 -0.5299  0.1683 -0.4652
   23MOL0     C 3042   8.780   6.437   2.571  0.6410 -0.3152  0.8245
   23MOL0     C 3043   8.733   6.371   2.462  0.7237  0.3813  0.2560
   23MOL0     O 3044   8.806   6.323   2.364 -0.3704 -0.8403 -0.3093
   23MOL0     C 3045   8.858   6.431   2.284 -0.1273  0.3878  0.6881
   23MOL0     C 3046   8.823   6.409   2.138 -0.7403  0.2557  0.0199
   23MOL0     C 3047   8.678   6.438   2.092  0.2361  1.0218  0.4195
   23MOL0     C 3048   8.687   6.449   1.946 -0.0670  0.0592  0.1851
   23MOL0     C 3049   8.552   6.500   1.899 -0.3011  0.1800 -0.4418
   23MOL0     C 3050   8.541   6.515   1.749 -0.0256 -0.1132  0.3770
   23MOL0     C 3051   8.510   6.385   1.686  0.4171  0.5417 -0.5953
   23MOL0     C 3052   8.524   6.380   1.527  0.3703  0.3089 -0.4540
   23MOL0     N 3053   8.434   6.479   1.456 -0.6605  0.9485 -0.3681
   23MOL0     C 3054   8.320   6.445   1.390  0.1753  0.5804  0.5693
   23MOL0     C 3055   8.270   6.569   1.344 -0.2597  0.8879 -0.7473
   23MOL0     C 3056   8.167   6.593   1.233  0.1950  0.9146 -0.7863
   23MOL0     C 3057   8.217   6.644   1.095  0.4478 -0.0048 -0.3224
   23MOL0     C 3058   8.222   6.795   1.105 -0.3976  0.7796  0.2168
   23MOL0     C 3059   8.239   6.837   0.966 -1.1072 -0.6180 -0.0245
   23MOL0     O 3060   8.284   6.971   0.960 -0.5604  0.5045  0.1442
   23MOL0     C 3061   8.224   7.057   0.866 -0.6004 -0.2826  0.5363
   23MOL0     C 3062   8.161   7.165   0.921 -0.0104 -0.0679  0.5590
   23MOL0     C 3063   8.096   7.260   0.846 -0.2406 -0.0740  0.1613
   23MOL0     C 3064   8.041   7.377   0.924  0.9007  0.8494 -0.4230
   23MOL0     C 3065   8.080   7.237   0.708  0.2574  0.2693  1.0407
   23MOL0     C 3066   8.025   7.349   0.625 -0.4591 -0.3242 -0.0358
   23MOL0     O 3067   8.106   7.453   0.608 -0.0111 -0.3734  0.2211
   23MOL0     C 3068   8.062   7.566   0.533 -0.5970  0.4547 -0.2881
   23MOL0     C 3069   8.109   7.683   0.573 -0.9117 -0.6176 -0.6923
   23MOL0     C 3070   8.078   7.796   0.497 -0.8976 -0.2914 -0.2621
   23MOL0     C 3071   8.002   7.790   0.387  0.5275  0.3667  0.5669
   23MOL0     O 3072   7.973   7.907   0.320 -0.6350  0.0060  0.3634
   23MOL0     C 3073   7.954   7.910   0.177 -0.4297 -0.8188 -0.3944
   23MOL0     C 3074   7.943   8.064   0.145 -0.2602  1.1676 -0.3140
   23MOL0     C 3075   7.922   8.072  -0.011  0.0845  0.3246 -0.1977
   23MOL0     C 3076   8.066   8.076  -0.077 -1.1080  0.9150  0.1929
   23MOL0     C 3077   8.075   8.102  -0.224  0.5828 -0.4499  0.3085
   23MOL0     C 3078   8.218   8.109  -0.264 -0.5251 -0.4550 -0.0299
   23MOL0     C 3079   8.255   8.185  -0.389  0.0348  0.7513 -1.3977
   23MOL0     C 3080   8.242   8.334  -0.368 -0.5751 -0.0191 -0.3786
   23MOL0    Cl 3081   8.285   8.423  -0.500  0.0088 -0.1961  0.0231
   23MOL0     C 3082   7.947   7.666   0.350  0.2024  0.2641  0.2380
   23MOL0     C 3083   7.986   7.553   0.409  0.1508  1.0690  0.3141
   23MOL0     O 3084   7.924   7.318   0.558  0.2110 -0.3545 -0.2562
   23MOL0     C 3085   8.132   7.119   0.651  1.1585 -0.1629 -0.0703
   23MOL0     C 3086   8.212   7.030   0.722  0.3714  0.0043 -0.2457
   23MOL0     N 3087   8.366   6.663   1.385  0.2174 -0.3018  0.7095
   23MOL0     N 3088   8.464   6.610   1.457  0.4444  0.1660  0.0119
   23MOL0     C 3089   8.587   6.373   2.431  0.4245  0.3202 -0.8781
   23MOL0     C 3090   8.506   6.464   2.509  0.5827 -0.2341  0.4213
   23MOL0     C 3091   8.397   6.820   2.741  0.2086  0.0541  0.1966
   23MOL0     C 3092   8.351   6.936   2.678  0.8716 -0.1486  0.5655
   23MOL0     C 3093   8.240   7.009   2.725  1.0435  0.3196  0.4283
   23MOL0     C 3094   8.180   6.971   2.842 -0.3512  0.4371  0.2849
   23MOL0     O 3095   8.070   7.039   2.887 -0.9982  0.4879 -0.1427
   23MOL0     C 3096   8.083   7.098   3.020  0.2200 -0.3530  1.5577
   23MOL0     C 3097   7.974   7.202   3.040  0.1821 -0.5157 -0.5122
   23MOL0     C 3098   7.829   7.151   3.034  0.1418 -0.0302  0.1000
   23MOL0     C 3099   7.724   7.257   3.044  0.3451  0.4825  0.9653
   23MOL0     C 3100   7.704   7.335   2.920 -0.2980 -1.2502 -0.1610
   23MOL0     C 3101   7.676   7.402   2.824 -0.0397 -0.8410 -0.6538
   23MOL0     C 3102   8.232   6.861   2.912 -0.1555 -0.7572 -0.1678
   23MOL0     C 3103   8.339   6.779   2.862  0.9304  0.1717  0.2680
   23MOL0     C 3104   8.395   6.666   2.949  0.2765 -0.7425 -0.1445
   23MOL0     H 3105   8.737   6.542   2.755 -3.4460 -3.2334  2.3407
   23MOL0     H 3106   8.885   6.438   2.596  0.5888 -0.0155  1.0222
   23MOL0     H 3107   8.967   6.430   2.290  0.1499  1.8956 -2.1914
   23MOL0     H 3108   8.831   6.528   2.328  0.2446  1.3585 -1.1502
   23MOL0     H 3109   8.889   6.478   2.084 -0.3124  2.3329  2.9367
   23MOL0     H 3110   8.849   6.303   2.124  0.0167  0.5137 -0.5754
   23MOL0     H 3111   8.610   6.358   2.125  0.1634  1.1711  0.6307
   23MOL0     H 3112   8.642   6.523   2.151 -1.2645  0.4705  0.3595
   23MOL0     H 3113   8.767   6.522   1.930  0.4945 -0.5903 -0.0168
   23MOL0     H 3114   8.712   6.355   1.896 -0.5029  1.0839 -2.0760
   23MOL0     H 3115   8.538   6.593   1.954  0.3949  1.4866 -2.3598
   23MOL0     H 3116   8.470   6.437   1.934  0.3913 -1.0312 -0.9216
   23MOL0     H 3117   8.459   6.584   1.729  1.8381  2.0924 -0.0898
   23MOL0     H 3118   8.629   6.560   1.702 -1.7253 -0.1552 -3.2066
   23MOL0     H 3119   8.406   6.361   1.707 -0.2383  0.4709 -3.4644
   23MOL0     H 3120   8.570   6.298   1.716  0.7736  1.3210  1.0594
   23MOL0     H 3121   8.630   6.406   1.514 -0.2162  2.5828 -1.1313
   23MOL0     H 3122   8.510   6.280   1.487  0.9361 -0.3072  0.8323
   23MOL0     H 3123   8.295   6.340   1.381 -1.2387  0.6901  2.5334
   23MOL0     H 3124   8.088   6.657   1.274  2.5293  3.1528  0.4993
   23MOL0     H 3125   8.113   6.499   1.217  2.7159 -0.7002 -0.3185
   23MOL0     H 3126   8.317   6.602   1.077  0.7316  0.4565  0.1559
   23MOL0     H 3127   8.148   6.602   1.021 -1.1776 -2.1925  2.2329
   23MOL0     H 3128   8.131   6.839   1.148 -1.8212 -1.4966 -0.2655
   23MOL0     H 3129   8.310   6.820   1.164  0.6728 -1.3437 -0.3864
   23MOL0     H 3130   8.317   6.776   0.919  0.2705  0.1266  1.2311
   23MOL0     H 3131   8.144   6.817   0.916  0.0587 -0.7916 -2.3249
   23MOL0     H 3132   8.171   7.179   1.028 -0.8714  1.1924  0.4996
   23MOL0     H 3133   8.110   7.459   0.949 -0.1303  1.4792  0.4781
   23MOL0     H 3134   8.004   7.342   1.021 -0.0427 -0.4655 -1.2295
   23MOL0     H 3135   7.959   7.425   0.870 -0.2656  1.0339  1.4186
   23MOL0     H 3136   8.164   7.706   0.664 -0.0559  0.8477 -1.5504
   23MOL0     H 3137   8.115   7.895   0.523 -0.6631 -0.7988  1.4362
   23MOL0     H 3138   8.048   7.872   0.136 -1.5056 -0.7339 -3.1347
   23MOL0     H 3139   7.863   7.862   0.138 -1.1208  0.3717 -0.2776
   23MOL0     H 3140   7.848   8.089   0.193 -1.1144  1.6135 -2.1734
   23MOL0     H 3141   8.036   8.111   0.178  1.8060 -3.4544  1.3611
   23MOL0     H 3142   7.866   8.163  -0.037  1.9154  1.8960  1.0500
   23MOL0     H 3143   7.854   7.998  -0.054  1.2270 -0.1239 -1.2713
   23MOL0     H 3144   8.123   7.985  -0.059 -2.8636 -0.3806 -0.5400
   23MOL0     H 3145   8.125   8.147  -0.016 -1.8210 -0.2229  2.3193
   23MOL0     H 3146   8.009   8.034  -0.280 -1.1970  0.2983  1.3958
   23MOL0     H 3147   8.031   8.201  -0.239  1.6045  0.5409  3.2422
   23MOL0     H 3148   8.244   8.005  -0.285  3.5486 -0.3832  3.3381
   23MOL0     H 3149   8.273   8.145  -0.177 -0.7468 -1.5728  0.5870
   23MOL0     H 3150   8.198   8.145  -0.473 -1.5963  0.0042  0.0237
   23MOL0     H 3151   8.358   8.162  -0.418  0.0248 -1.9274  0.3401
   23MOL0     H 3152   8.307   8.368  -0.288  4.0440 -0.9542 -3.3530
   23MOL0     H 3153   8.137   8.354  -0.345 -0.2518 -1.0252  2.2597
   23MOL0     H 3154   7.862   7.672   0.282 -2.2224  0.0731  3.0769
   23MOL0     H 3155   7.927   7.470   0.372 -2.4003  0.9899  3.9847
   23MOL0     H 3156   8.127   7.109   0.543  1.7724  0.2096 -0.1344
   23MOL0     H 3157   8.251   6.941   0.674  0.6732 -0.3101  0.5728
   23MOL0     H 3158   8.542   6.331   2.342 -0.7872  2.3302 -1.2580
   23MOL0     H 3159   8.400   6.480   2.488  1.1396  4.5109  0.2910
   23MOL0     H 3160   8.404   6.972   2.591  0.7727  0.9045  0.9236
   23MOL0     H 3161   8.217   7.088   2.655 -0.5509 -1.2968 -0.9989
   23MOL0     H 3162   8.086   7.028   3.104 -0.0582 -2.4512 -0.0946
   23MOL0     H 3163   8.166   7.169   3.025 -1.8863  2.6346 -1.3402
   23MOL0     H 3164   7.988   7.284   2.969  1.1774  1.1412  1.4594
   23MOL0     H 3165   7.995   7.235   3.143 -1.1770  3.1849 -1.2325
   23MOL0     H 3166   7.815   7.092   2.943  0.9293 -1.6001  0.9461
   23MOL0     H 3167   7.818   7.084   3.120  4.1693 -0.9661  0.1018
   23MOL0     H 3168   7.747   7.322   3.130  2.4321 -0.5166  1.2319
   23MOL0     H 3169   7.632   7.199   3.054  0.5558  0.1993  1.2740
   23MOL0     H 3170   7.658   7.462   2.737  0.2485  0.1794 -0.0200
   23MOL0     H 3171   8.191   6.841   3.010 -1.3630  0.3025 -0.4390
   23MOL0     H 3172   8.401   6.569   2.899 -0.0898 -2.2526  2.5236
   23MOL0     H 3173   8.494   6.695   2.984  0.4053  1.1517 -1.8896
   23MOL0     H 3174   8.323   6.644   3.029 -0.2596  1.1069 -0.0653
   24MOL0     O 3175   9.913   9.791   7.352 -0.2015  0.8855 -0.2924
   24MOL0     C 3176   9.848   9.812   7.252 -0.7064 -0.6216 -0.2847
   24MOL0     O 3177   9.853   9.747   7.136 -0.2108  0.0731 -0.3678
   24MOL0     C 3178   9.972   9.680   7.117  0.2070 -0.0780  0.0779
   24MOL0     C 3179  10.083   9.740   7.059  0.7436  0.2944  0.2396
   24MOL0     C 3180  10.191   9.669   7.025 -0.2795  0.8313  0.5714
   24MOL0     C 3181  10.212   9.535   7.053  0.7351  0.5790  0.0524
   24MOL0     O 3182  10.321   9.469   7.020  0.4373  0.6924 -0.3046
   24MOL0     C 3183  10.333   9.331   7.021 -0.4379  0.0890 -0.2873
   24MOL0     C 3184  10.471   9.293   6.959 -0.6955  0.2642 -0.4813
   24MOL0     C 3185  10.590   9.324   7.046  0.0390 -0.8571 -0.3299
   24MOL0     C 3186  10.598   9.466   7.103  0.3857  0.0036  0.1914
   24MOL0     C 3187  10.732   9.486   7.167 -0.1721 -0.1609 -0.3710
   24MOL0     C 3188  10.726   9.579   7.298 -0.4008  0.6874 -0.2795
   24MOL0     C 3189  10.671   9.499   7.419 -0.2886 -0.2769  0.2367
   24MOL0     C 3190  10.750   9.530   7.540 -0.1058  0.3459 -0.3378
   24MOL0     N 3191  10.739   9.666   7.604  0.0902  0.7135 -0.2862
   24MOL0     C 3192  10.663   9.689   7.714 -0.2091 -0.5448  0.2355
   24MOL0     C 3193  10.692   9.815   7.742 -0.8756 -1.3589 -0.9518
   24MOL0     C 3194  10.623   9.907   7.837  0.1559  0.4655  1.4743
   24MOL0     C 3195  10.656  10.052   7.809 -0.4755  0.0252 -0.1281
   24MOL0     C 3196  10.798  10.102   7.846 -0.1129 -0.4582 -0.2870
   24MOL0     C 3197  10.871  10.199   7.754  0.2416  0.4066 -0.3851
   24MOL0     O 3198  10.783  10.300   7.700  0.0521  0.5399 -0.2489
   24MOL0     C 3199  10.842  10.380   7.604 -0.9027  0.1701  0.0546
   24MOL0     C 3200  10.980  10.388   7.583  0.0591 -0.3732  0.7131
   24MOL0     C 3201  11.022  10.477   7.486  0.0854 -0.2728 -0.6838
   24MOL0     C 3202  11.171  10.503   7.462 -0.5334  0.4788  0.4786
   24MOL0     C 3203  10.927  10.543   7.406 -0.3396 -0.7163  0.4981
   24MOL0     C 3204  10.962  10.632   7.294  0.2924 -0.2975 -0.0288
   24MOL0     O 3205  10.860  10.731   7.260 -0.2382 -0.6493  0.2344
   24MOL0     C 3206  10.886  10.816   7.151 -0.4555  0.0132  0.9890
   24MOL0     C 3207  10.989  10.913   7.142 -0.0372  0.5822 -0.9817
   24MOL0     C 3208  10.993  10.986   7.020 -0.0667  0.5114 -0.0604
   24MOL0     C 3209  10.893  10.987   6.919  1.3414 -0.1744 -1.1211
   24MOL0     O 3210  10.881  11.053   6.802 -0.0815 -0.9569  0.7548
   24MOL0     C 3211  11.007  11.102   6.740 -0.1925 -0.9117  0.0013
   24MOL0     C 3212  11.002  11.254   6.775  0.1849  0.6709  0.0585
   24MOL0     C 3213  11.134  11.324   6.746 -0.0813 -0.1438  0.9850
   24MOL0     C 3214  11.107  11.472   6.707 -0.8388  0.4080 -0.5742
   24MOL0     C 3215  11.221  11.541   6.646  0.0697 -0.7742  0.7468
   24MOL0     C 3216  11.325  11.593   6.750  1.0255 -0.3613 -0.0638
   24MOL0     C 3217  11.465  11.610   6.702 -0.1507  0.0654 -0.4317
   24MOL0     C 3218  11.491  11.706   6.575  0.6388  0.4993 -0.3603
   24MOL0    Cl 3219  11.392  11.673   6.417 -0.1952  0.2320  0.3709
   24MOL0     C 3220  10.787  10.906   6.940  0.0083  0.7364  0.4784
   24MOL0     C 3221  10.786  10.822   7.052  1.0191  1.2658 -0.1939
   24MOL0     O 3222  11.067  10.612   7.229 -0.3940  0.2581 -1.0602
   24MOL0     C 3223  10.790  10.534   7.429  0.5367  0.7480 -0.0633
   24MOL0     C 3224  10.745  10.457   7.536 -0.7154  0.0886  0.3876
   24MOL0     N 3225  10.787   9.866   7.647 -0.1855 -1.1214  0.1213
   24MOL0     N 3226  10.807   9.771   7.564 -0.1081 -0.3028 -0.0845
   24MOL0     C 3227  10.099   9.470   7.103 -0.5928 -0.2985  0.3315
   24MOL0     C 3228   9.991   9.545   7.146 -0.4807 -0.3329 -0.2232
   24MOL0     C 3229   9.736   9.910   7.261 -0.1583  0.1592 -0.7893
   24MOL0     C 3230   9.612   9.867   7.226 -0.1725 -0.6537 -0.4566
   24MOL0     C 3231   9.507   9.950   7.227  0.4439  0.6303 -0.0830
   24MOL0     C 3232   9.526  10.088   7.260  0.8146 -0.3042  0.3993
   24MOL0     O 3233   9.414  10.174   7.257 -0.1089  0.1390  0.4292
   24MOL0     C 3234   9.437  10.320   7.243 -0.4911  0.2724  0.2887
   24MOL0     C 3235   9.316  10.413   7.276  0.9191  0.2874 -0.3842
   24MOL0     C 3236   9.191  10.381   7.190  0.9959 -1.0198  0.6634
   24MOL0     C 3237   9.105  10.272   7.247  0.4212  0.7571  0.6666
   24MOL0     C 3238   8.987  10.260   7.171 -0.2965  0.1611  0.1023
   24MOL0     C 3239   8.899  10.253   7.092 -0.6076 -0.7198 -0.5540
   24MOL0     C 3240   9.659  10.132   7.294 -0.1280 -0.5347  0.2079
   24MOL0     C 3241   9.760  10.040   7.296 -0.6465  0.0524  0.5741
   24MOL0     C 3242   9.900  10.096   7.327 -0.8087  0.2357  0.0696
   24MOL0     H 3243  10.079   9.849   7.056  1.7058  0.4163  2.0425
   24MOL0     H 3244  10.275   9.717   6.976  2.9726 -2.5225  2.3252
   24MOL0     H 3245  10.258   9.287   6.954  0.0645 -2.3611  0.6389
   24MOL0     H 3246  10.318   9.287   7.120 -3.5433  1.6073  0.0058
   24MOL0     H 3247  10.480   9.185   6.944  2.8572  0.3570 -0.0557
   24MOL0     H 3248  10.484   9.337   6.860 -3.9922  0.1211 -1.0950
   24MOL0     H 3249  10.609   9.255   7.128  2.9226  1.1477  0.8713
   24MOL0     H 3250  10.681   9.303   6.989  1.2144 -1.3417  1.6561
   24MOL0     H 3251  10.566   9.542   7.031  0.0281  1.5628  1.9309
   24MOL0     H 3252  10.522   9.465   7.181 -0.6667 -2.4708 -0.7600
   24MOL0     H 3253  10.799   9.523   7.088  1.7825  1.5997  1.9678
   24MOL0     H 3254  10.775   9.393   7.207 -1.6400  0.2977  2.5193
   24MOL0     H 3255  10.827   9.616   7.317 -0.0877  0.0926 -0.7566
   24MOL0     H 3256  10.668   9.665   7.261  1.4684  1.5626 -1.3359
   24MOL0     H 3257  10.672   9.391   7.405  1.2302 -0.3008  0.4298
   24MOL0     H 3258  10.565   9.524   7.435 -1.6186 -3.5126 -2.2775
   24MOL0     H 3259  10.726   9.454   7.615  0.7275 -1.0656 -1.4386
   24MOL0     H 3260  10.855   9.511   7.514 -0.3421  1.5361 -2.3456
   24MOL0     H 3261  10.589   9.623   7.759 -1.7782  0.3055 -0.9944
   24MOL0     H 3262  10.657   9.880   7.937  3.9406 -0.4014  0.1373
   24MOL0     H 3263  10.516   9.892   7.821  0.3800  1.5288 -2.0780
   24MOL0     H 3264  10.621  10.081   7.710 -3.5099 -2.6112  0.0155
   24MOL0     H 3265  10.590  10.114   7.871  2.1198  2.0775  0.7813
   24MOL0     H 3266  10.791  10.146   7.946  0.0134 -0.7967 -0.1277
   24MOL0     H 3267  10.863  10.014   7.851 -2.0241 -2.0349 -1.5488
   24MOL0     H 3268  10.948  10.252   7.810  0.9109  1.1443 -1.9437
   24MOL0     H 3269  10.916  10.139   7.675 -0.0524 -3.5684  2.1824
   24MOL0     H 3270  11.051  10.325   7.636 -2.6269 -1.3956  3.3645
   24MOL0     H 3271  11.229  10.486   7.553  0.4099  0.2477 -0.1521
   24MOL0     H 3272  11.193  10.607   7.437 -1.5097  0.7772  0.8333
   24MOL0     H 3273  11.198  10.441   7.376  0.8369  3.0070 -1.0315
   24MOL0     H 3274  11.065  10.920   7.219 -0.4000 -1.2994 -0.4225
   24MOL0     H 3275  11.065  11.066   7.010 -0.9598  1.1740 -1.2918
   24MOL0     H 3276  11.095  11.061   6.791  0.1119  2.4267  2.4793
   24MOL0     H 3277  11.016  11.076   6.634  1.8039 -1.2521  0.2090
   24MOL0     H 3278  10.914  11.300   6.727  0.4368  1.5988  0.4605
   24MOL0     H 3279  10.987  11.274   6.882  0.0971 -0.4837  0.2769
   24MOL0     H 3280  11.179  11.269   6.663  0.8421 -3.2568  3.3755
   24MOL0     H 3281  11.202  11.323   6.832 -1.9207 -1.1449  2.4971
   24MOL0     H 3282  11.066  11.529   6.791  0.6047 -0.4087  0.7432
   24MOL0     H 3283  11.030  11.482   6.630 -1.3461  1.1344  0.0135
   24MOL0     H 3284  11.274  11.464   6.589 -2.1318 -0.9897 -1.1451
   24MOL0     H 3285  11.189  11.623   6.582  1.2991 -0.4579  0.5091
   24MOL0     H 3286  11.326  11.535   6.843  1.9751 -0.1623  0.0554
   24MOL0     H 3287  11.283  11.691   6.771 -1.2863 -0.9568 -1.4610
   24MOL0     H 3288  11.504  11.512   6.672  2.3195  0.6994  0.4952
   24MOL0     H 3289  11.532  11.651   6.777  0.2139  0.5266 -1.0004
   24MOL0     H 3290  11.597  11.689   6.554  0.3975 -2.9703  0.5565
   24MOL0     H 3291  11.470  11.811   6.595 -2.6819  0.1670 -1.4895
   24MOL0     H 3292  10.703  10.908   6.871  1.5115  1.3155 -1.4433
   24MOL0     H 3293  10.701  10.758   7.076 -0.3737  2.5618 -1.4245
   24MOL0     H 3294  10.712  10.587   7.375 -0.9489 -2.1253 -0.9471
   24MOL0     H 3295  10.638  10.449   7.546 -0.7196 -2.3828 -0.7282
   24MOL0     H 3296  10.110   9.364   7.124  2.1517 -0.2456 -0.4440
   24MOL0     H 3297   9.907   9.488   7.182 -1.3602 -0.7738 -2.8431
   24MOL0     H 3298   9.601   9.761   7.206  2.0510 -0.7116 -1.7213
   24MOL0     H 3299   9.408   9.912   7.203  0.5885 -1.0991  1.7830
   24MOL0     H 3300   9.515  10.364   7.306  0.3041 -1.0413  0.2645
   24MOL0     H 3301   9.461  10.342   7.139  0.4564  0.6423  0.5746
   24MOL0     H 3302   9.336  10.520   7.261 -0.2152  0.5395 -0.2155
   24MOL0     H 3303   9.302  10.392   7.383  4.8283 -5.0777 -0.5717
   24MOL0     H 3304   9.137  10.476   7.201  1.2018 -0.7616 -0.5096
   24MOL0     H 3305   9.218  10.363   7.086 -0.8823  2.3478 -0.5361
   24MOL0     H 3306   9.089  10.275   7.355 -0.5896 -2.3976  0.7090
   24MOL0     H 3307   9.157  10.181   7.214  0.3651  1.1419 -0.5215
   24MOL0     H 3308   8.832  10.241   7.009  1.4079 -0.6212 -2.2783
   24MOL0     H 3309   9.682  10.231   7.331 -1.8308  0.0367 -0.1878
   24MOL0     H 3310   9.904  10.203   7.304  1.3956 -0.2200 -2.0889
   24MOL0     H 3311   9.934  10.073   7.429  1.4859 -0.2971 -0.7576
   24MOL0     H 3312   9.978  10.063   7.257  1.5610 -1.6241  3.2858
   25MOL0     O 3313  10.958   8.558   6.721 -0.0623 -0.2746 -0.6394
   25MOL0     C 3314  10.900   8.570   6.830 -0.1171  0.0947 -0.5332
   25MOL0     O 3315  10.951   8.532   6.952  0.1122  0.4330 -0.2641
   25MOL0     C 3316  11.089   8.520   6.966  0.1559  1.1828 -0.1391
   25MOL0     C 3317  11.140   8.438   7.070  0.3774 -0.6756 -0.1585
   25MOL0     C 3318  11.281   8.416   7.078  0.2922  0.8967 -0.1996
   25MOL0     C 3319  11.370   8.484   6.997  0.5327 -0.3929 -0.4913
   25MOL0     O 3320  11.502   8.438   7.012 -0.6086 -0.1617 -0.4905
   25MOL0     C 3321  11.589   8.430   6.890  0.0337  0.4671  0.2449
   25MOL0     C 3322  11.718   8.343   6.904  0.1177  0.1662  0.3493
   25MOL0     C 3323  11.748   8.259   6.778 -0.9153 -1.2713  0.0458
   25MOL0     C 3324  11.795   8.347   6.666 -0.1813 -1.0620 -0.6447
   25MOL0     C 3325  11.836   8.265   6.554 -0.3989  0.4493 -0.6165
   25MOL0     C 3326  11.870   8.365   6.442 -0.0205  0.1969 -0.3209
   25MOL0     C 3327  11.945   8.300   6.325  1.0906 -1.0157  0.4349
   25MOL0     C 3328  12.000   8.420   6.240 -0.2741 -0.1167 -0.9389
   25MOL0     N 3329  12.101   8.382   6.139  0.1540 -1.1663  1.1340
   25MOL0     C 3330  12.236   8.368   6.157 -0.3882  0.0408 -0.0298
   25MOL0     C 3331  12.274   8.342   6.026 -0.7002  0.2973 -0.2557
   25MOL0     C 3332  12.421   8.333   5.989 -0.0055 -0.2563  0.1508
   25MOL0     C 3333  12.508   8.464   6.006  1.0793  0.4017  0.5413
   25MOL0     C 3334  12.655   8.428   5.981  0.5604 -0.0181  0.1137
   25MOL0     C 3335  12.701   8.437   5.836  0.3877  0.1692  0.2143
   25MOL0     O 3336  12.695   8.567   5.774 -0.0528 -0.8001 -0.4590
   25MOL0     C 3337  12.809   8.646   5.791 -0.4351  0.0616 -0.6702
   25MOL0     C 3338  12.912   8.616   5.880 -0.5075 -0.7153  0.0828
   25MOL0     C 3339  13.011   8.715   5.901  0.1503  0.0897  1.0944
   25MOL0     C 3340  13.128   8.683   5.986 -0.0790  0.6833  0.2548
   25MOL0     C 3341  13.019   8.842   5.832  0.9798  0.3239 -1.1488
   25MOL0     C 3342  13.123   8.954   5.851  0.2527 -0.4180 -0.3313
   25MOL0     O 3343  13.189   8.970   5.967 -0.2071 -0.4934 -0.6209
   25MOL0     C 3344  13.284   9.068   5.974 -0.1160  1.0062 -0.2138
   25MOL0     C 3345  13.251   9.198   6.005  0.1337 -0.4144 -1.7122
   25MOL0     C 3346  13.353   9.300   6.008 -0.0339 -0.0665  0.1386
   25MOL0     C 3347  13.486   9.271   5.970  0.2509 -0.0807 -1.0582
   25MOL0     O 3348  13.584   9.369   5.949 -0.3841 -0.3343  0.2355
   25MOL0     C 3349  13.543   9.502   5.931  0.4599 -0.4197 -0.7271
   25MOL0     C 3350  13.660   9.570   5.882 -0.1365 -0.2764 -0.3858
   25MOL0     C 3351  13.629   9.712   5.849 -0.1316  0.3305  0.0248
   25MOL0     C 3352  13.759   9.796   5.844 -0.1572 -0.7400 -0.0313
   25MOL0     C 3353  13.750   9.914   5.750  0.1376 -0.2467  1.8255
   25MOL0     C 3354  13.778   9.881   5.608 -0.6531 -0.0475  0.3689
   25MOL0     C 3355  13.716   9.982   5.512 -0.1337  0.4551  0.0494
   25MOL0     C 3356  13.666   9.927   5.377  0.0308 -0.8787 -0.1896
   25MOL0    Cl 3357  13.540   9.801   5.384  0.2150  0.2541 -0.4975
   25MOL0     C 3358  13.513   9.143   5.938  0.2048 -0.5468  0.3723
   25MOL0     C 3359  13.417   9.043   5.936 -0.0379 -1.0956 -0.2718
   25MOL0     O 3360  13.135   9.025   5.753  0.3350 -0.6994 -0.1328
   25MOL0     C 3361  12.917   8.858   5.734 -0.4365  0.7517 -0.3502
   25MOL0     C 3362  12.813   8.760   5.720  0.6486 -1.0391 -0.3906
   25MOL0     N 3363  12.177   8.340   5.936  1.0540 -0.3798  0.5396
   25MOL0     N 3364  12.065   8.359   6.009 -0.4628 -0.1471 -0.2602
   25MOL0     C 3365  11.326   8.566   6.897  0.4875 -0.2169 -0.3286
   25MOL0     C 3366  11.190   8.583   6.878  0.3170 -0.2615 -0.2491
   25MOL0     C 3367  10.758   8.619   6.815  0.7324 -0.3737 -0.0127
   25MOL0     C 3368  10.674   8.615   6.927 -0.3356  0.3060 -0.8668
   25MOL0     C 3369  10.539   8.660   6.926  0.9601  0.7720  0.4267
   25MOL0     C 3370  10.491   8.724   6.817  0.3715 -0.8771  0.0638
   25MOL0     O 3371  10.385   8.798   6.809  0.2382 -0.3244 -0.1075
   25MOL0     C 3372  10.356   8.881   6.919  1.0109  0.9262  0.4221
   25MOL0     C 3373  10.223   8.947   6.884 -0.1837  0.3890  0.0556
   25MOL0     C 3374  10.231   9.042   6.761 -0.3676  0.1555 -0.3802
   25MOL0     C 3375  10.092   9.092   6.711 -0.3776  0.4848 -0.2385
   25MOL0     C 3376  10.016   9.154   6.829 -1.0213  0.3668 -0.0131
   25MOL0     C 3377   9.936   9.172   6.925  0.4146 -0.2892 -0.5604
   25MOL0     C 3378  10.562   8.720   6.698  0.8669 -0.1492 -0.7234
   25MOL0     C 3379  10.698   8.669   6.700  0.2108  0.2118  0.9460
   25MOL0     C 3380  10.764   8.687   6.570  0.9812 -0.0659  0.2207
   25MOL0     H 3381  11.071   8.396   7.143 -1.4270  0.1920 -1.2833
   25MOL0     H 3382  11.318   8.354   7.158  0.8326 -1.1990 -1.9721
   25MOL0     H 3383  11.622   8.530   6.862 -0.3974  0.8965  1.2235
   25MOL0     H 3384  11.528   8.391   6.807  1.5133 -0.8204 -0.2848
   25MOL0     H 3385  11.806   8.399   6.938 -0.4489 -0.7730  3.7825
   25MOL0     H 3386  11.712   8.283   6.996  1.2161  0.0203  0.3346
   25MOL0     H 3387  11.819   8.181   6.806 -0.0716 -1.1553 -1.6528
   25MOL0     H 3388  11.656   8.208   6.747  0.5049 -2.6214 -2.1573
   25MOL0     H 3389  11.715   8.416   6.638  3.9235  3.1943 -3.3966
   25MOL0     H 3390  11.877   8.409   6.702 -2.1909  0.6084  1.3026
   25MOL0     H 3391  11.762   8.192   6.521  1.5049 -1.6127 -0.5387
   25MOL0     H 3392  11.922   8.200   6.572 -0.9965 -0.6488 -1.5810
   25MOL0     H 3393  11.771   8.391   6.403 -0.2659  0.5617  0.5251
   25MOL0     H 3394  11.924   8.454   6.474 -1.2745  1.5180 -1.7223
   25MOL0     H 3395  11.877   8.234   6.271 -1.5230 -0.7244  3.0985
   25MOL0     H 3396  12.022   8.232   6.361  1.4899 -0.6911  0.2047
   25MOL0     H 3397  11.917   8.472   6.191 -0.7770  0.8359  0.8286
   25MOL0     H 3398  12.047   8.497   6.302 -3.2639  0.8058  0.3895
   25MOL0     H 3399  12.298   8.359   6.245  1.9857  2.1378 -1.3278
   25MOL0     H 3400  12.413   8.303   5.884  0.8294  1.2839 -0.3888
   25MOL0     H 3401  12.463   8.252   6.049  1.9016  1.7808  1.7531
   25MOL0     H 3402  12.470   8.537   5.934 -0.4328 -0.1690  0.7280
   25MOL0     H 3403  12.492   8.495   6.110 -2.1728 -1.4004  0.7279
   25MOL0     H 3404  12.725   8.477   6.049  1.2640 -2.5066  1.3083
   25MOL0     H 3405  12.677   8.328   6.020  1.6672  0.4016  0.6007
   25MOL0     H 3406  12.801   8.395   5.824 -0.2259 -0.9157 -1.5185
   25MOL0     H 3407  12.634   8.371   5.782 -0.1102  0.0939  0.9103
   25MOL0     H 3408  12.915   8.524   5.939  0.3334 -0.9525 -0.3052
   25MOL0     H 3409  13.143   8.575   5.985  1.5040  0.5875 -5.7324
   25MOL0     H 3410  13.099   8.721   6.085 -1.5113  1.4738 -0.4393
   25MOL0     H 3411  13.218   8.736   5.955 -0.3831  0.3335 -1.2844
   25MOL0     H 3412  13.151   9.240   6.016  0.7469  0.5809  0.7590
   25MOL0     H 3413  13.317   9.398   6.036  0.2396 -0.1862  0.9276
   25MOL0     H 3414  13.460   9.517   5.862 -0.6970  2.1198  1.0261
   25MOL0     H 3415  13.507   9.541   6.027 -2.5985  2.1977 -2.7226
   25MOL0     H 3416  13.730   9.571   5.966  1.6050  0.0316 -1.7952
   25MOL0     H 3417  13.705   9.515   5.799 -0.7497 -1.4243  0.0200
   25MOL0     H 3418  13.552   9.742   5.921  0.0839 -0.0664  0.4238
   25MOL0     H 3419  13.581   9.713   5.750  0.5966 -1.2920 -0.3794
   25MOL0     H 3420  13.845   9.736   5.811  0.2081 -0.5512  0.5617
   25MOL0     H 3421  13.785   9.839   5.941  1.8904 -2.3557  0.2063
   25MOL0     H 3422  13.660   9.976   5.764  1.0560  1.1519  1.7212
   25MOL0     H 3423  13.828   9.987   5.771 -0.3154  0.4725  1.1072
   25MOL0     H 3424  13.725   9.788   5.584 -2.2965  1.3034 -1.6137
   25MOL0     H 3425  13.886   9.866   5.600 -0.8108 -0.1729 -2.3153
   25MOL0     H 3426  13.792  10.060   5.501  0.2988 -0.1855 -2.0814
   25MOL0     H 3427  13.629  10.012   5.571 -2.0386 -2.6432 -0.9191
   25MOL0     H 3428  13.750   9.902   5.311  1.8816 -2.2059  2.4804
   25MOL0     H 3429  13.612  10.015   5.342 -0.9536  1.2766  5.6645
   25MOL0     H 3430  13.614   9.130   5.901 -0.5888  0.6756 -2.4579
   25MOL0     H 3431  13.444   8.943   5.903  2.2977 -0.1679 -1.3781
   25MOL0     H 3432  12.916   8.952   5.680 -1.8323  1.6866  1.2084
   25MOL0     H 3433  12.735   8.776   5.646  0.1249  1.4751  0.6108
   25MOL0     H 3434  11.390   8.614   6.823 -2.8176  3.1589 -1.2734
   25MOL0     H 3435  11.166   8.651   6.796  1.5042 -0.9803 -1.2264
   25MOL0     H 3436  10.716   8.571   7.016 -0.5671  1.0179 -0.3933
   25MOL0     H 3437  10.481   8.657   7.018 -1.1883 -0.9406 -0.8715
   25MOL0     H 3438  10.332   8.827   7.011 -0.6311 -1.5813 -1.3407
   25MOL0     H 3439  10.431   8.956   6.943 -0.3374  1.7768  2.2250
   25MOL0     H 3440  10.177   8.992   6.973 -2.5176  0.8626 -1.3125
   25MOL0     H 3441  10.159   8.864   6.853  0.7440 -0.5896  0.7054
   25MOL0     H 3442  10.295   9.130   6.774 -0.1736 -0.0254 -0.1041
   25MOL0     H 3443  10.270   8.979   6.681 -1.7505 -1.3365  0.0755
   25MOL0     H 3444  10.032   9.004   6.687 -1.3146  0.8467  0.7167
   25MOL0     H 3445  10.103   9.160   6.626 -2.9487  2.3718  0.7998
   25MOL0     H 3446   9.851   9.181   6.990  1.0227 -1.0817  0.3684
   25MOL0     H 3447  10.528   8.775   6.610  0.3000 -0.7497 -0.8833
   25MOL0     H 3448  10.798   8.594   6.526 -2.9452 -0.6520 -2.0941
   25MOL0     H 3449  10.699   8.712   6.486 -0.8892 -2.5656  0.7906
   25MOL0     H 3450  10.837   8.766   6.592  2.6441 -2.2037  3.0489
   26MOL0     O 3451  11.313   5.946   0.570  0.6774 -0.6631 -0.2120
   26MOL0     C 3452  11.230   6.010   0.511  0.0342 -0.3742  0.1353
   26MOL0     O 3453  11.250   6.133   0.454  0.3031  0.6203 -0.3835
   26MOL0     C 3454  11.366   6.204   0.475 -0.1969  0.2612 -1.9407
   26MOL0     C 3455  11.397   6.241   0.610  0.1610 -0.1820  1.3573
   26MOL0     C 3456  11.505   6.335   0.630 -0.5304  0.2574  0.4252
   26MOL0     C 3457  11.576   6.385   0.512  0.0321  0.0826 -0.5815
   26MOL0     O 3458  11.659   6.491   0.517 -0.1350 -0.4083  0.3992
   26MOL0     C 3459  11.766   6.491   0.614  0.2883  0.5754  0.4086
   26MOL0     C 3460  11.789   6.635   0.652 -1.1718  0.6186  0.5818
   26MOL0     C 3461  11.919   6.645   0.744  0.8508 -0.8937 -0.4453
   26MOL0     C 3462  11.899   6.712   0.885  0.7920 -0.2166 -0.0738
   26MOL0     C 3463  12.020   6.764   0.952  0.1668 -0.3851 -0.5968
   26MOL0     C 3464  12.062   6.890   0.885 -0.3673  0.3275 -0.1001
   26MOL0     C 3465  12.171   6.970   0.964  0.1205  0.0465  0.3383
   26MOL0     C 3466  12.304   6.894   0.966 -0.1635 -0.1472  0.1140
   26MOL0     N 3467  12.347   6.833   0.832 -0.9589  0.2717  0.0039
   26MOL0     C 3468  12.331   6.697   0.814 -0.0490 -0.1206 -0.3714
   26MOL0     C 3469  12.341   6.676   0.680 -0.0216  0.2383  1.4687
   26MOL0     C 3470  12.348   6.541   0.610  0.7437  0.6072  0.5963
   26MOL0     C 3471  12.251   6.544   0.484 -0.3335 -0.5554 -0.0814
   26MOL0     C 3472  12.176   6.416   0.453  0.7182  0.1025 -0.4474
   26MOL0     C 3473  12.274   6.316   0.392 -0.8658 -0.2236  0.8489
   26MOL0     O 3474  12.217   6.186   0.392 -0.0714 -0.3949  0.6766
   26MOL0     C 3475  12.277   6.090   0.310  0.3799  0.3173  0.1671
   26MOL0     C 3476  12.217   5.962   0.314 -0.6791  0.7477 -0.6188
   26MOL0     C 3477  12.262   5.862   0.226  0.3161  0.3930 -0.0984
   26MOL0     C 3478  12.183   5.739   0.238  0.2006  0.2443 -0.3129
   26MOL0     C 3479  12.372   5.878   0.146  0.7945 -0.6773  0.5690
   26MOL0     C 3480  12.437   5.771   0.060 -0.2767 -0.1505  0.1040
   26MOL0     O 3481  12.386   5.643   0.060 -0.4895 -0.4522  0.1469
   26MOL0     C 3482  12.438   5.536  -0.011  0.3113 -0.9533 -0.1673
   26MOL0     C 3483  12.567   5.513  -0.023  0.0621 -0.7886  0.5999
   26MOL0     C 3484  12.621   5.406  -0.100 -0.1165  1.1625  0.7356
   26MOL0     C 3485  12.538   5.317  -0.167 -0.4345  0.3235 -0.3618
   26MOL0     O 3486  12.611   5.213  -0.222 -1.0609 -0.9744  0.0736
   26MOL0     C 3487  12.546   5.127  -0.326 -0.2820 -0.0466 -0.1627
   26MOL0     C 3488  12.495   4.999  -0.262 -0.2163  0.1655  0.3829
   26MOL0     C 3489  12.405   4.928  -0.359 -0.3958 -0.3277  0.1039
   26MOL0     C 3490  12.335   4.821  -0.276 -0.2247 -0.2621 -0.2285
   26MOL0     C 3491  12.197   4.792  -0.307  0.5922  0.2767  0.0513
   26MOL0     C 3492  12.158   4.763  -0.448  0.2225  0.7486  1.1218
   26MOL0     C 3493  12.002   4.769  -0.452 -0.2426  0.4075 -0.5673
   26MOL0     C 3494  11.950   4.725  -0.583 -0.8683 -1.2048 -0.3642
   26MOL0    Cl 3495  11.952   4.539  -0.595  0.4565 -0.0036  0.1436
   26MOL0     C 3496  12.401   5.341  -0.157 -0.4993  0.1246  0.3050
   26MOL0     C 3497  12.352   5.448  -0.088  0.1085  0.7908  0.3673
   26MOL0     O 3498  12.525   5.806  -0.019  0.2347 -0.9797  0.3180
   26MOL0     C 3499  12.428   6.001   0.137 -0.1104 -1.1800 -0.7888
   26MOL0     C 3500  12.387   6.103   0.220  0.0227  0.1475  0.5685
   26MOL0     N 3501  12.354   6.798   0.623 -0.3198  0.6739 -0.6922
   26MOL0     N 3502  12.363   6.893   0.713  0.2906  0.6697 -0.3508
   26MOL0     C 3503  11.550   6.333   0.389  0.5680 -0.1002 -0.1973
   26MOL0     C 3504  11.438   6.246   0.368 -0.6080  0.3841 -0.3402
   26MOL0     C 3505  11.099   5.947   0.492 -1.2272  0.1956  0.4277
   26MOL0     C 3506  11.003   6.022   0.423 -0.5061 -1.0154 -0.0940
   26MOL0     C 3507  10.879   5.975   0.399  0.5396  0.1278  0.2097
   26MOL0     C 3508  10.841   5.844   0.431  0.6007  0.5363  0.4528
   26MOL0     O 3509  10.716   5.789   0.401  0.0263  0.0227 -0.4179
   26MOL0     C 3510  10.623   5.837   0.299 -0.3108  0.2336 -0.2949
   26MOL0     C 3511  10.539   5.945   0.358  0.3308  0.3723  0.2522
   26MOL0     C 3512  10.464   5.897   0.485 -0.8555  0.4203 -0.1416
   26MOL0     C 3513  10.309   5.892   0.473  0.4376  0.3163  0.4034
   26MOL0     C 3514  10.255   5.845   0.596 -0.0440  0.0689  0.1809
   26MOL0     C 3515  10.213   5.792   0.695 -0.1108 -0.7911 -0.1617
   26MOL0     C 3516  10.934   5.763   0.498 -0.0725 -0.5925 -0.3094
   26MOL0     C 3517  11.065   5.811   0.526 -0.0673  0.6440 -0.0827
   26MOL0     C 3518  11.156   5.708   0.603 -0.4005  0.7030 -1.5169
   26MOL0     H 3519  11.354   6.208   0.704 -1.2261  0.2706  0.9026
   26MOL0     H 3520  11.533   6.373   0.728  2.2644 -1.6155  0.4521
   26MOL0     H 3521  11.853   6.450   0.561 -0.0398  1.7075 -1.0882
   26MOL0     H 3522  11.741   6.443   0.709 -1.3082 -0.8317 -0.6592
   26MOL0     H 3523  11.800   6.689   0.558  1.7023 -1.8549 -0.6442
   26MOL0     H 3524  11.702   6.672   0.708 -0.6352  0.2697  1.6694
   26MOL0     H 3525  11.974   6.553   0.767  1.8428 -0.3891 -0.7371
   26MOL0     H 3526  11.984   6.707   0.682 -0.0927 -2.4424 -3.1416
   26MOL0     H 3527  11.822   6.790   0.880  2.7294  1.7991 -0.4953
   26MOL0     H 3528  11.853   6.638   0.950  2.0936  0.0088  1.1544
   26MOL0     H 3529  12.102   6.695   0.970  2.4243  1.1661 -3.9488
   26MOL0     H 3530  11.980   6.791   1.051  0.2943  1.2422 -0.9584
   26MOL0     H 3531  12.092   6.859   0.785 -2.8228 -0.5342 -0.6435
   26MOL0     H 3532  11.977   6.951   0.852 -0.7295 -0.8750 -1.5458
   26MOL0     H 3533  12.135   6.979   1.067 -1.1631 -0.7656 -0.0105
   26MOL0     H 3534  12.196   7.061   0.910  1.4791 -3.4936 -5.9953
   26MOL0     H 3535  12.376   6.973   0.989 -0.4779 -0.0847  0.9173
   26MOL0     H 3536  12.289   6.813   1.038 -1.0349 -1.2088 -1.2162
   26MOL0     H 3537  12.298   6.626   0.890 -2.2642 -0.5955 -1.6904
   26MOL0     H 3538  12.319   6.470   0.689 -0.3385 -2.3039 -2.1801
   26MOL0     H 3539  12.446   6.501   0.579 -0.5582 -2.8596  0.4954
   26MOL0     H 3540  12.173   6.621   0.486 -0.2134 -0.4150 -0.5334
   26MOL0     H 3541  12.311   6.564   0.394 -0.8011 -1.0914 -0.5236
   26MOL0     H 3542  12.132   6.373   0.543 -0.7616  0.7948 -0.8011
   26MOL0     H 3543  12.099   6.449   0.382  0.6301  2.4619  0.6434
   26MOL0     H 3544  12.292   6.339   0.287 -0.6424  1.7854  1.2863
   26MOL0     H 3545  12.366   6.319   0.453  0.8058 -0.6362 -1.4984
   26MOL0     H 3546  12.135   5.941   0.381 -0.8433 -0.2583 -1.1077
   26MOL0     H 3547  12.084   5.763   0.278 -0.7785  0.0748 -2.5042
   26MOL0     H 3548  12.227   5.658   0.298 -0.7909 -0.2367 -0.2177
   26MOL0     H 3549  12.162   5.689   0.143 -0.0711 -0.7338  0.2523
   26MOL0     H 3550  12.641   5.578   0.024 -0.1392 -0.1891  0.0984
   26MOL0     H 3551  12.729   5.404  -0.104 -0.1415  0.6101 -2.0193
   26MOL0     H 3552  12.464   5.182  -0.372  0.2650  2.6745  1.8174
   26MOL0     H 3553  12.623   5.093  -0.397 -0.9297 -4.3395  0.9641
   26MOL0     H 3554  12.580   4.934  -0.241 -0.9201 -1.2057 -0.8635
   26MOL0     H 3555  12.439   5.024  -0.171 -2.0879  0.6665 -0.8465
   26MOL0     H 3556  12.451   4.879  -0.446  0.6488  3.8479 -1.9472
   26MOL0     H 3557  12.342   5.006  -0.404  0.6246  0.7783  0.5400
   26MOL0     H 3558  12.345   4.834  -0.168  0.5773 -1.1855 -0.1789
   26MOL0     H 3559  12.380   4.722  -0.282  0.4248 -0.0243  0.5281
   26MOL0     H 3560  12.163   4.714  -0.239  1.1334 -1.4273 -1.5598
   26MOL0     H 3561  12.144   4.887  -0.291 -0.2538 -0.4725  1.9840
   26MOL0     H 3562  12.194   4.663  -0.474  1.8541  1.0185  2.1580
   26MOL0     H 3563  12.193   4.833  -0.524 -3.0091  0.3159 -0.9222
   26MOL0     H 3564  11.976   4.874  -0.436  1.5545  1.1776 -2.2027
   26MOL0     H 3565  11.950   4.707  -0.378  0.4415 -1.7476 -1.7914
   26MOL0     H 3566  12.017   4.755  -0.665 -0.9864 -0.3500 -0.1552
   26MOL0     H 3567  11.855   4.773  -0.608 -0.1396  0.9962  0.8155
   26MOL0     H 3568  12.339   5.267  -0.208 -0.4485  0.3758 -0.1201
   26MOL0     H 3569  12.243   5.454  -0.088 -0.1025 -1.8134  0.2347
   26MOL0     H 3570  12.511   6.031   0.073  1.6680  2.0888  2.5966
   26MOL0     H 3571  12.440   6.197   0.204 -1.4628  0.5518 -2.8781
   26MOL0     H 3572  11.607   6.377   0.308 -0.7379  1.3360 -0.4009
   26MOL0     H 3573  11.418   6.202   0.270 -1.5280  1.2348 -0.5524
   26MOL0     H 3574  11.032   6.117   0.380  2.2789 -1.3866  0.7828
   26MOL0     H 3575  10.808   6.038   0.346  1.3945 -0.9506 -2.3900
   26MOL0     H 3576  10.680   5.865   0.210  1.0152 -3.3857 -0.7488
   26MOL0     H 3577  10.552   5.759   0.268  0.4463 -0.5238 -0.1580
   26MOL0     H 3578  10.473   5.986   0.282 -0.7564 -2.1312 -0.2473
   26MOL0     H 3579  10.596   6.036   0.380  2.2719 -0.0783 -2.5059
   26MOL0     H 3580  10.494   5.791   0.490 -1.0937 -0.0588 -4.7284
   26MOL0     H 3581  10.505   5.951   0.571  3.2295 -1.1422 -0.8791
   26MOL0     H 3582  10.283   5.835   0.383  3.9716  0.2954 -0.7843
   26MOL0     H 3583  10.280   5.997   0.461  0.3780  0.0992 -1.9776
   26MOL0     H 3584  10.182   5.742   0.784  0.4817 -0.6770  0.1117
   26MOL0     H 3585  10.906   5.659   0.517 -1.0162 -0.5311 -1.2740
   26MOL0     H 3586  11.254   5.692   0.556  1.2442  1.6442  1.3729
   26MOL0     H 3587  11.177   5.731   0.707  0.6698 -3.1554 -0.6988
   26MOL0     H 3588  11.104   5.613   0.617 -2.1904  1.7081 -1.0448
   27MOL0     O 3589  10.314   5.625   8.508 -0.4057  0.6143 -0.3683
   27MOL0     C 3590  10.316   5.514   8.554  0.8165  0.3423  0.1369
   27MOL0     O 3591  10.215   5.477   8.655 -0.2094 -0.4042 -0.0942
   27MOL0     C 3592  10.122   5.569   8.715  0.6179 -0.8583  0.7366
   27MOL0     C 3593  10.002   5.508   8.750  1.2347 -0.4881 -0.2395
   27MOL0     C 3594   9.909   5.571   8.824  0.5135 -0.3113  0.3972
   27MOL0     C 3595   9.930   5.707   8.862 -0.8232  1.8881  0.3191
   27MOL0     O 3596   9.820   5.772   8.913 -0.0481 -1.0660  0.1057
   27MOL0     C 3597   9.848   5.857   9.030  0.3518  0.3015 -1.0610
   27MOL0     C 3598   9.714   5.916   9.082  0.5454 -0.0286 -0.5837
   27MOL0     C 3599   9.732   6.014   9.196  0.5592 -0.1817  0.6701
   27MOL0     C 3600   9.611   6.095   9.232 -0.8262  0.9918  0.1328
   27MOL0     C 3601   9.505   6.003   9.311  0.1985  0.3371 -0.2845
   27MOL0     C 3602   9.396   6.088   9.386  0.0418 -0.1360  0.2636
   27MOL0     C 3603   9.444   6.175   9.503  0.4140  0.8722 -0.5614
   27MOL0     C 3604   9.319   6.246   9.554  0.6787 -0.7910 -0.3205
   27MOL0     N 3605   9.205   6.154   9.596  0.5819  0.7376  0.3947
   27MOL0     C 3606   9.223   6.074   9.709  0.3696  0.1129  0.0699
   27MOL0     C 3607   9.098   6.072   9.761 -0.9639 -0.0719 -0.3619
   27MOL0     C 3608   9.076   6.008   9.891  0.1933  0.2256 -0.4497
   27MOL0     C 3609   9.005   5.871   9.877  0.3828 -0.1221  1.1214
   27MOL0     C 3610   8.909   5.846   9.994  0.6425 -0.2985 -0.8469
   27MOL0     C 3611   8.985   5.796  10.117 -1.1485 -0.2310 -0.0834
   27MOL0     O 3612   9.036   5.664  10.077  0.2512  0.3506  0.3193
   27MOL0     C 3613   9.127   5.628  10.172  0.3188 -0.7731 -0.3391
   27MOL0     C 3614   9.104   5.628  10.307 -0.1172  0.0859 -0.7742
   27MOL0     C 3615   9.188   5.573  10.408 -0.2655 -0.1803  0.1745
   27MOL0     C 3616   9.168   5.601  10.554  0.5545  1.5125 -0.3404
   27MOL0     C 3617   9.306   5.510  10.362 -0.1153  0.7350 -0.8981
   27MOL0     C 3618   9.415   5.458  10.452 -0.9300  0.5725  0.0502
   27MOL0     O 3619   9.536   5.481  10.406 -0.6518  0.1532  0.5830
   27MOL0     C 3620   9.643   5.436  10.483  0.2606 -0.2121  0.0003
   27MOL0     C 3621   9.681   5.302  10.472 -0.4023 -0.5265  0.6907
   27MOL0     C 3622   9.793   5.251  10.538  0.6972 -0.4916 -0.0018
   27MOL0     C 3623   9.861   5.328  10.637 -0.0892  0.5848  0.9910
   27MOL0     O 3624   9.964   5.275  10.718  0.6554  0.2852  0.3020
   27MOL0     C 3625   9.968   5.133  10.734  0.4914 -0.0228 -0.1574
   27MOL0     C 3626  10.067   5.122  10.842 -0.4504  0.9159  0.6075
   27MOL0     C 3627   9.995   5.155  10.976 -0.4720  0.0954  0.7096
   27MOL0     C 3628   9.955   5.037  11.066 -0.3197 -0.2913 -0.3841
   27MOL0     C 3629  10.075   4.997  11.151  0.2489 -0.1531  0.6565
   27MOL0     C 3630  10.055   4.858  11.218  0.5444 -1.5133 -0.4128
   27MOL0     C 3631   9.935   4.854  11.324 -0.2035 -0.2283  0.2128
   27MOL0     C 3632   9.915   4.718  11.387  0.5144  0.6067 -1.6876
   27MOL0    Cl 3633  10.055   4.671  11.492  0.0088  0.5329 -0.3684
   27MOL0     C 3634   9.818   5.459  10.650 -0.5167  0.0771 -0.2752
   27MOL0     C 3635   9.719   5.518  10.569  0.6512  0.4734  0.2316
   27MOL0     O 3636   9.389   5.397  10.553 -0.0388  0.1748 -0.1341
   27MOL0     C 3637   9.328   5.506  10.221 -0.0115  0.5501  0.3784
   27MOL0     C 3638   9.244   5.565  10.131  0.2023 -0.3891 -0.1756
   27MOL0     N 3639   9.014   6.145   9.679 -0.3194 -0.3386  0.3331
   27MOL0     N 3640   9.082   6.192   9.577 -0.2603 -0.6127 -0.5505
   27MOL0     C 3641  10.044   5.774   8.813  0.2928 -0.4382  0.0176
   27MOL0     C 3642  10.139   5.699   8.749  0.0668 -0.2480  0.7388
   27MOL0     C 3643  10.415   5.413   8.518  0.7435 -0.1387  0.1515
   27MOL0     C 3644  10.378   5.275   8.542  0.3230 -0.2021  0.3074
   27MOL0     C 3645  10.456   5.172   8.488  0.1752  0.2997  0.0489
   27MOL0     C 3646  10.580   5.198   8.428 -0.6966 -0.0050 -0.0429
   27MOL0     O 3647  10.646   5.084   8.380  0.3261  0.1726  0.2114
   27MOL0     C 3648  10.763   5.108   8.306 -0.8712 -0.4591  0.2441
   27MOL0     C 3649  10.843   4.978   8.299 -0.3779  0.2651  0.4239
   27MOL0     C 3650  10.974   4.992   8.217  0.1836 -1.0142 -0.2034
   27MOL0     C 3651  11.082   4.889   8.243 -0.6716 -0.1015  0.1498
   27MOL0     C 3652  11.214   4.919   8.185  0.0992 -1.4925  0.1866
   27MOL0     C 3653  11.326   4.968   8.147  0.6767  0.0911  0.4701
   27MOL0     C 3654  10.621   5.330   8.414 -0.8737  0.8586  0.3517
   27MOL0     C 3655  10.537   5.437   8.458  0.4728  0.5175  0.5358
   27MOL0     C 3656  10.599   5.576   8.438  0.1741  0.7154  0.0810
   27MOL0     H 3657   9.974   5.413   8.706  0.7403  0.0303 -1.0717
   27MOL0     H 3658   9.813   5.531   8.856 -0.4375  0.2472 -1.5720
   27MOL0     H 3659   9.913   5.941   9.005 -2.2182  2.7612  0.0202
   27MOL0     H 3660   9.897   5.796   9.107 -0.0758  1.3651  0.0941
   27MOL0     H 3661   9.665   5.950   8.990 -1.5184 -1.9742 -0.2738
   27MOL0     H 3662   9.646   5.841   9.123 -2.8682  3.4351  0.7045
   27MOL0     H 3663   9.781   5.960   9.278  1.6887 -2.9109 -1.6336
   27MOL0     H 3664   9.810   6.082   9.160  1.1241 -0.6837  0.9165
   27MOL0     H 3665   9.639   6.180   9.295 -1.0055  0.2914  1.1799
   27MOL0     H 3666   9.569   6.153   9.150 -1.0269 -0.7990 -1.0963
   27MOL0     H 3667   9.534   5.951   9.402 -0.6475  0.4675  0.0727
   27MOL0     H 3668   9.460   5.935   9.238  0.8781 -1.7447  1.1590
   27MOL0     H 3669   9.339   6.145   9.312  0.8548  2.4210  1.4554
   27MOL0     H 3670   9.333   6.007   9.424  1.6316 -1.2853  0.5478
   27MOL0     H 3671   9.526   6.241   9.477 -2.7291  4.6582 -1.8154
   27MOL0     H 3672   9.478   6.105   9.581 -0.4398 -1.1773 -1.9484
   27MOL0     H 3673   9.359   6.290   9.647  0.9770  2.1206 -1.7061
   27MOL0     H 3674   9.281   6.321   9.485  1.5552 -1.0189 -1.0696
   27MOL0     H 3675   9.307   6.019   9.750 -2.0037 -2.1054  2.3981
   27MOL0     H 3676   9.024   6.077   9.958 -0.1226  0.6508 -1.1290
   27MOL0     H 3677   9.175   5.999   9.936  0.6285 -1.1275 -1.6020
   27MOL0     H 3678   8.952   5.857   9.782  1.9483 -2.6599  0.5146
   27MOL0     H 3679   9.077   5.790   9.862 -1.0789 -0.7871 -4.6988
   27MOL0     H 3680   8.846   5.932  10.015 -0.1827 -1.2147  0.6222
   27MOL0     H 3681   8.838   5.765   9.977 -0.0621 -0.0618  0.7737
   27MOL0     H 3682   9.061   5.871  10.139 -1.3191 -0.6047  1.9997
   27MOL0     H 3683   8.919   5.793  10.204 -2.0442  1.2018 -0.6662
   27MOL0     H 3684   9.008   5.663  10.344  0.1309  0.0645 -0.0943
   27MOL0     H 3685   9.106   5.690  10.562  0.6865  1.9354 -3.0831
   27MOL0     H 3686   9.263   5.618  10.606  1.0829 -3.4747  0.8641
   27MOL0     H 3687   9.120   5.515  10.602 -0.0347  3.5638  3.0783
   27MOL0     H 3688   9.606   5.250  10.413 -2.7236  3.0480  0.1379
   27MOL0     H 3689   9.820   5.147  10.522 -1.5791 -0.9188 -1.5726
   27MOL0     H 3690   9.874   5.085  10.760  1.2556 -1.4952  0.0038
   27MOL0     H 3691  10.016   5.094  10.644  4.6054  1.6373  1.0899
   27MOL0     H 3692  10.097   5.016  10.842 -1.3886  0.6030 -1.4061
   27MOL0     H 3693  10.151   5.187  10.815 -1.1314  1.0806 -1.2050
   27MOL0     H 3694   9.909   5.222  10.967 -0.6372 -0.2132 -0.0708
   27MOL0     H 3695  10.066   5.215  11.033  1.0636  0.0928 -1.0983
   27MOL0     H 3696   9.915   4.959  11.002  0.5686  1.1793 -2.8651
   27MOL0     H 3697   9.878   5.058  11.142 -0.1287 -0.1188 -0.2353
   27MOL0     H 3698  10.167   4.996  11.091  1.4343 -1.0700  2.4156
   27MOL0     H 3699  10.084   5.072  11.229 -0.1704 -0.3995  0.9483
   27MOL0     H 3700  10.149   4.832  11.267  1.9857 -0.7173 -2.6453
   27MOL0     H 3701  10.046   4.778  11.145 -0.0657  1.0144 -3.3035
   27MOL0     H 3702   9.841   4.885  11.279 -1.2597  1.8839  3.4701
   27MOL0     H 3703   9.965   4.923  11.404  0.2003  0.0938 -0.2128
   27MOL0     H 3704   9.899   4.635  11.318 -4.2613 -0.6873  0.5316
   27MOL0     H 3705   9.829   4.707  11.454  0.6203  2.4070 -1.1890
   27MOL0     H 3706   9.856   5.527  10.726 -0.0288  0.6526 -1.0190
   27MOL0     H 3707   9.684   5.619  10.586  0.4101  0.1799  1.5515
   27MOL0     H 3708   9.419   5.459  10.184 -0.4045  1.0569 -1.2889
   27MOL0     H 3709   9.276   5.570  10.027 -0.4514 -0.1306 -0.3702
   27MOL0     H 3710  10.053   5.881   8.827 -2.1389 -0.2238  0.2303
   27MOL0     H 3711  10.231   5.737   8.706  0.8013 -2.4708  0.2429
   27MOL0     H 3712  10.294   5.246   8.604  0.1206 -1.3184 -0.4682
   27MOL0     H 3713  10.432   5.069   8.512 -0.4908  0.6739  1.0786
   27MOL0     H 3714  10.736   5.135   8.203 -4.6324 -2.0726  0.6190
   27MOL0     H 3715  10.830   5.186   8.341 -1.1571  0.5958 -1.4318
   27MOL0     H 3716  10.774   4.903   8.259 -0.9817  1.1652 -0.2552
   27MOL0     H 3717  10.872   4.965   8.404  0.5867 -0.1795  0.1135
   27MOL0     H 3718  10.947   4.988   8.111 -3.9687 -1.9405  0.7388
   27MOL0     H 3719  11.013   5.093   8.233 -0.5500 -1.1659  3.2046
   27MOL0     H 3720  11.043   4.799   8.197 -0.6843  0.7234 -1.5178
   27MOL0     H 3721  11.099   4.879   8.351 -0.2939 -0.5806  0.0500
   27MOL0     H 3722  11.421   5.002   8.110  0.5096 -0.0822 -0.1353
   27MOL0     H 3723  10.716   5.350   8.365 -0.5375  0.1494  0.7022
   27MOL0     H 3724  10.695   5.561   8.389 -0.5900 -2.3096 -0.6837
   27MOL0     H 3725  10.541   5.636   8.367  0.6912  1.0529 -0.0624
   27MOL0     H 3726  10.619   5.620   8.536  1.0326 -2.7193  1.5990
   28MOL0     O 3727   8.868   8.506   2.604 -0.1595  0.8688 -0.1919
   28MOL0     C 3728   8.987   8.496   2.571 -0.6150 -1.2419 -0.2354
   28MOL0     O 3729   9.081   8.600   2.568  0.0292 -0.7800  0.0672
   28MOL0     C 3730   9.052   8.727   2.610 -0.9075 -0.3290  0.9313
   28MOL0     C 3731   9.050   8.753   2.746 -0.6981 -0.2773 -0.0782
   28MOL0     C 3732   9.015   8.877   2.790  0.2984  0.5768 -1.0589
   28MOL0     C 3733   9.000   8.986   2.703  0.0753  0.8903  0.5755
   28MOL0     O 3734   8.973   9.110   2.754 -0.0193  0.5340 -0.1870
   28MOL0     C 3735   8.883   9.199   2.678  0.5974  0.2170  0.0225
   28MOL0     C 3736   8.955   9.340   2.663 -0.5141  0.5751  0.1752
   28MOL0     C 3737   9.073   9.327   2.565  0.4547  0.3766 -0.8371
   28MOL0     C 3738   9.182   9.435   2.604  0.1706  0.6577 -0.0675
   28MOL0     C 3739   9.297   9.439   2.502 -0.5688 -0.6802  0.2631
   28MOL0     C 3740   9.382   9.575   2.525 -0.3602  0.4350  0.4527
   28MOL0     C 3741   9.504   9.594   2.419 -0.0697  0.0805  0.6903
   28MOL0     C 3742   9.568   9.735   2.424 -0.3360 -0.1640  0.6041
   28MOL0     N 3743   9.693   9.744   2.345  0.1738 -0.7296  0.0764
   28MOL0     C 3744   9.720   9.850   2.264  0.5590  0.0445 -0.2936
   28MOL0     C 3745   9.860   9.842   2.256  0.2168  0.1740 -0.1743
   28MOL0     C 3746   9.932   9.931   2.162 -1.3354 -0.7172  0.2035
   28MOL0     C 3747  10.062   9.974   2.225  0.4520 -0.7555 -0.5383
   28MOL0     C 3748  10.040  10.060   2.349  0.6177 -0.3278  0.0864
   28MOL0     C 3749  10.168  10.086   2.433 -0.0472 -0.3216 -0.1202
   28MOL0     O 3750  10.137  10.098   2.570  0.4083 -0.0720  0.3895
   28MOL0     C 3751  10.116  10.227   2.618  0.0435  0.5511 -0.6217
   28MOL0     C 3752  10.040  10.220   2.742  0.5096  0.8033  0.2292
   28MOL0     C 3753  10.005  10.337   2.810  0.0381  0.1122  0.0151
   28MOL0     C 3754   9.925  10.316   2.937 -0.4212 -0.1087  0.2155
   28MOL0     C 3755  10.035  10.461   2.754  1.2734 -0.2924 -0.1487
   28MOL0     C 3756   9.979  10.589   2.807  0.0799 -0.1770  0.0454
   28MOL0     O 3757   9.898  10.584   2.911 -0.0128  0.2398  0.2228
   28MOL0     C 3758   9.865  10.690   2.989 -0.6040 -0.2248  0.6382
   28MOL0     C 3759   9.947  10.810   2.995 -0.5963  0.2699  0.3089
   28MOL0     C 3760   9.907  10.910   3.086 -0.8718  0.2764 -0.0559
   28MOL0     C 3761   9.803  10.901   3.173 -0.9443 -1.3253  1.0480
   28MOL0     O 3762   9.790  11.013   3.257  0.0933 -0.8124 -0.5934
   28MOL0     C 3763   9.701  11.007   3.373 -0.4381 -0.3614  0.6791
   28MOL0     C 3764   9.730  11.123   3.467 -0.3107  0.4615 -0.8827
   28MOL0     C 3765   9.877  11.138   3.513 -0.9955  0.8201  0.0420
   28MOL0     C 3766   9.911  11.019   3.603 -0.7354  0.0410  0.1425
   28MOL0     C 3767   9.833  11.002   3.730  0.0939  0.2740  0.3845
   28MOL0     C 3768   9.822  11.129   3.823 -0.0438 -0.0942 -0.2632
   28MOL0     C 3769   9.748  11.102   3.957  0.9886  0.4189 -1.0287
   28MOL0     C 3770   9.619  11.021   3.948 -0.4337 -0.2800 -0.1100
   28MOL0    Cl 3771   9.507  11.125   3.857  0.1162 -0.4253 -0.1612
   28MOL0     C 3772   9.735  10.779   3.184 -0.0777 -0.1989 -0.6483
   28MOL0     C 3773   9.765  10.673   3.091 -1.2016  1.2295 -0.0421
   28MOL0     O 3774  10.007  10.692   2.747  0.8033 -0.2707  0.2173
   28MOL0     C 3775  10.120  10.471   2.636 -0.0178  0.4173 -0.7013
   28MOL0     C 3776  10.152  10.353   2.569 -0.5732 -1.0445  0.2784
   28MOL0     N 3777   9.906   9.731   2.330  0.3443 -0.7914  0.1473
   28MOL0     N 3778   9.805   9.676   2.384  0.4214  0.5836  0.5034
   28MOL0     C 3779   9.023   8.962   2.563 -0.4801 -0.4593  0.0322
   28MOL0     C 3780   9.042   8.835   2.520 -0.4547  0.5569 -0.5233
   28MOL0     C 3781   9.048   8.349   2.552 -0.4033  0.4705  0.6774
   28MOL0     C 3782   9.183   8.341   2.542  0.1411 -0.4078  1.4018
   28MOL0     C 3783   9.245   8.217   2.514  0.3779 -0.2748 -0.7342
   28MOL0     C 3784   9.171   8.097   2.490  0.6126 -0.0356 -0.1112
   28MOL0     O 3785   9.243   7.985   2.462 -0.5293  0.0164 -1.1031
   28MOL0     C 3786   9.172   7.859   2.450  0.0805  0.4807 -0.5573
   28MOL0     C 3787   9.123   7.791   2.583 -0.4938 -0.3185 -0.1477
   28MOL0     C 3788   9.075   7.648   2.578  0.4874 -0.4172  0.9329
   28MOL0     C 3789   9.177   7.547   2.543 -0.0853  0.6475 -0.0482
   28MOL0     C 3790   9.140   7.421   2.603  0.6820  0.5189 -0.1439
   28MOL0     C 3791   9.104   7.307   2.614  0.3683  0.3455  0.2077
   28MOL0     C 3792   9.029   8.112   2.499 -0.6101 -0.1499 -0.2042
   28MOL0     C 3793   8.973   8.229   2.536 -0.2493 -0.0216 -0.0655
   28MOL0     C 3794   8.824   8.225   2.562 -0.3917  0.5963  0.4339
   28MOL0     H 3795   9.060   8.669   2.814  2.0118  0.5476  0.6611
   28MOL0     H 3796   8.981   8.895   2.891  1.0077 -0.2921 -0.6422
   28MOL0     H 3797   8.787   9.208   2.729  1.6347  1.9810  1.7723
   28MOL0     H 3798   8.860   9.163   2.577 -1.2872 -1.1597  0.8785
   28MOL0     H 3799   8.888   9.420   2.631 -0.0551  1.3229  1.0354
   28MOL0     H 3800   9.001   9.356   2.761  0.3086 -4.3399  0.8348
   28MOL0     H 3801   9.116   9.228   2.584  0.1851  0.4766  0.4116
   28MOL0     H 3802   9.039   9.344   2.463  0.2199  0.0073 -0.8218
   28MOL0     H 3803   9.134   9.527   2.569  2.8809  0.7264 -4.3431
   28MOL0     H 3804   9.216   9.446   2.707  1.2052 -2.0824 -0.0446
   28MOL0     H 3805   9.258   9.454   2.401 -0.3115  0.2264  0.2861
   28MOL0     H 3806   9.357   9.348   2.513  2.4606  0.9235 -1.5479
   28MOL0     H 3807   9.308   9.653   2.508  0.6538  1.3882  0.3223
   28MOL0     H 3808   9.410   9.592   2.630 -0.4874  1.3110  0.3509
   28MOL0     H 3809   9.465   9.602   2.317  1.5701  1.5976  0.1109
   28MOL0     H 3810   9.581   9.517   2.431  1.9713  2.2077  2.2643
   28MOL0     H 3811   9.502   9.818   2.398  1.8160  0.7915 -2.4982
   28MOL0     H 3812   9.595   9.755   2.528  4.4624 -2.0402  0.0084
   28MOL0     H 3813   9.652   9.927   2.229 -0.0292  0.4979  1.7305
   28MOL0     H 3814   9.870  10.018   2.139 -0.3366 -0.4202 -1.5384
   28MOL0     H 3815   9.959   9.866   2.078  2.2899  0.0570  0.6309
   28MOL0     H 3816  10.129   9.889   2.236 -2.4717 -3.1458  0.0163
   28MOL0     H 3817  10.111  10.046   2.159  0.3026 -1.0692 -0.9929
   28MOL0     H 3818  10.004  10.160   2.324 -2.5645 -1.0602  1.2773
   28MOL0     H 3819   9.975  10.005   2.418  1.1501 -0.9487  0.0987
   28MOL0     H 3820  10.232   9.997   2.430  1.4646  0.7057  0.6711
   28MOL0     H 3821  10.226  10.170   2.394  0.4239 -0.8057 -0.4802
   28MOL0     H 3822  10.024  10.120   2.779 -0.7333  1.4390  1.5234
   28MOL0     H 3823   9.976  10.349   3.028 -0.9964 -3.4300  1.8742
   28MOL0     H 3824   9.918  10.212   2.968  0.7789  0.8950  4.6411
   28MOL0     H 3825   9.827  10.357   2.915  0.6595  1.4636 -2.0958
   28MOL0     H 3826  10.030  10.824   2.926 -1.4589 -1.6545 -1.2475
   28MOL0     H 3827   9.958  11.006   3.087 -1.7328  0.7944  2.4462
   28MOL0     H 3828   9.607  11.009   3.319  0.7498 -0.8052 -1.5274
   28MOL0     H 3829   9.707  10.906   3.415  1.5626 -0.4117  0.3960
   28MOL0     H 3830   9.709  11.216   3.413 -0.6358 -0.0183 -1.6013
   28MOL0     H 3831   9.660  11.110   3.550 -1.6206  0.4336 -1.9582
   28MOL0     H 3832   9.874  11.221   3.585  1.4999  0.9129  0.1282
   28MOL0     H 3833   9.954  11.155   3.437  2.8024 -0.3090  3.2838
   28MOL0     H 3834  10.018  11.029   3.621  0.3500 -1.2184 -4.4745
   28MOL0     H 3835   9.898  10.927   3.545 -1.1682 -1.0853  1.9117
   28MOL0     H 3836   9.735  10.960   3.708  0.4103 -0.3632  0.1666
   28MOL0     H 3837   9.895  10.934   3.789 -0.5300  0.5137  1.3326
   28MOL0     H 3838   9.772  11.206   3.763 -0.7059  0.7151  1.2614
   28MOL0     H 3839   9.924  11.167   3.839 -0.1699  1.9084 -3.3771
   28MOL0     H 3840   9.711  11.193   4.007 -2.3689 -0.5900 -1.4858
   28MOL0     H 3841   9.814  11.035   4.012  0.1471  0.4565  0.0662
   28MOL0     H 3842   9.581  11.015   4.050 -1.2624  2.4635 -0.1781
   28MOL0     H 3843   9.641  10.924   3.904  2.9890 -0.2456  1.2618
   28MOL0     H 3844   9.658  10.758   3.258 -0.4179 -1.7306 -1.4004
   28MOL0     H 3845   9.716  10.577   3.098  1.4494 -0.3006 -1.1388
   28MOL0     H 3846  10.153  10.568   2.599  1.8968  1.0506  2.2963
   28MOL0     H 3847  10.206  10.365   2.476 -1.9183  1.2961 -0.2727
   28MOL0     H 3848   9.037   9.042   2.491 -0.1259 -2.0181 -1.7288
   28MOL0     H 3849   9.052   8.808   2.415 -2.1768 -0.7705 -0.4040
   28MOL0     H 3850   9.248   8.427   2.534 -2.3390  1.4389  0.1268
   28MOL0     H 3851   9.353   8.221   2.518  0.3609 -0.5230  0.2360
   28MOL0     H 3852   9.087   7.860   2.382 -0.5859 -3.0553  0.0343
   28MOL0     H 3853   9.240   7.787   2.404 -1.2297 -0.2322 -1.4359
   28MOL0     H 3854   9.036   7.849   2.614 -2.1475 -1.9358 -1.4872
   28MOL0     H 3855   9.186   7.803   2.671 -0.2110  2.4891 -0.6406
   28MOL0     H 3856   9.038   7.626   2.678 -1.7206  1.6968  0.6689
   28MOL0     H 3857   9.000   7.646   2.499  1.5008  0.8375 -0.1024
   28MOL0     H 3858   9.274   7.565   2.590  0.6541 -2.7168 -0.0637
   28MOL0     H 3859   9.193   7.533   2.436 -2.8218 -0.2822 -0.3999
   28MOL0     H 3860   9.073   7.205   2.612 -0.6764  0.5868 -3.4762
   28MOL0     H 3861   8.975   8.020   2.476 -0.5814  0.3942 -2.6081
   28MOL0     H 3862   8.766   8.290   2.496  1.5710  1.1740 -0.8411
   28MOL0     H 3863   8.793   8.122   2.546  0.2849  0.2270  1.3969
   28MOL0     H 3864   8.810   8.257   2.666  1.8162  1.4083  0.5421
   29MOL0     O 3865   9.363   6.022  11.033 -0.1618 -0.2798 -0.2723
   29MOL0     C 3866   9.397   6.128  10.984 -0.5049 -0.0710 -0.4368
   29MOL0     O 3867   9.511   6.196  11.010 -0.5084 -0.1547  0.3918
   29MOL0     C 3868   9.602   6.155  11.104 -0.5484  0.3677  0.2262
   29MOL0     C 3869   9.630   6.019  11.108 -0.3112  0.2125 -0.3169
   29MOL0     C 3870   9.721   5.965  11.205 -0.1504  0.2673  1.2044
   29MOL0     C 3871   9.787   6.054  11.297 -0.1109  0.2372  0.3200
   29MOL0     O 3872   9.883   6.001  11.388 -0.1835 -0.6398 -0.5694
   29MOL0     C 3873   9.895   6.079  11.510 -0.9501 -0.7499 -1.2168
   29MOL0     C 3874   9.931   5.984  11.628 -0.9079 -0.7049 -0.3985
   29MOL0     C 3875   9.943   6.065  11.758  0.1456  0.9943 -0.5037
   29MOL0     C 3876   9.966   5.965  11.865 -0.7565  0.0604 -0.7103
   29MOL0     C 3877   9.995   6.037  12.005  0.2181  0.5717  0.5304
   29MOL0     C 3878   9.880   6.118  12.055 -0.1829 -0.1764  0.6025
   29MOL0     C 3879   9.754   6.040  12.077  0.6143 -0.6352 -0.1164
   29MOL0     C 3880   9.738   5.959  12.206  0.6919  0.9852 -0.5259
   29MOL0     N 3881   9.591   5.919  12.218 -0.7737 -0.2001 -0.1076
   29MOL0     C 3882   9.532   5.824  12.137  0.5709  0.3188 -0.1709
   29MOL0     C 3883   9.403   5.835  12.170  0.0414 -0.4359 -0.5883
   29MOL0     C 3884   9.284   5.750  12.110 -0.1177  0.6904 -1.0737
   29MOL0     C 3885   9.225   5.786  11.977 -0.7797 -0.0312  0.1018
   29MOL0     C 3886   9.175   5.925  11.968 -0.0147 -0.2147  0.3075
   29MOL0     C 3887   9.131   5.948  11.813 -0.3143 -0.0653  0.2260
   29MOL0     O 3888   9.070   6.070  11.784  0.3773  0.0562 -0.3883
   29MOL0     C 3889   9.026   6.098  11.659  0.6222  0.8975 -1.1290
   29MOL0     C 3890   9.046   6.012  11.551  0.1633 -0.6815  0.0070
   29MOL0     C 3891   8.998   6.041  11.424 -0.0454 -0.1830  1.1678
   29MOL0     C 3892   9.054   5.954  11.305 -0.3074 -0.5669 -0.8335
   29MOL0     C 3893   8.903   6.142  11.405  0.6578  1.0013 -0.1507
   29MOL0     C 3894   8.821   6.164  11.282  0.1922  0.5476  0.4428
   29MOL0     O 3895   8.693   6.199  11.299  0.3074 -0.3887 -0.2134
   29MOL0     C 3896   8.637   6.288  11.213 -0.4519  0.2172  0.4668
   29MOL0     C 3897   8.508   6.283  11.167 -0.9390  0.5925 -1.2344
   29MOL0     C 3898   8.460   6.381  11.088  0.0060 -0.9851 -0.5567
   29MOL0     C 3899   8.535   6.499  11.062 -0.3178  0.5324 -0.0055
   29MOL0     O 3900   8.479   6.607  10.990  0.3374 -0.0850 -0.0366
   29MOL0     C 3901   8.346   6.630  10.993  0.6270 -0.3222 -0.6636
   29MOL0     C 3902   8.322   6.778  10.976 -0.6304 -0.5647  0.0302
   29MOL0     C 3903   8.169   6.816  10.991  0.6869  0.0253 -0.0544
   29MOL0     C 3904   8.120   6.912  10.873  0.0707  0.2687  0.0210
   29MOL0     C 3905   7.981   6.970  10.911 -0.2372 -0.5296  0.5547
   29MOL0     C 3906   7.989   7.078  11.030 -0.1303  0.7893  0.2553
   29MOL0     C 3907   7.870   7.173  11.026 -0.1642  0.4547  0.0271
   29MOL0     C 3908   7.866   7.283  11.116  0.4253  0.0452  0.1731
   29MOL0    Cl 3909   7.872   7.225  11.294 -0.0483 -0.5300  0.0977
   29MOL0     C 3910   8.662   6.507  11.111 -0.0306  0.0715 -0.6159
   29MOL0     C 3911   8.709   6.410  11.187 -0.2989 -0.1382 -0.0570
   29MOL0     O 3912   8.873   6.136  11.174  0.3925 -0.2878 -0.4488
   29MOL0     C 3913   8.877   6.223  11.515  0.4059 -0.0112  0.5596
   29MOL0     C 3914   8.942   6.201  11.637 -0.3246  0.3871  0.7943
   29MOL0     N 3915   9.383   5.928  12.270 -0.3906 -0.4385  0.0948
   29MOL0     N 3916   9.504   5.982  12.300 -0.1985  0.3971  0.1762
   29MOL0     C 3917   9.743   6.190  11.300  0.1830  0.2046 -0.3304
   29MOL0     C 3918   9.655   6.241  11.198 -0.1799  0.6642  0.7629
   29MOL0     C 3919   9.300   6.206  10.908 -0.0920 -0.2019  1.5880
   29MOL0     C 3920   9.156   6.188  10.931  0.4529  0.1975 -0.4921
   29MOL0     C 3921   9.057   6.259  10.853 -0.0299  0.2102  0.5080
   29MOL0     C 3922   9.101   6.349  10.751 -0.0756 -0.2324 -0.3062
   29MOL0     O 3923   9.014   6.429  10.687  0.6654  0.5207 -0.3029
   29MOL0     C 3924   8.872   6.425  10.702  0.1422  0.2303 -0.1384
   29MOL0     C 3925   8.783   6.530  10.626 -0.4029 -0.0559  0.2550
   29MOL0     C 3926   8.838   6.673  10.639 -1.4178 -0.9276 -0.3352
   29MOL0     C 3927   8.867   6.724  10.787 -0.5936  0.1399  0.3259
   29MOL0     C 3928   8.837   6.862  10.822 -0.2089 -0.7519  0.1962
   29MOL0     C 3929   8.816   6.980  10.850  0.8783  0.0496  0.5844
   29MOL0     C 3930   9.239   6.360  10.732  1.5690  0.0727  0.6256
   29MOL0     C 3931   9.334   6.297  10.807 -0.1063  0.2692 -0.8011
   29MOL0     C 3932   9.480   6.331  10.774  0.3408 -0.2816  0.4152
   29MOL0     H 3933   9.584   5.964  11.027  1.1796 -0.0367 -1.0274
   29MOL0     H 3934   9.742   5.859  11.196  1.3293  0.7056 -4.6563
   29MOL0     H 3935   9.807   6.135  11.544  0.1781  1.3615 -1.5389
   29MOL0     H 3936   9.972   6.157  11.497  0.2741 -1.4265  1.2719
   29MOL0     H 3937   9.860   5.902  11.634  1.1041 -2.4374  2.1075
   29MOL0     H 3938  10.032   5.944  11.613 -0.7993 -1.9426  2.8312
   29MOL0     H 3939  10.028   6.133  11.765  2.3773 -1.6606 -0.0883
   29MOL0     H 3940   9.856   6.128  11.777 -0.1861  0.4344 -0.1591
   29MOL0     H 3941   9.896   5.883  11.884 -0.7710  0.3654  0.6543
   29MOL0     H 3942  10.052   5.908  11.827 -1.2734 -0.6396 -0.8561
   29MOL0     H 3943  10.079   6.107  12.003  0.1763  0.5942 -0.4757
   29MOL0     H 3944  10.020   5.953  12.071  2.0889 -0.1828 -1.0755
   29MOL0     H 3945   9.922   6.151  12.151  0.5584 -0.7005  0.4630
   29MOL0     H 3946   9.864   6.208  11.996 -1.9545 -0.4722  0.6000
   29MOL0     H 3947   9.718   5.991  11.985 -0.1859  0.1636 -0.2412
   29MOL0     H 3948   9.684   6.124  12.080 -1.0969 -2.0131 -0.0351
   29MOL0     H 3949   9.815   5.882  12.219  1.7374  1.9043 -1.0823
   29MOL0     H 3950   9.753   6.016  12.298 -0.1510 -2.6256  2.0595
   29MOL0     H 3951   9.590   5.757  12.074  0.0186  0.4827 -0.8660
   29MOL0     H 3952   9.201   5.763  12.181 -0.9027 -1.4165 -1.4990
   29MOL0     H 3953   9.313   5.644  12.114  0.0133  0.7542  0.3681
   29MOL0     H 3954   9.303   5.777  11.900  0.7552  1.1304  1.4686
   29MOL0     H 3955   9.133   5.730  11.955 -0.4784 -0.2774 -0.5785
   29MOL0     H 3956   9.087   5.946  12.029  0.2115  0.2112  0.4970
   29MOL0     H 3957   9.258   5.994  11.989  1.4553 -0.9320 -2.5947
   29MOL0     H 3958   9.224   5.939  11.756 -0.0146  1.1004  0.5131
   29MOL0     H 3959   9.063   5.866  11.789 -1.0417  1.0849 -1.8896
   29MOL0     H 3960   9.104   5.921  11.559 -0.8920 -1.3390  0.3901
   29MOL0     H 3961   9.130   6.010  11.250 -0.5084  0.8068  0.2250
   29MOL0     H 3962   8.971   5.928  11.239 -1.4160 -0.5110  0.4757
   29MOL0     H 3963   9.090   5.860  11.348  0.0516 -0.4027 -0.7671
   29MOL0     H 3964   8.449   6.195  11.187 -2.4654  1.7813 -0.2566
   29MOL0     H 3965   8.363   6.372  11.041  0.0319 -1.2712 -0.5554
   29MOL0     H 3966   8.290   6.575  10.917 -3.0932 -0.5538  1.9862
   29MOL0     H 3967   8.300   6.603  11.088 -0.3888 -0.9339 -1.3059
   29MOL0     H 3968   8.387   6.841  11.038  3.2593 -2.4081 -1.8129
   29MOL0     H 3969   8.363   6.797  10.877 -0.4840  1.7204  0.4879
   29MOL0     H 3970   8.152   6.852  11.093 -2.8116 -1.1747 -0.1005
   29MOL0     H 3971   8.117   6.722  10.970  1.8815 -0.4279 -1.1079
   29MOL0     H 3972   8.113   6.866  10.774  0.6405  1.3483 -0.5419
   29MOL0     H 3973   8.193   6.992  10.855 -1.0566  0.9512 -1.7186
   29MOL0     H 3974   7.961   7.015  10.813  1.3648 -0.8179  0.0541
   29MOL0     H 3975   7.907   6.893  10.932 -0.7054 -0.2179  0.0879
   29MOL0     H 3976   8.083   7.133  11.032 -1.1173  2.5318  1.2081
   29MOL0     H 3977   7.990   7.017  11.120 -2.1296  1.4340  0.7699
   29MOL0     H 3978   7.776   7.120  11.046  0.0336  0.3197  0.6182
   29MOL0     H 3979   7.851   7.201  10.922 -1.0518 -1.7024 -0.4405
   29MOL0     H 3980   7.790   7.357  11.091  1.5973  1.9764  1.9102
   29MOL0     H 3981   7.955   7.344  11.097 -0.0921  0.9665  0.6458
   29MOL0     H 3982   8.712   6.599  11.086 -1.2092  1.2932  1.3027
   29MOL0     H 3983   8.809   6.415  11.228 -0.3461 -0.5351  0.1120
   29MOL0     H 3984   8.810   6.308  11.507  1.3410  0.8198  1.3372
   29MOL0     H 3985   8.902   6.260  11.719  0.3916 -0.0285  1.4530
   29MOL0     H 3986   9.790   6.258  11.371 -1.4424  0.4819  0.5254
   29MOL0     H 3987   9.632   6.346  11.183  0.5124  0.5811 -1.0709
   29MOL0     H 3988   9.124   6.129  11.016 -3.2320  0.4639 -1.5333
   29MOL0     H 3989   8.952   6.250  10.881 -0.1210  2.2520  0.9689
   29MOL0     H 3990   8.836   6.326  10.671 -0.0574  0.7128 -1.5355
   29MOL0     H 3991   8.853   6.441  10.809  1.0495  1.5307 -0.1432
   29MOL0     H 3992   8.681   6.523  10.666  0.1219  1.9636  2.0952
   29MOL0     H 3993   8.769   6.507  10.519 -0.9725 -2.6915  0.8153
   29MOL0     H 3994   8.930   6.688  10.581 -2.0671  0.7183 -1.0024
   29MOL0     H 3995   8.772   6.751  10.600  1.1118  2.7687  2.0769
   29MOL0     H 3996   8.969   6.699  10.817  0.3078  0.7429 -2.0129
   29MOL0     H 3997   8.808   6.663  10.855 -2.7123  0.0792 -1.4680
   29MOL0     H 3998   8.797   7.077  10.893  1.5630 -0.0282  1.0724
   29MOL0     H 3999   9.273   6.429  10.655  1.5618 -0.3994  0.1996
   29MOL0     H 4000   9.521   6.397  10.851 -0.7664 -0.7022  1.3943
   29MOL0     H 4001   9.527   6.233  10.764 -0.3919 -1.0610  3.5660
   29MOL0     H 4002   9.490   6.374  10.674  1.5758 -2.0778 -0.2648
   30MOL0     O 4003   3.600   9.207  11.294  0.3817 -0.2587 -0.1019
   30MOL0     C 4004   3.646   9.197  11.182  0.8770 -0.8178  1.0645
   30MOL0     O 4005   3.755   9.261  11.126  1.1675 -0.6544  0.8057
   30MOL0     C 4006   3.825   9.353  11.197  0.7998  0.1954  0.6963
   30MOL0     C 4007   3.776   9.459  11.272 -0.2869  0.7390  0.2668
   30MOL0     C 4008   3.865   9.549  11.332  0.8750  1.3546 -0.4576
   30MOL0     C 4009   4.001   9.533  11.307  0.2072 -0.4783  0.0519
   30MOL0     O 4010   4.098   9.618  11.347 -0.3684 -0.6574  0.1347
   30MOL0     C 4011   4.063   9.736  11.419  0.1788  0.1833 -0.1447
   30MOL0     C 4012   4.187   9.821  11.461 -0.0383  0.2563 -0.4179
   30MOL0     C 4013   4.230   9.915  11.344 -0.0267  0.4928 -0.8734
   30MOL0     C 4014   4.332  10.013  11.391  0.6086 -0.2823  0.5227
   30MOL0     C 4015   4.364  10.115  11.281  0.4800  0.8188 -0.1477
   30MOL0     C 4016   4.477  10.202  11.318  0.3731 -0.0645  0.0922
   30MOL0     C 4017   4.601  10.117  11.278 -0.9101 -0.4149  0.0469
   30MOL0     C 4018   4.724  10.140  11.373  0.0956 -0.0129  0.1341
   30MOL0     N 4019   4.708  10.083  11.506  0.4540  0.5949 -0.0007
   30MOL0     C 4020   4.719   9.950  11.517  0.4762  0.2630 -1.3740
   30MOL0     C 4021   4.672   9.915  11.635 -0.4178 -0.1663 -0.3136
   30MOL0     C 4022   4.665   9.776  11.682  0.9442  0.1931  0.0846
   30MOL0     C 4023   4.519   9.726  11.670 -0.8952  0.4500 -0.3172
   30MOL0     C 4024   4.495   9.585  11.723 -0.3743  0.9308  0.4446
   30MOL0     C 4025   4.360   9.531  11.697 -1.1625  0.1752  0.4393
   30MOL0     O 4026   4.349   9.418  11.778  0.2189 -0.2315 -0.1948
   30MOL0     C 4027   4.242   9.332  11.748 -0.8225  0.1834 -0.2875
   30MOL0     C 4028   4.239   9.208  11.810  0.2343 -0.6644 -0.0395
   30MOL0     C 4029   4.142   9.118  11.777 -0.7599  0.0724  0.2283
   30MOL0     C 4030   4.158   8.977  11.845  0.3383 -0.9020  0.5780
   30MOL0     C 4031   4.037   9.154  11.697  0.0717 -0.0957  0.3847
   30MOL0     C 4032   3.934   9.059  11.657 -0.0119 -0.8155 -0.7596
   30MOL0     O 4033   3.802   9.090  11.666 -0.4082 -0.0572  0.0877
   30MOL0     C 4034   3.711   8.986  11.670 -0.1677 -0.9088  0.6742
   30MOL0     C 4035   3.724   8.891  11.771  0.4889 -0.3867  0.5504
   30MOL0     C 4036   3.629   8.786  11.778  0.0323 -0.1839  0.3657
   30MOL0     C 4037   3.508   8.788  11.699  0.0449  1.0727 -0.2037
   30MOL0     O 4038   3.391   8.722  11.725  0.0895  0.9031 -0.1224
   30MOL0     C 4039   3.355   8.653  11.849  0.5020  0.1078  0.1292
   30MOL0     C 4040   3.291   8.746  11.962 -0.7223  0.2427 -0.9527
   30MOL0     C 4041   3.394   8.804  12.059 -0.5275  1.0782 -0.7680
   30MOL0     C 4042   3.436   8.710  12.176 -0.9881  0.8721 -0.6930
   30MOL0     C 4043   3.551   8.767  12.265  0.5205 -0.3333  0.3685
   30MOL0     C 4044   3.503   8.878  12.355 -0.4870 -1.4421  0.4016
   30MOL0     C 4045   3.626   8.927  12.434 -0.5975  0.5811  0.5522
   30MOL0     C 4046   3.610   9.051  12.506  0.3291  0.0759 -0.8220
   30MOL0    Cl 4047   3.749   9.092  12.596  0.1117  0.5802  0.0965
   30MOL0     C 4048   3.497   8.891  11.605 -0.6228  0.3397  0.0832
   30MOL0     C 4049   3.593   8.990  11.593 -0.2022  0.1939 -0.7705
   30MOL0     O 4050   3.975   8.946  11.619 -0.3808  0.0798 -0.8615
   30MOL0     C 4051   4.033   9.282  11.641  0.5960  0.1036 -0.3394
   30MOL0     C 4052   4.131   9.370  11.669  0.0496  0.1925 -0.0464
   30MOL0     N 4053   4.629  10.030  11.699 -0.0710  0.2517  0.2571
   30MOL0     N 4054   4.653  10.134  11.615  1.1630 -0.1979 -0.3678
   30MOL0     C 4055   4.055   9.422  11.242 -0.3680 -0.4159  0.3335
   30MOL0     C 4056   3.967   9.331  11.186  1.1250 -0.0958 -0.6688
   30MOL0     C 4057   3.565   9.107  11.088 -1.3286 -0.0216 -0.1680
   30MOL0     C 4058   3.577   9.122  10.947  0.7927  0.3038  0.8625
   30MOL0     C 4059   3.489   9.059  10.855  1.4021  0.1266 -0.3485
   30MOL0     C 4060   3.393   8.969  10.895  0.6600 -1.1311 -0.3400
   30MOL0     O 4061   3.309   8.902  10.815 -0.2978  0.2508 -0.6315
   30MOL0     C 4062   3.364   8.778  10.774 -0.1668 -0.7766 -0.1215
   30MOL0     C 4063   3.320   8.726  10.632 -0.0042  0.2500 -0.1405
   30MOL0     C 4064   3.307   8.836  10.525 -0.4454  0.5921  0.1506
   30MOL0     C 4065   3.326   8.762  10.396 -0.1400  0.4728 -0.0300
   30MOL0     C 4066   3.299   8.860  10.285  0.6972  1.1034  0.5909
   30MOL0     C 4067   3.281   8.921  10.180 -0.2734  0.2706  0.4479
   30MOL0     C 4068   3.381   8.949  11.032 -0.0041  0.8167 -0.1587
   30MOL0     C 4069   3.458   9.010  11.130 -0.6497  1.1133  0.1569
   30MOL0     C 4070   3.428   8.978  11.274  0.4088 -0.0067  0.5847
   30MOL0     H 4071   3.672   9.473  11.298  0.1095  2.9324  0.8359
   30MOL0     H 4072   3.804   9.628  11.374  0.9827  2.0886 -1.6228
   30MOL0     H 4073   4.012   9.701  11.509  0.8735  0.2597  0.2903
   30MOL0     H 4074   4.005   9.801  11.354  1.2715 -0.5883 -1.9669
   30MOL0     H 4075   4.159   9.888  11.543 -0.3122 -0.2983 -0.0544
   30MOL0     H 4076   4.273   9.759  11.485 -0.2858 -1.3965 -3.3152
   30MOL0     H 4077   4.265   9.859  11.256 -0.4183 -2.3833  0.6901
   30MOL0     H 4078   4.144   9.977  11.315  0.9750  1.3545 -2.1295
   30MOL0     H 4079   4.286  10.069  11.474  2.6591  1.1147  0.7907
   30MOL0     H 4080   4.412   9.948  11.424 -0.7521 -1.0922  2.4246
   30MOL0     H 4081   4.281  10.176  11.243  2.7045  3.4629 -1.0893
   30MOL0     H 4082   4.391  10.068  11.186 -2.6148 -0.1083 -0.6753
   30MOL0     H 4083   4.463  10.294  11.260 -1.9591  1.4828  2.8703
   30MOL0     H 4084   4.482  10.231  11.423 -3.0725  2.7161 -0.3346
   30MOL0     H 4085   4.642  10.145  11.181 -1.4203 -1.5995 -0.5366
   30MOL0     H 4086   4.581  10.009  11.275 -1.4145 -0.3025 -2.4786
   30MOL0     H 4087   4.805  10.088  11.320 -0.2304 -0.9263  0.5045
   30MOL0     H 4088   4.740  10.248  11.380 -0.7852  0.3461 -2.3429
   30MOL0     H 4089   4.750   9.882  11.439 -0.3252  1.1043 -2.4480
   30MOL0     H 4090   4.696   9.771  11.787 -1.3605 -2.7620  0.7698
   30MOL0     H 4091   4.727   9.719  11.612 -2.3214 -0.3587 -2.5866
   30MOL0     H 4092   4.454   9.803  11.713  1.3946  2.2010  0.1533
   30MOL0     H 4093   4.488   9.728  11.565 -0.7070 -1.9034 -0.4688
   30MOL0     H 4094   4.561   9.516  11.669  1.6653  1.7471  1.7628
   30MOL0     H 4095   4.520   9.589  11.829  1.4386 -0.3845  0.1211
   30MOL0     H 4096   4.292   9.611  11.727 -1.8844 -0.4224  0.4211
   30MOL0     H 4097   4.342   9.515  11.590 -1.0416 -0.6284  0.5313
   30MOL0     H 4098   4.326   9.185  11.870 -0.2457 -0.4331  0.7517
   30MOL0     H 4099   4.065   8.937  11.886  0.0975  0.5395  1.5024
   30MOL0     H 4100   4.224   9.002  11.930 -1.4368  1.2882  1.4106
   30MOL0     H 4101   4.207   8.903  11.781  2.0345  1.1669 -0.6454
   30MOL0     H 4102   3.814   8.883  11.832  3.3024  0.3855 -3.1523
   30MOL0     H 4103   3.628   8.717  11.862 -3.5217  2.2246  2.5379
   30MOL0     H 4104   3.279   8.580  11.820 -0.3377  0.5800  1.0588
   30MOL0     H 4105   3.442   8.602  11.890  0.0931  1.9326  3.7236
   30MOL0     H 4106   3.243   8.832  11.914 -1.9941 -0.2046 -0.5537
   30MOL0     H 4107   3.204   8.699  12.009 -1.3028  1.1434 -1.0943
   30MOL0     H 4108   3.344   8.880  12.119  2.9429  0.2103  3.7962
   30MOL0     H 4109   3.490   8.836  12.016  0.0516  1.9911  1.0744
   30MOL0     H 4110   3.481   8.623  12.127  0.4122  2.0022 -1.5046
   30MOL0     H 4111   3.344   8.677  12.224 -0.2141 -1.0665 -0.4246
   30MOL0     H 4112   3.582   8.699  12.345  2.8015  1.5249  1.1882
   30MOL0     H 4113   3.638   8.793  12.203  1.3943  0.3743  1.8263
   30MOL0     H 4114   3.421   8.851  12.422 -1.9492  0.1886 -0.6550
   30MOL0     H 4115   3.471   8.961  12.292  1.2908 -2.7199 -2.4062
   30MOL0     H 4116   3.711   8.943  12.367  1.3660  1.7206  3.1532
   30MOL0     H 4117   3.658   8.851  12.506  0.4544  1.0172  0.5615
   30MOL0     H 4118   3.526   9.024  12.571  1.6325 -0.4201  0.6991
   30MOL0     H 4119   3.579   9.136  12.444 -1.2703  0.8418  0.9169
   30MOL0     H 4120   3.411   8.882  11.540  0.9710 -4.7283 -1.8083
   30MOL0     H 4121   3.583   9.071  11.522  0.2220  1.5770  0.6993
   30MOL0     H 4122   3.949   9.298  11.574  0.2639  2.3918  0.5084
   30MOL0     H 4123   4.111   9.474  11.647  0.5921 -0.3937 -3.9819
   30MOL0     H 4124   4.163   9.414  11.242 -0.4269 -1.4588  0.6711
   30MOL0     H 4125   4.005   9.236  11.151  0.7654 -0.2242 -0.7195
   30MOL0     H 4126   3.656   9.185  10.908  2.7205 -2.1112  0.5903
   30MOL0     H 4127   3.508   9.083  10.751  0.5073  0.6355 -0.4041
   30MOL0     H 4128   3.473   8.785  10.781 -0.3331  0.7414  1.7595
   30MOL0     H 4129   3.348   8.701  10.850  1.1100 -1.4681 -0.5072
   30MOL0     H 4130   3.222   8.678  10.648 -0.1402 -0.0582 -1.7218
   30MOL0     H 4131   3.393   8.653  10.596 -1.1509  1.2487 -5.2255
   30MOL0     H 4132   3.215   8.896  10.530 -1.2846 -0.6912  0.7492
   30MOL0     H 4133   3.384   8.912  10.539  1.1385 -0.2701 -3.0099
   30MOL0     H 4134   3.254   8.681  10.386  0.3868 -0.2046  1.4625
   30MOL0     H 4135   3.423   8.713  10.395 -1.6261 -2.9994  3.7156
   30MOL0     H 4136   3.279   8.976  10.088  1.6994 -0.4235 -0.0662
   30MOL0     H 4137   3.307   8.882  11.074 -0.1479  1.1099  0.0595
   30MOL0     H 4138   3.361   8.891  11.278 -0.2417  0.5247  1.5654
   30MOL0     H 4139   3.519   8.964  11.332 -0.2371 -0.4225  1.5364
   30MOL0     H 4140   3.365   9.053  11.323 -0.4380 -1.0443  1.1393
   31MOL0     O 4141  11.210   4.501   4.456 -0.0352 -0.0484 -0.2064
   31MOL0     C 4142  11.265   4.577   4.371 -0.4554  0.1642 -0.1131
   31MOL0     O 4143  11.233   4.590   4.245 -0.0074 -0.2514  0.4831
   31MOL0     C 4144  11.211   4.722   4.207 -0.2509  0.3281  0.3556
   31MOL0     C 4145  11.278   4.772   4.091 -0.4634  0.3355  0.4622
   31MOL0     C 4146  11.253   4.899   4.046 -0.4329 -0.2310  0.8299
   31MOL0     C 4147  11.193   4.993   4.121  0.1438 -0.7646 -0.5697
   31MOL0     O 4148  11.189   5.121   4.075  0.8602 -0.1514  0.3751
   31MOL0     C 4149  11.114   5.223   4.137 -0.6309  0.6946  0.5439
   31MOL0     C 4150  11.161   5.356   4.101  0.1647 -0.5107 -0.2804
   31MOL0     C 4151  11.088   5.469   4.171 -0.0409 -0.4626  0.3790
   31MOL0     C 4152  11.182   5.590   4.154 -0.6358 -0.6979 -0.2981
   31MOL0     C 4153  11.130   5.711   4.242 -0.1660  0.1148 -0.0159
   31MOL0     C 4154  11.210   5.836   4.197  0.0571 -0.5179 -0.2618
   31MOL0     C 4155  11.139   5.962   4.241  0.4236  0.1983 -0.3800
   31MOL0     C 4156  11.212   6.084   4.193  0.2060  1.2233 -0.2768
   31MOL0     N 4157  11.134   6.205   4.233  0.3487 -0.0212  0.0063
   31MOL0     C 4158  11.013   6.254   4.174  0.4810  0.6865  0.3042
   31MOL0     C 4159  10.987   6.364   4.243  0.4776  0.1880  0.3474
   31MOL0     C 4160  10.863   6.454   4.222 -0.1794  0.8520 -0.1928
   31MOL0     C 4161  10.863   6.526   4.082 -0.2844  0.3173  0.3271
   31MOL0     C 4162  10.972   6.634   4.060 -0.4895  0.7896 -0.3897
   31MOL0     C 4163  10.973   6.703   3.919  0.2093  0.5499 -0.2917
   31MOL0     O 4164  10.830   6.732   3.883 -0.4089 -0.0987  0.4926
   31MOL0     C 4165  10.802   6.791   3.754  0.0664 -0.2255 -0.5383
   31MOL0     C 4166  10.898   6.849   3.665 -0.0707  0.2257  0.3864
   31MOL0     C 4167  10.848   6.905   3.542 -1.1010 -0.1899 -1.0997
   31MOL0     C 4168  10.957   6.970   3.457  0.5298  0.2387 -0.9083
   31MOL0     C 4169  10.715   6.907   3.512  0.3205  0.3737 -0.2504
   31MOL0     C 4170  10.660   6.980   3.398 -0.3690  0.4469 -0.6434
   31MOL0     O 4171  10.672   7.120   3.403  0.4100  0.2825  0.8066
   31MOL0     C 4172  10.652   7.206   3.294  0.3046 -0.6918 -0.4570
   31MOL0     C 4173  10.744   7.302   3.271 -0.4672 -0.5556 -0.6252
   31MOL0     C 4174  10.719   7.404   3.176  0.5215 -0.2338 -0.2025
   31MOL0     C 4175  10.599   7.399   3.097  0.0534 -0.3500 -0.4940
   31MOL0     O 4176  10.563   7.479   2.990 -0.1467  0.1755 -0.4654
   31MOL0     C 4177  10.620   7.610   2.999 -0.4394  0.6557  0.2934
   31MOL0     C 4178  10.566   7.689   2.879  0.4659 -1.0627 -0.8498
   31MOL0     C 4179  10.417   7.729   2.902  0.3441  1.0622  0.0301
   31MOL0     C 4180  10.348   7.752   2.763  0.5840 -0.0470 -0.5572
   31MOL0     C 4181  10.197   7.755   2.779  0.4852  0.6462 -0.2552
   31MOL0     C 4182  10.133   7.849   2.679  0.5799 -0.3950 -1.0045
   31MOL0     C 4183   9.977   7.842   2.691  0.6048  0.4508  0.3720
   31MOL0     C 4184   9.901   7.974   2.643 -0.3101 -0.9165 -0.3729
   31MOL0    Cl 4185   9.959   8.020   2.489 -0.0982 -0.2935  0.0730
   31MOL0     C 4186  10.509   7.296   3.123  0.2061 -0.1898 -0.4505
   31MOL0     C 4187  10.532   7.203   3.224  0.2260 -0.5558 -0.1847
   31MOL0     O 4188  10.617   6.915   3.310 -0.3744  0.3424  0.3396
   31MOL0     C 4189  10.627   6.827   3.592  1.2022 -0.0749 -0.0329
   31MOL0     C 4190  10.673   6.774   3.707  0.3543 -0.6761  0.9011
   31MOL0     N 4191  11.086   6.383   4.337  0.8524  0.2293 -0.2629
   31MOL0     N 4192  11.171   6.282   4.340  0.0487 -0.3473  1.4773
   31MOL0     C 4193  11.133   4.949   4.240  0.2852 -0.4330 -1.0086
   31MOL0     C 4194  11.137   4.818   4.274 -0.7632  0.2301 -0.5739
   31MOL0     C 4195  11.382   4.651   4.430 -0.0356  0.0522  0.0697
   31MOL0     C 4196  11.495   4.666   4.346 -0.6443  0.2942 -0.2754
   31MOL0     C 4197  11.618   4.709   4.400 -0.5093  0.6011  0.1905
   31MOL0     C 4198  11.625   4.763   4.527 -0.1631 -0.5381 -0.3814
   31MOL0     O 4199  11.755   4.803   4.566 -0.3467  0.0119  0.0908
   31MOL0     C 4200  11.785   4.887   4.681  0.1119 -0.1676 -0.2862
   31MOL0     C 4201  11.821   4.810   4.806  0.5692  0.1561  0.9172
   31MOL0     C 4202  11.958   4.739   4.791  0.4282  0.1728 -0.2714
   31MOL0     C 4203  12.076   4.814   4.859  0.0857  0.0548 -0.1250
   31MOL0     C 4204  12.134   4.923   4.767 -0.5069  0.4582 -0.1867
   31MOL0     C 4205  12.166   5.013   4.696  0.6309  0.0658  0.6061
   31MOL0     C 4206  11.505   4.772   4.606 -0.9496  0.2807  0.0085
   31MOL0     C 4207  11.385   4.711   4.562  0.2794 -0.8852 -0.2684
   31MOL0     C 4208  11.270   4.712   4.654 -0.1380 -0.5463 -0.6849
   31MOL0     H 4209  11.339   4.696   4.043 -1.6069 -0.0734 -0.3991
   31MOL0     H 4210  11.297   4.921   3.949 -0.0037 -1.1312  0.8081
   31MOL0     H 4211  11.103   5.212   4.246 -1.6729  1.7645  0.5648
   31MOL0     H 4212  11.008   5.228   4.113 -0.6834  2.2077  0.9473
   31MOL0     H 4213  11.268   5.354   4.121  0.5405  3.1113 -1.1752
   31MOL0     H 4214  11.147   5.365   3.993 -1.3023  1.1691  0.0094
   31MOL0     H 4215  10.988   5.490   4.132 -0.6417  2.6604  3.1713
   31MOL0     H 4216  11.061   5.452   4.276 -0.3801  0.6808  0.4853
   31MOL0     H 4217  11.284   5.554   4.167 -0.6547 -0.6216  0.0652
   31MOL0     H 4218  11.185   5.630   4.052  2.7709 -0.0162 -0.0386
   31MOL0     H 4219  11.152   5.683   4.346 -0.1409 -3.0711 -0.7589
   31MOL0     H 4220  11.022   5.726   4.230 -0.5210 -0.3851  2.0282
   31MOL0     H 4221  11.306   5.833   4.250  1.1367 -0.5200 -2.1307
   31MOL0     H 4222  11.228   5.842   4.089 -4.1931 -2.7039 -1.3356
   31MOL0     H 4223  11.131   5.961   4.350  0.6415 -0.4610 -0.3667
   31MOL0     H 4224  11.036   5.962   4.203 -0.0076 -1.8822  0.6571
   31MOL0     H 4225  11.312   6.085   4.237  0.8523  1.4022 -1.6943
   31MOL0     H 4226  11.215   6.080   4.084  0.9271 -0.9339 -0.2221
   31MOL0     H 4227  10.961   6.212   4.088  0.9491  3.9513 -1.7574
   31MOL0     H 4228  10.869   6.524   4.306 -0.5814  1.3887 -0.6077
   31MOL0     H 4229  10.771   6.396   4.217 -0.8383  1.9457 -1.2077
   31MOL0     H 4230  10.868   6.449   4.005  1.4623  1.8462 -1.1967
   31MOL0     H 4231  10.761   6.564   4.073 -0.6146 -0.4190  0.8299
   31MOL0     H 4232  10.955   6.715   4.131 -1.4831 -0.3522  0.7347
   31MOL0     H 4233  11.067   6.580   4.066  0.2517  1.8357 -2.1320
   31MOL0     H 4234  11.030   6.794   3.940  1.4576 -0.5211  1.1294
   31MOL0     H 4235  11.023   6.640   3.844 -2.1745 -1.1364 -0.5688
   31MOL0     H 4236  11.006   6.852   3.677  0.0160 -2.3837  0.8398
   31MOL0     H 4237  11.059   6.960   3.496 -0.2339 -1.8569  0.7383
   31MOL0     H 4238  10.936   7.077   3.460 -2.3060 -0.1104 -3.6402
   31MOL0     H 4239  10.959   6.930   3.355  1.3100  1.5331 -1.4295
   31MOL0     H 4240  10.842   7.287   3.317  1.0152  0.0339 -3.3531
   31MOL0     H 4241  10.793   7.483   3.166 -0.3001  0.5342 -0.3816
   31MOL0     H 4242  10.600   7.664   3.092 -2.7347 -1.7976  1.3486
   31MOL0     H 4243  10.729   7.610   2.986 -0.4183  0.9850  0.4735
   31MOL0     H 4244  10.626   7.781   2.874  0.6488 -1.0965  0.5241
   31MOL0     H 4245  10.593   7.635   2.788 -0.8536 -0.5601 -1.5640
   31MOL0     H 4246  10.403   7.814   2.969 -1.3956  0.1107  0.9355
   31MOL0     H 4247  10.374   7.642   2.953 -1.7266  1.3586 -1.0989
   31MOL0     H 4248  10.369   7.666   2.699 -0.7553  0.3548 -1.5961
   31MOL0     H 4249  10.379   7.846   2.716  3.3165 -0.7914 -0.3840
   31MOL0     H 4250  10.152   7.657   2.760  0.2049  0.4851  1.1295
   31MOL0     H 4251  10.174   7.779   2.883 -0.4225  0.1798 -0.3356
   31MOL0     H 4252  10.168   7.828   2.578 -0.2532  1.6605 -1.7724
   31MOL0     H 4253  10.147   7.950   2.719 -1.2770  0.0259 -1.3164
   31MOL0     H 4254   9.949   7.822   2.795  1.3827  0.2755  0.5476
   31MOL0     H 4255   9.930   7.759   2.638  0.0105  0.9302  0.1307
   31MOL0     H 4256   9.929   8.052   2.714 -2.3383 -1.6328  1.3144
   31MOL0     H 4257   9.791   7.974   2.639 -0.5042  2.2813  1.6009
   31MOL0     H 4258  10.420   7.305   3.062 -0.9827 -0.0402  1.2430
   31MOL0     H 4259  10.450   7.136   3.247 -1.9173  0.7158 -3.4177
   31MOL0     H 4260  10.523   6.814   3.563  1.1033  0.0278  0.2714
   31MOL0     H 4261  10.611   6.704   3.762 -2.4348 -2.0962 -3.4732
   31MOL0     H 4262  11.076   5.018   4.301  1.7791 -1.9279  2.3892
   31MOL0     H 4263  11.095   4.796   4.372  1.2808 -2.4763 -0.1905
   31MOL0     H 4264  11.495   4.620   4.248  0.3687  0.7913 -0.5145
   31MOL0     H 4265  11.700   4.698   4.330 -0.7948 -4.3780  0.3114
   31MOL0     H 4266  11.863   4.954   4.645  2.4844 -3.1121 -1.0756
   31MOL0     H 4267  11.699   4.950   4.704  1.3870  0.9620  1.8347
   31MOL0     H 4268  11.742   4.742   4.839 -0.4201  1.2648  0.9085
   31MOL0     H 4269  11.815   4.880   4.890 -4.8958  1.1903  0.0673
   31MOL0     H 4270  11.949   4.639   4.833 -1.6061 -0.3483 -1.7911
   31MOL0     H 4271  11.987   4.733   4.686  0.2292 -0.3478 -0.2971
   31MOL0     H 4272  12.151   4.736   4.875 -1.1062 -0.6086  2.8663
   31MOL0     H 4273  12.040   4.856   4.953 -0.4258  0.9601 -0.7108
   31MOL0     H 4274  12.206   5.085   4.628  1.2020  0.4752  1.3555
   31MOL0     H 4275  11.523   4.825   4.699 -1.8450 -0.1408  0.4363
   31MOL0     H 4276  11.180   4.764   4.621 -0.9255 -0.0333  2.0111
   31MOL0     H 4277  11.242   4.613   4.692 -0.0114 -0.6713 -0.9151
   31MOL0     H 4278  11.301   4.775   4.737  0.1204  1.7013 -2.3926
   32MOL0     O 4279   0.858   5.540   0.492 -0.0301 -0.2082 -0.3808
   32MOL0     C 4280   0.943   5.479   0.564  0.3706 -0.4502  0.0806
   32MOL0     O 4281   0.941   5.483   0.697 -0.1562  0.2410 -0.2743
   32MOL0     C 4282   0.852   5.564   0.768  0.0773  0.5541 -0.1424
   32MOL0     C 4283   0.908   5.640   0.868 -0.4528  0.4875 -0.2459
   32MOL0     C 4284   0.830   5.733   0.944  1.0280 -0.9508  0.0116
   32MOL0     C 4285   0.696   5.754   0.922 -0.1750 -0.2310 -0.8477
   32MOL0     O 4286   0.633   5.841   1.008 -0.8606  0.2510  0.2110
   32MOL0     C 4287   0.500   5.815   1.046  0.4547 -0.2538 -0.3245
   32MOL0     C 4288   0.470   5.940   1.124 -0.4676  0.4664  0.5041
   32MOL0     C 4289   0.318   5.960   1.128 -0.1856 -0.5378 -0.3110
   32MOL0     C 4290   0.209   5.852   1.170  0.3120 -0.1768 -0.0183
   32MOL0     C 4291   0.058   5.904   1.137 -0.1042 -0.2525 -0.1736
   32MOL0     C 4292   0.017   5.916   0.994 -0.8898  0.1561  0.8434
   32MOL0     C 4293  -0.119   5.859   0.965  0.0716  0.2924  0.2409
   32MOL0     C 4294  -0.219   5.937   1.036  1.1942 -0.0708 -1.0055
   32MOL0     N 4295  -0.346   5.946   0.961 -0.4301  0.4214 -0.9185
   32MOL0     C 4296  -0.446   5.845   0.967 -0.2017 -0.1922 -0.6094
   32MOL0     C 4297  -0.547   5.900   0.888  0.1202 -0.5208 -0.4684
   32MOL0     C 4298  -0.679   5.840   0.855  0.1589  0.5436 -0.2612
   32MOL0     C 4299  -0.742   5.772   0.973  0.8340 -0.5125 -0.2475
   32MOL0     C 4300  -0.797   5.873   1.075 -0.1873 -0.5807  0.4493
   32MOL0     C 4301  -0.923   5.944   1.032 -0.9731  0.3754  0.2050
   32MOL0     O 4302  -1.028   5.848   1.026 -0.0116  0.1757 -0.6449
   32MOL0     C 4303  -1.158   5.901   1.010  0.7180  0.3880 -0.1588
   32MOL0     C 4304  -1.195   6.025   0.960  0.5438 -0.4359 -0.0953
   32MOL0     C 4305  -1.334   6.062   0.961  0.7201  0.7035 -0.3352
   32MOL0     C 4306  -1.369   6.193   0.897  0.5565 -0.2525 -0.0661
   32MOL0     C 4307  -1.426   5.973   1.025  0.5590 -0.8818 -0.5336
   32MOL0     C 4308  -1.574   5.995   1.064 -0.5149  0.2044  0.4958
   32MOL0     O 4309  -1.630   5.881   1.110  0.2105  0.5819 -0.0237
   32MOL0     C 4310  -1.736   5.890   1.199  0.0137  0.7673  1.0695
   32MOL0     C 4311  -1.718   5.816   1.324 -0.0278 -0.1386 -0.2971
   32MOL0     C 4312  -1.830   5.814   1.412  0.0969  0.4062  0.0596
   32MOL0     C 4313  -1.953   5.862   1.378 -0.0894  0.1456 -0.2809
   32MOL0     O 4314  -2.056   5.835   1.468  0.4224  0.0439  0.0252
   32MOL0     C 4315  -2.172   5.920   1.462 -0.4722 -0.7767 -0.2376
   32MOL0     C 4316  -2.278   5.899   1.574  0.6820 -0.4331  0.3019
   32MOL0     C 4317  -2.339   5.758   1.553 -0.5983 -0.1160  0.0738
   32MOL0     C 4318  -2.426   5.703   1.666 -0.3401  0.9649 -1.1400
   32MOL0     C 4319  -2.318   5.646   1.765 -0.6036  1.1895  0.4369
   32MOL0     C 4320  -2.388   5.592   1.885 -0.3439  0.5230  0.7072
   32MOL0     C 4321  -2.430   5.682   1.995  0.1093 -0.4500  0.5826
   32MOL0     C 4322  -2.299   5.726   2.073  0.2355 -0.6253 -0.3177
   32MOL0    Cl 4323  -2.213   5.589   2.158  0.3332  0.2895  0.0190
   32MOL0     C 4324  -1.972   5.918   1.250  0.3532 -0.2853 -0.3917
   32MOL0     C 4325  -1.864   5.944   1.165 -0.2811 -0.0690  0.5400
   32MOL0     O 4326  -1.634   6.099   1.042  0.2562 -0.0347  0.0037
   32MOL0     C 4327  -1.385   5.851   1.078 -0.3579  0.1757 -0.2595
   32MOL0     C 4328  -1.245   5.814   1.068 -0.0093  0.9565 -0.5445
   32MOL0     N 4329  -0.511   6.017   0.844 -0.4802 -0.1297 -0.0475
   32MOL0     N 4330  -0.393   6.044   0.878 -0.5299 -0.1242  0.2503
   32MOL0     C 4331   0.641   5.682   0.817  0.4741 -0.3044 -0.4247
   32MOL0     C 4332   0.714   5.586   0.746 -0.0801 -0.0264  0.1145
   32MOL0     C 4333   1.063   5.420   0.493 -0.0603 -0.1542  0.2051
   32MOL0     C 4334   1.177   5.423   0.574 -0.2458 -0.7561 -0.3658
   32MOL0     C 4335   1.291   5.370   0.528  0.0179 -0.2678  0.0704
   32MOL0     C 4336   1.300   5.328   0.395 -0.4380  0.3121  0.7045
   32MOL0     O 4337   1.428   5.299   0.352 -0.5781  0.3928 -0.5361
   32MOL0     C 4338   1.453   5.238   0.228  0.2582 -0.1411 -1.3517
   32MOL0     C 4339   1.594   5.182   0.245 -0.0067  0.5756 -0.1626
   32MOL0     C 4340   1.677   5.186   0.125  0.0809  0.5436  0.6149
   32MOL0     C 4341   1.801   5.091   0.123 -0.8317  0.3022  0.3897
   32MOL0     C 4342   1.775   4.955   0.080 -0.4950 -0.2087  0.2818
   32MOL0     C 4343   1.754   4.850   0.032 -0.3022 -0.2935 -0.1397
   32MOL0     C 4344   1.195   5.335   0.310 -0.0649 -0.0237  0.5395
   32MOL0     C 4345   1.067   5.373   0.360  0.4046 -0.2150  0.7682
   32MOL0     C 4346   0.941   5.358   0.275  0.2761 -0.1025 -0.5396
   32MOL0     H 4347   1.013   5.618   0.883 -1.5348 -4.8816  1.8525
   32MOL0     H 4348   0.864   5.797   1.025 -1.9482 -2.4419  2.6890
   32MOL0     H 4349   0.484   5.716   1.088 -0.9306  0.5239  1.0601
   32MOL0     H 4350   0.430   5.819   0.962 -0.6638 -1.8724  0.4984
   32MOL0     H 4351   0.511   5.945   1.226  1.8256  2.8129 -0.4327
   32MOL0     H 4352   0.505   6.029   1.072 -0.3410  0.4206  0.5103
   32MOL0     H 4353   0.309   6.046   1.194  0.9960 -0.6184 -0.0097
   32MOL0     H 4354   0.282   5.988   1.029 -0.0519  0.8340  0.0058
   32MOL0     H 4355   0.216   5.755   1.120 -2.6880  0.1678 -1.3651
   32MOL0     H 4356   0.223   5.833   1.277 -0.5958  0.8934  0.3138
   32MOL0     H 4357   0.046   5.999   1.189 -0.9237 -0.7674  0.6246
   32MOL0     H 4358  -0.002   5.825   1.184  3.1341 -2.8408 -0.0589
   32MOL0     H 4359   0.012   6.021   0.964 -0.2633  0.1406  0.6830
   32MOL0     H 4360   0.097   5.869   0.936  0.7365  2.1382  1.3692
   32MOL0     H 4361  -0.115   5.755   0.999 -1.6949  0.1469  0.0974
   32MOL0     H 4362  -0.136   5.867   0.858  0.3218  0.2677  0.2001
   32MOL0     H 4363  -0.225   5.888   1.134 -3.0344  2.3038  0.1601
   32MOL0     H 4364  -0.197   6.043   1.053 -1.0791  0.6891 -2.3603
   32MOL0     H 4365  -0.442   5.759   1.033 -2.7891 -0.9243 -1.3206
   32MOL0     H 4366  -0.656   5.756   0.789  1.2719 -0.1081  0.9076
   32MOL0     H 4367  -0.740   5.910   0.797  3.3213  5.1514  1.4110
   32MOL0     H 4368  -0.825   5.710   0.939  0.8953  0.0616 -1.5068
   32MOL0     H 4369  -0.668   5.713   1.027 -0.9827 -0.8138  2.0909
   32MOL0     H 4370  -0.816   5.824   1.170 -1.7589  2.3072  1.7501
   32MOL0     H 4371  -0.723   5.953   1.092  1.5980 -1.8249 -0.9878
   32MOL0     H 4372  -0.954   6.020   1.104  0.8485  1.2367  0.1477
   32MOL0     H 4373  -0.912   5.988   0.933  0.9451  1.2489  0.7609
   32MOL0     H 4374  -1.128   6.089   0.904 -2.1181  1.3692 -1.3982
   32MOL0     H 4375  -1.335   6.278   0.958  1.8124 -2.1096  2.0091
   32MOL0     H 4376  -1.473   6.219   0.879 -0.2445 -1.2182  2.7572
   32MOL0     H 4377  -1.320   6.182   0.800  1.1415  0.9231  0.0667
   32MOL0     H 4378  -1.620   5.788   1.360 -0.4075  0.2421  1.0803
   32MOL0     H 4379  -1.820   5.756   1.502 -1.8199  0.5382  0.3957
   32MOL0     H 4380  -2.134   6.021   1.478 -0.5480 -1.1137  2.5862
   32MOL0     H 4381  -2.220   5.902   1.365 -0.5282 -2.4455  0.0697
   32MOL0     H 4382  -2.240   5.911   1.676  2.2604 -0.1187 -0.2951
   32MOL0     H 4383  -2.366   5.964   1.564  0.4806 -0.6966  0.3725
   32MOL0     H 4384  -2.258   5.686   1.539  2.0557  2.9830 -2.0151
   32MOL0     H 4385  -2.392   5.763   1.458  0.7583 -3.1459 -0.9507
   32MOL0     H 4386  -2.503   5.633   1.630  1.6669 -0.9958 -1.8536
   32MOL0     H 4387  -2.475   5.783   1.723  2.5171  0.7003  2.0199
   32MOL0     H 4388  -2.252   5.570   1.721  1.8114  2.3787  1.7661
   32MOL0     H 4389  -2.237   5.715   1.790  1.7050 -0.6762 -1.3554
   32MOL0     H 4390  -2.312   5.532   1.935 -2.0419 -1.7773  0.6831
   32MOL0     H 4391  -2.470   5.523   1.864  0.4929  0.2122 -1.8197
   32MOL0     H 4392  -2.492   5.618   2.057 -2.4814 -1.0818 -2.4305
   32MOL0     H 4393  -2.484   5.773   1.966 -0.2865 -1.2283 -1.2368
   32MOL0     H 4394  -2.315   5.805   2.148  2.0235 -1.9211  1.5212
   32MOL0     H 4395  -2.226   5.770   2.005  1.9865 -4.9994 -1.5629
   32MOL0     H 4396  -2.064   5.951   1.202  0.6139  1.6350  0.3679
   32MOL0     H 4397  -1.888   5.987   1.068 -0.4461 -0.9420  0.1898
   32MOL0     H 4398  -1.447   5.773   1.121  0.0547 -1.3280 -2.2418
   32MOL0     H 4399  -1.201   5.717   1.091 -0.1813  0.7970 -0.8792
   32MOL0     H 4400   0.536   5.705   0.804  0.6887  0.8306 -0.2522
   32MOL0     H 4401   0.665   5.528   0.668 -1.4295 -1.7750  2.1325
   32MOL0     H 4402   1.168   5.458   0.676 -1.8591 -0.1444 -0.6876
   32MOL0     H 4403   1.383   5.377   0.585 -0.6899  3.2680  0.9891
   32MOL0     H 4404   1.387   5.150   0.223 -0.9191  0.7592 -2.1454
   32MOL0     H 4405   1.438   5.300   0.140 -0.1667  0.0907 -1.1205
   32MOL0     H 4406   1.585   5.078   0.278 -1.2987  0.2347 -1.5187
   32MOL0     H 4407   1.644   5.227   0.331  0.9438  0.5963 -0.7105
   32MOL0     H 4408   1.624   5.152   0.036 -0.4666  1.1579  0.7034
   32MOL0     H 4409   1.709   5.285   0.092 -0.0962  0.2736 -0.4070
   32MOL0     H 4410   1.845   5.089   0.223  0.7016  0.5907 -0.2610
   32MOL0     H 4411   1.867   5.146   0.056 -3.0385  3.2773  0.4623
   32MOL0     H 4412   1.728   4.754  -0.008 -2.4305 -0.1034  0.7062
   32MOL0     H 4413   1.201   5.313   0.204 -1.5654  3.3087 -0.4028
   32MOL0     H 4414   0.860   5.316   0.335 -0.5688  3.3884  1.0540
   32MOL0     H 4415   0.912   5.460   0.248  0.7121  0.0401 -0.4800
   32MOL0     H 4416   0.967   5.299   0.187 -3.0976 -0.9864 -1.0887
   33MOL0     O 4417   6.492  10.648   3.128 -0.0950  0.1453  0.2745
   33MOL0     C 4418   6.606  10.682   3.156  0.4071  0.3668  0.6795
   33MOL0     O 4419   6.683  10.771   3.085  0.1072  0.1340 -0.1156
   33MOL0     C 4420   6.640  10.818   2.965  0.7137  0.8170 -0.6230
   33MOL0     C 4421   6.678  10.947   2.929  0.0458  0.3209  0.4452
   33MOL0     C 4422   6.634  11.008   2.816 -0.4986  0.5780  0.4383
   33MOL0     C 4423   6.573  10.934   2.721  0.7344 -0.2632  0.2907
   33MOL0     O 4424   6.543  11.015   2.614 -0.9968  0.3944  0.5171
   33MOL0     C 4425   6.427  10.985   2.534 -1.4172 -1.2315  0.2644
   33MOL0     C 4426   6.386  11.116   2.452 -0.6846  0.7013  0.0631
   33MOL0     C 4427   6.258  11.089   2.369 -0.2489 -0.0853  0.0441
   33MOL0     C 4428   6.231  11.203   2.269 -0.2333 -0.0163 -0.1652
   33MOL0     C 4429   6.089  11.192   2.188 -0.6055 -0.3006 -0.2235
   33MOL0     C 4430   5.976  11.202   2.293  0.1535 -0.4316 -0.3628
   33MOL0     C 4431   5.841  11.217   2.226 -0.5988  0.0509  0.4701
   33MOL0     C 4432   5.730  11.190   2.340  0.0724  0.6136 -0.1185
   33MOL0     N 4433   5.593  11.208   2.290 -0.1125 -0.4805  0.4442
   33MOL0     C 4434   5.480  11.180   2.355  0.5548 -0.8937  0.2726
   33MOL0     C 4435   5.376  11.201   2.269  0.4045 -0.0126 -0.2967
   33MOL0     C 4436   5.231  11.183   2.286  0.8081  0.1476 -0.0992
   33MOL0     C 4437   5.192  11.035   2.278 -0.8812  0.1819 -0.0230
   33MOL0     C 4438   5.067  11.005   2.367  0.2166  0.3899  0.5126
   33MOL0     C 4439   5.010  10.866   2.340 -0.2320  0.0741 -0.2091
   33MOL0     O 4440   5.112  10.783   2.279 -0.9762  0.2316 -1.0725
   33MOL0     C 4441   5.093  10.733   2.151 -0.4696  0.6927 -0.0829
   33MOL0     C 4442   4.993  10.782   2.057 -1.6911 -0.1952 -0.3726
   33MOL0     C 4443   4.988  10.737   1.922  0.6684  0.0577  0.0062
   33MOL0     C 4444   4.883  10.805   1.835  0.5290  0.0193 -0.5960
   33MOL0     C 4445   5.071  10.635   1.873 -0.4086  0.5688  0.1046
   33MOL0     C 4446   5.082  10.567   1.739 -0.6614 -0.2412  0.5212
   33MOL0     O 4447   5.130  10.439   1.729  0.5150 -0.6615 -0.6348
   33MOL0     C 4448   5.144  10.382   1.606  0.4737  0.7781  0.4139
   33MOL0     C 4449   5.029  10.354   1.522 -0.5729 -0.0375  1.0842
   33MOL0     C 4450   5.043  10.318   1.390  0.6292  1.2325  0.2318
   33MOL0     C 4451   5.174  10.273   1.343  0.4530 -0.3714 -0.1834
   33MOL0     O 4452   5.181  10.226   1.215 -0.0406  0.2090 -0.1965
   33MOL0     C 4453   5.267  10.309   1.133  0.5143  0.5404  0.3562
   33MOL0     C 4454   5.187  10.400   1.053  0.9816  0.2495  0.1654
   33MOL0     C 4455   5.271  10.461   0.942 -0.4035 -0.7938  0.7316
   33MOL0     C 4456   5.280  10.387   0.814 -0.3108  0.1822 -0.7641
   33MOL0     C 4457   5.356  10.466   0.708 -0.1249 -0.0460 -0.2480
   33MOL0     C 4458   5.507  10.443   0.717 -1.1308 -0.1563 -0.8443
   33MOL0     C 4459   5.602  10.506   0.616  0.3511  0.5868  0.0730
   33MOL0     C 4460   5.563  10.493   0.465 -0.1537  0.0373 -0.0007
   33MOL0    Cl 4461   5.456  10.613   0.404 -0.1261  0.0640 -0.2717
   33MOL0     C 4462   5.278  10.278   1.435 -0.3266  0.4482  0.8221
   33MOL0     C 4463   5.269  10.336   1.555 -0.5387 -1.9244  0.1403
   33MOL0     O 4464   5.039  10.631   1.648  0.5672 -0.1048 -1.1205
   33MOL0     C 4465   5.175  10.596   1.964  1.0930 -0.2488  0.0534
   33MOL0     C 4466   5.183  10.640   2.097  0.5452  0.3163  0.4547
   33MOL0     N 4467   5.427  11.239   2.147 -0.1257  0.5634  0.5251
   33MOL0     N 4468   5.557  11.243   2.165 -0.2457  0.4696  0.4435
   33MOL0     C 4469   6.548  10.792   2.748 -1.7098  0.0881  0.2373
   33MOL0     C 4470   6.589  10.731   2.865 -0.0786  0.3153 -0.1021
   33MOL0     C 4471   6.674  10.620   3.283 -0.3392  0.3109  0.0609
   33MOL0     C 4472   6.768  10.696   3.352  0.8258 -0.6670  0.0871
   33MOL0     C 4473   6.841  10.656   3.463  0.3326  0.6562 -0.4150
   33MOL0     C 4474   6.797  10.533   3.519 -0.0217 -0.2844 -0.4466
   33MOL0     O 4475   6.856  10.493   3.639 -0.5575  0.1884 -0.0007
   33MOL0     C 4476   6.961  10.392   3.628 -0.3838  0.2190  0.2491
   33MOL0     C 4477   7.029  10.344   3.755  0.5818  0.2883 -0.0192
   33MOL0     C 4478   7.089  10.462   3.836  0.2640 -0.2346 -0.1091
   33MOL0     C 4479   7.234  10.482   3.810 -0.0450 -0.5009  0.1721
   33MOL0     C 4480   7.261  10.504   3.668  0.1754 -0.3827  0.3504
   33MOL0     C 4481   7.294  10.504   3.552 -0.3407 -0.0639 -0.0538
   33MOL0     C 4482   6.717  10.447   3.447  0.3600  0.0761  0.6185
   33MOL0     C 4483   6.648  10.493   3.334 -0.5226  0.2722  0.0724
   33MOL0     C 4484   6.538  10.408   3.274 -0.3047 -0.2652 -0.2110
   33MOL0     H 4485   6.741  11.003   2.997  0.6639  1.3500 -0.9420
   33MOL0     H 4486   6.674  11.108   2.824  1.4182 -0.2748  3.9374
   33MOL0     H 4487   6.344  10.956   2.599 -1.6810 -0.3866  0.3154
   33MOL0     H 4488   6.462  10.908   2.465  3.2708  0.9142 -0.1230
   33MOL0     H 4489   6.364  11.197   2.522  0.4974  1.2702 -0.2054
   33MOL0     H 4490   6.467  11.143   2.383  0.6850  1.7837  1.9953
   33MOL0     H 4491   6.281  11.001   2.308  1.5465  0.4485 -0.1109
   33MOL0     H 4492   6.167  11.071   2.427 -1.5819 -0.2110 -2.0036
   33MOL0     H 4493   6.242  11.300   2.319  3.5851  1.7164 -3.7002
   33MOL0     H 4494   6.313  11.185   2.198  0.3504  0.4314  0.3748
   33MOL0     H 4495   6.082  11.098   2.133 -0.6207 -0.0634 -0.6265
   33MOL0     H 4496   6.082  11.265   2.107 -1.5978 -0.5650 -0.3784
   33MOL0     H 4497   5.987  11.114   2.357  2.7462 -0.3515 -0.6011
   33MOL0     H 4498   5.992  11.296   2.347 -0.5945  0.3923 -1.5199
   33MOL0     H 4499   5.822  11.137   2.155 -2.3648 -0.0636  1.0303
   33MOL0     H 4500   5.835  11.316   2.180  1.9024 -0.8339 -2.0640
   33MOL0     H 4501   5.742  11.097   2.396 -0.6382  0.1397 -0.7326
   33MOL0     H 4502   5.732  11.263   2.421 -0.9192 -2.1436  2.6178
   33MOL0     H 4503   5.465  11.156   2.460  0.6360 -0.9067  0.2810
   33MOL0     H 4504   5.181  11.234   2.203  0.6483  1.3352  0.7110
   33MOL0     H 4505   5.211  11.224   2.385 -3.6746 -2.1685  0.2051
   33MOL0     H 4506   5.189  11.002   2.174 -0.7549 -1.2647  0.4004
   33MOL0     H 4507   5.278  10.980   2.319  0.3641  0.8878 -1.5454
   33MOL0     H 4508   5.090  11.018   2.473  3.7828  2.1717 -0.3078
   33MOL0     H 4509   4.991  11.079   2.339  0.4848  0.4708 -0.0254
   33MOL0     H 4510   4.987  10.817   2.435  2.9063 -0.1848  0.5237
   33MOL0     H 4511   4.921  10.854   2.277  0.9044 -5.9667 -1.2667
   33MOL0     H 4512   4.925  10.859   2.090 -0.6636  1.1285 -1.2530
   33MOL0     H 4513   4.816  10.857   1.903 -0.1501 -1.9589  0.3173
   33MOL0     H 4514   4.813  10.744   1.777 -0.8472 -3.2209  3.9364
   33MOL0     H 4515   4.933  10.879   1.771  2.3564 -0.1694  0.5324
   33MOL0     H 4516   4.927  10.383   1.547 -2.0125 -0.4154 -3.4420
   33MOL0     H 4517   4.953  10.316   1.329  0.0042  0.3106  1.1501
   33MOL0     H 4518   5.350  10.354   1.188  1.3676 -0.9474  0.3573
   33MOL0     H 4519   5.306  10.232   1.065 -0.3506 -0.6352  1.1567
   33MOL0     H 4520   5.098  10.350   1.014 -1.1032  2.9667  1.0857
   33MOL0     H 4521   5.155  10.476   1.125  2.7447  1.7401 -0.5182
   33MOL0     H 4522   5.374  10.481   0.973 -0.8606 -0.3402  1.9967
   33MOL0     H 4523   5.234  10.561   0.918 -0.2345 -1.2199 -1.4771
   33MOL0     H 4524   5.174  10.374   0.790 -0.1745 -0.9868 -0.7933
   33MOL0     H 4525   5.318  10.287   0.834 -3.7334 -1.3507 -1.3108
   33MOL0     H 4526   5.323  10.431   0.610 -3.2378 -3.6880  1.8212
   33MOL0     H 4527   5.337  10.573   0.715 -0.2336  0.0215 -1.3525
   33MOL0     H 4528   5.503  10.334   0.707 -2.9739 -0.1909 -0.0505
   33MOL0     H 4529   5.547  10.467   0.816 -0.6731 -0.5829 -0.9207
   33MOL0     H 4530   5.704  10.472   0.634  0.4671  0.0119 -1.4896
   33MOL0     H 4531   5.617  10.614   0.617  1.8140  0.5559 -3.4356
   33MOL0     H 4532   5.524  10.392   0.452 -0.3607 -0.0885  1.4455
   33MOL0     H 4533   5.655  10.488   0.406  0.4537  0.3338  0.8998
   33MOL0     H 4534   5.375  10.244   1.398 -1.2211  2.0861 -3.5697
   33MOL0     H 4535   5.359  10.343   1.616 -0.2602 -0.2059 -0.4135
   33MOL0     H 4536   5.238  10.513   1.934  1.0460 -0.6770  1.0743
   33MOL0     H 4537   5.254  10.603   2.170  0.4235  0.6986  0.7657
   33MOL0     H 4538   6.504  10.739   2.664 -4.3546 -0.8090  2.0806
   33MOL0     H 4539   6.567  10.625   2.873  0.4312  0.0789 -1.4681
   33MOL0     H 4540   6.792  10.794   3.310 -0.2193 -1.1690 -1.8112
   33MOL0     H 4541   6.913  10.717   3.515  1.6060 -2.2279  1.4674
   33MOL0     H 4542   6.901  10.308   3.592  3.3141 -0.9132 -4.2620
   33MOL0     H 4543   7.035  10.400   3.548 -2.4383 -1.5106 -1.9904
   33MOL0     H 4544   7.089  10.255   3.737 -4.8896 -4.1603  0.7530
   33MOL0     H 4545   6.952  10.313   3.826  1.5637  1.4423  1.6008
   33MOL0     H 4546   7.028  10.553   3.828 -0.3561 -0.6034  0.2940
   33MOL0     H 4547   7.071  10.443   3.942  1.6073 -3.5945 -0.3708
   33MOL0     H 4548   7.293  10.405   3.859  0.8073  1.0573  1.7140
   33MOL0     H 4549   7.273  10.570   3.862 -1.0319  0.2902 -0.3748
   33MOL0     H 4550   7.311  10.515   3.447 -2.7530 -1.6012 -0.6643
   33MOL0     H 4551   6.701  10.349   3.491  0.3903  0.4438  1.4787
   33MOL0     H 4552   6.452  10.475   3.274  1.2772  1.8926  1.3787
   33MOL0     H 4553   6.559  10.363   3.176  0.5855 -0.2667 -0.0299
   33MOL0     H 4554   6.517  10.323   3.339  3.0322  0.6449  2.3306
   34MOL0     O 4555   5.161   5.001   7.315  0.5490  0.3117  0.7634
   34MOL0     C 4556   5.155   4.911   7.231 -0.5023  0.2607 -0.5159
   34MOL0     O 4557   5.093   4.789   7.255  0.1760 -0.6034 -0.4128
   34MOL0     C 4558   5.071   4.751   7.385  0.2856  0.2370  0.6949
   34MOL0     C 4559   4.971   4.804   7.465  0.5098 -0.0824  0.6248
   34MOL0     C 4560   4.946   4.751   7.590  0.1197 -0.3095 -0.1399
   34MOL0     C 4561   5.022   4.642   7.643 -0.7883 -0.4132  0.5588
   34MOL0     O 4562   5.003   4.589   7.764 -0.2655  0.1413 -0.4225
   34MOL0     C 4563   4.868   4.566   7.795  0.7956 -0.4153  0.3186
   34MOL0     C 4564   4.885   4.509   7.941  0.2443  0.2293 -0.9963
   34MOL0     C 4565   4.913   4.603   8.052 -0.0936 -0.3089  0.1519
   34MOL0     C 4566   4.798   4.686   8.103 -0.0066  0.0123  0.6616
   34MOL0     C 4567   4.702   4.598   8.184 -0.0053 -0.9614 -0.0188
   34MOL0     C 4568   4.594   4.677   8.243 -0.7322 -0.4546 -0.9787
   34MOL0     C 4569   4.447   4.620   8.237 -0.2881  0.0800  0.4675
   34MOL0     C 4570   4.351   4.719   8.285  1.1432 -0.2047 -0.5453
   34MOL0     N 4571   4.211   4.663   8.271 -0.2614  0.2775  0.2214
   34MOL0     C 4572   4.107   4.743   8.287 -0.2381 -0.1707  0.8912
   34MOL0     C 4573   3.998   4.667   8.267  0.3382  0.0937  0.5688
   34MOL0     C 4574   3.855   4.715   8.269 -0.7028 -0.0040 -0.4744
   34MOL0     C 4575   3.752   4.608   8.239 -0.5936 -0.3387 -0.3807
   34MOL0     C 4576   3.626   4.628   8.323  0.0428 -0.1466  0.1526
   34MOL0     C 4577   3.551   4.752   8.300  0.1810 -0.0201  0.6970
   34MOL0     O 4578   3.512   4.748   8.165  0.1162  0.3891  0.7334
   34MOL0     C 4579   3.396   4.675   8.141  1.0555 -0.3443  0.3097
   34MOL0     C 4580   3.279   4.713   8.202 -0.0966  0.4325  0.1340
   34MOL0     C 4581   3.161   4.638   8.184  0.7614  0.1646 -0.3802
   34MOL0     C 4582   3.029   4.693   8.239  0.1404  0.4269  0.4308
   34MOL0     C 4583   3.159   4.522   8.105 -0.0782 -0.1230  0.5779
   34MOL0     C 4584   3.042   4.445   8.066 -0.1737  0.8181 -1.5855
   34MOL0     O 4585   3.072   4.342   7.989  0.1286  0.1989 -0.1829
   34MOL0     C 4586   2.994   4.273   7.905 -0.4476  0.7215  1.1172
   34MOL0     C 4587   2.854   4.291   7.894  0.2338 -0.1774  0.0056
   34MOL0     C 4588   2.786   4.213   7.805 -1.4380 -0.0220 -0.8630
   34MOL0     C 4589   2.856   4.108   7.726 -0.5815  0.1679  0.1037
   34MOL0     O 4590   2.781   4.031   7.642  0.6445  0.2743 -0.1702
   34MOL0     C 4591   2.828   3.915   7.580 -0.1435  0.2633 -1.4022
   34MOL0     C 4592   2.784   3.794   7.662 -0.3293 -0.0875  0.1494
   34MOL0     C 4593   2.855   3.788   7.797 -0.1516 -0.2922 -0.5486
   34MOL0     C 4594   2.810   3.664   7.875 -0.1699  0.9328  0.3461
   34MOL0     C 4595   2.818   3.687   8.031 -0.4085 -0.1043  0.0685
   34MOL0     C 4596   2.765   3.574   8.128 -0.8638  1.4861  0.3092
   34MOL0     C 4597   2.764   3.610   8.279  0.8268  0.9136  0.0442
   34MOL0     C 4598   2.900   3.624   8.337  0.0068  0.4538  0.4983
   34MOL0    Cl 4599   2.994   3.470   8.336  0.4251  0.1609 -0.1986
   34MOL0     C 4600   2.997   4.095   7.733 -0.3014 -0.3245  0.1185
   34MOL0     C 4601   3.068   4.177   7.823  0.6013  0.7477  0.3805
   34MOL0     O 4602   2.933   4.464   8.118  0.6171  0.4019 -0.2664
   34MOL0     C 4603   3.284   4.487   8.045  0.5137  0.4659 -0.2948
   34MOL0     C 4604   3.395   4.563   8.067  0.2419  0.3064  0.7018
   34MOL0     N 4605   4.049   4.536   8.237  0.3341 -0.3444  0.2518
   34MOL0     N 4606   4.175   4.539   8.245 -0.0604 -0.0440  0.1150
   34MOL0     C 4607   5.120   4.584   7.568  0.6609  0.7232  0.8130
   34MOL0     C 4608   5.150   4.646   7.442  0.5482  0.1173  0.5226
   34MOL0     C 4609   5.176   4.934   7.084 -0.3987  0.7761 -0.5043
   34MOL0     C 4610   5.165   4.825   6.997 -0.5165 -0.5260 -0.7882
   34MOL0     C 4611   5.193   4.829   6.861  0.5245  0.2376  1.2918
   34MOL0     C 4612   5.242   4.939   6.805 -0.4283 -0.5700  0.1976
   34MOL0     O 4613   5.268   4.942   6.673  0.1497 -0.0569  0.2779
   34MOL0     C 4614   5.392   4.893   6.626 -0.3992  0.1170 -0.3789
   34MOL0     C 4615   5.381   4.789   6.514 -0.4892  0.0380  0.0675
   34MOL0     C 4616   5.312   4.663   6.561 -0.1475  0.2011  0.2906
   34MOL0     C 4617   5.345   4.542   6.463  0.6120 -0.3071 -0.6477
   34MOL0     C 4618   5.298   4.563   6.328 -0.6892 -0.1326  0.2864
   34MOL0     C 4619   5.259   4.564   6.209  0.1605 -0.2758 -0.0990
   34MOL0     C 4620   5.256   5.052   6.888 -0.3987  0.0752  0.1442
   34MOL0     C 4621   5.208   5.053   7.021  0.4312  0.6560 -0.1985
   34MOL0     C 4622   5.210   5.178   7.102 -0.2707  0.4987  0.4608
   34MOL0     H 4623   4.907   4.890   7.446  0.0474 -0.1991  1.6261
   34MOL0     H 4624   4.860   4.788   7.644 -0.0595 -2.0640  0.8275
   34MOL0     H 4625   4.818   4.506   7.718 -1.7569  1.3967  0.4492
   34MOL0     H 4626   4.813   4.660   7.799  1.6708  0.1505 -0.6387
   34MOL0     H 4627   4.792   4.457   7.965  2.5616 -3.8511 -0.0412
   34MOL0     H 4628   4.953   4.424   7.945 -0.8259 -0.5829  1.8477
   34MOL0     H 4629   4.933   4.537   8.137 -2.1153 -2.7549 -1.1195
   34MOL0     H 4630   5.000   4.667   8.034 -0.8079  0.2217 -1.6403
   34MOL0     H 4631   4.835   4.775   8.155  0.9792 -1.2469  2.2145
   34MOL0     H 4632   4.740   4.722   8.017  0.8908 -4.1081 -1.9287
   34MOL0     H 4633   4.758   4.549   8.264  2.6141 -3.0203 -2.8496
   34MOL0     H 4634   4.659   4.527   8.112  1.7221  2.4921 -5.0740
   34MOL0     H 4635   4.610   4.703   8.348 -0.4590  2.3515 -1.6420
   34MOL0     H 4636   4.598   4.774   8.194 -0.8499  1.4965  2.5595
   34MOL0     H 4637   4.448   4.530   8.299  2.9496 -2.3527 -2.7233
   34MOL0     H 4638   4.428   4.585   8.135 -2.0737 -0.8458  1.0764
   34MOL0     H 4639   4.377   4.733   8.390  0.1261 -2.8830  0.1519
   34MOL0     H 4640   4.362   4.814   8.232 -0.9828 -0.8755 -2.3285
   34MOL0     H 4641   4.117   4.848   8.315  0.5560  0.3229 -1.0723
   34MOL0     H 4642   3.841   4.783   8.185  0.3743 -0.3295 -0.9360
   34MOL0     H 4643   3.823   4.768   8.360 -0.1679 -1.3351  0.5304
   34MOL0     H 4644   3.732   4.605   8.132  0.4713  0.8683 -0.6366
   34MOL0     H 4645   3.796   4.510   8.260  1.3585  0.5108 -0.2643
   34MOL0     H 4646   3.558   4.547   8.294 -1.1478  0.5229  0.9968
   34MOL0     H 4647   3.650   4.619   8.429 -1.2195 -0.9757  0.3849
   34MOL0     H 4648   3.467   4.750   8.369  0.1474  1.7653  0.7593
   34MOL0     H 4649   3.617   4.838   8.319  1.4240 -1.4279  3.2550
   34MOL0     H 4650   3.275   4.803   8.263 -1.6141  0.8652 -0.5468
   34MOL0     H 4651   2.992   4.623   8.315  1.1042 -0.5254  0.0391
   34MOL0     H 4652   2.955   4.702   8.160 -0.1655 -1.3164  0.4858
   34MOL0     H 4653   3.046   4.795   8.276 -0.8658  1.2310 -1.2611
   34MOL0     H 4654   2.801   4.377   7.934  0.5429  1.3465 -2.6262
   34MOL0     H 4655   2.680   4.235   7.793 -0.7043  3.3909 -2.2599
   34MOL0     H 4656   2.786   3.926   7.480 -0.5443  1.7611 -1.1021
   34MOL0     H 4657   2.936   3.908   7.568 -0.0276 -2.4704  0.2512
   34MOL0     H 4658   2.676   3.803   7.678 -0.6064 -1.8680 -0.4344
   34MOL0     H 4659   2.808   3.702   7.608  1.2415 -0.1680  0.9422
   34MOL0     H 4660   2.809   3.874   7.848 -0.6832 -1.9137  1.8798
   34MOL0     H 4661   2.964   3.801   7.799 -0.2256  0.3170 -0.1520
   34MOL0     H 4662   2.884   3.586   7.857 -2.1421 -0.3644 -2.9757
   34MOL0     H 4663   2.717   3.623   7.835  0.0176  0.9256 -0.0900
   34MOL0     H 4664   2.922   3.719   8.045 -0.0113 -0.8527 -1.1009
   34MOL0     H 4665   2.757   3.777   8.047  0.5194  0.4066  0.8158
   34MOL0     H 4666   2.817   3.480   8.107 -2.0877  1.0764 -1.0617
   34MOL0     H 4667   2.664   3.561   8.088  0.1950  1.1985 -2.5471
   34MOL0     H 4668   2.703   3.540   8.336  1.0284 -0.5870 -1.5041
   34MOL0     H 4669   2.723   3.711   8.289 -0.8990  1.3366 -6.6582
   34MOL0     H 4670   2.893   3.670   8.436 -2.0382 -0.6056  0.8792
   34MOL0     H 4671   2.965   3.691   8.279 -0.2207 -1.2446 -1.8565
   34MOL0     H 4672   3.059   4.029   7.673 -1.3103 -1.1549 -0.0435
   34MOL0     H 4673   3.177   4.175   7.832  0.6688 -1.3145 -0.4478
   34MOL0     H 4674   3.295   4.398   7.984 -1.8907  0.8716 -1.4278
   34MOL0     H 4675   3.487   4.527   8.024  0.5585  2.9178 -1.0156
   34MOL0     H 4676   5.187   4.511   7.615  1.1374 -0.1056 -1.0544
   34MOL0     H 4677   5.224   4.595   7.382 -1.5782 -0.4338 -1.7944
   34MOL0     H 4678   5.135   4.728   7.036  0.7611 -0.2921  0.9008
   34MOL0     H 4679   5.173   4.735   6.811 -1.2019  1.5014 -0.5752
   34MOL0     H 4680   5.450   4.978   6.590  1.6098 -1.0082  0.0762
   34MOL0     H 4681   5.451   4.870   6.715 -1.1429 -0.1442  0.0611
   34MOL0     H 4682   5.475   4.763   6.464 -0.8001 -1.5042  0.2180
   34MOL0     H 4683   5.319   4.835   6.436 -1.2296  0.6185  0.9803
   34MOL0     H 4684   5.341   4.635   6.663 -1.2944  1.5366  1.0018
   34MOL0     H 4685   5.205   4.680   6.551 -0.3344 -1.8360 -2.6997
   34MOL0     H 4686   5.275   4.464   6.497 -0.3961  0.1647 -1.5776
   34MOL0     H 4687   5.452   4.521   6.470  0.3686 -1.1668  1.4429
   34MOL0     H 4688   5.213   4.583   6.114  0.6980  3.2374  0.2098
   34MOL0     H 4689   5.310   5.130   6.835  3.4828 -0.6803  2.5483
   34MOL0     H 4690   5.117   5.187   7.159  0.0802 -2.7584  1.7840
   34MOL0     H 4691   5.296   5.200   7.165  1.8240 -1.9953 -1.2976
   34MOL0     H 4692   5.216   5.252   7.022  3.8034  0.1372  0.2535
   35MOL0     O 4693   2.972   6.346   2.679 -0.2158 -0.6026  0.1413
   35MOL0     C 4694   2.913   6.371   2.574 -0.1816  0.3165 -0.0252
   35MOL0     O 4695   2.850   6.496   2.548  0.0475 -0.3786 -0.1028
   35MOL0     C 4696   2.893   6.597   2.626  0.6249 -0.3721 -0.1623
   35MOL0     C 4697   2.801   6.672   2.698 -0.7431  0.3004 -0.0954
   35MOL0     C 4698   2.852   6.763   2.795  0.2309  0.0638 -0.0853
   35MOL0     C 4699   2.984   6.791   2.811  0.0721 -0.0925 -0.2228
   35MOL0     O 4700   3.030   6.873   2.911  0.1615  0.6532  0.4563
   35MOL0     C 4701   3.116   6.805   3.003 -0.9461  0.0168  0.5816
   35MOL0     C 4702   3.146   6.889   3.129  0.3607  0.1821  0.2954
   35MOL0     C 4703   3.216   7.025   3.111 -0.5419 -1.5586  0.0253
   35MOL0     C 4704   3.363   7.018   3.054  0.9792  0.0681  0.4095
   35MOL0     C 4705   3.453   6.934   3.151 -0.8268  0.1170  0.5929
   35MOL0     C 4706   3.605   6.967   3.154  0.0983  0.5491  0.5028
   35MOL0     C 4707   3.637   7.104   3.222 -0.5935  0.2284 -0.2851
   35MOL0     C 4708   3.783   7.155   3.182  0.3813  0.8365 -0.4739
   35MOL0     N 4709   3.892   7.059   3.201 -0.3452  0.0545  0.1572
   35MOL0     C 4710   3.906   7.003   3.323  0.0670 -0.3532  0.1847
   35MOL0     C 4711   3.987   6.897   3.301  0.5162  0.6457 -0.0798
   35MOL0     C 4712   4.048   6.788   3.390 -0.0063  0.1155  0.3477
   35MOL0     C 4713   4.177   6.724   3.345  0.7137  0.0357  0.1872
   35MOL0     C 4714   4.282   6.824   3.309 -0.2660  0.8433 -0.1781
   35MOL0     C 4715   4.419   6.756   3.283 -0.5679  0.1134 -1.1900
   35MOL0     O 4716   4.423   6.686   3.157  0.2278  0.4532 -0.2107
   35MOL0     C 4717   4.507   6.579   3.165  0.1447  0.0476  0.4461
   35MOL0     C 4718   4.449   6.456   3.122  1.0823 -0.0658 -0.7019
   35MOL0     C 4719   4.516   6.332   3.135 -0.4526 -0.7227  0.1105
   35MOL0     C 4720   4.438   6.215   3.086 -0.2785  0.4996  0.2554
   35MOL0     C 4721   4.650   6.335   3.184  0.1321 -0.2100 -0.0950
   35MOL0     C 4722   4.729   6.213   3.201  0.3911 -0.0802 -0.3378
   35MOL0     O 4723   4.742   6.155   3.322  0.4049  0.3036  0.1546
   35MOL0     C 4724   4.840   6.062   3.330 -0.2588 -0.3443  0.8472
   35MOL0     C 4725   4.801   5.934   3.296 -0.4730 -0.9810  0.8056
   35MOL0     C 4726   4.900   5.829   3.296  0.7225 -0.3740 -0.0177
   35MOL0     C 4727   5.020   5.851   3.364  0.2779  0.0165 -0.0512
   35MOL0     O 4728   5.113   5.749   3.370 -0.0225 -0.0721 -0.8644
   35MOL0     C 4729   5.093   5.620   3.312 -0.1542 -0.4465 -0.4334
   35MOL0     C 4730   5.218   5.528   3.331 -0.7033 -0.5551 -0.5724
   35MOL0     C 4731   5.354   5.609   3.300  0.4816 -0.1877 -0.5750
   35MOL0     C 4732   5.368   5.666   3.157  0.5132  0.7538 -0.2128
   35MOL0     C 4733   5.513   5.702   3.138 -0.2773 -0.2087 -0.4560
   35MOL0     C 4734   5.528   5.738   2.986 -0.2397  0.5877 -0.8476
   35MOL0     C 4735   5.672   5.787   2.961 -0.7647  0.6781 -0.8601
   35MOL0     C 4736   5.665   5.882   2.833 -0.0802 -0.3616 -0.0177
   35MOL0    Cl 4737   5.601   5.785   2.690 -0.2151 -0.3323  0.3697
   35MOL0     C 4738   5.055   5.985   3.398 -0.4209  0.3767 -0.4018
   35MOL0     C 4739   4.974   6.093   3.370  0.8308  0.6976 -0.0347
   35MOL0     O 4740   4.775   6.183   3.090  0.4009 -0.2940 -0.2415
   35MOL0     C 4741   4.704   6.458   3.232 -0.5611 -0.5844 -0.0690
   35MOL0     C 4742   4.631   6.579   3.220 -0.0175 -0.5897 -1.4228
   35MOL0     N 4743   4.026   6.900   3.169  0.7813  0.0751 -0.2152
   35MOL0     N 4744   3.965   6.998   3.107  0.5290  0.5202 -0.1662
   35MOL0     C 4745   3.077   6.733   2.726  0.1825  0.2891 -0.5098
   35MOL0     C 4746   3.030   6.634   2.633  0.6373 -1.4222 -0.5052
   35MOL0     C 4747   2.898   6.267   2.477  0.1911 -0.0146 -0.3036
   35MOL0     C 4748   2.915   6.306   2.344 -0.3662 -0.3322 -0.0001
   35MOL0     C 4749   2.910   6.218   2.235  0.8263  0.1467 -0.0107
   35MOL0     C 4750   2.886   6.083   2.262 -0.4902  0.6328  0.6496
   35MOL0     O 4751   2.887   5.988   2.153 -0.6102 -0.7252  0.1044
   35MOL0     C 4752   2.752   5.948   2.119  0.5056 -0.1821  0.4572
   35MOL0     C 4753   2.751   5.823   2.038 -0.0648  0.8650  0.6814
   35MOL0     C 4754   2.850   5.827   1.921 -0.1626  0.0048  1.0611
   35MOL0     C 4755   2.835   5.727   1.805  0.2449 -0.5648 -0.2026
   35MOL0     C 4756   2.837   5.582   1.836  0.6894  0.7746 -0.7205
   35MOL0     C 4757   2.840   5.458   1.844 -0.2664 -0.3815 -0.2585
   35MOL0     C 4758   2.879   6.040   2.392 -0.4517  0.0149 -0.0788
   35MOL0     C 4759   2.877   6.136   2.500 -1.1910  0.3491 -0.4215
   35MOL0     C 4760   2.852   6.080   2.646  0.8802 -1.2232  0.1090
   35MOL0     H 4761   2.695   6.650   2.691 -0.8073  0.4370  0.3921
   35MOL0     H 4762   2.790   6.827   2.857  1.5943  1.2297  0.1338
   35MOL0     H 4763   3.212   6.796   2.951 -0.9886 -0.3306  0.5586
   35MOL0     H 4764   3.080   6.703   3.017  3.0254 -1.7582 -0.5703
   35MOL0     H 4765   3.051   6.901   3.181  0.7066  6.5688  0.1903
   35MOL0     H 4766   3.212   6.836   3.198 -1.7008  1.0086  3.0902
   35MOL0     H 4767   3.158   7.079   3.035  0.1423  2.9358  2.3704
   35MOL0     H 4768   3.217   7.090   3.199 -3.0652 -0.8505 -0.3711
   35MOL0     H 4769   3.362   6.977   2.952 -3.5956  1.3218 -0.2446
   35MOL0     H 4770   3.414   7.113   3.035  1.9445 -0.5798 -0.4264
   35MOL0     H 4771   3.450   6.825   3.140  0.9429 -0.1230  2.0116
   35MOL0     H 4772   3.416   6.943   3.254 -0.8992 -2.8478  0.9237
   35MOL0     H 4773   3.661   6.887   3.203 -1.0882 -1.5228 -1.3572
   35MOL0     H 4774   3.638   6.974   3.050 -1.3408 -1.5461 -0.1690
   35MOL0     H 4775   3.654   7.079   3.327  0.3486 -0.5806 -0.6151
   35MOL0     H 4776   3.561   7.182   3.211  2.1743  3.2304  0.3212
   35MOL0     H 4777   3.774   7.162   3.073 -0.4463 -1.0448 -0.5679
   35MOL0     H 4778   3.807   7.251   3.228 -0.4665  1.4646 -1.2985
   35MOL0     H 4779   3.857   7.035   3.414  1.7860  1.0348  0.7009
   35MOL0     H 4780   3.972   6.710   3.380  1.5717 -1.1699 -4.5244
   35MOL0     H 4781   4.045   6.824   3.493  1.7981 -1.4128  0.9951
   35MOL0     H 4782   4.222   6.665   3.425  0.5308 -0.4069 -0.0290
   35MOL0     H 4783   4.169   6.657   3.258  0.8527 -1.1302  1.0512
   35MOL0     H 4784   4.257   6.889   3.224 -2.4433  1.6153  0.9836
   35MOL0     H 4785   4.292   6.889   3.396 -1.4207  0.9805 -0.1275
   35MOL0     H 4786   4.500   6.830   3.287  1.9959 -2.5436 -0.8774
   35MOL0     H 4787   4.447   6.693   3.367  0.3750  0.7078 -1.0419
   35MOL0     H 4788   4.347   6.463   3.085 -0.7164 -3.0273  3.0303
   35MOL0     H 4789   4.364   6.208   3.167  0.8672  1.7323  1.4435
   35MOL0     H 4790   4.490   6.120   3.073 -1.4211 -0.4535  2.1321
   35MOL0     H 4791   4.401   6.229   2.984  2.9760  0.4665 -1.0503
   35MOL0     H 4792   4.695   5.932   3.270 -0.0988  2.6557 -1.7926
   35MOL0     H 4793   4.875   5.733   3.253 -0.7802  0.3213 -0.7538
   35MOL0     H 4794   5.006   5.565   3.347 -1.9057  0.7987 -2.5869
   35MOL0     H 4795   5.089   5.623   3.202 -1.2122 -2.9915 -0.5294
   35MOL0     H 4796   5.222   5.488   3.433  0.7066  1.7258  0.3576
   35MOL0     H 4797   5.224   5.456   3.249  1.0687 -1.4831  0.3174
   35MOL0     H 4798   5.439   5.548   3.332  2.4810  2.9875  0.6783
   35MOL0     H 4799   5.351   5.689   3.374 -2.0513  0.0706 -0.9002
   35MOL0     H 4800   5.303   5.753   3.158  0.9579  1.0800  1.1455
   35MOL0     H 4801   5.340   5.584   3.089 -0.6161  0.2762  0.7940
   35MOL0     H 4802   5.538   5.790   3.199 -2.0156 -0.3348  0.5045
   35MOL0     H 4803   5.585   5.623   3.161 -3.9028 -3.4011  1.1683
   35MOL0     H 4804   5.460   5.820   2.961 -0.8511 -0.1508 -1.6400
   35MOL0     H 4805   5.516   5.644   2.932  0.5372  1.2304 -2.2074
   35MOL0     H 4806   5.725   5.692   2.947 -2.8821 -1.1274  2.1438
   35MOL0     H 4807   5.711   5.838   3.050 -3.0121  0.1359  0.5344
   35MOL0     H 4808   5.764   5.927   2.826 -1.5507  3.5776  1.4675
   35MOL0     H 4809   5.599   5.966   2.856  0.9194 -0.3984  3.6582
   35MOL0     H 4810   5.152   5.999   3.446 -0.0714 -3.8251  0.5338
   35MOL0     H 4811   5.013   6.192   3.391  2.1922  0.4493 -1.2576
   35MOL0     H 4812   4.806   6.472   3.266 -0.3274  2.5670 -1.6442
   35MOL0     H 4813   4.670   6.671   3.259  2.6598 -3.4072  3.4853
   35MOL0     H 4814   3.185   6.746   2.725  1.0436 -4.7095 -2.7258
   35MOL0     H 4815   3.107   6.584   2.574  3.7795  0.6007  1.5893
   35MOL0     H 4816   2.932   6.405   2.303  1.1059 -0.0202  1.2845
   35MOL0     H 4817   2.911   6.248   2.131 -0.8026 -1.0742 -0.4185
   35MOL0     H 4818   2.685   5.921   2.202 -0.2835  1.3216  0.3357
   35MOL0     H 4819   2.705   6.021   2.053 -1.1985 -0.7759  0.9661
   35MOL0     H 4820   2.652   5.787   2.008  0.7384 -0.1877 -0.8379
   35MOL0     H 4821   2.780   5.738   2.100  1.8722  0.7007 -0.3873
   35MOL0     H 4822   2.850   5.928   1.879  0.3613 -0.3438  0.1933
   35MOL0     H 4823   2.951   5.812   1.962  0.4118  1.9930  0.5095
   35MOL0     H 4824   2.917   5.741   1.734 -0.3235 -1.7277 -1.1236
   35MOL0     H 4825   2.739   5.745   1.756  0.3147 -0.1334 -0.1777
   35MOL0     H 4826   2.857   5.353   1.859 -0.1927 -0.7279 -2.3824
   35MOL0     H 4827   2.869   5.935   2.417  0.7052 -0.2158 -0.4973
   35MOL0     H 4828   2.941   6.100   2.707  0.5605  0.7781 -0.0135
   35MOL0     H 4829   2.772   6.135   2.695 -0.1359 -0.7875 -1.9230
   35MOL0     H 4830   2.833   5.973   2.643  2.3086 -1.5313  0.8570
   36MOL0     O 4831   2.034   4.653   8.818  0.7371 -0.4592  0.3542
   36MOL0     C 4832   2.078   4.711   8.716 -0.0591  1.4842  0.6248
   36MOL0     O 4833   2.016   4.724   8.591  0.3226 -0.3074 -0.4256
   36MOL0     C 4834   1.926   4.619   8.552  0.4735 -0.8036  1.1207
   36MOL0     C 4835   1.835   4.640   8.444 -0.0899 -0.0014 -0.1184
   36MOL0     C 4836   1.746   4.543   8.394 -0.4084 -0.2541 -0.3239
   36MOL0     C 4837   1.746   4.416   8.463  0.8192 -0.1529  0.0965
   36MOL0     O 4838   1.657   4.317   8.433  0.1278 -0.9581  0.4311
   36MOL0     C 4839   1.520   4.354   8.420 -0.3229 -0.7479  0.2887
   36MOL0     C 4840   1.464   4.369   8.281  0.0625 -0.6102 -0.3870
   36MOL0     C 4841   1.519   4.276   8.176  0.1834 -0.1025  0.7020
   36MOL0     C 4842   1.654   4.319   8.125 -0.3608 -0.4501  0.0841
   36MOL0     C 4843   1.686   4.276   7.977 -0.6646 -0.7053  0.7268
   36MOL0     C 4844   1.822   4.316   7.918  0.4447 -0.5624  0.9919
   36MOL0     C 4845   1.842   4.301   7.764 -0.2795 -1.1518 -0.5804
   36MOL0     C 4846   1.840   4.153   7.727  0.6591  0.0778 -0.6388
   36MOL0     N 4847   1.863   4.140   7.578 -0.9901 -0.3718 -0.1230
   36MOL0     C 4848   1.780   4.149   7.475  0.2769 -0.8139  0.7134
   36MOL0     C 4849   1.855   4.120   7.363 -0.1448  0.0762  0.3906
   36MOL0     C 4850   1.812   4.094   7.219  0.7955  0.1119 -0.3940
   36MOL0     C 4851   1.824   3.949   7.183 -0.2455  0.4564 -0.8110
   36MOL0     C 4852   1.779   3.884   7.056  0.2957 -0.4089  1.1127
   36MOL0     C 4853   1.856   3.950   6.936 -0.1399  0.6728  0.3867
   36MOL0     O 4854   1.779   4.000   6.829  0.3754  0.6552  0.7707
   36MOL0     C 4855   1.785   4.134   6.797 -0.0948  0.5204  0.2780
   36MOL0     C 4856   1.884   4.178   6.703  0.2481  0.2110 -0.2073
   36MOL0     C 4857   1.879   4.308   6.652  0.9584 -0.2038 -0.4618
   36MOL0     C 4858   1.981   4.340   6.542 -0.1289  0.1323 -0.2072
   36MOL0     C 4859   1.784   4.404   6.704  0.2337 -0.1902 -0.0795
   36MOL0     C 4860   1.768   4.544   6.658  0.1565  0.1622 -0.0811
   36MOL0     O 4861   1.712   4.623   6.755 -0.0023 -0.5395  0.6291
   36MOL0     C 4862   1.715   4.764   6.732  0.6536 -0.1852  0.8794
   36MOL0     C 4863   1.835   4.832   6.703  0.4310 -0.0116 -0.3073
   36MOL0     C 4864   1.834   4.971   6.692 -0.1838  1.2892 -0.2470
   36MOL0     C 4865   1.722   5.043   6.720  0.6374 -0.2541  0.0990
   36MOL0     O 4866   1.730   5.181   6.719 -0.1634 -0.2670  0.4125
   36MOL0     C 4867   1.626   5.256   6.781 -0.1250 -0.3909  0.6870
   36MOL0     C 4868   1.632   5.246   6.936  0.2348  0.4272  0.1077
   36MOL0     C 4869   1.778   5.288   6.985 -0.5667 -0.6439 -0.1562
   36MOL0     C 4870   1.805   5.324   7.136  0.5177 -0.1013 -0.2097
   36MOL0     C 4871   1.704   5.420   7.201 -0.4546  0.1068  0.5657
   36MOL0     C 4872   1.747   5.565   7.199  0.2609 -0.8291 -0.7115
   36MOL0     C 4873   1.864   5.599   7.285  0.0769  0.4890  0.6140
   36MOL0     C 4874   1.908   5.740   7.296 -0.2156 -0.6037  0.6865
   36MOL0    Cl 4875   1.790   5.848   7.386  0.0935  0.0287  0.0909
   36MOL0     C 4876   1.602   4.970   6.738 -0.2045 -0.3293  1.0651
   36MOL0     C 4877   1.596   4.839   6.755 -0.7339  1.2323  0.3833
   36MOL0     O 4878   1.791   4.578   6.543 -0.6951  0.5826 -0.0965
   36MOL0     C 4879   1.688   4.354   6.805 -0.4594 -0.1270 -0.2063
   36MOL0     C 4880   1.692   4.223   6.846  0.3132 -0.1882 -0.0012
   36MOL0     N 4881   1.982   4.102   7.407 -0.0972 -0.1498 -0.5741
   36MOL0     N 4882   1.991   4.107   7.537 -0.3779  0.5916 -0.1720
   36MOL0     C 4883   1.837   4.396   8.565  0.7483  0.1927 -0.5308
   36MOL0     C 4884   1.925   4.491   8.604 -0.1638 -0.0982 -1.0789
   36MOL0     C 4885   2.216   4.771   8.738  0.6166  1.1470  0.4967
   36MOL0     C 4886   2.310   4.732   8.647  0.1905  0.8033 -0.1693
   36MOL0     C 4887   2.447   4.762   8.661  0.1806 -0.5657 -0.0725
   36MOL0     C 4888   2.487   4.853   8.768  0.0631  0.2341  0.1211
   36MOL0     O 4889   2.612   4.915   8.782  0.8852 -0.0818  0.4511
   36MOL0     C 4890   2.723   4.832   8.753  0.0601  0.6103  0.1939
   36MOL0     C 4891   2.810   4.913   8.653  0.0982 -0.4272 -0.9924
   36MOL0     C 4892   2.890   4.819   8.572 -0.6962  0.9072 -0.1039
   36MOL0     C 4893   3.009   4.763   8.661  0.1477  0.8915 -0.1337
   36MOL0     C 4894   3.089   4.672   8.574 -0.5737  0.7139 -0.7914
   36MOL0     C 4895   3.170   4.598   8.519 -0.5646 -0.2426 -0.0637
   36MOL0     C 4896   2.389   4.885   8.857  0.6373 -0.0206 -0.1904
   36MOL0     C 4897   2.262   4.844   8.852  1.0387 -0.3046  0.2397
   36MOL0     C 4898   2.184   4.887   8.971  0.3403  0.4632 -0.0093
   36MOL0     H 4899   1.825   4.739   8.402  0.5720  0.7999  1.4973
   36MOL0     H 4900   1.672   4.549   8.315  0.5341 -0.9048 -1.2848
   36MOL0     H 4901   1.511   4.447   8.476  0.0783  0.8288 -2.1157
   36MOL0     H 4902   1.461   4.282   8.478 -0.4528 -1.8730 -1.1709
   36MOL0     H 4903   1.361   4.339   8.300 -0.2627  0.9694  0.4943
   36MOL0     H 4904   1.461   4.476   8.259 -0.4684 -0.6637 -0.5777
   36MOL0     H 4905   1.505   4.174   8.212 -1.1928  0.1594  0.9743
   36MOL0     H 4906   1.449   4.285   8.093  2.2984 -0.4970 -1.2299
   36MOL0     H 4907   1.657   4.428   8.122 -2.9944 -0.3456 -1.1011
   36MOL0     H 4908   1.731   4.289   8.197  1.4546  3.8868  0.2503
   36MOL0     H 4909   1.606   4.318   7.915  0.1326 -1.4195 -0.8537
   36MOL0     H 4910   1.691   4.167   7.977 -0.6207 -0.7063  0.1760
   36MOL0     H 4911   1.841   4.421   7.945 -0.4340 -0.8348  2.8320
   36MOL0     H 4912   1.890   4.250   7.972 -0.5287 -0.2104  2.7409
   36MOL0     H 4913   1.937   4.344   7.732 -1.7275  1.6569 -1.4323
   36MOL0     H 4914   1.756   4.346   7.714 -1.2685 -2.1315  0.1818
   36MOL0     H 4915   1.909   4.086   7.779 -0.6097 -5.4434 -5.1537
   36MOL0     H 4916   1.742   4.113   7.756  0.9642 -2.4435 -2.7608
   36MOL0     H 4917   1.675   4.175   7.486  1.0782  2.5721  1.5655
   36MOL0     H 4918   1.874   4.145   7.144  0.2065 -2.5985 -2.9344
   36MOL0     H 4919   1.709   4.123   7.198  1.5049  2.6789 -0.6339
   36MOL0     H 4920   1.928   3.922   7.204  0.2164  1.8225 -1.3003
   36MOL0     H 4921   1.766   3.895   7.259  0.4301  0.0711 -0.5556
   36MOL0     H 4922   1.805   3.778   7.065  0.8627 -0.4293 -0.3874
   36MOL0     H 4923   1.672   3.885   7.037 -0.0934 -2.4745  2.7976
   36MOL0     H 4924   1.924   4.027   6.973 -0.4141  0.3669  1.5709
   36MOL0     H 4925   1.920   3.870   6.897 -2.0498  1.0567 -4.1705
   36MOL0     H 4926   1.944   4.101   6.657  2.5011  0.6432  1.8156
   36MOL0     H 4927   1.946   4.291   6.450 -3.1511  0.2493  0.7759
   36MOL0     H 4928   2.079   4.297   6.564 -1.1474 -1.3022  1.8282
   36MOL0     H 4929   1.999   4.447   6.532  0.0993  0.2660  1.4030
   36MOL0     H 4930   1.931   4.782   6.693  0.6632  0.2452  0.5675
   36MOL0     H 4931   1.926   5.029   6.686  0.6004  0.0207 -0.9116
   36MOL0     H 4932   1.634   5.363   6.757 -0.1569 -0.8709 -1.7515
   36MOL0     H 4933   1.524   5.228   6.751 -0.4646 -2.0605  3.1056
   36MOL0     H 4934   1.559   5.311   6.985  3.4184  1.5611  3.8792
   36MOL0     H 4935   1.611   5.141   6.954 -1.3362 -0.4577 -5.1441
   36MOL0     H 4936   1.795   5.373   6.917 -1.4184 -0.5234 -0.2227
   36MOL0     H 4937   1.860   5.217   6.968  2.5982  2.3181  1.3094
   36MOL0     H 4938   1.908   5.356   7.149  1.2810 -2.4285 -0.1244
   36MOL0     H 4939   1.793   5.229   7.189  1.6502 -0.8659 -1.2679
   36MOL0     H 4940   1.605   5.409   7.155 -0.4949  0.6647  0.5158
   36MOL0     H 4941   1.689   5.406   7.308  0.3558  4.0386  1.3574
   36MOL0     H 4942   1.658   5.624   7.221  0.3153 -0.6619 -0.9393
   36MOL0     H 4943   1.771   5.599   7.098 -1.8235 -1.1604 -1.3628
   36MOL0     H 4944   1.947   5.538   7.249  0.6638  1.9069 -0.5328
   36MOL0     H 4945   1.841   5.568   7.387 -0.6116  2.8665  1.2592
   36MOL0     H 4946   1.922   5.789   7.200 -0.7023 -0.9692  0.4254
   36MOL0     H 4947   2.000   5.731   7.356  0.3865 -1.0431 -0.2877
   36MOL0     H 4948   1.507   5.018   6.759  1.3715  3.2618  0.7867
   36MOL0     H 4949   1.501   4.794   6.783 -0.3456  0.9805  1.3168
   36MOL0     H 4950   1.610   4.417   6.847  0.1228  0.8850 -0.6044
   36MOL0     H 4951   1.620   4.179   6.914 -1.5174  0.0541 -1.6987
   36MOL0     H 4952   1.835   4.306   8.626 -0.1735  1.0458  0.7525
   36MOL0     H 4953   1.990   4.469   8.688  1.8798  4.7997 -1.0377
   36MOL0     H 4954   2.270   4.677   8.563 -0.8221  6.6577 -4.1672
   36MOL0     H 4955   2.528   4.729   8.596  0.7593 -1.8525  1.2603
   36MOL0     H 4956   2.777   4.798   8.842 -3.0327 -0.8212  1.6444
   36MOL0     H 4957   2.694   4.737   8.707  3.5746 -0.5920  0.0861
   36MOL0     H 4958   2.880   4.979   8.706 -0.8904 -0.1434  0.0091
   36MOL0     H 4959   2.759   4.962   8.570 -0.6217 -2.5921 -1.8837
   36MOL0     H 4960   2.837   4.730   8.536  0.1349  1.0224 -1.7168
   36MOL0     H 4961   2.936   4.870   8.487 -3.1960 -1.2422 -2.9483
   36MOL0     H 4962   2.963   4.713   8.746 -1.7339  3.5171  0.5190
   36MOL0     H 4963   3.077   4.845   8.688  1.3873  0.3801 -1.5544
   36MOL0     H 4964   3.243   4.535   8.473 -0.7194 -3.8317  3.9294
   36MOL0     H 4965   2.418   4.941   8.946 -0.4597 -1.0026  0.8200
   36MOL0     H 4966   2.239   4.854   9.060  1.6803  1.3990 -0.4592
   36MOL0     H 4967   2.178   4.996   8.982  3.0218  0.4175  4.2851
   36MOL0     H 4968   2.083   4.847   8.970  0.7632 -0.8457 -2.8869
   37MOL0     O 4969   2.953   9.101   5.964  0.2357  0.5201 -1.8242
   37MOL0     C 4970   2.844   9.064   6.014 -0.0046  0.6069  0.3091
   37MOL0     O 4971   2.782   9.134   6.106  0.6744 -0.5334  0.2328
   37MOL0     C 4972   2.843   9.244   6.173 -0.6242  0.7153 -0.5144
   37MOL0     C 4973   2.860   9.228   6.316  0.6502 -0.5372  0.1271
   37MOL0     C 4974   2.942   9.320   6.382 -0.8848 -0.7314  0.9705
   37MOL0     C 4975   2.973   9.443   6.323  0.2835  0.0978 -0.8058
   37MOL0     O 4976   3.026   9.542   6.407  0.3263  0.7232  0.4574
   37MOL0     C 4977   2.932   9.643   6.440 -0.5208 -0.5882 -0.2840
   37MOL0     C 4978   2.988   9.745   6.548 -0.6138 -0.2561 -0.0556
   37MOL0     C 4979   3.028   9.665   6.677 -0.0107  0.5343 -0.1333
   37MOL0     C 4980   2.923   9.553   6.722 -0.8866 -0.3125 -0.9410
   37MOL0     C 4981   2.945   9.517   6.868  0.5944  0.1426 -0.4609
   37MOL0     C 4982   2.897   9.627   6.965 -0.1171 -0.0711 -0.6418
   37MOL0     C 4983   2.878   9.559   7.106 -0.4775  0.1675  0.2251
   37MOL0     C 4984   2.850   9.662   7.219 -0.6905  0.6083 -0.5960
   37MOL0     N 4985   2.719   9.713   7.208  0.0934  0.1229  0.3459
   37MOL0     C 4986   2.701   9.851   7.187 -0.0706  0.2501  0.3970
   37MOL0     C 4987   2.566   9.863   7.184  0.2726 -0.4757 -0.4480
   37MOL0     C 4988   2.499   9.992   7.130  0.6386  0.2303  0.9738
   37MOL0     C 4989   2.523  10.003   6.974  0.6281  0.5177  0.0770
   37MOL0     C 4990   2.376   9.984   6.890 -1.0673 -0.5315 -0.8975
   37MOL0     C 4991   2.301   9.855   6.926 -0.1827  1.1103 -0.3981
   37MOL0     O 4992   2.189   9.829   6.838  0.6232 -0.3845  0.3495
   37MOL0     C 4993   2.134   9.707   6.861  0.0013 -0.3690  0.2484
   37MOL0     C 4994   2.183   9.582   6.823  0.1853  0.2261  0.4783
   37MOL0     C 4995   2.117   9.460   6.845  0.4310  0.3869 -0.3025
   37MOL0     C 4996   2.190   9.332   6.800  0.9699 -0.4625 -0.2072
   37MOL0     C 4997   1.984   9.455   6.909  1.2064 -0.2877 -0.3560
   37MOL0     C 4998   1.904   9.331   6.936 -0.3414  0.4020 -0.5012
   37MOL0     O 4999   1.789   9.358   6.995  0.3322  0.9282  0.6467
   37MOL0     C 5000   1.718   9.267   7.068 -1.1286 -0.9906  0.6992
   37MOL0     C 5001   1.615   9.196   7.003 -0.5617  0.3650  0.3096
   37MOL0     C 5002   1.529   9.111   7.073 -0.5968  0.3665  0.1412
   37MOL0     C 5003   1.546   9.088   7.208 -1.0972  0.2081 -0.7208
   37MOL0     O 5004   1.467   9.006   7.283  0.8244 -0.5292  0.0994
   37MOL0     C 5005   1.325   9.017   7.262  0.6038  0.3074 -0.0481
   37MOL0     C 5006   1.259   9.016   7.399  0.3699 -0.2119 -0.4129
   37MOL0     C 5007   1.314   9.129   7.493  0.5587 -0.3896 -0.3290
   37MOL0     C 5008   1.242   9.138   7.629 -0.5151  0.4903 -0.2241
   37MOL0     C 5009   1.303   9.263   7.705 -1.3422  0.0110  0.2382
   37MOL0     C 5010   1.451   9.262   7.725 -0.7945  0.9043 -0.1681
   37MOL0     C 5011   1.494   9.124   7.774  0.3695 -0.2898  0.4354
   37MOL0     C 5012   1.643   9.126   7.806 -0.0096 -0.5028 -0.4206
   37MOL0    Cl 5013   1.751   9.160   7.661 -0.1665  0.1610  0.3476
   37MOL0     C 5014   1.660   9.141   7.273  0.0089 -0.0758 -0.5153
   37MOL0     C 5015   1.746   9.236   7.203  0.0849 -0.0310 -0.5922
   37MOL0     O 5016   1.928   9.225   6.887 -0.7500 -0.3104  0.0862
   37MOL0     C 5017   1.933   9.580   6.945  0.0948  0.0829 -0.1149
   37MOL0     C 5018   2.002   9.699   6.915 -0.3747  0.5604  0.4425
   37MOL0     N 5019   2.510   9.739   7.217  0.3961 -0.3220  0.2501
   37MOL0     N 5020   2.599   9.651   7.230 -0.0206  0.4939  0.0724
   37MOL0     C 5021   2.952   9.466   6.185  0.4490 -0.4239 -0.6564
   37MOL0     C 5022   2.893   9.362   6.107  0.5023 -0.5623 -0.8105
   37MOL0     C 5023   2.787   8.930   5.975  0.9819 -0.4652 -0.0154
   37MOL0     C 5024   2.818   8.899   5.845  0.5057  0.3372  0.0311
   37MOL0     C 5025   2.785   8.773   5.798 -0.2149 -0.1155 -0.0666
   37MOL0     C 5026   2.695   8.691   5.874  0.1682  0.0717  0.6349
   37MOL0     O 5027   2.643   8.579   5.817 -0.1080 -0.4427  0.1412
   37MOL0     C 5028   2.502   8.559   5.832 -0.9865  0.6571 -0.8992
   37MOL0     C 5029   2.451   8.444   5.739 -0.5236 -0.4553  0.2356
   37MOL0     C 5030   2.499   8.314   5.784 -0.2343  0.0631  0.2239
   37MOL0     C 5031   2.421   8.216   5.702  0.2208  0.5030 -0.3800
   37MOL0     C 5032   2.436   8.233   5.549 -1.0499  0.3014  0.2926
   37MOL0     C 5033   2.446   8.231   5.430 -1.3734  0.4440 -0.5533
   37MOL0     C 5034   2.649   8.727   5.997 -0.1980  0.5241  0.4795
   37MOL0     C 5035   2.706   8.849   6.053  0.0154  0.3342  0.0890
   37MOL0     C 5036   2.665   8.881   6.190  0.3700  0.1493  0.0626
   37MOL0     H 5037   2.840   9.131   6.361  0.0992 -1.3409 -1.7306
   37MOL0     H 5038   2.979   9.297   6.481  1.3952  0.6011  0.5086
   37MOL0     H 5039   2.834   9.613   6.479 -0.2930 -2.6307 -1.1862
   37MOL0     H 5040   2.902   9.693   6.347 -0.9404 -1.7151 -0.7795
   37MOL0     H 5041   3.077   9.793   6.507 -1.6578  0.6028 -1.4145
   37MOL0     H 5042   2.916   9.824   6.571 -1.5394 -0.8717 -0.7681
   37MOL0     H 5043   3.130   9.630   6.664  1.1277  3.8895 -1.2783
   37MOL0     H 5044   3.031   9.740   6.757  0.7904  1.0283 -0.6225
   37MOL0     H 5045   2.820   9.585   6.700 -0.3721  3.3644  1.2540
   37MOL0     H 5046   2.934   9.465   6.658  1.7166  0.5939 -1.8615
   37MOL0     H 5047   3.053   9.511   6.884  0.3639  0.6065  1.5012
   37MOL0     H 5048   2.897   9.422   6.890 -0.0169  0.7632  1.0454
   37MOL0     H 5049   2.978   9.699   6.976 -1.8252  1.9006 -0.3619
   37MOL0     H 5050   2.804   9.681   6.945 -1.1699 -1.2906  0.7026
   37MOL0     H 5051   2.968   9.499   7.124 -2.1459 -2.5078  0.2268
   37MOL0     H 5052   2.789   9.495   7.104 -3.0639  3.5072 -0.2559
   37MOL0     H 5053   2.854   9.614   7.317  0.0604  0.8806 -0.4875
   37MOL0     H 5054   2.924   9.741   7.205 -0.5937  0.7293  0.4950
   37MOL0     H 5055   2.768   9.934   7.169  0.6603 -0.1996  0.9789
   37MOL0     H 5056   2.543  10.084   7.170  0.3090  0.0592  1.7642
   37MOL0     H 5057   2.394   9.997   7.162 -0.2397  0.1407 -1.6646
   37MOL0     H 5058   2.563  10.099   6.938  2.4501  0.2774  1.3580
   37MOL0     H 5059   2.595   9.934   6.930 -0.3957 -2.3352  2.5543
   37MOL0     H 5060   2.310  10.070   6.910 -0.5753 -0.2928 -0.2502
   37MOL0     H 5061   2.400   9.973   6.784  1.4034 -4.7815 -0.1074
   37MOL0     H 5062   2.372   9.772   6.923  0.2052  1.4443 -0.5939
   37MOL0     H 5063   2.257   9.858   7.026 -0.9138 -2.2679 -0.5336
   37MOL0     H 5064   2.276   9.574   6.766 -0.0698 -0.5184  0.1469
   37MOL0     H 5065   2.118   9.273   6.743  0.3100  0.9864 -0.9518
   37MOL0     H 5066   2.216   9.277   6.890 -1.7792  1.6961  2.1096
   37MOL0     H 5067   2.278   9.343   6.736 -0.2288  1.7698 -1.6266
   37MOL0     H 5068   1.591   9.211   6.899 -1.2889  0.8792  0.5468
   37MOL0     H 5069   1.446   9.062   7.023  0.6165 -2.8571  1.0140
   37MOL0     H 5070   1.297   9.109   7.210  0.5166 -0.6253 -1.7325
   37MOL0     H 5071   1.285   8.923   7.224 -1.9879  1.0297  0.6970
   37MOL0     H 5072   1.152   9.021   7.376  0.6765 -2.1283 -2.7567
   37MOL0     H 5073   1.293   8.931   7.460  0.0581  0.3714  0.5900
   37MOL0     H 5074   1.281   9.215   7.435 -1.1201 -1.1368 -0.5611
   37MOL0     H 5075   1.422   9.136   7.507  0.1884  1.3709  2.4905
   37MOL0     H 5076   1.255   9.048   7.690  0.1141  0.7251 -0.0026
   37MOL0     H 5077   1.134   9.155   7.624 -0.8541 -0.2878  2.6123
   37MOL0     H 5078   1.265   9.351   7.651 -1.6150  0.6820  1.4706
   37MOL0     H 5079   1.254   9.265   7.803  1.5187 -1.6209  1.8331
   37MOL0     H 5080   1.482   9.335   7.801  2.8511  0.2132 -0.8349
   37MOL0     H 5081   1.505   9.287   7.633 -1.3330  2.8054 -0.0185
   37MOL0     H 5082   1.474   9.044   7.702 -3.3314 -1.2946  2.3461
   37MOL0     H 5083   1.435   9.090   7.860  1.2942 -1.3861  0.6562
   37MOL0     H 5084   1.669   9.028   7.847 -2.0264  0.1697  2.9090
   37MOL0     H 5085   1.670   9.192   7.888  3.4486 -0.9120 -1.0908
   37MOL0     H 5086   1.671   9.127   7.380 -2.1230 -0.0276 -0.2498
   37MOL0     H 5087   1.820   9.287   7.264  0.1618 -0.4232 -0.3574
   37MOL0     H 5088   1.833   9.589   6.987 -0.8910 -0.4530 -2.2228
   37MOL0     H 5089   1.949   9.789   6.944 -0.4466  0.4627  0.6173
   37MOL0     H 5090   3.004   9.547   6.133  1.4510 -1.5319 -1.4426
   37MOL0     H 5091   2.900   9.356   5.999 -0.7439 -1.3193 -0.8743
   37MOL0     H 5092   2.877   8.963   5.780 -0.5138  1.8263  0.5103
   37MOL0     H 5093   2.800   8.747   5.694 -0.2405 -0.0558 -0.0851
   37MOL0     H 5094   2.479   8.525   5.934  0.3222  1.4911 -0.2908
   37MOL0     H 5095   2.458   8.657   5.809 -0.6667  1.2306  0.7497
   37MOL0     H 5096   2.493   8.469   5.641 -2.2361 -0.3634 -0.5095
   37MOL0     H 5097   2.343   8.447   5.725 -0.9237  0.3645  2.8784
   37MOL0     H 5098   2.605   8.300   5.759 -0.0065  1.7607  0.0562
   37MOL0     H 5099   2.467   8.311   5.888 -0.5987  3.7719  0.3831
   37MOL0     H 5100   2.315   8.223   5.726  0.2502 -1.3789  0.5437
   37MOL0     H 5101   2.455   8.115   5.727 -2.0451 -0.3898 -0.7312
   37MOL0     H 5102   2.458   8.229   5.323 -0.7159 -0.8179 -0.4691
   37MOL0     H 5103   2.589   8.653   6.050  0.6856 -1.8363 -1.5967
   37MOL0     H 5104   2.594   8.811   6.234  0.1562 -0.5969 -1.4062
   37MOL0     H 5105   2.751   8.905   6.254 -0.3817 -3.0758  2.5810
   37MOL0     H 5106   2.606   8.972   6.187 -0.8369 -0.6337 -1.6331
   38MOL0     O 5107  10.077   6.956   1.719  0.9145  0.5276 -0.4984
   38MOL0     C 5108  10.000   7.025   1.788  0.0823 -0.1851  0.1670
   38MOL0     O 5109   9.949   7.144   1.754 -0.6605  0.1156 -0.3513
   38MOL0     C 5110   9.985   7.202   1.636 -0.1780 -0.3861 -0.1553
   38MOL0     C 5111   9.949   7.141   1.516 -0.2562 -0.0976  0.3237
   38MOL0     C 5112   9.989   7.203   1.398 -0.1088 -0.7146 -0.1333
   38MOL0     C 5113  10.066   7.319   1.391 -0.6483  0.8247 -0.0384
   38MOL0     O 5114  10.105   7.371   1.268 -0.3563 -0.2089  0.4822
   38MOL0     C 5115  10.092   7.511   1.243 -0.8773  0.8166  0.3299
   38MOL0     C 5116  10.090   7.538   1.090 -0.5956 -0.2779 -0.4468
   38MOL0     C 5117  10.231   7.517   1.034 -0.9791  0.1944  0.3725
   38MOL0     C 5118  10.222   7.529   0.882 -0.0734 -0.3490  0.0489
   38MOL0     C 5119  10.351   7.491   0.817  0.4176 -0.4284  0.1504
   38MOL0     C 5120  10.372   7.333   0.822  0.0236 -0.6285 -0.0980
   38MOL0     C 5121  10.486   7.282   0.732  0.3338 -0.2162  0.6149
   38MOL0     C 5122  10.478   7.139   0.683 -0.0634  0.4975  0.1344
   38MOL0     N 5123  10.479   7.048   0.798  0.1124 -0.1876 -0.5341
   38MOL0     C 5124  10.371   6.965   0.840  1.0235 -0.5600  0.1235
   38MOL0     C 5125  10.418   6.905   0.953 -0.0113  0.0722 -0.7532
   38MOL0     C 5126  10.335   6.812   1.039  0.6157  0.2819  0.4492
   38MOL0     C 5127  10.304   6.893   1.163  0.2978 -1.0135 -1.1908
   38MOL0     C 5128  10.211   7.016   1.137 -0.0458  0.1598 -0.1457
   38MOL0     C 5129  10.068   6.980   1.109  1.0931 -0.4008  0.6159
   38MOL0     O 5130   9.990   7.098   1.092  0.1311  0.6815  0.5982
   38MOL0     C 5131   9.978   7.160   0.972 -0.3384  0.0803  0.8838
   38MOL0     C 5132  10.044   7.121   0.861  0.2328  0.5442  0.6585
   38MOL0     C 5133  10.010   7.182   0.729 -0.1458  0.9809 -0.1126
   38MOL0     C 5134  10.065   7.122   0.605  1.5695  0.0370  0.7460
   38MOL0     C 5135   9.912   7.278   0.729 -0.4368 -0.8447 -0.6281
   38MOL0     C 5136   9.884   7.358   0.613  0.5560 -0.8735  0.0279
   38MOL0     O 5137   9.880   7.300   0.494  0.4640  0.7853  0.5927
   38MOL0     C 5138   9.847   7.368   0.377 -0.1818  0.1942 -0.4159
   38MOL0     C 5139   9.912   7.479   0.329 -0.2843  0.3509 -0.6323
   38MOL0     C 5140   9.861   7.564   0.227  0.2042  0.0334 -0.2337
   38MOL0     C 5141   9.744   7.531   0.164 -0.8464  0.5100 -0.2797
   38MOL0     O 5142   9.705   7.607   0.058 -0.2821  0.1821 -0.0026
   38MOL0     C 5143   9.693   7.542  -0.068 -0.2012 -0.4774  0.0484
   38MOL0     C 5144   9.667   7.646  -0.178 -0.1705  0.0078  0.0861
   38MOL0     C 5145   9.518   7.683  -0.193 -0.1651 -0.6128  0.6725
   38MOL0     C 5146   9.481   7.788  -0.298 -0.7797 -0.2921 -0.9259
   38MOL0     C 5147   9.341   7.853  -0.285  0.4401 -0.3268 -0.4747
   38MOL0     C 5148   9.322   7.977  -0.373  0.2564 -0.3370 -0.8729
   38MOL0     C 5149   9.197   8.048  -0.308 -0.2154  0.7187 -0.3280
   38MOL0     C 5150   9.156   8.150  -0.405  0.5598 -0.0892 -0.1861
   38MOL0    Cl 5151   9.087   8.077  -0.553  0.1628 -0.0475  0.3943
   38MOL0     C 5152   9.691   7.403   0.200  0.6369 -0.1754  0.5422
   38MOL0     C 5153   9.741   7.323   0.304 -0.4311  0.8759  0.6275
   38MOL0     O 5154   9.863   7.476   0.633  0.5259  0.6019  0.2191
   38MOL0     C 5155   9.852   7.323   0.848 -0.5041  0.5959 -0.3599
   38MOL0     C 5156   9.891   7.272   0.966 -0.3918 -0.0589 -0.2895
   38MOL0     N 5157  10.538   6.950   0.983 -0.6033  1.5697  0.3461
   38MOL0     N 5158  10.584   7.030   0.887  0.0860  0.0712  0.4684
   38MOL0     C 5159  10.118   7.362   1.513 -0.1834  0.6569  0.8315
   38MOL0     C 5160  10.071   7.310   1.633 -0.1002 -0.5545 -0.1265
   38MOL0     C 5161   9.970   6.970   1.929  0.4922 -0.1031 -0.0396
   38MOL0     C 5162   9.834   6.972   1.969 -0.1810  0.4892  0.0486
   38MOL0     C 5163   9.793   6.920   2.091 -0.3676  0.6496  0.0319
   38MOL0     C 5164   9.881   6.854   2.178  0.0518  0.0880 -1.2756
   38MOL0     O 5165   9.855   6.813   2.309 -0.0347 -0.0302 -0.0786
   38MOL0     C 5166   9.730   6.830   2.358 -0.0120 -0.2057  0.5404
   38MOL0     C 5167   9.732   6.782   2.502 -0.1947 -0.0651  0.1330
   38MOL0     C 5168   9.621   6.842   2.589 -0.0637 -0.6174 -0.4525
   38MOL0     C 5169   9.643   6.814   2.744 -0.1206 -0.3759 -0.1006
   38MOL0     C 5170   9.522   6.796   2.811  0.5886 -0.7199  0.0400
   38MOL0     C 5171   9.414   6.787   2.869  0.4964 -0.3139  0.3051
   38MOL0     C 5172  10.016   6.856   2.136  0.2873  0.1760 -0.2373
   38MOL0     C 5173  10.065   6.914   2.021  0.1852  0.0549 -0.5115
   38MOL0     C 5174  10.210   6.890   1.991 -0.0813 -0.4468  0.5965
   38MOL0     H 5175   9.891   7.049   1.515 -1.5106  0.6798 -0.5640
   38MOL0     H 5176   9.956   7.159   1.304 -0.9972  0.0389 -0.1820
   38MOL0     H 5177  10.181   7.555   1.289 -0.5838 -1.5185  2.1944
   38MOL0     H 5178  10.000   7.554   1.281 -2.4064  0.2248 -2.4316
   38MOL0     H 5179  10.021   7.465   1.048  2.4413 -4.0683  0.5311
   38MOL0     H 5180  10.062   7.641   1.069  2.2122  0.1658 -2.6064
   38MOL0     H 5181  10.297   7.591   1.080  1.0200 -0.4016 -1.3727
   38MOL0     H 5182  10.273   7.420   1.061 -1.2655  0.4971  2.0053
   38MOL0     H 5183  10.140   7.459   0.865 -0.9191  0.6059  0.0844
   38MOL0     H 5184  10.188   7.631   0.862 -1.7810 -0.7696  0.6395
   38MOL0     H 5185  10.438   7.543   0.858 -0.1940  1.0890 -0.4018
   38MOL0     H 5186  10.352   7.521   0.712  1.9396  4.3091  1.2388
   38MOL0     H 5187  10.405   7.301   0.921  0.7351  1.9403  0.5844
   38MOL0     H 5188  10.272   7.290   0.808 -0.5627 -0.4877  3.0637
   38MOL0     H 5189  10.579   7.293   0.789 -0.5941 -1.4637  2.4686
   38MOL0     H 5190  10.496   7.333   0.636 -0.5956 -1.5158 -0.2050
   38MOL0     H 5191  10.387   7.134   0.622  0.7401 -1.0321 -1.0000
   38MOL0     H 5192  10.558   7.119   0.611  0.7919  2.6988  0.3975
   38MOL0     H 5193  10.279   6.935   0.791  2.2077 -0.9669 -1.9833
   38MOL0     H 5194  10.392   6.724   1.070 -1.4310 -1.3779 -0.2697
   38MOL0     H 5195  10.252   6.787   0.972  0.4842 -0.2970  0.8167
   38MOL0     H 5196  10.264   6.825   1.238 -1.4671 -1.7335 -2.7188
   38MOL0     H 5197  10.397   6.925   1.211  0.8015 -0.7958 -2.2778
   38MOL0     H 5198  10.209   7.098   1.209  1.6808  0.1069 -0.0012
   38MOL0     H 5199  10.248   7.068   1.048 -1.9220  0.4450 -0.8010
   38MOL0     H 5200  10.059   6.920   1.019 -1.1210  1.7601 -0.7362
   38MOL0     H 5201  10.021   6.914   1.183  0.2229 -2.2713 -1.4860
   38MOL0     H 5202  10.105   7.031   0.858 -0.3860  0.0854  1.5967
   38MOL0     H 5203  10.126   7.197   0.554 -0.5256  2.2596  1.3377
   38MOL0     H 5204   9.986   7.084   0.540  1.8954  2.3240 -1.0808
   38MOL0     H 5205  10.128   7.037   0.635  0.1844 -0.9155  1.0380
   38MOL0     H 5206   9.999   7.507   0.387  0.6770 -1.7831 -0.9757
   38MOL0     H 5207   9.916   7.650   0.190 -0.3502  0.5711  0.1481
   38MOL0     H 5208   9.788   7.492  -0.090 -0.9528 -1.8735 -0.0782
   38MOL0     H 5209   9.608   7.474  -0.062  0.3920 -1.2728 -0.4533
   38MOL0     H 5210   9.727   7.736  -0.159  0.7638 -0.1436 -1.9249
   38MOL0     H 5211   9.705   7.621  -0.277  1.9299 -0.3961  0.9443
   38MOL0     H 5212   9.488   7.727  -0.097  0.4950 -0.1099  0.6550
   38MOL0     H 5213   9.454   7.599  -0.221  0.4038 -0.8295 -0.0172
   38MOL0     H 5214   9.481   7.728  -0.389 -0.3586  1.8242 -2.3996
   38MOL0     H 5215   9.556   7.867  -0.306  0.1551 -0.8233  1.5046
   38MOL0     H 5216   9.265   7.778  -0.310 -0.6859  1.0961 -1.5474
   38MOL0     H 5217   9.332   7.876  -0.179  1.2814 -2.5804  0.1304
   38MOL0     H 5218   9.307   7.940  -0.475 -2.3852 -3.0307  0.3357
   38MOL0     H 5219   9.407   8.040  -0.346  0.7870 -1.9723  1.6290
   38MOL0     H 5220   9.228   8.103  -0.218  0.8980 -1.6481  0.8207
   38MOL0     H 5221   9.112   7.982  -0.290 -0.6705  1.8716  2.2198
   38MOL0     H 5222   9.249   8.197  -0.439 -0.5880  0.7481 -2.4148
   38MOL0     H 5223   9.097   8.230  -0.360  3.9513  1.7655  1.3406
   38MOL0     H 5224   9.616   7.356   0.137  0.0062 -0.6753  1.6271
   38MOL0     H 5225   9.690   7.230   0.329 -0.6690 -0.1487 -3.0361
   38MOL0     H 5226   9.769   7.392   0.841 -1.2855 -0.1806  0.8368
   38MOL0     H 5227   9.842   7.309   1.055  2.0820  1.4855  0.5257
   38MOL0     H 5228  10.198   7.435   1.510  0.2371  0.1597 -1.4888
   38MOL0     H 5229  10.096   7.354   1.729 -0.4500  0.1949 -0.3719
   38MOL0     H 5230   9.771   7.035   1.907 -0.7160 -2.4620 -2.6728
   38MOL0     H 5231   9.691   6.917   2.128 -0.2361 -4.2795  0.5830
   38MOL0     H 5232   9.715   6.936   2.339  0.7261 -0.1248  0.3940
   38MOL0     H 5233   9.651   6.783   2.299 -0.6347  2.6376 -1.0624
   38MOL0     H 5234   9.833   6.811   2.532 -0.1335 -1.8654  1.8453
   38MOL0     H 5235   9.708   6.677   2.518  1.5465 -0.4404  0.4103
   38MOL0     H 5236   9.621   6.951   2.575  0.4832 -0.2486  1.9438
   38MOL0     H 5237   9.522   6.812   2.553  0.1127  0.5764 -2.0596
   38MOL0     H 5238   9.714   6.885   2.789 -0.9653 -0.6040  1.6788
   38MOL0     H 5239   9.687   6.715   2.759 -1.2564 -0.8877 -0.0631
   38MOL0     H 5240   9.323   6.777   2.924  0.0960  2.5873  0.3214
   38MOL0     H 5241  10.088   6.797   2.193  0.8385  0.2227 -0.8717
   38MOL0     H 5242  10.207   6.803   1.925  0.5703  0.4803 -0.7104
   38MOL0     H 5243  10.264   6.976   1.949  1.0695 -1.5568 -0.2887
   38MOL0     H 5244  10.275   6.874   2.078  0.7406 -1.4967 -0.1851
   39MOL0     O 5245   6.355  10.239  11.236 -0.5065  0.2893 -0.6359
   39MOL0     C 5246   6.358  10.152  11.149 -0.2285  1.0365  0.3741
   39MOL0     O 5247   6.438  10.149  11.031  0.0551 -0.6477 -0.0591
   39MOL0     C 5248   6.526  10.255  11.009  0.0619  0.0332  0.6660
   39MOL0     C 5249   6.487  10.388  11.026  0.9668 -0.5144  0.0075
   39MOL0     C 5250   6.577  10.494  11.006  0.6486 -0.7643  0.6560
   39MOL0     C 5251   6.707  10.460  10.960  0.6119 -0.5833  0.0318
   39MOL0     O 5252   6.818  10.552  10.964 -0.0518  0.9471 -0.5793
   39MOL0     C 5253   6.809  10.682  11.032  0.3707  0.4423 -0.0508
   39MOL0     C 5254   6.915  10.787  10.993 -1.6831  0.7855  0.5748
   39MOL0     C 5255   6.900  10.838  10.848  0.3539 -0.2492  0.5552
   39MOL0     C 5256   7.031  10.874  10.781  0.1284 -0.6162 -0.2603
   39MOL0     C 5257   7.030  10.894  10.629  0.4830 -0.3998 -0.4141
   39MOL0     C 5258   7.165  10.950  10.587  0.2029 -0.8913  0.4384
   39MOL0     C 5259   7.179  10.971  10.438  0.3251  0.5675 -0.1780
   39MOL0     C 5260   7.167  10.843  10.353  0.0700  0.3174  1.3455
   39MOL0     N 5261   7.305  10.796  10.316 -0.4716  0.1129  0.2195
   39MOL0     C 5262   7.377  10.717  10.395  0.6912  0.2933 -0.5392
   39MOL0     C 5263   7.482  10.680  10.319 -0.1858 -0.1075 -0.0686
   39MOL0     C 5264   7.599  10.609  10.360 -0.3661 -0.4503  0.0764
   39MOL0     C 5265   7.562  10.454  10.378 -0.0613 -0.0493  0.1137
   39MOL0     C 5266   7.701  10.397  10.405  0.1335  0.3552  0.3708
   39MOL0     C 5267   7.695  10.248  10.398 -0.3502 -0.4345 -0.4606
   39MOL0     O 5268   7.616  10.175  10.500  0.1377  0.2124  0.1012
   39MOL0     C 5269   7.481  10.155  10.484  0.8984  0.8533 -0.2168
   39MOL0     C 5270   7.424  10.110  10.601  0.0287 -0.1362  0.7115
   39MOL0     C 5271   7.284  10.086  10.612 -0.7612  0.6079  0.0697
   39MOL0     C 5272   7.229  10.055  10.750 -0.0689  1.1802  0.5939
   39MOL0     C 5273   7.210  10.095  10.493 -0.0972  0.1296 -0.6906
   39MOL0     C 5274   7.063  10.077  10.498  0.4685 -0.2544 -0.0184
   39MOL0     O 5275   7.018   9.980  10.579 -0.1054  0.2995 -0.4362
   39MOL0     C 5276   6.880   9.957  10.577  0.2787  0.4954 -0.6501
   39MOL0     C 5277   6.824   9.829  10.545  0.2902 -0.1602 -0.1636
   39MOL0     C 5278   6.695   9.788  10.564 -0.2135 -0.7113  0.5248
   39MOL0     C 5279   6.597   9.887  10.604 -0.2423 -0.3275 -0.1713
   39MOL0     O 5280   6.465   9.862  10.594 -0.6539  0.4787 -0.0202
   39MOL0     C 5281   6.378   9.961  10.537  0.0791  0.2496 -0.1120
   39MOL0     C 5282   6.240   9.890  10.510 -0.7628 -0.3129  0.3137
   39MOL0     C 5283   6.176   9.851  10.640  0.7379  0.5835  1.0158
   39MOL0     C 5284   6.026   9.825  10.616 -0.0005  0.3439  1.1111
   39MOL0     C 5285   5.963   9.770  10.743  0.4166 -0.2352 -0.1229
   39MOL0     C 5286   5.834   9.694  10.721  0.0814 -1.0258 -0.2843
   39MOL0     C 5287   5.782   9.645  10.855 -0.3292  0.0845 -0.1398
   39MOL0     C 5288   5.687   9.523  10.842 -0.5535 -0.2071  0.5597
   39MOL0    Cl 5289   5.658   9.460  11.005  0.2798  0.4742  0.3961
   39MOL0     C 5290   6.641  10.013  10.631  0.6171  0.0548  0.6512
   39MOL0     C 5291   6.779  10.048  10.624 -0.4712 -0.3329  0.4604
   39MOL0     O 5292   6.982  10.136  10.424  0.1715 -0.2479 -0.3625
   39MOL0     C 5293   7.269  10.132  10.377 -0.3368  0.1076  0.9529
   39MOL0     C 5294   7.403  10.167  10.375 -0.6638 -0.3048 -0.1441
   39MOL0     N 5295   7.464  10.731  10.196 -0.3290  0.3838 -0.0035
   39MOL0     N 5296   7.352  10.786  10.197  1.3388 -0.4290 -0.6751
   39MOL0     C 5297   6.737  10.334  10.926  0.3505 -0.0875  0.3820
   39MOL0     C 5298   6.645  10.228  10.952  0.4708  0.8129 -0.3629
   39MOL0     C 5299   6.280  10.035  11.165  0.0231  1.2114 -1.5445
   39MOL0     C 5300   6.249   9.960  11.057 -0.0927 -0.0525  0.5665
   39MOL0     C 5301   6.175   9.843  11.064 -1.1235 -0.8075  0.4915
   39MOL0     C 5302   6.118   9.803  11.181 -0.3964 -0.6967 -0.6210
   39MOL0     O 5303   6.057   9.682  11.182  0.8927 -0.2767 -1.3096
   39MOL0     C 5304   5.965   9.657  11.289  0.0022  0.4805 -0.2282
   39MOL0     C 5305   5.879   9.535  11.235 -0.6145  0.0142 -0.4099
   39MOL0     C 5306   5.783   9.479  11.337  0.7172  0.6658  0.1719
   39MOL0     C 5307   5.829   9.488  11.486  0.2534  0.0169  0.2142
   39MOL0     C 5308   5.960   9.423  11.514  0.8837 -0.1156 -0.0033
   39MOL0     C 5309   6.063   9.359  11.543 -0.0328 -0.0741  0.2965
   39MOL0     C 5310   6.148   9.873  11.294 -0.4242 -0.1623 -0.1486
   39MOL0     C 5311   6.231   9.979  11.294 -0.7143 -1.2438  0.4572
   39MOL0     C 5312   6.249  10.050  11.427 -0.2531  0.6657 -0.1668
   39MOL0     H 5313   6.390  10.416  11.067  1.7633  1.5074  0.6075
   39MOL0     H 5314   6.536  10.591  11.032 -0.0561 -1.5115  2.5185
   39MOL0     H 5315   6.836  10.659  11.136 -2.1762  0.7103  0.7351
   39MOL0     H 5316   6.709  10.726  11.025 -0.3030 -0.4899  2.5359
   39MOL0     H 5317   6.919  10.870  11.064  1.2051 -0.5933  2.2036
   39MOL0     H 5318   7.012  10.736  10.995 -3.0021 -1.9726  3.2651
   39MOL0     H 5319   6.856  10.753  10.796  2.6288 -0.5910 -0.9550
   39MOL0     H 5320   6.836  10.927  10.838  1.8208  0.8970  0.9504
   39MOL0     H 5321   7.060  10.969  10.827 -2.2394 -1.0096  2.3208
   39MOL0     H 5322   7.112  10.802  10.804  0.2305 -0.6714 -0.7953
   39MOL0     H 5323   6.947  10.958  10.598 -2.3576 -3.6912 -0.1607
   39MOL0     H 5324   7.008  10.795  10.588  0.6255 -1.2612  1.4824
   39MOL0     H 5325   7.179  11.050  10.630 -0.0376 -1.8100  2.7506
   39MOL0     H 5326   7.246  10.882  10.612  0.4080 -1.3741 -1.3749
   39MOL0     H 5327   7.269  11.021  10.401  0.4340  0.4738 -0.0403
   39MOL0     H 5328   7.086  11.026  10.421 -0.6228 -0.9987 -0.2794
   39MOL0     H 5329   7.106  10.769  10.404 -4.3583  0.5725 -2.8815
   39MOL0     H 5330   7.118  10.874  10.260  0.4248  1.0785  1.4023
   39MOL0     H 5331   7.345  10.689  10.495 -1.3030 -0.6435 -1.3793
   39MOL0     H 5332   7.641  10.661  10.446 -2.2868  1.7183 -0.2185
   39MOL0     H 5333   7.671  10.615  10.277  1.8551 -0.1409  1.9172
   39MOL0     H 5334   7.497  10.427  10.461 -1.9958 -0.9057 -1.5754
   39MOL0     H 5335   7.529  10.411  10.282 -0.2782  1.1079 -0.3481
   39MOL0     H 5336   7.775  10.430  10.332  1.5430 -0.5963  1.3065
   39MOL0     H 5337   7.738  10.425  10.505  1.0388 -0.6573  0.3357
   39MOL0     H 5338   7.675  10.214  10.296  0.8929  1.0097 -1.2242
   39MOL0     H 5339   7.798  10.218  10.415  0.0137  2.4707  4.1445
   39MOL0     H 5340   7.490  10.097  10.686  1.9392  0.9246 -0.5142
   39MOL0     H 5341   7.316  10.053  10.816  0.7059 -0.7416 -0.4128
   39MOL0     H 5342   7.184   9.956  10.759  1.1665  0.7030  1.9003
   39MOL0     H 5343   7.162  10.134  10.786  0.0219  1.2993  0.5010
   39MOL0     H 5344   6.904   9.770  10.502  0.4274 -0.2912  0.2609
   39MOL0     H 5345   6.659   9.686  10.552  0.0855 -0.4988 -3.3555
   39MOL0     H 5346   6.371  10.041  10.611 -1.5091 -1.0484  1.2137
   39MOL0     H 5347   6.414   9.999  10.441 -1.9128 -0.5757 -1.2571
   39MOL0     H 5348   6.185   9.961  10.448  2.5218  0.8665 -1.4992
   39MOL0     H 5349   6.253   9.796  10.455 -0.2784 -0.4313  0.6232
   39MOL0     H 5350   6.178   9.921  10.724 -0.6109 -0.1144  1.6615
   39MOL0     H 5351   6.223   9.762  10.685 -0.4926 -0.3901  0.4499
   39MOL0     H 5352   6.017   9.743  10.545  1.0918  1.1440  0.0018
   39MOL0     H 5353   5.976   9.916  10.582  0.7940 -0.5517 -2.9883
   39MOL0     H 5354   6.041   9.710  10.791  1.3445  2.1539  1.5692
   39MOL0     H 5355   5.946   9.851  10.815 -5.2517 -1.4941  0.3895
   39MOL0     H 5356   5.855   9.620  10.643  0.8838 -0.6894 -0.3935
   39MOL0     H 5357   5.756   9.762  10.687  1.2786  0.2621 -0.5085
   39MOL0     H 5358   5.738   9.730  10.908  1.0602 -0.2636  1.6931
   39MOL0     H 5359   5.865   9.609  10.917 -0.5071 -0.1107 -0.0139
   39MOL0     H 5360   5.732   9.444  10.782 -1.4533 -0.2916 -0.0232
   39MOL0     H 5361   5.594   9.556  10.794  0.3368 -0.5136 -1.4515
   39MOL0     H 5362   6.571  10.090  10.661 -0.5178 -0.8982  0.5216
   39MOL0     H 5363   6.809  10.151  10.640 -2.2178  0.2069  0.4637
   39MOL0     H 5364   7.208  10.153  10.290 -0.8871 -0.2837  1.2363
   39MOL0     H 5365   7.450  10.203  10.284 -0.2824  1.5303  0.7366
   39MOL0     H 5366   6.840  10.311  10.899  0.0489  2.5492 -3.9815
   39MOL0     H 5367   6.665  10.129  10.913 -0.9288 -0.4439  1.9082
   39MOL0     H 5368   6.297   9.969  10.960  0.2760 -4.3265  0.1337
   39MOL0     H 5369   6.158   9.778  10.979  0.5378 -0.6532  0.0111
   39MOL0     H 5370   6.028   9.625  11.373 -1.4375  1.4771  1.2886
   39MOL0     H 5371   5.919   9.752  11.315  2.6067  2.2835 -1.7769
   39MOL0     H 5372   5.941   9.455  11.196 -0.8480  0.1968 -1.1720
   39MOL0     H 5373   5.813   9.573  11.157 -1.5867 -0.1674  0.3025
   39MOL0     H 5374   5.690   9.533  11.320  0.7409  0.7691  0.3701
   39MOL0     H 5375   5.766   9.373  11.313  0.3450  1.1290 -1.8154
   39MOL0     H 5376   5.756   9.446  11.556 -0.4079  1.1730  0.2410
   39MOL0     H 5377   5.851   9.591  11.515  1.2029 -0.2170  0.3381
   39MOL0     H 5378   6.157   9.314  11.566  0.0100 -0.0038  0.2588
   39MOL0     H 5379   6.115   9.845  11.393 -6.5305 -0.5525 -1.9111
   39MOL0     H 5380   6.215  10.154  11.421 -1.5755  0.7230  4.4580
   39MOL0     H 5381   6.185  10.008  11.504  1.1615  0.2268  0.8118
   39MOL0     H 5382   6.357  10.058  11.444  0.2473 -1.9278 -1.5867
   40MOL0     O 5383   9.575   4.575   5.174  0.5808  0.6344 -0.0238
   40MOL0     C 5384   9.687   4.554   5.118  0.1372 -0.4812  1.2322
   40MOL0     O 5385   9.806   4.560   5.178 -0.9099 -1.0441 -0.5297
   40MOL0     C 5386   9.820   4.586   5.312  0.4486 -0.5113  0.3531
   40MOL0     C 5387   9.921   4.521   5.386 -0.2021 -0.7929 -0.1045
   40MOL0     C 5388   9.941   4.548   5.522 -0.4534 -0.9149  0.7895
   40MOL0     C 5389   9.846   4.625   5.597  0.0679  0.2470 -0.3579
   40MOL0     O 5390   9.861   4.639   5.730 -0.0792  0.6598 -0.4773
   40MOL0     C 5391   9.926   4.529   5.799  0.0761 -0.2248  0.3535
   40MOL0     C 5392   9.822   4.410   5.783 -0.0857  0.3339  0.0135
   40MOL0     C 5393   9.883   4.294   5.866 -0.4216  1.1069 -0.5961
   40MOL0     C 5394   9.831   4.292   6.014 -0.1013 -0.1269 -0.7817
   40MOL0     C 5395   9.906   4.187   6.094 -0.7638  0.8924  0.3803
   40MOL0     C 5396   9.893   4.202   6.247 -0.7442 -0.0981  0.1963
   40MOL0     C 5397   9.746   4.189   6.295 -0.5226 -0.0386  0.1683
   40MOL0     C 5398   9.742   4.224   6.445  1.0225  0.6315 -0.8894
   40MOL0     N 5399   9.603   4.206   6.505  0.3929  0.9180  0.0488
   40MOL0     C 5400   9.557   4.083   6.548 -0.2154  0.6031 -0.6237
   40MOL0     C 5401   9.432   4.101   6.585  0.6624 -1.1167  0.2099
   40MOL0     C 5402   9.341   4.012   6.661  0.4020  0.6482 -0.0048
   40MOL0     C 5403   9.195   4.011   6.616  0.2604  0.3800 -0.1216
   40MOL0     C 5404   9.093   3.971   6.722  1.0357 -0.0576  0.0713
   40MOL0     C 5405   9.133   3.841   6.801 -0.5918  0.7841  0.1118
   40MOL0     O 5406   9.141   3.724   6.718  0.0393 -0.3383  0.2790
   40MOL0     C 5407   9.253   3.661   6.679 -1.0503  0.2591  0.3115
   40MOL0     C 5408   9.364   3.657   6.773  0.7911 -0.0487  0.2544
   40MOL0     C 5409   9.491   3.623   6.730 -0.0232 -0.4157  0.1272
   40MOL0     C 5410   9.600   3.644   6.827  1.9596  0.8317 -1.2037
   40MOL0     C 5411   9.510   3.566   6.602  0.3692  0.2898  1.0379
   40MOL0     C 5412   9.634   3.508   6.548  0.2874  0.6562 -0.3731
   40MOL0     O 5413   9.628   3.411   6.450  0.6029  0.2972 -0.0514
   40MOL0     C 5414   9.751   3.369   6.405  0.4105  0.0105  0.2307
   40MOL0     C 5415   9.824   3.431   6.309 -0.1036 -0.4795 -0.5575
   40MOL0     C 5416   9.948   3.383   6.275 -1.1081 -0.0917  0.6511
   40MOL0     C 5417  10.005   3.265   6.321  0.7398  0.2801  0.0447
   40MOL0     O 5418  10.133   3.240   6.283 -0.4344 -0.2031  0.3990
   40MOL0     C 5419  10.192   3.119   6.325 -0.6508  0.7949  0.0675
   40MOL0     C 5420  10.318   3.079   6.236  0.4339  0.3261  0.2056
   40MOL0     C 5421  10.373   2.938   6.291 -0.8978  0.2704  0.3819
   40MOL0     C 5422  10.491   2.892   6.206 -0.0636  0.5688 -0.8646
   40MOL0     C 5423  10.446   2.848   6.071  0.1174  1.0091 -0.4795
   40MOL0     C 5424  10.564   2.783   5.987  0.7223  0.3675  0.4220
   40MOL0     C 5425  10.523   2.723   5.851  0.1604 -0.3698 -0.2595
   40MOL0     C 5426  10.433   2.604   5.866  0.0089  0.7837 -0.5994
   40MOL0    Cl 5427  10.270   2.663   5.886 -0.2556  0.7158  0.3877
   40MOL0     C 5428   9.919   3.191   6.412 -0.2431  0.5265 -0.0053
   40MOL0     C 5429   9.799   3.245   6.455  0.2121 -0.6651  0.3931
   40MOL0     O 5430   9.737   3.551   6.597  0.1828  0.0676 -0.0401
   40MOL0     C 5431   9.401   3.556   6.515  0.7015 -0.2389 -0.9138
   40MOL0     C 5432   9.278   3.601   6.557 -0.0410 -0.0289 -0.4726
   40MOL0     N 5433   9.401   4.236   6.568 -0.3898 -0.7665 -0.2658
   40MOL0     N 5434   9.506   4.294   6.523 -0.0326 -0.0077 -0.5478
   40MOL0     C 5435   9.743   4.689   5.530 -0.4400 -0.1852  0.8307
   40MOL0     C 5436   9.732   4.667   5.389  0.3208  0.7338  0.5602
   40MOL0     C 5437   9.671   4.492   4.982 -0.1876 -0.0559  0.6426
   40MOL0     C 5438   9.557   4.515   4.903  0.3710 -0.7676 -0.1881
   40MOL0     C 5439   9.545   4.464   4.773 -0.1339  0.3570  0.8290
   40MOL0     C 5440   9.643   4.379   4.719 -0.1622  0.0317  0.5000
   40MOL0     O 5441   9.633   4.313   4.601 -0.1374  0.4435 -0.3912
   40MOL0     C 5442   9.507   4.268   4.554 -0.4228  0.0091  0.5143
   40MOL0     C 5443   9.509   4.137   4.464  0.8070  0.4085  0.2891
   40MOL0     C 5444   9.648   4.098   4.404  0.3414 -0.1246 -0.6161
   40MOL0     C 5445   9.630   3.955   4.342 -0.2352  0.1340 -0.8273
   40MOL0     C 5446   9.736   3.867   4.378 -0.7530 -0.4747 -0.1120
   40MOL0     C 5447   9.807   3.770   4.398 -0.6195 -0.3226 -0.1227
   40MOL0     C 5448   9.762   4.361   4.796  0.4961 -0.3450 -0.5463
   40MOL0     C 5449   9.778   4.423   4.926 -0.4033 -0.0727 -0.2289
   40MOL0     C 5450   9.914   4.397   4.982 -0.0736 -0.1691  0.2118
   40MOL0     H 5451   9.995   4.455   5.342  2.1355 -0.6078  3.2195
   40MOL0     H 5452  10.027   4.493   5.560  0.8477 -0.5483 -1.4059
   40MOL0     H 5453   9.937   4.558   5.904 -0.4639  2.3490 -0.2343
   40MOL0     H 5454  10.027   4.505   5.765 -0.1471 -0.0660 -0.4377
   40MOL0     H 5455   9.725   4.437   5.825 -0.9020 -0.5134 -1.2508
   40MOL0     H 5456   9.808   4.374   5.681 -0.3141 -0.3167  0.2670
   40MOL0     H 5457   9.863   4.199   5.816  2.6897  0.2977 -0.4821
   40MOL0     H 5458   9.992   4.297   5.870 -0.4115  0.3285  3.7043
   40MOL0     H 5459   9.848   4.395   6.047  1.5567 -0.5739 -0.1285
   40MOL0     H 5460   9.724   4.273   6.024  0.0487 -0.7831 -0.3765
   40MOL0     H 5461  10.009   4.175   6.060 -1.5784 -2.0688 -1.5073
   40MOL0     H 5462   9.859   4.091   6.068 -1.7050  1.7752 -1.3258
   40MOL0     H 5463   9.955   4.119   6.280 -1.5619 -1.2233 -1.0253
   40MOL0     H 5464   9.941   4.300   6.263  1.4175 -0.3946 -3.3196
   40MOL0     H 5465   9.717   4.086   6.269  0.1495 -0.1585 -0.1424
   40MOL0     H 5466   9.693   4.268   6.242  2.4735  1.2360 -1.2056
   40MOL0     H 5467   9.805   4.160   6.507 -3.0232  1.1799  4.5668
   40MOL0     H 5468   9.766   4.328   6.467 -1.3804  0.2878  5.1371
   40MOL0     H 5469   9.614   3.993   6.566 -1.7615  0.1501  2.6499
   40MOL0     H 5470   9.345   4.041   6.766 -0.9045 -2.4877  1.0391
   40MOL0     H 5471   9.372   3.908   6.655  0.7258  0.7375  0.1436
   40MOL0     H 5472   9.179   4.108   6.568  3.7328  1.4966  0.6995
   40MOL0     H 5473   9.188   3.931   6.541  1.3755  0.5966 -0.4801
   40MOL0     H 5474   9.078   4.058   6.787  0.4201 -1.1139  1.3853
   40MOL0     H 5475   9.000   3.959   6.667  0.0582  1.3454  1.3297
   40MOL0     H 5476   9.228   3.856   6.852 -1.1060  1.2103  0.9685
   40MOL0     H 5477   9.063   3.831   6.884 -0.4585  2.6633  0.4887
   40MOL0     H 5478   9.348   3.707   6.868 -2.3259 -2.5900  1.2435
   40MOL0     H 5479   9.565   3.708   6.908 -2.2112  0.2019 -2.2743
   40MOL0     H 5480   9.681   3.698   6.776  1.5436  0.8633 -1.8443
   40MOL0     H 5481   9.625   3.542   6.857 -4.4570 -0.1467  2.5841
   40MOL0     H 5482   9.784   3.523   6.267 -0.1103  0.0874  0.6658
   40MOL0     H 5483  10.016   3.429   6.204 -0.5474  0.4075  1.4787
   40MOL0     H 5484  10.201   3.129   6.433 -0.4060  2.2371 -0.0733
   40MOL0     H 5485  10.122   3.037   6.303  1.2327 -0.0822 -3.4471
   40MOL0     H 5486  10.276   3.066   6.136 -1.5788 -1.6640  1.1958
   40MOL0     H 5487  10.374   3.172   6.245 -2.4949  2.3350 -0.9841
   40MOL0     H 5488  10.293   2.864   6.279  0.6740 -1.1633 -2.6283
   40MOL0     H 5489  10.406   2.946   6.395  0.5713  2.3046 -0.1818
   40MOL0     H 5490  10.531   2.804   6.257 -1.3301 -0.0206 -0.8555
   40MOL0     H 5491  10.565   2.972   6.198 -0.5363  1.2675  1.0781
   40MOL0     H 5492  10.376   2.767   6.096  0.8462 -0.0613 -1.7394
   40MOL0     H 5493  10.402   2.927   6.010  0.3556  0.6550 -1.1237
   40MOL0     H 5494  10.599   2.699   6.047  0.5517  0.4085  0.5777
   40MOL0     H 5495  10.640   2.860   5.967  2.1322 -1.4405 -1.6232
   40MOL0     H 5496  10.615   2.695   5.799 -0.8934  1.6514 -3.5063
   40MOL0     H 5497  10.467   2.800   5.796  0.2435  0.0019  0.1663
   40MOL0     H 5498  10.451   2.545   5.956  1.1853  1.2407 -0.5190
   40MOL0     H 5499  10.431   2.535   5.781  2.2860 -1.4627  1.0317
   40MOL0     H 5500   9.947   3.101   6.464 -0.5052  0.5330  0.1494
   40MOL0     H 5501   9.747   3.189   6.532  1.0062  1.2692  2.4374
   40MOL0     H 5502   9.405   3.513   6.415 -0.1302 -2.9016  0.1074
   40MOL0     H 5503   9.206   3.590   6.476  0.2172 -2.7804 -0.4171
   40MOL0     H 5504   9.678   4.753   5.590 -2.3359  0.7193 -1.9882
   40MOL0     H 5505   9.665   4.734   5.335  2.4748  1.7148 -1.0657
   40MOL0     H 5506   9.464   4.566   4.927  1.3344  1.0513 -0.0933
   40MOL0     H 5507   9.454   4.493   4.722  1.4941  1.2388 -1.7900
   40MOL0     H 5508   9.460   4.247   4.651  0.3265  2.1919  1.4180
   40MOL0     H 5509   9.442   4.336   4.498 -0.0080 -0.7007 -0.8730
   40MOL0     H 5510   9.442   4.142   4.379  1.3559 -3.9255 -0.6316
   40MOL0     H 5511   9.476   4.063   4.538  0.7868  0.7510  0.6250
   40MOL0     H 5512   9.678   4.172   4.329 -1.3054 -2.9543 -4.3385
   40MOL0     H 5513   9.718   4.102   4.489  1.5182 -2.5862 -1.3792
   40MOL0     H 5514   9.626   3.964   4.233 -3.2670  1.5102 -0.7014
   40MOL0     H 5515   9.539   3.906   4.377  1.3868 -2.8606 -0.4234
   40MOL0     H 5516   9.868   3.684   4.415 -1.6931 -0.8253  1.4216
   40MOL0     H 5517   9.835   4.293   4.753 -2.1443 -3.0742 -1.0075
   40MOL0     H 5518   9.963   4.494   4.996  0.5869 -0.1543 -1.9447
   40MOL0     H 5519   9.898   4.343   5.076 -3.0631  0.1046 -0.0557
   40MOL0     H 5520   9.973   4.329   4.920  3.4724  2.2696  0.6370
   41MOL0     O 5521  11.272   4.534   0.388 -0.2201  0.7761  0.6233
   41MOL0     C 5522  11.322   4.506   0.493  1.4250 -0.7602  0.8377
   41MOL0     O 5523  11.259   4.443   0.601  0.1368 -1.2424 -0.2190
   41MOL0     C 5524  11.125   4.424   0.588  1.0241  0.6693  0.4926
   41MOL0     C 5525  11.060   4.306   0.565 -0.2434  0.1868  1.2473
   41MOL0     C 5526  10.920   4.292   0.555  0.2047 -0.7617  0.0674
   41MOL0     C 5527  10.847   4.408   0.567 -0.1217  0.0901  0.3036
   41MOL0     O 5528  10.711   4.388   0.557  0.0815  0.0789 -0.8209
   41MOL0     C 5529  10.626   4.490   0.607 -0.1055 -0.0472 -0.4336
   41MOL0     C 5530  10.481   4.465   0.549  0.5292 -0.6008  0.6814
   41MOL0     C 5531  10.490   4.439   0.397 -0.0076 -0.7479 -0.1131
   41MOL0     C 5532  10.347   4.447   0.334 -0.1511 -0.1421 -1.3006
   41MOL0     C 5533  10.356   4.425   0.187 -0.4020  0.8100 -0.3936
   41MOL0     C 5534  10.222   4.391   0.125 -0.1144 -0.1990 -0.3915
   41MOL0     C 5535  10.232   4.390  -0.029  0.1544 -0.4269  0.4811
   41MOL0     C 5536  10.291   4.262  -0.095  0.6900  0.7529 -0.4000
   41MOL0     N 5537  10.186   4.165  -0.079 -0.1333  0.1172 -0.6528
   41MOL0     C 5538  10.089   4.145  -0.170  0.3452 -1.5377 -0.1468
   41MOL0     C 5539  10.001   4.059  -0.120 -0.3590  0.9488 -0.6112
   41MOL0     C 5540   9.866   4.030  -0.177  0.5761  0.1926 -0.2837
   41MOL0     C 5541   9.864   3.939  -0.303  0.0255  0.2535  0.6475
   41MOL0     C 5542   9.723   3.889  -0.328 -0.5152  1.0007 -0.4271
   41MOL0     C 5543   9.709   3.785  -0.441 -0.0868 -0.2603  0.4075
   41MOL0     O 5544   9.750   3.652  -0.404 -0.3408 -0.2882 -0.0859
   41MOL0     C 5545   9.653   3.564  -0.364 -0.5374 -0.0566 -0.5875
   41MOL0     C 5546   9.533   3.584  -0.323 -0.2905  0.3401  0.0052
   41MOL0     C 5547   9.443   3.477  -0.293  0.0080  0.5905 -0.9357
   41MOL0     C 5548   9.302   3.518  -0.265 -0.0626  0.1350 -1.3490
   41MOL0     C 5549   9.493   3.345  -0.282 -0.2424 -0.2275 -0.1834
   41MOL0     C 5550   9.415   3.229  -0.232  0.0192 -0.5664 -0.2612
   41MOL0     O 5551   9.446   3.109  -0.285  0.0582  0.4108  0.4318
   41MOL0     C 5552   9.375   2.992  -0.251  0.2946  0.6119 -0.6139
   41MOL0     C 5553   9.328   2.971  -0.125 -0.1566  0.9481 -1.2727
   41MOL0     C 5554   9.259   2.853  -0.099 -0.8227  0.2137 -0.2344
   41MOL0     C 5555   9.256   2.746  -0.191 -0.0113 -0.6493  0.4160
   41MOL0     O 5556   9.204   2.622  -0.168  0.0278  0.9382  0.6873
   41MOL0     C 5557   9.224   2.561  -0.040  0.2606 -0.8865  0.4485
   41MOL0     C 5558   9.090   2.574   0.044  0.9542  0.0455 -0.1769
   41MOL0     C 5559   8.955   2.556  -0.028 -0.4393  0.2766  0.4639
   41MOL0     C 5560   8.936   2.412  -0.066  0.4187  0.0617 -0.1590
   41MOL0     C 5561   8.807   2.397  -0.147  0.2983 -0.6503 -0.3902
   41MOL0     C 5562   8.799   2.254  -0.190 -0.4137 -0.0481 -0.1561
   41MOL0     C 5563   8.648   2.222  -0.197 -0.9691  0.1197  0.2250
   41MOL0     C 5564   8.618   2.146  -0.331  0.6071 -1.1002 -0.5036
   41MOL0    Cl 5565   8.456   2.142  -0.369  0.2065 -0.7237  0.6860
   41MOL0     C 5566   9.297   2.768  -0.322 -0.2329  0.3189  0.2496
   41MOL0     C 5567   9.354   2.893  -0.350  0.1268  0.5430  0.1016
   41MOL0     O 5568   9.320   3.253  -0.158  0.7050  0.5383 -0.1594
   41MOL0     C 5569   9.629   3.314  -0.332 -0.5801 -0.9616 -0.0316
   41MOL0     C 5570   9.701   3.427  -0.374 -0.0438 -0.6425 -0.2590
   41MOL0     N 5571  10.058   4.015   0.002 -0.8870  0.6823  0.0304
   41MOL0     N 5572  10.171   4.078   0.030 -0.6318 -0.5771 -0.3660
   41MOL0     C 5573  10.907   4.534   0.578  0.3219 -0.9055 -0.4778
   41MOL0     C 5574  11.041   4.539   0.600 -0.0423  0.2544  0.3907
   41MOL0     C 5575  11.465   4.526   0.512 -0.1074 -0.0919 -0.2119
   41MOL0     C 5576  11.500   4.634   0.583 -0.0821 -0.7292  0.1066
   41MOL0     C 5577  11.639   4.669   0.581  0.1919 -1.3063  0.0350
   41MOL0     C 5578  11.739   4.591   0.516  1.0024  0.8725  0.7020
   41MOL0     O 5579  11.872   4.617   0.504  0.0340 -0.1808  0.1764
   41MOL0     C 5580  11.928   4.716   0.592 -0.1553 -0.6520 -0.3433
   41MOL0     C 5581  12.059   4.667   0.647 -0.3759 -0.5593  0.4452
   41MOL0     C 5582  12.144   4.775   0.713  0.0180 -0.8346 -0.6983
   41MOL0     C 5583  12.290   4.746   0.749 -0.1920 -0.1064 -0.1817
   41MOL0     C 5584  12.345   4.829   0.855 -0.4067  0.7082 -0.1669
   41MOL0     C 5585  12.394   4.874   0.960 -0.0105 -0.5277  0.4219
   41MOL0     C 5586  11.696   4.473   0.457 -0.6012  1.6697 -0.3438
   41MOL0     C 5587  11.561   4.440   0.463 -0.2075  0.4116  1.3081
   41MOL0     C 5588  11.517   4.317   0.394  0.1914  0.3677 -0.1287
   41MOL0     H 5589  11.123   4.221   0.540  0.7668  0.1156  3.7816
   41MOL0     H 5590  10.862   4.202   0.538 -0.5524 -0.1888 -0.4464
   41MOL0     H 5591  10.648   4.588   0.564  0.0146 -1.0585 -2.8453
   41MOL0     H 5592  10.619   4.491   0.716 -1.5584 -2.3110 -0.4350
   41MOL0     H 5593  10.431   4.380   0.597 -3.3225  0.0737 -1.6705
   41MOL0     H 5594  10.425   4.553   0.580  0.4037 -0.5629  0.3573
   41MOL0     H 5595  10.556   4.515   0.353 -0.2656 -0.1266  0.5557
   41MOL0     H 5596  10.540   4.343   0.381  0.5619 -0.4526 -0.1315
   41MOL0     H 5597  10.292   4.375   0.396 -1.2020  3.4653  2.3597
   41MOL0     H 5598  10.301   4.546   0.337  3.0256  1.5095 -2.8270
   41MOL0     H 5599  10.410   4.333   0.166 -0.9852  0.0068  1.3928
   41MOL0     H 5600  10.405   4.514   0.146  1.5543 -1.4461 -3.2837
   41MOL0     H 5601  10.177   4.299   0.164 -2.6818  2.0182  2.3742
   41MOL0     H 5602  10.163   4.477   0.160 -1.3932  0.1264 -3.0573
   41MOL0     H 5603  10.296   4.475  -0.057 -0.4866  0.3206  1.2150
   41MOL0     H 5604  10.130   4.392  -0.067 -0.1092 -3.3093  0.8420
   41MOL0     H 5605  10.310   4.270  -0.202 -2.4114 -0.5006 -1.1439
   41MOL0     H 5606  10.387   4.232  -0.051  0.8559  0.9650 -0.6182
   41MOL0     H 5607  10.070   4.192  -0.266 -1.6088 -0.9171  0.5056
   41MOL0     H 5608   9.820   4.124  -0.209 -0.4906 -0.4730 -0.7806
   41MOL0     H 5609   9.801   3.992  -0.098 -2.2225  0.6936 -2.2079
   41MOL0     H 5610   9.911   3.987  -0.390  1.6340 -0.1677  1.2691
   41MOL0     H 5611   9.918   3.845  -0.294 -2.0756 -0.9639  1.2148
   41MOL0     H 5612   9.689   3.838  -0.237 -1.3740 -2.2703 -2.4068
   41MOL0     H 5613   9.661   3.977  -0.347  0.2095  1.3629 -1.2256
   41MOL0     H 5614   9.607   3.778  -0.479 -0.4519 -2.5403  1.6264
   41MOL0     H 5615   9.767   3.828  -0.523 -2.8575  2.7532 -0.1950
   41MOL0     H 5616   9.497   3.686  -0.318  2.3661  1.3822 -0.3746
   41MOL0     H 5617   9.284   3.626  -0.265 -0.1874  0.1354  0.6025
   41MOL0     H 5618   9.269   3.500  -0.163  0.1824 -0.3418 -1.3493
   41MOL0     H 5619   9.240   3.466  -0.339  0.8728 -1.4327 -1.0744
   41MOL0     H 5620   9.353   3.047  -0.052  2.1309  1.4079 -2.4674
   41MOL0     H 5621   9.227   2.845   0.005 -1.8620 -0.2459 -0.5838
   41MOL0     H 5622   9.234   2.453  -0.056 -2.7501 -1.0665 -0.8287
   41MOL0     H 5623   9.309   2.596   0.019 -2.3227  0.2351  3.8303
   41MOL0     H 5624   9.089   2.497   0.123 -1.2063  1.0763  0.8899
   41MOL0     H 5625   9.084   2.667   0.100  0.0850  1.6628 -2.7937
   41MOL0     H 5626   8.939   2.627  -0.110 -0.9007 -1.8880 -1.3914
   41MOL0     H 5627   8.877   2.579   0.046  1.6887  0.8869  2.6606
   41MOL0     H 5628   8.940   2.357   0.028  1.7148 -2.0336 -1.3308
   41MOL0     H 5629   9.022   2.377  -0.125 -0.0418 -0.3646 -0.5824
   41MOL0     H 5630   8.719   2.426  -0.088  1.0024 -1.3715  1.0893
   41MOL0     H 5631   8.813   2.464  -0.233  1.7161  1.5076  1.2651
   41MOL0     H 5632   8.838   2.190  -0.110  1.3381 -2.3478 -2.6656
   41MOL0     H 5633   8.857   2.227  -0.278 -2.1056  0.1764 -1.3744
   41MOL0     H 5634   8.583   2.310  -0.194 -3.0126 -1.3060  0.3176
   41MOL0     H 5635   8.609   2.161  -0.115 -2.5174  0.9749  0.1670
   41MOL0     H 5636   8.663   2.046  -0.327 -1.6386 -2.1471  0.2406
   41MOL0     H 5637   8.659   2.199  -0.417  0.8086 -0.4126  0.0029
   41MOL0     H 5638   9.300   2.686  -0.392  1.1491  0.6014 -0.0473
   41MOL0     H 5639   9.385   2.915  -0.451  0.2066 -0.6441 -0.1468
   41MOL0     H 5640   9.686   3.222  -0.334  1.8614  0.4346  1.3775
   41MOL0     H 5641   9.804   3.408  -0.402 -0.1776 -0.1382 -1.1215
   41MOL0     H 5642  10.847   4.624   0.583 -2.0475 -2.4421  2.2801
   41MOL0     H 5643  11.086   4.635   0.624  0.3099  0.6413 -1.6350
   41MOL0     H 5644  11.427   4.697   0.633 -0.7181  0.4863 -2.2257
   41MOL0     H 5645  11.662   4.763   0.631  3.8930 -2.0784  0.1041
   41MOL0     H 5646  11.950   4.799   0.525 -0.2049  1.0676  1.6902
   41MOL0     H 5647  11.866   4.755   0.673 -2.2274  2.2799 -3.0838
   41MOL0     H 5648  12.115   4.619   0.567 -0.1988  2.2810 -1.2888
   41MOL0     H 5649  12.041   4.597   0.729  4.0434 -0.8895  1.4220
   41MOL0     H 5650  12.130   4.857   0.643  1.1035 -0.9625 -1.0809
   41MOL0     H 5651  12.095   4.804   0.806  0.9113  0.0011 -0.4755
   41MOL0     H 5652  12.355   4.752   0.661  0.4556 -0.8861  0.2340
   41MOL0     H 5653  12.288   4.644   0.790  0.2181 -0.0731 -0.0853
   41MOL0     H 5654  12.438   4.913   1.049  0.2670 -1.4327  0.6891
   41MOL0     H 5655  11.744   4.403   0.390 -1.5960  1.1318 -0.5126
   41MOL0     H 5656  11.429   4.274   0.442  1.2038 -0.4113  1.1213
   41MOL0     H 5657  11.498   4.332   0.287  2.1058  1.7527 -0.3213
   41MOL0     H 5658  11.590   4.235   0.406  2.2813  1.8650 -1.8759
   42MOL0     O 5659   8.626   5.683   7.379  0.3405  0.4011 -0.0348
   42MOL0     C 5660   8.580   5.801   7.380  0.3724  0.8862  0.1349
   42MOL0     O 5661   8.538   5.858   7.266  0.2272 -0.3800 -0.6426
   42MOL0     C 5662   8.554   5.790   7.146  0.9493  0.0577 -0.0478
   42MOL0     C 5663   8.677   5.777   7.073  0.3951  1.2032  0.3343
   42MOL0     C 5664   8.671   5.713   6.950 -0.0721 -0.8648  0.5133
   42MOL0     C 5665   8.547   5.674   6.893 -0.8203  0.0226 -0.6993
   42MOL0     O 5666   8.547   5.621   6.768 -0.0261 -0.3510 -0.6090
   42MOL0     C 5667   8.438   5.565   6.700  0.8680 -0.0210  0.0005
   42MOL0     C 5668   8.489   5.571   6.556  0.4231 -1.0989  0.9830
   42MOL0     C 5669   8.407   5.500   6.443 -0.3824 -0.8288 -1.0934
   42MOL0     C 5670   8.320   5.589   6.353 -0.8002  0.4546  0.2603
   42MOL0     C 5671   8.232   5.498   6.277  0.2279  0.3790 -0.8128
   42MOL0     C 5672   8.198   5.537   6.135 -0.9110  0.4085  0.0935
   42MOL0     C 5673   8.121   5.678   6.127 -0.9897 -0.1195  0.5008
   42MOL0     C 5674   8.074   5.701   5.990  0.0168 -0.4772  0.0965
   42MOL0     N 5675   8.001   5.829   5.963 -0.2213 -0.1077 -1.3407
   42MOL0     C 5676   8.048   5.936   5.893  0.3160  0.0789  0.4290
   42MOL0     C 5677   7.940   6.005   5.855  0.1734  0.1762 -0.3625
   42MOL0     C 5678   7.926   6.139   5.779  0.4780  0.9400  0.2475
   42MOL0     C 5679   7.886   6.098   5.630  0.4495  0.3470 -0.0739
   42MOL0     C 5680   7.735   6.063   5.622  0.9317 -0.3290  0.0718
   42MOL0     C 5681   7.688   6.028   5.483  0.1101 -0.9160  0.3505
   42MOL0     O 5682   7.760   5.918   5.439  0.4807 -0.3782 -0.1720
   42MOL0     C 5683   7.746   5.876   5.308 -0.3085  0.0168 -0.3874
   42MOL0     C 5684   7.628   5.881   5.227 -1.2636  0.3471  0.0808
   42MOL0     C 5685   7.634   5.841   5.089  1.0295 -0.1854  0.5987
   42MOL0     C 5686   7.506   5.867   4.999 -0.4367 -0.3658 -0.3827
   42MOL0     C 5687   7.752   5.786   5.029 -0.7563 -1.1874 -0.8203
   42MOL0     C 5688   7.758   5.743   4.884  0.1093 -0.0133 -0.6575
   42MOL0     O 5689   7.682   5.799   4.792 -0.6502  0.1155  0.5930
   42MOL0     C 5690   7.641   5.745   4.670  0.9888  0.0927 -0.3005
   42MOL0     C 5691   7.660   5.613   4.620 -0.6958  0.0730  0.0209
   42MOL0     C 5692   7.603   5.575   4.498 -0.3483 -0.4828  0.2052
   42MOL0     C 5693   7.516   5.661   4.434 -0.4648  0.7597 -0.3067
   42MOL0     O 5694   7.468   5.617   4.310 -0.0468  0.1486 -0.2107
   42MOL0     C 5695   7.320   5.580   4.303 -0.9754 -0.5515 -0.7537
   42MOL0     C 5696   7.237   5.691   4.235  0.6107 -0.8441  0.1083
   42MOL0     C 5697   7.088   5.643   4.217 -1.1656  0.4393 -0.0999
   42MOL0     C 5698   7.070   5.512   4.129  0.4617 -0.4965  0.2869
   42MOL0     C 5699   6.932   5.498   4.066 -0.5419 -0.0627 -0.1215
   42MOL0     C 5700   6.831   5.456   4.176 -0.6050 -0.0936  0.4119
   42MOL0     C 5701   6.696   5.520   4.134  0.1583 -0.5729 -0.1448
   42MOL0     C 5702   6.632   5.467   4.008 -0.3444  0.8166  0.4933
   42MOL0    Cl 5703   6.454   5.493   3.993 -0.5540  0.2714  0.2532
   42MOL0     C 5704   7.472   5.781   4.495 -0.2189  0.1016  0.2219
   42MOL0     C 5705   7.539   5.825   4.609  0.6843  0.2128  0.6656
   42MOL0     O 5706   7.843   5.653   4.861 -0.1452  0.2770  0.0362
   42MOL0     C 5707   7.861   5.774   5.119 -2.1167 -0.4425  1.0557
   42MOL0     C 5708   7.859   5.824   5.245  0.2642  0.4918  0.8467
   42MOL0     N 5709   7.831   5.940   5.918 -0.9604  0.2090 -0.4806
   42MOL0     N 5710   7.873   5.840   5.990 -0.5540 -0.4889 -0.3046
   42MOL0     C 5711   8.428   5.707   6.963 -0.0722  0.4019  0.5518
   42MOL0     C 5712   8.430   5.761   7.090  0.3770  0.1039  0.2808
   42MOL0     C 5713   8.574   5.866   7.517  0.2143 -0.5896 -0.9568
   42MOL0     C 5714   8.483   5.975   7.529 -0.6030  0.3768 -0.1490
   42MOL0     C 5715   8.477   6.056   7.638 -0.4801  0.0703  0.6718
   42MOL0     C 5716   8.566   6.031   7.752 -0.0835 -0.2608  0.6275
   42MOL0     O 5717   8.560   6.086   7.873 -0.6261 -0.0128 -0.6894
   42MOL0     C 5718   8.444   6.139   7.925 -0.2387  0.4968  0.9675
   42MOL0     C 5719   8.445   6.289   7.911  0.3501 -0.5599 -0.1573
   42MOL0     C 5720   8.560   6.349   7.995  1.2567  0.2122 -0.5224
   42MOL0     C 5721   8.586   6.510   8.013 -0.6780  0.4179 -0.9755
   42MOL0     C 5722   8.490   6.580   8.097  0.5477 -0.2060 -0.3513
   42MOL0     C 5723   8.405   6.638   8.163 -0.3849 -0.8309 -0.7295
   42MOL0     C 5724   8.665   5.938   7.735  0.2856  0.8742  0.2607
   42MOL0     C 5725   8.663   5.849   7.621 -0.4105 -0.5924 -0.6899
   42MOL0     C 5726   8.761   5.732   7.622 -0.4329 -0.2994 -0.7060
   42MOL0     H 5727   8.769   5.811   7.119  0.4103  2.1159 -0.3481
   42MOL0     H 5728   8.762   5.695   6.894 -0.8092 -0.6476 -0.8068
   42MOL0     H 5729   8.347   5.625   6.712 -1.2941 -3.4707  3.4982
   42MOL0     H 5730   8.409   5.467   6.740 -1.2359  0.4598 -0.2176
   42MOL0     H 5731   8.492   5.678   6.531  1.9479 -1.5543 -1.0073
   42MOL0     H 5732   8.590   5.530   6.546 -0.1969 -2.0616 -3.4180
   42MOL0     H 5733   8.454   5.423   6.380 -3.8506 -2.4516 -1.9222
   42MOL0     H 5734   8.343   5.433   6.501  1.2037 -3.1419 -1.8538
   42MOL0     H 5735   8.260   5.665   6.404 -1.7732 -0.6275  0.7762
   42MOL0     H 5736   8.402   5.632   6.295  0.3237  0.2101  1.5849
   42MOL0     H 5737   8.142   5.473   6.333  0.9046 -0.9967 -0.3029
   42MOL0     H 5738   8.289   5.405   6.263  1.8369  0.9558  1.2992
   42MOL0     H 5739   8.291   5.539   6.079 -1.0848  1.1733 -0.1699
   42MOL0     H 5740   8.132   5.464   6.087 -1.8790  2.3164 -1.6195
   42MOL0     H 5741   8.187   5.761   6.154 -0.3457  0.1266 -1.6146
   42MOL0     H 5742   8.034   5.675   6.193 -1.2226 -0.9060  0.1749
   42MOL0     H 5743   8.161   5.703   5.923  0.7605 -0.7079  1.0306
   42MOL0     H 5744   8.013   5.613   5.969  1.6099 -1.6761  0.2544
   42MOL0     H 5745   8.153   5.956   5.872 -0.5045  1.6566 -2.9309
   42MOL0     H 5746   8.016   6.201   5.785  0.7237  0.7276 -0.9167
   42MOL0     H 5747   7.851   6.209   5.816 -0.0686  0.7707 -0.5122
   42MOL0     H 5748   7.908   6.182   5.564  2.3052 -0.1448 -0.1304
   42MOL0     H 5749   7.952   6.020   5.591  0.3408  0.4918 -0.5512
   42MOL0     H 5750   7.712   5.980   5.690 -0.3849 -1.2736 -1.4374
   42MOL0     H 5751   7.670   6.145   5.652  0.1414 -1.1942  0.8144
   42MOL0     H 5752   7.580   6.010   5.493 -0.1805  0.5926  0.1673
   42MOL0     H 5753   7.700   6.114   5.417  2.0713 -0.5902  1.0809
   42MOL0     H 5754   7.535   5.921   5.265 -1.9003  0.4866 -1.5585
   42MOL0     H 5755   7.431   5.908   5.066  1.5306 -0.0338  1.7566
   42MOL0     H 5756   7.473   5.775   4.951  0.2977  0.4849 -2.6802
   42MOL0     H 5757   7.523   5.931   4.912  0.0591  0.7373  0.4951
   42MOL0     H 5758   7.736   5.557   4.674 -0.9570  0.9736  1.4000
   42MOL0     H 5759   7.635   5.492   4.436  0.9843 -0.7692  1.2148
   42MOL0     H 5760   7.312   5.490   4.242 -0.5838 -1.1231  0.0227
   42MOL0     H 5761   7.279   5.547   4.399  0.5354 -0.4607 -0.0358
   42MOL0     H 5762   7.235   5.775   4.306 -2.0752  0.0377 -0.8980
   42MOL0     H 5763   7.273   5.715   4.135 -0.9392  2.7845  0.2473
   42MOL0     H 5764   7.042   5.725   4.161 -0.0118  0.5395 -0.9446
   42MOL0     H 5765   7.048   5.626   4.318  1.9196 -3.7722  0.7046
   42MOL0     H 5766   7.101   5.422   4.183 -0.2805 -0.0446  1.5130
   42MOL0     H 5767   7.146   5.526   4.051  2.1640  0.1465  1.9667
   42MOL0     H 5768   6.914   5.592   4.013 -0.0406  0.8929  1.3395
   42MOL0     H 5769   6.934   5.417   3.992  0.9313 -0.6643  0.5342
   42MOL0     H 5770   6.873   5.476   4.275  1.3692 -0.1261 -0.3727
   42MOL0     H 5771   6.808   5.349   4.174 -2.5250  0.2666  1.1991
   42MOL0     H 5772   6.714   5.627   4.130 -0.0854 -0.4586  1.2629
   42MOL0     H 5773   6.622   5.501   4.213  0.0484  2.0926  0.4727
   42MOL0     H 5774   6.652   5.359   4.006  2.6355  1.3031 -0.4154
   42MOL0     H 5775   6.681   5.499   3.916  0.9816 -1.0531  0.4880
   42MOL0     H 5776   7.392   5.841   4.451 -2.2208 -2.6250 -0.1428
   42MOL0     H 5777   7.514   5.916   4.662 -0.3356  0.5728 -0.3882
   42MOL0     H 5778   7.952   5.726   5.083 -0.0397  2.6771  1.6918
   42MOL0     H 5779   7.950   5.811   5.303  0.7095  0.4216  0.1475
   42MOL0     H 5780   8.339   5.687   6.905  0.0823  1.9067 -0.2541
   42MOL0     H 5781   8.347   5.757   7.160  0.3038 -0.5373  0.1665
   42MOL0     H 5782   8.419   5.993   7.444 -3.9430 -2.4070  1.5397
   42MOL0     H 5783   8.410   6.142   7.636 -0.3239  0.1813  0.0017
   42MOL0     H 5784   8.356   6.103   7.872  0.9232  1.1827 -1.5796
   42MOL0     H 5785   8.438   6.104   8.029  2.1180 -1.1878  0.6110
   42MOL0     H 5786   8.355   6.327   7.960  1.8927  0.6153  1.9333
   42MOL0     H 5787   8.450   6.315   7.805  0.1771  1.2576  0.2495
   42MOL0     H 5788   8.559   6.291   8.087  2.1961 -0.3138 -0.8226
   42MOL0     H 5789   8.657   6.310   7.963  2.4733  0.7006  2.2324
   42MOL0     H 5790   8.594   6.561   7.917  0.5908 -0.5677 -1.4396
   42MOL0     H 5791   8.678   6.521   8.072 -1.1303 -0.3781 -0.0901
   42MOL0     H 5792   8.343   6.706   8.219  0.5903  0.1096 -0.7578
   42MOL0     H 5793   8.739   5.928   7.814  0.4367  2.6050  0.3661
   42MOL0     H 5794   8.837   5.726   7.700  2.2969 -4.7731 -3.2627
   42MOL0     H 5795   8.694   5.646   7.622 -0.6600 -0.1475 -1.8201
   42MOL0     H 5796   8.810   5.726   7.524 -1.5641  2.3280 -1.5255
   43MOL0     O 5797   5.103   2.837   4.105 -0.4978 -0.2624 -0.1580
   43MOL0     C 5798   4.988   2.870   4.082 -0.1766  0.1343 -0.4638
   43MOL0     O 5799   4.925   2.975   4.146 -0.0823 -0.0718  0.1046
   43MOL0     C 5800   5.011   3.062   4.214  0.8859 -1.1382 -0.8197
   43MOL0     C 5801   5.063   3.027   4.340 -0.2267 -0.1084  0.0155
   43MOL0     C 5802   5.139   3.109   4.416  0.2121 -0.4604  1.1409
   43MOL0     C 5803   5.188   3.227   4.354  0.5450  0.7802  0.4462
   43MOL0     O 5804   5.263   3.311   4.429 -0.1790  0.0365  0.1730
   43MOL0     C 5805   5.217   3.447   4.443  0.6856  0.3114 -0.3017
   43MOL0     C 5806   5.213   3.486   4.597  0.0904  0.3380 -1.0456
   43MOL0     C 5807   5.136   3.380   4.689 -0.6280 -0.3431  0.5989
   43MOL0     C 5808   4.979   3.374   4.667  0.2607 -0.9760  0.4526
   43MOL0     C 5809   4.920   3.315   4.799 -0.6800  0.0459 -0.4813
   43MOL0     C 5810   4.776   3.255   4.782 -0.5072  0.0958  0.2144
   43MOL0     C 5811   4.727   3.173   4.901  0.3407 -0.2127  0.1970
   43MOL0     C 5812   4.705   3.257   5.021  0.0405  0.7540  0.4292
   43MOL0     N 5813   4.638   3.162   5.117 -0.1799  0.0603  0.3712
   43MOL0     C 5814   4.501   3.163   5.153 -0.2503 -0.6169  0.2703
   43MOL0     C 5815   4.483   3.041   5.215 -1.2077 -0.2830 -0.8649
   43MOL0     C 5816   4.354   2.987   5.274 -0.4742 -0.2723 -0.7026
   43MOL0     C 5817   4.352   3.043   5.417 -0.1123 -0.3938  0.2164
   43MOL0     C 5818   4.266   3.172   5.424 -0.7631  0.5238 -0.6348
   43MOL0     C 5819   4.297   3.232   5.568 -0.8008  0.0915  0.4281
   43MOL0     O 5820   4.313   3.377   5.549  0.1026  0.4778 -0.6347
   43MOL0     C 5821   4.436   3.411   5.496 -0.8940  0.6024  0.1584
   43MOL0     C 5822   4.556   3.339   5.512  0.2685  0.6959 -0.1936
   43MOL0     C 5823   4.680   3.371   5.452  0.7712  0.3011 -0.2132
   43MOL0     C 5824   4.802   3.291   5.495 -0.6692  0.4178 -0.1081
   43MOL0     C 5825   4.688   3.484   5.368 -0.6778 -0.3752 -0.5590
   43MOL0     C 5826   4.809   3.522   5.295 -0.1927  0.3211 -1.0440
   43MOL0     O 5827   4.832   3.652   5.271  0.6624  0.1783  0.2225
   43MOL0     C 5828   4.943   3.693   5.198  0.0318 -0.4683  0.0776
   43MOL0     C 5829   5.073   3.640   5.212  0.1464 -0.8181 -0.2777
   43MOL0     C 5830   5.178   3.665   5.116  0.0487 -0.5219  0.3176
   43MOL0     C 5831   5.159   3.760   5.013  1.9070 -1.1520 -1.2857
   43MOL0     O 5832   5.262   3.784   4.931 -0.2179  0.1249  0.2803
   43MOL0     C 5833   5.247   3.897   4.840 -0.1864  0.2231 -0.7214
   43MOL0     C 5834   5.371   3.905   4.744 -0.3343 -0.3462  0.3453
   43MOL0     C 5835   5.509   3.922   4.822  0.4093 -0.2354 -0.5049
   43MOL0     C 5836   5.609   3.934   4.711  2.0389 -0.0657  0.3263
   43MOL0     C 5837   5.740   3.976   4.772 -0.4832  0.3315 -0.3066
   43MOL0     C 5838   5.742   4.123   4.816  0.5540  1.1018  0.2036
   43MOL0     C 5839   5.877   4.173   4.849 -0.3292  0.3759 -0.8121
   43MOL0     C 5840   5.879   4.231   4.991 -0.5339  0.8588 -0.9526
   43MOL0    Cl 5841   5.867   4.113   5.129  0.3723  0.3745 -0.3290
   43MOL0     C 5842   5.027   3.823   5.003 -0.1224  0.0980  0.0178
   43MOL0     C 5843   4.928   3.791   5.094 -0.4143  1.0817  0.3650
   43MOL0     O 5844   4.871   3.428   5.250 -0.5814 -0.7270  0.5432
   43MOL0     C 5845   4.572   3.565   5.366  0.0186  0.2008 -0.1463
   43MOL0     C 5846   4.453   3.527   5.436  0.7331 -0.7260  0.2054
   43MOL0     N 5847   4.603   2.966   5.205 -0.3372 -0.1973 -0.1421
   43MOL0     N 5848   4.692   3.043   5.152 -0.0538 -0.1364 -0.0314
   43MOL0     C 5849   5.141   3.267   4.229  0.5635  0.5637  0.6097
   43MOL0     C 5850   5.052   3.183   4.159 -0.1939  0.2340 -0.0126
   43MOL0     C 5851   4.929   2.802   3.966 -0.3891  0.5006  0.3293
   43MOL0     C 5852   4.828   2.713   3.999 -0.6825 -1.0114 -0.4154
   43MOL0     C 5853   4.759   2.648   3.903  0.8505  0.2397 -0.0270
   43MOL0     C 5854   4.780   2.668   3.767 -0.7989 -0.8202 -0.3412
   43MOL0     O 5855   4.705   2.596   3.679 -0.1020 -0.4990  0.6385
   43MOL0     C 5856   4.717   2.611   3.537 -0.2226  1.5020  1.5639
   43MOL0     C 5857   4.617   2.721   3.487 -0.3827 -0.3631 -0.6790
   43MOL0     C 5858   4.465   2.691   3.528 -0.1171 -0.6214 -0.2483
   43MOL0     C 5859   4.362   2.810   3.488 -0.4262  0.6437 -0.4544
   43MOL0     C 5860   4.342   2.842   3.347  0.5832  0.2083  0.0226
   43MOL0     C 5861   4.303   2.877   3.234 -0.0765 -1.0087 -0.0234
   43MOL0     C 5862   4.882   2.764   3.731  0.0555 -0.1915 -0.6283
   43MOL0     C 5863   4.960   2.829   3.832 -0.3389 -0.4023  0.5267
   43MOL0     C 5864   5.060   2.936   3.782 -0.6102  0.2525  0.0674
   43MOL0     H 5865   5.036   2.928   4.375 -1.4936 -0.1123 -0.9114
   43MOL0     H 5866   5.164   3.089   4.519  0.6950 -0.9249  0.9375
   43MOL0     H 5867   5.114   3.452   4.405  0.9735  1.7200 -0.9877
   43MOL0     H 5868   5.283   3.517   4.391  1.3724  0.7726  1.1317
   43MOL0     H 5869   5.315   3.510   4.627  0.0532 -0.5777 -0.1273
   43MOL0     H 5870   5.163   3.583   4.605  0.8745  0.6808 -0.0977
   43MOL0     H 5871   5.178   3.280   4.668  2.3465  0.7265  0.9547
   43MOL0     H 5872   5.167   3.407   4.790  1.4823  1.3200 -0.4290
   43MOL0     H 5873   4.942   3.476   4.647 -0.6283 -0.6632  3.2871
   43MOL0     H 5874   4.957   3.306   4.584  1.7160 -3.2830  1.8415
   43MOL0     H 5875   4.907   3.395   4.872  1.4160 -0.5159  0.5981
   43MOL0     H 5876   4.995   3.244   4.835 -2.2649 -0.2300  2.5371
   43MOL0     H 5877   4.706   3.336   4.761 -0.0191  0.0587 -1.6587
   43MOL0     H 5878   4.788   3.189   4.696  3.1688  0.2521  0.4211
   43MOL0     H 5879   4.800   3.098   4.933 -1.9005 -1.3926  2.9711
   43MOL0     H 5880   4.635   3.120   4.875  1.0637 -1.1860 -0.4219
   43MOL0     H 5881   4.801   3.291   5.060  0.8754  1.2151 -1.8854
   43MOL0     H 5882   4.641   3.345   5.007 -1.7894 -0.2575  1.9597
   43MOL0     H 5883   4.434   3.242   5.121  0.8888 -0.9831 -3.4508
   43MOL0     H 5884   4.368   2.878   5.272 -1.3652 -0.4277  0.4401
   43MOL0     H 5885   4.274   3.014   5.205  1.9208  1.2251 -3.0734
   43MOL0     H 5886   4.317   2.962   5.482 -2.3239  0.7804  0.6040
   43MOL0     H 5887   4.457   3.065   5.442 -0.6089  3.6385 -0.4898
   43MOL0     H 5888   4.306   3.233   5.343 -1.3865  2.0742  0.1839
   43MOL0     H 5889   4.159   3.154   5.409 -1.1419 -0.5883  2.5788
   43MOL0     H 5890   4.210   3.215   5.633  0.9876 -3.0317  2.2680
   43MOL0     H 5891   4.378   3.180   5.620 -1.7832  0.2845  2.2485
   43MOL0     H 5892   4.572   3.251   5.574 -1.0977 -0.0016 -0.7785
   43MOL0     H 5893   4.823   3.274   5.600  1.0280  1.1867 -0.2855
   43MOL0     H 5894   4.895   3.342   5.470  1.1237 -0.7440  3.5128
   43MOL0     H 5895   4.806   3.195   5.443  0.9791  1.2209 -1.5860
   43MOL0     H 5896   5.083   3.561   5.285  1.5169 -1.9651 -1.6348
   43MOL0     H 5897   5.278   3.625   5.127  2.5507  5.1241  1.4444
   43MOL0     H 5898   5.152   3.871   4.792 -2.5553 -0.0688  3.6214
   43MOL0     H 5899   5.222   3.994   4.883  0.6014 -0.8081  2.3113
   43MOL0     H 5900   5.371   3.817   4.679 -3.8322  0.2973 -0.7190
   43MOL0     H 5901   5.351   3.994   4.684  0.3711  0.4459  1.2491
   43MOL0     H 5902   5.536   3.841   4.889 -0.1078  0.0873  0.1041
   43MOL0     H 5903   5.492   4.014   4.878  1.9371 -0.6785  0.7628
   43MOL0     H 5904   5.579   4.014   4.643  3.2414 -0.0832 -0.2635
   43MOL0     H 5905   5.628   3.841   4.656  1.5840 -0.4028  0.7324
   43MOL0     H 5906   5.762   3.902   4.849 -1.4993 -0.2834 -0.5774
   43MOL0     H 5907   5.819   3.982   4.696  0.9017  2.5296  1.1922
   43MOL0     H 5908   5.690   4.115   4.911  0.5565 -6.0959  0.1478
   43MOL0     H 5909   5.689   4.185   4.744  1.0188 -1.1833 -2.2737
   43MOL0     H 5910   5.889   4.252   4.774 -2.3958  0.4275 -1.1400
   43MOL0     H 5911   5.951   4.093   4.835 -2.0379 -1.7285  1.3901
   43MOL0     H 5912   5.809   4.313   5.008  0.8765  1.9010  0.1153
   43MOL0     H 5913   5.974   4.286   4.999 -1.6786  2.7270  0.5307
   43MOL0     H 5914   4.996   3.884   4.919  1.5850  1.5770  0.3909
   43MOL0     H 5915   4.833   3.840   5.077 -1.1392 -0.3746  0.1304
   43MOL0     H 5916   4.566   3.649   5.297  1.5333 -0.1034 -0.6926
   43MOL0     H 5917   4.363   3.585   5.421 -0.0751 -2.3385 -1.5674
   43MOL0     H 5918   5.180   3.353   4.176 -0.0641  0.0199 -0.7635
   43MOL0     H 5919   5.021   3.205   4.057 -0.7358 -1.0161 -0.1419
   43MOL0     H 5920   4.813   2.696   4.105  4.6501  2.1232  1.2556
   43MOL0     H 5921   4.705   2.559   3.931  3.5463 -1.0341  1.5567
   43MOL0     H 5922   4.818   2.637   3.505 -0.2232  1.2642  1.3636
   43MOL0     H 5923   4.689   2.522   3.479 -1.7242  0.4202  3.8123
   43MOL0     H 5924   4.608   2.727   3.378 -0.8091 -0.4168 -0.6490
   43MOL0     H 5925   4.646   2.819   3.528  0.2794 -0.3204 -1.2326
   43MOL0     H 5926   4.429   2.601   3.478  1.3170 -0.3307 -1.8695
   43MOL0     H 5927   4.461   2.670   3.636 -0.4116  1.1158  0.1174
   43MOL0     H 5928   4.395   2.900   3.541 -1.2631  2.0428 -2.1935
   43MOL0     H 5929   4.270   2.781   3.539  0.7500 -3.9681 -0.5787
   43MOL0     H 5930   4.269   2.923   3.144  1.2679 -1.1293 -0.6244
   43MOL0     H 5931   4.904   2.795   3.629  2.1437  2.4872  0.5154
   43MOL0     H 5932   5.154   2.897   3.742  0.5099  4.8130 -2.5610
   43MOL0     H 5933   5.010   2.998   3.707 -2.0088 -1.1649 -0.2172
   43MOL0     H 5934   5.096   3.007   3.857  3.8287 -1.0431 -0.5705
   44MOL0     O 5935   7.037   4.666   3.838  0.5564  0.0296  1.2510
   44MOL0     C 5936   7.109   4.699   3.747 -0.7638 -0.9732 -0.3793
   44MOL0     O 5937   7.072   4.765   3.642  0.0961  0.0740  0.2894
   44MOL0     C 5938   6.944   4.768   3.602 -0.0188 -0.8330  0.2912
   44MOL0     C 5939   6.845   4.671   3.627 -0.1683 -0.5455 -0.8398
   44MOL0     C 5940   6.710   4.691   3.589  0.5201 -0.2418  0.8118
   44MOL0     C 5941   6.678   4.798   3.509 -0.6321  0.1542 -0.0338
   44MOL0     O 5942   6.556   4.819   3.448 -0.1963  0.7470  0.1780
   44MOL0     C 5943   6.474   4.707   3.409  0.9185 -0.5437  0.3367
   44MOL0     C 5944   6.367   4.660   3.509  0.1260 -0.0141  0.3842
   44MOL0     C 5945   6.276   4.541   3.470 -1.1817  0.6002 -0.5900
   44MOL0     C 5946   6.140   4.532   3.539  0.4972  0.7715 -1.0549
   44MOL0     C 5947   6.040   4.424   3.499  0.5618 -0.0297  0.0996
   44MOL0     C 5948   5.890   4.466   3.542 -0.1281 -0.3903 -0.8411
   44MOL0     C 5949   5.771   4.366   3.516 -0.1232 -0.2771  0.0431
   44MOL0     C 5950   5.690   4.386   3.392  0.0065  0.4357 -0.5265
   44MOL0     N 5951   5.569   4.318   3.400  0.1251 -0.9253 -0.0716
   44MOL0     C 5952   5.477   4.332   3.496  0.7505  0.2417  0.1904
   44MOL0     C 5953   5.384   4.234   3.471  1.2380 -0.4171  0.8993
   44MOL0     C 5954   5.252   4.216   3.544  0.2604  0.4235 -0.5723
   44MOL0     C 5955   5.133   4.256   3.458  0.3827 -0.1455 -0.2507
   44MOL0     C 5956   5.031   4.335   3.543 -0.1369 -0.3151  0.4141
   44MOL0     C 5957   4.900   4.356   3.472 -0.1555 -0.3437  0.2817
   44MOL0     O 5958   4.846   4.228   3.431  0.1429 -0.4515  0.0419
   44MOL0     C 5959   4.792   4.224   3.305 -0.4405 -1.0056 -0.5832
   44MOL0     C 5960   4.722   4.334   3.249 -0.0992 -0.5866  0.0451
   44MOL0     C 5961   4.664   4.335   3.120 -0.0316  0.1423 -0.0133
   44MOL0     C 5962   4.587   4.458   3.073 -0.0595 -0.0891  0.6521
   44MOL0     C 5963   4.680   4.223   3.038 -0.9702 -0.1329 -0.4851
   44MOL0     C 5964   4.617   4.223   2.904  0.6920  1.1255  0.2107
   44MOL0     O 5965   4.663   4.122   2.825 -0.3852  0.6788 -0.3071
   44MOL0     C 5966   4.605   4.113   2.704  0.3682  0.7364 -0.5844
   44MOL0     C 5967   4.487   4.028   2.690 -1.2518 -0.0513  0.6606
   44MOL0     C 5968   4.436   3.993   2.565  0.2185 -0.5843  0.0333
   44MOL0     C 5969   4.495   4.030   2.446  0.0355 -0.0717  0.0372
   44MOL0     O 5970   4.455   3.992   2.321  0.0724 -0.0783 -0.0480
   44MOL0     C 5971   4.407   3.862   2.310  0.0384  0.8491  0.3816
   44MOL0     C 5972   4.398   3.809   2.171  0.0985 -0.2809  0.1949
   44MOL0     C 5973   4.303   3.894   2.076 -0.8434 -0.0191 -0.8811
   44MOL0     C 5974   4.326   3.847   1.937  0.2508  1.1260 -0.4966
   44MOL0     C 5975   4.231   3.915   1.836  0.5533  0.7001  0.1334
   44MOL0     C 5976   4.113   3.827   1.800  0.0238  0.3716  0.3018
   44MOL0     C 5977   4.019   3.896   1.700  0.2649 -0.7345 -0.3656
   44MOL0     C 5978   3.936   3.780   1.646 -0.4727  0.0092  1.1344
   44MOL0    Cl 5979   3.818   3.844   1.537 -0.0936 -0.1018 -0.2909
   44MOL0     C 5980   4.607   4.111   2.459  0.2090 -0.5308  0.3127
   44MOL0     C 5981   4.663   4.154   2.586 -0.0557 -0.1941 -0.0843
   44MOL0     O 5982   4.512   4.287   2.875  0.2466 -0.5056  0.2039
   44MOL0     C 5983   4.761   4.117   3.092  0.0350 -0.3901  1.1791
   44MOL0     C 5984   4.806   4.116   3.223 -0.3201 -0.0170 -0.4428
   44MOL0     N 5985   5.424   4.166   3.354 -0.2663  0.4711  0.4530
   44MOL0     N 5986   5.533   4.215   3.313 -0.5008 -0.1348 -0.4965
   44MOL0     C 5987   6.774   4.894   3.482  0.4721  0.0611 -0.0558
   44MOL0     C 5988   6.904   4.883   3.520  0.3026  0.3516 -0.0784
   44MOL0     C 5989   7.259   4.684   3.757  0.7990  0.3375 -0.0286
   44MOL0     C 5990   7.338   4.756   3.661  0.0817  0.5234 -0.5455
   44MOL0     C 5991   7.478   4.753   3.665  0.3110 -0.1237 -0.1868
   44MOL0     C 5992   7.552   4.670   3.736 -0.4793 -0.3560  0.4509
   44MOL0     O 5993   7.694   4.670   3.725  0.0048  0.1810  0.1443
   44MOL0     C 5994   7.776   4.577   3.797  0.8388 -0.6085 -0.9828
   44MOL0     C 5995   7.771   4.438   3.729  0.2625 -0.6304 -0.3856
   44MOL0     C 5996   7.850   4.334   3.810 -0.5833  0.2185 -0.2134
   44MOL0     C 5997   7.814   4.303   3.953  1.4368  0.3474 -0.3438
   44MOL0     C 5998   7.674   4.277   3.963  0.0264 -0.3567  0.0758
   44MOL0     C 5999   7.556   4.270   4.004  0.2975 -0.2222  0.6080
   44MOL0     C 6000   7.476   4.587   3.822 -0.1764 -0.4517  0.0969
   44MOL0     C 6001   7.329   4.596   3.843 -0.6092  0.7063 -0.9486
   44MOL0     C 6002   7.264   4.513   3.951 -0.4767  0.5580 -0.1758
   44MOL0     H 6003   6.873   4.587   3.690 -2.2549 -1.1125 -0.6005
   44MOL0     H 6004   6.627   4.626   3.618  1.3425 -0.2350  3.4812
   44MOL0     H 6005   6.530   4.622   3.372  2.1207  1.3117 -2.3970
   44MOL0     H 6006   6.418   4.758   3.330 -1.2903  1.0616  2.7653
   44MOL0     H 6007   6.408   4.627   3.605 -1.7819 -2.1500  0.5391
   44MOL0     H 6008   6.299   4.744   3.526 -1.9777 -1.7512  1.0032
   44MOL0     H 6009   6.256   4.542   3.362  0.4202  0.6395 -0.9101
   44MOL0     H 6010   6.338   4.452   3.482 -0.6461  1.1796  1.1344
   44MOL0     H 6011   6.143   4.541   3.648 -2.2789  1.5322 -0.9498
   44MOL0     H 6012   6.099   4.629   3.510  0.6355  1.7418  1.6733
   44MOL0     H 6013   6.070   4.335   3.555 -0.8652  1.1000  2.8715
   44MOL0     H 6014   6.044   4.415   3.390 -0.8307  0.9742 -0.0662
   44MOL0     H 6015   5.897   4.484   3.650  1.8226 -1.7829 -0.6691
   44MOL0     H 6016   5.858   4.561   3.500 -4.0187 -0.8829  0.6572
   44MOL0     H 6017   5.712   4.358   3.608  0.5973  1.2603  0.6810
   44MOL0     H 6018   5.811   4.266   3.496  0.9615  0.5898 -2.4241
   44MOL0     H 6019   5.666   4.492   3.387  0.2743  0.4591 -1.5346
   44MOL0     H 6020   5.744   4.359   3.301  1.3643 -2.2946  0.9554
   44MOL0     H 6021   5.473   4.401   3.580  0.6840 -3.0476  3.1460
   44MOL0     H 6022   5.249   4.253   3.647 -2.8643 -0.2281 -0.3223
   44MOL0     H 6023   5.238   4.108   3.554 -0.7552  0.6038  0.2243
   44MOL0     H 6024   5.150   4.312   3.365  1.4796  0.7089  0.4368
   44MOL0     H 6025   5.096   4.158   3.430 -0.5041  0.4854 -1.3843
   44MOL0     H 6026   5.025   4.269   3.630  0.2800  0.0853  0.7499
   44MOL0     H 6027   5.085   4.426   3.570 -0.7547  1.3613 -3.4265
   44MOL0     H 6028   4.829   4.406   3.539 -0.2940 -0.2410  0.0587
   44MOL0     H 6029   4.919   4.423   3.387  0.4583 -2.5957 -1.4367
   44MOL0     H 6030   4.708   4.425   3.306 -2.5458 -0.1382 -1.1562
   44MOL0     H 6031   4.614   4.484   2.970 -0.2009  2.5762  1.2065
   44MOL0     H 6032   4.596   4.544   3.139  0.8435 -1.4967  2.4596
   44MOL0     H 6033   4.481   4.433   3.076  0.1437 -1.3003 -0.8316
   44MOL0     H 6034   4.434   3.998   2.779  1.3460 -1.9817  1.6560
   44MOL0     H 6035   4.351   3.925   2.556  0.1198 -0.9304  2.9171
   44MOL0     H 6036   4.471   3.800   2.373 -0.6640 -2.0657 -1.5766
   44MOL0     H 6037   4.303   3.851   2.343 -0.9989  1.5549 -2.3586
   44MOL0     H 6038   4.498   3.817   2.125 -0.2167  2.7103 -0.1587
   44MOL0     H 6039   4.356   3.709   2.171 -1.8367  0.4939  0.3906
   44MOL0     H 6040   4.320   4.002   2.082 -3.7290  0.4858  4.2601
   44MOL0     H 6041   4.202   3.892   2.117  1.0314 -0.0506  4.5250
   44MOL0     H 6042   4.305   3.739   1.931  1.1842  0.7406  2.0317
   44MOL0     H 6043   4.427   3.865   1.899  0.0677  2.6652 -0.2968
   44MOL0     H 6044   4.194   4.009   1.877  2.8633  0.8496  2.0927
   44MOL0     H 6045   4.288   3.922   1.744 -1.1655 -1.4343 -1.1975
   44MOL0     H 6046   4.062   3.796   1.891  0.1712  0.9699  0.5957
   44MOL0     H 6047   4.149   3.738   1.748  1.3632  0.9828  0.1228
   44MOL0     H 6048   4.080   3.936   1.618  0.2950 -0.4541 -0.2067
   44MOL0     H 6049   3.961   3.980   1.739  3.3208  2.0881 -1.4171
   44MOL0     H 6050   3.888   3.722   1.726 -0.8466 -1.0641  0.1546
   44MOL0     H 6051   3.993   3.704   1.593 -1.5243 -2.4932  3.3481
   44MOL0     H 6052   4.634   4.148   2.361  0.2771  0.2418  0.6163
   44MOL0     H 6053   4.757   4.207   2.587 -1.0823  1.7229  0.5004
   44MOL0     H 6054   4.791   4.026   3.042  2.9136  0.4261  1.2305
   44MOL0     H 6055   4.856   4.025   3.255 -0.7196 -0.3522 -0.7581
   44MOL0     H 6056   6.749   4.980   3.420  1.2849 -0.5110 -1.2304
   44MOL0     H 6057   6.979   4.955   3.488 -0.5452  0.8438 -1.0213
   44MOL0     H 6058   7.287   4.832   3.603 -0.1724  0.1311 -0.8363
   44MOL0     H 6059   7.532   4.808   3.588 -2.9678  2.8812 -0.6662
   44MOL0     H 6060   7.877   4.614   3.811  0.7154 -0.1149 -1.3972
   44MOL0     H 6061   7.727   4.573   3.895 -0.6657  5.0477 -1.1871
   44MOL0     H 6062   7.820   4.433   3.632  1.3533 -0.9197  0.1668
   44MOL0     H 6063   7.670   4.398   3.715  0.3030 -1.3018  1.0492
   44MOL0     H 6064   7.847   4.242   3.750 -1.1180  0.3262 -0.3546
   44MOL0     H 6065   7.955   4.363   3.808 -0.2827 -0.8187 -0.5867
   44MOL0     H 6066   7.838   4.387   4.019  0.5747 -0.0083  0.4444
   44MOL0     H 6067   7.867   4.210   3.976  3.0119  1.3355  0.1626
   44MOL0     H 6068   7.455   4.254   4.035 -0.0099  0.3212 -0.0884
   44MOL0     H 6069   7.538   4.521   3.881 -0.3409  0.9139  1.8908
   44MOL0     H 6070   7.297   4.565   4.042 -1.6163  2.1997 -0.6490
   44MOL0     H 6071   7.156   4.499   3.943 -0.7555  2.9388 -1.5710
   44MOL0     H 6072   7.314   4.417   3.938  0.2515  0.6278  1.7537
   45MOL0     O 6073   4.418   5.559   9.598  0.0210 -0.5585 -0.7409
   45MOL0     C 6074   4.485   5.643   9.659 -0.1945  0.7166 -0.1088
   45MOL0     O 6075   4.443   5.762   9.719 -0.1372 -0.3477  0.0203
   45MOL0     C 6076   4.318   5.815   9.718 -0.0117 -0.4636 -0.2539
   45MOL0     C 6077   4.273   5.879   9.830 -1.0905 -0.1623 -1.1425
   45MOL0     C 6078   4.140   5.925   9.844 -0.2818  0.5229 -0.1536
   45MOL0     C 6079   4.052   5.887   9.741  0.1098  0.0997  0.6651
   45MOL0     O 6080   3.921   5.924   9.755 -0.2397 -0.3075  0.0309
   45MOL0     C 6081   3.816   5.856   9.691  0.0554 -0.6384  0.3581
   45MOL0     C 6082   3.691   5.929   9.740  0.2733 -0.3926 -0.4686
   45MOL0     C 6083   3.558   5.851   9.705 -0.0086 -0.3916 -0.2693
   45MOL0     C 6084   3.526   5.855   9.553  0.6781 -0.0245 -0.2971
   45MOL0     C 6085   3.431   5.748   9.519  0.3425  0.4785 -0.0451
   45MOL0     C 6086   3.402   5.751   9.377 -0.3701  0.9167 -0.1213
   45MOL0     C 6087   3.277   5.652   9.346 -0.4668  0.2484  0.0264
   45MOL0     C 6088   3.143   5.727   9.356  0.4986 -0.2767  0.0683
   45MOL0     N 6089   3.088   5.753   9.486 -0.2018  0.4845  0.8486
   45MOL0     C 6090   3.026   5.665   9.566 -0.7155 -0.1090 -0.1059
   45MOL0     C 6091   2.954   5.736   9.653 -1.3833 -0.9241  0.3845
   45MOL0     C 6092   2.875   5.693   9.775 -0.1478  0.0697  0.2861
   45MOL0     C 6093   2.890   5.792   9.889 -0.5576  0.3426  0.5251
   45MOL0     C 6094   3.013   5.761   9.977  0.1675 -0.2291 -0.3438
   45MOL0     C 6095   3.153   5.790   9.913 -0.0938 -0.3639 -0.5917
   45MOL0     O 6096   3.254   5.790  10.010  0.2558  0.3476  0.4997
   45MOL0     C 6097   3.247   5.871  10.121  0.0659 -1.2190 -0.5123
   45MOL0     C 6098   3.284   5.824  10.245 -0.5846  0.5467 -0.4152
   45MOL0     C 6099   3.280   5.903  10.357  0.4827  0.1788 -0.3563
   45MOL0     C 6100   3.323   5.831  10.479 -0.0700  0.1429 -0.5370
   45MOL0     C 6101   3.236   6.037  10.358  0.4300  0.5673 -0.3821
   45MOL0     C 6102   3.206   6.132  10.482  0.3244  0.3099  0.0412
   45MOL0     O 6103   3.220   6.073  10.603  0.1477  0.0300  0.0648
   45MOL0     C 6104   3.144   6.108  10.707 -0.1774  0.1895  0.1665
   45MOL0     C 6105   3.204   6.116  10.834 -0.3416 -0.1087 -0.7220
   45MOL0     C 6106   3.133   6.152  10.949  0.2971  0.5437 -0.5794
   45MOL0     C 6107   2.987   6.170  10.934 -0.9841  0.3696 -0.6026
   45MOL0     O 6108   2.905   6.214  11.039  0.5166 -0.3350 -0.0617
   45MOL0     C 6109   2.958   6.236  11.170  1.0070  0.4300  0.4527
   45MOL0     C 6110   2.835   6.264  11.259  0.8495  0.4938  0.3224
   45MOL0     C 6111   2.781   6.412  11.261  0.7537 -0.0800  0.5930
   45MOL0     C 6112   2.728   6.477  11.123  1.7489 -0.1125  0.0810
   45MOL0     C 6113   2.676   6.625  11.164 -0.1343  0.6011  0.2862
   45MOL0     C 6114   2.659   6.717  11.036  0.0686 -0.1774 -1.0072
   45MOL0     C 6115   2.620   6.863  11.077 -0.7555  1.2172 -1.1525
   45MOL0     C 6116   2.579   6.949  10.971 -0.2417 -0.2746  0.3055
   45MOL0    Cl 6117   2.414   6.899  10.908 -0.1604  0.4478  0.0877
   45MOL0     C 6118   2.926   6.176  10.805 -0.0119  1.1032  0.2276
   45MOL0     C 6119   3.009   6.144  10.692 -0.2129  0.0716  0.4754
   45MOL0     O 6120   3.170   6.252  10.451  0.2438  0.3746  0.3725
   45MOL0     C 6121   3.193   6.080  10.233 -0.3130 -0.0610 -0.5729
   45MOL0     C 6122   3.199   6.010  10.110  0.4330  0.8144 -0.4958
   45MOL0     N 6123   2.976   5.868   9.617  0.1324 -0.7988 -0.7704
   45MOL0     N 6124   3.051   5.877   9.520 -0.9595 -0.4825  0.1069
   45MOL0     C 6125   4.092   5.828   9.624 -1.1553 -0.4796 -0.1185
   45MOL0     C 6126   4.223   5.788   9.617  0.6316  0.1866 -0.9133
   45MOL0     C 6127   4.634   5.605   9.667  0.6518 -0.4535 -0.7263
   45MOL0     C 6128   4.714   5.670   9.767 -0.1768 -0.4449 -0.7740
   45MOL0     C 6129   4.852   5.640   9.784 -0.0226 -0.1313  0.8327
   45MOL0     C 6130   4.917   5.548   9.707 -0.0381  0.0977  0.7881
   45MOL0     O 6131   5.043   5.494   9.725  0.0711 -0.2435  0.3044
   45MOL0     C 6132   5.121   5.514   9.851 -0.1766  0.1621 -0.3456
   45MOL0     C 6133   5.249   5.603   9.832 -0.4177 -0.5931  0.9333
   45MOL0     C 6134   5.340   5.510   9.758 -0.5989 -0.0999  0.4063
   45MOL0     C 6135   5.487   5.539   9.789 -0.0572 -0.0072 -0.5904
   45MOL0     C 6136   5.565   5.466   9.683 -0.4183  0.2638 -0.3383
   45MOL0     C 6137   5.633   5.422   9.595 -0.1097 -0.1133  0.0352
   45MOL0     C 6138   4.843   5.488   9.604  0.2648  0.4720  0.2777
   45MOL0     C 6139   4.705   5.512   9.590  0.1101 -0.1103 -0.7093
   45MOL0     C 6140   4.633   5.424   9.484  0.1164 -0.1161  0.9977
   45MOL0     H 6141   4.352   5.892   9.903 -1.3221 -0.7939 -0.7769
   45MOL0     H 6142   4.103   5.983   9.927  0.8429  3.5698 -1.6026
   45MOL0     H 6143   3.808   5.750   9.719  1.4149 -0.7531  0.3853
   45MOL0     H 6144   3.821   5.852   9.582 -0.9235  1.4396  0.1895
   45MOL0     H 6145   3.692   5.939   9.849  1.7678  2.1682 -0.6309
   45MOL0     H 6146   3.687   6.034   9.709  3.6985  1.4056  4.0664
   45MOL0     H 6147   3.574   5.749   9.742  2.3530 -0.2349 -0.6677
   45MOL0     H 6148   3.475   5.885   9.766  1.3565  2.3240  0.2204
   45MOL0     H 6149   3.474   5.949   9.531  0.2304 -0.8599 -3.3221
   45MOL0     H 6150   3.620   5.846   9.498  0.5147  1.6806 -0.9333
   45MOL0     H 6151   3.341   5.764   9.579  0.2184  0.1619 -0.1468
   45MOL0     H 6152   3.480   5.652   9.539  0.5128  1.0830  2.8309
   45MOL0     H 6153   3.380   5.852   9.341  0.0328  2.0501  2.5228
   45MOL0     H 6154   3.495   5.718   9.332 -0.0675 -1.8322  2.2425
   45MOL0     H 6155   3.276   5.574   9.423 -2.0390  2.6565  2.6543
   45MOL0     H 6156   3.293   5.604   9.249 -0.9748  0.4677 -0.1687
   45MOL0     H 6157   3.164   5.817   9.298  0.7574 -1.3848 -1.6325
   45MOL0     H 6158   3.062   5.681   9.300 -0.6305  0.9221  0.6729
   45MOL0     H 6159   3.032   5.556   9.564  1.2358 -0.1348  2.5520
   45MOL0     H 6160   2.902   5.591   9.804  2.3478  0.4473 -0.4623
   45MOL0     H 6161   2.773   5.684   9.737  0.2728  0.3346 -0.9781
   45MOL0     H 6162   2.884   5.896   9.857 -1.8721  0.3467  0.7607
   45MOL0     H 6163   2.806   5.776   9.957 -1.2748  2.3899  0.1951
   45MOL0     H 6164   2.993   5.826  10.062 -4.9875  0.5574 -1.7758
   45MOL0     H 6165   2.992   5.656  10.000  0.1367 -0.2441 -0.4387
   45MOL0     H 6166   3.184   5.722   9.833  1.1313  0.4045 -0.7878
   45MOL0     H 6167   3.157   5.892   9.873 -0.0864  0.1175  0.6131
   45MOL0     H 6168   3.315   5.720  10.248 -1.1229  0.4084  1.9430
   45MOL0     H 6169   3.383   5.745  10.449 -1.9450 -1.6982  0.7343
   45MOL0     H 6170   3.230   5.805  10.530  0.9056  0.7571  1.7204
   45MOL0     H 6171   3.382   5.892  10.548  1.6638 -1.2660 -0.7054
   45MOL0     H 6172   3.310   6.094  10.835 -0.7646 -2.4248 -0.2606
   45MOL0     H 6173   3.193   6.153  11.039  0.9390 -4.2269 -0.6733
   45MOL0     H 6174   2.992   6.138  11.207  1.1300 -1.0495 -3.1723
   45MOL0     H 6175   3.039   6.309  11.176  0.7057  1.1134 -2.4403
   45MOL0     H 6176   2.748   6.206  11.227  0.0840  1.5012  0.5390
   45MOL0     H 6177   2.848   6.231  11.362 -0.6343 -0.6496  0.1764
   45MOL0     H 6178   2.858   6.469  11.314  0.2006 -0.2086  1.5546
   45MOL0     H 6179   2.693   6.411  11.326 -1.1273  2.4672 -1.6788
   45MOL0     H 6180   2.638   6.435  11.077  0.6480  3.5635 -1.5294
   45MOL0     H 6181   2.809   6.493  11.051  3.1741 -1.5564  1.2957
   45MOL0     H 6182   2.574   6.622  11.204 -1.7622  0.9215 -3.3823
   45MOL0     H 6183   2.749   6.673  11.229 -0.9376  0.8118  1.0410
   45MOL0     H 6184   2.580   6.682  10.969  0.9885 -0.2604 -2.0968
   45MOL0     H 6185   2.753   6.714  10.979  0.9814 -3.0967  0.4629
   45MOL0     H 6186   2.703   6.904  11.135 -0.3600 -2.4527  1.2566
   45MOL0     H 6187   2.535   6.854  11.145  0.2275  1.7516  0.1836
   45MOL0     H 6188   2.660   6.945  10.897 -0.9776  1.6451 -0.6709
   45MOL0     H 6189   2.567   7.050  11.013 -1.3846 -1.2214  2.4596
   45MOL0     H 6190   2.823   6.207  10.795  0.1609  1.8633  0.7289
   45MOL0     H 6191   2.971   6.141  10.590  2.2492  4.8437 -0.8768
   45MOL0     H 6192   3.149   6.179  10.228  1.0495  0.5871 -0.2283
   45MOL0     H 6193   3.174   6.060  10.017  1.8728  1.0931 -0.7697
   45MOL0     H 6194   4.021   5.792   9.550 -1.8211  1.5834 -0.5518
   45MOL0     H 6195   4.255   5.737   9.527 -0.7097  0.8650 -1.8036
   45MOL0     H 6196   4.667   5.741   9.834  1.4068  0.1079 -0.2247
   45MOL0     H 6197   4.899   5.692   9.866  0.0409 -0.3412  0.9307
   45MOL0     H 6198   5.057   5.561   9.926  1.3349 -1.7813  2.3517
   45MOL0     H 6199   5.145   5.416   9.894 -1.3554 -0.2256 -0.5556
   45MOL0     H 6200   5.301   5.646   9.918  0.5681  0.8126 -0.3227
   45MOL0     H 6201   5.223   5.687   9.767  1.0225  1.2313  2.5948
   45MOL0     H 6202   5.322   5.403   9.776 -0.5049 -0.0529  0.7695
   45MOL0     H 6203   5.323   5.537   9.653 -0.7048  1.3222  0.7764
   45MOL0     H 6204   5.526   5.510   9.887  0.1342  1.5342 -0.1708
   45MOL0     H 6205   5.512   5.646   9.781  2.2351 -0.3719  0.6589
   45MOL0     H 6206   5.680   5.397   9.502  0.3964  3.4856 -0.8241
   45MOL0     H 6207   4.888   5.408   9.546  0.1354  1.2157 -0.8826
   45MOL0     H 6208   4.572   5.473   9.409  0.6019  0.5987  1.0617
   45MOL0     H 6209   4.691   5.349   9.429  0.0978  0.8576 -0.3891
   45MOL0     H 6210   4.562   5.364   9.542  1.7829 -3.2335  0.0409
   46MOL0     O 6211   7.338   5.620   2.437 -0.3534 -0.6012 -0.3581
   46MOL0     C 6212   7.344   5.516   2.506 -0.3487 -0.0729  0.2851
   46MOL0     O 6213   7.318   5.510   2.640  0.1328 -0.0198  0.9036
   46MOL0     C 6214   7.268   5.617   2.695 -0.0959  1.0442 -0.4704
   46MOL0     C 6215   7.131   5.637   2.702  0.4546  0.2684 -0.1028
   46MOL0     C 6216   7.061   5.739   2.771 -0.9375 -1.0961  0.4816
   46MOL0     C 6217   7.145   5.849   2.815  0.2074  0.1009  0.5061
   46MOL0     O 6218   7.083   5.961   2.865  0.1190  0.1580 -0.1685
   46MOL0     C 6219   7.162   6.085   2.876 -0.1539  0.4919 -0.7544
   46MOL0     C 6220   7.065   6.171   2.948  0.4788 -0.2929  0.5219
   46MOL0     C 6221   7.127   6.303   2.992 -0.6878  0.4950 -0.4743
   46MOL0     C 6222   7.180   6.382   2.867 -0.3321  0.3119 -0.7936
   46MOL0     C 6223   7.243   6.518   2.913  0.6272 -0.4842 -0.5343
   46MOL0     C 6224   7.293   6.600   2.792 -0.1521 -1.2268  0.1474
   46MOL0     C 6225   7.165   6.633   2.709  0.8094  0.0648  0.4375
   46MOL0     C 6226   7.189   6.769   2.633  0.2837  0.4173 -0.0996
   46MOL0     N 6227   7.288   6.751   2.525 -0.1389  0.2827  0.3208
   46MOL0     C 6228   7.261   6.777   2.390  0.1271  0.9375  0.0866
   46MOL0     C 6229   7.381   6.759   2.332 -0.0602 -0.1476  0.2187
   46MOL0     C 6230   7.408   6.764   2.187  0.6352 -0.0303 -0.1772
   46MOL0     C 6231   7.388   6.618   2.131 -0.2108 -0.5665  0.5643
   46MOL0     C 6232   7.254   6.587   2.067 -0.6707  0.4404  0.0690
   46MOL0     C 6233   7.238   6.452   2.005  1.1081  0.6871 -0.3391
   46MOL0     O 6234   7.279   6.331   2.085  0.9862 -1.3321 -0.0468
   46MOL0     C 6235   7.255   6.207   2.037  0.7612  0.1761  0.7449
   46MOL0     C 6236   7.278   6.107   2.121  0.2786  0.4493 -0.5919
   46MOL0     C 6237   7.258   5.970   2.091  0.2608  0.5449 -0.3434
   46MOL0     C 6238   7.298   5.871   2.198  0.1424  0.2602  0.4509
   46MOL0     C 6239   7.207   5.944   1.958  0.2530 -0.1416 -0.2787
   46MOL0     C 6240   7.211   5.800   1.909  0.2874 -0.6371  0.7214
   46MOL0     O 6241   7.167   5.796   1.773  0.4581 -0.1901 -0.3175
   46MOL0     C 6242   7.126   5.670   1.723 -0.2814  0.5965 -0.2360
   46MOL0     C 6243   7.189   5.621   1.610 -0.5165  0.1765 -0.2531
   46MOL0     C 6244   7.141   5.509   1.550 -0.4716  0.8313  0.0409
   46MOL0     C 6245   7.040   5.429   1.604 -0.2050  0.0747  0.8519
   46MOL0     O 6246   7.006   5.317   1.531  0.3396  1.0414 -0.1720
   46MOL0     C 6247   6.871   5.268   1.539  0.1688 -0.1125  0.2093
   46MOL0     C 6248   6.865   5.167   1.430 -0.3138  0.0656 -0.0262
   46MOL0     C 6249   6.745   5.062   1.447  0.0870 -0.3829 -0.2333
   46MOL0     C 6250   6.615   5.151   1.448 -0.7921  0.0724 -0.1681
   46MOL0     C 6251   6.478   5.076   1.433 -0.3996  0.9115 -1.7831
   46MOL0     C 6252   6.449   5.030   1.291  0.1271  0.3166 -0.0247
   46MOL0     C 6253   6.306   4.960   1.282  0.0387  1.1557  0.3298
   46MOL0     C 6254   6.263   4.909   1.149  0.3261  0.6238  0.1623
   46MOL0    Cl 6255   6.392   4.791   1.088 -0.4107  0.3775  0.2498
   46MOL0     C 6256   6.985   5.473   1.722 -0.0572 -0.2253  1.1169
   46MOL0     C 6257   7.022   5.593   1.780  0.9735 -1.1900 -0.9748
   46MOL0     O 6258   7.228   5.700   1.977 -0.0160 -0.6535  0.3857
   46MOL0     C 6259   7.186   6.050   1.867 -0.3611 -0.1505 -0.6041
   46MOL0     C 6260   7.212   6.183   1.903  0.7309 -0.0809 -0.2081
   46MOL0     N 6261   7.472   6.713   2.425 -0.2408 -0.3302 -0.1112
   46MOL0     N 6262   7.415   6.714   2.536  0.6633  0.1044  0.5457
   46MOL0     C 6263   7.293   5.830   2.804 -0.5801 -0.0506  0.0447
   46MOL0     C 6264   7.353   5.717   2.741 -0.0378 -1.0217  0.7684
   46MOL0     C 6265   7.363   5.391   2.434  0.1099  0.2629 -0.0754
   46MOL0     C 6266   7.315   5.266   2.499 -0.3524  0.2961 -0.5170
   46MOL0     C 6267   7.338   5.139   2.450 -0.3671  0.1972  0.0238
   46MOL0     C 6268   7.396   5.127   2.324  0.2348  0.2568 -0.7227
   46MOL0     O 6269   7.412   5.002   2.280  0.9110 -0.9283 -0.8931
   46MOL0     C 6270   7.411   4.982   2.135 -0.9545 -0.9226 -1.1231
   46MOL0     C 6271   7.384   4.838   2.104  0.0745 -1.1130 -0.0255
   46MOL0     C 6272   7.237   4.801   2.130  0.5553  0.1390 -0.8231
   46MOL0     C 6273   7.161   4.744   2.006  0.1252 -0.6522 -0.1005
   46MOL0     C 6274   7.016   4.728   2.017  0.1077 -0.6396  1.3221
   46MOL0     C 6275   6.910   4.697   2.038 -0.1932 -1.4336 -0.9222
   46MOL0     C 6276   7.438   5.239   2.254 -0.3429 -0.8945  0.9551
   46MOL0     C 6277   7.430   5.371   2.310  0.1357 -0.2902 -0.1642
   46MOL0     C 6278   7.451   5.487   2.213  1.1170 -0.5749  0.1599
   46MOL0     H 6279   7.071   5.558   2.658 -0.2120 -0.7597  2.4560
   46MOL0     H 6280   6.953   5.738   2.780 -1.3437 -1.9393 -3.0609
   46MOL0     H 6281   7.178   6.127   2.776 -3.2108  2.9645 -0.3447
   46MOL0     H 6282   7.258   6.077   2.928 -0.6421 -0.6208  0.0231
   46MOL0     H 6283   6.977   6.198   2.890  1.1973  1.3874  0.1667
   46MOL0     H 6284   7.022   6.127   3.039 -3.4058 -2.1930 -1.9730
   46MOL0     H 6285   7.049   6.358   3.046 -1.7845  0.6994 -2.1931
   46MOL0     H 6286   7.208   6.293   3.064  1.1466  3.2427 -1.9709
   46MOL0     H 6287   7.249   6.336   2.796  0.8937  0.5299  0.2074
   46MOL0     H 6288   7.088   6.404   2.812 -0.3419  2.1968 -0.1061
   46MOL0     H 6289   7.331   6.517   2.979 -1.1207  1.6869  2.0768
   46MOL0     H 6290   7.168   6.556   2.983  2.2238  0.8561  0.5352
   46MOL0     H 6291   7.334   6.694   2.830  0.3143 -0.9824 -0.9197
   46MOL0     H 6292   7.371   6.561   2.727  1.1340 -0.1655  0.9895
   46MOL0     H 6293   7.079   6.646   2.776  1.3416 -1.5413  1.5209
   46MOL0     H 6294   7.144   6.557   2.633  0.5649  0.4120  0.1565
   46MOL0     H 6295   7.093   6.808   2.597 -0.6890 -0.8097  1.0648
   46MOL0     H 6296   7.223   6.841   2.708  0.7576 -0.9145  0.9988
   46MOL0     H 6297   7.169   6.802   2.338  1.6889  3.5900 -1.6473
   46MOL0     H 6298   7.515   6.787   2.190  0.8553 -0.9283 -0.4817
   46MOL0     H 6299   7.345   6.830   2.127  0.4571 -0.2491 -0.2342
   46MOL0     H 6300   7.470   6.618   2.059 -3.2970 -1.1582 -3.2953
   46MOL0     H 6301   7.415   6.534   2.195  0.8101  0.2848  1.2770
   46MOL0     H 6302   7.172   6.602   2.138 -3.1349  0.6414 -2.6431
   46MOL0     H 6303   7.242   6.664   1.990 -1.9166  0.3104  0.1064
   46MOL0     H 6304   7.131   6.451   1.982  1.4796 -0.1937 -2.2572
   46MOL0     H 6305   7.288   6.456   1.908 -0.6603  3.2086 -1.2491
   46MOL0     H 6306   7.313   6.125   2.223  0.7238 -3.8850  0.2021
   46MOL0     H 6307   7.206   5.818   2.224 -0.2020  0.3402 -0.5664
   46MOL0     H 6308   7.350   5.914   2.285  1.9741  2.0485 -1.4021
   46MOL0     H 6309   7.371   5.792   2.177  1.2834  1.2258  0.6034
   46MOL0     H 6310   7.279   5.670   1.575  0.7439 -0.5654  1.7961
   46MOL0     H 6311   7.198   5.460   1.472  3.8148  2.0562  2.1484
   46MOL0     H 6312   6.855   5.215   1.633  0.8828 -1.2194 -0.2736
   46MOL0     H 6313   6.791   5.343   1.537  2.0237  1.9706 -0.0947
   46MOL0     H 6314   6.854   5.214   1.332 -0.2479  3.2623  1.3744
   46MOL0     H 6315   6.958   5.110   1.417 -2.4722 -2.9851 -4.7897
   46MOL0     H 6316   6.738   4.993   1.532 -0.3430 -1.4020 -1.0734
   46MOL0     H 6317   6.742   5.002   1.356 -0.1858 -0.5309 -0.1293
   46MOL0     H 6318   6.615   5.220   1.364 -1.5379  0.6677  0.3117
   46MOL0     H 6319   6.611   5.222   1.531 -0.8997 -0.1948  0.0574
   46MOL0     H 6320   6.491   4.992   1.503 -1.2724  2.1557 -0.0503
   46MOL0     H 6321   6.393   5.130   1.474  2.0748  2.5159  1.8167
   46MOL0     H 6322   6.521   4.960   1.248 -1.3673 -1.0035 -0.5009
   46MOL0     H 6323   6.453   5.115   1.222  1.0496 -2.0274 -3.1426
   46MOL0     H 6324   6.228   5.024   1.326 -0.1964  2.1039 -1.3939
   46MOL0     H 6325   6.316   4.875   1.351  1.2453  0.0451 -1.1456
   46MOL0     H 6326   6.252   4.983   1.069 -2.7467 -1.5808 -1.6951
   46MOL0     H 6327   6.171   4.850   1.159  1.4797 -1.3118 -0.0369
   46MOL0     H 6328   6.909   5.401   1.752  1.2762 -1.9729  0.4827
   46MOL0     H 6329   6.958   5.635   1.857 -0.0683 -2.0456 -1.3456
   46MOL0     H 6330   7.140   6.030   1.771 -0.5898  0.3440 -0.6009
   46MOL0     H 6331   7.187   6.248   1.820 -2.1138 -0.5770  0.1516
   46MOL0     H 6332   7.357   5.905   2.849  0.1264 -0.3281 -0.4695
   46MOL0     H 6333   7.459   5.707   2.721 -0.0301  2.1851 -1.5534
   46MOL0     H 6334   7.252   5.275   2.588 -0.1184 -1.0099 -0.1975
   46MOL0     H 6335   7.303   5.054   2.508  1.9533  0.6105  2.2153
   46MOL0     H 6336   7.368   5.064   2.075  1.1795 -1.4826 -3.6153
   46MOL0     H 6337   7.517   4.991   2.111 -0.9832 -1.0318 -1.2986
   46MOL0     H 6338   7.449   4.774   2.164  3.6267  0.4782 -1.8434
   46MOL0     H 6339   7.401   4.816   1.998 -2.9056  0.1169 -0.8589
   46MOL0     H 6340   7.231   4.723   2.206  3.3710 -1.4226 -2.0301
   46MOL0     H 6341   7.195   4.895   2.167  0.6852  0.5207 -1.6122
   46MOL0     H 6342   7.204   4.650   1.968 -3.5958 -2.4450 -0.3715
   46MOL0     H 6343   7.172   4.807   1.917 -3.4585 -3.2608 -2.7019
   46MOL0     H 6344   6.803   4.693   2.051 -0.6969  3.4973 -1.5151
   46MOL0     H 6345   7.490   5.218   2.161  0.0061 -1.7139  1.3172
   46MOL0     H 6346   7.483   5.567   2.280 -2.5953  0.2971  1.1290
   46MOL0     H 6347   7.517   5.473   2.126  1.3600  5.7041 -1.1084
   46MOL0     H 6348   7.359   5.532   2.176  2.5502  1.3389 -1.2973
   47MOL0     O 6349   7.300   7.097   7.720  0.4232  0.4980  0.6279
   47MOL0     C 6350   7.181   7.089   7.692  0.6228  0.6503 -0.5939
   47MOL0     O 6351   7.107   7.199   7.649  0.0564  0.6191 -0.1361
   47MOL0     C 6352   7.159   7.327   7.627  1.0794  0.1911 -0.3057
   47MOL0     C 6353   7.090   7.404   7.540 -0.3461  1.1751  0.5639
   47MOL0     C 6354   7.105   7.539   7.531 -0.7020 -0.0736  0.1931
   47MOL0     C 6355   7.207   7.600   7.606  0.8449  1.3754  0.8838
   47MOL0     O 6356   7.218   7.729   7.606  0.1168 -0.6640  0.0582
   47MOL0     C 6357   7.115   7.804   7.676 -1.4060 -1.1015 -0.0684
   47MOL0     C 6358   7.119   7.948   7.611 -0.0600  0.8081 -0.8323
   47MOL0     C 6359   7.011   8.043   7.661 -0.1650  0.6793  0.4321
   47MOL0     C 6360   7.034   8.188   7.634 -0.2977  0.0732  0.9064
   47MOL0     C 6361   6.906   8.266   7.599  0.7710  0.4475 -0.5957
   47MOL0     C 6362   6.830   8.318   7.726 -0.4527 -0.5431  0.2101
   47MOL0     C 6363   6.685   8.349   7.723  0.4438  0.5023 -0.2312
   47MOL0     C 6364   6.628   8.429   7.840 -0.3500  0.5363 -0.3828
   47MOL0     N 6365   6.601   8.351   7.961 -0.2650 -0.2692 -0.6520
   47MOL0     C 6366   6.470   8.311   7.988  0.8987  0.2671  0.2989
   47MOL0     C 6367   6.473   8.232   8.098 -0.0134  0.3984  0.3878
   47MOL0     C 6368   6.359   8.161   8.166  0.8977  0.1174 -0.5573
   47MOL0     C 6369   6.394   8.096   8.295 -0.3785  0.0088 -0.6948
   47MOL0     C 6370   6.280   8.014   8.365  0.0056 -0.7232  0.8577
   47MOL0     C 6371   6.320   7.963   8.515  0.0044  0.0767  0.2707
   47MOL0     O 6372   6.234   7.848   8.558 -0.2266  0.6050  0.3662
   47MOL0     C 6373   6.254   7.779   8.676  0.1715  0.3375  0.1787
   47MOL0     C 6374   6.349   7.808   8.776 -0.2435 -0.1499 -0.2609
   47MOL0     C 6375   6.359   7.737   8.894 -0.3840  0.5162  0.2228
   47MOL0     C 6376   6.478   7.766   8.992  0.2938 -0.0847  0.3802
   47MOL0     C 6377   6.272   7.638   8.924 -0.3837  0.2671  0.3469
   47MOL0     C 6378   6.282   7.554   9.046 -0.2975 -0.1390 -0.2483
   47MOL0     O 6379   6.177   7.538   9.126  0.3884  0.5949  0.2777
   47MOL0     C 6380   6.086   7.640   9.141 -0.5800  0.4269  0.7344
   47MOL0     C 6381   5.950   7.610   9.128 -0.2689  0.1801 -0.4527
   47MOL0     C 6382   5.851   7.708   9.162 -0.4554  0.1177  0.8112
   47MOL0     C 6383   5.888   7.840   9.203  0.5000  0.0304  0.2301
   47MOL0     O 6384   5.793   7.935   9.212 -0.0033  0.0685  0.6334
   47MOL0     C 6385   5.833   8.069   9.265 -0.1472  0.6279 -0.1288
   47MOL0     C 6386   5.700   8.150   9.270 -1.0288  0.0595  0.9122
   47MOL0     C 6387   5.629   8.146   9.139 -0.0542  0.3164  0.6826
   47MOL0     C 6388   5.511   8.242   9.140 -0.2819  0.6294 -0.8471
   47MOL0     C 6389   5.427   8.238   9.021 -0.4072  0.6414  0.2944
   47MOL0     C 6390   5.285   8.292   9.044 -0.0687 -0.0129  0.0322
   47MOL0     C 6391   5.291   8.445   9.073  0.9168  0.7319 -0.1325
   47MOL0     C 6392   5.148   8.499   9.094 -0.6205  0.3475 -0.0565
   47MOL0    Cl 6393   5.147   8.682   9.123 -0.1900 -0.3242 -0.0796
   47MOL0     C 6394   6.024   7.858   9.233 -0.1399  0.0876  1.0492
   47MOL0     C 6395   6.115   7.759   9.206 -0.7049  0.6095 -0.4411
   47MOL0     O 6396   6.385   7.485   9.056 -0.6810  0.0632  0.3437
   47MOL0     C 6397   6.167   7.611   8.828 -0.2184 -0.1795 -0.0465
   47MOL0     C 6398   6.165   7.676   8.704  0.1309 -1.4613  0.0909
   47MOL0     N 6399   6.607   8.225   8.132  0.1701  0.4565 -0.8954
   47MOL0     N 6400   6.680   8.295   8.046 -0.2286  0.7709  0.4860
   47MOL0     C 6401   7.286   7.523   7.681 -0.2983  0.4729 -0.4240
   47MOL0     C 6402   7.262   7.391   7.700  0.0094  0.2316 -0.3722
   47MOL0     C 6403   7.109   6.960   7.714  0.6146  0.0512 -0.0233
   47MOL0     C 6404   7.074   6.918   7.846 -0.4933  0.7772  0.1994
   47MOL0     C 6405   6.996   6.801   7.872 -0.0789  0.3805  0.0795
   47MOL0     C 6406   6.943   6.735   7.765 -0.7743  0.1000  0.8837
   47MOL0     O 6407   6.863   6.632   7.787  0.0803  0.2087 -0.5166
   47MOL0     C 6408   6.906   6.517   7.854  0.1366  0.3149 -0.1763
   47MOL0     C 6409   6.788   6.445   7.912 -0.0250  0.0647 -0.0336
   47MOL0     C 6410   6.837   6.305   7.953  0.1075  1.2192  0.8094
   47MOL0     C 6411   6.724   6.231   8.024 -0.8123  0.5845  0.0989
   47MOL0     C 6412   6.671   6.299   8.140 -0.7350  0.5959 -0.6685
   47MOL0     C 6413   6.626   6.363   8.236 -0.5927  0.6403  1.0389
   47MOL0     C 6414   6.960   6.789   7.635  0.6344  1.3921 -0.3867
   47MOL0     C 6415   7.046   6.899   7.602 -0.9789 -0.1291 -0.4335
   47MOL0     C 6416   7.066   6.935   7.462 -0.8753  0.6352 -0.1917
   47MOL0     H 6417   7.016   7.355   7.477 -1.1037  2.8388  0.1121
   47MOL0     H 6418   7.039   7.597   7.467 -0.1901  0.1879 -0.1085
   47MOL0     H 6419   7.137   7.804   7.783 -1.6772 -2.3641  0.0031
   47MOL0     H 6420   7.015   7.760   7.665 -3.1830  2.0021  2.1210
   47MOL0     H 6421   7.220   7.981   7.636 -1.0605  2.2408  1.7289
   47MOL0     H 6422   7.110   7.939   7.502  2.5026  1.2653 -1.1387
   47MOL0     H 6423   6.922   8.005   7.610 -0.2068  0.3364  0.7578
   47MOL0     H 6424   6.996   8.045   7.769  0.7836  2.5748  0.5803
   47MOL0     H 6425   7.099   8.234   7.709 -1.0692  2.4894  0.2014
   47MOL0     H 6426   7.096   8.196   7.544  2.9869  3.9866  3.1532
   47MOL0     H 6427   6.838   8.220   7.527 -0.5749  0.7795  0.4334
   47MOL0     H 6428   6.936   8.359   7.548  0.5873  1.4638  1.0724
   47MOL0     H 6429   6.849   8.243   7.803 -2.7214 -0.1229  1.2761
   47MOL0     H 6430   6.879   8.408   7.766 -2.2281  1.2516 -1.4043
   47MOL0     H 6431   6.627   8.257   7.714 -0.3034  0.7064  1.9743
   47MOL0     H 6432   6.655   8.399   7.630 -0.5364 -1.3629 -0.9651
   47MOL0     H 6433   6.702   8.505   7.868 -0.2309  1.5401 -3.1196
   47MOL0     H 6434   6.532   8.475   7.815 -2.2269 -2.1137  1.4321
   47MOL0     H 6435   6.385   8.330   7.923  0.9844 -1.8550 -0.4989
   47MOL0     H 6436   6.337   8.076   8.101  0.9752 -1.4198  1.3229
   47MOL0     H 6437   6.276   8.231   8.177  1.4208  0.8595 -1.2379
   47MOL0     H 6438   6.472   8.021   8.278  0.3502  0.6982 -0.4272
   47MOL0     H 6439   6.424   8.173   8.365 -1.2257 -0.5579  0.3190
   47MOL0     H 6440   6.191   8.077   8.369  0.5986  0.0996  1.6623
   47MOL0     H 6441   6.240   7.930   8.308 -0.6371  1.1672 -1.6553
   47MOL0     H 6442   6.423   7.932   8.500  0.4029  1.5718 -0.2448
   47MOL0     H 6443   6.302   8.053   8.576 -0.0428 -0.0531  0.4491
   47MOL0     H 6444   6.418   7.886   8.745  0.4039 -0.9064 -0.7368
   47MOL0     H 6445   6.549   7.844   8.960  1.9887 -1.7868 -0.2170
   47MOL0     H 6446   6.536   7.681   9.029 -1.0149 -1.2489 -0.1835
   47MOL0     H 6447   6.432   7.815   9.078 -1.0527 -1.4437  0.4697
   47MOL0     H 6448   5.931   7.508   9.096  2.4073 -0.7820  0.7313
   47MOL0     H 6449   5.747   7.685   9.138 -0.6153 -0.3515  1.9112
   47MOL0     H 6450   5.866   8.050   9.367 -1.6063 -5.5889 -0.3943
   47MOL0     H 6451   5.904   8.123   9.202  0.5425 -0.0354  0.0715
   47MOL0     H 6452   5.631   8.099   9.338 -3.7280  0.0659 -1.6084
   47MOL0     H 6453   5.715   8.255   9.297  2.2720 -0.0868  0.1285
   47MOL0     H 6454   5.582   8.049   9.120  1.0252  0.1114 -1.1310
   47MOL0     H 6455   5.697   8.174   9.058  1.0266 -1.4714  0.9310
   47MOL0     H 6456   5.548   8.343   9.164 -1.8903  1.5058 -1.9495
   47MOL0     H 6457   5.459   8.220   9.234 -1.2981  0.6961 -1.3869
   47MOL0     H 6458   5.475   8.294   8.940  0.6216  0.5696  0.8394
   47MOL0     H 6459   5.417   8.132   8.998 -1.0153  0.7449  0.0685
   47MOL0     H 6460   5.228   8.229   9.114 -1.5407 -0.9826 -1.9492
   47MOL0     H 6461   5.234   8.279   8.949 -1.4827  0.9460  0.6240
   47MOL0     H 6462   5.340   8.513   9.002  1.5648  4.9829  3.8593
   47MOL0     H 6463   5.344   8.455   9.169 -2.1377  1.3535  1.6090
   47MOL0     H 6464   5.112   8.468   9.193  1.1416  0.9832  0.8150
   47MOL0     H 6465   5.074   8.475   9.016 -1.6780  0.3181  0.9293
   47MOL0     H 6466   6.060   7.953   9.271 -1.0353  0.8903 -0.0470
   47MOL0     H 6467   6.215   7.779   9.243 -0.0552  1.3595 -2.4877
   47MOL0     H 6468   6.098   7.539   8.871 -0.3040 -0.3923 -0.5375
   47MOL0     H 6469   6.084   7.655   8.636 -0.0916  0.3379 -0.2715
   47MOL0     H 6470   7.351   7.573   7.753  0.3983 -0.3753 -0.4429
   47MOL0     H 6471   7.323   7.338   7.772 -1.8391  0.3476  1.3684
   47MOL0     H 6472   7.122   6.976   7.925  2.1759  0.1445 -0.8376
   47MOL0     H 6473   6.968   6.789   7.977 -0.1806  2.1134  0.2861
   47MOL0     H 6474   6.944   6.456   7.772 -2.2227  2.2699 -2.9538
   47MOL0     H 6475   6.980   6.526   7.934  0.4587  0.4090 -0.4824
   47MOL0     H 6476   6.703   6.445   7.845  0.6691  0.4886 -0.9345
   47MOL0     H 6477   6.762   6.504   8.000  0.4969 -0.0964  0.2371
   47MOL0     H 6478   6.873   6.262   7.858 -0.3273  2.8635 -0.1442
   47MOL0     H 6479   6.925   6.305   8.018  1.3421  1.2732 -0.7734
   47MOL0     H 6480   6.755   6.129   8.047  0.5133  0.4392 -2.0165
   47MOL0     H 6481   6.643   6.210   7.954 -1.8295  1.0524  1.1091
   47MOL0     H 6482   6.600   6.421   8.322 -0.2958  0.5356  1.2003
   47MOL0     H 6483   6.905   6.729   7.563 -0.4922 -1.3689  2.5228
   47MOL0     H 6484   7.155   6.879   7.432 -1.5332 -0.6266  0.1417
   47MOL0     H 6485   6.976   6.922   7.401 -0.5458 -1.0829 -0.3657
   47MOL0     H 6486   7.090   7.041   7.450  3.8659  0.0338  1.7496
   48MOL0     O 6487   8.287   7.888   3.448 -0.4691 -0.4176 -0.3613
   48MOL0     C 6488   8.229   7.829   3.546  0.0067 -0.2176  0.4146
   48MOL0     O 6489   8.114   7.879   3.600  0.4472  0.1131  0.1243
   48MOL0     C 6490   8.035   7.966   3.533  0.1793  0.0726  0.0700
   48MOL0     C 6491   7.908   7.964   3.573 -0.6225 -0.2351 -0.1364
   48MOL0     C 6492   7.788   8.023   3.510 -0.3393  0.2352  0.2597
   48MOL0     C 6493   7.819   8.111   3.404 -0.1519 -0.2005  0.6112
   48MOL0     O 6494   7.720   8.175   3.335 -0.0662  0.7921  0.1313
   48MOL0     C 6495   7.718   8.308   3.384 -0.0673 -0.4267  0.1277
   48MOL0     C 6496   7.585   8.375   3.333 -0.6643 -0.1715  0.3758
   48MOL0     C 6497   7.573   8.507   3.409  0.7335  0.3179  0.3726
   48MOL0     C 6498   7.443   8.588   3.375  0.4963 -0.2711 -0.1003
   48MOL0     C 6499   7.436   8.723   3.453  0.1888  0.7135 -0.6786
   48MOL0     C 6500   7.309   8.805   3.409 -0.4748 -0.0536  0.0709
   48MOL0     C 6501   7.172   8.751   3.435 -1.1711  0.2924  0.1800
   48MOL0     C 6502   7.147   8.777   3.590 -0.7990 -0.2246  0.5315
   48MOL0     N 6503   7.062   8.889   3.613  0.6363 -0.7957  0.4374
   48MOL0     C 6504   7.073   9.020   3.556 -0.1224  0.4930  0.1943
   48MOL0     C 6505   6.966   9.083   3.608  0.3705  0.4421 -0.9738
   48MOL0     C 6506   6.940   9.229   3.579  0.0320  0.6203 -0.5919
   48MOL0     C 6507   6.831   9.235   3.464 -0.6258 -0.7716  0.2060
   48MOL0     C 6508   6.823   9.376   3.414 -0.0514  0.6560 -0.3105
   48MOL0     C 6509   6.753   9.383   3.273 -0.4548 -0.6379 -0.2351
   48MOL0     O 6510   6.626   9.314   3.268  0.1743 -0.3029  0.4062
   48MOL0     C 6511   6.559   9.316   3.151 -0.1495  0.5481  0.1799
   48MOL0     C 6512   6.461   9.222   3.141 -0.5831  0.2844  0.6115
   48MOL0     C 6513   6.386   9.195   3.027  0.2496 -0.3669 -0.6005
   48MOL0     C 6514   6.270   9.105   3.032  0.1392  0.2799 -0.3135
   48MOL0     C 6515   6.417   9.265   2.907  0.1073  0.3328 -0.1308
   48MOL0     C 6516   6.362   9.253   2.769  0.4281  0.3410  0.5675
   48MOL0     O 6517   6.427   9.332   2.674 -0.4454  0.2108 -0.9091
   48MOL0     C 6518   6.395   9.312   2.544  0.3336  0.3596 -0.8841
   48MOL0     C 6519   6.281   9.376   2.501  0.8916 -0.5771  0.7040
   48MOL0     C 6520   6.244   9.362   2.364  0.2528 -0.0564 -1.0434
   48MOL0     C 6521   6.325   9.278   2.282  0.9759 -0.5019  0.2730
   48MOL0     O 6522   6.282   9.258   2.153 -0.3760 -0.1635  0.2175
   48MOL0     C 6523   6.364   9.325   2.050  0.6739  0.5333  0.6570
   48MOL0     C 6524   6.272   9.432   1.988  0.4400 -0.3627 -0.2506
   48MOL0     C 6525   6.157   9.373   1.906  0.6016  0.1245 -0.5207
   48MOL0     C 6526   6.065   9.482   1.839  0.3790 -0.0125  0.1530
   48MOL0     C 6527   5.963   9.415   1.746 -0.1199 -0.5367 -0.2854
   48MOL0     C 6528   6.028   9.346   1.623  0.6440 -1.1210 -1.3484
   48MOL0     C 6529   6.101   9.426   1.526 -0.4658 -0.5232 -0.2902
   48MOL0     C 6530   6.154   9.353   1.394  0.1368 -0.3899  0.5365
   48MOL0    Cl 6531   6.293   9.245   1.429 -0.1019  0.0022 -0.1867
   48MOL0     C 6532   6.444   9.216   2.330 -0.7974 -0.5510  0.6207
   48MOL0     C 6533   6.479   9.234   2.460 -0.5784 -0.2362  0.0447
   48MOL0     O 6534   6.260   9.188   2.740  0.3702  0.6390  0.6281
   48MOL0     C 6535   6.528   9.357   2.921 -0.4803 -0.5722 -0.8968
   48MOL0     C 6536   6.601   9.381   3.036 -0.2547  0.3456 -0.1999
   48MOL0     N 6537   6.907   9.004   3.698  0.7349 -0.3108 -1.0662
   48MOL0     N 6538   6.951   8.887   3.695 -0.5175 -0.7335 -0.1931
   48MOL0     C 6539   7.958   8.123   3.359 -0.3640  0.2140 -0.3265
   48MOL0     C 6540   8.059   8.055   3.428  0.3482 -0.6353 -0.2531
   48MOL0     C 6541   8.305   7.712   3.602 -0.2270  0.3360 -0.9083
   48MOL0     C 6542   8.279   7.675   3.740 -0.0211  0.1084  0.0452
   48MOL0     C 6543   8.321   7.559   3.799 -0.0879 -0.0057 -0.7325
   48MOL0     C 6544   8.425   7.484   3.747  0.9102 -0.1893  0.7857
   48MOL0     O 6545   8.471   7.383   3.831 -0.7429 -0.3360 -0.0855
   48MOL0     C 6546   8.576   7.292   3.782 -0.0346  0.7563 -0.1071
   48MOL0     C 6547   8.526   7.205   3.666  0.0984  0.4775 -0.6497
   48MOL0     C 6548   8.473   7.064   3.715  0.7462  0.3899  0.3825
   48MOL0     C 6549   8.358   7.088   3.814  0.3218  0.2953  0.3981
   48MOL0     C 6550   8.310   6.961   3.861 -0.2635 -0.9419 -0.1649
   48MOL0     C 6551   8.262   6.853   3.890 -0.5467  0.3488  2.2292
   48MOL0     C 6552   8.468   7.529   3.616 -0.4154 -0.9759 -0.1736
   48MOL0     C 6553   8.415   7.638   3.540  0.4178  0.2602 -0.7078
   48MOL0     C 6554   8.483   7.679   3.408 -0.0609  0.7047  0.7315
   48MOL0     H 6555   7.886   7.901   3.659  0.7717 -0.4475  0.1020
   48MOL0     H 6556   7.687   8.019   3.549 -0.2856 -2.2468  0.3075
   48MOL0     H 6557   7.808   8.355   3.342  0.0968 -1.3995 -0.6701
   48MOL0     H 6558   7.724   8.312   3.493  2.5926 -0.0044  0.0313
   48MOL0     H 6559   7.597   8.391   3.226  1.2401 -0.0558  0.5700
   48MOL0     H 6560   7.497   8.311   3.348  0.3169 -2.1457 -1.7163
   48MOL0     H 6561   7.584   8.490   3.517  0.1204 -0.4053  0.3289
   48MOL0     H 6562   7.649   8.580   3.379  0.2642  1.0654  0.9355
   48MOL0     H 6563   7.446   8.604   3.266  1.0720  1.5501  0.1513
   48MOL0     H 6564   7.352   8.527   3.380 -1.7050  2.3542 -3.4818
   48MOL0     H 6565   7.526   8.784   3.444 -0.9188  3.1441  2.7006
   48MOL0     H 6566   7.430   8.699   3.560 -1.4148 -1.4163 -1.1538
   48MOL0     H 6567   7.317   8.908   3.444 -1.6281  1.6380 -4.0223
   48MOL0     H 6568   7.327   8.824   3.302  0.4493 -1.9768 -0.1687
   48MOL0     H 6569   7.167   8.643   3.418 -0.2256  0.7969 -4.8455
   48MOL0     H 6570   7.096   8.789   3.366  0.4035  2.5849 -0.4114
   48MOL0     H 6571   7.105   8.689   3.638  2.2689 -1.6939  0.7920
   48MOL0     H 6572   7.242   8.800   3.640 -1.0472  0.4039  0.7255
   48MOL0     H 6573   7.146   9.054   3.483  0.8661 -0.3234  0.7817
   48MOL0     H 6574   7.030   9.277   3.539  0.6857 -2.8406 -3.8993
   48MOL0     H 6575   6.915   9.288   3.667 -0.3522  1.5633 -1.3139
   48MOL0     H 6576   6.870   9.172   3.384  1.5105 -1.5611  1.7842
   48MOL0     H 6577   6.733   9.202   3.498 -1.1019 -2.0933 -2.2262
   48MOL0     H 6578   6.758   9.429   3.484  1.0563  2.2024 -0.3920
   48MOL0     H 6579   6.911   9.439   3.395  1.5631 -1.8717 -1.7702
   48MOL0     H 6580   6.723   9.486   3.252 -0.5799 -0.8692 -1.2498
   48MOL0     H 6581   6.821   9.350   3.193  1.8013  4.2534 -0.7044
   48MOL0     H 6582   6.424   9.171   3.229 -0.4297  1.6022  1.4592
   48MOL0     H 6583   6.269   9.028   2.954 -1.7045 -0.4983  0.4046
   48MOL0     H 6584   6.176   9.158   3.021 -2.0408 -2.7633  1.7569
   48MOL0     H 6585   6.267   9.053   3.129 -1.1223  0.4643 -0.2416
   48MOL0     H 6586   6.210   9.434   2.559  2.5065  1.5082  0.7305
   48MOL0     H 6587   6.155   9.409   2.320 -0.6133 -0.2690  0.4190
   48MOL0     H 6588   6.454   9.370   2.093  1.3700  0.7873 -0.9897
   48MOL0     H 6589   6.394   9.264   1.964  0.3441  3.3841 -1.6338
   48MOL0     H 6590   6.228   9.503   2.059 -0.5227 -1.5961  0.4312
   48MOL0     H 6591   6.339   9.492   1.925 -0.7719  0.3001 -0.9458
   48MOL0     H 6592   6.099   9.306   1.971 -0.2629 -1.8774 -3.1578
   48MOL0     H 6593   6.201   9.313   1.825  2.5856  1.7618 -0.7437
   48MOL0     H 6594   6.119   9.552   1.775  0.6266 -0.0176  0.3525
   48MOL0     H 6595   6.021   9.541   1.920 -0.4166  1.9032 -1.5670
   48MOL0     H 6596   5.906   9.341   1.802 -0.5568 -2.2623 -2.8265
   48MOL0     H 6597   5.895   9.497   1.720  1.4150  0.5283 -1.0500
   48MOL0     H 6598   5.948   9.304   1.563 -0.0676  0.2272 -1.3690
   48MOL0     H 6599   6.077   9.251   1.648 -1.5816 -1.8126  0.8024
   48MOL0     H 6600   6.188   9.476   1.570 -1.2621  1.8901 -1.2764
   48MOL0     H 6601   6.025   9.500   1.497  0.1864  0.6058  0.7594
   48MOL0     H 6602   6.185   9.429   1.323 -3.3980  0.7378 -0.0038
   48MOL0     H 6603   6.069   9.302   1.347  0.5922  0.3723 -1.1454
   48MOL0     H 6604   6.507   9.181   2.249 -1.1878  2.2457 -1.0428
   48MOL0     H 6605   6.581   9.210   2.488 -0.7480 -1.4495 -0.3196
   48MOL0     H 6606   6.553   9.422   2.838  2.0302 -0.5723 -0.2158
   48MOL0     H 6607   6.671   9.464   3.040  0.7699 -0.5237  0.6972
   48MOL0     H 6608   7.979   8.176   3.267  1.8670 -0.0607 -0.0247
   48MOL0     H 6609   8.160   8.068   3.391  1.2064  0.3789  2.2483
   48MOL0     H 6610   8.205   7.730   3.797  1.5332  0.6579  1.6243
   48MOL0     H 6611   8.281   7.539   3.898 -2.1513  2.6736 -0.9060
   48MOL0     H 6612   8.667   7.344   3.750 -0.6765  1.4376 -0.8841
   48MOL0     H 6613   8.608   7.229   3.865  3.6675  1.5764 -0.7371
   48MOL0     H 6614   8.602   7.195   3.588  0.8279  1.2751 -0.0624
   48MOL0     H 6615   8.442   7.259   3.621 -1.5531 -1.3440  0.1078
   48MOL0     H 6616   8.425   7.003   3.638  2.2790 -0.3708 -0.0168
   48MOL0     H 6617   8.557   7.007   3.757  1.3325  3.0569  3.2727
   48MOL0     H 6618   8.283   7.151   3.766 -1.4606 -1.0254  1.3157
   48MOL0     H 6619   8.394   7.144   3.901  1.1589  2.4515 -1.2566
   48MOL0     H 6620   8.233   6.753   3.916 -4.0484  0.3581 -0.7793
   48MOL0     H 6621   8.549   7.469   3.576 -1.3084 -1.7976 -0.7821
   48MOL0     H 6622   8.450   7.771   3.359 -2.5260  1.3206  3.2650
   48MOL0     H 6623   8.588   7.696   3.434  0.5486 -0.1878 -1.0353
   48MOL0     H 6624   8.481   7.601   3.332 -0.4965  1.9379 -0.5645
   49MOL0     O 6625   3.781   3.768   8.691 -0.4381 -0.4618  0.4741
   49MOL0     C 6626   3.878   3.696   8.666 -0.4109  0.1996 -0.6867
   49MOL0     O 6627   3.904   3.646   8.545  0.9172 -0.3484  0.0657
   49MOL0     C 6628   3.794   3.597   8.473  0.6431  0.1009 -0.5224
   49MOL0     C 6629   3.753   3.654   8.351  0.6035 -0.5572 -0.7248
   49MOL0     C 6630   3.657   3.601   8.263 -0.0173 -0.4175  0.1261
   49MOL0     C 6631   3.604   3.476   8.298 -0.1496 -0.0883 -0.1200
   49MOL0     O 6632   3.507   3.412   8.226 -1.2467  0.1164  0.7414
   49MOL0     C 6633   3.514   3.409   8.083  0.3160 -0.5849  0.1673
   49MOL0     C 6634   3.391   3.478   8.017 -0.6223 -0.7584 -0.5286
   49MOL0     C 6635   3.262   3.400   8.045  0.3908  0.5940  0.9187
   49MOL0     C 6636   3.249   3.271   7.964 -0.7059 -0.9718 -0.6300
   49MOL0     C 6637   3.112   3.198   7.994 -1.1060 -0.0121 -0.5187
   49MOL0     C 6638   3.093   3.053   7.940  0.6126 -0.4997 -0.5538
   49MOL0     C 6639   3.176   2.954   8.014 -0.0693 -1.2371  0.3295
   49MOL0     C 6640   3.104   2.916   8.147  0.0123 -0.3336  0.9273
   49MOL0     N 6641   3.169   2.800   8.208 -0.6194  0.4854  0.3653
   49MOL0     C 6642   3.205   2.784   8.334 -0.2460  0.5433 -0.8960
   49MOL0     C 6643   3.267   2.668   8.352 -0.2362  0.2843  0.6135
   49MOL0     C 6644   3.318   2.595   8.474 -0.4135 -0.5882  0.5486
   49MOL0     C 6645   3.471   2.611   8.493  0.7708  0.8275  0.8516
   49MOL0     C 6646   3.503   2.579   8.638 -0.0896  0.0331  0.0291
   49MOL0     C 6647   3.648   2.572   8.674  0.8212 -0.3431 -0.3717
   49MOL0     O 6648   3.710   2.702   8.650  0.1618 -0.7615  0.4658
   49MOL0     C 6649   3.800   2.738   8.753  1.0523  1.2527 -0.6645
   49MOL0     C 6650   3.912   2.669   8.783 -0.3742 -0.3125  0.2052
   49MOL0     C 6651   3.996   2.707   8.884  0.0364  0.8840 -0.0863
   49MOL0     C 6652   4.117   2.611   8.899  0.1063  0.2559  0.8618
   49MOL0     C 6653   3.970   2.822   8.960  0.5234  0.2075  0.1899
   49MOL0     C 6654   4.047   2.859   9.080  0.4215  0.2264 -0.7879
   49MOL0     O 6655   3.973   2.920   9.178  0.2140 -0.2064 -0.3711
   49MOL0     C 6656   4.034   2.946   9.307  0.8386  0.0868  0.6149
   49MOL0     C 6657   3.941   3.012   9.392 -0.4875  0.8963  0.0025
   49MOL0     C 6658   3.954   3.021   9.526 -0.8041 -0.2749 -0.2936
   49MOL0     C 6659   4.056   2.941   9.594  0.0543 -0.0699  0.9335
   49MOL0     O 6660   4.053   2.955   9.730 -0.0826 -0.2586 -0.2431
   49MOL0     C 6661   4.142   2.878   9.810  0.1890  0.5965 -0.9428
   49MOL0     C 6662   4.130   2.945   9.949 -0.0774  0.2353  0.2156
   49MOL0     C 6663   4.129   2.828  10.054 -0.3513 -0.4473 -1.7506
   49MOL0     C 6664   4.131   2.888  10.199 -0.6559 -0.4004 -1.1526
   49MOL0     C 6665   4.148   2.779  10.308  0.2205  0.2455 -0.3169
   49MOL0     C 6666   4.182   2.827  10.454  0.5469  0.3637  0.1598
   49MOL0     C 6667   4.135   2.714  10.546 -0.3038  1.4192  0.1285
   49MOL0     C 6668   4.192   2.751  10.691 -0.4121  0.3266  0.0020
   49MOL0    Cl 6669   4.232   2.622  10.806 -0.5274 -0.1353 -0.0465
   49MOL0     C 6670   4.154   2.882   9.512  0.4757  0.1555 -0.0190
   49MOL0     C 6671   4.147   2.888   9.369 -0.0566  0.4699 -0.1952
   49MOL0     O 6672   4.168   2.844   9.080  0.3085 -0.0313 -0.1668
   49MOL0     C 6673   3.851   2.897   8.930  0.4549  0.0397 -0.2842
   49MOL0     C 6674   3.769   2.852   8.827  0.6775 -0.4654  0.0794
   49MOL0     N 6675   3.248   2.603   8.226 -1.3889 -0.4608 -0.9965
   49MOL0     N 6676   3.206   2.687   8.138 -0.3629 -0.8501 -0.1135
   49MOL0     C 6677   3.637   3.419   8.420  0.2208 -0.5258  0.1042
   49MOL0     C 6678   3.742   3.467   8.501  1.3044 -0.3546 -0.6478
   49MOL0     C 6679   3.995   3.693   8.764 -1.5347 -0.1666  0.0625
   49MOL0     C 6680   4.128   3.659   8.711  0.1787 -0.0639 -0.1891
   49MOL0     C 6681   4.237   3.681   8.793 -0.2902  0.3744 -0.2267
   49MOL0     C 6682   4.227   3.707   8.927 -0.1118 -1.3687  0.4782
   49MOL0     O 6683   4.349   3.730   9.004  0.3944  0.0996  0.3059
   49MOL0     C 6684   4.321   3.759   9.140 -0.0018 -0.7741  0.5311
   49MOL0     C 6685   4.448   3.792   9.220 -0.4663  0.8131 -0.4955
   49MOL0     C 6686   4.505   3.921   9.176 -0.1154  0.3139 -0.4000
   49MOL0     C 6687   4.623   3.961   9.262 -0.2692  0.3506 -0.0527
   49MOL0     C 6688   4.730   3.855   9.253  0.3401 -0.8938 -0.0481
   49MOL0     C 6689   4.816   3.772   9.235  1.2977 -0.2867 -0.0217
   49MOL0     C 6690   4.097   3.723   8.982  0.4849  0.8308  0.3390
   49MOL0     C 6691   3.978   3.710   8.904 -0.6559  0.4369  0.7038
   49MOL0     C 6692   3.848   3.711   8.980  0.3512 -0.3173  0.0908
   49MOL0     H 6693   3.806   3.745   8.327 -1.5742  0.6472 -1.2777
   49MOL0     H 6694   3.645   3.644   8.163  1.6740 -4.8090 -2.2435
   49MOL0     H 6695   3.506   3.307   8.043  1.3657 -1.0174  0.9980
   49MOL0     H 6696   3.602   3.460   8.044 -1.2774  1.4242 -1.0272
   49MOL0     H 6697   3.387   3.582   8.048  0.6179 -0.1396 -2.2744
   49MOL0     H 6698   3.409   3.493   7.910  0.1013  0.2341 -0.2790
   49MOL0     H 6699   3.256   3.377   8.152  1.8289  0.4893  0.9856
   49MOL0     H 6700   3.166   3.452   8.032  0.0415  0.0826  1.3956
   49MOL0     H 6701   3.248   3.300   7.859  1.1478 -0.9671 -0.6796
   49MOL0     H 6702   3.336   3.207   7.981 -0.3104 -0.2607  0.0614
   49MOL0     H 6703   3.028   3.255   7.954  0.5268  1.8057 -1.5767
   49MOL0     H 6704   3.090   3.205   8.101  0.6865  0.1399 -0.1185
   49MOL0     H 6705   2.988   3.024   7.953  0.4205 -0.2278 -1.4461
   49MOL0     H 6706   3.121   3.056   7.835  0.1468  0.0942 -0.6673
   49MOL0     H 6707   3.276   2.998   8.019 -0.2466 -0.5867 -1.2582
   49MOL0     H 6708   3.174   2.868   7.947 -0.1703 -2.5161  1.9055
   49MOL0     H 6709   3.098   3.000   8.216 -0.3292  0.7956 -0.4229
   49MOL0     H 6710   2.998   2.894   8.133 -0.1965  0.1916  1.6555
   49MOL0     H 6711   3.200   2.851   8.420  1.0133  0.5726 -0.8364
   49MOL0     H 6712   3.292   2.490   8.463  0.8067 -0.6983 -1.5428
   49MOL0     H 6713   3.265   2.643   8.557  0.2968  0.1398  0.5916
   49MOL0     H 6714   3.517   2.547   8.418 -2.2348 -0.2156 -0.2615
   49MOL0     H 6715   3.489   2.712   8.453 -2.6503  0.6058 -1.6857
   49MOL0     H 6716   3.457   2.658   8.699 -0.7147 -0.9300  0.8404
   49MOL0     H 6717   3.467   2.480   8.667 -0.3016  0.1624  0.2162
   49MOL0     H 6718   3.645   2.565   8.783  0.3876  0.9782 -0.2831
   49MOL0     H 6719   3.713   2.493   8.635  3.6210  1.8497 -0.4987
   49MOL0     H 6720   3.934   2.584   8.719  0.6545  0.1798 -0.1199
   49MOL0     H 6721   4.133   2.590   9.005 -0.1298  0.6827  0.9812
   49MOL0     H 6722   4.206   2.661   8.861 -0.9882  1.1448 -0.6289
   49MOL0     H 6723   4.113   2.516   8.844 -1.4170 -0.5766  2.3124
   49MOL0     H 6724   3.859   3.049   9.331  0.8685  2.3924 -1.0257
   49MOL0     H 6725   3.892   3.072   9.599 -0.9557 -2.9872  1.6648
   49MOL0     H 6726   4.112   2.773   9.813 -0.4663  0.7782  2.4178
   49MOL0     H 6727   4.247   2.872   9.779  1.4889 -0.2115  3.0327
   49MOL0     H 6728   4.221   3.001   9.974 -0.4091  0.0121  2.1460
   49MOL0     H 6729   4.037   2.997   9.971 -1.3700 -0.4189 -3.2042
   49MOL0     H 6730   4.224   2.775  10.037 -0.0724 -1.7927  2.6462
   49MOL0     H 6731   4.041   2.766  10.037 -1.4369  0.0171  1.4222
   49MOL0     H 6732   4.038   2.941  10.222  0.4800  1.1018  0.1856
   49MOL0     H 6733   4.202   2.971  10.205  0.8937 -1.6810 -1.1219
   49MOL0     H 6734   4.060   2.715  10.298  0.3772  0.2384 -1.9957
   49MOL0     H 6735   4.233   2.723  10.268  0.6251 -1.0560  2.2058
   49MOL0     H 6736   4.138   2.923  10.483  4.2543  1.9115  1.2717
   49MOL0     H 6737   4.291   2.835  10.460  0.8451 -1.1313 -2.2253
   49MOL0     H 6738   4.185   2.624  10.509  1.2471  3.5058 -3.4439
   49MOL0     H 6739   4.028   2.694  10.547  0.1908 -1.7721  0.3630
   49MOL0     H 6740   4.125   2.821  10.744  0.4915  1.6025 -0.4856
   49MOL0     H 6741   4.285   2.807  10.680  0.8722 -1.5914  0.5974
   49MOL0     H 6742   4.243   2.835   9.553  0.1895  0.6064  1.1762
   49MOL0     H 6743   4.227   2.842   9.312 -1.9109  0.8881 -3.4016
   49MOL0     H 6744   3.826   2.984   8.989  1.8423  1.6259 -1.9407
   49MOL0     H 6745   3.672   2.897   8.806  0.6352 -0.3198  0.5809
   49MOL0     H 6746   3.589   3.327   8.450 -0.0487 -0.9775 -1.6069
   49MOL0     H 6747   3.776   3.417   8.591 -2.3398  0.2390  1.2473
   49MOL0     H 6748   4.135   3.623   8.609  0.2234 -3.6077  0.9426
   49MOL0     H 6749   4.337   3.676   8.751 -0.7850 -1.7200 -1.3166
   49MOL0     H 6750   4.259   3.848   9.157  0.4583  0.0266 -1.6716
   49MOL0     H 6751   4.268   3.674   9.185  2.6902 -2.6759  0.3453
   49MOL0     H 6752   4.524   3.720   9.186 -0.0029  2.3355 -2.9145
   49MOL0     H 6753   4.442   3.776   9.328 -0.7428 -1.2993 -0.7778
   49MOL0     H 6754   4.546   3.913   9.075 -0.5244  0.2727 -0.5607
   49MOL0     H 6755   4.432   4.002   9.179  0.7453  1.1209  2.4446
   49MOL0     H 6756   4.589   3.961   9.366 -0.4204  3.8211  0.0138
   49MOL0     H 6757   4.655   4.065   9.249 -2.0416  0.7693 -1.5244
   49MOL0     H 6758   4.894   3.703   9.214  0.6536 -0.5366 -1.8105
   49MOL0     H 6759   4.084   3.739   9.088 -2.9446 -0.5582  0.2394
   49MOL0     H 6760   3.785   3.637   8.929  3.4290 -1.3266 -2.5292
   49MOL0     H 6761   3.859   3.675   9.083 -3.2732 -5.5128 -0.8755
   49MOL0     H 6762   3.801   3.809   8.978  2.4385  0.7370  0.3035
   50MOL0     O 6763   2.689  10.155   9.697 -0.0110 -0.4358  0.8344
   50MOL0     C 6764   2.583  10.166   9.760  0.0345 -1.2282 -0.3872
   50MOL0     O 6765   2.514  10.064   9.810  0.3949 -0.1981 -0.2399
   50MOL0     C 6766   2.567   9.937   9.788 -0.3132  0.1370 -0.1393
   50MOL0     C 6767   2.636   9.881   9.679  0.0750 -0.7941  0.4136
   50MOL0     C 6768   2.672   9.746   9.670 -1.3694  1.1788 -0.3910
   50MOL0     C 6769   2.640   9.661   9.778 -0.4324  0.3697  0.9693
   50MOL0     O 6770   2.669   9.527   9.783 -0.0579  0.0405  0.2083
   50MOL0     C 6771   2.716   9.463   9.662  0.4753 -0.4781  0.2371
   50MOL0     C 6772   2.724   9.307   9.675 -0.4827 -0.5334 -0.5642
   50MOL0     C 6773   2.591   9.231   9.709 -0.0724  0.6993 -0.6923
   50MOL0     C 6774   2.513   9.187   9.584 -0.1244  1.1263 -0.3839
   50MOL0     C 6775   2.397   9.100   9.602 -0.0005 -0.0479  0.1210
   50MOL0     C 6776   2.423   8.954   9.597  0.3326  0.1892 -0.2844
   50MOL0     C 6777   2.310   8.874   9.645 -0.5838  0.4542 -0.0880
   50MOL0     C 6778   2.369   8.727   9.675 -0.5507  0.1277  0.6412
   50MOL0     N 6779   2.255   8.647   9.703 -0.5084 -0.6903 -0.2610
   50MOL0     C 6780   2.152   8.682   9.781  0.0634  0.3924  0.4982
   50MOL0     C 6781   2.057   8.593   9.750  1.2731 -0.0183  0.7006
   50MOL0     C 6782   1.920   8.583   9.814  0.6723 -0.4714 -0.4538
   50MOL0     C 6783   1.928   8.529   9.958  0.5602 -0.5106 -0.4299
   50MOL0     C 6784   1.781   8.538  10.008 -0.1974  0.0928  0.2984
   50MOL0     C 6785   1.782   8.524  10.156 -0.0011 -1.4807 -0.0398
   50MOL0     O 6786   1.851   8.639  10.216 -0.0653 -0.0590 -0.1859
   50MOL0     C 6787   1.904   8.622  10.341  0.1879  0.3813  0.6462
   50MOL0     C 6788   1.890   8.505  10.425 -0.3566 -0.2880 -0.2284
   50MOL0     C 6789   1.970   8.499  10.539  0.4041 -0.2932  0.4345
   50MOL0     C 6790   1.944   8.364  10.628 -0.3908 -1.2636  0.0555
   50MOL0     C 6791   2.063   8.598  10.573 -0.2269 -0.7357  0.2237
   50MOL0     C 6792   2.170   8.588  10.681  1.0021 -1.2397 -0.3347
   50MOL0     O 6793   2.218   8.713  10.720 -0.8063  0.3640  0.3829
   50MOL0     C 6794   2.343   8.739  10.778 -0.0228  0.3310  0.0802
   50MOL0     C 6795   2.365   8.867  10.816 -0.7235 -0.6881 -0.4172
   50MOL0     C 6796   2.484   8.889  10.886  0.4442  0.1809  0.6099
   50MOL0     C 6797   2.584   8.787  10.895  0.8072  0.2796  0.1133
   50MOL0     O 6798   2.702   8.819  10.966  0.6241 -0.4406  0.4502
   50MOL0     C 6799   2.728   8.744  11.084 -0.7833  0.0063 -0.2108
   50MOL0     C 6800   2.876   8.770  11.103  0.5813  0.6496 -0.1106
   50MOL0     C 6801   2.927   8.704  11.230 -0.0454 -0.2896  0.4512
   50MOL0     C 6802   3.074   8.737  11.266  0.7252  0.6532  0.6300
   50MOL0     C 6803   3.107   8.693  11.409 -0.1026  1.0847 -0.2704
   50MOL0     C 6804   3.083   8.549  11.448 -0.2081 -0.0360 -0.2696
   50MOL0     C 6805   3.144   8.517  11.589  0.6571 -0.1222  0.3335
   50MOL0     C 6806   3.101   8.380  11.638 -0.4571 -0.8753 -0.3101
   50MOL0    Cl 6807   3.228   8.260  11.602  0.0552 -0.4466  0.5381
   50MOL0     C 6808   2.564   8.658  10.841  0.4793 -0.3499 -0.8067
   50MOL0     C 6809   2.438   8.640  10.782 -1.0217  0.2389  0.3254
   50MOL0     O 6810   2.204   8.481  10.718 -0.5777  0.1466 -0.8759
   50MOL0     C 6811   2.071   8.707  10.491 -0.0366 -0.6344  0.1227
   50MOL0     C 6812   1.983   8.723  10.388 -0.0624 -0.2167  0.3010
   50MOL0     N 6813   2.103   8.516   9.639  0.7019  0.3408 -0.5467
   50MOL0     N 6814   2.226   8.554   9.612  0.6985  0.9062  0.8018
   50MOL0     C 6815   2.576   9.711   9.892  0.4304 -0.5287 -0.0436
   50MOL0     C 6816   2.541   9.853   9.901 -0.5770  0.9456  0.3039
   50MOL0     C 6817   2.509  10.301   9.773 -0.3534 -0.0162  0.7625
   50MOL0     C 6818   2.435  10.354   9.668 -0.0179  0.8817  0.3856
   50MOL0     C 6819   2.362  10.471   9.690 -0.0789  0.6350 -0.1622
   50MOL0     C 6820   2.358  10.528   9.816 -0.3398 -1.0000  0.3901
   50MOL0     O 6821   2.282  10.642   9.822  0.3736  0.6424  0.6123
   50MOL0     C 6822   2.244  10.702   9.946 -0.3565  0.4954  0.8618
   50MOL0     C 6823   2.097  10.747   9.938 -0.2764  0.4301  0.0237
   50MOL0     C 6824   2.059  10.819   9.802 -0.2394 -0.3415 -0.1837
   50MOL0     C 6825   1.958  10.924   9.810 -0.0492  1.4548  0.5464
   50MOL0     C 6826   1.986  11.024   9.908 -0.2901 -1.2214  0.1918
   50MOL0     C 6827   1.992  11.118   9.981 -0.7879 -1.1397  0.8625
   50MOL0     C 6828   2.443  10.473   9.910  0.2630 -0.4134 -1.2262
   50MOL0     C 6829   2.514  10.359   9.894  0.1841  0.6649 -0.3532
   50MOL0     C 6830   2.608  10.316   9.998  0.3442 -0.0970 -0.2253
   50MOL0     H 6831   2.644   9.943   9.590  2.2869  0.4015  1.3338
   50MOL0     H 6832   2.725   9.706   9.584  2.1283 -1.5017  2.7183
   50MOL0     H 6833   2.814   9.501   9.631  0.0792 -0.1453 -0.6202
   50MOL0     H 6834   2.656   9.490   9.575  3.0481  0.0383 -1.4785
   50MOL0     H 6835   2.786   9.270   9.592 -2.2761  1.8018 -3.1279
   50MOL0     H 6836   2.795   9.295   9.757  1.9247  4.8958 -1.4115
   50MOL0     H 6837   2.622   9.142   9.764 -0.2038  2.1313  1.8047
   50MOL0     H 6838   2.533   9.286   9.783 -0.0524 -0.5852  0.3040
   50MOL0     H 6839   2.475   9.272   9.527  1.2735  0.3216 -2.6713
   50MOL0     H 6840   2.581   9.129   9.520 -1.0102 -0.0972 -0.2384
   50MOL0     H 6841   2.331   9.114   9.515 -0.8426 -5.0057 -0.3085
   50MOL0     H 6842   2.334   9.134   9.684  1.2022 -0.3897  1.2206
   50MOL0     H 6843   2.435   8.919   9.493 -0.8965 -1.2333  0.0102
   50MOL0     H 6844   2.513   8.934   9.656  0.2345 -1.5049 -0.6517
   50MOL0     H 6845   2.232   8.881   9.569  0.8458  0.9682 -1.5728
   50MOL0     H 6846   2.271   8.905   9.742 -0.2754 -3.2616  1.3875
   50MOL0     H 6847   2.427   8.700   9.587 -3.0205 -0.4481 -0.9155
   50MOL0     H 6848   2.440   8.726   9.758  0.5635 -0.9536 -0.3002
   50MOL0     H 6849   2.149   8.764   9.852  1.7229  2.9984 -2.2071
   50MOL0     H 6850   1.864   8.512   9.753 -1.3594  0.7649 -0.1074
   50MOL0     H 6851   1.870   8.680   9.807 -0.3568 -0.9448  0.1481
   50MOL0     H 6852   1.960   8.425   9.972  2.2832 -0.4021 -2.8777
   50MOL0     H 6853   1.991   8.603  10.009  0.5590 -0.8989  0.1501
   50MOL0     H 6854   1.742   8.636   9.979  1.5058  1.7055  2.9487
   50MOL0     H 6855   1.721   8.449   9.983  0.9684 -0.9081  0.9440
   50MOL0     H 6856   1.683   8.536  10.200  0.2963 -1.6677  0.6940
   50MOL0     H 6857   1.819   8.426  10.188 -1.3311 -2.2064 -0.6192
   50MOL0     H 6858   1.827   8.421  10.396  2.2337 -2.6800  0.6206
   50MOL0     H 6859   1.934   8.404  10.729 -0.6004  0.3630 -0.5783
   50MOL0     H 6860   2.033   8.300  10.623  1.4135  1.0795  0.3121
   50MOL0     H 6861   1.847   8.316  10.609 -1.1100  0.5795 -1.2121
   50MOL0     H 6862   2.310   8.959  10.800  3.2857  2.1063  0.4026
   50MOL0     H 6863   2.504   8.996  10.896  1.8040  0.1972 -1.5936
   50MOL0     H 6864   2.661   8.772  11.165 -0.6109 -1.2520  0.3995
   50MOL0     H 6865   2.707   8.639  11.060  1.0069 -0.9780  2.0977
   50MOL0     H 6866   2.923   8.733  11.011  2.8990  0.5019  1.0511
   50MOL0     H 6867   2.889   8.878  11.115 -2.0260  0.9433  0.6895
   50MOL0     H 6868   2.924   8.595  11.218 -0.3204 -0.4430  1.7580
   50MOL0     H 6869   2.864   8.739  11.312 -0.9656  0.2547 -0.4682
   50MOL0     H 6870   3.087   8.845  11.255  4.1980  0.0673 -6.0641
   50MOL0     H 6871   3.143   8.684  11.200 -1.6496 -0.7178 -0.9067
   50MOL0     H 6872   3.209   8.725  11.431  1.9984 -3.2524 -2.4946
   50MOL0     H 6873   3.040   8.745  11.479 -3.6296 -0.9350 -1.8751
   50MOL0     H 6874   3.131   8.491  11.369  1.0308 -0.5055  0.7985
   50MOL0     H 6875   2.976   8.525  11.451 -0.3622  0.7115  0.9447
   50MOL0     H 6876   3.115   8.602  11.652 -1.5024  1.1813 -2.2142
   50MOL0     H 6877   3.252   8.530  11.578  0.9946  2.1142  4.3324
   50MOL0     H 6878   2.999   8.359  11.605 -1.2472  1.1872  0.6465
   50MOL0     H 6879   3.095   8.396  11.746 -1.1874 -1.1586 -0.3047
   50MOL0     H 6880   2.640   8.580  10.846 -0.1175 -0.9220 -0.3816
   50MOL0     H 6881   2.419   8.550  10.724 -1.1715  1.4538 -1.5966
   50MOL0     H 6882   2.127   8.795  10.520 -1.8661  0.0076  1.9873
   50MOL0     H 6883   2.013   8.794  10.311  0.9685  0.2082  1.0695
   50MOL0     H 6884   2.576   9.640   9.974 -1.3849 -1.3657 -0.7096
   50MOL0     H 6885   2.493   9.893   9.990 -1.7589  1.2306 -0.4432
   50MOL0     H 6886   2.433  10.297   9.576 -1.1724 -0.7162  1.3506
   50MOL0     H 6887   2.314  10.513   9.602 -0.3458  1.1019  0.2011
   50MOL0     H 6888   2.266  10.644  10.036  0.1858 -0.5533  0.0832
   50MOL0     H 6889   2.307  10.790   9.959  0.4855 -0.1860  1.5036
   50MOL0     H 6890   2.083  10.814  10.023  1.8433  3.6228 -1.9434
   50MOL0     H 6891   2.023  10.668   9.957  0.6345 -0.1376  1.3269
   50MOL0     H 6892   2.152  10.857   9.759 -0.1969  1.2100  1.1668
   50MOL0     H 6893   2.017  10.745   9.732 -1.3740 -1.0418  1.1822
   50MOL0     H 6894   1.860  10.879   9.832  0.7969 -0.5796  0.2881
   50MOL0     H 6895   1.951  10.959   9.706 -0.0246  0.5155  0.2262
   50MOL0     H 6896   2.013  11.200  10.047 -2.6386  2.8655 -2.9755
   50MOL0     H 6897   2.455  10.538   9.996 -1.6698 -0.0219 -1.1902
   50MOL0     H 6898   2.602  10.383  10.084 -1.7336 -2.1401  1.3659
   50MOL0     H 6899   2.573  10.222  10.043 -0.3394  1.9594  4.0729
   50MOL0     H 6900   2.714  10.310   9.973  0.4096 -1.9787  0.3077
   51MOL0     O 6901  10.853   2.730   6.584 -0.3569  0.0332 -0.1767
   51MOL0     C 6902  10.780   2.725   6.490  0.6904  0.2747 -0.0493
   51MOL0     O 6903  10.813   2.675   6.374 -0.3403 -0.6168  0.2106
   51MOL0     C 6904  10.931   2.616   6.351 -0.2216 -0.2414  0.5983
   51MOL0     C 6905  10.933   2.496   6.287 -0.1181 -0.3937  0.7367
   51MOL0     C 6906  11.058   2.430   6.254  0.3079 -0.1680 -0.0786
   51MOL0     C 6907  11.177   2.493   6.288  0.4170  0.1868 -0.3005
   51MOL0     O 6908  11.282   2.415   6.248  0.1652 -0.8475 -0.0184
   51MOL0     C 6909  11.417   2.461   6.278  0.4354  0.1761 -1.1951
   51MOL0     C 6910  11.507   2.349   6.231 -0.3743  0.0516 -0.6307
   51MOL0     C 6911  11.505   2.309   6.085 -0.0028 -0.2188  0.3607
   51MOL0     C 6912  11.619   2.212   6.065  0.4386  1.2807  0.0346
   51MOL0     C 6913  11.657   2.191   5.915 -0.2530 -0.0227 -0.0377
   51MOL0     C 6914  11.786   2.271   5.900 -0.5922 -0.6245 -1.1726
   51MOL0     C 6915  11.847   2.272   5.758  0.7434 -0.4822  0.1072
   51MOL0     C 6916  11.759   2.336   5.654 -0.7126 -1.5428 -0.2727
   51MOL0     N 6917  11.749   2.480   5.654 -0.1597  0.1512  0.4987
   51MOL0     C 6918  11.627   2.543   5.643  0.7202 -0.3519 -0.1307
   51MOL0     C 6919  11.648   2.672   5.643  0.0279  0.5515  0.6778
   51MOL0     C 6920  11.533   2.773   5.618  0.2912 -0.4428  0.4744
   51MOL0     C 6921  11.545   2.835   5.469  0.3211 -0.0674 -0.1152
   51MOL0     C 6922  11.486   2.740   5.365 -0.9469 -0.2107  0.5404
   51MOL0     C 6923  11.573   2.763   5.236  0.4334 -0.2597 -0.2158
   51MOL0     O 6924  11.692   2.690   5.245 -0.9112  0.8665  0.5158
   51MOL0     C 6925  11.687   2.550   5.228 -0.2943  0.0906  0.4508
   51MOL0     C 6926  11.804   2.489   5.258  0.1527  0.3297  0.0695
   51MOL0     C 6927  11.814   2.348   5.253  0.7124 -0.0363  0.6014
   51MOL0     C 6928  11.941   2.284   5.310 -0.4850  0.6203 -0.8342
   51MOL0     C 6929  11.695   2.272   5.206  0.0951  0.2459 -0.4238
   51MOL0     C 6930  11.692   2.126   5.200 -0.1318 -1.0209 -0.7650
   51MOL0     O 6931  11.593   2.068   5.119 -0.1999  0.1251 -0.1794
   51MOL0     C 6932  11.564   1.930   5.125 -0.8544 -0.0912 -0.2314
   51MOL0     C 6933  11.666   1.835   5.112  0.1097 -1.4998 -1.2915
   51MOL0     C 6934  11.640   1.696   5.114  0.8609  0.3656  0.1614
   51MOL0     C 6935  11.514   1.655   5.113 -0.1062 -0.9871 -0.2862
   51MOL0     O 6936  11.500   1.527   5.091  0.4436  0.4573 -0.2280
   51MOL0     C 6937  11.385   1.476   5.031  0.9189 -0.1563  0.2640
   51MOL0     C 6938  11.415   1.343   4.970 -0.0651  0.3362  0.5319
   51MOL0     C 6939  11.526   1.356   4.862  0.1258  0.1938  0.3470
   51MOL0     C 6940  11.566   1.215   4.821 -0.6869  1.1623  0.2360
   51MOL0     C 6941  11.691   1.211   4.734 -0.1721  0.4811  0.1928
   51MOL0     C 6942  11.728   1.059   4.701 -0.4519  0.0560  0.5897
   51MOL0     C 6943  11.865   1.041   4.627  0.4969 -0.6009  0.2533
   51MOL0     C 6944  11.935   0.916   4.650 -0.1836  0.6822 -0.4566
   51MOL0    Cl 6945  11.875   0.778   4.553 -0.1025 -0.1231  0.4023
   51MOL0     C 6946  11.404   1.746   5.122  0.1197 -0.4424  0.4930
   51MOL0     C 6947  11.431   1.882   5.135 -0.2273 -0.8991 -0.6542
   51MOL0     O 6948  11.778   2.063   5.266  0.2072 -0.4281 -0.0034
   51MOL0     C 6949  11.587   2.345   5.170  0.6878  0.7323  0.0943
   51MOL0     C 6950  11.574   2.479   5.181  0.3565  0.1900 -0.2187
   51MOL0     N 6951  11.783   2.691   5.650 -0.0182 -0.8050  0.3695
   51MOL0     N 6952  11.840   2.574   5.670  0.7496 -0.2004 -0.1695
   51MOL0     C 6953  11.176   2.623   6.346  0.7844  0.4692  0.1690
   51MOL0     C 6954  11.052   2.677   6.382 -0.4192  0.8639 -0.0366
   51MOL0     C 6955  10.631   2.737   6.515 -0.2532 -1.4136  0.2392
   51MOL0     C 6956  10.587   2.834   6.618 -0.1667 -0.1069  0.0332
   51MOL0     C 6957  10.450   2.839   6.652 -0.6046 -0.2684  0.5389
   51MOL0     C 6958  10.353   2.752   6.602 -0.6557 -0.4072  0.0208
   51MOL0     O 6959  10.220   2.770   6.638  0.2635  0.2940  0.2821
   51MOL0     C 6960  10.126   2.675   6.580  0.1691 -0.7028 -0.6351
   51MOL0     C 6961   9.988   2.677   6.644  0.0391  0.1356  0.1509
   51MOL0     C 6962   9.888   2.582   6.589 -0.1423  0.2024  0.2422
   51MOL0     C 6963   9.898   2.436   6.652  0.1103 -1.1313 -0.3977
   51MOL0     C 6964   9.832   2.333   6.564  0.1675  1.4125 -0.3554
   51MOL0     C 6965   9.800   2.257   6.477  0.3798 -0.6614 -0.2222
   51MOL0     C 6966  10.397   2.666   6.495  0.6256  0.4269 -0.2053
   51MOL0     C 6967  10.538   2.648   6.463  0.9401 -0.1423 -0.3797
   51MOL0     C 6968  10.566   2.538   6.371 -0.2154 -0.4860  0.2603
   51MOL0     H 6969  10.846   2.443   6.249  1.5228 -1.3714 -1.9787
   51MOL0     H 6970  11.055   2.332   6.208 -2.3220  1.1333 -3.0491
   51MOL0     H 6971  11.429   2.471   6.386  0.7373 -2.2801 -0.9362
   51MOL0     H 6972  11.440   2.555   6.227  0.6445 -0.3987 -2.1967
   51MOL0     H 6973  11.602   2.387   6.270 -1.6792  1.6916  1.1102
   51MOL0     H 6974  11.474   2.263   6.290  0.6992  0.1174  0.0972
   51MOL0     H 6975  11.404   2.269   6.072 -0.5301 -0.6478  4.5202
   51MOL0     H 6976  11.515   2.397   6.020 -0.3919 -1.6012 -1.6590
   51MOL0     H 6977  11.702   2.221   6.137  1.7010 -1.5210 -0.9450
   51MOL0     H 6978  11.584   2.117   6.106 -0.5040  0.9651 -1.4415
   51MOL0     H 6979  11.572   2.222   5.853 -1.1396  0.3353  1.3046
   51MOL0     H 6980  11.665   2.085   5.892 -3.3886  0.0413 -2.0272
   51MOL0     H 6981  11.772   2.376   5.929  0.6889 -0.3507 -1.4863
   51MOL0     H 6982  11.859   2.237   5.973 -2.1414  0.9362  1.2253
   51MOL0     H 6983  11.870   2.168   5.734 -1.1118 -0.9237  0.0706
   51MOL0     H 6984  11.945   2.319   5.748  0.5602 -0.5419 -2.9406
   51MOL0     H 6985  11.810   2.312   5.560 -1.2172  0.6517 -1.1716
   51MOL0     H 6986  11.659   2.291   5.645 -1.6495  0.3516  0.1420
   51MOL0     H 6987  11.534   2.488   5.634  2.2948 -3.6623  1.7698
   51MOL0     H 6988  11.532   2.846   5.699  0.1373 -2.1249  2.0526
   51MOL0     H 6989  11.436   2.722   5.620  0.5172 -1.2038 -2.4694
   51MOL0     H 6990  11.491   2.930   5.460 -2.7482 -1.3572  2.5278
   51MOL0     H 6991  11.648   2.863   5.448  0.0174  3.8869  2.5072
   51MOL0     H 6992  11.498   2.637   5.399 -0.1135  0.5247  2.6270
   51MOL0     H 6993  11.381   2.763   5.344 -0.5332  1.9580  0.6519
   51MOL0     H 6994  11.514   2.732   5.148 -3.1657  1.4502  1.3762
   51MOL0     H 6995  11.585   2.871   5.229 -0.3534 -0.0695  1.0028
   51MOL0     H 6996  11.879   2.558   5.297 -0.4467  0.4221  1.0982
   51MOL0     H 6997  11.991   2.224   5.234  1.9686  0.3193  0.9035
   51MOL0     H 6998  11.929   2.210   5.389  2.1812  0.2889 -0.6796
   51MOL0     H 6999  12.010   2.365   5.334  0.6412 -1.0390  1.9100
   51MOL0     H 7000  11.771   1.862   5.109 -0.5604  1.8233  0.6118
   51MOL0     H 7001  11.718   1.621   5.117 -0.0552 -0.5916  1.1264
   51MOL0     H 7002  11.299   1.457   5.097  0.6535 -1.6411 -0.4563
   51MOL0     H 7003  11.347   1.530   4.944 -3.3740 -3.5265 -0.3358
   51MOL0     H 7004  11.450   1.272   5.045  0.8241  0.3708  0.1597
   51MOL0     H 7005  11.324   1.304   4.923  0.2505  1.9024 -1.5211
   51MOL0     H 7006  11.610   1.415   4.900 -0.2926  0.1763  1.3493
   51MOL0     H 7007  11.492   1.420   4.780  0.6296  3.3821  2.4187
   51MOL0     H 7008  11.489   1.173   4.756  0.6874  1.6184 -1.7620
   51MOL0     H 7009  11.574   1.142   4.902 -1.9377  0.4687 -0.2283
   51MOL0     H 7010  11.667   1.279   4.652  0.3494  0.0433 -0.3343
   51MOL0     H 7011  11.779   1.237   4.794  0.4256 -2.3950  0.7279
   51MOL0     H 7012  11.642   1.019   4.646 -0.5493  1.3654 -0.2658
   51MOL0     H 7013  11.744   1.008   4.796 -0.2390 -0.8334  0.0895
   51MOL0     H 7014  11.930   1.126   4.650 -0.7221  1.7144 -3.7543
   51MOL0     H 7015  11.859   1.057   4.519 -2.2035  0.1445  0.4517
   51MOL0     H 7016  11.930   0.898   4.758 -0.1989  2.9907 -0.0051
   51MOL0     H 7017  12.041   0.937   4.630  0.1279  1.3222  1.5974
   51MOL0     H 7018  11.308   1.696   5.117  0.7531 -1.5758 -1.4084
   51MOL0     H 7019  11.355   1.957   5.156  2.6758  1.4804  2.5278
   51MOL0     H 7020  11.496   2.292   5.144  0.5517 -0.3349  2.4487
   51MOL0     H 7021  11.484   2.528   5.145  0.4684 -0.1725 -1.0298
   51MOL0     H 7022  11.267   2.669   6.384  1.1256 -0.2748  0.2688
   51MOL0     H 7023  11.050   2.773   6.432  3.1656  1.3151 -0.5111
   51MOL0     H 7024  10.649   2.905   6.671  1.4135 -1.1320 -0.3573
   51MOL0     H 7025  10.422   2.910   6.729  0.6499  2.3069 -1.2259
   51MOL0     H 7026  10.121   2.705   6.475  0.0460 -0.2489 -0.5029
   51MOL0     H 7027  10.161   2.572   6.586 -2.4806 -1.8739 -3.0537
   51MOL0     H 7028   9.947   2.779   6.635  1.7227  1.1780  2.8779
   51MOL0     H 7029   9.992   2.662   6.752  1.1743  0.9596  0.2428
   51MOL0     H 7030   9.792   2.617   6.626  1.1947  2.7894  1.5303
   51MOL0     H 7031   9.876   2.581   6.480  1.8933 -1.4242 -0.0285
   51MOL0     H 7032   9.848   2.441   6.750  1.6736  1.1270  0.3744
   51MOL0     H 7033   9.996   2.395   6.676 -0.9065 -2.3761  2.0320
   51MOL0     H 7034   9.765   2.201   6.392 -0.2507 -0.0837 -0.3491
   51MOL0     H 7035  10.323   2.602   6.447  0.8751  0.1967 -0.2857
   51MOL0     H 7036  10.661   2.486   6.383  0.2773 -0.3851 -2.6620
   51MOL0     H 7037  10.494   2.458   6.391  1.0708 -1.7604 -0.0050
   51MOL0     H 7038  10.552   2.569   6.267 -2.7967 -1.3483  0.2688
   52MOL0     O 7039   0.849   4.159   7.015  0.3525 -0.5298  0.0995
   52MOL0     C 7040   0.825   4.136   7.133 -0.6628  0.1657 -0.8018
   52MOL0     O 7041   0.754   4.218   7.214  0.0283 -0.2863 -0.3936
   52MOL0     C 7042   0.700   4.340   7.173 -0.6658 -0.2501  0.7432
   52MOL0     C 7043   0.750   4.432   7.081  0.6652  0.8384 -0.1093
   52MOL0     C 7044   0.677   4.542   7.041  0.2965 -0.1270  0.2639
   52MOL0     C 7045   0.550   4.572   7.083  0.6646  0.7605 -0.1377
   52MOL0     O 7046   0.489   4.680   7.021 -0.4038  0.1454 -0.1405
   52MOL0     C 7047   0.353   4.708   7.073  0.2575 -0.1591  0.3801
   52MOL0     C 7048   0.291   4.852   7.050 -0.0164  0.5617  0.0857
   52MOL0     C 7049   0.380   4.968   7.100  0.7452  0.1479  0.3166
   52MOL0     C 7050   0.301   5.096   7.094 -0.0559  0.5705  0.1485
   52MOL0     C 7051   0.386   5.225   7.132  0.5876 -0.2595  0.7305
   52MOL0     C 7052   0.291   5.355   7.120  0.0302  1.2214  0.0041
   52MOL0     C 7053   0.351   5.492   7.163 -0.0521 -0.1676  0.6754
   52MOL0     C 7054   0.408   5.497   7.306 -0.2673  0.5472  0.3721
   52MOL0     N 7055   0.314   5.436   7.403  0.4987 -0.3956  0.5105
   52MOL0     C 7056   0.198   5.496   7.447 -0.7350  0.2993 -0.7997
   52MOL0     C 7057   0.160   5.414   7.552 -0.5375 -0.3230 -0.4368
   52MOL0     C 7058   0.049   5.421   7.647  0.1685 -0.4556  0.4133
   52MOL0     C 7059  -0.086   5.425   7.566  0.2114 -1.0682 -0.7433
   52MOL0     C 7060  -0.148   5.564   7.551  0.1962 -0.0282  0.2121
   52MOL0     C 7061  -0.265   5.568   7.454  0.5889 -0.7337 -0.2897
   52MOL0     O 7062  -0.376   5.536   7.540 -0.9556 -0.0407 -0.1087
   52MOL0     C 7063  -0.475   5.478   7.480 -0.3387  0.4338  0.3857
   52MOL0     C 7064  -0.579   5.457   7.569 -0.1190 -0.2455 -0.5932
   52MOL0     C 7065  -0.693   5.386   7.536  0.2840 -0.5322  0.4454
   52MOL0     C 7066  -0.808   5.392   7.644 -0.4633  0.7143  0.2229
   52MOL0     C 7067  -0.706   5.335   7.404 -0.6281  0.7557  0.8665
   52MOL0     C 7068  -0.825   5.259   7.364  0.3079  0.0812  0.5662
   52MOL0     O 7069  -0.853   5.270   7.235 -0.5042 -0.1072  0.1724
   52MOL0     C 7070  -0.959   5.206   7.181 -0.5142  0.2145  0.4874
   52MOL0     C 7071  -0.945   5.133   7.061 -0.5058 -0.1336  0.1466
   52MOL0     C 7072  -1.060   5.067   7.002 -0.4489 -0.3343 -0.6410
   52MOL0     C 7073  -1.188   5.076   7.053 -0.0505 -0.2756 -0.2641
   52MOL0     O 7074  -1.288   5.028   6.978  0.0009 -0.8055 -0.7147
   52MOL0     C 7075  -1.422   5.043   7.030  0.7676  0.8591 -0.5094
   52MOL0     C 7076  -1.518   4.978   6.935 -0.1615  0.4319  0.9009
   52MOL0     C 7077  -1.552   5.073   6.813  0.0837  0.3766  0.3530
   52MOL0     C 7078  -1.455   5.096   6.694  0.4000 -0.6854 -0.3856
   52MOL0     C 7079  -1.516   5.193   6.590 -0.1210 -0.7891 -0.0258
   52MOL0     C 7080  -1.466   5.194   6.443 -0.7361 -0.1885 -0.1543
   52MOL0     C 7081  -1.324   5.243   6.431 -0.3178 -0.3658 -0.3658
   52MOL0     C 7082  -1.234   5.186   6.325 -0.1588 -0.0690  0.1249
   52MOL0    Cl 7083  -1.086   5.297   6.318  0.2112  0.1007 -0.1119
   52MOL0     C 7084  -1.203   5.150   7.178 -0.2702 -1.6821  0.4883
   52MOL0     C 7085  -1.089   5.215   7.236  0.3314  0.1055  0.5836
   52MOL0     O 7086  -0.898   5.198   7.443  0.4222  0.4213  0.0138
   52MOL0     C 7087  -0.603   5.349   7.308 -0.6873 -0.4083  0.1522
   52MOL0     C 7088  -0.490   5.426   7.345  0.4024  0.2997  0.4549
   52MOL0     N 7089   0.258   5.321   7.566  0.2107 -0.5490  0.2815
   52MOL0     N 7090   0.341   5.328   7.477 -0.7861 -0.3653 -0.4916
   52MOL0     C 7091   0.508   4.482   7.189 -0.3053  0.8680 -0.0758
   52MOL0     C 7092   0.580   4.371   7.228  0.2293 -0.9598 -1.1245
   52MOL0     C 7093   0.898   4.020   7.201  0.8944 -0.5239  0.4622
   52MOL0     C 7094   0.930   3.914   7.119 -0.5436  0.6926  0.2049
   52MOL0     C 7095   0.975   3.793   7.182 -0.1845  0.5494  0.3848
   52MOL0     C 7096   0.980   3.780   7.318  0.1181 -0.4577  0.0632
   52MOL0     O 7097   1.013   3.663   7.377 -0.3962 -0.2945 -0.4363
   52MOL0     C 7098   1.118   3.580   7.313 -0.1640 -0.1130  0.4605
   52MOL0     C 7099   1.196   3.493   7.415 -0.1352 -0.3501 -0.8311
   52MOL0     C 7100   1.290   3.565   7.518  0.3041 -0.0080  0.7453
   52MOL0     C 7101   1.348   3.695   7.457 -0.2877 -1.1269  0.1580
   52MOL0     C 7102   1.467   3.753   7.522  0.9792 -0.3266  0.8016
   52MOL0     C 7103   1.567   3.819   7.567 -0.3079  0.9339  0.3301
   52MOL0     C 7104   0.954   3.888   7.402  0.6419  0.8347  0.3509
   52MOL0     C 7105   0.907   4.012   7.346  0.4847 -0.0644 -0.2267
   52MOL0     C 7106   0.863   4.122   7.444 -0.6943  0.7717  0.3723
   52MOL0     H 7107   0.846   4.419   7.032  0.3109  0.9645 -0.8582
   52MOL0     H 7108   0.717   4.600   6.958  0.5406 -0.1292  0.3806
   52MOL0     H 7109   0.339   4.689   7.180 -0.8655 -1.3248  0.0486
   52MOL0     H 7110   0.288   4.632   7.029  0.3278  0.3762 -0.6949
   52MOL0     H 7111   0.266   4.874   6.946  0.8362 -0.1087 -0.2746
   52MOL0     H 7112   0.196   4.855   7.106  0.4282 -0.6009  0.9468
   52MOL0     H 7113   0.400   4.956   7.206  2.3299 -1.4593 -0.1252
   52MOL0     H 7114   0.478   4.984   7.054 -0.0304 -0.4912 -1.6645
   52MOL0     H 7115   0.265   5.103   6.991  1.5781 -0.6017 -0.5438
   52MOL0     H 7116   0.215   5.079   7.158  0.5931 -3.3557  0.2126
   52MOL0     H 7117   0.462   5.242   7.055 -0.9169 -1.1303 -0.9959
   52MOL0     H 7118   0.427   5.218   7.233 -1.5350 -1.8056  1.5366
   52MOL0     H 7119   0.256   5.362   7.017  0.0989  2.4105  0.0385
   52MOL0     H 7120   0.199   5.336   7.175  0.1868  0.8393  0.1381
   52MOL0     H 7121   0.276   5.571   7.153  0.3454 -0.0838 -2.6544
   52MOL0     H 7122   0.431   5.516   7.093 -0.2595 -1.6718 -0.1208
   52MOL0     H 7123   0.497   5.435   7.291 -0.7737  0.2309 -1.5760
   52MOL0     H 7124   0.450   5.596   7.325  0.8742  0.5463 -1.8341
   52MOL0     H 7125   0.156   5.592   7.420  1.9851  2.6736  2.5977
   52MOL0     H 7126   0.057   5.509   7.711  1.0271  0.2787 -0.6594
   52MOL0     H 7127   0.050   5.332   7.711  2.0626 -1.4269 -0.8622
   52MOL0     H 7128  -0.054   5.397   7.465  1.8364 -0.6858 -0.3518
   52MOL0     H 7129  -0.162   5.352   7.597 -1.5132  0.9936  0.1356
   52MOL0     H 7130  -0.187   5.598   7.648  1.9693 -2.8464  2.0436
   52MOL0     H 7131  -0.065   5.628   7.520 -0.3333  0.5323 -0.0721
   52MOL0     H 7132  -0.273   5.665   7.405  1.3436  0.6242  2.0912
   52MOL0     H 7133  -0.243   5.495   7.375  0.1025  0.2389 -1.3316
   52MOL0     H 7134  -0.583   5.491   7.672  2.6630 -1.6987  0.1020
   52MOL0     H 7135  -0.891   5.447   7.597  1.5295  1.0402 -3.3313
   52MOL0     H 7136  -0.777   5.451   7.731 -0.0013 -1.8803  1.9274
   52MOL0     H 7137  -0.823   5.287   7.668 -1.0240  0.1168 -2.4325
   52MOL0     H 7138  -0.846   5.131   7.017 -0.7526  2.3148 -0.7069
   52MOL0     H 7139  -1.037   5.004   6.917  0.5588 -2.0564  0.8300
   52MOL0     H 7140  -1.421   4.979   7.118  2.7901 -3.1456 -3.1290
   52MOL0     H 7141  -1.450   5.148   7.041  2.1204  1.1218  0.7454
   52MOL0     H 7142  -1.473   4.883   6.907  2.5472  2.2266 -1.4678
   52MOL0     H 7143  -1.615   4.954   6.978 -0.2784  1.3740  1.1973
   52MOL0     H 7144  -1.587   5.171   6.844  2.5087  1.2881  0.4100
   52MOL0     H 7145  -1.643   5.033   6.767 -0.4157 -1.3927  2.6807
   52MOL0     H 7146  -1.446   4.996   6.649  2.8908 -1.0205  0.7437
   52MOL0     H 7147  -1.360   5.138   6.727  0.5779  0.2039 -1.9424
   52MOL0     H 7148  -1.620   5.165   6.570  0.2915 -0.9299 -2.2998
   52MOL0     H 7149  -1.520   5.296   6.625 -0.9640 -0.4098 -1.1674
   52MOL0     H 7150  -1.522   5.262   6.378 -1.8547 -2.5476 -1.8221
   52MOL0     H 7151  -1.468   5.098   6.390 -3.0539  1.1348 -2.7021
   52MOL0     H 7152  -1.276   5.247   6.529  1.1065 -0.4215 -1.0479
   52MOL0     H 7153  -1.333   5.349   6.403 -0.5839 -0.6941 -1.6076
   52MOL0     H 7154  -1.285   5.190   6.228 -1.1105  1.8734  0.6476
   52MOL0     H 7155  -1.196   5.087   6.352 -0.3215 -0.2120 -0.1693
   52MOL0     H 7156  -1.303   5.177   7.211 -0.4281  0.4672 -1.5338
   52MOL0     H 7157  -1.100   5.273   7.327 -1.7452  1.1365 -0.2683
   52MOL0     H 7158  -0.598   5.312   7.207 -1.0032 -0.7916  0.2764
   52MOL0     H 7159  -0.410   5.435   7.272 -0.1029  0.3221 -0.0993
   52MOL0     H 7160   0.415   4.486   7.245 -0.3717  1.5794 -0.2406
   52MOL0     H 7161   0.552   4.313   7.315  2.2811 -0.1801  0.1458
   52MOL0     H 7162   0.929   3.912   7.010  0.5054 -0.9235  0.1896
   52MOL0     H 7163   1.011   3.718   7.113 -0.8101  1.4196 -0.9176
   52MOL0     H 7164   1.063   3.514   7.246 -1.5475 -1.7257  3.0395
   52MOL0     H 7165   1.188   3.646   7.261 -1.1900  1.5697  1.1194
   52MOL0     H 7166   1.247   3.417   7.354  0.2653  1.0438 -2.2950
   52MOL0     H 7167   1.126   3.432   7.473 -0.3479 -0.0056 -0.7262
   52MOL0     H 7168   1.228   3.596   7.602 -2.5825  0.1442 -1.2919
   52MOL0     H 7169   1.373   3.501   7.549  0.2745  0.7319  2.4880
   52MOL0     H 7170   1.275   3.774   7.439  0.4178 -0.8010 -1.5127
   52MOL0     H 7171   1.389   3.664   7.360 -0.2409  0.6545 -0.4133
   52MOL0     H 7172   1.656   3.859   7.610  1.7002 -0.1781 -2.4983
   52MOL0     H 7173   0.965   3.869   7.508  0.0414 -5.0727 -0.3370
   52MOL0     H 7174   0.756   4.140   7.435 -0.9089 -0.5492  0.0525
   52MOL0     H 7175   0.886   4.101   7.549 -0.9452  1.6241  0.6028
   52MOL0     H 7176   0.914   4.217   7.422  2.8994 -0.8243  1.0095
   53MOL0     O 7177   0.242   5.816   3.502 -0.0647 -0.3861  0.5784
   53MOL0     C 7178   0.155   5.862   3.426  0.0020 -0.0885  0.4415
   53MOL0     O 7179   0.149   5.993   3.396  0.7930 -0.0008  0.1836
   53MOL0     C 7180   0.264   6.070   3.434  0.3293 -0.3835 -0.4612
   53MOL0     C 7181   0.259   6.149   3.546 -0.1453  0.3292  0.3549
   53MOL0     C 7182   0.376   6.218   3.590  0.6578 -0.7122  0.3636
   53MOL0     C 7183   0.498   6.194   3.519  0.3680 -0.0067 -0.1506
   53MOL0     O 7184   0.620   6.241   3.567 -0.2175 -0.6907 -0.1234
   53MOL0     C 7185   0.617   6.390   3.575 -0.1452 -0.5567 -0.7797
   53MOL0     C 7186   0.752   6.448   3.566  0.2501 -0.7623  0.2936
   53MOL0     C 7187   0.748   6.602   3.592 -0.2389  0.1664 -0.1384
   53MOL0     C 7188   0.719   6.670   3.455  1.0081 -0.0712  0.1114
   53MOL0     C 7189   0.750   6.818   3.477  0.4889  0.1372 -1.3431
   53MOL0     C 7190   0.741   6.889   3.345 -0.5149 -0.5119  0.2312
   53MOL0     C 7191   0.779   7.037   3.350  0.1972 -0.7515  1.0104
   53MOL0     C 7192   0.780   7.094   3.203 -0.4400 -0.3909 -0.2633
   53MOL0     N 7193   0.852   7.209   3.172 -0.7951  0.4340 -0.3274
   53MOL0     C 7194   0.921   7.295   3.257  0.7118  1.0157 -0.3066
   53MOL0     C 7195   1.031   7.329   3.203 -0.0013  0.7635  0.0117
   53MOL0     C 7196   1.156   7.403   3.264  0.4776 -0.9048  0.5431
   53MOL0     C 7197   1.199   7.506   3.156 -0.1682  1.1908 -0.4881
   53MOL0     C 7198   1.345   7.541   3.138  0.7367  0.3116 -0.4160
   53MOL0     C 7199   1.419   7.432   3.063 -0.3219  0.2044  0.1530
   53MOL0     O 7200   1.380   7.437   2.929 -0.3232  0.5947  0.4267
   53MOL0     C 7201   1.467   7.385   2.834  0.3089  0.7277  1.2209
   53MOL0     C 7202   1.576   7.456   2.784  0.0399 -0.2115 -0.8674
   53MOL0     C 7203   1.667   7.402   2.690  0.3281 -0.3914 -0.6024
   53MOL0     C 7204   1.782   7.495   2.648  0.8066  0.1716 -0.4336
   53MOL0     C 7205   1.643   7.269   2.644 -0.7068 -1.0577 -0.1257
   53MOL0     C 7206   1.746   7.199   2.556 -1.0708 -0.6511 -0.1968
   53MOL0     O 7207   1.765   7.064   2.594 -1.0170 -1.5696  0.0777
   53MOL0     C 7208   1.838   6.980   2.506  0.6369 -0.3251  0.2086
   53MOL0     C 7209   1.792   6.851   2.484  0.7691  0.5966  0.6802
   53MOL0     C 7210   1.848   6.765   2.401 -0.7430 -0.1474 -0.0998
   53MOL0     C 7211   1.952   6.793   2.321  0.2702 -0.0718 -0.0358
   53MOL0     O 7212   2.006   6.699   2.240  0.2905 -0.8935  0.0496
   53MOL0     C 7213   2.030   6.724   2.100 -0.2217 -0.1843 -0.0902
   53MOL0     C 7214   1.978   6.601   2.018  0.2897 -0.6920 -0.8329
   53MOL0     C 7215   2.089   6.501   1.980 -0.5583 -0.2301  0.6330
   53MOL0     C 7216   2.048   6.384   1.887 -0.6911 -0.6354 -0.0728
   53MOL0     C 7217   2.176   6.305   1.865 -0.0342  0.1921  0.3955
   53MOL0     C 7218   2.141   6.194   1.761  0.0504 -0.0443  0.2936
   53MOL0     C 7219   2.244   6.085   1.758 -0.4081 -0.5276 -0.5189
   53MOL0     C 7220   2.220   5.979   1.662  0.5180  1.0033  1.1149
   53MOL0    Cl 7221   2.085   5.885   1.719  0.1414 -0.4681  0.2583
   53MOL0     C 7222   2.006   6.920   2.346  1.5489  0.7831 -0.5362
   53MOL0     C 7223   1.953   7.010   2.443 -0.1525 -0.2813  0.7848
   53MOL0     O 7224   1.786   7.261   2.458 -0.1947  0.7646 -0.2240
   53MOL0     C 7225   1.529   7.197   2.681 -0.1125  0.8940 -0.0327
   53MOL0     C 7226   1.448   7.256   2.789  0.6117 -0.6088  0.0194
   53MOL0     N 7227   1.030   7.279   3.076  0.5297  0.8725 -0.5493
   53MOL0     N 7228   0.922   7.211   3.055 -0.3382  0.6814 -0.2700
   53MOL0     C 7229   0.497   6.098   3.413  0.1321  0.2148  0.4683
   53MOL0     C 7230   0.384   6.040   3.372 -0.0902 -0.5135 -0.1516
   53MOL0     C 7231   0.055   5.765   3.380 -0.2235  0.0690 -0.3355
   53MOL0     C 7232   0.066   5.633   3.419  0.4946 -0.3789  1.3925
   53MOL0     C 7233  -0.033   5.536   3.404 -0.5687  0.5089 -0.0112
   53MOL0     C 7234  -0.151   5.560   3.329  0.0052  0.5076  0.7786
   53MOL0     O 7235  -0.257   5.474   3.309 -0.1219  0.2914  0.1184
   53MOL0     C 7236  -0.348   5.440   3.414  0.2744  0.1757 -0.5071
   53MOL0     C 7237  -0.502   5.451   3.389  0.0782 -0.5256  0.3289
   53MOL0     C 7238  -0.536   5.371   3.267  0.8537 -1.1468 -0.0876
   53MOL0     C 7239  -0.686   5.381   3.242 -0.2141  0.7371 -0.2396
   53MOL0     C 7240  -0.738   5.329   3.115 -0.1437  0.4316  0.5702
   53MOL0     C 7241  -0.793   5.291   3.018  0.1092  0.1548 -0.2944
   53MOL0     C 7242  -0.169   5.691   3.282 -0.2997  0.7243 -0.1004
   53MOL0     C 7243  -0.061   5.791   3.306  0.3735 -0.1973 -0.1602
   53MOL0     C 7244  -0.096   5.932   3.266 -0.7246  0.5600  0.0536
   53MOL0     H 7245   0.164   6.149   3.597 -0.3407 -0.4656  0.0120
   53MOL0     H 7246   0.364   6.291   3.670 -0.1115  0.1510 -0.5088
   53MOL0     H 7247   0.572   6.414   3.672 -1.4375 -3.8274 -0.4396
   53MOL0     H 7248   0.551   6.432   3.499  1.5593  2.4680 -0.7439
   53MOL0     H 7249   0.831   6.410   3.633 -0.0778  0.1601  1.2269
   53MOL0     H 7250   0.783   6.427   3.463  0.4322  0.4613  0.0941
   53MOL0     H 7251   0.671   6.619   3.668 -0.6203 -1.8088 -0.0430
   53MOL0     H 7252   0.845   6.638   3.627 -0.7438 -0.2577  1.8397
   53MOL0     H 7253   0.764   6.621   3.368 -2.1273 -0.5094 -1.4151
   53MOL0     H 7254   0.613   6.661   3.427  1.3333 -0.6437 -0.9787
   53MOL0     H 7255   0.855   6.837   3.503  0.3338 -1.6916  0.9820
   53MOL0     H 7256   0.680   6.862   3.549  1.0061 -0.6206 -0.3585
   53MOL0     H 7257   0.796   6.843   3.262 -1.9111 -4.5229  1.3118
   53MOL0     H 7258   0.638   6.872   3.315 -0.4918 -2.5178  1.1245
   53MOL0     H 7259   0.880   7.034   3.393  0.7657  2.0194  0.0872
   53MOL0     H 7260   0.726   7.110   3.412 -0.9428  2.6058 -3.4007
   53MOL0     H 7261   0.817   7.018   3.134  1.3704 -0.5843  0.8549
   53MOL0     H 7262   0.681   7.114   3.161 -0.1393  0.9988 -0.3381
   53MOL0     H 7263   0.908   7.338   3.356  1.5528 -0.7747  0.6276
   53MOL0     H 7264   1.234   7.328   3.282  0.9496 -0.7271 -0.6863
   53MOL0     H 7265   1.129   7.454   3.357 -0.7404 -2.8340  1.3246
   53MOL0     H 7266   1.175   7.453   3.063  0.4662  0.4561 -0.2465
   53MOL0     H 7267   1.141   7.598   3.172 -0.8260  0.6356  0.4116
   53MOL0     H 7268   1.363   7.639   3.092  2.3080  1.2826  2.0275
   53MOL0     H 7269   1.393   7.560   3.235 -0.2325  0.6237  0.0206
   53MOL0     H 7270   1.525   7.458   3.060  0.4068 -2.4993 -1.8833
   53MOL0     H 7271   1.420   7.335   3.113  0.8110 -0.6049 -1.3506
   53MOL0     H 7272   1.587   7.557   2.821 -0.7398  0.6753 -2.9060
   53MOL0     H 7273   1.815   7.546   2.739  2.2141 -3.9213  1.5995
   53MOL0     H 7274   1.769   7.560   2.561 -1.2069 -0.2063 -0.4635
   53MOL0     H 7275   1.861   7.423   2.623 -1.1495 -1.5506 -2.0536
   53MOL0     H 7276   1.706   6.813   2.537  1.1492  1.8869  2.3003
   53MOL0     H 7277   1.824   6.661   2.383  1.4022 -0.9403  1.2441
   53MOL0     H 7278   1.986   6.821   2.074  2.1177  1.8473  2.8162
   53MOL0     H 7279   2.137   6.726   2.080 -0.5199 -0.7802 -1.9007
   53MOL0     H 7280   1.899   6.558   2.080 -0.5106 -0.5355 -1.7247
   53MOL0     H 7281   1.929   6.652   1.935 -2.5105  2.4142  2.3696
   53MOL0     H 7282   2.144   6.488   2.074  0.5115 -0.9269 -0.0689
   53MOL0     H 7283   2.169   6.554   1.927 -3.2313  0.1886 -3.3806
   53MOL0     H 7284   2.000   6.419   1.795  0.1237 -3.7970 -1.8644
   53MOL0     H 7285   1.977   6.317   1.937  0.6372 -1.1457  1.2062
   53MOL0     H 7286   2.266   6.355   1.829  1.2651 -1.2406  1.5114
   53MOL0     H 7287   2.196   6.253   1.959 -1.4010  0.3441  0.7977
   53MOL0     H 7288   2.119   6.229   1.659 -2.0968 -2.8088 -0.3328
   53MOL0     H 7289   2.040   6.154   1.779 -0.0976 -0.5483 -1.4470
   53MOL0     H 7290   2.240   6.050   1.861 -0.1543  1.9533  0.3977
   53MOL0     H 7291   2.342   6.133   1.753  0.5937 -1.7980  3.5405
   53MOL0     H 7292   2.314   5.923   1.656 -0.7460 -1.0673 -0.8637
   53MOL0     H 7293   2.194   6.015   1.562 -1.0015 -4.5782 -0.9009
   53MOL0     H 7294   2.096   6.945   2.289  2.5631  2.0525  1.5162
   53MOL0     H 7295   1.984   7.113   2.457  2.1116 -0.8306  0.2814
   53MOL0     H 7296   1.519   7.092   2.657  1.4442  1.0674 -1.6568
   53MOL0     H 7297   1.366   7.206   2.840  0.7174  0.4951  1.2845
   53MOL0     H 7298   0.594   6.081   3.369 -0.3177  0.1935 -0.5389
   53MOL0     H 7299   0.382   5.968   3.290 -0.8682 -2.3739  1.4278
   53MOL0     H 7300   0.148   5.613   3.487  2.4810 -2.5307 -1.3550
   53MOL0     H 7301  -0.021   5.435   3.442  0.6374  0.2574 -1.0093
   53MOL0     H 7302  -0.323   5.339   3.448  0.7071  0.4115 -0.1110
   53MOL0     H 7303  -0.315   5.508   3.493  0.1929 -1.3897  0.9527
   53MOL0     H 7304  -0.518   5.555   3.362  1.6825 -0.9166 -2.5547
   53MOL0     H 7305  -0.566   5.420   3.472  3.0815 -1.8961  2.3365
   53MOL0     H 7306  -0.475   5.399   3.180  1.1969 -2.5219 -0.3085
   53MOL0     H 7307  -0.503   5.269   3.286  0.2063 -1.0357  1.7640
   53MOL0     H 7308  -0.712   5.487   3.241  0.4528  0.9024 -0.7327
   53MOL0     H 7309  -0.747   5.325   3.314  1.5319  0.3131  0.9664
   53MOL0     H 7310  -0.852   5.265   2.932 -3.4002  1.7325  1.4303
   53MOL0     H 7311  -0.264   5.704   3.232 -1.2573 -0.5129  1.2861
   53MOL0     H 7312  -0.091   5.980   3.364  1.9694  1.6352 -0.5157
   53MOL0     H 7313  -0.011   5.953   3.201 -0.0829 -2.7734 -0.3858
   53MOL0     H 7314  -0.193   5.956   3.222 -0.8632  0.0809  0.0843
   54MOL0     O 7315   7.627   4.390   9.951 -0.0137 -0.1725 -0.2427
   54MOL0     C 7316   7.577   4.291   9.910  0.0650 -0.0403 -0.1374
   54MOL0     O 7317   7.638   4.172   9.882  0.0188  0.9362  0.0912
   54MOL0     C 7318   7.771   4.137   9.897  0.4497 -0.4418  0.3317
   54MOL0     C 7319   7.793   4.004   9.881  0.3919  0.4736 -0.1801
   54MOL0     C 7320   7.917   3.945   9.909  0.3767  0.0174 -0.3737
   54MOL0     C 7321   8.027   4.015   9.950 -0.3153  0.6324  0.9135
   54MOL0     O 7322   8.135   3.937   9.989  0.6190 -0.8138 -0.3375
   54MOL0     C 7323   8.264   4.001   9.997  0.6256  0.6858  0.2807
   54MOL0     C 7324   8.296   4.052  10.137  0.6659 -0.0014  0.3049
   54MOL0     C 7325   8.444   4.096  10.148  0.6699 -1.0917 -0.4749
   54MOL0     C 7326   8.490   4.224  10.083 -0.3864  0.9552 -0.6337
   54MOL0     C 7327   8.641   4.227  10.047 -0.8547  0.4056  0.5770
   54MOL0     C 7328   8.727   4.186  10.167 -0.2171  1.1152  1.3597
   54MOL0     C 7329   8.879   4.167  10.128 -0.8051 -0.1120 -0.1186
   54MOL0     C 7330   8.962   4.261  10.219 -0.6321  0.2294 -0.4205
   54MOL0     N 7331   9.101   4.272  10.165  0.6480 -0.9202  0.1872
   54MOL0     C 7332   9.138   4.373  10.070 -0.7298  0.1680 -0.8770
   54MOL0     C 7333   9.268   4.333  10.037 -0.5350 -0.3994  0.8163
   54MOL0     C 7334   9.337   4.395   9.918 -0.1618  0.7254  0.4111
   54MOL0     C 7335   9.426   4.296   9.837  0.0766 -0.2461  0.1935
   54MOL0     C 7336   9.494   4.358   9.716 -0.2187 -0.5023  0.2810
   54MOL0     C 7337   9.408   4.351   9.600  0.0890  0.4663  0.7311
   54MOL0     O 7338   9.434   4.473   9.530 -0.3019 -0.2569  0.3367
   54MOL0     C 7339   9.529   4.490   9.429  0.3628  0.3438 -0.1226
   54MOL0     C 7340   9.625   4.398   9.382  0.3139 -0.2875  0.1599
   54MOL0     C 7341   9.703   4.418   9.270 -0.7918  0.6197 -0.3180
   54MOL0     C 7342   9.789   4.306   9.230 -0.8967  0.6304  0.2929
   54MOL0     C 7343   9.699   4.546   9.201  0.2930  0.7403 -0.1768
   54MOL0     C 7344   9.781   4.577   9.087  0.0769  0.1782  0.7216
   54MOL0     O 7345   9.855   4.484   9.022 -0.2489 -1.0388  0.2982
   54MOL0     C 7346   9.892   4.520   8.898  0.1913 -0.1800  0.3598
   54MOL0     C 7347  10.024   4.492   8.858 -0.2183 -0.3118  0.7429
   54MOL0     C 7348  10.070   4.529   8.727  0.7765  0.2287 -0.1898
   54MOL0     C 7349   9.983   4.564   8.630  1.0867  0.0395  0.1871
   54MOL0     O 7350  10.008   4.581   8.494 -0.5722  0.4304 -1.6266
   54MOL0     C 7351  10.142   4.558   8.443 -0.6371  0.2159  0.0145
   54MOL0     C 7352  10.192   4.404   8.422 -0.6908 -0.0973  0.8337
   54MOL0     C 7353  10.337   4.413   8.363  0.1483  0.1320  0.7829
   54MOL0     C 7354  10.381   4.277   8.336  0.8740 -0.2372 -0.3048
   54MOL0     C 7355  10.529   4.254   8.306 -0.3560  0.1735  0.4052
   54MOL0     C 7356  10.618   4.259   8.430  0.4617  0.6390  0.8236
   54MOL0     C 7357  10.768   4.262   8.412 -0.1049  0.3419  0.8616
   54MOL0     C 7358  10.843   4.133   8.420 -0.1365  0.5555 -0.1839
   54MOL0    Cl 7359  10.799   4.070   8.589  0.2948 -0.2672  0.1535
   54MOL0     C 7360   9.846   4.585   8.666 -0.4435  0.5387 -0.2183
   54MOL0     C 7361   9.798   4.552   8.798  0.1075 -0.5703 -0.9545
   54MOL0     O 7362   9.783   4.699   9.073  0.0856 -0.1005  0.3267
   54MOL0     C 7363   9.609   4.638   9.259  0.8144  0.0311 -1.3074
   54MOL0     C 7364   9.527   4.613   9.375  1.0425  0.2153 -0.7960
   54MOL0     N 7365   9.298   4.228  10.114 -0.6269  0.0823  0.6940
   54MOL0     N 7366   9.205   4.185  10.186  0.7649 -0.0413  0.9012
   54MOL0     C 7367   8.010   4.159   9.948  0.1877  0.1778 -0.0989
   54MOL0     C 7368   7.881   4.217   9.929  0.4556  0.0902  0.2928
   54MOL0     C 7369   7.444   4.311   9.852  0.4765 -0.1921 -0.4297
   54MOL0     C 7370   7.387   4.229   9.752 -0.8747  0.6709  0.3723
   54MOL0     C 7371   7.273   4.261   9.679 -0.5063  0.5601 -0.6161
   54MOL0     C 7372   7.204   4.383   9.693 -0.6321 -0.1620  0.4822
   54MOL0     O 7373   7.084   4.413   9.626  0.1209  0.1320 -0.5961
   54MOL0     C 7374   6.990   4.304   9.633 -0.7994  0.2260 -0.1184
   54MOL0     C 7375   6.848   4.344   9.644  0.7633  0.3900  0.5235
   54MOL0     C 7376   6.823   4.441   9.532 -0.3852 -0.0664 -0.3232
   54MOL0     C 7377   6.678   4.459   9.495 -0.4338  0.7957 -0.0669
   54MOL0     C 7378   6.621   4.334   9.446  0.9884  0.3546  0.9409
   54MOL0     C 7379   6.565   4.228   9.409 -0.0064 -0.4816 -0.4436
   54MOL0     C 7380   7.246   4.467   9.803 -0.9332 -0.9743  1.3029
   54MOL0     C 7381   7.362   4.429   9.881  0.0226  0.8848 -0.3278
   54MOL0     C 7382   7.388   4.527   9.999 -0.1681 -0.4295  0.6731
   54MOL0     H 7383   7.711   3.942   9.845 -1.4532  1.8060  1.5003
   54MOL0     H 7384   7.928   3.837   9.903 -1.5693 -0.1567 -1.7583
   54MOL0     H 7385   8.259   4.080   9.922 -3.7571  0.1270 -0.2951
   54MOL0     H 7386   8.342   3.927   9.975  0.7234  0.2491  1.9709
   54MOL0     H 7387   8.222   4.130  10.156 -2.1740 -2.1110 -1.2951
   54MOL0     H 7388   8.286   3.970  10.209 -1.1218 -0.8739 -0.8470
   54MOL0     H 7389   8.456   4.121  10.254  1.4654  2.0041 -1.1622
   54MOL0     H 7390   8.510   4.012  10.125 -0.1907 -2.0063  0.3226
   54MOL0     H 7391   8.422   4.236   9.997 -0.7676  1.8894 -0.2164
   54MOL0     H 7392   8.480   4.313  10.146  1.7772  0.3757  0.6192
   54MOL0     H 7393   8.670   4.327  10.012  0.6962 -0.7073 -1.5438
   54MOL0     H 7394   8.666   4.162   9.963  0.6270 -0.5012  1.6816
   54MOL0     H 7395   8.717   4.260  10.247  1.9904  3.0452 -0.0166
   54MOL0     H 7396   8.685   4.097  10.214  0.9108 -0.5406 -0.6196
   54MOL0     H 7397   8.897   4.210  10.029  3.5764  3.7105  1.9169
   54MOL0     H 7398   8.904   4.061  10.127 -0.0915  0.0493 -1.6056
   54MOL0     H 7399   8.911   4.358  10.222 -0.8298  0.1201 -0.2394
   54MOL0     H 7400   8.967   4.224  10.322 -1.7277  1.4415  0.1071
   54MOL0     H 7401   9.079   4.448  10.019 -2.0248  0.3630  0.8220
   54MOL0     H 7402   9.390   4.484   9.953  0.8093 -0.7796  3.1055
   54MOL0     H 7403   9.255   4.424   9.851  1.2832  0.5180 -1.5128
   54MOL0     H 7404   9.501   4.251   9.904  0.5121  0.3512  0.1164
   54MOL0     H 7405   9.375   4.214   9.785  3.9714 -1.8458 -1.5768
   54MOL0     H 7406   9.516   4.465   9.725 -0.1098 -0.4690 -0.3102
   54MOL0     H 7407   9.585   4.309   9.682 -0.2236 -0.0377 -0.4338
   54MOL0     H 7408   9.427   4.263   9.538 -0.3401  0.5620  0.4569
   54MOL0     H 7409   9.306   4.342   9.640  1.7516 -2.8146  5.0427
   54MOL0     H 7410   9.631   4.302   9.433 -1.5420 -0.5339 -0.0479
   54MOL0     H 7411   9.745   4.270   9.137 -0.6475 -2.2637  1.2014
   54MOL0     H 7412   9.780   4.219   9.296  3.5423 -1.9205 -2.0164
   54MOL0     H 7413   9.893   4.332   9.211 -0.4606 -0.6153  0.9067
   54MOL0     H 7414  10.094   4.470   8.938  1.3559  1.5323 -0.0365
   54MOL0     H 7415  10.177   4.525   8.711  0.9854 -0.1562  1.1849
   54MOL0     H 7416  10.132   4.601   8.343  1.2614 -2.6184 -1.5444
   54MOL0     H 7417  10.220   4.610   8.498 -1.0445  0.6586  0.1856
   54MOL0     H 7418  10.199   4.357   8.520 -0.8030 -2.6057 -0.3019
   54MOL0     H 7419  10.124   4.346   8.358 -0.7615 -0.2985  1.0894
   54MOL0     H 7420  10.400   4.463   8.437 -2.5838 -0.1128  3.4411
   54MOL0     H 7421  10.323   4.467   8.269 -0.6783  1.7529  1.7938
   54MOL0     H 7422  10.316   4.247   8.254 -0.5084  2.7658 -0.4278
   54MOL0     H 7423  10.361   4.216   8.425  1.5556 -0.5952 -0.3871
   54MOL0     H 7424  10.541   4.156   8.260  1.3480  0.1861  0.7770
   54MOL0     H 7425  10.553   4.327   8.228 -2.5205  0.2146 -0.2922
   54MOL0     H 7426  10.582   4.169   8.480  0.7224 -1.0781 -1.8717
   54MOL0     H 7427  10.593   4.347   8.490 -1.3353  1.3881 -0.9188
   54MOL0     H 7428  10.812   4.332   8.484  0.3295 -0.7339  1.6678
   54MOL0     H 7429  10.784   4.299   8.311  0.9926  0.3804  1.0376
   54MOL0     H 7430  10.946   4.141   8.385 -0.8703 -1.5934 -3.3293
   54MOL0     H 7431  10.811   4.065   8.340  1.2703  0.4600 -0.6947
   54MOL0     H 7432   9.776   4.600   8.585  0.3925 -0.5412 -1.1704
   54MOL0     H 7433   9.695   4.568   8.827  0.3452  1.1268 -0.9776
   54MOL0     H 7434   9.594   4.736   9.214  2.1584  1.3726  0.9911
   54MOL0     H 7435   9.454   4.686   9.409  1.6519 -0.1183  1.3873
   54MOL0     H 7436   8.097   4.214   9.983 -1.3002  0.1191  4.3112
   54MOL0     H 7437   7.865   4.322   9.955 -0.2607 -0.4863  2.3945
   54MOL0     H 7438   7.458   4.150   9.729  1.6595  2.4034  1.7028
   54MOL0     H 7439   7.250   4.184   9.607 -0.2037 -1.9620  1.8048
   54MOL0     H 7440   7.006   4.233   9.551 -2.1928  1.3538 -1.4204
   54MOL0     H 7441   7.011   4.242   9.721  1.3592 -0.7558 -1.2364
   54MOL0     H 7442   6.847   4.396   9.741  0.7900 -1.9025  1.8336
   54MOL0     H 7443   6.785   4.254   9.637  1.1431  0.1724 -0.1648
   54MOL0     H 7444   6.871   4.535   9.559  0.0437 -0.1708 -0.7169
   54MOL0     H 7445   6.864   4.395   9.442 -1.4830 -2.1328  0.1548
   54MOL0     H 7446   6.666   4.539   9.421 -2.2994  2.0218  1.4612
   54MOL0     H 7447   6.612   4.478   9.581 -1.7720 -1.1732 -0.5821
   54MOL0     H 7448   6.523   4.130   9.398 -0.6867 -0.0700 -1.6329
   54MOL0     H 7449   7.192   4.557   9.832  0.1810  0.0383  0.3405
   54MOL0     H 7450   7.295   4.580  10.024 -1.3373 -0.5507 -2.8786
   54MOL0     H 7451   7.439   4.484  10.086  1.5805  0.5605  0.1809
   54MOL0     H 7452   7.453   4.608   9.964 -0.7858  0.0098  0.5209
   55MOL0     O 7453   2.127   6.832   0.988 -0.8331  0.1481 -0.4621
   55MOL0     C 7454   2.202   6.831   1.080 -0.6834  0.1000 -0.2179
   55MOL0     O 7455   2.261   6.712   1.124 -0.1892 -0.1863  0.9137
   55MOL0     C 7456   2.225   6.592   1.057 -0.1523 -1.2165  0.1221
   55MOL0     C 7457   2.142   6.496   1.121  0.4237 -0.2660  0.0381
   55MOL0     C 7458   2.121   6.382   1.046  0.8466 -0.9263 -0.4059
   55MOL0     C 7459   2.172   6.348   0.927 -0.4465 -0.1120  0.2680
   55MOL0     O 7460   2.163   6.224   0.872 -0.0030  0.7669  0.0882
   55MOL0     C 7461   2.044   6.143   0.897  0.1882 -0.3436  0.9440
   55MOL0     C 7462   2.051   6.034   0.798  1.4722  1.0983  0.3684
   55MOL0     C 7463   1.927   5.946   0.775  0.0687  0.3429  1.1407
   55MOL0     C 7464   1.858   5.886   0.905  0.5523 -0.1935 -0.3697
   55MOL0     C 7465   1.740   5.790   0.871 -0.3345 -0.8779  0.3741
   55MOL0     C 7466   1.787   5.666   0.800 -0.1142 -0.4697  1.3912
   55MOL0     C 7467   1.671   5.585   0.752  0.2622  0.4087 -0.4057
   55MOL0     C 7468   1.579   5.649   0.638  0.4269 -0.5540  0.0727
   55MOL0     N 7469   1.657   5.651   0.511 -0.7116 -0.1601 -0.2178
   55MOL0     C 7470   1.675   5.547   0.421  0.0491 -0.1483 -0.3576
   55MOL0     C 7471   1.769   5.592   0.334  0.0443  0.9065 -0.0020
   55MOL0     C 7472   1.808   5.527   0.204 -0.3911  0.0671 -0.2879
   55MOL0     C 7473   1.938   5.592   0.146 -0.1356 -0.0162 -0.0831
   55MOL0     C 7474   1.991   5.518   0.020  0.9364 -0.1851 -0.3084
   55MOL0     C 7475   1.910   5.552  -0.104 -0.5376 -0.4858 -0.7299
   55MOL0     O 7476   1.905   5.692  -0.131 -0.0123 -0.1022 -0.1894
   55MOL0     C 7477   1.974   5.760  -0.233  0.0142 -0.5270  0.0416
   55MOL0     C 7478   2.093   5.712  -0.291  0.2350  0.1516  0.4395
   55MOL0     C 7479   2.176   5.777  -0.382  0.0436  0.5631  0.4967
   55MOL0     C 7480   2.301   5.703  -0.425 -0.1592 -0.7060  0.0696
   55MOL0     C 7481   2.134   5.903  -0.427  0.2059 -0.6129  0.2351
   55MOL0     C 7482   2.213   5.997  -0.523  0.2789  0.0865 -0.4481
   55MOL0     O 7483   2.162   6.121  -0.530 -0.6840  0.0583  0.4982
   55MOL0     C 7484   2.222   6.203  -0.629 -0.8645  0.3368 -0.2262
   55MOL0     C 7485   2.349   6.272  -0.607  0.4565 -0.6366 -0.0415
   55MOL0     C 7486   2.401   6.349  -0.712 -0.2635 -0.4283  0.2076
   55MOL0     C 7487   2.339   6.362  -0.837 -0.0915  0.6717  0.0063
   55MOL0     O 7488   2.387   6.436  -0.942  0.2616  0.1672  0.4303
   55MOL0     C 7489   2.505   6.518  -0.931  0.3312 -0.5443 -0.0854
   55MOL0     C 7490   2.628   6.441  -0.980 -0.4485 -0.0022  0.4317
   55MOL0     C 7491   2.749   6.540  -0.996 -0.4072 -0.2546 -0.1892
   55MOL0     C 7492   2.879   6.475  -1.054 -0.2506 -0.4275  0.1250
   55MOL0     C 7493   2.993   6.581  -1.056  0.3586 -0.4023  0.5114
   55MOL0     C 7494   3.046   6.597  -0.908 -0.6511 -0.3015 -0.9592
   55MOL0     C 7495   3.158   6.487  -0.877  1.3720 -0.2394  0.1772
   55MOL0     C 7496   3.229   6.511  -0.748  0.2952  1.1967  0.1993
   55MOL0    Cl 7497   3.132   6.563  -0.613  0.0766  0.5344  0.3619
   55MOL0     C 7498   2.221   6.294  -0.852 -0.0831 -0.5014  0.1801
   55MOL0     C 7499   2.162   6.209  -0.756 -0.9981 -0.3164 -0.6147
   55MOL0     O 7500   2.301   5.947  -0.591 -0.4658  0.6373  0.1369
   55MOL0     C 7501   2.018   5.955  -0.373 -0.2471 -0.4955 -0.1651
   55MOL0     C 7502   1.934   5.886  -0.275  0.1580 -0.4483  0.0239
   55MOL0     N 7503   1.790   5.724   0.351  0.4015 -0.2835  0.0327
   55MOL0     N 7504   1.729   5.758   0.460  0.5321  0.5016 -0.1014
   55MOL0     C 7505   2.257   6.445   0.873 -0.2738 -0.2279  0.6785
   55MOL0     C 7506   2.296   6.564   0.937 -0.2012  0.3539 -0.8665
   55MOL0     C 7507   2.205   6.953   1.170  0.3845 -0.2309  0.2798
   55MOL0     C 7508   2.147   7.067   1.119 -0.0339 -0.2732  0.6910
   55MOL0     C 7509   2.144   7.184   1.198 -0.3458 -0.1074  0.0914
   55MOL0     C 7510   2.185   7.184   1.332  0.2212 -0.5884  0.0141
   55MOL0     O 7511   2.182   7.302   1.385 -0.2220  0.0230 -0.5170
   55MOL0     C 7512   2.200   7.313   1.525  0.4149 -0.2009 -0.7101
   55MOL0     C 7513   2.181   7.464   1.557  0.0078  0.3684  0.1875
   55MOL0     C 7514   2.203   7.465   1.714  0.0645 -0.4380  0.3336
   55MOL0     C 7515   2.158   7.594   1.782 -0.5895 -1.3544 -0.7942
   55MOL0     C 7516   2.118   7.557   1.920  0.3046 -0.6162  0.4847
   55MOL0     C 7517   2.083   7.513   2.028 -0.2405 -0.0190  0.1147
   55MOL0     C 7518   2.248   7.071   1.380  0.2180  0.2802 -0.1795
   55MOL0     C 7519   2.265   6.959   1.300 -0.0445 -0.2053  0.4332
   55MOL0     C 7520   2.330   6.843   1.371 -0.6215  0.8197 -0.2338
   55MOL0     H 7521   2.086   6.508   1.213  0.0590  1.1600 -0.3446
   55MOL0     H 7522   2.075   6.298   1.097 -0.0241 -1.0916 -1.4208
   55MOL0     H 7523   1.956   6.207   0.904  1.2318  1.0839  1.3650
   55MOL0     H 7524   2.051   6.096   0.996  0.2570  0.9755  1.5809
   55MOL0     H 7525   2.081   6.073   0.700  4.2344  0.1885  0.7561
   55MOL0     H 7526   2.129   5.963   0.829 -0.3592 -1.1559  0.0758
   55MOL0     H 7527   1.861   6.016   0.723  0.0192  0.6352  1.5948
   55MOL0     H 7528   1.946   5.863   0.706  1.4494 -1.8793  3.9835
   55MOL0     H 7529   1.928   5.839   0.975  0.4211  0.8041  0.4447
   55MOL0     H 7530   1.815   5.960   0.973  1.0808 -1.0708  0.9685
   55MOL0     H 7531   1.668   5.850   0.814 -1.6881 -1.2314  1.6341
   55MOL0     H 7532   1.687   5.757   0.961  0.4416 -1.9212  0.4633
   55MOL0     H 7533   1.839   5.689   0.707 -1.6772  1.5963  0.9489
   55MOL0     H 7534   1.845   5.607   0.873 -1.7965  0.5381  3.6599
   55MOL0     H 7535   1.610   5.572   0.843 -1.1131  3.2893 -0.7867
   55MOL0     H 7536   1.713   5.489   0.723  1.8631  1.3932 -1.4581
   55MOL0     H 7537   1.497   5.577   0.627  0.0534 -0.5208  2.2405
   55MOL0     H 7538   1.547   5.751   0.663  0.5060 -0.9500  1.9268
   55MOL0     H 7539   1.616   5.456   0.414  0.9413 -1.3716  4.4331
   55MOL0     H 7540   1.728   5.527   0.129 -1.0798  2.8490  0.3228
   55MOL0     H 7541   1.827   5.424   0.236 -0.8502  0.4923  1.4681
   55MOL0     H 7542   1.906   5.691   0.110 -0.7996 -0.4009 -0.5650
   55MOL0     H 7543   2.021   5.612   0.215  0.2239 -0.0272 -0.5029
   55MOL0     H 7544   2.096   5.537  -0.003  0.6219  1.6084 -0.3880
   55MOL0     H 7545   1.981   5.414   0.054  0.3095  0.6544  2.3457
   55MOL0     H 7546   1.929   5.508  -0.202 -3.5101 -3.2762 -0.2334
   55MOL0     H 7547   1.812   5.515  -0.072  1.4335 -3.2222  3.0314
   55MOL0     H 7548   2.127   5.616  -0.254 -0.0514  0.6900  2.2008
   55MOL0     H 7549   2.300   5.685  -0.533 -1.6991  0.1453 -0.0914
   55MOL0     H 7550   2.322   5.609  -0.373 -0.6125 -0.7651  0.1533
   55MOL0     H 7551   2.378   5.776  -0.402 -0.1903 -0.6239 -0.0821
   55MOL0     H 7552   2.409   6.275  -0.516  1.6902 -1.0429 -0.8064
   55MOL0     H 7553   2.495   6.401  -0.693  0.7231 -1.9485 -0.3028
   55MOL0     H 7554   2.496   6.610  -0.990  2.2037  0.3217  0.8952
   55MOL0     H 7555   2.528   6.549  -0.828  1.4632 -1.7032  0.0255
   55MOL0     H 7556   2.656   6.360  -0.912  0.6252  1.1399  1.4082
   55MOL0     H 7557   2.603   6.385  -1.070 -1.5218 -2.2789  2.0465
   55MOL0     H 7558   2.779   6.582  -0.900  0.6752  0.0951 -0.6633
   55MOL0     H 7559   2.720   6.624  -1.060 -0.6962 -0.1097  0.1281
   55MOL0     H 7560   2.862   6.446  -1.159  2.0215 -0.7993 -0.1985
   55MOL0     H 7561   2.901   6.387  -0.994  0.5261 -0.2562  0.0961
   55MOL0     H 7562   3.071   6.546  -1.124  1.8441  1.1700  1.3476
   55MOL0     H 7563   2.942   6.672  -1.088  2.5978  1.2183  1.2975
   55MOL0     H 7564   2.970   6.591  -0.829 -0.8654 -0.6527 -1.1915
   55MOL0     H 7565   3.088   6.697  -0.889  0.5771 -0.8569 -0.6934
   55MOL0     H 7566   3.228   6.493  -0.960  2.5976  0.3491  1.2123
   55MOL0     H 7567   3.105   6.391  -0.881 -2.7584  1.5937  3.3622
   55MOL0     H 7568   3.292   6.597  -0.775  2.1979  0.4281  1.9343
   55MOL0     H 7569   3.297   6.427  -0.731  1.0128  1.4791 -1.1565
   55MOL0     H 7570   2.176   6.310  -0.949  1.5693 -0.3297 -0.5956
   55MOL0     H 7571   2.072   6.153  -0.781 -2.3033  0.7205  1.4348
   55MOL0     H 7572   1.978   6.055  -0.387  0.2372  0.1832  2.7371
   55MOL0     H 7573   1.838   5.915  -0.232  0.5373 -1.1519  1.3987
   55MOL0     H 7574   2.301   6.424   0.776 -1.4868  0.2356  0.0070
   55MOL0     H 7575   2.345   6.646   0.886 -0.6410 -1.0132 -3.6867
   55MOL0     H 7576   2.109   7.081   1.018  3.3958  1.3093 -0.5205
   55MOL0     H 7577   2.110   7.272   1.144  1.2286 -0.4835 -1.6168
   55MOL0     H 7578   2.121   7.258   1.577  3.5740  0.2898  5.6494
   55MOL0     H 7579   2.294   7.285   1.572 -1.8847 -3.5720  2.4986
   55MOL0     H 7580   2.085   7.502   1.522 -0.3415  0.7004  1.4710
   55MOL0     H 7581   2.259   7.510   1.496 -1.0611  0.0343 -1.5144
   55MOL0     H 7582   2.164   7.377   1.766  2.2474 -2.6939 -1.6404
   55MOL0     H 7583   2.311   7.462   1.726  0.4663 -0.9550 -2.6592
   55MOL0     H 7584   2.065   7.642   1.749 -1.9121 -3.5622 -0.5152
   55MOL0     H 7585   2.232   7.672   1.803 -2.9585 -0.0501  4.0305
   55MOL0     H 7586   2.043   7.476   2.120 -3.1927  3.8313  0.6383
   55MOL0     H 7587   2.301   7.065   1.475  1.1456 -1.1380 -0.7504
   55MOL0     H 7588   2.348   6.864   1.477  0.0138 -1.5625  0.1857
   55MOL0     H 7589   2.274   6.750   1.364  0.4793  0.0441  0.9042
   55MOL0     H 7590   2.429   6.825   1.328  0.4828  2.4854  1.4703
   56MOL0     O 7591  11.215   3.270  10.433  0.4800  0.2111  0.4572
   56MOL0     C 7592  11.305   3.207  10.371  0.3568 -0.4522 -0.0357
   56MOL0     O 7593  11.383   3.257  10.270 -0.0690  0.3390  0.1144
   56MOL0     C 7594  11.376   3.369  10.212  0.1911 -0.7408 -0.0123
   56MOL0     C 7595  11.360   3.493  10.280 -0.0564  1.2955 -0.3879
   56MOL0     C 7596  11.383   3.616  10.216  0.6377  0.6353  0.3304
   56MOL0     C 7597  11.392   3.625  10.080  0.8781 -0.2360 -0.7320
   56MOL0     O 7598  11.395   3.737  10.004 -0.0069 -0.4442  0.8184
   56MOL0     C 7599  11.403   3.863  10.066  0.1216 -0.4620  0.4082
   56MOL0     C 7600  11.386   3.978   9.962  0.4537 -0.5214  0.6132
   56MOL0     C 7601  11.493   3.996   9.853  0.6152 -0.3886 -1.3083
   56MOL0     C 7602  11.509   4.139   9.802 -0.4393  0.1112 -0.2296
   56MOL0     C 7603  11.619   4.135   9.692 -0.2970 -0.1184  0.9113
   56MOL0     C 7604  11.623   4.283   9.638  0.8052 -0.8102 -0.6751
   56MOL0     C 7605  11.744   4.330   9.561 -1.0117 -0.4281  0.3131
   56MOL0     C 7606  11.753   4.477   9.532  0.1509  0.4728  0.3044
   56MOL0     N 7607  11.644   4.527   9.446 -0.0155 -0.9418 -0.2742
   56MOL0     C 7608  11.511   4.543   9.482 -0.0250  0.2354  0.2514
   56MOL0     C 7609  11.443   4.553   9.366 -0.0230 -0.4896  0.6612
   56MOL0     C 7610  11.291   4.540   9.347 -1.2548  0.8903 -0.6915
   56MOL0     C 7611  11.224   4.483   9.473 -0.1120 -1.1177  1.2336
   56MOL0     C 7612  11.069   4.472   9.446 -0.5050  0.2948  0.3364
   56MOL0     C 7613  10.981   4.444   9.579  0.5429  0.3441 -0.0353
   56MOL0     O 7614  11.072   4.432   9.692  0.3008  0.5609  0.4896
   56MOL0     C 7615  11.025   4.471   9.815  0.5318 -0.4529  0.2309
   56MOL0     C 7616  10.922   4.551   9.861  0.4795 -1.0626  0.6891
   56MOL0     C 7617  10.901   4.585  10.000  0.5913 -1.0726  0.4233
   56MOL0     C 7618  10.783   4.678  10.039 -0.0514 -0.5240 -0.1152
   56MOL0     C 7619  10.991   4.543  10.098 -0.8072 -0.8275 -0.4096
   56MOL0     C 7620  10.996   4.592  10.244 -0.6638  0.1674 -0.3785
   56MOL0     O 7621  11.053   4.510  10.337 -0.3089  0.6737  0.0015
   56MOL0     C 7622  11.069   4.563  10.459  0.6816  0.4923 -0.0278
   56MOL0     C 7623  10.979   4.547  10.560  0.0132  0.5755  0.2136
   56MOL0     C 7624  10.980   4.643  10.674  0.6274  1.3090 -0.1643
   56MOL0     C 7625  11.080   4.736  10.691 -0.2432 -1.0388  0.6481
   56MOL0     O 7626  11.096   4.829  10.797  0.7586 -0.0488 -0.2798
   56MOL0     C 7627  10.971   4.854  10.864  0.1402  0.2628  0.6925
   56MOL0     C 7628  11.016   4.942  10.990  0.3395  0.6461  0.1184
   56MOL0     C 7629  11.116   4.856  11.076  0.3715 -0.6101 -0.4952
   56MOL0     C 7630  11.162   4.937  11.203 -0.6104 -0.4956 -0.5017
   56MOL0     C 7631  11.087   4.911  11.331  0.0433 -0.0906 -0.7160
   56MOL0     C 7632  11.137   4.792  11.411 -0.0151  0.3911  0.1995
   56MOL0     C 7633  11.161   4.836  11.552  0.2982  0.0528  0.6338
   56MOL0     C 7634  11.203   4.729  11.648  1.0060  0.0146 -0.3458
   56MOL0    Cl 7635  11.353   4.653  11.604 -0.1876  0.6625  0.2990
   56MOL0     C 7636  11.183   4.740  10.597  0.2635  0.0263  0.7055
   56MOL0     C 7637  11.169   4.655  10.479 -1.0769 -0.5040 -0.1830
   56MOL0     O 7638  10.960   4.706  10.263 -0.4963 -0.2877 -0.4454
   56MOL0     C 7639  11.102   4.470  10.046  0.3128  0.7983  0.0953
   56MOL0     C 7640  11.116   4.425   9.914 -0.7294  0.2033 -0.7351
   56MOL0     N 7641  11.539   4.553   9.265  1.1841 -0.4766  0.2419
   56MOL0     N 7642  11.652   4.538   9.314  1.1602 -0.3919 -0.0308
   56MOL0     C 7643  11.389   3.503  10.011 -1.3769 -0.1087  0.3158
   56MOL0     C 7644  11.374   3.379  10.076 -0.3016 -0.0412  0.0079
   56MOL0     C 7645  11.312   3.066  10.401 -0.1070 -0.3774  0.2833
   56MOL0     C 7646  11.351   2.969  10.299  0.6660 -0.4141 -0.6040
   56MOL0     C 7647  11.353   2.832  10.321 -0.5781  0.4851 -0.3277
   56MOL0     C 7648  11.334   2.779  10.446  0.1077  0.0627 -0.6382
   56MOL0     O 7649  11.349   2.648  10.459  0.1213 -0.5412 -0.1547
   56MOL0     C 7650  11.355   2.596  10.593  0.1910 -0.5432 -1.0236
   56MOL0     C 7651  11.394   2.452  10.594  0.0431 -0.9331 -0.0279
   56MOL0     C 7652  11.424   2.399  10.739 -0.4416  0.9639 -0.0046
   56MOL0     C 7653  11.559   2.455  10.790  0.1945 -0.1061  0.6142
   56MOL0     C 7654  11.591   2.389  10.913  0.3076  0.1760 -0.1470
   56MOL0     C 7655  11.610   2.339  11.023 -0.4912  0.3606 -0.4263
   56MOL0     C 7656  11.288   2.866  10.547 -0.9983 -0.0036  0.2537
   56MOL0     C 7657  11.280   3.003  10.520  0.0386 -0.0035  0.7559
   56MOL0     C 7658  11.254   3.092  10.641  0.4547  0.3656 -0.2931
   56MOL0     H 7659  11.362   3.494  10.389 -0.6776 -0.9124 -0.3056
   56MOL0     H 7660  11.404   3.704  10.276  2.8433  0.3431  0.0613
   56MOL0     H 7661  11.499   3.875  10.117  0.4301 -0.4495 -0.1704
   56MOL0     H 7662  11.319   3.880  10.133 -0.9930  2.5108 -1.5265
   56MOL0     H 7663  11.288   3.973   9.914  0.7868 -1.4841  0.0077
   56MOL0     H 7664  11.404   4.074  10.011  0.8094 -0.5303  0.5063
   56MOL0     H 7665  11.582   3.954   9.899 -0.2266 -0.0327  0.7552
   56MOL0     H 7666  11.482   3.928   9.767  2.8549 -0.0855 -1.8922
   56MOL0     H 7667  11.410   4.169   9.766 -1.5460  1.2364  3.2697
   56MOL0     H 7668  11.523   4.210   9.884  0.9825 -0.7562  0.3118
   56MOL0     H 7669  11.587   4.079   9.604  3.1164  2.1518 -2.0416
   56MOL0     H 7670  11.716   4.099   9.728  0.3470  0.7068  0.0303
   56MOL0     H 7671  11.540   4.284   9.567 -0.9242 -0.4892  1.2676
   56MOL0     H 7672  11.590   4.356   9.712 -1.6772  0.1910 -2.6073
   56MOL0     H 7673  11.733   4.286   9.462 -1.7697 -2.0143  1.0634
   56MOL0     H 7674  11.834   4.296   9.614 -0.2432 -3.3421 -2.5258
   56MOL0     H 7675  11.745   4.520   9.632  1.0185 -1.6773  1.3691
   56MOL0     H 7676  11.842   4.500   9.472  0.3519  0.9868  0.7967
   56MOL0     H 7677  11.472   4.534   9.583 -0.6924  3.5227  0.4266
   56MOL0     H 7678  11.266   4.471   9.266 -4.3525  0.0357  0.8220
   56MOL0     H 7679  11.242   4.629   9.306 -0.7827  0.3354 -2.5793
   56MOL0     H 7680  11.269   4.385   9.492  1.5027 -0.3596  1.5085
   56MOL0     H 7681  11.237   4.559   9.551 -3.1883  2.9359 -1.7065
   56MOL0     H 7682  11.042   4.568   9.400  0.0613  0.2909 -0.0093
   56MOL0     H 7683  11.050   4.397   9.369  2.4732  1.3621 -1.6242
   56MOL0     H 7684  10.902   4.517   9.598 -1.1830 -1.5573  0.4399
   56MOL0     H 7685  10.925   4.351   9.564  0.7094  0.1848  0.3340
   56MOL0     H 7686  10.869   4.616   9.791  1.4863 -0.0831  0.8131
   56MOL0     H 7687  10.694   4.629   9.998 -0.8979 -2.3088  3.5139
   56MOL0     H 7688  10.798   4.781  10.005 -2.0343 -0.4831 -1.0030
   56MOL0     H 7689  10.764   4.671  10.146 -2.5102  0.6337 -0.4140
   56MOL0     H 7690  10.892   4.483  10.557  1.4486 -1.5209  0.9633
   56MOL0     H 7691  10.895   4.634  10.739  0.5890  0.6134 -0.3011
   56MOL0     H 7692  10.903   4.898  10.790 -2.0249 -3.4892  0.1730
   56MOL0     H 7693  10.929   4.757  10.891  0.6347 -0.6856 -1.6562
   56MOL0     H 7694  11.061   5.034  10.952  1.2655  0.2467  0.2170
   56MOL0     H 7695  10.921   4.971  11.035 -1.1988  0.4464 -2.7787
   56MOL0     H 7696  11.204   4.826  11.017  1.2837 -1.4276  1.2290
   56MOL0     H 7697  11.063   4.768  11.111 -0.8826  0.4447  0.3661
   56MOL0     H 7698  11.178   5.042  11.176  3.5131 -1.0063 -0.6862
   56MOL0     H 7699  11.262   4.897  11.224  1.0155  3.6465  0.8327
   56MOL0     H 7700  11.098   4.996  11.399 -3.1612 -0.1451  0.0416
   56MOL0     H 7701  10.979   4.899  11.325 -0.0161 -0.6429  0.9055
   56MOL0     H 7702  11.230   4.755  11.367 -0.6236  0.4024 -1.1446
   56MOL0     H 7703  11.071   4.705  11.407  0.1750  0.1659  1.6559
   56MOL0     H 7704  11.072   4.883  11.595 -2.5289 -2.9134 -1.4675
   56MOL0     H 7705  11.243   4.908  11.559  0.3461 -0.1187  2.4360
   56MOL0     H 7706  11.123   4.657  11.668  2.4346 -1.6322 -0.3050
   56MOL0     H 7707  11.230   4.763  11.749  1.0226 -3.0786  0.7724
   56MOL0     H 7708  11.260   4.815  10.589  0.8027 -0.5129  0.7373
   56MOL0     H 7709  11.246   4.657  10.404  1.1809 -0.5602  1.9993
   56MOL0     H 7710  11.175   4.435  10.118 -0.9285 -2.5434 -0.0974
   56MOL0     H 7711  11.192   4.354   9.883 -0.0857 -0.0195  1.2428
   56MOL0     H 7712  11.398   3.508   9.903  1.4304  3.2180  0.5398
   56MOL0     H 7713  11.381   3.296  10.006 -1.8064  0.1572 -0.3999
   56MOL0     H 7714  11.367   3.011  10.200  2.0476 -3.6322 -1.9027
   56MOL0     H 7715  11.371   2.765  10.238 -1.6336 -2.6154  1.7829
   56MOL0     H 7716  11.430   2.657  10.643 -1.7155  1.3817 -0.3493
   56MOL0     H 7717  11.256   2.603  10.638 -0.3232  2.2727 -2.3110
   56MOL0     H 7718  11.481   2.446  10.528  0.7789  4.1071  0.1188
   56MOL0     H 7719  11.313   2.390  10.553  0.6238  0.2024 -3.1906
   56MOL0     H 7720  11.339   2.431  10.801 -0.4504  0.5198  0.2160
   56MOL0     H 7721  11.430   2.290  10.732 -2.1647  0.8995 -1.1725
   56MOL0     H 7722  11.536   2.557  10.824  1.6766 -0.7720  4.1179
   56MOL0     H 7723  11.638   2.451  10.715 -1.3146 -0.6628 -1.0216
   56MOL0     H 7724  11.637   2.295  11.117 -1.1266  0.3852 -0.2256
   56MOL0     H 7725  11.262   2.819  10.641  6.1805 -2.8595  1.5151
   56MOL0     H 7726  11.338   3.163  10.646  0.4936  0.3148 -0.2302
   56MOL0     H 7727  11.158   3.145  10.646 -0.3942 -1.2069  3.4600
   56MOL0     H 7728  11.254   3.038  10.736 -2.2061  2.8099  1.2928
   57MOL0     O 7729   0.508   4.135   8.678  0.2432  0.1685 -0.5924
   57MOL0     C 7730   0.521   4.016   8.663 -0.0330  0.6128 -0.1122
   57MOL0     O 7731   0.508   3.927   8.773 -0.5594  0.5249 -0.2740
   57MOL0     C 7732   0.399   3.949   8.856  0.1870 -0.4620 -0.0259
   57MOL0     C 7733   0.271   3.893   8.833 -0.2882  0.1500 -0.0050
   57MOL0     C 7734   0.158   3.932   8.905 -0.3747 -0.5250 -1.0739
   57MOL0     C 7735   0.183   4.040   8.996  1.1729 -0.3487 -0.4066
   57MOL0     O 7736   0.079   4.061   9.081  0.1313 -0.5112  0.8385
   57MOL0     C 7737   0.062   4.199   9.138 -0.3291  0.8857 -0.0071
   57MOL0     C 7738  -0.061   4.210   9.222  0.4251  1.0294 -0.1334
   57MOL0     C 7739  -0.117   4.085   9.279 -0.3375 -0.6740 -0.1357
   57MOL0     C 7740  -0.199   4.108   9.407 -0.3604  1.0819 -0.3343
   57MOL0     C 7741  -0.287   3.980   9.436  0.6913 -0.2644 -0.6130
   57MOL0     C 7742  -0.311   3.943   9.583  0.0638  0.6380  0.6175
   57MOL0     C 7743  -0.365   3.801   9.605  0.2086 -0.2193 -0.2389
   57MOL0     C 7744  -0.496   3.772   9.529 -0.9558  0.0339 -0.2741
   57MOL0     N 7745  -0.611   3.851   9.573  0.2977  0.1359 -0.1548
   57MOL0     C 7746  -0.674   3.838   9.689 -0.0432 -0.0957 -0.1061
   57MOL0     C 7747  -0.780   3.924   9.685  0.6727 -0.4778 -0.9976
   57MOL0     C 7748  -0.871   3.943   9.806 -0.7392  0.2915  0.0659
   57MOL0     C 7749  -1.020   3.961   9.765 -0.2250  0.5915  1.5487
   57MOL0     C 7750  -1.118   3.942   9.872 -0.3062  0.1379  0.3459
   57MOL0     C 7751  -1.271   3.968   9.821 -0.0457  0.2149 -0.7319
   57MOL0     O 7752  -1.339   3.862   9.753 -0.0786 -0.9040 -0.1640
   57MOL0     C 7753  -1.453   3.904   9.683 -0.2916 -0.1708 -0.0752
   57MOL0     C 7754  -1.507   4.035   9.698  0.2689 -0.7489  0.2599
   57MOL0     C 7755  -1.632   4.069   9.644  0.3167  0.2261 -0.2395
   57MOL0     C 7756  -1.691   4.203   9.683 -0.6472  0.4589  0.4758
   57MOL0     C 7757  -1.693   3.976   9.544  0.5060  0.7149  0.0068
   57MOL0     C 7758  -1.822   4.016   9.476 -0.7219  0.2659  0.3731
   57MOL0     O 7759  -1.838   3.953   9.362 -0.0806  0.5535  0.2632
   57MOL0     C 7760  -1.962   3.953   9.299  0.4882  0.7126  0.3688
   57MOL0     C 7761  -2.015   3.828   9.251 -0.8272 -0.5080  0.8098
   57MOL0     C 7762  -2.141   3.822   9.184 -0.2177 -0.9844 -0.9299
   57MOL0     C 7763  -2.215   3.938   9.162  0.8270  0.7053  0.2739
   57MOL0     O 7764  -2.333   3.941   9.092 -0.7515  0.3524 -0.7308
   57MOL0     C 7765  -2.325   3.883   8.961 -0.3477 -0.0657 -0.5810
   57MOL0     C 7766  -2.462   3.914   8.898  0.0394  0.1290 -0.2905
   57MOL0     C 7767  -2.482   3.873   8.757  0.3168  0.0702 -0.0644
   57MOL0     C 7768  -2.616   3.925   8.710  0.0010  0.1988 -0.4181
   57MOL0     C 7769  -2.636   3.905   8.553 -0.9092  0.0126  0.6404
   57MOL0     C 7770  -2.618   3.771   8.487  0.4447  0.3978  0.2522
   57MOL0     C 7771  -2.654   3.769   8.337 -0.5372 -0.4596 -0.3040
   57MOL0     C 7772  -2.626   3.624   8.286  0.2464  0.3147 -0.2940
   57MOL0    Cl 7773  -2.470   3.625   8.200 -0.0140  0.1208 -0.0914
   57MOL0     C 7774  -2.166   4.054   9.203  0.0941 -0.8349 -1.3423
   57MOL0     C 7775  -2.051   4.060   9.285  0.2028  0.2757  0.3798
   57MOL0     O 7776  -1.905   4.062   9.550 -0.7221 -0.3295  0.7214
   57MOL0     C 7777  -1.628   3.863   9.510  0.3159  0.4125 -0.4592
   57MOL0     C 7778  -1.511   3.827   9.591  0.0209  0.2473  0.4852
   57MOL0     N 7779  -0.785   3.975   9.554  0.4811  0.1050  0.2222
   57MOL0     N 7780  -0.681   3.934   9.490 -0.6397  0.0830  0.4077
   57MOL0     C 7781   0.307   4.091   9.024 -1.1565  0.7941  0.5937
   57MOL0     C 7782   0.416   4.040   8.961  0.3957 -0.2597 -0.1217
   57MOL0     C 7783   0.570   3.967   8.530 -0.2236 -0.4420  0.0516
   57MOL0     C 7784   0.624   3.838   8.517  0.2910 -0.1954  0.0910
   57MOL0     C 7785   0.649   3.777   8.397 -0.8309 -0.0827 -0.4068
   57MOL0     C 7786   0.623   3.847   8.282  0.5587 -0.0034  0.4755
   57MOL0     O 7787   0.670   3.778   8.171  0.6845  0.2266 -0.5397
   57MOL0     C 7788   0.570   3.679   8.132 -0.1064 -0.4510 -0.3003
   57MOL0     C 7789   0.589   3.640   7.988  0.6792 -1.0196  0.2772
   57MOL0     C 7790   0.478   3.545   7.951 -0.6109  0.0051 -0.3011
   57MOL0     C 7791   0.345   3.610   7.945  0.1378 -0.0176  0.3363
   57MOL0     C 7792   0.242   3.514   7.931 -0.3593  0.0910 -0.3603
   57MOL0     C 7793   0.174   3.418   7.888  0.3890 -0.6553  0.0980
   57MOL0     C 7794   0.576   3.975   8.285 -0.0009 -1.1432 -0.4232
   57MOL0     C 7795   0.549   4.038   8.406  0.1484 -0.5805 -0.0851
   57MOL0     C 7796   0.500   4.180   8.399  0.7690 -0.5087  0.3497
   57MOL0     H 7797   0.274   3.809   8.765  0.7792 -3.1211  3.7070
   57MOL0     H 7798   0.066   3.879   8.880 -2.0205  2.0475 -0.7738
   57MOL0     H 7799   0.056   4.268   9.054  1.2072 -0.6627 -1.4540
   57MOL0     H 7800   0.148   4.216   9.203  1.4993  0.0831 -2.1124
   57MOL0     H 7801  -0.045   4.281   9.304  1.0678  0.6666  0.0633
   57MOL0     H 7802  -0.136   4.261   9.161  1.1102  1.8661 -0.3062
   57MOL0     H 7803  -0.172   4.032   9.200 -1.8135 -1.2747  1.2372
   57MOL0     H 7804  -0.030   4.025   9.307 -1.2717 -2.9187 -1.6692
   57MOL0     H 7805  -0.152   4.125   9.504 -0.1358 -0.6643 -0.1029
   57MOL0     H 7806  -0.262   4.193   9.377  1.1556  1.3056 -3.1775
   57MOL0     H 7807  -0.240   3.895   9.387 -1.3707 -1.7123 -0.1768
   57MOL0     H 7808  -0.384   3.990   9.386 -0.8811  1.2166  2.4268
   57MOL0     H 7809  -0.215   3.956   9.635  0.9624  2.1535 -1.2819
   57MOL0     H 7810  -0.375   4.022   9.626 -0.1806 -0.1030  1.6619
   57MOL0     H 7811  -0.386   3.811   9.712 -3.9057  1.8103 -1.0056
   57MOL0     H 7812  -0.290   3.722   9.591 -0.4976 -0.5845 -2.3010
   57MOL0     H 7813  -0.484   3.783   9.421  0.0558  3.9672  0.0829
   57MOL0     H 7814  -0.514   3.665   9.543  2.2018 -1.0198 -2.8614
   57MOL0     H 7815  -0.648   3.777   9.774  1.1537 -0.6800 -0.8624
   57MOL0     H 7816  -0.823   4.024   9.861  1.1055 -1.2120  0.7689
   57MOL0     H 7817  -0.867   3.858   9.874 -1.7330 -0.9672 -1.3816
   57MOL0     H 7818  -1.033   4.064   9.732  0.1471  1.3538  3.6161
   57MOL0     H 7819  -1.056   3.891   9.690 -0.6004  1.9095  0.4704
   57MOL0     H 7820  -1.103   3.837   9.899 -2.0931  0.1047  1.3347
   57MOL0     H 7821  -1.092   4.008   9.955  1.4455  0.6484 -0.5504
   57MOL0     H 7822  -1.320   3.989   9.917 -2.2204 -0.7264 -1.5671
   57MOL0     H 7823  -1.266   4.058   9.759 -0.9397  1.8973  1.5037
   57MOL0     H 7824  -1.446   4.109   9.750  1.3153  1.0314 -3.1896
   57MOL0     H 7825  -1.609   4.265   9.720  0.0776 -1.0330  1.4789
   57MOL0     H 7826  -1.768   4.202   9.761 -1.3087  1.6769 -0.1411
   57MOL0     H 7827  -1.738   4.258   9.601  1.0821 -0.5814 -1.3235
   57MOL0     H 7828  -1.971   3.731   9.272  1.4501 -0.0618 -1.3908
   57MOL0     H 7829  -2.188   3.728   9.158 -0.2779 -0.9737 -0.8571
   57MOL0     H 7830  -2.250   3.935   8.900 -1.1733 -0.7037 -2.2182
   57MOL0     H 7831  -2.313   3.775   8.969  0.7287  0.1930  2.4136
   57MOL0     H 7832  -2.546   3.875   8.957 -0.9805  0.2443 -1.6080
   57MOL0     H 7833  -2.455   4.023   8.907  1.8280  0.0516 -0.4209
   57MOL0     H 7834  -2.484   3.764   8.759 -1.7830 -0.0397 -2.7297
   57MOL0     H 7835  -2.400   3.906   8.692  0.1137 -2.1224 -1.5268
   57MOL0     H 7836  -2.625   4.029   8.744 -2.4270 -0.2362  0.4869
   57MOL0     H 7837  -2.688   3.866   8.767  1.8162 -2.3879 -0.6212
   57MOL0     H 7838  -2.730   3.950   8.520 -0.2424 -0.4019 -1.9914
   57MOL0     H 7839  -2.554   3.958   8.504  0.2761 -1.0269  1.4370
   57MOL0     H 7840  -2.677   3.697   8.541  0.6198  1.5099  2.0824
   57MOL0     H 7841  -2.514   3.739   8.501  0.2114  0.7781  3.8271
   57MOL0     H 7842  -2.602   3.852   8.288 -3.0894  3.4850  3.0286
   57MOL0     H 7843  -2.760   3.796   8.331 -1.0352 -1.9578  1.0741
   57MOL0     H 7844  -2.700   3.592   8.211 -1.1071  1.1770  0.6278
   57MOL0     H 7845  -2.627   3.548   8.364 -0.1307 -0.9351 -1.4717
   57MOL0     H 7846  -2.222   4.142   9.172 -0.3554 -0.2022  1.0569
   57MOL0     H 7847  -2.030   4.158   9.327 -3.8165  2.5979 -2.4186
   57MOL0     H 7848  -1.677   3.800   9.437  3.5619 -2.4913 -0.4022
   57MOL0     H 7849  -1.461   3.737   9.557 -0.8576 -0.4024  0.9035
   57MOL0     H 7850   0.318   4.175   9.092 -0.6971 -0.0299  1.5567
   57MOL0     H 7851   0.514   4.081   8.983  0.6007  0.8834 -2.8742
   57MOL0     H 7852   0.629   3.773   8.604 -0.4662  1.7134  1.6334
   57MOL0     H 7853   0.709   3.687   8.391  2.4417  1.9774 -1.9156
   57MOL0     H 7854   0.582   3.588   8.192  1.4845  1.4614  2.5328
   57MOL0     H 7855   0.469   3.719   8.147 -0.3899 -0.5624 -1.7266
   57MOL0     H 7856   0.685   3.595   7.966 -0.7436 -3.3490 -1.6071
   57MOL0     H 7857   0.591   3.731   7.928  3.3299  0.7265  2.7400
   57MOL0     H 7858   0.499   3.520   7.846  1.1181  2.1305 -0.5234
   57MOL0     H 7859   0.491   3.461   8.019  2.7156 -0.7698 -1.7154
   57MOL0     H 7860   0.333   3.683   7.864 -3.8956  3.6343  3.7023
   57MOL0     H 7861   0.330   3.671   8.035  0.7400  1.6353 -0.6292
   57MOL0     H 7862   0.106   3.341   7.858  1.6539 -1.9388  0.3776
   57MOL0     H 7863   0.558   4.031   8.193  0.4549  0.3098  0.3490
   57MOL0     H 7864   0.509   4.221   8.298  1.1898  1.7002  1.2429
   57MOL0     H 7865   0.393   4.171   8.420  0.5991 -0.1773 -0.3427
   57MOL0     H 7866   0.535   4.255   8.470 -1.5506  4.5397 -3.2612
   58MOL0     O 7867   0.142   7.590   2.106  0.2586  0.0811 -0.3029
   58MOL0     C 7868   0.091   7.695   2.073  0.6296 -1.0663  0.2558
   58MOL0     O 7869   0.133   7.770   1.970 -0.2784  0.0605  0.1326
   58MOL0     C 7870   0.227   7.728   1.887 -0.6705 -0.3108 -0.3232
   58MOL0     C 7871   0.337   7.815   1.871 -0.1143  0.8826 -0.2210
   58MOL0     C 7872   0.439   7.783   1.788 -0.5685 -0.3380  0.6682
   58MOL0     C 7873   0.450   7.659   1.730 -0.9874  0.4816 -0.7926
   58MOL0     O 7874   0.565   7.636   1.666  0.4330  0.7026  0.5525
   58MOL0     C 7875   0.553   7.545   1.553  0.0149  0.1428 -0.5663
   58MOL0     C 7876   0.696   7.484   1.553  0.2424  0.6002  0.5069
   58MOL0     C 7877   0.710   7.378   1.444  0.6991  0.7855 -0.2306
   58MOL0     C 7878   0.844   7.308   1.437 -0.0472  0.8157 -0.0407
   58MOL0     C 7879   0.837   7.191   1.339  0.4504  0.1917 -0.4958
   58MOL0     C 7880   0.978   7.126   1.324  0.8239 -0.4294  0.0530
   58MOL0     C 7881   0.958   6.992   1.254  0.6609  0.1481 -0.5986
   58MOL0     C 7882   0.973   6.878   1.360 -0.1947 -0.2288  0.0378
   58MOL0     N 7883   0.996   6.749   1.287  0.5008  0.1679  0.3145
   58MOL0     C 7884   1.102   6.704   1.223 -0.0217  0.1027 -0.5090
   58MOL0     C 7885   1.071   6.593   1.152 -1.0927 -0.0753  0.0908
   58MOL0     C 7886   1.164   6.525   1.061 -0.3449  0.4216 -0.9024
   58MOL0     C 7887   1.140   6.520   0.911 -0.1572  0.1130 -0.1982
   58MOL0     C 7888   1.265   6.473   0.840 -0.3937  0.0933 -0.2738
   58MOL0     C 7889   1.230   6.439   0.693  0.3694 -1.0277 -0.1906
   58MOL0     O 7890   1.244   6.556   0.607 -0.5065  0.3533 -0.0991
   58MOL0     C 7891   1.198   6.545   0.486 -0.1818 -0.0638  0.5671
   58MOL0     C 7892   1.138   6.660   0.419 -0.6904  0.0687 -0.1274
   58MOL0     C 7893   1.059   6.654   0.302  0.4446  0.4863  0.6144
   58MOL0     C 7894   1.001   6.784   0.236  0.4694 -0.0263  0.3107
   58MOL0     C 7895   1.056   6.525   0.235 -1.0479 -0.1032 -0.2704
   58MOL0     C 7896   0.982   6.500   0.112 -0.5088 -0.3369  0.3215
   58MOL0     O 7897   1.028   6.391   0.045 -0.2425  0.0885  0.5664
   58MOL0     C 7898   0.974   6.377  -0.084  0.0631 -0.7378 -0.0610
   58MOL0     C 7899   0.836   6.336  -0.092 -0.4669 -0.6294  0.4917
   58MOL0     C 7900   0.788   6.307  -0.217 -0.1127  0.1200  0.0340
   58MOL0     C 7901   0.862   6.312  -0.328  0.7053 -0.0297  0.7608
   58MOL0     O 7902   0.807   6.290  -0.450  0.6950 -0.1167 -0.1332
   58MOL0     C 7903   0.819   6.159  -0.494 -0.5021 -0.0099  0.7151
   58MOL0     C 7904   0.803   6.172  -0.645 -0.5951 -0.0765  0.0673
   58MOL0     C 7905   0.824   6.033  -0.707 -0.6228 -0.3516 -0.4550
   58MOL0     C 7906   0.973   6.009  -0.714 -0.1160  0.5877  0.6732
   58MOL0     C 7907   1.007   5.920  -0.827 -0.9338  0.0753 -0.1453
   58MOL0     C 7908   0.993   5.986  -0.969  0.0604 -0.0703  0.4733
   58MOL0     C 7909   1.040   5.884  -1.075 -0.0814  0.8451  0.1304
   58MOL0     C 7910   1.050   5.949  -1.211  0.5262 -0.0575  0.5762
   58MOL0    Cl 7911   0.891   5.998  -1.270 -0.1771 -0.3551  0.3417
   58MOL0     C 7912   0.997   6.355  -0.320  0.4733 -0.9615 -0.0393
   58MOL0     C 7913   1.056   6.376  -0.195 -0.9238 -0.4234 -0.2420
   58MOL0     O 7914   0.876   6.561   0.093 -0.1091 -0.1252 -0.2491
   58MOL0     C 7915   1.120   6.415   0.295 -0.0552 -0.3926  0.3156
   58MOL0     C 7916   1.191   6.422   0.408 -0.3549 -0.4079 -0.4032
   58MOL0     N 7917   0.937   6.567   1.178 -0.9281  0.3107 -0.2339
   58MOL0     N 7918   0.895   6.662   1.255 -0.3543  0.1331  0.7005
   58MOL0     C 7919   0.342   7.567   1.752  1.0500  0.3472  0.0468
   58MOL0     C 7920   0.232   7.605   1.830  0.0664  0.5521  0.4146
   58MOL0     C 7921  -0.018   7.763   2.150  0.6237  0.7629 -1.2386
   58MOL0     C 7922  -0.083   7.880   2.095  0.0576 -0.7609 -0.4252
   58MOL0     C 7923  -0.191   7.949   2.168 -0.3149  1.0863 -0.4254
   58MOL0     C 7924  -0.215   7.904   2.298  0.4933 -0.1246 -0.5245
   58MOL0     O 7925  -0.311   7.967   2.378 -0.3261  0.2212  0.1857
   58MOL0     C 7926  -0.416   8.043   2.322  0.1174 -0.0566 -0.0011
   58MOL0     C 7927  -0.502   7.954   2.232 -0.2164 -0.6425  0.1278
   58MOL0     C 7928  -0.654   8.002   2.212 -0.4218 -0.0369 -0.0602
   58MOL0     C 7929  -0.681   8.097   2.093  0.4496 -0.5234 -0.1203
   58MOL0     C 7930  -0.617   8.232   2.098  0.7574 -0.3090  0.2548
   58MOL0     C 7931  -0.544   8.327   2.103  0.4515 -0.7316  0.5287
   58MOL0     C 7932  -0.155   7.793   2.355 -0.9692  0.2162 -0.3483
   58MOL0     C 7933  -0.056   7.716   2.285  0.2163  0.7332  0.6955
   58MOL0     C 7934   0.008   7.596   2.359 -0.8190  0.3500  0.1113
   58MOL0     H 7935   0.341   7.905   1.930  0.1998 -1.2865  3.3429
   58MOL0     H 7936   0.514   7.854   1.755  0.1676 -2.1214 -1.7822
   58MOL0     H 7937   0.526   7.586   1.455  1.2066 -0.4375 -1.1573
   58MOL0     H 7938   0.479   7.465   1.564 -0.8799  1.1459  1.2429
   58MOL0     H 7939   0.766   7.566   1.536 -0.7820  1.5689  0.8617
   58MOL0     H 7940   0.721   7.442   1.651 -1.5940 -0.6128  0.5123
   58MOL0     H 7941   0.623   7.313   1.453 -0.6338  2.6899  1.2863
   58MOL0     H 7942   0.694   7.424   1.346 -1.0389  0.8930  0.0837
   58MOL0     H 7943   0.919   7.379   1.401  2.4902 -0.8398  1.6533
   58MOL0     H 7944   0.865   7.270   1.538 -0.0959 -0.4522 -0.4962
   58MOL0     H 7945   0.787   7.226   1.248 -0.1607  0.3282 -0.1173
   58MOL0     H 7946   0.769   7.126   1.395 -1.3704  1.7861 -0.7616
   58MOL0     H 7947   1.039   7.194   1.264 -0.7852  0.8595 -0.1941
   58MOL0     H 7948   1.027   7.122   1.422 -1.9060  0.9368  1.5871
   58MOL0     H 7949   1.027   6.984   1.169 -1.1685 -0.6603 -2.0914
   58MOL0     H 7950   0.857   6.984   1.212  0.8338  2.5084 -1.6006
   58MOL0     H 7951   1.048   6.894   1.438 -3.8239  0.4633  3.7375
   58MOL0     H 7952   0.877   6.872   1.412 -1.4916  1.1701 -2.0239
   58MOL0     H 7953   1.192   6.763   1.215  0.5542 -0.6098  0.5178
   58MOL0     H 7954   1.174   6.424   1.100 -0.2761  0.3427 -1.1239
   58MOL0     H 7955   1.257   6.579   1.077  1.5812 -1.7944 -3.5762
   58MOL0     H 7956   1.050   6.464   0.884  0.2940  0.0925 -1.7518
   58MOL0     H 7957   1.120   6.623   0.880  1.2851  0.1685 -1.0157
   58MOL0     H 7958   1.340   6.552   0.835 -0.5410  0.3193  0.7574
   58MOL0     H 7959   1.305   6.390   0.900 -0.6933 -0.5530 -0.9591
   58MOL0     H 7960   1.306   6.368   0.659 -1.4865 -1.7633 -3.1490
   58MOL0     H 7961   1.131   6.397   0.673  0.0585 -0.5924  0.4017
   58MOL0     H 7962   1.144   6.759   0.464  1.5146  0.5166 -1.2799
   58MOL0     H 7963   0.891   6.781   0.235  0.4929 -1.1767  0.3029
   58MOL0     H 7964   1.044   6.808   0.139  0.2201 -1.3942 -0.1571
   58MOL0     H 7965   1.024   6.869   0.302  0.9715 -1.1537  1.6490
   58MOL0     H 7966   0.775   6.321  -0.003  3.5907  1.4540  4.0282
   58MOL0     H 7967   0.684   6.277  -0.233 -0.9422  3.0359 -0.7085
   58MOL0     H 7968   0.913   6.110  -0.468  0.0143 -0.2658 -1.4573
   58MOL0     H 7969   0.741   6.105  -0.440  1.4335 -3.2174  0.5615
   58MOL0     H 7970   0.703   6.214  -0.663  1.3796  3.6316 -3.8257
   58MOL0     H 7971   0.862   6.248  -0.696 -2.1988  1.1426 -0.0465
   58MOL0     H 7972   0.772   6.041  -0.803 -1.4528  5.1427  0.0849
   58MOL0     H 7973   0.788   5.956  -0.638 -1.2812  0.6890  0.4029
   58MOL0     H 7974   1.002   5.951  -0.626 -1.1262  0.6376  1.0459
   58MOL0     H 7975   1.037   6.098  -0.715  1.5646 -0.5642 -0.6056
   58MOL0     H 7976   1.105   5.875  -0.811 -0.7604  0.3023 -0.5581
   58MOL0     H 7977   0.932   5.840  -0.828 -0.4779 -0.4733  2.3556
   58MOL0     H 7978   1.050   6.079  -0.966  1.4151 -0.8165 -0.8226
   58MOL0     H 7979   0.892   6.019  -0.993  0.5089  0.5928 -0.5802
   58MOL0     H 7980   0.978   5.794  -1.075  3.0610 -1.4713 -0.6737
   58MOL0     H 7981   1.139   5.847  -1.050 -0.3139  0.3003  0.2626
   58MOL0     H 7982   1.100   5.892  -1.290  0.2370  0.2373  0.1758
   58MOL0     H 7983   1.107   6.042  -1.199 -0.7457  0.6441  1.4129
   58MOL0     H 7984   1.056   6.369  -0.410 -0.1532  0.3078 -0.2791
   58MOL0     H 7985   1.163   6.391  -0.201 -0.9921 -0.5510 -3.0477
   58MOL0     H 7986   1.122   6.318   0.247  0.2455 -1.4372  2.3125
   58MOL0     H 7987   1.230   6.328   0.445 -1.8176 -0.7709  0.3248
   58MOL0     H 7988   0.335   7.463   1.721  1.8250 -0.4322  2.3308
   58MOL0     H 7989   0.152   7.532   1.841  0.5133  0.1217  0.8616
   58MOL0     H 7990  -0.056   7.916   1.996 -0.9568  1.8648  0.1481
   58MOL0     H 7991  -0.234   8.042   2.131 -2.8950  0.4208  0.6602
   58MOL0     H 7992  -0.461   8.099   2.404 -0.5958 -0.6133  0.0021
   58MOL0     H 7993  -0.378   8.127   2.263  0.9042 -1.8513 -2.2152
   58MOL0     H 7994  -0.505   7.859   2.286 -2.5389  0.8770  2.9440
   58MOL0     H 7995  -0.445   7.949   2.139  0.7568  0.6218  0.6113
   58MOL0     H 7996  -0.707   7.911   2.184 -1.1177  1.0883 -2.6853
   58MOL0     H 7997  -0.688   8.059   2.299  2.3266  3.1069 -0.8493
   58MOL0     H 7998  -0.789   8.114   2.089  0.0194 -1.7410  3.1668
   58MOL0     H 7999  -0.649   8.048   2.000 -0.8963 -0.9675 -0.3714
   58MOL0     H 8000  -0.481   8.413   2.115 -0.0455  0.0419 -1.9180
   58MOL0     H 8001  -0.176   7.771   2.459  0.6958  0.3725  0.0581
   58MOL0     H 8002  -0.060   7.564   2.438 -0.5746  0.8192  0.5237
   58MOL0     H 8003   0.014   7.514   2.287 -2.3210  1.2624 -1.1364
   58MOL0     H 8004   0.106   7.620   2.401 -0.4130  1.5770 -1.4337
   59MOL0     O 8005  10.497   3.394   6.932 -0.5241 -0.7426  0.5304
   59MOL0     C 8006  10.597   3.420   6.858  0.1415  0.4575 -0.1821
   59MOL0     O 8007  10.702   3.501   6.902 -0.3998 -0.5285 -0.3026
   59MOL0     C 8008  10.701   3.558   7.027 -0.1972 -0.0607 -0.2816
   59MOL0     C 8009  10.604   3.655   7.047 -0.1159  0.1369  0.4000
   59MOL0     C 8010  10.596   3.723   7.168  0.2884  0.5256  0.0491
   59MOL0     C 8011  10.670   3.681   7.281 -0.3741  0.0267  0.4866
   59MOL0     O 8012  10.638   3.746   7.399 -0.2916 -0.8570  0.0297
   59MOL0     C 8013  10.729   3.734   7.513 -0.2168  0.1842  0.1121
   59MOL0     C 8014  10.825   3.844   7.483 -0.2904 -0.1084 -0.5191
   59MOL0     C 8015  10.932   3.880   7.591  0.6836  0.5516 -0.4638
   59MOL0     C 8016  11.052   3.958   7.526  0.2169 -0.7524 -0.4295
   59MOL0     C 8017  11.173   3.975   7.616 -0.2585 -0.1411 -0.4715
   59MOL0     C 8018  11.286   4.069   7.561 -0.3655 -0.5296 -0.3091
   59MOL0     C 8019  11.242   4.205   7.504 -0.1994  0.7536  0.4907
   59MOL0     C 8020  11.361   4.273   7.429 -0.0761 -0.1890 -0.0744
   59MOL0     N 8021  11.351   4.422   7.448  1.1703 -0.0568 -0.1814
   59MOL0     C 8022  11.411   4.486   7.545 -0.4568 -0.9593  0.2577
   59MOL0     C 8023  11.359   4.611   7.534 -1.6253 -0.1021 -0.1020
   59MOL0     C 8024  11.399   4.733   7.601  0.3427 -0.9563  0.6529
   59MOL0     C 8025  11.295   4.779   7.700  1.5298 -0.3021  0.4860
   59MOL0     C 8026  11.340   4.907   7.772  0.3146  0.2483 -0.7667
   59MOL0     C 8027  11.340   5.024   7.676  0.3414 -0.6560  0.3141
   59MOL0     O 8028  11.357   5.143   7.755  0.0489 -0.3917 -0.1422
   59MOL0     C 8029  11.251   5.195   7.828  0.2434 -0.0434  0.1617
   59MOL0     C 8030  11.279   5.275   7.940  0.0724 -0.1075 -0.1781
   59MOL0     C 8031  11.178   5.318   8.025  0.3630  0.0121  0.1570
   59MOL0     C 8032  11.222   5.399   8.146  0.5988  0.4268  0.9527
   59MOL0     C 8033  11.043   5.320   7.976  0.4921 -0.7723  0.4679
   59MOL0     C 8034  10.929   5.390   8.041  0.6694 -0.0692  0.9295
   59MOL0     O 8035  10.813   5.394   7.961  0.1197 -0.1024 -0.6469
   59MOL0     C 8036  10.712   5.473   8.015 -0.9372  0.8799  0.6529
   59MOL0     C 8037  10.589   5.411   8.025 -0.5388  0.3242 -0.3178
   59MOL0     C 8038  10.479   5.487   8.065  0.3465  0.1814 -0.0140
   59MOL0     C 8039  10.483   5.625   8.083  0.9139 -0.1691  0.1713
   59MOL0     O 8040  10.373   5.709   8.098  0.3707  0.8143  0.9900
   59MOL0     C 8041  10.251   5.680   8.031  0.5195 -0.7088  0.3422
   59MOL0     C 8042  10.139   5.705   8.131 -0.4358 -0.1815 -0.1501
   59MOL0     C 8043  10.129   5.593   8.233  0.1446  0.5069  0.7139
   59MOL0     C 8044  10.029   5.485   8.184  1.4389  0.6586  0.2356
   59MOL0     C 8045  10.012   5.372   8.282 -0.4850 -0.2190  0.0105
   59MOL0     C 8046   9.908   5.268   8.218 -0.9210 -0.1242 -0.9635
   59MOL0     C 8047   9.768   5.291   8.273 -0.0935  0.1607  0.5193
   59MOL0     C 8048   9.668   5.167   8.232 -0.1634  0.2023 -0.2906
   59MOL0    Cl 8049   9.525   5.185   8.320  0.7433 -0.1820 -0.3108
   59MOL0     C 8050  10.607   5.687   8.078  0.2266  0.4132 -0.7485
   59MOL0     C 8051  10.720   5.613   8.031 -0.7647 -0.2514 -0.2152
   59MOL0     O 8052  10.933   5.423   8.156 -0.3356  0.2404 -0.0001
   59MOL0     C 8053  11.018   5.253   7.860 -0.4565 -0.0753 -0.1776
   59MOL0     C 8054  11.115   5.181   7.789  0.5252  0.3797  0.6094
   59MOL0     N 8055  11.267   4.624   7.434  0.1607 -0.2629  0.2407
   59MOL0     N 8056  11.259   4.499   7.382 -0.4340  0.0965  0.1237
   59MOL0     C 8057  10.775   3.593   7.251 -0.5668 -0.0060  0.1798
   59MOL0     C 8058  10.790   3.534   7.130 -0.6391 -0.7295  0.7226
   59MOL0     C 8059  10.622   3.356   6.728 -0.0653  0.1944 -0.1861
   59MOL0     C 8060  10.747   3.369   6.676 -0.1470 -0.0676 -0.3303
   59MOL0     C 8061  10.791   3.284   6.570 -0.2843  0.1038 -0.8142
   59MOL0     C 8062  10.718   3.194   6.499 -0.0845 -0.2631  1.1079
   59MOL0     O 8063  10.749   3.112   6.391  0.9896  1.3292  0.1409
   59MOL0     C 8064  10.889   3.105   6.345 -0.1908  0.0956 -0.2308
   59MOL0     C 8065  10.923   2.986   6.249 -0.3513 -0.3979  0.5428
   59MOL0     C 8066  10.906   3.024   6.107  0.5747  0.2507  1.1723
   59MOL0     C 8067  10.972   2.910   6.019  0.2106 -0.6362 -0.3728
   59MOL0     C 8068  11.120   2.926   5.998  0.8247 -1.4036  0.4602
   59MOL0     C 8069  11.232   2.976   5.998  0.5907  0.5176 -0.3058
   59MOL0     C 8070  10.581   3.185   6.552 -0.0068 -0.9517  0.3723
   59MOL0     C 8071  10.536   3.262   6.665 -0.5547 -0.1296  0.1163
   59MOL0     C 8072  10.391   3.245   6.708  0.4231 -0.7190  0.2783
   59MOL0     H 8073  10.537   3.666   6.963 -1.6865 -1.4037  1.3760
   59MOL0     H 8074  10.515   3.795   7.179 -1.7117 -1.2070 -2.1685
   59MOL0     H 8075  10.785   3.640   7.505 -1.6707 -0.7767  0.6945
   59MOL0     H 8076  10.682   3.753   7.610 -1.4825  0.3351 -0.5149
   59MOL0     H 8077  10.873   3.810   7.391 -1.5152 -0.6440 -0.9804
   59MOL0     H 8078  10.771   3.939   7.476 -2.5333 -1.2272  0.5210
   59MOL0     H 8079  10.887   3.933   7.674  2.6036  0.1300  0.9248
   59MOL0     H 8080  10.962   3.784   7.635 -2.0522 -0.7535 -1.2071
   59MOL0     H 8081  11.088   3.904   7.438 -1.6074 -3.3145  0.2884
   59MOL0     H 8082  11.007   4.054   7.501 -0.2935 -0.8466  0.0788
   59MOL0     H 8083  11.211   3.873   7.627 -3.1919 -1.1313  1.9322
   59MOL0     H 8084  11.142   4.008   7.716  0.6393  2.9491 -1.1198
   59MOL0     H 8085  11.366   4.074   7.635 -1.0327  1.2688  0.3448
   59MOL0     H 8086  11.325   4.010   7.478  1.2929 -0.0579  0.1053
   59MOL0     H 8087  11.200   4.270   7.582 -1.5059 -1.2849  1.5719
   59MOL0     H 8088  11.174   4.197   7.419  0.2781  3.4564 -0.2679
   59MOL0     H 8089  11.459   4.252   7.472 -1.0578  0.9823  3.0315
   59MOL0     H 8090  11.358   4.255   7.321 -2.3655  1.7084 -0.4222
   59MOL0     H 8091  11.496   4.442   7.597 -0.3507 -1.4026 -0.2904
   59MOL0     H 8092  11.438   4.810   7.534  0.9980 -1.7949  0.0506
   59MOL0     H 8093  11.487   4.713   7.663  2.2515  2.4230 -0.6549
   59MOL0     H 8094  11.205   4.783   7.639  0.4843 -1.2769  1.8858
   59MOL0     H 8095  11.267   4.700   7.770 -1.5439  0.1697 -0.0745
   59MOL0     H 8096  11.259   4.928   7.843  0.6165  1.8913 -0.8598
   59MOL0     H 8097  11.432   4.901   7.831 -0.4900 -1.4399  0.3768
   59MOL0     H 8098  11.425   5.014   7.608 -0.7782  0.7266 -1.4222
   59MOL0     H 8099  11.254   5.018   7.608  0.4460 -2.5822  0.3160
   59MOL0     H 8100  11.387   5.278   7.953  0.2260 -2.9091 -0.1756
   59MOL0     H 8101  11.330   5.414   8.139  0.4276  0.8126 -1.7988
   59MOL0     H 8102  11.200   5.343   8.237 -0.4519  0.6270  0.8365
   59MOL0     H 8103  11.181   5.500   8.146 -0.9999 -0.1757 -0.7636
   59MOL0     H 8104  10.574   5.311   7.985  0.7494  0.0374 -0.1427
   59MOL0     H 8105  10.379   5.445   8.071 -0.6939  2.0024 -2.7839
   59MOL0     H 8106  10.255   5.737   7.938  2.6460 -1.5075 -0.1102
   59MOL0     H 8107  10.243   5.572   8.016 -0.7318 -0.8779  1.8720
   59MOL0     H 8108  10.162   5.795   8.189  1.3798 -0.0904 -0.9392
   59MOL0     H 8109  10.052   5.724   8.067 -0.3129 -0.8141 -0.5129
   59MOL0     H 8110  10.111   5.641   8.330 -1.5629 -2.1937  1.8706
   59MOL0     H 8111  10.230   5.555   8.253 -0.4265 -0.4028  2.0164
   59MOL0     H 8112  10.057   5.455   8.083  0.7816 -0.7018  0.4338
   59MOL0     H 8113   9.927   5.523   8.194  1.0414 -0.6787  1.7189
   59MOL0     H 8114  10.109   5.322   8.289  0.4140  1.3451 -0.6434
   59MOL0     H 8115   9.985   5.401   8.384  3.6237  0.5897  1.0566
   59MOL0     H 8116   9.945   5.166   8.231 -0.0197  0.0448 -2.0829
   59MOL0     H 8117   9.900   5.279   8.110 -1.9432  2.2842 -0.6947
   59MOL0     H 8118   9.727   5.382   8.228  0.4424 -0.2201 -0.7818
   59MOL0     H 8119   9.777   5.300   8.381  2.6370  0.4869  0.3320
   59MOL0     H 8120   9.701   5.063   8.240 -2.6761 -0.7322 -1.1361
   59MOL0     H 8121   9.642   5.170   8.126 -0.6314  1.2807 -0.1592
   59MOL0     H 8122  10.615   5.783   8.127 -0.4962 -0.2929  0.8487
   59MOL0     H 8123  10.811   5.670   8.016 -0.6676 -0.5317 -0.7079
   59MOL0     H 8124  10.917   5.243   7.821 -0.2330  0.3325 -0.8876
   59MOL0     H 8125  11.071   5.120   7.710  1.2173 -0.4849  0.8812
   59MOL0     H 8126  10.849   3.572   7.328 -1.3064 -0.5658  0.7570
   59MOL0     H 8127  10.882   3.485   7.100  0.9245  1.6639  1.3447
   59MOL0     H 8128  10.814   3.449   6.707 -1.5113  1.5855 -1.4029
   59MOL0     H 8129  10.896   3.279   6.540 -0.9167 -0.8182 -3.0033
   59MOL0     H 8130  10.908   3.192   6.281 -2.5461 -0.4774 -1.8088
   59MOL0     H 8131  10.962   3.089   6.426 -0.2998  0.7564  0.0047
   59MOL0     H 8132  10.875   2.898   6.292 -0.3979 -0.0233  1.2702
   59MOL0     H 8133  11.032   2.975   6.259 -0.3247  1.3218  3.1985
   59MOL0     H 8134  10.797   3.025   6.104  0.5512 -1.0692  0.8945
   59MOL0     H 8135  10.952   3.123   6.097  1.4449 -0.2555 -0.1812
   59MOL0     H 8136  10.936   2.912   5.916 -0.4917  0.2661 -0.1286
   59MOL0     H 8137  10.949   2.815   6.068  0.1579 -0.3337  0.1993
   59MOL0     H 8138  11.324   3.030   6.004 -0.1334  2.0099 -1.7752
   59MOL0     H 8139  10.516   3.111   6.507 -0.6885 -1.2631  1.8125
   59MOL0     H 8140  10.404   3.212   6.811  2.7188  2.5436  1.2079
   59MOL0     H 8141  10.335   3.338   6.702  1.7820  0.1183  0.1276
   59MOL0     H 8142  10.342   3.176   6.639 -1.9081  2.0283 -1.0343
   60MOL0     O 8143   7.143   8.805   2.838  0.1497 -0.5853 -0.1103
   60MOL0     C 8144   7.038   8.747   2.832  0.1665  0.0598 -0.5102
   60MOL0     O 8145   6.983   8.656   2.926  0.2995  0.2036 -0.0276
   60MOL0     C 8146   7.063   8.571   3.003 -0.2275 -0.3297 -0.6476
   60MOL0     C 8147   7.205   8.569   3.020  0.0678  0.6920 -0.0408
   60MOL0     C 8148   7.251   8.462   3.106  0.3150  0.0882  0.0425
   60MOL0     C 8149   7.172   8.370   3.166 -0.1246 -0.8810  1.0786
   60MOL0     O 8150   7.222   8.265   3.234 -0.0524 -0.1568  0.4687
   60MOL0     C 8151   7.136   8.192   3.328 -0.3255  0.3687  0.6504
   60MOL0     C 8152   7.209   8.172   3.466 -0.1434 -0.2094  0.5060
   60MOL0     C 8153   7.213   8.295   3.549  0.0205 -0.0874  0.1502
   60MOL0     C 8154   7.311   8.293   3.669  0.3451 -0.7716 -0.8498
   60MOL0     C 8155   7.328   8.429   3.745 -0.5539 -0.6075  0.2656
   60MOL0     C 8156   7.353   8.411   3.899 -0.5040  0.1361  0.4527
   60MOL0     C 8157   7.488   8.336   3.914 -0.1150 -0.5999 -0.3700
   60MOL0     C 8158   7.609   8.419   3.884 -0.3718  0.9149 -0.2434
   60MOL0     N 8159   7.625   8.536   3.978  0.3303  0.4299 -0.5645
   60MOL0     C 8160   7.649   8.522   4.116  0.7075 -0.0968  0.8772
   60MOL0     C 8161   7.678   8.644   4.152  0.3891 -0.3744 -0.7273
   60MOL0     C 8162   7.693   8.688   4.287 -0.0747 -0.4337 -0.4634
   60MOL0     C 8163   7.840   8.724   4.327  0.7308 -0.8012  0.8688
   60MOL0     C 8164   7.955   8.629   4.268  0.1323 -0.4291 -0.2207
   60MOL0     C 8165   8.095   8.696   4.296 -0.7402 -0.5381 -0.1398
   60MOL0     O 8166   8.124   8.731   4.428  0.0924 -0.3955 -0.0064
   60MOL0     C 8167   8.117   8.632   4.523  0.2576 -0.4595 -0.0722
   60MOL0     C 8168   8.109   8.674   4.655  0.0618  0.8482 -1.0466
   60MOL0     C 8169   8.111   8.588   4.762  0.7560  0.2247 -0.5259
   60MOL0     C 8170   8.143   8.651   4.898 -0.6943  0.1077 -0.5922
   60MOL0     C 8171   8.125   8.449   4.740  0.3565  0.0317 -0.3630
   60MOL0     C 8172   8.123   8.350   4.852  0.4772 -0.2946 -0.6279
   60MOL0     O 8173   8.061   8.396   4.972  0.0042 -0.2388 -0.0569
   60MOL0     C 8174   8.067   8.320   5.090 -0.1747 -0.2473  0.0562
   60MOL0     C 8175   7.951   8.349   5.173 -0.7199 -0.2092  0.0554
   60MOL0     C 8176   7.935   8.273   5.288  0.1912 -0.7929 -0.5244
   60MOL0     C 8177   8.020   8.170   5.330  0.3640 -1.3728  1.1373
   60MOL0     O 8178   7.986   8.097   5.446  0.3874 -0.5856  0.0609
   60MOL0     C 8179   8.024   7.957   5.447  0.2531  0.1202  0.6278
   60MOL0     C 8180   7.937   7.880   5.343 -1.9128 -0.3519  0.4054
   60MOL0     C 8181   7.955   7.727   5.360  0.3306  0.5544 -0.4057
   60MOL0     C 8182   7.852   7.639   5.289  0.1951  0.7971  0.1491
   60MOL0     C 8183   7.847   7.496   5.340  0.8290 -0.7843 -0.5252
   60MOL0     C 8184   7.823   7.391   5.239 -0.2130 -0.0845 -0.5432
   60MOL0     C 8185   7.848   7.249   5.298 -0.0542 -0.8325  0.3996
   60MOL0     C 8186   7.854   7.140   5.194  1.1354  0.6909  0.8063
   60MOL0    Cl 8187   7.689   7.107   5.142  0.4180 -0.2527 -0.3300
   60MOL0     C 8188   8.128   8.143   5.245 -0.0180  0.0094 -0.5997
   60MOL0     C 8189   8.146   8.213   5.126  0.7619 -0.2250 -0.0623
   60MOL0     O 8190   8.169   8.238   4.834 -0.2806 -0.2259  1.1215
   60MOL0     C 8191   8.125   8.406   4.604  0.0489  0.9960 -0.1366
   60MOL0     C 8192   8.126   8.494   4.498 -0.2891 -0.4050  0.0938
   60MOL0     N 8193   7.677   8.734   4.044 -0.3923 -0.0985  0.1554
   60MOL0     N 8194   7.637   8.667   3.941  0.2203 -0.0615  0.6943
   60MOL0     C 8195   7.035   8.384   3.149  0.2583  0.1825  0.0119
   60MOL0     C 8196   6.979   8.485   3.076 -0.2278  0.3060 -0.2581
   60MOL0     C 8197   6.946   8.780   2.722 -0.0401  0.2463 -0.8844
   60MOL0     C 8198   6.824   8.707   2.711  0.5043 -0.5561  1.0310
   60MOL0     C 8199   6.734   8.725   2.599 -0.6069 -0.0725 -1.3780
   60MOL0     C 8200   6.768   8.824   2.501 -0.4813  0.3321 -0.6385
   60MOL0     O 8201   6.699   8.853   2.396  1.0233  0.2697  0.5627
   60MOL0     C 8202   6.613   8.760   2.341  0.6614 -0.1452  0.4615
   60MOL0     C 8203   6.558   8.836   2.215 -0.1547  0.4301 -1.2051
   60MOL0     C 8204   6.467   8.729   2.149  0.4264 -0.1252  0.4720
   60MOL0     C 8205   6.396   8.775   2.031  0.0441 -0.0980  0.1267
   60MOL0     C 8206   6.287   8.854   2.053 -0.2144 -0.0566 -0.9716
   60MOL0     C 8207   6.203   8.927   2.102 -0.5441  0.4529 -0.6427
   60MOL0     C 8208   6.882   8.899   2.521 -0.9228  0.7392 -0.1252
   60MOL0     C 8209   6.981   8.873   2.623 -0.0883  0.1335 -0.6173
   60MOL0     C 8210   7.107   8.942   2.611 -0.2693 -0.3132  0.4964
   60MOL0     H 8211   7.269   8.646   2.980 -2.6233  2.7447 -0.6787
   60MOL0     H 8212   7.356   8.437   3.117 -0.1785 -2.8602 -0.9851
   60MOL0     H 8213   7.121   8.093   3.286  2.4460  0.5840 -1.0720
   60MOL0     H 8214   7.040   8.240   3.351 -0.3932  0.6964 -0.2770
   60MOL0     H 8215   7.154   8.098   3.525 -2.3126 -0.3110 -1.5187
   60MOL0     H 8216   7.313   8.146   3.447 -0.0047 -0.3873  1.4273
   60MOL0     H 8217   7.237   8.383   3.488  1.6197 -0.7039 -0.1592
   60MOL0     H 8218   7.113   8.306   3.593 -0.3859 -0.4086 -0.6626
   60MOL0     H 8219   7.288   8.211   3.738 -0.4538 -0.5392 -0.8335
   60MOL0     H 8220   7.402   8.267   3.613 -1.0523 -0.8966 -3.1539
   60MOL0     H 8221   7.235   8.484   3.731 -0.9250 -1.7431 -2.0387
   60MOL0     H 8222   7.416   8.488   3.716 -1.3184 -0.3007 -1.5239
   60MOL0     H 8223   7.353   8.512   3.941 -2.9658 -0.2967  1.6606
   60MOL0     H 8224   7.265   8.359   3.939 -0.2874  0.6258  1.6191
   60MOL0     H 8225   7.491   8.249   3.848  1.5333  0.7029 -2.1299
   60MOL0     H 8226   7.509   8.315   4.019  1.2880  0.8755 -0.3133
   60MOL0     H 8227   7.688   8.348   3.911 -2.1900 -1.2764 -0.3290
   60MOL0     H 8228   7.606   8.452   3.780 -2.1348  5.2463  0.9500
   60MOL0     H 8229   7.644   8.429   4.171  0.1934 -0.6448 -0.0867
   60MOL0     H 8230   7.669   8.599   4.345 -3.4855 -0.4850 -1.7194
   60MOL0     H 8231   7.623   8.772   4.294  0.6400  0.6122 -3.7751
   60MOL0     H 8232   7.863   8.827   4.299  0.5611 -0.9261  0.2449
   60MOL0     H 8233   7.836   8.712   4.435 -1.5949 -0.3233  0.8811
   60MOL0     H 8234   7.960   8.530   4.315 -0.1509 -0.6392 -0.6296
   60MOL0     H 8235   7.935   8.616   4.162  2.3106 -1.3248 -0.5863
   60MOL0     H 8236   8.178   8.635   4.259 -0.7215 -0.9350  0.5348
   60MOL0     H 8237   8.099   8.789   4.237  2.0670  0.0264  0.7574
   60MOL0     H 8238   8.126   8.778   4.682 -0.9163  0.4505  1.3655
   60MOL0     H 8239   8.159   8.759   4.889  2.5416 -0.3649 -1.9580
   60MOL0     H 8240   8.227   8.594   4.939 -1.0749 -1.3036 -1.6830
   60MOL0     H 8241   8.053   8.638   4.959 -1.1617 -3.6661 -1.8774
   60MOL0     H 8242   7.881   8.426   5.145 -1.0230 -0.7822 -0.8118
   60MOL0     H 8243   7.862   8.310   5.361  1.6745 -1.1555  1.2142
   60MOL0     H 8244   8.132   7.941   5.442  0.1769  0.0917 -1.5473
   60MOL0     H 8245   8.002   7.915   5.546  1.3022 -2.6798 -0.2388
   60MOL0     H 8246   7.828   7.890   5.346 -2.0702 -1.7278  0.0925
   60MOL0     H 8247   7.985   7.900   5.247  1.3542 -1.6109  1.6313
   60MOL0     H 8248   7.936   7.714   5.467 -1.7894  0.5975 -0.7340
   60MOL0     H 8249   8.056   7.692   5.337  1.1012  1.5726  1.2946
   60MOL0     H 8250   7.878   7.639   5.183  1.6705  2.3926  0.4625
   60MOL0     H 8251   7.751   7.678   5.306  0.4333  0.9433  1.3583
   60MOL0     H 8252   7.938   7.478   5.397 -0.0475  3.9883  2.9986
   60MOL0     H 8253   7.778   7.494   5.425 -0.8779  3.0048 -1.6371
   60MOL0     H 8254   7.880   7.390   5.146  0.6813 -0.0710 -0.0032
   60MOL0     H 8255   7.718   7.402   5.210 -0.3604  2.3485  0.5748
   60MOL0     H 8256   7.778   7.212   5.374 -0.7371 -1.0721 -0.3324
   60MOL0     H 8257   7.944   7.244   5.351 -0.6315 -1.2175  1.4392
   60MOL0     H 8258   7.889   7.049   5.243  0.2876 -0.7668 -1.1402
   60MOL0     H 8259   7.918   7.158   5.107  0.0835  0.6286 -0.0041
   60MOL0     H 8260   8.210   8.079   5.276  0.2663  1.8316  2.8642
   60MOL0     H 8261   8.221   8.173   5.059  1.3890  0.0300  0.4805
   60MOL0     H 8262   8.126   8.299   4.589 -2.9637  0.6480  1.3066
   60MOL0     H 8263   8.143   8.459   4.397 -3.1226 -2.2054  0.1198
   60MOL0     H 8264   6.961   8.312   3.180 -0.9481  0.6679 -1.6400
   60MOL0     H 8265   6.872   8.495   3.065 -0.4308 -1.5555 -0.2710
   60MOL0     H 8266   6.794   8.632   2.783  1.0818 -0.1394  1.7216
   60MOL0     H 8267   6.640   8.672   2.592 -1.0867  0.3759  0.9033
   60MOL0     H 8268   6.668   8.675   2.299  1.3806  0.9229 -0.8519
   60MOL0     H 8269   6.535   8.735   2.414  0.3007  1.6502  0.7211
   60MOL0     H 8270   6.635   8.856   2.140 -0.7938  0.1700 -1.9319
   60MOL0     H 8271   6.509   8.928   2.249  0.6034  0.1964  0.6601
   60MOL0     H 8272   6.528   8.644   2.114 -0.8849 -1.7115  1.8535
   60MOL0     H 8273   6.393   8.703   2.225 -1.6433 -1.6420 -1.8792
   60MOL0     H 8274   6.378   8.684   1.972 -0.2357 -0.8468  1.3132
   60MOL0     H 8275   6.462   8.831   1.965 -0.7886 -0.0013 -0.6324
   60MOL0     H 8276   6.132   8.987   2.155 -0.8739 -1.2593  0.9797
   60MOL0     H 8277   6.901   8.976   2.448  0.3746  0.8914  0.3520
   60MOL0     H 8278   7.135   9.004   2.697 -2.7261  1.6359  0.0045
   60MOL0     H 8279   7.189   8.870   2.605 -1.8790 -2.2682  0.6430
   60MOL0     H 8280   7.097   8.984   2.510 -4.6518  0.0205  0.8850
   61MOL0     O 8281   2.668   9.321   7.990 -0.1938 -0.0066 -0.0944
   61MOL0     C 8282   2.718   9.389   7.903  0.0947  0.2464  0.5699
   61MOL0     O 8283   2.810   9.490   7.920  0.3622 -0.3698 -0.7110
   61MOL0     C 8284   2.880   9.479   8.029 -0.6916  0.0487  0.5743
   61MOL0     C 8285   2.873   9.578   8.131 -0.5378 -0.3839 -0.1714
   61MOL0     C 8286   2.946   9.573   8.252  0.9724  0.1969 -0.5626
   61MOL0     C 8287   3.016   9.454   8.273  0.0031  0.5562 -0.3338
   61MOL0     O 8288   3.103   9.441   8.373  0.3802  0.9196 -0.4241
   61MOL0     C 8289   3.111   9.545   8.480  0.1188 -0.1460  0.8157
   61MOL0     C 8290   3.208   9.662   8.442  0.3633  1.0554  0.3664
   61MOL0     C 8291   3.217   9.767   8.551  0.4117 -1.0345 -1.1101
   61MOL0     C 8292   3.333   9.873   8.533  0.0703 -0.0251  0.3339
   61MOL0     C 8293   3.315   9.985   8.634  0.1435 -0.4008  0.0271
   61MOL0     C 8294   3.326   9.950   8.783 -0.2007 -0.7637  0.1633
   61MOL0     C 8295   3.291  10.077   8.875 -0.3470  1.3704 -0.0634
   61MOL0     C 8296   3.372  10.207   8.855 -0.9618 -0.7718 -1.0017
   61MOL0     N 8297   3.321  10.318   8.934  0.0041  0.3420  0.6842
   61MOL0     C 8298   3.331  10.343   9.064  0.4220 -0.7176 -0.3713
   61MOL0     C 8299   3.254  10.460   9.075 -0.1017  0.0637  0.1084
   61MOL0     C 8300   3.196  10.502   9.205 -1.0210 -0.5887 -0.0437
   61MOL0     C 8301   3.304  10.589   9.276 -0.1296 -0.2027  0.0146
   61MOL0     C 8302   3.255  10.616   9.420 -0.8164  0.0118  0.3387
   61MOL0     C 8303   3.357  10.694   9.497 -0.2170 -0.4572  0.5170
   61MOL0     O 8304   3.384  10.825   9.455  0.1386 -0.4642  0.3253
   61MOL0     C 8305   3.291  10.921   9.476  0.5581 -0.2846  0.2982
   61MOL0     C 8306   3.177  10.907   9.558 -0.2596  0.3903  0.2448
   61MOL0     C 8307   3.090  11.019   9.579 -0.0677 -0.1224 -0.7831
   61MOL0     C 8308   2.966  10.995   9.670  0.3154  0.4908  0.6941
   61MOL0     C 8309   3.107  11.135   9.505 -0.1622 -0.8883 -0.5848
   61MOL0     C 8310   3.011  11.252   9.525 -0.4328 -0.4421 -0.0380
   61MOL0     O 8311   3.005  11.343   9.425 -0.4069  0.2170  0.8407
   61MOL0     C 8312   2.959  11.464   9.454 -0.2177  0.0076  0.3426
   61MOL0     C 8313   2.823  11.498   9.464  0.5341  0.1772 -0.5856
   61MOL0     C 8314   2.788  11.631   9.494  0.7233  0.8465 -0.0922
   61MOL0     C 8315   2.883  11.727   9.506 -0.0529  0.1130  0.8729
   61MOL0     O 8316   2.839  11.858   9.528  0.2405 -0.0124 -0.0869
   61MOL0     C 8317   2.931  11.962   9.497 -0.0982 -0.0454 -0.0653
   61MOL0     C 8318   2.867  12.098   9.488 -0.5701  0.5448 -0.1435
   61MOL0     C 8319   2.963  12.198   9.419  0.1579  0.1154 -0.0928
   61MOL0     C 8320   3.105  12.200   9.473 -0.2969 -0.8381  0.0340
   61MOL0     C 8321   3.179  12.336   9.440  0.2428  0.4561  0.5044
   61MOL0     C 8322   3.158  12.387   9.296  0.4775  0.0321 -0.2773
   61MOL0     C 8323   3.185  12.539   9.286 -0.9598  0.2327  0.3114
   61MOL0     C 8324   3.331  12.581   9.303  0.2572  0.3716  0.3463
   61MOL0    Cl 8325   3.447  12.490   9.198 -0.3598  0.3431 -0.1780
   61MOL0     C 8326   3.018  11.691   9.497 -0.2342 -0.2440 -0.2921
   61MOL0     C 8327   3.054  11.563   9.469  1.2210  0.9259 -0.3836
   61MOL0     O 8328   2.958  11.275   9.633 -0.1623  0.5166  0.4883
   61MOL0     C 8329   3.207  11.142   9.415 -0.6631 -0.8609  0.2363
   61MOL0     C 8330   3.296  11.036   9.392  0.2987  1.1922 -0.2413
   61MOL0     N 8331   3.199  10.494   8.956 -0.1115  1.2119 -0.5804
   61MOL0     N 8332   3.249  10.408   8.873  0.2873 -0.1724  0.0547
   61MOL0     C 8333   3.028   9.359   8.172 -0.6116 -0.7192 -0.6154
   61MOL0     C 8334   2.971   9.375   8.052  0.5309  0.5890 -0.3604
   61MOL0     C 8335   2.677   9.365   7.766 -0.3230 -0.5774  1.0499
   61MOL0     C 8336   2.720   9.458   7.666 -0.5037 -0.9514 -0.8565
   61MOL0     C 8337   2.672   9.456   7.543  0.2888 -0.1056  0.3557
   61MOL0     C 8338   2.622   9.340   7.491 -0.0593  0.3520  0.3507
   61MOL0     O 8339   2.609   9.339   7.358 -0.6465  0.8627  0.3352
   61MOL0     C 8340   2.529   9.233   7.300  0.4887  0.1807 -0.1331
   61MOL0     C 8341   2.512   9.278   7.152  0.2299 -0.3632 -0.7454
   61MOL0     C 8342   2.414   9.170   7.090 -0.7514  0.3161  0.9676
   61MOL0     C 8343   2.456   9.127   6.953 -0.5689 -0.9472 -0.6767
   61MOL0     C 8344   2.593   9.110   6.919  0.1773  0.3220 -0.1953
   61MOL0     C 8345   2.706   9.103   6.876  0.7439 -0.3219 -0.3622
   61MOL0     C 8346   2.594   9.233   7.577  0.6235  0.6965  0.8740
   61MOL0     C 8347   2.607   9.252   7.710  0.0270  0.7034 -0.7751
   61MOL0     C 8348   2.562   9.136   7.805  0.3780 -0.0707  0.1207
   61MOL0     H 8349   2.814   9.667   8.115 -0.5974 -0.0010  1.9767
   61MOL0     H 8350   2.933   9.663   8.312  1.8984 -1.3738  2.1848
   61MOL0     H 8351   3.155   9.502   8.571  0.7635  1.9161  1.5235
   61MOL0     H 8352   3.011   9.574   8.512  0.0559 -0.1398  0.6168
   61MOL0     H 8353   3.308   9.619   8.449 -0.5663 -1.2274  0.6578
   61MOL0     H 8354   3.185   9.696   8.341  2.1567 -1.7326 -1.0988
   61MOL0     H 8355   3.121   9.817   8.564  0.7305 -0.0075 -2.4859
   61MOL0     H 8356   3.252   9.728   8.647  1.4418  2.5755  0.1342
   61MOL0     H 8357   3.430   9.822   8.537  0.2289 -0.0286 -2.0672
   61MOL0     H 8358   3.323   9.913   8.431 -1.1466 -2.8254 -0.7487
   61MOL0     H 8359   3.217  10.032   8.620  0.4308  0.0543 -0.4731
   61MOL0     H 8360   3.398  10.051   8.608  1.4176 -2.2114 -0.7062
   61MOL0     H 8361   3.252   9.875   8.810  0.4711 -1.0505  1.2853
   61MOL0     H 8362   3.429   9.925   8.813  0.8607  2.4568 -0.4312
   61MOL0     H 8363   3.316  10.039   8.975 -0.9395 -0.1988 -0.4908
   61MOL0     H 8364   3.186  10.109   8.882 -0.1230  1.8008  2.1698
   61MOL0     H 8365   3.467  10.176   8.899 -1.0532 -2.0368 -1.6324
   61MOL0     H 8366   3.388  10.229   8.749 -1.1375 -2.3216 -1.3760
   61MOL0     H 8367   3.361  10.274   9.142  0.6364 -0.5282 -0.2846
   61MOL0     H 8368   3.174  10.409   9.258  3.0357 -0.8263  1.6253
   61MOL0     H 8369   3.106  10.561   9.189 -0.8585 -0.7562 -1.8745
   61MOL0     H 8370   3.399  10.535   9.279  0.4350  0.6530 -1.6588
   61MOL0     H 8371   3.320  10.680   9.218 -1.6915  0.1302  0.0392
   61MOL0     H 8372   3.160  10.669   9.409 -1.0086 -0.2692  0.5933
   61MOL0     H 8373   3.238  10.521   9.473  3.1394 -0.7618  0.4926
   61MOL0     H 8374   3.332  10.691   9.604  1.6511  0.8189  1.0277
   61MOL0     H 8375   3.444  10.632   9.473 -2.8403 -4.6310  0.5889
   61MOL0     H 8376   3.158  10.816   9.614 -2.2188  0.1098 -0.8130
   61MOL0     H 8377   2.871  11.033   9.634 -1.7947 -1.3978  3.7952
   61MOL0     H 8378   2.982  11.043   9.767  2.9955  0.5538  0.3136
   61MOL0     H 8379   2.956  10.889   9.694 -1.2943  0.6220  0.6847
   61MOL0     H 8380   2.748  11.419   9.454  1.8037 -0.9650 -1.5840
   61MOL0     H 8381   2.683  11.657   9.499  0.5793  0.0028  2.9990
   61MOL0     H 8382   2.999  11.962   9.583  0.4569 -2.9283 -0.3967
   61MOL0     H 8383   2.983  11.931   9.406 -2.2395 -3.2967 -0.3710
   61MOL0     H 8384   2.777  12.091   9.426 -0.6511 -3.3304  0.1748
   61MOL0     H 8385   2.834  12.135   9.586  0.5054 -0.7752  0.7508
   61MOL0     H 8386   2.912  12.292   9.443 -1.2056 -1.2007  2.6581
   61MOL0     H 8387   2.965  12.183   9.311  2.4720  0.1671 -0.1030
   61MOL0     H 8388   3.159  12.117   9.426  0.4487 -0.0152 -0.5758
   61MOL0     H 8389   3.092  12.184   9.581 -1.7311  3.4165  0.6689
   61MOL0     H 8390   3.156  12.409   9.518 -2.7130 -0.0490  0.1981
   61MOL0     H 8391   3.280  12.295   9.452  0.5669  1.1858  0.3465
   61MOL0     H 8392   3.055  12.371   9.263  0.3100  0.7825 -0.1401
   61MOL0     H 8393   3.219  12.331   9.224 -1.6790 -0.4413 -1.8439
   61MOL0     H 8394   3.130  12.593   9.364 -0.5356 -1.2257  1.6762
   61MOL0     H 8395   3.151  12.565   9.185 -0.8535  0.9174  0.4486
   61MOL0     H 8396   3.352  12.567   9.410 -2.5248  1.3387  1.1138
   61MOL0     H 8397   3.351  12.686   9.282  0.8638 -0.1302 -1.7567
   61MOL0     H 8398   3.102  11.758   9.503 -0.6354  0.1327  4.6160
   61MOL0     H 8399   3.161  11.546   9.461  1.3436  1.5974 -0.2950
   61MOL0     H 8400   3.225  11.242   9.376  0.5755 -1.0821  0.1994
   61MOL0     H 8401   3.369  11.046   9.312  0.1966  3.1183 -0.1347
   61MOL0     H 8402   3.092   9.271   8.180 -1.6559 -1.5282 -1.0440
   61MOL0     H 8403   2.986   9.294   7.981 -1.7054  1.7021 -2.2519
   61MOL0     H 8404   2.773   9.549   7.693 -1.0286 -1.3953  1.9782
   61MOL0     H 8405   2.697   9.537   7.476 -2.5717  0.7201  0.1558
   61MOL0     H 8406   2.586   9.142   7.321  2.0018  0.6065 -2.0644
   61MOL0     H 8407   2.431   9.218   7.346  0.5445  0.1295 -0.0290
   61MOL0     H 8408   2.613   9.284   7.112  2.2175 -0.5308  3.6898
   61MOL0     H 8409   2.466   9.377   7.145  4.0201  1.7333  0.9931
   61MOL0     H 8410   2.414   9.085   7.159  3.2912 -0.9307 -0.2779
   61MOL0     H 8411   2.311   9.203   7.076 -0.0887  1.3436 -2.2657
   61MOL0     H 8412   2.422   9.206   6.885 -0.6235 -0.8781 -0.5701
   61MOL0     H 8413   2.404   9.032   6.938 -1.7292 -0.5281  0.4959
   61MOL0     H 8414   2.805   9.111   6.836  0.9925 -1.4413 -0.0003
   61MOL0     H 8415   2.558   9.140   7.535  0.3185  0.3547  1.8831
   61MOL0     H 8416   2.483   9.180   7.866 -0.6085  3.0025 -3.0805
   61MOL0     H 8417   2.521   9.047   7.755 -2.4655  1.8302 -1.1911
   61MOL0     H 8418   2.652   9.114   7.863  1.0997  0.3518 -0.8217
   62MOL0     O 8419   9.293   4.649   3.524  0.6073 -0.4297 -0.0579
   62MOL0     C 8420   9.245   4.687   3.636  0.5932 -0.4741  0.1875
   62MOL0     O 8421   9.171   4.796   3.660  0.3666  0.3877  0.1297
   62MOL0     C 8422   9.197   4.904   3.573 -0.0390  0.2419  0.2595
   62MOL0     C 8423   9.319   4.967   3.584 -0.1667 -0.2085 -0.9493
   62MOL0     C 8424   9.346   5.074   3.492 -0.4236  0.3264 -0.3973
   62MOL0     C 8425   9.254   5.098   3.385 -0.7124  0.2230  0.2331
   62MOL0     O 8426   9.278   5.194   3.284 -0.5573  0.5431 -0.1672
   62MOL0     C 8427   9.335   5.315   3.315  0.4843  0.0573  0.5267
   62MOL0     C 8428   9.271   5.421   3.213 -0.1448  0.1171  0.3736
   62MOL0     C 8429   9.282   5.386   3.061  0.6393 -1.0031  0.3877
   62MOL0     C 8430   9.409   5.314   3.012 -0.1859 -0.1199 -0.2306
   62MOL0     C 8431   9.535   5.402   3.018 -0.2019  0.0359  0.2434
   62MOL0     C 8432   9.659   5.333   2.964 -0.5148  0.9073  0.1191
   62MOL0     C 8433   9.765   5.428   2.912 -0.0402  0.0323 -0.4183
   62MOL0     C 8434   9.893   5.374   2.845  0.7337 -0.5758 -0.4354
   62MOL0     N 8435   9.994   5.331   2.944  0.0613  0.4249 -0.1537
   62MOL0     C 8436  10.093   5.414   2.989 -0.9461 -0.0499  0.4487
   62MOL0     C 8437  10.165   5.336   3.074 -0.2157  0.0042  0.0219
   62MOL0     C 8438  10.291   5.379   3.139  0.0725  0.2972 -0.3320
   62MOL0     C 8439  10.371   5.488   3.063  0.2548 -0.0066  0.6279
   62MOL0     C 8440  10.485   5.550   3.143  0.3486  0.4280 -0.6348
   62MOL0     C 8441  10.516   5.672   3.065  0.3848  0.0943  0.2371
   62MOL0     O 8442  10.589   5.631   2.943  0.5937  0.3670 -0.3641
   62MOL0     C 8443  10.708   5.692   2.930  0.2533 -0.2067  0.2038
   62MOL0     C 8444  10.820   5.612   2.909 -0.1551  0.2976  0.7482
   62MOL0     C 8445  10.944   5.669   2.880 -0.3681  0.6464  0.6159
   62MOL0     C 8446  11.058   5.582   2.862 -0.9756 -0.1534 -0.0935
   62MOL0     C 8447  10.954   5.812   2.867  0.3494 -0.0148  0.2227
   62MOL0     C 8448  11.075   5.883   2.823  0.1050 -0.1745 -0.3806
   62MOL0     O 8449  11.135   5.964   2.916 -0.5597  0.2145 -0.0753
   62MOL0     C 8450  11.184   6.082   2.872 -0.0639 -0.9995 -0.0510
   62MOL0     C 8451  11.300   6.097   2.780 -0.0955  0.0511 -0.8728
   62MOL0     C 8452  11.350   6.221   2.743  0.5487  0.3175 -0.2543
   62MOL0     C 8453  11.275   6.334   2.777  0.2385 -0.2887  0.0081
   62MOL0     O 8454  11.339   6.453   2.762 -0.1735 -0.0625 -0.2088
   62MOL0     C 8455  11.262   6.569   2.744 -0.3578  0.2919 -0.5243
   62MOL0     C 8456  11.268   6.636   2.616 -0.2512  0.2805 -0.0271
   62MOL0     C 8457  11.216   6.777   2.617 -0.5242 -0.0713 -0.0182
   62MOL0     C 8458  11.259   6.847   2.479 -0.9778  0.5442 -0.4768
   62MOL0     C 8459  11.222   6.988   2.464  0.6915 -0.4755  1.3344
   62MOL0     C 8460  11.336   7.087   2.412 -0.8415  0.1162 -0.0075
   62MOL0     C 8461  11.290   7.236   2.430  0.3541  0.0953 -0.9479
   62MOL0     C 8462  11.227   7.296   2.305 -0.0062 -1.0700 -0.0682
   62MOL0    Cl 8463  11.054   7.244   2.280 -0.1122 -0.0824 -0.3828
   62MOL0     C 8464  11.163   6.319   2.865 -1.1627 -0.4703  0.2013
   62MOL0     C 8465  11.115   6.199   2.904  0.3013 -0.5223  0.1079
   62MOL0     O 8466  11.084   5.896   2.699 -0.0219  0.3016  0.4985
   62MOL0     C 8467  10.842   5.887   2.904 -0.9091  0.5265  0.8656
   62MOL0     C 8468  10.721   5.826   2.929 -0.0678  0.0613 -0.1301
   62MOL0     N 8469  10.114   5.213   3.081  0.1481 -0.0375 -0.5006
   62MOL0     N 8470  10.002   5.207   3.008 -0.5177  0.6927 -0.1775
   62MOL0     C 8471   9.130   5.032   3.385 -0.8273  0.4589  0.0791
   62MOL0     C 8472   9.102   4.931   3.474  0.0439 -0.2787 -0.5129
   62MOL0     C 8473   9.261   4.597   3.750 -0.3485  0.0306  0.3351
   62MOL0     C 8474   9.364   4.497   3.748  0.4433 -0.5617  0.2852
   62MOL0     C 8475   9.388   4.407   3.856 -0.2557 -1.0263 -0.2271
   62MOL0     C 8476   9.314   4.423   3.970  0.1064 -0.3230 -0.4469
   62MOL0     O 8477   9.328   4.351   4.084 -0.7953 -0.4760 -0.0021
   62MOL0     C 8478   9.446   4.392   4.163 -0.4869  0.0061 -0.6817
   62MOL0     C 8479   9.413   4.515   4.249 -0.9782 -0.3180  0.4256
   62MOL0     C 8480   9.521   4.542   4.360  0.0627 -0.6187  0.3343
   62MOL0     C 8481   9.594   4.680   4.363  0.3395  0.6898 -0.0319
   62MOL0     C 8482   9.705   4.694   4.273  0.1646  0.6807 -0.2662
   62MOL0     C 8483   9.798   4.718   4.193 -0.6258  0.8937  0.9382
   62MOL0     C 8484   9.205   4.510   3.970  0.2030  0.0960 -0.7874
   62MOL0     C 8485   9.181   4.599   3.866  0.0529 -0.3196  0.1477
   62MOL0     C 8486   9.055   4.681   3.886 -0.5070  0.7595  0.1947
   62MOL0     H 8487   9.383   4.938   3.667 -0.6410 -2.5578 -1.3169
   62MOL0     H 8488   9.440   5.127   3.483  1.0617 -2.3732 -2.3651
   62MOL0     H 8489   9.444   5.316   3.302  1.0571 -1.7313  4.0360
   62MOL0     H 8490   9.313   5.352   3.415  0.0083 -0.2434  0.5320
   62MOL0     H 8491   9.166   5.435   3.239  0.9111  3.1163  4.0930
   62MOL0     H 8492   9.317   5.518   3.236  3.6981 -1.1726 -1.1056
   62MOL0     H 8493   9.213   5.306   3.033  0.0199 -0.0512 -0.8954
   62MOL0     H 8494   9.263   5.472   2.997 -1.2684 -3.2996 -2.3508
   62MOL0     H 8495   9.424   5.207   3.029  1.9589  0.0189 -0.8742
   62MOL0     H 8496   9.398   5.299   2.905  3.4008  0.0484 -0.7577
   62MOL0     H 8497   9.561   5.437   3.118  1.8637 -2.3759  0.6258
   62MOL0     H 8498   9.520   5.498   2.968  0.1155  1.5567  2.8693
   62MOL0     H 8499   9.707   5.270   3.039  0.8253 -1.5099 -2.5670
   62MOL0     H 8500   9.643   5.260   2.885  3.0225 -0.5235  0.5233
   62MOL0     H 8501   9.806   5.476   3.001  1.9290 -2.7216  0.2904
   62MOL0     H 8502   9.709   5.493   2.844 -1.9426 -1.1240 -0.0254
   62MOL0     H 8503   9.876   5.296   2.771  0.7949 -1.0210  0.0111
   62MOL0     H 8504   9.921   5.464   2.790  0.7508  0.3891  1.0828
   62MOL0     H 8505  10.101   5.520   2.971 -2.7695  0.2394  1.1293
   62MOL0     H 8506  10.357   5.292   3.147  1.1033  1.2306  2.4494
   62MOL0     H 8507  10.260   5.420   3.235 -3.3145 -0.0456 -1.1696
   62MOL0     H 8508  10.407   5.449   2.967  0.6780  0.5486  0.5545
   62MOL0     H 8509  10.299   5.564   3.033  0.5153  0.2846  0.7380
   62MOL0     H 8510  10.455   5.580   3.244 -0.9195 -2.8711  0.0924
   62MOL0     H 8511  10.574   5.491   3.163  0.3296  1.1842  2.0345
   62MOL0     H 8512  10.429   5.731   3.035  0.7096 -0.9089 -3.1038
   62MOL0     H 8513  10.587   5.734   3.120 -0.1577  0.5203  0.4542
   62MOL0     H 8514  10.820   5.503   2.907 -2.0494  0.2669  1.1607
   62MOL0     H 8515  11.040   5.487   2.810 -0.0322 -0.8679  0.8382
   62MOL0     H 8516  11.091   5.567   2.965  0.1963  3.2772  0.1471
   62MOL0     H 8517  11.142   5.633   2.813 -1.9827  2.6254  0.9152
   62MOL0     H 8518  11.345   6.007   2.739  0.7809 -0.4037  1.0103
   62MOL0     H 8519  11.428   6.229   2.667 -0.2807 -1.0518 -1.3046
   62MOL0     H 8520  11.155   6.553   2.761 -0.8587 -1.1657 -4.1238
   62MOL0     H 8521  11.296   6.648   2.811  0.9113 -0.2285 -0.5062
   62MOL0     H 8522  11.376   6.635   2.595 -0.0469  0.3856  0.9417
   62MOL0     H 8523  11.209   6.580   2.544 -1.5356  0.6784  0.6936
   62MOL0     H 8524  11.257   6.828   2.705  0.1780 -0.6759  0.0208
   62MOL0     H 8525  11.107   6.768   2.623 -0.5529 -1.0836 -1.5676
   62MOL0     H 8526  11.233   6.792   2.388 -1.3993  0.7197 -0.4621
   62MOL0     H 8527  11.368   6.834   2.480 -0.5007  3.5105 -2.3511
   62MOL0     H 8528  11.139   6.986   2.393  0.0254 -0.9706  2.1005
   62MOL0     H 8529  11.174   7.012   2.559 -3.2973 -3.3253  0.2936
   62MOL0     H 8530  11.352   7.069   2.305 -0.8158 -2.3890  0.3582
   62MOL0     H 8531  11.432   7.073   2.462 -0.9954 -2.4857 -0.3143
   62MOL0     H 8532  11.380   7.295   2.449  0.1391  1.4027 -3.5103
   62MOL0     H 8533  11.226   7.250   2.517  0.7712  1.7792 -0.8824
   62MOL0     H 8534  11.283   7.282   2.212 -0.6147  0.3340 -0.6727
   62MOL0     H 8535  11.232   7.401   2.335 -0.6358 -0.3675 -2.2530
   62MOL0     H 8536  11.112   6.405   2.908 -0.3592  0.2843 -0.3018
   62MOL0     H 8537  11.021   6.196   2.958  0.4721  1.0614  0.5497
   62MOL0     H 8538  10.858   5.994   2.899 -0.1931  0.3752 -2.0771
   62MOL0     H 8539  10.635   5.892   2.939  0.8506  1.6338 -2.0105
   62MOL0     H 8540   9.050   5.065   3.319 -1.7044  0.4678  1.1007
   62MOL0     H 8541   9.007   4.881   3.459  0.7504 -1.1717 -2.2627
   62MOL0     H 8542   9.425   4.495   3.658 -0.9817 -0.1165 -0.7241
   62MOL0     H 8543   9.468   4.335   3.840  0.1437 -0.1406 -2.7383
   62MOL0     H 8544   9.484   4.312   4.228 -0.6086 -0.2039 -0.8631
   62MOL0     H 8545   9.537   4.417   4.106  2.5074  0.8675  3.9700
   62MOL0     H 8546   9.310   4.493   4.279 -0.9507 -2.8028 -0.9855
   62MOL0     H 8547   9.417   4.606   4.189 -2.8344  0.1095  0.8897
   62MOL0     H 8548   9.457   4.553   4.448 -1.9282  1.1093 -1.2232
   62MOL0     H 8549   9.587   4.456   4.369  0.2516 -0.3028  2.3280
   62MOL0     H 8550   9.639   4.701   4.461 -0.4243  0.8805  0.2844
   62MOL0     H 8551   9.518   4.751   4.330 -2.4591 -1.9167  0.3308
   62MOL0     H 8552   9.883   4.742   4.133 -0.0170  1.6070  2.0318
   62MOL0     H 8553   9.149   4.510   4.063 -0.6676 -0.9151 -1.2992
   62MOL0     H 8554   9.067   4.787   3.862 -0.6357  0.9062  0.7566
   62MOL0     H 8555   8.963   4.649   3.837 -1.4694  2.6414  0.6802
   62MOL0     H 8556   9.048   4.690   3.995  2.2136 -1.2101  0.6159
   63MOL0     O 8557   1.592  10.341   5.644 -1.1309 -0.5860  0.2701
   63MOL0     C 8558   1.598  10.230   5.688 -0.1567  0.2017 -0.5690
   63MOL0     O 8559   1.715  10.157   5.688 -0.0112 -0.2722  0.0468
   63MOL0     C 8560   1.801  10.191   5.596 -0.6746 -0.0182  0.2792
   63MOL0     C 8561   1.796  10.136   5.468  0.2666  0.3994 -0.6137
   63MOL0     C 8562   1.884  10.187   5.381 -0.4355 -1.1799  0.2293
   63MOL0     C 8563   1.979  10.286   5.406 -0.6292 -0.4379  0.7651
   63MOL0     O 8564   2.050  10.343   5.297 -0.1287 -0.1202 -0.3456
   63MOL0     C 8565   2.150  10.448   5.315 -0.4007  0.1981 -0.2204
   63MOL0     C 8566   2.222  10.508   5.194  0.2955  0.7835  1.0393
   63MOL0     C 8567   2.117  10.563   5.091  0.5601  0.1897  0.3360
   63MOL0     C 8568   2.027  10.677   5.145  0.6385 -0.5974  0.4621
   63MOL0     C 8569   1.950  10.743   5.022  0.6634  0.0323 -0.9971
   63MOL0     C 8570   1.836  10.851   5.056 -0.3859 -0.2762 -0.3082
   63MOL0     C 8571   1.771  10.903   4.930 -0.2582  0.5103  0.0584
   63MOL0     C 8572   1.648  10.990   4.980 -0.4917  0.3342  1.2036
   63MOL0     N 8573   1.566  11.039   4.867  0.1221  0.4150  0.0830
   63MOL0     C 8574   1.468  10.962   4.808  0.1366  0.7258  0.5540
   63MOL0     C 8575   1.381  11.046   4.755  0.1557  0.2172  0.5021
   63MOL0     C 8576   1.244  10.991   4.693 -0.3623 -0.6353  0.4387
   63MOL0     C 8577   1.155  11.106   4.632 -0.7469  0.2734  0.6713
   63MOL0     C 8578   1.102  11.199   4.747  0.6114  0.4875 -0.3126
   63MOL0     C 8579   1.050  11.338   4.687  0.0192  0.9525  0.4684
   63MOL0     O 8580   1.021  11.452   4.779  0.3337  0.7275  0.5806
   63MOL0     C 8581   0.895  11.454   4.828  0.2541  1.2018 -0.9675
   63MOL0     C 8582   0.793  11.462   4.734  0.2475  0.0597 -0.5987
   63MOL0     C 8583   0.654  11.469   4.770 -0.2868  0.0066 -0.2846
   63MOL0     C 8584   0.552  11.482   4.661 -1.5409  0.5365  0.2740
   63MOL0     C 8585   0.632  11.472   4.909 -0.4998 -0.3045 -0.0724
   63MOL0     C 8586   0.485  11.482   4.954 -1.2977  0.5206 -0.8390
   63MOL0     O 8587   0.455  11.605   4.991  0.6694 -0.2672 -1.0088
   63MOL0     C 8588   0.324  11.637   5.015 -0.2607 -0.6358 -0.8876
   63MOL0     C 8589   0.312  11.764   5.068 -0.4924  0.1259  0.8765
   63MOL0     C 8590   0.192  11.819   5.112  0.3117 -0.0918 -0.3739
   63MOL0     C 8591   0.074  11.749   5.089 -0.2703 -0.1941 -0.5181
   63MOL0     O 8592  -0.038  11.811   5.129 -0.5484  0.5053 -0.2420
   63MOL0     C 8593  -0.131  11.819   5.026  1.2250  0.2320  0.3618
   63MOL0     C 8594  -0.259  11.873   5.093  0.0382 -0.2723 -0.4604
   63MOL0     C 8595  -0.294  12.016   5.026  0.0216 -0.5271 -0.5443
   63MOL0     C 8596  -0.203  12.135   5.058  0.4875 -0.2427 -0.3734
   63MOL0     C 8597  -0.213  12.255   4.965  0.5087 -0.5930 -0.2605
   63MOL0     C 8598  -0.345  12.322   4.991 -0.0614  0.0022 -0.2593
   63MOL0     C 8599  -0.347  12.467   4.946 -0.1367  0.7457 -0.0382
   63MOL0     C 8600  -0.470  12.532   5.008  0.1850 -0.0014 -0.7471
   63MOL0    Cl 8601  -0.492  12.693   4.939 -0.3591  0.1557  0.3997
   63MOL0     C 8602   0.081  11.631   5.022 -0.8783  0.4572 -0.2160
   63MOL0     C 8603   0.206  11.573   4.978  0.0686  0.2741 -0.6213
   63MOL0     O 8604   0.411  11.390   4.947 -0.5614 -0.2518 -0.2520
   63MOL0     C 8605   0.736  11.461   5.003  0.5457 -0.5153 -0.2171
   63MOL0     C 8606   0.873  11.443   4.960  1.0702 -0.7283  0.4542
   63MOL0     N 8607   1.429  11.178   4.783 -0.1949  0.8081  0.6814
   63MOL0     N 8608   1.546  11.172   4.842 -0.6393 -0.6885  0.6883
   63MOL0     C 8609   1.991  10.328   5.541 -0.0411 -0.8494 -0.5584
   63MOL0     C 8610   1.892  10.287   5.630  0.5291 -0.5392 -0.3068
   63MOL0     C 8611   1.500  10.166   5.780  0.8549  0.3462  0.6839
   63MOL0     C 8612   1.418  10.252   5.855 -0.0516 -0.2753 -0.4472
   63MOL0     C 8613   1.328  10.201   5.949  0.4194 -0.1572  0.1833
   63MOL0     C 8614   1.301  10.067   5.963  0.4087 -1.0096  0.2501
   63MOL0     O 8615   1.217  10.018   6.065  0.4917  0.4993  0.1938
   63MOL0     C 8616   1.282  10.034   6.186  0.0359  0.0653  0.0726
   63MOL0     C 8617   1.189  10.080   6.301  0.2532  0.7022  0.6659
   63MOL0     C 8618   1.064   9.995   6.297 -0.5607  1.0134 -0.0158
   63MOL0     C 8619   1.082   9.842   6.313  0.5678  0.5747  0.7643
   63MOL0     C 8620   0.957   9.760   6.309  0.4963  0.1256  0.5327
   63MOL0     C 8621   0.854   9.702   6.296  0.3356  0.1370  0.0513
   63MOL0     C 8622   1.377   9.982   5.881  0.6636 -1.2991 -0.1989
   63MOL0     C 8623   1.478  10.031   5.801 -0.1351 -0.0242  0.1690
   63MOL0     C 8624   1.577   9.926   5.750  0.2973 -0.3316  0.9151
   63MOL0     H 8625   1.737  10.046   5.453  1.1148  0.0824 -2.2822
   63MOL0     H 8626   1.877  10.161   5.276  0.6172 -1.9040  0.3273
   63MOL0     H 8627   2.220  10.404   5.387 -0.4423 -1.2433 -1.0177
   63MOL0     H 8628   2.104  10.528   5.374 -0.1209  1.3018 -1.4616
   63MOL0     H 8629   2.286  10.593   5.222  0.7044  1.1175 -0.7852
   63MOL0     H 8630   2.291  10.435   5.150  0.0660  0.3183  1.4497
   63MOL0     H 8631   2.172  10.595   5.002 -0.3176  2.0048  0.4045
   63MOL0     H 8632   2.052  10.479   5.065 -0.9733  1.8855 -1.7440
   63MOL0     H 8633   1.961  10.637   5.223  0.6083  0.6687  1.1144
   63MOL0     H 8634   2.090  10.753   5.193 -2.2800  0.6061  2.7176
   63MOL0     H 8635   1.893  10.663   4.975  1.9057 -2.2948  1.2064
   63MOL0     H 8636   2.026  10.780   4.952 -0.2697 -0.1769 -2.1525
   63MOL0     H 8637   1.764  10.801   5.122  0.1260 -0.4982  0.0889
   63MOL0     H 8638   1.890  10.931   5.108  2.0424 -2.2178  0.3235
   63MOL0     H 8639   1.723  10.818   4.883 -4.8875  1.4180  2.4771
   63MOL0     H 8640   1.837  10.953   4.858 -1.8452 -0.9035 -2.4974
   63MOL0     H 8641   1.575  10.934   5.040 -2.4345 -0.9894 -2.1225
   63MOL0     H 8642   1.683  11.078   5.036  3.0606 -0.6467  0.7539
   63MOL0     H 8643   1.447  10.856   4.809  2.7553  0.0488 -1.7092
   63MOL0     H 8644   1.185  10.938   4.768 -1.1028 -0.1074  0.2405
   63MOL0     H 8645   1.279  10.924   4.614  1.1194 -1.4427  1.7187
   63MOL0     H 8646   1.199  11.171   4.555 -3.3534  3.0399  1.3221
   63MOL0     H 8647   1.065  11.057   4.595  0.7902 -2.1182 -0.1476
   63MOL0     H 8648   1.022  11.138   4.791  0.4391  0.6529 -0.3957
   63MOL0     H 8649   1.177  11.217   4.824 -0.0885  0.9242  0.2821
   63MOL0     H 8650   1.130  11.390   4.633 -1.8761  2.7131 -0.7786
   63MOL0     H 8651   0.981  11.316   4.606  0.7903  0.7217 -0.1388
   63MOL0     H 8652   0.810  11.486   4.630 -0.5492  2.1435 -0.2961
   63MOL0     H 8653   0.599  11.421   4.582  0.0192 -0.2055  1.7271
   63MOL0     H 8654   0.532  11.585   4.630  1.0446  0.9580 -0.2017
   63MOL0     H 8655   0.460  11.428   4.685 -1.9557  1.4596  0.7938
   63MOL0     H 8656   0.402  11.824   5.082 -0.9761  0.9138  0.6625
   63MOL0     H 8657   0.197  11.916   5.161  0.2076 -0.4836  0.4242
   63MOL0     H 8658  -0.098  11.888   4.948  1.7656 -0.3594  0.0492
   63MOL0     H 8659  -0.135  11.718   4.984  3.9266  0.1743  0.0660
   63MOL0     H 8660  -0.343  11.806   5.071 -1.9812  1.1613  2.2028
   63MOL0     H 8661  -0.257  11.894   5.200 -1.1236 -0.2376 -0.4392
   63MOL0     H 8662  -0.398  12.044   5.046  0.3094  0.8943 -0.8962
   63MOL0     H 8663  -0.276  11.995   4.920  3.2582 -1.9079  0.1802
   63MOL0     H 8664  -0.106  12.084   5.053  1.0825  0.8638 -0.2571
   63MOL0     H 8665  -0.211  12.170   5.161  3.6907 -0.9195  0.2283
   63MOL0     H 8666  -0.138  12.333   4.984 -2.8926  3.1533 -0.7637
   63MOL0     H 8667  -0.205  12.226   4.860  0.0176 -2.5930  0.2160
   63MOL0     H 8668  -0.370  12.309   5.097  2.9552 -0.8896  0.4318
   63MOL0     H 8669  -0.407  12.254   4.931  5.3423 -2.3650 -3.8740
   63MOL0     H 8670  -0.354  12.464   4.837  2.7334  0.4239 -0.3030
   63MOL0     H 8671  -0.255  12.517   4.979  1.4634 -1.8202 -0.2667
   63MOL0     H 8672  -0.447  12.544   5.114  0.1078  0.5499 -0.7906
   63MOL0     H 8673  -0.560  12.471   4.992 -0.8333  1.1477  0.4455
   63MOL0     H 8674  -0.008  11.576   4.995 -1.0007 -0.8940  2.6487
   63MOL0     H 8675   0.198  11.474   4.934  1.4363 -0.1801  0.1033
   63MOL0     H 8676   0.717  11.471   5.109  1.3246 -0.7144 -0.0500
   63MOL0     H 8677   0.963  11.440   5.020  1.5066 -0.3720 -0.1748
   63MOL0     H 8678   2.056  10.411   5.567 -0.8239 -0.4659  0.2031
   63MOL0     H 8679   1.887  10.316   5.734  1.0835 -2.5704  0.3365
   63MOL0     H 8680   1.433  10.360   5.853  4.7296 -0.5073  3.4685
   63MOL0     H 8681   1.261  10.255   6.014 -3.3272 -2.2328 -1.6202
   63MOL0     H 8682   1.311   9.931   6.208  0.1452 -0.0472 -0.6036
   63MOL0     H 8683   1.368  10.100   6.196 -1.3874  1.8188  1.7019
   63MOL0     H 8684   1.159  10.184   6.286 -0.8759  0.1192 -1.5250
   63MOL0     H 8685   1.224  10.072   6.405 -0.4042 -0.1724  0.8349
   63MOL0     H 8686   0.991  10.031   6.369  2.9022  4.3545  2.2499
   63MOL0     H 8687   1.028  10.027   6.199 -0.8158 -0.1478 -0.3138
   63MOL0     H 8688   1.126   9.810   6.408 -0.4365  0.7261  1.2812
   63MOL0     H 8689   1.145   9.803   6.232 -2.6183 -1.5522 -0.8762
   63MOL0     H 8690   0.759   9.655   6.281  1.6659 -2.8058  0.0805
   63MOL0     H 8691   1.345   9.879   5.877 -3.5145 -0.1948  0.5788
   63MOL0     H 8692   1.554   9.911   5.644  0.2939  0.9892  0.7165
   63MOL0     H 8693   1.684   9.938   5.766  1.1679 -3.1557 -1.6745
   63MOL0     H 8694   1.547   9.828   5.788 -0.5556 -0.3648  0.2044
   64MOL0     O 8695   7.701  10.773   9.753 -0.3676  0.0821  0.0165
   64MOL0     C 8696   7.807  10.754   9.818  0.8204  0.8975  0.1089
   64MOL0     O 8697   7.915  10.688   9.768 -0.2452 -0.0345  0.5047
   64MOL0     C 8698   7.910  10.662   9.630 -0.5729 -0.1758  0.4056
   64MOL0     C 8699   7.820  10.561   9.587 -0.0159 -1.3309  0.4429
   64MOL0     C 8700   7.833  10.521   9.453  0.3119 -0.5068 -0.8023
   64MOL0     C 8701   7.930  10.580   9.364 -0.5711 -1.0540 -0.0005
   64MOL0     O 8702   7.950  10.515   9.247 -0.0929  0.0783 -0.1192
   64MOL0     C 8703   8.047  10.561   9.156  0.3961  0.2829  0.5139
   64MOL0     C 8704   8.006  10.500   9.024  0.1378 -1.1143  0.1576
   64MOL0     C 8705   8.112  10.552   8.919 -0.1575  0.3355  0.0635
   64MOL0     C 8706   8.138  10.449   8.810  0.0740  0.0095 -0.5052
   64MOL0     C 8707   8.266  10.459   8.722  0.0929  0.4103 -0.4420
   64MOL0     C 8708   8.285  10.599   8.665  0.5233 -0.9941 -0.0182
   64MOL0     C 8709   8.407  10.607   8.570 -0.0726 -0.2341  0.6696
   64MOL0     C 8710   8.447  10.758   8.555 -0.3567  0.0281 -0.6120
   64MOL0     N 8711   8.578  10.779   8.490 -0.5762 -0.9051 -0.0528
   64MOL0     C 8712   8.661  10.894   8.521  0.1813  0.3067  0.1072
   64MOL0     C 8713   8.764  10.895   8.426  0.2847 -0.5889  0.5550
   64MOL0     C 8714   8.873  10.996   8.393  0.0121  0.4149  0.2983
   64MOL0     C 8715   8.863  11.056   8.253  0.1885 -0.2851 -0.5282
   64MOL0     C 8716   8.748  11.165   8.239 -0.6401 -0.3678  0.7367
   64MOL0     C 8717   8.745  11.234   8.098 -0.7701 -0.2363 -0.3680
   64MOL0     O 8718   8.613  11.302   8.083 -0.3114 -0.5308  0.8590
   64MOL0     C 8719   8.605  11.390   7.976  0.2337 -0.2652  0.0621
   64MOL0     C 8720   8.494  11.472   7.973  0.0082 -0.2651  0.8883
   64MOL0     C 8721   8.471  11.573   7.872  0.8882 -0.8100  0.0828
   64MOL0     C 8722   8.334  11.656   7.888 -1.0002  0.9075 -0.2607
   64MOL0     C 8723   8.578  11.598   7.779  0.1733 -0.2783  0.0591
   64MOL0     C 8724   8.563  11.705   7.678 -0.8661 -0.5560 -0.3155
   64MOL0     O 8725   8.685  11.745   7.623  0.1088 -0.1736 -1.0599
   64MOL0     C 8726   8.692  11.857   7.544 -0.8238  0.1256 -0.3762
   64MOL0     C 8727   8.813  11.873   7.465  0.4104  0.0309 -0.4727
   64MOL0     C 8728   8.849  11.983   7.386  1.0206  0.4008  0.1507
   64MOL0     C 8729   8.751  12.088   7.381 -0.9768 -0.6125 -1.0290
   64MOL0     O 8730   8.788  12.204   7.323  0.4704 -0.5601 -0.1281
   64MOL0     C 8731   8.722  12.317   7.373  0.2999  0.4097 -0.6025
   64MOL0     C 8732   8.797  12.447   7.340 -0.0378  0.0220 -0.1963
   64MOL0     C 8733   8.804  12.559   7.447 -0.3989  0.3837  0.4714
   64MOL0     C 8734   8.864  12.682   7.391 -0.3572 -0.5660 -0.0498
   64MOL0     C 8735   8.861  12.805   7.485 -0.5561 -0.5281 -0.9102
   64MOL0     C 8736   8.960  12.796   7.608  0.1048 -0.1129 -0.0395
   64MOL0     C 8737   8.912  12.903   7.718  0.3015  0.3848  0.4977
   64MOL0     C 8738   8.964  13.035   7.676 -0.0043 -0.0709  0.3499
   64MOL0    Cl 8739   9.136  13.020   7.656 -0.0524 -0.4233  0.1247
   64MOL0     C 8740   8.624  12.067   7.440 -0.2643  0.2896  0.1791
   64MOL0     C 8741   8.596  11.960   7.521 -0.1310  0.3416  0.2034
   64MOL0     O 8742   8.451  11.757   7.658  0.8384 -0.3122  0.1134
   64MOL0     C 8743   8.681  11.506   7.780 -0.3278 -0.2395  0.2407
   64MOL0     C 8744   8.700  11.403   7.876  0.2863  0.0341  0.3755
   64MOL0     N 8745   8.739  10.785   8.350  0.8028 -0.1100 -0.1716
   64MOL0     N 8746   8.633  10.713   8.392 -0.6266 -0.8672 -0.9636
   64MOL0     C 8747   8.006  10.697   9.411  0.6365 -1.1159 -0.4248
   64MOL0     C 8748   8.002  10.728   9.551  0.0550  0.4976 -0.4503
   64MOL0     C 8749   7.823  10.813   9.950  1.5062 -0.6885 -1.6007
   64MOL0     C 8750   7.771  10.941   9.973  0.2863  0.3793  0.6981
   64MOL0     C 8751   7.796  11.002  10.087  0.2238  0.0630 -0.4293
   64MOL0     C 8752   7.869  10.953  10.198  0.8746 -0.1955 -0.2677
   64MOL0     O 8753   7.885  11.028  10.312 -0.5600  0.2842  0.5299
   64MOL0     C 8754   7.831  10.963  10.424  0.0528  0.1105 -0.4648
   64MOL0     C 8755   7.749  11.070  10.473 -0.9638  0.5048 -0.1591
   64MOL0     C 8756   7.614  11.097  10.406  0.5550  0.1406  1.0639
   64MOL0     C 8757   7.522  11.194  10.480  0.8446  0.1841  0.7706
   64MOL0     C 8758   7.521  11.326  10.415 -0.6658  0.3327  1.1827
   64MOL0     C 8759   7.530  11.433  10.352  0.0584  0.3676 -0.4066
   64MOL0     C 8760   7.931  10.828  10.176 -0.5669 -0.7057 -0.3183
   64MOL0     C 8761   7.899  10.759  10.055 -1.2438 -0.1713 -0.3495
   64MOL0     C 8762   7.956  10.623  10.050  0.1720 -0.0125  0.1087
   64MOL0     H 8763   7.745  10.509   9.645 -1.1498  1.5895  1.8012
   64MOL0     H 8764   7.770  10.440   9.416 -2.0901  1.2852 -0.8993
   64MOL0     H 8765   8.148  10.523   9.172  0.7357 -1.0538 -3.5270
   64MOL0     H 8766   8.050  10.670   9.146  0.5237  0.0758 -4.6373
   64MOL0     H 8767   7.995  10.391   9.030  1.1925 -1.1785  1.2733
   64MOL0     H 8768   7.912  10.550   9.000 -0.2329 -0.4938  2.6314
   64MOL0     H 8769   8.072  10.646   8.879 -0.3334 -0.2222 -1.1144
   64MOL0     H 8770   8.209  10.566   8.968 -0.6996  3.0638  0.5229
   64MOL0     H 8771   8.138  10.352   8.860  3.8894  1.5412  3.0704
   64MOL0     H 8772   8.058  10.460   8.736  0.7734  0.4504 -1.2103
   64MOL0     H 8773   8.244  10.396   8.635 -1.4200 -0.5419  0.5831
   64MOL0     H 8774   8.347  10.431   8.791 -1.0422  1.3934  1.3725
   64MOL0     H 8775   8.195  10.621   8.607  0.6845  0.8563  0.3654
   64MOL0     H 8776   8.289  10.676   8.743 -0.7772 -1.8571  0.9202
   64MOL0     H 8777   8.389  10.557   8.475  1.8890 -2.8212  1.5296
   64MOL0     H 8778   8.481  10.542   8.618 -1.9205 -0.3926  3.5965
   64MOL0     H 8779   8.371  10.816   8.503  2.5446  4.4986 -0.4113
   64MOL0     H 8780   8.449  10.804   8.654 -2.5283 -1.1784  0.0612
   64MOL0     H 8781   8.653  10.973   8.594  1.2662 -2.8999  4.0850
   64MOL0     H 8782   8.961  10.941   8.427 -1.6288 -2.0779  0.8171
   64MOL0     H 8783   8.857  11.082   8.459 -1.5154  0.8621 -0.6097
   64MOL0     H 8784   8.957  11.110   8.245  0.4497 -0.8223 -1.2360
   64MOL0     H 8785   8.858  10.981   8.173 -0.1351 -3.1110  1.9895
   64MOL0     H 8786   8.650  11.117   8.240 -0.4503 -0.8275 -0.6661
   64MOL0     H 8787   8.773  11.230   8.323  2.2144 -1.2967  0.7354
   64MOL0     H 8788   8.830  11.301   8.083 -0.4151 -0.3379  1.0846
   64MOL0     H 8789   8.760  11.149   8.031  1.3530 -1.4294  1.4835
   64MOL0     H 8790   8.421  11.448   8.049  0.9697 -1.0395  1.5977
   64MOL0     H 8791   8.277  11.622   7.975  0.3406  0.8667  0.6278
   64MOL0     H 8792   8.278  11.640   7.795 -0.6940 -0.4365 -0.2458
   64MOL0     H 8793   8.340  11.763   7.906  1.8965  0.4390  2.2615
   64MOL0     H 8794   8.881  11.789   7.476  0.5477 -0.6545 -4.7412
   64MOL0     H 8795   8.945  11.986   7.335  0.2867  0.2451 -1.2968
   64MOL0     H 8796   8.616  12.310   7.350  0.1255 -1.5241  0.5853
   64MOL0     H 8797   8.729  12.315   7.482  3.9117  0.2365 -0.7056
   64MOL0     H 8798   8.900  12.423   7.314 -0.0291 -0.0032 -0.1389
   64MOL0     H 8799   8.752  12.489   7.250 -1.0955  3.4628  1.7425
   64MOL0     H 8800   8.853  12.533   7.541 -0.2513 -0.8707  0.0743
   64MOL0     H 8801   8.704  12.590   7.480 -0.8761  0.3510 -0.8784
   64MOL0     H 8802   8.815  12.708   7.296  0.5621 -1.9764 -0.9524
   64MOL0     H 8803   8.969  12.664   7.365 -0.5095  0.7444 -1.7900
   64MOL0     H 8804   8.893  12.894   7.430 -1.4755 -0.0020 -0.6136
   64MOL0     H 8805   8.759  12.818   7.523 -0.3357  1.3941 -0.8774
   64MOL0     H 8806   9.068  12.803   7.593  0.2088  0.1676  0.8222
   64MOL0     H 8807   8.954  12.694   7.646 -2.9381 -0.4123 -1.0710
   64MOL0     H 8808   8.946  12.876   7.818  2.1043  4.3477  1.1698
   64MOL0     H 8809   8.806  12.914   7.741  0.1901  2.7583 -0.8049
   64MOL0     H 8810   8.928  13.116   7.740 -2.7491 -2.0464  1.5167
   64MOL0     H 8811   8.932  13.062   7.575 -0.0971 -2.5958 -0.3630
   64MOL0     H 8812   8.543  12.139   7.448  1.1117  1.7684  2.1101
   64MOL0     H 8813   8.494  11.947   7.556  0.4096 -2.3429  0.9828
   64MOL0     H 8814   8.757  11.516   7.703 -0.9961 -0.2927 -0.4420
   64MOL0     H 8815   8.795  11.353   7.863 -1.4181 -3.3264 -0.3120
   64MOL0     H 8816   8.083  10.745   9.351 -0.1722  1.5646  0.5139
   64MOL0     H 8817   8.061  10.803   9.603  0.4666 -1.8734  2.7863
   64MOL0     H 8818   7.696  10.976   9.903 -1.7683 -3.5470  0.6249
   64MOL0     H 8819   7.758  11.103  10.099  0.4895  0.1779 -0.5511
   64MOL0     H 8820   7.778  10.869  10.411  0.7254 -0.2106 -0.9298
   64MOL0     H 8821   7.915  10.949  10.493  1.1360  3.1436 -1.0367
   64MOL0     H 8822   7.801  11.166  10.472 -2.1154  1.1425 -0.8355
   64MOL0     H 8823   7.726  11.049  10.578  0.0951  1.9550  0.3941
   64MOL0     H 8824   7.650  11.131  10.309 -1.9103 -2.4939 -0.9288
   64MOL0     H 8825   7.564  11.003  10.382  2.0338 -0.2689 -0.5563
   64MOL0     H 8826   7.550  11.195  10.586  1.0351  1.2435  0.7235
   64MOL0     H 8827   7.420  11.153  10.476  0.5585  0.9733 -0.4571
   64MOL0     H 8828   7.531  11.530  10.305 -2.4325 -0.0970 -1.5700
   64MOL0     H 8829   7.995  10.780  10.250  0.3940 -0.1183 -0.7591
   64MOL0     H 8830   7.923  10.552   9.974 -1.0320  0.9016 -0.2436
   64MOL0     H 8831   8.064  10.635  10.061  0.4981 -3.1125  1.3348
   64MOL0     H 8832   7.918  10.582  10.144 -3.2832  0.0570 -1.1040
   65MOL0     O 8833   3.687   1.073   7.095 -0.1529 -0.7405  0.1160
   65MOL0     C 8834   3.723   1.045   6.984 -1.0747 -0.4617 -0.3564
   65MOL0     O 8835   3.694   0.930   6.926 -0.1548  0.2793  0.6554
   65MOL0     C 8836   3.636   0.830   7.007  0.8707 -0.2632  0.2331
   65MOL0     C 8837   3.710   0.728   7.056  0.0288  1.6393 -0.7761
   65MOL0     C 8838   3.660   0.610   7.119  0.2794  0.1653  0.8446
   65MOL0     C 8839   3.526   0.617   7.157  1.3046  0.0834  0.7177
   65MOL0     O 8840   3.468   0.518   7.235 -0.0890  0.5967 -0.2795
   65MOL0     C 8841   3.466   0.548   7.374 -0.1667 -0.0483 -0.7314
   65MOL0     C 8842   3.345   0.477   7.436  0.0935 -0.1560 -0.2930
   65MOL0     C 8843   3.313   0.520   7.579  0.6217  0.5481 -0.0842
   65MOL0     C 8844   3.258   0.662   7.578  0.1739  0.4110  0.7896
   65MOL0     C 8845   3.268   0.720   7.718 -0.2268  0.4793  0.4682
   65MOL0     C 8846   3.212   0.865   7.728 -0.0363  0.9426  0.0810
   65MOL0     C 8847   3.066   0.852   7.687  0.0530 -0.1356 -0.4240
   65MOL0     C 8848   2.979   0.973   7.715 -0.4473 -0.4625  0.2313
   65MOL0     N 8849   2.952   0.998   7.858 -0.4753 -0.3535  0.6468
   65MOL0     C 8850   2.870   0.925   7.941 -0.1220 -0.1946  0.3419
   65MOL0     C 8851   2.866   0.989   8.059 -0.0615  0.2386 -0.3995
   65MOL0     C 8852   2.785   0.933   8.177  0.0454  0.4166 -0.0928
   65MOL0     C 8853   2.723   1.047   8.255 -0.2015 -0.1633 -0.9688
   65MOL0     C 8854   2.697   1.013   8.406 -0.6849  0.1251  0.1433
   65MOL0     C 8855   2.813   0.953   8.486 -0.5068  0.3126 -0.6836
   65MOL0     O 8856   2.849   0.811   8.462  0.3495  0.1437 -0.1261
   65MOL0     C 8857   2.929   0.752   8.563  0.0382 -1.8321  0.0040
   65MOL0     C 8858   2.989   0.628   8.533 -0.2989 -0.3154 -0.0561
   65MOL0     C 8859   3.063   0.550   8.623 -0.9997 -0.5128 -0.2198
   65MOL0     C 8860   3.139   0.434   8.556  0.4147 -0.9523 -0.4557
   65MOL0     C 8861   3.072   0.596   8.750 -0.3248 -0.3877 -1.5539
   65MOL0     C 8862   3.146   0.515   8.858 -0.4640 -0.8276 -0.1888
   65MOL0     O 8863   3.189   0.582   8.973 -0.8932 -0.4509  0.0225
   65MOL0     C 8864   3.267   0.528   9.069  0.3808 -0.1171 -0.4516
   65MOL0     C 8865   3.368   0.591   9.130 -0.3651 -0.5091  1.3156
   65MOL0     C 8866   3.443   0.537   9.233 -0.6074 -0.6934 -0.5544
   65MOL0     C 8867   3.404   0.414   9.291 -0.2298 -0.5315  0.5949
   65MOL0     O 8868   3.458   0.353   9.401 -0.0110  0.2899 -0.6592
   65MOL0     C 8869   3.536   0.436   9.484 -0.0402 -0.3004 -0.0394
   65MOL0     C 8870   3.455   0.524   9.570  0.0722 -0.3511 -0.9068
   65MOL0     C 8871   3.407   0.455   9.699  0.5489 -0.0540 -1.1973
   65MOL0     C 8872   3.325   0.554   9.788 -0.4792  0.1004  1.0635
   65MOL0     C 8873   3.281   0.489   9.913  0.2091  0.3975 -0.6394
   65MOL0     C 8874   3.243   0.594  10.026 -0.9303  1.0110 -0.7543
   65MOL0     C 8875   3.162   0.528  10.136  0.5607 -0.3659  0.9501
   65MOL0     C 8876   3.117   0.626  10.237  0.2579 -0.6628  0.6887
   65MOL0    Cl 8877   3.247   0.737  10.299 -0.0425 -0.1410 -0.1908
   65MOL0     C 8878   3.295   0.341   9.236 -0.7259 -0.4469  1.2593
   65MOL0     C 8879   3.235   0.395   9.125  0.2689 -0.0294  0.3027
   65MOL0     O 8880   3.151   0.395   8.842  0.4206  0.5145 -0.2278
   65MOL0     C 8881   3.012   0.717   8.788  0.2763 -1.3305 -0.3215
   65MOL0     C 8882   2.942   0.793   8.697  0.6476 -0.0429 -0.4184
   65MOL0     N 8883   2.946   1.105   8.052 -0.1703  0.6206  0.8394
   65MOL0     N 8884   2.995   1.112   7.930 -0.2218 -0.4839  0.5951
   65MOL0     C 8885   3.442   0.722   7.106  0.1884 -0.6017  0.1820
   65MOL0     C 8886   3.501   0.828   7.036  0.9822 -0.4264 -0.1262
   65MOL0     C 8887   3.790   1.153   6.901 -0.8266 -0.0994 -0.4408
   65MOL0     C 8888   3.835   1.119   6.767  0.4955 -0.7013  0.0855
   65MOL0     C 8889   3.894   1.210   6.680 -0.1627  0.1294 -0.7896
   65MOL0     C 8890   3.909   1.345   6.722  0.1795 -0.3236  0.5651
   65MOL0     O 8891   3.950   1.445   6.646 -0.4261 -0.4283 -0.7306
   65MOL0     C 8892   3.928   1.435   6.503 -0.2212 -0.4609 -0.8732
   65MOL0     C 8893   4.026   1.361   6.411  0.0296 -0.5662 -0.3354
   65MOL0     C 8894   3.946   1.290   6.299 -0.1511 -0.0373 -1.2835
   65MOL0     C 8895   4.026   1.258   6.173 -0.1153  0.4593 -0.7173
   65MOL0     C 8896   4.030   1.369   6.078  0.2011 -0.1293 -0.1753
   65MOL0     C 8897   4.039   1.469   6.009  0.3294  0.2382  0.8953
   65MOL0     C 8898   3.867   1.381   6.846 -0.2212 -0.0066  0.3832
   65MOL0     C 8899   3.810   1.296   6.936  1.0188  0.3770 -0.2062
   65MOL0     C 8900   3.768   1.352   7.070  0.0300  0.3107  1.0028
   65MOL0     H 8901   3.816   0.739   7.036  0.1590 -0.5783 -1.6701
   65MOL0     H 8902   3.726   0.533   7.158  0.7845 -0.1074 -0.4957
   65MOL0     H 8903   3.454   0.655   7.393  1.7458 -0.1509  1.5348
   65MOL0     H 8904   3.562   0.516   7.416 -0.7813 -2.8431 -1.3040
   65MOL0     H 8905   3.259   0.489   7.369  1.1995 -2.1010 -2.2131
   65MOL0     H 8906   3.370   0.371   7.444  1.4822  0.2761  1.6725
   65MOL0     H 8907   3.234   0.453   7.615  0.5226 -0.9570 -2.8404
   65MOL0     H 8908   3.404   0.505   7.637 -0.5263 -2.9586  1.0742
   65MOL0     H 8909   3.304   0.729   7.505 -2.3305 -0.8190 -2.1616
   65MOL0     H 8910   3.156   0.655   7.540  1.0684 -1.6709 -1.4284
   65MOL0     H 8911   3.370   0.712   7.758 -1.2431 -4.3192  2.8412
   65MOL0     H 8912   3.214   0.662   7.794  1.4511  0.1549  1.4778
   65MOL0     H 8913   3.221   0.889   7.835  2.4039 -2.5322  0.8241
   65MOL0     H 8914   3.252   0.947   7.668 -1.1610  2.1754  0.9401
   65MOL0     H 8915   3.025   0.783   7.760  3.2022 -1.1477  0.5304
   65MOL0     H 8916   3.046   0.836   7.580 -0.6446 -2.0550 -0.0409
   65MOL0     H 8917   3.046   1.053   7.683  0.0370 -1.0777 -0.3296
   65MOL0     H 8918   2.889   0.973   7.653 -0.9930  1.7298  0.9486
   65MOL0     H 8919   2.814   0.834   7.921  0.6118 -0.8325  1.1307
   65MOL0     H 8920   2.855   0.866   8.229 -0.7103 -1.0517 -0.8903
   65MOL0     H 8921   2.706   0.863   8.147 -0.5659  0.6652  0.9023
   65MOL0     H 8922   2.781   1.139   8.254 -2.8674  1.6063 -2.4002
   65MOL0     H 8923   2.622   1.072   8.221 -0.1682  1.5036  0.0587
   65MOL0     H 8924   2.668   1.109   8.450  1.9837  2.0622 -1.9453
   65MOL0     H 8925   2.616   0.940   8.404 -0.3392 -0.2530  0.0330
   65MOL0     H 8926   2.899   1.019   8.480 -0.5251  0.8089  2.6005
   65MOL0     H 8927   2.783   0.960   8.591 -0.7204 -1.3917 -0.6073
   65MOL0     H 8928   2.981   0.602   8.428  2.1604 -1.5578 -0.0125
   65MOL0     H 8929   3.132   0.337   8.607 -0.4876 -0.9917 -0.6423
   65MOL0     H 8930   3.244   0.461   8.565  0.3159 -0.0429 -1.8018
   65MOL0     H 8931   3.103   0.413   8.455  1.5258 -2.2099 -0.6198
   65MOL0     H 8932   3.397   0.681   9.076  3.7311 -1.5689  1.4382
   65MOL0     H 8933   3.529   0.592   9.268 -1.8390  0.2198  1.2187
   65MOL0     H 8934   3.606   0.384   9.549 -1.0179  0.9045  2.0736
   65MOL0     H 8935   3.608   0.485   9.417 -0.7003 -0.0165 -0.5526
   65MOL0     H 8936   3.515   0.614   9.584  0.3185 -0.8289  1.4634
   65MOL0     H 8937   3.362   0.552   9.519 -0.4436 -0.4916 -0.0630
   65MOL0     H 8938   3.496   0.418   9.750 -1.0385  0.0804  1.9307
   65MOL0     H 8939   3.348   0.364   9.685 -0.7095  0.0751  2.1990
   65MOL0     H 8940   3.251   0.598   9.721  2.2243  1.8617 -1.0299
   65MOL0     H 8941   3.384   0.640   9.821 -2.4881  1.6372  0.8303
   65MOL0     H 8942   3.190   0.433   9.887  0.0065  0.4574 -0.0563
   65MOL0     H 8943   3.351   0.412   9.947 -1.7169 -1.1395  0.0449
   65MOL0     H 8944   3.180   0.668   9.975  0.2030  0.4166 -3.1415
   65MOL0     H 8945   3.337   0.635  10.064  0.3849 -1.5830 -1.0117
   65MOL0     H 8946   3.227   0.458  10.188 -0.9186 -1.0080  1.9932
   65MOL0     H 8947   3.075   0.473  10.098 -0.6089  0.5296  2.2599
   65MOL0     H 8948   3.074   0.565  10.317 -1.8465 -1.2520 -0.8133
   65MOL0     H 8949   3.039   0.692  10.198  2.6243  3.0400  1.7189
   65MOL0     H 8950   3.266   0.247   9.283  0.5578 -1.2852  0.4666
   65MOL0     H 8951   3.152   0.348   9.073  0.1302 -2.0366  2.2073
   65MOL0     H 8952   3.032   0.760   8.886 -3.0604  0.4636 -0.2543
   65MOL0     H 8953   2.901   0.884   8.739 -0.0971 -0.0681 -1.0852
   65MOL0     H 8954   3.336   0.716   7.126 -0.5080  2.1853 -2.0277
   65MOL0     H 8955   3.434   0.896   6.983  0.2454 -0.9747  0.0843
   65MOL0     H 8956   3.812   1.017   6.739 -1.5470 -0.4541  0.7123
   65MOL0     H 8957   3.922   1.177   6.581 -1.7860 -0.8489 -0.9480
   65MOL0     H 8958   3.827   1.395   6.492 -0.8693  1.2910 -1.7194
   65MOL0     H 8959   3.923   1.542   6.483  2.2274  1.0341  4.6501
   65MOL0     H 8960   4.092   1.288   6.460  1.0306  0.7383  0.3258
   65MOL0     H 8961   4.084   1.446   6.374 -0.4050  0.6513  1.6474
   65MOL0     H 8962   3.915   1.196   6.344 -3.8957  2.4676  2.0507
   65MOL0     H 8963   3.863   1.355   6.270  1.2365  1.7283 -1.5746
   65MOL0     H 8964   3.986   1.166   6.129 -1.4360 -0.1185  1.4806
   65MOL0     H 8965   4.127   1.247   6.213 -1.4982  0.7993  3.4463
   65MOL0     H 8966   4.049   1.561   5.955 -0.3297  0.6924  1.5368
   65MOL0     H 8967   3.863   1.488   6.868  0.3603 -0.2931  1.9983
   65MOL0     H 8968   3.835   1.315   7.148  2.3456 -0.4463 -1.1869
   65MOL0     H 8969   3.778   1.461   7.065 -1.8725  0.5406  1.5385
   65MOL0     H 8970   3.666   1.318   7.086 -1.6011  3.1097 -2.1430
   66MOL0     O 8971   1.500   6.801   5.347 -0.0933 -0.1773 -0.1019
   66MOL0     C 8972   1.518   6.730   5.247  0.1863 -0.2771  0.1470
   66MOL0     O 8973   1.628   6.648   5.222  1.0622  0.2966  0.5023
   66MOL0     C 8974   1.725   6.626   5.321 -0.6978 -0.2222  0.0974
   66MOL0     C 8975   1.711   6.626   5.461 -0.3783 -0.0929 -1.2872
   66MOL0     C 8976   1.825   6.596   5.543 -0.7713  0.2638 -0.6078
   66MOL0     C 8977   1.946   6.563   5.489 -0.0398 -0.4504 -0.4079
   66MOL0     O 8978   2.041   6.522   5.584 -0.2738 -0.2912  1.1740
   66MOL0     C 8979   2.170   6.493   5.531  0.3161  0.2288  0.0732
   66MOL0     C 8980   2.282   6.465   5.641 -0.4074  0.0011  0.2357
   66MOL0     C 8981   2.420   6.426   5.581  0.2552  0.8397  0.6250
   66MOL0     C 8982   2.411   6.288   5.495  0.1562 -0.0292  0.1312
   66MOL0     C 8983   2.537   6.259   5.411 -0.4492 -0.3561  0.3074
   66MOL0     C 8984   2.627   6.156   5.476 -0.3772 -0.2468  0.3657
   66MOL0     C 8985   2.688   6.078   5.360  0.5479  0.2129  0.0757
   66MOL0     C 8986   2.788   5.978   5.418 -0.2091 -0.4230  0.6307
   66MOL0     N 8987   2.865   5.917   5.310  0.2765 -1.2650  0.1948
   66MOL0     C 8988   2.827   5.821   5.221  0.5036  0.4144 -0.2577
   66MOL0     C 8989   2.946   5.776   5.164 -0.4058 -0.8383 -0.0010
   66MOL0     C 8990   2.966   5.660   5.071 -0.0717 -0.7401 -0.2854
   66MOL0     C 8991   2.908   5.533   5.119 -0.6137 -0.0149 -0.1719
   66MOL0     C 8992   2.931   5.426   5.002 -0.6637 -0.0128 -0.2192
   66MOL0     C 8993   2.898   5.283   5.061  0.6864  0.7052 -0.4322
   66MOL0     O 8994   2.884   5.183   4.953 -0.0460 -0.5459 -0.5804
   66MOL0     C 8995   2.796   5.078   4.958 -0.2097  1.1642 -0.5516
   66MOL0     C 8996   2.846   4.952   4.981  0.5521 -0.0996  0.3264
   66MOL0     C 8997   2.770   4.835   4.976  1.2572 -0.1520 -0.5697
   66MOL0     C 8998   2.835   4.704   4.985  0.4602 -0.0741 -0.0027
   66MOL0     C 8999   2.631   4.854   4.963  0.1676  0.2869 -0.3211
   66MOL0     C 9000   2.527   4.741   4.973 -0.4157  0.1470 -0.0140
   66MOL0     O 9001   2.552   4.638   5.062  0.2824  0.4454  0.5799
   66MOL0     C 9002   2.450   4.557   5.095 -0.2689  0.0501 -0.5706
   66MOL0     C 9003   2.369   4.597   5.200  0.2525  0.2590  0.4061
   66MOL0     C 9004   2.266   4.511   5.232 -0.2277  0.1231 -0.4171
   66MOL0     C 9005   2.260   4.376   5.189  0.4135 -0.4979 -0.8921
   66MOL0     O 9006   2.153   4.292   5.233 -0.2760 -0.5827 -0.2081
   66MOL0     C 9007   2.172   4.151   5.224 -0.1323 -1.1706  0.1282
   66MOL0     C 9008   2.053   4.075   5.269  0.8183  0.0416  0.2972
   66MOL0     C 9009   2.081   3.921   5.252  0.4741  0.4057 -0.2563
   66MOL0     C 9010   2.110   3.868   5.384 -0.3113 -0.0194 -1.3867
   66MOL0     C 9011   1.991   3.840   5.474  0.5533 -0.4700  0.3941
   66MOL0     C 9012   1.902   3.721   5.431  0.5498  0.2631 -0.0227
   66MOL0     C 9013   1.969   3.582   5.420 -0.1309 -0.4422  0.1281
   66MOL0     C 9014   1.904   3.474   5.341  0.2842  0.0909  0.2989
   66MOL0    Cl 9015   1.738   3.456   5.406  0.5015 -0.1511  0.6009
   66MOL0     C 9016   2.354   4.342   5.095 -0.1629 -0.3211  0.3647
   66MOL0     C 9017   2.453   4.427   5.046 -0.4501 -0.6775 -0.5026
   66MOL0     O 9018   2.427   4.744   4.907 -0.1112  0.5207 -0.8451
   66MOL0     C 9019   2.577   4.983   4.934  0.0530 -0.1612 -0.5832
   66MOL0     C 9020   2.657   5.093   4.933 -0.8032  0.6005  0.3308
   66MOL0     N 9021   3.045   5.850   5.219 -0.2521  0.3057  0.3768
   66MOL0     N 9022   2.996   5.930   5.300 -1.0098  0.8012 -0.2361
   66MOL0     C 9023   1.961   6.558   5.349  0.2300  0.0798  0.5701
   66MOL0     C 9024   1.848   6.585   5.271  0.6543 -0.1517  0.2750
   66MOL0     C 9025   1.416   6.717   5.133 -0.1548 -0.5002 -0.8711
   66MOL0     C 9026   1.453   6.680   5.006 -0.3143 -0.0459 -0.2853
   66MOL0     C 9027   1.354   6.658   4.908 -1.6664 -0.1424  0.0207
   66MOL0     C 9028   1.223   6.683   4.914  0.1921  0.1211 -0.5710
   66MOL0     O 9029   1.149   6.645   4.811 -0.1921 -0.5418  0.7876
   66MOL0     C 9030   1.049   6.745   4.769  0.1415 -0.3967  0.5372
   66MOL0     C 9031   0.924   6.678   4.707  0.5744 -0.8952  0.4397
   66MOL0     C 9032   0.946   6.635   4.552 -0.1761 -0.7641 -0.4595
   66MOL0     C 9033   1.023   6.505   4.521  0.3155 -0.5759 -0.1239
   66MOL0     C 9034   0.948   6.397   4.585 -0.1012  0.1913  0.6998
   66MOL0     C 9035   0.891   6.301   4.635  0.1246  0.0791  0.4961
   66MOL0     C 9036   1.182   6.723   5.046  0.2251  0.0660 -0.9123
   66MOL0     C 9037   1.280   6.747   5.142 -0.2221  0.8802 -0.2947
   66MOL0     C 9038   1.227   6.801   5.274 -0.6541 -0.5880 -0.2383
   66MOL0     H 9039   1.617   6.646   5.510  1.8928  4.3060  1.9006
   66MOL0     H 9040   1.813   6.608   5.650 -2.4360 -2.2173 -0.4497
   66MOL0     H 9041   2.203   6.574   5.466 -0.5491  1.8624  1.5598
   66MOL0     H 9042   2.153   6.408   5.465 -0.8310 -0.7313  1.5294
   66MOL0     H 9043   2.293   6.551   5.707  1.4840 -0.7497  0.9700
   66MOL0     H 9044   2.254   6.384   5.710  1.8009 -1.8114 -0.8663
   66MOL0     H 9045   2.450   6.513   5.522  4.5061  0.1089  1.3406
   66MOL0     H 9046   2.491   6.411   5.664 -2.6240 -0.4091  3.0520
   66MOL0     H 9047   2.382   6.204   5.558  0.0443 -1.7071 -2.0581
   66MOL0     H 9048   2.333   6.302   5.420 -1.5481 -4.4411  0.7922
   66MOL0     H 9049   2.586   6.352   5.381 -1.7889 -0.0276 -0.9841
   66MOL0     H 9050   2.502   6.223   5.314 -0.4719  1.3437 -0.3431
   66MOL0     H 9051   2.702   6.207   5.537 -0.2145  0.1877 -0.1858
   66MOL0     H 9052   2.566   6.085   5.532 -2.4285  1.7883  0.8807
   66MOL0     H 9053   2.738   6.146   5.290  0.4833  0.8793  0.6587
   66MOL0     H 9054   2.610   6.021   5.308  1.1038 -0.9165  0.4402
   66MOL0     H 9055   2.860   6.025   5.485  0.4453 -1.3003  0.5698
   66MOL0     H 9056   2.753   5.892   5.477  0.5666 -0.4968  0.9971
   66MOL0     H 9057   2.726   5.779   5.219  0.1013  1.2191 -3.8769
   66MOL0     H 9058   3.072   5.629   5.073  0.4124  0.6816 -1.6467
   66MOL0     H 9059   2.929   5.684   4.971  0.6955 -1.1271 -0.6710
   66MOL0     H 9060   2.964   5.488   5.202  0.8470 -0.3067 -1.2603
   66MOL0     H 9061   2.805   5.552   5.150 -1.7258  0.3690 -3.6619
   66MOL0     H 9062   2.870   5.437   4.913  0.0737  0.9685 -0.6238
   66MOL0     H 9063   3.036   5.430   4.970 -0.6859  1.4373 -0.1561
   66MOL0     H 9064   2.967   5.251   5.139  1.5992  1.8261 -0.7548
   66MOL0     H 9065   2.799   5.293   5.108  1.2093 -0.1144  0.9063
   66MOL0     H 9066   2.953   4.947   4.999  0.2418 -0.6754  2.3227
   66MOL0     H 9067   2.935   4.730   4.952 -0.1598  0.7804 -1.2741
   66MOL0     H 9068   2.802   4.635   4.906  0.5293 -2.4380  1.8940
   66MOL0     H 9069   2.835   4.653   5.082 -0.4144  0.3409  0.2257
   66MOL0     H 9070   2.364   4.697   5.240  1.2374  0.5761 -0.2279
   66MOL0     H 9071   2.177   4.539   5.288  0.1148  2.9301 -1.1035
   66MOL0     H 9072   2.199   4.127   5.121  0.4485  2.0777 -0.6014
   66MOL0     H 9073   2.252   4.121   5.293 -0.2231 -0.7319  0.4363
   66MOL0     H 9074   2.026   4.106   5.371  1.4516  1.3510  0.0892
   66MOL0     H 9075   1.967   4.100   5.205 -0.7010 -2.5586  1.1888
   66MOL0     H 9076   2.152   3.888   5.175 -0.0104  0.0642 -0.5648
   66MOL0     H 9077   1.990   3.875   5.212  0.4587  1.5551 -1.6400
   66MOL0     H 9078   2.186   3.928   5.433  1.2280 -1.3358 -2.0815
   66MOL0     H 9079   2.155   3.771   5.362  0.7378 -0.2033  1.2634
   66MOL0     H 9080   2.027   3.815   5.574  1.3837 -3.0497 -0.4704
   66MOL0     H 9081   1.923   3.926   5.482 -2.0880 -2.0965 -2.4026
   66MOL0     H 9082   1.846   3.738   5.339  0.5169 -1.6876 -0.4008
   66MOL0     H 9083   1.826   3.716   5.510 -1.4912  0.7530 -1.8720
   66MOL0     H 9084   2.000   3.540   5.516  0.4524 -1.9489 -0.6897
   66MOL0     H 9085   2.060   3.599   5.362  0.8364  2.0063  2.1677
   66MOL0     H 9086   1.955   3.380   5.362  0.8548  0.7166  1.8293
   66MOL0     H 9087   1.895   3.501   5.235 -1.4822  1.1768  0.6822
   66MOL0     H 9088   2.351   4.245   5.044 -1.4139  0.7991 -1.8554
   66MOL0     H 9089   2.525   4.403   4.969  1.2201  0.1730  0.7316
   66MOL0     H 9090   2.470   4.998   4.927 -1.0581 -3.0777  4.8482
   66MOL0     H 9091   2.613   5.190   4.915 -2.2184 -0.4913 -2.8172
   66MOL0     H 9092   2.052   6.526   5.300  0.3235 -0.8188  1.2966
   66MOL0     H 9093   1.842   6.581   5.163  2.5612 -2.2535  0.1545
   66MOL0     H 9094   1.558   6.658   4.991 -0.2367 -1.1749  1.5955
   66MOL0     H 9095   1.381   6.635   4.805 -2.3596 -1.4125  0.1023
   66MOL0     H 9096   1.006   6.799   4.854 -2.4928 -2.3904  0.5774
   66MOL0     H 9097   1.096   6.808   4.692  0.2266 -1.0272  0.0688
   66MOL0     H 9098   0.852   6.756   4.685  2.4474  0.4981 -1.0584
   66MOL0     H 9099   0.872   6.606   4.771 -3.4796 -0.3747 -1.9326
   66MOL0     H 9100   0.847   6.620   4.507 -0.3196  1.0315 -0.8092
   66MOL0     H 9101   0.986   6.717   4.492  0.0729 -1.2329 -0.9374
   66MOL0     H 9102   1.120   6.516   4.570  0.5216 -0.6416 -0.5156
   66MOL0     H 9103   1.019   6.493   4.412  1.2946  2.0477 -0.5268
   66MOL0     H 9104   0.856   6.212   4.683  2.5697 -1.5507 -0.5398
   66MOL0     H 9105   1.076   6.747   5.058  0.2546  1.8413 -3.2772
   66MOL0     H 9106   1.119   6.798   5.295 -0.4761  0.8835  1.1042
   66MOL0     H 9107   1.270   6.751   5.362  4.0965  1.3141 -1.1521
   66MOL0     H 9108   1.257   6.905   5.288 -0.4882 -0.8801  2.0645
   67MOL0     O 9109  10.586   3.960   5.021 -0.6221 -0.6901 -0.3185
   67MOL0     C 9110  10.633   3.973   4.913 -0.2754  0.3353  0.8774
   67MOL0     O 9111  10.643   4.088   4.844  0.3215 -1.0911  0.9709
   67MOL0     C 9112  10.618   4.206   4.923  0.3343  0.3905 -0.3989
   67MOL0     C 9113  10.729   4.272   4.982  0.3022  0.3786  1.1297
   67MOL0     C 9114  10.701   4.386   5.050  0.0393  0.2085 -0.7114
   67MOL0     C 9115  10.569   4.439   5.069 -0.0133 -0.0247 -0.0036
   67MOL0     O 9116  10.544   4.535   5.171  0.6914  0.6122  0.2106
   67MOL0     C 9117  10.646   4.638   5.190 -0.1383  0.0510  0.5835
   67MOL0     C 9118  10.582   4.756   5.254  0.4085  0.0911  0.1512
   67MOL0     C 9119  10.669   4.875   5.267  0.0245 -0.5494  0.0785
   67MOL0     C 9120  10.798   4.853   5.359  0.4110  0.1589  0.0638
   67MOL0     C 9121  10.880   4.983   5.362  0.1951 -0.6465 -0.0121
   67MOL0     C 9122  11.022   4.972   5.419  0.1609 -0.1778  0.2123
   67MOL0     C 9123  11.040   4.863   5.531  0.8225  0.5373  0.0967
   67MOL0     C 9124  11.182   4.857   5.584  0.1494  0.2913  0.7541
   67MOL0     N 9125  11.196   4.765   5.710 -0.1987 -0.2878  0.5132
   67MOL0     C 9126  11.238   4.631   5.702 -0.7761 -0.5475 -0.3993
   67MOL0     C 9127  11.211   4.583   5.825 -0.4872  0.4742 -0.5183
   67MOL0     C 9128  11.232   4.441   5.875  0.5693  0.3792  0.0310
   67MOL0     C 9129  11.129   4.331   5.836 -0.4939  0.0854 -1.0010
   67MOL0     C 9130  11.158   4.187   5.871  0.0053  0.4077  1.2724
   67MOL0     C 9131  11.174   4.175   6.027  0.6406  0.4786 -0.3230
   67MOL0     O 9132  11.198   4.039   6.067  0.0610 -0.8533  0.2781
   67MOL0     C 9133  11.192   4.011   6.201  0.1086 -0.6380  0.6661
   67MOL0     C 9134  11.111   4.078   6.295  0.2713  0.0134 -0.8881
   67MOL0     C 9135  11.092   4.023   6.424 -0.1884 -0.0962 -0.7885
   67MOL0     C 9136  10.988   4.100   6.515  0.5082  0.4774 -0.1333
   67MOL0     C 9137  11.146   3.895   6.460 -0.2691 -0.5167  0.4049
   67MOL0     C 9138  11.124   3.823   6.582 -0.3288  0.3732 -0.4323
   67MOL0     O 9139  11.147   3.888   6.702  1.1464 -0.8125 -0.4735
   67MOL0     C 9140  11.144   3.809   6.814 -0.8259 -0.6150 -1.5356
   67MOL0     C 9141  11.028   3.807   6.904  0.2222  0.0858 -0.2639
   67MOL0     C 9142  11.042   3.725   7.018 -0.1002 -0.1741  0.1589
   67MOL0     C 9143  11.146   3.643   7.041 -1.2420  0.3040 -0.5840
   67MOL0     O 9144  11.145   3.584   7.163 -0.4619 -0.2981 -0.6431
   67MOL0     C 9145  11.265   3.509   7.203 -0.9876 -0.7370  0.5637
   67MOL0     C 9146  11.231   3.442   7.338  0.7556 -0.0212 -0.6271
   67MOL0     C 9147  11.191   3.543   7.450  0.1730 -0.2960 -0.6581
   67MOL0     C 9148  11.148   3.491   7.580 -0.3815  0.1224  0.5119
   67MOL0     C 9149  11.255   3.420   7.674 -0.0099 -0.3068 -0.6805
   67MOL0     C 9150  11.205   3.393   7.819  0.7698  0.0939  0.8094
   67MOL0     C 9151  11.318   3.315   7.890  0.8777 -0.0375  0.1564
   67MOL0     C 9152  11.306   3.329   8.043  0.3738  0.1247  0.2772
   67MOL0    Cl 9153  11.454   3.291   8.123  0.1191 -0.6316  0.2361
   67MOL0     C 9154  11.258   3.638   6.950 -0.2435  0.2908 -0.2200
   67MOL0     C 9155  11.260   3.726   6.842  0.6960 -0.2754  0.1501
   67MOL0     O 9156  11.074   3.708   6.569  0.0669  0.5321  0.4016
   67MOL0     C 9157  11.226   3.835   6.361 -0.3529  1.0438 -0.3086
   67MOL0     C 9158  11.252   3.891   6.235  0.0645 -0.2114  0.8155
   67MOL0     N 9159  11.141   4.679   5.903  0.9738  0.8113 -0.3408
   67MOL0     N 9160  11.138   4.784   5.828  0.4235 -0.5813  0.0205
   67MOL0     C 9161  10.461   4.368   5.012  0.2724 -0.3389  1.0998
   67MOL0     C 9162  10.485   4.257   4.932 -0.1929  0.3278  0.7883
   67MOL0     C 9163  10.694   3.851   4.856  0.1675  0.4493  0.2498
   67MOL0     C 9164  10.821   3.852   4.803 -0.6204 -0.2796 -0.3004
   67MOL0     C 9165  10.866   3.736   4.743  0.0010  0.4719 -0.1471
   67MOL0     C 9166  10.803   3.612   4.748  0.1110  0.0699 -0.4803
   67MOL0     O 9167  10.858   3.504   4.693 -0.3914  0.6955  0.2456
   67MOL0     C 9168  10.825   3.374   4.748 -1.0081 -0.0350  0.2127
   67MOL0     C 9169  10.932   3.271   4.724 -0.2602 -0.8578  0.7439
   67MOL0     C 9170  11.049   3.293   4.831  0.5146  0.2207 -0.3635
   67MOL0     C 9171  11.129   3.422   4.833  0.1212  0.1650  0.0879
   67MOL0     C 9172  11.261   3.400   4.884 -0.5509 -0.4952 -0.6872
   67MOL0     C 9173  11.373   3.372   4.933 -0.3444 -0.4645  0.5047
   67MOL0     C 9174  10.675   3.608   4.803 -0.9774 -0.1263  0.0715
   67MOL0     C 9175  10.616   3.726   4.856 -0.1950 -1.1360 -0.6444
   67MOL0     C 9176  10.478   3.711   4.907  0.7166  0.5127  0.0109
   67MOL0     H 9177  10.834   4.245   4.971  0.1276 -0.7021  2.0223
   67MOL0     H 9178  10.788   4.426   5.100 -0.6329 -1.8364  2.3308
   67MOL0     H 9179  10.681   4.666   5.090  0.9146 -0.2038  0.8718
   67MOL0     H 9180  10.733   4.598   5.242  0.2638 -0.5152 -0.4787
   67MOL0     H 9181  10.502   4.783   5.184  2.9245  0.2120 -2.9082
   67MOL0     H 9182  10.545   4.732   5.354  0.9066 -2.2348 -0.1596
   67MOL0     H 9183  10.708   4.910   5.171  4.3762 -0.5393  1.6252
   67MOL0     H 9184  10.611   4.954   5.316  0.3010 -0.5978  0.4906
   67MOL0     H 9185  10.787   4.816   5.462 -1.2905 -0.3430 -0.2740
   67MOL0     H 9186  10.860   4.782   5.304  0.3709  0.5377 -0.4754
   67MOL0     H 9187  10.832   5.057   5.426  2.2296 -1.4013  2.5605
   67MOL0     H 9188  10.883   5.034   5.266  1.2806 -0.9333 -0.1416
   67MOL0     H 9189  11.079   4.936   5.333 -1.8571 -1.9356 -0.5027
   67MOL0     H 9190  11.058   5.067   5.458 -3.3123  1.7901 -0.9395
   67MOL0     H 9191  11.004   4.762   5.510 -0.8881  0.3955  3.0825
   67MOL0     H 9192  10.976   4.895   5.614  0.4502  3.4357 -1.1800
   67MOL0     H 9193  11.257   4.821   5.513 -0.6564  1.4724 -0.7630
   67MOL0     H 9194  11.216   4.959   5.604  2.7505 -0.2916 -0.3126
   67MOL0     H 9195  11.281   4.566   5.626  1.6258 -0.5943  0.9158
   67MOL0     H 9196  11.225   4.461   5.983  0.4312  1.5431 -0.1815
   67MOL0     H 9197  11.332   4.409   5.845 -0.0065 -0.8612 -0.6608
   67MOL0     H 9198  11.037   4.366   5.884 -2.6752 -2.9497 -2.5860
   67MOL0     H 9199  11.111   4.330   5.728  2.6969 -4.4740 -1.7586
   67MOL0     H 9200  11.069   4.127   5.850  0.8818 -0.5758  0.2271
   67MOL0     H 9201  11.242   4.143   5.817  0.0268 -1.2093  2.5531
   67MOL0     H 9202  11.250   4.240   6.071  0.3359 -0.5117  1.8267
   67MOL0     H 9203  11.076   4.208   6.063  0.6123  1.9073 -1.6163
   67MOL0     H 9204  11.050   4.166   6.278  1.3854  1.5570  2.4261
   67MOL0     H 9205  10.888   4.079   6.475 -0.1696  2.4582  0.3926
   67MOL0     H 9206  10.998   4.209   6.508  1.1549  0.5962  1.9200
   67MOL0     H 9207  10.998   4.086   6.623  3.0862 -0.6265 -0.4650
   67MOL0     H 9208  10.948   3.878   6.884  0.0584  0.2479  0.9359
   67MOL0     H 9209  10.959   3.728   7.087  0.2123  1.8741  0.5172
   67MOL0     H 9210  11.296   3.436   7.128  0.8575 -0.5692  1.1172
   67MOL0     H 9211  11.354   3.573   7.208  0.9109 -3.2862  0.9451
   67MOL0     H 9212  11.145   3.377   7.318  0.7618 -0.0916 -0.4251
   67MOL0     H 9213  11.312   3.378   7.375  0.7812 -1.7346 -3.3249
   67MOL0     H 9214  11.104   3.604   7.424 -1.4195 -1.0977  2.3146
   67MOL0     H 9215  11.275   3.610   7.471 -0.5623  0.0161  1.5546
   67MOL0     H 9216  11.075   3.413   7.558  0.5373 -0.7705  0.5358
   67MOL0     H 9217  11.090   3.561   7.641  2.6828 -0.2893  4.3445
   67MOL0     H 9218  11.296   3.330   7.627  0.9147 -0.6790  0.7786
   67MOL0     H 9219  11.328   3.500   7.688  0.4512 -1.2029  3.2097
   67MOL0     H 9220  11.110   3.342   7.799  1.2444 -0.2455 -0.7285
   67MOL0     H 9221  11.186   3.491   7.864  2.5385  0.2711  1.2166
   67MOL0     H 9222  11.415   3.358   7.860  2.8631 -1.8631  3.3376
   67MOL0     H 9223  11.302   3.211   7.860 -2.1501 -0.2517  2.1398
   67MOL0     H 9224  11.232   3.260   8.083  1.1566  0.3813  2.2817
   67MOL0     H 9225  11.283   3.435   8.061 -1.1821  0.1402 -1.5450
   67MOL0     H 9226  11.349   3.580   6.963  2.3064  3.2903 -3.0340
   67MOL0     H 9227  11.347   3.731   6.776 -0.0041  1.1382 -0.7217
   67MOL0     H 9228  11.272   3.742   6.394 -4.7521 -2.3537 -2.7228
   67MOL0     H 9229  11.299   3.823   6.165 -1.8410 -1.4498  0.6608
   67MOL0     H 9230  10.355   4.389   5.018 -0.2323 -2.1547 -0.6161
   67MOL0     H 9231  10.399   4.204   4.893 -1.2223  2.3531  0.1843
   67MOL0     H 9232  10.875   3.945   4.798  0.4214 -0.9258 -2.1453
   67MOL0     H 9233  10.957   3.750   4.685  0.7373 -0.2890  0.7898
   67MOL0     H 9234  10.801   3.373   4.855  2.2537  2.3661  1.1092
   67MOL0     H 9235  10.739   3.342   4.688 -1.0249  0.8911 -0.2962
   67MOL0     H 9236  10.965   3.279   4.620 -1.7090 -1.4731  0.2137
   67MOL0     H 9237  10.900   3.169   4.745  0.1654 -1.6408 -2.0707
   67MOL0     H 9238  11.011   3.279   4.932 -0.9186  1.6590 -0.6622
   67MOL0     H 9239  11.120   3.212   4.810 -0.4916 -0.6421 -0.5275
   67MOL0     H 9240  11.066   3.497   4.884 -2.5563 -3.1660  2.1463
   67MOL0     H 9241  11.134   3.451   4.728  1.7129 -4.4415 -1.3275
   67MOL0     H 9242  11.477   3.362   4.955  0.1253  3.1409  0.4934
   67MOL0     H 9243  10.619   3.515   4.810 -1.0599 -0.1455 -0.7051
   67MOL0     H 9244  10.416   3.790   4.862 -2.6234 -1.9951 -0.2273
   67MOL0     H 9245  10.434   3.611   4.893  2.8339 -0.5038  0.2355
   67MOL0     H 9246  10.480   3.727   5.015  0.6775  1.7529 -0.1602
   68MOL0     O 9247   2.222   2.956  10.792  0.4085  0.1762 -0.4631
   68MOL0     C 9248   2.199   3.043  10.880 -1.1018 -0.5087 -0.1969
   68MOL0     O 9249   2.159   3.167  10.862 -0.3984 -0.4994  0.6943
   68MOL0     C 9250   2.131   3.225  10.733  0.2536  0.0630  0.1040
   68MOL0     C 9251   2.187   3.183  10.609  1.2806 -0.6241  0.3474
   68MOL0     C 9252   2.169   3.254  10.492  0.6137  0.1810 -0.7248
   68MOL0     C 9253   2.090   3.372  10.492 -1.3119  0.5677  0.5566
   68MOL0     O 9254   2.049   3.435  10.383  1.0725  0.0541  0.1980
   68MOL0     C 9255   1.999   3.356  10.276 -0.1893  0.5426 -0.6630
   68MOL0     C 9256   1.873   3.405  10.224  0.1058 -0.7413 -0.3415
   68MOL0     C 9257   1.751   3.409  10.325  0.4458  0.8647  0.5178
   68MOL0     C 9258   1.731   3.272  10.397 -0.3656  0.6976 -1.4821
   68MOL0     C 9259   1.653   3.290  10.525 -0.0743  0.8878  0.4063
   68MOL0     C 9260   1.514   3.358  10.509 -0.5491 -0.0135 -0.6788
   68MOL0     C 9261   1.424   3.356  10.631  0.7396  0.5958  0.3642
   68MOL0     C 9262   1.301   3.433  10.602  0.1538 -0.8445  0.0261
   68MOL0     N 9263   1.232   3.480  10.729  0.6733 -0.2012  0.1547
   68MOL0     C 9264   1.268   3.587  10.812 -0.0287  0.3718  0.5424
   68MOL0     C 9265   1.173   3.585  10.916 -0.4666 -0.2092  0.7222
   68MOL0     C 9266   1.188   3.675  11.042 -0.9054  0.2931 -0.4387
   68MOL0     C 9267   1.109   3.800  11.043  0.3414 -0.5168 -0.8572
   68MOL0     C 9268   1.109   3.875  10.907  0.1609 -0.2956  0.7430
   68MOL0     C 9269   1.056   4.009  10.937  0.6996 -0.6584 -0.2033
   68MOL0     O 9270   1.037   4.094  10.821 -0.4415 -0.1962  1.0639
   68MOL0     C 9271   1.155   4.142  10.764  0.2873  0.1195  0.6127
   68MOL0     C 9272   1.279   4.117  10.822 -0.4321 -0.0482  0.0393
   68MOL0     C 9273   1.399   4.158  10.761 -0.4313 -0.5659  0.3060
   68MOL0     C 9274   1.521   4.131  10.839 -0.2755 -0.2106  0.4680
   68MOL0     C 9275   1.392   4.215  10.632  0.3900  0.0327 -0.4672
   68MOL0     C 9276   1.507   4.246  10.552  0.0907 -0.1399 -0.7051
   68MOL0     O 9277   1.479   4.305  10.429  0.6171 -0.4648  1.1817
   68MOL0     C 9278   1.587   4.320  10.351  0.2274  0.0142  0.0471
   68MOL0     C 9279   1.621   4.455  10.320  0.6451 -0.5411  0.0394
   68MOL0     C 9280   1.727   4.485  10.236  0.0820 -0.1690  0.0974
   68MOL0     C 9281   1.806   4.385  10.182 -0.4884  1.1345  0.1891
   68MOL0     O 9282   1.925   4.414  10.114 -0.0092  0.1199 -0.0544
   68MOL0     C 9283   1.962   4.318  10.007  0.3709 -0.4176 -0.1640
   68MOL0     C 9284   2.066   4.375   9.915  0.5092  0.0197  0.1948
   68MOL0     C 9285   2.052   4.532   9.889  0.4755  0.3562  0.0208
   68MOL0     C 9286   2.142   4.584   9.769 -0.2891 -0.6550 -0.3877
   68MOL0     C 9287   2.054   4.659   9.675 -0.0092 -0.3289  0.0460
   68MOL0     C 9288   2.116   4.689   9.543 -0.0607 -0.3724  0.7159
   68MOL0     C 9289   2.015   4.778   9.468 -0.6176  0.5826 -0.1216
   68MOL0     C 9290   2.068   4.772   9.328  0.2518 -0.0612  0.3476
   68MOL0    Cl 9291   1.985   4.901   9.229 -0.2186  0.1622  0.2878
   68MOL0     C 9292   1.770   4.244  10.204 -0.1120  0.5524 -0.2401
   68MOL0     C 9293   1.656   4.215  10.288 -0.0972  0.0231 -0.4099
   68MOL0     O 9294   1.618   4.207  10.579 -0.3781 -0.5016 -0.0139
   68MOL0     C 9295   1.261   4.252  10.588  0.4088  0.2091  0.6477
   68MOL0     C 9296   1.147   4.217  10.648  0.3561 -0.0182  0.5052
   68MOL0     N 9297   1.090   3.481  10.890 -0.5231 -0.2367 -0.2028
   68MOL0     N 9298   1.118   3.414  10.782  0.2039 -0.3474  1.6195
   68MOL0     C 9299   2.057   3.425  10.610  0.3537 -1.2468  0.0137
   68MOL0     C 9300   2.075   3.354  10.725 -0.3631  0.3425  0.9986
   68MOL0     C 9301   2.224   2.983  11.019  0.2913 -1.0885  1.1318
   68MOL0     C 9302   2.294   2.864  11.038 -0.3690  0.5317 -0.3590
   68MOL0     C 9303   2.333   2.810  11.163 -0.0475  1.0064  0.4250
   68MOL0     C 9304   2.300   2.897  11.265  0.8715  0.1445 -0.1940
   68MOL0     O 9305   2.359   2.882  11.391 -0.3722 -0.5370  0.1418
   68MOL0     C 9306   2.398   2.751  11.439  0.0621 -0.1538  0.1857
   68MOL0     C 9307   2.430   2.767  11.588 -0.2504 -0.6541 -0.3285
   68MOL0     C 9308   2.468   2.631  11.660  0.3608  0.8900 -0.3828
   68MOL0     C 9309   2.347   2.543  11.690 -0.2838 -0.3580 -0.7239
   68MOL0     C 9310   2.262   2.583  11.799  0.3230 -0.0606  0.3897
   68MOL0     C 9311   2.194   2.623  11.892  0.0951  0.1712  0.9261
   68MOL0     C 9312   2.207   2.999  11.253 -0.5377 -0.4688  0.3551
   68MOL0     C 9313   2.165   3.043  11.129 -0.2137  0.7970  0.3975
   68MOL0     C 9314   2.075   3.159  11.129 -0.6008  0.4326 -0.1571
   68MOL0     H 9315   2.245   3.093  10.590  0.3351 -2.0074  3.3553
   68MOL0     H 9316   2.197   3.206  10.399  1.1424  0.8354 -0.9122
   68MOL0     H 9317   2.011   3.249  10.295  2.2481  1.3641  3.6436
   68MOL0     H 9318   2.069   3.370  10.192 -1.1044  1.2760 -1.3228
   68MOL0     H 9319   1.892   3.509  10.196 -0.5890 -0.2775  0.8197
   68MOL0     H 9320   1.844   3.348  10.135  2.3793  2.1350 -3.1456
   68MOL0     H 9321   1.781   3.474  10.408 -0.8708  0.3541  1.4339
   68MOL0     H 9322   1.661   3.448  10.277 -0.2002 -0.3380  0.7140
   68MOL0     H 9323   1.663   3.211  10.336  0.9216  0.5168 -2.7903
   68MOL0     H 9324   1.823   3.219  10.420 -0.0704 -0.3529 -4.6109
   68MOL0     H 9325   1.700   3.354  10.600 -0.1996 -0.1825  1.4272
   68MOL0     H 9326   1.637   3.192  10.572  2.8655  0.6881  1.2013
   68MOL0     H 9327   1.536   3.461  10.477 -0.6522 -0.0116 -0.7439
   68MOL0     H 9328   1.459   3.317  10.424  0.8859  0.3934 -1.8538
   68MOL0     H 9329   1.483   3.404  10.710  0.0171  0.5552  0.9346
   68MOL0     H 9330   1.391   3.256  10.663  0.2023  0.2752 -1.1275
   68MOL0     H 9331   1.319   3.524  10.544 -0.9819  0.8695  2.1965
   68MOL0     H 9332   1.232   3.379  10.536 -0.0835  0.9564 -1.3054
   68MOL0     H 9333   1.358   3.647  10.821 -0.5105  0.9208  1.9294
   68MOL0     H 9334   1.293   3.693  11.067 -0.7375 -0.4786 -0.5608
   68MOL0     H 9335   1.139   3.610  11.116 -3.5064 -1.0110 -3.1003
   68MOL0     H 9336   1.010   3.777  11.083  0.7903 -0.2363  0.4889
   68MOL0     H 9337   1.134   3.873  11.121 -4.3173  0.4230  0.0201
   68MOL0     H 9338   1.207   3.881  10.860 -1.1225  2.5615 -1.9865
   68MOL0     H 9339   1.038   3.827  10.839 -0.7672 -1.3539  2.3904
   68MOL0     H 9340   0.956   3.997  10.981  0.7712 -0.3644  0.0402
   68MOL0     H 9341   1.113   4.069  11.008  1.0546 -0.3272 -0.7551
   68MOL0     H 9342   1.284   4.078  10.923  1.3163  3.2372  1.4006
   68MOL0     H 9343   1.569   4.224  10.871  1.6305 -0.7203 -0.6913
   68MOL0     H 9344   1.602   4.084  10.782 -0.1363  1.0229 -0.3720
   68MOL0     H 9345   1.501   4.090  10.938  2.8084  1.1347  1.7976
   68MOL0     H 9346   1.569   4.541  10.362  1.6910  0.4986 -0.7300
   68MOL0     H 9347   1.747   4.591  10.223 -0.4062  0.1454  1.6819
   68MOL0     H 9348   1.990   4.226  10.059 -0.5596  0.4199  1.9500
   68MOL0     H 9349   1.872   4.301   9.946 -0.7384  0.6228  1.0988
   68MOL0     H 9350   2.166   4.362   9.957  0.6732 -0.0327 -0.2088
   68MOL0     H 9351   2.068   4.314   9.824 -0.6481  0.2652 -0.0112
   68MOL0     H 9352   2.088   4.588   9.976  1.9011  1.4695 -1.2376
   68MOL0     H 9353   1.948   4.558   9.867  0.9487  1.5762 -0.8927
   68MOL0     H 9354   2.196   4.502   9.721  2.9162  1.2212 -0.2759
   68MOL0     H 9355   2.213   4.659   9.805 -2.2709  1.4673 -0.6804
   68MOL0     H 9356   1.965   4.596   9.666  0.7279 -1.6480  1.5654
   68MOL0     H 9357   2.014   4.751   9.718 -2.2038 -1.9467  1.7231
   68MOL0     H 9358   2.126   4.594   9.490 -0.4714 -0.2013  0.3197
   68MOL0     H 9359   2.216   4.732   9.552 -0.2503  0.8255 -1.9809
   68MOL0     H 9360   2.021   4.873   9.522  1.9519 -0.4749  1.6824
   68MOL0     H 9361   1.909   4.756   9.478 -0.9393  2.4580  1.1789
   68MOL0     H 9362   2.040   4.677   9.281 -2.6006  0.9472 -0.1866
   68MOL0     H 9363   2.176   4.792   9.333 -0.2664  2.9681  4.9534
   68MOL0     H 9364   1.825   4.169  10.148 -1.0102 -0.4934  0.2469
   68MOL0     H 9365   1.634   4.114  10.321  2.9725 -0.1895  1.3876
   68MOL0     H 9366   1.265   4.321  10.504 -0.6103 -2.1126 -1.4486
   68MOL0     H 9367   1.060   4.252  10.592 -1.4588 -2.6548  1.4374
   68MOL0     H 9368   1.993   3.513  10.619  1.1842 -0.7357  1.2514
   68MOL0     H 9369   2.048   3.392  10.824  2.9266  2.0888  1.3918
   68MOL0     H 9370   2.329   2.804  10.954  0.2702  0.3267  0.0547
   68MOL0     H 9371   2.394   2.720  11.153  0.4995  1.5864 -2.1884
   68MOL0     H 9372   2.320   2.677  11.418  0.6185 -0.3936 -1.2296
   68MOL0     H 9373   2.488   2.720  11.384  0.6716  0.3374  0.8969
   68MOL0     H 9374   2.348   2.822  11.636  0.8705  0.0085  0.9117
   68MOL0     H 9375   2.517   2.831  11.607  1.1111 -2.9903  2.1457
   68MOL0     H 9376   2.543   2.574  11.604  1.2766 -0.2518  1.8591
   68MOL0     H 9377   2.512   2.641  11.760  0.5573 -0.7203 -0.2681
   68MOL0     H 9378   2.384   2.443  11.714 -0.1969 -0.3979 -1.0204
   68MOL0     H 9379   2.272   2.544  11.610 -2.2780  1.9914  1.0343
   68MOL0     H 9380   2.144   2.658  11.980  3.2962  2.6653  1.9774
   68MOL0     H 9381   2.192   3.051  11.347 -3.4371 -1.8600  0.7640
   68MOL0     H 9382   2.030   3.174  11.228 -1.3209 -1.8651 -0.0944
   68MOL0     H 9383   2.115   3.253  11.089  1.5497 -0.0506  0.7071
   68MOL0     H 9384   1.993   3.137  11.061  0.2605 -0.9828 -0.7708
   69MOL0     O 9385   9.518   0.785   6.901 -0.2658 -0.0651  0.3586
   69MOL0     C 9386   9.560   0.862   6.991  1.0258  0.3839  0.7312
   69MOL0     O 9387   9.568   0.834   7.120 -0.3389 -0.7692 -0.3590
   69MOL0     C 9388   9.570   0.700   7.158 -0.8925 -0.5233  0.8425
   69MOL0     C 9389   9.687   0.669   7.226 -0.1586 -0.1043  0.6399
   69MOL0     C 9390   9.706   0.548   7.291  0.0944  0.2588  1.3074
   69MOL0     C 9391   9.609   0.449   7.267 -0.4462 -0.0717 -0.4355
   69MOL0     O 9392   9.637   0.325   7.318 -0.0216 -0.1504 -0.3454
   69MOL0     C 9393   9.519   0.250   7.355 -0.2624  0.2606 -1.0018
   69MOL0     C 9394   9.564   0.148   7.469 -0.1739 -0.3900 -0.7302
   69MOL0     C 9395   9.597   0.224   7.600 -0.4716 -0.7415  1.2300
   69MOL0     C 9396   9.508   0.206   7.727  0.6011 -0.5289  0.1511
   69MOL0     C 9397   9.526   0.078   7.799 -0.9722 -0.3472 -0.1711
   69MOL0     C 9398   9.435   0.077   7.922  0.0616  0.0976 -0.6943
   69MOL0     C 9399   9.425  -0.062   7.992 -0.8922  0.2291 -0.0185
   69MOL0     C 9400   9.377  -0.177   7.898 -0.4699  0.5201 -0.6967
   69MOL0     N 9401   9.245  -0.144   7.846 -0.4822  0.6804  0.0259
   69MOL0     C 9402   9.233  -0.099   7.718 -0.0042 -0.2186  0.4393
   69MOL0     C 9403   9.102  -0.093   7.689 -1.1877 -0.0295 -0.1941
   69MOL0     C 9404   9.031  -0.050   7.559  0.6371 -0.1252 -1.0048
   69MOL0     C 9405   9.133   0.009   7.451  0.0252 -0.1170  0.1252
   69MOL0     C 9406   9.080   0.063   7.321 -1.0926  0.2992  0.0746
   69MOL0     C 9407   8.964  -0.032   7.263 -0.5344 -0.2865 -0.3331
   69MOL0     O 9408   9.013  -0.169   7.263  0.3673 -0.4528 -0.4443
   69MOL0     C 9409   9.075  -0.215   7.148 -0.4254 -0.1581 -0.5783
   69MOL0     C 9410   9.081  -0.356   7.130  0.6875 -0.2995  0.0665
   69MOL0     C 9411   9.163  -0.415   7.039  0.2029  0.8898 -0.3453
   69MOL0     C 9412   9.176  -0.567   7.044 -0.1563 -0.0555 -0.5283
   69MOL0     C 9413   9.233  -0.329   6.947  0.5199  0.0514 -1.0469
   69MOL0     C 9414   9.312  -0.381   6.835  0.1657 -0.0925 -0.5522
   69MOL0     O 9415   9.361  -0.283   6.744 -0.3941 -0.2896 -0.7811
   69MOL0     C 9416   9.466  -0.334   6.670 -0.7598 -1.3655 -0.9711
   69MOL0     C 9417   9.433  -0.402   6.549  0.4262  0.1800 -0.8830
   69MOL0     C 9418   9.538  -0.454   6.470  0.0146 -0.0520 -0.0130
   69MOL0     C 9419   9.667  -0.448   6.509  0.4479  0.0371  0.2662
   69MOL0     O 9420   9.768  -0.514   6.441 -0.6441 -0.1302 -0.3944
   69MOL0     C 9421   9.759  -0.560   6.306 -0.0856 -0.4327  0.0266
   69MOL0     C 9422   9.776  -0.433   6.215  0.8274 -0.6379  0.0316
   69MOL0     C 9423   9.925  -0.375   6.228  0.5347 -0.8739  0.4665
   69MOL0     C 9424   9.925  -0.225   6.189 -0.8079  1.0645  0.1257
   69MOL0     C 9425   9.906  -0.190   6.043  0.8345 -0.2805  1.0056
   69MOL0     C 9426   9.866  -0.046   6.008  0.3978 -0.5621 -0.3161
   69MOL0     C 9427   9.876  -0.039   5.864 -0.9625 -0.0190  0.0517
   69MOL0     C 9428   9.790   0.072   5.797  0.0660  0.4954 -0.3126
   69MOL0    Cl 9429   9.848   0.226   5.857  0.0832  0.1328 -0.8416
   69MOL0     C 9430   9.693  -0.373   6.631  0.7811 -0.3018  0.2445
   69MOL0     C 9431   9.596  -0.314   6.715 -0.2566 -1.4528 -0.0340
   69MOL0     O 9432   9.322  -0.500   6.815 -0.3276  0.4694  0.1126
   69MOL0     C 9433   9.217  -0.188   6.950  0.4323  0.5063 -0.7797
   69MOL0     C 9434   9.143  -0.133   7.059 -0.4509  0.0189 -0.5971
   69MOL0     N 9435   9.030  -0.147   7.796 -0.0583  0.1755 -0.1712
   69MOL0     N 9436   9.114  -0.178   7.889  0.8195  0.4274  0.2540
   69MOL0     C 9437   9.489   0.478   7.187 -0.4349 -1.0788  0.1831
   69MOL0     C 9438   9.469   0.607   7.134 -1.4271  0.6974 -0.7075
   69MOL0     C 9439   9.587   0.992   6.944 -0.0826  0.7947  0.8830
   69MOL0     C 9440   9.489   1.058   6.863 -0.7665  0.0610  0.0481
   69MOL0     C 9441   9.492   1.193   6.809  0.2595  0.5527  0.0498
   69MOL0     C 9442   9.609   1.261   6.836 -0.3068 -0.0188  0.0184
   69MOL0     O 9443   9.621   1.390   6.784 -0.3295 -0.1310 -0.4963
   69MOL0     C 9444   9.606   1.391   6.643 -0.0095 -0.4566 -0.7623
   69MOL0     C 9445   9.696   1.490   6.575  0.7552 -0.0040 -0.6562
   69MOL0     C 9446   9.645   1.637   6.607  1.1869  0.4877 -1.0513
   69MOL0     C 9447   9.717   1.736   6.526 -0.3318 -0.4215 -0.0274
   69MOL0     C 9448   9.643   1.863   6.545 -0.0542 -0.3960 -1.0550
   69MOL0     C 9449   9.590   1.973   6.562  0.4495 -0.2178 -0.1265
   69MOL0     C 9450   9.706   1.203   6.923  0.0757  0.3061  0.2315
   69MOL0     C 9451   9.706   1.068   6.974 -0.7220  0.0266 -0.1769
   69MOL0     C 9452   9.804   1.025   7.082 -0.2850  0.6160 -0.2402
   69MOL0     H 9453   9.762   0.748   7.221 -0.5147  0.1713 -0.4772
   69MOL0     H 9454   9.793   0.530   7.353  0.4818  0.6079  0.8707
   69MOL0     H 9455   9.486   0.183   7.275  3.7831 -2.3061 -0.8274
   69MOL0     H 9456   9.442   0.319   7.392  2.1844  1.8967  1.5219
   69MOL0     H 9457   9.482   0.082   7.497 -0.5978 -0.6798 -2.4887
   69MOL0     H 9458   9.644   0.088   7.424  0.2321  0.8931 -1.8217
   69MOL0     H 9459   9.698   0.205   7.639 -0.0020  0.0936  0.4801
   69MOL0     H 9460   9.605   0.331   7.580  2.8822 -0.6987  2.1225
   69MOL0     H 9461   9.510   0.293   7.793 -2.5927  0.9581 -1.4770
   69MOL0     H 9462   9.409   0.196   7.682  1.1313 -1.2542 -0.9076
   69MOL0     H 9463   9.630   0.069   7.831 -1.4908  0.1414  1.8368
   69MOL0     H 9464   9.500  -0.000   7.728 -1.5509  0.7117 -1.1603
   69MOL0     H 9465   9.471   0.142   8.002 -2.0289 -0.5155  0.8205
   69MOL0     H 9466   9.338   0.117   7.890 -0.3436  0.1001  0.5068
   69MOL0     H 9467   9.363  -0.051   8.081 -1.5045  0.8459 -0.5044
   69MOL0     H 9468   9.527  -0.094   8.018 -0.9506  0.6036  0.6827
   69MOL0     H 9469   9.452  -0.199   7.821  0.8462  0.5361  0.5318
   69MOL0     H 9470   9.360  -0.259   7.968 -3.6227  1.6474  0.0168
   69MOL0     H 9471   9.317  -0.062   7.660  0.6072 -1.9129  0.1882
   69MOL0     H 9472   8.954   0.021   7.591 -0.2374 -1.3103 -0.4062
   69MOL0     H 9473   8.981  -0.139   7.520  1.4193 -1.7228  1.4133
   69MOL0     H 9474   9.184   0.093   7.499 -1.0072  1.1956 -1.0172
   69MOL0     H 9475   9.197  -0.076   7.424 -0.9363 -0.0393 -2.6159
   69MOL0     H 9476   9.032   0.161   7.319  0.1220  0.9392  1.0137
   69MOL0     H 9477   9.159   0.055   7.246 -1.8774  2.3858 -1.0684
   69MOL0     H 9478   8.882  -0.022   7.334  1.5091  0.4728  2.1116
   69MOL0     H 9479   8.933  -0.011   7.161  2.8232  1.5068 -1.1517
   69MOL0     H 9480   9.018  -0.415   7.195  0.0568  1.1193  0.7909
   69MOL0     H 9481   9.280  -0.598   7.059  0.0694 -0.2216 -2.2045
   69MOL0     H 9482   9.132  -0.598   6.949 -0.3417  0.5387 -0.6363
   69MOL0     H 9483   9.121  -0.621   7.122 -2.7442 -1.8355 -3.3851
   69MOL0     H 9484   9.328  -0.413   6.524  0.3580 -4.2378  0.5910
   69MOL0     H 9485   9.513  -0.510   6.380 -1.7797 -1.0723  1.0595
   69MOL0     H 9486   9.843  -0.629   6.295  0.0853 -0.0845 -0.9359
   69MOL0     H 9487   9.667  -0.613   6.284 -1.5531  1.8966  0.1482
   69MOL0     H 9488   9.765  -0.464   6.111  0.0265  0.3284 -0.1917
   69MOL0     H 9489   9.691  -0.364   6.223 -1.3178 -3.2050  1.1181
   69MOL0     H 9490   9.985  -0.439   6.162  0.2021  1.2109 -1.9847
   69MOL0     H 9491   9.964  -0.398   6.328  0.8457 -2.2663  0.0580
   69MOL0     H 9492  10.028  -0.198   6.216 -0.6184 -0.1547  0.7061
   69MOL0     H 9493   9.850  -0.172   6.249 -2.2238 -3.2662  2.5955
   69MOL0     H 9494  10.001  -0.223   6.000  0.0065  0.0635 -1.1702
   69MOL0     H 9495   9.832  -0.257   5.999  2.1255  0.0970 -1.9715
   69MOL0     H 9496   9.927   0.038   6.042  0.2208  0.5632 -2.5694
   69MOL0     H 9497   9.765  -0.021   6.042  1.1516 -0.2345  1.8402
   69MOL0     H 9498   9.842  -0.135   5.822  1.1887  0.7239 -3.8687
   69MOL0     H 9499   9.980  -0.031   5.830 -1.4915  2.0355 -1.2505
   69MOL0     H 9500   9.685   0.055   5.822  0.3707 -1.5173 -0.2063
   69MOL0     H 9501   9.810   0.065   5.689 -1.1830 -3.1054 -0.4463
   69MOL0     H 9502   9.794  -0.375   6.670  0.8142 -2.1715  0.1647
   69MOL0     H 9503   9.626  -0.258   6.803 -3.5330 -0.2829  0.4578
   69MOL0     H 9504   9.273  -0.124   6.881  0.8642 -1.7634 -2.6518
   69MOL0     H 9505   9.149  -0.025   7.075  1.3023 -0.2129  0.6460
   69MOL0     H 9506   9.407   0.407   7.192 -1.2868 -0.1164  0.2890
   69MOL0     H 9507   9.381   0.634   7.076 -2.6198  0.0790  0.7387
   69MOL0     H 9508   9.396   1.010   6.835  0.2418 -0.9955 -1.6802
   69MOL0     H 9509   9.417   1.226   6.738 -1.7420 -3.4589  0.0184
   69MOL0     H 9510   9.639   1.294   6.604  0.4339  0.2910 -2.3462
   69MOL0     H 9511   9.509   1.413   6.596  0.5606  2.6205 -0.7184
   69MOL0     H 9512   9.702   1.471   6.467 -0.6231 -0.1851 -0.7168
   69MOL0     H 9513   9.798   1.476   6.611 -0.6529 -2.8373  2.9440
   69MOL0     H 9514   9.536   1.637   6.600  1.1083 -2.2252 -0.7044
   69MOL0     H 9515   9.663   1.657   6.714 -3.4385 -0.4808  0.1390
   69MOL0     H 9516   9.711   1.705   6.421 -2.4439 -0.1033 -0.0402
   69MOL0     H 9517   9.824   1.739   6.552 -0.6770 -1.4911  1.6354
   69MOL0     H 9518   9.563   2.075   6.574  0.5213 -0.2261  0.1069
   69MOL0     H 9519   9.789   1.270   6.943 -0.8033  3.6032 -5.1556
   69MOL0     H 9520   9.850   0.930   7.055  2.2132  1.7975 -0.4152
   69MOL0     H 9521   9.890   1.093   7.077  0.2674 -0.0680 -0.0820
   69MOL0     H 9522   9.754   1.012   7.178 -1.5854  0.3677 -0.9344
   70MOL0     O 9523   5.310  10.758   5.919  0.0068  0.7813 -0.7570
   70MOL0     C 9524   5.340  10.641   5.939 -1.0576  0.6436  0.8554
   70MOL0     O 9525   5.266  10.532   5.935  0.3971  0.0322  0.5288
   70MOL0     C 9526   5.140  10.540   5.878 -0.4381  0.1493 -0.1616
   70MOL0     C 9527   5.119  10.476   5.757  0.3931 -0.1452  0.0019
   70MOL0     C 9528   4.986  10.465   5.705  0.3008 -0.6898  0.1254
   70MOL0     C 9529   4.871  10.518   5.774 -0.0571 -1.6342  0.0384
   70MOL0     O 9530   4.753  10.504   5.709  1.0685  0.2319 -0.0393
   70MOL0     C 9531   4.629  10.555   5.756  0.1556 -0.2955 -0.4148
   70MOL0     C 9532   4.516  10.540   5.654 -0.3667 -0.2968  0.1889
   70MOL0     C 9533   4.536  10.596   5.511 -0.4728 -0.9524  0.1455
   70MOL0     C 9534   4.533  10.749   5.523  0.3066 -0.1147  0.6208
   70MOL0     C 9535   4.538  10.824   5.385  0.1148  0.2818  0.6547
   70MOL0     C 9536   4.403  10.809   5.307  0.1385  0.2516 -0.1303
   70MOL0     C 9537   4.387  10.927   5.203 -0.5586 -0.0400  0.0258
   70MOL0     C 9538   4.254  10.922   5.123  0.4085  1.1163  0.3888
   70MOL0     N 9539   4.235  10.812   5.029 -0.6749  0.3944  0.0343
   70MOL0     C 9540   4.135  10.721   5.035 -0.2060  0.5036  0.0715
   70MOL0     C 9541   4.166  10.636   4.933  0.5828 -0.1687 -0.8152
   70MOL0     C 9542   4.083  10.510   4.894  0.0392  0.3388  0.4540
   70MOL0     C 9543   4.169  10.408   4.820 -0.5678 -0.3542 -0.1547
   70MOL0     C 9544   4.180  10.439   4.669 -0.4536  0.3789 -0.2170
   70MOL0     C 9545   4.212  10.315   4.588  0.3617 -0.2160 -0.4161
   70MOL0     O 9546   4.094  10.242   4.585  0.3771 -0.5111 -0.3604
   70MOL0     C 9547   4.110  10.128   4.508  0.0901  0.7822 -0.8544
   70MOL0     C 9548   4.010  10.025   4.536 -0.3888 -0.1132 -0.4412
   70MOL0     C 9549   4.008   9.905   4.472 -0.1406 -0.1438 -0.0463
   70MOL0     C 9550   3.897   9.812   4.511  1.0751  0.4260 -0.8026
   70MOL0     C 9551   4.112   9.874   4.378  0.3581 -0.4858 -0.5782
   70MOL0     C 9552   4.138   9.729   4.329  0.1163 -1.6560 -0.3006
   70MOL0     O 9553   4.125   9.630   4.421  0.1447  0.1622  0.2690
   70MOL0     C 9554   4.184   9.504   4.410  0.9550 -0.0887 -0.8474
   70MOL0     C 9555   4.210   9.453   4.538  0.6531 -0.4224  0.0329
   70MOL0     C 9556   4.274   9.330   4.550  0.3415  0.2565 -0.4712
   70MOL0     C 9557   4.328   9.262   4.446  0.3286  0.0894  0.6921
   70MOL0     O 9558   4.412   9.161   4.443 -0.6973 -0.0304 -0.0671
   70MOL0     C 9559   4.521   9.165   4.538  0.2393  0.0168 -0.4277
   70MOL0     C 9560   4.626   9.058   4.499  0.1066  0.0441 -0.3280
   70MOL0     C 9561   4.633   8.950   4.600  1.1004  0.7331  0.1369
   70MOL0     C 9562   4.535   8.836   4.571  0.0405 -0.0233  0.4585
   70MOL0     C 9563   4.533   8.709   4.656 -0.2335  0.2722 -0.1401
   70MOL0     C 9564   4.505   8.735   4.804  0.3651 -0.1218 -0.2690
   70MOL0     C 9565   4.360   8.784   4.836 -1.0848 -0.2435  0.6528
   70MOL0     C 9566   4.326   8.790   4.981 -0.1896 -0.0228 -0.9031
   70MOL0    Cl 9567   4.458   8.837   5.107 -0.0669  0.0029 -0.0401
   70MOL0     C 9568   4.298   9.312   4.314  0.0091  1.0431  0.1604
   70MOL0     C 9569   4.220   9.425   4.297  0.3267  0.5678 -0.8867
   70MOL0     O 9570   4.178   9.716   4.214 -0.1730  0.5774  0.6785
   70MOL0     C 9571   4.201   9.972   4.344 -0.4126 -0.1541  0.0198
   70MOL0     C 9572   4.209  10.101   4.407  0.2869  1.1641 -0.1139
   70MOL0     N 9573   4.265  10.690   4.859 -0.5291 -0.0749  0.1113
   70MOL0     N 9574   4.306  10.796   4.912  0.6395 -0.3564 -0.7321
   70MOL0     C 9575   4.900  10.589   5.889 -0.4319  0.6045  0.6945
   70MOL0     C 9576   5.033  10.590   5.945  0.3961  0.3438 -1.0450
   70MOL0     C 9577   5.486  10.614   5.959 -0.8691 -0.6338  0.4871
   70MOL0     C 9578   5.545  10.515   5.893 -0.9491  0.2359 -0.0164
   70MOL0     C 9579   5.676  10.482   5.921 -0.4559  0.2167  0.6526
   70MOL0     C 9580   5.767  10.572   5.985 -0.5662 -0.3449 -0.0648
   70MOL0     O 9581   5.904  10.576   5.987 -0.5357 -0.6072  0.1178
   70MOL0     C 9582   5.970  10.467   5.913  0.0543 -0.4524 -0.8258
   70MOL0     C 9583   6.124  10.494   5.910  0.0792  0.4302  0.3056
   70MOL0     C 9584   6.152  10.600   5.798  0.3075  0.1180  1.1909
   70MOL0     C 9585   6.149  10.744   5.855  0.9324  0.0167  0.5825
   70MOL0     C 9586   6.199  10.825   5.735  0.1214  0.5955  0.3437
   70MOL0     C 9587   6.226  10.883   5.634  0.0133  0.6376  0.8876
   70MOL0     C 9588   5.706  10.685   6.048 -0.3053 -0.1259  0.4051
   70MOL0     C 9589   5.574  10.701   6.037  1.1249 -0.2268  1.1984
   70MOL0     C 9590   5.503  10.813   6.106  0.0044 -0.6094  0.5288
   70MOL0     H 9591   5.200  10.427   5.703 -0.2936  2.9716 -4.3932
   70MOL0     H 9592   4.971  10.417   5.609 -0.9260  0.0038 -0.0604
   70MOL0     H 9593   4.641  10.661   5.780  0.5505 -0.3951 -0.1716
   70MOL0     H 9594   4.589  10.512   5.849  0.5033  2.6042  1.1770
   70MOL0     H 9595   4.486  10.435   5.653 -0.3480 -0.3088 -0.7459
   70MOL0     H 9596   4.425  10.582   5.695  0.4974  2.0068 -0.1296
   70MOL0     H 9597   4.627  10.563   5.461 -0.4571  0.3967 -0.7606
   70MOL0     H 9598   4.455  10.552   5.452  0.5197 -1.9120 -0.5268
   70MOL0     H 9599   4.439  10.779   5.572 -0.9359 -2.5685 -0.1076
   70MOL0     H 9600   4.616  10.788   5.583  0.1245  1.0783  0.1358
   70MOL0     H 9601   4.615  10.787   5.317 -0.3936  0.7154 -0.1777
   70MOL0     H 9602   4.560  10.930   5.400 -0.0347  0.3636  0.3116
   70MOL0     H 9603   4.410  10.724   5.239 -1.3340 -1.0123  1.2111
   70MOL0     H 9604   4.323  10.806   5.382  0.7117  0.6697  0.5093
   70MOL0     H 9605   4.470  10.912   5.133 -0.5152 -1.6005  0.3790
   70MOL0     H 9606   4.400  11.013   5.270  0.2166  0.2274 -0.4485
   70MOL0     H 9607   4.171  10.905   5.191  0.6946 -1.1818  0.2501
   70MOL0     H 9608   4.246  11.012   5.062 -2.7367  2.0423  1.9656
   70MOL0     H 9609   4.054  10.724   5.107 -0.3392  2.3606 -0.1060
   70MOL0     H 9610   4.002  10.553   4.834 -1.6798 -2.9099  0.2071
   70MOL0     H 9611   4.042  10.449   4.976 -2.5368 -0.1578 -1.0919
   70MOL0     H 9612   4.267  10.403   4.868 -0.6327  0.6790  0.1116
   70MOL0     H 9613   4.120  10.310   4.815  0.2288 -0.7364 -0.5489
   70MOL0     H 9614   4.085  10.477   4.631 -0.0023 -1.6554 -3.8645
   70MOL0     H 9615   4.252  10.517   4.643 -1.8684  0.4200 -4.9140
   70MOL0     H 9616   4.243  10.350   4.489 -0.5187  1.0393 -0.2737
   70MOL0     H 9617   4.290  10.256   4.635 -1.0851 -0.7899  1.3937
   70MOL0     H 9618   3.947  10.042   4.623  0.4942 -2.4333  0.7535
   70MOL0     H 9619   3.929   9.720   4.562  0.7736 -0.0857 -1.5251
   70MOL0     H 9620   3.844   9.788   4.419 -0.7197  3.9396 -0.8411
   70MOL0     H 9621   3.824   9.865   4.572  0.4055 -0.6310 -0.6603
   70MOL0     H 9622   4.169   9.497   4.628 -3.9547 -2.3160 -0.8949
   70MOL0     H 9623   4.298   9.307   4.654 -1.4091 -0.1885 -0.1252
   70MOL0     H 9624   4.571   9.262   4.546  3.5148 -1.6363  1.0591
   70MOL0     H 9625   4.466   9.147   4.631  2.2553 -1.3177  0.5692
   70MOL0     H 9626   4.607   9.004   4.405  0.5219 -0.8408  0.0925
   70MOL0     H 9627   4.724   9.106   4.494 -0.5490  1.5427  0.3624
   70MOL0     H 9628   4.607   8.981   4.702  0.8500  1.2872 -0.0937
   70MOL0     H 9629   4.736   8.915   4.593  0.3399 -1.2996 -2.4564
   70MOL0     H 9630   4.555   8.787   4.475 -0.4845  0.0457  0.3125
   70MOL0     H 9631   4.436   8.883   4.568  1.0332  2.1923 -0.2035
   70MOL0     H 9632   4.455   8.643   4.620 -1.0789 -0.4173  2.6951
   70MOL0     H 9633   4.633   8.664   4.649 -0.4967 -0.7969  2.0857
   70MOL0     H 9634   4.586   8.790   4.853  0.4202  1.1529 -1.7077
   70MOL0     H 9635   4.513   8.634   4.846  1.2241 -0.1166 -0.3897
   70MOL0     H 9636   4.282   8.728   4.783 -1.4102  2.7002 -2.2741
   70MOL0     H 9637   4.356   8.886   4.798 -0.0137  0.5966  2.6713
   70MOL0     H 9638   4.295   8.692   5.019  2.5959  0.1565  2.2808
   70MOL0     H 9639   4.238   8.852   5.001  0.8905  1.3412 -0.1869
   70MOL0     H 9640   4.326   9.258   4.224 -2.2552 -3.2811  1.7759
   70MOL0     H 9641   4.193   9.462   4.199 -2.0720 -0.6105 -0.7526
   70MOL0     H 9642   4.271   9.947   4.265 -0.1033  3.1518 -0.8752
   70MOL0     H 9643   4.282  10.173   4.371  2.6543 -2.0309 -2.2547
   70MOL0     H 9644   4.816  10.640   5.935 -0.4540  2.8454 -1.5896
   70MOL0     H 9645   5.037  10.629   6.047 -3.1815 -1.6625  0.0534
   70MOL0     H 9646   5.484  10.452   5.829 -2.2057 -0.4754  1.8023
   70MOL0     H 9647   5.724  10.410   5.854 -0.0994  1.3091 -0.2905
   70MOL0     H 9648   5.943  10.372   5.961 -3.3115 -0.4330 -2.3489
   70MOL0     H 9649   5.932  10.463   5.810  1.2612  1.5283 -1.3946
   70MOL0     H 9650   6.146  10.389   5.889 -2.0682 -0.0837  0.2984
   70MOL0     H 9651   6.174  10.526   6.001 -2.4159  4.4095  0.5415
   70MOL0     H 9652   6.246  10.589   5.743 -2.2186  3.4168 -4.7239
   70MOL0     H 9653   6.083  10.589   5.713  0.2612 -3.0925  1.5463
   70MOL0     H 9654   6.224  10.749   5.935  0.9109 -1.0758  0.6904
   70MOL0     H 9655   6.056  10.781   5.899  1.3111  0.8301  0.7107
   70MOL0     H 9656   6.242  10.939   5.544 -0.9909 -0.2158  0.1544
   70MOL0     H 9657   5.772  10.750   6.104  0.6628 -0.7641  0.0421
   70MOL0     H 9658   5.412  10.779   6.156  0.1367  1.1409  2.0306
   70MOL0     H 9659   5.567  10.850   6.187  0.5447 -1.2114  0.3870
   70MOL0     H 9660   5.481  10.896   6.038 -3.8515 -0.1080  2.1228
   71MOL0     O 9661   7.269   1.911   0.107  0.4064 -0.1531 -0.1308
   71MOL0     C 9662   7.190   1.843   0.032 -0.3886 -1.3829  0.1090
   71MOL0     O 9663   7.231   1.734  -0.031 -0.1730  1.6449  0.0154
   71MOL0     C 9664   7.355   1.669  -0.025  1.2927 -0.5460 -0.7245
   71MOL0     C 9665   7.372   1.573   0.074  0.3454 -0.1704  0.3709
   71MOL0     C 9666   7.495   1.510   0.085 -0.0706  0.0001  0.0632
   71MOL0     C 9667   7.603   1.540   0.000  0.6420 -0.8469 -0.8651
   71MOL0     O 9668   7.715   1.463   0.019  0.0583 -0.4551 -0.3772
   71MOL0     C 9669   7.834   1.546   0.055 -0.2320 -0.5817 -0.3538
   71MOL0     C 9670   7.961   1.453   0.076 -0.4203  0.8436  1.1690
   71MOL0     C 9671   7.907   1.311   0.120  1.0257  0.4374 -0.2987
   71MOL0     C 9672   8.011   1.245   0.219  0.5937 -0.3123 -0.3093
   71MOL0     C 9673   7.975   1.102   0.261  0.3174 -0.1604 -0.3758
   71MOL0     C 9674   7.973   1.005   0.138  0.3853 -1.0613 -0.6433
   71MOL0     C 9675   7.993   0.861   0.178 -0.3007 -0.1281  0.4570
   71MOL0     C 9676   7.985   0.769   0.057  0.1046 -0.2689 -0.5782
   71MOL0     N 9677   8.043   0.645   0.097  0.1504  0.2020  0.6536
   71MOL0     C 9678   8.183   0.622   0.107  0.2957 -0.0071 -1.2155
   71MOL0     C 9679   8.196   0.504   0.165 -1.2415  0.2559  0.2143
   71MOL0     C 9680   8.325   0.438   0.185  0.0631  0.2889 -0.5884
   71MOL0     C 9681   8.373   0.430   0.339  0.2982 -0.4077  0.2467
   71MOL0     C 9682   8.501   0.348   0.345 -1.4195  0.2005 -0.0568
   71MOL0     C 9683   8.630   0.436   0.309  0.2518  0.6978 -0.7637
   71MOL0     O 9684   8.639   0.546   0.404  0.1849 -0.5247  0.3946
   71MOL0     C 9685   8.732   0.640   0.356 -0.0749 -0.2631 -0.9541
   71MOL0     C 9686   8.740   0.690   0.227  0.1706  0.4050  0.1457
   71MOL0     C 9687   8.844   0.773   0.189  0.2203 -0.7237  0.6442
   71MOL0     C 9688   8.841   0.819   0.052 -0.7327  0.2557  0.5557
   71MOL0     C 9689   8.943   0.817   0.281 -0.2868 -0.2684  0.5247
   71MOL0     C 9690   9.055   0.909   0.249 -0.5796  0.8334 -0.7334
   71MOL0     O 9691   9.157   0.929   0.349 -0.3714 -0.4834 -0.1460
   71MOL0     C 9692   9.267   1.015   0.343  0.5578  0.8278  0.1728
   71MOL0     C 9693   9.392   0.958   0.369  0.3792 -0.0707  0.9637
   71MOL0     C 9694   9.499   1.045   0.382  0.3528  0.5618 -0.2692
   71MOL0     C 9695   9.490   1.184   0.358 -0.0429 -0.5621 -0.6540
   71MOL0     O 9696   9.604   1.253   0.389 -0.5536  0.5446  0.4622
   71MOL0     C 9697   9.646   1.348   0.296 -0.1406  0.4598 -1.1467
   71MOL0     C 9698   9.706   1.285   0.156  0.8259 -0.0683  0.0026
   71MOL0     C 9699   9.773   1.394   0.069 -0.3065 -1.3881  0.3231
   71MOL0     C 9700   9.916   1.441   0.130  0.8419  0.7310 -0.7770
   71MOL0     C 9701  10.015   1.475   0.023 -0.4793  0.5928 -0.4191
   71MOL0     C 9702  10.061   1.354  -0.067 -0.1559  0.1613  0.4925
   71MOL0     C 9703  10.155   1.394  -0.180  0.0329 -0.6100  0.4909
   71MOL0     C 9704  10.274   1.484  -0.142  0.0040  0.3442 -0.3123
   71MOL0    Cl 9705  10.399   1.483  -0.257 -0.1605 -0.1827 -0.2828
   71MOL0     C 9706   9.370   1.243   0.314 -0.3359 -0.2273  0.1233
   71MOL0     C 9707   9.257   1.152   0.313 -0.5176  0.2276 -1.1161
   71MOL0     O 9708   9.064   0.962   0.137  0.9158 -0.1373  0.1024
   71MOL0     C 9709   8.933   0.775   0.413  0.2991 -0.0413 -0.6258
   71MOL0     C 9710   8.841   0.677   0.442  1.3886 -0.0909 -0.8760
   71MOL0     N 9711   8.074   0.450   0.190 -0.4739 -0.0939 -1.9165
   71MOL0     N 9712   7.976   0.535   0.158  0.2767 -0.6914  0.3419
   71MOL0     C 9713   7.587   1.644  -0.096 -0.1394  0.5811 -0.2208
   71MOL0     C 9714   7.464   1.708  -0.117  0.1902 -0.2999 -0.6276
   71MOL0     C 9715   7.064   1.896  -0.012 -0.0412  1.0906  0.5288
   71MOL0     C 9716   6.991   1.831  -0.121  0.0476  0.3219 -0.9391
   71MOL0     C 9717   6.880   1.878  -0.178  1.2048 -0.0585 -0.6399
   71MOL0     C 9718   6.823   1.999  -0.126  0.2225 -0.3776  0.2287
   71MOL0     O 9719   6.721   2.058  -0.201  0.5245  0.7155  0.3432
   71MOL0     C 9720   6.630   2.146  -0.135 -0.5171 -0.1367 -0.6803
   71MOL0     C 9721   6.511   2.172  -0.228  0.2498 -0.1828  1.0590
   71MOL0     C 9722   6.539   2.190  -0.382  0.4687 -0.6993  0.1218
   71MOL0     C 9723   6.416   2.262  -0.437  0.1887 -0.4176  0.2361
   71MOL0     C 9724   6.429   2.250  -0.585 -0.2958 -0.5076 -0.2773
   71MOL0     C 9725   6.423   2.224  -0.703  0.8605 -0.5435 -0.5306
   71MOL0     C 9726   6.887   2.062  -0.018  0.3235 -0.2499 -0.1647
   71MOL0     C 9727   6.999   2.010   0.044 -0.5650  0.6519  0.3766
   71MOL0     C 9728   7.054   2.092   0.165  0.7854 -0.2951 -0.2664
   71MOL0     H 9729   7.283   1.551   0.132 -1.2858 -4.5800 -3.1084
   71MOL0     H 9730   7.521   1.435   0.159  1.8117  0.5966  0.0664
   71MOL0     H 9731   7.815   1.586   0.155  2.5111 -0.6077  0.2728
   71MOL0     H 9732   7.856   1.623  -0.019  0.3809  2.1827  2.4754
   71MOL0     H 9733   8.014   1.440  -0.020 -2.4776  2.0121 -0.2005
   71MOL0     H 9734   8.042   1.505   0.128  1.7686  0.2271 -1.3696
   71MOL0     H 9735   7.811   1.319   0.171 -0.2140 -3.1821 -1.7636
   71MOL0     H 9736   7.887   1.238   0.041  0.3949 -1.3640  1.4478
   71MOL0     H 9737   8.107   1.249   0.166  0.6220  0.1432 -0.2281
   71MOL0     H 9738   8.022   1.306   0.309  2.4999 -1.7585  0.5109
   71MOL0     H 9739   7.883   1.088   0.318 -0.2318  0.4771 -1.0862
   71MOL0     H 9740   8.056   1.058   0.321 -0.1895 -1.8588 -0.8788
   71MOL0     H 9741   7.877   1.024   0.089  2.9367  3.7083 -4.6776
   71MOL0     H 9742   8.051   1.033   0.067  0.7278  2.0905  0.7939
   71MOL0     H 9743   7.928   0.829   0.260 -2.2161  0.2900 -0.8282
   71MOL0     H 9744   8.095   0.845   0.213 -0.6465 -3.4300  0.2557
   71MOL0     H 9745   7.880   0.749   0.031  0.1696 -0.5169 -0.6512
   71MOL0     H 9746   8.040   0.811  -0.028  2.2600 -0.5014  0.6293
   71MOL0     H 9747   8.260   0.688   0.068  3.1653 -3.0590 -1.1191
   71MOL0     H 9748   8.405   0.482   0.125  0.4230  0.9412  0.3560
   71MOL0     H 9749   8.325   0.335   0.148  4.2525 -0.9024  1.9748
   71MOL0     H 9750   8.382   0.527   0.389  2.9023  0.0655 -0.9328
   71MOL0     H 9751   8.296   0.370   0.389  0.7387  1.4691  3.4352
   71MOL0     H 9752   8.515   0.316   0.448 -3.9229 -0.9863  0.0045
   71MOL0     H 9753   8.494   0.266   0.272 -0.9403 -0.1964  0.3404
   71MOL0     H 9754   8.724   0.381   0.321 -1.2464 -1.6644  1.2651
   71MOL0     H 9755   8.632   0.466   0.204  2.8775  0.6205 -0.8078
   71MOL0     H 9756   8.675   0.656   0.147  0.6177 -2.4682  0.9097
   71MOL0     H 9757   8.745   0.798   0.004  0.1998  1.1392 -1.8488
   71MOL0     H 9758   8.924   0.785  -0.010 -0.4106 -1.7174  1.9730
   71MOL0     H 9759   8.847   0.928   0.048  0.7881  0.2065 -3.4879
   71MOL0     H 9760   9.395   0.850   0.385  1.8883 -0.6038 -2.1743
   71MOL0     H 9761   9.599   1.011   0.407 -0.1952 -1.3784 -0.5877
   71MOL0     H 9762   9.559   1.407   0.267 -2.6283 -3.3480 -2.1215
   71MOL0     H 9763   9.726   1.410   0.338  1.2345  0.2388 -3.2368
   71MOL0     H 9764   9.774   1.202   0.177 -0.2170 -0.5176  1.7944
   71MOL0     H 9765   9.638   1.234   0.088 -0.1102  1.0794  0.0513
   71MOL0     H 9766   9.695   1.468   0.050 -0.1431 -1.1755  0.4711
   71MOL0     H 9767   9.787   1.356  -0.032 -4.7268  1.6614 -1.7318
   71MOL0     H 9768   9.947   1.357   0.193  2.2017  1.0598 -0.9696
   71MOL0     H 9769   9.896   1.527   0.195  3.6083  2.9873 -2.6564
   71MOL0     H 9770   9.972   1.540  -0.054 -0.5215  2.6347  1.2240
   71MOL0     H 9771  10.102   1.516   0.075 -1.8442  0.2007  2.3125
   71MOL0     H 9772   9.975   1.306  -0.115  0.5623 -0.2798 -0.4133
   71MOL0     H 9773  10.115   1.281  -0.005 -0.7254 -0.8064 -0.1139
   71MOL0     H 9774  10.096   1.443  -0.258  1.5943  0.3702 -0.1027
   71MOL0     H 9775  10.205   1.314  -0.235  0.2624 -0.1541  0.0281
   71MOL0     H 9776  10.310   1.448  -0.045  0.3020  2.1758  0.3085
   71MOL0     H 9777  10.239   1.587  -0.127  0.7418  0.5420  0.0903
   71MOL0     H 9778   9.367   1.350   0.299  0.7878  0.1942  2.4190
   71MOL0     H 9779   9.156   1.182   0.286 -1.1085  0.2906  1.0027
   71MOL0     H 9780   9.011   0.794   0.485  1.4025 -5.1009 -0.0983
   71MOL0     H 9781   8.816   0.648   0.544  1.0583 -0.9349 -1.1926
   71MOL0     H 9782   7.679   1.670  -0.148  0.6596  0.6167  1.1639
   71MOL0     H 9783   7.449   1.793  -0.183 -3.7892  2.4733  3.2909
   71MOL0     H 9784   7.023   1.734  -0.157 -0.9318 -0.7133  0.7921
   71MOL0     H 9785   6.834   1.821  -0.258  1.8414 -0.7177 -0.5449
   71MOL0     H 9786   6.589   2.106  -0.042  2.3508 -0.0602  0.7213
   71MOL0     H 9787   6.678   2.240  -0.107 -1.4757  0.2063 -0.1396
   71MOL0     H 9788   6.448   2.255  -0.195  0.8526  1.3513 -1.4430
   71MOL0     H 9789   6.453   2.079  -0.227  0.0893 -0.2581 -2.8939
   71MOL0     H 9790   6.622   2.261  -0.393 -1.8983  2.2085 -0.1821
   71MOL0     H 9791   6.544   2.092  -0.430  1.1602  0.8624 -3.3208
   71MOL0     H 9792   6.404   2.368  -0.414 -0.9596 -0.8177  1.6167
   71MOL0     H 9793   6.326   2.213  -0.398  0.2119 -1.2859 -0.7264
   71MOL0     H 9794   6.448   2.199  -0.803  0.9103  0.9378 -0.9112
   71MOL0     H 9795   6.841   2.152   0.021  1.0997  1.7435 -3.4695
   71MOL0     H 9796   7.059   2.031   0.255 -0.3208  0.6734  0.4876
   71MOL0     H 9797   7.151   2.138   0.145  2.2045 -3.1420 -0.4499
   71MOL0     H 9798   6.982   2.169   0.197 -1.1061 -1.4845 -1.4780
   72MOL0     O 9799   1.525   6.376   7.481  0.0060 -0.1982 -0.6431
   72MOL0     C 9800   1.510   6.291   7.574  0.6425  0.5562  0.5794
   72MOL0     O 9801   1.529   6.311   7.708  0.0184 -0.6557 -0.9010
   72MOL0     C 9802   1.505   6.430   7.779 -0.2496  0.7551  1.1363
   72MOL0     C 9803   1.607   6.466   7.867  1.2455  0.5211  0.1877
   72MOL0     C 9804   1.593   6.575   7.943  0.7605 -1.0651  1.3044
   72MOL0     C 9805   1.481   6.657   7.918 -0.0669  0.0508 -1.0267
   72MOL0     O 9806   1.466   6.765   7.994 -0.1885  0.5746  0.2983
   72MOL0     C 9807   1.342   6.804   8.049 -0.6610 -0.0852 -0.2669
   72MOL0     C 9808   1.366   6.847   8.189 -0.2449  0.3146 -0.2484
   72MOL0     C 9809   1.391   6.713   8.268 -0.5639  1.2790 -0.6602
   72MOL0     C 9810   1.346   6.738   8.407 -0.7292 -0.2405 -0.3161
   72MOL0     C 9811   1.403   6.629   8.503 -0.5104  0.6293 -0.6520
   72MOL0     C 9812   1.367   6.643   8.655 -0.1032  0.1759  0.6917
   72MOL0     C 9813   1.440   6.565   8.762 -0.2430  0.6098  0.3087
   72MOL0     C 9814   1.586   6.618   8.773  0.1651 -0.4924 -0.6688
   72MOL0     N 9815   1.669   6.541   8.861  0.2560  1.2098 -0.0435
   72MOL0     C 9816   1.733   6.589   8.971 -0.1020  0.1477 -0.0002
   72MOL0     C 9817   1.798   6.482   9.025  0.5505 -0.3119  0.2886
   72MOL0     C 9818   1.874   6.494   9.152 -0.3054  0.3714  0.3496
   72MOL0     C 9819   1.997   6.590   9.133 -0.1907 -0.5997 -0.0970
   72MOL0     C 9820   2.045   6.608   9.277  0.0921 -0.7380 -0.3332
   72MOL0     C 9821   2.159   6.711   9.275  0.2280  0.2627  0.9099
   72MOL0     O 9822   2.267   6.670   9.189  0.0407 -0.4434  0.1697
   72MOL0     C 9823   2.391   6.725   9.210 -0.2209  0.1513  0.3115
   72MOL0     C 9824   2.423   6.861   9.254 -0.2444  0.1719  0.2190
   72MOL0     C 9825   2.553   6.911   9.247  0.4241 -0.0511  0.6669
   72MOL0     C 9826   2.582   7.056   9.282 -0.0474 -0.6496 -0.4405
   72MOL0     C 9827   2.661   6.821   9.221 -0.2625  0.6079  0.4164
   72MOL0     C 9828   2.803   6.863   9.228 -0.4817  0.9038 -0.6978
   72MOL0     O 9829   2.890   6.763   9.257 -0.2296  0.7879 -0.0120
   72MOL0     C 9830   3.023   6.770   9.273 -1.2188 -0.1472  0.3728
   72MOL0     C 9831   3.112   6.884   9.288  0.4227  0.6911 -0.0868
   72MOL0     C 9832   3.249   6.864   9.309 -0.2932 -0.1798  0.9211
   72MOL0     C 9833   3.298   6.732   9.313 -0.0774  0.5796  0.1588
   72MOL0     O 9834   3.427   6.697   9.334 -0.4876  0.0809 -0.3777
   72MOL0     C 9835   3.526   6.736   9.232  0.0557 -0.3137 -0.2029
   72MOL0     C 9836   3.649   6.650   9.269 -0.2612 -0.2542  0.1848
   72MOL0     C 9837   3.628   6.501   9.238 -1.1745 -0.3696  0.0360
   72MOL0     C 9838   3.599   6.460   9.096 -0.7208 -0.5504 -0.0903
   72MOL0     C 9839   3.707   6.495   8.996 -0.1845 -0.2829 -0.0268
   72MOL0     C 9840   3.661   6.476   8.852  0.2241 -0.5483  0.4733
   72MOL0     C 9841   3.773   6.503   8.751 -0.0137 -0.4837  0.4042
   72MOL0     C 9842   3.748   6.428   8.624  0.6228 -0.4474 -0.8696
   72MOL0    Cl 9843   3.896   6.456   8.522 -0.0040 -0.0008  0.2973
   72MOL0     C 9844   3.216   6.622   9.290  0.1508 -0.3927  0.1138
   72MOL0     C 9845   3.082   6.642   9.271  0.8714 -0.2751  0.2589
   72MOL0     O 9846   2.831   6.982   9.196 -0.5190  0.0060  0.5349
   72MOL0     C 9847   2.629   6.687   9.196 -0.1780  0.4226  0.1354
   72MOL0     C 9848   2.504   6.640   9.181  0.8664 -0.6434 -0.4260
   72MOL0     N 9849   1.768   6.372   8.953 -0.3645  0.5204  0.4770
   72MOL0     N 9850   1.687   6.400   8.855 -0.6796 -0.0197 -1.0962
   72MOL0     C 9851   1.390   6.617   7.821  0.2704  0.2562  0.4912
   72MOL0     C 9852   1.399   6.506   7.744 -0.2150 -0.5433 -1.0107
   72MOL0     C 9853   1.448   6.163   7.537 -0.2086  0.2819 -0.4581
   72MOL0     C 9854   1.358   6.099   7.622 -0.3702 -0.7707  0.1301
   72MOL0     C 9855   1.297   5.980   7.584  0.8172  0.2474 -0.2231
   72MOL0     C 9856   1.311   5.923   7.454  0.5289 -0.2842 -0.4699
   72MOL0     O 9857   1.228   5.826   7.406  0.0957  0.3002  0.3086
   72MOL0     C 9858   1.298   5.704   7.396  0.5135 -0.0666  0.8422
   72MOL0     C 9859   1.208   5.600   7.332  0.5416 -0.2659  0.9132
   72MOL0     C 9860   1.277   5.480   7.257  0.2041  0.0265 -0.0833
   72MOL0     C 9861   1.313   5.371   7.361 -0.3752 -0.5414  0.4927
   72MOL0     C 9862   1.385   5.256   7.305 -0.6744  1.7355  0.2860
   72MOL0     C 9863   1.423   5.150   7.258 -0.5558 -0.3600  0.0086
   72MOL0     C 9864   1.404   5.997   7.372 -0.2825  0.3329 -0.0673
   72MOL0     C 9865   1.478   6.101   7.411  0.3021  0.6871 -0.8017
   72MOL0     C 9866   1.582   6.149   7.326 -0.8059 -0.7001 -0.4665
   72MOL0     H 9867   1.693   6.400   7.874  0.9633 -0.0826 -1.4955
   72MOL0     H 9868   1.668   6.593   8.020  0.1637 -1.6411  2.0320
   72MOL0     H 9869   1.266   6.727   8.031 -2.8851  2.0803 -0.7478
   72MOL0     H 9870   1.291   6.878   7.987 -0.5002 -0.6146 -1.0415
   72MOL0     H 9871   1.449   6.917   8.203 -1.1273  1.0738  1.5119
   72MOL0     H 9872   1.289   6.907   8.237  0.2597  1.0637 -0.3598
   72MOL0     H 9873   1.342   6.624   8.226 -0.0143  0.3793  0.5325
   72MOL0     H 9874   1.496   6.683   8.268 -0.2485  1.9982  2.8304
   72MOL0     H 9875   1.389   6.836   8.430  2.3799 -1.5091 -0.1537
   72MOL0     H 9876   1.237   6.745   8.402 -0.6713  1.8643  0.5433
   72MOL0     H 9877   1.512   6.630   8.495 -0.5298  2.2232 -0.9556
   72MOL0     H 9878   1.384   6.528   8.466 -3.2542  0.4657  0.9435
   72MOL0     H 9879   1.372   6.746   8.692  2.1682 -1.1560  4.7982
   72MOL0     H 9880   1.263   6.609   8.654 -0.0214 -0.5558 -3.8842
   72MOL0     H 9881   1.463   6.466   8.723  2.9131  0.9346  1.0221
   72MOL0     H 9882   1.395   6.568   8.861  2.1511  3.4962  1.4627
   72MOL0     H 9883   1.636   6.622   8.675 -0.4031  0.9693 -0.9263
   72MOL0     H 9884   1.600   6.718   8.814 -3.0766 -0.3037  0.2344
   72MOL0     H 9885   1.726   6.690   9.010 -3.1157  0.3004 -0.7163
   72MOL0     H 9886   1.910   6.394   9.178  1.3016  0.5679 -0.9301
   72MOL0     H 9887   1.799   6.533   9.222 -0.1933  1.2492 -0.0017
   72MOL0     H 9888   2.061   6.531   9.067 -3.2868 -0.6805 -3.3546
   72MOL0     H 9889   1.966   6.684   9.088 -0.5675 -1.1098 -0.9293
   72MOL0     H 9890   1.961   6.645   9.336 -0.1466 -0.1326 -1.0419
   72MOL0     H 9891   2.079   6.513   9.321 -2.2026 -0.4751  2.3216
   72MOL0     H 9892   2.121   6.807   9.240  0.2540  0.4096  1.2849
   72MOL0     H 9893   2.193   6.723   9.378  1.3789 -0.3541  0.6135
   72MOL0     H 9894   2.344   6.930   9.280  1.4860  2.8127 -1.0347
   72MOL0     H 9895   2.645   7.052   9.371 -1.9740 -1.0660  0.9769
   72MOL0     H 9896   2.489   7.107   9.306  0.5629  2.3236 -3.6029
   72MOL0     H 9897   2.623   7.115   9.199  2.1575  0.1577  1.1298
   72MOL0     H 9898   3.077   6.987   9.288  2.1415  1.3861  2.3008
   72MOL0     H 9899   3.311   6.953   9.324  3.8998 -2.7439  0.4935
   72MOL0     H 9900   3.483   6.719   9.133 -1.7906  1.0619  0.2918
   72MOL0     H 9901   3.551   6.841   9.250 -3.0963  0.3554  1.0649
   72MOL0     H 9902   3.742   6.686   9.224  0.9117 -1.0175  1.8989
   72MOL0     H 9903   3.668   6.662   9.376 -0.3020  2.3773 -0.0538
   72MOL0     H 9904   3.542   6.462   9.293 -0.1594 -4.2879 -0.8432
   72MOL0     H 9905   3.722   6.451   9.265  0.0082  0.8355 -1.6075
   72MOL0     H 9906   3.502   6.497   9.062 -1.2638 -0.6399  1.3174
   72MOL0     H 9907   3.602   6.351   9.094 -0.6142 -0.5374 -1.1120
   72MOL0     H 9908   3.736   6.600   9.005  2.0222 -0.6395 -1.9199
   72MOL0     H 9909   3.791   6.430   9.024  0.1244  1.5539  3.9825
   72MOL0     H 9910   3.569   6.531   8.830 -1.8022 -3.0627  1.9489
   72MOL0     H 9911   3.629   6.373   8.832 -1.8703  0.5759 -2.7665
   72MOL0     H 9912   3.872   6.472   8.787  2.2630  1.9428 -2.9774
   72MOL0     H 9913   3.780   6.610   8.726 -0.1652 -0.4327  0.5838
   72MOL0     H 9914   3.656   6.462   8.575  0.2141 -1.4430 -0.7974
   72MOL0     H 9915   3.754   6.321   8.644  2.8096 -0.0693  0.8652
   72MOL0     H 9916   3.260   6.523   9.278  0.2302 -0.5956  1.7793
   72MOL0     H 9917   3.011   6.562   9.255 -1.2460  1.3380  1.0074
   72MOL0     H 9918   2.705   6.615   9.169 -1.3422 -0.6410 -0.3622
   72MOL0     H 9919   2.487   6.534   9.162 -0.7117 -0.2407 -1.4942
   72MOL0     H 9920   1.294   6.667   7.811 -0.9994 -1.9268  1.0748
   72MOL0     H 9921   1.329   6.485   7.664 -0.8438 -1.8199 -0.1572
   72MOL0     H 9922   1.330   6.147   7.715 -2.4498  0.9397 -1.3046
   72MOL0     H 9923   1.222   5.941   7.652  1.7085  0.4999  0.9391
   72MOL0     H 9924   1.381   5.718   7.326  0.1119 -0.9328  0.1639
   72MOL0     H 9925   1.338   5.675   7.493 -1.4059  1.4094  2.1551
   72MOL0     H 9926   1.152   5.657   7.257  0.7947  3.6681  3.4183
   72MOL0     H 9927   1.143   5.564   7.412 -1.1201  1.9451  0.6574
   72MOL0     H 9928   1.207   5.442   7.183  1.7971 -2.6232 -0.3958
   72MOL0     H 9929   1.370   5.516   7.212  0.7146 -0.2764  0.7002
   72MOL0     H 9930   1.224   5.330   7.412 -1.9954  0.5083 -1.3590
   72MOL0     H 9931   1.381   5.415   7.434 -0.0530  1.8590 -1.1420
   72MOL0     H 9932   1.477   5.059   7.242  0.1164 -0.8252  4.0110
   72MOL0     H 9933   1.401   5.963   7.269 -0.8698 -1.3280  0.4681
   72MOL0     H 9934   1.656   6.196   7.390 -2.2990  2.2045 -0.7236
   72MOL0     H 9935   1.621   6.065   7.268 -1.3595 -1.1796 -0.1584
   72MOL0     H 9936   1.540   6.227   7.261 -1.5634 -0.3647  0.4073
   73MOL0     O 9937   6.829   7.950   2.105 -0.9754 -1.2833  0.0777
   73MOL0     C 9938   6.915   7.870   2.137  0.0405  0.0783  0.5171
   73MOL0     O 9939   7.048   7.893   2.139 -0.2934 -0.1811 -0.1848
   73MOL0     C 9940   7.098   8.020   2.144  0.8391  0.3240  0.5260
   73MOL0     C 9941   7.134   8.086   2.019  0.3566  0.3796 -0.0926
   73MOL0     C 9942   7.174   8.216   2.025  0.2962  0.1556  0.2870
   73MOL0     C 9943   7.166   8.293   2.145 -0.2715 -0.1110 -0.0201
   73MOL0     O 9944   7.195   8.431   2.150  0.0989  0.5111  0.3703
   73MOL0     C 9945   7.303   8.464   2.064  0.7161 -0.1232 -0.1466
   73MOL0     C 9946   7.338   8.608   2.106 -0.9021  0.4903 -0.7566
   73MOL0     C 9947   7.375   8.620   2.252 -0.8846  0.7073  0.2177
   73MOL0     C 9948   7.429   8.762   2.291  0.5410 -0.0824  0.9228
   73MOL0     C 9949   7.440   8.778   2.448  0.2514  0.1073 -1.0123
   73MOL0     C 9950   7.476   8.918   2.492  0.5041 -0.0304  0.2646
   73MOL0     C 9951   7.496   8.913   2.644 -0.2387  0.5987  0.4217
   73MOL0     C 9952   7.466   9.041   2.704  0.2860 -0.0794 -0.3274
   73MOL0     N 9953   7.597   9.116   2.701  0.2332 -0.4967 -0.7246
   73MOL0     C 9954   7.679   9.157   2.595 -0.0604  0.4066  0.7343
   73MOL0     C 9955   7.792   9.196   2.644 -0.9794 -0.3665 -0.1924
   73MOL0     C 9956   7.910   9.231   2.560 -0.4279  0.0769  0.1245
   73MOL0     C 9957   7.883   9.367   2.494 -0.2618  0.4980  0.4354
   73MOL0     C 9958   7.899   9.479   2.599  0.9298 -1.0662  0.7630
   73MOL0     C 9959   7.916   9.613   2.525 -0.9488 -0.4185  0.8630
   73MOL0     O 9960   7.801   9.662   2.474  0.5358 -0.4705  0.8852
   73MOL0     C 9961   7.798   9.735   2.366 -0.0416 -0.9903  0.3324
   73MOL0     C 9962   7.667   9.765   2.316  0.3756 -0.3232 -0.0431
   73MOL0     C 9963   7.634   9.856   2.212  0.2210 -0.0424  0.4455
   73MOL0     C 9964   7.488   9.869   2.184 -0.8782  0.7305 -0.4443
   73MOL0     C 9965   7.744   9.907   2.136 -0.4676 -0.0479 -0.8033
   73MOL0     C 9966   7.728  10.007   2.027  0.0961 -0.1955 -0.9421
   73MOL0     O 9967   7.628   9.963   1.945  0.1309  0.0777  0.4528
   73MOL0     C 9968   7.563  10.048   1.857  0.2654 -0.6156  0.3927
   73MOL0     C 9969   7.538  10.010   1.726 -0.1734  0.0669  0.0105
   73MOL0     C 9970   7.482  10.103   1.638 -0.3513  0.2783 -0.7727
   73MOL0     C 9971   7.454  10.236   1.672 -0.4435 -0.6816 -0.6241
   73MOL0     O 9972   7.427  10.329   1.562 -0.1795 -0.3203 -0.0079
   73MOL0     C 9973   7.484  10.460   1.577 -0.7415 -0.6090 -0.2880
   73MOL0     C 9974   7.441  10.562   1.472 -0.6736 -0.6253 -1.0584
   73MOL0     C 9975   7.499  10.512   1.334 -0.1830 -0.9645 -0.2622
   73MOL0     C 9976   7.466  10.618   1.223 -0.2973  0.9504 -0.4927
   73MOL0     C 9977   7.456  10.533   1.094  0.3099 -0.1516  0.6085
   73MOL0     C 9978   7.451  10.616   0.968 -0.0248  0.8462 -0.0337
   73MOL0     C 9979   7.320  10.702   0.960  0.2061  1.1516  0.9416
   73MOL0     C 9980   7.187  10.631   0.992 -0.4154  0.3587  0.7049
   73MOL0    Cl 9981   7.053  10.753   0.985 -0.6786  0.2754 -0.4403
   73MOL0     C 9982   7.477  10.271   1.803  0.3012 -0.0685 -0.5736
   73MOL0     C 9983   7.524  10.175   1.897  0.2269 -0.6219  0.4400
   73MOL0     O 9984   7.800  10.105   2.008 -0.8892  0.0616  0.6480
   73MOL0     C 9985   7.871   9.886   2.190 -0.1493 -0.5792 -0.3706
   73MOL0     C 9986   7.906   9.803   2.296 -0.5247  0.8756  0.0475
   73MOL0     N 9987   7.775   9.205   2.784  0.6308  0.1239 -0.5079
   73MOL0     N 9988   7.662   9.148   2.817 -0.7406 -0.1953 -1.2174
   73MOL0     C 9989   7.140   8.226   2.266  1.3194 -0.4823 -0.2157
   73MOL0     C 9990   7.092   8.097   2.261  0.0707  0.0511  0.4755
   73MOL0     C 9991   6.872   7.726   2.148 -1.3448  0.1869  0.3717
   73MOL0     C 9992   6.967   7.642   2.195 -0.7096  0.8024 -0.4916
   73MOL0     C 9993   6.951   7.507   2.202  0.4196  0.5313  0.1646
   73MOL0     C 9994   6.826   7.444   2.177 -0.4070 -0.3561 -0.2872
   73MOL0     O 9995   6.804   7.308   2.194  0.1718 -0.6191  0.0074
   73MOL0     C 9996   6.688   7.235   2.157  0.4175  0.1770 -0.2639
   73MOL0     C 9997   6.575   7.255   2.266  0.4090 -0.2351  0.2343
   73MOL0     C 9998   6.443   7.190   2.216 -0.3480 -0.3066 -0.3217
   73MOL0     C 9999   6.325   7.172   2.313 -0.4276  0.7498 -0.4341
   73MOL0     C10000   6.261   7.302   2.352  0.0201 -1.2157  0.2255
   73MOL0     C10001   6.205   7.412   2.377 -0.6837  0.7638 -0.2422
   73MOL0     C10002   6.728   7.527   2.134 -0.0987 -0.4443 -0.3651
   73MOL0     C10003   6.751   7.661   2.118  0.9812 -0.3683  1.0107
   73MOL0     C10004   6.640   7.731   2.057  0.5005 -0.6589  0.2373
   73MOL0     H10005   7.133   8.040   1.921  0.0615  2.9290 -1.3565
   73MOL0     H10006   7.197   8.272   1.935  0.9274 -0.6454 -0.0580
   73MOL0     H10007   7.264   8.462   1.962 -3.7449 -4.1213  1.2543
   73MOL0     H10008   7.391   8.404   2.087  1.1537  0.8030  0.6611
   73MOL0     H10009   7.419   8.655   2.050 -0.6022  0.8466 -0.0432
   73MOL0     H10010   7.252   8.671   2.080 -0.6257  0.7367 -1.0752
   73MOL0     H10011   7.291   8.582   2.312 -0.9529 -0.3886 -0.5510
   73MOL0     H10012   7.454   8.547   2.272 -0.0360  0.7933 -2.5467
   73MOL0     H10013   7.518   8.792   2.235 -0.0536 -2.4355 -1.5211
   73MOL0     H10014   7.359   8.835   2.248  0.8137  0.0368  0.6777
   73MOL0     H10015   7.529   8.718   2.470  0.7696  0.4131 -2.2163
   73MOL0     H10016   7.349   8.741   2.496  1.0492 -0.6085 -0.0225
   73MOL0     H10017   7.569   8.952   2.444  0.9626  0.3060  1.3729
   73MOL0     H10018   7.401   8.992   2.462  0.2888 -1.5979 -3.6717
   73MOL0     H10019   7.598   8.889   2.675  0.9352  3.7222 -0.5907
   73MOL0     H10020   7.426   8.841   2.686  0.1569 -3.6504 -5.1961
   73MOL0     H10021   7.382   9.092   2.656  0.5290  0.9894  0.3315
   73MOL0     H10022   7.430   9.020   2.805 -1.3042  1.0600 -0.6055
   73MOL0     H10023   7.658   9.140   2.489  1.9720 -2.8649  0.7225
   73MOL0     H10024   7.926   9.159   2.479 -2.8793  0.2235 -0.5740
   73MOL0     H10025   8.003   9.241   2.616  0.8396  1.1274 -2.0411
   73MOL0     H10026   7.957   9.378   2.415  3.4034 -4.1244  2.7558
   73MOL0     H10027   7.785   9.349   2.449  1.0586 -3.2288 -1.3322
   73MOL0     H10028   7.816   9.478   2.670  0.1945 -1.4024 -0.0899
   73MOL0     H10029   7.991   9.457   2.654  0.6855 -0.6141  1.3753
   73MOL0     H10030   7.965   9.687   2.589 -3.6242  1.8936  0.4211
   73MOL0     H10031   7.989   9.617   2.443 -2.0371  0.8794 -0.0849
   73MOL0     H10032   7.585   9.718   2.369 -0.0020 -0.7333 -0.9815
   73MOL0     H10033   7.467   9.778   2.127  0.8629  0.2983 -0.4517
   73MOL0     H10034   7.467   9.961   2.127 -0.9434  1.1304  0.2190
   73MOL0     H10035   7.434   9.873   2.279 -3.2881  0.0461 -1.6834
   73MOL0     H10036   7.571   9.915   1.685 -0.9937 -2.1897  4.0208
   73MOL0     H10037   7.475  10.060   1.538 -0.5376 -0.3350 -0.4971
   73MOL0     H10038   7.446  10.509   1.667  0.2783 -0.4680  0.0741
   73MOL0     H10039   7.593  10.461   1.575 -0.7126  2.0611 -0.4082
   73MOL0     H10040   7.332  10.559   1.479 -0.6257  0.0900  0.4475
   73MOL0     H10041   7.471  10.661   1.509  0.7838 -1.5192  0.2544
   73MOL0     H10042   7.438  10.422   1.324 -2.3262  0.3895  0.0114
   73MOL0     H10043   7.605  10.484   1.341  0.3159  0.3982 -1.6338
   73MOL0     H10044   7.550  10.688   1.215  0.2476  0.9379  3.3954
   73MOL0     H10045   7.371  10.669   1.239  0.2981  2.7997 -2.3284
   73MOL0     H10046   7.536  10.458   1.090  1.2616  0.8897 -0.4920
   73MOL0     H10047   7.362  10.477   1.104  1.2610 -1.7466  0.9623
   73MOL0     H10048   7.456  10.550   0.881  1.4416 -0.3385  0.9083
   73MOL0     H10049   7.535  10.686   0.960 -0.9893  2.6736  3.5817
   73MOL0     H10050   7.327  10.751   0.863  0.9000 -1.0156 -0.1869
   73MOL0     H10051   7.335  10.786   1.028  1.4274  1.1398  0.7208
   73MOL0     H10052   7.185  10.580   1.089  0.7949 -0.5559  0.2833
   73MOL0     H10053   7.157  10.555   0.921 -1.6160  2.1113 -0.7542
   73MOL0     H10054   7.454  10.370   1.839 -2.1521 -0.4675 -0.8639
   73MOL0     H10055   7.556  10.222   1.989 -2.4244  1.8974  0.1825
   73MOL0     H10056   7.954   9.935   2.140 -2.1759  1.2580 -2.1445
   73MOL0     H10057   8.008   9.799   2.333  0.1021  1.9821 -1.4484
   73MOL0     H10058   7.129   8.277   2.361  1.9893  2.4305 -1.6082
   73MOL0     H10059   7.050   8.036   2.341 -0.4403  1.4837  1.3365
   73MOL0     H10060   7.063   7.688   2.217  0.4855 -0.9653 -1.6892
   73MOL0     H10061   7.032   7.435   2.206  0.0095 -0.2284 -2.5877
   73MOL0     H10062   6.654   7.270   2.059 -1.4417 -0.1024  0.2413
   73MOL0     H10063   6.703   7.128   2.140 -1.5274 -0.0410 -0.8261
   73MOL0     H10064   6.563   7.362   2.286  3.2842  0.3466 -0.6595
   73MOL0     H10065   6.598   7.208   2.362 -0.3851  2.3107  1.7603
   73MOL0     H10066   6.411   7.249   2.130 -0.5630 -1.0893 -0.7893
   73MOL0     H10067   6.458   7.093   2.168 -0.5944  0.6991 -2.5472
   73MOL0     H10068   6.358   7.111   2.397  1.2529 -1.3813 -2.4727
   73MOL0     H10069   6.245   7.115   2.264 -1.9860  0.3152  2.4377
   73MOL0     H10070   6.157   7.507   2.388 -1.9833  0.0811  0.2567
   73MOL0     H10071   6.628   7.489   2.115 -0.0943 -1.1005  0.8252
   73MOL0     H10072   6.666   7.765   1.957  0.0567 -0.6855  0.1116
   73MOL0     H10073   6.547   7.673   2.049  0.7330 -0.8699 -1.1290
   73MOL0     H10074   6.616   7.821   2.116  1.2924  1.1476 -2.0456
   74MOL0     O10075   4.663   0.736   4.161 -0.9107 -0.0656  0.2414
   74MOL0     C10076   4.776   0.695   4.188  0.1431 -0.3272 -0.4923
   74MOL0     O10077   4.857   0.629   4.105 -1.0368  0.0045 -0.1022
   74MOL0     C10078   4.814   0.622   3.974  0.3357 -0.2940 -0.1022
   74MOL0     C10079   4.770   0.504   3.917 -0.2425 -0.0081  0.4246
   74MOL0     C10080   4.740   0.492   3.782 -0.0774  0.0039  0.8685
   74MOL0     C10081   4.786   0.594   3.693  0.5468  0.2749  0.5230
   74MOL0     O10082   4.770   0.584   3.558  0.4554 -0.2627  0.4010
   74MOL0     C10083   4.751   0.705   3.480 -0.0142 -1.4870 -0.0930
   74MOL0     C10084   4.706   0.693   3.328 -0.0635 -0.3341  0.1037
   74MOL0     C10085   4.704   0.830   3.255  0.0827 -0.8356 -0.4272
   74MOL0     C10086   4.745   0.846   3.106 -0.2915 -0.2492 -0.9939
   74MOL0     C10087   4.753   0.999   3.060  0.0828  0.5425 -0.8245
   74MOL0     C10088   4.607   1.062   3.060  0.3248 -0.3049  0.1829
   74MOL0     C10089   4.621   1.200   2.993 -0.2274  0.7667  0.1923
   74MOL0     C10090   4.491   1.274   2.979 -0.0017 -0.3805 -0.6057
   74MOL0     N10091   4.503   1.425   2.947 -0.0213  0.8307 -0.8279
   74MOL0     C10092   4.581   1.497   2.858  0.7085 -0.3363 -1.0780
   74MOL0     C10093   4.552   1.626   2.888 -0.0577 -0.5849  0.5292
   74MOL0     C10094   4.592   1.752   2.824  0.3401 -0.0231  0.4644
   74MOL0     C10095   4.544   1.752   2.680  0.2653 -0.4933 -0.3967
   74MOL0     C10096   4.537   1.895   2.627  0.4053 -0.3299  0.4175
   74MOL0     C10097   4.442   1.993   2.694 -0.4370  0.6380  0.6339
   74MOL0     O10098   4.328   1.923   2.728  0.9142 -0.1827  0.0085
   74MOL0     C10099   4.201   1.969   2.692 -0.0399  0.0773 -0.1316
   74MOL0     C10100   4.091   1.904   2.753  0.9758 -0.0523 -0.0432
   74MOL0     C10101   3.957   1.940   2.745  0.5478  0.1091  0.5336
   74MOL0     C10102   3.873   1.861   2.840  0.4332  0.6349  0.4892
   74MOL0     C10103   3.917   2.043   2.656  0.1448 -0.3332 -0.3732
   74MOL0     C10104   3.777   2.089   2.639 -0.3652  0.1797  0.3617
   74MOL0     O10105   3.767   2.206   2.566 -0.2599  0.2269 -0.1861
   74MOL0     C10106   3.653   2.287   2.573 -0.2248  1.0740  0.6305
   74MOL0     C10107   3.613   2.342   2.455  0.3345 -0.5653 -0.0201
   74MOL0     C10108   3.488   2.403   2.467 -0.3414  0.1797  0.8925
   74MOL0     C10109   3.417   2.416   2.582 -0.4359 -0.0162 -0.1709
   74MOL0     O10110   3.307   2.492   2.569 -0.0949  0.0273  0.3345
   74MOL0     C10111   3.219   2.513   2.677 -0.5525 -0.4316 -0.3550
   74MOL0     C10112   3.143   2.643   2.640 -0.6392  0.0217  0.1695
   74MOL0     C10113   3.056   2.619   2.509  0.3180 -0.1230 -0.2205
   74MOL0     C10114   2.970   2.740   2.477 -0.2126  0.3663  0.6868
   74MOL0     C10115   2.942   2.754   2.329 -0.3134 -1.4331 -0.5510
   74MOL0     C10116   2.815   2.833   2.294 -1.0147  0.8637 -0.0019
   74MOL0     C10117   2.701   2.737   2.277  0.6550  0.1942 -0.9254
   74MOL0     C10118   2.573   2.790   2.209 -0.2284  0.7956 -0.5201
   74MOL0    Cl10119   2.599   2.772   2.041  0.3819  0.7314 -0.0967
   74MOL0     C10120   3.462   2.369   2.706 -0.8215 -0.7550 -0.5761
   74MOL0     C10121   3.583   2.306   2.692 -0.2355 -0.6484  0.3511
   74MOL0     O10122   3.686   2.022   2.685  0.2838  0.0099 -0.3705
   74MOL0     C10123   4.024   2.108   2.590 -0.3933 -0.5382 -0.6149
   74MOL0     C10124   4.160   2.074   2.604  0.3193  0.7350  0.0816
   74MOL0     N10125   4.463   1.629   2.993 -0.3475 -0.4363  0.3860
   74MOL0     N10126   4.445   1.509   3.033 -0.2183 -0.8702 -0.8211
   74MOL0     C10127   4.847   0.708   3.747 -0.6189  0.2037 -1.1034
   74MOL0     C10128   4.864   0.719   3.888  0.8467 -0.9029  0.8639
   74MOL0     C10129   4.818   0.710   4.332 -0.1094  0.0766 -0.4056
   74MOL0     C10130   4.922   0.635   4.372 -0.9421  0.1173 -0.7768
   74MOL0     C10131   4.979   0.637   4.501 -0.2074  0.3258  0.4965
   74MOL0     C10132   4.925   0.718   4.600  0.3717 -0.0241 -0.1806
   74MOL0     O10133   4.969   0.706   4.734 -0.2436  0.3158  0.9401
   74MOL0     C10134   4.893   0.757   4.848 -0.0215 -0.3769  0.1047
   74MOL0     C10135   4.942   0.693   4.976 -0.7959 -0.8811  0.1227
   74MOL0     C10136   4.831   0.687   5.089  0.6142 -0.4395 -0.0279
   74MOL0     C10137   4.884   0.603   5.205 -0.6163 -0.8154  0.6988
   74MOL0     C10138   4.981   0.675   5.281  0.3526 -0.5200 -0.5360
   74MOL0     C10139   5.077   0.723   5.341 -0.0376 -0.0525  0.5829
   74MOL0     C10140   4.812   0.798   4.560 -0.0221 -0.2537 -0.0122
   74MOL0     C10141   4.761   0.794   4.433 -0.2896 -0.6676  0.1463
   74MOL0     C10142   4.630   0.873   4.407  0.6198  0.0139  0.6315
   74MOL0     H10143   4.759   0.414   3.977 -2.2355 -2.5060 -3.3216
   74MOL0     H10144   4.692   0.400   3.748  0.2004 -0.9593  2.9230
   74MOL0     H10145   4.854   0.740   3.471  0.0705 -1.5096  0.6900
   74MOL0     H10146   4.685   0.779   3.526 -0.7814 -1.0741 -1.7981
   74MOL0     H10147   4.790   0.628   3.302  2.5467  2.6508  0.4851
   74MOL0     H10148   4.607   0.647   3.315 -0.6060  0.3733  1.4634
   74MOL0     H10149   4.600   0.865   3.259  1.2503  3.0944  0.2861
   74MOL0     H10150   4.769   0.895   3.315  2.0069 -2.6143 -0.5185
   74MOL0     H10151   4.844   0.802   3.089  0.0949  0.5697 -0.9197
   74MOL0     H10152   4.673   0.784   3.052  1.2544 -0.1427 -3.3140
   74MOL0     H10153   4.812   1.009   2.969  2.8740  0.9430  0.9016
   74MOL0     H10154   4.815   1.051   3.134  1.1544 -1.2766 -0.3525
   74MOL0     H10155   4.538   0.997   3.007  1.4949 -0.8372 -0.7307
   74MOL0     H10156   4.565   1.075   3.160  1.7912 -0.4482  0.8488
   74MOL0     H10157   4.653   1.174   2.891  0.5293 -1.9677  1.0382
   74MOL0     H10158   4.699   1.264   3.036 -0.4389  0.4619  1.0397
   74MOL0     H10159   4.425   1.213   2.917 -1.6197 -1.1861  1.7775
   74MOL0     H10160   4.441   1.270   3.076  1.7195  1.0149  0.4128
   74MOL0     H10161   4.633   1.459   2.770  2.6900 -0.8194  0.2416
   74MOL0     H10162   4.699   1.777   2.822  0.6657 -1.2984 -1.5468
   74MOL0     H10163   4.550   1.841   2.872  1.9501 -0.1863  2.3168
   74MOL0     H10164   4.609   1.691   2.616 -1.0080 -1.9346 -0.3784
   74MOL0     H10165   4.447   1.702   2.672 -1.2481  1.4925  3.1467
   74MOL0     H10166   4.630   1.951   2.612 -0.3951  0.6703 -1.1083
   74MOL0     H10167   4.502   1.884   2.525 -0.9135 -0.5634  0.8789
   74MOL0     H10168   4.491   2.019   2.788 -0.2277 -2.2666  1.4438
   74MOL0     H10169   4.434   2.071   2.619 -0.0869 -1.2880 -1.5307
   74MOL0     H10170   4.124   1.820   2.813 -1.0514  1.8024  4.0367
   74MOL0     H10171   3.786   1.825   2.785  0.9256  2.8190 -1.9210
   74MOL0     H10172   3.845   1.917   2.929 -2.0444 -1.2284  1.0058
   74MOL0     H10173   3.916   1.768   2.878 -2.5910 -0.0149  2.6386
   74MOL0     H10174   3.665   2.334   2.360 -3.4382 -3.3541 -2.1600
   74MOL0     H10175   3.463   2.466   2.382  3.8845 -1.0190 -1.5188
   74MOL0     H10176   3.147   2.431   2.682 -0.3086 -0.6550 -0.4833
   74MOL0     H10177   3.261   2.538   2.775 -0.0446  1.4872 -1.0032
   74MOL0     H10178   3.074   2.663   2.723 -0.9831  0.9877 -0.3222
   74MOL0     H10179   3.213   2.725   2.623  1.3510 -1.0706  2.4676
   74MOL0     H10180   2.986   2.536   2.522 -0.3982  0.6673  1.1359
   74MOL0     H10181   3.125   2.614   2.424  0.4434 -0.2593 -0.1089
   74MOL0     H10182   3.027   2.826   2.514  0.1138 -0.6854  2.7742
   74MOL0     H10183   2.872   2.737   2.526  0.2771  2.0071  1.8390
   74MOL0     H10184   3.028   2.812   2.291 -2.3578  0.9321 -1.8539
   74MOL0     H10185   2.950   2.655   2.283  0.2768 -1.8240  0.3541
   74MOL0     H10186   2.826   2.897   2.206  1.1355  0.8881  0.2347
   74MOL0     H10187   2.791   2.905   2.374 -2.1098  2.0782 -1.3752
   74MOL0     H10188   2.661   2.704   2.374  0.1248  0.5700 -1.0120
   74MOL0     H10189   2.738   2.649   2.224  1.1850  0.3514 -0.8207
   74MOL0     H10190   2.573   2.899   2.222 -1.6929  0.7015  0.4087
   74MOL0     H10191   2.483   2.744   2.251  0.3243 -1.0918 -1.2824
   74MOL0     H10192   3.411   2.384   2.801  1.2557 -1.8381  0.7845
   74MOL0     H10193   3.622   2.265   2.785 -0.7373  0.6023  1.1389
   74MOL0     H10194   4.003   2.190   2.521 -0.4367  0.0760  0.1156
   74MOL0     H10195   4.235   2.126   2.545  1.4293 -1.6354 -0.7341
   74MOL0     H10196   4.894   0.785   3.686  2.5959  0.1247  1.0344
   74MOL0     H10197   4.909   0.809   3.930  0.2388 -0.8503  1.4163
   74MOL0     H10198   4.974   0.569   4.304  0.7712 -0.2248  0.7895
   74MOL0     H10199   5.061   0.572   4.529  0.4828  2.1471  3.0507
   74MOL0     H10200   4.898   0.866   4.856  1.2645 -0.3544 -0.8153
   74MOL0     H10201   4.786   0.739   4.832 -0.2338  1.7744 -1.3269
   74MOL0     H10202   5.027   0.753   5.009 -0.2765 -1.7438  0.3825
   74MOL0     H10203   4.980   0.593   4.953  0.3782 -0.3378 -0.3695
   74MOL0     H10204   4.795   0.783   5.126  1.6574  0.0233 -0.1673
   74MOL0     H10205   4.744   0.641   5.040  1.3079 -1.1073 -0.6597
   74MOL0     H10206   4.928   0.508   5.175  0.2866 -0.4586  0.8532
   74MOL0     H10207   4.797   0.572   5.263 -1.7001 -0.8784 -0.8955
   74MOL0     H10208   5.159   0.785   5.370  0.3754  0.0107 -0.6816
   74MOL0     H10209   4.770   0.868   4.631  0.9749  1.7734 -1.3142
   74MOL0     H10210   4.588   0.899   4.504  1.6520 -2.2750  1.7635
   74MOL0     H10211   4.638   0.967   4.351  0.0428  0.0567  0.6154
   74MOL0     H10212   4.555   0.803   4.370 -0.1366 -2.8256  6.4487
   75MOL0     O10213   8.367  10.901   9.526 -0.3459  0.3931 -0.2262
   75MOL0     C10214   8.384  11.024   9.541  0.3034  0.8136 -0.4957
   75MOL0     O10215   8.344  11.115   9.455  0.5013 -0.2367  0.3268
   75MOL0     C10216   8.305  11.094   9.322  0.1351 -0.4173  1.2378
   75MOL0     C10217   8.329  10.971   9.251 -0.3073  0.2016 -0.4203
   75MOL0     C10218   8.290  10.960   9.116 -0.4224  1.3160 -0.3594
   75MOL0     C10219   8.232  11.069   9.050  0.6605  0.1635  0.3536
   75MOL0     O10220   8.190  11.063   8.917  0.8822  0.4913  0.1492
   75MOL0     C10221   8.199  10.949   8.831 -1.0056  0.5181 -0.4204
   75MOL0     C10222   8.164  10.992   8.690 -0.2327 -0.4604 -0.5787
   75MOL0     C10223   8.252  11.107   8.637 -0.4113  0.9642 -0.7076
   75MOL0     C10224   8.292  11.101   8.494  0.3116 -0.5986 -0.2575
   75MOL0     C10225   8.388  11.214   8.455  0.1035 -0.2273  0.1110
   75MOL0     C10226   8.319  11.355   8.410  1.2665  0.6712 -0.5309
   75MOL0     C10227   8.428  11.459   8.367  0.3340  0.6685 -0.2122
   75MOL0     C10228   8.377  11.607   8.359 -0.4179  1.0212  0.7612
   75MOL0     N10229   8.483  11.699   8.394 -0.2266 -0.2626 -0.1421
   75MOL0     C10230   8.584  11.750   8.320  0.7831  0.4668 -0.2417
   75MOL0     C10231   8.635  11.849   8.399 -0.1895  0.2044 -1.2001
   75MOL0     C10232   8.734  11.943   8.347 -0.1232  0.0243  0.4569
   75MOL0     C10233   8.871  11.919   8.397 -0.9970  0.6807 -1.7249
   75MOL0     C10234   8.972  12.012   8.338  0.0648  0.7153 -0.2276
   75MOL0     C10235   9.110  11.999   8.393  0.5754  0.1105  0.6905
   75MOL0     O10236   9.181  11.895   8.326  0.9850  0.7387  0.7181
   75MOL0     C10237   9.251  11.808   8.409 -0.0615  0.6377 -0.2336
   75MOL0     C10238   9.386  11.789   8.395 -0.4913  0.7570 -0.5985
   75MOL0     C10239   9.461  11.699   8.471 -0.1489  0.2027 -0.1584
   75MOL0     C10240   9.606  11.707   8.437  0.4327  0.0326  0.9959
   75MOL0     C10241   9.393  11.615   8.568 -1.3036 -0.9940  0.0206
   75MOL0     C10242   9.449  11.541   8.677  0.5909  0.3993  0.9895
   75MOL0     O10243   9.359  11.477   8.756 -0.1192 -0.3206  0.2315
   75MOL0     C10244   9.414  11.396   8.848 -0.5159 -0.6742 -0.5289
   75MOL0     C10245   9.443  11.445   8.973  0.2218  0.4400 -0.9077
   75MOL0     C10246   9.508  11.357   9.072 -0.3804  0.0485  1.0211
   75MOL0     C10247   9.546  11.223   9.030 -0.8415 -0.5379 -0.6102
   75MOL0     O10248   9.623  11.150   9.119 -0.1114  0.4424  0.1281
   75MOL0     C10249   9.722  11.224   9.206  1.0106  0.2295  0.0944
   75MOL0     C10250   9.814  11.128   9.268 -0.9111  0.1427 -0.6800
   75MOL0     C10251   9.911  11.191   9.366 -0.4117 -0.5266 -0.2515
   75MOL0     C10252   9.973  11.092   9.454  0.2291  0.8016 -0.7236
   75MOL0     C10253  10.051  11.148   9.580  0.5142  0.3144  0.5615
   75MOL0     C10254  10.191  11.197   9.545  0.0046 -0.3387 -0.0531
   75MOL0     C10255  10.246  11.277   9.669 -0.4854 -0.1967  0.0741
   75MOL0     C10256  10.181  11.413   9.702 -0.1182  0.2825 -0.7191
   75MOL0    Cl10257  10.164  11.501   9.551 -0.1395  0.4517 -0.1837
   75MOL0     C10258   9.526  11.182   8.898  0.0684  0.2692  0.2206
   75MOL0     C10259   9.449  11.264   8.815 -0.0995 -0.1266 -0.2309
   75MOL0     O10260   9.573  11.552   8.701  0.2843 -0.1395  0.4485
   75MOL0     C10261   9.255  11.623   8.558 -0.5045 -0.4550 -0.5558
   75MOL0     C10262   9.196  11.722   8.488  0.6075 -0.0977  0.2346
   75MOL0     N10263   8.575  11.854   8.526  0.1350 -0.3503 -0.2201
   75MOL0     N10264   8.488  11.757   8.519  0.1762  0.9491  0.6470
   75MOL0     C10265   8.203  11.186   9.120 -0.6679  0.3556  0.0014
   75MOL0     C10266   8.240  11.200   9.256 -0.1622  0.2844  0.5777
   75MOL0     C10267   8.452  11.075   9.662  0.0565  0.1985 -0.1010
   75MOL0     C10268   8.526  11.195   9.656  0.4499  0.2237 -0.8289
   75MOL0     C10269   8.593  11.246   9.775 -0.2489 -1.1404 -0.6127
   75MOL0     C10270   8.575  11.185   9.896 -1.7572 -0.8032 -0.2384
   75MOL0     O10271   8.646  11.238  10.004 -0.0746 -0.7414 -0.0567
   75MOL0     C10272   8.643  11.177  10.142  0.1369  0.3919 -0.1176
   75MOL0     C10273   8.790  11.181  10.187  0.4298  0.3665  0.0849
   75MOL0     C10274   8.865  11.058  10.151 -0.4119  0.6286  0.3585
   75MOL0     C10275   8.943  11.074  10.016  0.2583  0.2013 -0.4278
   75MOL0     C10276   9.028  10.955   9.988  0.5290  0.4156 -0.2955
   75MOL0     C10277   9.089  10.852   9.971 -0.2355 -0.5914  0.1577
   75MOL0     C10278   8.498  11.072   9.897  0.7400 -0.4181 -0.5153
   75MOL0     C10279   8.437  11.019   9.791 -0.1334 -0.8573  0.8269
   75MOL0     C10280   8.348  10.890   9.831 -0.5670  0.8253  0.3148
   75MOL0     H10281   8.375  10.882   9.292 -1.7249 -2.0044 -3.2536
   75MOL0     H10282   8.294  10.864   9.066  1.1513  1.8918 -1.4180
   75MOL0     H10283   8.143  10.859   8.860  2.1400 -1.4050  0.1102
   75MOL0     H10284   8.303  10.917   8.833 -1.5216 -1.2720  0.7095
   75MOL0     H10285   8.173  10.901   8.630 -0.4356 -0.1430 -1.0969
   75MOL0     H10286   8.060  11.025   8.688  0.3283  1.4313 -0.5763
   75MOL0     H10287   8.203  11.198   8.671  0.1214  1.1597 -0.4491
   75MOL0     H10288   8.347  11.098   8.691 -0.2726  1.4996 -0.8623
   75MOL0     H10289   8.345  11.006   8.478 -1.4968 -1.8481  0.8507
   75MOL0     H10290   8.200  11.108   8.436 -0.8029 -0.4546  1.4843
   75MOL0     H10291   8.445  11.166   8.374 -2.2343 -0.8569 -1.2812
   75MOL0     H10292   8.451  11.249   8.537 -0.5177  0.6406  0.2284
   75MOL0     H10293   8.255  11.334   8.324  1.3922 -0.3203 -0.3917
   75MOL0     H10294   8.263  11.393   8.495 -1.2782 -0.8456 -1.3991
   75MOL0     H10295   8.451  11.430   8.264  2.1855  1.1575  0.0198
   75MOL0     H10296   8.518  11.450   8.429 -0.5929  1.6893  1.3253
   75MOL0     H10297   8.351  11.621   8.254  0.9717 -0.4284  0.1831
   75MOL0     H10298   8.294  11.621   8.429  0.8415  0.1260  2.4993
   75MOL0     H10299   8.602  11.733   8.215  2.3629 -1.0336  0.2139
   75MOL0     H10300   8.710  12.041   8.389 -2.1216  0.0005 -0.5021
   75MOL0     H10301   8.732  11.952   8.238  0.1408 -2.0944  0.2250
   75MOL0     H10302   8.888  11.940   8.503  3.6279  1.0471 -2.3088
   75MOL0     H10303   8.900  11.819   8.361 -2.5895  0.7154 -3.2265
   75MOL0     H10304   8.975  11.985   8.232 -0.4903 -4.1087  0.7338
   75MOL0     H10305   8.922  12.107   8.357 -3.2173 -0.3345 -2.5891
   75MOL0     H10306   9.171  12.090   8.389 -0.7201  0.9900 -2.5686
   75MOL0     H10307   9.097  11.987   8.500  0.9971 -0.2416  0.7088
   75MOL0     H10308   9.438  11.850   8.321  2.9365  0.8311  1.6450
   75MOL0     H10309   9.626  11.733   8.333  0.3862 -1.5578  0.5659
   75MOL0     H10310   9.648  11.607   8.449  2.6937  0.9112  0.8073
   75MOL0     H10311   9.647  11.788   8.498 -1.9122 -0.0311  2.8179
   75MOL0     H10312   9.425  11.544   9.014  0.4764 -0.7698  2.4605
   75MOL0     H10313   9.532  11.395   9.171  2.9223 -2.3465  1.3203
   75MOL0     H10314   9.772  11.300   9.146  0.9247  0.6830  0.5925
   75MOL0     H10315   9.668  11.283   9.280 -0.9010 -0.1593 -0.9183
   75MOL0     H10316   9.754  11.051   9.316 -0.9840 -0.8597 -2.2962
   75MOL0     H10317   9.865  11.078   9.185 -3.0204  0.4198 -2.2248
   75MOL0     H10318   9.855  11.261   9.429  0.7591  1.0658 -0.9258
   75MOL0     H10319   9.981  11.259   9.317 -0.9525  0.4499  0.2950
   75MOL0     H10320  10.037  11.020   9.403  1.9780 -0.3454  2.7789
   75MOL0     H10321   9.898  11.027   9.499  1.1595  1.1692  1.4653
   75MOL0     H10322   9.991  11.227   9.626 -0.9295 -0.3801 -0.0503
   75MOL0     H10323  10.062  11.066   9.651  4.5064  0.5885  0.4625
   75MOL0     H10324  10.198  11.260   9.456  2.6556  0.8663  0.8838
   75MOL0     H10325  10.261  11.118   9.517 -2.3404 -3.8284  2.9744
   75MOL0     H10326  10.354  11.288   9.654 -0.2410  1.9034  2.6042
   75MOL0     H10327  10.234  11.215   9.759 -0.9115 -1.5536 -0.8896
   75MOL0     H10328  10.258  11.465   9.760  0.3846  0.1619 -1.2594
   75MOL0     H10329  10.092  11.396   9.763  0.2170 -0.0216 -0.3062
   75MOL0     H10330   9.581  11.092   8.872 -2.5021 -1.5389  0.7016
   75MOL0     H10331   9.419  11.232   8.716 -1.2742 -1.2741  0.4632
   75MOL0     H10332   9.193  11.550   8.609  0.3325 -1.1483 -0.5088
   75MOL0     H10333   9.090  11.726   8.509  1.0013  1.0784  2.2115
   75MOL0     H10334   8.165  11.268   9.060  1.9636  0.6776 -1.3917
   75MOL0     H10335   8.214  11.291   9.310 -1.6206  0.1673  0.1304
   75MOL0     H10336   8.533  11.252   9.564 -0.6639  2.9040  0.6233
   75MOL0     H10337   8.645  11.340   9.766 -3.2968  1.6452  5.3625
   75MOL0     H10338   8.573  11.240  10.197  1.1173  0.8118  0.6811
   75MOL0     H10339   8.605  11.075  10.149 -1.8673  1.0979 -0.0863
   75MOL0     H10340   8.789  11.183  10.297 -0.4990 -0.5435  0.1054
   75MOL0     H10341   8.846  11.271  10.161  1.2176  0.7215  2.7310
   75MOL0     H10342   8.945  11.049  10.225  1.0888 -1.0341 -1.3849
   75MOL0     H10343   8.801  10.969  10.155  0.5880 -0.2242 -1.5531
   75MOL0     H10344   9.017  11.154  10.020 -0.6286  1.0080  0.5907
   75MOL0     H10345   8.873  11.096   9.934 -1.0015 -2.4696 -0.1850
   75MOL0     H10346   9.141  10.760   9.953 -0.6568 -0.5655 -1.2834
   75MOL0     H10347   8.480  11.043  10.000 -1.8306  1.6123 -0.2835
   75MOL0     H10348   8.371  10.846   9.928 -3.2969 -1.5992 -0.0124
   75MOL0     H10349   8.241  10.910   9.836 -0.5090  1.3334 -0.3753
   75MOL0     H10350   8.358  10.814   9.752 -0.1698 -1.4291  2.4205
   76MOL0     O10351   2.480   9.153   2.941 -0.2028  0.0108  0.1059
   76MOL0     C10352   2.583   9.224   2.950 -0.0741 -0.5247  0.2161
   76MOL0     O10353   2.629   9.297   2.849  0.0137  0.5376 -0.0873
   76MOL0     C10354   2.569   9.310   2.729  0.7533  0.1779  0.4840
   76MOL0     C10355   2.505   9.423   2.687  1.2511  0.0528 -0.0660
   76MOL0     C10356   2.453   9.427   2.556  0.0879  0.5445  0.1378
   76MOL0     C10357   2.455   9.320   2.478 -0.1114  0.3969  1.1600
   76MOL0     O10358   2.401   9.334   2.351  0.4669 -0.2460 -0.4339
   76MOL0     C10359   2.462   9.437   2.267  0.4318  1.5378  0.9263
   76MOL0     C10360   2.395   9.445   2.130 -0.3770  0.4020  0.1160
   76MOL0     C10361   2.442   9.564   2.040 -0.2302 -0.2224 -0.6149
   76MOL0     C10362   2.379   9.544   1.902  0.2130  0.4680  0.8430
   76MOL0     C10363   2.433   9.657   1.820  0.2948  0.2683  0.2099
   76MOL0     C10364   2.373   9.655   1.686  0.7833  0.2859 -0.1538
   76MOL0     C10365   2.433   9.782   1.617  0.2550  0.1929  0.3148
   76MOL0     C10366   2.363   9.799   1.488 -0.2525  0.1015 -0.0242
   76MOL0     N10367   2.398   9.931   1.428 -0.0130  0.2026 -0.1653
   76MOL0     C10368   2.514   9.941   1.350  0.1599  0.2322  0.4364
   76MOL0     C10369   2.507  10.062   1.297  0.0711 -0.2071 -0.7085
   76MOL0     C10370   2.621  10.120   1.212  0.1991  0.0862  0.4689
   76MOL0     C10371   2.629  10.040   1.076 -0.0054 -0.0524 -0.9912
   76MOL0     C10372   2.684  10.110   0.951  0.2917  0.1614 -0.6728
   76MOL0     C10373   2.834  10.140   0.941 -0.1087  0.6224 -0.5197
   76MOL0     O10374   2.841  10.251   0.854  0.7039 -0.0445 -0.6040
   76MOL0     C10375   2.955  10.320   0.854 -0.3994  0.7293  0.0298
   76MOL0     C10376   2.952  10.449   0.792 -0.1702  0.4387 -0.1048
   76MOL0     C10377   3.059  10.544   0.790 -0.2890  0.1199  0.0040
   76MOL0     C10378   3.029  10.682   0.730 -1.2366  0.8798 -0.4024
   76MOL0     C10379   3.183  10.502   0.851 -0.4781  0.3844  0.0389
   76MOL0     C10380   3.294  10.589   0.895  0.3515 -0.6996  0.2109
   76MOL0     O10381   3.399  10.532   0.954  0.6974  0.1893 -0.4597
   76MOL0     C10382   3.501  10.620   0.969 -0.8289  0.4121 -0.1832
   76MOL0     C10383   3.563  10.635   1.093  0.2072 -0.4522 -0.3332
   76MOL0     C10384   3.679  10.727   1.115  0.7950 -0.5604  0.2115
   76MOL0     C10385   3.731  10.786   1.000 -1.0208 -0.0580 -0.6186
   76MOL0     O10386   3.820  10.886   1.015  0.0644 -0.5735 -0.4762
   76MOL0     C10387   3.778  11.019   1.009  0.3651 -0.5817  0.2582
   76MOL0     C10388   3.903  11.115   1.012  0.2012  0.6130  0.9849
   76MOL0     C10389   3.956  11.122   1.154  0.0175  0.1354 -0.2057
   76MOL0     C10390   4.075  11.219   1.166 -0.3111 -0.5249 -0.7930
   76MOL0     C10391   4.096  11.254   1.315  0.9708 -0.8745 -0.3237
   76MOL0     C10392   4.209  11.358   1.333 -0.6393 -0.2211  0.8217
   76MOL0     C10393   4.214  11.426   1.470 -0.2275  1.6155  0.3245
   76MOL0     C10394   4.349  11.510   1.475 -0.1948 -0.2115  0.0907
   76MOL0    Cl10395   4.491  11.405   1.508 -0.1469 -0.0197  0.3759
   76MOL0     C10396   3.684  10.745   0.879  0.4353 -0.3117 -0.3040
   76MOL0     C10397   3.578  10.663   0.861 -0.4097  0.1046  0.0969
   76MOL0     O10398   3.286  10.710   0.859  0.8182  0.4004 -0.3617
   76MOL0     C10399   3.182  10.379   0.916  0.2189  0.5416 -0.2925
   76MOL0     C10400   3.075  10.284   0.912 -0.6031  0.9508 -0.3235
   76MOL0     N10401   2.387  10.128   1.343  0.4016 -0.5730  0.3674
   76MOL0     N10402   2.334  10.047   1.429 -0.5054  0.3767  0.3470
   76MOL0     C10403   2.515   9.200   2.518  0.0337 -0.3648 -0.0636
   76MOL0     C10404   2.574   9.203   2.645  0.3927  0.9994  0.4232
   76MOL0     C10405   2.658   9.233   3.083 -0.1616 -1.2951 -0.2428
   76MOL0     C10406   2.759   9.343   3.094  0.2497  1.2096  0.4538
   76MOL0     C10407   2.842   9.349   3.194  0.2981 -0.2373 -0.0957
   76MOL0     C10408   2.827   9.272   3.304 -0.7131 -0.5924  0.1623
   76MOL0     O10409   2.926   9.296   3.398  0.3409  0.0944  0.3165
   76MOL0     C10410   2.945   9.208   3.512 -0.1983 -0.1783  0.2845
   76MOL0     C10411   3.086   9.251   3.567 -1.0121  0.3201 -0.4091
   76MOL0     C10412   3.205   9.248   3.467 -0.3643  1.1952  0.3120
   76MOL0     C10413   3.331   9.302   3.525 -0.0415 -0.8359 -0.1876
   76MOL0     C10414   3.316   9.448   3.540  0.6697 -0.7647  0.1738
   76MOL0     C10415   3.334   9.567   3.563  0.3703  0.2630  0.0418
   76MOL0     C10416   2.732   9.169   3.303 -0.3704  0.0580 -1.0227
   76MOL0     C10417   2.649   9.145   3.194 -0.9683 -0.2251  0.8615
   76MOL0     C10418   2.557   9.026   3.186 -0.2694  0.7295  0.2886
   76MOL0     H10419   2.511   9.514   2.745 -1.8528  0.4643 -0.2258
   76MOL0     H10420   2.406   9.519   2.523 -0.7935 -0.5822 -1.9165
   76MOL0     H10421   2.557   9.395   2.234 -0.1569  2.3847 -2.1981
   76MOL0     H10422   2.476   9.534   2.317  0.3238  0.9239  2.1831
   76MOL0     H10423   2.405   9.346   2.085 -1.7510  0.3234 -0.0594
   76MOL0     H10424   2.287   9.438   2.149  0.2037 -2.7019  3.4532
   76MOL0     H10425   2.418   9.657   2.092  2.7198  0.2236  0.1255
   76MOL0     H10426   2.551   9.564   2.033 -0.3222  0.7962 -3.5439
   76MOL0     H10427   2.399   9.449   1.853 -1.2068  1.5760 -2.0984
   76MOL0     H10428   2.270   9.552   1.909  0.0723  0.0694 -0.7106
   76MOL0     H10429   2.541   9.655   1.806  0.2661  0.8699 -0.1432
   76MOL0     H10430   2.409   9.755   1.863 -1.8476  1.3137 -3.0038
   76MOL0     H10431   2.409   9.561   1.644 -1.5707 -1.0672  0.6672
   76MOL0     H10432   2.265   9.664   1.697  1.0787  0.9435  3.2352
   76MOL0     H10433   2.543   9.779   1.613  0.2031 -2.4582 -1.2082
   76MOL0     H10434   2.415   9.867   1.685 -0.5108 -1.1204  1.8204
   76MOL0     H10435   2.371   9.723   1.410 -0.9901  1.8058 -1.8702
   76MOL0     H10436   2.255   9.806   1.509 -0.0151  4.9572  0.8704
   76MOL0     H10437   2.591   9.866   1.334  0.5548  0.5538  0.7836
   76MOL0     H10438   2.714  10.105   1.267  0.9389  1.0056 -0.4848
   76MOL0     H10439   2.601  10.225   1.187  0.9467  0.1513  0.1091
   76MOL0     H10440   2.694   9.954   1.093  0.1388  0.0385 -1.0896
   76MOL0     H10441   2.527  10.010   1.049  0.6810 -0.0853 -3.7465
   76MOL0     H10442   2.665  10.051   0.860  2.6418  0.2336 -1.2838
   76MOL0     H10443   2.622  10.199   0.933 -1.3578 -0.1629  2.6896
   76MOL0     H10444   2.876  10.148   1.042  1.2931 -2.2319 -0.7726
   76MOL0     H10445   2.871  10.044   0.903 -1.2138  0.1640 -0.4718
   76MOL0     H10446   2.858  10.488   0.756  0.9426  4.7961  1.0405
   76MOL0     H10447   2.923  10.690   0.705 -1.1991 -2.3407 -2.1477
   76MOL0     H10448   3.090  10.699   0.641  0.2285 -2.1659 -0.1114
   76MOL0     H10449   3.055  10.763   0.798  0.4133  0.0050  0.0866
   76MOL0     H10450   3.524  10.592   1.185  0.5666  3.0788  1.6620
   76MOL0     H10451   3.715  10.755   1.213  1.0186 -2.0677  0.5919
   76MOL0     H10452   3.721  11.037   0.917 -2.6655 -0.6375  1.9820
   76MOL0     H10453   3.715  11.058   1.089 -2.4414 -0.1062 -2.0082
   76MOL0     H10454   3.987  11.087   0.948  0.9398  0.8893  1.8055
   76MOL0     H10455   3.856  11.204   0.971  0.1297 -0.5186 -1.5611
   76MOL0     H10456   3.990  11.027   1.197  2.0223  1.3176  0.9370
   76MOL0     H10457   3.867  11.144   1.215 -1.4938 -1.6521 -1.6290
   76MOL0     H10458   4.057  11.307   1.104 -2.2266  0.8391  1.5285
   76MOL0     H10459   4.167  11.165   1.139  0.2376  0.1097 -0.2235
   76MOL0     H10460   4.002  11.303   1.343  2.0655  0.8152  0.6213
   76MOL0     H10461   4.108  11.179   1.394  0.2750  2.3385  3.1813
   76MOL0     H10462   4.200  11.434   1.255 -1.0261 -0.8125  0.2786
   76MOL0     H10463   4.304  11.308   1.310  0.1125  1.1815  0.7764
   76MOL0     H10464   4.207  11.355   1.553  1.7074  0.7470 -0.2077
   76MOL0     H10465   4.136  11.502   1.480  1.9624  4.3128 -1.6243
   76MOL0     H10466   4.323  11.580   1.555 -1.2040 -1.2387  0.6862
   76MOL0     H10467   4.357  11.574   1.386 -2.4670 -0.8016 -0.6056
   76MOL0     H10468   3.737  10.795   0.797  0.1408 -0.4645 -0.5877
   76MOL0     H10469   3.549  10.629   0.762  0.7660 -1.4345  0.2324
   76MOL0     H10470   3.257  10.323   0.970 -1.7291  0.0292  2.0829
   76MOL0     H10471   3.095  10.188   0.959  0.3898  1.0551 -0.5068
   76MOL0     H10472   2.515   9.121   2.443 -0.7372  2.4766 -3.3150
   76MOL0     H10473   2.628   9.116   2.682  0.9656  0.8775 -0.6628
   76MOL0     H10474   2.772   9.411   3.011  2.2034  1.2693  0.7590
   76MOL0     H10475   2.916   9.427   3.201  0.2907 -0.0916 -1.4397
   76MOL0     H10476   2.869   9.230   3.587  1.0248 -0.2936  1.5873
   76MOL0     H10477   2.951   9.101   3.487  0.7345  0.3754 -2.2091
   76MOL0     H10478   3.110   9.181   3.648  0.4720 -0.0708 -1.1539
   76MOL0     H10479   3.080   9.347   3.619 -3.2972  0.1668 -0.2683
   76MOL0     H10480   3.223   9.144   3.436 -1.4541  1.2755 -0.6392
   76MOL0     H10481   3.181   9.302   3.375 -0.3673  1.5959  0.5485
   76MOL0     H10482   3.412   9.278   3.457 -1.4252 -3.4436 -1.0279
   76MOL0     H10483   3.357   9.260   3.623 -0.2369 -1.7133 -0.5115
   76MOL0     H10484   3.331   9.671   3.586 -1.7341 -0.1523  2.0805
   76MOL0     H10485   2.718   9.107   3.391 -0.3820 -1.7925 -2.2755
   76MOL0     H10486   2.593   8.954   3.260  2.3946 -0.2146 -1.7818
   76MOL0     H10487   2.457   9.065   3.211 -0.9543 -1.4717  1.2452
   76MOL0     H10488   2.556   8.978   3.088  0.9738 -1.5507  1.3124
   77MOL0     O10489   3.873   0.535  10.118 -0.9058  0.7410  0.0293
   77MOL0     C10490   3.993   0.524  10.143 -0.3719 -0.7560  0.2363
   77MOL0     O10491   4.093   0.499  10.051 -1.1193  0.5928  0.6849
   77MOL0     C10492   4.059   0.451   9.923  0.2864 -0.2653  0.7731
   77MOL0     C10493   3.996   0.326   9.902  0.4377  0.3707  0.0790
   77MOL0     C10494   3.964   0.280   9.766  0.0766  0.3834 -0.3704
   77MOL0     C10495   4.012   0.351   9.661  1.0331  0.3126  0.2198
   77MOL0     O10496   3.980   0.300   9.535  0.6469 -0.0477 -0.7786
   77MOL0     C10497   4.003   0.371   9.414 -0.0093 -0.6001  0.2994
   77MOL0     C10498   3.954   0.294   9.294  0.5730 -0.0455  0.0199
   77MOL0     C10499   4.043   0.176   9.251  0.4597  0.3027 -0.2714
   77MOL0     C10500   4.146   0.226   9.151 -0.0796  0.0516  0.9516
   77MOL0     C10501   4.225   0.111   9.085 -0.5370  0.4066  0.1654
   77MOL0     C10502   4.340   0.053   9.176  1.2966  0.0037 -0.1195
   77MOL0     C10503   4.417   0.147   9.260  0.9539  0.2194  0.2112
   77MOL0     C10504   4.552   0.102   9.303 -0.0593 -0.3746  0.4845
   77MOL0     N10505   4.573  -0.032   9.352  0.4874  0.3954 -0.1832
   77MOL0     C10506   4.517  -0.086   9.462 -0.1584  0.0249  0.3680
   77MOL0     C10507   4.563  -0.210   9.462 -0.6905 -0.4295  0.4106
   77MOL0     C10508   4.520  -0.317   9.561 -0.3399 -0.2045  0.2569
   77MOL0     C10509   4.644  -0.333   9.650 -0.2033 -0.2667 -0.4324
   77MOL0     C10510   4.642  -0.458   9.744  0.5937  0.2771 -0.2981
   77MOL0     C10511   4.546  -0.453   9.860 -0.2020  0.5178 -0.2769
   77MOL0     O10512   4.411  -0.498   9.817  0.0093  0.1809 -0.6211
   77MOL0     C10513   4.394  -0.625   9.760  0.3538  0.2596 -0.0480
   77MOL0     C10514   4.439  -0.752   9.818 -0.9746 -1.0230  0.0137
   77MOL0     C10515   4.389  -0.875   9.774 -0.0014  0.1714  0.9416
   77MOL0     C10516   4.432  -0.992   9.851  0.2158 -0.3839 -0.1539
   77MOL0     C10517   4.306  -0.878   9.660 -0.3678  0.8405 -0.1673
   77MOL0     C10518   4.241  -1.006   9.610  0.3482 -0.1515 -0.7837
   77MOL0     O10519   4.242  -1.126   9.682 -0.3733 -0.0150  1.3245
   77MOL0     C10520   4.151  -1.225   9.661 -0.2586 -0.2024 -0.2146
   77MOL0     C10521   4.023  -1.192   9.606 -0.3357  0.0333  0.9116
   77MOL0     C10522   3.928  -1.290   9.575 -0.0953  0.4456 -0.2961
   77MOL0     C10523   3.969  -1.430   9.586 -0.1846  0.5661  0.1834
   77MOL0     O10524   3.872  -1.528   9.570  0.4827  0.3216 -0.7765
   77MOL0     C10525   3.919  -1.658   9.522 -0.2120  0.0919  0.4951
   77MOL0     C10526   3.789  -1.738   9.498 -0.4759 -0.2891 -0.3515
   77MOL0     C10527   3.707  -1.778   9.623  0.0026 -0.0080 -0.5235
   77MOL0     C10528   3.601  -1.890   9.588 -0.2082 -0.0851  0.3400
   77MOL0     C10529   3.656  -2.012   9.503 -0.5410 -1.0786 -0.2333
   77MOL0     C10530   3.541  -2.112   9.477 -0.4553 -0.2651  0.2549
   77MOL0     C10531   3.593  -2.240   9.396  0.0557 -0.4283 -0.0834
   77MOL0     C10532   3.471  -2.312   9.332 -0.2802 -0.8829 -0.7712
   77MOL0    Cl10533   3.530  -2.470   9.256 -0.4087 -0.0551  0.0820
   77MOL0     C10534   4.096  -1.463   9.626 -0.5832  0.3170 -0.0343
   77MOL0     C10535   4.191  -1.361   9.674 -0.2990  0.7494 -0.5049
   77MOL0     O10536   4.193  -0.993   9.496 -0.3762 -0.5542 -0.2622
   77MOL0     C10537   4.282  -0.754   9.599  0.5843 -0.0285  0.8323
   77MOL0     C10538   4.319  -0.634   9.644  0.3531 -0.9434 -0.9347
   77MOL0     N10539   4.643  -0.241   9.352 -0.8615  0.3080 -0.2959
   77MOL0     N10540   4.646  -0.135   9.278  0.3332 -0.9519  0.3750
   77MOL0     C10541   4.079   0.466   9.686  0.5508 -0.0142  0.3084
   77MOL0     C10542   4.100   0.525   9.810  1.3878  0.4591 -0.0851
   77MOL0     C10543   4.028   0.510  10.291  0.0127 -0.6015  0.6187
   77MOL0     C10544   4.133   0.424  10.318  0.3954  0.0189 -0.2275
   77MOL0     C10545   4.172   0.416  10.448  0.2633  0.1723 -0.2564
   77MOL0     C10546   4.107   0.481  10.558  0.1959 -0.6015  0.7980
   77MOL0     O10547   4.151   0.477  10.688 -0.7831 -0.3021 -0.3609
   77MOL0     C10548   4.292   0.478  10.699 -0.2237 -1.1563 -0.1170
   77MOL0     C10549   4.331   0.558  10.815 -0.2364  0.1926  0.2341
   77MOL0     C10550   4.326   0.487  10.950  0.3547  0.5892 -0.3245
   77MOL0     C10551   4.394   0.576  11.054 -0.4528 -0.1546 -0.2001
   77MOL0     C10552   4.397   0.524  11.189 -0.1699 -0.1539 -0.4120
   77MOL0     C10553   4.420   0.478  11.301  0.9309  0.4523 -0.2325
   77MOL0     C10554   3.998   0.561  10.533 -0.3252  0.6094  0.2476
   77MOL0     C10555   3.951   0.564  10.397 -0.9972  0.2558 -0.5528
   77MOL0     C10556   3.829   0.651  10.379 -0.4022 -0.0653 -0.0275
   77MOL0     H10557   3.975   0.267   9.991 -1.5139  0.7987 -0.0357
   77MOL0     H10558   3.903   0.191   9.757 -1.2345  1.2201 -0.1434
   77MOL0     H10559   4.110   0.392   9.401  0.1110 -1.6087 -0.4854
   77MOL0     H10560   3.940   0.460   9.418 -0.2217 -0.7464  0.2262
   77MOL0     H10561   3.857   0.255   9.326  2.2883 -3.9578  1.1380
   77MOL0     H10562   3.948   0.356   9.204  2.3454 -2.1305 -1.6763
   77MOL0     H10563   4.097   0.135   9.337 -0.0905  2.2027  1.0391
   77MOL0     H10564   3.989   0.089   9.212  4.5202 -1.6805 -2.1118
   77MOL0     H10565   4.091   0.283   9.075 -1.0645 -1.3973  0.5354
   77MOL0     H10566   4.209   0.299   9.203 -0.6239  1.0639  0.2396
   77MOL0     H10567   4.270   0.148   8.992 -2.0413  0.0606 -0.7359
   77MOL0     H10568   4.159   0.029   9.054 -0.4246  0.5174 -0.3793
   77MOL0     H10569   4.311  -0.031   9.240 -3.5591  2.2002  1.0028
   77MOL0     H10570   4.404   0.001   9.103  0.1545 -1.3259 -0.2056
   77MOL0     H10571   4.348   0.181   9.338 -0.2062 -1.4770 -0.0302
   77MOL0     H10572   4.436   0.237   9.202 -1.4381  0.9843  0.5263
   77MOL0     H10573   4.620   0.115   9.218 -1.6254 -0.7324 -0.8628
   77MOL0     H10574   4.591   0.172   9.378  1.5649 -1.5013  0.7568
   77MOL0     H10575   4.453  -0.034   9.532  1.8827  2.1032  0.8251
   77MOL0     H10576   4.486  -0.406   9.507 -3.5395 -0.3176  2.2244
   77MOL0     H10577   4.436  -0.291   9.625 -1.4467 -2.2846 -0.2694
   77MOL0     H10578   4.740  -0.324   9.599  0.0408  2.1530  0.3495
   77MOL0     H10579   4.671  -0.248   9.713  2.3533 -0.4739 -1.1218
   77MOL0     H10580   4.625  -0.550   9.688  3.8737 -0.1205 -0.8196
   77MOL0     H10581   4.743  -0.461   9.785  0.1534 -2.2921  0.7638
   77MOL0     H10582   4.584  -0.505   9.948 -2.5611  1.5518  1.4402
   77MOL0     H10583   4.533  -0.349   9.890 -0.5903  0.5076 -0.4081
   77MOL0     H10584   4.513  -0.741   9.897 -2.5757  2.3337  1.2511
   77MOL0     H10585   4.342  -1.043   9.888 -1.9300  2.7764 -0.6031
   77MOL0     H10586   4.500  -0.967   9.933  0.5988  1.9929 -1.1236
   77MOL0     H10587   4.494  -1.054   9.786  0.7746  0.4733 -0.4554
   77MOL0     H10588   3.998  -1.086   9.603  1.7658  0.5619 -0.9729
   77MOL0     H10589   3.825  -1.265   9.553 -0.5599 -1.4495 -0.3983
   77MOL0     H10590   3.981  -1.640   9.433  0.7570  1.8069  1.4631
   77MOL0     H10591   3.967  -1.723   9.594 -0.6072 -2.3852 -1.3547
   77MOL0     H10592   3.714  -1.679   9.444 -1.6604 -1.3867  0.0451
   77MOL0     H10593   3.814  -1.831   9.447 -1.7832 -1.2129  0.6334
   77MOL0     H10594   3.645  -1.691   9.645 -1.3928 -0.6310 -1.8634
   77MOL0     H10595   3.766  -1.807   9.711  1.2919  2.4401 -0.4946
   77MOL0     H10596   3.519  -1.851   9.527 -0.8002 -3.5080 -1.2952
   77MOL0     H10597   3.558  -1.923   9.683 -2.8848  1.6033 -0.1758
   77MOL0     H10598   3.698  -1.976   9.409  0.9029  1.1644  1.1632
   77MOL0     H10599   3.729  -2.073   9.558  0.5847  0.5311  0.1328
   77MOL0     H10600   3.458  -2.059   9.428  1.3597  1.2009 -1.3980
   77MOL0     H10601   3.497  -2.136   9.575 -4.5348 -1.0841 -1.5474
   77MOL0     H10602   3.651  -2.312   9.454  1.4873  0.4564 -0.3526
   77MOL0     H10603   3.655  -2.210   9.310 -2.8154  1.9821 -1.4998
   77MOL0     H10604   3.433  -2.243   9.256 -2.1871  0.5788  1.3544
   77MOL0     H10605   3.392  -2.331   9.406 -0.0046  1.0154  0.0575
   77MOL0     H10606   4.113  -1.570   9.638 -3.1043  0.1103  3.2236
   77MOL0     H10607   4.289  -1.396   9.707 -2.2617 -2.6482  2.4890
   77MOL0     H10608   4.240  -0.750   9.499 -1.1967 -1.7313  1.4652
   77MOL0     H10609   4.296  -0.541   9.593  3.0479  0.0385 -0.4893
   77MOL0     H10610   4.122   0.514   9.598  0.0523  0.1286  0.1378
   77MOL0     H10611   4.162   0.613   9.821  0.0951  1.6279 -1.6921
   77MOL0     H10612   4.180   0.375  10.234 -0.7974 -0.1162 -0.8318
   77MOL0     H10613   4.248   0.342  10.474  1.5944  0.7199 -2.3504
   77MOL0     H10614   4.340   0.382  10.719 -2.2615 -1.9098  1.6041
   77MOL0     H10615   4.341   0.530  10.617  0.1886 -1.0719  0.1795
   77MOL0     H10616   4.274   0.651  10.822 -1.2779 -0.2355 -1.8817
   77MOL0     H10617   4.432   0.593  10.791 -1.0495  2.2689 -0.3680
   77MOL0     H10618   4.223   0.458  10.975 -0.8485  2.9418 -2.1774
   77MOL0     H10619   4.393   0.401  10.942  1.4114  1.5205 -2.3319
   77MOL0     H10620   4.334   0.668  11.049 -4.8770 -2.7333  0.3648
   77MOL0     H10621   4.501   0.588  11.032 -0.0689 -1.2378  0.9961
   77MOL0     H10622   4.461   0.430  11.387 -2.7547  1.7335  2.5036
   77MOL0     H10623   3.962   0.624  10.613  2.5125  1.6300  0.8352
   77MOL0     H10624   3.787   0.701  10.466 -1.0786  2.8380 -1.8988
   77MOL0     H10625   3.865   0.737  10.322 -1.6845 -0.8750 -2.1520
   77MOL0     H10626   3.748   0.600  10.326 -3.1117  2.2457  1.6670
   78MOL0     O10627   3.019   6.961   4.567  0.5126  0.3186 -0.7383
   78MOL0     C10628   3.138   6.937   4.547  0.3080  0.4165  1.0401
   78MOL0     O10629   3.231   7.022   4.479  0.0108  0.9214 -0.7956
   78MOL0     C10630   3.176   7.132   4.438 -0.5295 -0.8377 -0.3177
   78MOL0     C10631   3.207   7.176   4.312  0.2769 -0.6044 -0.1396
   78MOL0     C10632   3.165   7.296   4.272  0.1202  0.0380  0.2763
   78MOL0     C10633   3.106   7.396   4.349  0.0175 -0.3332 -0.7354
   78MOL0     O10634   3.068   7.521   4.313 -0.2690 -0.3981  0.4114
   78MOL0     C10635   3.008   7.540   4.186  0.1411  0.5453  0.2790
   78MOL0     C10636   2.874   7.463   4.188 -0.2353 -1.4795 -0.0514
   78MOL0     C10637   2.803   7.513   4.066  0.4930 -0.3653  0.6109
   78MOL0     C10638   2.674   7.446   4.049 -0.4142 -0.7126 -0.4126
   78MOL0     C10639   2.601   7.515   3.926 -0.2019  0.8333 -0.1031
   78MOL0     C10640   2.490   7.415   3.882  0.9170 -0.5202  0.7037
   78MOL0     C10641   2.421   7.476   3.764  0.0297 -0.5988  0.4916
   78MOL0     C10642   2.273   7.422   3.749 -0.1139 -0.6520  0.2901
   78MOL0     N10643   2.279   7.287   3.678  0.3609 -0.0776  0.5431
   78MOL0     C10644   2.318   7.167   3.739  0.2207 -0.6345  0.3409
   78MOL0     C10645   2.318   7.073   3.642  0.6522  0.1531 -0.1064
   78MOL0     C10646   2.343   6.925   3.652 -0.1057  0.1643  0.2050
   78MOL0     C10647   2.495   6.905   3.638 -0.2296 -0.2272 -0.9902
   78MOL0     C10648   2.549   6.976   3.513 -0.5966  0.1550  0.0130
   78MOL0     C10649   2.692   6.927   3.489  0.6894  0.4591 -0.2260
   78MOL0     O10650   2.784   6.939   3.604 -0.6321 -1.0981 -0.1674
   78MOL0     C10651   2.903   6.879   3.611 -0.1400  1.2453 -0.2427
   78MOL0     C10652   2.964   6.806   3.508 -0.5627  0.4468  0.8903
   78MOL0     C10653   3.083   6.735   3.530  0.0085  0.0417  0.4813
   78MOL0     C10654   3.119   6.654   3.408 -0.2839 -0.7740 -0.0736
   78MOL0     C10655   3.165   6.762   3.644  0.2454 -0.0975  2.0314
   78MOL0     C10656   3.305   6.708   3.657 -0.1034  0.0339 -1.0672
   78MOL0     O10657   3.351   6.605   3.579  0.8424 -0.4243  0.1483
   78MOL0     C10658   3.487   6.581   3.584  0.0550  0.5114 -0.0051
   78MOL0     C10659   3.553   6.489   3.670  0.6948 -0.2286  0.2982
   78MOL0     C10660   3.691   6.485   3.663  0.5155  0.8178 -0.0980
   78MOL0     C10661   3.767   6.553   3.565 -0.5668 -0.0688 -0.4077
   78MOL0     O10662   3.901   6.537   3.550  0.1031 -0.2555  0.7183
   78MOL0     C10663   3.968   6.415   3.601 -0.7973 -0.4923  0.2202
   78MOL0     C10664   4.109   6.387   3.548  1.0586 -0.1640 -0.3985
   78MOL0     C10665   4.174   6.248   3.569 -0.2564 -0.3966  0.2188
   78MOL0     C10666   4.300   6.247   3.475 -0.3408 -0.9980 -1.2616
   78MOL0     C10667   4.366   6.108   3.484 -0.1499  1.0596  0.6580
   78MOL0     C10668   4.280   5.997   3.413  0.6156  0.1801  0.4312
   78MOL0     C10669   4.372   5.885   3.369  0.4815 -0.2136  0.7005
   78MOL0     C10670   4.297   5.770   3.315 -0.4265  0.5170 -0.1188
   78MOL0    Cl10671   4.168   5.713   3.426 -0.4662  0.0312 -0.1403
   78MOL0     C10672   3.697   6.630   3.471  0.1523 -0.4928 -0.8596
   78MOL0     C10673   3.560   6.649   3.492 -0.5161  0.4846  0.2436
   78MOL0     O10674   3.370   6.751   3.753 -0.6517 -0.5063  0.0475
   78MOL0     C10675   3.107   6.828   3.749 -0.4240 -0.7891  0.7279
   78MOL0     C10676   2.981   6.893   3.735 -0.1119  0.7157  0.3723
   78MOL0     N10677   2.261   7.136   3.539  0.0678  0.7102 -0.1070
   78MOL0     N10678   2.256   7.264   3.554 -0.0798 -0.0621 -0.6310
   78MOL0     C10679   3.079   7.360   4.480 -0.2339 -1.2702  0.0011
   78MOL0     C10680   3.121   7.235   4.521 -1.0283  0.0174  0.2485
   78MOL0     C10681   3.169   6.796   4.573  0.2180  0.4962  0.4444
   78MOL0     C10682   3.253   6.736   4.485  1.6023 -0.0482 -0.1328
   78MOL0     C10683   3.279   6.603   4.496  0.7939  0.5654  0.3038
   78MOL0     C10684   3.211   6.518   4.588 -0.4750 -0.3294  0.7481
   78MOL0     O10685   3.232   6.384   4.607 -0.2144 -1.1287  0.3036
   78MOL0     C10686   3.258   6.290   4.498 -0.2797  0.0134 -0.6005
   78MOL0     C10687   3.336   6.176   4.562  0.1544  0.0631  0.1939
   78MOL0     C10688   3.364   6.051   4.480 -0.0542  0.5458 -0.0885
   78MOL0     C10689   3.479   5.989   4.550  0.2249 -0.5711  0.1257
   78MOL0     C10690   3.456   5.945   4.692 -0.7388  0.0805 -0.3572
   78MOL0     C10691   3.439   5.908   4.805 -1.4261 -0.8059 -0.1516
   78MOL0     C10692   3.130   6.578   4.682  0.0117  0.2678 -0.4898
   78MOL0     C10693   3.114   6.717   4.683  1.0148 -0.1989  0.2550
   78MOL0     C10694   3.029   6.774   4.793 -0.9262 -0.2367  0.4126
   78MOL0     H10695   3.264   7.124   4.235 -0.5047 -1.0124 -0.4537
   78MOL0     H10696   3.195   7.334   4.175 -1.1371  5.0546  1.5250
   78MOL0     H10697   3.081   7.504   4.113 -1.0964  0.9106 -1.2128
   78MOL0     H10698   2.997   7.648   4.170  2.0064  1.0306  1.9424
   78MOL0     H10699   2.899   7.357   4.194  1.0684 -1.0918  2.8251
   78MOL0     H10700   2.818   7.490   4.278  0.2729  2.1833 -0.6572
   78MOL0     H10701   2.790   7.621   4.055  0.2300 -0.4480  0.1188
   78MOL0     H10702   2.859   7.479   3.979 -1.1439  0.6529 -0.9055
   78MOL0     H10703   2.682   7.340   4.023  0.1272 -0.0936 -3.1510
   78MOL0     H10704   2.618   7.466   4.141 -2.2278 -1.7267 -1.2318
   78MOL0     H10705   2.667   7.527   3.839  1.3454  0.6303  1.0110
   78MOL0     H10706   2.558   7.612   3.953  0.1657  1.0211 -0.1832
   78MOL0     H10707   2.537   7.324   3.843  3.4971  0.5101  1.2304
   78MOL0     H10708   2.421   7.391   3.963  1.0713 -1.5411  0.5575
   78MOL0     H10709   2.468   7.454   3.668 -1.9137  1.4504 -1.0384
   78MOL0     H10710   2.418   7.584   3.782  0.0447 -0.1212 -2.0198
   78MOL0     H10711   2.215   7.426   3.841 -0.7002  1.9039 -0.0980
   78MOL0     H10712   2.223   7.492   3.681 -0.4021 -0.9102  0.2337
   78MOL0     H10713   2.326   7.147   3.845 -0.7227  0.4997  0.6466
   78MOL0     H10714   2.286   6.870   3.577 -0.9355 -0.0980  1.0017
   78MOL0     H10715   2.308   6.887   3.749  0.5381 -4.0920 -1.0443
   78MOL0     H10716   2.539   6.961   3.721  0.7981 -1.7889 -0.4452
   78MOL0     H10717   2.522   6.799   3.634  0.0892 -0.3243  1.6864
   78MOL0     H10718   2.481   6.960   3.429  2.0684 -0.5184 -2.1602
   78MOL0     H10719   2.554   7.084   3.527  1.6585  0.4168 -2.2137
   78MOL0     H10720   2.681   6.818   3.481 -1.1110  0.7379 -2.8721
   78MOL0     H10721   2.722   6.969   3.393 -0.5729 -1.0198 -1.3285
   78MOL0     H10722   2.920   6.793   3.409  3.1614  1.9892 -1.1617
   78MOL0     H10723   3.220   6.679   3.375  0.9640 -3.0642  1.6499
   78MOL0     H10724   3.052   6.661   3.322  1.0210  3.1104 -0.9853
   78MOL0     H10725   3.126   6.546   3.427  0.6831 -0.8771 -0.9451
   78MOL0     H10726   3.503   6.425   3.741  3.5776 -1.7877  1.0910
   78MOL0     H10727   3.741   6.422   3.736 -0.3037 -0.1062 -0.3212
   78MOL0     H10728   3.971   6.420   3.710 -0.2504 -0.2299  0.1971
   78MOL0     H10729   3.904   6.328   3.582 -0.7384 -0.4851 -0.0261
   78MOL0     H10730   4.099   6.417   3.443 -3.1030  0.1719 -0.0738
   78MOL0     H10731   4.169   6.461   3.602  0.1819  0.1473  0.1730
   78MOL0     H10732   4.098   6.177   3.534 -0.1178  0.9638 -3.1682
   78MOL0     H10733   4.189   6.221   3.674  2.4132 -0.3473 -0.0926
   78MOL0     H10734   4.372   6.320   3.513  0.6661 -1.4827 -2.1936
   78MOL0     H10735   4.269   6.282   3.376 -4.7105  0.1884  0.2708
   78MOL0     H10736   4.459   6.132   3.432 -1.0951  1.3882 -0.9367
   78MOL0     H10737   4.374   6.078   3.589 -1.1495 -1.3557  0.1316
   78MOL0     H10738   4.213   6.024   3.331  0.3520 -1.2569  0.1373
   78MOL0     H10739   4.215   5.957   3.492  0.4945 -0.6560 -0.0770
   78MOL0     H10740   4.432   5.855   3.456 -1.9425  0.6899  2.8062
   78MOL0     H10741   4.442   5.912   3.290  1.5270  0.9827  1.9646
   78MOL0     H10742   4.363   5.688   3.285  1.1629  2.1087 -1.1357
   78MOL0     H10743   4.257   5.805   3.220 -1.2196  0.1235  0.0597
   78MOL0     H10744   3.749   6.678   3.388  1.4220 -2.0191 -1.0109
   78MOL0     H10745   3.510   6.723   3.430 -1.9608 -0.7974 -0.1792
   78MOL0     H10746   3.162   6.861   3.837 -2.4234  0.2456  1.6714
   78MOL0     H10747   2.945   6.964   3.809  0.2589 -0.0959  1.3692
   78MOL0     H10748   3.035   7.442   4.536 -1.2367 -1.3960 -0.5798
   78MOL0     H10749   3.118   7.205   4.625 -0.3758  1.8067  0.8218
   78MOL0     H10750   3.304   6.792   4.407 -2.0779  2.8198 -0.7372
   78MOL0     H10751   3.353   6.557   4.431  1.9807  1.6620  0.8390
   78MOL0     H10752   3.163   6.264   4.451 -0.6975  0.0645  0.1898
   78MOL0     H10753   3.322   6.338   4.424  0.1692  1.9332  0.9533
   78MOL0     H10754   3.286   6.156   4.657 -0.4748  0.8507  0.0460
   78MOL0     H10755   3.432   6.224   4.584 -0.5031  1.9289 -0.7788
   78MOL0     H10756   3.273   5.991   4.468 -0.8923  1.9719 -1.2110
   78MOL0     H10757   3.394   6.080   4.379 -2.4961  1.1272 -0.7165
   78MOL0     H10758   3.564   6.057   4.548  0.1427 -0.4786 -0.2299
   78MOL0     H10759   3.505   5.899   4.494  0.7788 -1.0624  1.1546
   78MOL0     H10760   3.415   5.863   4.899 -0.3380 -0.6613  0.2111
   78MOL0     H10761   3.092   6.517   4.763  3.3209 -0.5673  0.6039
   78MOL0     H10762   3.032   6.712   4.883 -1.4324  1.3850  1.6091
   78MOL0     H10763   3.078   6.870   4.814 -2.1952  0.0444  2.2926
   78MOL0     H10764   2.927   6.783   4.753 -1.1648 -0.3801  0.9761
   79MOL0     O10765   4.211   7.572   4.752 -0.0844 -0.5888  0.3387
   79MOL0     C10766   4.128   7.623   4.673  0.3292  0.7587 -0.9476
   79MOL0     O10767   4.088   7.564   4.555  0.9624  0.3020 -0.5495
   79MOL0     C10768   4.185   7.484   4.495 -0.7446  0.2463  0.2901
   79MOL0     C10769   4.169   7.350   4.468 -0.1708 -0.0912 -0.9378
   79MOL0     C10770   4.274   7.269   4.413  1.5285  0.0029  0.3713
   79MOL0     C10771   4.392   7.330   4.375 -0.8923 -0.0451 -0.1406
   79MOL0     O10772   4.490   7.242   4.322 -0.5985 -0.0215  0.1952
   79MOL0     C10773   4.624   7.274   4.274 -0.3021 -0.2928  0.0832
   79MOL0     C10774   4.723   7.312   4.384 -0.5400 -0.7139  0.4752
   79MOL0     C10775   4.779   7.195   4.460  0.2681  0.2253  0.1926
   79MOL0     C10776   4.886   7.228   4.573  0.3870  0.0970 -0.1417
   79MOL0     C10777   4.811   7.242   4.707 -0.3306 -0.5183  0.9742
   79MOL0     C10778   4.914   7.247   4.817 -0.0105  0.9005  0.9397
   79MOL0     C10779   4.857   7.252   4.965 -0.7356 -0.3087 -0.0050
   79MOL0     C10780   4.977   7.245   5.053 -0.1087 -1.0257 -0.7672
   79MOL0     N10781   5.046   7.122   5.083  0.1423  0.0259  0.9080
   79MOL0     C10782   5.156   7.072   5.016  0.0706  1.1929  0.0623
   79MOL0     C10783   5.191   6.968   5.088 -0.4406 -0.0196  0.6148
   79MOL0     C10784   5.327   6.890   5.076  0.4431  0.3618 -0.5362
   79MOL0     C10785   5.451   6.979   5.043 -0.4163 -0.4465 -0.3675
   79MOL0     C10786   5.590   6.900   5.032  0.1494 -0.7144  0.8112
   79MOL0     C10787   5.649   6.894   5.170  0.1162  0.0701 -0.1968
   79MOL0     O10788   5.790   6.895   5.156 -0.2108  0.3887  0.5839
   79MOL0     C10789   5.861   7.003   5.180 -0.3830 -0.1330 -1.1226
   79MOL0     C10790   5.799   7.128   5.204 -0.0705  0.8590 -0.3490
   79MOL0     C10791   5.881   7.236   5.232  0.5182  0.0284 -0.4231
   79MOL0     C10792   5.817   7.367   5.264  0.4939 -0.9194  0.3844
   79MOL0     C10793   6.023   7.215   5.227  0.2624 -0.0198 -0.5485
   79MOL0     C10794   6.116   7.325   5.259  0.5267 -0.1217 -0.0561
   79MOL0     O10795   6.241   7.308   5.198  0.1412 -0.2505  0.2771
   79MOL0     C10796   6.327   7.413   5.231  0.3812 -0.3258 -0.1656
   79MOL0     C10797   6.303   7.545   5.194 -0.4146 -0.4045 -0.1452
   79MOL0     C10798   6.399   7.647   5.220 -1.0344  0.9634 -0.0988
   79MOL0     C10799   6.526   7.616   5.274 -0.8735 -0.2744  0.6194
   79MOL0     O10800   6.613   7.714   5.294  0.4828  1.0735 -0.3025
   79MOL0     C10801   6.739   7.702   5.361 -0.1288 -0.7588  0.4298
   79MOL0     C10802   6.725   7.707   5.512 -0.3065 -0.2422  0.1123
   79MOL0     C10803   6.669   7.852   5.565  0.4096  0.1344 -0.7129
   79MOL0     C10804   6.618   7.850   5.707  0.3372  0.4858 -0.1667
   79MOL0     C10805   6.602   7.994   5.763  0.0483 -0.1923  0.8103
   79MOL0     C10806   6.529   8.012   5.892 -0.0584  1.0713 -0.2408
   79MOL0     C10807   6.568   7.936   6.016 -0.3851  0.4911  0.9938
   79MOL0     C10808   6.710   7.947   6.054  0.6401 -0.2820 -0.1135
   79MOL0    Cl10809   6.759   8.111   6.094  0.0428  0.0923  0.9572
   79MOL0     C10810   6.549   7.486   5.314  0.1217 -0.0239  0.3772
   79MOL0     C10811   6.459   7.387   5.288  0.4827  0.5933 -0.6234
   79MOL0     O10812   6.087   7.404   5.344 -0.0203 -0.0222  0.3062
   79MOL0     C10813   6.083   7.090   5.197  0.7098  0.3775  0.1554
   79MOL0     C10814   5.994   6.985   5.171  0.8769  0.0208  0.3246
   79MOL0     N10815   5.092   6.951   5.186 -0.2572 -0.7333 -0.4138
   79MOL0     N10816   5.004   7.046   5.187 -0.7370 -0.1686 -0.4685
   79MOL0     C10817   4.411   7.468   4.392 -0.4053 -0.9548  0.1248
   79MOL0     C10818   4.304   7.534   4.459 -0.5104  0.1297  0.9374
   79MOL0     C10819   4.063   7.752   4.718  0.5376 -0.2113  0.1283
   79MOL0     C10820   4.130   7.829   4.812 -0.0735 -0.1510  0.0271
   79MOL0     C10821   4.074   7.943   4.867  0.5926  0.9367 -0.0746
   79MOL0     C10822   3.949   7.985   4.827 -0.2757  0.2029  0.4789
   79MOL0     O10823   3.878   8.089   4.885  0.4858 -0.0994  0.3687
   79MOL0     C10824   3.836   8.207   4.812  0.2328 -0.4318 -0.8405
   79MOL0     C10825   3.679   8.219   4.795 -0.3891  0.9215  0.2135
   79MOL0     C10826   3.598   8.198   4.918  0.2001  0.4008 -0.1874
   79MOL0     C10827   3.448   8.189   4.901  0.5041  0.1895 -0.2212
   79MOL0     C10828   3.404   8.073   4.824  0.1543 -0.3359 -0.3728
   79MOL0     C10829   3.364   7.972   4.774  0.3768  0.0653  0.5210
   79MOL0     C10830   3.883   7.925   4.726 -0.7163  0.6719  0.2273
   79MOL0     C10831   3.943   7.806   4.670  0.7258 -1.1597  0.5516
   79MOL0     C10832   3.869   7.748   4.551 -0.3340 -0.5492 -0.2378
   79MOL0     H10833   4.071   7.304   4.474 -0.3900  0.0169 -2.9645
   79MOL0     H10834   4.261   7.166   4.382 -0.7630  0.2756  0.2290
   79MOL0     H10835   4.617   7.351   4.197 -2.5075 -0.4171  0.0803
   79MOL0     H10836   4.675   7.193   4.220  0.7028  1.2188 -1.3200
   79MOL0     H10837   4.795   7.383   4.343  0.5042 -1.5000  0.8888
   79MOL0     H10838   4.670   7.375   4.457 -0.7277 -0.8212  0.4309
   79MOL0     H10839   4.690   7.152   4.506  1.2662  0.4040  2.4009
   79MOL0     H10840   4.840   7.137   4.389  1.3637 -0.0885  1.3502
   79MOL0     H10841   4.959   7.147   4.581  0.7791  0.3181 -1.3698
   79MOL0     H10842   4.944   7.318   4.555  0.4543  1.4742  5.1807
   79MOL0     H10843   4.742   7.157   4.716 -0.6235 -0.5991 -1.4020
   79MOL0     H10844   4.758   7.337   4.716  1.0663  0.3296  0.5277
   79MOL0     H10845   4.978   7.158   4.807 -1.1370  0.2366 -0.8657
   79MOL0     H10846   4.977   7.334   4.800 -0.1949  1.0480  1.0118
   79MOL0     H10847   4.778   7.178   4.981 -2.7571  1.0755 -2.7231
   79MOL0     H10848   4.806   7.348   4.982  0.0103  0.4243 -1.7135
   79MOL0     H10849   5.045   7.319   5.010 -0.5991  1.1898  1.9925
   79MOL0     H10850   4.952   7.285   5.152  0.7611 -0.1801 -0.8722
   79MOL0     H10851   5.208   7.119   4.933  0.4012 -3.0307 -2.3622
   79MOL0     H10852   5.316   6.803   5.010 -3.0437  1.2242 -1.3154
   79MOL0     H10853   5.324   6.849   5.177 -0.1762 -2.3597 -1.5586
   79MOL0     H10854   5.420   7.029   4.950 -2.0166  0.6511  0.6886
   79MOL0     H10855   5.463   7.066   5.109  0.2096 -0.4809 -0.4357
   79MOL0     H10856   5.581   6.799   4.990  1.5163 -0.6211  0.2344
   79MOL0     H10857   5.651   6.961   4.965 -2.4670 -0.7701 -1.8244
   79MOL0     H10858   5.602   6.963   5.240  1.7461  0.0425  0.9843
   79MOL0     H10859   5.620   6.805   5.228  0.2853  1.1722  1.6455
   79MOL0     H10860   5.693   7.148   5.197 -0.6385 -0.4951  2.6761
   79MOL0     H10861   5.722   7.365   5.210  1.2976 -1.5482 -1.0345
   79MOL0     H10862   5.877   7.454   5.236  1.9469 -2.5259 -1.7965
   79MOL0     H10863   5.798   7.358   5.372  0.2048  2.1991  0.7073
   79MOL0     H10864   6.207   7.567   5.148 -1.2056 -1.2021  1.0573
   79MOL0     H10865   6.377   7.750   5.191  2.9209  2.1454  0.5010
   79MOL0     H10866   6.794   7.613   5.328  0.2191 -0.7440  0.9632
   79MOL0     H10867   6.800   7.787   5.327  1.6951 -0.9762  2.9223
   79MOL0     H10868   6.661   7.625   5.544 -2.9838  1.6918  0.0642
   79MOL0     H10869   6.818   7.708   5.570 -1.5399  1.5513  2.2389
   79MOL0     H10870   6.581   7.872   5.503  1.7244 -0.3609 -2.8427
   79MOL0     H10871   6.756   7.918   5.561  0.3246  0.7500  3.4847
   79MOL0     H10872   6.687   7.797   5.772  0.4836  0.2125 -0.5418
   79MOL0     H10873   6.523   7.797   5.715  1.2907 -1.3588 -0.4909
   79MOL0     H10874   6.703   8.030   5.787  0.8200 -1.6191 -0.1422
   79MOL0     H10875   6.555   8.052   5.683  0.0075  0.7211  1.4710
   79MOL0     H10876   6.426   7.987   5.865 -0.4258  0.2968  1.7190
   79MOL0     H10877   6.532   8.116   5.926 -0.6030  0.4523  1.7945
   79MOL0     H10878   6.558   7.829   5.997  1.4958  0.4180  0.1996
   79MOL0     H10879   6.502   7.959   6.100  1.5587 -0.8565  2.9952
   79MOL0     H10880   6.772   7.916   5.970  1.6289 -0.2385  0.5745
   79MOL0     H10881   6.731   7.868   6.127  0.1675 -0.7100 -0.4358
   79MOL0     H10882   6.644   7.462   5.361  0.2886 -2.8166 -1.1490
   79MOL0     H10883   6.490   7.288   5.316  2.8775  1.1640 -1.0385
   79MOL0     H10884   6.189   7.076   5.176  0.6178 -1.5219  0.7706
   79MOL0     H10885   6.027   6.883   5.155  0.7963 -0.2750  1.8876
   79MOL0     H10886   4.497   7.520   4.350 -2.7931  0.6263 -3.3090
   79MOL0     H10887   4.311   7.641   4.476 -1.9833  0.7540 -1.7394
   79MOL0     H10888   4.224   7.792   4.852 -0.9261 -3.8745 -0.9884
   79MOL0     H10889   4.125   7.990   4.950  0.5504 -0.3904  0.7270
   79MOL0     H10890   3.865   8.286   4.883 -4.5553 -1.8942  3.3985
   79MOL0     H10891   3.876   8.218   4.711  0.6876  1.7482 -0.4739
   79MOL0     H10892   3.662   8.151   4.712 -0.2924  0.8323  0.2684
   79MOL0     H10893   3.654   8.312   4.742 -0.0453  1.5410  1.0961
   79MOL0     H10894   3.634   8.114   4.979  2.6940  1.1803 -0.4835
   79MOL0     H10895   3.606   8.283   4.987 -1.2607  0.8010 -0.4747
   79MOL0     H10896   3.404   8.281   4.861  0.8905  0.6903  0.4935
   79MOL0     H10897   3.396   8.178   4.997  0.8177  0.6420  0.0017
   79MOL0     H10898   3.311   7.887   4.737 -1.3694 -0.0002  2.9523
   79MOL0     H10899   3.791   7.964   4.682  0.6387  0.6441 -2.8659
   79MOL0     H10900   3.770   7.792   4.562 -0.0215 -0.3292  2.0806
   79MOL0     H10901   3.918   7.775   4.456 -2.7182 -0.5126 -1.5445
   79MOL0     H10902   3.849   7.641   4.560 -1.6028 -0.2716  0.4677
   80MOL0     O10903   4.879   2.878   6.684 -0.4846  0.2552 -0.3047
   80MOL0     C10904   4.858   2.996   6.661  0.2660 -0.3947 -0.5980
   80MOL0     O10905   4.952   3.092   6.628 -0.5047  0.8777  0.8235
   80MOL0     C10906   5.087   3.061   6.614 -0.0810  0.3946  0.3832
   80MOL0     C10907   5.165   2.992   6.714 -1.0923 -0.2655  0.0458
   80MOL0     C10908   5.305   2.974   6.681  1.0605 -1.0271  0.4272
   80MOL0     C10909   5.351   3.006   6.556 -0.8625 -0.5133 -0.9241
   80MOL0     O10910   5.485   2.987   6.550  0.2735 -0.6784 -0.3758
   80MOL0     C10911   5.554   3.010   6.422  0.3239 -0.2965 -0.1733
   80MOL0     C10912   5.704   2.986   6.456 -0.4102 -0.1886 -0.5795
   80MOL0     C10913   5.790   3.031   6.338 -0.6111 -0.4494  0.8119
   80MOL0     C10914   5.783   2.940   6.222  0.5142  0.1757 -0.3225
   80MOL0     C10915   5.875   2.974   6.109  0.1303 -0.5418 -0.1267
   80MOL0     C10916   5.820   2.931   5.972  0.1791 -0.5826 -0.2824
   80MOL0     C10917   5.748   3.053   5.915  0.4101 -0.0050 -0.5096
   80MOL0     C10918   5.663   3.013   5.790  0.0125  0.7087 -0.9699
   80MOL0     N10919   5.591   3.130   5.734  0.0481 -0.2406 -0.8133
   80MOL0     C10920   5.519   3.219   5.812 -0.3410  1.4060 -0.2037
   80MOL0     C10921   5.487   3.322   5.736  0.3814 -0.1682  0.0909
   80MOL0     C10922   5.384   3.420   5.785  0.6289 -0.2356  0.0980
   80MOL0     C10923   5.332   3.501   5.663  0.7004  1.0389  0.5620
   80MOL0     C10924   5.237   3.611   5.719 -0.0471 -0.3457  0.3052
   80MOL0     C10925   5.155   3.681   5.620  0.3726 -0.5675  0.6751
   80MOL0     O10926   5.109   3.798   5.682 -0.0481  0.4341 -0.6677
   80MOL0     C10927   4.982   3.783   5.726 -0.4470 -0.4693  0.3136
   80MOL0     C10928   4.950   3.782   5.866  1.1850  0.2371 -0.7684
   80MOL0     C10929   4.835   3.740   5.921  0.7647  0.5459 -0.0048
   80MOL0     C10930   4.826   3.752   6.073 -0.2474  0.1721 -0.4563
   80MOL0     C10931   4.739   3.680   5.834  1.0445 -0.7135 -0.5460
   80MOL0     C10932   4.617   3.615   5.884  0.3334 -0.0643 -0.3632
   80MOL0     O10933   4.545   3.554   5.795  0.4580 -0.4560 -0.0756
   80MOL0     C10934   4.422   3.514   5.831  0.7216  0.9641  0.1290
   80MOL0     C10935   4.398   3.379   5.872 -0.7396  0.2860  0.8406
   80MOL0     C10936   4.259   3.337   5.880  0.2512  0.8469  0.1512
   80MOL0     C10937   4.152   3.418   5.862  0.9178  0.3715 -0.4564
   80MOL0     O10938   4.023   3.361   5.866 -0.4033 -0.4483  0.3793
   80MOL0     C10939   3.908   3.441   5.837  0.3463  0.0091 -0.1825
   80MOL0     C10940   3.781   3.359   5.839  0.8791  0.6883  0.1969
   80MOL0     C10941   3.787   3.242   5.744 -0.4276  0.7571  0.3699
   80MOL0     C10942   3.809   3.276   5.593  0.9723  0.7258 -0.6416
   80MOL0     C10943   3.757   3.167   5.505  0.4648  0.2828 -0.6697
   80MOL0     C10944   3.777   3.200   5.354  0.6484 -0.4139 -0.8135
   80MOL0     C10945   3.763   3.076   5.277 -0.4129  0.2014 -1.0655
   80MOL0     C10946   3.803   3.087   5.128  0.2447  0.3276 -0.5468
   80MOL0    Cl10947   3.844   2.928   5.053  0.1604 -0.3275  0.2972
   80MOL0     C10948   4.182   3.554   5.842 -0.1718 -0.2050 -0.1621
   80MOL0     C10949   4.308   3.601   5.808 -0.6619  0.3501 -0.2481
   80MOL0     O10950   4.576   3.638   6.000 -0.3398  0.2464  0.4507
   80MOL0     C10951   4.759   3.678   5.697 -1.6339  0.1748  0.4741
   80MOL0     C10952   4.879   3.736   5.643 -0.3597 -0.1634 -0.3355
   80MOL0     N10953   5.539   3.297   5.608 -0.1436 -0.3374 -0.5066
   80MOL0     N10954   5.600   3.187   5.614 -0.6809 -0.4702  0.2302
   80MOL0     C10955   5.264   3.049   6.454  0.2997  0.3195 -1.0302
   80MOL0     C10956   5.138   3.091   6.485  0.4244 -0.6580 -0.1202
   80MOL0     C10957   4.712   3.028   6.647  0.3456 -0.1702 -0.1976
   80MOL0     C10958   4.639   2.960   6.549 -0.0014 -0.3976 -1.2832
   80MOL0     C10959   4.499   2.978   6.547 -0.1320  0.6796 -0.9012
   80MOL0     C10960   4.431   3.052   6.644  0.3072 -0.4134 -0.1277
   80MOL0     O10961   4.291   3.061   6.656 -0.8595  0.6456 -0.6595
   80MOL0     C10962   4.216   2.990   6.555 -0.2753  0.4587  0.1076
   80MOL0     C10963   4.070   3.015   6.590  0.0933 -0.1017  0.9601
   80MOL0     C10964   4.031   2.981   6.737  0.4610 -0.7488 -0.1200
   80MOL0     C10965   3.881   2.983   6.752  0.0787 -0.6106 -0.0659
   80MOL0     C10966   3.842   3.126   6.737  0.1063  1.2198 -0.3611
   80MOL0     C10967   3.805   3.238   6.719 -0.3089 -0.7994  0.1576
   80MOL0     C10968   4.513   3.113   6.741  0.0342  0.0010 -0.7713
   80MOL0     C10969   4.650   3.095   6.750  0.6259  0.1757  0.7427
   80MOL0     C10970   4.738   3.167   6.852  0.5335  0.3748  0.2031
   80MOL0     H10971   5.119   2.960   6.806 -1.4650 -0.0119 -0.0519
   80MOL0     H10972   5.380   2.933   6.749  3.1857  1.3230 -0.3403
   80MOL0     H10973   5.546   3.116   6.394 -0.2847 -0.0046  1.0504
   80MOL0     H10974   5.516   2.936   6.352 -1.9067  0.0735  0.5555
   80MOL0     H10975   5.741   3.035   6.546  1.4595  0.6543 -1.7461
   80MOL0     H10976   5.723   2.879   6.469  1.2860  0.2323  0.6034
   80MOL0     H10977   5.764   3.128   6.294  0.2782  0.3598  2.0122
   80MOL0     H10978   5.895   3.045   6.368 -0.2112 -1.3851 -0.0876
   80MOL0     H10979   5.827   2.845   6.250 -2.6687 -1.3101  0.1434
   80MOL0     H10980   5.679   2.936   6.188 -0.7607  0.0389  3.2205
   80MOL0     H10981   5.966   2.913   6.122 -0.0481 -1.2203 -1.7610
   80MOL0     H10982   5.900   3.080   6.113 -0.6300 -0.3014 -1.2121
   80MOL0     H10983   5.912   2.902   5.920  2.1124  3.7371  0.3064
   80MOL0     H10984   5.760   2.839   5.976  0.6544 -0.8645  2.5615
   80MOL0     H10985   5.813   3.136   5.887  1.9052 -1.9100 -3.1705
   80MOL0     H10986   5.675   3.077   5.992 -1.0050 -0.6690 -1.5943
   80MOL0     H10987   5.733   2.981   5.714  0.2205  1.7149 -1.2196
   80MOL0     H10988   5.608   2.924   5.821  4.8929 -2.0966  0.7086
   80MOL0     H10989   5.496   3.201   5.917  1.2232 -2.0131 -0.3429
   80MOL0     H10990   5.433   3.492   5.852 -2.4312  1.3499  0.8242
   80MOL0     H10991   5.302   3.370   5.838 -2.3322  1.5031 -2.4975
   80MOL0     H10992   5.412   3.543   5.602  0.1284 -1.0681 -1.8248
   80MOL0     H10993   5.285   3.420   5.606  0.0330  1.0401  1.1032
   80MOL0     H10994   5.178   3.555   5.791 -0.2178 -1.1353 -0.4323
   80MOL0     H10995   5.298   3.683   5.775 -1.8654  2.2428 -0.8199
   80MOL0     H10996   5.224   3.696   5.538  0.4644 -2.2978  0.4013
   80MOL0     H10997   5.080   3.605   5.593 -1.2119  0.5786  1.6350
   80MOL0     H10998   5.026   3.820   5.934 -0.8097  1.7333  0.7553
   80MOL0     H10999   4.799   3.659   6.123 -1.8141  1.1831  0.6882
   80MOL0     H11000   4.747   3.823   6.102 -3.3601 -3.1777  0.0105
   80MOL0     H11001   4.920   3.779   6.122  0.7425 -0.0223 -2.1770
   80MOL0     H11002   4.477   3.308   5.897 -1.4387 -0.7676  0.1625
   80MOL0     H11003   4.240   3.238   5.919 -1.5725  1.5813  1.3001
   80MOL0     H11004   3.900   3.519   5.912 -0.7287  3.6136 -3.6890
   80MOL0     H11005   3.933   3.489   5.742  1.3328  1.0563  0.5817
   80MOL0     H11006   3.753   3.327   5.940 -1.9346  0.9074 -0.4216
   80MOL0     H11007   3.699   3.421   5.801  0.9689  1.3357  1.0342
   80MOL0     H11008   3.691   3.190   5.750  1.7135 -3.4343  2.2336
   80MOL0     H11009   3.862   3.169   5.775  0.9845  1.3373 -1.4762
   80MOL0     H11010   3.916   3.297   5.589  1.0115  0.4461 -1.2391
   80MOL0     H11011   3.750   3.367   5.575 -1.9720  0.0402  3.9449
   80MOL0     H11012   3.814   3.079   5.536 -1.2262  0.3286  3.0189
   80MOL0     H11013   3.652   3.145   5.526  1.5484 -4.5328  1.0310
   80MOL0     H11014   3.873   3.252   5.352 -1.2996  3.9056  2.4901
   80MOL0     H11015   3.692   3.261   5.323 -0.2218 -1.0864  0.1778
   80MOL0     H11016   3.662   3.036   5.291 -0.9934  1.4070 -1.6179
   80MOL0     H11017   3.838   3.005   5.312  1.1296  1.7707 -1.0419
   80MOL0     H11018   3.887   3.157   5.124 -1.2072  2.0760 -2.7344
   80MOL0     H11019   3.725   3.128   5.062 -1.7325 -0.0762  1.4142
   80MOL0     H11020   4.105   3.630   5.836  2.0412  2.2495  0.8318
   80MOL0     H11021   4.319   3.705   5.777 -1.3831  1.2198  2.2165
   80MOL0     H11022   4.693   3.627   5.627 -0.1424 -0.7149 -0.3214
   80MOL0     H11023   4.897   3.743   5.536  3.6649  2.4401  0.2927
   80MOL0     H11024   5.287   3.061   6.349  3.0053 -0.2627 -0.5879
   80MOL0     H11025   5.069   3.125   6.409  0.1558  1.8426  1.1585
   80MOL0     H11026   4.687   2.904   6.470  0.2528 -0.6537 -0.9492
   80MOL0     H11027   4.436   2.914   6.486  0.4317 -2.7194  1.8134
   80MOL0     H11028   4.230   3.030   6.454  2.6608  2.2573  1.1036
   80MOL0     H11029   4.235   2.883   6.560  0.2405  0.4259 -1.7364
   80MOL0     H11030   4.016   2.938   6.533  0.2881 -0.5012  1.3037
   80MOL0     H11031   4.047   3.119   6.565  0.3938 -0.2703 -0.0715
   80MOL0     H11032   4.059   2.883   6.778 -0.6850 -0.6632  0.9580
   80MOL0     H11033   4.075   3.049   6.810  0.3549 -1.9018  1.0608
   80MOL0     H11034   3.854   2.955   6.854  0.4681 -0.6229  0.0357
   80MOL0     H11035   3.827   2.916   6.684  0.9356  1.4322 -2.9084
   80MOL0     H11036   3.763   3.335   6.707  0.8384 -0.3037 -0.0224
   80MOL0     H11037   4.462   3.177   6.812  2.7706 -2.2344  3.6212
   80MOL0     H11038   4.792   3.245   6.798 -1.9114 -1.0599 -4.8948
   80MOL0     H11039   4.683   3.196   6.942  0.6867 -1.1155  0.8196
   80MOL0     H11040   4.824   3.109   6.887  1.3678  0.7557 -1.1536
   81MOL0     O11041   0.923   7.536  11.428  0.5532 -0.0527 -0.1711
   81MOL0     C11042   1.043   7.511  11.448  0.2282 -0.2234  0.2350
   81MOL0     O11043   1.140   7.488  11.354  0.3627  0.5014 -0.3566
   81MOL0     C11044   1.117   7.504  11.222 -0.8488 -0.0525 -0.4977
   81MOL0     C11045   1.017   7.587  11.175 -0.8242 -0.7003 -0.4027
   81MOL0     C11046   1.009   7.610  11.035  0.8161 -0.2487  0.0252
   81MOL0     C11047   1.092   7.555  10.939  0.1880  0.0384  0.4259
   81MOL0     O11048   1.070   7.579  10.804  0.8428 -0.9044  0.7236
   81MOL0     C11049   1.135   7.503  10.711  0.3268 -0.5842  0.1617
   81MOL0     C11050   1.070   7.533  10.573  1.0984  0.1142  0.6880
   81MOL0     C11051   1.079   7.680  10.529  0.2047  0.1328 -0.4070
   81MOL0     C11052   1.220   7.733  10.501 -0.0785 -0.0802  0.5700
   81MOL0     C11053   1.285   7.655  10.379 -0.9232 -0.1992 -0.0104
   81MOL0     C11054   1.415   7.711  10.326 -0.2584  0.3010 -0.0068
   81MOL0     C11055   1.540   7.630  10.388 -0.1618  0.2629  0.4190
   81MOL0     C11056   1.677   7.698  10.360 -0.1590  0.2077  0.2448
   81MOL0     N11057   1.699   7.695  10.213  0.2729  0.2331 -0.2288
   81MOL0     C11058   1.714   7.573  10.143 -0.3451 -0.3721  0.3760
   81MOL0     C11059   1.734   7.610  10.017  0.2442 -0.2287 -1.1865
   81MOL0     C11060   1.761   7.522   9.901 -0.3562 -0.0267  0.4016
   81MOL0     C11061   1.824   7.594   9.774 -0.2360  0.6388  0.5778
   81MOL0     C11062   1.714   7.671   9.691 -0.0978 -0.0215  1.1858
   81MOL0     C11063   1.696   7.819   9.715 -0.6966  0.3589 -0.2931
   81MOL0     O11064   1.640   7.887   9.602  0.4666  0.0701 -0.0150
   81MOL0     C11065   1.512   7.862   9.560 -0.2251  0.2845 -1.2996
   81MOL0     C11066   1.473   7.923   9.447 -0.7211 -0.6226  0.9083
   81MOL0     C11067   1.341   7.908   9.391 -0.0045  0.5989 -0.3689
   81MOL0     C11068   1.329   7.967   9.251  0.3123 -0.1871  0.1460
   81MOL0     C11069   1.241   7.830   9.462  0.2977  0.0514 -0.0655
   81MOL0     C11070   1.111   7.791   9.413  1.1816 -0.0595 -0.1795
   81MOL0     O11071   1.092   7.803   9.278  0.0961 -0.9347 -0.1167
   81MOL0     C11072   0.974   7.770   9.219 -0.1615 -0.0512 -0.2943
   81MOL0     C11073   0.924   7.865   9.128  0.3281 -0.6345  0.0492
   81MOL0     C11074   0.808   7.838   9.066 -0.8009 -0.0300  0.0249
   81MOL0     C11075   0.749   7.707   9.087  0.1130  0.0651 -0.9038
   81MOL0     O11076   0.643   7.654   9.021 -0.4697  0.9057 -0.5659
   81MOL0     C11077   0.581   7.717   8.915 -1.4232  0.1358 -0.8091
   81MOL0     C11078   0.633   7.677   8.778  0.0201 -0.4789  0.3035
   81MOL0     C11079   0.783   7.664   8.760  0.5010  0.5711 -0.5378
   81MOL0     C11080   0.810   7.626   8.616  0.3465 -0.2816  0.4681
   81MOL0     C11081   0.965   7.584   8.601  0.3260  0.2382  0.2054
   81MOL0     C11082   1.062   7.707   8.610 -0.3426 -0.0271 -0.1396
   81MOL0     C11083   1.200   7.659   8.581  0.0821  0.6402  0.4369
   81MOL0     C11084   1.311   7.769   8.583  0.0139  0.7814 -0.5162
   81MOL0    Cl11085   1.286   7.880   8.448  0.1008  0.2536 -0.3292
   81MOL0     C11086   0.812   7.611   9.171 -0.1456 -0.2989  0.4230
   81MOL0     C11087   0.920   7.649   9.238 -0.1928 -0.2761  0.0832
   81MOL0     O11088   1.027   7.773   9.496  0.1845 -0.9536 -0.1140
   81MOL0     C11089   1.279   7.773   9.585 -1.0749 -0.2039 -0.3702
   81MOL0     C11090   1.410   7.792   9.637  0.1337  0.0291  0.6383
   81MOL0     N11091   1.703   7.745  10.009  0.4598 -0.1040  0.3950
   81MOL0     N11092   1.673   7.796  10.118  0.6560 -0.8706 -0.2097
   81MOL0     C11093   1.193   7.481  10.991 -0.2609 -0.0935  0.5378
   81MOL0     C11094   1.207   7.453  11.130 -0.4929 -0.8911  0.6694
   81MOL0     C11095   1.078   7.500  11.596 -1.3923  0.6225 -0.7341
   81MOL0     C11096   1.179   7.414  11.640 -0.3683 -0.3334  0.0892
   81MOL0     C11097   1.206   7.380  11.773  0.7886  0.4258 -0.2996
   81MOL0     C11098   1.128   7.439  11.871  0.0547  0.0170 -1.1069
   81MOL0     O11099   1.150   7.411  12.008 -0.4611 -0.1897  0.0478
   81MOL0     C11100   1.275   7.363  12.054  0.4277 -0.4151 -0.5638
   81MOL0     C11101   1.361   7.484  12.091  0.4455  0.8351 -0.3228
   81MOL0     C11102   1.505   7.453  12.128  0.1421  0.1622  0.0159
   81MOL0     C11103   1.614   7.479  12.028 -0.0905 -0.1541  0.2455
   81MOL0     C11104   1.587   7.405  11.903 -0.8254  0.3641 -0.8376
   81MOL0     C11105   1.566   7.349  11.798  0.0749  0.4308  0.4272
   81MOL0     C11106   1.030   7.528  11.833  0.0818  0.1879 -0.2953
   81MOL0     C11107   1.002   7.560  11.702  0.3531  0.2206 -0.1599
   81MOL0     C11108   0.892   7.659  11.684 -0.0968 -0.6851 -0.5583
   81MOL0     H11109   0.946   7.641  11.237 -0.3628 -2.4877  1.8707
   81MOL0     H11110   0.934   7.685  11.012 -2.5428 -3.3281  0.1765
   81MOL0     H11111   1.112   7.397  10.723  0.0461 -1.1673 -4.0997
   81MOL0     H11112   1.242   7.526  10.717  0.2590  0.5301 -2.0311
   81MOL0     H11113   1.102   7.456  10.503 -1.8206 -0.4762 -0.1465
   81MOL0     H11114   0.964   7.511  10.593  1.0560  0.7087  1.1780
   81MOL0     H11115   1.018   7.693  10.440  0.9828 -1.1132 -1.1538
   81MOL0     H11116   1.039   7.742  10.610  1.9765 -0.3550  0.9140
   81MOL0     H11117   1.221   7.840  10.477 -0.5844 -0.1890  0.0356
   81MOL0     H11118   1.275   7.703  10.590  0.7525  1.4871  0.6149
   81MOL0     H11119   1.212   7.672  10.299 -1.1805  1.0035  0.4646
   81MOL0     H11120   1.281   7.546  10.391  2.2597 -0.3976  0.0256
   81MOL0     H11121   1.425   7.680  10.222  1.0341 -0.7158  0.3789
   81MOL0     H11122   1.421   7.818  10.348  1.8282  0.0247  1.1273
   81MOL0     H11123   1.543   7.534  10.335 -1.7083  0.6331 -0.4180
   81MOL0     H11124   1.522   7.610  10.494  0.9366  1.5815  0.8785
   81MOL0     H11125   1.680   7.802  10.393  0.0471 -0.2506  1.7270
   81MOL0     H11126   1.753   7.640  10.414  2.3424  0.0412 -3.1379
   81MOL0     H11127   1.728   7.472  10.181  2.2411  0.0095  0.6074
   81MOL0     H11128   1.662   7.493   9.865  0.0125  0.2849 -0.9168
   81MOL0     H11129   1.825   7.438   9.928 -1.7437 -0.8277  1.2648
   81MOL0     H11130   1.912   7.657   9.786  1.3062 -1.6648  2.2913
   81MOL0     H11131   1.861   7.505   9.723 -0.6873  0.5804  0.3475
   81MOL0     H11132   1.738   7.655   9.585 -2.2711 -0.5447  0.7239
   81MOL0     H11133   1.618   7.618   9.691 -1.8524  2.9346  0.6334
   81MOL0     H11134   1.637   7.847   9.803  1.5861  0.4373  1.3130
   81MOL0     H11135   1.792   7.871   9.724 -1.3058  1.7696 -1.5626
   81MOL0     H11136   1.550   7.971   9.387 -1.8673 -2.3517 -2.2021
   81MOL0     H11137   1.343   7.876   9.192  0.0249 -1.4411  1.9372
   81MOL0     H11138   1.400   8.048   9.230  0.0917 -0.0872 -0.2221
   81MOL0     H11139   1.229   8.007   9.229  1.0179  1.6081  0.0010
   81MOL0     H11140   0.983   7.954   9.107  0.6818 -1.2687 -1.8061
   81MOL0     H11141   0.755   7.915   9.012 -1.9614 -0.2758  0.7625
   81MOL0     H11142   0.472   7.703   8.919 -1.0921 -2.5322  0.8072
   81MOL0     H11143   0.603   7.824   8.913 -0.2372 -0.0782 -3.3839
   81MOL0     H11144   0.589   7.584   8.741 -1.0751 -0.1420  0.7188
   81MOL0     H11145   0.594   7.753   8.709  3.1322  0.2563 -0.8016
   81MOL0     H11146   0.826   7.589   8.827  1.7753  0.1966 -1.7475
   81MOL0     H11147   0.832   7.759   8.783  1.7883  0.9417 -4.2286
   81MOL0     H11148   0.782   7.716   8.559  0.4193 -1.0754 -0.8822
   81MOL0     H11149   0.758   7.533   8.591 -1.4312  0.4060  1.4048
   81MOL0     H11150   0.988   7.509   8.677 -2.4128 -0.3440  0.5552
   81MOL0     H11151   0.976   7.538   8.503  1.5882  1.2110 -0.1245
   81MOL0     H11152   1.076   7.740   8.713  3.6290  1.0572 -0.8666
   81MOL0     H11153   1.029   7.798   8.558  0.2097  1.8775  2.6477
   81MOL0     H11154   1.210   7.596   8.492  2.7352 -0.8385  1.6696
   81MOL0     H11155   1.234   7.596   8.663  1.4706 -1.1490 -1.4274
   81MOL0     H11156   1.410   7.724   8.577 -0.1706  0.0022  1.5240
   81MOL0     H11157   1.301   7.835   8.670 -4.6778 -0.8397  0.4491
   81MOL0     H11158   0.771   7.511   9.181  0.2474 -0.3271  1.9672
   81MOL0     H11159   0.964   7.580   9.310  0.7768  2.0269  1.8253
   81MOL0     H11160   1.207   7.732   9.655  0.9086 -0.4851  1.6228
   81MOL0     H11161   1.423   7.766   9.741  1.8481  0.0453  0.4605
   81MOL0     H11162   1.256   7.429  10.919 -3.6640 -1.1749 -1.9065
   81MOL0     H11163   1.287   7.392  11.171 -0.6666  0.3586  3.1103
   81MOL0     H11164   1.243   7.361  11.570 -0.5579 -2.5270  1.4778
   81MOL0     H11165   1.289   7.312  11.794 -0.1422 -0.9468 -0.8930
   81MOL0     H11166   1.240   7.310  12.143  0.5585  0.5070  0.0540
   81MOL0     H11167   1.343   7.293  12.005  4.7697  3.6767 -1.1271
   81MOL0     H11168   1.313   7.537  12.174 -0.4170 -3.1397  1.9719
   81MOL0     H11169   1.362   7.550  12.004  0.0359  0.3571 -0.6969
   81MOL0     H11170   1.541   7.511  12.214 -0.1090  3.3944 -1.9065
   81MOL0     H11171   1.504   7.348  12.160 -0.8556  0.3996  0.8204
   81MOL0     H11172   1.710   7.434  12.054 -1.8385 -5.2636 -0.8852
   81MOL0     H11173   1.622   7.585  12.001 -0.8652 -0.7010 -2.4835
   81MOL0     H11174   1.555   7.309  11.699  1.6695 -2.2782  1.2495
   81MOL0     H11175   0.973   7.572  11.914  0.2250  2.2224 -1.2410
   81MOL0     H11176   0.912   7.739  11.613 -1.0175  2.8899  2.8610
   81MOL0     H11177   0.799   7.604  11.662  0.3547 -1.7928  0.2042
   81MOL0     H11178   0.882   7.715  11.777  0.6269  2.7837 -2.4157
   82MOL0     O11179   6.840  10.340   7.337 -0.2191 -0.3215  0.3999
   82MOL0     C11180   6.887  10.383   7.231 -0.1593  0.5493 -0.4416
   82MOL0     O11181   6.918  10.304   7.124 -0.0108 -0.3139  1.0839
   82MOL0     C11182   6.892  10.167   7.120  0.3244  0.4089  0.2885
   82MOL0     C11183   6.825  10.104   7.012 -0.6076  0.2090  1.0862
   82MOL0     C11184   6.800   9.969   7.007 -0.3349 -0.3575 -0.1554
   82MOL0     C11185   6.873   9.883   7.096  1.2907  0.3060  0.0325
   82MOL0     O11186   6.862   9.747   7.081 -0.8012 -0.2164 -0.2978
   82MOL0     C11187   6.856   9.665   7.205  0.6869  0.2804  0.1425
   82MOL0     C11188   6.760   9.538   7.174 -0.1569 -0.0939 -0.5036
   82MOL0     C11189   6.827   9.445   7.075 -0.5147 -0.1187  0.4576
   82MOL0     C11190   6.719   9.342   7.035  0.4693  0.9729  0.2033
   82MOL0     C11191   6.759   9.209   7.097  0.6524  0.5407 -0.0114
   82MOL0     C11192   6.669   9.109   7.021 -0.4791 -0.3306  0.1973
   82MOL0     C11193   6.696   8.973   7.063  0.8167  0.5027 -0.4479
   82MOL0     C11194   6.587   8.874   7.032  0.0587  0.1841 -0.0840
   82MOL0     N11195   6.631   8.736   7.020 -0.1156 -0.6135  0.0508
   82MOL0     C11196   6.623   8.638   7.121  0.0313 -0.1961 -0.9503
   82MOL0     C11197   6.677   8.532   7.059  1.1581 -0.2328  0.2964
   82MOL0     C11198   6.707   8.407   7.131 -0.1186 -0.2532 -0.3775
   82MOL0     C11199   6.603   8.308   7.158  0.7987 -0.3992 -0.1666
   82MOL0     C11200   6.647   8.192   7.254 -0.2339  0.4885 -0.1214
   82MOL0     C11201   6.558   8.061   7.247 -0.6596  0.6218  0.6694
   82MOL0     O11202   6.559   7.993   7.118  0.3721  0.2388 -0.6876
   82MOL0     C11203   6.523   7.862   7.115  0.3170 -0.1260  0.9131
   82MOL0     C11204   6.469   7.788   7.222 -0.8450  0.3170  0.2989
   82MOL0     C11205   6.418   7.658   7.211 -0.2938 -0.2310 -0.3381
   82MOL0     C11206   6.364   7.591   7.334  0.0613 -0.2206 -0.6596
   82MOL0     C11207   6.418   7.600   7.085  0.2397 -0.7318 -0.0691
   82MOL0     C11208   6.373   7.459   7.051  0.7008  0.8986  0.3334
   82MOL0     O11209   6.417   7.362   7.146  0.0646  0.8375  0.0794
   82MOL0     C11210   6.391   7.227   7.125  0.0636  0.7595 -0.6579
   82MOL0     C11211   6.427   7.163   7.012 -0.7793  0.1925 -0.4321
   82MOL0     C11212   6.398   7.019   7.002 -0.6562 -0.2323  0.8654
   82MOL0     C11213   6.341   6.941   7.106  0.5414  0.2216  0.3476
   82MOL0     O11214   6.305   6.807   7.100 -0.1820 -0.4246 -0.1614
   82MOL0     C11215   6.297   6.747   6.965  0.3299 -0.7303 -0.2119
   82MOL0     C11216   6.160   6.661   6.971  0.2501  0.1495 -0.2407
   82MOL0     C11217   6.189   6.519   7.005 -0.3413 -0.4165  0.1012
   82MOL0     C11218   6.073   6.427   6.974  0.1398 -0.9642 -0.0238
   82MOL0     C11219   6.119   6.285   6.983 -0.8953  0.6673  0.0961
   82MOL0     C11220   6.010   6.196   6.928 -0.1745 -0.8723  0.5142
   82MOL0     C11221   6.043   6.043   6.940 -0.0839  0.0955 -0.4130
   82MOL0     C11222   5.931   5.954   6.885 -0.0619 -0.1555 -0.1736
   82MOL0    Cl11223   5.782   5.954   6.983  0.2527 -0.0530  0.1632
   82MOL0     C11224   6.319   7.017   7.224  0.6684 -0.5214  0.3348
   82MOL0     C11225   6.328   7.155   7.232  0.2336 -0.3634  0.1981
   82MOL0     O11226   6.311   7.442   6.944  0.3984  0.2096  0.4123
   82MOL0     C11227   6.466   7.669   6.976 -0.0028 -0.1978 -0.6261
   82MOL0     C11228   6.524   7.796   6.993 -0.8333 -0.3678 -0.2694
   82MOL0     N11229   6.720   8.564   6.932  0.3636  0.0792  0.1659
   82MOL0     N11230   6.695   8.686   6.905  0.0624  0.1063  0.3141
   82MOL0     C11231   6.941   9.938   7.201 -0.4218  0.4430 -0.1082
   82MOL0     C11232   6.950  10.075   7.207  0.1667 -0.8452 -0.8677
   82MOL0     C11233   6.909  10.530   7.206 -0.2299  1.1151 -0.1666
   82MOL0     C11234   6.941  10.575   7.073 -0.0077  0.6736  0.5409
   82MOL0     C11235   6.949  10.713   7.043 -1.3593 -0.7330  0.4151
   82MOL0     C11236   6.929  10.811   7.134  0.0375 -0.5171  0.9316
   82MOL0     O11237   6.939  10.940   7.095 -0.2548 -0.3570  0.8904
   82MOL0     C11238   6.992  11.041   7.181 -0.5531 -1.3064 -0.3908
   82MOL0     C11239   7.020  11.157   7.087  0.0475  0.7601 -0.2061
   82MOL0     C11240   7.064  11.267   7.175  0.2336  0.1315 -0.2512
   82MOL0     C11241   7.067  11.402   7.103  0.1865 -0.5275 -0.1295
   82MOL0     C11242   7.137  11.492   7.193 -0.6050  0.4488 -0.0752
   82MOL0     C11243   7.184  11.587   7.259 -0.0208 -0.1486 -0.4855
   82MOL0     C11244   6.912  10.768   7.268  0.1661 -0.3583 -0.7962
   82MOL0     C11245   6.897  10.633   7.309 -0.3626 -0.0411  0.8811
   82MOL0     C11246   6.875  10.590   7.453 -0.6883 -0.3630  0.8234
   82MOL0     H11247   6.781  10.166   6.935  2.3792  1.8831  0.5792
   82MOL0     H11248   6.726   9.920   6.945 -0.4243  0.1321 -0.4455
   82MOL0     H11249   6.818   9.730   7.283 -1.0739 -0.8131  0.2486
   82MOL0     H11250   6.949   9.618   7.240 -0.2049 -1.6222  0.0811
   82MOL0     H11251   6.735   9.487   7.267 -0.2614  1.7114  0.5071
   82MOL0     H11252   6.666   9.569   7.127  0.2222  1.0922 -0.5151
   82MOL0     H11253   6.856   9.501   6.986  2.4312 -2.7665 -0.4448
   82MOL0     H11254   6.907   9.391   7.127 -1.6028  1.5088  4.1256
   82MOL0     H11255   6.616   9.373   7.053  0.2808  0.3733  0.1685
   82MOL0     H11256   6.724   9.339   6.926 -1.6982 -0.4854  0.0874
   82MOL0     H11257   6.742   9.206   7.205 -1.8565 -1.1720 -0.3709
   82MOL0     H11258   6.861   9.175   7.075  0.5262  2.1308 -3.8954
   82MOL0     H11259   6.562   9.131   7.028 -0.2869  0.2382  1.5723
   82MOL0     H11260   6.699   9.129   6.918 -0.3118  2.3978  0.7088
   82MOL0     H11261   6.700   8.961   7.171 -0.6187 -2.8048 -0.6287
   82MOL0     H11262   6.792   8.935   7.026  0.9680 -1.7013  1.9796
   82MOL0     H11263   6.518   8.874   7.118 -0.3743 -3.0373 -0.3097
   82MOL0     H11264   6.531   8.891   6.939 -2.8409 -2.9381  0.8754
   82MOL0     H11265   6.594   8.645   7.225  1.0147  0.0011 -0.6786
   82MOL0     H11266   6.734   8.425   7.235  0.6725 -0.0943 -0.6026
   82MOL0     H11267   6.794   8.356   7.088  0.5761 -0.7121  1.4576
   82MOL0     H11268   6.516   8.359   7.201  2.3046 -0.1093  2.7900
   82MOL0     H11269   6.561   8.270   7.065 -3.2991 -1.3289  1.8470
   82MOL0     H11270   6.749   8.160   7.231  1.6574  2.5824  4.2118
   82MOL0     H11271   6.636   8.230   7.356 -4.7005  1.2599 -0.7012
   82MOL0     H11272   6.591   7.999   7.331  2.6021  3.6990  1.8983
   82MOL0     H11273   6.452   8.083   7.264 -0.5268  0.4027  1.8984
   82MOL0     H11274   6.448   7.830   7.320 -0.7507 -0.3402  0.6091
   82MOL0     H11275   6.433   7.523   7.385 -0.8305  1.4397  3.1110
   82MOL0     H11276   6.283   7.521   7.309 -1.7412  2.2465 -2.1835
   82MOL0     H11277   6.317   7.671   7.392  0.0678 -1.1769  0.7176
   82MOL0     H11278   6.478   7.219   6.935 -0.5537  1.9016  0.8988
   82MOL0     H11279   6.424   6.968   6.910 -2.5349 -0.4036  0.3909
   82MOL0     H11280   6.277   6.827   6.893  1.5273 -0.0291  0.2114
   82MOL0     H11281   6.389   6.692   6.942 -0.3007 -1.0278 -2.2804
   82MOL0     H11282   6.097   6.700   7.052  0.4536 -0.3887  0.1853
   82MOL0     H11283   6.114   6.662   6.873 -0.1818  0.1023 -0.0394
   82MOL0     H11284   6.226   6.506   7.107  0.4139  4.0441  0.6144
   82MOL0     H11285   6.271   6.482   6.943 -0.2579 -0.3131  0.1483
   82MOL0     H11286   6.042   6.436   6.870 -1.9940  1.0571  0.6807
   82MOL0     H11287   5.992   6.452   7.044  0.3143  0.3641 -0.2722
   82MOL0     H11288   6.204   6.281   6.914 -1.7782 -1.1233 -0.9563
   82MOL0     H11289   6.162   6.251   7.078  2.0157 -1.0400 -1.6793
   82MOL0     H11290   5.996   6.222   6.823 -0.1254 -0.0836  0.7007
   82MOL0     H11291   5.912   6.207   6.974 -1.0045 -3.0487 -0.5729
   82MOL0     H11292   6.073   6.024   7.043  1.1913 -0.1332 -0.8170
   82MOL0     H11293   6.121   6.008   6.873  0.5940 -1.4010  1.1016
   82MOL0     H11294   5.959   5.849   6.875  2.8406  0.6687 -2.0068
   82MOL0     H11295   5.899   5.986   6.786 -1.4615 -0.6694  0.1014
   82MOL0     H11296   6.284   6.956   7.307  2.0774 -1.0624  0.5562
   82MOL0     H11297   6.290   7.216   7.313 -0.4296 -2.7086  1.7643
   82MOL0     H11298   6.471   7.624   6.877 -3.0521 -0.3044 -0.8314
   82MOL0     H11299   6.583   7.843   6.915 -1.8998  0.0911 -0.8181
   82MOL0     H11300   7.002   9.874   7.264 -1.1675 -2.2556 -1.9499
   82MOL0     H11301   7.011  10.122   7.284 -0.2159  0.8818 -1.5626
   82MOL0     H11302   6.959  10.512   6.987 -0.0138  0.2646  0.8390
   82MOL0     H11303   6.968  10.751   6.943 -1.0771 -1.4537  0.1920
   82MOL0     H11304   6.913  11.067   7.251 -1.0406 -0.3685 -1.2549
   82MOL0     H11305   7.081  11.015   7.239  1.2699  3.0713 -0.8125
   82MOL0     H11306   6.932  11.182   7.029 -0.3102  1.1892  0.5059
   82MOL0     H11307   7.095  11.133   7.012  1.0730 -2.4517  1.6468
   82MOL0     H11308   7.007  11.269   7.268  1.3638 -1.3590  0.5261
   82MOL0     H11309   7.165  11.244   7.210  0.4998  0.1997 -0.9467
   82MOL0     H11310   6.969  11.450   7.096 -0.0139 -0.7791  0.7842
   82MOL0     H11311   7.114  11.402   7.005  0.5956  1.1971  0.0346
   82MOL0     H11312   7.233  11.656   7.324  0.2181  2.1363 -2.9446
   82MOL0     H11313   6.895  10.844   7.344 -2.3807 -1.0617 -0.5920
   82MOL0     H11314   6.864  10.679   7.517  1.6094  0.8716 -0.3689
   82MOL0     H11315   6.783  10.534   7.470 -0.3576 -0.8949  0.8694
   82MOL0     H11316   6.959  10.531   7.492  1.5032  0.3071 -2.4728
   83MOL0     O11317   1.619   7.557   6.850 -0.9165 -1.0962  0.1338
   83MOL0     C11318   1.736   7.578   6.822  1.3964 -0.2359  1.1793
   83MOL0     O11319   1.804   7.504   6.730  0.1871 -0.0771  0.2447
   83MOL0     C11320   1.766   7.384   6.683  1.1435  0.4673  0.3030
   83MOL0     C11321   1.717   7.287   6.766 -0.1600  0.0703 -0.1192
   83MOL0     C11322   1.674   7.170   6.717  0.0787  0.2620 -0.7227
   83MOL0     C11323   1.672   7.148   6.583  0.2375  0.6514  0.7419
   83MOL0     O11324   1.627   7.018   6.549 -0.5073  0.0971  0.2682
   83MOL0     C11325   1.645   6.969   6.412 -0.6106 -0.0555  0.2356
   83MOL0     C11326   1.580   6.832   6.390 -0.1551 -0.7520  0.1014
   83MOL0     C11327   1.571   6.749   6.518 -0.6574  0.1217 -0.3385
   83MOL0     C11328   1.551   6.600   6.500  0.0004  0.1184 -0.5293
   83MOL0     C11329   1.431   6.555   6.409  0.1102  0.8168 -0.3138
   83MOL0     C11330   1.415   6.404   6.414 -0.8474  0.4394 -0.5235
   83MOL0     C11331   1.317   6.361   6.304 -1.6485 -0.6669 -0.0904
   83MOL0     C11332   1.297   6.207   6.298 -0.9000 -0.1305  0.0516
   83MOL0     N11333   1.197   6.175   6.201 -0.0043 -0.2964 -0.3503
   83MOL0     C11334   1.071   6.120   6.234 -0.2142  0.6845  0.5849
   83MOL0     C11335   0.999   6.118   6.116  0.4366 -0.7082 -0.1221
   83MOL0     C11336   0.850   6.086   6.102  0.1278  0.0524 -0.5383
   83MOL0     C11337   0.824   5.944   6.159  0.4008 -0.2189  0.3947
   83MOL0     C11338   0.895   5.823   6.094  0.0407  0.4355 -1.1072
   83MOL0     C11339   0.937   5.731   6.221  0.4613  0.6022 -0.0153
   83MOL0     O11340   0.811   5.715   6.303 -0.6186  0.6626 -0.3947
   83MOL0     C11341   0.757   5.590   6.301  0.0926 -0.5148 -0.0228
   83MOL0     C11342   0.755   5.508   6.191  0.8746  1.2398 -0.4801
   83MOL0     C11343   0.703   5.375   6.200 -0.8682 -0.7564 -0.2394
   83MOL0     C11344   0.696   5.292   6.063 -0.4168  0.6804 -0.7547
   83MOL0     C11345   0.634   5.336   6.317  0.7112  0.8800 -0.2295
   83MOL0     C11346   0.561   5.206   6.340 -0.5361 -0.2250 -0.3469
   83MOL0     O11347   0.433   5.206   6.381  0.1879  0.2119  0.2355
   83MOL0     C11348   0.357   5.094   6.381 -0.3698  0.0513  0.2211
   83MOL0     C11349   0.268   5.086   6.486  0.1150  0.1184  0.8379
   83MOL0     C11350   0.172   4.981   6.489  0.1306 -0.1374 -0.2386
   83MOL0     C11351   0.156   4.888   6.383 -0.8013 -0.3452  1.2673
   83MOL0     O11352   0.073   4.789   6.401 -0.8190 -0.6223  0.5275
   83MOL0     C11353   0.094   4.669   6.325 -0.2520 -0.6135  0.3585
   83MOL0     C11354   0.025   4.546   6.391 -0.2800 -0.4800 -1.1115
   83MOL0     C11355  -0.131   4.558   6.383 -1.2770  0.7338 -0.1387
   83MOL0     C11356  -0.199   4.422   6.411 -0.3692  0.0262 -0.3931
   83MOL0     C11357  -0.343   4.440   6.399  0.1512 -1.1888 -0.3720
   83MOL0     C11358  -0.397   4.516   6.517  0.0407 -0.9586 -0.3561
   83MOL0     C11359  -0.549   4.529   6.535 -0.2710 -0.8234  0.0302
   83MOL0     C11360  -0.593   4.630   6.653  0.3303  0.3985 -0.3829
   83MOL0    Cl11361  -0.548   4.578   6.818 -0.1644  0.4089 -0.2406
   83MOL0     C11362   0.255   4.891   6.279 -0.9265 -0.8833 -0.9117
   83MOL0     C11363   0.360   4.994   6.278 -0.1365  0.8659 -0.4758
   83MOL0     O11364   0.628   5.107   6.322 -0.4369  0.0608  0.0516
   83MOL0     C11365   0.622   5.428   6.420 -0.2642 -0.2911 -0.0587
   83MOL0     C11366   0.690   5.549   6.414  0.2508  0.4426 -0.0027
   83MOL0     N11367   1.073   6.186   6.019  0.6303  0.3699  0.7585
   83MOL0     N11368   1.184   6.221   6.074 -0.0724  0.0815  0.5082
   83MOL0     C11369   1.728   7.241   6.498 -0.3577 -0.0731  0.1940
   83MOL0     C11370   1.775   7.365   6.545 -0.1269  1.1758 -0.6660
   83MOL0     C11371   1.804   7.673   6.912  0.1331  0.1095 -1.3920
   83MOL0     C11372   1.935   7.655   6.944 -0.3248  0.1429  0.1728
   83MOL0     C11373   2.010   7.749   7.018  0.8203  0.6230  0.5337
   83MOL0     C11374   1.949   7.854   7.082  0.4232  0.7343  0.9549
   83MOL0     O11375   2.029   7.925   7.174 -0.5084 -0.2623 -0.1276
   83MOL0     C11376   2.022   8.064   7.168 -0.0512 -0.2650  0.1973
   83MOL0     C11377   2.142   8.127   7.252  0.2244 -0.3448 -0.1526
   83MOL0     C11378   2.291   8.063   7.236 -0.5365  0.3515  1.3887
   83MOL0     C11379   2.378   8.141   7.333  0.3181  0.0196 -0.5767
   83MOL0     C11380   2.383   8.077   7.466 -0.5008 -0.2712  0.5056
   83MOL0     C11381   2.382   8.030   7.579 -1.0240 -0.1485 -0.2411
   83MOL0     C11382   1.815   7.878   7.053 -0.2961 -0.1720 -0.2958
   83MOL0     C11383   1.743   7.801   6.964 -0.5872  1.3669  0.1251
   83MOL0     C11384   1.602   7.846   6.932  0.5315 -0.5023 -0.3446
   83MOL0     H11385   1.715   7.299   6.874  1.4692 -0.1623 -0.0486
   83MOL0     H11386   1.646   7.085   6.777 -0.6004  0.3929 -0.8480
   83MOL0     H11387   1.748   6.945   6.387  0.8157  1.7289  3.7816
   83MOL0     H11388   1.612   7.035   6.331  1.5237 -2.3402 -2.6678
   83MOL0     H11389   1.481   6.857   6.350 -0.0558 -1.3928 -0.5594
   83MOL0     H11390   1.635   6.784   6.309  4.3779  3.1873  0.4224
   83MOL0     H11391   1.666   6.762   6.570 -0.2076  1.2010 -1.3719
   83MOL0     H11392   1.485   6.791   6.572  0.6886  1.9579  0.4936
   83MOL0     H11393   1.643   6.554   6.461  0.1787 -1.1630  1.2286
   83MOL0     H11394   1.518   6.551   6.592 -5.7948  1.8664 -1.3101
   83MOL0     H11395   1.452   6.582   6.306 -0.3687  0.6044 -0.4715
   83MOL0     H11396   1.341   6.605   6.446  0.2261 -0.4895  1.9114
   83MOL0     H11397   1.507   6.346   6.404 -2.1264 -1.9188  0.6238
   83MOL0     H11398   1.374   6.384   6.513  0.6240  2.8774  0.6880
   83MOL0     H11399   1.369   6.395   6.214 -0.5472 -4.0075 -0.8425
   83MOL0     H11400   1.225   6.420   6.311  0.0255  2.1516 -0.3338
   83MOL0     H11401   1.388   6.150   6.275 -0.4052  0.0809  1.4248
   83MOL0     H11402   1.258   6.171   6.394  0.0890 -1.2646  0.0408
   83MOL0     H11403   1.032   6.088   6.331 -2.5729 -0.1091 -0.5506
   83MOL0     H11404   0.826   6.085   5.996  2.5203  1.3117 -1.1626
   83MOL0     H11405   0.796   6.161   6.160  2.7587 -0.8573  3.5312
   83MOL0     H11406   0.857   5.956   6.262  2.7143 -1.6261 -0.1049
   83MOL0     H11407   0.716   5.928   6.163  0.5539 -1.7691 -0.5866
   83MOL0     H11408   0.836   5.756   6.031  2.3491 -1.7183 -1.1640
   83MOL0     H11409   0.986   5.857   6.044 -0.8638  0.8241 -2.5306
   83MOL0     H11410   0.975   5.634   6.185 -0.9301  0.3818 -1.0206
   83MOL0     H11411   1.015   5.760   6.291 -1.7135 -0.6986  3.1673
   83MOL0     H11412   0.806   5.525   6.097  0.5967 -2.4674 -1.4787
   83MOL0     H11413   0.602   5.307   6.009 -0.4825 -0.9163 -1.1354
   83MOL0     H11414   0.711   5.185   6.075  2.4074  1.1235  0.6888
   83MOL0     H11415   0.782   5.308   5.998  0.8241 -1.7905  0.1443
   83MOL0     H11416   0.307   5.152   6.563  0.3685  0.7244  0.2018
   83MOL0     H11417   0.103   4.969   6.573  1.7351  2.8745  1.7062
   83MOL0     H11418   0.039   4.679   6.231 -0.6006 -0.1755  0.6038
   83MOL0     H11419   0.199   4.643   6.309 -0.0135  1.8924 -3.2955
   83MOL0     H11420   0.057   4.456   6.339  0.4601 -0.0679 -1.3790
   83MOL0     H11421   0.061   4.527   6.493  0.1275 -1.9796 -1.5186
   83MOL0     H11422  -0.156   4.584   6.281  1.7775  0.7332 -0.9949
   83MOL0     H11423  -0.163   4.639   6.450 -1.5296 -0.1250  0.8120
   83MOL0     H11424  -0.176   4.380   6.509  0.7256  2.5930  0.5529
   83MOL0     H11425  -0.173   4.340   6.345 -0.4244 -0.7173  0.4927
   83MOL0     H11426  -0.367   4.494   6.307  2.4475  2.9857  1.2244
   83MOL0     H11427  -0.406   4.351   6.408 -1.6822  0.2347  2.3816
   83MOL0     H11428  -0.359   4.618   6.510 -1.5916 -0.4020 -1.8768
   83MOL0     H11429  -0.362   4.466   6.608  1.8354 -0.4758 -0.7413
   83MOL0     H11430  -0.599   4.433   6.550 -1.5878 -0.3386 -1.0656
   83MOL0     H11431  -0.586   4.579   6.445  0.0389 -0.0888  0.3035
   83MOL0     H11432  -0.702   4.631   6.656  0.1849 -3.2132  0.4416
   83MOL0     H11433  -0.572   4.736   6.641 -0.9208  0.8188  0.8325
   83MOL0     H11434   0.264   4.815   6.201  1.2132 -0.3514 -1.2687
   83MOL0     H11435   0.438   4.995   6.202  1.5944 -1.1581  1.1510
   83MOL0     H11436   0.596   5.384   6.516  1.0247 -1.5083 -0.2317
   83MOL0     H11437   0.690   5.617   6.498  1.7598  0.6115 -0.0989
   83MOL0     H11438   1.738   7.223   6.392  2.0465 -0.2110  0.3742
   83MOL0     H11439   1.843   7.430   6.492 -0.0281  0.4149 -1.5052
   83MOL0     H11440   1.994   7.577   6.897  0.5563  1.1624 -0.4600
   83MOL0     H11441   2.105   7.711   7.054 -0.0808 -0.4313  1.9229
   83MOL0     H11442   2.033   8.095   7.064 -0.6885 -1.7987 -0.3494
   83MOL0     H11443   1.926   8.108   7.194 -1.3010 -1.5089 -2.0356
   83MOL0     H11444   2.115   8.131   7.358 -2.4312  0.3757 -0.7931
   83MOL0     H11445   2.136   8.234   7.231 -3.3047 -0.4765 -0.3193
   83MOL0     H11446   2.297   7.955   7.258  2.3643  0.2943  0.6973
   83MOL0     H11447   2.326   8.074   7.133 -1.0708  0.7633  1.2504
   83MOL0     H11448   2.352   8.247   7.337  0.9485  0.2390 -1.8134
   83MOL0     H11449   2.482   8.129   7.301  0.6278 -0.7849  0.6479
   83MOL0     H11450   2.394   7.994   7.679 -2.3812  0.4805  0.1676
   83MOL0     H11451   1.767   7.965   7.097 -1.2821  0.0469 -1.7207
   83MOL0     H11452   1.596   7.852   6.823  0.0280 -0.8364 -0.3386
   83MOL0     H11453   1.524   7.777   6.966 -0.3746 -0.3551 -2.0216
   83MOL0     H11454   1.576   7.946   6.968  2.6996 -1.1599  3.5766
   84MOL0     O11455  10.453   2.703   4.203 -0.2984 -0.0558  0.1898
   84MOL0     C11456  10.341   2.694   4.258 -1.2078 -0.8957  0.5309
   84MOL0     O11457  10.276   2.576   4.272 -0.2442 -0.2750  0.3991
   84MOL0     C11458  10.322   2.448   4.224 -0.7145 -0.5776 -0.6551
   84MOL0     C11459  10.404   2.424   4.111 -0.2415 -0.8546 -0.0859
   84MOL0     C11460  10.446   2.293   4.073  0.6183 -0.1951  0.7624
   84MOL0     C11461  10.424   2.191   4.159  0.7238  1.7233 -0.1428
   84MOL0     O11462  10.477   2.062   4.137 -0.2559  0.9706  0.4066
   84MOL0     C11463  10.488   2.028   3.999  0.3279 -0.3497 -0.3513
   84MOL0     C11464  10.498   1.875   4.001 -0.4083 -0.3174 -0.7466
   84MOL0     C11465  10.365   1.799   4.015  0.5078 -0.9532  0.3383
   84MOL0     C11466  10.274   1.807   3.888 -0.5648  0.1860  0.2627
   84MOL0     C11467  10.162   1.915   3.890  0.6345 -0.2307  0.4118
   84MOL0     C11468  10.038   1.888   3.963  0.2395  0.0701 -0.5587
   84MOL0     C11469   9.932   2.006   3.937  0.2011  0.1762  0.0490
   84MOL0     C11470   9.807   2.004   4.041 -0.6769 -0.2655  0.1924
   84MOL0     N11471   9.710   2.111   4.008 -0.1115 -0.2264 -0.3931
   84MOL0     C11472   9.730   2.236   3.945  0.8552  1.5209 -0.4206
   84MOL0     C11473   9.603   2.288   3.948  0.0737  0.4514  1.6491
   84MOL0     C11474   9.565   2.412   3.880 -0.2951  0.0980 -0.0104
   84MOL0     C11475   9.572   2.540   3.969 -0.2809 -1.5340 -0.4020
   84MOL0     C11476   9.541   2.673   3.891 -0.0025 -0.1451  0.2852
   84MOL0     C11477   9.501   2.784   3.985 -0.3871  0.3393 -0.1327
   84MOL0     O11478   9.612   2.840   4.052  0.1495  0.9063 -0.4041
   84MOL0     C11479   9.598   2.964   4.102 -0.2995 -0.3964  0.0039
   84MOL0     C11480   9.721   3.024   4.139  0.9799 -0.5127 -0.5610
   84MOL0     C11481   9.726   3.153   4.203  0.3466 -0.6155  0.4777
   84MOL0     C11482   9.869   3.211   4.211  0.4989 -0.3627 -0.8262
   84MOL0     C11483   9.608   3.221   4.235  0.4241  0.5272 -0.5512
   84MOL0     C11484   9.596   3.355   4.300  0.4497 -0.2006  0.9106
   84MOL0     O11485   9.477   3.419   4.267 -0.0681  0.1776  0.4500
   84MOL0     C11486   9.427   3.528   4.323 -0.5345 -0.0823 -0.3598
   84MOL0     C11487   9.432   3.564   4.461 -0.0213  0.7504 -0.1025
   84MOL0     C11488   9.359   3.680   4.505  0.3883 -0.3110  0.7498
   84MOL0     C11489   9.289   3.766   4.408 -0.5095  0.2016  0.6434
   84MOL0     O11490   9.217   3.876   4.454 -0.0167  0.6346 -0.0128
   84MOL0     C11491   9.120   3.935   4.375 -0.1304 -0.3837  0.2996
   84MOL0     C11492   9.026   4.017   4.462 -0.6443  0.5877 -0.1906
   84MOL0     C11493   9.117   4.111   4.547  0.2664 -0.0889  0.0250
   84MOL0     C11494   9.039   4.182   4.657 -0.1811  0.1631 -0.4279
   84MOL0     C11495   9.105   4.269   4.758 -0.4289  0.3678  0.4785
   84MOL0     C11496   9.198   4.199   4.859 -0.4723 -0.7133 -0.2619
   84MOL0     C11497   9.263   4.298   4.970 -0.2693 -0.3328 -0.4535
   84MOL0     C11498   9.156   4.359   5.060  0.3146 -0.6037  0.2546
   84MOL0    Cl11499   9.044   4.232   5.144  0.0913 -0.3043  0.1835
   84MOL0     C11500   9.295   3.731   4.280 -0.0174 -0.6924 -0.1557
   84MOL0     C11501   9.364   3.614   4.239 -0.7552 -0.1646  0.5663
   84MOL0     O11502   9.691   3.405   4.351  0.4008  0.5223  0.5170
   84MOL0     C11503   9.487   3.144   4.227  0.1305  0.2684  0.8960
   84MOL0     C11504   9.478   3.025   4.153  1.0131  0.0554  0.0401
   84MOL0     N11505   9.517   2.195   3.999  0.7252 -0.2511  0.7467
   84MOL0     N11506   9.583   2.089   4.031  0.5643 -0.3034  0.9633
   84MOL0     C11507  10.340   2.218   4.272 -0.3469  0.8154 -0.8009
   84MOL0     C11508  10.287   2.336   4.302  1.0486 -0.5071  0.4219
   84MOL0     C11509  10.278   2.821   4.308  0.1722  0.0731  1.2938
   84MOL0     C11510  10.168   2.817   4.388  0.2907  0.7630 -0.1105
   84MOL0     C11511  10.115   2.936   4.436  0.1203  0.1865 -0.2597
   84MOL0     C11512  10.170   3.057   4.416 -0.5658  0.7713  0.1271
   84MOL0     O11513  10.126   3.177   4.471  0.4681 -0.1100 -0.3516
   84MOL0     C11514  10.183   3.205   4.597  0.1276  0.9723 -0.3060
   84MOL0     C11515  10.135   3.334   4.636  0.2419 -0.4734  0.6400
   84MOL0     C11516  10.204   3.459   4.556 -0.7100 -0.3157 -0.7185
   84MOL0     C11517  10.353   3.477   4.588  0.2982 -0.0956  0.9960
   84MOL0     C11518  10.397   3.607   4.543  0.4629  0.0230  0.4994
   84MOL0     C11519  10.452   3.711   4.529 -0.4121 -0.1023 -0.5330
   84MOL0     C11520  10.277   3.059   4.337  0.2692  0.3189  0.1685
   84MOL0     C11521  10.340   2.944   4.280  0.5239  0.9616 -0.0210
   84MOL0     C11522  10.462   2.978   4.189 -0.3776 -0.5047  0.9092
   84MOL0     H11523  10.404   2.496   4.031 -0.4937 -0.7351  0.0185
   84MOL0     H11524  10.504   2.295   3.981 -1.0627  0.9200 -0.3480
   84MOL0     H11525  10.582   2.059   3.952 -0.3513  0.2173 -1.3792
   84MOL0     H11526  10.404   2.058   3.935 -0.6199  0.0025  0.9965
   84MOL0     H11527  10.551   1.844   3.910 -0.5735  0.7211 -1.2067
   84MOL0     H11528  10.558   1.846   4.088  1.2668 -2.6677 -2.5398
   84MOL0     H11529  10.376   1.695   4.044  1.0049 -1.6448 -2.0775
   84MOL0     H11530  10.317   1.848   4.100  0.5256 -1.4725  0.6481
   84MOL0     H11531  10.341   1.810   3.801  0.2712 -3.5529  0.6253
   84MOL0     H11532  10.218   1.714   3.896 -0.5721  0.2415  0.9259
   84MOL0     H11533  10.136   1.929   3.785 -2.0355 -3.5137  0.4625
   84MOL0     H11534  10.210   2.004   3.932  0.2096  0.7429 -1.1208
   84MOL0     H11535  10.006   1.792   3.923  0.4741 -0.2014 -0.1083
   84MOL0     H11536  10.046   1.875   4.072 -0.2310  0.6319 -0.4535
   84MOL0     H11537   9.912   1.998   3.829  1.1156  0.4514 -0.1458
   84MOL0     H11538   9.974   2.107   3.940 -1.8483  1.2631 -2.5988
   84MOL0     H11539   9.769   1.906   4.071 -0.1688 -0.1916  1.1039
   84MOL0     H11540   9.866   2.034   4.128  2.1002  0.9120 -1.9181
   84MOL0     H11541   9.812   2.296   3.907 -0.3328  2.8957 -0.9334
   84MOL0     H11542   9.467   2.409   3.831 -0.3678 -0.1101  0.1429
   84MOL0     H11543   9.627   2.419   3.790 -0.8678 -1.0799 -0.5170
   84MOL0     H11544   9.491   2.526   4.042 -2.5166  0.4653 -2.3227
   84MOL0     H11545   9.673   2.548   4.011  0.4468 -0.8009 -2.2113
   84MOL0     H11546   9.624   2.701   3.825  0.1719  1.0148  0.9752
   84MOL0     H11547   9.453   2.660   3.828 -0.0995 -0.1429  0.4201
   84MOL0     H11548   9.462   2.870   3.931  2.8279  3.3716  1.9144
   84MOL0     H11549   9.442   2.750   4.071  2.2654 -0.5146  1.4822
   84MOL0     H11550   9.808   2.977   4.093  1.5997  0.9984 -1.0147
   84MOL0     H11551   9.896   3.214   4.317 -1.2083  1.8103 -0.3846
   84MOL0     H11552   9.866   3.310   4.165 -0.8740  0.0386  0.0822
   84MOL0     H11553   9.939   3.144   4.160  1.2952 -0.4289  0.3175
   84MOL0     H11554   9.486   3.495   4.525  2.2990  1.3781 -1.2615
   84MOL0     H11555   9.358   3.710   4.610  0.2959 -0.0411  0.6705
   84MOL0     H11556   9.166   4.000   4.299  1.7223  0.3800  1.9845
   84MOL0     H11557   9.056   3.858   4.332  0.6870 -1.2797  0.6500
   84MOL0     H11558   8.951   4.067   4.400 -0.0523  0.5882 -0.9209
   84MOL0     H11559   8.973   3.949   4.529  0.5168 -0.4002 -0.2308
   84MOL0     H11560   9.162   4.190   4.486 -1.4085  0.7144 -0.2267
   84MOL0     H11561   9.200   4.051   4.586 -0.9089 -3.9950 -2.8045
   84MOL0     H11562   8.989   4.107   4.719  0.4425  0.5133  0.5252
   84MOL0     H11563   8.956   4.235   4.609 -0.2121  1.0607  0.5611
   84MOL0     H11564   9.162   4.346   4.705 -0.6350 -1.0129 -1.8898
   84MOL0     H11565   9.029   4.321   4.817  1.2574  3.0690  0.4393
   84MOL0     H11566   9.281   4.150   4.809  0.7075 -1.6659  2.4618
   84MOL0     H11567   9.139   4.127   4.917 -0.8235 -1.6252 -1.7165
   84MOL0     H11568   9.331   4.374   4.931  0.8056 -1.3344 -0.6025
   84MOL0     H11569   9.323   4.235   5.036 -1.8415 -0.0403  1.3433
   84MOL0     H11570   9.091   4.429   5.007 -1.0508 -0.6323  1.8009
   84MOL0     H11571   9.193   4.424   5.141 -0.9721  1.0007 -0.3800
   84MOL0     H11572   9.234   3.786   4.209  0.9910  0.0208 -0.5033
   84MOL0     H11573   9.365   3.584   4.134  2.3451  3.2527 -0.6263
   84MOL0     H11574   9.396   3.199   4.248 -1.2463 -0.8593 -1.6821
   84MOL0     H11575   9.384   2.972   4.145 -0.7223  3.1624 -2.1351
   84MOL0     H11576  10.339   2.131   4.337 -0.7982 -1.3504 -3.5370
   84MOL0     H11577  10.229   2.337   4.394  1.0159  0.2402  0.3962
   84MOL0     H11578  10.118   2.730   4.430 -0.6440  1.4677  0.2561
   84MOL0     H11579  10.026   2.929   4.498  0.4489  2.0658  0.5051
   84MOL0     H11580  10.153   3.126   4.667  0.5382 -0.4265 -1.6376
   84MOL0     H11581  10.292   3.210   4.592  0.1511  0.0875 -1.0934
   84MOL0     H11582  10.148   3.341   4.744 -0.2049 -3.0122  0.9043
   84MOL0     H11583  10.027   3.345   4.626  0.2392 -0.7364  0.3809
   84MOL0     H11584  10.188   3.449   4.448  1.9497  1.4202 -1.3839
   84MOL0     H11585  10.154   3.548   4.596 -0.3703 -0.0212 -0.9377
   84MOL0     H11586  10.408   3.395   4.542 -1.0003 -0.0743 -0.7063
   84MOL0     H11587  10.362   3.481   4.697  0.1458  3.3235  0.9900
   84MOL0     H11588  10.508   3.802   4.517  0.3817 -0.4067  0.6756
   84MOL0     H11589  10.327   3.153   4.316  1.9192  0.1771  2.9341
   84MOL0     H11590  10.460   3.085   4.167 -2.7956 -0.6847 -0.0433
   84MOL0     H11591  10.565   2.956   4.220  0.9322  2.0572 -1.1915
   84MOL0     H11592  10.433   2.932   4.094 -1.1898 -0.4139  1.1036
   85MOL0     O11593   2.901   1.637   6.209  0.2338  0.0765  0.5765
   85MOL0     C11594   2.851   1.699   6.299  0.0911 -0.7547  0.0220
   85MOL0     O11595   2.751   1.784   6.286  0.2573 -0.4847 -0.0064
   85MOL0     C11596   2.673   1.791   6.181  1.1209 -0.1831  1.0064
   85MOL0     C11597   2.650   1.687   6.084  0.1959  0.4707 -0.1168
   85MOL0     C11598   2.577   1.715   5.969 -0.2897  0.6609 -0.1099
   85MOL0     C11599   2.498   1.827   5.961  0.2015  0.5763  0.1876
   85MOL0     O11600   2.414   1.845   5.852  0.0848  0.0275  0.0984
   85MOL0     C11601   2.426   1.771   5.733 -0.5537 -0.2231 -0.2096
   85MOL0     C11602   2.344   1.831   5.625 -0.4669 -0.3888 -0.4358
   85MOL0     C11603   2.387   1.968   5.586  0.2843  0.4932  0.8232
   85MOL0     C11604   2.299   2.013   5.477  0.0932  0.0483  1.2990
   85MOL0     C11605   2.318   2.170   5.464  0.7672  0.2132 -0.0768
   85MOL0     C11606   2.244   2.218   5.345 -0.5420  0.3198  1.1915
   85MOL0     C11607   2.192   2.362   5.361 -0.1467 -0.1316  0.5673
   85MOL0     C11608   2.069   2.392   5.288 -0.3965  0.6133  0.2528
   85MOL0     N11609   2.053   2.535   5.259 -0.1291  0.5102 -0.4637
   85MOL0     C11610   2.045   2.640   5.347 -0.6974  0.9676  0.1192
   85MOL0     C11611   2.081   2.755   5.281 -0.0504  0.6024 -0.1330
   85MOL0     C11612   2.085   2.888   5.340 -0.6787  0.3435  0.8625
   85MOL0     C11613   1.964   2.906   5.438 -0.5414  0.1390 -0.0752
   85MOL0     C11614   1.974   3.050   5.509  0.0478 -0.3478 -0.1350
   85MOL0     C11615   1.887   3.054   5.625  0.1528  0.2692 -0.1910
   85MOL0     O11616   1.888   3.186   5.681 -1.2831 -1.2782  0.1834
   85MOL0     C11617   1.777   3.224   5.747 -0.6472 -0.2995  0.4367
   85MOL0     C11618   1.679   3.143   5.809 -0.5594  0.2730 -0.2695
   85MOL0     C11619   1.579   3.199   5.889 -0.7402  0.0004 -0.0991
   85MOL0     C11620   1.482   3.114   5.974  0.3799 -0.3788  0.7736
   85MOL0     C11621   1.561   3.338   5.892 -0.1868  0.2653  0.1940
   85MOL0     C11622   1.449   3.418   5.947  0.4755  0.4447 -1.0112
   85MOL0     O11623   1.488   3.541   5.996  0.1820 -0.2515  0.8893
   85MOL0     C11624   1.385   3.619   6.047  0.3155 -0.0677  0.3290
   85MOL0     C11625   1.384   3.753   6.003 -0.0192  0.5675  0.2261
   85MOL0     C11626   1.284   3.839   6.037  0.3117 -0.1597 -1.4023
   85MOL0     C11627   1.189   3.800   6.137  0.2532 -0.0384  0.0011
   85MOL0     O11628   1.105   3.903   6.181  0.3697  0.1259 -0.0102
   85MOL0     C11629   0.965   3.867   6.198 -0.9287 -0.4120 -0.6900
   85MOL0     C11630   0.884   3.994   6.182  0.2279 -0.1190 -0.0420
   85MOL0     C11631   0.885   4.075   6.050  0.6760 -0.2272 -0.1281
   85MOL0     C11632   0.820   3.986   5.943 -0.7915  0.2169 -1.0945
   85MOL0     C11633   0.832   4.026   5.795  0.5493  0.7880  0.2132
   85MOL0     C11634   0.972   4.038   5.744  0.2833 -0.7062 -0.7984
   85MOL0     C11635   0.979   4.077   5.594  0.7528 -0.0987  0.5684
   85MOL0     C11636   0.929   4.223   5.568 -0.0796 -0.5636  0.0061
   85MOL0    Cl11637   0.950   4.295   5.399  0.2919  0.2397  0.4722
   85MOL0     C11638   1.200   3.674   6.201 -1.2803  0.1249 -0.6491
   85MOL0     C11639   1.302   3.584   6.150 -0.8571  0.1214 -0.2218
   85MOL0     O11640   1.330   3.374   5.933  0.0132 -0.2427  0.4002
   85MOL0     C11641   1.661   3.419   5.831  0.5884 -0.2897 -0.0704
   85MOL0     C11642   1.761   3.363   5.758 -0.2225 -0.0418 -0.3200
   85MOL0     N11643   2.099   2.723   5.150  0.6481  0.0525 -0.0433
   85MOL0     N11644   2.078   2.594   5.137 -0.1504 -0.1823 -0.5926
   85MOL0     C11645   2.502   1.921   6.066 -1.4265 -0.4967  0.8449
   85MOL0     C11646   2.586   1.903   6.179 -0.0950 -0.1421  0.9203
   85MOL0     C11647   2.876   1.642   6.436  0.4524 -0.6168 -0.0323
   85MOL0     C11648   2.803   1.695   6.540  0.3195  0.1992  0.7266
   85MOL0     C11649   2.830   1.672   6.679 -0.1002 -0.8872  0.3904
   85MOL0     C11650   2.948   1.596   6.714 -0.0130  0.4150 -1.0750
   85MOL0     O11651   2.963   1.568   6.847  0.5432  0.1679 -0.6422
   85MOL0     C11652   3.081   1.494   6.874  0.0509 -0.3211  0.0726
   85MOL0     C11653   3.089   1.477   7.031 -0.3892 -0.1404  0.5302
   85MOL0     C11654   3.111   1.608   7.101 -0.0948 -0.4908 -0.3235
   85MOL0     C11655   3.124   1.587   7.256 -0.2830 -0.8743 -0.0795
   85MOL0     C11656   3.259   1.641   7.293  0.3800  0.6757 -0.4217
   85MOL0     C11657   3.358   1.701   7.335  0.1489  2.0119  0.5441
   85MOL0     C11658   3.022   1.547   6.599  0.6979  0.8573 -0.3375
   85MOL0     C11659   2.984   1.561   6.465  0.0120  0.4216 -0.4912
   85MOL0     C11660   3.098   1.519   6.372  0.1998  0.3965 -0.0901
   85MOL0     H11661   2.676   1.582   6.082 -0.9517  0.1145 -3.8723
   85MOL0     H11662   2.581   1.642   5.889 -0.8631 -2.9071  2.8778
   85MOL0     H11663   2.385   1.671   5.747 -1.1609  0.3141  2.4264
   85MOL0     H11664   2.531   1.764   5.701 -0.8062 -1.6449 -0.7997
   85MOL0     H11665   2.364   1.783   5.528  0.7572 -1.3741  0.2763
   85MOL0     H11666   2.239   1.844   5.652 -0.1742  4.1218 -0.6349
   85MOL0     H11667   2.378   2.024   5.680  1.3109  1.7184  0.2133
   85MOL0     H11668   2.494   1.972   5.563  0.6243  1.6620  2.4478
   85MOL0     H11669   2.309   1.961   5.382 -2.0215  0.7163  0.6617
   85MOL0     H11670   2.194   1.989   5.495  0.1471  0.1136  1.7141
   85MOL0     H11671   2.424   2.185   5.439  0.4598  0.6077 -1.2100
   85MOL0     H11672   2.288   2.215   5.559 -1.7045  0.0519 -0.7209
   85MOL0     H11673   2.307   2.214   5.256 -0.1154  1.2452  1.4411
   85MOL0     H11674   2.167   2.143   5.324  0.6848 -0.1413 -2.2283
   85MOL0     H11675   2.264   2.422   5.306 -0.4860 -0.6202 -0.4414
   85MOL0     H11676   2.190   2.392   5.466  0.1748 -0.0198  0.5414
   85MOL0     H11677   2.068   2.331   5.198  4.4059 -0.4203  0.6544
   85MOL0     H11678   1.992   2.360   5.359  1.4771 -0.6327  1.8267
   85MOL0     H11679   2.008   2.633   5.448  1.7385 -2.0321  0.9515
   85MOL0     H11680   2.076   2.962   5.259  0.5071 -0.0494  0.3408
   85MOL0     H11681   2.177   2.909   5.396  0.5080 -0.3285 -0.7749
   85MOL0     H11682   1.868   2.891   5.387 -1.1842 -0.6949  1.3158
   85MOL0     H11683   1.975   2.831   5.517  2.2683 -1.4038 -1.7844
   85MOL0     H11684   2.079   3.069   5.532 -0.4306  0.3917  1.6494
   85MOL0     H11685   1.955   3.131   5.438  1.7066  0.3963  0.2332
   85MOL0     H11686   1.785   3.032   5.593  0.1791  2.1117 -1.7349
   85MOL0     H11687   1.913   2.975   5.696  2.4464  0.9458 -0.1908
   85MOL0     H11688   1.690   3.035   5.815 -0.6668  0.2315 -0.7662
   85MOL0     H11689   1.464   3.158   6.072  1.4804 -0.1345  0.8792
   85MOL0     H11690   1.535   3.018   5.982  1.7792  0.4012  1.2741
   85MOL0     H11691   1.389   3.107   5.916  2.3436  3.2149 -3.4351
   85MOL0     H11692   1.464   3.777   5.934  0.8940 -4.4257 -0.8736
   85MOL0     H11693   1.268   3.935   5.989 -1.0391  1.7599  2.5238
   85MOL0     H11694   0.950   3.793   6.119  0.2186 -3.3888  1.7041
   85MOL0     H11695   0.951   3.817   6.294  0.2776 -0.2400 -0.4075
   85MOL0     H11696   0.781   3.962   6.203 -0.0692  1.5464  1.2821
   85MOL0     H11697   0.910   4.057   6.267  0.9135 -2.1764  1.3426
   85MOL0     H11698   0.985   4.110   6.025  1.9548  1.0322  5.5682
   85MOL0     H11699   0.826   4.165   6.065  1.0365  0.0174 -0.1818
   85MOL0     H11700   0.715   3.983   5.972 -1.2992 -1.7714 -2.8468
   85MOL0     H11701   0.854   3.884   5.961  0.3226  0.7552 -0.0406
   85MOL0     H11702   0.774   3.951   5.740  1.5880 -1.5471  2.1361
   85MOL0     H11703   0.781   4.123   5.790 -1.5879 -0.3016 -3.9583
   85MOL0     H11704   1.015   3.938   5.757  2.8102  0.5785  1.8594
   85MOL0     H11705   1.028   4.104   5.811  3.1456 -2.8932 -0.8535
   85MOL0     H11706   0.918   4.004   5.540 -1.5094  2.4910 -0.6099
   85MOL0     H11707   1.084   4.082   5.564  0.0740  1.6014 -1.8545
   85MOL0     H11708   0.989   4.287   5.633 -1.3565 -1.4302  2.1702
   85MOL0     H11709   0.824   4.236   5.596 -0.6729  0.3014 -2.4385
   85MOL0     H11710   1.140   3.643   6.286 -1.7387 -1.3654 -1.4680
   85MOL0     H11711   1.312   3.482   6.186 -2.3934 -0.4024 -1.1835
   85MOL0     H11712   1.661   3.526   5.817  4.4282 -0.3949 -2.3320
   85MOL0     H11713   1.837   3.430   5.720 -1.3284  0.4855 -1.7059
   85MOL0     H11714   2.445   2.013   6.067  1.2786  1.3115  0.2975
   85MOL0     H11715   2.591   1.990   6.243  2.4565  2.1813 -2.1389
   85MOL0     H11716   2.715   1.758   6.525  2.1995  2.3468 -2.4807
   85MOL0     H11717   2.766   1.719   6.752  0.8307  0.3236  0.4631
   85MOL0     H11718   3.077   1.398   6.821  0.9673  0.3909 -1.3353
   85MOL0     H11719   3.172   1.544   6.841 -0.0468  1.4179  2.1765
   85MOL0     H11720   3.182   1.421   7.045  1.5412  2.1380 -1.9723
   85MOL0     H11721   3.008   1.413   7.067 -0.1028 -0.6921  0.2145
   85MOL0     H11722   3.200   1.660   7.067  1.6736 -0.2691  3.9415
   85MOL0     H11723   3.023   1.672   7.087 -1.5489 -2.0744  0.9817
   85MOL0     H11724   3.113   1.483   7.287 -1.5207 -0.6182  0.4300
   85MOL0     H11725   3.046   1.637   7.314  0.3228  0.5792 -0.4697
   85MOL0     H11726   3.454   1.746   7.353  2.2450 -1.1509 -1.7586
   85MOL0     H11727   3.114   1.495   6.622  0.3030  0.3616  0.1650
   85MOL0     H11728   3.063   1.451   6.294  2.6818 -1.5723  0.3681
   85MOL0     H11729   3.155   1.602   6.330  1.6420 -0.7246 -0.4247
   85MOL0     H11730   3.174   1.452   6.416 -0.8118 -0.8368 -0.1491
   86MOL0     O11731   6.901  10.963   2.001  0.7491 -0.5099  0.9634
   86MOL0     C11732   6.883  11.080   2.046 -0.8005 -0.1741  0.4449
   86MOL0     O11733   6.978  11.152   2.115 -0.4488 -0.3722  0.3208
   86MOL0     C11734   7.103  11.100   2.160 -0.1261 -0.3922 -0.3409
   86MOL0     C11735   7.217  11.175   2.156  0.6220  0.1135 -0.7185
   86MOL0     C11736   7.340  11.124   2.196  0.7145 -1.3504  1.0038
   86MOL0     C11737   7.351  11.000   2.239  1.2225  1.1274 -0.3647
   86MOL0     O11738   7.472  10.962   2.294  0.6311 -0.2477 -0.2802
   86MOL0     C11739   7.497  10.833   2.348  0.2407  0.0856  0.0374
   86MOL0     C11740   7.507  10.718   2.246 -0.2158 -0.5525  0.3667
   86MOL0     C11741   7.590  10.758   2.116 -0.3613 -0.0739  0.3349
   86MOL0     C11742   7.735  10.770   2.160 -0.0938  0.5588  0.3008
   86MOL0     C11743   7.817  10.796   2.026 -0.1899 -0.2032 -0.1056
   86MOL0     C11744   7.969  10.787   2.059  0.8033 -0.2320 -0.8700
   86MOL0     C11745   8.061  10.780   1.940  0.9367 -0.0265  0.1630
   86MOL0     C11746   8.077  10.925   1.884 -0.3880 -0.1682  1.2842
   86MOL0     N11747   8.166  10.912   1.764  0.0773  0.4375 -0.2856
   86MOL0     C11748   8.120  10.869   1.644 -0.1578 -0.6456 -0.4349
   86MOL0     C11749   8.238  10.840   1.568 -0.6123 -0.3039 -0.4135
   86MOL0     C11750   8.241  10.783   1.429 -0.8057  0.7104  0.3298
   86MOL0     C11751   8.275  10.900   1.339 -0.0749 -1.0461 -0.2579
   86MOL0     C11752   8.276  10.850   1.192 -0.3485  0.2273  0.9611
   86MOL0     C11753   8.297  10.951   1.081 -0.0745  0.1575  0.1357
   86MOL0     O11754   8.310  10.875   0.956  0.3978 -0.7056 -0.2613
   86MOL0     C11755   8.440  10.874   0.917 -0.6498 -0.1565  0.4726
   86MOL0     C11756   8.483  10.976   0.828 -0.5901 -0.2815  0.4256
   86MOL0     C11757   8.604  10.976   0.761  0.4780  0.5618  0.1804
   86MOL0     C11758   8.625  11.077   0.651  0.6969  1.1618 -1.3050
   86MOL0     C11759   8.694  10.861   0.778 -0.5287  0.1789  0.2807
   86MOL0     C11760   8.822  10.831   0.707  0.1301  0.1482 -0.4698
   86MOL0     O11761   8.905  10.746   0.757  0.6912  0.0769 -0.3561
   86MOL0     C11762   9.031  10.777   0.725 -0.4384 -0.4718 -0.1020
   86MOL0     C11763   9.116  10.834   0.814 -0.3259  0.2810 -0.2596
   86MOL0     C11764   9.248  10.870   0.787  0.1614  0.1719  0.3303
   86MOL0     C11765   9.294  10.848   0.652  0.4345  0.0476 -0.3491
   86MOL0     O11766   9.416  10.897   0.616  0.0525  0.9368 -0.3663
   86MOL0     C11767   9.523  10.881   0.702  0.5732  0.5424 -0.9891
   86MOL0     C11768   9.665  10.875   0.638 -0.2340 -0.2779  1.1321
   86MOL0     C11769   9.764  10.880   0.748  0.1012  0.1270 -0.3705
   86MOL0     C11770   9.900  10.910   0.691  0.7432  0.5283 -0.2071
   86MOL0     C11771  10.015  10.876   0.790  0.2287 -0.2141 -0.1810
   86MOL0     C11772  10.146  10.934   0.733 -0.5976 -0.5898 -1.4614
   86MOL0     C11773  10.188  10.903   0.589  0.5753 -0.6050  0.9795
   86MOL0     C11774  10.329  10.939   0.560  0.1610 -0.6034 -0.8731
   86MOL0    Cl11775  10.351  10.899   0.385 -0.1863 -0.0224 -0.1953
   86MOL0     C11776   9.212  10.791   0.559  0.2107  0.8381  0.5387
   86MOL0     C11777   9.084  10.746   0.599  0.1649 -0.2814  0.3329
   86MOL0     O11778   8.838  10.894   0.601 -0.1675  0.0556 -0.4287
   86MOL0     C11779   8.650  10.762   0.870 -0.1000  0.1028  1.2238
   86MOL0     C11780   8.532  10.770   0.937  0.4454 -0.6904 -0.4607
   86MOL0     N11781   8.349  10.876   1.651 -0.2477 -0.0952  0.6712
   86MOL0     N11782   8.300  10.918   1.769 -0.1258 -0.4621 -0.3676
   86MOL0     C11783   7.239  10.918   2.241 -0.3994 -0.5519 -0.9433
   86MOL0     C11784   7.111  10.967   2.198 -0.3825 -0.7538 -0.2509
   86MOL0     C11785   6.748  11.138   2.031 -0.2739 -0.5402  0.0195
   86MOL0     C11786   6.742  11.269   1.975  0.4808  0.4161 -0.2856
   86MOL0     C11787   6.622  11.322   1.950 -0.1575  0.1890 -0.1723
   86MOL0     C11788   6.501  11.270   1.968  0.1584  0.9109  0.0820
   86MOL0     O11789   6.398  11.330   1.916 -0.3387 -0.2484 -0.3426
   86MOL0     C11790   6.357  11.459   1.954 -0.6324 -0.5835 -0.0005
   86MOL0     C11791   6.213  11.475   1.901 -0.2123  0.2963  0.1019
   86MOL0     C11792   6.133  11.580   1.978 -0.1325 -0.3527  0.5008
   86MOL0     C11793   6.123  11.719   1.909 -0.8677  0.0956  0.1573
   86MOL0     C11794   6.231  11.816   1.936 -0.2812 -0.6069 -0.3798
   86MOL0     C11795   6.315  11.901   1.974 -0.0351 -0.3726  1.3559
   86MOL0     C11796   6.512  11.138   2.016  0.9543 -0.0360 -0.4628
   86MOL0     C11797   6.630  11.074   2.059  0.5076  0.5001  0.5915
   86MOL0     C11798   6.611  10.927   2.101 -0.0058 -0.0392 -0.9466
   86MOL0     H11799   7.209  11.283   2.146 -1.4524  0.2117  1.0058
   86MOL0     H11800   7.422  11.195   2.181 -2.0074  1.2010 -6.6782
   86MOL0     H11801   7.426  10.801   2.424 -0.8696  0.3918 -0.8522
   86MOL0     H11802   7.588  10.844   2.408  0.0453  2.5675 -0.0054
   86MOL0     H11803   7.553  10.630   2.292 -1.7252 -1.6118 -0.0472
   86MOL0     H11804   7.402  10.698   2.221  0.1850 -3.1999  0.5283
   86MOL0     H11805   7.582  10.679   2.041  0.0706 -0.9382  1.1856
   86MOL0     H11806   7.555  10.854   2.076  3.5395  2.3395  2.1417
   86MOL0     H11807   7.764  10.846   2.233  2.4209  2.8903 -2.7667
   86MOL0     H11808   7.774  10.674   2.195  3.1029  0.6475 -2.3917
   86MOL0     H11809   7.801  10.894   1.981  2.2224  0.7089  0.9054
   86MOL0     H11810   7.798  10.721   1.947  3.3101 -0.5817 -0.7362
   86MOL0     H11811   7.993  10.869   2.127 -2.8617 -0.0968  0.4856
   86MOL0     H11812   7.979  10.701   2.127 -0.9825  1.1926  1.3322
   86MOL0     H11813   8.029  10.718   1.856  1.2751  0.9350 -0.7037
   86MOL0     H11814   8.158  10.740   1.970  2.7210  2.1654 -2.2196
   86MOL0     H11815   7.983  10.974   1.859  0.8456  1.3822 -0.7036
   86MOL0     H11816   8.120  10.992   1.959 -0.5207 -0.1547  1.3462
   86MOL0     H11817   8.017  10.855   1.612 -0.9028  1.0202  1.0572
   86MOL0     H11818   8.145  10.743   1.394  0.8986 -1.8358 -1.7768
   86MOL0     H11819   8.322  10.710   1.427 -0.8796  0.6326 -1.0817
   86MOL0     H11820   8.200  10.979   1.331 -0.0874 -1.1036 -0.7263
   86MOL0     H11821   8.368  10.947   1.373  0.6229 -2.6943  0.1948
   86MOL0     H11822   8.356  10.776   1.188  1.5602  2.2462 -1.3501
   86MOL0     H11823   8.182  10.798   1.168  0.7849 -0.5212 -2.4588
   86MOL0     H11824   8.209  11.015   1.071 -0.0544  0.2454  0.4924
   86MOL0     H11825   8.383  11.017   1.097  1.7553 -0.0202 -6.2231
   86MOL0     H11826   8.415  11.060   0.827  0.0699  0.5287  4.7334
   86MOL0     H11827   8.551  11.157   0.658 -0.6152 -0.1554  3.8066
   86MOL0     H11828   8.602  11.037   0.552  0.1336 -1.3715 -0.2405
   86MOL0     H11829   8.724  11.119   0.671  0.7004  1.3586 -1.7295
   86MOL0     H11830   9.066  10.849   0.909 -1.0546 -0.3502 -0.5334
   86MOL0     H11831   9.311  10.917   0.862 -1.8912  0.0711  2.2316
   86MOL0     H11832   9.520  10.964   0.773  1.7137 -0.6520  0.5491
   86MOL0     H11833   9.503  10.787   0.754 -2.1609  1.0284 -1.0341
   86MOL0     H11834   9.684  10.783   0.582  1.0745  1.4933 -1.4796
   86MOL0     H11835   9.688  10.956   0.569  2.2597 -3.4284 -2.1045
   86MOL0     H11836   9.771  10.781   0.794 -2.1993  0.1554  0.1725
   86MOL0     H11837   9.732  10.950   0.826  0.1889 -0.6665  0.3923
   86MOL0     H11838   9.901  11.019   0.677  0.7319  0.3270 -1.9129
   86MOL0     H11839   9.919  10.875   0.590  0.6851  4.4316 -1.7638
   86MOL0     H11840   9.997  10.902   0.895 -1.7918 -4.6769  0.8384
   86MOL0     H11841  10.029  10.768   0.786 -1.8876 -0.7392  2.9495
   86MOL0     H11842  10.219  10.891   0.802 -1.8106  2.2524  1.9220
   86MOL0     H11843  10.156  11.043   0.742 -0.0840 -0.6652 -1.0500
   86MOL0     H11844  10.118  10.950   0.520  2.0713  1.3519  0.6845
   86MOL0     H11845  10.186  10.796   0.565  4.4945 -1.3166  2.8307
   86MOL0     H11846  10.399  10.872   0.611  3.8665  0.5016 -3.9490
   86MOL0     H11847  10.353  11.042   0.589  0.4018 -0.5296 -1.3324
   86MOL0     H11848   9.245  10.772   0.457  1.1329  1.6293  0.6791
   86MOL0     H11849   9.019  10.703   0.524  2.2735 -0.4600 -1.4919
   86MOL0     H11850   8.706  10.672   0.891  0.4865 -0.4453 -2.1025
   86MOL0     H11851   8.505  10.700   1.016  1.1751  1.7762  2.1719
   86MOL0     H11852   7.241  10.817   2.281  1.5351 -0.2443 -0.1802
   86MOL0     H11853   7.031  10.893   2.206  3.0035 -4.6814  1.4191
   86MOL0     H11854   6.827  11.321   1.932  0.6194 -0.2928 -0.9023
   86MOL0     H11855   6.623  11.418   1.899 -2.1339 -0.4660 -1.5365
   86MOL0     H11856   6.364  11.471   2.062  0.2289 -0.9803 -0.0073
   86MOL0     H11857   6.421  11.534   1.907 -1.3852 -0.6660 -1.1985
   86MOL0     H11858   6.160  11.381   1.886 -0.7993  0.7760 -0.9867
   86MOL0     H11859   6.225  11.517   1.801 -2.0683  3.1903  0.9682
   86MOL0     H11860   6.041  11.521   1.983  0.6027 -1.5107  0.7241
   86MOL0     H11861   6.182  11.594   2.075  0.0912  0.2000  0.3143
   86MOL0     H11862   6.030  11.752   1.955 -1.5733 -3.0122  1.2249
   86MOL0     H11863   6.113  11.709   1.801  0.4240  0.7895 -0.0433
   86MOL0     H11864   6.375  11.980   2.015 -1.4397  1.9744 -0.8371
   86MOL0     H11865   6.414  11.092   2.007  0.4963  0.9845 -0.7773
   86MOL0     H11866   6.509  10.916   2.139  0.2197  0.4752 -0.1726
   86MOL0     H11867   6.626  10.860   2.015  0.1123  0.4935 -1.3516
   86MOL0     H11868   6.689  10.886   2.166 -1.3714 -2.4328 -0.6916
   87MOL0     O11869   8.284   6.423   9.012  0.1774 -0.0771 -0.4671
   87MOL0     C11870   8.369   6.360   9.063 -0.1725  0.2193  0.2543
   87MOL0     O11871   8.345   6.258   9.161 -0.6306  0.7164  0.0468
   87MOL0     C11872   8.257   6.281   9.268  0.0508 -0.4178  0.2005
   87MOL0     C11873   8.229   6.164   9.343 -0.0373  0.1600  0.1269
   87MOL0     C11874   8.139   6.172   9.453  0.1289  0.5595 -0.1637
   87MOL0     C11875   8.075   6.295   9.481 -0.1493 -0.6272 -0.1204
   87MOL0     O11876   7.984   6.318   9.576  0.2768  0.3358  0.4881
   87MOL0     C11877   7.908   6.211   9.631  0.1200 -0.3291  0.2041
   87MOL0     C11878   7.795   6.277   9.713 -0.7444 -0.1768 -0.0081
   87MOL0     C11879   7.710   6.156   9.764  0.9681 -0.1441 -0.3153
   87MOL0     C11880   7.617   6.192   9.887  0.0045 -0.4044 -0.1187
   87MOL0     C11881   7.528   6.087   9.941 -0.6016  0.0010  0.3357
   87MOL0     C11882   7.405   6.163   9.986 -0.2840 -0.4740  0.4815
   87MOL0     C11883   7.324   6.076  10.087  0.0875 -0.4190 -0.4895
   87MOL0     C11884   7.173   6.140  10.095 -1.2615  0.6953 -0.0878
   87MOL0     N11885   7.156   6.277  10.090 -0.5169  0.2572  0.6456
   87MOL0     C11886   7.215   6.362  10.182  0.0381  0.1394  0.0507
   87MOL0     C11887   7.169   6.478  10.140  0.4078 -0.1809 -0.1327
   87MOL0     C11888   7.189   6.610  10.221 -0.0855 -0.1501 -0.1542
   87MOL0     C11889   7.219   6.736  10.138 -1.2064  1.0711 -0.7560
   87MOL0     C11890   7.101   6.808  10.085  0.2407 -0.1637  0.7817
   87MOL0     C11891   6.965   6.789  10.155 -0.7576  0.5872  0.3570
   87MOL0     O11892   6.985   6.820  10.292 -0.0831 -0.7937 -0.4507
   87MOL0     C11893   6.982   6.953  10.328  0.5561 -0.3452  0.2666
   87MOL0     C11894   6.943   7.058  10.238 -0.1999  0.0383  0.2096
   87MOL0     C11895   6.948   7.191  10.279  0.1099  0.9661  0.5183
   87MOL0     C11896   6.898   7.289  10.176 -0.7362  0.6044 -0.1478
   87MOL0     C11897   6.985   7.220  10.414  0.5055 -0.7311  0.1205
   87MOL0     C11898   6.975   7.366  10.463 -0.4035  0.0031  0.8856
   87MOL0     O11899   6.948   7.365  10.592 -0.4354 -0.7159 -0.7273
   87MOL0     C11900   6.961   7.488  10.657  0.7493 -0.3559  0.1413
   87MOL0     C11901   7.067   7.517  10.738  0.7009  0.0698 -0.4301
   87MOL0     C11902   7.078   7.633  10.811 -0.5337 -0.8004 -0.0654
   87MOL0     C11903   6.975   7.731  10.811 -0.1249 -0.3695  0.6517
   87MOL0     O11904   6.970   7.857  10.862  0.6618  0.7397  0.2845
   87MOL0     C11905   7.026   7.872  10.991 -0.0039 -0.4380 -0.3924
   87MOL0     C11906   6.975   8.010  11.024 -0.4682  0.1051 -0.1275
   87MOL0     C11907   7.075   8.109  10.973  0.2993  0.5471  0.1648
   87MOL0     C11908   7.016   8.251  10.966 -0.0410 -0.1302  0.1896
   87MOL0     C11909   7.128   8.355  10.961  0.1295  0.0523 -0.2818
   87MOL0     C11910   7.096   8.490  10.898  0.2937  0.2500 -0.1279
   87MOL0     C11911   6.989   8.572  10.973 -0.2507  0.0384  0.2618
   87MOL0     C11912   6.980   8.730  10.932  0.5693  0.5805  0.7955
   87MOL0    Cl11913   6.806   8.772  10.952 -0.1133 -0.2816 -0.3295
   87MOL0     C11914   6.864   7.702  10.736  0.5198 -0.4964 -0.5209
   87MOL0     C11915   6.853   7.583  10.655  0.7100 -0.2464 -0.7829
   87MOL0     O11916   6.999   7.463  10.393 -0.2035  0.2778 -0.7302
   87MOL0     C11917   7.024   7.117  10.500  0.5822  0.5683 -0.2312
   87MOL0     C11918   7.029   6.986  10.449  0.7311  0.0593  0.4126
   87MOL0     N11919   7.078   6.461  10.036 -0.1877  0.0958 -0.0987
   87MOL0     N11920   7.080   6.338   9.998  0.7876 -1.0567  0.3683
   87MOL0     C11921   8.101   6.399   9.401  0.2881  0.4040 -0.3186
   87MOL0     C11922   8.187   6.395   9.296 -0.9916 -0.2622  0.2133
   87MOL0     C11923   8.511   6.368   9.009  0.5306  0.2546  0.1417
   87MOL0     C11924   8.555   6.480   8.946 -0.1177 -0.1417  0.2807
   87MOL0     C11925   8.681   6.480   8.877  0.7034 -0.3161 -0.4227
   87MOL0     C11926   8.767   6.370   8.869  0.6195  0.1632 -0.3384
   87MOL0     O11927   8.877   6.376   8.787  0.2540  0.0748  0.3772
   87MOL0     C11928   8.936   6.254   8.737  0.0205 -0.2371  0.3353
   87MOL0     C11929   9.047   6.311   8.644 -0.0185 -0.9160  0.5980
   87MOL0     C11930   8.984   6.353   8.507  0.4132  0.0698 -0.2361
   87MOL0     C11931   9.079   6.383   8.382  0.4549  0.8186 -0.1493
   87MOL0     C11932   9.017   6.447   8.265  0.0715  0.2052  0.4264
   87MOL0     C11933   8.959   6.503   8.179  0.3297 -0.1784 -0.1755
   87MOL0     C11934   8.718   6.254   8.932 -0.1245 -0.1221 -0.0818
   87MOL0     C11935   8.591   6.250   8.994 -0.2674 -0.3396  0.3499
   87MOL0     C11936   8.553   6.107   9.046  0.0113 -0.4797 -0.1424
   87MOL0     H11937   8.284   6.072   9.327  0.3253  0.3913  0.0313
   87MOL0     H11938   8.111   6.087   9.515  1.0202 -1.1828 -2.0492
   87MOL0     H11939   7.963   6.139   9.693 -2.6179 -1.5226  1.4039
   87MOL0     H11940   7.863   6.164   9.544  1.5272 -3.1759  0.9049
   87MOL0     H11941   7.825   6.324   9.808 -0.3350 -0.6312  0.0896
   87MOL0     H11942   7.743   6.361   9.666 -0.7672  0.9065  1.8186
   87MOL0     H11943   7.641   6.124   9.685 -0.7596 -1.1604  1.5008
   87MOL0     H11944   7.775   6.073   9.791  1.0396  0.1495  0.4363
   87MOL0     H11945   7.688   6.231   9.960 -0.4088 -0.5102  0.3457
   87MOL0     H11946   7.563   6.277   9.846 -0.4506 -0.6226  0.0198
   87MOL0     H11947   7.587   6.026  10.010 -1.1879 -1.9138 -0.7607
   87MOL0     H11948   7.490   6.022   9.862  0.8541 -1.1434  0.5255
   87MOL0     H11949   7.434   6.257  10.033  0.1221 -0.6847  0.6582
   87MOL0     H11950   7.349   6.195   9.898  2.6907  1.3871 -0.9252
   87MOL0     H11951   7.377   6.060  10.182 -0.4977 -2.5932 -0.4864
   87MOL0     H11952   7.320   5.974  10.047 -4.3123 -0.1320 -1.2859
   87MOL0     H11953   7.112   6.098  10.014 -0.3215 -0.5221 -0.2039
   87MOL0     H11954   7.135   6.099  10.190 -1.5053  3.2713  1.0204
   87MOL0     H11955   7.277   6.333  10.267 -0.5948  0.8025  0.7466
   87MOL0     H11956   7.284   6.600  10.275  3.9656  1.2108 -5.9709
   87MOL0     H11957   7.114   6.620  10.299  0.6391 -0.5985  0.6283
   87MOL0     H11958   7.286   6.795  10.202  1.7261 -3.8160  1.2849
   87MOL0     H11959   7.286   6.710  10.055  1.5075  0.9879  1.2993
   87MOL0     H11960   7.124   6.914  10.068 -2.9905 -0.0072 -4.9375
   87MOL0     H11961   7.100   6.763   9.985 -0.2942 -2.8307  1.9079
   87MOL0     H11962   6.886   6.845  10.106 -0.7141  0.0948 -0.2875
   87MOL0     H11963   6.925   6.688  10.143  1.3470  0.0629 -5.2889
   87MOL0     H11964   6.903   7.042  10.138  1.4900  1.2699 -0.7129
   87MOL0     H11965   6.830   7.360  10.224 -2.2958 -1.1725  0.3768
   87MOL0     H11966   6.842   7.248  10.091  0.6600  2.9327 -2.3592
   87MOL0     H11967   6.974   7.347  10.123 -1.5946 -0.2098 -2.3843
   87MOL0     H11968   7.130   7.430  10.750  1.3675  0.6012  0.0444
   87MOL0     H11969   7.168   7.661  10.865 -0.5730  0.7552 -0.7437
   87MOL0     H11970   6.993   7.793  11.059 -0.4521 -0.9494 -1.1855
   87MOL0     H11971   7.135   7.866  10.988  0.0385 -4.1084  2.2869
   87MOL0     H11972   6.874   8.034  10.988 -0.1673  1.3414 -0.2142
   87MOL0     H11973   6.967   8.022  11.133 -0.0878 -0.7978  0.0024
   87MOL0     H11974   7.098   8.079  10.870  1.4416 -0.9783  0.8067
   87MOL0     H11975   7.169   8.106  11.029 -0.9036  2.6310  2.4782
   87MOL0     H11976   6.945   8.271  11.047  2.0452  0.9039  1.8350
   87MOL0     H11977   6.958   8.270  10.875  1.7039 -0.7240 -1.1032
   87MOL0     H11978   7.153   8.372  11.067  2.0201  1.8138 -0.9494
   87MOL0     H11979   7.215   8.309  10.912  0.8127 -0.9458  1.7429
   87MOL0     H11980   7.062   8.466  10.798  2.7605  0.6117 -1.1407
   87MOL0     H11981   7.188   8.550  10.894 -0.6262  1.6195 -3.6920
   87MOL0     H11982   7.010   8.558  11.079  1.7361 -1.2491 -0.2475
   87MOL0     H11983   6.892   8.526  10.953 -1.0193  1.7935 -0.2865
   87MOL0     H11984   7.003   8.744  10.826 -3.4482  1.8556 -0.0828
   87MOL0     H11985   7.041   8.791  10.999 -0.1236  1.8531  0.3085
   87MOL0     H11986   6.768   7.752  10.741 -0.5201 -2.1836 -2.2495
   87MOL0     H11987   6.766   7.558  10.596 -2.0734  0.5744  2.6593
   87MOL0     H11988   7.057   7.137  10.602 -0.1322 -3.6775  1.0486
   87MOL0     H11989   7.060   6.905  10.514  3.6970  1.2692  0.6831
   87MOL0     H11990   8.045   6.492   9.408  5.1837  3.6693  0.2025
   87MOL0     H11991   8.203   6.488   9.242  0.4589 -0.9780 -0.6592
   87MOL0     H11992   8.497   6.571   8.954 -0.3787 -0.4462  4.1971
   87MOL0     H11993   8.715   6.577   8.840 -1.8212  0.5136 -0.7363
   87MOL0     H11994   8.968   6.192   8.821  0.4971  1.9355  1.8489
   87MOL0     H11995   8.858   6.204   8.680 -0.1573  1.0411 -0.5952
   87MOL0     H11996   9.124   6.237   8.622 -1.0639 -1.3555 -1.9047
   87MOL0     H11997   9.101   6.396   8.688 -0.5608  0.3526 -1.0575
   87MOL0     H11998   8.909   6.278   8.481 -0.6401  0.5987  1.1389
   87MOL0     H11999   8.921   6.438   8.536  1.1883  1.4122 -2.2398
   87MOL0     H12000   9.130   6.290   8.358  0.7222  0.6214  1.0933
   87MOL0     H12001   9.158   6.446   8.424 -0.3391  0.4318  2.0848
   87MOL0     H12002   8.892   6.543   8.105 -1.5926 -1.3043  0.8687
   87MOL0     H12003   8.778   6.164   8.929  1.5811  0.9849 -1.2455
   87MOL0     H12004   8.595   6.098   9.146  0.2290  0.3383 -0.1587
   87MOL0     H12005   8.445   6.090   9.045 -0.0261 -0.2852  0.4495
   87MOL0     H12006   8.608   6.036   8.984 -1.0157 -1.6235  0.2132
   88MOL0     O12007   1.598   3.017   6.467  0.3710  0.2923 -0.2148
   88MOL0     C12008   1.685   3.076   6.407 -0.3078  0.3135  0.4004
   88MOL0     O12009   1.689   3.211   6.394  0.4028 -0.1952  0.3117
   88MOL0     C12010   1.570   3.275   6.415 -0.5831 -0.5384  0.0391
   88MOL0     C12011   1.568   3.376   6.516  0.1438  0.9631 -0.0775
   88MOL0     C12012   1.449   3.439   6.552  0.5930  0.0549 -0.5319
   88MOL0     C12013   1.331   3.414   6.474  0.1197  0.3655  0.5745
   88MOL0     O12014   1.210   3.466   6.506  1.1783  0.1567  0.0728
   88MOL0     C12015   1.211   3.598   6.570  0.5829  0.9015 -0.6135
   88MOL0     C12016   1.064   3.631   6.592  0.2690 -1.0113 -0.8126
   88MOL0     C12017   1.046   3.783   6.634 -0.3820 -0.6316 -0.2707
   88MOL0     C12018   0.903   3.796   6.693 -0.2553 -0.0660 -0.5399
   88MOL0     C12019   0.857   3.938   6.707  0.2371 -0.4593  0.3465
   88MOL0     C12020   0.823   4.015   6.568  1.2432  0.5432 -0.3176
   88MOL0     C12021   0.726   4.132   6.590  0.3950  0.3622 -0.8198
   88MOL0     C12022   0.747   4.254   6.487 -0.3772  0.2467 -0.4128
   88MOL0     N12023   0.639   4.347   6.496 -0.4487  0.1851 -0.5586
   88MOL0     C12024   0.592   4.401   6.615  0.7679  0.0788  0.0293
   88MOL0     C12025   0.474   4.462   6.564 -0.2853  0.5475 -0.3429
   88MOL0     C12026   0.379   4.535   6.651 -0.9115  0.6536 -0.5800
   88MOL0     C12027   0.390   4.687   6.646 -0.0356 -0.1977 -0.5306
   88MOL0     C12028   0.519   4.772   6.677 -0.0456  0.9677 -0.2405
   88MOL0     C12029   0.502   4.925   6.704  0.1259  0.7470  0.8576
   88MOL0     O12030   0.623   4.997   6.666  0.0902  0.3968 -0.1406
   88MOL0     C12031   0.752   4.962   6.715 -0.1896 -0.3284  0.3131
   88MOL0     C12032   0.854   4.987   6.627  0.1935  0.0091 -0.4248
   88MOL0     C12033   0.980   4.948   6.650  0.9300  0.7190 -0.3031
   88MOL0     C12034   1.084   4.982   6.544 -0.0341  0.3224 -0.2809
   88MOL0     C12035   1.013   4.891   6.783 -0.3117 -0.0535 -0.0567
   88MOL0     C12036   1.151   4.849   6.829 -0.1068  0.2556 -0.3767
   88MOL0     O12037   1.147   4.752   6.922  0.5471  0.2377 -0.6718
   88MOL0     C12038   1.260   4.695   6.977 -0.0741 -0.4186 -0.1112
   88MOL0     C12039   1.361   4.772   7.032  1.3425 -1.3908  0.3036
   88MOL0     C12040   1.482   4.723   7.080  0.9036  0.2507 -0.7101
   88MOL0     C12041   1.501   4.591   7.071 -0.8859  0.6984  0.4149
   88MOL0     O12042   1.619   4.530   7.109 -0.9938 -0.1862  0.2471
   88MOL0     C12043   1.593   4.475   7.239  0.0554 -0.2972 -0.8858
   88MOL0     C12044   1.626   4.579   7.347 -0.4036 -0.9270 -0.2655
   88MOL0     C12045   1.620   4.523   7.482 -0.7847 -0.6779  0.5967
   88MOL0     C12046   1.595   4.636   7.588  0.2998 -0.5208  0.3173
   88MOL0     C12047   1.577   4.577   7.728 -0.0793 -0.2474  0.1343
   88MOL0     C12048   1.523   4.678   7.824  0.1959  0.1547  0.1659
   88MOL0     C12049   1.518   4.630   7.974  0.9058 -0.2921 -0.2506
   88MOL0     C12050   1.450   4.735   8.072  0.2967 -0.6380  0.0750
   88MOL0    Cl12051   1.572   4.865   8.122  0.0740  0.1739  0.1073
   88MOL0     C12052   1.393   4.502   7.027 -0.1682  0.0241  0.1845
   88MOL0     C12053   1.278   4.561   6.977  0.2177 -0.0442 -0.0627
   88MOL0     O12054   1.251   4.911   6.802  0.3831  0.0734  0.2510
   88MOL0     C12055   0.899   4.857   6.871  0.3933  0.4279 -0.5630
   88MOL0     C12056   0.776   4.903   6.836 -0.1982 -0.0560  0.7982
   88MOL0     N12057   0.469   4.449   6.426  0.2162  0.0184  0.3628
   88MOL0     N12058   0.561   4.375   6.389 -0.8573  0.2688 -0.1379
   88MOL0     C12059   1.335   3.311   6.377  0.1511 -0.2501  0.3815
   88MOL0     C12060   1.457   3.247   6.347 -0.6476  0.2182  0.1059
   88MOL0     C12061   1.785   2.978   6.339  0.4073  0.1947  0.4604
   88MOL0     C12062   1.795   2.852   6.384  0.9843  0.3983 -0.3903
   88MOL0     C12063   1.874   2.754   6.322  0.6476 -0.1247 -1.0836
   88MOL0     C12064   1.965   2.798   6.225 -0.8601  1.5381 -0.5717
   88MOL0     O12065   2.062   2.705   6.182  0.3901  0.7620  0.1755
   88MOL0     C12066   2.191   2.701   6.256  0.6418 -0.1258 -0.3291
   88MOL0     C12067   2.280   2.594   6.197 -0.1605 -1.3569 -0.4602
   88MOL0     C12068   2.382   2.546   6.295  0.2575 -0.0460 -0.1096
   88MOL0     C12069   2.448   2.422   6.255 -0.1744 -0.4718  0.1753
   88MOL0     C12070   2.367   2.298   6.288 -0.7863 -0.3213 -0.2443
   88MOL0     C12071   2.309   2.199   6.318 -0.0399  0.3475  0.7272
   88MOL0     C12072   1.973   2.927   6.184  0.7032 -0.0777  0.0390
   88MOL0     C12073   1.869   3.019   6.226 -0.3570  0.2242 -0.1223
   88MOL0     C12074   1.868   3.151   6.160  0.3199  0.1910  0.1251
   88MOL0     H12075   1.657   3.392   6.576  0.7683  1.4762 -1.1110
   88MOL0     H12076   1.426   3.502   6.638 -0.6461  0.0089 -0.8084
   88MOL0     H12077   1.268   3.675   6.517  0.1397  2.2428  0.7836
   88MOL0     H12078   1.254   3.585   6.670  0.0210 -1.4329 -0.6135
   88MOL0     H12079   1.015   3.609   6.497 -0.3613  0.4083 -0.8498
   88MOL0     H12080   1.018   3.567   6.667  0.0939 -0.2045 -0.2105
   88MOL0     H12081   1.119   3.798   6.714 -0.8277 -5.6756  1.4183
   88MOL0     H12082   1.064   3.849   6.549  1.2465 -1.0759 -0.3196
   88MOL0     H12083   0.845   3.745   6.615  1.9264 -2.4776 -0.7313
   88MOL0     H12084   0.908   3.749   6.792  3.9331  2.3071  0.6333
   88MOL0     H12085   0.936   3.995   6.759  0.3072  0.1245 -0.3883
   88MOL0     H12086   0.762   3.949   6.761 -0.3164  4.4708 -1.2032
   88MOL0     H12087   0.916   4.053   6.526  2.6226 -2.5972 -0.4457
   88MOL0     H12088   0.795   3.958   6.478  2.2098  0.1181 -0.3661
   88MOL0     H12089   0.747   4.169   6.690  0.2643  0.0381 -0.6731
   88MOL0     H12090   0.622   4.097   6.592 -0.0526  1.6677  0.4174
   88MOL0     H12091   0.838   4.310   6.512 -0.2271  0.1751 -0.7907
   88MOL0     H12092   0.770   4.222   6.385  1.2086  1.0638 -0.3443
   88MOL0     H12093   0.634   4.402   6.715  1.7070  2.1111 -0.3487
   88MOL0     H12094   0.396   4.508   6.756  3.7537  3.1060 -0.4741
   88MOL0     H12095   0.283   4.493   6.618  0.6563 -1.3943 -2.8913
   88MOL0     H12096   0.362   4.723   6.547 -0.0497  0.9597 -0.1184
   88MOL0     H12097   0.313   4.727   6.713  1.3514  1.1138  0.3467
   88MOL0     H12098   0.576   4.730   6.760 -1.5926 -0.5540  0.1034
   88MOL0     H12099   0.569   4.759   6.581  1.7798 -3.8058  1.0577
   88MOL0     H12100   0.413   4.958   6.651  2.0696  0.3338 -3.0285
   88MOL0     H12101   0.499   4.932   6.813 -0.8653  0.9804  0.8219
   88MOL0     H12102   0.818   5.046   6.543 -0.5697  0.6611  0.3453
   88MOL0     H12103   1.032   4.987   6.448 -0.6965  1.5545  0.1159
   88MOL0     H12104   1.164   4.909   6.530  0.3966 -0.4362  4.6185
   88MOL0     H12105   1.130   5.078   6.568 -0.3407  0.3744  0.1050
   88MOL0     H12106   1.348   4.880   7.029 -0.4727 -1.5841 -3.1079
   88MOL0     H12107   1.552   4.798   7.116 -1.8134  1.6106  2.2308
   88MOL0     H12108   1.492   4.434   7.244 -1.2158  2.5654 -1.2188
   88MOL0     H12109   1.660   4.389   7.243 -0.5072 -0.7369 -0.8411
   88MOL0     H12110   1.729   4.610   7.328 -0.5800 -0.7887 -1.0716
   88MOL0     H12111   1.565   4.666   7.320  0.9338 -0.5477 -2.2751
   88MOL0     H12112   1.705   4.462   7.513 -2.2204 -2.6153  0.8695
   88MOL0     H12113   1.532   4.458   7.480 -0.5984 -0.9204 -0.0041
   88MOL0     H12114   1.506   4.696   7.567  1.0696  2.1323  3.7541
   88MOL0     H12115   1.682   4.701   7.583  0.2924 -0.3429  1.9874
   88MOL0     H12116   1.506   4.494   7.724  0.3878 -0.6348 -2.9556
   88MOL0     H12117   1.671   4.537   7.767 -0.2387  0.5128  1.3245
   88MOL0     H12118   1.425   4.710   7.786  1.2752  2.3651 -0.9767
   88MOL0     H12119   1.581   4.771   7.820 -2.0211  1.6248  0.2780
   88MOL0     H12120   1.615   4.602   8.016 -0.5680 -2.6394  1.9220
   88MOL0     H12121   1.462   4.536   7.971  2.0616 -0.9962 -0.2902
   88MOL0     H12122   1.408   4.682   8.158  1.2428  0.6785  1.4125
   88MOL0     H12123   1.376   4.788   8.011  1.7741  0.5413 -0.7799
   88MOL0     H12124   1.410   4.395   7.034 -2.0488 -0.2408  1.4494
   88MOL0     H12125   1.194   4.503   6.938 -0.3683  1.2802 -0.8404
   88MOL0     H12126   0.909   4.800   6.963 -3.2628  0.3693 -0.0593
   88MOL0     H12127   0.697   4.879   6.906 -2.2742 -0.3107 -1.4658
   88MOL0     H12128   1.246   3.292   6.318  0.0537 -2.0321  1.0511
   88MOL0     H12129   1.448   3.173   6.269  0.4325  1.2298 -1.0223
   88MOL0     H12130   1.756   2.808   6.475 -0.4556 -0.2890 -1.3040
   88MOL0     H12131   1.887   2.654   6.364 -0.8233  0.1100  0.0311
   88MOL0     H12132   2.241   2.797   6.245 -1.5647  1.0260 -0.8346
   88MOL0     H12133   2.179   2.670   6.360  0.7009 -1.2652 -0.6457
   88MOL0     H12134   2.322   2.641   6.108 -2.4136  2.1978  0.1583
   88MOL0     H12135   2.221   2.510   6.161 -2.0875 -0.7341  1.0868
   88MOL0     H12136   2.463   2.618   6.306  0.1052  0.3473 -1.3700
   88MOL0     H12137   2.338   2.527   6.394  0.5795 -1.2952 -0.1864
   88MOL0     H12138   2.543   2.395   6.303 -0.7101 -1.9856  0.4495
   88MOL0     H12139   2.456   2.420   6.146  0.7729  0.0833  0.2213
   88MOL0     H12140   2.255   2.111   6.344 -0.9197 -0.2337 -2.5843
   88MOL0     H12141   2.047   2.949   6.108 -1.3709  0.9464 -1.7882
   88MOL0     H12142   1.959   3.209   6.179  0.4052  0.0480  0.1511
   88MOL0     H12143   1.856   3.133   6.053  0.9784 -1.1315  0.2594
   88MOL0     H12144   1.775   3.207   6.176 -0.5477 -0.8824 -0.9445
   89MOL0     O12145   9.069   8.420   7.680  0.4670  0.1471 -0.1880
   89MOL0     C12146   8.960   8.426   7.733  0.3355  0.7949  0.3837
   89MOL0     O12147   8.844   8.420   7.665 -0.8074 -0.5944 -0.3396
   89MOL0     C12148   8.826   8.305   7.587  0.1207  1.2237  0.0486
   89MOL0     C12149   8.887   8.295   7.459  0.0320 -0.2319 -0.1726
   89MOL0     C12150   8.858   8.189   7.375  0.0504  0.5755 -1.0193
   89MOL0     C12151   8.798   8.072   7.419  0.4843  0.0128  1.2845
   89MOL0     O12152   8.783   7.959   7.330  0.3530 -0.1890 -0.5208
   89MOL0     C12153   8.871   7.854   7.363 -0.3282 -0.1720  0.1634
   89MOL0     C12154   8.907   7.790   7.232 -0.2269  0.1775  0.9535
   89MOL0     C12155   9.011   7.874   7.156 -0.6283 -0.6959  0.5338
   89MOL0     C12156   9.026   7.795   7.024 -1.4538  0.9015 -0.3535
   89MOL0     C12157   9.137   7.850   6.921  0.6103  0.3474 -0.1283
   89MOL0     C12158   9.132   7.797   6.776  0.4248 -1.1644 -0.8415
   89MOL0     C12159   9.208   7.883   6.673  0.3998  0.4250 -0.6757
   89MOL0     C12160   9.119   7.981   6.592 -0.0931 -0.0407 -0.8368
   89MOL0     N12161   9.187   8.065   6.498 -0.8508 -0.6658 -0.1977
   89MOL0     C12162   9.187   8.056   6.359  0.4360 -0.6976 -0.7392
   89MOL0     C12163   9.279   8.152   6.316  0.2196 -0.1497 -0.4422
   89MOL0     C12164   9.325   8.163   6.175 -0.1281  0.2344 -0.1613
   89MOL0     C12165   9.436   8.062   6.124 -0.2352 -0.2619  0.5590
   89MOL0     C12166   9.465   8.078   5.973  0.0008  0.5590  0.6080
   89MOL0     C12167   9.555   7.972   5.919  0.0385 -0.1693 -0.1153
   89MOL0     O12168   9.697   8.006   5.946  0.9752 -0.0090 -0.3754
   89MOL0     C12169   9.792   7.911   5.986 -0.0154 -0.7092 -0.8277
   89MOL0     C12170   9.788   7.775   5.964  0.5348  0.6706 -0.2619
   89MOL0     C12171   9.893   7.682   5.987 -0.3328 -0.0159 -0.7360
   89MOL0     C12172   9.865   7.535   5.969 -0.0757  0.1367  0.9823
   89MOL0     C12173  10.008   7.736   6.041 -0.0281  0.4613 -0.0264
   89MOL0     C12174  10.126   7.659   6.086 -0.1379  0.4597  0.4915
   89MOL0     O12175  10.115   7.599   6.208  0.1054  0.1010 -0.2475
   89MOL0     C12176  10.218   7.513   6.228 -0.1109 -0.3013 -0.4926
   89MOL0     C12177  10.220   7.386   6.163  0.6492 -0.2862  0.3949
   89MOL0     C12178  10.335   7.311   6.174 -0.8328  0.9499 -0.3683
   89MOL0     C12179  10.433   7.345   6.255 -0.6750 -1.0461 -0.2219
   89MOL0     O12180  10.544   7.281   6.290 -0.2107  1.0377 -0.0806
   89MOL0     C12181  10.544   7.140   6.287  0.2225  0.3267 -0.1704
   89MOL0     C12182  10.685   7.084   6.321  0.4156 -0.7184 -0.5893
   89MOL0     C12183  10.694   6.947   6.382  0.7244  0.4960 -0.2273
   89MOL0     C12184  10.635   6.834   6.283  0.2719  0.5968  0.6269
   89MOL0     C12185  10.666   6.695   6.339  0.3092  0.0333  0.2331
   89MOL0     C12186  10.564   6.593   6.294  0.2163  1.0807  0.3505
   89MOL0     C12187  10.616   6.514   6.172  0.4754 -0.0010  0.0708
   89MOL0     C12188  10.546   6.383   6.147  0.1196 -0.0371 -0.3664
   89MOL0    Cl12189  10.537   6.270   6.291 -0.3434  0.1549  0.2817
   89MOL0     C12190  10.428   7.463   6.332 -0.0343 -0.6360  1.2596
   89MOL0     C12191  10.319   7.543   6.320  1.1059  0.8996  0.9389
   89MOL0     O12192  10.229   7.669   6.018  0.7342  0.6551  0.0304
   89MOL0     C12193  10.025   7.880   6.056  0.1744  0.0204  0.5685
   89MOL0     C12194   9.912   7.961   6.037 -0.3949 -1.6779 -0.0396
   89MOL0     N12195   9.335   8.222   6.427  0.9826 -0.0033 -0.6807
   89MOL0     N12196   9.271   8.171   6.533  0.7437 -0.3842 -0.1812
   89MOL0     C12197   8.743   8.075   7.549  0.7215  0.0081 -0.2480
   89MOL0     C12198   8.747   8.192   7.627 -0.5708 -0.2281 -0.1099
   89MOL0     C12199   8.945   8.443   7.879  0.7768 -0.1882  0.6271
   89MOL0     C12200   8.852   8.532   7.919  1.1055  0.3046 -0.4901
   89MOL0     C12201   8.831   8.567   8.053 -0.2613  0.3020  0.6921
   89MOL0     C12202   8.912   8.506   8.150  0.3094  0.3680 -0.2410
   89MOL0     O12203   8.902   8.524   8.285  0.2355  0.0185  0.7590
   89MOL0     C12204   8.804   8.615   8.337  0.1275 -0.3329 -1.1205
   89MOL0     C12205   8.867   8.747   8.343 -0.8297 -0.3687  0.3263
   89MOL0     C12206   8.783   8.860   8.388  0.4710 -0.7293 -0.3638
   89MOL0     C12207   8.861   8.993   8.407 -0.0623 -0.1819  0.8279
   89MOL0     C12208   8.947   9.026   8.296  0.5910 -0.3439  0.6717
   89MOL0     C12209   9.004   9.040   8.189  0.4818 -0.8391 -0.5504
   89MOL0     C12210   9.004   8.408   8.112 -0.7996 -0.8387 -0.4009
   89MOL0     C12211   9.031   8.383   7.980  0.4551 -0.4212  0.0708
   89MOL0     C12212   9.155   8.284   7.953 -0.2517 -0.0730 -1.1556
   89MOL0     H12213   8.940   8.384   7.429  0.2608  0.4433  2.0297
   89MOL0     H12214   8.885   8.188   7.270  0.2939 -2.0501 -0.9868
   89MOL0     H12215   8.834   7.779   7.433  3.9145  0.5128  3.5207
   89MOL0     H12216   8.959   7.897   7.412 -1.7147  1.9575  0.9182
   89MOL0     H12217   8.954   7.692   7.248  1.4539  0.9523  1.0521
   89MOL0     H12218   8.817   7.762   7.176 -1.1031 -0.7048  2.7101
   89MOL0     H12219   8.973   7.975   7.141 -1.9716 -1.3292 -0.5813
   89MOL0     H12220   9.105   7.874   7.213 -1.3378  1.2392  1.7760
   89MOL0     H12221   9.055   7.691   7.043  3.1117  1.9623 -0.4169
   89MOL0     H12222   8.930   7.794   6.972 -1.2561 -1.3473 -0.7934
   89MOL0     H12223   9.241   7.831   6.947  1.6032  0.6941 -3.3817
   89MOL0     H12224   9.126   7.959   6.920  1.3947  0.4973  2.3948
   89MOL0     H12225   9.155   7.691   6.771 -2.4059 -1.7917 -2.7240
   89MOL0     H12226   9.029   7.809   6.744 -0.2020  2.1526  1.7702
   89MOL0     H12227   9.238   7.807   6.601 -0.9336 -2.5975  1.7200
   89MOL0     H12228   9.288   7.935   6.725 -0.1787 -1.1821  2.0395
   89MOL0     H12229   9.045   7.925   6.533 -0.5781  0.6666 -0.9204
   89MOL0     H12230   9.067   8.046   6.663  0.3006 -0.1092 -0.4899
   89MOL0     H12231   9.127   7.992   6.296 -3.1501  1.4543  0.2297
   89MOL0     H12232   9.359   8.266   6.160 -1.5241  1.0953  2.1208
   89MOL0     H12233   9.236   8.150   6.112  0.3182 -0.5892 -0.6420
   89MOL0     H12234   9.528   8.082   6.180 -0.2285  2.8395 -0.3483
   89MOL0     H12235   9.401   7.960   6.137 -1.1415 -0.2347 -1.3554
   89MOL0     H12236   9.370   8.068   5.920  0.0935 -1.4156  0.7233
   89MOL0     H12237   9.515   8.172   5.952  3.7892 -1.4625 -0.1846
   89MOL0     H12238   9.521   7.877   5.961  1.2557 -0.5338  0.0770
   89MOL0     H12239   9.539   7.953   5.812 -2.5075  1.2970 -0.0714
   89MOL0     H12240   9.705   7.737   5.905 -0.2172  2.0720 -0.1255
   89MOL0     H12241   9.866   7.508   5.862  1.9124 -2.0264  1.4591
   89MOL0     H12242   9.766   7.519   6.012 -0.1398  0.2637  0.8822
   89MOL0     H12243   9.938   7.476   6.024 -0.8036 -1.2866  0.4866
   89MOL0     H12244  10.143   7.354   6.094 -0.3567  1.2360  0.7706
   89MOL0     H12245  10.337   7.211   6.133  1.6400  1.2190 -1.0951
   89MOL0     H12246  10.473   7.118   6.368  0.1154  1.7562  0.1537
   89MOL0     H12247  10.493   7.093   6.203  1.2990  1.1934 -1.3449
   89MOL0     H12248  10.739   7.082   6.226  0.3543 -1.8067 -0.6066
   89MOL0     H12249  10.730   7.159   6.387 -2.4155  1.5845 -1.0313
   89MOL0     H12250  10.651   6.939   6.482  0.6038 -0.4242 -0.3352
   89MOL0     H12251  10.800   6.923   6.390  0.3833 -0.8943  0.4039
   89MOL0     H12252  10.663   6.845   6.177 -2.8763 -1.6264 -0.5796
   89MOL0     H12253  10.528   6.855   6.289  0.5259  1.5644  2.3738
   89MOL0     H12254  10.771   6.675   6.319  1.0726 -0.2708  3.7860
   89MOL0     H12255  10.654   6.698   6.448 -1.5538  2.1628  0.0321
   89MOL0     H12256  10.468   6.642   6.274  1.0855  2.6317 -0.2166
   89MOL0     H12257  10.552   6.518   6.372 -1.1973  1.3535  0.4207
   89MOL0     H12258  10.715   6.474   6.193 -0.6248 -1.3608  3.3539
   89MOL0     H12259  10.625   6.591   6.095  1.8700 -1.3158 -1.1629
   89MOL0     H12260  10.600   6.332   6.067 -1.1642 -1.8124 -0.1769
   89MOL0     H12261  10.443   6.398   6.117  0.7796  0.3759 -2.5596
   89MOL0     H12262  10.503   7.500   6.402 -0.4470 -0.5449  1.6572
   89MOL0     H12263  10.304   7.631   6.382  0.8645  2.3872 -1.1211
   89MOL0     H12264  10.120   7.924   6.084 -0.6301  1.7251  0.7749
   89MOL0     H12265   9.924   8.066   6.059 -2.0088 -1.6525  0.8953
   89MOL0     H12266   8.679   8.001   7.596 -1.3972  0.1133 -2.7053
   89MOL0     H12267   8.708   8.185   7.728  0.1885 -0.1753  0.1950
   89MOL0     H12268   8.789   8.563   7.835 -2.0897  1.0637  1.9882
   89MOL0     H12269   8.754   8.642   8.069  1.8024  2.3293  1.6402
   89MOL0     H12270   8.718   8.611   8.269  0.2398 -4.2256 -1.2609
   89MOL0     H12271   8.772   8.599   8.440 -2.9928 -0.2110 -1.9518
   89MOL0     H12272   8.888   8.770   8.238  2.5005  0.2823  1.0084
   89MOL0     H12273   8.961   8.740   8.399 -1.1085  1.4129  1.0801
   89MOL0     H12274   8.709   8.878   8.309  0.5774 -0.6466 -0.4455
   89MOL0     H12275   8.731   8.837   8.481 -0.3053  1.8843 -0.0734
   89MOL0     H12276   8.917   8.979   8.500 -1.5751  1.4640  2.0491
   89MOL0     H12277   8.774   9.059   8.413 -3.0111 -3.8333  1.8490
   89MOL0     H12278   9.060   9.065   8.101 -1.4961 -0.2479 -1.6813
   89MOL0     H12279   9.069   8.369   8.190  1.7886  0.6317 -1.7099
   89MOL0     H12280   9.177   8.265   7.848  2.5089 -4.1817 -0.0302
   89MOL0     H12281   9.247   8.329   7.992  0.0384 -2.8931  1.9015
   89MOL0     H12282   9.150   8.186   8.001  2.4582  0.9388  1.5020
   90MOL0     O12283  11.062  10.446   4.320  0.6912  0.6488 -0.2560
   90MOL0     C12284  11.145  10.411   4.402 -0.5377 -0.4749  0.5561
   90MOL0     O12285  11.274  10.439   4.390 -0.4698  0.5678  0.4905
   90MOL0     C12286  11.318  10.509   4.272  1.0124  0.1437 -0.1945
   90MOL0     C12287  11.368  10.433   4.169 -0.5868 -0.1450  0.7031
   90MOL0     C12288  11.410  10.492   4.051 -0.4743  0.2352  0.8135
   90MOL0     C12289  11.403  10.631   4.026  0.1405  0.2245 -1.0146
   90MOL0     O12290  11.423  10.668   3.892  0.2927 -0.0378 -0.3683
   90MOL0     C12291  11.452  10.806   3.854 -0.2613  0.5284 -0.3737
   90MOL0     C12292  11.600  10.816   3.814  0.3362 -0.5603 -0.1150
   90MOL0     C12293  11.688  10.837   3.937  0.5647  0.1380 -0.1935
   90MOL0     C12294  11.650  10.980   3.996 -0.2753  0.0186 -0.8390
   90MOL0     C12295  11.771  11.044   4.063 -0.3607 -0.6382 -0.5164
   90MOL0     C12296  11.773  11.191   4.105 -0.0144  0.1394  0.2253
   90MOL0     C12297  11.658  11.220   4.213 -0.2158 -0.7070 -0.2233
   90MOL0     C12298  11.638  11.368   4.245  0.2633 -0.9118  0.5482
   90MOL0     N12299  11.638  11.463   4.126 -0.3776 -0.1965 -0.4902
   90MOL0     C12300  11.536  11.476   4.041  0.7019  0.0966 -0.3641
   90MOL0     C12301  11.529  11.604   3.992 -1.2262 -0.1180 -0.1688
   90MOL0     C12302  11.420  11.670   3.916  0.7287  0.5587  0.1097
   90MOL0     C12303  11.345  11.586   3.815  1.1327  0.6473 -0.1892
   90MOL0     C12304  11.232  11.658   3.743  0.5558 -0.7753 -0.3309
   90MOL0     C12305  11.096  11.667   3.811  0.0864  0.2014  0.7112
   90MOL0     O12306  11.070  11.530   3.863  0.5262 -0.1334  0.3532
   90MOL0     C12307  10.959  11.509   3.945  0.2457 -1.2391  0.1760
   90MOL0     C12308  10.860  11.603   3.981 -1.0692  0.9743 -0.1371
   90MOL0     C12309  10.745  11.568   4.048  0.2755 -0.2638 -0.0123
   90MOL0     C12310  10.661  11.685   4.084 -0.6160 -0.2947 -0.7337
   90MOL0     C12311  10.731  11.436   4.100 -0.9908  0.4958  0.0865
   90MOL0     C12312  10.625  11.385   4.183  1.3528 -0.4334 -0.8957
   90MOL0     O12313  10.636  11.264   4.247 -1.1871 -0.0307  0.5582
   90MOL0     C12314  10.537  11.214   4.329  0.3282 -0.6883  0.3434
   90MOL0     C12315  10.465  11.099   4.292 -0.9012  0.3070  0.0940
   90MOL0     C12316  10.356  11.052   4.372  0.6693  0.2943  0.0595
   90MOL0     C12317  10.321  11.131   4.489  0.2767  0.5178  1.0144
   90MOL0     O12318  10.222  11.097   4.579  0.0710 -0.4823  0.5702
   90MOL0     C12319  10.101  11.034   4.517  0.0851 -0.0268 -0.2153
   90MOL0     C12320   9.992  11.024   4.628 -0.5546  0.9939 -0.6351
   90MOL0     C12321   9.926  11.155   4.655  0.4901 -0.9190  0.2084
   90MOL0     C12322   9.810  11.150   4.756  1.0051 -0.1614  0.2662
   90MOL0     C12323   9.754  11.290   4.791  0.0703  0.1430  0.9403
   90MOL0     C12324   9.841  11.411   4.798 -0.0384  0.5124 -0.2473
   90MOL0     C12325   9.754  11.535   4.835 -0.1410 -0.4188  0.0590
   90MOL0     C12326   9.854  11.653   4.822 -0.0830 -0.8159 -0.2971
   90MOL0    Cl12327   9.750  11.791   4.851  0.1588 -0.2307  0.4347
   90MOL0     C12328  10.404  11.239   4.521  0.2824  0.5839  0.7618
   90MOL0     C12329  10.509  11.283   4.445  0.9005 -0.5067 -0.6621
   90MOL0     O12330  10.516  11.446   4.176  0.2422  0.0133  0.1276
   90MOL0     C12331  10.833  11.345   4.064  0.2853  0.0431 -0.4359
   90MOL0     C12332  10.944  11.381   3.992  0.7873  0.9050 -0.0252
   90MOL0     N12333  11.636  11.668   4.060 -0.6627  0.0162  0.0717
   90MOL0     N12334  11.698  11.582   4.134 -0.1785  0.8559  0.0121
   90MOL0     C12335  11.369  10.717   4.141 -0.1435  0.6755  0.2760
   90MOL0     C12336  11.315  10.645   4.257  0.2517 -1.1119  0.0775
   90MOL0     C12337  11.100  10.338   4.534  0.3363  0.1037 -0.8326
   90MOL0     C12338  10.977  10.379   4.593  0.7172 -0.1269 -0.5720
   90MOL0     C12339  10.928  10.307   4.706 -0.2281  0.7377 -0.0103
   90MOL0     C12340  10.994  10.197   4.762 -0.0238 -0.1050  0.1080
   90MOL0     O12341  10.936  10.137   4.869  0.2471 -0.3533  0.0091
   90MOL0     C12342  11.010  10.048   4.954  0.9904  0.3391  0.3416
   90MOL0     C12343  11.120  10.135   5.025  0.1368  0.1485 -0.7123
   90MOL0     C12344  11.063  10.272   5.062  0.3644  0.2982  0.7294
   90MOL0     C12345  10.950  10.276   5.174 -0.1970  0.6155  0.7997
   90MOL0     C12346  10.973  10.176   5.282 -0.5680 -0.1375 -0.3209
   90MOL0     C12347  10.990  10.096   5.369 -0.3494  0.2175 -0.5206
   90MOL0     C12348  11.121  10.168   4.710  0.1295  0.0558 -0.9999
   90MOL0     C12349  11.179  10.240   4.603 -0.3624  0.3807  1.1617
   90MOL0     C12350  11.308  10.192   4.542  1.1811 -0.2881 -0.4731
   90MOL0     H12351  11.378  10.325   4.177 -0.3854 -0.1003  1.0905
   90MOL0     H12352  11.451  10.435   3.968 -1.4752 -0.6950  0.9392
   90MOL0     H12353  11.409  10.876   3.926 -0.0564 -0.4133  0.6830
   90MOL0     H12354  11.406  10.836   3.759 -0.0997 -0.3523 -0.7421
   90MOL0     H12355  11.640  10.730   3.761  1.5317  0.5219 -1.0375
   90MOL0     H12356  11.618  10.906   3.753  2.6389  0.5955  2.1095
   90MOL0     H12357  11.671  10.748   3.998  1.8706 -2.4183 -3.3316
   90MOL0     H12358  11.795  10.842   3.913  0.4147  4.3620 -0.8109
   90MOL0     H12359  11.618  11.049   3.917 -4.8449 -3.4468 -2.4994
   90MOL0     H12360  11.571  10.965   4.070  1.5810 -3.1144  0.7269
   90MOL0     H12361  11.861  11.038   4.002  0.0335  2.2636 -0.3529
   90MOL0     H12362  11.787  10.981   4.152  0.3656 -0.5136 -0.5569
   90MOL0     H12363  11.870  11.215   4.149  0.6473 -0.4928 -0.8612
   90MOL0     H12364  11.750  11.248   4.015 -2.1148 -2.3704 -0.9625
   90MOL0     H12365  11.674  11.162   4.304  1.5280 -1.6510 -1.0639
   90MOL0     H12366  11.569  11.176   4.167  0.7205  0.2319 -3.1770
   90MOL0     H12367  11.541  11.383   4.293 -0.9261 -1.9687 -1.4048
   90MOL0     H12368  11.713  11.403   4.318 -1.8733  2.4977  1.3343
   90MOL0     H12369  11.460  11.403   4.017  0.2364  0.8180 -1.1844
   90MOL0     H12370  11.456  11.757   3.862  0.0059  1.9453  1.7789
   90MOL0     H12371  11.354  11.712   3.993  0.9014 -0.0485  0.6029
   90MOL0     H12372  11.426  11.560   3.745  1.1280  0.2736 -0.0613
   90MOL0     H12373  11.305  11.498   3.867 -0.3200  0.8972 -0.8501
   90MOL0     H12374  11.263  11.759   3.716 -0.3202 -0.3078  0.3515
   90MOL0     H12375  11.221  11.609   3.646 -0.9286  0.6948 -0.9495
   90MOL0     H12376  11.113  11.740   3.890 -0.2055  2.2192 -0.9928
   90MOL0     H12377  11.011  11.692   3.747  0.0952 -0.3020  0.4969
   90MOL0     H12378  10.886  11.705   3.954 -0.6587  0.5489 -1.4466
   90MOL0     H12379  10.699  11.778   4.040 -1.7377 -0.1321 -1.3920
   90MOL0     H12380  10.664  11.711   4.190 -0.0697  0.4666 -0.9251
   90MOL0     H12381  10.556  11.669   4.055 -0.3774 -4.1011  0.0461
   90MOL0     H12382  10.473  11.049   4.196  1.9075  3.6960 -1.6842
   90MOL0     H12383  10.309  10.957   4.352  2.5393 -0.5978 -0.2941
   90MOL0     H12384  10.066  11.088   4.428  1.2538 -2.5866 -2.3625
   90MOL0     H12385  10.136  10.938   4.478  0.0824  0.1197 -0.5884
   90MOL0     H12386   9.910  10.955   4.602 -0.6555  0.0763  1.8531
   90MOL0     H12387  10.032  10.992   4.724 -1.1758  0.6614 -0.4800
   90MOL0     H12388   9.895  11.190   4.556  3.2683 -1.6465 -1.0192
   90MOL0     H12389  10.001  11.222   4.698  1.4639 -1.2514 -0.9215
   90MOL0     H12390   9.849  11.105   4.848 -0.0249  1.1824  1.3995
   90MOL0     H12391   9.731  11.093   4.706  2.0755  1.4594 -3.6962
   90MOL0     H12392   9.667  11.309   4.727 -2.2847  0.0578  3.9173
   90MOL0     H12393   9.706  11.265   4.886  1.4200  0.4907  1.7411
   90MOL0     H12394   9.878  11.417   4.695  3.0834 -0.2166  0.7521
   90MOL0     H12395   9.925  11.393   4.865  0.3538 -1.3319 -1.1531
   90MOL0     H12396   9.711  11.537   4.936  3.7218  0.1285  1.8678
   90MOL0     H12397   9.676  11.561   4.762  1.7938  2.2349 -1.2239
   90MOL0     H12398   9.909  11.667   4.728  0.1340  2.4830  0.1997
   90MOL0     H12399   9.929  11.646   4.901  2.3980 -1.3155 -2.5425
   90MOL0     H12400  10.386  11.302   4.608 -0.0329  2.4683 -0.5916
   90MOL0     H12401  10.561  11.378   4.458 -0.2808 -0.0047  0.5597
   90MOL0     H12402  10.825  11.242   4.099 -0.3770  0.2645  0.0938
   90MOL0     H12403  11.026  11.310   3.979 -0.8662 -1.3603  1.0795
   90MOL0     H12404  11.360  10.824   4.128  0.6762  0.8005  0.6983
   90MOL0     H12405  11.280  10.707   4.339  2.4323  0.6871 -0.2712
   90MOL0     H12406  10.918  10.457   4.546 -2.1096 -1.9314 -0.2506
   90MOL0     H12407  10.832  10.342   4.743 -0.9737  0.1680 -1.3360
   90MOL0     H12408  10.944  10.013   5.034 -2.8103  2.0088 -1.8096
   90MOL0     H12409  11.049   9.959   4.904  1.0856 -0.4947  1.8515
   90MOL0     H12410  11.205  10.160   4.961 -1.4803  1.4245 -2.4727
   90MOL0     H12411  11.143  10.081   5.117 -2.1384 -0.5386 -0.4733
   90MOL0     H12412  11.145  10.332   5.103 -0.8665  0.9421  2.3558
   90MOL0     H12413  11.027  10.332   4.978  0.3986  0.2873  0.7070
   90MOL0     H12414  10.857  10.250   5.122  0.0165 -1.4841  1.3976
   90MOL0     H12415  10.933  10.371   5.225  1.9765 -0.9715  4.8574
   90MOL0     H12416  11.005  10.009   5.430 -0.4877  0.1505 -0.5817
   90MOL0     H12417  11.170  10.085   4.760  1.7638  0.0818 -2.4781
   90MOL0     H12418  11.365  10.286   4.547 -1.2428  1.3259 -1.5244
   90MOL0     H12419  11.347  10.105   4.595  1.7165  0.4555  0.3889
   90MOL0     H12420  11.303  10.164   4.436  2.4104 -1.4635 -0.2505
   91MOL0     O12421   8.562   6.697  11.381 -0.7969  0.0363 -0.6788
   91MOL0     C12422   8.518   6.810  11.379 -0.1869  0.6050 -0.0095
   91MOL0     O12423   8.591   6.924  11.393 -0.3795  0.1203  0.3493
   91MOL0     C12424   8.721   6.925  11.342  0.9906  0.4186  0.0433
   91MOL0     C12425   8.813   7.014  11.401 -1.0501 -0.1449  0.5174
   91MOL0     C12426   8.943   7.037  11.334  0.3327  0.0338  0.4653
   91MOL0     C12427   8.984   6.968  11.214  0.2426 -0.1651 -0.6646
   91MOL0     O12428   9.105   6.977  11.155  0.5247  0.0895  0.3861
   91MOL0     C12429   9.208   7.033  11.233 -0.2604 -0.0590 -0.7565
   91MOL0     C12430   9.334   6.977  11.158  0.8494  0.5651 -0.9965
   91MOL0     C12431   9.452   6.982  11.248  0.5056  1.1206 -0.2016
   91MOL0     C12432   9.443   6.870  11.345  0.3948  0.1161 -0.0339
   91MOL0     C12433   9.591   6.824  11.378  0.4980 -0.5133  0.1067
   91MOL0     C12434   9.582   6.709  11.481  0.5086  0.0647  0.5789
   91MOL0     C12435   9.718   6.664  11.520  0.4403 -0.3567  0.8783
   91MOL0     C12436   9.728   6.557  11.643 -0.0408  1.3630  0.8697
   91MOL0     N12437   9.873   6.516  11.658  0.1349 -0.6037 -0.2863
   91MOL0     C12438   9.943   6.515  11.782  0.5607 -0.3189  0.1478
   91MOL0     C12439  10.069   6.474  11.757 -0.3518  0.4267 -0.9277
   91MOL0     C12440  10.178   6.464  11.854 -0.4794 -0.5590  0.4698
   91MOL0     C12441  10.311   6.413  11.788  0.1415  0.7947 -0.6900
   91MOL0     C12442  10.417   6.414  11.897 -0.0584 -0.4460 -0.4838
   91MOL0     C12443  10.551   6.380  11.835 -0.3410 -1.4919  0.2299
   91MOL0     O12444  10.556   6.262  11.754  0.0925  0.2418  0.1823
   91MOL0     C12445  10.685   6.231  11.715  0.0870 -0.5925 -0.3144
   91MOL0     C12446  10.804   6.307  11.735  0.2955 -0.0820  0.0276
   91MOL0     C12447  10.924   6.258  11.689 -0.2744  0.2730  0.6860
   91MOL0     C12448  11.058   6.332  11.712  0.7699  0.2859 -0.2242
   91MOL0     C12449  10.928   6.133  11.611 -0.1944 -0.2840 -0.6045
   91MOL0     C12450  11.055   6.059  11.575  0.2369 -0.4757 -0.1054
   91MOL0     O12451  11.172   6.079  11.641  0.4589  0.3181  0.2822
   91MOL0     C12452  11.255   5.973  11.627 -0.0440 -0.0777 -0.5119
   91MOL0     C12453  11.367   5.972  11.544  0.2730 -1.0154  0.0144
   91MOL0     C12454  11.434   5.851  11.520  0.2132 -0.9556 -0.2767
   91MOL0     C12455  11.394   5.729  11.580 -0.2931 -0.5772  0.8042
   91MOL0     O12456  11.471   5.621  11.539 -0.6862 -0.8999  0.3833
   91MOL0     C12457  11.506   5.530  11.638  0.3699 -0.1777 -0.6842
   91MOL0     C12458  11.591   5.599  11.748  0.1462  0.2708 -0.2198
   91MOL0     C12459  11.664   5.488  11.833  0.1514  0.1293 -0.1528
   91MOL0     C12460  11.723   5.534  11.965 -0.2306 -0.1659  0.1057
   91MOL0     C12461  11.632   5.577  12.090  0.2253 -1.0045  0.3842
   91MOL0     C12462  11.566   5.459  12.157 -0.9767 -0.0328  0.8451
   91MOL0     C12463  11.469   5.520  12.262  0.5288 -0.8014 -0.8658
   91MOL0     C12464  11.492   5.469  12.404 -0.0827 -0.2842 -0.2072
   91MOL0    Cl12465  11.642   5.550  12.475  0.7604  0.2190 -0.0886
   91MOL0     C12466  11.294   5.736  11.684  0.6402  0.4969 -0.8203
   91MOL0     C12467  11.224   5.856  11.703  0.2409 -0.0837  0.0651
   91MOL0     O12468  11.043   5.974  11.486 -0.0134  0.3922  0.3085
   91MOL0     C12469  10.804   6.064  11.578  0.5986  0.6567 -0.4171
   91MOL0     C12470  10.686   6.117  11.632  0.7659  0.7196  0.3341
   91MOL0     N12471  10.074   6.436  11.622 -0.2590  0.5481 -0.5368
   91MOL0     N12472   9.956   6.458  11.573  0.0487  0.3973  0.8232
   91MOL0     C12473   8.888   6.891  11.156  0.2526 -0.0866  1.2189
   91MOL0     C12474   8.757   6.874  11.215 -0.7373 -0.4756  0.4135
   91MOL0     C12475   8.371   6.816  11.363 -0.2796 -0.1277 -0.2271
   91MOL0     C12476   8.303   6.701  11.338  0.0130  0.8290  0.7912
   91MOL0     C12477   8.165   6.706  11.316  0.2275  0.3877  0.7346
   91MOL0     C12478   8.086   6.823  11.328  0.2292 -0.5987  0.0110
   91MOL0     O12479   7.954   6.826  11.320 -0.5887 -0.2911  0.4136
   91MOL0     C12480   7.878   6.706  11.269 -0.0562 -0.2542 -0.1225
   91MOL0     C12481   7.731   6.730  11.249 -0.4982 -0.4686 -0.1493
   91MOL0     C12482   7.718   6.858  11.166  0.4345  0.0383 -0.5212
   91MOL0     C12483   7.576   6.912  11.195 -0.6806 -0.3031  0.0702
   91MOL0     C12484   7.559   6.942  11.340  1.1054 -0.6458 -0.2620
   91MOL0     C12485   7.553   6.966  11.459  0.5441 -0.0942 -0.0340
   91MOL0     C12486   8.152   6.938  11.369 -0.5192  0.1931 -0.8816
   91MOL0     C12487   8.295   6.934  11.387  0.6413 -0.2398  0.7286
   91MOL0     C12488   8.350   7.072  11.425  0.6238  0.5740  0.4868
   91MOL0     H12489   8.772   7.066  11.486 -0.1583 -0.2493  1.0305
   91MOL0     H12490   9.006   7.114  11.377  1.5762  0.1891 -1.5210
   91MOL0     H12491   9.204   6.996  11.336  2.2324  0.3142 -0.4717
   91MOL0     H12492   9.222   7.141  11.222  4.0947 -0.1119  1.7901
   91MOL0     H12493   9.333   6.872  11.131  0.0263 -0.0306  1.1444
   91MOL0     H12494   9.333   7.034  11.065 -2.3404  1.7746 -0.3551
   91MOL0     H12495   9.542   6.962  11.188  2.4519 -1.3891  3.1472
   91MOL0     H12496   9.465   7.081  11.293  1.3974  1.7894 -1.8219
   91MOL0     H12497   9.394   6.899  11.438  0.0655 -0.9348  0.1388
   91MOL0     H12498   9.402   6.779  11.299  1.2570  0.2276 -1.0801
   91MOL0     H12499   9.639   6.913  11.422  1.4891 -2.1924  2.6530
   91MOL0     H12500   9.640   6.802  11.283 -2.1850  1.2809 -1.8583
   91MOL0     H12501   9.527   6.731  11.572 -1.3777 -0.4550 -0.3930
   91MOL0     H12502   9.529   6.621  11.444  1.3444 -1.1711  2.2016
   91MOL0     H12503   9.782   6.745  11.554 -0.1054  0.0139  1.0377
   91MOL0     H12504   9.754   6.621  11.426 -0.6422  0.0950  0.2325
   91MOL0     H12505   9.687   6.595  11.737 -4.3753  1.3746 -0.7906
   91MOL0     H12506   9.670   6.469  11.616  1.0992  1.0934 -0.8205
   91MOL0     H12507   9.902   6.562  11.871 -1.4249 -0.8883 -0.4116
   91MOL0     H12508  10.151   6.402  11.939 -1.8729 -1.4985 -0.6145
   91MOL0     H12509  10.202   6.559  11.903  0.5905 -0.7748  0.3931
   91MOL0     H12510  10.292   6.312  11.752 -1.5542  0.2406  1.5148
   91MOL0     H12511  10.345   6.473  11.704 -0.4885  1.1445 -0.7060
   91MOL0     H12512  10.427   6.510  11.948 -1.1520 -0.2373 -0.6431
   91MOL0     H12513  10.393   6.338  11.972  1.6168 -1.4894 -0.9479
   91MOL0     H12514  10.575   6.467  11.774 -0.2775 -2.3107 -0.9519
   91MOL0     H12515  10.618   6.366  11.920  0.6149 -0.9339 -0.4171
   91MOL0     H12516  10.796   6.406  11.778 -0.5034  0.1854 -0.7155
   91MOL0     H12517  11.136   6.328  11.636  2.5331 -3.8371  1.5031
   91MOL0     H12518  11.112   6.282  11.793  0.6501 -0.6503 -0.7117
   91MOL0     H12519  11.039   6.435  11.744  1.3330 -0.1649  1.6854
   91MOL0     H12520  11.400   6.067  11.502 -3.6990  0.5435 -0.0466
   91MOL0     H12521  11.518   5.855  11.451 -0.0045  3.8877 -0.6635
   91MOL0     H12522  11.417   5.485  11.684  1.3923 -0.4925  1.0896
   91MOL0     H12523  11.573   5.452  11.602  1.8858 -1.7518  4.6068
   91MOL0     H12524  11.666   5.660  11.697  0.6478  2.1334  2.5879
   91MOL0     H12525  11.531   5.664  11.812  0.1378 -0.5050  0.5837
   91MOL0     H12526  11.745   5.455  11.768  3.2535  3.2940  1.7779
   91MOL0     H12527  11.596   5.405  11.854  1.4215 -0.8742  0.1133
   91MOL0     H12528  11.788   5.620  11.947 -2.5253  1.2436 -2.0615
   91MOL0     H12529  11.786   5.452  12.002 -3.7181 -2.2719  1.9258
   91MOL0     H12530  11.692   5.648  12.148 -0.3694  0.5214 -0.7868
   91MOL0     H12531  11.553   5.642  12.049  0.2833 -2.5002 -2.3559
   91MOL0     H12532  11.655   5.400  12.181 -0.8482 -0.1013  0.2123
   91MOL0     H12533  11.499   5.405  12.090 -0.9875  0.9811  0.0143
   91MOL0     H12534  11.363   5.503  12.239 -1.2083  2.5989  3.3386
   91MOL0     H12535  11.477   5.629  12.263  1.7714 -0.8840  0.1031
   91MOL0     H12536  11.506   5.360  12.411  3.4589  0.0496 -0.2394
   91MOL0     H12537  11.418   5.508  12.475  0.1766  1.8597 -1.0448
   91MOL0     H12538  11.258   5.648  11.737 -3.5120  1.3704 -1.8657
   91MOL0     H12539  11.149   5.852  11.781  0.5300  1.4929  0.4545
   91MOL0     H12540  10.796   5.968  11.528  1.3551 -1.2407  2.7796
   91MOL0     H12541  10.591   6.069  11.612  0.8406 -0.0496  1.7032
   91MOL0     H12542   8.910   6.848  11.058  0.1508  2.7983 -0.1576
   91MOL0     H12543   8.677   6.820  11.164 -0.3359 -0.9217  0.2503
   91MOL0     H12544   8.347   6.602  11.332 -1.8940 -0.0220  0.3270
   91MOL0     H12545   8.118   6.612  11.289  0.9970  0.5439 -1.3146
   91MOL0     H12546   7.912   6.669  11.172 -2.2569 -1.0288 -0.6355
   91MOL0     H12547   7.886   6.632  11.349  1.9005 -0.9766 -0.9273
   91MOL0     H12548   7.674   6.732  11.342 -1.6793  1.6920 -0.8747
   91MOL0     H12549   7.692   6.652  11.183 -0.6889  0.5821 -1.3133
   91MOL0     H12550   7.792   6.933  11.196  0.4044 -0.1883  0.1419
   91MOL0     H12551   7.708   6.844  11.058 -0.0693  1.2798 -0.6459
   91MOL0     H12552   7.504   6.834  11.168  1.3021 -1.7348 -1.3369
   91MOL0     H12553   7.555   7.005  11.141  2.5836 -0.0850 -0.9993
   91MOL0     H12554   7.550   6.989  11.563  3.7228  0.6700 -0.0143
   91MOL0     H12555   8.097   7.030  11.388  1.1300  0.9910  0.3112
   91MOL0     H12556   8.375   7.098  11.528 -0.5893 -2.6767  1.7453
   91MOL0     H12557   8.433   7.094  11.358 -2.9660  0.5488 -4.5158
   91MOL0     H12558   8.276   7.148  11.399  3.5013  3.4360  0.0571
   92MOL0     O12559   5.353   8.486   4.749  0.0854  0.7020  0.0454
   92MOL0     C12560   5.278   8.394   4.725 -0.0363  0.2334  0.2769
   92MOL0     O12561   5.159   8.405   4.664 -0.1451  0.1676  0.5382
   92MOL0     C12562   5.119   8.527   4.632  0.4194  0.2732 -0.5784
   92MOL0     C12563   5.026   8.602   4.706  0.4699 -0.6091 -0.1527
   92MOL0     C12564   4.986   8.735   4.664  0.6898 -0.0417 -0.1122
   92MOL0     C12565   5.031   8.784   4.546 -0.6447  0.8793 -0.6454
   92MOL0     O12566   5.005   8.913   4.508  0.2982  0.0715  0.5421
   92MOL0     C12567   5.047   9.013   4.596  0.0863  0.2044 -0.2675
   92MOL0     C12568   5.106   9.132   4.515  1.1405 -0.3582 -0.7764
   92MOL0     C12569   5.238   9.092   4.464  0.6123  0.2531 -0.1182
   92MOL0     C12570   5.304   9.199   4.374  0.1546 -0.0454  0.0293
   92MOL0     C12571   5.439   9.144   4.317  0.1079  0.2982  0.1262
   92MOL0     C12572   5.447   9.133   4.165  0.1324  0.5380 -0.1936
   92MOL0     C12573   5.593   9.117   4.114 -0.4462 -0.7105 -0.0910
   92MOL0     C12574   5.598   9.071   3.969 -0.1697 -0.1652  0.4919
   92MOL0     N12575   5.596   8.925   3.955 -0.2709  0.2666 -0.7083
   92MOL0     C12576   5.696   8.844   3.973  0.9228 -0.4484  0.6718
   92MOL0     C12577   5.640   8.725   3.998  0.3107  0.8205  0.6260
   92MOL0     C12578   5.714   8.601   4.033 -0.8328 -0.3456 -0.4140
   92MOL0     C12579   5.736   8.510   3.907 -0.3165  0.2272  0.3887
   92MOL0     C12580   5.813   8.392   3.954  0.0837  0.2447  0.4313
   92MOL0     C12581   5.807   8.290   3.838  0.3686  0.1102 -0.5643
   92MOL0     O12582   5.908   8.194   3.841 -0.0798 -0.8480 -0.4702
   92MOL0     C12583   5.940   8.141   3.968  0.5051 -0.3406 -0.0174
   92MOL0     C12584   6.070   8.152   4.014 -0.2451  0.7826 -0.8253
   92MOL0     C12585   6.102   8.115   4.146  0.7887  0.2071 -0.0092
   92MOL0     C12586   6.253   8.140   4.181  0.1532  0.5135  0.3746
   92MOL0     C12587   5.998   8.067   4.241  0.2435  0.1169  0.0723
   92MOL0     C12588   6.024   8.041   4.381  0.0898  0.4975  0.4400
   92MOL0     O12589   6.135   8.103   4.432  0.0266 -0.1195  0.0161
   92MOL0     C12590   6.194   8.057   4.545 -0.0096 -0.7475 -0.1566
   92MOL0     C12591   6.226   8.152   4.646  0.2461  0.2719 -0.0062
   92MOL0     C12592   6.284   8.107   4.768  0.1869  0.4220 -0.5400
   92MOL0     C12593   6.330   7.975   4.779  1.0471 -0.1299 -0.1355
   92MOL0     O12594   6.414   7.933   4.884  0.2231 -0.6752 -0.0180
   92MOL0     C12595   6.519   8.035   4.907  0.2295 -0.3407  0.0653
   92MOL0     C12596   6.646   7.962   4.927  0.0852 -0.2891 -0.7565
   92MOL0     C12597   6.767   8.048   4.962 -0.1391 -0.0998  0.7909
   92MOL0     C12598   6.876   7.974   5.046 -0.5674  0.1083  0.1418
   92MOL0     C12599   6.960   7.868   4.959  0.5782 -0.6145  0.4168
   92MOL0     C12600   7.016   7.915   4.819  0.7784 -0.3326 -0.0529
   92MOL0     C12601   7.125   8.024   4.848  0.3580 -0.1157  1.2195
   92MOL0     C12602   7.169   8.089   4.715 -0.1871 -0.6587 -0.8949
   92MOL0    Cl12603   7.036   8.162   4.630  0.2278 -0.1059 -0.1880
   92MOL0     C12604   6.304   7.888   4.678  0.1547  0.0469 -0.1288
   92MOL0     C12605   6.222   7.922   4.566  0.0836 -1.3105 -0.0204
   92MOL0     O12606   5.939   7.983   4.452 -0.3901 -0.2395  0.9002
   92MOL0     C12607   5.869   8.043   4.187 -0.0603 -0.2940  0.5613
   92MOL0     C12608   5.841   8.087   4.058  0.0481  1.5113  0.2650
   92MOL0     N12609   5.504   8.733   3.979 -0.2584  1.1111  0.3119
   92MOL0     N12610   5.479   8.849   3.946  0.1750 -0.6613 -1.0243
   92MOL0     C12611   5.119   8.708   4.473  0.1380 -0.4274 -1.1230
   92MOL0     C12612   5.155   8.578   4.513  0.0287  0.0079  0.4043
   92MOL0     C12613   5.317   8.262   4.778 -0.3199  0.8006  0.7430
   92MOL0     C12614   5.456   8.232   4.773 -0.0146 -0.1114  0.7262
   92MOL0     C12615   5.499   8.112   4.822 -0.1962  0.8300  0.7433
   92MOL0     C12616   5.420   8.023   4.874 -0.5601 -0.2711 -1.5375
   92MOL0     O12617   5.468   7.900   4.910 -0.4666 -0.3633  0.3917
   92MOL0     C12618   5.499   7.818   4.790 -0.2271 -1.5820 -1.8670
   92MOL0     C12619   5.381   7.762   4.711  0.4572 -1.0284  0.3447
   92MOL0     C12620   5.269   7.699   4.799 -0.3721 -0.7463 -0.4118
   92MOL0     C12621   5.302   7.562   4.871  0.2638 -0.7983 -0.0403
   92MOL0     C12622   5.409   7.476   4.826  0.2485  0.6156  0.0110
   92MOL0     C12623   5.495   7.398   4.790  0.4569 -0.2535  0.4208
   92MOL0     C12624   5.282   8.050   4.884  0.9626 -0.2519  0.3526
   92MOL0     C12625   5.229   8.173   4.839  1.0691 -1.1313 -0.3300
   92MOL0     C12626   5.071   8.193   4.863 -1.0238 -0.6710  0.0469
   92MOL0     H12627   4.967   8.567   4.790 -0.9321  0.6975 -0.5598
   92MOL0     H12628   4.903   8.789   4.707 -0.9157 -2.2220 -0.2876
   92MOL0     H12629   5.121   8.985   4.671  0.4575 -0.0504 -0.7208
   92MOL0     H12630   4.969   9.053   4.661  0.6980  1.4604 -0.2862
   92MOL0     H12631   5.036   9.171   4.441  1.7751  3.2002  0.3003
   92MOL0     H12632   5.130   9.215   4.583 -2.2293  1.2649 -1.3769
   92MOL0     H12633   5.302   9.062   4.547  2.5798  0.5704 -1.4580
   92MOL0     H12634   5.219   8.996   4.413 -2.9568  0.9576 -0.4054
   92MOL0     H12635   5.243   9.235   4.290  0.2476 -1.6660 -0.7563
   92MOL0     H12636   5.316   9.294   4.427  1.0467 -0.0666 -0.1164
   92MOL0     H12637   5.468   9.053   4.371  0.5407 -0.0709 -0.7130
   92MOL0     H12638   5.514   9.220   4.342  1.2543 -0.8818  0.3973
   92MOL0     H12639   5.383   9.049   4.136 -1.5946  2.1907 -1.3564
   92MOL0     H12640   5.402   9.221   4.120 -0.8953 -0.3007 -0.8601
   92MOL0     H12641   5.632   9.034   4.174 -2.1542 -0.1782  1.9149
   92MOL0     H12642   5.644   9.212   4.130 -1.9237  0.5508 -2.3595
   92MOL0     H12643   5.516   9.117   3.914  0.1447  1.1033  1.0482
   92MOL0     H12644   5.694   9.102   3.926  1.6306 -3.0216  2.1182
   92MOL0     H12645   5.797   8.868   4.003 -0.0357  0.6619  3.3415
   92MOL0     H12646   5.668   8.543   4.114  1.2164 -1.6842 -0.1323
   92MOL0     H12647   5.801   8.639   4.088 -1.2396 -0.8685  0.6215
   92MOL0     H12648   5.645   8.475   3.857  1.5281 -3.3880 -0.8373
   92MOL0     H12649   5.802   8.568   3.841  0.3312  0.1889  0.9961
   92MOL0     H12650   5.921   8.408   3.962  0.1189  0.7391 -0.8315
   92MOL0     H12651   5.789   8.344   4.050  1.5781  0.4464  0.9361
   92MOL0     H12652   5.711   8.239   3.847  1.0896 -1.1626  0.3319
   92MOL0     H12653   5.831   8.339   3.744  0.9704 -0.2464 -0.6092
   92MOL0     H12654   6.148   8.201   3.957  0.0172  2.1465  0.6191
   92MOL0     H12655   6.308   8.059   4.229  1.6546  2.9757  3.1404
   92MOL0     H12656   6.269   8.214   4.260 -0.1470  0.4177  0.5268
   92MOL0     H12657   6.294   8.177   4.086 -1.1620 -1.7527 -1.1713
   92MOL0     H12658   6.195   8.255   4.634 -1.7169 -0.4643 -2.0502
   92MOL0     H12659   6.309   8.183   4.842 -1.1491  1.1690 -0.8369
   92MOL0     H12660   6.521   8.110   4.827 -2.7847 -2.0277 -1.8399
   92MOL0     H12661   6.502   8.086   5.001 -0.9263 -1.7830  0.6834
   92MOL0     H12662   6.619   7.902   5.014 -1.5661  0.7292 -0.5314
   92MOL0     H12663   6.670   7.889   4.849 -0.8411 -2.1805  0.6427
   92MOL0     H12664   6.737   8.133   5.024  0.3649  0.5059  0.2189
   92MOL0     H12665   6.808   8.095   4.872  0.3420 -1.5022  0.2393
   92MOL0     H12666   6.823   7.919   5.124 -1.1646 -0.1831 -0.4519
   92MOL0     H12667   6.934   8.052   5.096  0.7129 -0.6670 -0.1141
   92MOL0     H12668   7.051   7.844   5.014  0.4333  0.5680  1.2040
   92MOL0     H12669   6.900   7.777   4.947 -1.5641  0.7267  0.4826
   92MOL0     H12670   6.937   7.951   4.752 -0.0721  1.5120  1.8163
   92MOL0     H12671   7.060   7.825   4.774 -2.4573 -1.6710 -0.8315
   92MOL0     H12672   7.213   7.988   4.902  0.2843  0.7028  1.9122
   92MOL0     H12673   7.075   8.107   4.898  0.0924  0.6156 -0.2340
   92MOL0     H12674   7.201   8.008   4.649 -0.2483 -0.0441 -1.6871
   92MOL0     H12675   7.250   8.157   4.742  0.5444 -2.0436  0.5665
   92MOL0     H12676   6.353   7.791   4.680 -0.1896 -0.1174  0.8170
   92MOL0     H12677   6.181   7.856   4.491  1.7505  1.6401 -3.8778
   92MOL0     H12678   5.791   8.003   4.251 -0.7515  1.4608  0.8722
   92MOL0     H12679   5.740   8.082   4.017  0.3120 -0.2233 -0.2417
   92MOL0     H12680   5.178   8.737   4.387  2.0415 -0.1628  0.2207
   92MOL0     H12681   5.220   8.512   4.457  3.0914  3.1648 -0.0558
   92MOL0     H12682   5.526   8.292   4.716 -0.9004 -1.2244 -1.6472
   92MOL0     H12683   5.607   8.099   4.819  0.0327  2.5705 -0.4646
   92MOL0     H12684   5.575   7.868   4.729  0.6701 -0.1511  0.2972
   92MOL0     H12685   5.551   7.728   4.825 -1.2982 -1.7785 -0.7297
   92MOL0     H12686   5.416   7.692   4.635 -2.4890  0.5441 -2.7574
   92MOL0     H12687   5.338   7.847   4.657  1.0685  0.0641  1.5326
   92MOL0     H12688   5.235   7.768   4.876  3.3554  0.8452  0.0214
   92MOL0     H12689   5.189   7.671   4.730  0.9975 -1.1393 -1.9250
   92MOL0     H12690   5.208   7.506   4.873 -1.1643  1.5179  1.4052
   92MOL0     H12691   5.307   7.600   4.973 -1.4501  4.3060 -1.5994
   92MOL0     H12692   5.566   7.337   4.739 -0.5425 -4.5869  3.6513
   92MOL0     H12693   5.216   7.972   4.922  3.2147 -1.0529  3.0072
   92MOL0     H12694   5.024   8.115   4.923 -0.6000 -1.2984 -0.4166
   92MOL0     H12695   5.048   8.290   4.908 -0.2257 -0.1786 -0.5704
   92MOL0     H12696   5.024   8.197   4.764 -0.4399  1.1067 -0.1993
   93MOL0     O12697   1.063   3.112   8.546 -0.1381 -0.7550  0.1029
   93MOL0     C12698   1.049   3.161   8.662  0.0190  0.3572 -0.3175
   93MOL0     O12699   0.948   3.138   8.755 -0.5535  0.5372  0.7090
   93MOL0     C12700   0.829   3.074   8.715  0.0321 -0.1279  0.2052
   93MOL0     C12701   0.838   2.937   8.672 -0.5820 -0.0319  0.9571
   93MOL0     C12702   0.725   2.870   8.633 -0.4707  0.0746 -0.1117
   93MOL0     C12703   0.600   2.929   8.640 -0.0469 -0.4036 -0.5413
   93MOL0     O12704   0.484   2.851   8.611 -0.3362  0.6896  0.1781
   93MOL0     C12705   0.370   2.869   8.700  0.3932 -0.6163  0.0794
   93MOL0     C12706   0.270   2.755   8.678 -0.0532  0.1989 -0.1198
   93MOL0     C12707   0.240   2.745   8.526  0.2261  0.1790  1.2868
   93MOL0     C12708   0.106   2.667   8.485  0.2046 -0.3606 -0.8664
   93MOL0     C12709   0.075   2.659   8.332  0.3470 -0.3863 -0.2535
   93MOL0     C12710   0.180   2.575   8.251 -0.2401  0.1289 -0.5054
   93MOL0     C12711   0.125   2.508   8.120 -1.1276  0.1712  0.0431
   93MOL0     C12712   0.199   2.366   8.101  0.0123 -0.5341  0.1822
   93MOL0     N12713   0.126   2.262   8.172 -0.4936 -0.4224  0.1543
   93MOL0     C12714   0.023   2.179   8.131 -0.4494 -0.4445 -0.5431
   93MOL0     C12715   0.009   2.089   8.227 -1.0722  0.5822 -0.4529
   93MOL0     C12716  -0.102   1.988   8.241  0.2520  0.3186 -0.2126
   93MOL0     C12717  -0.058   1.888   8.346 -0.1374 -0.1150  0.0473
   93MOL0     C12718  -0.125   1.752   8.329  0.0788 -0.0979  0.3987
   93MOL0     C12719  -0.084   1.635   8.429  1.0431  0.3102 -0.0225
   93MOL0     O12720  -0.087   1.517   8.353 -0.1671  0.3302 -0.2752
   93MOL0     C12721  -0.081   1.389   8.405  0.7604 -0.4115  0.4767
   93MOL0     C12722  -0.063   1.355   8.541 -0.8369  0.3520  0.3600
   93MOL0     C12723  -0.021   1.231   8.585  0.5027  0.5288 -0.1425
   93MOL0     C12724   0.004   1.207   8.737  0.9562 -0.0396 -0.3626
   93MOL0     C12725  -0.011   1.126   8.486 -0.3854  0.1216 -0.0862
   93MOL0     C12726   0.028   0.987   8.529  0.2897 -0.0688 -0.2861
   93MOL0     O12727   0.160   0.975   8.563 -0.0019  1.3137  0.0408
   93MOL0     C12728   0.238   0.864   8.573  0.3991  0.2096 -0.5600
   93MOL0     C12729   0.227   0.758   8.482  0.0962 -0.3219  0.5368
   93MOL0     C12730   0.305   0.648   8.501  0.5811 -0.2867  0.2349
   93MOL0     C12731   0.402   0.629   8.602 -0.3023 -0.9639 -0.0846
   93MOL0     O12732   0.481   0.518   8.623 -0.4379  0.0547  0.7091
   93MOL0     C12733   0.535   0.466   8.504  0.6863  0.3548 -0.2966
   93MOL0     C12734   0.643   0.365   8.515 -0.1903 -0.6312 -0.2864
   93MOL0     C12735   0.605   0.228   8.579 -0.2054  0.4215  0.4374
   93MOL0     C12736   0.725   0.144   8.612 -0.8305 -0.3788 -0.2541
   93MOL0     C12737   0.685   0.012   8.680 -0.7981  0.4595 -1.6138
   93MOL0     C12738   0.810  -0.075   8.692 -0.0718 -0.5867  0.2040
   93MOL0     C12739   0.849  -0.168   8.572 -0.1931  0.4128  0.3323
   93MOL0     C12740   0.948  -0.273   8.627  0.9532  0.8064 -0.1376
   93MOL0    Cl12741   0.950  -0.414   8.503 -0.0026  0.3053 -0.2538
   93MOL0     C12742   0.404   0.739   8.693  0.5201  0.1596  0.2155
   93MOL0     C12743   0.330   0.853   8.681  0.0971  0.4644  0.0551
   93MOL0     O12744  -0.052   0.897   8.506 -0.4000  0.6115  0.1863
   93MOL0     C12745  -0.049   1.158   8.357  0.3807  0.2382  0.0099
   93MOL0     C12746  -0.084   1.290   8.310 -0.6922 -0.4912 -0.0014
   93MOL0     N12747   0.110   2.110   8.322  0.1664  0.3907 -0.7159
   93MOL0     N12748   0.186   2.202   8.277  0.0921 -0.6875  1.1788
   93MOL0     C12749   0.591   3.068   8.688 -0.0800 -0.4969 -0.5478
   93MOL0     C12750   0.705   3.132   8.735 -0.6116 -0.4475  0.6447
   93MOL0     C12751   1.149   3.258   8.696 -0.2564 -0.6959 -0.3481
   93MOL0     C12752   1.284   3.221   8.679  0.0203 -0.1988 -0.1195
   93MOL0     C12753   1.384   3.311   8.724  0.7907 -0.4218  0.7213
   93MOL0     C12754   1.352   3.445   8.753 -0.1673 -0.3175  0.2314
   93MOL0     O12755   1.462   3.531   8.781 -0.1198  0.9597 -0.3528
   93MOL0     C12756   1.454   3.669   8.817  0.8513  0.6161  0.7062
   93MOL0     C12757   1.405   3.707   8.966  0.8020 -0.2709  0.2279
   93MOL0     C12758   1.414   3.857   9.001  0.0163 -0.8802 -0.3087
   93MOL0     C12759   1.378   3.869   9.151 -0.2710  0.8105  0.3687
   93MOL0     C12760   1.428   3.987   9.222 -0.8071  0.4921  0.0192
   93MOL0     C12761   1.460   4.098   9.260 -0.5431  0.8888  0.1766
   93MOL0     C12762   1.215   3.475   8.768 -0.2698 -0.6785  0.1943
   93MOL0     C12763   1.109   3.391   8.742 -0.9069 -0.6849  0.8044
   93MOL0     C12764   0.968   3.433   8.720  0.0949 -0.7172  0.8815
   93MOL0     H12765   0.940   2.908   8.649 -0.6770 -0.1530  0.6854
   93MOL0     H12766   0.733   2.772   8.586  4.0611  0.3345 -0.2884
   93MOL0     H12767   0.326   2.967   8.679  3.2218  0.1827 -2.9343
   93MOL0     H12768   0.402   2.868   8.804  1.5599  0.2686 -0.2629
   93MOL0     H12769   0.309   2.661   8.718 -1.0491 -0.6127 -1.0018
   93MOL0     H12770   0.175   2.775   8.728  1.1682  0.9335  2.0503
   93MOL0     H12771   0.229   2.844   8.480 -1.7225 -0.6918 -0.2695
   93MOL0     H12772   0.316   2.689   8.470  0.3855 -1.4771  3.0438
   93MOL0     H12773   0.109   2.564   8.520  0.6608  0.1462  0.6838
   93MOL0     H12774   0.018   2.717   8.527  0.8506  1.0786 -1.1470
   93MOL0     H12775   0.062   2.758   8.286 -1.9785 -2.0099 -3.4852
   93MOL0     H12776  -0.022   2.611   8.319  0.1080  0.4543 -1.8483
   93MOL0     H12777   0.274   2.627   8.230  0.5670 -0.5562  1.2031
   93MOL0     H12778   0.204   2.497   8.324 -2.1067  1.5152  1.7324
   93MOL0     H12779   0.144   2.578   8.038  0.7615 -0.3922 -0.0600
   93MOL0     H12780   0.019   2.484   8.107 -0.7618 -1.7123  0.1793
   93MOL0     H12781   0.181   2.357   7.993 -1.6728 -0.0739  0.4022
   93MOL0     H12782   0.306   2.358   8.123  0.2330  1.6375  0.0713
   93MOL0     H12783  -0.050   2.192   8.051  0.6770  0.4005 -1.4800
   93MOL0     H12784  -0.117   1.940   8.143 -1.8401 -0.9094  0.6313
   93MOL0     H12785  -0.193   2.037   8.275 -0.1987 -1.4407  1.2847
   93MOL0     H12786   0.050   1.867   8.348 -0.2727 -0.7862  0.5413
   93MOL0     H12787  -0.070   1.929   8.446  2.4862 -0.4054  0.5478
   93MOL0     H12788  -0.232   1.770   8.341  0.3691  0.0240  3.3774
   93MOL0     H12789  -0.100   1.714   8.229 -0.2101 -1.7523  0.9242
   93MOL0     H12790   0.016   1.650   8.472  0.8242 -1.3188  1.1514
   93MOL0     H12791  -0.156   1.621   8.510  1.0571  0.5117  0.0251
   93MOL0     H12792  -0.058   1.430   8.620 -0.1254 -0.3117  0.9466
   93MOL0     H12793   0.110   1.228   8.756  1.5118 -1.3204 -1.8331
   93MOL0     H12794  -0.004   1.102   8.767  0.7876  0.2571  0.7003
   93MOL0     H12795  -0.057   1.262   8.808 -2.0450 -3.5400  0.0841
   93MOL0     H12796   0.147   0.764   8.409  2.2072  1.8879 -1.7743
   93MOL0     H12797   0.271   0.573   8.431 -2.0141  1.3090 -0.3283
   93MOL0     H12798   0.448   0.427   8.452 -2.7184  3.3504  2.6269
   93MOL0     H12799   0.577   0.555   8.455 -2.7220  1.7652 -0.9209
   93MOL0     H12800   0.668   0.346   8.410 -0.8890 -0.5372 -0.4718
   93MOL0     H12801   0.733   0.409   8.559  0.6607 -1.1174 -1.4887
   93MOL0     H12802   0.545   0.164   8.514  1.1155 -1.2652  0.8051
   93MOL0     H12803   0.554   0.247   8.674 -1.6192  0.5450 -0.3214
   93MOL0     H12804   0.776   0.209   8.684  2.0107 -0.8503 -1.6890
   93MOL0     H12805   0.797   0.140   8.529  0.2246  0.2959  0.5911
   93MOL0     H12806   0.636   0.041   8.773  1.3874  1.7400 -0.7687
   93MOL0     H12807   0.608  -0.058   8.646  0.4730 -2.4642  0.9423
   93MOL0     H12808   0.791  -0.135   8.781  3.4960 -2.5340 -0.1345
   93MOL0     H12809   0.895  -0.011   8.718 -0.9704  0.5715  0.3837
   93MOL0     H12810   0.894  -0.116   8.488 -1.8039 -0.4643 -1.1221
   93MOL0     H12811   0.758  -0.217   8.536  1.0253  1.0880 -4.1736
   93MOL0     H12812   0.913  -0.312   8.723  2.2613  0.3534  0.1719
   93MOL0     H12813   1.049  -0.230   8.630  1.2370  0.1100  0.7575
   93MOL0     H12814   0.488   0.714   8.757 -1.2594 -2.1753  1.8384
   93MOL0     H12815   0.361   0.932   8.748  0.1167 -0.0964  0.7200
   93MOL0     H12816  -0.043   1.074   8.289  0.8483 -0.3826  0.8082
   93MOL0     H12817  -0.102   1.319   8.207 -0.0667  1.5587  0.4265
   93MOL0     H12818   0.489   3.103   8.701 -1.3929 -2.7263 -3.5954
   93MOL0     H12819   0.713   3.229   8.783  0.8035 -0.0987 -0.2369
   93MOL0     H12820   1.309   3.118   8.654 -1.7238 -0.1662 -2.2663
   93MOL0     H12821   1.486   3.272   8.728  0.6900 -0.7721  0.0817
   93MOL0     H12822   1.554   3.711   8.802  2.2278 -1.9998  1.8615
   93MOL0     H12823   1.389   3.722   8.747  1.1980  2.7859  1.9520
   93MOL0     H12824   1.471   3.655   9.036 -0.3823 -0.6024  1.1317
   93MOL0     H12825   1.301   3.677   8.982  1.8731 -3.0968  2.8327
   93MOL0     H12826   1.510   3.904   8.978 -0.5433  1.3939  1.6084
   93MOL0     H12827   1.337   3.913   8.946  0.1298  3.3486  3.2449
   93MOL0     H12828   1.418   3.784   9.208  3.6859  1.2506 -1.3960
   93MOL0     H12829   1.270   3.871   9.167 -0.5919  0.0291 -1.5292
   93MOL0     H12830   1.480   4.194   9.304 -3.8226  1.3965  0.7949
   93MOL0     H12831   1.183   3.575   8.794 -0.7109 -0.4183 -1.2514
   93MOL0     H12832   0.963   3.542   8.709  1.4430 -0.8125 -1.4119
   93MOL0     H12833   0.931   3.381   8.631 -1.3178  0.0178  1.0144
   93MOL0     H12834   0.894   3.403   8.795 -1.2554  1.1277  0.3790
   94MOL0     O12835  11.135   8.737   8.771 -0.2265 -0.1740  0.0176
   94MOL0     C12836  11.033   8.755   8.712 -0.2327 -0.0873  0.8164
   94MOL0     O12837  10.983   8.667   8.627  0.1175  0.1026  0.0828
   94MOL0     C12838  11.041   8.543   8.632  0.0688  1.0885 -0.1059
   94MOL0     C12839  11.141   8.510   8.550 -0.7310  0.5985 -0.3978
   94MOL0     C12840  11.177   8.377   8.529  0.4464 -0.2324 -0.3292
   94MOL0     C12841  11.142   8.278   8.616 -0.5285 -0.0825 -0.5117
   94MOL0     O12842  11.202   8.160   8.585  0.0080  0.4253  0.0663
   94MOL0     C12843  11.138   8.043   8.644 -0.1775 -0.3645  1.4884
   94MOL0     C12844  11.199   7.999   8.778 -0.1479 -1.0789  0.3921
   94MOL0     C12845  11.342   7.933   8.754 -0.6398  0.4039  0.9116
   94MOL0     C12846  11.434   7.929   8.882  0.2737 -0.2575  0.1641
   94MOL0     C12847  11.567   7.871   8.839 -0.7629  0.3338 -0.2275
   94MOL0     C12848  11.650   7.963   8.753 -0.8919  0.3522 -0.3316
   94MOL0     C12849  11.797   7.919   8.724  0.6822  0.3914 -0.3225
   94MOL0     C12850  11.879   8.022   8.655  0.4013  0.3293 -0.0503
   94MOL0     N12851  11.806   8.101   8.545  0.4618 -0.1863 -0.1026
   94MOL0     C12852  11.711   8.202   8.563  0.7431 -0.1523  0.7613
   94MOL0     C12853  11.691   8.249   8.433 -0.0791  0.4522 -0.2871
   94MOL0     C12854  11.611   8.374   8.391 -0.3789  0.3016  0.6713
   94MOL0     C12855  11.636   8.400   8.237  0.0486  0.1092  0.8151
   94MOL0     C12856  11.551   8.507   8.176 -0.4691  0.6690  1.0356
   94MOL0     C12857  11.595   8.564   8.041 -1.3718 -0.0503 -0.4098
   94MOL0     O12858  11.508   8.675   8.008  0.5934  0.2299 -1.2488
   94MOL0     C12859  11.383   8.654   7.968 -0.0022 -1.2939  0.0344
   94MOL0     C12860  11.304   8.772   7.959 -0.1819 -0.1966  0.2155
   94MOL0     C12861  11.168   8.776   7.935  0.5502  0.0319  0.5108
   94MOL0     C12862  11.105   8.914   7.929 -0.3685  0.0043 -0.0261
   94MOL0     C12863  11.098   8.659   7.907 -0.7352  0.4476  0.6707
   94MOL0     C12864  10.954   8.645   7.880 -0.5868 -0.1233  0.0658
   94MOL0     O12865  10.908   8.516   7.872  0.1446 -0.4460  0.2282
   94MOL0     C12866  10.784   8.498   7.814  0.4184 -1.1890 -0.1057
   94MOL0     C12867  10.760   8.550   7.691  0.7009  0.1690  0.2198
   94MOL0     C12868  10.631   8.515   7.627  0.7034  0.0439 -0.2661
   94MOL0     C12869  10.539   8.431   7.687 -0.6412 -0.6013 -1.7568
   94MOL0     O12870  10.414   8.397   7.643  0.3050 -0.1930 -1.3602
   94MOL0     C12871  10.394   8.410   7.502 -0.9557  0.5888  0.0417
   94MOL0     C12872  10.248   8.343   7.471  0.2226 -0.8231 -0.4364
   94MOL0     C12873  10.131   8.448   7.477  0.7107 -0.4355 -0.0725
   94MOL0     C12874  10.142   8.573   7.380 -0.0381  0.9808  0.2976
   94MOL0     C12875  10.038   8.676   7.429 -0.1570 -0.3406 -0.5625
   94MOL0     C12876  10.084   8.798   7.348  0.0653 -0.1803 -0.5554
   94MOL0     C12877   9.989   8.913   7.347  0.6425  0.0589 -0.1251
   94MOL0     C12878   9.997   9.005   7.228  0.3273  0.2922 -0.1604
   94MOL0    Cl12879  10.143   9.102   7.256 -0.0891  0.1436 -0.1320
   94MOL0     C12880  10.575   8.379   7.814  0.7667  1.1141  0.1958
   94MOL0     C12881  10.693   8.417   7.878  0.7181  0.1122  0.3950
   94MOL0     O12882  10.886   8.749   7.860 -0.2575  0.9031 -0.3715
   94MOL0     C12883  11.174   8.539   7.912 -0.9414  0.8129 -0.6543
   94MOL0     C12884  11.311   8.539   7.944  0.4645 -0.1119 -0.4291
   94MOL0     N12885  11.766   8.167   8.348  0.1365 -0.1571  0.0260
   94MOL0     N12886  11.841   8.083   8.416 -0.6207 -0.4660 -0.3085
   94MOL0     C12887  11.052   8.310   8.723 -0.2002 -0.3253  0.4517
   94MOL0     C12888  10.996   8.445   8.722 -0.3439 -0.1816  0.3998
   94MOL0     C12889  10.958   8.890   8.706  1.2494  0.8085 -0.2400
   94MOL0     C12890  10.834   8.895   8.634 -1.0880  0.0530 -0.1355
   94MOL0     C12891  10.771   9.015   8.611 -0.4421  0.1147  0.9582
   94MOL0     C12892  10.825   9.135   8.657  0.8468  0.8377 -0.8081
   94MOL0     O12893  10.768   9.258   8.639  0.0357 -0.2310 -0.2835
   94MOL0     C12894  10.839   9.352   8.557 -0.3978 -0.0014  0.2926
   94MOL0     C12895  10.753   9.474   8.521  0.8425  1.4947  0.2771
   94MOL0     C12896  10.784   9.543   8.398  0.2246 -0.6986 -0.3850
   94MOL0     C12897  10.726   9.470   8.272 -0.1743 -0.3138  0.0974
   94MOL0     C12898  10.758   9.547   8.154  0.7914 -0.0631  0.1472
   94MOL0     C12899  10.786   9.620   8.057  0.4916 -0.0083  0.1449
   94MOL0     C12900  10.940   9.130   8.741  0.1125 -0.3813  0.3848
   94MOL0     C12901  11.010   9.009   8.757  0.6982 -0.0812 -0.5586
   94MOL0     C12902  11.139   9.010   8.829 -0.7566 -0.4927 -0.0504
   94MOL0     H12903  11.163   8.595   8.486 -0.1967  1.2399  0.6100
   94MOL0     H12904  11.242   8.355   8.445  0.7231  0.4575 -0.3000
   94MOL0     H12905  11.144   7.954   8.582 -1.0822  0.0045  0.8443
   94MOL0     H12906  11.030   8.051   8.663 -0.0872 -1.0743  2.3294
   94MOL0     H12907  11.203   8.087   8.843  0.0756  0.0853 -1.1444
   94MOL0     H12908  11.126   7.923   8.807 -1.4918  0.1767  0.3716
   94MOL0     H12909  11.328   7.829   8.723  1.8700  0.2678  0.0133
   94MOL0     H12910  11.383   7.992   8.672 -1.4040 -1.1838 -0.6901
   94MOL0     H12911  11.465   8.027   8.917  2.8905 -0.8110 -0.4368
   94MOL0     H12912  11.379   7.874   8.959 -1.7895  0.2528 -0.8690
   94MOL0     H12913  11.544   7.779   8.784 -0.4848  0.5470 -0.7036
   94MOL0     H12914  11.629   7.855   8.928 -1.4996  2.5096  0.7351
   94MOL0     H12915  11.603   7.961   8.654  1.5426  1.0539 -1.5732
   94MOL0     H12916  11.653   8.063   8.799  1.9127 -1.1712  3.2442
   94MOL0     H12917  11.805   7.831   8.661  1.6075 -0.2010  0.5916
   94MOL0     H12918  11.843   7.905   8.823 -1.4709  0.5536  0.7701
   94MOL0     H12919  11.902   8.102   8.727  1.6624  0.3042 -0.3983
   94MOL0     H12920  11.969   7.972   8.619  0.0520 -3.0566  3.1792
   94MOL0     H12921  11.663   8.254   8.645 -3.7914 -0.5695 -1.3342
   94MOL0     H12922  11.632   8.468   8.443 -2.1171  1.4432 -0.5804
   94MOL0     H12923  11.505   8.353   8.407  0.1840 -0.3490  4.3848
   94MOL0     H12924  11.738   8.441   8.228  1.0037 -2.4981 -3.4660
   94MOL0     H12925  11.629   8.308   8.178 -1.0456 -0.0409  1.1738
   94MOL0     H12926  11.450   8.464   8.172 -0.4337  0.6038  0.8069
   94MOL0     H12927  11.550   8.581   8.255  0.6857 -0.2841  1.9799
   94MOL0     H12928  11.698   8.600   8.043 -1.6545  0.7948 -0.3238
   94MOL0     H12929  11.592   8.487   7.963  0.0882  1.1494 -1.7140
   94MOL0     H12930  11.347   8.872   7.965  0.0638 -0.3209  0.5516
   94MOL0     H12931  11.066   8.938   7.830 -0.1324  0.6282  0.0334
   94MOL0     H12932  11.185   8.987   7.944 -0.8600  1.7326 -4.5346
   94MOL0     H12933  11.024   8.924   8.003 -1.7893  0.1976 -1.5443
   94MOL0     H12934  10.838   8.613   7.651  1.5971 -0.5196  0.8477
   94MOL0     H12935  10.609   8.550   7.526  0.8908 -0.9583 -0.6601
   94MOL0     H12936  10.396   8.506   7.450  0.7807  1.1028  0.9850
   94MOL0     H12937  10.471   8.347   7.457 -1.6298 -0.8750  0.8542
   94MOL0     H12938  10.249   8.310   7.367 -0.0448  0.0707 -0.7312
   94MOL0     H12939  10.236   8.259   7.540 -0.1033  2.9793  4.8223
   94MOL0     H12940  10.106   8.490   7.575  1.1583 -2.4072  0.9609
   94MOL0     H12941  10.037   8.395   7.458 -0.1189  1.4494 -1.5049
   94MOL0     H12942  10.137   8.548   7.274  3.3435 -0.5770  0.3559
   94MOL0     H12943  10.233   8.632   7.397 -1.3164  2.5903  1.9512
   94MOL0     H12944   9.935   8.642   7.415 -1.4701  2.7589  0.6636
   94MOL0     H12945  10.041   8.706   7.534 -0.9863  1.6588 -1.0627
   94MOL0     H12946  10.095   8.769   7.243  0.2938  4.6755 -2.1239
   94MOL0     H12947  10.182   8.835   7.381 -0.0179 -1.5836  1.5048
   94MOL0     H12948   9.988   8.966   7.443 -1.7091 -2.0890  1.1513
   94MOL0     H12949   9.888   8.872   7.339  0.2719  1.3095 -3.7636
   94MOL0     H12950   9.904   9.061   7.219 -0.9260 -1.4985  0.9813
   94MOL0     H12951  10.011   8.949   7.134  0.5574 -0.0722  0.0890
   94MOL0     H12952  10.507   8.326   7.880  2.3461  0.3877  1.3090
   94MOL0     H12953  10.709   8.383   7.980 -0.2593  0.5043  0.6915
   94MOL0     H12954  11.114   8.449   7.904 -1.6958  1.3004 -0.6073
   94MOL0     H12955  11.357   8.442   7.961 -1.1266 -0.7845  0.1565
   94MOL0     H12956  11.002   8.238   8.787 -1.0582  0.3315  0.5385
   94MOL0     H12957  10.915   8.469   8.791 -1.7665  2.9437 -2.0879
   94MOL0     H12958  10.795   8.801   8.594 -3.2891  1.3221 -1.1698
   94MOL0     H12959  10.686   9.017   8.543  0.2168 -2.2485 -0.0401
   94MOL0     H12960  10.916   9.393   8.623  0.9167  1.2951 -1.9241
   94MOL0     H12961  10.878   9.309   8.464  1.3237 -0.9748  1.4174
   94MOL0     H12962  10.781   9.541   8.603 -0.6370 -1.1122  3.1094
   94MOL0     H12963  10.645   9.464   8.536  0.6846  2.7923  0.1139
   94MOL0     H12964  10.743   9.645   8.395  0.7317 -0.4959 -3.2306
   94MOL0     H12965  10.891   9.565   8.395 -0.4186  3.1136 -1.1326
   94MOL0     H12966  10.616   9.474   8.278 -0.1393  0.6415  0.1804
   94MOL0     H12967  10.759   9.367   8.254  2.8152  0.3378  1.2468
   94MOL0     H12968  10.821   9.682   7.978 -1.6062 -1.8544 -2.3888
   94MOL0     H12969  10.976   9.221   8.788 -0.3183  0.7831 -1.4458
   94MOL0     H12970  11.130   8.941   8.914 -2.6946  0.6632  0.7606
   94MOL0     H12971  11.212   8.972   8.757 -1.7057 -1.6233 -0.4411
   94MOL0     H12972  11.168   9.110   8.861 -3.3207  0.8542 -1.5688
   95MOL0     O12973   4.743   9.646   4.506 -0.3190  0.5727 -0.3629
   95MOL0     C12974   4.683   9.547   4.455 -0.4550 -0.0204  0.3019
   95MOL0     O12975   4.553   9.524   4.462 -0.2808 -0.0413  0.7067
   95MOL0     C12976   4.485   9.610   4.545 -0.2858 -0.4033 -0.2293
   95MOL0     C12977   4.470   9.570   4.680  0.3156  0.2078 -0.3837
   95MOL0     C12978   4.409   9.657   4.772  0.5366  0.3267  0.6095
   95MOL0     C12979   4.365   9.787   4.733 -0.2714  0.7627  0.2368
   95MOL0     O12980   4.307   9.869   4.833 -0.4135  1.2379  0.6049
   95MOL0     C12981   4.253   9.994   4.786  0.4450 -1.2442  0.1837
   95MOL0     C12982   4.209  10.058   4.915 -0.6422  0.1525 -0.4323
   95MOL0     C12983   4.328  10.114   5.000 -1.4296  0.7376 -0.4464
   95MOL0     C12984   4.314  10.121   5.146 -0.8552  0.2203 -0.1541
   95MOL0     C12985   4.444  10.174   5.200 -0.1573  0.5658 -0.7442
   95MOL0     C12986   4.435  10.231   5.347 -0.6952  0.1677 -0.1590
   95MOL0     C12987   4.558  10.192   5.423 -1.1223 -0.1396 -0.4728
   95MOL0     C12988   4.684  10.245   5.362  0.7899 -0.1130  0.2178
   95MOL0     N12989   4.812  10.181   5.402  0.1653 -0.9459  0.3194
   95MOL0     C12990   4.850  10.176   5.532  0.4529  0.7475  0.5581
   95MOL0     C12991   4.977  10.133   5.532 -0.7032 -0.5676 -0.1201
   95MOL0     C12992   5.058  10.113   5.662  0.2223  0.1998  0.0430
   95MOL0     C12993   5.212  10.107   5.643  0.4195 -0.2320  0.0244
   95MOL0     C12994   5.288  10.115   5.784  0.2704  0.1441 -0.0411
   95MOL0     C12995   5.442  10.113   5.783 -0.0420 -1.1065  0.6424
   95MOL0     O12996   5.491  10.222   5.697  0.7233  0.0013  0.5421
   95MOL0     C12997   5.619  10.226   5.663 -0.5764  0.6314  0.7556
   95MOL0     C12998   5.728  10.152   5.713  0.9306 -0.0628  0.9331
   95MOL0     C12999   5.857  10.158   5.662 -0.2518  0.8885 -0.7287
   95MOL0     C13000   5.969  10.063   5.716 -0.0258  0.0472  0.3107
   95MOL0     C13001   5.889  10.256   5.560  0.3713  0.2445  0.2807
   95MOL0     C13002   6.029  10.281   5.506  0.1292 -1.2050 -0.1144
   95MOL0     O13003   6.147  10.253   5.580 -0.1423 -1.0409 -0.6267
   95MOL0     C13004   6.266  10.310   5.540  0.1532 -0.1688  1.0338
   95MOL0     C13005   6.317  10.345   5.411  0.5951 -1.3982  0.3441
   95MOL0     C13006   6.420  10.434   5.392  1.2031  0.0920 -0.0130
   95MOL0     C13007   6.485  10.486   5.496 -0.0891 -0.8204  0.3652
   95MOL0     O13008   6.585  10.578   5.499 -0.3285  0.3905  0.7865
   95MOL0     C13009   6.656  10.615   5.380 -0.4909  0.5966  0.1350
   95MOL0     C13010   6.768  10.712   5.429  0.0292  0.4475  0.6539
   95MOL0     C13011   6.737  10.822   5.532  0.0745 -0.8696 -0.9628
   95MOL0     C13012   6.640  10.935   5.480 -0.8000  0.0988 -0.5850
   95MOL0     C13013   6.637  11.077   5.558  0.5548 -0.1456  0.4263
   95MOL0     C13014   6.616  11.061   5.713 -0.5750  1.0886 -0.3783
   95MOL0     C13015   6.569  11.197   5.765  0.4879  0.3966  0.1181
   95MOL0     C13016   6.532  11.184   5.910  0.4467  0.5629  0.6113
   95MOL0    Cl13017   6.514  11.351   5.971  0.3282 -0.0123 -0.3852
   95MOL0     C13018   6.439  10.459   5.618  0.6622  0.3571 -0.8172
   95MOL0     C13019   6.336  10.362   5.641 -0.0523 -1.2196 -0.6600
   95MOL0     O13020   6.020  10.342   5.397  0.3081  0.2248  0.1830
   95MOL0     C13021   5.779  10.321   5.497  0.1157 -0.0227 -0.4066
   95MOL0     C13022   5.653  10.318   5.559  0.2335 -0.0814 -0.1252
   95MOL0     N13023   5.026  10.125   5.403  0.4970  0.7782 -0.6821
   95MOL0     N13024   4.924  10.147   5.330  0.4752  0.6388  0.1217
   95MOL0     C13025   4.385   9.826   4.594 -0.5046 -0.2956 -0.2321
   95MOL0     C13026   4.441   9.740   4.502  0.4245  0.7987  0.1530
   95MOL0     C13027   4.761   9.443   4.373 -0.6053 -0.2599  0.8609
   95MOL0     C13028   4.680   9.363   4.293  0.4308  0.9271 -0.7928
   95MOL0     C13029   4.734   9.281   4.198  0.0901 -0.4534 -0.0080
   95MOL0     C13030   4.871   9.290   4.158 -0.0634  0.5264 -0.3518
   95MOL0     O13031   4.919   9.238   4.035 -0.4382  0.1596 -0.2878
   95MOL0     C13032   4.851   9.276   3.905 -0.1850 -0.5677 -0.1781
   95MOL0     C13033   4.867   9.171   3.803 -1.1712 -0.2329 -0.2840
   95MOL0     C13034   5.011   9.156   3.754 -0.7315 -0.3489  0.1625
   95MOL0     C13035   5.093   9.057   3.835  0.6021  0.5836 -0.4997
   95MOL0     C13036   5.219   9.020   3.768  0.3673  0.0776 -0.3248
   95MOL0     C13037   5.329   8.990   3.721 -0.1827 -0.5519 -0.8067
   95MOL0     C13038   4.951   9.369   4.242  0.2660 -0.6046  0.1045
   95MOL0     C13039   4.897   9.447   4.343  0.5434 -0.6854 -0.0225
   95MOL0     C13040   4.991   9.523   4.441  0.3852  0.5813  0.7629
   95MOL0     H13041   4.515   9.475   4.710  2.6933  1.8421  1.7073
   95MOL0     H13042   4.401   9.624   4.875 -0.5995 -0.0920  0.4052
   95MOL0     H13043   4.158   9.977   4.735  1.3279 -1.7254 -1.3639
   95MOL0     H13044   4.322  10.054   4.727 -1.9128 -0.5226 -2.0158
   95MOL0     H13045   4.138  10.140   4.907 -1.8506 -0.7144  0.8318
   95MOL0     H13046   4.150   9.978   4.962 -0.0711 -1.4403 -2.2897
   95MOL0     H13047   4.409  10.048   4.968  0.3797  0.3369  4.2199
   95MOL0     H13048   4.353  10.218   4.977  0.6834  0.8027  1.7838
   95MOL0     H13049   4.238  10.199   5.162  0.2275  1.4358 -0.6948
   95MOL0     H13050   4.294  10.019   5.180  1.1525 -0.0805  0.2624
   95MOL0     H13051   4.472  10.254   5.131 -2.1858  1.0618 -1.0674
   95MOL0     H13052   4.520  10.096   5.192 -0.3824  0.4605 -2.0124
   95MOL0     H13053   4.417  10.339   5.342 -1.3688  0.0426 -0.5429
   95MOL0     H13054   4.359  10.181   5.409  2.0705 -3.4561  0.6252
   95MOL0     H13055   4.566  10.083   5.420 -2.0031 -0.2451  0.7203
   95MOL0     H13056   4.554  10.222   5.528 -1.1901  3.0939 -1.2726
   95MOL0     H13057   4.676  10.278   5.257 -3.4181  3.1389  1.2557
   95MOL0     H13058   4.680  10.345   5.408 -3.9918 -0.8045  1.9065
   95MOL0     H13059   4.790  10.207   5.617 -0.0819  3.0786 -0.5764
   95MOL0     H13060   5.028  10.017   5.705 -0.2092 -0.0263 -0.7574
   95MOL0     H13061   5.032  10.194   5.731  1.2642  1.6091 -1.1546
   95MOL0     H13062   5.252  10.022   5.587  1.0631 -0.4109  0.7296
   95MOL0     H13063   5.230  10.196   5.581 -1.0284  0.2815  0.3017
   95MOL0     H13064   5.264  10.209   5.835  0.7006 -0.1457  0.7193
   95MOL0     H13065   5.251  10.033   5.847 -3.1218  0.7761 -0.9857
   95MOL0     H13066   5.486  10.119   5.883  0.8008  1.2575  0.1877
   95MOL0     H13067   5.473  10.015   5.746 -4.3367 -1.3788 -3.2440
   95MOL0     H13068   5.691  10.078   5.783 -1.1669  0.8501  0.8610
   95MOL0     H13069   5.923   9.981   5.772 -0.7255  1.1857  1.4752
   95MOL0     H13070   6.037  10.121   5.780  1.5081 -0.7291 -0.5579
   95MOL0     H13071   6.016  10.032   5.623 -1.5297  3.2333 -1.7012
   95MOL0     H13072   6.264  10.310   5.322  0.2162 -0.4830  0.2037
   95MOL0     H13073   6.437  10.449   5.285  0.1159 -2.6604 -0.6644
   95MOL0     H13074   6.695  10.531   5.321 -0.0534  1.2771 -0.5615
   95MOL0     H13075   6.599  10.675   5.309  0.7849 -0.1714 -1.5965
   95MOL0     H13076   6.838  10.640   5.473 -1.4979 -0.7066  1.2615
   95MOL0     H13077   6.809  10.747   5.334  0.9884  0.0163  0.8989
   95MOL0     H13078   6.823  10.882   5.560 -0.7987  0.9404 -1.9963
   95MOL0     H13079   6.689  10.769   5.615  2.0695  1.4255  1.8242
   95MOL0     H13080   6.536  10.902   5.474 -0.6731 -0.7066  1.0973
   95MOL0     H13081   6.675  10.959   5.379 -2.5367 -2.5446 -1.9209
   95MOL0     H13082   6.739  11.117   5.556  1.1400 -1.5931 -0.7771
   95MOL0     H13083   6.561  11.143   5.514 -1.9903 -1.4587  2.5576
   95MOL0     H13084   6.700  11.020   5.770 -2.0392 -3.2258 -0.9445
   95MOL0     H13085   6.550  10.976   5.726  0.6905 -0.6237 -3.8200
   95MOL0     H13086   6.488  11.242   5.708 -2.2609 -2.6205  1.3263
   95MOL0     H13087   6.661  11.256   5.760  0.8606 -0.2374 -0.7702
   95MOL0     H13088   6.617  11.132   5.958  0.2388 -1.6968 -1.2753
   95MOL0     H13089   6.441  11.124   5.919 -0.8933  2.6207  1.3277
   95MOL0     H13090   6.478  10.512   5.704 -1.7143 -1.0474  1.2444
   95MOL0     H13091   6.293  10.347   5.740  1.1531 -1.3812 -0.1283
   95MOL0     H13092   5.795  10.386   5.411  1.2729 -2.3432 -2.0536
   95MOL0     H13093   5.569  10.371   5.515 -0.9739 -1.2421  0.7135
   95MOL0     H13094   4.372   9.924   4.550 -0.7912 -0.2657 -0.0801
   95MOL0     H13095   4.477   9.774   4.405 -1.8411 -0.2350 -1.1273
   95MOL0     H13096   4.573   9.348   4.305  0.6414 -0.5897 -0.7069
   95MOL0     H13097   4.663   9.217   4.147 -2.0707  0.4378  1.7302
   95MOL0     H13098   4.743   9.290   3.917 -0.5078 -1.7783 -1.3966
   95MOL0     H13099   4.889   9.373   3.872 -0.8587 -0.8738 -2.0184
   95MOL0     H13100   4.806   9.190   3.714  1.9587  1.4554 -2.2098
   95MOL0     H13101   4.824   9.076   3.838 -1.7529 -1.0069 -2.8408
   95MOL0     H13102   5.016   9.109   3.656 -2.3078 -0.9709  0.3447
   95MOL0     H13103   5.067   9.250   3.744  1.6136 -1.6544  0.3347
   95MOL0     H13104   5.049   8.961   3.864  1.7612 -0.4799 -2.0651
   95MOL0     H13105   5.115   9.101   3.932  0.3599 -2.8064  1.2391
   95MOL0     H13106   5.425   8.964   3.683 -0.0812  1.9106 -2.4740
   95MOL0     H13107   5.056   9.381   4.217  0.4407 -2.2309 -0.0836
   95MOL0     H13108   5.096   9.502   4.422 -0.2078 -3.3536  1.0451
   95MOL0     H13109   4.984   9.632   4.432  5.6439  1.2498  1.6701
   95MOL0     H13110   4.966   9.497   4.545 -3.9733  1.1097  0.0556
   96MOL0     O13111   9.364   9.943   9.907  0.6369  0.4564  0.3539
   96MOL0     C13112   9.487   9.954   9.895  0.4073 -0.7272 -0.4798
   96MOL0     O13113   9.552   9.989   9.776 -0.0531  1.0883  0.7051
   96MOL0     C13114   9.484  10.070   9.682  0.0597  0.1777  0.5829
   96MOL0     C13115   9.552  10.184   9.655  0.3038  0.5680 -0.0037
   96MOL0     C13116   9.510  10.268   9.553  0.9979  0.1687 -0.4039
   96MOL0     C13117   9.389  10.243   9.486  0.7777  0.7437 -0.6385
   96MOL0     O13118   9.355  10.346   9.407 -0.1904  0.1214 -0.1389
   96MOL0     C13119   9.300  10.315   9.281  0.7820 -0.5074 -0.6109
   96MOL0     C13120   9.404  10.341   9.174 -0.9483  0.1694  0.2154
   96MOL0     C13121   9.436  10.491   9.166 -0.0395 -0.0208 -0.1807
   96MOL0     C13122   9.563  10.518   9.073 -0.1059  0.0413  0.7910
   96MOL0     C13123   9.605  10.666   9.086  0.6009 -0.2637  0.5363
   96MOL0     C13124   9.677  10.706   9.206 -0.3139 -0.1908  0.0125
   96MOL0     C13125   9.824  10.669   9.208 -0.0624  0.4406  0.8983
   96MOL0     C13126   9.887  10.694   9.349 -0.4782 -0.0070 -0.4070
   96MOL0     N13127   9.865  10.583   9.453  0.9149  0.1709  0.3979
   96MOL0     C13128   9.934  10.467   9.485 -0.0643  0.8999  0.6432
   96MOL0     C13129   9.886  10.426   9.608 -0.2490  0.2569 -1.2649
   96MOL0     C13130   9.942  10.306   9.669 -0.1290  0.1586  0.0927
   96MOL0     C13131  10.062  10.349   9.748 -0.5224 -1.0019 -0.2098
   96MOL0     C13132  10.152  10.237   9.796  0.0959 -0.0111 -1.0607
   96MOL0     C13133  10.221  10.150   9.687  0.9384 -0.8052 -1.5831
   96MOL0     O13134  10.312  10.237   9.623  0.0319  0.1496 -0.1076
   96MOL0     C13135  10.450  10.216   9.644  0.9340 -0.2769 -0.0535
   96MOL0     C13136  10.532  10.221   9.531 -0.0720 -0.4051  0.2740
   96MOL0     C13137  10.672  10.203   9.531  0.1082  0.2744  0.0774
   96MOL0     C13138  10.747  10.170   9.406  0.6900  0.1015  1.4497
   96MOL0     C13139  10.737  10.191   9.657  0.2996 -0.6359 -0.6322
   96MOL0     C13140  10.879  10.191   9.666 -0.4733  0.0468  0.9256
   96MOL0     O13141  10.925  10.073   9.724  0.2993 -0.0857 -0.2893
   96MOL0     C13142  11.063  10.075   9.757  0.2643 -0.2828  0.4953
   96MOL0     C13143  11.154  10.054   9.656  0.0011 -0.3191 -0.0979
   96MOL0     C13144  11.296  10.064   9.692 -0.1809  0.6056  0.4083
   96MOL0     C13145  11.339  10.083   9.826 -1.4439  0.2167  0.0703
   96MOL0     O13146  11.475  10.093   9.873  0.1785  0.7185 -0.0845
   96MOL0     C13147  11.569  10.144   9.779 -0.0867  0.9656 -0.0530
   96MOL0     C13148  11.702  10.158   9.851 -0.3018  0.1372 -0.2628
   96MOL0     C13149  11.806  10.215   9.754 -0.8844 -0.8433 -0.4869
   96MOL0     C13150  11.940  10.222   9.821  0.9856 -0.3355 -0.3100
   96MOL0     C13151  12.060  10.238   9.731 -0.5199 -0.6096  0.0737
   96MOL0     C13152  12.183  10.262   9.820 -0.3189 -0.5950 -0.1169
   96MOL0     C13153  12.315  10.307   9.754  0.5123  0.3962 -0.0425
   96MOL0     C13154  12.432  10.269   9.849  0.2365  0.6765  0.9039
   96MOL0    Cl13155  12.415  10.346  10.007 -0.1720 -0.1394  0.3620
   96MOL0     C13156  11.239  10.090   9.928  1.2605 -0.5479 -0.2860
   96MOL0     C13157  11.098  10.092   9.886 -0.9028  0.4820 -0.9106
   96MOL0     O13158  10.957  10.271   9.609 -0.0924 -0.9618 -0.1292
   96MOL0     C13159  10.652  10.177   9.774  0.2847  0.2370  0.6508
   96MOL0     C13160  10.515  10.191   9.766  0.9536 -1.0392  0.5209
   96MOL0     N13161   9.777  10.510   9.645 -0.4057  0.1195  0.0727
   96MOL0     N13162   9.772  10.599   9.549  0.3253  0.0343 -0.1363
   96MOL0     C13163   9.309  10.132   9.517 -0.3183 -0.4117  0.2669
   96MOL0     C13164   9.364  10.035   9.605  0.7059  0.1869  0.1615
   96MOL0     C13165   9.575   9.917  10.017  0.3218 -0.2228 -0.4213
   96MOL0     C13166   9.705   9.871   9.985  0.5315 -0.3902 -0.1067
   96MOL0     C13167   9.795   9.833  10.083  0.7219  1.1454 -0.1088
   96MOL0     C13168   9.755   9.827  10.219 -0.7969 -0.8256  0.4978
   96MOL0     O13169   9.849   9.792  10.313 -0.4299 -0.2410  0.0930
   96MOL0     C13170   9.857   9.834  10.450 -0.3946  0.0586  0.2159
   96MOL0     C13171   9.988   9.806  10.504 -0.4358 -0.3318 -0.3663
   96MOL0     C13172  10.068   9.919  10.561  0.5402  0.2852  0.5193
   96MOL0     C13173  10.021   9.981  10.688 -0.1628  1.0724  1.0416
   96MOL0     C13174  10.118  10.080  10.738 -0.1370 -0.0005 -0.3791
   96MOL0     C13175  10.192  10.164  10.794 -0.8412  0.7722  0.1453
   96MOL0     C13176   9.621   9.862  10.256  0.4796 -0.6282  0.1688
   96MOL0     C13177   9.530   9.917  10.155 -0.9384  0.7109 -0.1857
   96MOL0     C13178   9.399   9.967  10.203  0.2426 -0.2364 -0.1125
   96MOL0     H13179   9.642  10.207   9.711  0.2039 -1.6074  1.1709
   96MOL0     H13180   9.562  10.360   9.529 -0.0879  0.0545 -3.7798
   96MOL0     H13181   9.220  10.389   9.273 -0.2182 -1.4263  0.5465
   96MOL0     H13182   9.266  10.212   9.267 -3.0786  0.5866 -0.4587
   96MOL0     H13183   9.494  10.285   9.203  0.1736  2.1895  0.8201
   96MOL0     H13184   9.365  10.319   9.075 -2.5376  1.4461  0.5278
   96MOL0     H13185   9.353  10.548   9.122  0.6674  0.2537 -1.1937
   96MOL0     H13186   9.465  10.518   9.268 -0.5931  0.1449 -0.0645
   96MOL0     H13187   9.650  10.462   9.110  0.7980  1.9040  1.6000
   96MOL0     H13188   9.544  10.492   8.968  2.1619  3.2781 -0.5709
   96MOL0     H13189   9.517  10.729   9.070  0.7418 -0.2704 -0.3148
   96MOL0     H13190   9.666  10.695   9.000 -0.3686 -3.3522 -1.3159
   96MOL0     H13191   9.675  10.814   9.222  1.1212  0.3964 -3.1397
   96MOL0     H13192   9.639  10.650   9.292  1.7545 -1.9586 -0.1442
   96MOL0     H13193   9.871  10.715   9.121 -3.9201  1.7400 -0.7451
   96MOL0     H13194   9.845  10.564   9.186 -0.8977  0.4299  0.0538
   96MOL0     H13195   9.993  10.694   9.321 -0.1883 -0.9057  0.6079
   96MOL0     H13196   9.854  10.791   9.387 -0.4706 -0.5880  1.1754
   96MOL0     H13197  10.015  10.435   9.421 -0.2947 -1.0796  1.2798
   96MOL0     H13198   9.965  10.232   9.592  2.0214  0.4406  0.4050
   96MOL0     H13199   9.866  10.256   9.731 -1.3393 -1.9313 -2.8763
   96MOL0     H13200  10.121  10.416   9.686  0.3034 -1.2037  0.3498
   96MOL0     H13201  10.018  10.406   9.830 -1.4874  0.3897 -1.6317
   96MOL0     H13202  10.223  10.286   9.863 -1.1228 -1.5453  1.4538
   96MOL0     H13203  10.087  10.172   9.854 -1.1492  0.3199 -2.0255
   96MOL0     H13204  10.275  10.063   9.726 -0.2806 -2.2575 -2.9742
   96MOL0     H13205  10.144  10.115   9.618 -1.1573 -0.6416  0.5260
   96MOL0     H13206  10.482  10.222   9.435 -0.3012 -0.6023  0.3919
   96MOL0     H13207  10.803  10.261   9.385  0.0519  0.2227  0.2050
   96MOL0     H13208  10.682  10.155   9.320  0.5712 -0.0978  1.5735
   96MOL0     H13209  10.815  10.085   9.398 -0.6694 -0.9931  1.1630
   96MOL0     H13210  11.097  10.045   9.564 -0.0037 -1.0138 -0.0378
   96MOL0     H13211  11.377  10.051   9.620 -0.1640 -0.5492  0.6113
   96MOL0     H13212  11.570  10.072   9.697 -3.7382 -0.6589  1.1295
   96MOL0     H13213  11.542  10.244   9.742 -2.1235  1.7038  3.0919
   96MOL0     H13214  11.698  10.203   9.950 -2.6267 -0.5165  0.0080
   96MOL0     H13215  11.754  10.065   9.876  1.9916  2.1045  2.9582
   96MOL0     H13216  11.778  10.316   9.721  1.7555  0.4836  0.9641
   96MOL0     H13217  11.815  10.152   9.665  0.7185 -1.2651 -0.0607
   96MOL0     H13218  11.958  10.127   9.872  2.4000  0.3357  0.4696
   96MOL0     H13219  11.932  10.301   9.896  1.1624 -0.9066  0.3126
   96MOL0     H13220  12.074  10.155   9.661 -1.6015 -0.5349 -0.2483
   96MOL0     H13221  12.046  10.332   9.676  1.3470  1.4739  2.8861
   96MOL0     H13222  12.190  10.171   9.879 -5.1812 -1.1682  0.0207
   96MOL0     H13223  12.161  10.343   9.890 -0.0330 -0.4691 -0.1701
   96MOL0     H13224  12.316  10.410   9.719 -0.9677 -0.0286 -1.4960
   96MOL0     H13225  12.313  10.242   9.666 -1.9947 -0.5709  0.6314
   96MOL0     H13226  12.524  10.300   9.799  0.4021 -1.1062  0.0180
   96MOL0     H13227  12.427  10.160   9.863 -2.8130  0.4187 -1.1852
   96MOL0     H13228  11.270  10.113  10.030  1.2032 -1.1089 -0.1331
   96MOL0     H13229  11.035  10.080   9.973  1.2988  0.4736  0.7755
   96MOL0     H13230  10.685  10.133   9.867 -1.0962  0.5735  1.3377
   96MOL0     H13231  10.448  10.173   9.849 -1.2270  0.4360 -0.8002
   96MOL0     H13232   9.225  10.109   9.453  1.0063 -2.7613 -0.7448
   96MOL0     H13233   9.321   9.937   9.624 -1.1964  1.1437  1.1871
   96MOL0     H13234   9.744   9.865   9.884 -1.6699 -0.0169 -1.0294
   96MOL0     H13235   9.898   9.806  10.060  1.2607 -0.8555  3.8161
   96MOL0     H13236   9.839   9.942  10.455  2.8252  0.6677  1.3732
   96MOL0     H13237   9.778   9.785  10.507 -1.5406  1.5045 -0.0695
   96MOL0     H13238  10.041   9.769  10.415 -0.1146  0.7367 -0.6313
   96MOL0     H13239   9.978   9.733  10.585  1.5267  0.3835  0.5657
   96MOL0     H13240  10.173   9.892  10.573  0.6615  0.5701  0.1528
   96MOL0     H13241  10.081   9.997  10.485  1.2105  1.7055  2.0265
   96MOL0     H13242   9.995   9.898  10.755 -0.5301  0.6813  0.4301
   96MOL0     H13243   9.931  10.033  10.654  0.1250  0.4393 -0.8118
   96MOL0     H13244  10.265  10.221  10.848  2.7332 -1.4627 -1.8978
   96MOL0     H13245   9.589   9.849  10.359 -1.9711  1.1813 -0.2777
   96MOL0     H13246   9.320   9.911  10.152  1.0238  0.0397 -1.6859
   96MOL0     H13247   9.382   9.969  10.311  2.3290 -1.7388  0.2923
   96MOL0     H13248   9.392  10.071  10.168  3.2219  0.1179  0.0394
   97MOL0     O13249   1.981   0.912   1.969  0.0048 -0.7799 -0.7303
   97MOL0     C13250   1.900   0.918   1.876 -0.0904 -0.0528  0.1096
   97MOL0     O13251   1.823   0.811   1.831 -0.7345  0.0155 -0.1368
   97MOL0     C13252   1.840   0.692   1.888  0.7785  0.4652 -0.3113
   97MOL0     C13253   1.722   0.648   1.966  0.1078 -0.2862  0.2275
   97MOL0     C13254   1.739   0.528   2.032  0.8215 -0.2183  0.0168
   97MOL0     C13255   1.851   0.445   2.005  0.5958 -0.1265  0.0470
   97MOL0     O13256   1.851   0.333   2.068  0.5035 -0.0832 -0.8734
   97MOL0     C13257   1.809   0.219   1.997  0.5024  0.0098 -1.1598
   97MOL0     C13258   1.858   0.092   2.065 -0.6758 -0.0873  0.7605
   97MOL0     C13259   2.009   0.093   2.063  0.3268 -0.2094  0.1530
   97MOL0     C13260   2.083  -0.038   2.085  0.4174  0.5378  0.6528
   97MOL0     C13261   2.045  -0.103   2.215  0.1778 -0.0233 -0.5442
   97MOL0     C13262   1.931  -0.198   2.222 -0.7314  0.0691  0.6176
   97MOL0     C13263   1.938  -0.281   2.352 -0.2216 -1.4387  0.7479
   97MOL0     C13264   1.973  -0.208   2.480 -0.5912  0.1626 -0.5125
   97MOL0     N13265   1.996  -0.311   2.587  0.0469  0.1675  0.9535
   97MOL0     C13266   2.109  -0.376   2.600  0.0860  0.1583 -0.3860
   97MOL0     C13267   2.075  -0.457   2.700 -0.1725 -1.1781 -0.0355
   97MOL0     C13268   2.172  -0.571   2.738  0.0570 -0.5467 -0.7081
   97MOL0     C13269   2.108  -0.714   2.694  1.0041 -0.3492 -1.8044
   97MOL0     C13270   2.216  -0.809   2.647 -0.2414  0.5506  0.1326
   97MOL0     C13271   2.305  -0.862   2.757  0.4367  0.1320 -0.5331
   97MOL0     O13272   2.239  -0.953   2.859  0.4241 -0.0736  0.2786
   97MOL0     C13273   2.283  -0.968   2.984 -0.7450  0.9211  0.2284
   97MOL0     C13274   2.214  -1.055   3.069  0.1169 -0.4032  0.5148
   97MOL0     C13275   2.267  -1.075   3.199  0.0187  0.4654  1.0455
   97MOL0     C13276   2.171  -1.124   3.307 -0.8198  0.3532 -0.2166
   97MOL0     C13277   2.396  -1.033   3.238  0.4159  0.6060 -0.2852
   97MOL0     C13278   2.457  -1.057   3.376  0.1147  0.4877  0.0209
   97MOL0     O13279   2.554  -0.965   3.411 -0.1847 -0.2886 -0.5102
   97MOL0     C13280   2.600  -0.979   3.544 -0.6378  0.4027 -0.0105
   97MOL0     C13281   2.593  -0.877   3.644  0.5796  0.1084  0.7648
   97MOL0     C13282   2.614  -0.906   3.776  1.1047 -0.4694 -0.0156
   97MOL0     C13283   2.683  -1.027   3.811 -0.6564 -0.1329  0.7456
   97MOL0     O13284   2.729  -1.058   3.935  0.3802  0.0726 -0.3191
   97MOL0     C13285   2.722  -0.953   4.035 -0.2919  0.2897 -0.0628
   97MOL0     C13286   2.785  -0.976   4.171 -0.0938 -0.2592 -0.5266
   97MOL0     C13287   2.934  -1.007   4.158  1.1085  0.4095 -0.9091
   97MOL0     C13288   3.005  -1.035   4.299  0.2334 -0.0426 -1.4343
   97MOL0     C13289   3.156  -1.078   4.276  0.3015  0.3887 -0.5341
   97MOL0     C13290   3.210  -1.130   4.403 -0.9045 -0.2971 -0.0497
   97MOL0     C13291   3.221  -1.021   4.522 -0.1818 -0.9943  0.2754
   97MOL0     C13292   3.241  -1.088   4.664  0.4979 -0.4402 -0.9391
   97MOL0    Cl13293   3.083  -1.161   4.701 -0.3813 -0.1785 -0.2015
   97MOL0     C13294   2.690  -1.125   3.716  0.6522  1.1612 -0.2855
   97MOL0     C13295   2.659  -1.108   3.586 -0.8016 -0.3419 -0.2732
   97MOL0     O13296   2.431  -1.161   3.430 -0.1048 -0.3271 -0.0027
   97MOL0     C13297   2.467  -0.962   3.146 -0.1229 -0.1926 -0.1450
   97MOL0     C13298   2.416  -0.930   3.018  0.1090 -0.4999  0.0566
   97MOL0     N13299   1.953  -0.436   2.755 -0.2696  0.3626  0.6069
   97MOL0     N13300   1.901  -0.344   2.680  0.5347 -0.3888  0.4397
   97MOL0     C13301   1.961   0.498   1.934 -0.3240  0.6926 -0.5972
   97MOL0     C13302   1.950   0.614   1.865 -0.6109 -0.0789 -1.2409
   97MOL0     C13303   1.884   1.050   1.802 -0.0378 -0.0280 -0.2208
   97MOL0     C13304   1.852   1.168   1.868 -1.0484  0.3228 -0.6974
   97MOL0     C13305   1.839   1.289   1.808  0.6653 -0.3738 -0.2607
   97MOL0     C13306   1.835   1.304   1.665  1.7066  0.1595 -0.0064
   97MOL0     O13307   1.799   1.430   1.612  0.7099  0.2280 -0.0003
   97MOL0     C13308   1.815   1.458   1.474 -0.5133  0.3510 -0.3390
   97MOL0     C13309   1.697   1.413   1.389 -0.6346 -0.4278 -0.7264
   97MOL0     C13310   1.586   1.508   1.432 -0.2775  0.2299 -0.1506
   97MOL0     C13311   1.467   1.513   1.350  0.1420  0.2180 -0.1435
   97MOL0     C13312   1.498   1.576   1.219  0.9413 -0.1530  0.0320
   97MOL0     C13313   1.527   1.639   1.117  0.0141  0.1994  0.0803
   97MOL0     C13314   1.856   1.186   1.596 -0.0385 -0.0541  0.0929
   97MOL0     C13315   1.880   1.059   1.661 -0.8023  0.1274  1.5429
   97MOL0     C13316   1.928   0.951   1.566  0.8160 -0.4315  1.2747
   97MOL0     H13317   1.641   0.720   1.975 -0.9089 -1.2417 -1.0571
   97MOL0     H13318   1.658   0.504   2.100  0.4863 -1.0073 -0.6524
   97MOL0     H13319   1.853   0.222   1.897  1.7944 -0.4609 -0.6256
   97MOL0     H13320   1.700   0.212   1.999  0.6038 -2.1808  1.1448
   97MOL0     H13321   1.807   0.086   2.162 -0.6328 -0.5333  0.7561
   97MOL0     H13322   1.828   0.005   2.007 -3.8706  1.1650  0.3206
   97MOL0     H13323   2.032   0.133   1.964  0.6039 -1.3490 -0.2636
   97MOL0     H13324   2.033   0.171   2.136  0.3368  1.0499 -1.1430
   97MOL0     H13325   2.061  -0.111   2.007 -1.0719  1.5745  0.0460
   97MOL0     H13326   2.192  -0.026   2.081  0.6597 -0.5105  2.7231
   97MOL0     H13327   2.031  -0.019   2.283  1.5784  0.3769 -0.7110
   97MOL0     H13328   2.134  -0.149   2.259 -0.5654 -1.0995 -0.1378
   97MOL0     H13329   1.837  -0.143   2.215 -2.0538 -2.0931  0.5420
   97MOL0     H13330   1.929  -0.263   2.135 -3.8983  1.2897 -0.3488
   97MOL0     H13331   2.017  -0.354   2.328  0.4844 -0.6542  0.6419
   97MOL0     H13332   1.841  -0.331   2.362 -1.7122  1.3560  1.0299
   97MOL0     H13333   2.067  -0.152   2.473 -0.0109 -0.5513  1.1195
   97MOL0     H13334   1.905  -0.131   2.518  1.2228  1.8415 -0.5158
   97MOL0     H13335   2.204  -0.389   2.550  1.0520 -5.0122  2.1388
   97MOL0     H13336   2.191  -0.567   2.846 -1.4924 -1.7942 -0.3534
   97MOL0     H13337   2.267  -0.559   2.685  0.3006 -1.2595 -0.4396
   97MOL0     H13338   2.064  -0.750   2.788  3.4146 -0.5207 -0.6515
   97MOL0     H13339   2.032  -0.714   2.616 -0.5063  0.5341 -0.4110
   97MOL0     H13340   2.179  -0.883   2.576 -0.5828  0.9634 -0.1296
   97MOL0     H13341   2.290  -0.749   2.594 -1.3755  0.9942 -1.0150
   97MOL0     H13342   2.386  -0.927   2.722  1.0227 -0.3402  1.5235
   97MOL0     H13343   2.340  -0.770   2.804  0.1627 -0.2325  0.4078
   97MOL0     H13344   2.110  -1.077   3.051 -0.9419  1.5723  3.4654
   97MOL0     H13345   2.068  -1.087   3.304 -1.9737 -2.5466  0.4501
   97MOL0     H13346   2.214  -1.096   3.404 -1.1698 -1.4041  0.4879
   97MOL0     H13347   2.159  -1.232   3.301  0.1989  0.3218 -2.8877
   97MOL0     H13348   2.532  -0.793   3.613  1.1199  0.4943  0.7334
   97MOL0     H13349   2.599  -0.826   3.847  4.0983  3.3554 -3.2414
   97MOL0     H13350   2.769  -0.864   3.991  0.4447 -0.9787 -1.9545
   97MOL0     H13351   2.617  -0.922   4.049  0.4458  2.1819  1.9125
   97MOL0     H13352   2.767  -0.881   4.222  2.1626 -0.2157  0.2838
   97MOL0     H13353   2.719  -1.043   4.227 -0.5369  0.0041 -0.7197
   97MOL0     H13354   2.980  -0.919   4.112  0.3703  1.4421  0.2574
   97MOL0     H13355   2.954  -1.097   4.100  1.7058 -1.2420  1.7252
   97MOL0     H13356   2.950  -1.117   4.347  3.3963 -1.4310  0.1994
   97MOL0     H13357   2.998  -0.948   4.364  0.1836 -0.2103 -1.2119
   97MOL0     H13358   3.155  -1.163   4.208 -2.0514 -3.4544  3.7601
   97MOL0     H13359   3.204  -0.985   4.245  1.0307  0.7528  1.5291
   97MOL0     H13360   3.310  -1.165   4.374  0.4548  1.0816  2.6347
   97MOL0     H13361   3.149  -1.213   4.440 -2.8419  1.6026  1.2181
   97MOL0     H13362   3.133  -0.957   4.528 -0.1197 -0.7590 -1.1140
   97MOL0     H13363   3.300  -0.947   4.505  0.0178 -1.2903 -0.1185
   97MOL0     H13364   3.266  -1.015   4.742 -1.6991 -1.7898  1.1932
   97MOL0     H13365   3.313  -1.170   4.669  0.3929 -0.5452 -1.1781
   97MOL0     H13366   2.748  -1.214   3.738 -1.1392 -0.5014 -1.8967
   97MOL0     H13367   2.668  -1.194   3.521 -1.1164 -2.4490  2.2553
   97MOL0     H13368   2.564  -0.918   3.167  0.1923 -1.6104  1.6020
   97MOL0     H13369   2.480  -0.877   2.947  1.0493 -2.8552 -0.9622
   97MOL0     H13370   2.058   0.449   1.923 -0.2854  0.9979 -1.7838
   97MOL0     H13371   2.037   0.650   1.810 -1.1133  2.4454 -0.5437
   97MOL0     H13372   1.831   1.172   1.974  0.2104 -0.6990 -0.3756
   97MOL0     H13373   1.808   1.377   1.864 -0.4376 -0.3564 -0.8591
   97MOL0     H13374   1.831   1.563   1.450 -0.8943  0.0380 -2.1298
   97MOL0     H13375   1.905   1.404   1.444 -0.3166  1.2602 -1.4524
   97MOL0     H13376   1.668   1.308   1.403 -2.5556  0.3147  1.5734
   97MOL0     H13377   1.724   1.413   1.283  0.9909  1.0360 -0.3405
   97MOL0     H13378   1.552   1.466   1.527 -1.2220 -1.8010 -1.3061
   97MOL0     H13379   1.631   1.607   1.443  0.7067 -0.3305  1.2312
   97MOL0     H13380   1.386   1.574   1.391 -1.2973 -0.1610 -2.2652
   97MOL0     H13381   1.429   1.412   1.330 -4.4373  1.4463  1.2327
   97MOL0     H13382   1.542   1.704   1.033  1.0631  1.4454  1.1703
   97MOL0     H13383   1.861   1.192   1.488 -0.9151 -0.5972  0.0188
   97MOL0     H13384   1.864   0.863   1.574  0.5720 -0.3697  0.1813
   97MOL0     H13385   1.930   0.982   1.461 -0.0730  0.6012  1.5409
   97MOL0     H13386   2.024   0.904   1.593  0.8566 -0.7568  0.5765
   98MOL0     O13387  11.082  10.173   8.055 -0.2365  0.6911  0.2189
   98MOL0     C13388  11.182  10.158   8.128  0.5448  1.0091  0.8894
   98MOL0     O13389  11.307  10.207   8.110  0.5427  0.6197  0.0825
   98MOL0     C13390  11.320  10.301   8.012 -1.0343 -0.6922  0.1964
   98MOL0     C13391  11.335  10.439   8.043  0.7095  0.3904  0.0532
   98MOL0     C13392  11.358  10.530   7.943  0.1492 -0.2446 -0.4692
   98MOL0     C13393  11.363  10.493   7.811 -0.5826 -0.2523 -0.1069
   98MOL0     O13394  11.377  10.587   7.715 -0.0595  0.2862 -1.0344
   98MOL0     C13395  11.515  10.639   7.697 -0.1209  0.5746 -0.0960
   98MOL0     C13396  11.505  10.762   7.616  0.5413 -0.6862 -0.2100
   98MOL0     C13397  11.632  10.791   7.543 -0.7378  0.0306  0.9378
   98MOL0     C13398  11.650  10.942   7.515  0.4024 -0.2861 -0.3946
   98MOL0     C13399  11.780  10.971   7.436 -0.2916  0.4154  1.3691
   98MOL0     C13400  11.804  11.116   7.409 -0.4733 -0.6913 -0.2613
   98MOL0     C13401  11.952  11.139   7.381  0.6593  0.3994 -0.3259
   98MOL0     C13402  11.974  11.282   7.381 -0.0541 -0.4165  0.7931
   98MOL0     N13403  12.116  11.307   7.348 -0.6964  0.6117  0.2623
   98MOL0     C13404  12.222  11.268   7.423 -0.2114 -0.3863 -0.3485
   98MOL0     C13405  12.330  11.315   7.361 -0.5807 -0.0524 -0.1941
   98MOL0     C13406  12.468  11.313   7.432  0.4077  0.1536  0.7267
   98MOL0     C13407  12.564  11.202   7.393 -0.0427 -0.6459  0.2149
   98MOL0     C13408  12.526  11.059   7.382 -0.3072  0.5931  0.1989
   98MOL0     C13409  12.490  10.998   7.526  0.6790 -0.7256  0.1455
   98MOL0     O13410  12.341  11.002   7.518 -0.2893  0.6836 -0.0699
   98MOL0     C13411  12.280  10.892   7.583  0.3605  0.7247 -0.2778
   98MOL0     C13412  12.313  10.860   7.721 -0.2673  0.1783  0.2550
   98MOL0     C13413  12.253  10.742   7.781  0.6922  0.0415  0.1708
   98MOL0     C13414  12.321  10.693   7.902  0.4555  0.3444 -0.3235
   98MOL0     C13415  12.151  10.673   7.706 -0.3675  0.4973 -0.1439
   98MOL0     C13416  12.081  10.557   7.758 -0.1311  0.0185  0.4066
   98MOL0     O13417  11.951  10.556   7.735 -0.2795 -0.1135  0.0981
   98MOL0     C13418  11.882  10.441   7.769 -0.3818  0.3222 -0.4439
   98MOL0     C13419  11.849  10.418   7.898 -0.6477  0.0599 -0.0997
   98MOL0     C13420  11.776  10.303   7.928 -0.1041 -0.4592 -1.1778
   98MOL0     C13421  11.735  10.213   7.836 -0.2536 -0.2878 -0.3149
   98MOL0     O13422  11.675  10.097   7.874  0.4179  0.1016 -0.5344
   98MOL0     C13423  11.659   9.998   7.772 -0.1680 -0.2276 -0.0348
   98MOL0     C13424  11.626   9.861   7.834  0.4653 -1.0047  0.1906
   98MOL0     C13425  11.517   9.878   7.940 -0.0019 -0.1025  0.9133
   98MOL0     C13426  11.586   9.899   8.084  0.8221  0.0050  0.2090
   98MOL0     C13427  11.663   9.776   8.144  0.9740  0.1140 -0.9624
   98MOL0     C13428  11.692   9.802   8.298  0.8263  0.2200 -0.1441
   98MOL0     C13429  11.788   9.697   8.345 -0.4576  1.3925 -0.1324
   98MOL0     C13430  11.757   9.649   8.484  0.4133 -0.3754 -0.3891
   98MOL0    Cl13431  11.634   9.524   8.479  0.0050 -0.6896  0.1133
   98MOL0     C13432  11.764  10.241   7.701  0.5760  0.4335  0.4191
   98MOL0     C13433  11.832  10.356   7.668 -0.4231  1.2549 -0.0770
   98MOL0     O13434  12.146  10.462   7.803  0.3609 -0.8507  0.7398
   98MOL0     C13435  12.109  10.721   7.577 -0.7913 -0.4231  0.5653
   98MOL0     C13436  12.179  10.833   7.522  0.0136 -0.2310  0.1949
   98MOL0     N13437  12.286  11.375   7.245  0.2350 -1.0541  0.3746
   98MOL0     N13438  12.160  11.370   7.236 -0.2391 -0.2081 -0.4514
   98MOL0     C13439  11.360  10.359   7.779  0.1462  0.6074 -0.6745
   98MOL0     C13440  11.345  10.259   7.887 -0.5505  0.2169  0.1901
   98MOL0     C13441  11.167  10.060   8.253  1.4388  0.8266  0.3869
   98MOL0     C13442  11.268  10.072   8.347  0.0178 -0.0384  0.5141
   98MOL0     C13443  11.262   9.994   8.469 -1.1945 -0.2817  0.7547
   98MOL0     C13444  11.166   9.895   8.486 -0.2226  0.1059  0.4098
   98MOL0     O13445  11.153   9.816   8.597  0.6555  0.3609 -0.0117
   98MOL0     C13446  11.262   9.819   8.694 -0.4738 -0.0322 -0.3436
   98MOL0     C13447  11.243   9.719   8.811 -0.1304  0.0583 -0.3786
   98MOL0     C13448  11.199   9.579   8.763  0.3819  0.3117 -0.0906
   98MOL0     C13449  11.315   9.522   8.678  0.1231 -0.1149  0.8231
   98MOL0     C13450  11.275   9.385   8.631 -0.3587  0.2328 -0.7859
   98MOL0     C13451  11.232   9.278   8.596 -0.8786 -0.2215  0.4126
   98MOL0     C13452  11.065   9.890   8.389 -0.0266  1.2585 -0.4806
   98MOL0     C13453  11.068   9.965   8.270  0.1665 -0.0077 -0.9654
   98MOL0     C13454  10.963   9.927   8.165  0.1878 -0.1043 -0.0925
   98MOL0     H13455  11.314  10.462   8.147  0.4089 -2.0250  0.6017
   98MOL0     H13456  11.355  10.635   7.973 -0.0162 -0.2974 -0.3002
   98MOL0     H13457  11.573  10.559   7.650  1.5676  1.0819  1.0404
   98MOL0     H13458  11.567  10.655   7.792 -0.1927  1.0641 -0.1362
   98MOL0     H13459  11.421  10.751   7.546 -0.3122 -0.3601  0.7532
   98MOL0     H13460  11.477  10.842   7.684 -2.6822 -0.7346 -1.2938
   98MOL0     H13461  11.710  10.764   7.615 -0.6693 -1.1320  0.4516
   98MOL0     H13462  11.646  10.733   7.452  1.5070  0.2579  1.0894
   98MOL0     H13463  11.557  10.983   7.474 -1.2841 -1.6183  1.8822
   98MOL0     H13464  11.654  10.971   7.620 -0.7040 -1.1933 -0.0859
   98MOL0     H13465  11.789  10.912   7.344  1.5915 -0.2906  1.9629
   98MOL0     H13466  11.861  10.930   7.496  0.8864  4.8252  3.1435
   98MOL0     H13467  11.751  11.162   7.325  2.1089  3.1811  0.0034
   98MOL0     H13468  11.789  11.166   7.505 -1.1196 -0.0838 -0.6657
   98MOL0     H13469  11.972  11.102   7.280 -0.4186  2.2149 -1.2527
   98MOL0     H13470  12.012  11.088   7.457  1.3783 -0.4191 -1.4099
   98MOL0     H13471  11.913  11.327   7.302 -1.7356 -0.6611  1.9009
   98MOL0     H13472  11.944  11.337   7.470  2.5828  0.5229  1.1918
   98MOL0     H13473  12.226  11.214   7.517  3.7064 -0.1549 -0.2424
   98MOL0     H13474  12.446  11.315   7.539 -2.6391  1.4592  0.1744
   98MOL0     H13475  12.508  11.411   7.404  0.9521  0.0355  1.0732
   98MOL0     H13476  12.611  11.239   7.301  0.1862  5.0303  2.2244
   98MOL0     H13477  12.642  11.203   7.469  1.0015 -1.7035 -0.7937
   98MOL0     H13478  12.459  11.039   7.298 -0.9660  2.1198  0.3193
   98MOL0     H13479  12.624  11.016   7.362 -0.1562  0.0034  2.0236
   98MOL0     H13480  12.534  10.902   7.556  4.1901  0.5551 -0.3966
   98MOL0     H13481  12.519  11.075   7.598 -0.0924  0.4884 -0.8046
   98MOL0     H13482  12.398  10.910   7.767  2.1019 -0.1582 -3.3361
   98MOL0     H13483  12.254  10.699   7.988  0.3859  0.7496 -0.4063
   98MOL0     H13484  12.402  10.762   7.926  1.1542 -1.1772  2.0722
   98MOL0     H13485  12.363  10.595   7.878 -0.6045 -0.0427 -0.6753
   98MOL0     H13486  11.852  10.499   7.969 -1.6012  1.4529 -1.5780
   98MOL0     H13487  11.759  10.301   8.035 -1.5843  1.9401 -1.2984
   98MOL0     H13488  11.574  10.032   7.712 -1.8363 -3.2798  0.4485
   98MOL0     H13489  11.746   9.987   7.706  0.3236  0.7883  0.4106
   98MOL0     H13490  11.581   9.790   7.764 -1.5008 -1.0823  1.4639
   98MOL0     H13491  11.713   9.814   7.881  0.4502  0.7127  2.0421
   98MOL0     H13492  11.432   9.809   7.941 -0.7533  0.7927  0.6166
   98MOL0     H13493  11.466   9.972   7.916  0.9847  0.0045 -0.9477
   98MOL0     H13494  11.507   9.932   8.152  0.5793 -1.0452  0.4641
   98MOL0     H13495  11.662   9.977   8.078  0.5028  0.4786  1.8628
   98MOL0     H13496  11.601   9.687   8.129 -0.5160  0.8468  0.4810
   98MOL0     H13497  11.756   9.771   8.086  1.7198 -0.1970  0.2356
   98MOL0     H13498  11.601   9.786   8.357  0.3416  0.1608 -0.8943
   98MOL0     H13499  11.729   9.903   8.320 -0.7970  0.1325  3.7487
   98MOL0     H13500  11.892   9.729   8.351 -1.2685  4.6906 -1.4788
   98MOL0     H13501  11.797   9.622   8.266  0.0464  1.6258 -0.3010
   98MOL0     H13502  11.724   9.734   8.544  1.0005  0.4892 -1.2612
   98MOL0     H13503  11.845   9.600   8.527  1.4243  0.2143 -1.7198
   98MOL0     H13504  11.730  10.188   7.612  1.1468  1.2483 -0.3089
   98MOL0     H13505  11.849  10.381   7.563 -0.4203  1.7328  0.0329
   98MOL0     H13506  12.044  10.672   7.506  1.0114 -1.1349 -0.6735
   98MOL0     H13507  12.157  10.874   7.423  2.5065 -3.5568 -1.9745
   98MOL0     H13508  11.375  10.314   7.681  1.2303 -1.1134  0.2384
   98MOL0     H13509  11.346  10.152   7.869  2.3356  0.0630  0.7894
   98MOL0     H13510  11.342  10.151   8.353  1.0111 -0.9635  0.7183
   98MOL0     H13511  11.351  10.006   8.529  0.8566 -1.3424 -1.8565
   98MOL0     H13512  11.355   9.791   8.644 -0.5885 -1.8075  0.3687
   98MOL0     H13513  11.273   9.914   8.748 -2.0518 -0.3928  0.6724
   98MOL0     H13514  11.157   9.756   8.868 -1.7410 -2.0237 -1.2933
   98MOL0     H13515  11.323   9.719   8.885 -1.6664  0.0909  1.3469
   98MOL0     H13516  11.198   9.508   8.846  4.6647 -2.2360 -1.8715
   98MOL0     H13517  11.099   9.592   8.720  0.6546  0.2918 -0.7444
   98MOL0     H13518  11.406   9.512   8.739 -0.4972  2.7140  2.3889
   98MOL0     H13519  11.341   9.589   8.596 -1.0545  0.9499  1.2916
   98MOL0     H13520  11.190   9.194   8.546 -3.8076  2.6501 -2.5059
   98MOL0     H13521  10.982   9.823   8.402  2.1651 -1.4189  0.6941
   98MOL0     H13522  11.005   9.908   8.066 -0.3771  1.8049 -0.7499
   98MOL0     H13523  10.903   9.841   8.196 -0.1993  0.2847  0.2601
   98MOL0     H13524  10.899  10.013   8.140  1.7642  0.5329 -2.1676
   99MOL0     O13525   8.675   1.718   8.758 -0.1352 -0.4338 -0.0587
   99MOL0     C13526   8.694   1.630   8.839  0.2644  0.0658  0.5959
   99MOL0     O13527   8.595   1.569   8.923  0.1292 -0.1445  0.7560
   99MOL0     C13528   8.468   1.627   8.929  0.2963  0.8004 -0.5198
   99MOL0     C13529   8.425   1.761   8.954  0.3705  0.0037 -0.1072
   99MOL0     C13530   8.288   1.797   8.956  0.0301 -0.5204  0.3513
   99MOL0     C13531   8.188   1.704   8.945  0.1177 -0.2989 -0.2055
   99MOL0     O13532   8.060   1.734   8.935 -0.6919  0.4110 -0.6331
   99MOL0     C13533   8.024   1.855   8.873 -0.0531 -0.3405 -0.9003
   99MOL0     C13534   8.024   1.832   8.721  0.4869 -0.0589 -0.3893
   99MOL0     C13535   8.036   1.967   8.646  0.2566 -0.0213 -1.2615
   99MOL0     C13536   8.012   1.955   8.501  0.5976  0.4846 -1.1466
   99MOL0     C13537   8.033   2.078   8.421 -1.4599  0.2319  0.0729
   99MOL0     C13538   7.913   2.181   8.427  0.5063 -0.6051  0.1193
   99MOL0     C13539   7.939   2.295   8.337  0.6413 -1.0712 -0.4975
   99MOL0     C13540   7.840   2.406   8.377  0.0429 -0.1658  0.3317
   99MOL0     N13541   7.856   2.509   8.274 -0.1146 -0.3531 -0.0356
   99MOL0     C13542   7.800   2.519   8.147 -0.4763 -0.2782 -0.5458
   99MOL0     C13543   7.870   2.625   8.088  0.2716 -0.1496 -0.1200
   99MOL0     C13544   7.855   2.687   7.948 -0.6391  0.3246  0.8057
   99MOL0     C13545   7.933   2.601   7.838 -0.6647 -0.1260  0.0537
   99MOL0     C13546   8.086   2.640   7.834  0.6600  0.6418 -0.0459
   99MOL0     C13547   8.103   2.782   7.770 -0.4386  0.3430  0.3531
   99MOL0     O13548   8.038   2.801   7.651 -0.2855 -0.2678  0.7181
   99MOL0     C13549   8.098   2.858   7.545  0.9921 -0.9192  0.6642
   99MOL0     C13550   8.176   2.787   7.463 -0.4197  0.2632 -0.3864
   99MOL0     C13551   8.248   2.836   7.354 -0.3335  0.3244 -0.2968
   99MOL0     C13552   8.338   2.741   7.277 -0.0771  1.4452  0.4248
   99MOL0     C13553   8.232   2.973   7.331 -0.5302 -0.6010 -0.4047
   99MOL0     C13554   8.291   3.041   7.212  0.1104  0.1513 -0.2022
   99MOL0     O13555   8.205   3.140   7.160 -0.4881  0.3714  1.3913
   99MOL0     C13556   8.250   3.225   7.054 -0.2085  0.2993 -0.3265
   99MOL0     C13557   8.160   3.273   6.959  0.3231 -0.0090  0.2198
   99MOL0     C13558   8.196   3.379   6.872 -0.8112 -0.1363 -0.2593
   99MOL0     C13559   8.329   3.434   6.868 -0.1222 -0.3529  0.1134
   99MOL0     O13560   8.352   3.558   6.814 -0.1778  0.3722  0.4742
   99MOL0     C13561   8.449   3.562   6.708  0.5479 -0.0485 -0.4338
   99MOL0     C13562   8.382   3.551   6.576 -0.0721  0.8807  0.3116
   99MOL0     C13563   8.417   3.415   6.504 -1.1502 -0.5862  1.0186
   99MOL0     C13564   8.345   3.294   6.560 -0.1766 -0.3287 -0.1566
   99MOL0     C13565   8.386   3.170   6.485 -1.1231 -0.1467 -0.4126
   99MOL0     C13566   8.293   3.045   6.502 -0.0348 -0.7169 -0.6807
   99MOL0     C13567   8.332   2.948   6.382 -0.6975  0.2921  0.9519
   99MOL0     C13568   8.228   2.836   6.392 -0.5974 -0.4121 -0.0599
   99MOL0    Cl13569   8.261   2.724   6.269  0.5277  0.0536 -0.1154
   99MOL0     C13570   8.411   3.384   6.964  0.3989  0.2084 -0.3256
   99MOL0     C13571   8.376   3.284   7.055  1.0951  0.6362  0.6816
   99MOL0     O13572   8.400   3.006   7.162  0.2629  0.4204 -0.0832
   99MOL0     C13573   8.132   3.048   7.403 -0.4272  0.4506 -0.7638
   99MOL0     C13574   8.074   2.991   7.516 -0.2196 -0.8364 -0.5260
   99MOL0     N13575   7.955   2.678   8.180 -0.4627  0.0683  1.1936
   99MOL0     N13576   7.952   2.607   8.291 -0.1821  0.6799  0.2088
   99MOL0     C13577   8.221   1.571   8.941 -0.3427 -0.0946  0.8523
   99MOL0     C13578   8.365   1.534   8.925  0.0619  0.4235  0.3570
   99MOL0     C13579   8.826   1.566   8.851 -0.7008  0.2420 -0.3157
   99MOL0     C13580   8.850   1.500   8.979  0.1553 -0.1295  0.4140
   99MOL0     C13581   8.977   1.444   8.993  0.0797  0.2399 -0.2830
   99MOL0     C13582   9.078   1.470   8.898  0.1835  0.7250 -0.3464
   99MOL0     O13583   9.206   1.433   8.927  0.0557  0.2007 -0.8634
   99MOL0     C13584   9.236   1.291   8.896 -0.3382 -0.9012  0.6265
   99MOL0     C13585   9.305   1.300   8.760  0.2523 -0.1101  0.4130
   99MOL0     C13586   9.327   1.159   8.693 -0.4857  0.9151 -0.2119
   99MOL0     C13587   9.416   1.160   8.570 -0.8289  0.8593  0.4973
   99MOL0     C13588   9.349   1.227   8.458  1.1377 -0.0204 -1.1468
   99MOL0     C13589   9.283   1.270   8.365 -0.5100 -0.8644 -1.1462
   99MOL0     C13590   9.057   1.538   8.782  0.2363  0.2871 -0.4075
   99MOL0     C13591   8.930   1.591   8.761 -0.6171 -0.1415  0.0153
   99MOL0     C13592   8.917   1.683   8.638  0.5011  0.1940  0.6037
   99MOL0     H13593   8.501   1.838   8.958  0.7463 -0.2793 -1.2818
   99MOL0     H13594   8.276   1.905   8.957  2.0438 -0.2274  2.3993
   99MOL0     H13595   8.090   1.936   8.905  0.9277 -1.8061  1.0108
   99MOL0     H13596   7.921   1.887   8.896  0.0977 -1.4701  1.7348
   99MOL0     H13597   8.111   1.768   8.702  1.8777  2.1106 -1.6166
   99MOL0     H13598   7.932   1.786   8.683 -0.0584  2.3587 -2.2153
   99MOL0     H13599   7.957   2.028   8.691  1.5611  0.7900 -0.0027
   99MOL0     H13600   8.136   2.008   8.658  0.6703 -0.2518 -3.4863
   99MOL0     H13601   8.080   1.882   8.457  5.0307  2.0709  2.3494
   99MOL0     H13602   7.907   1.929   8.486  0.5407  0.3905 -0.6133
   99MOL0     H13603   8.052   2.041   8.320  0.2258  2.3718 -0.4552
   99MOL0     H13604   8.128   2.126   8.446  0.1777 -0.7744 -3.5431
   99MOL0     H13605   7.820   2.129   8.404 -0.3345  0.2321  1.4702
   99MOL0     H13606   7.908   2.213   8.532  0.4671 -0.8868  0.2043
   99MOL0     H13607   7.926   2.271   8.231 -1.4241 -1.1003 -0.2856
   99MOL0     H13608   8.037   2.342   8.348 -0.8889  2.1350  0.9042
   99MOL0     H13609   7.741   2.361   8.369  1.0888 -2.3153 -1.6946
   99MOL0     H13610   7.856   2.451   8.475  0.8017  0.3753 -0.0315
   99MOL0     H13611   7.739   2.447   8.094  1.0031 -2.4885  0.5935
   99MOL0     H13612   7.897   2.787   7.965  1.5167 -0.8162  2.7801
   99MOL0     H13613   7.749   2.688   7.920 -1.2168 -2.2939  2.5352
   99MOL0     H13614   7.939   2.496   7.869  1.8548  0.2965  1.3012
   99MOL0     H13615   7.883   2.612   7.742 -3.2916  0.3710  1.3791
   99MOL0     H13616   8.126   2.641   7.936 -1.8538  0.1214  1.0198
   99MOL0     H13617   8.138   2.564   7.776  1.0583  0.3966  0.6151
   99MOL0     H13618   8.090   2.854   7.852  1.6950  0.2802  0.7977
   99MOL0     H13619   8.210   2.783   7.750  0.1353 -0.3066  2.9928
   99MOL0     H13620   8.190   2.685   7.498 -0.2948  0.3331 -0.2293
   99MOL0     H13621   8.429   2.717   7.332 -1.1664  1.2093  2.1890
   99MOL0     H13622   8.360   2.776   7.175  2.7197 -1.5707 -0.1608
   99MOL0     H13623   8.290   2.644   7.263  2.8190  0.0122 -0.3650
   99MOL0     H13624   8.055   3.245   6.951  0.5266 -0.1644 -4.3260
   99MOL0     H13625   8.118   3.428   6.815 -0.6470  1.6546  0.9792
   99MOL0     H13626   8.497   3.660   6.718  0.0464  0.0963  0.7069
   99MOL0     H13627   8.529   3.490   6.724  1.0209  0.8041  1.3042
   99MOL0     H13628   8.274   3.561   6.583  0.0771  2.6237  0.4458
   99MOL0     H13629   8.406   3.641   6.520  0.9496 -0.3523 -1.3332
   99MOL0     H13630   8.523   3.403   6.527 -0.7392  3.3161  1.8128
   99MOL0     H13631   8.397   3.418   6.396  1.5758 -0.9768  0.4153
   99MOL0     H13632   8.239   3.320   6.549 -0.7714 -0.5757  3.7577
   99MOL0     H13633   8.360   3.290   6.668  2.8373  2.2072 -0.3496
   99MOL0     H13634   8.386   3.188   6.377 -0.8172 -1.4879 -0.6577
   99MOL0     H13635   8.488   3.144   6.516 -0.9967  0.5496 -0.2306
   99MOL0     H13636   8.194   3.085   6.477  0.7485  1.0948 -1.0911
   99MOL0     H13637   8.305   3.011   6.605  0.8921 -1.1346 -0.9154
   99MOL0     H13638   8.433   2.913   6.406 -1.5743  0.5985  6.4011
   99MOL0     H13639   8.326   2.991   6.282 -1.1390 -1.6133  0.1105
   99MOL0     H13640   8.131   2.885   6.377 -0.3838  0.7171  1.8386
   99MOL0     H13641   8.231   2.783   6.487 -1.0267 -1.0083 -0.3752
   99MOL0     H13642   8.503   3.437   6.988  2.2166 -2.6992 -0.3093
   99MOL0     H13643   8.443   3.269   7.139  2.5406  0.5766 -0.4287
   99MOL0     H13644   8.116   3.154   7.387 -0.4242  0.4860 -0.5417
   99MOL0     H13645   8.010   3.058   7.572 -1.2708 -1.9963 -0.3135
   99MOL0     H13646   8.135   1.504   8.947 -3.1216  3.3076  2.3848
   99MOL0     H13647   8.396   1.430   8.919  0.7481  0.6984 -2.6109
   99MOL0     H13648   8.784   1.506   9.065  1.3674  1.7940  1.2923
   99MOL0     H13649   9.006   1.384   9.078 -2.5286 -1.3523 -0.4210
   99MOL0     H13650   9.291   1.256   8.984  0.4727  1.4242  1.1224
   99MOL0     H13651   9.148   1.228   8.878  1.2870 -2.6885 -1.6334
   99MOL0     H13652   9.399   1.353   8.779  0.9325  0.0263 -2.7646
   99MOL0     H13653   9.242   1.357   8.691 -1.2991 -1.8012  0.3400
   99MOL0     H13654   9.366   1.092   8.771  0.2803  1.0191 -0.4936
   99MOL0     H13655   9.234   1.129   8.646  0.7189  1.1435 -2.9396
   99MOL0     H13656   9.436   1.056   8.544 -1.0090  0.4531  1.8862
   99MOL0     H13657   9.511   1.209   8.591  0.3171 -0.9214 -0.4036
   99MOL0     H13658   9.231   1.324   8.288 -0.8624  0.1797 -0.2125
   99MOL0     H13659   9.149   1.556   8.728  0.6300  0.0341  0.1637
   99MOL0     H13660   9.023   1.687   8.610  0.9559 -3.2264  1.4513
   99MOL0     H13661   8.868   1.637   8.552  0.8259  0.9219  0.0064
   99MOL0     H13662   8.868   1.777   8.665 -1.3630 -1.2996  2.7653
  100MOL0     O13663   4.125   6.053   8.265 -0.1473 -0.3040  0.1761
  100MOL0     C13664   4.083   5.934   8.286 -0.0372 -0.1307  0.0129
  100MOL0     O13665   4.146   5.813   8.261 -0.1897 -0.4534  0.9332
  100MOL0     C13666   4.257   5.810   8.177  0.2727 -0.2847  0.0558
  100MOL0     C13667   4.243   5.799   8.036  0.3181 -0.2256 -1.1158
  100MOL0     C13668   4.363   5.795   7.959 -0.6359 -0.1986 -0.3429
  100MOL0     C13669   4.495   5.782   8.021  0.2402  0.1058  0.1786
  100MOL0     O13670   4.600   5.752   7.938 -0.1323  0.4844  0.4712
  100MOL0     C13671   4.736   5.763   7.986  0.3864  0.2138 -0.5987
  100MOL0     C13672   4.821   5.726   7.874  0.4567 -0.9923  0.2663
  100MOL0     C13673   4.847   5.835   7.777  0.3123 -0.2771  0.3423
  100MOL0     C13674   4.920   5.781   7.650  0.1642 -0.2279 -1.0696
  100MOL0     C13675   4.920   5.867   7.531  0.4099 -0.7754  0.0937
  100MOL0     C13676   5.014   5.984   7.553 -0.4544 -0.5840 -0.1756
  100MOL0     C13677   5.041   6.058   7.424 -1.0895  0.5076 -0.3717
  100MOL0     C13678   4.916   6.105   7.355  0.0240  0.2794  0.0916
  100MOL0     N13679   4.945   6.190   7.237 -0.0566  0.8904 -0.0293
  100MOL0     C13680   4.968   6.330   7.245 -0.7869  0.1995 -0.7081
  100MOL0     C13681   4.917   6.372   7.132  0.3294 -0.5915  0.9368
  100MOL0     C13682   4.887   6.523   7.120  0.3613 -0.1953  0.6466
  100MOL0     C13683   4.935   6.591   6.989 -0.1878  0.2158  0.0123
  100MOL0     C13684   4.846   6.577   6.869 -0.1732  0.0284  0.4010
  100MOL0     C13685   4.886   6.700   6.776 -0.6041  0.3858 -0.0486
  100MOL0     O13686   5.021   6.698   6.737 -0.2709 -0.1030 -0.2476
  100MOL0     C13687   5.072   6.597   6.654  0.4282 -0.3404  0.2828
  100MOL0     C13688   5.203   6.572   6.659  0.0372 -0.2399 -0.4994
  100MOL0     C13689   5.260   6.475   6.574  0.5765 -0.7149 -0.4415
  100MOL0     C13690   5.411   6.459   6.579 -0.8184  0.2285  0.2250
  100MOL0     C13691   5.178   6.395   6.490  0.1125 -0.3201 -0.4423
  100MOL0     C13692   5.230   6.292   6.398  0.4267  0.2231 -0.6469
  100MOL0     O13693   5.331   6.211   6.449  0.5487 -0.0988  0.7003
  100MOL0     C13694   5.363   6.106   6.360 -0.1434  0.4906 -0.0519
  100MOL0     C13695   5.451   6.133   6.263 -0.2907  0.3174  0.7252
  100MOL0     C13696   5.495   6.038   6.171  0.1478  0.0712 -0.0589
  100MOL0     C13697   5.443   5.902   6.174  0.1803 -0.3770 -0.6297
  100MOL0     O13698   5.469   5.811   6.068 -0.5883  0.6079 -0.8191
  100MOL0     C13699   5.519   5.845   5.940  0.6512  0.1203  0.1799
  100MOL0     C13700   5.612   5.729   5.916  1.2699  0.2672  0.2125
  100MOL0     C13701   5.550   5.595   5.876  0.3410 -0.1880  0.9130
  100MOL0     C13702   5.666   5.521   5.809  0.9201  0.1015  0.5168
  100MOL0     C13703   5.649   5.375   5.766  0.6184  0.4709 -0.4328
  100MOL0     C13704   5.580   5.280   5.857 -0.6487  0.1333  0.0250
  100MOL0     C13705   5.675   5.227   5.964  0.0407 -0.1499  0.8010
  100MOL0     C13706   5.651   5.083   5.991 -0.2009  0.9975  0.2079
  100MOL0    Cl13707   5.679   4.975   5.847  0.0933 -0.0274 -0.0552
  100MOL0     C13708   5.361   5.869   6.286  0.7998  0.3404 -0.6088
  100MOL0     C13709   5.315   5.969   6.375 -0.4973  0.6740  0.6829
  100MOL0     O13710   5.186   6.282   6.281  0.0342 -0.1686 -0.0106
  100MOL0     C13711   5.040   6.420   6.493  0.1950  0.5104 -0.8827
  100MOL0     C13712   4.982   6.522   6.574 -0.8957 -0.4674 -0.1935
  100MOL0     N13713   4.867   6.263   7.049 -0.3008  0.7145 -0.2245
  100MOL0     N13714   4.895   6.161   7.121  0.5916  1.0112 -0.1673
  100MOL0     C13715   4.500   5.793   8.159  0.3431 -0.7106 -1.1473
  100MOL0     C13716   4.376   5.814   8.237 -0.4065  0.1495  1.3650
  100MOL0     C13717   3.956   5.918   8.378 -0.5090 -0.2343 -0.7878
  100MOL0     C13718   3.922   5.783   8.411 -0.8665  0.0569 -0.1493
  100MOL0     C13719   3.819   5.755   8.499  0.5326 -0.1476  0.0356
  100MOL0     C13720   3.731   5.863   8.541  1.0809 -0.3459  0.2686
  100MOL0     O13721   3.614   5.830   8.622 -0.4696  0.4112  0.2490
  100MOL0     C13722   3.523   5.932   8.663  0.0149 -0.6529  0.4096
  100MOL0     C13723   3.574   6.007   8.787 -1.5299  0.0731  0.5776
  100MOL0     C13724   3.465   6.085   8.857 -0.4895 -0.1981  0.2160
  100MOL0     C13725   3.448   6.029   8.998 -0.5735  0.3544 -0.1840
  100MOL0     C13726   3.386   5.891   8.997  1.3440 -0.4329 -0.0597
  100MOL0     C13727   3.317   5.786   8.993  0.6254  0.3384  0.3457
  100MOL0     C13728   3.754   5.989   8.491 -0.0528 -0.6438 -0.7955
  100MOL0     C13729   3.869   6.029   8.420 -0.2477  0.2423  0.1604
  100MOL0     C13730   3.876   6.176   8.379  0.4882  0.2244 -0.2755
  100MOL0     H13731   4.145   5.790   7.992 -0.1003  0.7210 -0.4010
  100MOL0     H13732   4.353   5.801   7.851  0.7462  0.3488 -0.4609
  100MOL0     H13733   4.750   5.688   8.065  3.2704  0.6304 -0.6062
  100MOL0     H13734   4.767   5.859   8.028  0.0781  1.6225 -3.3448
  100MOL0     H13735   4.916   5.687   7.912  1.8963  0.9474 -1.1113
  100MOL0     H13736   4.763   5.649   7.824 -1.6478 -0.0948  1.2237
  100MOL0     H13737   4.749   5.877   7.750  0.2967 -0.5991 -0.1133
  100MOL0     H13738   4.907   5.911   7.827  1.8231 -1.6044  0.6126
  100MOL0     H13739   5.017   5.741   7.682 -0.1890  1.2155  2.2614
  100MOL0     H13740   4.864   5.693   7.620 -0.7898  0.0834 -0.2410
  100MOL0     H13741   4.817   5.903   7.519  0.7244 -0.1170 -0.7319
  100MOL0     H13742   4.950   5.811   7.442  1.7275 -0.6878  0.4594
  100MOL0     H13743   4.965   6.059   7.616 -0.7793 -0.0285 -1.0772
  100MOL0     H13744   5.109   5.952   7.597  1.1895  1.2260 -2.1908
  100MOL0     H13745   5.105   5.995   7.361  0.2242  3.5690 -2.2996
  100MOL0     H13746   5.112   6.134   7.459 -1.5262  0.5500  0.4568
  100MOL0     H13747   4.855   6.016   7.337  0.4310  0.0873 -0.3273
  100MOL0     H13748   4.856   6.165   7.425  0.8004  1.6851 -0.4086
  100MOL0     H13749   4.997   6.389   7.332  1.4373 -0.2682 -1.0705
  100MOL0     H13750   4.940   6.571   7.202  2.4731 -1.2645 -0.0304
  100MOL0     H13751   4.780   6.545   7.128  1.0322  3.0276  2.4772
  100MOL0     H13752   4.944   6.698   7.010 -0.0896  0.5651 -1.6725
  100MOL0     H13753   5.035   6.550   6.970 -0.7603 -1.2263  0.0201
  100MOL0     H13754   4.855   6.478   6.823  2.0976  0.0799  0.6047
  100MOL0     H13755   4.742   6.595   6.898  0.4050  2.0185  1.4514
  100MOL0     H13756   4.825   6.730   6.690 -0.6686  1.2684  0.2890
  100MOL0     H13757   4.869   6.786   6.842 -2.0227 -0.2086  0.3971
  100MOL0     H13758   5.265   6.634   6.723  0.7508 -2.6523  1.2609
  100MOL0     H13759   5.453   6.542   6.637 -1.6018  2.0422 -1.6462
  100MOL0     H13760   5.455   6.467   6.479 -3.8786 -0.1944 -1.2642
  100MOL0     H13761   5.439   6.363   6.623  2.4941  1.2623  0.6724
  100MOL0     H13762   5.478   6.236   6.246 -3.5396  1.0152 -1.1725
  100MOL0     H13763   5.559   6.072   6.090  0.2220 -3.3050 -1.5955
  100MOL0     H13764   5.430   5.844   5.876 -0.2562 -2.7223  1.3066
  100MOL0     H13765   5.585   5.932   5.951  3.3437 -1.7735  0.0231
  100MOL0     H13766   5.691   5.755   5.845  0.8962 -1.0920 -0.7448
  100MOL0     H13767   5.665   5.706   6.008 -1.3633 -0.2486  1.6886
  100MOL0     H13768   5.466   5.608   5.807 -1.0771 -1.3017  2.3384
  100MOL0     H13769   5.514   5.545   5.966  2.8534 -0.1230  2.0218
  100MOL0     H13770   5.762   5.539   5.857  2.3446  2.3812 -2.7624
  100MOL0     H13771   5.686   5.573   5.715  2.0101 -0.8881  0.1798
  100MOL0     H13772   5.584   5.376   5.678  1.1841  0.2231 -0.8590
  100MOL0     H13773   5.742   5.325   5.735 -1.2918 -1.9511 -2.6637
  100MOL0     H13774   5.534   5.206   5.791 -0.9976 -0.8876  1.3681
  100MOL0     H13775   5.496   5.332   5.904 -0.1279 -0.2798  1.4718
  100MOL0     H13776   5.659   5.285   6.055 -1.0157  1.0834 -0.1465
  100MOL0     H13777   5.780   5.221   5.933 -0.0550  0.4021  0.3559
  100MOL0     H13778   5.552   5.066   6.035 -1.5318  4.6243 -1.0253
  100MOL0     H13779   5.716   5.057   6.075 -1.6500 -0.7316  0.8769
  100MOL0     H13780   5.326   5.767   6.287 -0.8093  0.8305 -1.9621
  100MOL0     H13781   5.247   5.943   6.456 -3.3415 -2.0897 -2.3130
  100MOL0     H13782   4.968   6.368   6.431  0.1752 -2.2125  1.2386
  100MOL0     H13783   4.877   6.544   6.558 -0.3654  0.4454 -2.9117
  100MOL0     H13784   4.590   5.764   8.213  0.3862 -2.0884 -1.9062
  100MOL0     H13785   4.366   5.810   8.345 -1.0324 -2.1917  1.2662
  100MOL0     H13786   3.976   5.696   8.373 -2.1071 -1.7089  1.9278
  100MOL0     H13787   3.803   5.655   8.537 -0.0379 -0.3424 -0.7049
  100MOL0     H13788   3.507   5.987   8.570  1.5208  0.3268  0.6999
  100MOL0     H13789   3.434   5.876   8.691  0.1910 -0.4086  1.4721
  100MOL0     H13790   3.646   6.085   8.760 -2.2190  0.7153  0.5337
  100MOL0     H13791   3.633   5.935   8.843  0.7260  1.1927 -0.2406
  100MOL0     H13792   3.492   6.191   8.859 -1.2667  0.1287 -2.6255
  100MOL0     H13793   3.378   6.093   8.791  1.4574 -0.3761 -2.5720
  100MOL0     H13794   3.375   6.089   9.053 -2.1789 -1.2614 -0.4617
  100MOL0     H13795   3.536   6.022   9.063 -0.9190  1.8927  0.4966
  100MOL0     H13796   3.274   5.688   8.993  1.5599 -0.0841  0.9768
  100MOL0     H13797   3.682   6.069   8.497 -1.1152 -1.6623  0.9825
  100MOL0     H13798   3.803   6.239   8.429 -0.0597 -1.3638  1.0098
  100MOL0     H13799   3.973   6.220   8.404  0.9889 -1.1493  0.3426
  100MOL0     H13800   3.844   6.186   8.275 -0.3535  0.3036 -0.0164
  101MOL0     O13801   7.789   7.221   5.642 -0.7018  0.0657  1.1268
  101MOL0     C13802   7.711   7.198   5.733  1.4687  0.3309 -0.6556
  101MOL0     O13803   7.645   7.287   5.807 -0.1556  0.5977  0.1651
  101MOL0     C13804   7.650   7.418   5.775  0.2135  0.7925  0.5520
  101MOL0     C13805   7.764   7.488   5.806 -0.5708 -0.0978 -0.0283
  101MOL0     C13806   7.769   7.626   5.771  0.1692 -1.1407 -0.2363
  101MOL0     C13807   7.667   7.700   5.721 -0.0701  0.9275  0.9240
  101MOL0     O13808   7.664   7.828   5.686 -0.1435  0.7097  0.4853
  101MOL0     C13809   7.703   7.919   5.784  0.2459  0.1047  0.4129
  101MOL0     C13810   7.717   8.057   5.719 -0.6340 -0.4958  0.2429
  101MOL0     C13811   7.583   8.115   5.672 -0.2381 -0.6340 -0.4182
  101MOL0     C13812   7.589   8.171   5.528 -0.0598  0.4802 -0.7052
  101MOL0     C13813   7.463   8.250   5.484  0.1455  0.3819 -0.5665
  101MOL0     C13814   7.473   8.326   5.355  0.5942  0.7036  1.2908
  101MOL0     C13815   7.350   8.405   5.313  0.4664  0.8301  0.9332
  101MOL0     C13816   7.248   8.328   5.229 -0.5232  0.2645 -0.5256
  101MOL0     N13817   7.133   8.416   5.202  0.2846 -0.2774  0.3155
  101MOL0     C13818   7.028   8.379   5.125 -0.0806  0.1838 -0.1397
  101MOL0     C13819   6.950   8.498   5.116 -0.2875  1.1118 -0.8492
  101MOL0     C13820   6.824   8.504   5.042 -0.0655  0.6327  1.1498
  101MOL0     C13821   6.845   8.475   4.894 -0.4692 -0.4142  0.8283
  101MOL0     C13822   6.729   8.499   4.797  0.1574  0.1476  0.0448
  101MOL0     C13823   6.599   8.416   4.820 -0.4250  0.2666 -0.4176
  101MOL0     O13824   6.539   8.461   4.939  0.1893  0.7657  0.6673
  101MOL0     C13825   6.396   8.477   4.926 -0.2867 -0.5892  0.5565
  101MOL0     C13826   6.303   8.396   4.991 -0.8394  1.6283 -0.2486
  101MOL0     C13827   6.167   8.422   4.979 -0.1676  0.0152  0.0720
  101MOL0     C13828   6.073   8.314   5.028  0.5159  0.4019  0.8341
  101MOL0     C13829   6.117   8.526   4.894  0.0819  0.9981 -0.0273
  101MOL0     C13830   5.982   8.575   4.882  0.2121  0.2995 -0.0632
  101MOL0     O13831   5.938   8.660   4.772 -0.0161  0.1310 -0.2351
  101MOL0     C13832   5.823   8.714   4.797  0.3075 -0.2132 -0.4539
  101MOL0     C13833   5.813   8.840   4.863 -0.8597  0.3559 -0.1086
  101MOL0     C13834   5.703   8.921   4.868  0.1165  0.0019 -0.2270
  101MOL0     C13835   5.590   8.877   4.807 -0.5408  0.2807  0.2965
  101MOL0     O13836   5.466   8.936   4.814 -0.7293  0.0702 -0.3512
  101MOL0     C13837   5.441   9.041   4.912  0.5678  0.3484  0.7378
  101MOL0     C13838   5.296   9.078   4.926 -0.0324  0.0099  1.4443
  101MOL0     C13839   5.225   8.960   4.999  0.4701  0.0067  0.0473
  101MOL0     C13840   5.079   8.968   4.984 -0.4135 -0.2561  0.3471
  101MOL0     C13841   5.003   8.888   5.094 -0.0173  0.2457  0.2847
  101MOL0     C13842   4.961   8.976   5.215 -0.7436  0.3246 -0.7917
  101MOL0     C13843   4.837   8.918   5.295 -0.4990 -0.3349 -0.6302
  101MOL0     C13844   4.799   9.007   5.410 -0.2609  0.0398 -0.0717
  101MOL0    Cl13845   4.708   9.140   5.341  0.2007  0.1877  0.3643
  101MOL0     C13846   5.588   8.747   4.741 -0.6327 -0.6107  0.1957
  101MOL0     C13847   5.703   8.665   4.743  0.4275  0.6247 -0.2945
  101MOL0     O13848   5.914   8.552   4.983  0.5971 -0.4227 -0.8014
  101MOL0     C13849   6.216   8.613   4.834 -0.7515  0.2198  0.6844
  101MOL0     C13850   6.354   8.586   4.846 -0.8016 -0.3667 -1.1592
  101MOL0     N13851   7.016   8.600   5.176 -0.7922  0.0064 -0.1735
  101MOL0     N13852   7.124   8.552   5.227 -0.4691 -0.4470  0.4752
  101MOL0     C13853   7.552   7.628   5.697 -0.7075 -0.0444 -0.9753
  101MOL0     C13854   7.542   7.492   5.723 -0.2334 -0.1250  0.2905
  101MOL0     C13855   7.687   7.057   5.781  0.8057 -0.7145  0.1676
  101MOL0     C13856   7.573   7.040   5.864 -0.8622 -0.2188 -0.1861
  101MOL0     C13857   7.537   6.912   5.916  0.1213 -0.0926  0.0331
  101MOL0     C13858   7.612   6.809   5.880  0.0545 -0.2855  0.3564
  101MOL0     O13859   7.580   6.698   5.951  0.1049  0.6070 -0.7245
  101MOL0     C13860   7.646   6.576   5.912  0.5538 -0.0304  0.1881
  101MOL0     C13861   7.604   6.459   5.996  0.3022 -0.6889  0.0216
  101MOL0     C13862   7.646   6.485   6.146 -1.0765  0.7705  0.4014
  101MOL0     C13863   7.798   6.539   6.165  0.4995  0.2378 -0.9361
  101MOL0     C13864   7.870   6.421   6.137 -0.7712 -0.0002  0.1122
  101MOL0     C13865   7.957   6.339   6.127  0.8807  0.0418  0.3425
  101MOL0     C13866   7.720   6.823   5.792  0.0938  0.0782  0.2440
  101MOL0     C13867   7.761   6.942   5.742 -0.4340 -0.5692 -0.0128
  101MOL0     C13868   7.886   6.947   5.664  0.6296 -0.8896 -0.0906
  101MOL0     H13869   7.857   7.451   5.848 -1.0734 -0.9403  0.3827
  101MOL0     H13870   7.869   7.659   5.798 -0.3134 -0.0453  0.2570
  101MOL0     H13871   7.796   7.888   5.831 -1.0616 -0.7493  2.5631
  101MOL0     H13872   7.632   7.922   5.867  0.8029 -2.0189  1.0154
  101MOL0     H13873   7.756   8.142   5.777  0.5548  0.0311 -1.2703
  101MOL0     H13874   7.772   8.047   5.625 -2.5020  2.4856 -1.3432
  101MOL0     H13875   7.503   8.041   5.671  1.1464 -2.2124  0.6520
  101MOL0     H13876   7.561   8.200   5.738 -1.4617 -2.5070  1.7328
  101MOL0     H13877   7.681   8.230   5.520  0.0862  0.0972 -2.1966
  101MOL0     H13878   7.606   8.083   5.465  1.7226 -0.7276  1.3165
  101MOL0     H13879   7.436   8.307   5.574  0.7411 -0.5508  0.2272
  101MOL0     H13880   7.388   8.171   5.470 -0.3435  1.0266 -1.7205
  101MOL0     H13881   7.555   8.399   5.356 -0.8784  2.4570  0.3472
  101MOL0     H13882   7.506   8.258   5.276  1.7618  2.8385 -0.1972
  101MOL0     H13883   7.384   8.494   5.259  1.0772  1.0009  1.5866
  101MOL0     H13884   7.298   8.454   5.396 -1.1711  3.2755 -1.3834
  101MOL0     H13885   7.286   8.288   5.135 -2.7469  1.9140 -2.2390
  101MOL0     H13886   7.214   8.245   5.292 -1.0951  2.6212  2.5461
  101MOL0     H13887   7.009   8.280   5.085 -0.0056 -1.0374  2.6362
  101MOL0     H13888   6.788   8.606   5.054 -0.4635  0.2931  3.1875
  101MOL0     H13889   6.754   8.436   5.091 -0.1865 -1.1160 -1.2745
  101MOL0     H13890   6.934   8.526   4.857 -2.6387  3.1328  0.0775
  101MOL0     H13891   6.871   8.370   4.879  3.0032  0.3213  0.7227
  101MOL0     H13892   6.712   8.607   4.805  2.7766  0.5387  1.6194
  101MOL0     H13893   6.777   8.469   4.703  1.8949 -1.2939  1.3135
  101MOL0     H13894   6.539   8.437   4.731 -0.1009  3.3806 -0.0033
  101MOL0     H13895   6.630   8.312   4.832  1.6525  0.3834 -3.4543
  101MOL0     H13896   6.330   8.325   5.069 -1.2345  1.6194 -0.1195
  101MOL0     H13897   6.019   8.350   5.116  0.3977 -0.1124  0.9788
  101MOL0     H13898   6.112   8.212   5.043  1.2146  0.4003 -0.7965
  101MOL0     H13899   5.994   8.305   4.953  0.1906 -1.0708  1.3013
  101MOL0     H13900   5.904   8.873   4.912 -0.6009 -0.9298  0.3007
  101MOL0     H13901   5.707   9.015   4.921  2.1609 -0.3286  0.2768
  101MOL0     H13902   5.474   9.018   5.014 -3.5547  0.8446  2.3791
  101MOL0     H13903   5.487   9.133   4.876 -2.9578  1.8638 -0.3099
  101MOL0     H13904   5.296   9.176   4.976 -1.9006  0.4979  0.5884
  101MOL0     H13905   5.250   9.086   4.827 -2.7014 -1.8109  2.4377
  101MOL0     H13906   5.252   8.967   5.105 -0.1493  0.8303  0.1569
  101MOL0     H13907   5.245   8.864   4.951 -2.6895 -0.9985  0.5158
  101MOL0     H13908   5.049   8.928   4.887 -2.3176 -1.1853  1.2526
  101MOL0     H13909   5.051   9.073   4.991  3.2659  0.7939  2.5851
  101MOL0     H13910   4.918   8.836   5.049 -0.1833  0.2967  0.5307
  101MOL0     H13911   5.065   8.813   5.144 -2.6884 -0.7348  2.4149
  101MOL0     H13912   4.934   9.078   5.188 -3.4089  0.2649  1.2003
  101MOL0     H13913   5.041   8.988   5.288 -2.0294 -0.6588  0.8630
  101MOL0     H13914   4.871   8.825   5.341 -0.5723  0.0119  0.1533
  101MOL0     H13915   4.748   8.908   5.233 -0.3904  0.1149 -0.8623
  101MOL0     H13916   4.891   9.043   5.458  1.1862 -2.3699 -0.8581
  101MOL0     H13917   4.740   8.946   5.478  1.4499 -1.0877  0.4722
  101MOL0     H13918   5.500   8.702   4.695  0.8903 -3.8781  0.1627
  101MOL0     H13919   5.698   8.564   4.706 -0.7892  0.1947  0.9424
  101MOL0     H13920   6.192   8.700   4.774 -0.0840 -0.1627 -0.1539
  101MOL0     H13921   6.434   8.657   4.828 -0.8336  0.2234  0.8445
  101MOL0     H13922   7.463   7.686   5.675  0.7020  3.8621  2.3197
  101MOL0     H13923   7.449   7.440   5.699  0.4688 -1.7221  0.8980
  101MOL0     H13924   7.500   7.118   5.885  1.6869  1.9908  1.1209
  101MOL0     H13925   7.452   6.893   5.981 -1.5351 -0.6590 -2.1700
  101MOL0     H13926   7.613   6.559   5.809  1.1608  1.7213 -0.3390
  101MOL0     H13927   7.754   6.584   5.902  0.6935 -1.5278  0.3403
  101MOL0     H13928   7.641   6.362   5.962 -1.1892 -2.1465  2.3116
  101MOL0     H13929   7.495   6.461   5.988  0.1913 -1.2088  1.1707
  101MOL0     H13930   7.578   6.563   6.181 -1.8490  0.1068  0.4381
  101MOL0     H13931   7.638   6.398   6.213 -2.4584  1.6959  1.5102
  101MOL0     H13932   7.815   6.561   6.271 -2.3027 -3.0471  0.4199
  101MOL0     H13933   7.829   6.634   6.121  1.7426  0.2885 -0.0171
  101MOL0     H13934   8.041   6.273   6.121  1.9008  1.3459 -0.4623
  101MOL0     H13935   7.772   6.735   5.755 -1.4381 -1.1094  0.8209
  101MOL0     H13936   7.915   6.850   5.622 -1.8311 -1.6231 -0.2762
  101MOL0     H13937   7.884   7.007   5.573  3.7176 -1.8865 -0.9267
  101MOL0     H13938   7.971   6.964   5.730  0.1371 -2.5983  1.0505
  102MOL0     O13939   0.579   2.058   5.743 -0.7570  0.2564 -0.1742
  102MOL0     C13940   0.582   1.936   5.739  0.1238  0.2540 -0.3570
  102MOL0     O13941   0.607   1.857   5.847 -0.1331 -0.0284 -0.0830
  102MOL0     C13942   0.617   1.922   5.964  0.5178  0.4617 -0.1654
  102MOL0     C13943   0.739   1.975   6.000  0.0465 -0.3220  0.6258
  102MOL0     C13944   0.752   2.033   6.127 -0.2889 -0.2388 -1.0514
  102MOL0     C13945   0.646   2.024   6.217  0.3471  1.0744 -0.0871
  102MOL0     O13946   0.638   2.068   6.342 -0.2156 -0.1714 -0.0856
  102MOL0     C13947   0.730   2.171   6.380  0.1189 -0.3577 -0.4547
  102MOL0     C13948   0.713   2.300   6.309 -0.1161  0.3673  0.6178
  102MOL0     C13949   0.568   2.334   6.276  0.6654  0.4835  0.2635
  102MOL0     C13950   0.550   2.479   6.239 -0.4702 -0.4734 -0.3265
  102MOL0     C13951   0.425   2.493   6.142 -0.2140  0.4063 -0.2065
  102MOL0     C13952   0.336   2.620   6.152 -0.4378  0.3992  0.1481
  102MOL0     C13953   0.217   2.627   6.062  0.2305 -0.4947  1.0358
  102MOL0     C13954   0.179   2.775   6.048  0.1533  0.3523  0.1296
  102MOL0     N13955   0.109   2.822   6.173 -0.4845 -0.6906 -0.0413
  102MOL0     C13956   0.166   2.882   6.280 -0.0032  0.5479 -0.6120
  102MOL0     C13957   0.071   2.905   6.372 -0.0647  0.2355  0.6810
  102MOL0     C13958   0.080   2.951   6.516 -0.5396 -0.8120 -0.5137
  102MOL0     C13959   0.189   3.050   6.546  0.8436  1.1192  0.2026
  102MOL0     C13960   0.140   3.130   6.676 -0.3930 -0.2200  1.0846
  102MOL0     C13961   0.248   3.231   6.720 -0.6951  0.2045  0.5484
  102MOL0     O13962   0.347   3.158   6.787 -0.2221  0.2447 -0.1530
  102MOL0     C13963   0.466   3.222   6.822  0.4982  0.1525  0.6884
  102MOL0     C13964   0.500   3.353   6.778  0.4611  0.5576  0.3784
  102MOL0     C13965   0.612   3.424   6.819 -0.6684  0.1667  0.6725
  102MOL0     C13966   0.660   3.560   6.753  0.0908 -0.3332  0.2271
  102MOL0     C13967   0.707   3.344   6.882 -0.6595  0.2621 -0.3087
  102MOL0     C13968   0.843   3.409   6.906 -0.1536 -0.0383 -1.0092
  102MOL0     O13969   0.951   3.354   6.865 -0.3930 -0.2344 -0.3276
  102MOL0     C13970   1.078   3.403   6.897 -1.0706  0.8531  0.9783
  102MOL0     C13971   1.115   3.537   6.916  0.3350 -0.4403  0.4913
  102MOL0     C13972   1.242   3.564   6.953 -0.0030  0.1153  0.8973
  102MOL0     C13973   1.349   3.468   6.948 -0.4570  0.9668 -0.5671
  102MOL0     O13974   1.472   3.522   6.990  0.1026  1.0431 -0.2301
  102MOL0     C13975   1.576   3.443   7.056  0.3491  0.4302  0.6777
  102MOL0     C13976   1.549   3.445   7.213  0.7358 -0.2418 -0.2787
  102MOL0     C13977   1.613   3.323   7.275 -0.1707 -0.2104 -0.0124
  102MOL0     C13978   1.585   3.322   7.424 -0.6478  1.0007  0.2601
  102MOL0     C13979   1.698   3.241   7.492  0.3677  0.7638 -0.5272
  102MOL0     C13980   1.639   3.123   7.574 -0.9468  0.0101 -0.1185
  102MOL0     C13981   1.767   3.059   7.651  1.3117 -0.5992 -0.2381
  102MOL0     C13982   1.724   2.925   7.706  0.3938 -0.1993  0.1762
  102MOL0    Cl13983   1.579   2.931   7.822 -0.1622 -0.1617  0.0593
  102MOL0     C13984   1.315   3.340   6.916  0.6958 -0.3699  0.1763
  102MOL0     C13985   1.184   3.317   6.885  0.2148  0.8976 -1.1030
  102MOL0     O13986   0.839   3.519   6.963 -0.2149 -0.3782  0.4006
  102MOL0     C13987   0.699   3.208   6.900 -0.5530  0.9598  0.1965
  102MOL0     C13988   0.575   3.143   6.867 -0.3196  0.5964 -0.0526
  102MOL0     N13989  -0.034   2.838   6.314  0.4404  0.0317 -0.4759
  102MOL0     N13990  -0.022   2.789   6.195  0.1870 -0.1861 -0.1890
  102MOL0     C13991   0.527   1.971   6.173  0.1822 -0.9071  0.2214
  102MOL0     C13992   0.507   1.914   6.051  0.7890  0.8728  0.4685
  102MOL0     C13993   0.582   1.871   5.604 -0.2841 -0.2143  0.0330
  102MOL0     C13994   0.535   1.944   5.492  0.5636 -0.0144  0.3796
  102MOL0     C13995   0.500   1.893   5.362  0.2652  0.5301 -1.3526
  102MOL0     C13996   0.542   1.768   5.334  0.2525  0.1583  0.4314
  102MOL0     O13997   0.502   1.731   5.210  0.3598  0.1851  0.0847
  102MOL0     C13998   0.503   1.590   5.175  0.6081  0.7342 -0.1536
  102MOL0     C13999   0.488   1.586   5.026  0.4027  0.0898 -0.5298
  102MOL0     C14000   0.463   1.448   4.959  0.3370  0.5640 -0.1143
  102MOL0     C14001   0.477   1.433   4.810  0.0985 -1.0702 -0.1930
  102MOL0     C14002   0.375   1.527   4.760  0.4314 -0.2424 -0.3194
  102MOL0     C14003   0.297   1.605   4.720  1.0070 -0.3803 -0.3513
  102MOL0     C14004   0.592   1.691   5.436 -0.9477  0.4921  0.5871
  102MOL0     C14005   0.609   1.735   5.566 -0.6358 -0.1068 -0.4151
  102MOL0     C14006   0.646   1.613   5.663 -1.0837 -0.0504  0.3714
  102MOL0     H14007   0.832   1.981   5.946  0.1007  2.9258  0.8584
  102MOL0     H14008   0.853   2.069   6.145  0.2539 -2.2544  0.3957
  102MOL0     H14009   0.832   2.132   6.381 -0.5093 -2.1559  1.0906
  102MOL0     H14010   0.709   2.197   6.484 -1.4058 -2.2789 -0.2100
  102MOL0     H14011   0.759   2.390   6.351  0.6777  0.2902 -0.0648
  102MOL0     H14012   0.765   2.282   6.215 -1.0699  1.8278 -0.2425
  102MOL0     H14013   0.543   2.269   6.192  3.9240  1.1829 -1.4034
  102MOL0     H14014   0.499   2.311   6.358 -1.9831 -0.7681 -2.1299
  102MOL0     H14015   0.528   2.545   6.324  0.2037 -0.1965 -0.3618
  102MOL0     H14016   0.639   2.504   6.181  0.6299 -0.8414  1.1257
  102MOL0     H14017   0.361   2.405   6.146 -1.1999  1.1413  1.0208
  102MOL0     H14018   0.459   2.500   6.038  0.8868  0.3296  0.1368
  102MOL0     H14019   0.324   2.639   6.260 -0.1818 -0.8303  0.4031
  102MOL0     H14020   0.407   2.694   6.114  0.5121  0.8853  2.6592
  102MOL0     H14021   0.144   2.553   6.096 -0.3438 -0.7917 -0.7221
  102MOL0     H14022   0.256   2.593   5.966 -0.8756 -1.7480  0.9934
  102MOL0     H14023   0.260   2.846   6.030  1.2275 -0.8575  0.1192
  102MOL0     H14024   0.109   2.771   5.964  2.1751  2.3482 -1.7745
  102MOL0     H14025   0.266   2.921   6.266  0.3513 -0.2999 -0.5434
  102MOL0     H14026   0.118   2.862   6.568  0.7481  0.3752  0.6884
  102MOL0     H14027  -0.015   2.991   6.551  0.4742  1.2354  0.0661
  102MOL0     H14028   0.284   2.999   6.566  0.8939  0.6486 -1.1240
  102MOL0     H14029   0.201   3.112   6.456  2.0199  0.6029 -0.0161
  102MOL0     H14030   0.051   3.193   6.663  0.4545  1.2279  1.9949
  102MOL0     H14031   0.127   3.067   6.764 -0.7408  0.1258  1.2894
  102MOL0     H14032   0.291   3.285   6.635  1.5945 -1.2000  0.7178
  102MOL0     H14033   0.200   3.306   6.783  1.0283  3.3562 -1.5927
  102MOL0     H14034   0.429   3.410   6.718 -1.4457 -2.3807 -0.4043
  102MOL0     H14035   0.760   3.551   6.710  0.9845  2.8373  1.3501
  102MOL0     H14036   0.670   3.634   6.833 -2.4122  2.0004 -1.4359
  102MOL0     H14037   0.582   3.601   6.689 -0.7211 -0.8079  0.8949
  102MOL0     H14038   1.045   3.619   6.908 -1.9346 -2.2238  1.1483
  102MOL0     H14039   1.267   3.665   6.984  2.4259 -0.7936  2.1749
  102MOL0     H14040   1.574   3.342   7.015  2.5969  1.4985 -2.3971
  102MOL0     H14041   1.671   3.492   7.034 -0.1044  1.4276  0.8716
  102MOL0     H14042   1.597   3.534   7.255 -2.5139  1.8677 -0.6715
  102MOL0     H14043   1.442   3.440   7.234  0.5721 -1.0685 -1.1859
  102MOL0     H14044   1.720   3.322   7.251 -0.4093  0.4205 -1.2075
  102MOL0     H14045   1.576   3.230   7.231  1.4234 -0.8195 -0.1286
  102MOL0     H14046   1.492   3.270   7.449  1.3406 -3.5174 -0.8279
  102MOL0     H14047   1.603   3.425   7.457 -1.4248  1.4181 -0.5905
  102MOL0     H14048   1.778   3.208   7.426 -0.1713 -1.6647 -0.0443
  102MOL0     H14049   1.742   3.313   7.562 -1.6623  2.4589 -0.9030
  102MOL0     H14050   1.588   3.049   7.511 -0.7795  0.6296 -0.9955
  102MOL0     H14051   1.569   3.165   7.647 -3.5804 -0.1411 -2.3626
  102MOL0     H14052   1.791   3.120   7.738  1.6669 -2.4321  1.0024
  102MOL0     H14053   1.856   3.057   7.587  1.1770  3.9228 -0.8484
  102MOL0     H14054   1.807   2.869   7.748 -1.0025 -2.4334  0.1226
  102MOL0     H14055   1.686   2.864   7.623  3.7259 -0.2602 -1.4692
  102MOL0     H14056   1.393   3.264   6.913 -0.2986 -1.4157 -3.0270
  102MOL0     H14057   1.161   3.219   6.847  3.8522  0.0858 -1.6276
  102MOL0     H14058   0.782   3.150   6.940  2.7535  4.2716 -1.2423
  102MOL0     H14059   0.575   3.035   6.872 -0.7495  0.6161  0.4785
  102MOL0     H14060   0.442   1.981   6.239  0.3923 -1.8917  0.6510
  102MOL0     H14061   0.410   1.878   6.021  1.5991  1.2390 -3.0797
  102MOL0     H14062   0.507   2.049   5.498  2.2526  0.5760 -1.0806
  102MOL0     H14063   0.462   1.961   5.287  0.5321  3.0887  0.6926
  102MOL0     H14064   0.601   1.545   5.193 -0.1040 -0.3853  1.0894
  102MOL0     H14065   0.429   1.532   5.230  2.3182 -1.5019 -0.0317
  102MOL0     H14066   0.574   1.636   4.981  1.1503  0.3180  1.0953
  102MOL0     H14067   0.402   1.654   5.014  0.4120  0.1833 -0.0973
  102MOL0     H14068   0.543   1.381   4.993  0.0550  0.6173  0.6755
  102MOL0     H14069   0.361   1.420   4.984 -0.1957  1.8997 -0.7009
  102MOL0     H14070   0.464   1.329   4.779 -0.2928 -0.6238 -1.5531
  102MOL0     H14071   0.582   1.449   4.784  1.2948 -3.9435  2.1624
  102MOL0     H14072   0.224   1.672   4.680  0.9361 -0.0019  0.4014
  102MOL0     H14073   0.621   1.590   5.411 -1.5351 -0.1264  2.2992
  102MOL0     H14074   0.671   1.645   5.765  2.8270 -0.9141 -0.1761
  102MOL0     H14075   0.560   1.545   5.671  0.2693 -1.9429 -0.5430
  102MOL0     H14076   0.734   1.557   5.631  0.0603  1.2603  1.0991
  103MOL0     O14077   3.440   7.045   6.683  0.1618 -0.4631  0.1967
  103MOL0     C14078   3.559   7.081   6.703  0.0855 -0.4142 -0.2143
  103MOL0     O14079   3.597   7.216   6.708  0.5367 -0.6409  0.1746
  103MOL0     C14080   3.514   7.324   6.675 -1.1194 -0.3708  0.4544
  103MOL0     C14081   3.559   7.399   6.560  0.2101  0.4016 -0.7311
  103MOL0     C14082   3.484   7.512   6.528 -0.3635  0.5418  0.7540
  103MOL0     C14083   3.363   7.554   6.599 -0.9400 -0.2042 -0.0732
  103MOL0     O14084   3.298   7.664   6.545 -0.1355 -0.2437  0.4832
  103MOL0     C14085   3.209   7.732   6.625  0.1046  1.0634  0.5789
  103MOL0     C14086   3.155   7.841   6.539  0.4766 -0.0964 -1.2808
  103MOL0     C14087   3.085   7.948   6.625 -0.3748 -0.2531  0.6658
  103MOL0     C14088   3.027   8.046   6.529  0.0276  0.4747  0.6296
  103MOL0     C14089   2.912   8.001   6.435 -1.4991 -0.2840 -0.1207
  103MOL0     C14090   2.777   7.984   6.504  0.1048  0.3461  0.2426
  103MOL0     C14091   2.708   8.122   6.507  0.3829 -0.6093  0.0667
  103MOL0     C14092   2.570   8.124   6.588 -0.4513 -0.0153 -0.8780
  103MOL0     N14093   2.588   8.145   6.734  0.1832 -0.5563  0.2163
  103MOL0     C14094   2.677   8.227   6.796  0.0894 -0.3648  0.4298
  103MOL0     C14095   2.622   8.251   6.912 -0.7024 -0.6502  0.4878
  103MOL0     C14096   2.675   8.347   7.025 -0.9875  0.3073 -0.2465
  103MOL0     C14097   2.690   8.498   6.980  0.2461  0.1571 -1.0636
  103MOL0     C14098   2.552   8.544   6.931 -0.3174  0.7565 -1.2380
  103MOL0     C14099   2.555   8.672   6.864 -0.7270 -0.3745  0.6756
  103MOL0     O14100   2.613   8.673   6.730  0.2670  0.3619 -0.5763
  103MOL0     C14101   2.550   8.601   6.631 -0.9820  0.4602 -0.5162
  103MOL0     C14102   2.612   8.583   6.507 -0.3529  0.6666 -0.1264
  103MOL0     C14103   2.563   8.511   6.397  0.3289 -1.5780  0.2503
  103MOL0     C14104   2.661   8.484   6.288  0.3365  0.7199  0.4083
  103MOL0     C14105   2.434   8.453   6.400  0.1831 -0.3268 -0.9133
  103MOL0     C14106   2.372   8.366   6.299  0.3625  0.2326  0.0889
  103MOL0     O14107   2.306   8.254   6.337  0.7057  0.3469  0.4807
  103MOL0     C14108   2.254   8.156   6.256 -0.5335  0.6241  0.6977
  103MOL0     C14109   2.250   8.153   6.110  0.9494  0.7088  0.3063
  103MOL0     C14110   2.192   8.049   6.039 -0.5883 -0.1007 -0.9514
  103MOL0     C14111   2.132   7.949   6.113 -0.0308  0.1974 -0.5029
  103MOL0     O14112   2.074   7.855   6.034 -0.3161 -0.5361  0.5682
  103MOL0     C14113   2.055   7.721   6.075 -0.0209 -0.0861 -0.7409
  103MOL0     C14114   2.172   7.626   6.075 -0.0290  0.5381  0.1488
  103MOL0     C14115   2.135   7.482   6.121  0.9480  0.4398 -0.5202
  103MOL0     C14116   2.001   7.425   6.070  0.3796 -0.7609  0.1106
  103MOL0     C14117   1.978   7.267   6.094 -0.3727 -0.1751  0.7453
  103MOL0     C14118   1.839   7.225   6.047  0.1657  0.1722  0.3940
  103MOL0     C14119   1.839   7.073   6.041 -0.3629 -0.7629  0.6014
  103MOL0     C14120   1.712   6.998   6.014 -0.2028 -0.4509 -0.2178
  103MOL0    Cl14121   1.652   7.025   5.848  0.0613 -0.3270 -0.2532
  103MOL0     C14122   2.135   7.945   6.247  0.4573  0.8319 -0.5546
  103MOL0     C14123   2.183   8.052   6.321 -0.3693  0.1983 -0.7636
  103MOL0     O14124   2.390   8.405   6.184  0.0061 -0.3261 -0.1215
  103MOL0     C14125   2.367   8.485   6.527  0.0965  0.4786 -0.5084
  103MOL0     C14126   2.427   8.545   6.643  0.5446  0.7470  0.8415
  103MOL0     N14127   2.508   8.176   6.921 -0.8290 -0.7720  0.6014
  103MOL0     N14128   2.489   8.103   6.819 -0.4806  0.1645 -0.1092
  103MOL0     C14129   3.323   7.471   6.703  0.1982 -0.2053 -0.2657
  103MOL0     C14130   3.394   7.357   6.733 -0.2800 -1.6073 -0.6789
  103MOL0     C14131   3.666   6.982   6.742  0.3944 -0.7815  0.2822
  103MOL0     C14132   3.747   7.024   6.846 -0.1310  0.6334  0.2758
  103MOL0     C14133   3.854   6.947   6.898  0.3459  0.6292 -0.3535
  103MOL0     C14134   3.878   6.820   6.830 -0.2794  0.7758  0.2099
  103MOL0     O14135   3.984   6.739   6.864  0.2399  0.4835 -0.4815
  103MOL0     C14136   4.073   6.774   6.974  0.8673 -0.2722  0.0348
  103MOL0     C14137   4.215   6.718   6.954 -0.4616  0.5133  0.5243
  103MOL0     C14138   4.297   6.732   7.087  0.8457  0.4536 -0.4950
  103MOL0     C14139   4.432   6.678   7.061  0.1349  0.2325  0.0756
  103MOL0     C14140   4.520   6.759   6.990 -0.6536 -0.3374  0.2999
  103MOL0     C14141   4.591   6.842   6.928 -0.2662  0.0516 -0.0274
  103MOL0     C14142   3.797   6.777   6.725 -0.5875  0.8482  0.3429
  103MOL0     C14143   3.684   6.854   6.685  0.5265 -1.2642  0.1077
  103MOL0     C14144   3.598   6.806   6.576 -0.5366 -0.4134 -0.1626
  103MOL0     H14145   3.645   7.378   6.497 -0.8014 -0.1094 -1.9856
  103MOL0     H14146   3.502   7.567   6.437 -4.3149 -2.0364 -1.8825
  103MOL0     H14147   3.269   7.774   6.706  0.9966  2.3294 -0.6861
  103MOL0     H14148   3.128   7.663   6.651 -0.6185  1.5248 -0.3915
  103MOL0     H14149   3.222   7.902   6.477 -0.9967  3.5093  0.3515
  103MOL0     H14150   3.083   7.796   6.469 -0.2626 -1.2297  0.1568
  103MOL0     H14151   3.017   7.893   6.692 -0.8066 -1.3117 -0.5952
  103MOL0     H14152   3.163   8.000   6.680 -0.4353  2.2156 -1.4231
  103MOL0     H14153   2.982   8.123   6.592 -1.7644 -1.6097  2.0276
  103MOL0     H14154   3.099   8.088   6.457  1.0791 -1.1293  0.7023
  103MOL0     H14155   2.936   7.903   6.394 -2.6542 -1.1994  1.2724
  103MOL0     H14156   2.909   8.077   6.356  0.7658 -2.6558 -2.6923
  103MOL0     H14157   2.710   7.918   6.448 -0.2753  1.1702 -0.2933
  103MOL0     H14158   2.799   7.928   6.595  2.4528 -1.0597 -1.0738
  103MOL0     H14159   2.694   8.157   6.404 -1.1254 -0.1133  0.4158
  103MOL0     H14160   2.772   8.196   6.556 -2.0575  0.3214  2.0686
  103MOL0     H14161   2.511   8.207   6.548 -0.8676  0.3898  0.5376
  103MOL0     H14162   2.511   8.036   6.562 -1.2386  0.3430 -0.3213
  103MOL0     H14163   2.771   8.268   6.759 -0.1985 -1.4149 -1.6652
  103MOL0     H14164   2.776   8.327   7.063 -1.1247  0.9244  0.4790
  103MOL0     H14165   2.600   8.341   7.104  2.5343 -2.4804  3.3540
  103MOL0     H14166   2.729   8.558   7.063 -0.5265  0.7159 -1.0945
  103MOL0     H14167   2.767   8.506   6.903  0.6578 -0.1944 -0.6959
  103MOL0     H14168   2.518   8.473   6.855 -2.3788 -0.7038  0.8909
  103MOL0     H14169   2.485   8.536   7.017 -0.4518 -1.9626 -1.5328
  103MOL0     H14170   2.449   8.700   6.858 -0.6008  0.1576  0.8153
  103MOL0     H14171   2.609   8.743   6.927  0.3836 -0.0759 -0.5730
  103MOL0     H14172   2.712   8.625   6.501 -0.2242  1.2784  3.7758
  103MOL0     H14173   2.716   8.393   6.315  2.4489  2.0972  0.9768
  103MOL0     H14174   2.738   8.562   6.291  0.2873  0.7517  1.4306
  103MOL0     H14175   2.628   8.480   6.184  1.4260  1.8163 -0.0020
  103MOL0     H14176   2.290   8.231   6.045 -1.7918  1.1748 -0.9507
  103MOL0     H14177   2.172   8.067   5.933 -0.5898  1.8117 -0.6625
  103MOL0     H14178   2.003   7.717   6.172 -0.4165  0.8193 -0.8968
  103MOL0     H14179   1.977   7.680   6.010  0.4446 -0.0647 -1.3206
  103MOL0     H14180   2.217   7.631   5.975 -2.7947 -0.6001 -1.2581
  103MOL0     H14181   2.239   7.675   6.147 -1.2448  1.3022  0.7834
  103MOL0     H14182   2.133   7.480   6.230  2.1895 -0.4149 -0.4943
  103MOL0     H14183   2.205   7.410   6.080  0.5130 -1.4439  1.8422
  103MOL0     H14184   1.987   7.448   5.964 -0.1681 -0.3850  0.2600
  103MOL0     H14185   1.919   7.471   6.126  1.0243  1.2754 -0.5274
  103MOL0     H14186   2.062   7.227   6.037 -0.3971 -1.0742  1.3291
  103MOL0     H14187   1.986   7.232   6.197 -1.7582 -1.1327  0.5549
  103MOL0     H14188   1.818   7.268   5.948  2.5111 -1.9082 -1.1030
  103MOL0     H14189   1.763   7.251   6.121 -0.3945 -1.3451  0.3825
  103MOL0     H14190   1.854   7.042   6.145 -4.2792 -2.8221  0.7021
  103MOL0     H14191   1.923   7.040   5.979  1.3626  4.5216 -0.4050
  103MOL0     H14192   1.636   7.045   6.077  1.7730  3.1133 -0.2022
  103MOL0     H14193   1.737   6.895   6.041 -0.1268 -0.3349  0.1628
  103MOL0     H14194   2.111   7.850   6.295  1.2329  0.6851 -0.4530
  103MOL0     H14195   2.174   8.043   6.429  1.7215 -1.7203 -0.6746
  103MOL0     H14196   2.276   8.429   6.542 -0.8230  1.3953 -2.3026
  103MOL0     H14197   2.367   8.552   6.734 -0.0626  0.0608  0.5098
  103MOL0     H14198   3.236   7.483   6.767 -1.2587 -0.9813 -2.0232
  103MOL0     H14199   3.350   7.290   6.806 -3.3707 -0.2307 -1.1238
  103MOL0     H14200   3.736   7.119   6.899 -0.8175  1.7250 -1.7232
  103MOL0     H14201   3.904   6.992   6.983  1.5931  0.6121 -1.0562
  103MOL0     H14202   4.075   6.883   6.985 -2.6174 -0.0485 -0.4794
  103MOL0     H14203   4.023   6.743   7.066  1.8643 -1.8022  0.0821
  103MOL0     H14204   4.248   6.780   6.871 -0.1667  1.5785  1.4062
  103MOL0     H14205   4.223   6.613   6.923 -0.2661  0.6341  0.1708
  103MOL0     H14206   4.303   6.832   7.132 -0.5111 -0.1726  1.1950
  103MOL0     H14207   4.258   6.660   7.160  0.9332  2.1996  1.3785
  103MOL0     H14208   4.414   6.584   7.008  1.0413  0.5461 -0.8226
  103MOL0     H14209   4.469   6.648   7.160  0.6036 -1.4784 -0.5809
  103MOL0     H14210   4.662   6.891   6.865  2.0070 -0.9977  1.5652
  103MOL0     H14211   3.821   6.682   6.679 -0.2733  0.2907  1.6267
  103MOL0     H14212   3.609   6.873   6.489  0.5798 -0.7311 -0.2879
  103MOL0     H14213   3.623   6.706   6.540  1.1545 -0.5331  1.2316
  103MOL0     H14214   3.492   6.810   6.600  0.1326 -0.1040  3.2760
  104MOL0     O14215   4.711  10.299   6.997  0.6658  0.8912 -0.1025
  104MOL0     C14216   4.733  10.375   7.091  0.1827  0.3927 -0.0258
  104MOL0     O14217   4.644  10.413   7.180 -0.4465  0.0461 -0.5207
  104MOL0     C14218   4.516  10.362   7.161  0.3200 -0.5625  0.5135
  104MOL0     C14219   4.411  10.452   7.121 -0.4491 -0.5182  1.3172
  104MOL0     C14220   4.284  10.421   7.142  1.2254  0.5158  0.2487
  104MOL0     C14221   4.248  10.293   7.192  0.1816  0.3662 -0.0082
  104MOL0     O14222   4.114  10.271   7.214 -0.2015 -0.4708 -0.4117
  104MOL0     C14223   4.052  10.169   7.135 -0.2879  0.2383 -0.5112
  104MOL0     C14224   3.912  10.183   7.074 -0.8739  0.4603 -0.1739
  104MOL0     C14225   3.822  10.238   7.178 -0.0903  0.7255 -0.1575
  104MOL0     C14226   3.676  10.240   7.121  0.4588  0.2653 -0.0805
  104MOL0     C14227   3.574  10.325   7.197  0.9589 -0.5025 -0.3271
  104MOL0     C14228   3.444  10.329   7.118  0.5481  0.9434  0.1189
  104MOL0     C14229   3.331  10.406   7.185  0.6017  0.6010  0.0591
  104MOL0     C14230   3.201  10.399   7.097 -0.2387 -0.8020  0.4760
  104MOL0     N14231   3.120  10.294   7.155 -0.5256 -0.0967 -0.0195
  104MOL0     C14232   3.065  10.297   7.280  0.0320 -0.7841  0.6711
  104MOL0     C14233   2.987  10.184   7.281  0.1897  0.2804 -0.6325
  104MOL0     C14234   2.887  10.135   7.384  0.4087  0.2857  1.0351
  104MOL0     C14235   2.754  10.208   7.364  0.4125 -0.2500 -0.5367
  104MOL0     C14236   2.653  10.157   7.464 -0.3937 -0.1157  1.1932
  104MOL0     C14237   2.530  10.245   7.480 -0.4307  0.1992  0.2560
  104MOL0     O14238   2.462  10.290   7.365 -1.1822 -0.4016 -0.0125
  104MOL0     C14239   2.383  10.399   7.368  0.0844 -0.1518  1.5735
  104MOL0     C14240   2.283  10.394   7.268 -0.2938 -0.4548 -0.4335
  104MOL0     C14241   2.199  10.500   7.250  0.4186  0.2075  1.1156
  104MOL0     C14242   2.108  10.508   7.128  0.2648 -0.3772  0.5634
  104MOL0     C14243   2.201  10.607   7.341 -0.2531 -0.7942  0.0666
  104MOL0     C14244   2.124  10.731   7.334  0.1402  0.0991  1.4541
  104MOL0     O14245   2.169  10.832   7.414  0.7198 -0.6951  0.1675
  104MOL0     C14246   2.112  10.962   7.411 -0.5305  0.8687  0.0693
  104MOL0     C14247   2.190  11.071   7.374 -0.8357 -0.1047  0.8379
  104MOL0     C14248   2.127  11.201   7.392 -0.1165  0.0599 -0.3175
  104MOL0     C14249   2.005  11.221   7.452 -0.0015  0.1732 -0.5128
  104MOL0     O14250   1.956  11.353   7.457 -0.2329 -0.1747  0.0977
  104MOL0     C14251   1.843  11.378   7.544  0.1542  0.2272  0.5333
  104MOL0     C14252   1.839  11.507   7.623 -0.1395  0.5842  0.3709
  104MOL0     C14253   1.928  11.521   7.751 -0.4458  0.0380  0.0786
  104MOL0     C14254   2.069  11.574   7.712  0.2575 -0.5529  0.1706
  104MOL0     C14255   2.152  11.595   7.835  0.3689 -0.0754  0.6528
  104MOL0     C14256   2.262  11.702   7.813 -1.0756 -0.1333 -0.3808
  104MOL0     C14257   2.350  11.700   7.940  0.7519 -1.4082  0.3373
  104MOL0     C14258   2.459  11.595   7.942  0.1974  0.2182  0.4530
  104MOL0    Cl14259   2.529  11.590   8.108 -0.1146 -0.0317 -0.0655
  104MOL0     C14260   1.931  11.103   7.487 -0.7791  0.6997 -0.5994
  104MOL0     C14261   1.985  10.976   7.462 -0.3406 -0.3165 -0.4236
  104MOL0     O14262   2.021  10.731   7.267 -0.0417 -0.1413  0.9248
  104MOL0     C14263   2.291  10.597   7.448  0.2554 -1.4019  0.3767
  104MOL0     C14264   2.378  10.497   7.469 -0.4413 -0.6482  0.5205
  104MOL0     N14265   3.018  10.112   7.166 -0.1890 -0.0056  0.0172
  104MOL0     N14266   3.072  10.190   7.077 -0.0157 -0.0109 -0.6099
  104MOL0     C14267   4.349  10.198   7.221  0.1951 -0.1632  0.4793
  104MOL0     C14268   4.482  10.235   7.209  0.1917  1.0557 -0.0815
  104MOL0     C14269   4.865  10.419   7.111  0.7867 -0.6905 -0.0458
  104MOL0     C14270   4.878  10.540   7.185  0.8351 -0.7172  0.7873
  104MOL0     C14271   5.006  10.586   7.223  0.5049  0.0064  1.0791
  104MOL0     C14272   5.121  10.516   7.173  0.0961 -0.7065 -0.1111
  104MOL0     O14273   5.259  10.551   7.193 -0.2823  0.0091  0.2131
  104MOL0     C14274   5.282  10.679   7.242 -0.7496  0.0717 -0.3092
  104MOL0     C14275   5.293  10.686   7.395 -0.3470 -0.0520  0.4110
  104MOL0     C14276   5.329  10.832   7.443 -1.0097  0.0457 -0.4154
  104MOL0     C14277   5.373  10.819   7.598  0.3287 -0.2012  1.1473
  104MOL0     C14278   5.383  10.959   7.644 -0.2830 -0.8737 -0.1209
  104MOL0     C14279   5.389  11.066   7.706  0.5509  0.2215  0.1031
  104MOL0     C14280   5.105  10.401   7.105  0.1416  0.0606 -0.1708
  104MOL0     C14281   4.980  10.343   7.081 -0.0408  0.0172  1.0581
  104MOL0     C14282   4.984  10.200   7.024  0.0501 -0.1472 -1.5414
  104MOL0     H14283   4.437  10.554   7.093 -3.2547 -0.2199 -0.6354
  104MOL0     H14284   4.198  10.486   7.129  0.1186 -0.9946 -0.2479
  104MOL0     H14285   4.068  10.073   7.186  1.6182 -1.2354 -3.5896
  104MOL0     H14286   4.108  10.165   7.041 -0.3867  1.0671 -0.6179
  104MOL0     H14287   3.915  10.254   6.990 -0.2959  3.0454  1.8774
  104MOL0     H14288   3.897  10.081   7.038 -0.0093  0.4605 -0.5452
  104MOL0     H14289   3.811  10.171   7.265 -0.4609 -1.7160 -1.9789
  104MOL0     H14290   3.861  10.338   7.200  1.8213 -0.6998  4.1619
  104MOL0     H14291   3.674  10.277   7.019 -2.4856  3.1424  0.8572
  104MOL0     H14292   3.646  10.135   7.120  1.9172 -0.2525 -3.6586
  104MOL0     H14293   3.607  10.428   7.213  0.0479 -0.1441 -0.6909
  104MOL0     H14294   3.557  10.274   7.292 -0.4515 -1.4906 -1.0770
  104MOL0     H14295   3.459  10.378   7.021 -0.1975 -1.6846 -1.4223
  104MOL0     H14296   3.414  10.226   7.095  1.6365  1.2596 -3.3204
  104MOL0     H14297   3.356  10.510   7.205  0.1051  0.1187  3.9377
  104MOL0     H14298   3.332  10.362   7.285 -1.9303  0.0740 -0.0741
  104MOL0     H14299   3.147  10.494   7.102  1.2072  0.1370 -0.7839
  104MOL0     H14300   3.214  10.397   6.989  1.1986 -0.4174  0.6275
  104MOL0     H14301   3.075  10.377   7.353 -1.5276 -1.6440  1.8874
  104MOL0     H14302   2.932  10.145   7.483 -0.0893  0.1420  1.2795
  104MOL0     H14303   2.860  10.032   7.362 -1.2055  0.6021  1.3512
  104MOL0     H14304   2.765  10.317   7.359 -1.9960  0.1445  1.0290
  104MOL0     H14305   2.707  10.196   7.266 -0.6715  1.0985 -0.2139
  104MOL0     H14306   2.622  10.059   7.427  1.1944 -0.4154  0.5826
  104MOL0     H14307   2.703  10.138   7.560  0.7248  0.4386  0.7423
  104MOL0     H14308   2.460  10.189   7.542  2.3975 -3.5257  0.4750
  104MOL0     H14309   2.565  10.331   7.538  0.0154 -0.6653  1.2963
  104MOL0     H14310   2.287  10.312   7.197  2.4698 -2.3300  1.6388
  104MOL0     H14311   2.005  10.509   7.162 -0.7310 -3.5706 -1.8074
  104MOL0     H14312   2.126  10.417   7.070  2.5632 -0.6431  1.5605
  104MOL0     H14313   2.119  10.597   7.065 -0.0827  0.6728  1.9582
  104MOL0     H14314   2.294  11.062   7.345 -1.0563  1.0400 -0.4372
  104MOL0     H14315   2.190  11.288   7.377  0.7843 -0.9766 -3.2503
  104MOL0     H14316   1.742  11.375   7.501 -2.7009  1.1093  6.2212
  104MOL0     H14317   1.845  11.303   7.624 -1.5980 -1.0820 -0.5704
  104MOL0     H14318   1.864  11.598   7.567 -0.3551 -0.1590 -0.9505
  104MOL0     H14319   1.735  11.528   7.653 -1.1508 -1.2482 -1.6134
  104MOL0     H14320   1.946  11.423   7.796  1.0957 -0.6676 -1.9169
  104MOL0     H14321   1.873  11.581   7.824 -0.6690 -1.2764  1.0187
  104MOL0     H14322   2.065  11.662   7.647  0.2049 -0.8719 -0.2614
  104MOL0     H14323   2.121  11.508   7.641  0.5065  1.5213 -1.7013
  104MOL0     H14324   2.082  11.611   7.918 -2.1072 -2.5793 -0.7959
  104MOL0     H14325   2.196  11.496   7.850  2.1784  0.5128 -0.3940
  104MOL0     H14326   2.219  11.801   7.797 -0.1480  0.3420 -0.0429
  104MOL0     H14327   2.327  11.690   7.726 -0.7050 -1.1527  0.0086
  104MOL0     H14328   2.281  11.689   8.024 -0.0837  2.3120  0.3112
  104MOL0     H14329   2.402  11.796   7.947  1.8823 -1.6556 -2.7425
  104MOL0     H14330   2.540  11.607   7.869 -0.9966 -1.8696 -1.3374
  104MOL0     H14331   2.413  11.499   7.914 -2.0134  1.3897 -0.1801
  104MOL0     H14332   1.832  11.110   7.531  0.3509  1.9182  1.9547
  104MOL0     H14333   1.932  10.888   7.496  4.8016 -2.1285  4.7102
  104MOL0     H14334   2.304  10.676   7.522  1.2840  0.5866 -1.7712
  104MOL0     H14335   2.448  10.510   7.550 -0.0074 -0.4004  0.1091
  104MOL0     H14336   4.324  10.096   7.246  0.6681 -0.6053 -0.7661
  104MOL0     H14337   4.554  10.166   7.252  0.7433  0.7772 -1.3907
  104MOL0     H14338   4.793  10.606   7.204  0.7806 -0.8995  1.1971
  104MOL0     H14339   5.008  10.685   7.266 -4.3149  2.0106 -2.4343
  104MOL0     H14340   5.375  10.711   7.193 -0.3143  1.5961  1.4090
  104MOL0     H14341   5.207  10.752   7.207  0.2527  0.8228 -0.9432
  104MOL0     H14342   5.372  10.615   7.422  2.6687  2.5347 -1.0100
  104MOL0     H14343   5.192  10.659   7.429 -0.0143 -0.7495  0.8753
  104MOL0     H14344   5.397  10.882   7.374  0.2420  1.3284  1.6490
  104MOL0     H14345   5.228  10.874   7.441 -1.5398 -1.1722 -0.7029
  104MOL0     H14346   5.469  10.767   7.605  0.3193 -0.4830 -0.4075
  104MOL0     H14347   5.297  10.756   7.645  0.4390  0.6280  2.4829
  104MOL0     H14348   5.396  11.150   7.773  2.7249  0.0745  0.1286
  104MOL0     H14349   5.192  10.352   7.061 -1.6943 -2.8021 -0.8796
  104MOL0     H14350   4.928  10.202   6.930  2.6640  1.4496 -3.1626
  104MOL0     H14351   5.083  10.155   7.015  1.5176  1.9319  2.0920
  104MOL0     H14352   4.932  10.132   7.093  0.0602  0.2195 -1.1638
  105MOL0     O14353   5.036   5.997   0.458  0.0305  0.0684 -0.4824
  105MOL0     C14354   4.946   5.915   0.443  0.8360 -0.0953  0.0250
  105MOL0     O14355   4.853   5.916   0.344 -0.0867  0.0683  0.5429
  105MOL0     C14356   4.859   6.030   0.265  1.3078  1.0099  0.0841
  105MOL0     C14357   4.912   6.039   0.145 -0.6363  0.1241  0.3763
  105MOL0     C14358   4.908   6.153   0.069  0.6018 -0.5609 -0.0451
  105MOL0     C14359   4.837   6.264   0.108  0.1335  0.6868 -0.9172
  105MOL0     O14360   4.845   6.376   0.027  0.3524  0.8990  0.0666
  105MOL0     C14361   4.833   6.504   0.099 -0.0189 -0.5145  0.6713
  105MOL0     C14362   4.846   6.619  -0.003  0.1443 -0.1096 -0.6939
  105MOL0     C14363   4.875   6.748   0.078  0.3962 -0.0061 -0.9324
  105MOL0     C14364   4.900   6.868  -0.024 -0.0275  0.4286  0.3328
  105MOL0     C14365   4.961   6.995   0.032  0.1013  0.2419  0.5488
  105MOL0     C14366   5.108   6.969   0.074  0.2537  0.4468  0.4953
  105MOL0     C14367   5.197   6.889  -0.015  0.1605  0.1554 -0.6485
  105MOL0     C14368   5.240   6.961  -0.142  0.4829 -0.1658 -0.2748
  105MOL0     N14369   5.324   7.082  -0.119  0.0704 -0.3837 -0.3964
  105MOL0     C14370   5.453   7.079  -0.074 -0.0077 -0.7653  0.1695
  105MOL0     C14371   5.478   7.205  -0.033 -0.6228  0.3346  0.6099
  105MOL0     C14372   5.610   7.251   0.024 -0.1048  0.8807  1.0920
  105MOL0     C14373   5.711   7.334  -0.059 -0.2121  0.1943  0.4235
  105MOL0     C14374   5.703   7.281  -0.208  0.2805 -0.8261  0.2880
  105MOL0     C14375   5.803   7.364  -0.291  0.5950 -0.3807  0.1765
  105MOL0     O14376   5.941   7.321  -0.271  0.7759 -0.1486  0.5265
  105MOL0     C14377   6.039   7.420  -0.263 -0.8047 -0.3891 -0.5926
  105MOL0     C14378   6.038   7.556  -0.304  0.2064  0.0861  0.0698
  105MOL0     C14379   6.140   7.641  -0.259 -0.4335  0.5600 -0.2044
  105MOL0     C14380   6.119   7.784  -0.298 -0.1929 -0.6396 -0.1563
  105MOL0     C14381   6.256   7.585  -0.195  0.1017  0.2294  0.3615
  105MOL0     C14382   6.361   7.665  -0.143 -0.9777  0.4059  0.1165
  105MOL0     O14383   6.450   7.604  -0.061  0.0631  0.8291 -0.2017
  105MOL0     C14384   6.503   7.677   0.040  0.1524  0.5504  1.1383
  105MOL0     C14385   6.623   7.629   0.088 -0.1355 -0.6529  1.2125
  105MOL0     C14386   6.673   7.680   0.212 -0.0252 -0.5666 -0.1400
  105MOL0     C14387   6.609   7.780   0.275 -0.4371  1.0950  0.0855
  105MOL0     O14388   6.656   7.818   0.402 -0.1190  0.3962  0.4267
  105MOL0     C14389   6.787   7.879   0.410 -0.6903 -0.2424 -0.0316
  105MOL0     C14390   6.781   8.029   0.361  0.9206 -0.8724  0.4500
  105MOL0     C14391   6.707   8.122   0.444 -0.2816 -1.0564  0.0911
  105MOL0     C14392   6.624   8.227   0.360  0.6131 -0.3093  0.8367
  105MOL0     C14393   6.719   8.315   0.265 -0.1790 -0.6003 -0.4220
  105MOL0     C14394   6.832   8.378   0.344 -0.2919  0.9716 -0.5162
  105MOL0     C14395   6.886   8.507   0.274  0.0694 -0.3627  0.8216
  105MOL0     C14396   6.941   8.482   0.135  0.7305 -1.5440  0.4520
  105MOL0    Cl14397   7.086   8.367   0.145 -0.2510  0.1427 -0.2609
  105MOL0     C14398   6.492   7.824   0.228  0.2998  0.0999  0.2616
  105MOL0     C14399   6.442   7.788   0.104  0.2888  0.3741  0.6986
  105MOL0     O14400   6.365   7.787  -0.165  0.8684 -0.3480  0.3728
  105MOL0     C14401   6.267   7.448  -0.183  0.5043 -0.1794  0.2513
  105MOL0     C14402   6.153   7.369  -0.205 -0.5484 -0.8012 -0.1234
  105MOL0     N14403   5.371   7.285  -0.056  0.2922 -0.3905 -0.5428
  105MOL0     N14404   5.279   7.207  -0.110 -0.1048 -0.0193  0.7988
  105MOL0     C14405   4.758   6.252   0.228  0.0700  1.3734 -0.5296
  105MOL0     C14406   4.773   6.135   0.305 -0.2146 -0.3580 -0.3613
  105MOL0     C14407   4.938   5.800   0.538 -0.3467  0.4782  0.4189
  105MOL0     C14408   4.832   5.711   0.518  0.1489 -0.0418 -0.2749
  105MOL0     C14409   4.831   5.591   0.595  0.1548  0.9112  0.2210
  105MOL0     C14410   4.913   5.582   0.709  0.0294 -0.1070 -0.3497
  105MOL0     O14411   4.926   5.457   0.768  0.8423  0.2540 -0.0825
  105MOL0     C14412   4.920   5.462   0.909  0.4890  0.3257  0.5125
  105MOL0     C14413   5.030   5.379   0.974  0.1042 -0.7162 -0.2505
  105MOL0     C14414   5.162   5.380   0.897 -0.0476  0.0845  0.0736
  105MOL0     C14415   5.280   5.301   0.967 -0.4595 -0.7432  0.2410
  105MOL0     C14416   5.321   5.379   1.086 -0.1991  0.6292 -0.4856
  105MOL0     C14417   5.381   5.442   1.175 -0.1625  0.6933 -0.4786
  105MOL0     C14418   5.001   5.681   0.746  1.3255 -0.0924  0.1108
  105MOL0     C14419   5.015   5.788   0.665 -0.1270 -0.2127  0.2282
  105MOL0     C14420   5.125   5.889   0.710 -1.0422 -0.1957 -0.2264
  105MOL0     H14421   4.976   5.956   0.115 -0.8488 -0.2582  0.9604
  105MOL0     H14422   4.959   6.162  -0.026  0.3342  1.8358 -0.0210
  105MOL0     H14423   4.919   6.512   0.166 -0.2030  0.9091  0.7657
  105MOL0     H14424   4.739   6.521   0.151 -1.4522  0.7361 -2.0796
  105MOL0     H14425   4.932   6.598  -0.069  0.3907  1.6232 -0.9692
  105MOL0     H14426   4.751   6.629  -0.056 -1.2909 -0.2573  1.7300
  105MOL0     H14427   4.794   6.776   0.147  1.1200  2.3451 -0.9655
  105MOL0     H14428   4.964   6.741   0.141  0.4702  3.2205 -0.4983
  105MOL0     H14429   4.956   6.843  -0.114  0.0500  1.2842  0.1324
  105MOL0     H14430   4.802   6.892  -0.065 -0.5587 -0.4429  1.0645
  105MOL0     H14431   4.895   7.023   0.114 -0.3790 -1.9976  0.9970
  105MOL0     H14432   4.951   7.080  -0.037 -0.3878 -0.6465 -0.5089
  105MOL0     H14433   5.143   7.073   0.076  0.3539  0.4343 -0.4346
  105MOL0     H14434   5.116   6.924   0.173 -0.1840 -0.6235  0.0582
  105MOL0     H14435   5.144   6.798  -0.041 -1.3027  1.1374 -1.2137
  105MOL0     H14436   5.287   6.860   0.041 -0.4973 -0.7550 -0.0380
  105MOL0     H14437   5.296   6.879  -0.187  1.2911 -0.7175  1.6174
  105MOL0     H14438   5.153   6.985  -0.205 -1.6293 -0.5608  2.2946
  105MOL0     H14439   5.513   6.989  -0.076  2.6846  0.8658 -2.4140
  105MOL0     H14440   5.673   7.174   0.069 -0.5999  1.7070  3.3410
  105MOL0     H14441   5.586   7.312   0.112 -0.4008 -0.9645  2.3510
  105MOL0     H14442   5.683   7.440  -0.057 -0.8452  0.0463 -0.1095
  105MOL0     H14443   5.808   7.331  -0.010 -0.6906  0.3495  1.4066
  105MOL0     H14444   5.742   7.179  -0.208 -1.2609 -1.4392  0.8100
  105MOL0     H14445   5.605   7.299  -0.253 -0.3261 -0.6046  1.6501
  105MOL0     H14446   5.784   7.356  -0.399  1.3127 -0.0029  0.0103
  105MOL0     H14447   5.789   7.471  -0.269  0.0781 -0.8287  2.2268
  105MOL0     H14448   5.956   7.600  -0.359  0.9075  1.7794  0.3168
  105MOL0     H14449   6.138   7.849  -0.212 -3.7521 -0.8193  0.9528
  105MOL0     H14450   6.019   7.805  -0.338  0.8718 -0.6919 -3.0244
  105MOL0     H14451   6.199   7.804  -0.369  2.3912 -1.7547  2.2461
  105MOL0     H14452   6.681   7.547   0.045  0.1942  0.5358 -0.7654
  105MOL0     H14453   6.766   7.639   0.250  1.7535  1.3736 -2.1136
  105MOL0     H14454   6.827   7.891   0.511 -0.8694  1.9605 -0.1646
  105MOL0     H14455   6.863   7.824   0.354  1.0902  1.1285  0.9372
  105MOL0     H14456   6.878   8.079   0.351  1.0545 -0.2807  3.6312
  105MOL0     H14457   6.734   8.017   0.264  2.8927 -2.8166 -0.3640
  105MOL0     H14458   6.784   8.164   0.508  1.1081 -2.9712 -0.2180
  105MOL0     H14459   6.637   8.069   0.509 -0.6726 -1.3533 -0.5589
  105MOL0     H14460   6.588   8.293   0.439  5.1154  2.1901  1.1332
  105MOL0     H14461   6.539   8.183   0.307 -0.2757  0.3945  1.6383
  105MOL0     H14462   6.741   8.250   0.179  3.1422 -1.0674  0.6317
  105MOL0     H14463   6.661   8.401   0.232  1.8014  1.9283  2.2189
  105MOL0     H14464   6.911   8.305   0.362 -0.0529 -0.2079 -5.1487
  105MOL0     H14465   6.792   8.399   0.444  1.5875  0.7942  0.3281
  105MOL0     H14466   6.966   8.555   0.331 -0.5534  1.6122  0.0880
  105MOL0     H14467   6.812   8.586   0.263 -0.4635 -0.9970 -0.3615
  105MOL0     H14468   6.977   8.581   0.105 -1.9736 -0.5623  0.1993
  105MOL0     H14469   6.860   8.456   0.067  0.6469  1.3783 -0.7168
  105MOL0     H14470   6.447   7.903   0.287  0.5380 -0.2833  0.9579
  105MOL0     H14471   6.349   7.828   0.065 -0.3735 -1.0464  0.7511
  105MOL0     H14472   6.348   7.403  -0.127 -0.3852 -0.9867  0.9247
  105MOL0     H14473   6.154   7.261  -0.188  0.6853 -1.1737 -2.2583
  105MOL0     H14474   4.689   6.326   0.266  0.4128  0.1652  2.7418
  105MOL0     H14475   4.714   6.125   0.395 -0.5768  0.6041 -0.4772
  105MOL0     H14476   4.757   5.707   0.440  0.3776 -0.1292 -0.4929
  105MOL0     H14477   4.765   5.509   0.570  1.4405 -0.0809 -0.0429
  105MOL0     H14478   4.921   5.564   0.949 -0.3585 -0.1111  1.7196
  105MOL0     H14479   4.827   5.417   0.946 -0.2790  3.4833  2.8521
  105MOL0     H14480   4.992   5.276   0.979  1.4817 -1.1889  1.3830
  105MOL0     H14481   5.062   5.406   1.075  4.3378 -1.0239 -1.3274
  105MOL0     H14482   5.154   5.335   0.797  2.6881  2.2812 -1.2666
  105MOL0     H14483   5.184   5.486   0.883 -2.2621  1.1520  3.4522
  105MOL0     H14484   5.365   5.287   0.899 -0.5992 -0.8403  0.0840
  105MOL0     H14485   5.257   5.201   1.007  1.8111 -1.2334  0.4410
  105MOL0     H14486   5.427   5.502   1.250  0.6171  0.2575 -0.6073
  105MOL0     H14487   5.060   5.670   0.837  2.4845  1.0824 -0.4660
  105MOL0     H14488   5.102   5.996   0.711  0.6991  0.2361 -1.6451
  105MOL0     H14489   5.152   5.873   0.815 -0.3273  2.6761  0.1157
  105MOL0     H14490   5.214   5.871   0.649  0.7446 -0.9913  2.4276
  106MOL0     O14491   3.305  11.227   1.784 -0.0760 -0.9669 -0.3640
  106MOL0     C14492   3.248  11.165   1.875  0.5568  1.3812  0.5342
  106MOL0     O14493   3.295  11.078   1.959  0.2270 -0.0293  0.4041
  106MOL0     C14494   3.420  11.030   1.936 -0.5586 -0.4349  0.9425
  106MOL0     C14495   3.446  10.973   1.809 -0.1340 -0.0311  0.0225
  106MOL0     C14496   3.579  10.916   1.788  0.7350  0.3632 -0.7857
  106MOL0     C14497   3.672  10.917   1.888 -0.3048  1.1806 -0.3349
  106MOL0     O14498   3.778  10.843   1.864  0.4928 -0.7720 -0.1306
  106MOL0     C14499   3.912  10.874   1.918 -0.3548  0.3446  0.8120
  106MOL0     C14500   3.953  11.018   1.896 -0.8576  0.8002 -0.0095
  106MOL0     C14501   4.094  11.028   1.856  0.0568 -0.6258 -0.2364
  106MOL0     C14502   4.135  11.174   1.809 -0.7138 -0.4105  0.9425
  106MOL0     C14503   4.116  11.276   1.912  0.6946  0.0425 -0.1418
  106MOL0     C14504   4.164  11.409   1.870 -0.5294  0.4782  0.4969
  106MOL0     C14505   4.164  11.515   1.983  0.7122  0.5775  0.6812
  106MOL0     C14506   4.120  11.646   1.904 -0.0266 -0.0057 -0.4340
  106MOL0     N14507   4.150  11.756   1.994 -0.6386  0.7042 -0.2135
  106MOL0     C14508   4.056  11.824   2.075 -0.4315  0.0456 -0.7558
  106MOL0     C14509   4.138  11.899   2.149 -0.4024 -0.3995 -1.1544
  106MOL0     C14510   4.090  11.980   2.265 -0.5358  0.1206  0.4496
  106MOL0     C14511   4.061  11.902   2.393 -1.2037 -0.1980 -0.7173
  106MOL0     C14512   4.177  11.796   2.422  0.6535  0.0359 -0.3873
  106MOL0     C14513   4.139  11.716   2.548 -0.3487 -0.2102 -0.0454
  106MOL0     O14514   4.158  11.802   2.660 -0.2655 -0.5912  0.3392
  106MOL0     C14515   4.157  11.744   2.782  0.4706  0.0662 -0.1613
  106MOL0     C14516   4.134  11.833   2.895  0.9100  0.8215 -0.0026
  106MOL0     C14517   4.115  11.784   3.021 -0.7377  0.2312  0.2891
  106MOL0     C14518   4.101  11.880   3.134  0.3094  0.2824  0.3087
  106MOL0     C14519   4.119  11.648   3.032  0.7415  0.5209 -0.4072
  106MOL0     C14520   4.088  11.588   3.149 -0.2885 -0.4899  0.0495
  106MOL0     O14521   4.191  11.552   3.227 -0.6314  1.2699 -0.0730
  106MOL0     C14522   4.170  11.504   3.356  0.5257  0.2180 -0.0934
  106MOL0     C14523   4.109  11.383   3.377  0.1238 -0.2426  0.8599
  106MOL0     C14524   4.093  11.340   3.516  0.0803  0.2558 -0.1126
  106MOL0     C14525   4.133  11.410   3.629 -0.2475 -0.4400 -0.1312
  106MOL0     O14526   4.115  11.369   3.759 -0.2195 -0.8674 -0.0897
  106MOL0     C14527   4.076  11.234   3.792 -1.3385 -0.9251  0.9580
  106MOL0     C14528   3.987  11.229   3.914 -0.3917 -0.6929 -0.6975
  106MOL0     C14529   3.936  11.084   3.953  0.5028 -0.5385 -0.5948
  106MOL0     C14530   3.828  11.080   4.060 -0.2148 -0.5194  0.4839
  106MOL0     C14531   3.877  11.142   4.194 -0.0726 -0.1248 -0.4691
  106MOL0     C14532   3.766  11.151   4.301  0.5143 -0.9080 -0.4175
  106MOL0     C14533   3.813  11.220   4.432 -0.3542 -0.3328  0.2081
  106MOL0     C14534   3.741  11.185   4.547 -0.4464 -0.2257 -0.5559
  106MOL0    Cl14535   3.804  11.263   4.690  0.1783 -0.7337 -0.4592
  106MOL0     C14536   4.190  11.535   3.604 -0.3257 -0.1014 -0.4899
  106MOL0     C14537   4.204  11.582   3.469  0.4110 -0.3243 -0.7065
  106MOL0     O14538   3.971  11.583   3.179  0.0528 -1.1896  0.4011
  106MOL0     C14539   4.145  11.561   2.935 -0.0865  0.3292 -0.1617
  106MOL0     C14540   4.165  11.611   2.803  0.9803  0.9097 -0.2757
  106MOL0     N14541   4.268  11.888   2.115  0.1835  0.3635  1.0020
  106MOL0     N14542   4.275  11.801   2.026 -0.0650  0.4481  0.5959
  106MOL0     C14543   3.650  10.994   2.008 -0.2688 -0.7720  0.3785
  106MOL0     C14544   3.522  11.049   2.031 -0.4948  0.4781  0.2942
  106MOL0     C14545   3.112  11.192   1.894  0.5652 -1.2039 -1.1640
  106MOL0     C14546   3.022  11.082   1.899  0.4610 -0.0229 -0.4189
  106MOL0     C14547   2.887  11.102   1.944 -0.0672 -0.7152  0.0718
  106MOL0     C14548   2.846  11.229   1.985 -0.1833 -0.1066 -0.3139
  106MOL0     O14549   2.710  11.233   2.023 -0.6319  0.4258  0.1689
  106MOL0     C14550   2.641  11.357   2.047 -0.1570 -0.0057 -0.2735
  106MOL0     C14551   2.596  11.421   1.920 -0.6313  0.5483 -0.7344
  106MOL0     C14552   2.519  11.549   1.950  0.1294  0.4152 -0.1148
  106MOL0     C14553   2.402  11.576   1.856 -0.4261 -0.6514  0.0367
  106MOL0     C14554   2.450  11.603   1.721  0.3053  0.5846  0.0929
  106MOL0     C14555   2.496  11.620   1.608  0.2088  0.7826  0.6717
  106MOL0     C14556   2.930  11.340   1.964  0.3242 -1.2682 -0.8910
  106MOL0     C14557   3.063  11.323   1.935 -0.2208  0.1697 -0.8187
  106MOL0     C14558   3.142  11.458   1.939  0.5040  1.1845 -1.0451
  106MOL0     H14559   3.371  10.969   1.731  2.7506 -1.1976 -2.9401
  106MOL0     H14560   3.600  10.858   1.698 -1.4462 -0.6447 -0.7257
  106MOL0     H14561   3.996  10.818   1.876  2.0995  5.3187 -1.8535
  106MOL0     H14562   3.911  10.869   2.027 -0.5055  0.6636  0.8262
  106MOL0     H14563   3.883  11.064   1.826 -1.0496  0.0429 -0.3309
  106MOL0     H14564   3.930  11.065   1.992 -1.0078 -2.0627  1.4598
  106MOL0     H14565   4.168  11.008   1.934 -0.2957 -0.3345  0.1740
  106MOL0     H14566   4.124  10.972   1.767  2.2684  0.8185 -0.4992
  106MOL0     H14567   4.241  11.156   1.787 -1.3445 -2.2382 -0.9242
  106MOL0     H14568   4.088  11.200   1.714  0.1033 -1.8882  0.0954
  106MOL0     H14569   4.170  11.258   2.005 -1.6296 -0.8480  1.1246
  106MOL0     H14570   4.009  11.275   1.933  0.9252  2.0975  1.5695
  106MOL0     H14571   4.267  11.410   1.831 -0.8878 -2.4100 -0.7401
  106MOL0     H14572   4.102  11.450   1.790  3.4047  1.8626 -2.1976
  106MOL0     H14573   4.257  11.509   2.040  1.2856 -1.9180 -0.3875
  106MOL0     H14574   4.083  11.481   2.049  0.4403 -0.2441 -0.0451
  106MOL0     H14575   4.180  11.645   1.812 -0.8390 -3.1550 -1.0572
  106MOL0     H14576   4.016  11.652   1.872  0.3068  2.8883 -1.2026
  106MOL0     H14577   3.949  11.828   2.061 -0.5507  0.0956  0.1112
  106MOL0     H14578   4.003  12.037   2.229 -1.1663  2.0284  4.4036
  106MOL0     H14579   4.168  12.054   2.285 -4.8781  5.3092  0.6819
  106MOL0     H14580   4.057  11.975   2.474 -2.1564 -0.4841 -0.5008
  106MOL0     H14581   3.966  11.850   2.377 -1.0758 -0.2780 -1.2248
  106MOL0     H14582   4.205  11.726   2.344  1.3351 -1.6165  1.2765
  106MOL0     H14583   4.267  11.853   2.448 -0.2836  1.6842 -0.5605
  106MOL0     H14584   4.033  11.688   2.542 -0.6634  1.1896 -2.8563
  106MOL0     H14585   4.199  11.624   2.550 -1.7552 -1.1400  0.8025
  106MOL0     H14586   4.117  11.939   2.878 -1.8520  0.5031  0.3483
  106MOL0     H14587   4.062  11.832   3.224  0.1169  0.6953  0.4516
  106MOL0     H14588   4.047  11.973   3.113 -0.9437 -0.7853 -1.4108
  106MOL0     H14589   4.205  11.909   3.153  0.2966  1.4182 -1.1847
  106MOL0     H14590   4.064  11.316   3.305  0.1803 -0.6221  1.1726
  106MOL0     H14591   4.038  11.249   3.539 -0.5939  1.3316  2.9855
  106MOL0     H14592   4.028  11.181   3.708 -0.4335  0.1804 -0.2933
  106MOL0     H14593   4.165  11.176   3.819  0.4354  0.8032 -0.8539
  106MOL0     H14594   4.040  11.280   3.995 -1.2820  2.8202 -2.1219
  106MOL0     H14595   3.899  11.290   3.889  0.1629 -0.2757 -1.6740
  106MOL0     H14596   4.019  11.018   3.980  0.9723 -0.3764 -1.6171
  106MOL0     H14597   3.897  11.029   3.867 -0.7399 -1.7893  0.7123
  106MOL0     H14598   3.806  10.976   4.086  1.7631 -0.7209  1.5723
  106MOL0     H14599   3.740  11.120   4.009  1.2105 -0.9399 -2.5005
  106MOL0     H14600   3.953  11.076   4.238 -1.9830 -1.1205  1.5220
  106MOL0     H14601   3.914  11.243   4.176  3.2993 -0.8453  1.5430
  106MOL0     H14602   3.709  11.060   4.322 -1.3111  0.7563  2.6152
  106MOL0     H14603   3.689  11.215   4.257  1.2536  0.0955 -0.2636
  106MOL0     H14604   3.827  11.328   4.417 -1.6652 -0.2551 -0.5940
  106MOL0     H14605   3.915  11.185   4.446  0.2060  1.1492  0.0880
  106MOL0     H14606   3.740  11.077   4.567  0.5980 -0.0768  0.3939
  106MOL0     H14607   3.641  11.228   4.536  0.2845  2.0742  1.0475
  106MOL0     H14608   4.226  11.605   3.679 -1.6857 -0.3323  0.4084
  106MOL0     H14609   4.251  11.678   3.453 -0.1024  0.6436  2.8021
  106MOL0     H14610   4.135  11.453   2.945  2.7254  0.1379  1.6877
  106MOL0     H14611   4.187  11.535   2.729  1.5836  0.5404  0.2693
  106MOL0     H14612   3.733  11.016   2.075  1.1047 -2.3964 -0.7210
  106MOL0     H14613   3.495  11.098   2.124 -1.6340 -2.3614  1.5926
  106MOL0     H14614   3.048  10.977   1.889  0.6212 -0.2882  2.1221
  106MOL0     H14615   2.818  11.019   1.953 -0.4002 -0.3688  0.7942
  106MOL0     H14616   2.547  11.350   2.101 -0.3188  1.1163 -0.3965
  106MOL0     H14617   2.694  11.423   2.116 -0.6113 -1.5316  1.6281
  106MOL0     H14618   2.539  11.347   1.863 -1.6776  0.6757  0.1096
  106MOL0     H14619   2.680  11.459   1.861  0.0909  2.7343  1.5559
  106MOL0     H14620   2.467  11.535   2.045 -2.6866 -0.2669 -1.6434
  106MOL0     H14621   2.593  11.629   1.957 -0.0892  0.6973 -0.9484
  106MOL0     H14622   2.353  11.667   1.893  1.5460  1.5338 -2.3454
  106MOL0     H14623   2.328  11.495   1.848 -0.4197 -0.4697 -4.2340
  106MOL0     H14624   2.544  11.625   1.512 -1.4621  1.7223 -0.1682
  106MOL0     H14625   2.893  11.438   1.994  0.6720 -0.9229 -1.5627
  106MOL0     H14626   3.113  11.522   1.854  0.6112 -0.9893 -2.8212
  106MOL0     H14627   3.120  11.511   2.032  0.0966 -0.2552 -0.2929
  106MOL0     H14628   3.247  11.437   1.917 -0.3131 -0.9205 -3.4413
  107MOL0     O14629   3.430   2.920   3.942 -0.4402  0.2797 -0.4335
  107MOL0     C14630   3.367   2.927   4.046 -0.1035 -0.0841 -0.1738
  107MOL0     O14631   3.349   3.042   4.117  0.4206 -0.1910 -0.1530
  107MOL0     C14632   3.379   3.167   4.077  0.0224  0.5054  0.0924
  107MOL0     C14633   3.365   3.203   3.941  0.3480 -0.7780 -0.4419
  107MOL0     C14634   3.390   3.333   3.897  0.0737  0.7855 -0.3163
  107MOL0     C14635   3.419   3.431   3.993  0.6496 -0.2556 -0.0381
  107MOL0     O14636   3.444   3.559   3.946 -0.1185  0.1639 -0.4475
  107MOL0     C14637   3.548   3.636   4.016  0.9783  0.3489 -0.0413
  107MOL0     C14638   3.490   3.756   4.098 -0.7507 -0.2885 -0.2063
  107MOL0     C14639   3.368   3.818   4.043  0.1728  0.7264  1.0496
  107MOL0     C14640   3.246   3.750   4.114  0.5875  0.8851  0.7246
  107MOL0     C14641   3.128   3.836   4.120 -0.0174  0.5085  0.0767
  107MOL0     C14642   3.089   3.900   3.984  0.3791 -0.9168  0.6558
  107MOL0     C14643   2.956   3.990   3.994 -0.8983  0.4721  0.7277
  107MOL0     C14644   2.885   4.008   3.858  1.0371 -0.5204  0.1396
  107MOL0     N14645   2.862   3.880   3.783  0.9108 -0.0700 -0.1376
  107MOL0     C14646   2.811   3.762   3.837 -0.2891  0.7315  0.8305
  107MOL0     C14647   2.843   3.665   3.746 -0.3325  0.1953  0.0177
  107MOL0     C14648   2.837   3.515   3.742 -0.1479  0.1058 -0.4214
  107MOL0     C14649   2.945   3.462   3.839  0.6783 -0.4337  0.4209
  107MOL0     C14650   2.923   3.489   3.987  0.6852  0.1350 -0.2150
  107MOL0     C14651   3.001   3.409   4.090 -0.3482  0.1877 -0.2405
  107MOL0     O14652   2.957   3.438   4.220 -0.1633 -0.1435  0.6469
  107MOL0     C14653   2.988   3.349   4.317  1.1114 -0.0998  1.1329
  107MOL0     C14654   2.935   3.379   4.440 -0.1635  0.5951 -0.2239
  107MOL0     C14655   2.961   3.298   4.552 -1.6744 -0.1998 -0.2812
  107MOL0     C14656   2.893   3.332   4.687  0.3696  0.3043  0.0199
  107MOL0     C14657   3.055   3.193   4.532  0.4356 -0.1892 -1.1673
  107MOL0     C14658   3.113   3.118   4.644  0.5408  0.2373  0.7742
  107MOL0     O14659   3.174   2.993   4.602 -0.5565  0.1506 -0.1625
  107MOL0     C14660   3.188   2.895   4.693 -0.8233 -0.7577  0.2791
  107MOL0     C14661   3.281   2.911   4.795  0.3312  0.5155  0.4637
  107MOL0     C14662   3.307   2.807   4.883  0.3394 -0.5875 -1.2047
  107MOL0     C14663   3.251   2.679   4.871 -0.1519  0.4030 -0.8826
  107MOL0     O14664   3.288   2.583   4.961 -0.7410  0.2832 -0.3614
  107MOL0     C14665   3.264   2.447   4.931  0.4954  0.2618  0.2197
  107MOL0     C14666   3.348   2.366   5.027  0.1241  0.1068 -0.4245
  107MOL0     C14667   3.428   2.252   4.965 -0.2394 -0.4987 -0.5743
  107MOL0     C14668   3.512   2.177   5.070  0.4532  0.1946  1.6597
  107MOL0     C14669   3.601   2.078   5.006  0.7555 -0.8388  0.2325
  107MOL0     C14670   3.532   1.951   4.959  0.6752  0.4068  0.1738
  107MOL0     C14671   3.639   1.848   4.904  0.2584  0.3762 -0.4416
  107MOL0     C14672   3.602   1.795   4.771  0.0102  0.0597 -0.0101
  107MOL0    Cl14673   3.603   1.935   4.658 -0.1818  0.0059  0.2232
  107MOL0     C14674   3.165   2.665   4.762  0.5666  0.0821 -0.6296
  107MOL0     C14675   3.134   2.768   4.673 -0.0263 -1.0016 -0.2279
  107MOL0     O14676   3.132   3.168   4.750  0.4877 -0.4667 -0.4070
  107MOL0     C14677   3.101   3.151   4.402 -0.7643 -1.5591 -0.1538
  107MOL0     C14678   3.055   3.225   4.294  0.3563  0.9851 -0.8098
  107MOL0     N14679   2.906   3.728   3.637  0.3504 -0.9774 -0.3645
  107MOL0     N14680   2.912   3.858   3.657 -0.2222 -0.1639 -0.1211
  107MOL0     C14681   3.408   3.397   4.129  0.3181  0.6564 -1.0016
  107MOL0     C14682   3.397   3.262   4.176  0.1339 -1.4072  0.4860
  107MOL0     C14683   3.297   2.799   4.090  0.1610 -0.8425 -0.0372
  107MOL0     C14684   3.224   2.734   3.990  0.0817  0.7832  0.0368
  107MOL0     C14685   3.164   2.612   4.021 -0.5318 -0.4194  0.7304
  107MOL0     C14686   3.179   2.557   4.144 -1.5614 -0.5686  0.3299
  107MOL0     O14687   3.141   2.430   4.177  0.3619  0.2086 -0.1277
  107MOL0     C14688   3.036   2.364   4.100  0.5561  1.0477  0.4854
  107MOL0     C14689   3.100   2.291   3.981  0.2355 -1.0075 -0.5035
  107MOL0     C14690   3.008   2.231   3.877 -1.1019 -0.0921  0.0004
  107MOL0     C14691   2.927   2.333   3.798 -0.4945  1.0379  0.7829
  107MOL0     C14692   3.009   2.433   3.741  1.1954 -0.6508 -0.1636
  107MOL0     C14693   3.073   2.520   3.682  1.2313 -0.4017 -0.4898
  107MOL0     C14694   3.266   2.614   4.238  1.5965  0.7187 -0.0077
  107MOL0     C14695   3.315   2.740   4.219 -0.3566 -0.0529  0.1140
  107MOL0     C14696   3.402   2.798   4.322 -0.3672  0.1794 -0.6345
  107MOL0     H14697   3.345   3.127   3.866  2.7133 -0.2406 -1.7025
  107MOL0     H14698   3.385   3.352   3.790  1.8207 -0.0689 -0.5817
  107MOL0     H14699   3.615   3.674   3.938  4.4610 -0.7637  2.1800
  107MOL0     H14700   3.613   3.580   4.085  2.0239 -1.8549 -2.6177
  107MOL0     H14701   3.469   3.717   4.197 -2.8138  1.1198 -0.0348
  107MOL0     H14702   3.569   3.831   4.106 -1.5531  0.4802  0.7532
  107MOL0     H14703   3.357   3.926   4.058  1.3692  0.5380  4.0179
  107MOL0     H14704   3.368   3.793   3.937  0.6939  1.4793  0.8611
  107MOL0     H14705   3.219   3.657   4.063 -0.4574  2.0766 -1.0503
  107MOL0     H14706   3.265   3.722   4.217 -2.2482  0.0164  1.1072
  107MOL0     H14707   3.145   3.917   4.193  3.6924 -1.0787  1.2219
  107MOL0     H14708   3.049   3.770   4.157 -3.5579  1.9876 -4.0628
  107MOL0     H14709   3.175   3.954   3.944 -1.3950 -0.6859 -3.4173
  107MOL0     H14710   3.071   3.816   3.915 -2.7215 -1.5044  2.0061
  107MOL0     H14711   2.990   4.086   4.036  1.9158 -0.3672  0.5812
  107MOL0     H14712   2.890   3.944   4.068  2.3791 -1.5030  2.6639
  107MOL0     H14713   2.790   4.061   3.873  3.0060  2.9587  1.7203
  107MOL0     H14714   2.945   4.081   3.802  3.8351 -0.4498  2.9265
  107MOL0     H14715   2.760   3.749   3.932 -3.6039  2.8428 -0.4747
  107MOL0     H14716   2.856   3.474   3.642  0.1456 -2.8544  0.7468
  107MOL0     H14717   2.740   3.482   3.780  1.0168 -2.9162  0.2049
  107MOL0     H14718   2.967   3.356   3.823  0.8404 -0.2345 -0.8512
  107MOL0     H14719   3.035   3.515   3.805  0.7690 -0.4683  0.6053
  107MOL0     H14720   2.960   3.592   4.000  0.8811  0.3282 -2.0885
  107MOL0     H14721   2.815   3.486   4.004  0.3638 -0.8781 -2.1732
  107MOL0     H14722   3.002   3.304   4.057  0.0006 -0.3577  1.4214
  107MOL0     H14723   3.106   3.442   4.083  1.0460 -3.7322 -0.3065
  107MOL0     H14724   2.876   3.468   4.459  0.5367  0.8681  0.7204
  107MOL0     H14725   2.965   3.350   4.767 -2.0085  1.4540  2.0310
  107MOL0     H14726   2.824   3.254   4.719  2.0766 -1.3037 -0.0297
  107MOL0     H14727   2.838   3.427   4.688  1.1386  0.7590  0.0874
  107MOL0     H14728   3.346   2.998   4.802  0.0201  0.6815  1.3707
  107MOL0     H14729   3.397   2.825   4.942  0.9467 -0.3781 -2.1691
  107MOL0     H14730   3.160   2.419   4.946  0.2326  0.9941 -0.2060
  107MOL0     H14731   3.288   2.423   4.827 -1.6388 -1.3771  0.0357
  107MOL0     H14732   3.418   2.433   5.077 -2.8468  1.0716  2.7622
  107MOL0     H14733   3.282   2.335   5.108 -2.7157  1.7330 -1.9497
  107MOL0     H14734   3.493   2.288   4.885  0.0037  1.9322  0.6229
  107MOL0     H14735   3.363   2.192   4.901  0.5773  0.7279 -2.6707
  107MOL0     H14736   3.441   2.130   5.138 -3.7366  0.2481 -2.2048
  107MOL0     H14737   3.576   2.249   5.123  1.0946  2.0426 -1.3561
  107MOL0     H14738   3.646   2.125   4.918 -1.2189  0.3064 -0.2389
  107MOL0     H14739   3.678   2.063   5.082 -1.1526  0.1918  2.5018
  107MOL0     H14740   3.458   1.970   4.880 -0.2419  0.0967  0.9362
  107MOL0     H14741   3.473   1.893   5.031 -0.3608 -2.0588 -2.4388
  107MOL0     H14742   3.645   1.760   4.969 -1.3263  0.0995 -0.6142
  107MOL0     H14743   3.737   1.897   4.904  0.1147  0.9984  3.8092
  107MOL0     H14744   3.499   1.757   4.771  0.1844 -0.7095 -3.3575
  107MOL0     H14745   3.669   1.714   4.742 -0.0015 -0.2513  0.7952
  107MOL0     H14746   3.113   2.569   4.759  1.4683 -0.4451  0.2102
  107MOL0     H14747   3.073   2.757   4.584  1.9280  1.3659 -1.9885
  107MOL0     H14748   3.181   3.080   4.391 -0.8615 -1.6980  0.0185
  107MOL0     H14749   3.072   3.183   4.195 -0.9314  1.0170 -1.0646
  107MOL0     H14750   3.419   3.467   4.211  2.1796  1.4084 -1.8273
  107MOL0     H14751   3.381   3.241   4.281 -1.0957 -0.3524  0.5468
  107MOL0     H14752   3.220   2.767   3.886 -2.2446  2.2834  0.5287
  107MOL0     H14753   3.123   2.562   3.933 -0.6634 -0.1888  0.6593
  107MOL0     H14754   2.976   2.293   4.157 -3.1765  3.0707 -0.6382
  107MOL0     H14755   2.970   2.443   4.063 -1.0800  0.0162  1.1142
  107MOL0     H14756   3.173   2.215   4.010  2.1385  1.2878  1.0962
  107MOL0     H14757   3.160   2.362   3.923 -2.1818  0.5158 -1.3238
  107MOL0     H14758   3.074   2.186   3.801  0.0093  3.3674 -1.2591
  107MOL0     H14759   2.934   2.165   3.922 -1.0003 -1.0440 -1.1527
  107MOL0     H14760   2.850   2.374   3.864 -2.0669 -0.3617 -0.1192
  107MOL0     H14761   2.884   2.271   3.720 -0.3321  2.9394 -0.9111
  107MOL0     H14762   3.132   2.595   3.634 -0.5229  1.2424 -0.2249
  107MOL0     H14763   3.287   2.567   4.334  0.5163  0.1890 -0.0106
  107MOL0     H14764   3.375   2.898   4.357  0.9710  0.3042  0.1461
  107MOL0     H14765   3.395   2.748   4.420  1.8064  0.1013 -0.4662
  107MOL0     H14766   3.509   2.792   4.298 -0.1396 -2.1513  0.6845
  108MOL0     O14767   7.669  10.101   5.557  0.9541 -0.1353 -0.2088
  108MOL0     C14768   7.785  10.128   5.558 -0.0159 -0.0244 -0.3157
  108MOL0     O14769   7.886  10.029   5.534  0.7266  0.3343 -0.5490
  108MOL0     C14770   7.851   9.897   5.509 -1.0792  0.3953  0.5110
  108MOL0     C14771   7.800   9.824   5.614  0.1623  0.1656 -0.2083
  108MOL0     C14772   7.770   9.686   5.589 -0.6309 -0.0498  0.1467
  108MOL0     C14773   7.794   9.629   5.463 -0.6951  0.3901  0.0781
  108MOL0     O14774   7.773   9.493   5.456  0.3648 -0.0763  0.4340
  108MOL0     C14775   7.816   9.408   5.352 -0.0643  0.0597 -0.2822
  108MOL0     C14776   7.962   9.369   5.378  0.2095 -0.8619  0.2379
  108MOL0     C14777   7.972   9.269   5.498  0.7856 -0.0211  0.0996
  108MOL0     C14778   8.118   9.248   5.529  0.5491  0.3898 -1.0097
  108MOL0     C14779   8.137   9.105   5.585 -0.2605  0.5109  0.0005
  108MOL0     C14780   8.273   9.089   5.664  0.3814  0.7549 -0.7294
  108MOL0     C14781   8.399   9.082   5.578 -0.3076 -0.5794  0.0011
  108MOL0     C14782   8.517   9.020   5.659  0.6320  0.6058 -0.0202
  108MOL0     N14783   8.527   9.082   5.791 -0.6988  0.1925 -0.0276
  108MOL0     C14784   8.527   9.008   5.902 -0.1285  0.4134  0.3003
  108MOL0     C14785   8.613   9.064   5.989 -0.5281  0.6023  1.1003
  108MOL0     C14786   8.645   9.022   6.131 -1.5412  0.1434  0.3562
  108MOL0     C14787   8.564   9.108   6.218  0.1717 -0.1342  0.4967
  108MOL0     C14788   8.421   9.066   6.251 -0.4690  0.4422  0.3472
  108MOL0     C14789   8.395   8.916   6.276 -0.1005 -0.7104 -0.2372
  108MOL0     O14790   8.372   8.842   6.155 -0.3234  0.1914  0.0460
  108MOL0     C14791   8.252   8.850   6.092  0.6866 -0.3714 -0.0708
  108MOL0     C14792   8.254   8.795   5.957  0.1968  1.3050  0.2652
  108MOL0     C14793   8.142   8.782   5.869  1.0097 -0.3881  0.0961
  108MOL0     C14794   8.149   8.703   5.744  0.1600 -0.8398  0.7408
  108MOL0     C14795   8.022   8.833   5.922 -0.3901  0.9669  0.3918
  108MOL0     C14796   7.887   8.838   5.857  0.5744  0.4266 -0.1663
  108MOL0     O14797   7.787   8.908   5.929 -0.6949 -0.2611  0.2244
  108MOL0     C14798   7.700   8.993   5.859  0.2671  0.2719 -0.1363
  108MOL0     C14799   7.560   8.967   5.840 -0.1610 -0.0892  0.0682
  108MOL0     C14800   7.484   9.065   5.782 -0.1747  0.0088 -0.5916
  108MOL0     C14801   7.532   9.191   5.732  0.6676 -0.0153 -0.2704
  108MOL0     O14802   7.440   9.272   5.664  0.1919 -0.8676 -0.1753
  108MOL0     C14803   7.460   9.416   5.675 -0.7460  0.0163 -1.4580
  108MOL0     C14804   7.327   9.489   5.665  0.2488  0.0244  0.5550
  108MOL0     C14805   7.340   9.641   5.636 -0.0213  0.1618  0.3484
  108MOL0     C14806   7.405   9.709   5.759  0.3037  1.2194  0.1874
  108MOL0     C14807   7.418   9.861   5.737  0.1522  0.4805 -1.2128
  108MOL0     C14808   7.302   9.917   5.812 -0.1741  0.0131 -0.3505
  108MOL0     C14809   7.286  10.065   5.772  0.9898 -0.1869 -0.1966
  108MOL0     C14810   7.212  10.144   5.875  0.0450 -0.1705  0.6308
  108MOL0    Cl14811   7.183  10.311   5.813 -0.1240 -0.3731 -0.0801
  108MOL0     C14812   7.673   9.204   5.744  0.1710 -0.5703 -0.3353
  108MOL0     C14813   7.754   9.114   5.808  0.3811  0.0044  0.7819
  108MOL0     O14814   7.874   8.805   5.740 -1.0511  0.1182  0.0470
  108MOL0     C14815   8.017   8.886   6.053  1.1764 -0.5608  0.5776
  108MOL0     C14816   8.131   8.901   6.135 -0.3864  0.9033 -0.2339
  108MOL0     N14817   8.667   9.169   5.927 -0.6196 -0.1852 -0.3891
  108MOL0     N14818   8.617   9.183   5.806  0.6408 -0.1168 -0.3056
  108MOL0     C14819   7.841   9.706   5.356  0.1399  0.9709  0.7602
  108MOL0     C14820   7.868   9.845   5.378  0.1223 -0.3667 -0.1125
  108MOL0     C14821   7.832  10.263   5.594 -0.6508 -0.1911  0.0488
  108MOL0     C14822   7.963  10.301   5.553 -0.1724  0.2037  0.2533
  108MOL0     C14823   8.009  10.435   5.574 -0.4080 -1.1478 -0.5156
  108MOL0     C14824   7.925  10.536   5.624 -0.3309 -0.5387  1.4265
  108MOL0     O14825   7.956  10.674   5.630 -0.7476 -0.5823 -0.3864
  108MOL0     C14826   7.869  10.758   5.704 -0.1733 -0.2275 -0.1268
  108MOL0     C14827   7.910  10.903   5.674  0.3962  0.7772 -0.1881
  108MOL0     C14828   8.051  10.932   5.721 -0.2120 -0.4024 -0.0175
  108MOL0     C14829   8.055  10.954   5.879 -0.6292 -0.0167 -0.0320
  108MOL0     C14830   8.194  10.975   5.919  0.2431 -0.5940 -0.8214
  108MOL0     C14831   8.311  10.978   5.940  0.6320 -0.7763  0.7832
  108MOL0     C14832   7.804  10.485   5.683 -0.5614 -0.7247 -0.2704
  108MOL0     C14833   7.752  10.354   5.666 -1.2501 -0.3605  0.5114
  108MOL0     C14834   7.621  10.326   5.732 -0.3030  0.2746  0.5900
  108MOL0     H14835   7.790   9.852   5.719  1.8808 -1.0306  0.3106
  108MOL0     H14836   7.727   9.623   5.666  0.7009 -0.9562  0.1713
  108MOL0     H14837   7.797   9.453   5.254 -2.4257  0.4749  0.2912
  108MOL0     H14838   7.752   9.319   5.354  3.1194 -2.4433  2.9594
  108MOL0     H14839   7.996   9.317   5.288 -0.3157 -0.5722 -0.1330
  108MOL0     H14840   8.022   9.460   5.384 -1.3139  0.3241 -1.2988
  108MOL0     H14841   7.933   9.323   5.584 -0.5778 -1.2797  0.3159
  108MOL0     H14842   7.912   9.179   5.479  0.6855 -1.2385  4.9211
  108MOL0     H14843   8.173   9.263   5.436  0.2395  1.4543 -1.0267
  108MOL0     H14844   8.155   9.323   5.598 -1.3508  2.3737 -2.0385
  108MOL0     H14845   8.127   9.026   5.510 -0.5059 -1.2497  1.8028
  108MOL0     H14846   8.053   9.076   5.649 -0.4436 -0.6508 -0.7240
  108MOL0     H14847   8.283   9.175   5.730 -1.5564  1.3848 -1.1906
  108MOL0     H14848   8.258   8.998   5.723  0.3111  1.3889  0.2467
  108MOL0     H14849   8.406   9.183   5.537 -2.9339 -0.5211 -0.4884
  108MOL0     H14850   8.382   9.010   5.498  2.4658 -2.2202  0.7479
  108MOL0     H14851   8.513   8.911   5.662  0.6031  0.6290  1.8146
  108MOL0     H14852   8.614   9.038   5.612  0.1450 -1.5950 -2.0589
  108MOL0     H14853   8.484   8.908   5.912  0.1490  0.5356  3.8837
  108MOL0     H14854   8.751   9.037   6.151 -1.6406  1.0558  0.2395
  108MOL0     H14855   8.638   8.913   6.143  0.1863 -0.0746 -0.3920
  108MOL0     H14856   8.619   9.106   6.312 -1.1608 -0.2767  1.3029
  108MOL0     H14857   8.567   9.212   6.185 -0.0651  0.2896  1.7735
  108MOL0     H14858   8.381   9.125   6.334 -0.1091  2.7996 -1.0611
  108MOL0     H14859   8.376   9.102   6.158  1.5709  0.9225 -0.4994
  108MOL0     H14860   8.479   8.873   6.332  1.2231  1.9840  0.0364
  108MOL0     H14861   8.306   8.907   6.338  0.2271 -1.4326  0.1352
  108MOL0     H14862   8.346   8.746   5.927  0.0690  2.4625 -2.3321
  108MOL0     H14863   8.059   8.696   5.682  0.5979  0.7239 -0.1187
  108MOL0     H14864   8.186   8.601   5.760 -1.6003 -1.7019 -0.3307
  108MOL0     H14865   8.217   8.751   5.674 -1.0294 -0.6704 -0.3333
  108MOL0     H14866   7.510   8.887   5.892 -2.0764  0.5179 -0.7665
  108MOL0     H14867   7.378   9.040   5.777  0.0104 -0.7777 -0.8289
  108MOL0     H14868   7.502   9.439   5.773  1.2953  1.1990 -2.5445
  108MOL0     H14869   7.527   9.440   5.592  0.5907 -0.2981 -0.4925
  108MOL0     H14870   7.265   9.444   5.587  1.5725  1.2726 -1.3137
  108MOL0     H14871   7.275   9.483   5.760 -4.4992 -2.3773 -1.8507
  108MOL0     H14872   7.239   9.683   5.630  1.0388  2.6651 -1.1373
  108MOL0     H14873   7.383   9.671   5.540  1.1948  1.7024  1.3204
  108MOL0     H14874   7.504   9.668   5.780 -0.5226 -0.6080  0.7256
  108MOL0     H14875   7.358   9.683   5.854 -2.4401  1.4073 -1.0174
  108MOL0     H14876   7.506   9.906   5.783 -0.0272  0.5874 -0.9705
  108MOL0     H14877   7.419   9.874   5.628  0.5819 -0.9358 -1.3944
  108MOL0     H14878   7.331   9.919   5.918  4.0150 -2.9126 -1.1709
  108MOL0     H14879   7.209   9.862   5.795  0.1888 -0.6036 -0.4026
  108MOL0     H14880   7.225  10.053   5.682 -1.6198 -2.0270  1.6368
  108MOL0     H14881   7.386  10.101   5.750  1.1562  0.0955  0.9512
  108MOL0     H14882   7.278  10.157   5.962  0.2946 -0.1727  0.4408
  108MOL0     H14883   7.116  10.098   5.901 -0.7021  1.8319  1.6438
  108MOL0     H14884   7.714   9.295   5.703 -1.4639  0.9132  1.1177
  108MOL0     H14885   7.862   9.126   5.818  0.0233  2.9493  2.1263
  108MOL0     H14886   7.926   8.911   6.106  0.4127 -1.3176 -0.3476
  108MOL0     H14887   8.123   8.934   6.238 -0.6484 -3.0446  1.2025
  108MOL0     H14888   7.859   9.665   5.258  0.4771 -0.7060  1.4967
  108MOL0     H14889   7.907   9.903   5.294 -0.6145 -1.0862 -0.9792
  108MOL0     H14890   8.034  10.229   5.512  1.2097  0.4833  2.0308
  108MOL0     H14891   8.109  10.472   5.554  0.1564 -1.0790  2.0412
  108MOL0     H14892   7.766  10.740   5.674 -0.3633  0.1826  0.2744
  108MOL0     H14893   7.861  10.731   5.810  1.1932 -1.1945 -0.2405
  108MOL0     H14894   7.838  10.969   5.725 -1.4211 -0.6307 -0.8333
  108MOL0     H14895   7.894  10.932   5.570  0.3112 -1.1913 -0.7470
  108MOL0     H14896   8.120  10.851   5.699 -0.3950 -0.3142 -0.9605
  108MOL0     H14897   8.080  11.024   5.668  1.1149  0.2821  1.8123
  108MOL0     H14898   8.010  10.863   5.920 -0.5407 -0.0868 -0.0906
  108MOL0     H14899   8.002  11.046   5.907 -2.4537 -0.7467 -0.9100
  108MOL0     H14900   8.412  11.005   5.959 -0.0416 -0.0630  3.8097
  108MOL0     H14901   7.740  10.551   5.740 -0.1013  0.1780 -0.7752
  108MOL0     H14902   7.557  10.253   5.681 -2.2462 -0.3444  3.6428
  108MOL0     H14903   7.649  10.286   5.830 -0.2387 -3.0773 -0.6420
  108MOL0     H14904   7.559  10.415   5.740 -3.2068 -1.4511 -0.8715
  109MOL0     O14905   7.662  11.094   6.797  0.4378 -0.0285  0.4237
  109MOL0     C14906   7.698  10.997   6.858  1.1007  0.9475 -0.5375
  109MOL0     O14907   7.824  10.931   6.847  0.0876  0.3482  0.6878
  109MOL0     C14908   7.937  10.987   6.777  0.9385  0.7157 -0.6392
  109MOL0     C14909   7.940  11.019   6.644  1.1868 -0.4627 -0.3129
  109MOL0     C14910   8.044  11.087   6.584  0.5333 -0.2885 -0.8949
  109MOL0     C14911   8.148  11.121   6.672 -0.7597  0.4900  0.6169
  109MOL0     O14912   8.262  11.193   6.629 -0.0974  0.4742 -0.5167
  109MOL0     C14913   8.336  11.281   6.714 -0.1986 -0.0948 -0.9008
  109MOL0     C14914   8.387  11.386   6.621  0.5328  0.1198 -0.3861
  109MOL0     C14915   8.457  11.498   6.693 -0.1380  0.0922 -0.6997
  109MOL0     C14916   8.528  11.590   6.599 -0.9231 -0.1692 -0.0533
  109MOL0     C14917   8.617  11.704   6.655 -0.1044 -0.2621  0.1452
  109MOL0     C14918   8.730  11.645   6.745 -0.0753  0.2049  0.3528
  109MOL0     C14919   8.808  11.763   6.811 -0.6019  0.4498  0.0349
  109MOL0     C14920   8.852  11.718   6.951 -0.6160 -1.0275  0.3086
  109MOL0     N14921   8.945  11.819   7.005 -0.8894  0.4156 -0.7388
  109MOL0     C14922   8.916  11.950   7.043 -0.4572 -0.3023 -0.5778
  109MOL0     C14923   9.039  12.000   7.081 -0.1359  0.4674 -0.1251
  109MOL0     C14924   9.064  12.142   7.135 -0.1256 -0.3235  0.4733
  109MOL0     C14925   9.046  12.259   7.040  0.4643  0.2902  0.9471
  109MOL0     C14926   8.906  12.259   6.977 -0.4623  0.4995 -0.5189
  109MOL0     C14927   8.856  12.398   6.932  0.4088  0.2319 -0.1697
  109MOL0     O14928   8.720  12.380   6.889  0.0297 -0.2177 -0.5681
  109MOL0     C14929   8.687  12.295   6.788  0.3738 -0.1033  0.0503
  109MOL0     C14930   8.774  12.262   6.681  0.7722  0.2560 -0.0396
  109MOL0     C14931   8.728  12.188   6.570  0.4082 -0.1100 -0.6626
  109MOL0     C14932   8.836  12.168   6.466  0.7513  0.1702  0.2685
  109MOL0     C14933   8.588  12.150   6.560  0.5439 -0.4441 -0.4674
  109MOL0     C14934   8.528  12.098   6.440  0.0868  0.9876  1.5094
  109MOL0     O14935   8.409  12.027   6.452  0.4483  0.1739  0.6244
  109MOL0     C14936   8.336  11.987   6.334 -0.0134  0.5432  0.0416
  109MOL0     C14937   8.253  11.875   6.340 -0.0856  0.2659 -0.6162
  109MOL0     C14938   8.173  11.837   6.240  1.2096 -0.0181  0.3520
  109MOL0     C14939   8.160  11.924   6.126  0.6895  0.9552  0.4574
  109MOL0     O14940   8.061  11.891   6.042 -0.3569  0.4414 -0.2318
  109MOL0     C14941   8.100  11.818   5.926 -0.5426 -0.4359 -0.1386
  109MOL0     C14942   7.975  11.770   5.850  0.2898  0.3083  0.4699
  109MOL0     C14943   7.874  11.884   5.808  0.6473  0.1132  0.4906
  109MOL0     C14944   7.747  11.843   5.742 -0.8680 -0.1946 -0.2932
  109MOL0     C14945   7.637  11.771   5.824 -0.0001 -0.8422 -0.8670
  109MOL0     C14946   7.553  11.678   5.743  0.0267  0.1004  1.3461
  109MOL0     C14947   7.477  11.736   5.624 -0.3553 -0.0297 -0.3999
  109MOL0     C14948   7.396  11.636   5.535  0.6907 -0.4528 -0.7609
  109MOL0    Cl14949   7.252  11.580   5.625 -0.2540  0.5254 -0.0909
  109MOL0     C14950   8.239  12.032   6.110 -1.0210  0.6523 -1.0339
  109MOL0     C14951   8.330  12.068   6.210 -0.3413 -0.1207  0.1533
  109MOL0     O14952   8.589  12.110   6.331  0.1323  0.0904  0.1761
  109MOL0     C14953   8.508  12.167   6.682 -0.1639 -0.3245 -0.6822
  109MOL0     C14954   8.558  12.235   6.790 -0.0883 -0.3599  1.3022
  109MOL0     N14955   9.144  11.897   7.069 -0.0162 -0.4385 -0.9296
  109MOL0     N14956   9.085  11.793   7.025  0.3800  0.0965 -0.8844
  109MOL0     C14957   8.141  11.089   6.805 -0.4056 -0.4208 -0.1294
  109MOL0     C14958   8.038  11.017   6.867 -0.0613  0.2062  0.0100
  109MOL0     C14959   7.602  10.944   6.965 -0.1096  0.7187  0.4055
  109MOL0     C14960   7.658  10.864   7.069  0.6675  0.2510  0.2113
  109MOL0     C14961   7.583  10.788   7.159 -0.5460 -0.2492  0.6116
  109MOL0     C14962   7.444  10.819   7.166 -0.3354  0.1410 -0.1639
  109MOL0     O14963   7.369  10.762   7.262 -0.1363 -0.4801 -0.8049
  109MOL0     C14964   7.418  10.688   7.380 -0.0749 -0.4684 -0.2412
  109MOL0     C14965   7.404  10.536   7.348  0.3563 -0.1035  0.1271
  109MOL0     C14966   7.258  10.498   7.326 -1.0346  0.2475  0.5676
  109MOL0     C14967   7.245  10.346   7.321 -0.1399  0.1958 -0.3560
  109MOL0     C14968   7.272  10.308   7.177 -0.3432 -0.1529  1.2340
  109MOL0     C14969   7.289  10.252   7.070 -0.3605 -0.3828  0.7939
  109MOL0     C14970   7.388  10.910   7.077 -0.4546 -0.5704 -0.0231
  109MOL0     C14971   7.465  10.971   6.980 -0.7071 -0.0172 -0.2568
  109MOL0     C14972   7.375  11.048   6.878 -0.1124  0.1834 -0.4463
  109MOL0     H14973   7.848  11.010   6.587  1.9294  0.4175 -1.7003
  109MOL0     H14974   8.051  11.114   6.479 -1.9473 -0.3178 -1.1408
  109MOL0     H14975   8.415  11.229   6.769 -0.5006  1.9509  1.6523
  109MOL0     H14976   8.274  11.334   6.787 -1.5710 -1.4773 -1.0049
  109MOL0     H14977   8.454  11.342   6.546 -2.5302 -1.2881 -2.4607
  109MOL0     H14978   8.298  11.416   6.565  1.9586  0.2002 -2.7868
  109MOL0     H14979   8.393  11.557   6.759  1.4097  0.1537  0.8468
  109MOL0     H14980   8.526  11.450   6.764  0.2344  2.4085  0.6136
  109MOL0     H14981   8.593  11.534   6.531 -0.5833 -1.0479  0.9557
  109MOL0     H14982   8.448  11.629   6.536 -0.7989 -0.1792 -0.2167
  109MOL0     H14983   8.552  11.767   6.717  1.0693 -0.0398  1.2166
  109MOL0     H14984   8.658  11.768   6.576  1.0157  3.1262  3.1274
  109MOL0     H14985   8.695  11.582   6.828  0.9432  0.9568  1.3996
  109MOL0     H14986   8.803  11.586   6.688  1.9978  0.1251  2.8991
  109MOL0     H14987   8.745  11.852   6.798 -1.1541 -0.1998 -2.2900
  109MOL0     H14988   8.904  11.790   6.767  0.3183  1.7169  2.6426
  109MOL0     H14989   8.771  11.707   7.024 -0.2136 -1.9739  0.6279
  109MOL0     H14990   8.907  11.625   6.934 -0.3329 -0.1374 -5.6066
  109MOL0     H14991   8.824  12.008   7.039  0.2516  1.1223  1.8022
  109MOL0     H14992   9.167  12.147   7.171 -0.0511 -1.2163  0.4033
  109MOL0     H14993   9.001  12.165   7.222 -1.6758  0.3386 -0.7741
  109MOL0     H14994   9.065  12.338   7.114 -1.2765 -1.9614  3.9946
  109MOL0     H14995   9.123  12.256   6.962  1.7962 -3.3102  2.1969
  109MOL0     H14996   8.916  12.192   6.891  0.4072  1.1113 -0.9144
  109MOL0     H14997   8.830  12.234   7.052 -0.5361  0.3884 -0.6302
  109MOL0     H14998   8.867  12.467   7.017  0.1785  0.0567  0.0050
  109MOL0     H14999   8.922  12.441   6.856  0.1634 -2.1052 -1.8153
  109MOL0     H15000   8.875  12.302   6.685  1.0085 -0.0270 -2.3404
  109MOL0     H15001   8.842  12.237   6.382 -2.7459  0.0712 -0.2015
  109MOL0     H15002   8.826  12.065   6.431 -0.8595  1.4668 -3.4990
  109MOL0     H15003   8.932  12.168   6.519  0.6582 -0.5942  0.4478
  109MOL0     H15004   8.267  11.819   6.432 -0.4004  1.5530  0.2417
  109MOL0     H15005   8.100  11.757   6.244 -1.3095  2.0700 -0.9654
  109MOL0     H15006   8.164  11.878   5.860  0.8399 -0.9198  0.7224
  109MOL0     H15007   8.162  11.734   5.959  0.2540  1.0022  2.3437
  109MOL0     H15008   7.993  11.719   5.755 -2.1042  2.2775 -1.1892
  109MOL0     H15009   7.927  11.701   5.919 -0.6000 -0.4988 -0.9128
  109MOL0     H15010   7.922  11.958   5.743  0.3703  1.4859  1.7990
  109MOL0     H15011   7.849  11.927   5.905  0.7149 -1.8691  1.4356
  109MOL0     H15012   7.784  11.775   5.665 -0.9759 -1.0953  0.4384
  109MOL0     H15013   7.702  11.927   5.687 -3.0719 -0.9117  0.3130
  109MOL0     H15014   7.674  11.717   5.912  0.5175 -2.1169 -1.8341
  109MOL0     H15015   7.571  11.853   5.854 -1.1293 -2.0554  0.0439
  109MOL0     H15016   7.486  11.620   5.807  1.2489 -4.0638 -0.8341
  109MOL0     H15017   7.617  11.596   5.710  0.4810  0.6605  0.7964
  109MOL0     H15018   7.557  11.779   5.562  2.1006 -2.0574  1.1722
  109MOL0     H15019   7.405  11.810   5.660  1.0997  2.4421 -2.2453
  109MOL0     H15020   7.452  11.548   5.504  1.5408 -1.2245  2.5961
  109MOL0     H15021   7.358  11.687   5.446 -2.6259  4.0304  2.7181
  109MOL0     H15022   8.234  12.095   6.022  1.2339 -0.5595 -2.1219
  109MOL0     H15023   8.380  12.163   6.192 -0.9104  0.3893  1.2314
  109MOL0     H15024   8.406  12.133   6.697  0.1234 -1.6043 -1.4911
  109MOL0     H15025   8.497  12.273   6.871  2.3636 -1.2096  3.7059
  109MOL0     H15026   8.228  11.113   6.864  1.2083 -2.6260 -1.4910
  109MOL0     H15027   8.032  10.987   6.971 -0.8127 -0.3520 -0.1913
  109MOL0     H15028   7.765  10.848   7.073  0.6853  0.1385 -0.5935
  109MOL0     H15029   7.639  10.722   7.225 -0.2889  2.7607  3.6619
  109MOL0     H15030   7.520  10.716   7.409 -1.5163  1.4304  3.8401
  109MOL0     H15031   7.357  10.702   7.470 -2.4400 -0.8371 -1.6979
  109MOL0     H15032   7.450  10.478   7.428  0.8960 -0.1783 -0.2342
  109MOL0     H15033   7.463  10.511   7.260  0.1128 -0.0272 -0.0584
  109MOL0     H15034   7.194  10.531   7.408 -1.1201 -0.9381  1.0006
  109MOL0     H15035   7.202  10.545   7.244  0.0642 -0.8519 -0.8664
  109MOL0     H15036   7.145  10.316   7.352  0.0761 -0.5116 -0.3221
  109MOL0     H15037   7.307  10.294   7.394 -0.2965  1.7045  0.8863
  109MOL0     H15038   7.319  10.203   6.979  1.0300 -1.0304  1.5594
  109MOL0     H15039   7.282  10.929   7.068 -0.5341 -1.2073 -0.4648
  109MOL0     H15040   7.331  11.136   6.926 -0.9237 -0.8072  0.7028
  109MOL0     H15041   7.432  11.062   6.786  0.5666 -2.5051 -0.5154
  109MOL0     H15042   7.294  10.981   6.847  1.3831 -2.4318  0.9491
  110MOL0     O15043   3.218   7.221   3.740 -0.1024  0.5569 -1.1562
  110MOL0     C15044   3.222   7.249   3.622 -0.0876 -0.1790 -1.4222
  110MOL0     O15045   3.338   7.263   3.548 -0.2073 -0.2827 -0.0715
  110MOL0     C15046   3.464   7.268   3.612  0.5977  0.6718  0.0309
  110MOL0     C15047   3.520   7.139   3.643 -1.2849 -0.2831 -0.8575
  110MOL0     C15048   3.633   7.132   3.719 -1.4650 -0.7957  1.0296
  110MOL0     C15049   3.700   7.249   3.760  0.1905  0.4871  0.1716
  110MOL0     O15050   3.819   7.245   3.827  0.2525 -0.6716 -0.1615
  110MOL0     C15051   3.935   7.196   3.754 -0.3213  0.2374  0.1556
  110MOL0     C15052   4.063   7.196   3.838  0.1100 -0.5730  0.4329
  110MOL0     C15053   4.089   7.062   3.910  0.6664  1.0620  0.4742
  110MOL0     C15054   4.214   7.079   3.983  0.6256 -0.0858  0.1486
  110MOL0     C15055   4.258   6.944   4.039 -0.6048 -0.1903  1.0351
  110MOL0     C15056   4.390   6.945   4.122 -0.3509 -0.1966 -0.3194
  110MOL0     C15057   4.447   6.802   4.149 -1.3348 -0.1971 -0.5076
  110MOL0     C15058   4.599   6.799   4.188 -0.2719  0.6510  0.3811
  110MOL0     N15059   4.697   6.884   4.115  0.0195 -0.3323 -0.3725
  110MOL0     C15060   4.721   6.899   3.981  0.6550  0.4071  0.3859
  110MOL0     C15061   4.810   7.003   3.973 -0.3100  0.7248 -0.3480
  110MOL0     C15062   4.866   7.081   3.858 -0.3231  0.0912 -0.3561
  110MOL0     C15063   4.764   7.147   3.775 -0.0904 -0.3325  0.5145
  110MOL0     C15064   4.743   7.292   3.820  0.7242  0.5362  0.4913
  110MOL0     C15065   4.687   7.364   3.696 -0.0368 -0.1327 -0.5127
  110MOL0     O15066   4.665   7.506   3.719 -0.0855  0.6937  0.7553
  110MOL0     C15067   4.547   7.550   3.773  0.4177 -0.3396  0.2231
  110MOL0     C15068   4.454   7.471   3.846 -0.5201  0.3902 -0.0854
  110MOL0     C15069   4.356   7.533   3.918 -0.4073  0.3667 -0.1169
  110MOL0     C15070   4.272   7.448   4.009  0.1074 -0.4592 -0.6163
  110MOL0     C15071   4.336   7.681   3.909 -0.1267  1.1496  0.3289
  110MOL0     C15072   4.236   7.756   3.982  0.0377 -0.1329  0.5838
  110MOL0     O15073   4.262   7.890   4.001  0.0820  0.9372 -0.9482
  110MOL0     C15074   4.202   7.973   4.095 -0.8894 -0.5613  0.1270
  110MOL0     C15075   4.108   7.939   4.183  1.3371 -0.2083 -0.8408
  110MOL0     C15076   4.059   8.024   4.287  0.2764  0.1653 -0.6078
  110MOL0     C15077   4.098   8.155   4.290 -0.4566 -0.6078  0.3127
  110MOL0     O15078   4.065   8.252   4.380  0.5575 -0.5586  0.0805
  110MOL0     C15079   3.935   8.223   4.434  0.3934 -0.3640 -0.1218
  110MOL0     C15080   3.873   8.355   4.477  0.0352  0.1694  0.1606
  110MOL0     C15081   3.838   8.438   4.351 -0.0607  0.0908  0.4083
  110MOL0     C15082   3.775   8.580   4.386 -1.0219 -0.6052 -0.0716
  110MOL0     C15083   3.731   8.652   4.263 -0.0189  0.8347  0.8230
  110MOL0     C15084   3.653   8.766   4.313  0.4432 -1.4076 -0.0406
  110MOL0     C15085   3.658   8.872   4.204  0.3665 -0.0547  1.0569
  110MOL0     C15086   3.565   8.990   4.236  0.9113  0.4953  0.2928
  110MOL0    Cl15087   3.517   9.013   4.406  0.2414 -0.0683 -0.0477
  110MOL0     C15088   4.166   8.203   4.173 -0.5863 -0.0454  0.9286
  110MOL0     C15089   4.231   8.106   4.087  0.0437  0.0385 -0.3547
  110MOL0     O15090   4.140   7.697   4.022 -0.5681 -0.0065  0.5956
  110MOL0     C15091   4.426   7.753   3.827  0.1247 -0.2317  0.2756
  110MOL0     C15092   4.529   7.686   3.770 -0.5080  0.0953 -0.1319
  110MOL0     N15093   4.836   7.047   4.101  0.4889 -0.8036 -0.0296
  110MOL0     N15094   4.782   6.971   4.187 -0.5841 -0.1408 -0.0060
  110MOL0     C15095   3.646   7.377   3.725  0.2238 -0.3076  1.6992
  110MOL0     C15096   3.527   7.386   3.642 -0.4886 -0.5395 -1.7515
  110MOL0     C15097   3.094   7.258   3.552  0.4332 -0.5658  0.3258
  110MOL0     C15098   3.096   7.251   3.413 -0.2986  0.0813 -0.4614
  110MOL0     C15099   2.972   7.253   3.337  0.3744  0.0678  0.1685
  110MOL0     C15100   2.846   7.252   3.402 -0.1195 -0.9063 -0.0437
  110MOL0     O15101   2.718   7.255   3.356 -0.5561 -0.0910  0.6356
  110MOL0     C15102   2.703   7.306   3.224 -0.3437 -0.1541  0.3708
  110MOL0     C15103   2.564   7.344   3.199  0.2104 -0.7143 -0.3103
  110MOL0     C15104   2.499   7.454   3.288  0.4256 -0.3838  0.1060
  110MOL0     C15105   2.349   7.433   3.306  0.1514  0.4742 -0.2371
  110MOL0     C15106   2.272   7.490   3.194 -0.2725  0.1919 -0.0053
  110MOL0     C15107   2.209   7.544   3.102  0.0912 -0.2095 -0.1691
  110MOL0     C15108   2.845   7.254   3.539  0.5397  1.0089  0.3132
  110MOL0     C15109   2.960   7.266   3.620  0.5882  0.3594 -0.3327
  110MOL0     C15110   2.935   7.283   3.775  0.6017  0.1064  0.1269
  110MOL0     H15111   3.466   7.047   3.622 -0.7140 -0.7192 -0.4454
  110MOL0     H15112   3.669   7.032   3.745  1.3910 -1.6255 -4.5205
  110MOL0     H15113   3.948   7.267   3.672  4.7012  2.2931  2.3783
  110MOL0     H15114   3.908   7.094   3.722 -1.7276 -0.0423  2.0450
  110MOL0     H15115   4.142   7.214   3.765 -3.0452  3.1864 -2.5276
  110MOL0     H15116   4.036   7.285   3.896 -3.2929  0.6428 -2.5912
  110MOL0     H15117   4.007   7.015   3.965  2.2893 -1.5049  0.8412
  110MOL0     H15118   4.103   6.991   3.828 -0.8069  1.6245 -0.3093
  110MOL0     H15119   4.295   7.109   3.916  1.4851  0.0214  1.2066
  110MOL0     H15120   4.198   7.159   4.056  2.0540 -2.4802  3.3201
  110MOL0     H15121   4.260   6.868   3.961 -2.7738 -1.7091  2.3705
  110MOL0     H15122   4.180   6.923   4.112 -0.9864  2.0057  1.3522
  110MOL0     H15123   4.468   7.002   4.070  0.6839 -1.1543  0.1544
  110MOL0     H15124   4.351   6.987   4.215 -1.5736 -1.3182 -0.2981
  110MOL0     H15125   4.433   6.741   4.060  0.8987  1.3343 -2.0051
  110MOL0     H15126   4.377   6.751   4.216 -1.8529 -0.5876 -1.3296
  110MOL0     H15127   4.600   6.827   4.294  1.0949  3.8874 -0.3655
  110MOL0     H15128   4.636   6.696   4.182  0.4895  0.6690  3.1456
  110MOL0     H15129   4.680   6.845   3.896 -1.5674  1.1357  0.9268
  110MOL0     H15130   4.929   7.016   3.797 -1.1554 -1.0635 -0.0247
  110MOL0     H15131   4.946   7.146   3.894 -0.2888 -2.0991  4.3740
  110MOL0     H15132   4.780   7.143   3.667 -3.7732  0.5677 -0.2011
  110MOL0     H15133   4.669   7.094   3.789 -0.5521  0.3265 -0.0453
  110MOL0     H15134   4.668   7.297   3.899  0.4375  1.0490  0.1927
  110MOL0     H15135   4.836   7.341   3.851  1.4180 -1.2624  1.3659
  110MOL0     H15136   4.750   7.355   3.607  0.6760  0.3082 -0.0646
  110MOL0     H15137   4.592   7.321   3.664 -0.6694  1.0218 -0.2554
  110MOL0     H15138   4.476   7.367   3.868  1.0633  0.5617 -0.7131
  110MOL0     H15139   4.258   7.484   4.111 -1.7789 -1.6482 -0.4173
  110MOL0     H15140   4.343   7.364   4.016 -0.4461 -1.0423 -1.8058
  110MOL0     H15141   4.174   7.425   3.967  0.3207 -1.3323 -0.6734
  110MOL0     H15142   4.057   7.843   4.177 -0.4238  0.2996  2.7316
  110MOL0     H15143   3.997   7.978   4.363  2.0972  0.1816  0.9492
  110MOL0     H15144   3.875   8.189   4.349 -0.2746 -2.5550  1.1638
  110MOL0     H15145   3.946   8.143   4.507  2.6005 -2.3499 -2.4233
  110MOL0     H15146   3.780   8.332   4.530  1.3316 -0.7134  2.1612
  110MOL0     H15147   3.945   8.401   4.544 -0.2555 -0.0480  0.6240
  110MOL0     H15148   3.762   8.373   4.308  0.9096 -0.9823  0.2688
  110MOL0     H15149   3.922   8.465   4.285  0.8440 -1.5939  0.8122
  110MOL0     H15150   3.859   8.635   4.430 -0.4302 -1.5392 -0.0108
  110MOL0     H15151   3.697   8.564   4.461  1.0737 -2.4544  1.8716
  110MOL0     H15152   3.823   8.672   4.207  0.8881 -1.2870  1.4594
  110MOL0     H15153   3.666   8.582   4.210 -0.6008  0.5433  1.8953
  110MOL0     H15154   3.694   8.793   4.410 -1.3089 -0.5204  0.4912
  110MOL0     H15155   3.545   8.751   4.327  0.0058 -1.0967 -2.5289
  110MOL0     H15156   3.632   8.826   4.108 -0.7004 -0.1181  1.3682
  110MOL0     H15157   3.762   8.908   4.203 -0.7669  3.6919 -1.8984
  110MOL0     H15158   3.473   8.972   4.178  1.1106 -1.7286  0.5871
  110MOL0     H15159   3.609   9.084   4.200  1.2672  0.8042  1.4958
  110MOL0     H15160   4.198   8.306   4.169 -1.8366  0.3289  0.1243
  110MOL0     H15161   4.296   8.148   4.011  0.7950 -1.8889 -0.8305
  110MOL0     H15162   4.423   7.861   3.812  0.7097 -0.3253 -0.5895
  110MOL0     H15163   4.604   7.756   3.734 -1.7124  1.4608 -0.0683
  110MOL0     H15164   3.700   7.465   3.759  1.1192 -0.9162  1.8872
  110MOL0     H15165   3.483   7.485   3.631 -2.1749 -0.6020  2.4978
  110MOL0     H15166   3.197   7.246   3.372 -0.0782 -0.3234  0.1168
  110MOL0     H15167   2.975   7.245   3.229  2.2698  2.7170 -0.0705
  110MOL0     H15168   2.765   7.396   3.231  3.3532 -2.0573 -3.4180
  110MOL0     H15169   2.734   7.232   3.150  2.4584 -2.2747  3.3713
  110MOL0     H15170   2.508   7.250   3.199  2.2756 -2.0528  1.4508
  110MOL0     H15171   2.550   7.389   3.101 -2.7418 -2.9357 -1.0493
  110MOL0     H15172   2.536   7.444   3.391  0.2221 -0.1073  0.2092
  110MOL0     H15173   2.523   7.555   3.252  0.4482 -0.9347 -1.4984
  110MOL0     H15174   2.314   7.480   3.398  1.6917 -0.4206  0.8478
  110MOL0     H15175   2.325   7.328   3.321 -0.8792  0.0583 -3.7848
  110MOL0     H15176   2.155   7.605   3.032 -2.7403 -0.6135  1.4806
  110MOL0     H15177   2.747   7.250   3.587  0.7421 -2.7068  0.7167
  110MOL0     H15178   2.956   7.189   3.828 -0.0460  0.8173  1.7018
  110MOL0     H15179   2.995   7.365   3.814  3.2752 -2.2269  1.2679
  110MOL0     H15180   2.830   7.304   3.795  1.1183  1.2796  1.7457
  111MOL0     O15181   2.023   9.122   6.494  0.1934  0.0519 -0.2231
  111MOL0     C15182   1.929   9.198   6.523  0.0737  0.0035 -0.8094
  111MOL0     O15183   1.805   9.159   6.571 -0.3386 -0.5008 -0.4485
  111MOL0     C15184   1.777   9.035   6.536  0.1397  1.1686  0.1578
  111MOL0     C15185   1.690   9.017   6.433 -0.5396  0.3959 -0.0649
  111MOL0     C15186   1.651   8.893   6.404  0.4919 -0.1565 -0.0220
  111MOL0     C15187   1.689   8.782   6.482  0.5376 -0.0497 -0.9509
  111MOL0     O15188   1.675   8.645   6.442  0.7607  0.4742 -0.6209
  111MOL0     C15189   1.552   8.627   6.383 -0.6596  0.9634 -0.1946
  111MOL0     C15190   1.565   8.478   6.330  0.0018 -1.1792 -0.0732
  111MOL0     C15191   1.431   8.418   6.292  1.1482  0.9810  0.8545
  111MOL0     C15192   1.354   8.362   6.420 -0.7400  0.2473  0.0510
  111MOL0     C15193   1.217   8.315   6.368 -0.0323  0.4482  0.1449
  111MOL0     C15194   1.167   8.195   6.442  0.5117  0.2303  0.6242
  111MOL0     C15195   1.018   8.163   6.419 -0.1014 -0.7244 -0.4480
  111MOL0     C15196   0.980   8.022   6.477 -0.3953  0.2683 -0.7677
  111MOL0     N15197   0.863   7.966   6.413  0.9448  0.9503 -0.0396
  111MOL0     C15198   0.877   7.894   6.298 -0.3652  0.4726 -0.0418
  111MOL0     C15199   0.749   7.891   6.250  0.2594  0.0774  0.8939
  111MOL0     C15200   0.704   7.807   6.138 -0.5317 -0.4684  0.6433
  111MOL0     C15201   0.716   7.875   5.996  0.6111 -0.1688 -0.5317
  111MOL0     C15202   0.616   7.813   5.898 -0.7806  0.4077  0.8486
  111MOL0     C15203   0.695   7.707   5.819 -0.6560 -0.5167  0.7899
  111MOL0     O15204   0.647   7.583   5.870 -0.6555  0.2830  0.2977
  111MOL0     C15205   0.534   7.522   5.820  0.6656 -0.0366  0.7588
  111MOL0     C15206   0.528   7.383   5.834  0.7431 -0.4869  0.2431
  111MOL0     C15207   0.414   7.313   5.798  0.4715  0.4953 -0.4181
  111MOL0     C15208   0.406   7.162   5.820  0.1675 -1.2819  0.2573
  111MOL0     C15209   0.309   7.384   5.725  0.0637 -0.3120 -0.3254
  111MOL0     C15210   0.188   7.319   5.657 -0.1192 -0.0923  0.2980
  111MOL0     O15211   0.173   7.186   5.674  0.0685 -0.2288 -0.4818
  111MOL0     C15212   0.075   7.124   5.593 -0.1529  1.2693  0.1905
  111MOL0     C15213   0.127   7.063   5.472  0.1472  0.7556  0.4060
  111MOL0     C15214   0.050   7.000   5.380  0.5128  0.9921 -0.2571
  111MOL0     C15215  -0.089   7.011   5.389 -0.1725 -0.5411  0.1983
  111MOL0     O15216  -0.177   6.974   5.298 -0.2647  0.1895  0.6188
  111MOL0     C15217  -0.211   6.833   5.284 -0.0464 -0.3500 -0.2292
  111MOL0     C15218  -0.254   6.814   5.144  0.6314  0.3281  0.2999
  111MOL0     C15219  -0.344   6.696   5.140  0.2864 -0.2958  0.2977
  111MOL0     C15220  -0.405   6.694   4.998 -0.5906 -0.6468 -0.7862
  111MOL0     C15221  -0.498   6.568   4.988 -0.2717 -0.0942 -1.3426
  111MOL0     C15222  -0.530   6.539   4.849  0.3826  0.6088  0.2004
  111MOL0     C15223  -0.608   6.404   4.832  0.4141  0.4640  0.2424
  111MOL0     C15224  -0.556   6.307   4.712  1.9580  0.1054  0.8236
  111MOL0    Cl15225  -0.551   6.133   4.760  0.5625  0.0883  0.1264
  111MOL0     C15226  -0.139   7.091   5.490  0.1968  0.0934 -0.3838
  111MOL0     C15227  -0.062   7.138   5.606  0.4091  0.3681  0.2505
  111MOL0     O15228   0.135   7.397   5.575 -0.1963  0.8268 -0.8337
  111MOL0     C15229   0.312   7.529   5.726 -0.7685 -0.1228  0.8162
  111MOL0     C15230   0.425   7.598   5.772  0.4549 -0.1005  0.2532
  111MOL0     N15231   0.675   7.968   6.331  0.0002 -0.5054  0.0120
  111MOL0     N15232   0.746   8.025   6.420  0.6990 -0.3988 -0.5955
  111MOL0     C15233   1.771   8.805   6.590 -0.6855  0.6157 -0.3480
  111MOL0     C15234   1.823   8.934   6.621 -0.2459  0.8838 -0.1971
  111MOL0     C15235   1.961   9.346   6.504 -0.5713 -0.1951  0.2590
  111MOL0     C15236   1.879   9.435   6.578  0.2430 -0.4719 -0.0847
  111MOL0     C15237   1.899   9.578   6.580  0.7308  0.9237  0.8035
  111MOL0     C15238   1.989   9.632   6.499 -1.4136  0.0849  0.3944
  111MOL0     O15239   1.995   9.771   6.489  0.1545  0.5048  0.1658
  111MOL0     C15240   2.062   9.838   6.387 -1.0175 -1.7227 -0.2750
  111MOL0     C15241   2.019   9.983   6.382  0.1127  1.0889 -0.2258
  111MOL0     C15242   2.054  10.077   6.501  0.3443 -0.2910  0.6175
  111MOL0     C15243   2.010  10.032   6.640 -0.4224  0.5986  0.2620
  111MOL0     C15244   2.038  10.148   6.730 -0.3794  0.4093 -0.6601
  111MOL0     C15245   2.061  10.223   6.825 -0.0044 -0.6608 -0.6131
  111MOL0     C15246   2.074   9.549   6.426  0.3671 -0.2631 -0.5101
  111MOL0     C15247   2.071   9.407   6.428  0.8091 -0.8145 -0.0905
  111MOL0     C15248   2.181   9.333   6.366 -1.0375 -0.7386  0.7740
  111MOL0     H15249   1.657   9.096   6.367 -3.3373 -1.6958 -1.4203
  111MOL0     H15250   1.608   8.875   6.306  2.2958 -4.8316 -0.2123
  111MOL0     H15251   1.541   8.695   6.298 -1.5701 -1.0280 -1.7726
  111MOL0     H15252   1.466   8.637   6.450 -0.2899  0.6756  0.3291
  111MOL0     H15253   1.634   8.480   6.246 -0.6368  2.3157 -0.6942
  111MOL0     H15254   1.614   8.424   6.412  0.8511  1.4316  1.2906
  111MOL0     H15255   1.369   8.489   6.237 -1.2087 -1.2819  0.4142
  111MOL0     H15256   1.458   8.336   6.225 -1.0526  1.7053 -1.0277
  111MOL0     H15257   1.410   8.276   6.460 -3.4951 -1.7338 -0.0974
  111MOL0     H15258   1.343   8.430   6.504  1.7269 -0.0366  0.6851
  111MOL0     H15259   1.229   8.295   6.262 -1.3636  2.0544 -0.3494
  111MOL0     H15260   1.139   8.389   6.385 -0.0914  0.5231 -0.4593
  111MOL0     H15261   1.235   8.111   6.426  2.0661  1.6336 -0.4989
  111MOL0     H15262   1.165   8.218   6.549 -0.6105  1.0769  0.4409
  111MOL0     H15263   1.012   8.162   6.310  0.8027 -0.2435 -0.5127
  111MOL0     H15264   0.949   8.238   6.458 -0.1157 -1.0276  0.1165
  111MOL0     H15265   1.060   7.952   6.453  2.4989  2.8517  0.5684
  111MOL0     H15266   0.962   8.021   6.585 -2.6325 -0.6473 -1.0860
  111MOL0     H15267   0.956   7.837   6.250 -1.1008  0.6726 -1.5557
  111MOL0     H15268   0.602   7.789   6.170 -0.3818 -1.8602  0.4063
  111MOL0     H15269   0.758   7.713   6.121 -3.4008 -2.0726 -0.1684
  111MOL0     H15270   0.674   7.976   6.004 -1.1437 -0.8766 -0.4672
  111MOL0     H15271   0.822   7.880   5.969  0.5157  1.9654 -0.7310
  111MOL0     H15272   0.547   7.762   5.966 -1.0514  0.2599  0.4637
  111MOL0     H15273   0.575   7.892   5.834 -1.8158 -1.3972 -0.7830
  111MOL0     H15274   0.684   7.699   5.710  0.1980 -1.8917  0.7849
  111MOL0     H15275   0.801   7.732   5.824 -0.7628  0.7499 -1.7863
  111MOL0     H15276   0.605   7.326   5.884  1.8806 -1.1057 -2.1104
  111MOL0     H15277   0.309   7.136   5.862 -0.0818 -0.2805  0.3160
  111MOL0     H15278   0.494   7.128   5.876 -1.0988 -2.4659  1.5853
  111MOL0     H15279   0.413   7.100   5.730  2.0718  0.6688 -1.0635
  111MOL0     H15280   0.234   7.050   5.462  0.2107 -1.8642  3.2000
  111MOL0     H15281   0.100   6.963   5.292  2.2346  3.6913 -0.5377
  111MOL0     H15282  -0.124   6.770   5.307 -0.9527 -0.6877  2.6581
  111MOL0     H15283  -0.283   6.820   5.366  0.6180  0.4399  0.4963
  111MOL0     H15284  -0.315   6.900   5.114  1.6994 -0.0114 -3.3398
  111MOL0     H15285  -0.169   6.812   5.076  1.3781  0.0461  1.2240
  111MOL0     H15286  -0.423   6.681   5.214 -0.8053 -0.4165 -0.8686
  111MOL0     H15287  -0.275   6.611   5.141 -0.5948 -1.0615 -0.9208
  111MOL0     H15288  -0.319   6.683   4.931  1.0479  1.9148  0.7232
  111MOL0     H15289  -0.462   6.781   4.968 -2.0024 -1.4410 -0.4850
  111MOL0     H15290  -0.456   6.479   5.035 -1.7095 -0.3947 -0.5769
  111MOL0     H15291  -0.591   6.587   5.041  1.0996  0.3958  1.0068
  111MOL0     H15292  -0.435   6.550   4.795  0.6012  0.8023  0.6185
  111MOL0     H15293  -0.596   6.617   4.808 -0.9548 -0.9417 -0.6870
  111MOL0     H15294  -0.713   6.431   4.816  0.0412 -0.8628  0.3856
  111MOL0     H15295  -0.590   6.348   4.924  1.7894 -1.6197 -1.2059
  111MOL0     H15296  -0.454   6.333   4.682  1.0866 -0.6964 -3.3896
  111MOL0     H15297  -0.618   6.311   4.622 -1.0314  0.6711  2.7468
  111MOL0     H15298  -0.246   7.107   5.482 -0.1699  1.3355  4.2003
  111MOL0     H15299  -0.100   7.183   5.697  0.9538 -1.4778  1.4428
  111MOL0     H15300   0.229   7.586   5.685 -0.9430 -0.9664 -0.0499
  111MOL0     H15301   0.434   7.706   5.768  2.1984 -0.2511 -0.2740
  111MOL0     H15302   1.790   8.721   6.656 -0.2122  3.4306  3.4081
  111MOL0     H15303   1.879   8.955   6.711 -0.6427 -2.7412  1.0520
  111MOL0     H15304   1.795   9.403   6.639 -0.2614 -1.2291 -1.1294
  111MOL0     H15305   1.829   9.639   6.636 -1.4334  0.6164 -1.4190
  111MOL0     H15306   2.169   9.826   6.408 -0.7668  0.6156  0.0737
  111MOL0     H15307   2.051   9.798   6.286  3.8260 -0.9467 -1.3714
  111MOL0     H15308   1.912   9.977   6.359  0.3591 -2.9777 -1.1078
  111MOL0     H15309   2.078  10.024   6.300 -1.5952 -1.5730 -3.0049
  111MOL0     H15310   2.163  10.086   6.511  0.1917  1.7826  0.9487
  111MOL0     H15311   2.019  10.177   6.473 -1.2146 -1.4057 -1.6656
  111MOL0     H15312   2.067   9.943   6.668 -0.3599  0.3620 -0.5797
  111MOL0     H15313   1.907   9.995   6.636 -0.2294  0.0069  0.7136
  111MOL0     H15314   2.057  10.305   6.893  1.5768 -1.2107  0.1904
  111MOL0     H15315   2.159   9.590   6.372  1.9625 -1.7141  0.7787
  111MOL0     H15316   2.221   9.253   6.430 -2.1075 -2.4147 -0.5469
  111MOL0     H15317   2.146   9.292   6.271 -2.3444  3.2205 -0.6409
  111MOL0     H15318   2.261   9.406   6.354 -1.7659 -0.1675 -0.8471
  112MOL0     O15319   9.848  10.357   8.776 -0.0959  0.1601  0.4001
  112MOL0     C15320   9.861  10.396   8.657  0.3457 -0.2285  0.4957
  112MOL0     O15321   9.889  10.518   8.623 -0.1087 -0.8967  0.3789
  112MOL0     C15322   9.924  10.604   8.727 -0.4901 -0.0998 -0.5940
  112MOL0     C15323  10.056  10.617   8.769 -0.3138 -0.5331  1.2875
  112MOL0     C15324  10.093  10.731   8.844 -0.3803  0.3119 -0.1241
  112MOL0     C15325   9.996  10.828   8.885  0.8354  0.2620 -0.4097
  112MOL0     O15326  10.015  10.939   8.957 -0.2113 -0.4949  0.7712
  112MOL0     C15327  10.149  10.999   8.951  0.7262 -0.2029 -0.9020
  112MOL0     C15328  10.147  11.140   9.009  0.2340  0.1130  0.7562
  112MOL0     C15329  10.280  11.208   8.974 -0.3815 -0.1677  1.2424
  112MOL0     C15330  10.282  11.347   9.039 -0.2179  0.7373 -0.5439
  112MOL0     C15331  10.409  11.420   9.028 -0.3470  0.7087 -0.1614
  112MOL0     C15332  10.413  11.535   9.123  0.1682  0.3096  0.4102
  112MOL0     C15333  10.308  11.646   9.095 -0.0707  0.2219  0.3604
  112MOL0     C15334  10.331  11.772   9.177 -0.1677 -0.0582  0.2401
  112MOL0     N15335  10.262  11.882   9.131  0.5433 -0.1294 -0.2010
  112MOL0     C15336  10.132  11.909   9.127 -0.7768 -0.9123 -0.0231
  112MOL0     C15337  10.129  12.026   9.053 -0.2018  0.4862  0.3683
  112MOL0     C15338   9.996  12.095   9.009 -0.4827  0.2838  0.7298
  112MOL0     C15339   9.977  12.224   9.074 -0.5810  0.1835 -0.0480
  112MOL0     C15340   9.841  12.288   9.047  0.9461 -0.5810 -0.6230
  112MOL0     C15341   9.826  12.364   8.911  0.9838  0.0127  0.5616
  112MOL0     O15342   9.947  12.442   8.871 -0.0445  0.6338 -0.7593
  112MOL0     C15343   9.954  12.522   8.767  1.3781 -0.1634 -0.0775
  112MOL0     C15344  10.057  12.606   8.760 -0.4015  0.6391  0.2969
  112MOL0     C15345  10.076  12.710   8.669  0.4638  0.4979 -0.6250
  112MOL0     C15346  10.210  12.790   8.691  0.1479 -0.2947 -0.1490
  112MOL0     C15347   9.969  12.733   8.573 -0.7783 -1.5119 -0.3745
  112MOL0     C15348   9.969  12.831   8.465 -0.1685  0.1603  0.2892
  112MOL0     O15349   9.871  12.817   8.376 -0.0125 -0.2117  0.1428
  112MOL0     C15350   9.881  12.886   8.254  0.4242  0.7980 -0.4404
  112MOL0     C15351   9.993  12.908   8.185 -0.2539 -0.0506 -0.6956
  112MOL0     C15352   9.994  12.982   8.066 -0.6669  0.5434 -0.3017
  112MOL0     C15353   9.883  13.036   8.007  0.3831 -0.6533 -0.2954
  112MOL0     O15354   9.863  13.108   7.893 -1.1812  1.2637  0.6049
  112MOL0     C15355   9.972  13.119   7.798 -0.2356  0.3848 -0.1333
  112MOL0     C15356  10.054  13.240   7.828 -0.4074  0.0516  0.7163
  112MOL0     C15357   9.997  13.371   7.775  0.0006 -0.7406 -0.4161
  112MOL0     C15358  10.003  13.386   7.620  0.0433  0.6310  0.4944
  112MOL0     C15359   9.872  13.466   7.562  0.1714 -0.2601 -0.3987
  112MOL0     C15360   9.876  13.612   7.592 -0.3080  0.0468 -0.6681
  112MOL0     C15361   9.774  13.694   7.513  0.0135 -0.5521  0.7162
  112MOL0     C15362   9.762  13.835   7.570 -0.3552 -0.5087 -0.2731
  112MOL0    Cl15363   9.678  13.938   7.471  0.0762  0.0803  0.1920
  112MOL0     C15364   9.774  12.992   8.070  0.2810 -0.7020  0.3596
  112MOL0     C15365   9.765  12.928   8.192  0.2379  0.7793  0.6538
  112MOL0     O15366  10.042  12.930   8.483  0.7459  0.0667  0.4717
  112MOL0     C15367   9.856  12.651   8.587 -0.2122  0.8275  0.2649
  112MOL0     C15368   9.846  12.539   8.675 -0.9114  0.1542  0.3545
  112MOL0     N15369  10.257  12.056   9.020 -0.2077  0.5091 -0.0373
  112MOL0     N15370  10.331  11.974   9.071 -0.4248 -0.9907 -0.1674
  112MOL0     C15371   9.858  10.802   8.845  0.1778  0.4180  0.2593
  112MOL0     C15372   9.825  10.689   8.761 -0.6046 -0.2690 -0.4160
  112MOL0     C15373   9.879  10.297   8.553  0.6115  0.6960  0.2594
  112MOL0     C15374   9.982  10.318   8.456 -1.3839 -0.2064  0.8152
  112MOL0     C15375  10.011  10.221   8.355 -0.4227  0.8905 -0.8286
  112MOL0     C15376   9.946  10.101   8.356  0.0817 -0.5717  0.5332
  112MOL0     O15377   9.946  10.011   8.249  0.5249  0.2120  0.1368
  112MOL0     C15378  10.012  10.055   8.129 -0.4864 -0.1180  0.1175
  112MOL0     C15379  10.044   9.929   8.045  0.5047  0.2948  0.0711
  112MOL0     C15380  10.090   9.966   7.903  0.0883  0.5670 -0.6969
  112MOL0     C15381  10.229  10.034   7.903 -0.2326  0.6870 -1.0539
  112MOL0     C15382  10.217  10.180   7.915 -0.2746 -0.6135 -0.4071
  112MOL0     C15383  10.196  10.298   7.945  0.4802 -0.1573  0.5675
  112MOL0     C15384   9.857  10.080   8.457  0.1280 -0.1957 -0.0728
  112MOL0     C15385   9.822  10.169   8.559  1.0316 -0.1362  0.4403
  112MOL0     C15386   9.705  10.115   8.640 -0.1329  0.5802  0.4958
  112MOL0     H15387  10.125  10.544   8.730 -0.5308  0.3251 -0.8551
  112MOL0     H15388  10.198  10.733   8.874 -0.6326  1.5460  0.7562
  112MOL0     H15389  10.181  10.992   8.847 -2.0935  1.5478 -2.0189
  112MOL0     H15390  10.210  10.945   9.024  1.1601  0.1788 -0.9771
  112MOL0     H15391  10.071  11.201   8.960 -2.1614 -0.1293  3.8727
  112MOL0     H15392  10.130  11.142   9.117  0.4652 -0.4376  0.8104
  112MOL0     H15393  10.370  11.151   9.000  1.3924 -0.6671 -4.5866
  112MOL0     H15394  10.286  11.220   8.865  1.5876  2.4292  1.5346
  112MOL0     H15395  10.200  11.396   8.986  0.1009  3.1915  1.0845
  112MOL0     H15396  10.283  11.334   9.148 -0.2090  0.0246 -0.6222
  112MOL0     H15397  10.416  11.454   8.924 -0.4502  0.3990 -0.2692
  112MOL0     H15398  10.492  11.351   9.046 -1.1300  0.2452  1.9742
  112MOL0     H15399  10.412  11.500   9.227 -3.0002  1.0038  0.7191
  112MOL0     H15400  10.512  11.578   9.113  0.2060  0.2767  0.6336
  112MOL0     H15401  10.209  11.612   9.128 -0.7510  2.2503  0.5303
  112MOL0     H15402  10.314  11.669   8.988  1.3815 -0.6752  0.2169
  112MOL0     H15403  10.299  11.748   9.278  1.6749 -0.4777  0.7671
  112MOL0     H15404  10.436  11.805   9.183 -0.7286  2.3772 -1.6500
  112MOL0     H15405  10.048  11.848   9.160 -1.0943 -0.7029 -0.4374
  112MOL0     H15406   9.919  12.024   9.037  0.6845 -0.2180  2.9512
  112MOL0     H15407   9.985  12.115   8.902 -0.1127 -0.8003  0.4762
  112MOL0     H15408   9.990  12.203   9.181  1.8511  2.4345  0.2029
  112MOL0     H15409  10.053  12.287   9.027 -2.2106  2.2821 -0.0231
  112MOL0     H15410   9.764  12.211   9.059 -0.1185  0.2396 -1.8112
  112MOL0     H15411   9.825  12.360   9.128  1.9009 -2.8923  1.7810
  112MOL0     H15412   9.806  12.276   8.850  0.5493 -0.0503  0.7959
  112MOL0     H15413   9.742  12.433   8.903 -1.3149 -2.5691  1.1438
  112MOL0     H15414  10.140  12.595   8.829 -0.5050  1.6857  0.5991
  112MOL0     H15415  10.280  12.724   8.742  2.3896  1.2481 -1.0701
  112MOL0     H15416  10.204  12.870   8.765  0.9464 -0.7585  0.4362
  112MOL0     H15417  10.259  12.827   8.600  3.3695 -0.4216  1.3827
  112MOL0     H15418  10.085  12.880   8.235 -2.5080  0.4612  4.3407
  112MOL0     H15419  10.092  13.003   8.026  0.1462 -2.8415 -0.3943
  112MOL0     H15420  10.034  13.030   7.790 -0.7244  0.0983 -0.8505
  112MOL0     H15421   9.922  13.132   7.702 -1.1724  1.2130  0.4287
  112MOL0     H15422  10.060  13.251   7.937  0.1546  2.3833  0.5015
  112MOL0     H15423  10.157  13.237   7.791 -0.3394  1.4630  0.7261
  112MOL0     H15424  10.053  13.451   7.825 -0.8044  0.1026 -0.8426
  112MOL0     H15425   9.892  13.381   7.807  0.4433  3.2030  0.3172
  112MOL0     H15426  10.002  13.292   7.564 -1.1850  0.7186  0.3260
  112MOL0     H15427  10.088  13.439   7.577 -0.6689 -0.9829 -3.3369
  112MOL0     H15428   9.871  13.460   7.452 -2.3913  0.8712 -0.4984
  112MOL0     H15429   9.783  13.413   7.595 -0.6019  1.5645  0.5270
  112MOL0     H15430   9.976  13.649   7.568 -0.8374  0.2818 -2.6226
  112MOL0     H15431   9.860  13.629   7.699  0.8510 -1.9324 -0.1298
  112MOL0     H15432   9.676  13.648   7.523 -0.8214  0.6272 -1.4736
  112MOL0     H15433   9.803  13.692   7.407  0.1660 -0.1468  0.7488
  112MOL0     H15434   9.860  13.881   7.592 -0.2784  0.0343 -1.6697
  112MOL0     H15435   9.697  13.815   7.655  2.2510  1.8781  2.5559
  112MOL0     H15436   9.671  13.015   8.045 -0.7769 -4.3701  0.7183
  112MOL0     H15437   9.667  12.918   8.237 -1.4549  1.6653 -2.4984
  112MOL0     H15438   9.768  12.675   8.529  0.7084 -2.6512 -2.9818
  112MOL0     H15439   9.764  12.468   8.673 -0.5118 -0.3362 -1.7095
  112MOL0     H15440   9.781  10.875   8.867 -0.2219 -0.4525  1.8162
  112MOL0     H15441   9.728  10.664   8.719  0.9021 -4.2828 -1.9734
  112MOL0     H15442  10.030  10.416   8.459 -0.7734 -0.5264  1.7380
  112MOL0     H15443  10.069  10.256   8.270 -0.0853  0.1767 -0.8955
  112MOL0     H15444   9.951  10.125   8.071  0.4160  0.8687  0.3248
  112MOL0     H15445  10.107  10.104   8.155 -1.1011  1.1519  0.0328
  112MOL0     H15446   9.959   9.863   8.031 -0.4840  1.2340  1.4082
  112MOL0     H15447  10.123   9.880   8.103 -0.1047 -1.3710 -0.4518
  112MOL0     H15448  10.113   9.874   7.848  2.9079 -0.5757  2.0557
  112MOL0     H15449  10.022  10.027   7.844  1.6406  3.1431 -0.0001
  112MOL0     H15450  10.284  10.012   7.812 -0.5977  0.4090 -1.2067
  112MOL0     H15451  10.282   9.993   7.990 -0.6136  0.4682 -0.9196
  112MOL0     H15452  10.197  10.403   7.963 -3.9661  0.2169 -0.2493
  112MOL0     H15453   9.807   9.984   8.453  0.2313 -0.3283  1.3140
  112MOL0     H15454   9.618  10.110   8.574 -1.0454 -0.9893  1.7479
  112MOL0     H15455   9.738  10.019   8.682 -0.8052 -0.1154 -0.5188
  112MOL0     H15456   9.683  10.190   8.717 -0.8355  0.3837  0.4991
  113MOL0     O15457   2.052  11.244   0.059 -0.7333  0.5995  0.3463
  113MOL0     C15458   1.944  11.211   0.013 -0.3014 -0.0343 -0.1976
  113MOL0     O15459   1.858  11.141   0.096 -0.1573 -0.2023  0.0525
  113MOL0     C15460   1.915  11.087   0.206 -1.4477  0.8357  0.0317
  113MOL0     C15461   1.895  10.952   0.232  0.4134  0.4912 -0.3589
  113MOL0     C15462   1.943  10.890   0.342  0.5527 -0.1867 -0.3818
  113MOL0     C15463   2.015  10.955   0.447 -0.1966  0.4992  0.5350
  113MOL0     O15464   2.072  10.884   0.544  0.3252  0.3336 -0.6201
  113MOL0     C15465   2.155  10.953   0.642 -0.3841  0.2003 -0.3241
  113MOL0     C15466   2.197  10.840   0.737  0.0978 -0.2393  0.6435
  113MOL0     C15467   2.085  10.751   0.802 -0.4259 -0.2074 -1.1082
  113MOL0     C15468   2.157  10.638   0.883  0.1755  0.5021  0.1217
  113MOL0     C15469   2.066  10.529   0.922 -0.0242  0.1805 -0.2179
  113MOL0     C15470   2.136  10.434   1.030  0.0274 -0.9879  0.5292
  113MOL0     C15471   2.023  10.338   1.087 -0.0914 -0.1296  0.4391
  113MOL0     C15472   2.068  10.242   1.182 -0.4667  0.6034 -0.6437
  113MOL0     N15473   2.015  10.255   1.316  0.1714 -1.0801  0.2067
  113MOL0     C15474   2.069  10.319   1.427  0.4093  0.2412 -0.4540
  113MOL0     C15475   1.975  10.298   1.528  0.3738 -0.3964  0.5212
  113MOL0     C15476   1.995  10.340   1.668  1.7168  0.3373  0.8528
  113MOL0     C15477   2.001  10.231   1.768  0.0459  0.7462 -0.2822
  113MOL0     C15478   2.131  10.153   1.764 -1.1158  0.0157 -0.1024
  113MOL0     C15479   2.119  10.045   1.876  0.5188 -0.5505  0.3006
  113MOL0     O15480   2.108  10.120   1.995  0.2871  0.1566 -0.5947
  113MOL0     C15481   2.109  10.054   2.116  0.9412  0.2774 -0.5124
  113MOL0     C15482   2.092   9.921   2.139 -0.5858 -0.0494  0.4662
  113MOL0     C15483   2.114   9.861   2.261  0.4429 -0.2944 -0.8515
  113MOL0     C15484   2.094   9.715   2.260 -0.5292  0.5857  0.2159
  113MOL0     C15485   2.148   9.940   2.374 -0.0797  0.8249 -0.7792
  113MOL0     C15486   2.172   9.887   2.514  0.8019 -0.5263  0.7063
  113MOL0     O15487   2.209   9.981   2.610  0.2269  0.3414  0.9333
  113MOL0     C15488   2.258   9.938   2.725 -0.1309  1.2091 -0.2860
  113MOL0     C15489   2.195   9.984   2.836  0.1968  0.6193  0.4248
  113MOL0     C15490   2.256   9.951   2.962 -0.1763  0.4261 -0.3755
  113MOL0     C15491   2.382   9.885   2.975 -0.7600  0.2289 -0.1635
  113MOL0     O15492   2.436   9.869   3.093  0.3474  0.3878  0.4170
  113MOL0     C15493   2.563   9.800   3.108  0.1501 -0.1017 -0.2803
  113MOL0     C15494   2.682   9.886   3.089 -0.1171  0.8386 -0.6479
  113MOL0     C15495   2.698   9.990   3.201  0.9857 -0.6261  0.9672
  113MOL0     C15496   2.807  10.090   3.190 -0.3589  1.0157  0.8081
  113MOL0     C15497   2.793  10.175   3.314 -0.2640 -0.3572  0.0756
  113MOL0     C15498   2.867  10.305   3.303 -0.9176 -0.6577  0.2969
  113MOL0     C15499   2.794  10.403   3.208  0.5343 -0.0506 -0.2080
  113MOL0     C15500   2.849  10.544   3.207  0.4383  0.0228 -0.8038
  113MOL0    Cl15501   2.808  10.637   3.058 -0.1039  0.4839 -0.1159
  113MOL0     C15502   2.448   9.854   2.847 -0.1947 -0.5356 -0.1780
  113MOL0     C15503   2.383   9.876   2.728 -0.7280  0.0701  0.0839
  113MOL0     O15504   2.147   9.763   2.541  0.6496 -0.3969  0.4111
  113MOL0     C15505   2.159  10.083   2.355  0.1628 -0.6340 -0.3723
  113MOL0     C15506   2.138  10.139   2.232  1.2480  0.3301 -0.3929
  113MOL0     N15507   1.862  10.252   1.470  0.3469 -0.9154 -0.4556
  113MOL0     N15508   1.884  10.223   1.343  0.5192  0.2964 -0.6159
  113MOL0     C15509   2.030  11.092   0.421  0.6615  0.3606 -0.4484
  113MOL0     C15510   1.973  11.161   0.310 -0.3133  0.0254 -0.0331
  113MOL0     C15511   1.903  11.288  -0.117 -0.7909  0.3768 -0.0580
  113MOL0     C15512   1.995  11.344  -0.201 -0.2534 -0.8154  0.8561
  113MOL0     C15513   1.960  11.395  -0.321  0.7919 -0.1373 -0.0130
  113MOL0     C15514   1.829  11.406  -0.365 -0.2570 -0.0573 -0.4967
  113MOL0     O15515   1.791  11.437  -0.485  0.1164 -0.3763  0.5836
  113MOL0     C15516   1.884  11.514  -0.561 -0.0880  0.0436  1.0910
  113MOL0     C15517   1.803  11.561  -0.677 -0.8251 -0.1227 -0.6028
  113MOL0     C15518   1.757  11.450  -0.767 -0.3617  0.1753  0.3584
  113MOL0     C15519   1.877  11.392  -0.853  0.7810  0.2868  0.5730
  113MOL0     C15520   1.915  11.485  -0.961 -0.3339  1.1654 -0.2140
  113MOL0     C15521   1.957  11.551  -1.048 -0.5251 -0.3936 -0.0372
  113MOL0     C15522   1.732  11.354  -0.278 -0.4643 -0.6892  0.1569
  113MOL0     C15523   1.766  11.301  -0.157  0.7037  0.6997  1.0817
  113MOL0     C15524   1.658  11.237  -0.079 -0.6089  0.6391  0.3626
  113MOL0     H15525   1.836  10.891   0.165 -1.3515  0.1052  1.4451
  113MOL0     H15526   1.904  10.789   0.351 -1.3945 -0.0957 -5.1404
  113MOL0     H15527   2.115  11.034   0.703  2.7885 -1.1287  3.9952
  113MOL0     H15528   2.242  10.997   0.592  1.0197 -0.9267  1.0108
  113MOL0     H15529   2.251  10.770   0.673 -2.1907  0.5165 -2.4031
  113MOL0     H15530   2.270  10.873   0.811  0.6733 -0.5364  0.2180
  113MOL0     H15531   2.019  10.803   0.872  1.2557 -0.8244  1.0512
  113MOL0     H15532   2.023  10.701   0.727 -1.7007  2.8442 -2.2447
  113MOL0     H15533   2.235  10.597   0.819 -1.3839  0.0534 -1.5928
  113MOL0     H15534   2.196  10.681   0.976  1.0033 -3.0548  1.5776
  113MOL0     H15535   2.026  10.480   0.833 -1.9452 -1.0856  1.2592
  113MOL0     H15536   1.986  10.588   0.968  2.1542  1.2826  2.4171
  113MOL0     H15537   2.215  10.372   0.988 -0.6397 -0.5624 -1.4385
  113MOL0     H15538   2.178  10.489   1.115 -3.6289  0.1785  1.8144
  113MOL0     H15539   1.975  10.291   1.000 -2.0149  3.4928 -0.6873
  113MOL0     H15540   1.937  10.393   1.127 -0.3736  1.0043 -1.6039
  113MOL0     H15541   2.054  10.143   1.136  2.7904 -0.2669 -0.0764
  113MOL0     H15542   2.176  10.259   1.191 -0.4373 -0.7104  5.9337
  113MOL0     H15543   2.174  10.343   1.438  0.6117 -0.6931 -0.2401
  113MOL0     H15544   1.929  10.418   1.706  0.7989 -0.5411  1.1126
  113MOL0     H15545   2.090  10.394   1.675  1.2306  1.1606  1.2875
  113MOL0     H15546   1.995  10.268   1.870  1.0248  0.3797 -0.0745
  113MOL0     H15547   1.917  10.161   1.760  0.9267 -0.2166 -1.7302
  113MOL0     H15548   2.157  10.111   1.667 -0.7195  0.9519 -0.4167
  113MOL0     H15549   2.217  10.208   1.803  0.3312 -2.4437  0.4167
  113MOL0     H15550   2.026   9.992   1.857  0.5332 -0.5019  0.0903
  113MOL0     H15551   2.205   9.978   1.877  1.7814  0.7040  5.6400
  113MOL0     H15552   2.060   9.850   2.063  1.5824 -1.5997  0.9039
  113MOL0     H15553   2.079   9.672   2.161 -1.2531 -0.6588  0.8421
  113MOL0     H15554   1.995   9.709   2.308 -0.1852  0.8627  0.9700
  113MOL0     H15555   2.173   9.653   2.302 -2.4171 -2.1425  0.0366
  113MOL0     H15556   2.109  10.047   2.818  2.3727  3.2645 -1.7921
  113MOL0     H15557   2.214   9.977   3.059  3.4026  2.4708  0.8444
  113MOL0     H15558   2.569   9.747   3.204 -0.5666 -0.4045 -0.3885
  113MOL0     H15559   2.574   9.721   3.033  2.3529  0.5553 -0.7208
  113MOL0     H15560   2.767   9.821   3.113 -0.0597  1.9342  2.6808
  113MOL0     H15561   2.701   9.928   2.990  1.5317  0.3870 -0.5497
  113MOL0     H15562   2.727   9.930   3.288  0.6217 -0.3679  1.2713
  113MOL0     H15563   2.602  10.036   3.226 -0.0042 -2.6915  1.1348
  113MOL0     H15564   2.810  10.144   3.095 -0.6790  1.2039  0.9001
  113MOL0     H15565   2.902  10.039   3.174 -1.0747 -0.6990  1.7742
  113MOL0     H15566   2.690  10.212   3.320  1.5392  6.2849 -0.9505
  113MOL0     H15567   2.824  10.119   3.402  0.4531  0.9742  0.7069
  113MOL0     H15568   2.971  10.286   3.275 -1.2755 -2.4206  0.0568
  113MOL0     H15569   2.874  10.352   3.402  4.9660 -0.8937  0.3531
  113MOL0     H15570   2.686  10.398   3.225 -0.0296 -0.9722 -3.4364
  113MOL0     H15571   2.824  10.373   3.107 -0.2178  3.0001 -1.4545
  113MOL0     H15572   2.958  10.545   3.210  0.4204 -0.1735  0.3932
  113MOL0     H15573   2.823  10.586   3.305 -0.5188 -3.7283  0.7081
  113MOL0     H15574   2.546   9.808   2.844  0.0751  0.0735 -1.2295
  113MOL0     H15575   2.426   9.853   2.631 -2.4143  2.2570 -1.2809
  113MOL0     H15576   2.174  10.150   2.439 -4.5689  0.0546  0.2143
  113MOL0     H15577   2.137  10.247   2.229 -0.0258  0.6529  4.1784
  113MOL0     H15578   2.075  11.139   0.509 -3.3169  2.9200  0.4918
  113MOL0     H15579   1.964  11.269   0.311  1.3666  0.1947  1.7420
  113MOL0     H15580   2.102  11.337  -0.183  0.1118  1.6153  0.0376
  113MOL0     H15581   2.046  11.436  -0.373  1.9456  0.9570  2.5638
  113MOL0     H15582   1.932  11.591  -0.500  1.5662 -0.3258  0.3034
  113MOL0     H15583   1.963  11.445  -0.591  1.5105  1.9380  0.6991
  113MOL0     H15584   1.850  11.647  -0.727 -0.7564  0.8494  1.0568
  113MOL0     H15585   1.709  11.603  -0.638 -0.1361 -0.8185  1.9899
  113MOL0     H15586   1.723  11.361  -0.714  1.0166  0.5935  2.0250
  113MOL0     H15587   1.676  11.483  -0.834 -0.3994 -0.9192 -0.1492
  113MOL0     H15588   1.837  11.301  -0.900 -1.0421  0.6027  1.4034
  113MOL0     H15589   1.964  11.362  -0.794  1.7646 -1.9907 -1.8215
  113MOL0     H15590   2.001  11.613  -1.124  0.5982 -0.3637  0.6130
  113MOL0     H15591   1.632  11.361  -0.319 -1.0194 -0.0931  1.5321
  113MOL0     H15592   1.561  11.255  -0.126 -0.1861  0.1589 -0.7348
  113MOL0     H15593   1.683  11.131  -0.084 -0.0179  0.7920  0.0037
  113MOL0     H15594   1.664  11.253   0.029 -0.4371 -1.2617  0.6602
  114MOL0     O15595   3.311   8.054   3.613  0.2877 -0.1077 -0.4086
  114MOL0     C15596   3.286   8.165   3.658  0.0853 -1.1597 -0.8709
  114MOL0     O15597   3.185   8.248   3.610 -0.4488 -0.4124  0.0819
  114MOL0     C15598   3.085   8.214   3.515  0.5626 -0.5041 -0.6408
  114MOL0     C15599   3.055   8.088   3.471  0.0874  0.0985 -0.0023
  114MOL0     C15600   2.947   8.070   3.382 -0.6411  0.3607  0.6484
  114MOL0     C15601   2.862   8.172   3.338  0.0067  0.4469 -0.6144
  114MOL0     O15602   2.769   8.153   3.242  0.0339  0.8932  0.0677
  114MOL0     C15603   2.654   8.234   3.231  0.1057  0.3663 -0.4926
  114MOL0     C15604   2.548   8.155   3.148 -0.1994 -0.0619 -0.8431
  114MOL0     C15605   2.604   8.137   3.010  0.3683 -1.1698 -0.6477
  114MOL0     C15606   2.577   8.003   2.948  1.0814 -0.3719 -0.5220
  114MOL0     C15607   2.607   7.991   2.803  0.3834  0.5595 -0.0434
  114MOL0     C15608   2.530   8.101   2.723  0.4627  0.3354  0.0105
  114MOL0     C15609   2.528   8.071   2.576  0.0279  0.2724 -1.4573
  114MOL0     C15610   2.463   8.193   2.497 -0.2536  0.0402  0.0684
  114MOL0     N15611   2.495   8.192   2.349 -0.7152  0.5965 -0.0874
  114MOL0     C15612   2.400   8.151   2.251 -0.0026 -0.2963  0.2408
  114MOL0     C15613   2.458   8.197   2.140 -0.4396  0.5805  1.2117
  114MOL0     C15614   2.413   8.185   1.996  0.4967  0.4224  0.5992
  114MOL0     C15615   2.491   8.262   1.889  0.0917  0.0358 -0.3055
  114MOL0     C15616   2.421   8.271   1.752 -1.0722  0.5536 -0.2835
  114MOL0     C15617   2.422   8.129   1.685  0.0149 -1.1857  0.2315
  114MOL0     O15618   2.556   8.081   1.653  0.3080 -0.6680  0.0265
  114MOL0     C15619   2.563   7.964   1.586  0.7474 -0.2062  0.2867
  114MOL0     C15620   2.674   7.943   1.505 -0.6047 -0.7424 -0.3136
  114MOL0     C15621   2.700   7.823   1.437 -0.6285 -0.1362  0.4996
  114MOL0     C15622   2.815   7.818   1.347 -0.0831 -0.0196  0.0664
  114MOL0     C15623   2.611   7.713   1.457 -0.1338  0.5602  0.5624
  114MOL0     C15624   2.627   7.590   1.392  0.3093 -0.2438  0.0597
  114MOL0     O15625   2.571   7.570   1.274 -0.7625 -0.9216 -0.3571
  114MOL0     C15626   2.585   7.453   1.207  0.9342  0.6540  0.3091
  114MOL0     C15627   2.471   7.369   1.194  0.0034 -0.2448 -0.6229
  114MOL0     C15628   2.489   7.234   1.148  0.4262 -0.1957  0.5712
  114MOL0     C15629   2.610   7.180   1.111 -0.2479  0.4890  0.0626
  114MOL0     O15630   2.623   7.063   1.034  1.1874  0.1553  0.2301
  114MOL0     C15631   2.523   6.964   1.038  0.1948 -0.5070 -0.3855
  114MOL0     C15632   2.569   6.834   0.980  0.0462 -0.7002  0.2063
  114MOL0     C15633   2.689   6.765   1.043  0.1780  1.5272 -0.1010
  114MOL0     C15634   2.755   6.683   0.935 -0.4895 -0.2027 -0.3918
  114MOL0     C15635   2.886   6.623   0.977 -0.3377  0.4182 -0.5763
  114MOL0     C15636   2.982   6.564   0.868  1.1244  0.7912  0.4561
  114MOL0     C15637   3.134   6.588   0.882 -0.0343 -0.1560 -0.5967
  114MOL0     C15638   3.181   6.518   1.006 -0.2525  0.2011  0.8351
  114MOL0    Cl15639   3.156   6.341   0.994 -0.1102 -0.3315  0.3785
  114MOL0     C15640   2.720   7.273   1.114  0.0068 -1.1150  0.3265
  114MOL0     C15641   2.713   7.403   1.167 -0.2529  0.5830 -0.8219
  114MOL0     O15642   2.684   7.505   1.456  0.1823 -0.2443 -0.3467
  114MOL0     C15643   2.500   7.730   1.529  0.0626  0.3468 -0.2724
  114MOL0     C15644   2.479   7.849   1.598 -0.5432 -0.0615 -0.3182
  114MOL0     N15645   2.584   8.251   2.166  0.4171  0.3420  0.8137
  114MOL0     N15646   2.603   8.248   2.288  0.9596  0.5616  0.1747
  114MOL0     C15647   2.890   8.300   3.382  0.2040  0.9310 -0.4353
  114MOL0     C15648   2.993   8.318   3.475 -0.1323  0.0521 -0.8482
  114MOL0     C15649   3.378   8.224   3.751 -0.9441 -0.1048  0.2806
  114MOL0     C15650   3.512   8.248   3.700 -0.5537 -0.1878  0.0430
  114MOL0     C15651   3.608   8.324   3.780 -0.4045  0.3159  0.0553
  114MOL0     C15652   3.572   8.361   3.911  0.3466 -0.4583 -0.0768
  114MOL0     O15653   3.655   8.430   3.998  0.2824  0.2530  0.0133
  114MOL0     C15654   3.782   8.479   3.961  0.1396 -0.0873 -0.1631
  114MOL0     C15655   3.770   8.626   3.903 -0.4819  0.2459  0.8885
  114MOL0     C15656   3.908   8.692   3.894  0.8363 -0.0241 -0.5155
  114MOL0     C15657   3.887   8.841   3.899 -0.2527 -0.9682  0.1465
  114MOL0     C15658   3.804   8.886   3.784  0.5184 -0.6407 -0.2275
  114MOL0     C15659   3.747   8.917   3.682 -0.9205  0.0405  0.7437
  114MOL0     C15660   3.444   8.330   3.957 -0.9842 -0.1271  0.5337
  114MOL0     C15661   3.343   8.273   3.876 -0.1456  0.8943 -0.0303
  114MOL0     C15662   3.207   8.240   3.926 -0.5822  0.0089  0.3783
  114MOL0     H15663   3.119   8.007   3.504  0.7848 -0.0204 -1.5468
  114MOL0     H15664   2.930   7.967   3.351  0.5890  0.6141 -1.0419
  114MOL0     H15665   2.665   8.329   3.177 -1.6726  0.3573 -0.9164
  114MOL0     H15666   2.608   8.253   3.328 -1.5482  1.8907 -1.4990
  114MOL0     H15667   2.535   8.058   3.197  2.0568  0.0911  0.1835
  114MOL0     H15668   2.455   8.213   3.145 -2.1874 -3.0278 -1.0025
  114MOL0     H15669   2.562   8.223   2.957  0.6811  1.3640  2.8504
  114MOL0     H15670   2.712   8.152   3.014  0.1747  0.5957 -0.8713
  114MOL0     H15671   2.616   7.918   3.004 -2.2689 -0.5031  1.9892
  114MOL0     H15672   2.469   7.988   2.957  1.3141 -1.5279  0.6211
  114MOL0     H15673   2.586   7.888   2.774  1.5337 -0.5246  2.6864
  114MOL0     H15674   2.715   8.007   2.795  0.5425 -0.4673 -0.0221
  114MOL0     H15675   2.425   8.118   2.749 -1.1246 -2.9665 -3.2878
  114MOL0     H15676   2.595   8.185   2.749  2.5880 -1.3222  0.3358
  114MOL0     H15677   2.480   7.974   2.557 -1.1534  0.4889  0.1749
  114MOL0     H15678   2.629   8.057   2.538  0.5217  0.5048 -0.2743
  114MOL0     H15679   2.355   8.194   2.516 -0.3301 -2.3360  0.0304
  114MOL0     H15680   2.509   8.282   2.540 -1.4009  0.1782  1.0792
  114MOL0     H15681   2.307   8.095   2.259 -0.6654  0.4461 -1.6417
  114MOL0     H15682   2.310   8.221   1.997  0.5266  0.5376  2.1899
  114MOL0     H15683   2.412   8.079   1.968  1.5258  0.6267 -0.2872
  114MOL0     H15684   2.496   8.361   1.936 -1.4487 -0.3948  0.8521
  114MOL0     H15685   2.596   8.231   1.880  0.1201 -0.4019  1.1918
  114MOL0     H15686   2.313   8.285   1.745 -0.7520  2.3823 -3.5741
  114MOL0     H15687   2.475   8.338   1.684 -0.4521  1.1480  0.7656
  114MOL0     H15688   2.368   8.054   1.743 -0.9921 -0.6409  0.0207
  114MOL0     H15689   2.366   8.156   1.595  2.7946  1.4411 -0.8917
  114MOL0     H15690   2.740   8.020   1.469 -0.5696 -1.7436 -2.5327
  114MOL0     H15691   2.904   7.803   1.409 -0.8674  1.9844  1.8258
  114MOL0     H15692   2.828   7.912   1.294  0.4542  0.4279  0.9634
  114MOL0     H15693   2.809   7.741   1.271  2.3709  1.2962 -1.5935
  114MOL0     H15694   2.376   7.404   1.233 -0.4615 -0.4593 -1.5483
  114MOL0     H15695   2.393   7.183   1.153 -0.5306  1.5382  0.8387
  114MOL0     H15696   2.488   6.960   1.141 -0.5120 -3.5971 -0.6216
  114MOL0     H15697   2.442   6.997   0.972  0.8627 -0.3055 -1.1250
  114MOL0     H15698   2.477   6.776   0.992 -0.1783 -0.6153 -1.0370
  114MOL0     H15699   2.583   6.855   0.874 -0.0931 -1.2522  0.0770
  114MOL0     H15700   2.658   6.687   1.114 -1.2190  0.3433 -1.9144
  114MOL0     H15701   2.763   6.836   1.081  3.3638 -1.1121 -0.9419
  114MOL0     H15702   2.771   6.750   0.850  1.6651 -1.4393 -1.0286
  114MOL0     H15703   2.684   6.606   0.905 -1.2748  0.6575 -0.8025
  114MOL0     H15704   2.947   6.707   1.014  3.2531 -1.1677 -2.4079
  114MOL0     H15705   2.871   6.552   1.058 -0.8847 -0.9920 -1.8723
  114MOL0     H15706   2.953   6.616   0.776  0.4879  2.8280  1.7570
  114MOL0     H15707   2.949   6.460   0.856 -2.2717  1.7691  0.1433
  114MOL0     H15708   3.159   6.692   0.902 -1.8823 -0.0092  1.3333
  114MOL0     H15709   3.195   6.546   0.802  2.3173 -0.4404  1.2430
  114MOL0     H15710   3.123   6.559   1.089 -1.0865  1.7263 -0.4441
  114MOL0     H15711   3.288   6.533   1.023  0.7233 -2.4823 -1.8890
  114MOL0     H15712   2.807   7.232   1.063 -0.6109  0.4365 -2.1738
  114MOL0     H15713   2.801   7.466   1.180  2.1229 -2.1569 -2.4165
  114MOL0     H15714   2.436   7.642   1.526 -1.1947  1.0395  2.6011
  114MOL0     H15715   2.391   7.848   1.661  0.2085  3.7857  1.0262
  114MOL0     H15716   2.834   8.380   3.335 -0.1781  0.7588 -0.2788
  114MOL0     H15717   3.008   8.420   3.509 -1.1888 -0.5654  1.7435
  114MOL0     H15718   3.531   8.224   3.596 -0.5931  7.1642 -2.2692
  114MOL0     H15719   3.709   8.350   3.749 -0.1554  0.3030  0.8186
  114MOL0     H15720   3.850   8.486   4.046 -0.8095 -0.6330  0.6609
  114MOL0     H15721   3.831   8.407   3.895 -3.4878 -1.1552 -1.9643
  114MOL0     H15722   3.698   8.686   3.961 -2.3853 -2.1602  1.1841
  114MOL0     H15723   3.721   8.616   3.806 -0.1624  0.6654  0.6783
  114MOL0     H15724   3.965   8.664   3.983 -1.3893 -1.2884  0.6169
  114MOL0     H15725   3.966   8.673   3.804 -0.0403  3.8186 -2.1145
  114MOL0     H15726   3.975   8.904   3.885 -3.0078  3.0612 -0.9734
  114MOL0     H15727   3.836   8.884   3.986  1.2582 -0.7670  0.9658
  114MOL0     H15728   3.686   8.962   3.606  0.3145 -2.5216 -1.9771
  114MOL0     H15729   3.420   8.349   4.061  1.1461  0.0730  1.0303
  114MOL0     H15730   3.213   8.139   3.965 -1.1149  0.7952  2.6459
  114MOL0     H15731   3.185   8.308   4.009 -4.3873  1.2261 -1.3597
  114MOL0     H15732   3.129   8.262   3.851 -0.6068 -0.7861  0.1653
  115MOL0     O15733   5.370   8.028   1.788 -0.0186 -1.1549 -0.1028
  115MOL0     C15734   5.329   8.093   1.685 -0.1716  0.3175  0.1158
  115MOL0     O15735   5.207   8.067   1.628 -0.2550  0.0217  0.2982
  115MOL0     C15736   5.165   7.931   1.641  0.8071 -0.4064  0.3835
  115MOL0     C15737   5.053   7.917   1.718  0.2348  0.1903 -0.0187
  115MOL0     C15738   4.995   7.791   1.742 -0.0847 -0.5282  0.6871
  115MOL0     C15739   5.059   7.676   1.684  0.1807  0.1738 -0.5161
  115MOL0     O15740   5.020   7.548   1.695  0.3753 -0.3070 -0.5976
  115MOL0     C15741   4.964   7.498   1.818 -0.1362  0.9649 -1.1576
  115MOL0     C15742   5.062   7.392   1.875 -0.6155 -0.0130 -0.0720
  115MOL0     C15743   5.153   7.438   1.985 -0.0366 -0.6293  0.2530
  115MOL0     C15744   5.207   7.580   1.952  0.3616 -0.7714 -0.1473
  115MOL0     C15745   5.322   7.617   2.036  0.2100  0.9671 -0.1273
  115MOL0     C15746   5.372   7.743   1.972 -1.1330  0.2989 -0.5675
  115MOL0     C15747   5.482   7.794   2.065  0.3671  0.4304 -0.6481
  115MOL0     C15748   5.557   7.896   1.986  0.3341  0.6300 -0.8517
  115MOL0     N15749   5.690   7.907   2.049 -0.0177 -0.2154  1.2515
  115MOL0     C15750   5.791   7.810   2.040  0.7451 -0.7089  0.1947
  115MOL0     C15751   5.908   7.885   2.062  0.2658  0.2468  0.5850
  115MOL0     C15752   6.039   7.827   2.051  0.3705 -0.1900  1.0232
  115MOL0     C15753   6.112   7.804   2.190 -0.5218  0.4098  0.2323
  115MOL0     C15754   6.272   7.818   2.181 -0.0929 -0.0573 -0.0182
  115MOL0     C15755   6.357   7.772   2.302 -0.0617 -0.3586 -0.8432
  115MOL0     O15756   6.459   7.868   2.316  0.0345  0.2527 -0.4298
  115MOL0     C15757   6.578   7.819   2.369  0.2282  0.6023 -0.2058
  115MOL0     C15758   6.601   7.690   2.426 -0.2145 -0.1108  0.2134
  115MOL0     C15759   6.723   7.664   2.492 -0.1692 -0.0807 -0.0105
  115MOL0     C15760   6.742   7.525   2.540 -0.1174  0.4968  0.0155
  115MOL0     C15761   6.817   7.765   2.514 -0.1991  0.7612 -0.6595
  115MOL0     C15762   6.950   7.755   2.573 -1.3967 -0.5801  0.3609
  115MOL0     O15763   7.047   7.852   2.542 -0.5161  0.3386  0.4867
  115MOL0     C15764   7.183   7.835   2.579  0.2584 -0.1471 -0.6741
  115MOL0     C15765   7.255   7.947   2.582  0.2519 -1.3548 -0.5747
  115MOL0     C15766   7.387   7.946   2.611  0.4622 -0.0941  0.2813
  115MOL0     C15767   7.453   7.832   2.631 -0.1464 -0.0781 -0.0229
  115MOL0     O15768   7.592   7.827   2.651  0.3955 -0.2434 -0.9765
  115MOL0     C15769   7.629   7.904   2.767 -0.3637 -0.0819 -0.4046
  115MOL0     C15770   7.587   7.840   2.895  0.7623 -0.0109 -0.7433
  115MOL0     C15771   7.646   7.903   3.017 -0.4530 -0.1264  0.4068
  115MOL0     C15772   7.578   8.038   3.050 -0.3870 -0.2019  0.9801
  115MOL0     C15773   7.485   8.016   3.169  0.1765  0.1071  0.0570
  115MOL0     C15774   7.395   7.887   3.165 -0.4770 -0.1857 -0.7436
  115MOL0     C15775   7.352   7.841   3.312 -0.1085  0.4180  0.1855
  115MOL0     C15776   7.455   7.765   3.384 -0.7768 -1.5180  0.3512
  115MOL0    Cl15777   7.465   7.599   3.321  0.1031 -0.5926  0.1798
  115MOL0     C15778   7.393   7.710   2.619  0.4897 -0.0316  0.5726
  115MOL0     C15779   7.248   7.712   2.607 -0.7778 -0.4649  0.7027
  115MOL0     O15780   6.969   7.668   2.659  0.1355  0.6768 -0.4689
  115MOL0     C15781   6.800   7.886   2.450  1.6805 -0.3702  0.3884
  115MOL0     C15782   6.678   7.915   2.384  0.1389  0.1291  0.6082
  115MOL0     N15783   5.875   8.014   2.101 -0.7712 -0.0709  0.3186
  115MOL0     N15784   5.742   8.028   2.090 -0.0740 -0.1339 -0.5818
  115MOL0     C15785   5.180   7.697   1.623 -0.0833 -0.1182  0.0661
  115MOL0     C15786   5.239   7.823   1.593  0.1116  0.2463  0.0406
  115MOL0     C15787   5.396   8.221   1.650  0.5300  0.2115 -0.9768
  115MOL0     C15788   5.466   8.284   1.752  0.0706 -0.5400 -1.1009
  115MOL0     C15789   5.532   8.412   1.723  0.3117 -0.0409 -0.2867
  115MOL0     C15790   5.503   8.481   1.605  0.5025  0.6641 -0.0715
  115MOL0     O15791   5.568   8.591   1.569  0.3628 -1.0742 -0.0539
  115MOL0     C15792   5.633   8.671   1.672  0.1636  0.2062 -0.4867
  115MOL0     C15793   5.648   8.816   1.621  0.0681 -0.1402  0.2598
  115MOL0     C15794   5.713   8.892   1.738 -0.7244 -0.0289 -0.4392
  115MOL0     C15795   5.860   8.852   1.745  0.6780 -0.1038 -0.6962
  115MOL0     C15796   5.944   8.844   1.620  0.2245  1.2437 -0.7949
  115MOL0     C15797   6.011   8.833   1.520 -1.0817 -0.1441  0.4844
  115MOL0     C15798   5.418   8.416   1.510 -0.2664  0.2898  0.1533
  115MOL0     C15799   5.367   8.286   1.533 -0.4079  0.0048  0.7055
  115MOL0     C15800   5.287   8.242   1.415 -0.1813  0.4735  0.2518
  115MOL0     H15801   4.995   8.000   1.758  0.1775 -0.1332  0.5726
  115MOL0     H15802   4.902   7.777   1.798 -0.4735  1.1512  0.5181
  115MOL0     H15803   4.868   7.449   1.798 -2.3247  3.5571  2.0483
  115MOL0     H15804   4.928   7.569   1.893 -2.1026 -2.1258  1.1201
  115MOL0     H15805   5.008   7.300   1.899 -0.6943 -0.6768 -2.5178
  115MOL0     H15806   5.126   7.357   1.794 -1.5750 -3.4304  0.4616
  115MOL0     H15807   5.103   7.443   2.082  1.6029  1.6186  1.0804
  115MOL0     H15808   5.237   7.368   1.991  0.4272  0.0153  1.8027
  115MOL0     H15809   5.238   7.566   1.848 -1.7395 -4.0254 -0.4985
  115MOL0     H15810   5.128   7.655   1.947 -0.7186 -1.9531 -3.6647
  115MOL0     H15811   5.402   7.542   2.035 -1.5392 -1.0048 -1.2856
  115MOL0     H15812   5.296   7.637   2.140 -2.6578 -0.2118 -0.5391
  115MOL0     H15813   5.403   7.724   1.869 -1.4111 -0.6319 -0.4865
  115MOL0     H15814   5.301   7.825   1.969 -0.2373  1.1330 -4.6355
  115MOL0     H15815   5.543   7.708   2.096 -3.2852 -2.4041 -0.5157
  115MOL0     H15816   5.446   7.842   2.156  2.2641  1.4900 -0.4132
  115MOL0     H15817   5.566   7.869   1.881  0.9228  0.1718 -0.6828
  115MOL0     H15818   5.503   7.991   1.994 -1.0994 -0.2938  2.5475
  115MOL0     H15819   5.789   7.705   2.011 -0.2211 -1.4077  2.5434
  115MOL0     H15820   6.093   7.886   1.976 -1.6659 -0.8595 -1.0743
  115MOL0     H15821   6.040   7.726   2.008 -1.4282  0.8248 -1.6612
  115MOL0     H15822   6.080   7.879   2.263  1.8483  1.0405  0.7417
  115MOL0     H15823   6.086   7.704   2.226 -1.3482  1.0474  1.5026
  115MOL0     H15824   6.300   7.753   2.097 -2.8959 -0.7082 -0.5606
  115MOL0     H15825   6.299   7.922   2.164 -1.0150 -0.2240 -3.1332
  115MOL0     H15826   6.301   7.751   2.394  0.4094 -2.3450 -0.9641
  115MOL0     H15827   6.397   7.674   2.276  1.2379  0.0160 -0.3652
  115MOL0     H15828   6.514   7.627   2.411 -2.7572  3.5156 -1.8205
  115MOL0     H15829   6.688   7.448   2.483  0.9282  0.4317 -0.9180
  115MOL0     H15830   6.705   7.518   2.643  1.6782  3.0589  0.9240
  115MOL0     H15831   6.844   7.487   2.532 -0.9010 -1.9310  0.7724
  115MOL0     H15832   7.214   8.044   2.555  3.4257 -0.1645 -1.5951
  115MOL0     H15833   7.448   8.036   2.605 -0.8166  0.7557 -0.7129
  115MOL0     H15834   7.736   7.927   2.759 -0.5524  0.3148 -2.3355
  115MOL0     H15835   7.589   8.005   2.755  1.1892  0.8477  1.5830
  115MOL0     H15836   7.478   7.846   2.891  0.8055  0.4769 -1.4913
  115MOL0     H15837   7.628   7.739   2.893 -2.7012 -1.7202  2.2306
  115MOL0     H15838   7.754   7.917   3.005  0.2230 -3.9042  0.7109
  115MOL0     H15839   7.644   7.834   3.102  1.0561  0.7341  1.1918
  115MOL0     H15840   7.521   8.077   2.965 -0.1511 -2.1897 -0.1639
  115MOL0     H15841   7.643   8.122   3.076 -1.3830  1.4758 -1.5248
  115MOL0     H15842   7.547   8.003   3.258  0.5823 -0.4536 -0.2924
  115MOL0     H15843   7.421   8.100   3.194  0.4000 -0.1810  1.6928
  115MOL0     H15844   7.431   7.808   3.098 -2.0449 -0.5962 -1.1309
  115MOL0     H15845   7.298   7.902   3.117  0.5613  1.3124 -2.5138
  115MOL0     H15846   7.264   7.779   3.297  1.4042 -1.8808  0.2128
  115MOL0     H15847   7.314   7.923   3.374  0.1504  2.8797 -2.6639
  115MOL0     H15848   7.415   7.758   3.486 -2.6757  0.1418 -0.2017
  115MOL0     H15849   7.548   7.822   3.377 -1.3473 -0.6549 -0.4047
  115MOL0     H15850   7.458   7.623   2.623 -1.6530 -1.7890 -0.4712
  115MOL0     H15851   7.197   7.620   2.581 -0.2069 -0.8201  0.8349
  115MOL0     H15852   6.872   7.967   2.454  3.7401 -2.1449  0.6938
  115MOL0     H15853   6.645   8.011   2.346 -2.5044 -0.0248  2.2214
  115MOL0     H15854   5.227   7.608   1.583 -0.5165  0.4704 -1.8668
  115MOL0     H15855   5.329   7.828   1.533 -1.7375 -1.7055 -3.2032
  115MOL0     H15856   5.468   8.235   1.849 -0.2659 -0.3828 -1.0104
  115MOL0     H15857   5.591   8.451   1.805  0.5518 -2.0335  0.5468
  115MOL0     H15858   5.569   8.670   1.760 -2.0157 -4.2432 -1.8008
  115MOL0     H15859   5.731   8.622   1.680 -0.5906 -1.2700  0.1462
  115MOL0     H15860   5.553   8.865   1.598  0.5668 -0.3082 -2.4852
  115MOL0     H15861   5.696   8.814   1.523  1.4384  0.2512  0.9077
  115MOL0     H15862   5.706   8.999   1.717 -0.4543  0.2203  0.7281
  115MOL0     H15863   5.675   8.868   1.837 -0.6857 -2.5685 -0.9591
  115MOL0     H15864   5.877   8.754   1.791  1.8662 -0.4456 -1.7992
  115MOL0     H15865   5.896   8.940   1.799 -0.8014 -0.4815  0.9815
  115MOL0     H15866   6.080   8.844   1.438 -2.5874  2.9614 -0.5200
  115MOL0     H15867   5.391   8.475   1.423 -0.7571  0.9355  0.7310
  115MOL0     H15868   5.291   8.304   1.324  2.3636  0.7217  0.4495
  115MOL0     H15869   5.329   8.144   1.390 -1.9093 -0.2701  0.1534
  115MOL0     H15870   5.186   8.231   1.455 -0.5783 -1.7152 -1.1656
  116MOL0     O15871  11.054   1.447   4.222 -0.2671 -0.1430  0.0464
  116MOL0     C15872  11.084   1.359   4.138  0.8496 -0.7745  0.2474
  116MOL0     O15873  11.198   1.359   4.071 -0.7720 -0.0978  0.5161
  116MOL0     C15874  11.311   1.435   4.081  0.7051 -0.1347 -0.4407
  116MOL0     C15875  11.321   1.565   4.127  0.7622  0.1592 -0.0256
  116MOL0     C15876  11.443   1.637   4.106 -0.0813  0.0022  0.2063
  116MOL0     C15877  11.553   1.580   4.039 -0.0696  0.2321 -0.2538
  116MOL0     O15878  11.668   1.645   4.020  0.2722  0.0843 -0.3231
  116MOL0     C15879  11.684   1.782   4.032 -0.2846 -0.5018  0.0982
  116MOL0     C15880  11.826   1.831   3.989  0.3380  0.4828 -0.2966
  116MOL0     C15881  11.848   1.978   4.035  0.4527 -0.0318 -1.0535
  116MOL0     C15882  11.994   2.018   4.006  0.0699 -0.3274  0.0713
  116MOL0     C15883  12.016   2.164   4.059 -0.2313 -0.8597 -0.1575
  116MOL0     C15884  12.158   2.209   4.036  0.2233  0.0421  0.1305
  116MOL0     C15885  12.192   2.256   3.891  0.2758 -0.5183  0.2102
  116MOL0     C15886  12.343   2.222   3.861  0.7503  0.0499  0.1960
  116MOL0     N15887  12.361   2.104   3.787 -0.4467 -0.4151  0.1469
  116MOL0     C15888  12.319   1.984   3.836 -0.0209  0.6194  0.2267
  116MOL0     C15889  12.390   1.896   3.772  0.4425  1.3291 -0.1657
  116MOL0     C15890  12.385   1.746   3.792 -0.2443 -0.2359  0.1737
  116MOL0     C15891  12.271   1.676   3.713  0.7560 -0.5584 -0.6715
  116MOL0     C15892  12.132   1.736   3.733  1.7458 -0.1720 -0.0661
  116MOL0     C15893  12.036   1.662   3.633  0.1678 -0.5499  0.2600
  116MOL0     O15894  11.900   1.723   3.645 -1.4121 -0.0640  0.3623
  116MOL0     C15895  11.800   1.640   3.654  1.1746  0.0018 -0.2153
  116MOL0     C15896  11.678   1.695   3.697 -0.9131  0.4088 -0.7063
  116MOL0     C15897  11.563   1.617   3.716 -0.0496 -0.1340  0.6795
  116MOL0     C15898  11.437   1.690   3.753  0.3873 -0.7315 -0.3415
  116MOL0     C15899  11.559   1.478   3.679  0.4224  0.6800 -0.2718
  116MOL0     C15900  11.442   1.392   3.675  0.5654  0.1428 -0.5019
  116MOL0     O15901  11.323   1.438   3.621  0.0276  0.8346 -0.2161
  116MOL0     C15902  11.217   1.349   3.595 -0.0822  0.2978  0.3736
  116MOL0     C15903  11.082   1.361   3.646 -0.8242  0.3359 -0.0010
  116MOL0     C15904  10.976   1.276   3.607  0.4104  0.4012 -0.0248
  116MOL0     C15905  11.009   1.170   3.528  0.3402  0.6301 -0.0375
  116MOL0     O15906  10.917   1.075   3.499 -0.4581 -0.2884 -0.3173
  116MOL0     C15907  10.786   1.118   3.447 -0.3293 -1.1844 -1.1893
  116MOL0     C15908  10.687   1.000   3.464 -0.5575 -0.7644  0.1808
  116MOL0     C15909  10.537   1.027   3.430 -0.4415 -0.6239 -0.1336
  116MOL0     C15910  10.475   1.136   3.509 -0.1602 -0.9360 -0.6983
  116MOL0     C15911  10.336   1.189   3.462 -0.4576 -1.4544 -0.2220
  116MOL0     C15912  10.245   1.057   3.459 -0.2008 -0.4868  0.4736
  116MOL0     C15913  10.093   1.079   3.439  0.4515 -0.5795 -0.4608
  116MOL0     C15914  10.000   0.957   3.467  0.2093  0.4012 -0.4822
  116MOL0    Cl15915   9.872   0.964   3.346 -0.1760  0.0627 -0.1612
  116MOL0     C15916  11.141   1.138   3.494  0.2374 -0.2402 -1.0594
  116MOL0     C15917  11.242   1.231   3.519 -0.7810  0.2613 -0.3184
  116MOL0     O15918  11.459   1.277   3.719 -0.1981  0.9816 -0.1592
  116MOL0     C15919  11.678   1.427   3.622 -0.3958  0.5211  0.1215
  116MOL0     C15920  11.801   1.499   3.618  0.3589  0.9179  0.4524
  116MOL0     N15921  12.467   1.958   3.675 -0.7350  0.3626  0.0163
  116MOL0     N15922  12.433   2.085   3.672 -0.2036  0.1181  0.0725
  116MOL0     C15923  11.541   1.448   4.012 -0.5294 -0.5900 -0.1156
  116MOL0     C15924  11.424   1.374   4.033  0.4783  0.6837 -0.3475
  116MOL0     C15925  11.000   1.238   4.144  0.1055  0.2350 -0.5984
  116MOL0     C15926  10.926   1.217   4.255  0.7582  0.3536  0.7489
  116MOL0     C15927  10.853   1.102   4.272 -1.0256 -0.7287  0.5581
  116MOL0     C15928  10.857   0.997   4.182  0.0422  0.7006  0.5795
  116MOL0     O15929  10.792   0.880   4.195 -0.4006 -0.8598 -0.5026
  116MOL0     C15930  10.720   0.856   4.321 -0.4148  0.3062 -0.5533
  116MOL0     C15931  10.573   0.913   4.327  0.8540 -0.2981 -0.1687
  116MOL0     C15932  10.497   0.854   4.448 -1.2202 -0.7694  1.1621
  116MOL0     C15933  10.423   0.720   4.420  0.1143 -0.2452 -0.0563
  116MOL0     C15934  10.372   0.682   4.546  1.6460  1.2597 -0.7941
  116MOL0     C15935  10.306   0.637   4.647 -0.3165 -0.4637 -0.0220
  116MOL0     C15936  10.938   1.017   4.068 -0.1327 -0.8177  0.6287
  116MOL0     C15937  11.004   1.140   4.041 -1.5550  0.0630 -0.2820
  116MOL0     C15938  11.091   1.145   3.908 -0.3449 -0.0331  0.1198
  116MOL0     H15939  11.235   1.621   4.165 -1.3041 -1.5579 -1.8775
  116MOL0     H15940  11.459   1.737   4.143  0.3252 -0.1385  0.4159
  116MOL0     H15941  11.670   1.820   4.133  0.2152  0.4517 -0.1843
  116MOL0     H15942  11.608   1.828   3.968  1.3113  0.4059 -1.2196
  116MOL0     H15943  11.897   1.766   4.040 -0.1289 -1.8386 -2.3930
  116MOL0     H15944  11.836   1.822   3.881 -3.1774 -3.1155 -0.5396
  116MOL0     H15945  11.792   2.045   3.969  0.1958  0.1754 -0.6254
  116MOL0     H15946  11.826   1.993   4.141  1.8650  0.2344 -0.7773
  116MOL0     H15947  12.062   1.943   4.047  0.9658  0.9506  0.9943
  116MOL0     H15948  12.011   2.035   3.899  3.2484  4.1244  1.0098
  116MOL0     H15949  11.978   2.167   4.162 -0.4282 -0.6183 -0.2371
  116MOL0     H15950  11.950   2.221   3.993  0.2661  0.5891  0.5744
  116MOL0     H15951  12.159   2.297   4.101  1.3609 -0.8272  1.3404
  116MOL0     H15952  12.231   2.137   4.074  1.6530  1.2805 -0.1855
  116MOL0     H15953  12.160   2.360   3.881  0.5151 -0.6227 -2.3214
  116MOL0     H15954  12.138   2.199   3.815  1.5301 -3.4390  1.3407
  116MOL0     H15955  12.377   2.307   3.801 -1.2113  0.8042  0.0741
  116MOL0     H15956  12.392   2.211   3.958 -0.8392 -0.2269  0.9944
  116MOL0     H15957  12.255   1.963   3.921 -0.3347  0.5570 -0.0219
  116MOL0     H15958  12.375   1.738   3.901 -1.3684  3.1019  0.4437
  116MOL0     H15959  12.483   1.704   3.768  1.0320  1.4450  2.1185
  116MOL0     H15960  12.304   1.685   3.610  1.1911 -0.5040 -0.5281
  116MOL0     H15961  12.258   1.574   3.751 -2.2497 -0.8633 -2.1434
  116MOL0     H15962  12.090   1.737   3.834  1.2071 -0.6192 -0.2823
  116MOL0     H15963  12.134   1.840   3.697 -1.5311 -0.7021 -2.1919
  116MOL0     H15964  12.079   1.667   3.532  0.3520  0.2972  0.3679
  116MOL0     H15965  12.034   1.554   3.651  0.5991 -0.4343  1.0119
  116MOL0     H15966  11.684   1.802   3.718  2.3396  0.4161 -1.1754
  116MOL0     H15967  11.373   1.639   3.826 -1.4922 -3.0016 -3.3298
  116MOL0     H15968  11.366   1.709   3.672 -3.2793 -0.8630  2.5490
  116MOL0     H15969  11.449   1.788   3.799 -1.9990 -0.8666  0.7179
  116MOL0     H15970  11.071   1.443   3.716 -0.5509 -0.1926  0.6771
  116MOL0     H15971  10.876   1.292   3.646 -1.0400 -2.9720 -1.9815
  116MOL0     H15972  10.738   1.195   3.508 -0.4259 -2.1165 -0.0651
  116MOL0     H15973  10.781   1.156   3.345  0.1011 -4.2154 -2.4548
  116MOL0     H15974  10.711   0.912   3.404  0.0232 -0.3512 -0.1999
  116MOL0     H15975  10.694   0.963   3.567 -1.9618  1.4125  1.1311
  116MOL0     H15976  10.489   0.929   3.427  1.1569 -1.4804  0.7004
  116MOL0     H15977  10.544   1.064   3.327  2.7823  0.2354  0.2783
  116MOL0     H15978  10.542   1.220   3.528 -0.5936 -0.8881  0.6677
  116MOL0     H15979  10.458   1.091   3.607 -0.6661  1.3444  0.3319
  116MOL0     H15980  10.293   1.266   3.526  1.6320 -0.9387  0.6654
  116MOL0     H15981  10.347   1.226   3.360 -4.0714 -1.7222 -0.8375
  116MOL0     H15982  10.260   1.006   3.555  0.2371  0.0274  0.6788
  116MOL0     H15983  10.271   0.987   3.379 -0.5925  1.0543 -1.0410
  116MOL0     H15984  10.071   1.104   3.335  0.0762 -0.6941 -0.4118
  116MOL0     H15985  10.058   1.161   3.502 -1.8698 -1.4163 -0.5673
  116MOL0     H15986   9.956   0.954   3.567 -1.8785 -0.9525 -1.3835
  116MOL0     H15987  10.061   0.866   3.469  3.1984  2.2593  1.2875
  116MOL0     H15988  11.166   1.055   3.428 -1.1481  0.8348 -3.0244
  116MOL0     H15989  11.348   1.211   3.505  0.1238  3.6442  0.6794
  116MOL0     H15990  11.691   1.328   3.579  0.3934  1.0815 -0.9697
  116MOL0     H15991  11.887   1.458   3.565  1.3144  4.0179 -0.6233
  116MOL0     H15992  11.617   1.415   3.942  1.0063 -0.3614  1.3883
  116MOL0     H15993  11.419   1.279   3.981 -1.1907  0.1772  0.6465
  116MOL0     H15994  10.920   1.293   4.333  1.6283  0.5177  0.6626
  116MOL0     H15995  10.795   1.097   4.364  0.0556  0.7829  1.3730
  116MOL0     H15996  10.731   0.747   4.325  1.6202  0.5084  0.6586
  116MOL0     H15997  10.761   0.895   4.415 -1.8500 -0.7947  0.5770
  116MOL0     H15998  10.522   0.876   4.238  1.6872  1.5691 -1.4877
  116MOL0     H15999  10.560   1.022   4.324  1.6050 -0.2188 -1.7505
  116MOL0     H16000  10.569   0.832   4.527  0.8819  0.8516 -0.1750
  116MOL0     H16001  10.438   0.930   4.500 -1.5639  1.4761 -2.1930
  116MOL0     H16002  10.484   0.645   4.369  1.7433  1.4633 -0.7386
  116MOL0     H16003  10.333   0.738   4.360  2.2344  4.5560 -2.4038
  116MOL0     H16004  10.264   0.598   4.738 -0.7483 -0.0034 -0.0263
  116MOL0     H16005  10.947   0.933   3.999 -1.2768 -2.4196  2.3710
  116MOL0     H16006  11.068   1.239   3.858  2.5163  1.0186  0.6001
  116MOL0     H16007  11.199   1.148   3.924  0.0380 -0.6724 -2.0212
  116MOL0     H16008  11.074   1.053   3.852  1.1814  0.7300 -1.6856
  117MOL0     O16009   6.824   4.655   4.494 -0.4902 -0.5552  0.1995
  117MOL0     C16010   6.855   4.568   4.412 -0.5105  0.1658  0.0670
  117MOL0     O16011   6.822   4.574   4.276 -0.4167  0.0421  0.2000
  117MOL0     C16012   6.780   4.679   4.200 -0.2055  0.3913 -0.6516
  117MOL0     C16013   6.658   4.749   4.231  0.3820 -0.7271 -1.0889
  117MOL0     C16014   6.602   4.843   4.148 -0.4808 -0.2342  0.0923
  117MOL0     C16015   6.666   4.875   4.023  0.4122  0.3297 -0.1150
  117MOL0     O16016   6.613   4.966   3.936  0.6345  0.4977 -0.3223
  117MOL0     C16017   6.658   4.972   3.802  0.0429 -0.1049  0.2504
  117MOL0     C16018   6.593   5.091   3.739 -0.0021 -0.4076 -0.7118
  117MOL0     C16019   6.447   5.088   3.706  0.5598 -0.3294  0.2055
  117MOL0     C16020   6.361   5.155   3.820 -0.3110  0.1812  0.5621
  117MOL0     C16021   6.214   5.147   3.779 -0.2030  0.3262 -0.1639
  117MOL0     C16022   6.192   5.224   3.653  0.0678 -1.0271  0.4699
  117MOL0     C16023   6.050   5.255   3.607  0.3538 -0.2468 -0.4085
  117MOL0     C16024   6.053   5.375   3.514 -0.5701 -1.2924 -0.0250
  117MOL0     N16025   5.936   5.395   3.428 -0.2035  0.5377 -0.2838
  117MOL0     C16026   5.923   5.343   3.298 -0.7486  0.7778  0.0201
  117MOL0     C16027   5.785   5.367   3.270  0.0658 -0.0024  1.2078
  117MOL0     C16028   5.711   5.347   3.135  0.3712 -0.1960  0.3557
  117MOL0     C16029   5.802   5.374   3.016  0.3881 -0.0111 -0.0292
  117MOL0     C16030   5.719   5.351   2.888 -0.6218  0.5724 -1.0030
  117MOL0     C16031   5.724   5.203   2.840  0.1390 -0.2903  0.4755
  117MOL0     O16032   5.660   5.199   2.708 -0.1853 -0.4394 -0.3286
  117MOL0     C16033   5.673   5.079   2.633 -0.3938 -0.0752 -0.1615
  117MOL0     C16034   5.742   4.963   2.676 -0.8425 -0.0271 -0.3951
  117MOL0     C16035   5.747   4.847   2.591  0.3659  0.5850  0.2758
  117MOL0     C16036   5.843   4.733   2.621 -0.0446 -0.4413  0.8450
  117MOL0     C16037   5.681   4.849   2.469  0.3087 -0.1348 -0.3890
  117MOL0     C16038   5.686   4.740   2.369 -1.4018 -0.0187  0.2815
  117MOL0     O16039   5.693   4.609   2.405  0.0127 -0.0530  0.4262
  117MOL0     C16040   5.715   4.515   2.314  0.0339 -0.2829  0.3785
  117MOL0     C16041   5.610   4.434   2.263  0.4640  0.3867  1.1275
  117MOL0     C16042   5.633   4.361   2.147  0.3502  0.9911 -0.2262
  117MOL0     C16043   5.757   4.343   2.080 -0.4060 -1.1655  0.1432
  117MOL0     O16044   5.787   4.244   1.987  0.1472  0.1177  0.1224
  117MOL0     C16045   5.682   4.191   1.905  0.2783  0.8034  0.2564
  117MOL0     C16046   5.740   4.116   1.798  0.0802  0.2936  0.3118
  117MOL0     C16047   5.803   4.214   1.704 -0.1286 -0.1520 -0.3624
  117MOL0     C16048   5.870   4.164   1.579  0.1343  0.6270 -0.6088
  117MOL0     C16049   5.919   4.278   1.498  0.2875  0.7504  0.0796
  117MOL0     C16050   5.951   4.239   1.357 -0.0583  0.0030  0.2877
  117MOL0     C16051   6.031   4.343   1.274  0.2349 -0.1841 -0.5660
  117MOL0     C16052   5.988   4.491   1.290 -0.4733 -0.0434 -1.0033
  117MOL0    Cl16053   6.085   4.596   1.171 -0.1881 -0.4868  0.2855
  117MOL0     C16054   5.862   4.410   2.139  0.1824 -0.4630 -0.8039
  117MOL0     C16055   5.844   4.493   2.263 -0.1109  0.7594 -0.1379
  117MOL0     O16056   5.681   4.780   2.255 -0.0371 -0.1949  0.8322
  117MOL0     C16057   5.609   4.971   2.437  0.9295  0.8051 -0.1545
  117MOL0     C16058   5.614   5.085   2.515  0.9298  0.9833  0.2909
  117MOL0     N16059   5.736   5.442   3.369 -0.4559  1.0500  0.5274
  117MOL0     N16060   5.820   5.450   3.471  0.4342  0.1276  0.2775
  117MOL0     C16061   6.787   4.813   4.000 -0.0449  0.1642 -0.7914
  117MOL0     C16062   6.843   4.718   4.082  0.7519  0.1532 -0.5424
  117MOL0     C16063   6.920   4.450   4.450 -0.1628  0.2817  0.4061
  117MOL0     C16064   6.853   4.367   4.537  0.7336 -0.2264 -0.4389
  117MOL0     C16065   6.890   4.232   4.553 -0.1729 -0.5287  0.9267
  117MOL0     C16066   6.986   4.177   4.470 -0.2794 -0.2618  0.4178
  117MOL0     O16067   6.998   4.038   4.470  0.0277  0.0783 -0.6799
  117MOL0     C16068   6.914   3.967   4.565 -0.5595 -0.3184  0.0035
  117MOL0     C16069   6.933   3.811   4.562  0.0328 -1.9603  0.3892
  117MOL0     C16070   7.065   3.771   4.495 -0.2414  0.0932 -1.3296
  117MOL0     C16071   7.090   3.799   4.346 -0.1619 -0.0745  0.5128
  117MOL0     C16072   7.209   3.718   4.304 -0.1694 -0.6404 -0.4850
  117MOL0     C16073   7.306   3.648   4.292  0.0199  0.8132  0.8956
  117MOL0     C16074   7.049   4.263   4.381  0.1750  0.4643  0.9839
  117MOL0     C16075   7.023   4.393   4.366 -0.5283 -0.5326 -1.0204
  117MOL0     C16076   7.112   4.479   4.282 -0.9823 -0.6243  0.1364
  117MOL0     H16077   6.615   4.728   4.328  1.6535  1.3608  0.0163
  117MOL0     H16078   6.502   4.879   4.170 -0.4693 -0.7800  1.0857
  117MOL0     H16079   6.620   4.883   3.751  1.2976  0.3785 -1.6243
  117MOL0     H16080   6.765   4.991   3.788 -1.0822  5.2203 -4.3913
  117MOL0     H16081   6.624   5.175   3.802  0.0141 -1.8298  1.2805
  117MOL0     H16082   6.650   5.090   3.645  1.3767 -3.6248  0.0087
  117MOL0     H16083   6.430   5.141   3.612 -1.7621 -1.2333  0.0548
  117MOL0     H16084   6.412   4.986   3.688  1.8094 -0.4417 -1.8521
  117MOL0     H16085   6.374   5.104   3.915  1.1039 -0.3681  0.1015
  117MOL0     H16086   6.396   5.258   3.822 -0.8862  0.3844  0.4773
  117MOL0     H16087   6.155   5.183   3.863  1.8998  3.3572  0.1604
  117MOL0     H16088   6.180   5.044   3.762 -2.3133  1.0291 -0.4776
  117MOL0     H16089   6.243   5.321   3.651 -2.0541  0.2316  2.2000
  117MOL0     H16090   6.234   5.176   3.564  5.1448  1.0831  1.3912
  117MOL0     H16091   5.986   5.283   3.692  3.0133 -1.3758  2.1183
  117MOL0     H16092   6.000   5.171   3.557 -1.8480  1.2818 -0.9102
  117MOL0     H16093   6.071   5.456   3.585 -0.3792 -1.3470 -0.0104
  117MOL0     H16094   6.133   5.372   3.439 -1.0242 -0.9827 -0.5329
  117MOL0     H16095   5.999   5.288   3.243 -0.8520  3.7191 -3.4452
  117MOL0     H16096   5.621   5.409   3.122 -1.8132 -3.4939 -1.9721
  117MOL0     H16097   5.681   5.242   3.133 -1.5331  0.2749  1.1766
  117MOL0     H16098   5.838   5.476   3.026 -3.6357  1.5971  0.1115
  117MOL0     H16099   5.891   5.311   3.016  1.3367  1.2468 -1.9178
  117MOL0     H16100   5.614   5.379   2.898 -1.1972 -1.4045 -1.1456
  117MOL0     H16101   5.747   5.419   2.807 -3.0688  2.6785 -0.2112
  117MOL0     H16102   5.828   5.175   2.821 -0.0682  0.1401 -1.4781
  117MOL0     H16103   5.664   5.134   2.899  2.1207 -0.6269  2.2316
  117MOL0     H16104   5.799   4.980   2.767 -1.9104 -0.4143  0.3604
  117MOL0     H16105   5.790   4.638   2.616  0.1108 -0.4772 -0.3398
  117MOL0     H16106   5.882   4.746   2.722 -0.3605  1.3494  0.7777
  117MOL0     H16107   5.929   4.736   2.553 -0.7649  0.6998 -0.0602
  117MOL0     H16108   5.516   4.453   2.314 -0.4916  1.0027 -0.7694
  117MOL0     H16109   5.551   4.303   2.106  1.4931  0.0778 -1.3035
  117MOL0     H16110   5.615   4.126   1.963 -1.4697  1.6803 -0.6789
  117MOL0     H16111   5.620   4.270   1.862 -0.9047 -1.6105 -2.8308
  117MOL0     H16112   5.814   4.045   1.837  1.5571  0.4549 -2.0566
  117MOL0     H16113   5.659   4.056   1.755  1.6515 -1.5750 -0.1991
  117MOL0     H16114   5.865   4.283   1.763  2.2429  1.6654 -4.5352
  117MOL0     H16115   5.715   4.270   1.674  0.1866 -0.0740 -1.1476
  117MOL0     H16116   5.789   4.117   1.523 -0.2157  1.0453 -0.4596
  117MOL0     H16117   5.947   4.088   1.594 -0.8851 -0.6121 -1.4266
  117MOL0     H16118   5.862   4.371   1.496  0.2912  0.7644  0.4905
  117MOL0     H16119   6.008   4.317   1.549 -0.2223  1.9144  0.1090
  117MOL0     H16120   5.851   4.223   1.315  0.1901 -0.3009 -0.1971
  117MOL0     H16121   6.010   4.147   1.359  3.0508  1.7010 -2.5536
  117MOL0     H16122   6.006   4.320   1.170 -0.7640  0.2941 -0.4444
  117MOL0     H16123   6.139   4.340   1.295  0.3693  1.4711 -0.8808
  117MOL0     H16124   6.008   4.539   1.386 -0.9664  1.3997 -1.5944
  117MOL0     H16125   5.880   4.504   1.272 -0.6700  1.0004  0.6432
  117MOL0     H16126   5.959   4.396   2.094 -1.1285 -3.6956 -2.9973
  117MOL0     H16127   5.923   4.547   2.316 -1.5418  3.4118 -0.5455
  117MOL0     H16128   5.555   4.969   2.342  0.0173  1.9910  0.3102
  117MOL0     H16129   5.558   5.174   2.487  1.0893  1.2646  0.8336
  117MOL0     H16130   6.857   4.839   3.921 -1.0615  2.7687 -0.9428
  117MOL0     H16131   6.935   4.670   4.049 -0.1017 -1.9272 -0.0388
  117MOL0     H16132   6.770   4.400   4.599  1.5559 -0.7066  0.9813
  117MOL0     H16133   6.836   4.194   4.639 -2.8477  3.4973  1.3144
  117MOL0     H16134   6.928   4.001   4.668 -0.5930  2.4834 -0.8254
  117MOL0     H16135   6.807   3.988   4.550 -0.9357 -1.6821  0.6044
  117MOL0     H16136   6.844   3.776   4.508 -1.0862  1.5475 -0.2813
  117MOL0     H16137   6.942   3.780   4.666  1.4493  0.7807  1.1793
  117MOL0     H16138   7.149   3.825   4.539  0.7566 -2.0781 -0.4229
  117MOL0     H16139   7.085   3.668   4.525 -2.2367  0.8784  3.7035
  117MOL0     H16140   7.121   3.901   4.325  1.5366 -0.9192 -1.4606
  117MOL0     H16141   7.010   3.751   4.287  1.9406 -1.5792 -1.3003
  117MOL0     H16142   7.395   3.596   4.263 -1.6347 -0.8588 -1.6411
  117MOL0     H16143   7.133   4.215   4.331  1.0362 -0.6098  3.3080
  117MOL0     H16144   7.205   4.507   4.332  0.2193 -1.6447 -1.4359
  117MOL0     H16145   7.145   4.418   4.197 -1.2988 -3.4603  1.9100
  117MOL0     H16146   7.067   4.573   4.249  0.4601 -0.2556 -0.8889
  118MOL0     O16147   7.900   2.369  11.236 -0.8534 -0.8064 -0.5362
  118MOL0     C16148   7.815   2.460  11.244  0.2489  1.6271  0.6228
  118MOL0     O16149   7.843   2.595  11.266 -0.1890  0.5819  0.0913
  118MOL0     C16150   7.959   2.618  11.320  0.7706 -0.6098  0.2556
  118MOL0     C16151   8.045   2.701  11.250  0.5560  0.0421 -0.3705
  118MOL0     C16152   8.171   2.720  11.303  0.3588  0.4315  1.1973
  118MOL0     C16153   8.222   2.659  11.417 -0.1216 -0.3767  0.7868
  118MOL0     O16154   8.350   2.688  11.472  0.2458 -1.0867  0.4742
  118MOL0     C16155   8.442   2.775  11.407  0.1917  0.3364  0.8031
  118MOL0     C16156   8.576   2.779  11.483  0.0155 -0.9894 -0.5070
  118MOL0     C16157   8.685   2.855  11.411  0.1840  1.2587  0.4207
  118MOL0     C16158   8.807   2.896  11.493  0.6859  0.1052  0.6535
  118MOL0     C16159   8.931   2.943  11.412  0.6031  1.5981  0.1947
  118MOL0     C16160   8.893   3.075  11.342 -0.2131 -0.0670  0.2501
  118MOL0     C16161   9.019   3.126  11.283  0.1224 -0.7107 -0.1667
  118MOL0     C16162   8.978   3.258  11.214  0.1083 -0.1028  0.1594
  118MOL0     N16163   8.951   3.369  11.305  0.9293 -0.0801  0.1434
  118MOL0     C16164   9.004   3.399  11.429 -0.7039  0.3490 -0.1147
  118MOL0     C16165   8.978   3.528  11.458 -0.2765  0.3655  0.9029
  118MOL0     C16166   9.005   3.615  11.578 -0.1442  0.2281 -0.3968
  118MOL0     C16167   8.949   3.547  11.705  0.2963 -0.9064  0.2648
  118MOL0     C16168   8.878   3.642  11.808  0.6110 -0.0224  0.5902
  118MOL0     C16169   8.977   3.732  11.887  0.6452  0.0538  0.0507
  118MOL0     O16170   9.063   3.797  11.805  0.6898 -0.4554  0.3828
  118MOL0     C16171   9.179   3.843  11.862 -0.3884 -0.2095 -0.5156
  118MOL0     C16172   9.282   3.872  11.770 -0.2270  0.6957  0.7031
  118MOL0     C16173   9.408   3.909  11.805  0.5528  0.3257 -0.9865
  118MOL0     C16174   9.509   3.918  11.696 -0.2997  0.2107  0.2413
  118MOL0     C16175   9.443   3.918  11.944  0.0068  0.2517  0.5752
  118MOL0     C16176   9.577   3.946  11.998 -0.4546 -0.0659 -0.1053
  118MOL0     O16177   9.582   3.952  12.130  0.6050 -0.2771  0.1351
  118MOL0     C16178   9.701   3.970  12.194  0.3078  0.8735  0.0775
  118MOL0     C16179   9.727   4.086  12.261 -0.9214 -0.9670  0.6734
  118MOL0     C16180   9.836   4.099  12.349 -0.2658  0.3127 -0.3604
  118MOL0     C16181   9.939   3.989  12.347 -0.3922 -0.0453 -0.1714
  118MOL0     O16182  10.060   3.986  12.400 -0.6935  0.4448  0.0366
  118MOL0     C16183  10.119   4.115  12.433 -0.0871  0.6618  0.8681
  118MOL0     C16184  10.268   4.109  12.447 -0.3015 -0.2794  0.3635
  118MOL0     C16185  10.348   4.060  12.324  0.3574 -0.0171 -0.4058
  118MOL0     C16186  10.373   3.906  12.326  0.2224  0.3391  0.3390
  118MOL0     C16187  10.415   3.855  12.189  0.3176 -0.2216  0.8408
  118MOL0     C16188  10.493   3.723  12.203  1.1977  0.7199 -0.2588
  118MOL0     C16189  10.422   3.619  12.280  0.0665 -0.2182 -0.1344
  118MOL0     C16190  10.451   3.482  12.227  0.1391  0.2788  0.0607
  118MOL0    Cl16191  10.625   3.430  12.258 -0.1825 -0.0618 -0.1487
  118MOL0     C16192   9.912   3.878  12.268 -0.6441 -0.4053 -0.4882
  118MOL0     C16193   9.795   3.869  12.194 -0.0403  0.4958 -0.2232
  118MOL0     O16194   9.669   3.974  11.919 -0.7344 -0.8481 -0.1346
  118MOL0     C16195   9.341   3.902  12.037 -0.1908  0.2401  0.2893
  118MOL0     C16196   9.214   3.868  11.990 -0.3318  0.2014 -0.5610
  118MOL0     N16197   8.900   3.565  11.356 -0.1558 -0.6312 -0.6493
  118MOL0     N16198   8.893   3.480  11.269 -0.4930  0.2941 -0.3347
  118MOL0     C16199   8.133   2.583  11.497 -0.1122 -0.2455 -0.1514
  118MOL0     C16200   8.001   2.568  11.448  0.4063  0.1410 -0.3319
  118MOL0     C16201   7.687   2.404  11.195 -0.6639 -0.6380 -0.4265
  118MOL0     C16202   7.676   2.263  11.169  0.0377  0.0023 -0.1829
  118MOL0     C16203   7.578   2.216  11.084 -0.6771  0.8359 -0.1999
  118MOL0     C16204   7.479   2.293  11.040  0.5674 -0.0033  0.1087
  118MOL0     O16205   7.391   2.236  10.957  0.0539 -0.0012  0.0921
  118MOL0     C16206   7.271   2.296  10.910 -0.6167 -0.7007  0.2413
  118MOL0     C16207   7.223   2.223  10.797  0.3734  0.3096  0.9567
  118MOL0     C16208   7.279   2.271  10.656 -0.0132  0.1592  0.7198
  118MOL0     C16209   7.199   2.196  10.545  0.1705 -0.7794  0.4632
  118MOL0     C16210   7.225   2.244  10.410  0.2399  0.8812 -0.3145
  118MOL0     C16211   7.235   2.273  10.299  0.5062 -0.4575  0.0617
  118MOL0     C16212   7.472   2.424  11.079 -0.1886  0.0660  0.1369
  118MOL0     C16213   7.571   2.484  11.160 -0.2476  0.1397  0.5905
  118MOL0     C16214   7.568   2.638  11.178  0.3310 -0.1217  0.1848
  118MOL0     H16215   8.016   2.745  11.155 -2.0622  0.1576  0.4147
  118MOL0     H16216   8.242   2.785  11.251  2.6436 -0.7040  2.7327
  118MOL0     H16217   8.400   2.876  11.412 -4.5995 -1.4234  0.9927
  118MOL0     H16218   8.454   2.741  11.304  2.3275 -0.0990  1.1598
  118MOL0     H16219   8.559   2.828  11.580  2.5058 -1.2976  0.1413
  118MOL0     H16220   8.608   2.675  11.495  0.5252 -0.6476  1.5936
  118MOL0     H16221   8.723   2.794  11.328 -2.9732  0.9489 -0.9525
  118MOL0     H16222   8.633   2.938  11.363 -0.3867  0.8914  0.3849
  118MOL0     H16223   8.772   2.974  11.560 -1.9953 -0.1604 -0.3281
  118MOL0     H16224   8.843   2.806  11.543 -1.3263 -0.0825  1.8785
  118MOL0     H16225   8.969   2.861  11.350 -1.8966  1.6287 -1.5378
  118MOL0     H16226   9.004   2.970  11.488 -0.0772 -1.5930  2.1596
  118MOL0     H16227   8.819   3.049  11.266 -0.1074  0.2882  0.0227
  118MOL0     H16228   8.864   3.146  11.420  3.1392 -0.3522  1.9178
  118MOL0     H16229   9.061   3.049  11.218  0.0329 -1.6961  0.9131
  118MOL0     H16230   9.092   3.142  11.362  0.0336  1.2764 -0.4324
  118MOL0     H16231   9.058   3.290  11.147 -0.2390 -3.1162 -1.8776
  118MOL0     H16232   8.897   3.233  11.144  0.2025 -0.8762  0.3216
  118MOL0     H16233   9.059   3.335  11.496  1.6419  1.3670 -0.9620
  118MOL0     H16234   8.954   3.711  11.565 -0.2013  0.2218 -0.2104
  118MOL0     H16235   9.111   3.638  11.586 -0.0925  0.3901 -1.3472
  118MOL0     H16236   8.868   3.485  11.667  0.0124 -0.1789 -0.3526
  118MOL0     H16237   9.028   3.478  11.736  2.7222  0.5622 -2.1106
  118MOL0     H16238   8.803   3.705  11.760 -1.6284 -1.6051  1.7916
  118MOL0     H16239   8.811   3.572  11.860 -1.1758  0.3657 -1.0643
  118MOL0     H16240   8.915   3.803  11.944 -3.5013 -1.0813 -2.5890
  118MOL0     H16241   9.040   3.674  11.955  3.4447  1.7648 -0.9144
  118MOL0     H16242   9.243   3.858  11.670 -1.5819  0.2129  1.2809
  118MOL0     H16243   9.595   3.856  11.725  1.4792  1.9134 -1.1252
  118MOL0     H16244   9.535   4.023  11.679 -0.6237  0.3624  0.6488
  118MOL0     H16245   9.475   3.883  11.598  3.0886 -0.8379 -0.6922
  118MOL0     H16246   9.642   4.153  12.251  0.7220  1.1259 -0.3239
  118MOL0     H16247   9.857   4.183  12.415  4.2072 -0.1592 -0.9084
  118MOL0     H16248  10.085   4.192  12.364 -5.3626  0.2077  2.5253
  118MOL0     H16249  10.075   4.144  12.529 -1.7118  1.3930 -0.0547
  118MOL0     H16250  10.304   4.211  12.462 -0.5680  0.1278 -1.5820
  118MOL0     H16251  10.296   4.045  12.531  1.2669 -0.8199 -0.5262
  118MOL0     H16252  10.446   4.107  12.314  1.3276 -1.5766  1.2148
  118MOL0     H16253  10.275   4.084  12.246 -2.3061 -2.8219  0.9888
  118MOL0     H16254  10.280   3.862  12.364  0.6494 -0.3123  0.6494
  118MOL0     H16255  10.443   3.880  12.406  0.2467  0.5953  0.4020
  118MOL0     H16256  10.327   3.851  12.123  0.0497  1.0122  1.0939
  118MOL0     H16257  10.470   3.932  12.135 -1.7263  0.6823 -0.0826
  118MOL0     H16258  10.586   3.750  12.254  0.5166 -0.1073  1.4746
  118MOL0     H16259  10.506   3.697  12.097 -0.8302 -0.6523 -0.2273
  118MOL0     H16260  10.313   3.627  12.274  0.0203 -0.3320  0.4806
  118MOL0     H16261  10.455   3.617  12.385 -2.7847 -0.2159  0.8561
  118MOL0     H16262  10.437   3.491  12.119  0.2779 -1.5821 -0.1431
  118MOL0     H16263  10.381   3.403  12.253  1.1526 -1.0659 -1.1216
  118MOL0     H16264   9.995   3.809  12.264 -0.9351 -0.8875  1.1535
  118MOL0     H16265   9.779   3.791  12.119  1.3481  1.3326 -1.4396
  118MOL0     H16266   9.353   3.924  12.142 -1.0519 -0.5814  0.5745
  118MOL0     H16267   9.139   3.860  12.068 -0.2754  2.7969 -0.1788
  118MOL0     H16268   8.175   2.546  11.591  0.5364  4.2648  1.5725
  118MOL0     H16269   7.924   2.529  11.514 -1.1329 -0.3177 -2.2855
  118MOL0     H16270   7.747   2.193  11.210  0.7716  0.8600  0.0377
  118MOL0     H16271   7.580   2.112  11.052 -0.1995  1.0847 -1.0380
  118MOL0     H16272   7.197   2.298  10.991  3.0236  0.6623  3.8583
  118MOL0     H16273   7.287   2.399  10.877 -1.0354 -1.3032 -2.0283
  118MOL0     H16274   7.115   2.235  10.796  0.2041  0.9146 -4.5188
  118MOL0     H16275   7.226   2.114  10.810 -4.1484 -0.7692 -3.7239
  118MOL0     H16276   7.259   2.378  10.643  0.1639 -0.0031 -1.0595
  118MOL0     H16277   7.387   2.265  10.638 -0.1619 -0.2635 -0.0705
  118MOL0     H16278   7.091   2.198  10.564  0.1323  0.2750  0.2228
  118MOL0     H16279   7.223   2.090  10.559 -2.6148 -1.5923 -0.2447
  118MOL0     H16280   7.250   2.300  10.197  2.0420  0.6380  0.5494
  118MOL0     H16281   7.385   2.486  11.062 -0.1301  0.2716  0.5605
  118MOL0     H16282   7.622   2.656  11.271  1.6429 -0.8511 -0.4190
  118MOL0     H16283   7.627   2.688  11.100 -2.1584  0.5808 -1.3894
  118MOL0     H16284   7.468   2.682  11.176  1.1461  1.8206 -0.6490
  119MOL0     O16285   0.872   8.847   2.953  0.6249 -0.1162 -0.0387
  119MOL0     C16286   0.886   8.931   2.860 -0.5332 -0.0870 -0.0647
  119MOL0     O16287   0.907   8.895   2.732 -0.5265  0.2857 -0.1432
  119MOL0     C16288   0.914   8.763   2.684 -0.5114 -0.1551 -0.7379
  119MOL0     C16289   1.036   8.721   2.623 -0.9696 -0.4454  0.2805
  119MOL0     C16290   1.052   8.590   2.577  1.6412  0.3975  0.8130
  119MOL0     C16291   0.948   8.500   2.612 -0.5918 -0.0572 -0.0069
  119MOL0     O16292   0.942   8.368   2.577  0.1189  0.2923  0.2804
  119MOL0     C16293   1.015   8.328   2.460 -0.1964 -0.1234 -0.3134
  119MOL0     C16294   1.010   8.186   2.423 -0.8865 -0.4368  0.4944
  119MOL0     C16295   0.892   8.144   2.335  0.6303 -0.5982 -0.5646
  119MOL0     C16296   0.899   8.187   2.188 -0.4319  0.4989  0.8609
  119MOL0     C16297   0.788   8.130   2.109  0.2087 -0.1013  0.2278
  119MOL0     C16298   0.751   8.192   1.965  0.2598 -0.6120  0.3475
  119MOL0     C16299   0.687   8.088   1.869  0.4286 -0.2608  0.2749
  119MOL0     C16300   0.797   7.993   1.817  0.2900 -0.7049  0.9091
  119MOL0     N16301   0.883   8.051   1.706  1.3079 -0.5093 -0.3198
  119MOL0     C16302   1.015   8.025   1.689  0.9997 -0.5781 -0.2178
  119MOL0     C16303   1.046   8.092   1.579 -0.8079 -0.8056  0.6631
  119MOL0     C16304   1.178   8.083   1.504 -0.3166  0.5987 -0.1743
  119MOL0     C16305   1.198   7.932   1.472 -0.1870 -0.1930 -0.4926
  119MOL0     C16306   1.342   7.906   1.426 -0.0739  1.0384  0.3360
  119MOL0     C16307   1.382   8.002   1.313 -0.1950  0.2671 -0.1616
  119MOL0     O16308   1.275   8.005   1.227  0.0867  0.0181 -0.6459
  119MOL0     C16309   1.301   8.085   1.116 -0.3006  0.4013  0.3437
  119MOL0     C16310   1.225   8.053   1.008 -0.5449  0.3883  0.7542
  119MOL0     C16311   1.243   8.122   0.882  0.3808  0.5395  0.5442
  119MOL0     C16312   1.136   8.094   0.780 -0.8342  0.3282 -0.9901
  119MOL0     C16313   1.347   8.212   0.866  0.5582  0.4183  0.0647
  119MOL0     C16314   1.380   8.292   0.749 -0.1476  0.8067  0.4717
  119MOL0     O16315   1.292   8.378   0.700  0.8053  0.1897  0.2336
  119MOL0     C16316   1.300   8.409   0.561  0.5878  0.6123  0.2007
  119MOL0     C16317   1.369   8.524   0.524  0.1091  0.8600 -0.6069
  119MOL0     C16318   1.371   8.561   0.391 -0.6302  0.1336 -0.2696
  119MOL0     C16319   1.306   8.484   0.290 -0.4628 -0.2594 -0.3535
  119MOL0     O16320   1.335   8.520   0.156  0.2523 -0.3744 -0.0518
  119MOL0     C16321   1.282   8.456   0.036  0.6937 -0.2237  0.0783
  119MOL0     C16322   1.146   8.507  -0.008  0.4557  0.2267  0.3697
  119MOL0     C16323   1.124   8.463  -0.155 -0.1268 -0.6557  0.0596
  119MOL0     C16324   1.181   8.560  -0.257 -0.6469  0.0839 -0.3770
  119MOL0     C16325   1.124   8.541  -0.398  0.4412  0.2261 -0.2997
  119MOL0     C16326   1.208   8.626  -0.486 -0.1622 -0.5122 -0.0430
  119MOL0     C16327   1.178   8.585  -0.633  0.4630 -0.2344 -0.5825
  119MOL0     C16328   1.287   8.648  -0.719  0.0552  0.4773 -0.0209
  119MOL0    Cl16329   1.280   8.832  -0.724  0.0373  0.0606  0.3182
  119MOL0     C16330   1.228   8.370   0.333 -0.4383 -0.2719 -0.3906
  119MOL0     C16331   1.229   8.336   0.470  0.7910 -0.8363  0.3161
  119MOL0     O16332   1.482   8.253   0.692  0.2073 -0.0529 -0.3470
  119MOL0     C16333   1.426   8.243   0.983 -0.0626  0.1339  1.5186
  119MOL0     C16334   1.393   8.182   1.101 -0.8026  0.1394  0.1448
  119MOL0     N16335   0.931   8.150   1.519  0.1830 -0.4666  0.2856
  119MOL0     N16336   0.843   8.117   1.596  0.8417 -1.1201  0.5375
  119MOL0     C16337   0.833   8.549   2.680  0.2916 -1.0095  0.2812
  119MOL0     C16338   0.816   8.682   2.709  0.1093  0.4565  0.4090
  119MOL0     C16339   0.863   9.074   2.882 -0.0810 -0.4656  0.3517
  119MOL0     C16340   0.964   9.163   2.851 -0.6726 -0.2705  0.2503
  119MOL0     C16341   0.965   9.294   2.904 -0.9326 -0.2277  0.1859
  119MOL0     C16342   0.855   9.348   2.977  0.5952 -0.8017  0.6124
  119MOL0     O16343   0.845   9.479   3.021 -0.0409 -0.3074 -0.4925
  119MOL0     C16344   0.962   9.531   3.063  0.2072  0.0472  0.2187
  119MOL0     C16345   0.942   9.653   3.153 -0.5707  0.5779 -0.6411
  119MOL0     C16346   0.843   9.634   3.272  0.6037  0.3982 -0.0701
  119MOL0     C16347   0.861   9.718   3.397  0.0871  0.0587 -0.7387
  119MOL0     C16348   0.793   9.843   3.382 -0.6373  0.0233 -0.5645
  119MOL0     C16349   0.753   9.958   3.356  0.7241  0.2098  0.0041
  119MOL0     C16350   0.739   9.269   2.994  0.7759 -0.1448  0.6300
  119MOL0     C16351   0.744   9.136   2.942 -0.1468 -0.5243  0.3767
  119MOL0     C16352   0.615   9.053   2.943 -0.1147  0.6052 -0.0367
  119MOL0     H16353   1.115   8.793   2.606 -1.0600 -0.7387 -1.5914
  119MOL0     H16354   1.141   8.557   2.523  1.7073 -2.9086  2.6686
  119MOL0     H16355   1.120   8.347   2.484 -0.9047  1.5943  1.7732
  119MOL0     H16356   0.982   8.390   2.376 -2.0277 -1.5284 -0.6807
  119MOL0     H16357   1.108   8.167   2.377 -0.3541 -0.8940  1.7519
  119MOL0     H16358   1.018   8.127   2.515  0.9799 -2.5381 -0.9105
  119MOL0     H16359   0.894   8.035   2.343  0.3394 -0.5662 -0.0698
  119MOL0     H16360   0.798   8.171   2.384  0.6486 -1.2224 -0.1777
  119MOL0     H16361   0.913   8.294   2.172 -2.1381  0.6630  0.2767
  119MOL0     H16362   0.989   8.135   2.151 -1.1271 -0.0503 -0.1060
  119MOL0     H16363   0.698   8.123   2.171  1.2153 -0.7168  1.6725
  119MOL0     H16364   0.807   8.022   2.106 -2.1416 -0.5599 -0.5277
  119MOL0     H16365   0.673   8.266   1.984  0.5333  1.3160 -4.4566
  119MOL0     H16366   0.831   8.253   1.921 -0.1222 -0.3697 -0.0091
  119MOL0     H16367   0.625   8.127   1.788 -0.0511 -2.0589 -0.2793
  119MOL0     H16368   0.608   8.041   1.930  0.9353  2.2192  3.0928
  119MOL0     H16369   0.857   7.959   1.902  1.5249 -5.0232 -1.4063
  119MOL0     H16370   0.754   7.896   1.790 -0.1473  0.0060 -1.1445
  119MOL0     H16371   1.088   7.967   1.743  2.3079 -0.4984 -1.8161
  119MOL0     H16372   1.254   8.128   1.569 -0.9643  0.1584  0.9114
  119MOL0     H16373   1.176   8.144   1.414 -1.3111  0.5259 -0.2084
  119MOL0     H16374   1.176   7.882   1.567 -5.6476  1.4125 -0.5765
  119MOL0     H16375   1.132   7.897   1.392  0.5132 -1.6849 -0.4473
  119MOL0     H16376   1.402   7.920   1.516  0.9543 -2.7092  0.3895
  119MOL0     H16377   1.359   7.803   1.395 -0.5810  0.2895  2.3963
  119MOL0     H16378   1.406   8.098   1.359 -0.2580  1.0176 -1.6305
  119MOL0     H16379   1.471   7.961   1.264 -0.1350 -0.3557  0.4466
  119MOL0     H16380   1.142   7.985   1.018 -4.5286  4.4985 -0.8108
  119MOL0     H16381   1.171   8.094   0.676  0.3662  0.8846 -0.6151
  119MOL0     H16382   1.061   8.171   0.797 -0.8229 -0.2576  2.4310
  119MOL0     H16383   1.103   7.991   0.794  0.6475 -0.0916 -0.3306
  119MOL0     H16384   1.415   8.594   0.592 -1.2599 -0.0093  1.2864
  119MOL0     H16385   1.436   8.640   0.356 -1.4576  0.7075 -0.5499
  119MOL0     H16386   1.345   8.486  -0.048  0.2337  1.4761  0.2931
  119MOL0     H16387   1.289   8.347   0.041 -0.4637 -0.3021  0.1884
  119MOL0     H16388   1.074   8.461   0.060 -1.3868 -0.3351 -1.8566
  119MOL0     H16389   1.126   8.614   0.001 -3.5749 -0.5653  4.5369
  119MOL0     H16390   1.016   8.452  -0.168  0.0076 -0.1149 -1.8475
  119MOL0     H16391   1.165   8.362  -0.165  2.5284  0.3387  0.0294
  119MOL0     H16392   1.290   8.571  -0.255 -0.7581  1.6832 -1.1956
  119MOL0     H16393   1.142   8.656  -0.221  1.8205  0.1368  2.4341
  119MOL0     H16394   1.120   8.435  -0.423  1.1227 -0.3158  1.7274
  119MOL0     H16395   1.021   8.577  -0.412  0.2206  0.1545  1.0131
  119MOL0     H16396   1.310   8.597  -0.461 -0.1636  1.4153  2.5350
  119MOL0     H16397   1.191   8.734  -0.475 -0.6040 -0.4671 -1.0249
  119MOL0     H16398   1.076   8.611  -0.662  0.4977 -0.6831 -1.1215
  119MOL0     H16399   1.183   8.476  -0.645  2.4830 -0.4811  1.7643
  119MOL0     H16400   1.274   8.610  -0.820  0.1511 -1.4383  0.6537
  119MOL0     H16401   1.381   8.606  -0.680  0.7865  0.4486 -1.7425
  119MOL0     H16402   1.185   8.297   0.265  1.1119 -2.7018  1.0920
  119MOL0     H16403   1.161   8.254   0.489 -1.7768 -0.2869 -4.7359
  119MOL0     H16404   1.497   8.325   0.983  0.1291 -0.0291  1.0347
  119MOL0     H16405   1.458   8.204   1.185  0.6525 -0.5648 -0.7596
  119MOL0     H16406   0.764   8.474   2.719  3.3871 -3.6950  1.0382
  119MOL0     H16407   0.730   8.717   2.765 -0.3426  5.0909 -2.6386
  119MOL0     H16408   1.036   9.114   2.786 -2.1316 -0.9964 -0.8671
  119MOL0     H16409   1.038   9.369   2.877  2.3389 -1.7812  3.7214
  119MOL0     H16410   1.025   9.468   3.127  0.1146 -1.6706 -1.2972
  119MOL0     H16411   1.009   9.570   2.972 -0.5113  3.2447  1.0958
  119MOL0     H16412   0.906   9.738   3.095 -5.6032 -0.8243 -0.0448
  119MOL0     H16413   1.040   9.682   3.193  0.0901 -1.7376 -0.4246
  119MOL0     H16414   0.741   9.654   3.240 -0.1725 -1.2862  1.1737
  119MOL0     H16415   0.848   9.528   3.301 -0.2319  0.0630 -1.0956
  119MOL0     H16416   0.968   9.722   3.420 -0.0205 -3.0113  0.8767
  119MOL0     H16417   0.815   9.666   3.482 -1.6057  1.4849 -0.7392
  119MOL0     H16418   0.738  10.064   3.346  0.5109  0.2213  0.4303
  119MOL0     H16419   0.652   9.311   3.045  1.1189 -0.5616  1.5672
  119MOL0     H16420   0.535   9.120   2.976 -3.0347 -2.4271 -0.4124
  119MOL0     H16421   0.577   9.012   2.849 -1.2922 -0.0958  0.7133
  119MOL0     H16422   0.619   8.972   3.016  2.5952  1.2009  0.5593
  120MOL0     O16423   0.254   7.781   5.191  0.8974  0.2921 -0.1779
  120MOL0     C16424   0.179   7.735   5.275  0.4575  0.2389 -0.0062
  120MOL0     O16425   0.211   7.726   5.408  0.2977 -0.2329  0.0015
  120MOL0     C16426   0.322   7.804   5.434  0.6189  0.2655  0.0701
  120MOL0     C16427   0.326   7.930   5.497  0.0592  0.4886 -0.4417
  120MOL0     C16428   0.448   7.992   5.538 -0.0888 -0.6566  0.3759
  120MOL0     C16429   0.571   7.926   5.515 -0.0807 -0.1545 -0.3288
  120MOL0     O16430   0.690   7.961   5.562  0.3994 -0.0157 -0.6251
  120MOL0     C16431   0.726   8.101   5.553 -0.7150  0.7824 -0.2257
  120MOL0     C16432   0.760   8.146   5.411  0.1535  0.8683  0.1001
  120MOL0     C16433   0.787   8.287   5.387 -0.8563  0.2656 -0.8910
  120MOL0     C16434   0.910   8.337   5.472 -0.0697 -0.5293 -0.2618
  120MOL0     C16435   0.957   8.488   5.459  0.6440  0.0433 -0.9245
  120MOL0     C16436   1.037   8.504   5.330 -0.2489  0.0421 -0.3431
  120MOL0     C16437   1.125   8.627   5.328 -0.1041 -0.3320 -0.6376
  120MOL0     C16438   1.044   8.753   5.282  1.0689  0.0623 -0.3216
  120MOL0     N16439   1.103   8.882   5.305 -0.6150 -0.4990  0.1911
  120MOL0     C16440   1.200   8.935   5.215 -0.1472  0.3204  0.1485
  120MOL0     C16441   1.255   9.039   5.284 -0.8050  0.1073  0.4253
  120MOL0     C16442   1.352   9.126   5.211  0.2903 -0.2894 -0.5183
  120MOL0     C16443   1.279   9.248   5.164  0.3194 -0.3553 -0.6122
  120MOL0     C16444   1.382   9.358   5.140 -0.1596 -0.0316 -0.0598
  120MOL0     C16445   1.315   9.483   5.094 -0.2516  0.3391 -0.0233
  120MOL0     O16446   1.252   9.479   4.962  0.5241 -0.2963 -0.3895
  120MOL0     C16447   1.210   9.594   4.905  1.0653 -0.9999  0.7202
  120MOL0     C16448   1.281   9.718   4.918 -0.3689  0.3810  0.4620
  120MOL0     C16449   1.232   9.837   4.860  0.0819 -0.6775 -0.1682
  120MOL0     C16450   1.325   9.959   4.875 -0.1654 -0.2893  0.3581
  120MOL0     C16451   1.110   9.838   4.805  0.6202  0.1427  0.6377
  120MOL0     C16452   1.058   9.965   4.740  0.3331  0.1047 -0.3147
  120MOL0     O16453   1.127  10.009   4.633  0.6211  0.3525  0.1155
  120MOL0     C16454   1.134  10.140   4.588  1.2613 -0.1885 -0.1398
  120MOL0     C16455   1.242  10.168   4.492  0.9696  1.0580  0.5837
  120MOL0     C16456   1.266  10.301   4.443  0.2311 -0.3159 -0.7452
  120MOL0     C16457   1.184  10.405   4.477  0.8028 -0.3220 -0.2888
  120MOL0     O16458   1.208  10.521   4.416  0.7022  0.5710  0.2207
  120MOL0     C16459   1.119  10.629   4.428 -0.3152 -0.3738 -0.7642
  120MOL0     C16460   1.152  10.752   4.343 -0.1040  0.3977 -0.0598
  120MOL0     C16461   1.038  10.850   4.356 -0.3839  0.4747 -0.3141
  120MOL0     C16462   1.044  10.959   4.255 -0.2916  0.0143 -0.2300
  120MOL0     C16463   0.911  11.046   4.258 -0.1882  0.5368  0.4487
  120MOL0     C16464   0.884  11.123   4.136 -0.9861 -0.4593 -0.8870
  120MOL0     C16465   0.775  11.230   4.170 -0.0639 -0.4004  0.8338
  120MOL0     C16466   0.632  11.182   4.156  0.0547  0.0730 -0.1919
  120MOL0    Cl16467   0.596  11.181   3.984  0.3305 -0.2785 -0.2611
  120MOL0     C16468   1.079  10.379   4.569  0.8968  0.1621  0.1976
  120MOL0     C16469   1.065  10.254   4.632  0.1258  0.0816 -0.3049
  120MOL0     O16470   0.963  10.018   4.792  0.1474  0.8992 -0.5212
  120MOL0     C16471   1.039   9.716   4.784 -0.0655 -0.3860  0.5204
  120MOL0     C16472   1.097   9.595   4.832  0.3230 -0.1416  0.4267
  120MOL0     N16473   1.198   9.046   5.407 -0.4074  0.0843 -0.1133
  120MOL0     N16474   1.110   8.955   5.420  0.0590  0.0646  0.3191
  120MOL0     C16475   0.567   7.813   5.444 -0.1561  1.6627 -0.3661
  120MOL0     C16476   0.444   7.753   5.396  0.4541 -0.2356 -0.5368
  120MOL0     C16477   0.052   7.662   5.225 -0.1627 -0.3987 -0.7952
  120MOL0     C16478   0.008   7.559   5.318  0.1588 -0.5308  0.2977
  120MOL0     C16479  -0.108   7.490   5.296  0.4726 -0.8853  0.5934
  120MOL0     C16480  -0.178   7.509   5.180  1.4661  0.5332 -0.1685
  120MOL0     O16481  -0.277   7.417   5.135  0.4771 -0.0709 -0.4587
  120MOL0     C16482  -0.314   7.298   5.206  0.2194  0.0120  0.0018
  120MOL0     C16483  -0.430   7.218   5.134  0.4816 -1.0750 -0.5429
  120MOL0     C16484  -0.567   7.284   5.154 -0.8539  0.9894 -0.0738
  120MOL0     C16485  -0.672   7.210   5.067  0.3175  0.6704 -0.0825
  120MOL0     C16486  -0.679   7.062   5.110  0.3051 -0.2177 -0.2100
  120MOL0     C16487  -0.684   6.951   5.159 -0.0700  0.0171 -0.3040
  120MOL0     C16488  -0.145   7.613   5.099  0.3583  0.2895  0.0721
  120MOL0     C16489  -0.032   7.688   5.114 -0.3805 -1.1962 -0.2714
  120MOL0     C16490  -0.005   7.807   5.027  1.1453 -0.7738 -0.7695
  120MOL0     H16491   0.227   7.969   5.519 -1.7611 -1.6982 -3.8855
  120MOL0     H16492   0.446   8.087   5.592  2.6208  0.4911 -1.3306
  120MOL0     H16493   0.812   8.113   5.620  1.1357  0.4675 -2.4098
  120MOL0     H16494   0.648   8.166   5.591  0.8141  1.4775  1.9498
  120MOL0     H16495   0.840   8.084   5.372 -1.2582  0.5738 -2.5593
  120MOL0     H16496   0.680   8.125   5.340 -0.5853  0.9728  0.8741
  120MOL0     H16497   0.800   8.316   5.282  2.0861  2.5712 -0.0333
  120MOL0     H16498   0.693   8.334   5.418 -1.6326 -1.1388 -1.0252
  120MOL0     H16499   0.880   8.317   5.575 -0.2202 -2.8255 -0.7062
  120MOL0     H16500   0.993   8.270   5.448  0.6893  1.0951 -2.5090
  120MOL0     H16501   1.016   8.519   5.545  0.0772 -1.0814 -0.1076
  120MOL0     H16502   0.869   8.553   5.462 -0.1857 -1.0861  0.8172
  120MOL0     H16503   1.102   8.418   5.311 -0.7795 -0.6692  1.0049
  120MOL0     H16504   0.969   8.512   5.244 -0.1643 -2.3308 -0.7009
  120MOL0     H16505   1.206   8.610   5.256 -0.8526  1.9869 -2.1340
  120MOL0     H16506   1.165   8.648   5.427  0.4296 -0.6449 -0.7806
  120MOL0     H16507   1.008   8.744   5.179  0.0690 -0.6284  0.0623
  120MOL0     H16508   0.959   8.747   5.350  0.4984  0.3384 -0.9962
  120MOL0     H16509   1.235   8.892   5.122  1.8944 -0.5977  1.2729
  120MOL0     H16510   1.391   9.072   5.124 -1.0974 -0.5199 -1.0313
  120MOL0     H16511   1.433   9.151   5.280 -1.3746 -0.1609  1.5031
  120MOL0     H16512   1.236   9.213   5.070  0.5979 -1.9431 -0.1767
  120MOL0     H16513   1.203   9.272   5.238  0.0970 -2.4551 -0.1266
  120MOL0     H16514   1.439   9.374   5.232 -2.0428  0.3657  1.0885
  120MOL0     H16515   1.460   9.337   5.066  1.2539  1.0597  1.0388
  120MOL0     H16516   1.251   9.523   5.173  0.7125 -2.5527  2.4271
  120MOL0     H16517   1.401   9.551   5.090  1.3509 -1.6098 -0.2288
  120MOL0     H16518   1.379   9.719   4.965 -0.5492 -0.0461  0.8531
  120MOL0     H16519   1.417   9.941   4.932 -0.2922  1.9429  1.3924
  120MOL0     H16520   1.265  10.034   4.929  0.2037  0.9809 -0.9331
  120MOL0     H16521   1.340  10.000   4.775 -1.3030  1.8919  0.9977
  120MOL0     H16522   1.319  10.093   4.476 -1.4094 -0.9615 -2.6511
  120MOL0     H16523   1.357  10.304   4.383  0.4561 -2.8905 -0.6613
  120MOL0     H16524   1.013  10.601   4.419 -0.7915  1.3412 -0.6997
  120MOL0     H16525   1.135  10.658   4.532  0.1697  1.9616 -1.4497
  120MOL0     H16526   1.250  10.793   4.369 -0.5438  0.6955  1.1879
  120MOL0     H16527   1.159  10.701   4.247  3.5439 -4.3293  2.2606
  120MOL0     H16528   1.042  10.891   4.458  2.0520 -0.6199  0.1011
  120MOL0     H16529   0.939  10.804   4.363 -0.8897  1.2032 -2.2054
  120MOL0     H16530   1.053  10.904   4.161  0.1902  0.4642 -0.4493
  120MOL0     H16531   1.135  11.018   4.269  0.0044 -0.9799  2.6604
  120MOL0     H16532   0.825  10.981   4.277  0.2084  0.0824  0.6945
  120MOL0     H16533   0.916  11.116   4.342  0.5090 -1.0054  1.7457
  120MOL0     H16534   0.862  11.070   4.043 -2.8202  0.7234 -1.1664
  120MOL0     H16535   0.974  11.183   4.118 -1.0012  0.2068  1.0619
  120MOL0     H16536   0.787  11.307   4.092 -0.8033  0.7607  1.8313
  120MOL0     H16537   0.792  11.280   4.266  1.4185  3.1352 -1.0536
  120MOL0     H16538   0.566  11.256   4.202 -0.9366 -0.3714 -0.8524
  120MOL0     H16539   0.610  11.087   4.205 -1.9884 -0.0486 -1.2550
  120MOL0     H16540   1.018  10.461   4.605 -0.9675 -0.8849 -0.4519
  120MOL0     H16541   0.985  10.245   4.706  1.4384  1.2138  1.3463
  120MOL0     H16542   0.941   9.714   4.738  0.6531 -0.6425 -1.0765
  120MOL0     H16543   1.041   9.502   4.827 -2.0175  0.6528  5.5013
  120MOL0     H16544   0.645   7.741   5.424 -3.0538 -2.2045  0.9830
  120MOL0     H16545   0.462   7.663   5.338  3.3467 -0.2904  0.2882
  120MOL0     H16546   0.068   7.536   5.406  2.2979 -0.5173 -1.0953
  120MOL0     H16547  -0.127   7.414   5.372 -1.7483 -1.2133 -0.2058
  120MOL0     H16548  -0.231   7.228   5.211 -0.6224 -0.9337  3.3911
  120MOL0     H16549  -0.341   7.320   5.310 -1.9015  5.5092 -1.3403
  120MOL0     H16550  -0.423   7.119   5.180  0.1145 -0.4626  0.8880
  120MOL0     H16551  -0.416   7.212   5.025 -0.2357  0.4661 -0.7461
  120MOL0     H16552  -0.596   7.257   5.256  0.3897  2.6748  0.7658
  120MOL0     H16553  -0.568   7.393   5.147 -0.3039  0.9940 -0.1264
  120MOL0     H16554  -0.660   7.215   4.958 -3.0845 -2.3326 -0.7982
  120MOL0     H16555  -0.769   7.256   5.089 -0.7775 -0.6679 -1.8377
  120MOL0     H16556  -0.702   6.846   5.167 -1.2603 -0.0763 -3.0001
  120MOL0     H16557  -0.214   7.639   5.019  2.9567  4.0443 -1.2616
  120MOL0     H16558   0.059   7.776   4.944 -0.1002 -1.6517 -1.4446
  120MOL0     H16559  -0.100   7.838   4.980  0.2177  0.9768  2.0326
  120MOL0     H16560   0.037   7.893   5.079 -1.6278 -0.5674  1.3552
  121MOL0     O16561   8.085   0.338   3.616  0.0138  0.8496  0.4209
  121MOL0     C16562   7.993   0.253   3.593  0.5627  0.1217  0.2234
  121MOL0     O16563   8.009   0.136   3.522  0.2280  1.6204  0.2882
  121MOL0     C16564   8.124   0.101   3.457  0.2334 -0.4880 -0.4338
  121MOL0     C16565   8.118   0.041   3.325 -0.0018  0.2898  0.2949
  121MOL0     C16566   8.238   0.008   3.255 -0.7483 -0.4325  0.4977
  121MOL0     C16567   8.365   0.047   3.304  0.9345  0.5695  0.0512
  121MOL0     O16568   8.479   0.023   3.245  0.0534  0.3467  0.0666
  121MOL0     C16569   8.482   0.023   3.099  0.2160 -0.1913  0.6970
  121MOL0     C16570   8.633   0.031   3.046 -0.5037  0.5862  0.3212
  121MOL0     C16571   8.689   0.163   3.092  0.0640 -0.0410  0.4066
  121MOL0     C16572   8.811   0.196   3.006  0.8471  0.5855  0.2320
  121MOL0     C16573   8.791   0.213   2.856 -0.0261  0.2621  0.1662
  121MOL0     C16574   8.911   0.299   2.807  0.1997 -0.9671 -0.4251
  121MOL0     C16575   8.927   0.305   2.657 -0.4059  0.8488  0.3531
  121MOL0     C16576   9.004   0.183   2.595  0.5255 -0.6609  0.1126
  121MOL0     N16577   9.083   0.222   2.472 -0.1881  0.3640 -0.5683
  121MOL0     C16578   9.051   0.171   2.349 -0.2867 -0.2555  0.1993
  121MOL0     C16579   9.129   0.242   2.265 -0.2996 -0.1880 -0.3132
  121MOL0     C16580   9.125   0.254   2.117  0.6499  0.7057 -0.6362
  121MOL0     C16581   9.259   0.238   2.048 -0.5609  0.4189 -0.2691
  121MOL0     C16582   9.271   0.272   1.904  0.4953 -0.3163  0.1380
  121MOL0     C16583   9.383   0.202   1.828 -0.8095 -0.8799  0.1653
  121MOL0     O16584   9.377   0.239   1.690  0.1656 -0.3325 -0.1203
  121MOL0     C16585   9.469   0.191   1.596  0.1112  0.4361  0.1457
  121MOL0     C16586   9.591   0.151   1.628 -0.4773  0.5152 -0.1239
  121MOL0     C16587   9.683   0.109   1.533 -0.5114  0.1609 -1.0806
  121MOL0     C16588   9.819   0.059   1.591 -0.2859 -0.4400  0.4723
  121MOL0     C16589   9.643   0.108   1.404 -0.3757  0.2469  0.1456
  121MOL0     C16590   9.737   0.061   1.297  0.4650  0.6139 -0.0585
  121MOL0     O16591   9.864   0.088   1.299 -0.0378  0.2978 -0.5622
  121MOL0     C16592   9.953   0.049   1.198  0.2605  0.3136 -0.2707
  121MOL0     C16593   9.934   0.079   1.061 -0.7158  0.8169 -0.0682
  121MOL0     C16594  10.024   0.039   0.963  0.3120  0.0094  0.2293
  121MOL0     C16595  10.146  -0.020   0.999 -0.1123  0.0999  0.5879
  121MOL0     O16596  10.242  -0.050   0.906  0.4953  0.1472  0.2691
  121MOL0     C16597  10.382  -0.039   0.947  0.3756  0.1369 -0.8346
  121MOL0     C16598  10.484  -0.060   0.832 -0.8119  0.8576  0.1241
  121MOL0     C16599  10.623  -0.112   0.883  0.1185  0.2872 -0.0102
  121MOL0     C16600  10.727  -0.080   0.784 -0.0833  0.2623  0.5265
  121MOL0     C16601  10.764   0.069   0.746 -0.8146 -0.0457 -0.3043
  121MOL0     C16602  10.809   0.160   0.860  0.3110  0.0722 -0.4942
  121MOL0     C16603  10.865   0.290   0.796  0.0046  0.2241 -0.8262
  121MOL0     C16604  11.017   0.271   0.752  0.1131 -1.0207 -0.5896
  121MOL0    Cl16605  11.114   0.308   0.890  0.1760 -0.0663  0.1254
  121MOL0     C16606  10.166  -0.048   1.137 -0.4949 -0.5817 -0.9773
  121MOL0     C16607  10.074  -0.008   1.237  0.6318  0.3649 -0.2345
  121MOL0     O16608   9.683   0.004   1.205 -0.2402 -0.4580  0.8161
  121MOL0     C16609   9.515   0.131   1.367  0.2348 -0.5359  0.4904
  121MOL0     C16610   9.424   0.184   1.468  0.8557  0.4745  0.0439
  121MOL0     N16611   9.198   0.330   2.335  0.0555  0.0274  0.1572
  121MOL0     N16612   9.172   0.320   2.458 -0.0235 -0.0330 -0.8282
  121MOL0     C16613   8.370   0.101   3.435  0.2618 -0.4406 -0.0497
  121MOL0     C16614   8.248   0.128   3.507 -0.0260  0.0568  0.0830
  121MOL0     C16615   7.858   0.276   3.649 -0.9569  0.3076 -0.2517
  121MOL0     C16616   7.787   0.160   3.685  0.5345 -0.6401  0.1708
  121MOL0     C16617   7.666   0.166   3.742  0.3102 -0.4077  0.6962
  121MOL0     C16618   7.609   0.286   3.763 -0.0529 -1.0639 -0.2340
  121MOL0     O16619   7.484   0.273   3.821 -0.4411  0.6761 -0.4716
  121MOL0     C16620   7.405   0.391   3.826  0.2872 -0.3695 -0.0583
  121MOL0     C16621   7.267   0.345   3.882  0.0417 -0.0301  0.3437
  121MOL0     C16622   7.279   0.317   4.038 -0.2839  1.6186 -0.2897
  121MOL0     C16623   7.155   0.256   4.101 -0.8604 -0.0528  1.0062
  121MOL0     C16624   7.046   0.351   4.101 -0.4004 -1.2465  1.1107
  121MOL0     C16625   6.967   0.446   4.094 -0.0599 -0.4383  0.4141
  121MOL0     C16626   7.676   0.406   3.735  0.1713 -0.5782 -0.3560
  121MOL0     C16627   7.801   0.399   3.674 -0.0174 -1.0090 -0.7013
  121MOL0     C16628   7.861   0.534   3.632 -0.1414 -0.7446  1.0125
  121MOL0     H16629   8.029   0.000   3.277  1.0660 -2.6343  0.5824
  121MOL0     H16630   8.217  -0.040   3.160  0.6350  0.7378 -0.4309
  121MOL0     H16631   8.419   0.107   3.067  0.2215 -0.4328  0.0423
  121MOL0     H16632   8.432  -0.069   3.068 -0.0617 -0.5094  2.0034
  121MOL0     H16633   8.695  -0.046   3.092 -1.4831  0.3892  1.3671
  121MOL0     H16634   8.619   0.014   2.939 -0.8693 -2.2842  0.7505
  121MOL0     H16635   8.611   0.236   3.070  1.6430  2.0908  1.4896
  121MOL0     H16636   8.714   0.155   3.198  0.6224  1.7461  0.4336
  121MOL0     H16637   8.841   0.296   3.039 -0.4550  1.8834 -2.2121
  121MOL0     H16638   8.891   0.122   3.019 -0.4479 -0.9250 -0.0834
  121MOL0     H16639   8.697   0.265   2.838 -0.6241 -1.1395 -0.9544
  121MOL0     H16640   8.786   0.125   2.791  1.5985  2.1555 -2.7812
  121MOL0     H16641   8.910   0.404   2.838  0.7768  0.6564 -5.0833
  121MOL0     H16642   9.003   0.257   2.850  0.2293 -2.0818 -1.5187
  121MOL0     H16643   8.967   0.402   2.630  2.7499 -0.6078 -0.6336
  121MOL0     H16644   8.823   0.313   2.623 -0.6304 -0.7321  0.5393
  121MOL0     H16645   9.066   0.138   2.674 -0.1071 -2.4520 -0.3578
  121MOL0     H16646   8.933   0.104   2.567  1.3492 -0.6529 -2.2228
  121MOL0     H16647   8.960   0.118   2.321 -1.4223  2.6853 -2.1495
  121MOL0     H16648   9.108   0.360   2.097  0.1002  0.3111 -2.4406
  121MOL0     H16649   9.043   0.196   2.075 -0.0040  0.9710  0.2294
  121MOL0     H16650   9.340   0.290   2.101  2.2286  0.1127 -3.8799
  121MOL0     H16651   9.289   0.134   2.063 -0.4692  0.6398  1.2340
  121MOL0     H16652   9.174   0.257   1.855  0.9900  0.5522 -1.1747
  121MOL0     H16653   9.292   0.379   1.899 -1.4283  0.0532 -2.3213
  121MOL0     H16654   9.483   0.225   1.865  0.5317 -1.6693 -2.7238
  121MOL0     H16655   9.378   0.093   1.830 -0.4583 -0.9511  3.5032
  121MOL0     H16656   9.625   0.154   1.731 -1.0967 -2.7303  0.2857
  121MOL0     H16657   9.867   0.148   1.630  2.8798 -1.2259 -1.2856
  121MOL0     H16658   9.882   0.008   1.518  1.8058 -0.0193  1.9176
  121MOL0     H16659   9.808  -0.014   1.673 -3.8941  1.6061  2.0697
  121MOL0     H16660   9.839   0.119   1.027 -0.2421 -1.2636 -4.5578
  121MOL0     H16661  10.004   0.055   0.857  4.4320  0.0269 -0.7292
  121MOL0     H16662  10.400   0.050   1.007 -0.5779 -1.3584  1.8242
  121MOL0     H16663  10.388  -0.128   1.010  1.5370  0.2524 -0.7528
  121MOL0     H16664  10.457  -0.142   0.765  2.2199 -0.4424  0.2919
  121MOL0     H16665  10.487   0.022   0.760 -3.8249  1.9833  1.1470
  121MOL0     H16666  10.614  -0.221   0.889 -0.3280  0.3566  5.4815
  121MOL0     H16667  10.652  -0.073   0.981 -0.2588 -0.3300  0.3509
  121MOL0     H16668  10.677  -0.132   0.702 -0.3080 -0.2684  0.9939
  121MOL0     H16669  10.821  -0.125   0.818  1.1132  1.4967 -0.9859
  121MOL0     H16670  10.836   0.071   0.664  0.5728  3.2579  0.8012
  121MOL0     H16671  10.670   0.108   0.706 -1.7089 -0.6664  1.1136
  121MOL0     H16672  10.886   0.100   0.909  0.0629  1.2236  1.4336
  121MOL0     H16673  10.720   0.185   0.919  0.5217 -1.0991  0.3661
  121MOL0     H16674  10.871   0.369   0.872 -2.3948 -0.0865 -0.2280
  121MOL0     H16675  10.811   0.328   0.710 -1.8063 -1.0253 -0.2909
  121MOL0     H16676  11.039   0.347   0.677 -1.3035 -2.2110 -2.2772
  121MOL0     H16677  11.041   0.175   0.706  0.0894 -0.8405 -0.9752
  121MOL0     H16678  10.261  -0.092   1.165  1.1338  1.2424 -3.2201
  121MOL0     H16679  10.096  -0.031   1.341  0.4602 -1.7712 -0.6140
  121MOL0     H16680   9.475   0.128   1.267  0.3098  1.5629  0.3510
  121MOL0     H16681   9.318   0.189   1.449  0.8077 -2.0549 -0.6917
  121MOL0     H16682   8.467   0.116   3.482  0.2388 -0.9054  0.1512
  121MOL0     H16683   8.252   0.167   3.609  0.6213  1.3723 -0.4303
  121MOL0     H16684   7.829   0.062   3.670 -0.6602 -1.0821 -0.3852
  121MOL0     H16685   7.615   0.075   3.773 -0.4675 -1.0449 -2.1772
  121MOL0     H16686   7.448   0.468   3.892  1.3435 -1.1859  0.2341
  121MOL0     H16687   7.387   0.425   3.724  0.1748 -3.0060 -0.9828
  121MOL0     H16688   7.228   0.254   3.835 -1.0904  0.0044  1.1711
  121MOL0     H16689   7.201   0.430   3.870  3.9796  2.9573 -3.5700
  121MOL0     H16690   7.360   0.244   4.052 -0.0773  1.5444 -1.7394
  121MOL0     H16691   7.305   0.402   4.101  1.8760 -0.1160  1.3713
  121MOL0     H16692   7.173   0.204   4.196 -1.3827 -1.9643  0.1079
  121MOL0     H16693   7.133   0.176   4.030  1.7661 -0.3764  0.4533
  121MOL0     H16694   6.895   0.522   4.075  1.2656  1.4366  2.4050
  121MOL0     H16695   7.634   0.495   3.780  1.7792  0.1902 -0.3357
  121MOL0     H16696   7.795   0.583   3.561 -0.2069 -1.7431  0.3640
  121MOL0     H16697   7.882   0.611   3.707  0.1532  0.8743 -0.6650
  121MOL0     H16698   7.954   0.526   3.575  0.4281  1.6619  1.4871
  122MOL0     O16699   5.714   4.326  11.229  1.1395  0.7630 -0.0431
  122MOL0     C16700   5.771   4.418  11.282  0.0375  0.2778  0.5875
  122MOL0     O16701   5.714   4.544  11.306 -0.3152 -0.0254  0.2151
  122MOL0     C16702   5.587   4.560  11.265  0.6566 -0.9785 -0.3001
  122MOL0     C16703   5.558   4.589  11.132  0.1539 -0.0555 -0.5498
  122MOL0     C16704   5.426   4.622  11.099 -0.7725  0.2146  0.1898
  122MOL0     C16705   5.318   4.621  11.203 -0.3866 -0.1650  1.1651
  122MOL0     O16706   5.187   4.654  11.181 -0.2683  0.6883  0.5634
  122MOL0     C16707   5.108   4.631  11.060 -0.5784 -0.7138  0.0764
  122MOL0     C16708   4.959   4.678  11.070  0.2578  0.8369 -0.4440
  122MOL0     C16709   4.904   4.709  10.931  0.0510  0.0719  0.4551
  122MOL0     C16710   4.773   4.637  10.927 -0.5767  0.0150  0.3936
  122MOL0     C16711   4.701   4.669  10.792 -0.5001 -0.9826 -0.4922
  122MOL0     C16712   4.576   4.578  10.769 -0.4637  0.3478  0.0238
  122MOL0     C16713   4.535   4.599  10.621  0.4606  0.3146 -0.1779
  122MOL0     C16714   4.421   4.511  10.574  0.2567  0.2028  0.4395
  122MOL0     N16715   4.412   4.506  10.427  0.1664  0.3129 -0.2320
  122MOL0     C16716   4.471   4.417  10.336  0.2096  0.0634 -0.7395
  122MOL0     C16717   4.389   4.416  10.236  0.5205  0.5456 -0.5990
  122MOL0     C16718   4.431   4.327  10.122  0.6844 -0.3624  0.3876
  122MOL0     C16719   4.304   4.282  10.037 -0.1452 -0.3745 -0.4914
  122MOL0     C16720   4.336   4.191   9.907  0.2421 -0.0686 -0.2471
  122MOL0     C16721   4.217   4.160   9.816  0.4268 -0.4408  0.6334
  122MOL0     O16722   4.182   4.283   9.740  0.3281  0.2198  0.0232
  122MOL0     C16723   4.181   4.277   9.604 -0.1597 -0.3667 -0.0805
  122MOL0     C16724   4.302   4.276   9.538 -0.3620 -0.5568 -0.0767
  122MOL0     C16725   4.314   4.276   9.398  0.1045  0.5506 -0.1754
  122MOL0     C16726   4.443   4.311   9.339  0.3134  1.0814  0.3050
  122MOL0     C16727   4.187   4.274   9.324 -0.4550  0.1774 -0.8485
  122MOL0     C16728   4.183   4.261   9.179  0.2477  0.4634  0.6770
  122MOL0     O16729   4.067   4.286   9.119  0.3349 -0.7594  0.2042
  122MOL0     C16730   4.041   4.249   8.985  1.0412  0.3565 -0.6539
  122MOL0     C16731   3.993   4.347   8.889 -0.3601 -0.6244 -0.0337
  122MOL0     C16732   3.975   4.311   8.758  0.5919  0.2147 -0.0063
  122MOL0     C16733   3.990   4.176   8.718 -0.9415  0.2576  0.1533
  122MOL0     O16734   3.977   4.140   8.583 -0.3014 -0.1998  0.8324
  122MOL0     C16735   4.089   4.090   8.514  0.9710  0.1527  0.1642
  122MOL0     C16736   4.085   4.160   8.375  0.5728  0.4999 -0.3723
  122MOL0     C16737   4.230   4.162   8.314  0.4751 -0.3825  0.0022
  122MOL0     C16738   4.229   4.209   8.161 -0.6792  0.3209  0.3409
  122MOL0     C16739   4.369   4.243   8.124  0.5530 -0.2592 -0.1840
  122MOL0     C16740   4.392   4.262   7.974 -0.7204 -0.3917  0.6990
  122MOL0     C16741   4.543   4.274   7.948  0.1238  0.9289  0.1075
  122MOL0     C16742   4.576   4.332   7.810  0.4375  0.5327 -0.0757
  122MOL0    Cl16743   4.522   4.496   7.770  0.3088 -0.0326  0.2631
  122MOL0     C16744   4.010   4.079   8.812  0.5189  0.4342 -0.8200
  122MOL0     C16745   4.041   4.120   8.942 -0.0103  0.0767 -0.1700
  122MOL0     O16746   4.274   4.202   9.133  0.7668  0.7028 -0.1255
  122MOL0     C16747   4.064   4.282   9.392  0.0171 -0.1347 -0.0093
  122MOL0     C16748   4.062   4.280   9.533  0.2190 -0.1183 -0.6262
  122MOL0     N16749   4.301   4.519  10.247  0.0016 -0.2196  0.7695
  122MOL0     N16750   4.316   4.574  10.363  0.6806 -0.2324 -0.2548
  122MOL0     C16751   5.359   4.585  11.330  0.1193  0.3115  0.7794
  122MOL0     C16752   5.488   4.539  11.358  0.3260  0.0007  0.3961
  122MOL0     C16753   5.915   4.391  11.323  0.2020 -0.5450  0.2422
  122MOL0     C16754   5.984   4.494  11.386  0.1504  0.4584 -0.1961
  122MOL0     C16755   6.107   4.487  11.443 -0.6141  0.3030 -1.2791
  122MOL0     C16756   6.180   4.367  11.423  0.3283  0.1170 -0.2320
  122MOL0     O16757   6.298   4.366  11.484  0.0050  0.2943 -1.1157
  122MOL0     C16758   6.364   4.239  11.503  0.1847  1.0553  0.3440
  122MOL0     C16759   6.497   4.269  11.563  0.8574 -0.8487 -0.1888
  122MOL0     C16760   6.576   4.378  11.487  0.0770 -0.8470 -0.3638
  122MOL0     C16761   6.715   4.393  11.567  0.0040  0.0432 -0.4974
  122MOL0     C16762   6.820   4.464  11.491 -0.2757 -0.2958 -0.6076
  122MOL0     C16763   6.900   4.503  11.409  0.4020 -0.4631 -0.4796
  122MOL0     C16764   6.115   4.257  11.355 -0.3938 -0.0139  0.0041
  122MOL0     C16765   5.984   4.268  11.301 -0.5806  1.2334  0.5427
  122MOL0     C16766   5.936   4.155  11.214 -0.2348  0.0541 -0.0086
  122MOL0     H16767   5.630   4.602  11.052 -0.6543  0.4864 -1.2117
  122MOL0     H16768   5.405   4.623  10.993  1.4975  2.6434 -0.3145
  122MOL0     H16769   5.113   4.524  11.037  0.8911 -0.2266 -2.2042
  122MOL0     H16770   5.158   4.681  10.977 -0.2690 -0.6845  0.2765
  122MOL0     H16771   4.910   4.592  11.116 -1.7151  2.3241  0.3903
  122MOL0     H16772   4.936   4.759  11.140  0.6181 -0.9374  1.8401
  122MOL0     H16773   4.891   4.816  10.913 -0.2711 -0.1436 -0.6694
  122MOL0     H16774   4.975   4.681  10.852  0.5765 -0.1685  1.0023
  122MOL0     H16775   4.803   4.532  10.929  1.7185  0.5920 -0.8445
  122MOL0     H16776   4.707   4.652  11.013  1.4436  2.8987  1.5671
  122MOL0     H16777   4.774   4.677  10.712  0.7549  3.3352  0.8369
  122MOL0     H16778   4.671   4.774  10.791  1.6009 -0.3568 -1.0245
  122MOL0     H16779   4.593   4.470  10.777  0.3882  0.3575 -1.3223
  122MOL0     H16780   4.501   4.620  10.836 -0.3926  1.0168 -0.3027
  122MOL0     H16781   4.621   4.588  10.553 -0.1215 -2.3037 -0.6352
  122MOL0     H16782   4.524   4.707  10.609  5.4357  1.5647  3.3796
  122MOL0     H16783   4.417   4.411  10.616  0.1948 -0.4086 -0.9556
  122MOL0     H16784   4.330   4.562  10.609  1.1492 -1.1248  5.3764
  122MOL0     H16785   4.545   4.346  10.369 -1.4270 -0.9073  1.1130
  122MOL0     H16786   4.470   4.230  10.157  1.5689  0.2005  0.9993
  122MOL0     H16787   4.500   4.382  10.057 -0.3981 -2.2121 -2.5575
  122MOL0     H16788   4.226   4.233  10.096 -0.4563 -0.2046 -0.7543
  122MOL0     H16789   4.272   4.380   9.999  0.5250  0.0298 -0.0218
  122MOL0     H16790   4.408   4.241   9.841 -0.1834  1.3257  0.3115
  122MOL0     H16791   4.382   4.098   9.942 -0.0003 -1.0465 -2.3881
  122MOL0     H16792   4.250   4.084   9.744  1.8105  0.3422  0.4076
  122MOL0     H16793   4.136   4.122   9.879  0.1690 -1.8323 -0.4928
  122MOL0     H16794   4.398   4.277   9.590 -0.1570 -1.9698 -0.3935
  122MOL0     H16795   4.515   4.343   9.414 -0.1401  0.9330  0.8158
  122MOL0     H16796   4.427   4.383   9.259 -0.0889 -1.9804 -2.6036
  122MOL0     H16797   4.484   4.221   9.292 -1.9682  1.2434 -2.2452
  122MOL0     H16798   3.983   4.447   8.932 -1.2220 -1.6325  2.2827
  122MOL0     H16799   3.962   4.387   8.682 -1.7278 -0.0870  0.0089
  122MOL0     H16800   4.180   4.114   8.569  0.5039 -0.4237  1.2040
  122MOL0     H16801   4.085   3.981   8.516 -1.3369  0.1896  0.8265
  122MOL0     H16802   4.015   4.106   8.310 -0.2906  1.0899  0.0602
  122MOL0     H16803   4.052   4.263   8.383  1.5866  0.7622  0.6687
  122MOL0     H16804   4.274   4.062   8.303  0.5580 -0.3549  0.0746
  122MOL0     H16805   4.287   4.235   8.373 -1.7682  0.8171  0.7708
  122MOL0     H16806   4.165   4.297   8.152 -0.8409  0.2302  0.5781
  122MOL0     H16807   4.191   4.130   8.095 -1.3898  0.7035  0.2860
  122MOL0     H16808   4.399   4.333   8.179 -1.0954 -0.7394  1.6538
  122MOL0     H16809   4.440   4.171   8.166 -1.1238 -2.1555 -0.4594
  122MOL0     H16810   4.346   4.354   7.936 -1.1415 -1.0613 -0.4483
  122MOL0     H16811   4.355   4.188   7.903 -0.8832 -0.5866  0.9880
  122MOL0     H16812   4.574   4.169   7.943  1.8142  1.4699 -1.5963
  122MOL0     H16813   4.602   4.326   8.025 -0.9218 -1.6901  2.9063
  122MOL0     H16814   4.524   4.271   7.735 -0.5233  4.1890 -2.6251
  122MOL0     H16815   4.684   4.333   7.800  0.4442  0.0740 -0.0780
  122MOL0     H16816   3.998   3.976   8.781  0.1869 -0.3713  1.7722
  122MOL0     H16817   4.059   4.041   9.014 -0.3549 -2.0484 -2.3090
  122MOL0     H16818   3.969   4.291   9.340  0.0557  3.7080  0.2785
  122MOL0     H16819   3.970   4.282   9.590 -0.5212  0.7671 -1.7874
  122MOL0     H16820   5.277   4.582  11.401 -0.0823 -3.5081  0.6031
  122MOL0     H16821   5.514   4.513  11.461  0.1399  3.6414  1.5208
  122MOL0     H16822   5.941   4.591  11.410  3.0849  1.7502  0.2161
  122MOL0     H16823   6.145   4.582  11.478 -0.2550 -0.6955  1.2008
  122MOL0     H16824   6.304   4.165  11.556  1.3418 -0.5370 -0.4963
  122MOL0     H16825   6.373   4.194  11.404 -2.8578 -0.1092  0.4778
  122MOL0     H16826   6.564   4.183  11.551  2.4245  0.3067 -0.1097
  122MOL0     H16827   6.482   4.291  11.669  0.9254 -0.2519 -0.2995
  122MOL0     H16828   6.590   4.357  11.380  2.8919 -0.7445 -0.0767
  122MOL0     H16829   6.533   4.477  11.506 -0.0590 -0.8363 -0.7155
  122MOL0     H16830   6.750   4.296  11.603 -2.3164 -0.7949 -0.3715
  122MOL0     H16831   6.698   4.450  11.658 -0.1909 -1.9357  0.7651
  122MOL0     H16832   6.968   4.539  11.335  1.4233 -1.0841  0.1223
  122MOL0     H16833   6.179   4.170  11.341 -0.0599 -0.7788  4.7632
  122MOL0     H16834   5.851   4.112  11.268  0.6497  2.9069  4.1049
  122MOL0     H16835   5.911   4.187  11.112  0.8919  0.6793 -0.1038
  122MOL0     H16836   6.005   4.071  11.209  0.6346  0.8123 -1.2673
  123MOL0     O16837   6.537   0.892   5.186 -0.2328  0.0007  0.3100
  123MOL0     C16838   6.507   0.825   5.091 -0.5794  0.3998  0.7595
  123MOL0     O16839   6.381   0.764   5.078  0.1776  0.1101  0.1136
  123MOL0     C16840   6.284   0.787   5.172 -0.4408  0.1905  0.0925
  123MOL0     C16841   6.160   0.826   5.118  0.5601 -0.0651  0.7951
  123MOL0     C16842   6.051   0.850   5.200  0.1430  0.0318 -0.2166
  123MOL0     C16843   6.056   0.829   5.341  0.0477  0.9217  0.4124
  123MOL0     O16844   5.944   0.861   5.417 -0.0161 -0.0740  0.1140
  123MOL0     C16845   5.897   0.752   5.501  0.6262 -0.5193  0.5098
  123MOL0     C16846   5.756   0.779   5.535  0.7975  0.1700 -0.5391
  123MOL0     C16847   5.709   0.686   5.648  0.6667 -0.6226 -0.2122
  123MOL0     C16848   5.667   0.553   5.604  1.3560 -0.2762  0.3525
  123MOL0     C16849   5.527   0.546   5.539  0.5731 -0.2720 -0.1586
  123MOL0     C16850   5.401   0.591   5.617  0.6405  0.1344 -0.1376
  123MOL0     C16851   5.373   0.531   5.757 -0.9056  0.3042  0.4465
  123MOL0     C16852   5.314   0.390   5.756 -0.4428  0.5486 -1.1978
  123MOL0     N16853   5.253   0.352   5.892  0.0654 -0.0492 -0.2623
  123MOL0     C16854   5.247   0.421   6.010 -0.1148  0.2818 -0.0714
  123MOL0     C16855   5.181   0.337   6.098 -0.6839 -0.0650  0.7594
  123MOL0     C16856   5.112   0.386   6.224 -0.4272 -0.9869 -0.2051
  123MOL0     C16857   4.970   0.420   6.197 -0.8979  0.1143 -0.3411
  123MOL0     C16858   4.907   0.442   6.333  1.1622 -0.0902 -1.2456
  123MOL0     C16859   4.852   0.321   6.412 -0.7631  0.0991 -0.0280
  123MOL0     O16860   4.780   0.356   6.528 -0.3197  0.6915 -0.0845
  123MOL0     C16861   4.677   0.283   6.565  0.0564  0.8929  0.6683
  123MOL0     C16862   4.582   0.331   6.647 -0.0347 -0.1192 -0.1830
  123MOL0     C16863   4.465   0.263   6.691  0.2886 -0.1427  0.9017
  123MOL0     C16864   4.378   0.350   6.784  0.2032  0.7661 -1.0126
  123MOL0     C16865   4.449   0.128   6.647 -0.6116 -0.2291 -0.5695
  123MOL0     C16866   4.336   0.037   6.688  0.9434  0.3897 -0.4980
  123MOL0     O16867   4.220   0.095   6.734  0.6661  0.1466 -0.5195
  123MOL0     C16868   4.131   0.017   6.800  0.4148  0.9159  0.1222
  123MOL0     C16869   3.998  -0.009   6.759 -0.1581  0.4672 -0.0241
  123MOL0     C16870   3.901  -0.071   6.837  0.0001  0.8921 -0.1510
  123MOL0     C16871   3.940  -0.136   6.958 -0.8677 -0.1579 -0.8260
  123MOL0     O16872   3.855  -0.208   7.039  0.1181 -0.2092 -0.0577
  123MOL0     C16873   3.801  -0.320   6.972  0.1274  0.0766 -0.4686
  123MOL0     C16874   3.693  -0.390   7.056  0.0790 -0.4738  0.3307
  123MOL0     C16875   3.619  -0.495   6.968  1.1034  0.4579 -0.3266
  123MOL0     C16876   3.697  -0.628   6.961  0.5701  0.6064  0.5074
  123MOL0     C16877   3.643  -0.724   7.069  0.2548  0.1773  0.0595
  123MOL0     C16878   3.552  -0.834   7.007  0.4849 -0.1816 -0.6054
  123MOL0     C16879   3.434  -0.785   6.916 -0.6005 -0.1008 -0.2632
  123MOL0     C16880   3.336  -0.889   6.867 -0.2803 -0.2508  0.2790
  123MOL0    Cl16881   3.415  -1.037   6.790  0.0033 -0.1959 -0.0352
  123MOL0     C16882   4.072  -0.106   6.999  0.0112  0.0817 -0.2772
  123MOL0     C16883   4.164  -0.028   6.926  0.1780  0.0522 -0.3349
  123MOL0     O16884   4.341  -0.085   6.675 -0.2771  0.1391 -0.3068
  123MOL0     C16885   4.556   0.072   6.568 -0.3737  0.0666 -0.0891
  123MOL0     C16886   4.669   0.144   6.542 -0.1165  0.0593  0.2371
  123MOL0     N16887   5.142   0.226   6.027 -0.0867  0.3951  0.5326
  123MOL0     N16888   5.186   0.231   5.909  0.2806 -0.0794  0.1583
  123MOL0     C16889   6.180   0.791   5.397 -0.6105  0.6005 -0.0107
  123MOL0     C16890   6.290   0.772   5.312  0.1243  1.7555 -1.4032
  123MOL0     C16891   6.622   0.807   4.988 -0.1065 -0.0692 -0.0158
  123MOL0     C16892   6.610   0.708   4.891 -0.2299  0.4887  0.0861
  123MOL0     C16893   6.708   0.700   4.790  0.3896 -0.0459 -0.0171
  123MOL0     C16894   6.814   0.792   4.769  1.5029  0.0845 -0.5924
  123MOL0     O16895   6.895   0.780   4.654  0.3355  0.4504  0.2003
  123MOL0     C16896   7.022   0.716   4.662  0.1482 -0.0119  0.4263
  123MOL0     C16897   7.000   0.569   4.720 -0.8517 -0.1389 -0.4043
  123MOL0     C16898   7.128   0.486   4.698 -0.4222 -0.0331 -0.0533
  123MOL0     C16899   7.104   0.331   4.699 -0.1722  0.0480 -1.3844
  123MOL0     C16900   7.053   0.275   4.568 -1.2464 -0.1537 -0.6170
  123MOL0     C16901   7.038   0.224   4.462  0.3025 -0.3063 -0.4019
  123MOL0     C16902   6.824   0.892   4.866  0.2008 -0.9220  0.8838
  123MOL0     C16903   6.736   0.900   4.978  0.2955 -0.9189  0.7739
  123MOL0     C16904   6.777   1.017   5.062  0.1233 -0.6557 -0.5515
  123MOL0     H16905   6.146   0.837   5.011  0.4307  1.2601  0.9234
  123MOL0     H16906   5.966   0.889   5.146  2.2089 -0.2489 -4.0287
  123MOL0     H16907   5.950   0.761   5.596 -0.7902 -2.7748  1.5977
  123MOL0     H16908   5.913   0.655   5.454 -1.6466 -0.4610 -0.5022
  123MOL0     H16909   5.772   0.880   5.575  1.1216 -0.5114  1.1044
  123MOL0     H16910   5.692   0.776   5.446  0.9804  0.3303 -0.6779
  123MOL0     H16911   5.792   0.670   5.718  0.5052 -1.8147 -0.2728
  123MOL0     H16912   5.629   0.744   5.695 -0.0174 -1.5631 -0.1830
  123MOL0     H16913   5.739   0.505   5.537 -2.5091 -3.8978 -1.6409
  123MOL0     H16914   5.667   0.489   5.693  2.4357  0.2761  0.7681
  123MOL0     H16915   5.511   0.438   5.530 -3.0317  0.2080 -1.1376
  123MOL0     H16916   5.528   0.598   5.442  1.4825 -1.9845 -1.1150
  123MOL0     H16917   5.394   0.701   5.618  1.2249  0.2477 -2.7117
  123MOL0     H16918   5.309   0.565   5.564  0.4660  3.2933 -1.6119
  123MOL0     H16919   5.299   0.596   5.804 -2.0257 -0.4315 -0.2382
  123MOL0     H16920   5.471   0.533   5.805 -0.2982  1.7904 -0.7672
  123MOL0     H16921   5.223   0.377   5.697  0.7972 -3.4250 -2.5586
  123MOL0     H16922   5.394   0.317   5.740 -0.3360  0.1702  0.8546
  123MOL0     H16923   5.264   0.527   6.027  1.2125 -0.1403  1.4170
  123MOL0     H16924   5.167   0.471   6.266 -0.7094 -0.1996 -1.3768
  123MOL0     H16925   5.126   0.317   6.307 -0.1818  0.4583  1.0115
  123MOL0     H16926   4.964   0.511   6.136  0.7971  0.6792  0.2872
  123MOL0     H16927   4.921   0.340   6.140 -2.8949  0.9847  0.0685
  123MOL0     H16928   4.969   0.488   6.410 -1.8791 -0.2403  1.4726
  123MOL0     H16929   4.833   0.520   6.316  3.0820  2.0987 -0.2205
  123MOL0     H16930   4.776   0.282   6.343  0.7766 -0.5420 -1.4338
  123MOL0     H16931   4.932   0.250   6.434  0.6010  1.7753  0.5760
  123MOL0     H16932   4.596   0.437   6.667  0.3254 -0.2177  0.0893
  123MOL0     H16933   4.451   0.389   6.856  0.7078 -2.2273  0.2687
  123MOL0     H16934   4.301   0.298   6.842 -1.7374  0.3692 -3.7392
  123MOL0     H16935   4.342   0.440   6.733  0.4295  3.9262  3.7684
  123MOL0     H16936   3.960   0.039   6.669 -1.0190  2.9975  1.5721
  123MOL0     H16937   3.801  -0.075   6.795  0.3574 -1.7540 -0.9570
  123MOL0     H16938   3.755  -0.297   6.875 -1.2892 -0.9131 -0.0634
  123MOL0     H16939   3.882  -0.387   6.945  0.9393  0.7048  0.3387
  123MOL0     H16940   3.746  -0.437   7.139 -1.9766 -2.3433  0.6798
  123MOL0     H16941   3.622  -0.323   7.105  0.5981  1.6031 -1.5650
  123MOL0     H16942   3.594  -0.451   6.871  1.9231  0.6997 -0.4312
  123MOL0     H16943   3.521  -0.511   7.014 -0.3114 -2.4120 -3.8094
  123MOL0     H16944   3.805  -0.620   6.977  0.7385  0.9487 -0.7355
  123MOL0     H16945   3.679  -0.670   6.862 -0.7129 -0.1690  1.0363
  123MOL0     H16946   3.732  -0.760   7.121  3.5158  5.0223 -1.4201
  123MOL0     H16947   3.582  -0.672   7.144  0.4054  2.5876 -1.3855
  123MOL0     H16948   3.520  -0.900   7.088  2.7512  1.1077  1.4737
  123MOL0     H16949   3.612  -0.900   6.944 -0.4784 -0.5045 -1.1945
  123MOL0     H16950   3.481  -0.751   6.823 -0.3956 -2.5046 -1.1056
  123MOL0     H16951   3.376  -0.700   6.955  0.8844  0.8863 -0.1318
  123MOL0     H16952   3.271  -0.849   6.789  0.1599 -0.9890 -0.4803
  123MOL0     H16953   3.268  -0.913   6.949 -0.8502  2.8361  0.8388
  123MOL0     H16954   4.110  -0.132   7.097  1.0623  0.0803 -0.6736
  123MOL0     H16955   4.260   0.003   6.967 -0.0858  0.6661 -0.1699
  123MOL0     H16956   4.553  -0.036   6.558 -0.5151 -0.0338  0.9229
  123MOL0     H16957   4.748   0.091   6.490 -0.0690  0.8536 -0.5242
  123MOL0     H16958   6.185   0.775   5.505  2.6057  0.6128 -0.0772
  123MOL0     H16959   6.379   0.725   5.352 -2.5334 -1.9055  0.8620
  123MOL0     H16960   6.523   0.642   4.892 -0.2469  0.5156  1.0886
  123MOL0     H16961   6.702   0.613   4.726  4.1409 -1.0099  0.6441
  123MOL0     H16962   7.059   0.719   4.559 -3.8265 -0.5774 -1.2059
  123MOL0     H16963   7.098   0.768   4.720  1.8765 -0.3679 -1.3842
  123MOL0     H16964   6.921   0.520   4.661  0.1673 -0.7872 -1.2748
  123MOL0     H16965   6.972   0.564   4.826 -0.6386 -3.3055 -0.3819
  123MOL0     H16966   7.183   0.501   4.605  0.1814 -1.7528 -0.0162
  123MOL0     H16967   7.204   0.514   4.772  0.5917  0.9858 -1.4391
  123MOL0     H16968   7.032   0.309   4.777 -1.3550 -0.9605 -2.7005
  123MOL0     H16969   7.191   0.267   4.716 -1.5262 -2.4740 -3.3442
  123MOL0     H16970   7.033   0.173   4.368 -0.1994 -2.7289  0.8480
  123MOL0     H16971   6.895   0.973   4.855 -1.4229  0.9207  3.0496
  123MOL0     H16972   6.742   1.109   5.016 -0.6608 -0.4638  0.3844
  123MOL0     H16973   6.733   1.019   5.163  0.5901 -0.3436 -0.3559
  123MOL0     H16974   6.884   1.034   5.076 -0.1410  2.1846 -1.4707
  124MOL0     O16975   5.824   3.855  10.075  0.1873  0.1090  0.4042
  124MOL0     C16976   5.741   3.918  10.017 -0.1836  0.3134 -0.3870
  124MOL0     O16977   5.669   3.866   9.922  0.0507  0.2875  0.4221
  124MOL0     C16978   5.713   3.770   9.833 -0.5677  0.2999  0.3842
  124MOL0     C16979   5.618   3.672   9.784  0.7735 -0.0827 -1.1849
  124MOL0     C16980   5.660   3.572   9.692  0.7793 -0.5621  0.4157
  124MOL0     C16981   5.793   3.567   9.651 -0.7111 -0.5924  0.2682
  124MOL0     O16982   5.826   3.459   9.568  0.2644  0.4305 -0.0205
  124MOL0     C16983   5.844   3.493   9.424 -1.0272  0.1194  0.2669
  124MOL0     C16984   5.866   3.365   9.348  0.6412 -0.1266  0.6959
  124MOL0     C16985   5.959   3.265   9.424  0.1463 -0.0141  0.0301
  124MOL0     C16986   6.039   3.166   9.346 -1.0188 -0.4279 -0.0556
  124MOL0     C16987   6.157   3.104   9.428 -0.1270 -0.1778  0.0728
  124MOL0     C16988   6.229   2.991   9.356  0.4497 -0.1228 -0.8763
  124MOL0     C16989   6.383   2.981   9.393 -0.3985  0.2774  0.9094
  124MOL0     C16990   6.419   2.836   9.374 -0.7196 -0.0721  0.7909
  124MOL0     N16991   6.382   2.749   9.481  0.1503  0.5527 -0.1696
  124MOL0     C16992   6.415   2.760   9.616 -0.3289 -0.0832  0.4593
  124MOL0     C16993   6.343   2.662   9.681 -0.1165 -0.7264  0.1665
  124MOL0     C16994   6.332   2.648   9.825  0.1253 -0.1329 -0.6677
  124MOL0     C16995   6.312   2.782   9.888 -0.4393  0.3693 -0.0468
  124MOL0     C16996   6.188   2.859   9.835 -1.0616  0.2965  0.1035
  124MOL0     C16997   6.115   2.920   9.957 -0.6174  0.1958  0.7647
  124MOL0     O16998   6.078   2.837  10.069 -0.8864  0.3649  0.2104
  124MOL0     C16999   6.054   2.905  10.179  0.1071  0.0079 -0.5087
  124MOL0     C17000   6.070   2.838  10.298  0.2905  0.6022  0.2449
  124MOL0     C17001   6.013   2.880  10.421 -0.2518  1.0409 -0.0381
  124MOL0     C17002   6.020   2.780  10.533  0.6758  0.1824  1.0280
  124MOL0     C17003   5.960   3.009  10.433 -0.1722 -0.0508  0.8754
  124MOL0     C17004   5.910   3.071  10.550 -0.2741  0.4450 -0.4088
  124MOL0     O17005   5.815   3.162  10.541  0.4885 -0.6064 -0.3190
  124MOL0     C17006   5.718   3.206  10.638  0.1625 -0.7424  0.2974
  124MOL0     C17007   5.639   3.313  10.606  0.2054 -1.1375  0.4956
  124MOL0     C17008   5.541   3.352  10.688  0.8988  0.2751 -0.2557
  124MOL0     C17009   5.512   3.287  10.809 -0.4285  0.4284 -0.4602
  124MOL0     O17010   5.402   3.342  10.879  0.0291  0.7431 -0.0911
  124MOL0     C17011   5.327   3.251  10.954  0.7477  0.4322  0.0468
  124MOL0     C17012   5.341   3.273  11.107  0.0968  0.5326  0.1304
  124MOL0     C17013   5.363   3.136  11.184 -0.8292  0.4040 -0.0117
  124MOL0     C17014   5.391   3.156  11.328  0.1424  0.0953 -1.0486
  124MOL0     C17015   5.337   3.040  11.414 -0.2239 -0.8182  0.4047
  124MOL0     C17016   5.404   2.907  11.394 -0.1793  0.1990 -0.1331
  124MOL0     C17017   5.351   2.802  11.504  0.9388  0.1073  0.3843
  124MOL0     C17018   5.203   2.761  11.485  0.0633  1.0050 -0.2504
  124MOL0    Cl17019   5.200   2.619  11.588 -0.1563 -0.1562  0.0784
  124MOL0     C17020   5.593   3.179  10.844  0.0054  0.3935 -0.8263
  124MOL0     C17021   5.697   3.139  10.759  0.4673  0.2864 -0.3681
  124MOL0     O17022   5.964   3.038  10.659  0.5717 -0.4038 -0.3863
  124MOL0     C17023   5.943   3.078  10.311 -0.3892  0.3890  0.2693
  124MOL0     C17024   5.995   3.031  10.189  0.5067 -0.6236  1.3396
  124MOL0     N17025   6.263   2.609   9.590 -0.5021 -0.0079  0.0381
  124MOL0     N17026   6.299   2.634   9.472 -0.1713 -0.6419 -0.4239
  124MOL0     C17027   5.886   3.668   9.697 -0.1797 -0.0482  0.2957
  124MOL0     C17028   5.844   3.766   9.786  0.2381  0.0046  0.1787
  124MOL0     C17029   5.708   4.053  10.073 -0.8944 -0.7518 -0.0921
  124MOL0     C17030   5.651   4.137   9.983  0.0650 -0.3073 -0.2294
  124MOL0     C17031   5.609   4.263  10.017  0.9312 -0.1566 -0.4603
  124MOL0     C17032   5.615   4.309  10.156 -0.0672  0.2313  0.0342
  124MOL0     O17033   5.571   4.432  10.206 -0.0169 -0.1396  0.5015
  124MOL0     C17034   5.528   4.525  10.095 -0.0151  0.0219 -0.4031
  124MOL0     C17035   5.556   4.663  10.137  0.4873  0.6793  0.9105
  124MOL0     C17036   5.552   4.762  10.015 -1.3612 -0.2634 -0.5350
  124MOL0     C17037   5.551   4.904  10.063 -0.6015 -0.6212  0.9461
  124MOL0     C17038   5.628   4.982   9.965  0.8241  1.2690 -0.6567
  124MOL0     C17039   5.697   5.045   9.891  0.6405  0.2229  0.4918
  124MOL0     C17040   5.682   4.235  10.249 -1.0448 -0.2831 -0.2071
  124MOL0     C17041   5.739   4.104  10.207  0.1297  0.5617  0.0462
  124MOL0     C17042   5.823   4.016  10.310 -0.1256 -0.7075 -0.4051
  124MOL0     H17043   5.522   3.667   9.833  0.9903  2.8204 -0.2726
  124MOL0     H17044   5.582   3.498   9.677 -1.4764  1.0670  2.9263
  124MOL0     H17045   5.924   3.568   9.416 -1.2848  0.5335  1.4806
  124MOL0     H17046   5.757   3.550   9.392  0.5702  2.2245 -0.5881
  124MOL0     H17047   5.769   3.315   9.334  0.4375  0.9773 -2.7834
  124MOL0     H17048   5.891   3.402   9.249 -2.4529  3.5702  1.0313
  124MOL0     H17049   6.022   3.335   9.479  0.0844  0.1923 -0.1574
  124MOL0     H17050   5.900   3.216   9.502 -0.0589 -0.5859 -0.4786
  124MOL0     H17051   5.980   3.078   9.316  1.8751 -2.8875  0.9771
  124MOL0     H17052   6.079   3.216   9.257 -1.3653  2.9690  1.5596
  124MOL0     H17053   6.121   3.070   9.526 -0.8101 -0.4125 -0.2492
  124MOL0     H17054   6.210   3.199   9.438 -1.2508  0.3324  1.7342
  124MOL0     H17055   6.179   2.896   9.379 -0.0255 -0.3455 -2.6930
  124MOL0     H17056   6.220   3.004   9.248 -1.7550  1.3455 -0.5820
  124MOL0     H17057   6.416   3.018   9.491  1.9964  1.2198 -0.1981
  124MOL0     H17058   6.425   3.043   9.315 -1.3636 -2.9765 -2.4948
  124MOL0     H17059   6.367   2.786   9.290  1.0976  0.8829 -0.9801
  124MOL0     H17060   6.525   2.817   9.358 -1.0249 -0.4184 -1.0796
  124MOL0     H17061   6.471   2.834   9.673 -3.1801  1.9644  0.8287
  124MOL0     H17062   6.410   2.585   9.869 -1.1521 -1.6055 -0.4108
  124MOL0     H17063   6.235   2.602   9.848  0.1419  0.1521 -0.0118
  124MOL0     H17064   6.321   2.777   9.997  2.2161  4.2864  0.1371
  124MOL0     H17065   6.394   2.852   9.870  0.9068  0.3408  4.8190
  124MOL0     H17066   6.202   2.944   9.769  1.2025  0.1042  0.2771
  124MOL0     H17067   6.120   2.791   9.782  1.1369  0.4953 -3.2409
  124MOL0     H17068   6.186   2.989  10.003 -0.9798  3.0500 -2.5475
  124MOL0     H17069   6.031   2.978   9.918  0.9705  1.4478 -0.9647
  124MOL0     H17070   6.117   2.740  10.295 -0.2744  0.3463 -0.4204
  124MOL0     H17071   6.072   2.686  10.512  2.3039  0.9091  1.6716
  124MOL0     H17072   5.921   2.751  10.570  1.2029 -1.4542  1.2237
  124MOL0     H17073   6.087   2.817  10.611  0.7419  2.4235 -0.0150
  124MOL0     H17074   5.657   3.356  10.507  0.5543 -0.3496  0.8922
  124MOL0     H17075   5.476   3.436  10.668  2.0904  0.9649 -1.4246
  124MOL0     H17076   5.220   3.269  10.943  0.8590  2.1097  1.3488
  124MOL0     H17077   5.350   3.147  10.928 -2.3782 -0.1776 -0.7008
  124MOL0     H17078   5.427   3.333  11.138 -0.3005  2.1301 -1.6547
  124MOL0     H17079   5.252   3.324  11.147  1.1492  3.2118 -0.7288
  124MOL0     H17080   5.449   3.089  11.136 -1.6249  2.3386 -3.7145
  124MOL0     H17081   5.272   3.075  11.180 -0.7712  0.3134  0.0811
  124MOL0     H17082   5.347   3.248  11.370  0.3168  0.8040 -2.3575
  124MOL0     H17083   5.498   3.171  11.343  0.5222  1.5120 -4.3096
  124MOL0     H17084   5.361   3.072  11.516  1.3482 -1.5390  0.2838
  124MOL0     H17085   5.232   3.026  11.388 -0.7532 -0.2654  2.0786
  124MOL0     H17086   5.509   2.925  11.415  0.7280 -5.1627  1.4089
  124MOL0     H17087   5.403   2.879  11.288  0.9890  0.3986 -0.2097
  124MOL0     H17088   5.354   2.845  11.604  2.5948  2.5810 -0.6149
  124MOL0     H17089   5.403   2.706  11.501 -1.2526 -1.1651 -2.9689
  124MOL0     H17090   5.198   2.725  11.381 -0.0777 -2.2706  0.7709
  124MOL0     H17091   5.126   2.836  11.504 -0.5422  0.3087  0.1182
  124MOL0     H17092   5.576   3.135  10.942 -1.8269  0.4667 -1.0795
  124MOL0     H17093   5.762   3.053  10.772  2.3853  1.0236 -3.8774
  124MOL0     H17094   5.891   3.173  10.302  1.1921  1.2577 -0.0321
  124MOL0     H17095   5.979   3.098  10.105 -1.2267 -1.8077  0.6626
  124MOL0     H17096   5.988   3.660   9.662 -0.2983  1.6135 -0.5256
  124MOL0     H17097   5.913   3.842   9.822 -0.9326  1.7213 -1.0072
  124MOL0     H17098   5.638   4.107   9.879 -0.0241  2.4099 -1.0972
  124MOL0     H17099   5.571   4.327   9.938 -2.5340 -0.1351  1.0676
  124MOL0     H17100   5.582   4.509  10.001 -1.0569 -2.7462 -0.6453
  124MOL0     H17101   5.421   4.518  10.075  0.5799 -3.0979 -3.5453
  124MOL0     H17102   5.657   4.661  10.178  0.5072 -1.2511  0.8331
  124MOL0     H17103   5.490   4.696  10.218 -0.3907  1.1849  0.0147
  124MOL0     H17104   5.631   4.748   9.942 -0.0313  3.6318 -0.0778
  124MOL0     H17105   5.464   4.753   9.952 -2.7972  0.1780  1.3071
  124MOL0     H17106   5.605   4.901  10.158  2.3748  0.7443 -0.5593
  124MOL0     H17107   5.453   4.952  10.075 -1.6737 -1.7349 -2.0772
  124MOL0     H17108   5.759   5.121   9.848  1.0072 -0.0911  0.4556
  124MOL0     H17109   5.693   4.268  10.352 -0.3156 -1.9548  0.2816
  124MOL0     H17110   5.932   4.020  10.306 -0.0277 -2.6469 -0.6114
  124MOL0     H17111   5.798   4.040  10.414  0.0937 -1.5465 -0.1493
  124MOL0     H17112   5.802   3.909  10.303 -0.6076 -0.6441  0.0160
  125MOL0     O17113   5.436   4.571   8.686 -0.2899 -0.1256  0.2594
  125MOL0     C17114   5.317   4.617   8.678  0.2567  0.0705 -1.0477
  125MOL0     O17115   5.272   4.728   8.751  0.6343 -0.0231 -0.1155
  125MOL0     C17116   5.354   4.836   8.764  1.3170 -1.1350  0.2927
  125MOL0     C17117   5.345   4.917   8.879  0.2179  0.5047  0.3063
  125MOL0     C17118   5.433   5.029   8.888 -0.0712  0.0578 -0.1090
  125MOL0     C17119   5.535   5.055   8.794  0.3920  0.7231  0.1424
  125MOL0     O17120   5.631   5.155   8.812  0.5966  0.5548  0.6480
  125MOL0     C17121   5.614   5.232   8.925 -0.1449 -0.3861  0.1756
  125MOL0     C17122   5.724   5.343   8.919 -0.9437 -0.4414 -0.1099
  125MOL0     C17123   5.687   5.435   8.807  0.7931 -0.3190 -0.1007
  125MOL0     C17124   5.780   5.552   8.811 -0.2873  0.8054  0.7913
  125MOL0     C17125   5.758   5.660   8.702  0.9801  0.4987 -0.7302
  125MOL0     C17126   5.865   5.769   8.709  0.1175 -1.0365 -0.1114
  125MOL0     C17127   5.852   5.878   8.594  0.0325  0.0936 -0.7610
  125MOL0     C17128   5.915   6.010   8.622 -0.8233  0.3919  0.6932
  125MOL0     N17129   5.883   6.055   8.753 -0.4068 -0.4220 -0.5591
  125MOL0     C17130   5.793   6.157   8.768 -1.7225  0.4560  0.2576
  125MOL0     C17131   5.801   6.189   8.901 -0.4519 -0.0226  0.1723
  125MOL0     C17132   5.696   6.276   8.962 -0.6826 -0.3227 -0.1949
  125MOL0     C17133   5.585   6.209   9.030 -0.2439  0.4509 -0.7343
  125MOL0     C17134   5.483   6.319   9.060  0.7604 -0.1621 -0.0967
  125MOL0     C17135   5.352   6.271   9.115  0.4213 -0.4373  0.6781
  125MOL0     O17136   5.300   6.206   9.003  0.1780  1.0904  0.3745
  125MOL0     C17137   5.184   6.129   9.024  0.4436  0.1279 -0.3414
  125MOL0     C17138   5.156   6.024   8.938  0.1908  0.1053  1.1370
  125MOL0     C17139   5.045   5.938   8.952  0.5684 -1.2119  0.1323
  125MOL0     C17140   5.007   5.843   8.837  0.5670 -1.0421  0.1645
  125MOL0     C17141   4.947   5.966   9.046 -0.1376 -0.2440 -0.5083
  125MOL0     C17142   4.819   5.885   9.073  0.7010 -0.1577  1.4723
  125MOL0     O17143   4.726   5.948   9.155  1.1662  0.6272  0.3582
  125MOL0     C17144   4.607   5.889   9.160 -0.3195  0.2261  0.1886
  125MOL0     C17145   4.502   5.924   9.069  0.3176 -0.1820 -0.6791
  125MOL0     C17146   4.368   5.873   9.080  0.6352 -0.5059  0.3313
  125MOL0     C17147   4.348   5.774   9.175  1.1831 -0.0765 -0.8685
  125MOL0     O17148   4.231   5.709   9.155  0.1039  0.7626  0.3632
  125MOL0     C17149   4.183   5.626   9.256  0.1566  0.3714 -0.0244
  125MOL0     C17150   4.206   5.477   9.229 -0.7899  0.1554 -0.9545
  125MOL0     C17151   4.179   5.416   9.086 -0.0750 -0.2593 -0.6291
  125MOL0     C17152   4.052   5.475   9.037  0.7794 -0.1594  0.8831
  125MOL0     C17153   3.967   5.364   8.972  1.2978  0.5057  0.0146
  125MOL0     C17154   3.836   5.420   8.900  0.4080 -1.1051  0.1384
  125MOL0     C17155   3.760   5.316   8.821 -0.1054 -0.2064 -0.2656
  125MOL0     C17156   3.632   5.368   8.740 -0.1945  0.1211 -0.5410
  125MOL0    Cl17157   3.517   5.411   8.867  0.1890 -0.5783  0.5012
  125MOL0     C17158   4.442   5.751   9.274 -0.0890  0.7057  0.2756
  125MOL0     C17159   4.570   5.805   9.271 -0.2063 -0.8711  0.5198
  125MOL0     O17160   4.800   5.775   9.021 -0.0142  0.8196  0.1464
  125MOL0     C17161   4.970   6.077   9.131 -1.3014 -0.5172 -0.0107
  125MOL0     C17162   5.088   6.155   9.124 -0.3462  0.0549  0.6736
  125MOL0     N17163   5.906   6.120   8.958 -0.5262  0.0192 -0.2711
  125MOL0     N17164   5.960   6.044   8.874 -0.6242 -0.1686 -0.0160
  125MOL0     C17165   5.543   4.968   8.681 -0.4277 -0.6069 -0.2059
  125MOL0     C17166   5.451   4.866   8.664  0.3955  0.6501  0.0609
  125MOL0     C17167   5.220   4.542   8.600  0.6719  0.4323 -0.1646
  125MOL0     C17168   5.267   4.477   8.485 -0.4637  0.3190  0.1376
  125MOL0     C17169   5.179   4.414   8.394 -0.5531  0.2378 -0.3895
  125MOL0     C17170   5.044   4.399   8.424  0.0670 -0.0103 -0.3020
  125MOL0     O17171   4.954   4.329   8.349 -0.0372 -0.3131  0.6119
  125MOL0     C17172   4.985   4.205   8.286 -0.2482 -0.7801  0.9017
  125MOL0     C17173   4.857   4.138   8.236  0.3114 -0.3039  0.7310
  125MOL0     C17174   4.766   4.111   8.359  0.1653 -0.0819 -0.0533
  125MOL0     C17175   4.770   3.965   8.418 -0.1985  1.0533  0.6641
  125MOL0     C17176   4.753   3.868   8.313 -0.2478 -0.4060  0.4070
  125MOL0     C17177   4.738   3.783   8.225 -0.4197  0.5253  0.2035
  125MOL0     C17178   4.998   4.466   8.541 -0.0898 -0.4581  0.0820
  125MOL0     C17179   5.077   4.543   8.624  0.0138 -0.5363 -0.4069
  125MOL0     C17180   5.008   4.595   8.752 -0.0677 -0.1455 -0.0585
  125MOL0     H17181   5.271   4.892   8.955 -0.2856 -0.7667 -0.5719
  125MOL0     H17182   5.403   5.108   8.956  1.6692  0.0987  0.6771
  125MOL0     H17183   5.606   5.172   9.017 -0.5330  1.4499  1.3962
  125MOL0     H17184   5.525   5.296   8.922  1.0697  1.5949  2.4158
  125MOL0     H17185   5.725   5.391   9.018  1.3215 -3.7288  1.6290
  125MOL0     H17186   5.822   5.301   8.897 -0.1938  0.6070  1.0566
  125MOL0     H17187   5.702   5.393   8.707  0.0883  1.0969 -0.8360
  125MOL0     H17188   5.590   5.483   8.828  2.9477  3.6412  1.9935
  125MOL0     H17189   5.775   5.600   8.909  2.0020  3.3620 -0.2136
  125MOL0     H17190   5.882   5.516   8.795 -0.5144  0.9452 -1.3911
  125MOL0     H17191   5.662   5.710   8.715  0.1615 -1.0143 -0.6700
  125MOL0     H17192   5.749   5.622   8.600 -0.4879 -1.1334 -0.0528
  125MOL0     H17193   5.848   5.818   8.805 -3.0826  2.2354 -2.0778
  125MOL0     H17194   5.963   5.722   8.708  1.1448  1.0039  0.1407
  125MOL0     H17195   5.745   5.891   8.580  0.0472  0.1878 -0.7873
  125MOL0     H17196   5.894   5.835   8.503  1.0490  2.3394 -1.4202
  125MOL0     H17197   6.023   5.991   8.614 -1.1335 -0.7663 -1.2331
  125MOL0     H17198   5.900   6.080   8.539  0.5254  0.3833  0.4127
  125MOL0     H17199   5.714   6.189   8.700 -2.2550  1.1549  1.1774
  125MOL0     H17200   5.662   6.350   8.889 -2.9644 -0.8971  0.1878
  125MOL0     H17201   5.755   6.334   9.032  0.3171  0.2512 -1.4630
  125MOL0     H17202   5.541   6.133   8.965  2.2139 -0.9670 -0.8229
  125MOL0     H17203   5.619   6.162   9.122  1.7185 -0.6274 -1.9362
  125MOL0     H17204   5.514   6.392   9.136 -3.7998  2.9712 -0.8519
  125MOL0     H17205   5.471   6.377   8.969  0.8186 -2.6322 -1.7610
  125MOL0     H17206   5.363   6.207   9.203 -1.7837  0.2033  1.5039
  125MOL0     H17207   5.299   6.363   9.143  1.2590  0.5452 -0.8178
  125MOL0     H17208   5.217   6.023   8.848  0.2366  5.1609  0.8156
  125MOL0     H17209   4.990   5.740   8.869  1.5809 -0.9573  1.0078
  125MOL0     H17210   5.086   5.833   8.762 -0.3868 -2.9199 -0.6709
  125MOL0     H17211   4.918   5.879   8.785 -0.4412 -2.0823  1.1165
  125MOL0     H17212   4.525   6.011   9.007 -0.5099 -0.6508 -1.6643
  125MOL0     H17213   4.296   5.905   9.005  2.3713  1.8542 -0.4150
  125MOL0     H17214   4.226   5.647   9.354 -0.2244  3.1716 -0.3691
  125MOL0     H17215   4.078   5.657   9.266  0.9651  2.8390  1.7830
  125MOL0     H17216   4.315   5.470   9.234 -0.7259  1.5743 -0.0246
  125MOL0     H17217   4.173   5.417   9.315 -2.4564  2.2259 -0.0599
  125MOL0     H17218   4.168   5.308   9.091 -2.2314 -0.0383  0.5705
  125MOL0     H17219   4.265   5.438   9.021  1.0314 -2.4791 -0.0102
  125MOL0     H17220   4.071   5.558   8.969  2.4375  2.2389  3.9919
  125MOL0     H17221   3.993   5.526   9.114 -2.6082 -2.3127 -0.1072
  125MOL0     H17222   4.024   5.297   8.907  2.2233  0.2256  1.0896
  125MOL0     H17223   3.926   5.298   9.049  1.5500 -0.9741 -1.0713
  125MOL0     H17224   3.876   5.496   8.831  3.4611 -1.0279  1.8346
  125MOL0     H17225   3.764   5.469   8.967  2.4045  1.5368  0.5162
  125MOL0     H17226   3.721   5.249   8.898 -0.7757  2.4502  1.8381
  125MOL0     H17227   3.826   5.259   8.755  0.8594  0.1817  0.3478
  125MOL0     H17228   3.590   5.298   8.667 -1.1920  1.2703 -1.0949
  125MOL0     H17229   3.658   5.457   8.682 -1.0390 -0.4028 -1.7891
  125MOL0     H17230   4.441   5.668   9.344 -0.6124  0.1886 -0.3253
  125MOL0     H17231   4.646   5.768   9.339 -1.1310 -2.0936  0.9481
  125MOL0     H17232   4.902   6.113   9.208 -1.5435  0.3848 -0.6398
  125MOL0     H17233   5.103   6.233   9.198  3.7103 -0.1440  0.3049
  125MOL0     H17234   5.619   4.990   8.606  0.0646 -1.1275  0.1242
  125MOL0     H17235   5.456   4.805   8.575  1.9304  1.1172 -0.2149
  125MOL0     H17236   5.374   4.475   8.466 -0.7804  1.7128 -2.1127
  125MOL0     H17237   5.223   4.380   8.300  0.5788  0.0923  0.1775
  125MOL0     H17238   5.057   4.220   8.205 -0.5064  3.5979  1.1932
  125MOL0     H17239   5.027   4.130   8.353 -0.9868  1.1242  3.6740
  125MOL0     H17240   4.893   4.052   8.179  0.1608  0.7130 -0.9825
  125MOL0     H17241   4.816   4.211   8.164  0.7303 -0.4340  0.3562
  125MOL0     H17242   4.803   4.168   8.445 -0.0367  0.0081 -0.0258
  125MOL0     H17243   4.662   4.139   8.342  0.3641  0.0011 -1.2006
  125MOL0     H17244   4.701   3.943   8.500 -0.1398 -0.8241  0.2433
  125MOL0     H17245   4.870   3.946   8.460 -0.8490  1.3438  2.4629
  125MOL0     H17246   4.720   3.706   8.152 -1.5140  0.7647  0.1966
  125MOL0     H17247   4.898   4.454   8.581  0.2224  0.6559  1.2710
  125MOL0     H17248   4.950   4.685   8.729  0.1468 -0.0746 -0.3257
  125MOL0     H17249   4.950   4.524   8.812 -2.4378  1.6472 -0.0783
  125MOL0     H17250   5.082   4.621   8.829  0.9882 -3.7301  0.3185
  126MOL0     O17251   8.199   7.516   9.547  0.4172  0.3146 -0.0552
  126MOL0     C17252   8.306   7.496   9.601 -0.6671  0.1324  0.0868
  126MOL0     O17253   8.428   7.474   9.546 -0.6560 -0.4420  0.2894
  126MOL0     C17254   8.454   7.443   9.413  0.9584  0.1586  0.3404
  126MOL0     C17255   8.503   7.322   9.363 -0.7921  0.2205 -0.9091
  126MOL0     C17256   8.539   7.296   9.228 -0.6191 -0.5195  0.4833
  126MOL0     C17257   8.481   7.387   9.135  1.0007 -0.1849  0.1197
  126MOL0     O17258   8.497   7.353   8.998 -0.4461  0.5162  0.1198
  126MOL0     C17259   8.404   7.394   8.902  0.4846 -0.0040  0.6362
  126MOL0     C17260   8.267   7.332   8.939  0.4780  0.4491  0.5831
  126MOL0     C17261   8.256   7.181   8.896  0.2273 -0.7152 -0.2484
  126MOL0     C17262   8.294   7.094   9.012 -0.2516 -0.0278  0.3400
  126MOL0     C17263   8.292   6.948   8.979  0.2080 -0.0482  0.0882
  126MOL0     C17264   8.142   6.892   8.983 -0.6322  0.1295  0.6563
  126MOL0     C17265   8.133   6.750   8.920 -0.2710 -0.7204  0.1910
  126MOL0     C17266   7.993   6.705   8.874 -0.2904 -0.1400 -0.3087
  126MOL0     N17267   7.972   6.761   8.741  0.1664  1.0031 -0.4715
  126MOL0     C17268   7.887   6.870   8.727 -0.2602  0.0893 -0.1650
  126MOL0     C17269   7.885   6.891   8.597  0.0972 -0.0366  0.0602
  126MOL0     C17270   7.827   7.009   8.526  0.3559 -0.7093 -0.5725
  126MOL0     C17271   7.729   7.088   8.623  0.6575 -0.7012 -0.3502
  126MOL0     C17272   7.668   7.203   8.547  0.3675  0.9037  0.9779
  126MOL0     C17273   7.571   7.283   8.631 -0.1070  0.8491 -0.4992
  126MOL0     O17274   7.464   7.336   8.556 -0.0423  0.5668 -0.1809
  126MOL0     C17275   7.383   7.248   8.483 -0.6153 -0.4109 -0.2854
  126MOL0     C17276   7.303   7.304   8.376  0.9588  0.1144 -0.9872
  126MOL0     C17277   7.210   7.220   8.304  0.0904 -0.3651 -0.1546
  126MOL0     C17278   7.139   7.278   8.187 -1.6213  0.7274 -0.4601
  126MOL0     C17279   7.194   7.089   8.335  0.5398  0.1839 -0.9101
  126MOL0     C17280   7.095   6.998   8.267  0.2142  1.0368 -0.1381
  126MOL0     O17281   6.969   7.027   8.271 -0.0819  0.7864 -0.4518
  126MOL0     C17282   6.879   6.945   8.212  0.4804 -0.1843  0.8348
  126MOL0     C17283   6.813   7.008   8.106 -0.5718 -0.8460 -1.4948
  126MOL0     C17284   6.725   6.944   8.026 -0.6550 -0.1780  0.1671
  126MOL0     C17285   6.682   6.808   8.049  0.5401 -0.3299 -0.0380
  126MOL0     O17286   6.594   6.751   7.964 -0.5941  0.3170 -0.3330
  126MOL0     C17287   6.454   6.778   7.999 -0.1421 -0.0792  0.3164
  126MOL0     C17288   6.377   6.682   7.901  0.6645 -0.3555  0.5149
  126MOL0     C17289   6.225   6.707   7.893  1.0328  0.5773 -0.5592
  126MOL0     C17290   6.172   6.643   8.016  0.2438 -0.3698 -0.3602
  126MOL0     C17291   6.035   6.698   8.049  0.0542  0.8044  0.8746
  126MOL0     C17292   5.968   6.607   8.153  0.2261 -0.3688 -0.0055
  126MOL0     C17293   5.859   6.674   8.230  0.8664 -0.6654  0.7375
  126MOL0     C17294   5.779   6.572   8.306  0.4444 -0.2137 -0.4239
  126MOL0    Cl17295   5.864   6.530   8.451  0.0941 -0.0664 -0.6259
  126MOL0     C17296   6.741   6.751   8.164 -0.2056  0.8145 -0.2938
  126MOL0     C17297   6.840   6.813   8.246 -0.5663  0.1298 -0.1889
  126MOL0     O17298   7.134   6.893   8.227 -1.0773  0.3120 -0.4687
  126MOL0     C17299   7.254   7.036   8.457 -0.8936  0.6303  0.4757
  126MOL0     C17300   7.351   7.116   8.525  0.7349  0.3818 -0.0985
  126MOL0     N17301   7.946   6.783   8.535 -0.7286 -0.1615 -0.3123
  126MOL0     N17302   8.001   6.705   8.618 -0.2679 -0.0592  0.2656
  126MOL0     C17303   8.399   7.496   9.182  0.2888  0.5588  0.0724
  126MOL0     C17304   8.405   7.529   9.313 -0.3017 -0.3300 -0.3567
  126MOL0     C17305   8.309   7.494   9.755 -0.5207 -0.2259  0.5657
  126MOL0     C17306   8.424   7.531   9.817 -0.5072 -0.0636 -0.3744
  126MOL0     C17307   8.442   7.531   9.953  0.5495  0.0193 -0.4334
  126MOL0     C17308   8.333   7.499  10.033  0.9853  0.1525  0.6649
  126MOL0     O17309   8.339   7.499  10.170  0.0894  0.6092  0.3526
  126MOL0     C17310   8.463   7.502  10.241 -0.3029 -0.8289  0.3808
  126MOL0     C17311   8.449   7.491  10.391  0.5450  0.0337  0.1400
  126MOL0     C17312   8.510   7.362  10.440  0.9427 -0.0554  0.2371
  126MOL0     C17313   8.467   7.337  10.588 -0.0106  0.0485 -0.3591
  126MOL0     C17314   8.548   7.424  10.679 -0.0799  0.3665 -0.0038
  126MOL0     C17315   8.619   7.496  10.752 -0.7121  1.3686 -0.0326
  126MOL0     C17316   8.216   7.454   9.968  0.8830  0.7619 -0.2279
  126MOL0     C17317   8.197   7.448   9.830 -0.3444  0.1612  0.1831
  126MOL0     C17318   8.086   7.367   9.775 -0.4435  0.6712 -0.7072
  126MOL0     H17319   8.524   7.237   9.426  0.4081 -1.2616 -3.1653
  126MOL0     H17320   8.589   7.206   9.194  0.0452  0.4555 -1.2243
  126MOL0     H17321   8.440   7.361   8.804  2.3428  0.3372  1.1524
  126MOL0     H17322   8.406   7.503   8.909  1.4505 -0.0908  2.1686
  126MOL0     H17323   8.239   7.350   9.043 -1.0409  1.2888  0.0550
  126MOL0     H17324   8.198   7.387   8.875  0.1032 -1.7750 -1.0085
  126MOL0     H17325   8.150   7.169   8.872  0.6248 -1.4236 -1.7842
  126MOL0     H17326   8.319   7.156   8.811  1.3110  1.1408 -0.0476
  126MOL0     H17327   8.393   7.121   9.050 -0.8365 -0.9690  2.7318
  126MOL0     H17328   8.219   7.124   9.086  0.1947  3.6290 -0.4888
  126MOL0     H17329   8.342   6.892   9.058  0.3144 -0.2324 -0.1097
  126MOL0     H17330   8.334   6.940   8.878 -0.3423  1.3469 -0.2764
  126MOL0     H17331   8.111   6.868   9.085 -1.2673 -0.8219  0.2529
  126MOL0     H17332   8.067   6.966   8.953 -0.5322  1.6299  3.6808
  126MOL0     H17333   8.172   6.675   8.989 -0.8599  0.3275  1.7221
  126MOL0     H17334   8.198   6.736   8.833  0.7158  2.3697  0.3153
  126MOL0     H17335   7.997   6.596   8.871  0.8651 -0.0937 -2.6315
  126MOL0     H17336   7.921   6.738   8.950  0.9038 -0.7757  1.1545
  126MOL0     H17337   7.857   6.945   8.800  3.4276  2.9761 -1.3111
  126MOL0     H17338   7.773   6.990   8.433  1.3751 -1.4582 -1.0302
  126MOL0     H17339   7.907   7.081   8.508  1.4753 -1.7838 -0.0272
  126MOL0     H17340   7.658   7.017   8.667  2.6671 -1.0374  2.6928
  126MOL0     H17341   7.780   7.129   8.711  0.4550  0.0317 -0.5643
  126MOL0     H17342   7.742   7.271   8.503 -0.6699  1.6819  0.3584
  126MOL0     H17343   7.623   7.161   8.456  2.6163  0.7785 -0.1407
  126MOL0     H17344   7.529   7.222   8.710  0.2179 -0.8780 -1.6099
  126MOL0     H17345   7.622   7.369   8.674 -1.3353 -0.3011  3.6743
  126MOL0     H17346   7.315   7.405   8.337  2.0915  0.0949 -0.7243
  126MOL0     H17347   7.102   7.374   8.222  1.4211  2.2627 -1.1173
  126MOL0     H17348   7.063   7.210   8.148 -3.4984  1.9247  0.9311
  126MOL0     H17349   7.217   7.304   8.115  0.8340  1.7421  2.3332
  126MOL0     H17350   6.837   7.112   8.093  0.9543 -0.7696  1.2491
  126MOL0     H17351   6.689   6.995   7.937  1.0714 -0.3334 -0.6577
  126MOL0     H17352   6.427   6.760   8.104 -1.2452  3.8601  0.8692
  126MOL0     H17353   6.436   6.881   7.967  2.3466 -0.5683 -3.2290
  126MOL0     H17354   6.401   6.712   7.798  0.5447 -0.9896  0.2951
  126MOL0     H17355   6.401   6.579   7.930 -1.3290 -0.5203  1.7458
  126MOL0     H17356   6.175   6.668   7.804  1.7794  0.7303 -1.0515
  126MOL0     H17357   6.202   6.813   7.902  2.1966  0.7081  1.3323
  126MOL0     H17358   6.238   6.670   8.099  1.2921  1.7291 -1.7859
  126MOL0     H17359   6.176   6.534   8.012 -0.7892 -0.6094  2.6360
  126MOL0     H17360   6.049   6.800   8.087 -0.0401  2.0099 -2.0647
  126MOL0     H17361   5.989   6.703   7.950  1.2648 -2.2991  0.0687
  126MOL0     H17362   6.050   6.596   8.225  1.5446  5.4921 -0.1239
  126MOL0     H17363   5.927   6.519   8.103  1.2067 -0.9184  0.1235
  126MOL0     H17364   5.795   6.721   8.155  1.0378 -0.7369  0.5463
  126MOL0     H17365   5.892   6.754   8.297  0.6031  0.1481 -0.0887
  126MOL0     H17366   5.768   6.487   8.238 -0.6338  1.3097 -2.2615
  126MOL0     H17367   5.678   6.600   8.337  1.2678  3.3364 -0.5043
  126MOL0     H17368   6.695   6.656   8.187  0.0504  0.7850  0.0935
  126MOL0     H17369   6.882   6.758   8.330  1.2519  3.3798  1.2346
  126MOL0     H17370   7.237   6.937   8.498 -3.3301  0.7136 -0.1942
  126MOL0     H17371   7.390   7.084   8.621 -2.0457  0.6411  1.2163
  126MOL0     H17372   8.344   7.570   9.126 -0.4028  0.6030  0.8064
  126MOL0     H17373   8.362   7.625   9.340  4.0525  2.4559 -2.2341
  126MOL0     H17374   8.514   7.554   9.761  0.1970  1.4283  1.2767
  126MOL0     H17375   8.543   7.545   9.990  1.5907 -2.7883 -1.9482
  126MOL0     H17376   8.533   7.431  10.196 -0.8868 -2.5265  2.0001
  126MOL0     H17377   8.513   7.599  10.226 -1.5387  0.2192  2.5400
  126MOL0     H17378   8.343   7.506  10.414  0.5755  1.4997 -0.5455
  126MOL0     H17379   8.505   7.574  10.435  3.6510 -0.5990 -2.2529
  126MOL0     H17380   8.472   7.284  10.373  2.6471 -1.7198  1.1099
  126MOL0     H17381   8.619   7.363  10.438  0.9835 -0.2088  1.5181
  126MOL0     H17382   8.488   7.234  10.616 -0.1777  0.8805  3.2385
  126MOL0     H17383   8.362   7.360  10.609 -0.2178 -0.7049 -0.5462
  126MOL0     H17384   8.675   7.568  10.808  0.3145  1.8843 -1.6659
  126MOL0     H17385   8.127   7.425  10.023 -0.0470 -0.0683 -2.0999
  126MOL0     H17386   8.048   7.293   9.846  0.3502 -0.5624 -1.5356
  126MOL0     H17387   8.000   7.428   9.747 -0.4076  0.1016 -2.1449
  126MOL0     H17388   8.110   7.316   9.681 -2.6057  3.5065 -2.9814
  127MOL0     O17389  10.900   7.695   3.601  0.3891  0.5472 -1.1276
  127MOL0     C17390  10.796   7.641   3.550 -0.5912  0.3158 -0.0494
  127MOL0     O17391  10.785   7.503   3.521  0.0330  0.3183 -0.3403
  127MOL0     C17392  10.882   7.425   3.584  0.0678 -0.0070 -0.3783
  127MOL0     C17393  10.829   7.313   3.651 -0.3741 -0.1268  0.0568
  127MOL0     C17394  10.911   7.214   3.711 -0.1817 -0.7911  0.0198
  127MOL0     C17395  11.043   7.226   3.713 -0.5855  0.3263 -0.9104
  127MOL0     O17396  11.110   7.125   3.791  0.2282 -0.5818  0.2407
  127MOL0     C17397  11.253   7.137   3.803  0.3939 -0.0997  0.0579
  127MOL0     C17398  11.306   7.069   3.935 -0.1556  0.3024 -0.4697
  127MOL0     C17399  11.304   6.920   3.935 -0.2734  0.4234 -0.0783
  127MOL0     C17400  11.412   6.869   3.837  0.0005  0.6074 -0.5015
  127MOL0     C17401  11.421   6.709   3.845  0.3251 -0.8506  0.0759
  127MOL0     C17402  11.537   6.681   3.749 -0.3194  0.6673 -0.0833
  127MOL0     C17403  11.582   6.528   3.748  0.7925 -0.9475 -0.4712
  127MOL0     C17404  11.653   6.485   3.622 -0.2354  0.5912 -0.1905
  127MOL0     N17405  11.741   6.595   3.571 -0.1932  0.0066  0.3281
  127MOL0     C17406  11.753   6.630   3.433  0.0047  0.0173  0.1449
  127MOL0     C17407  11.868   6.703   3.428 -1.3392  0.1911 -0.0054
  127MOL0     C17408  11.914   6.784   3.300  0.6341 -0.0520 -0.2081
  127MOL0     C17409  11.892   6.932   3.322  0.3786 -0.2969 -0.3749
  127MOL0     C17410  11.746   6.967   3.360  0.5839  0.2646  0.8511
  127MOL0     C17411  11.645   6.924   3.257  0.1388  0.5471  0.0437
  127MOL0     O17412  11.513   6.951   3.314  0.0233 -0.2001 -0.3390
  127MOL0     C17413  11.450   7.068   3.294  0.1703  1.3086  0.3330
  127MOL0     C17414  11.505   7.185   3.236 -0.2770 -0.6631  0.1978
  127MOL0     C17415  11.433   7.298   3.224  0.6698 -0.0027 -0.2619
  127MOL0     C17416  11.499   7.407   3.150 -0.1757  0.3076  0.0061
  127MOL0     C17417  11.301   7.301   3.278  0.3972 -0.6561 -0.2088
  127MOL0     C17418  11.197   7.408   3.268  0.6799 -0.5999  0.1276
  127MOL0     O17419  11.226   7.520   3.201 -0.7050 -0.2606 -0.0276
  127MOL0     C17420  11.116   7.585   3.157  0.1130  0.2469 -0.8040
  127MOL0     C17421  11.036   7.656   3.249 -0.2071  0.0864 -0.7899
  127MOL0     C17422  10.928   7.736   3.209 -0.1068 -0.6578  0.1541
  127MOL0     C17423  10.915   7.769   3.072 -0.4827 -0.4210 -0.4040
  127MOL0     O17424  10.830   7.871   3.051  0.3993 -0.8337  0.6562
  127MOL0     C17425  10.852   7.940   2.930 -0.4090 -0.8452 -0.5997
  127MOL0     C17426  10.780   8.063   2.919  0.2433  0.1511 -0.2808
  127MOL0     C17427  10.633   8.039   2.893  1.3218  0.0982  0.7090
  127MOL0     C17428  10.556   8.170   2.869  0.2118 -0.1669  0.2016
  127MOL0     C17429  10.410   8.156   2.822 -0.2348  0.2653  0.2039
  127MOL0     C17430  10.316   8.220   2.924  0.3023  0.8544  0.0920
  127MOL0     C17431  10.168   8.231   2.892  0.3225 -1.0351 -0.2386
  127MOL0     C17432  10.132   8.310   2.769  0.3012  0.2687 -0.2518
  127MOL0    Cl17433   9.965   8.381   2.750 -0.2260  0.4055  0.7284
  127MOL0     C17434  10.982   7.686   2.976  0.0943 -0.0142  0.1597
  127MOL0     C17435  11.079   7.598   3.025  0.1686  0.5867  0.7273
  127MOL0     O17436  11.084   7.375   3.299  0.2722 -0.6516 -0.1970
  127MOL0     C17437  11.253   7.188   3.358 -0.3595 -1.0703 -0.1257
  127MOL0     C17438  11.326   7.069   3.354  0.2759 -0.6219 -0.8220
  127MOL0     N17439  11.927   6.704   3.553  0.0071  0.6494 -0.0934
  127MOL0     N17440  11.848   6.642   3.633 -0.2396  0.1082 -0.0792
  127MOL0     C17441  11.100   7.342   3.646  1.3006  0.3424  0.4699
  127MOL0     C17442  11.020   7.443   3.584 -0.2836  0.4018  0.3560
  127MOL0     C17443  10.700   7.737   3.497 -1.1222  0.7537 -0.4975
  127MOL0     C17444  10.624   7.699   3.383 -0.9442  0.4818 -0.0530
  127MOL0     C17445  10.518   7.786   3.348  0.2855  0.1954 -0.7133
  127MOL0     C17446  10.494   7.904   3.419 -0.6485 -0.4177  0.8553
  127MOL0     O17447  10.400   7.983   3.365  0.3048 -0.3406 -0.3568
  127MOL0     C17448  10.350   8.104   3.431 -0.7142 -0.5426 -0.7032
  127MOL0     C17449  10.272   8.199   3.351  0.6184  0.7775  0.3737
  127MOL0     C17450  10.235   8.329   3.425 -0.0553  0.3024  0.4571
  127MOL0     C17451  10.157   8.435   3.342 -0.0881 -0.8647 -0.7506
  127MOL0     C17452  10.251   8.489   3.241 -0.4245  0.6219 -0.4966
  127MOL0     C17453  10.321   8.520   3.148 -0.1933 -0.6367 -0.6093
  127MOL0     C17454  10.577   7.939   3.527 -0.3773 -0.0754 -0.2675
  127MOL0     C17455  10.676   7.856   3.572  0.3783 -0.1937  0.1711
  127MOL0     C17456  10.763   7.914   3.684  0.1245 -0.5561  0.3509
  127MOL0     H17457  10.724   7.295   3.634 -0.1913 -0.7983 -0.3939
  127MOL0     H17458  10.857   7.127   3.748 -1.1895  0.6914  2.2266
  127MOL0     H17459  11.281   7.240   3.828 -0.1514 -0.0425  0.4755
  127MOL0     H17460  11.307   7.116   3.710  0.5931  0.3181  0.0779
  127MOL0     H17461  11.411   7.096   3.943  0.0758 -0.7381  0.1024
  127MOL0     H17462  11.243   7.096   4.020 -0.1463  0.8986 -0.6499
  127MOL0     H17463  11.324   6.882   4.036  4.0510  2.7863  0.1801
  127MOL0     H17464  11.204   6.882   3.912  0.7580 -1.9636 -0.9865
  127MOL0     H17465  11.400   6.896   3.731  0.4623  1.1947 -0.4118
  127MOL0     H17466  11.508   6.913   3.868  1.9505 -0.9269 -3.7856
  127MOL0     H17467  11.328   6.655   3.822 -0.6069 -0.3212  2.3518
  127MOL0     H17468  11.449   6.670   3.943  1.7194 -0.2013 -0.0469
  127MOL0     H17469  11.509   6.702   3.645 -0.4626  0.9033  0.0010
  127MOL0     H17470  11.627   6.741   3.765  1.3361 -1.3322 -1.4421
  127MOL0     H17471  11.491   6.468   3.755 -0.4416  0.5882 -2.2615
  127MOL0     H17472  11.657   6.521   3.827  3.6013  3.0222 -2.3897
  127MOL0     H17473  11.726   6.407   3.646 -1.3039 -0.1746  0.6850
  127MOL0     H17474  11.583   6.457   3.542 -0.0116  1.4768 -0.7119
  127MOL0     H17475  11.680   6.611   3.355 -2.8735 -0.8647  2.8715
  127MOL0     H17476  11.860   6.744   3.214  1.2359 -0.8344 -0.2370
  127MOL0     H17477  12.020   6.757   3.294  0.2527 -1.7213 -0.1294
  127MOL0     H17478  11.943   6.967   3.413 -0.7781 -1.8113  0.9285
  127MOL0     H17479  11.932   6.989   3.238  2.8208 -1.3331  0.0024
  127MOL0     H17480  11.720   6.909   3.449 -0.6534 -0.5843 -0.0238
  127MOL0     H17481  11.735   7.075   3.379 -1.7371  0.3106 -0.3283
  127MOL0     H17482  11.655   6.977   3.161  0.5631 -1.9598 -1.3778
  127MOL0     H17483  11.642   6.818   3.234 -3.3838  0.3407  0.9472
  127MOL0     H17484  11.598   7.182   3.180 -0.3068  1.7961 -0.1316
  127MOL0     H17485  11.605   7.411   3.176 -0.8333 -0.7007  3.3149
  127MOL0     H17486  11.462   7.506   3.178  0.9984  1.2398 -1.5547
  127MOL0     H17487  11.475   7.406   3.044  1.2494  1.3882 -0.3676
  127MOL0     H17488  11.066   7.655   3.353 -1.4389  0.2822 -0.4140
  127MOL0     H17489  10.863   7.786   3.279 -1.7461 -0.6177 -1.3316
  127MOL0     H17490  10.957   7.968   2.931 -0.6614  0.1349 -0.5923
  127MOL0     H17491  10.839   7.870   2.847 -1.0451  0.5077 -1.6855
  127MOL0     H17492  10.808   8.129   3.003  0.5389  1.9384 -1.7185
  127MOL0     H17493  10.824   8.112   2.832  0.0446 -2.0457 -1.6866
  127MOL0     H17494  10.589   7.985   2.976  0.7836  1.0054  1.0310
  127MOL0     H17495  10.625   7.966   2.812  0.9565  0.9414 -0.0310
  127MOL0     H17496  10.612   8.224   2.792 -2.1965  0.9586 -0.8625
  127MOL0     H17497  10.553   8.234   2.957  0.3057 -0.1381  0.1848
  127MOL0     H17498  10.415   8.211   2.728 -0.3828 -0.6251 -0.3344
  127MOL0     H17499  10.380   8.052   2.807 -0.7174  0.1814  1.6270
  127MOL0     H17500  10.344   8.323   2.949 -2.3694  1.7456 -0.1512
  127MOL0     H17501  10.323   8.154   3.010 -3.3519  0.3228  0.1335
  127MOL0     H17502  10.132   8.295   2.974  1.9376  1.3372 -1.2850
  127MOL0     H17503  10.121   8.132   2.897 -1.7727 -0.0710  0.7773
  127MOL0     H17504  10.150   8.240   2.687 -0.6274 -1.1513  0.7217
  127MOL0     H17505  10.217   8.378   2.753  1.5702 -0.8062  1.5308
  127MOL0     H17506  10.973   7.702   2.869 -2.7904  0.8205  0.4215
  127MOL0     H17507  11.148   7.559   2.951 -1.2186 -0.5219 -0.0360
  127MOL0     H17508  11.157   7.173   3.406 -0.3884  0.7751  0.4531
  127MOL0     H17509  11.281   7.000   3.425 -2.4979  2.6137  0.8672
  127MOL0     H17510  11.207   7.339   3.629  1.1672  1.9047 -0.8384
  127MOL0     H17511  11.070   7.529   3.541 -0.3722  0.9516  1.3290
  127MOL0     H17512  10.641   7.612   3.321  0.5688 -0.4532  1.5832
  127MOL0     H17513  10.463   7.767   3.256  0.3569  2.0294 -1.1629
  127MOL0     H17514  10.288   8.076   3.518  0.5196 -0.1778  0.3270
  127MOL0     H17515  10.442   8.157   3.456  0.2179 -1.1015 -2.7858
  127MOL0     H17516  10.183   8.152   3.308  1.6400  0.2560 -1.2597
  127MOL0     H17517  10.336   8.225   3.267  0.8294  4.0255  1.3939
  127MOL0     H17518  10.166   8.304   3.506  0.6567  0.8884  1.2613
  127MOL0     H17519  10.327   8.374   3.461 -0.4603  0.2320  1.6265
  127MOL0     H17520  10.128   8.523   3.400 -2.8964 -2.0797 -0.1137
  127MOL0     H17521  10.059   8.393   3.314 -1.7242  1.1065  1.5842
  127MOL0     H17522  10.381   8.546   3.063 -0.0170 -1.4231 -0.7396
  127MOL0     H17523  10.576   8.034   3.579  3.6518  0.8863 -1.6300
  127MOL0     H17524  10.721   8.006   3.724  0.8751  0.5324 -1.2442
  127MOL0     H17525  10.769   7.836   3.760 -0.0977  1.0694  2.1043
  127MOL0     H17526  10.862   7.933   3.640  2.1264 -4.8329  2.3366
  128MOL0     O17527   9.767   1.886  10.663 -0.6772  0.2178 -0.5158
  128MOL0     C17528   9.686   1.802  10.628  0.9003 -0.0985  0.8318
  128MOL0     O17529   9.712   1.676  10.592  0.1333 -0.1256  0.3352
  128MOL0     C17530   9.842   1.651  10.551 -1.0459 -0.8034  0.4363
  128MOL0     C17531   9.916   1.572  10.630  0.0554  0.3932 -0.0048
  128MOL0     C17532  10.045   1.545  10.587  0.0295  1.2090  0.2913
  128MOL0     C17533  10.099   1.593  10.462 -0.3518 -0.1970  0.0590
  128MOL0     O17534  10.229   1.578  10.433 -0.1008 -0.0741 -0.0574
  128MOL0     C17535  10.290   1.455  10.487 -0.2836 -0.4980  0.5481
  128MOL0     C17536  10.420   1.415  10.409 -0.3900  0.7931  0.5038
  128MOL0     C17537  10.530   1.506  10.445  0.0751 -0.1961  1.1219
  128MOL0     C17538  10.647   1.467  10.359 -0.1880 -0.4819 -1.0476
  128MOL0     C17539  10.757   1.571  10.350  0.4743  0.0407  0.4376
  128MOL0     C17540  10.864   1.532  10.250 -0.3927 -0.1888  0.1150
  128MOL0     C17541  10.970   1.641  10.227  0.4357  0.3450 -0.5342
  128MOL0     C17542  10.945   1.708  10.099  0.3973 -0.9671 -0.0423
  128MOL0     N17543  11.042   1.806  10.062 -0.3192  0.4932  0.4371
  128MOL0     C17544  11.028   1.943  10.092  0.6961  0.2369 -0.1426
  128MOL0     C17545  11.112   2.002  10.003  0.5897  0.3465  0.3415
  128MOL0     C17546  11.149   2.150  10.001 -0.0211 -0.7085  0.1448
  128MOL0     C17547  11.033   2.245  10.016  0.0456  0.3069  0.1633
  128MOL0     C17548  10.935   2.243   9.897 -0.0368 -0.2242  0.3852
  128MOL0     C17549  10.806   2.327   9.925 -0.7288 -0.5409  0.2719
  128MOL0     O17550  10.727   2.355   9.813  1.1189  0.2069  0.1017
  128MOL0     C17551  10.601   2.397   9.840  0.2742  0.1341 -0.0115
  128MOL0     C17552  10.561   2.530   9.804  1.3298  0.1908 -0.0357
  128MOL0     C17553  10.435   2.591   9.832  0.2802  0.2350 -0.3059
  128MOL0     C17554  10.426   2.736   9.786  0.0863 -0.1430  0.6109
  128MOL0     C17555  10.330   2.513   9.888 -0.0684  0.6126 -0.2740
  128MOL0     C17556  10.185   2.563   9.912 -0.1538 -0.6832  0.6095
  128MOL0     O17557  10.162   2.687   9.961  0.3810 -0.4136 -0.3046
  128MOL0     C17558  10.029   2.732   9.954 -0.1460 -0.1482  0.1516
  128MOL0     C17559   9.990   2.839   9.870  0.2336  0.3698  0.1030
  128MOL0     C17560   9.857   2.883   9.884  0.8008 -0.2950  0.2675
  128MOL0     C17561   9.756   2.821   9.952  0.0219  0.0832  0.6039
  128MOL0     O17562   9.634   2.885   9.957 -0.3382  0.2521  0.0416
  128MOL0     C17563   9.547   2.855  10.072 -0.0317 -0.3395  0.0451
  128MOL0     C17564   9.441   2.965  10.059  0.2402 -0.0802  0.1416
  128MOL0     C17565   9.348   2.952  10.189 -0.6513 -0.0177  0.1388
  128MOL0     C17566   9.267   3.076  10.215  0.6926 -1.3337 -0.1327
  128MOL0     C17567   9.333   3.169  10.314 -0.2787 -0.3550 -0.6112
  128MOL0     C17568   9.235   3.273  10.371  0.1597  0.3687  0.5641
  128MOL0     C17569   9.131   3.213  10.454  0.5919  0.3666  0.2771
  128MOL0     C17570   9.040   3.316  10.529  0.2097 -0.3408  1.0580
  128MOL0    Cl17571   8.924   3.403  10.413 -0.1253 -0.5486 -0.1715
  128MOL0     C17572   9.797   2.699  10.024  0.5963  0.0144  0.6430
  128MOL0     C17573   9.930   2.662  10.042  0.0140 -0.9587 -0.5237
  128MOL0     O17574  10.096   2.484   9.889 -0.4019  0.5371  0.2068
  128MOL0     C17575  10.370   2.383   9.930 -0.0805 -1.5464 -0.1040
  128MOL0     C17576  10.501   2.327   9.912 -0.0023  0.9946  0.6007
  128MOL0     N17577  11.191   1.906   9.937  0.0983 -1.1808  0.3610
  128MOL0     N17578  11.141   1.791   9.963  1.2824  0.6438  0.2423
  128MOL0     C17579  10.020   1.684  10.395  0.1113 -0.9106 -0.1721
  128MOL0     C17580   9.884   1.699  10.431  0.5875  0.4776  0.7928
  128MOL0     C17581   9.544   1.824  10.647  0.4526 -0.9374  0.3031
  128MOL0     C17582   9.470   1.812  10.536 -0.0058  0.7818  0.1655
  128MOL0     C17583   9.335   1.833  10.539 -0.3054 -0.6150 -0.5072
  128MOL0     C17584   9.269   1.869  10.660  0.6664 -0.9783  0.5075
  128MOL0     O17585   9.133   1.879  10.665  0.6102 -0.4214 -0.0187
  128MOL0     C17586   9.042   1.857  10.546 -0.9019  0.2413  0.4064
  128MOL0     C17587   9.020   1.708  10.512  0.0903  0.3000 -0.7807
  128MOL0     C17588   8.939   1.681  10.389  0.0280 -0.0344  0.2932
  128MOL0     C17589   8.796   1.642  10.419  0.1573  0.3808  0.1008
  128MOL0     C17590   8.719   1.630  10.295 -1.2847  0.1324  0.0740
  128MOL0     C17591   8.663   1.619  10.190  1.4652  0.2051 -1.2368
  128MOL0     C17592   9.348   1.891  10.774 -0.6209  1.0236 -0.1339
  128MOL0     C17593   9.487   1.872  10.770 -0.0795  0.3171  0.3100
  128MOL0     C17594   9.569   1.906  10.896  0.1273  0.0194  0.2818
  128MOL0     H17595   9.879   1.524  10.720  2.3188 -0.4279  0.5484
  128MOL0     H17596  10.100   1.470  10.642 -0.5332 -0.6208 -1.5058
  128MOL0     H17597  10.215   1.378  10.461 -1.7565  0.6769  1.1493
  128MOL0     H17598  10.314   1.465  10.593 -1.8475 -1.1964  1.0107
  128MOL0     H17599  10.447   1.316  10.445  2.1636  0.6404 -1.5293
  128MOL0     H17600  10.394   1.410  10.302 -1.9918 -2.1391  0.9106
  128MOL0     H17601  10.508   1.613  10.431 -1.7741 -0.8248 -2.0137
  128MOL0     H17602  10.545   1.478  10.549 -1.0569 -1.2011  1.0425
  128MOL0     H17603  10.708   1.387  10.401 -1.1221 -1.4900 -1.5506
  128MOL0     H17604  10.627   1.444  10.254  3.3599  0.6461 -2.1063
  128MOL0     H17605  10.808   1.587  10.446  2.2635  1.4056 -0.6859
  128MOL0     H17606  10.711   1.667  10.324  2.0108  0.8945  0.7253
  128MOL0     H17607  10.917   1.441  10.280  0.8128  0.9911  1.6752
  128MOL0     H17608  10.819   1.517  10.151  2.1365 -2.8646 -0.7566
  128MOL0     H17609  11.070   1.597  10.235 -0.2339 -1.5725 -1.9222
  128MOL0     H17610  10.958   1.718  10.304 -1.2297 -1.0708  0.7132
  128MOL0     H17611  10.940   1.636  10.018  1.1354 -1.8896  0.7171
  128MOL0     H17612  10.847   1.758  10.107  0.9601 -0.0120  1.5106
  128MOL0     H17613  10.955   1.980  10.163 -0.7012 -0.6691 -1.0531
  128MOL0     H17614  11.207   2.179   9.912  0.1309 -0.4987  0.3116
  128MOL0     H17615  11.213   2.164  10.089 -1.4326 -0.9666  1.2301
  128MOL0     H17616  10.970   2.211  10.099 -0.6134  1.2522  0.0708
  128MOL0     H17617  11.071   2.345  10.040 -0.2462  0.8430 -1.4927
  128MOL0     H17618  10.982   2.292   9.811 -0.4556  1.6071  1.1493
  128MOL0     H17619  10.898   2.144   9.870  0.1132 -0.3482  0.6260
  128MOL0     H17620  10.749   2.287  10.009 -1.6877  1.8254  0.8282
  128MOL0     H17621  10.829   2.423   9.973 -3.2575  0.7352 -0.9193
  128MOL0     H17622  10.643   2.588   9.762  2.0549 -1.7402 -1.4611
  128MOL0     H17623  10.389   2.743   9.683  1.2285  0.3140  0.2222
  128MOL0     H17624  10.528   2.769   9.804  0.3693  0.8110 -2.2317
  128MOL0     H17625  10.357   2.790   9.851 -0.6791 -1.0676  0.5869
  128MOL0     H17626  10.064   2.906   9.828 -2.1070  2.0461 -1.6143
  128MOL0     H17627   9.827   2.980   9.844 -0.1651 -0.2314  1.1154
  128MOL0     H17628   9.509   2.753  10.068  0.8534 -0.6546 -3.8248
  128MOL0     H17629   9.599   2.868  10.168  0.1334  0.1759 -0.1115
  128MOL0     H17630   9.492   3.062  10.061  1.4761 -0.7063  0.2024
  128MOL0     H17631   9.385   2.967   9.966  1.0193  3.2175 -0.3629
  128MOL0     H17632   9.411   2.946  10.278 -0.1805  2.0525  0.0059
  128MOL0     H17633   9.297   2.859  10.163  1.0025 -1.1520  0.7783
  128MOL0     H17634   9.166   3.044  10.244 -1.5274  4.7653  0.3102
  128MOL0     H17635   9.247   3.125  10.119  1.1491 -3.1587 -1.2116
  128MOL0     H17636   9.365   3.103  10.395 -1.9786 -1.1128 -0.5146
  128MOL0     H17637   9.424   3.212  10.272 -0.6006  1.9882  0.9167
  128MOL0     H17638   9.196   3.328  10.285  1.0546  1.1078  0.6098
  128MOL0     H17639   9.294   3.334  10.440 -1.0424  1.9277  0.2836
  128MOL0     H17640   9.172   3.137  10.522 -1.5532 -1.8873 -0.7903
  128MOL0     H17641   9.065   3.155  10.389 -0.7074  1.6778  0.3599
  128MOL0     H17642   9.111   3.391  10.564 -0.3438  1.2623 -1.0229
  128MOL0     H17643   8.980   3.266  10.606  0.3837  0.3385  1.6461
  128MOL0     H17644   9.733   2.642  10.091  2.6401 -0.0460  2.6850
  128MOL0     H17645   9.966   2.587  10.111  0.4401  1.1711  1.7204
  128MOL0     H17646  10.291   2.320   9.971 -2.4403  0.4320 -1.3368
  128MOL0     H17647  10.518   2.230   9.959 -3.4487 -0.4909 -0.8351
  128MOL0     H17648  10.048   1.726  10.299 -0.9640  2.9312  1.0420
  128MOL0     H17649   9.819   1.756  10.365  0.6292 -0.6405 -0.2463
  128MOL0     H17650   9.519   1.792  10.441 -3.6727  1.9552 -2.2110
  128MOL0     H17651   9.282   1.801  10.449  0.8624 -2.0352 -0.7283
  128MOL0     H17652   8.943   1.899  10.569 -0.4042  1.3417  0.6083
  128MOL0     H17653   9.080   1.903  10.454 -0.4318 -0.8471  0.0409
  128MOL0     H17654   8.976   1.660  10.601 -3.0565  1.1454 -1.7565
  128MOL0     H17655   9.116   1.658  10.498 -0.1638 -0.1166 -1.0787
  128MOL0     H17656   8.932   1.769  10.323 -0.2882  1.2778  2.0100
  128MOL0     H17657   8.991   1.602  10.334 -1.3043 -1.4821  1.0443
  128MOL0     H17658   8.740   1.706  10.488 -0.4631 -0.2821  0.2250
  128MOL0     H17659   8.803   1.540  10.457 -0.8193  1.2218  2.7771
  128MOL0     H17660   8.602   1.623  10.102 -0.2646  2.1188 -0.0533
  128MOL0     H17661   9.295   1.914  10.866 -1.2733  3.9390 -1.1375
  128MOL0     H17662   9.660   1.962  10.876  0.9796  0.5380  4.5611
  128MOL0     H17663   9.504   1.970  10.957 -1.6610 -0.7432 -0.7269
  128MOL0     H17664   9.598   1.821  10.959 -0.1745 -1.9205 -2.0530
  129MOL0     O17665   7.496  10.682   7.759 -0.4016  0.2411 -0.7844
  129MOL0     C17666   7.478  10.639   7.869 -0.1908 -0.5622 -0.4778
  129MOL0     O17667   7.524  10.692   7.986 -0.0513 -0.2409  0.0095
  129MOL0     C17668   7.557  10.823   8.001 -0.4458  0.1166 -0.2662
  129MOL0     C17669   7.524  10.927   7.917  0.3640 -0.3202  0.5256
  129MOL0     C17670   7.552  11.055   7.964  0.5951 -0.0324  0.1653
  129MOL0     C17671   7.619  11.084   8.079 -0.7057  0.4281 -0.8936
  129MOL0     O17672   7.642  11.211   8.131  0.2798  0.4408 -0.0211
  129MOL0     C17673   7.562  11.319   8.090 -0.1343  0.1570 -0.0005
  129MOL0     C17674   7.583  11.427   8.188 -0.0818 -0.0783 -0.2976
  129MOL0     C17675   7.508  11.547   8.143  0.0728 -0.2421 -0.3394
  129MOL0     C17676   7.494  11.641   8.259 -0.2674 -0.4362  0.2614
  129MOL0     C17677   7.415  11.770   8.233  0.8765 -0.0790  0.3336
  129MOL0     C17678   7.471  11.892   8.310 -0.0501  0.0741 -1.1756
  129MOL0     C17679   7.467  11.881   8.463 -1.2942  0.1928 -0.0291
  129MOL0     C17680   7.509  12.014   8.529  0.0245  0.4303  0.1082
  129MOL0     N17681   7.398  12.112   8.532  0.2355  0.0384  0.1781
  129MOL0     C17682   7.400  12.226   8.612 -0.2387 -0.8478  0.6632
  129MOL0     C17683   7.274  12.279   8.608 -0.3012 -0.1552 -0.6679
  129MOL0     C17684   7.228  12.406   8.675 -0.4231 -0.8472  0.0742
  129MOL0     C17685   7.345  12.504   8.721 -0.0010  0.2011  0.9733
  129MOL0     C17686   7.297  12.637   8.778 -0.0435 -0.6209 -0.6402
  129MOL0     C17687   7.235  12.730   8.669 -0.9878 -0.0442 -0.1505
  129MOL0     O17688   7.339  12.775   8.578  0.1594  0.5975 -0.9114
  129MOL0     C17689   7.306  12.862   8.483  0.3385 -0.6591 -0.0490
  129MOL0     C17690   7.416  12.920   8.424 -0.0658 -0.1864 -0.5585
  129MOL0     C17691   7.395  13.009   8.325  0.6951 -1.0470  0.4228
  129MOL0     C17692   7.523  13.060   8.254  0.1363 -0.4892 -0.2634
  129MOL0     C17693   7.261  13.062   8.287 -0.8268  0.6068  0.0538
  129MOL0     C17694   7.230  13.167   8.192  0.5074  0.7273 -0.2181
  129MOL0     O17695   7.096  13.208   8.180 -0.4239  0.7201 -0.2239
  129MOL0     C17696   7.055  13.304   8.093 -0.2825 -0.1037  0.4220
  129MOL0     C17697   7.124  13.390   7.996 -0.5641 -0.0088 -0.9531
  129MOL0     C17698   7.042  13.475   7.913  0.2594 -0.4950 -0.8382
  129MOL0     C17699   6.912  13.480   7.933 -0.2191 -0.2531  0.2896
  129MOL0     O17700   6.847  13.561   7.852 -0.0336 -0.1485 -0.6013
  129MOL0     C17701   6.854  13.700   7.891 -0.9445 -0.5583  0.0540
  129MOL0     C17702   6.792  13.776   7.772  1.6316  0.3935  0.4094
  129MOL0     C17703   6.639  13.753   7.795 -0.2955  0.1668 -0.3587
  129MOL0     C17704   6.566  13.828   7.689  0.2080 -0.1139 -0.7034
  129MOL0     C17705   6.410  13.809   7.705  0.1227 -0.0023  0.4276
  129MOL0     C17706   6.338  13.872   7.588 -0.1482  0.2738  0.7943
  129MOL0     C17707   6.185  13.853   7.586 -0.3292  0.2772 -0.5066
  129MOL0     C17708   6.128  13.942   7.473  0.1198 -0.0032 -0.2940
  129MOL0    Cl17709   6.168  14.121   7.501  0.6274 -0.3487  0.1137
  129MOL0     C17710   6.847  13.392   8.015 -0.1888 -0.2601 -0.2962
  129MOL0     C17711   6.918  13.310   8.097 -0.2732 -0.3076  0.5151
  129MOL0     O17712   7.322  13.209   8.126  0.6571  0.4432  0.8481
  129MOL0     C17713   7.159  13.004   8.366 -0.8131  0.1009  0.0763
  129MOL0     C17714   7.171  12.907   8.464 -1.4092  0.7811  0.6371
  129MOL0     N17715   7.192  12.192   8.538 -0.5924  0.5126 -0.0422
  129MOL0     N17716   7.265  12.104   8.478 -0.1823  0.6169  0.4656
  129MOL0     C17717   7.671  10.981   8.151 -0.1513 -0.8002 -0.0396
  129MOL0     C17718   7.634  10.854   8.114  0.0551  0.0662  0.2360
  129MOL0     C17719   7.415  10.508   7.884 -0.1127 -0.5891  1.0140
  129MOL0     C17720   7.457  10.413   7.976 -0.8163 -0.3478  0.1859
  129MOL0     C17721   7.400  10.292   8.000  0.2825  0.5257 -0.1402
  129MOL0     C17722   7.291  10.245   7.934 -0.3668 -0.1752  0.7575
  129MOL0     O17723   7.242  10.119   7.966  0.5666 -0.5630 -0.5703
  129MOL0     C17724   7.156  10.046   7.871  0.5822 -0.5889 -0.2824
  129MOL0     C17725   7.011  10.072   7.914 -0.3271  0.8860 -0.9627
  129MOL0     C17726   6.996  10.025   8.058 -0.4223  0.4485  0.4268
  129MOL0     C17727   6.993   9.878   8.081 -0.5666 -0.5657 -0.4574
  129MOL0     C17728   6.871   9.823   8.021 -0.3189 -0.1566 -0.4633
  129MOL0     C17729   6.763   9.785   7.971 -0.9765  0.1486  0.2225
  129MOL0     C17730   7.245  10.338   7.835 -0.1746  0.3338  0.4244
  129MOL0     C17731   7.298  10.470   7.810  0.0115  0.5561 -0.2512
  129MOL0     C17732   7.211  10.558   7.722 -0.1266 -0.6838 -0.3377
  129MOL0     H17733   7.469  10.924   7.824  2.8831 -0.7170 -1.0286
  129MOL0     H17734   7.508  11.143   7.917  2.1973  0.0028 -1.3515
  129MOL0     H17735   7.459  11.282   8.077 -0.0812  0.0839 -0.2178
  129MOL0     H17736   7.590  11.356   7.991  2.9136 -1.4236  0.1563
  129MOL0     H17737   7.556  11.392   8.288 -2.6774  2.4107  0.0175
  129MOL0     H17738   7.684  11.468   8.183 -0.2720  0.3436 -0.7873
  129MOL0     H17739   7.562  11.591   8.059 -1.8578 -1.4871 -2.3573
  129MOL0     H17740   7.405  11.526   8.113  0.0627 -2.4035  0.9907
  129MOL0     H17741   7.465  11.584   8.348  1.5759  0.1277  1.2652
  129MOL0     H17742   7.596  11.676   8.280 -0.5407  0.0473  0.7898
  129MOL0     H17743   7.316  11.756   8.278 -0.4085 -0.5370 -2.3845
  129MOL0     H17744   7.397  11.787   8.126 -0.7807 -0.8546  0.4595
  129MOL0     H17745   7.568  11.927   8.274  0.5169 -1.4652 -1.1957
  129MOL0     H17746   7.404  11.974   8.283 -2.1820 -1.1061  0.2823
  129MOL0     H17747   7.543  11.805   8.486 -0.1008 -0.2901 -4.5480
  129MOL0     H17748   7.370  11.859   8.509 -0.6870  3.3140  3.1770
  129MOL0     H17749   7.527  11.994   8.635  1.3303 -1.2235 -0.3752
  129MOL0     H17750   7.602  12.056   8.490  1.3862  0.6707  3.3485
  129MOL0     H17751   7.486  12.265   8.666 -0.9201 -0.8978  1.8117
  129MOL0     H17752   7.160  12.389   8.759  1.4521 -1.9001  1.4641
  129MOL0     H17753   7.161  12.451   8.602 -2.8855 -1.1474  2.0335
  129MOL0     H17754   7.406  12.448   8.793  0.3142  0.7811  1.1565
  129MOL0     H17755   7.413  12.521   8.637  0.0830 -2.1584  0.4733
  129MOL0     H17756   7.212  12.631   8.847 -0.7553  1.1204 -1.3125
  129MOL0     H17757   7.383  12.689   8.821 -0.4424 -0.6366  0.2023
  129MOL0     H17758   7.155  12.678   8.616 -0.0621  0.0029 -1.6532
  129MOL0     H17759   7.202  12.820   8.721 -0.6194 -1.0189  1.8807
  129MOL0     H17760   7.513  12.876   8.446  2.8994  4.2318 -3.1561
  129MOL0     H17761   7.538  13.016   8.154 -1.0450  2.0505 -1.6513
  129MOL0     H17762   7.613  13.028   8.307  1.5129  0.7863 -1.7177
  129MOL0     H17763   7.531  13.169   8.247  0.9145 -0.5653 -0.7699
  129MOL0     H17764   7.229  13.391   7.969  0.0221  1.5844  1.1210
  129MOL0     H17765   7.074  13.521   7.819 -1.6061  0.0306 -1.2433
  129MOL0     H17766   6.797  13.721   7.982 -2.7873 -1.9950 -0.6977
  129MOL0     H17767   6.956  13.732   7.910 -1.0303  0.6337 -1.3079
  129MOL0     H17768   6.808  13.884   7.771 -0.1984  0.6770 -0.7470
  129MOL0     H17769   6.818  13.736   7.673  1.1598  0.4400  0.2642
  129MOL0     H17770   6.606  13.793   7.892  2.5098 -2.8123  2.0655
  129MOL0     H17771   6.614  13.649   7.777 -0.3257  0.3974 -1.7507
  129MOL0     H17772   6.595  13.804   7.586 -0.2801 -0.9465 -0.6606
  129MOL0     H17773   6.589  13.934   7.707  3.6674 -1.0662  1.4310
  129MOL0     H17774   6.392  13.701   7.713  2.9736 -0.6537 -0.6856
  129MOL0     H17775   6.383  13.859   7.798  2.1210 -1.6148  1.9495
  129MOL0     H17776   6.382  13.826   7.500 -0.1893  4.3877 -1.6671
  129MOL0     H17777   6.375  13.975   7.585  3.3508 -0.8489  1.3055
  129MOL0     H17778   6.150  13.886   7.684  2.0417 -1.7355  1.1214
  129MOL0     H17779   6.165  13.746   7.577  2.7982 -0.7142  2.3252
  129MOL0     H17780   6.021  13.930   7.494 -0.2590 -0.9542 -2.4125
  129MOL0     H17781   6.150  13.910   7.370  0.9496 -1.0881  0.2020
  129MOL0     H17782   6.740  13.403   8.030 -0.4429 -4.0047  1.7228
  129MOL0     H17783   6.860  13.243   8.160 -1.1425 -0.5465 -0.5167
  129MOL0     H17784   7.058  13.043   8.362 -0.7504  0.1945 -0.6307
  129MOL0     H17785   7.086  12.857   8.509 -1.0195  1.7175  2.5350
  129MOL0     H17786   7.722  10.999   8.245 -2.4252  0.3945  1.0359
  129MOL0     H17787   7.672  10.778   8.182 -0.1345  0.7445  1.1255
  129MOL0     H17788   7.539  10.448   8.038  0.2489 -2.2078 -0.0810
  129MOL0     H17789   7.442  10.218   8.067 -2.9512  1.3120  3.0442
  129MOL0     H17790   7.158  10.081   7.767  1.4545  0.2424  0.0144
  129MOL0     H17791   7.171   9.937   7.871 -0.3021 -0.7736 -2.3153
  129MOL0     H17792   6.947  10.016   7.845  2.4121 -0.8640 -2.3011
  129MOL0     H17793   6.987  10.178   7.911 -0.4300  0.8441 -1.8438
  129MOL0     H17794   7.088  10.063   8.103  0.0602  3.6716 -2.8735
  129MOL0     H17795   6.904  10.067   8.100 -1.9275 -0.0015 -2.1929
  129MOL0     H17796   6.990   9.876   8.191  0.1224 -1.4051 -0.4471
  129MOL0     H17797   7.084   9.829   8.045 -2.3886 -1.7427 -3.8974
  129MOL0     H17798   6.676   9.742   7.926  0.9021 -2.2726 -1.3723
  129MOL0     H17799   7.159  10.322   7.771  0.5656 -1.6390 -0.1414
  129MOL0     H17800   7.129  10.601   7.779  1.6363  0.4851  1.4276
  129MOL0     H17801   7.270  10.640   7.679 -0.1726  0.0551  0.9779
  129MOL0     H17802   7.159  10.501   7.644 -0.6470 -1.2234  0.3830
  130MOL0     O17803   0.729   1.272   8.427 -0.6449  0.5221 -0.3189
  130MOL0     C17804   0.608   1.256   8.433 -0.1619 -0.1103  1.1804
  130MOL0     O17805   0.555   1.143   8.487 -0.0389 -0.0485 -0.0805
  130MOL0     C17806   0.639   1.052   8.548  0.5046 -0.2489 -0.0039
  130MOL0     C17807   0.741   1.085   8.633 -0.1357 -0.5398  0.6358
  130MOL0     C17808   0.816   0.990   8.703  0.7956 -0.0277  0.3725
  130MOL0     C17809   0.795   0.852   8.679  0.1596 -0.4436  0.2549
  130MOL0     O17810   0.882   0.763   8.729 -0.3547 -0.1595 -0.1256
  130MOL0     C17811   0.815   0.673   8.818  0.4435  0.0344  0.2823
  130MOL0     C17812   0.891   0.668   8.957 -1.0430 -0.0738 -0.5470
  130MOL0     C17813   1.042   0.635   8.934 -0.3113 -0.5102 -1.1468
  130MOL0     C17814   1.094   0.564   9.062 -0.8194 -0.4990 -0.2682
  130MOL0     C17815   1.235   0.513   9.051  0.0325  1.0017 -0.7796
  130MOL0     C17816   1.304   0.479   9.180  0.1284 -0.4673  0.2867
  130MOL0     C17817   1.454   0.444   9.175  1.0214 -0.1923  0.4251
  130MOL0     C17818   1.509   0.406   9.317  0.0145  0.0844  0.7524
  130MOL0     N17819   1.631   0.328   9.306 -0.9944 -0.3020 -0.5397
  130MOL0     C17820   1.762   0.371   9.286  0.2333  0.7491  0.7277
  130MOL0     C17821   1.844   0.269   9.325 -0.3197  0.1622  0.2344
  130MOL0     C17822   1.991   0.277   9.350 -0.8022  0.2358 -0.0617
  130MOL0     C17823   2.037   0.320   9.489 -0.1589  0.4104  0.7059
  130MOL0     C17824   1.974   0.454   9.533  0.2556  0.5838 -0.0874
  130MOL0     C17825   2.036   0.493   9.671 -0.3997  0.8755  0.6941
  130MOL0     O17826   1.969   0.616   9.703  0.0555 -0.6097 -0.2167
  130MOL0     C17827   2.023   0.689   9.802 -0.1694 -1.0224  0.0963
  130MOL0     C17828   1.988   0.827   9.797 -0.2013 -0.3740  0.0700
  130MOL0     C17829   2.041   0.915   9.888 -0.1528 -0.7222  0.8356
  130MOL0     C17830   2.026   1.061   9.857  0.0346  0.6547  0.0988
  130MOL0     C17831   2.131   0.858   9.993  0.5449 -0.8511 -0.2867
  130MOL0     C17832   2.222   0.938  10.084 -0.0835  1.4479  0.4062
  130MOL0     O17833   2.259   1.064  10.042 -0.0150 -0.1997  0.6752
  130MOL0     C17834   2.367   1.133  10.104  0.2940 -0.3255 -0.1688
  130MOL0     C17835   2.364   1.155  10.244  0.8764 -0.3660 -1.0989
  130MOL0     C17836   2.453   1.237  10.308 -0.8057 -0.2132 -0.1141
  130MOL0     C17837   2.568   1.292  10.243  0.6326  0.4142 -0.5514
  130MOL0     O17838   2.662   1.364  10.314 -0.2254 -0.0061 -0.0771
  130MOL0     C17839   2.668   1.339  10.449 -0.5410  0.0383  0.8760
  130MOL0     C17840   2.797   1.384  10.517 -0.5809  0.1878  0.8430
  130MOL0     C17841   2.929   1.314  10.473  0.7089 -0.1282 -0.5869
  130MOL0     C17842   3.054   1.399  10.500  0.2337 -0.5077  0.1788
  130MOL0     C17843   3.172   1.320  10.450  0.2795  0.1510  0.2418
  130MOL0     C17844   3.257   1.260  10.562 -1.1848  0.0176  0.1909
  130MOL0     C17845   3.317   1.351  10.672  0.1898  0.1226 -0.6721
  130MOL0     C17846   3.425   1.446  10.614 -0.0237  0.7632  0.7282
  130MOL0    Cl17847   3.517   1.529  10.752  0.4585 -0.2457 -0.2252
  130MOL0     C17848   2.573   1.263  10.106 -0.2954 -0.3653  0.1795
  130MOL0     C17849   2.473   1.194  10.034  0.4474  0.7710  0.5643
  130MOL0     O17850   2.257   0.877  10.188  0.5954 -0.7651  0.2843
  130MOL0     C17851   2.152   0.725   9.999  0.7518 -0.3445  0.0931
  130MOL0     C17852   2.102   0.638   9.904  0.1980  0.7724  0.1362
  130MOL0     N17853   1.758   0.160   9.354  0.0467 -0.1937 -0.0868
  130MOL0     N17854   1.633   0.194   9.340  0.2984 -0.7361 -0.8008
  130MOL0     C17855   0.689   0.814   8.590  0.0923  0.6783 -1.0344
  130MOL0     C17856   0.615   0.912   8.528  0.2645 -0.4564  0.5697
  130MOL0     C17857   0.520   1.368   8.373  1.1705 -0.4818  0.7447
  130MOL0     C17858   0.580   1.465   8.284 -0.4663  0.4091  0.5020
  130MOL0     C17859   0.504   1.568   8.221 -0.3034  1.2787  0.3208
  130MOL0     C17860   0.365   1.559   8.235  0.3307 -0.6985  0.2267
  130MOL0     O17861   0.291   1.636   8.155 -0.3526  0.2414  0.1048
  130MOL0     C17862   0.339   1.756   8.091  0.1113 -1.2182 -0.4458
  130MOL0     C17863   0.208   1.836   8.038 -0.3316 -0.1475 -0.8542
  130MOL0     C17864   0.136   1.753   7.931 -0.8101 -0.3410  0.0645
  130MOL0     C17865   0.009   1.819   7.873  0.0320  1.1396 -0.0650
  130MOL0     C17866   0.027   1.941   7.800 -0.3329 -0.3804 -0.0926
  130MOL0     C17867   0.027   2.043   7.733  0.2475 -0.3904  0.2877
  130MOL0     C17868   0.300   1.463   8.306 -0.9921  1.0887 -0.9437
  130MOL0     C17869   0.380   1.374   8.388 -0.3103 -0.1710 -0.4854
  130MOL0     C17870   0.309   1.277   8.483 -0.0683 -0.0967  0.5509
  130MOL0     H17871   0.765   1.189   8.654  2.8672 -0.6227 -1.7819
  130MOL0     H17872   0.893   1.025   8.770  0.3716  0.7860  0.4466
  130MOL0     H17873   0.825   0.578   8.764  2.2124  1.9264 -3.0400
  130MOL0     H17874   0.710   0.699   8.836  1.0078  1.9316  0.9931
  130MOL0     H17875   0.877   0.763   9.009 -1.5762  1.7616 -3.7416
  130MOL0     H17876   0.848   0.595   9.025  0.7609 -0.5614  0.1436
  130MOL0     H17877   1.051   0.563   8.852  0.3356 -2.6123  0.6883
  130MOL0     H17878   1.106   0.721   8.912  0.5087 -1.3564 -2.1736
  130MOL0     H17879   1.092   0.631   9.148  0.4234 -2.7376  1.6289
  130MOL0     H17880   1.034   0.477   9.087 -1.6564  0.3352  0.7071
  130MOL0     H17881   1.285   0.596   9.000  1.2408  0.9009  0.1903
  130MOL0     H17882   1.235   0.428   8.982 -1.8624 -0.7856  1.2844
  130MOL0     H17883   1.296   0.573   9.235  1.1783  1.1062 -2.0905
  130MOL0     H17884   1.260   0.394   9.234  0.7694 -0.2686  1.1512
  130MOL0     H17885   1.505   0.527   9.126 -2.3617  2.9646  1.7477
  130MOL0     H17886   1.463   0.361   9.105  1.1119  1.7917 -2.0645
  130MOL0     H17887   1.532   0.502   9.365 -1.1555  1.4977 -1.3678
  130MOL0     H17888   1.438   0.352   9.380 -0.3809 -1.7853 -1.1948
  130MOL0     H17889   1.792   0.475   9.274 -2.3186  1.4559 -0.2534
  130MOL0     H17890   2.026   0.345   9.272 -1.3577  0.9431  0.2973
  130MOL0     H17891   2.040   0.179   9.347 -2.1892 -0.4733 -0.0010
  130MOL0     H17892   2.023   0.244   9.566  0.5805 -0.7368 -0.2513
  130MOL0     H17893   2.145   0.333   9.485 -0.3792  2.6056  0.6661
  130MOL0     H17894   1.986   0.541   9.467  0.9825  1.1966  0.8221
  130MOL0     H17895   1.870   0.429   9.555  0.9441 -2.1637  0.4430
  130MOL0     H17896   2.034   0.403   9.734 -1.1887  0.1150 -0.3774
  130MOL0     H17897   2.143   0.513   9.666 -0.0787  0.2246  3.3746
  130MOL0     H17898   1.927   0.856   9.712 -1.3478 -0.9782  0.6781
  130MOL0     H17899   2.127   1.099   9.835 -0.1686  0.3185 -1.5616
  130MOL0     H17900   1.989   1.110   9.947  0.2769 -0.0137  0.5699
  130MOL0     H17901   1.958   1.073   9.772 -0.2946 -4.7520 -0.7878
  130MOL0     H17902   2.288   1.114  10.309  1.6884  1.4354  1.0809
  130MOL0     H17903   2.453   1.254  10.415 -1.3543 -0.6036 -0.0467
  130MOL0     H17904   2.581   1.386  10.498 -2.4571  0.6764 -2.8131
  130MOL0     H17905   2.669   1.231  10.461  0.4198 -0.1609 -0.7447
  130MOL0     H17906   2.809   1.491  10.497 -2.9028  0.6092  1.4424
  130MOL0     H17907   2.788   1.373  10.625  0.1885  0.7148  0.9668
  130MOL0     H17908   2.937   1.278  10.370  1.6044 -1.0018 -0.2258
  130MOL0     H17909   2.941   1.223  10.533 -2.8135 -1.0968 -1.1470
  130MOL0     H17910   3.062   1.416  10.607  1.1143  4.5514 -0.4056
  130MOL0     H17911   3.047   1.498  10.453  1.2908 -0.5645 -0.1357
  130MOL0     H17912   3.142   1.234  10.389 -2.2493  0.0802  1.4678
  130MOL0     H17913   3.232   1.393  10.395 -2.7593  2.0770 -0.7237
  130MOL0     H17914   3.336   1.198  10.518  0.8682  2.9807 -0.6145
  130MOL0     H17915   3.188   1.198  10.620 -0.5878 -0.4077  0.4612
  130MOL0     H17916   3.368   1.292  10.749  0.5745  1.1643 -0.1029
  130MOL0     H17917   3.235   1.406  10.719 -0.4604 -0.0935 -1.5424
  130MOL0     H17918   3.378   1.521  10.550  0.3043 -0.1746 -0.6531
  130MOL0     H17919   3.498   1.391  10.553 -2.7694 -0.2617 -1.8943
  130MOL0     H17920   2.657   1.306  10.053 -3.4554  2.2630 -3.3503
  130MOL0     H17921   2.471   1.181   9.926 -0.5080  1.8027  0.4404
  130MOL0     H17922   2.214   0.672  10.071  0.5107 -0.7502  0.0028
  130MOL0     H17923   2.122   0.531   9.911 -2.0514  0.2602 -0.6136
  130MOL0     H17924   0.673   0.711   8.562 -0.5531 -0.1917  2.1395
  130MOL0     H17925   0.529   0.877   8.472  1.8876  0.0613 -2.4478
  130MOL0     H17926   0.686   1.460   8.262 -0.9639 -1.3615 -1.8734
  130MOL0     H17927   0.557   1.647   8.169  1.6780  0.4856  1.0284
  130MOL0     H17928   0.391   1.819   8.164  0.7511 -0.1576 -1.7826
  130MOL0     H17929   0.402   1.739   8.004 -2.5012  0.5289 -2.8754
  130MOL0     H17930   0.237   1.936   8.002 -1.3426 -0.0703 -1.4964
  130MOL0     H17931   0.140   1.869   8.118 -0.0364  0.7302 -0.9551
  130MOL0     H17932   0.208   1.732   7.852 -0.8580 -0.4728  0.0570
  130MOL0     H17933   0.098   1.664   7.982 -0.0507 -1.2108 -0.8563
  130MOL0     H17934  -0.055   1.839   7.960 -0.8873  0.3126 -0.5403
  130MOL0     H17935  -0.049   1.756   7.806 -0.9068  2.1825 -0.2505
  130MOL0     H17936   0.015   2.129   7.670  1.5317 -0.4044 -0.0107
  130MOL0     H17937   0.192   1.471   8.298 -0.8548  3.5340 -0.9343
  130MOL0     H17938   0.308   1.181   8.432 -3.4347 -0.5823  1.2920
  130MOL0     H17939   0.356   1.284   8.582 -1.7879  4.1274  1.3025
  130MOL0     H17940   0.202   1.294   8.499 -0.9712 -4.0816 -0.1313
  131MOL0     O17941   5.911   5.061   9.191  0.7787 -0.7081  0.6084
  131MOL0     C17942   5.798   5.083   9.226 -0.3494  0.5904  0.1968
  131MOL0     O17943   5.765   5.179   9.324 -0.8373 -0.7524  0.3140
  131MOL0     C17944   5.870   5.252   9.383  0.0063 -0.7729  0.3678
  131MOL0     C17945   5.949   5.182   9.470 -0.2395 -0.5045  1.0991
  131MOL0     C17946   6.067   5.245   9.503 -0.3543 -0.3518 -1.0426
  131MOL0     C17947   6.100   5.375   9.480  0.0457  0.8035 -0.2270
  131MOL0     O17948   6.214   5.422   9.532  0.1137 -0.1977 -0.8436
  131MOL0     C17949   6.282   5.526   9.455  0.2886 -0.3002 -0.2236
  131MOL0     C17950   6.268   5.668   9.514  0.1821  0.4836  0.1226
  131MOL0     C17951   6.294   5.666   9.664 -0.1728  0.4057 -0.0462
  131MOL0     C17952   6.403   5.763   9.717 -0.1247  1.0807  1.0508
  131MOL0     C17953   6.424   5.748   9.871 -0.3117  0.5506  0.9098
  131MOL0     C17954   6.338   5.851   9.944  0.2481  0.4572 -0.3674
  131MOL0     C17955   6.363   5.831  10.097 -0.3026  0.3499  0.0840
  131MOL0     C17956   6.229   5.863  10.174 -0.4534 -0.4470  0.7775
  131MOL0     N17957   6.207   5.764  10.283  0.1523  0.6795 -0.4583
  131MOL0     C17958   6.167   5.635  10.252  1.1018 -0.5711  0.1615
  131MOL0     C17959   6.168   5.569  10.368  0.0945 -0.7385 -0.6907
  131MOL0     C17960   6.163   5.424  10.385  0.2370  0.4537 -0.0077
  131MOL0     C17961   6.011   5.386  10.353  0.2611 -0.1289  0.1685
  131MOL0     C17962   5.986   5.240  10.362  0.0267  0.3843  0.1821
  131MOL0     C17963   5.849   5.197  10.306 -0.3443 -0.1077  0.4059
  131MOL0     O17964   5.746   5.252  10.397 -0.2611  0.3205  0.2296
  131MOL0     C17965   5.628   5.295  10.343  1.0004 -0.2569  0.2370
  131MOL0     C17966   5.580   5.267  10.219  0.4169  0.2073  0.3444
  131MOL0     C17967   5.449   5.315  10.167 -0.2194  0.6527 -0.4703
  131MOL0     C17968   5.416   5.269  10.020  0.7967 -0.1816  0.2967
  131MOL0     C17969   5.370   5.397  10.252  0.7895 -0.2975  0.5582
  131MOL0     C17970   5.237   5.451  10.215  0.4275  0.0863  0.1815
  131MOL0     O17971   5.203   5.570  10.271  0.0033  0.8905 -0.1417
  131MOL0     C17972   5.097   5.648  10.225 -0.5002  0.8911  0.1799
  131MOL0     C17973   4.974   5.647  10.298  0.4750 -0.4137 -0.1109
  131MOL0     C17974   4.866   5.724  10.248 -0.7338  0.0200  0.4349
  131MOL0     C17975   4.882   5.809  10.137 -0.2927 -0.3223  0.0875
  131MOL0     O17976   4.785   5.871  10.067 -0.0629 -0.3593 -0.4911
  131MOL0     C17977   4.672   5.926  10.131 -0.2202  0.0268 -0.1405
  131MOL0     C17978   4.636   6.051  10.047  0.5395  0.4800  0.7811
  131MOL0     C17979   4.729   6.167  10.033  0.1216  0.4678 -0.1209
  131MOL0     C17980   4.715   6.272  10.138  0.9662  0.2352 -0.6570
  131MOL0     C17981   4.841   6.368  10.161 -0.3245  0.4288 -1.8822
  131MOL0     C17982   4.843   6.436  10.296 -0.3510 -1.0297  0.2402
  131MOL0     C17983   4.967   6.526  10.315  0.5253 -0.0594  0.2429
  131MOL0     C17984   4.914   6.657  10.362  0.8718 -0.7819  0.7092
  131MOL0    Cl17985   4.816   6.753  10.243 -0.4518 -0.1195 -0.4094
  131MOL0     C17986   5.015   5.816  10.069  0.7067 -0.1062  0.3133
  131MOL0     C17987   5.120   5.735  10.118  0.1661 -0.3839 -0.1698
  131MOL0     O17988   5.173   5.388  10.134 -0.1101  0.5964 -0.7609
  131MOL0     C17989   5.422   5.428  10.378  0.5132  0.9349 -0.7075
  131MOL0     C17990   5.546   5.380  10.418 -0.4791  0.4447 -0.3210
  131MOL0     N17991   6.220   5.658  10.464 -0.2447 -0.3307 -0.3303
  131MOL0     N17992   6.242   5.776  10.418  0.2877 -0.7822 -0.2110
  131MOL0     C17993   6.001   5.453   9.424  0.4280 -0.4641 -0.0159
  131MOL0     C17994   5.888   5.389   9.371  0.1521  0.3939  0.4852
  131MOL0     C17995   5.693   4.990   9.175  0.2338 -0.4241 -0.6296
  131MOL0     C17996   5.569   4.990   9.250  0.8257  0.6987 -0.6646
  131MOL0     C17997   5.472   4.892   9.229 -0.4119  0.4404  1.2534
  131MOL0     C17998   5.490   4.795   9.138 -0.6171 -0.5207  0.0427
  131MOL0     O17999   5.377   4.722   9.112 -0.3442 -0.2019  0.4509
  131MOL0     C18000   5.381   4.602   9.045 -0.3767  0.8873  0.3590
  131MOL0     C18001   5.440   4.504   9.142 -0.8508  0.7256 -0.5015
  131MOL0     C18002   5.442   4.364   9.054  0.1145 -0.3535 -0.1204
  131MOL0     C18003   5.466   4.242   9.142  0.4166  1.2615  0.3570
  131MOL0     C18004   5.611   4.231   9.168  0.3510  0.8059  0.6375
  131MOL0     C18005   5.728   4.230   9.181  0.3574 -0.9487  0.4344
  131MOL0     C18006   5.609   4.794   9.065 -0.1335  0.1235  0.4357
  131MOL0     C18007   5.703   4.891   9.079 -0.2232  0.7955  1.0160
  131MOL0     C18008   5.822   4.869   8.994 -0.6610  0.6426  0.0261
  131MOL0     H18009   5.916   5.079   9.477 -0.3537 -0.6446 -0.9443
  131MOL0     H18010   6.134   5.187   9.565 -0.9310  0.6118  0.5540
  131MOL0     H18011   6.254   5.544   9.350  0.1001  1.6197  0.1211
  131MOL0     H18012   6.385   5.489   9.450  0.5536 -0.5128  3.7953
  131MOL0     H18013   6.353   5.718   9.466 -1.3013  0.6299 -2.5919
  131MOL0     H18014   6.174   5.717   9.487  0.3502  0.1879 -1.0632
  131MOL0     H18015   6.204   5.680   9.726  0.8538  2.4630  1.0874
  131MOL0     H18016   6.336   5.567   9.685  1.6009  0.0453 -4.3186
  131MOL0     H18017   6.496   5.758   9.660  0.7358  1.1971  2.3775
  131MOL0     H18018   6.361   5.861   9.697 -1.1849  0.3633 -0.3885
  131MOL0     H18019   6.532   5.763   9.886  0.5290 -3.6268  0.1500
  131MOL0     H18020   6.400   5.645   9.898 -1.2938  0.3694 -0.5909
  131MOL0     H18021   6.371   5.954   9.926 -0.7200  0.9820  0.7704
  131MOL0     H18022   6.230   5.850   9.928  0.2436 -0.6511 -0.3583
  131MOL0     H18023   6.444   5.902  10.117 -1.1305  1.8849 -1.7120
  131MOL0     H18024   6.391   5.728  10.119  1.3326  0.8163  0.2851
  131MOL0     H18025   6.226   5.967  10.207  2.6609  0.6959 -1.9591
  131MOL0     H18026   6.139   5.856  10.113 -0.3954 -2.1752  0.8265
  131MOL0     H18027   6.146   5.592  10.155 -0.2457  0.7032 -0.1586
  131MOL0     H18028   6.183   5.392  10.487 -0.0208 -2.0582 -0.6672
  131MOL0     H18029   6.235   5.374  10.320 -0.1653 -2.8068  1.8274
  131MOL0     H18030   5.948   5.434  10.429  1.6837  0.6431  0.9056
  131MOL0     H18031   5.986   5.425  10.254 -0.4929  0.4409  0.5696
  131MOL0     H18032   6.062   5.187  10.303 -1.3802  1.0957 -2.4208
  131MOL0     H18033   5.987   5.215  10.469 -5.6712 -2.7036 -0.1094
  131MOL0     H18034   5.828   5.242  10.209 -1.6364  0.5237  0.9526
  131MOL0     H18035   5.837   5.089  10.312  0.8095 -0.2518  0.3061
  131MOL0     H18036   5.642   5.198  10.162 -0.4644 -0.7596  0.5255
  131MOL0     H18037   5.361   5.175  10.012  1.2650 -0.6555  2.1662
  131MOL0     H18038   5.511   5.269   9.966  0.4435  3.0709 -0.4974
  131MOL0     H18039   5.348   5.339   9.971  1.3752 -1.3433 -2.3912
  131MOL0     H18040   4.963   5.583  10.384  0.8249  1.4829  1.4265
  131MOL0     H18041   4.766   5.742  10.286 -1.1506  4.0415 -1.9973
  131MOL0     H18042   4.580   5.868  10.117  0.9321 -1.4335 -2.2179
  131MOL0     H18043   4.689   5.946  10.237 -0.8955 -1.5103  0.2878
  131MOL0     H18044   4.627   6.024   9.941 -0.2470 -0.9436  1.1747
  131MOL0     H18045   4.544   6.093  10.087 -1.0163 -0.8978 -1.1069
  131MOL0     H18046   4.720   6.214   9.935  4.4836 -0.8259 -1.3324
  131MOL0     H18047   4.831   6.129  10.036 -1.1640 -3.4435  2.9747
  131MOL0     H18048   4.687   6.219  10.230 -4.9366  0.8091 -1.6995
  131MOL0     H18049   4.621   6.326  10.125  0.8931  0.8438  1.9173
  131MOL0     H18050   4.930   6.307  10.144 -0.1063  0.4267 -0.7815
  131MOL0     H18051   4.842   6.442  10.081  0.6685 -0.7757 -3.0340
  131MOL0     H18052   4.851   6.354  10.368 -1.2496 -2.8322 -1.6093
  131MOL0     H18053   4.749   6.490  10.307 -1.1788 -2.5438  0.9342
  131MOL0     H18054   5.021   6.542  10.221  1.5592  1.0774  1.0092
  131MOL0     H18055   5.021   6.466  10.389  0.0710 -0.1773  0.4852
  131MOL0     H18056   4.993   6.725  10.395 -0.2038  1.1850 -0.5746
  131MOL0     H18057   4.842   6.638  10.443  0.6917  0.6153  0.8969
  131MOL0     H18058   5.032   5.875   9.980  1.6816 -0.0493  0.5256
  131MOL0     H18059   5.222   5.743  10.081 -0.4006  0.2839 -1.6993
  131MOL0     H18060   5.371   5.493  10.449 -0.8033 -2.1864  1.4293
  131MOL0     H18061   5.574   5.420  10.515 -2.6017 -0.5189  0.7600
  131MOL0     H18062   6.015   5.560   9.412 -0.8678 -0.3716 -0.8210
  131MOL0     H18063   5.823   5.455   9.315  2.4330 -0.2117 -3.2071
  131MOL0     H18064   5.543   5.063   9.326 -1.0137 -1.6364  1.1036
  131MOL0     H18065   5.381   4.889   9.289 -2.3884 -2.8633 -1.5396
  131MOL0     H18066   5.279   4.568   9.026 -1.9882  2.5204  4.7217
  131MOL0     H18067   5.436   4.602   8.950 -1.1014  4.3933 -0.1874
  131MOL0     H18068   5.382   4.498   9.235  0.1063  2.0188  0.2068
  131MOL0     H18069   5.543   4.532   9.163 -1.0400  1.4666 -0.5441
  131MOL0     H18070   5.347   4.356   9.000  0.2636  1.3044 -0.6792
  131MOL0     H18071   5.518   4.374   8.976 -1.0326  0.0841 -1.2118
  131MOL0     H18072   5.425   4.149   9.100 -1.1715  2.0230  0.1833
  131MOL0     H18073   5.405   4.261   9.230  0.9476  0.4161  0.9237
  131MOL0     H18074   5.835   4.225   9.186  0.2763 -2.6312  1.3222
  131MOL0     H18075   5.607   4.735   8.974  0.0853  1.3516 -0.4024
  131MOL0     H18076   5.808   4.791   8.919 -1.0360 -0.1799  0.9158
  131MOL0     H18077   5.856   4.961   8.946 -1.0936  1.1166  0.5996
  131MOL0     H18078   5.898   4.819   9.054 -1.1696  3.6114  3.5585
  132MOL0     O18079   8.051   1.368   1.549  0.2072  0.1614  0.3054
  132MOL0     C18080   7.992   1.422   1.449 -0.2160 -0.3514 -0.0433
  132MOL0     O18081   8.050   1.472   1.338  0.1740  0.4799 -0.0924
  132MOL0     C18082   8.181   1.445   1.318  0.7008 -0.4197  0.4665
  132MOL0     C18083   8.267   1.554   1.297  0.4047  0.0611 -0.1094
  132MOL0     C18084   8.401   1.526   1.280 -0.4678 -1.1207  0.3340
  132MOL0     C18085   8.443   1.392   1.276 -0.0017  0.6038  0.7174
  132MOL0     O18086   8.577   1.378   1.272 -0.4386 -0.0065 -0.1901
  132MOL0     C18087   8.628   1.255   1.218  0.0055 -0.5273  0.4031
  132MOL0     C18088   8.761   1.279   1.141  0.6152 -0.2700  0.0700
  132MOL0     C18089   8.757   1.392   1.030  0.0691 -0.9802 -0.4185
  132MOL0     C18090   8.770   1.329   0.898 -0.2093 -0.9525  0.4796
  132MOL0     C18091   8.772   1.425   0.772 -0.1351 -0.2968  0.8655
  132MOL0     C18092   8.695   1.558   0.799  0.3837 -0.2507  1.2423
  132MOL0     C18093   8.730   1.674   0.704  0.4210 -0.3675 -0.8468
  132MOL0     C18094   8.699   1.650   0.555 -0.0495 -0.1670  0.2424
  132MOL0     N18095   8.688   1.780   0.484 -0.0630  0.1640 -0.2301
  132MOL0     C18096   8.586   1.869   0.488 -0.2965  0.0218  0.6676
  132MOL0     C18097   8.623   1.968   0.397  0.4746  0.5151  0.1664
  132MOL0     C18098   8.539   2.091   0.369  0.1396  0.2826 -0.8526
  132MOL0     C18099   8.574   2.194   0.476 -0.8079  0.0521 -0.1844
  132MOL0     C18100   8.469   2.303   0.482  0.2067  0.9195  0.4879
  132MOL0     C18101   8.503   2.421   0.568  1.2923  0.2199 -1.1576
  132MOL0     O18102   8.411   2.421   0.675 -0.0985  0.5405 -0.0479
  132MOL0     C18103   8.416   2.510   0.772  0.9831  0.8140  0.5245
  132MOL0     C18104   8.515   2.602   0.785 -0.1595  0.4187  0.2179
  132MOL0     C18105   8.525   2.701   0.881 -0.1531  0.0378  0.6561
  132MOL0     C18106   8.649   2.783   0.875  0.7106  0.1496 -0.3669
  132MOL0     C18107   8.415   2.706   0.976  0.3418 -0.0001  0.5105
  132MOL0     C18108   8.406   2.813   1.083  0.8671  0.3882 -0.0537
  132MOL0     O18109   8.491   2.906   1.072 -0.4301  0.4833 -0.0259
  132MOL0     C18110   8.480   3.035   1.125 -0.4925  0.9768 -0.1806
  132MOL0     C18111   8.586   3.115   1.148 -0.1830 -0.6993  0.8069
  132MOL0     C18112   8.579   3.239   1.218  0.2933  0.5311 -0.0336
  132MOL0     C18113   8.448   3.288   1.260  0.0972  0.0901 -1.0518
  132MOL0     O18114   8.441   3.415   1.318 -0.0305 -0.1963 -0.2280
  132MOL0     C18115   8.558   3.491   1.319  1.0036  0.8270 -0.2001
  132MOL0     C18116   8.530   3.628   1.376  0.6603 -0.9427  0.5208
  132MOL0     C18117   8.421   3.708   1.287  0.2819  0.3950 -0.1713
  132MOL0     C18118   8.395   3.855   1.317  0.3705  0.8693  0.3229
  132MOL0     C18119   8.324   3.882   1.450  0.9467 -0.5210  0.2350
  132MOL0     C18120   8.334   4.027   1.500  0.0400  0.3297 -0.7091
  132MOL0     C18121   8.229   4.135   1.455 -0.1935  0.3969  1.0800
  132MOL0     C18122   8.220   4.246   1.553 -0.9758 -0.3751 -0.4814
  132MOL0    Cl18123   8.128   4.382   1.481 -0.1784  0.4372 -0.2983
  132MOL0     C18124   8.339   3.219   1.223  0.5023 -0.1146 -0.1139
  132MOL0     C18125   8.356   3.087   1.172 -0.6679  0.7307  0.3352
  132MOL0     O18126   8.326   2.790   1.178  0.2087 -0.3211 -0.4323
  132MOL0     C18127   8.315   2.603   0.968 -1.1434 -1.4332  0.5606
  132MOL0     C18128   8.312   2.520   0.867  0.5176  0.3953  0.9434
  132MOL0     N18129   8.753   1.937   0.353  1.0077  0.1235  0.4960
  132MOL0     N18130   8.793   1.833   0.420  0.3554  0.6758 -0.6620
  132MOL0     C18131   8.354   1.295   1.302  0.3402 -0.5355 -0.8494
  132MOL0     C18132   8.229   1.312   1.323  0.0895  0.1256 -0.1155
  132MOL0     C18133   7.846   1.452   1.466 -0.0152  0.4474  0.4936
  132MOL0     C18134   7.797   1.562   1.398 -0.7104 -0.1633 -0.1749
  132MOL0     C18135   7.666   1.612   1.398 -0.2679  0.4837 -0.1225
  132MOL0     C18136   7.579   1.563   1.489  0.7784  0.4010 -0.7290
  132MOL0     O18137   7.456   1.614   1.485  0.2128  0.0571  0.6710
  132MOL0     C18138   7.373   1.607   1.602  0.0637 -0.1814  0.2089
  132MOL0     C18139   7.277   1.732   1.612 -0.0113 -0.8081 -0.5104
  132MOL0     C18140   7.158   1.722   1.516 -0.0702 -0.3776  0.3243
  132MOL0     C18141   7.032   1.652   1.570 -0.0415  0.5298 -0.8275
  132MOL0     C18142   7.043   1.505   1.562  0.0795  0.3462 -0.6260
  132MOL0     C18143   7.056   1.386   1.562 -0.1084  0.2743 -0.0165
  132MOL0     C18144   7.621   1.456   1.565 -0.2678  0.7014 -0.0611
  132MOL0     C18145   7.750   1.395   1.556 -0.2169 -0.0456  0.6180
  132MOL0     C18146   7.785   1.292   1.659 -0.0941 -1.3086  0.3102
  132MOL0     H18147   8.233   1.655   1.278 -0.5295 -0.3986 -0.9921
  132MOL0     H18148   8.465   1.612   1.263 -0.9538 -0.6845  0.6813
  132MOL0     H18149   8.556   1.214   1.146  0.9661  0.7385 -1.3592
  132MOL0     H18150   8.661   1.183   1.293  1.9789 -1.5058 -1.2968
  132MOL0     H18151   8.831   1.326   1.211 -0.8745 -0.3881  1.6969
  132MOL0     H18152   8.794   1.182   1.104 -3.0466 -1.6756  0.0840
  132MOL0     H18153   8.664   1.449   1.035 -0.4423 -1.8892  0.9755
  132MOL0     H18154   8.843   1.460   1.035  1.3883 -2.3385 -2.7666
  132MOL0     H18155   8.866   1.277   0.890 -0.6590 -1.5831 -1.2874
  132MOL0     H18156   8.688   1.257   0.894 -1.0152 -0.2336  2.5759
  132MOL0     H18157   8.720   1.381   0.686  3.4662 -1.9796 -0.6262
  132MOL0     H18158   8.870   1.445   0.729 -0.6730 -3.1347 -2.1596
  132MOL0     H18159   8.587   1.548   0.799  0.2613 -0.8086 -3.0204
  132MOL0     H18160   8.732   1.597   0.895 -0.4575  1.4085  0.9305
  132MOL0     H18161   8.839   1.682   0.718  0.7484 -1.9872 -2.2061
  132MOL0     H18162   8.682   1.766   0.738 -1.9543 -0.5150 -3.4725
  132MOL0     H18163   8.776   1.592   0.504  0.0068 -0.6249  0.8322
  132MOL0     H18164   8.608   1.589   0.550  1.0736 -1.7749 -2.0101
  132MOL0     H18165   8.490   1.868   0.538 -1.0019 -2.5793 -0.5778
  132MOL0     H18166   8.435   2.054   0.371  0.7541 -1.9825 -3.4851
  132MOL0     H18167   8.545   2.132   0.268 -1.6207 -3.0885 -2.5100
  132MOL0     H18168   8.573   2.136   0.569 -0.6976 -3.3825 -2.1167
  132MOL0     H18169   8.676   2.229   0.460 -0.5449 -0.2101  0.8465
  132MOL0     H18170   8.443   2.342   0.383 -5.2697 -0.5386  1.0138
  132MOL0     H18171   8.374   2.255   0.508  1.7654 -3.4742 -0.9683
  132MOL0     H18172   8.605   2.413   0.607  0.7841 -0.2435  0.0980
  132MOL0     H18173   8.497   2.506   0.500 -0.5969  0.9039 -0.2209
  132MOL0     H18174   8.596   2.606   0.713 -2.4304  1.4611 -2.4106
  132MOL0     H18175   8.618   2.887   0.861  1.3317  0.5789  1.1776
  132MOL0     H18176   8.718   2.750   0.797  2.1187 -0.2928  1.0086
  132MOL0     H18177   8.700   2.780   0.972 -0.6927 -0.1521  0.3827
  132MOL0     H18178   8.679   3.081   1.103 -2.0849 -4.1189 -0.9215
  132MOL0     H18179   8.674   3.289   1.233 -0.3035  1.5578  0.4486
  132MOL0     H18180   8.629   3.439   1.384  1.0637 -0.5813 -1.3689
  132MOL0     H18181   8.597   3.500   1.217 -1.4739 -1.1670 -1.4231
  132MOL0     H18182   8.480   3.611   1.472 -2.0893  0.6427 -0.5038
  132MOL0     H18183   8.619   3.687   1.395 -0.1888  1.3888 -2.0984
  132MOL0     H18184   8.323   3.660   1.289  0.6954 -0.5202 -0.7649
  132MOL0     H18185   8.444   3.704   1.180 -2.0926  1.1761 -0.7531
  132MOL0     H18186   8.323   3.885   1.241 -2.1240 -0.0861  2.1939
  132MOL0     H18187   8.487   3.909   1.292 -0.0204  1.2688 -0.2801
  132MOL0     H18188   8.219   3.852   1.451  0.3762  1.3482  1.9997
  132MOL0     H18189   8.366   3.815   1.525 -0.0826 -0.4651  0.8863
  132MOL0     H18190   8.434   4.068   1.484 -0.4233  2.1144  0.6842
  132MOL0     H18191   8.324   4.016   1.609 -0.3252 -0.0781 -0.7799
  132MOL0     H18192   8.131   4.087   1.464  0.3028 -0.4130  2.5171
  132MOL0     H18193   8.255   4.168   1.355  2.3710 -0.7441  1.2975
  132MOL0     H18194   8.323   4.277   1.571 -0.8092  0.0501 -2.0494
  132MOL0     H18195   8.169   4.205   1.641 -0.4691 -2.4911 -1.1090
  132MOL0     H18196   8.241   3.265   1.238 -0.6716 -3.2815  4.2628
  132MOL0     H18197   8.260   3.042   1.149 -1.7311  2.4207  1.3346
  132MOL0     H18198   8.233   2.586   1.037 -0.6147 -2.8248  0.8946
  132MOL0     H18199   8.223   2.459   0.864 -0.2020  1.4436 -1.3091
  132MOL0     H18200   8.393   1.196   1.325 -1.1325 -0.3358  3.3068
  132MOL0     H18201   8.165   1.233   1.361  2.4913 -3.2236 -2.4198
  132MOL0     H18202   7.859   1.624   1.333  0.6069 -1.9145 -0.6807
  132MOL0     H18203   7.643   1.695   1.331  1.0834  0.4641 -0.6543
  132MOL0     H18204   7.315   1.514   1.601  1.0593 -0.8444  1.2616
  132MOL0     H18205   7.444   1.605   1.685  1.1951  0.3550 -0.7060
  132MOL0     H18206   7.329   1.826   1.594 -0.9557  0.1234  1.3352
  132MOL0     H18207   7.245   1.733   1.716 -0.0396  1.3489 -0.5012
  132MOL0     H18208   7.125   1.820   1.480  0.9420  0.0159  0.4554
  132MOL0     H18209   7.186   1.669   1.424 -0.7076  1.6504 -1.1217
  132MOL0     H18210   6.943   1.691   1.518  0.2229  3.9304  0.9744
  132MOL0     H18211   7.003   1.672   1.673  0.5833  4.3674 -1.2415
  132MOL0     H18212   7.061   1.279   1.564 -1.0094  0.1043  4.5556
  132MOL0     H18213   7.549   1.403   1.626 -0.0505 -0.7681 -1.0236
  132MOL0     H18214   7.859   1.333   1.729  0.1006 -0.3348 -0.4376
  132MOL0     H18215   7.694   1.258   1.709 -0.2440 -2.6384 -0.8280
  132MOL0     H18216   7.828   1.206   1.607  1.5197  1.0792 -2.6708
  133MOL0     O18217  10.652   6.831   0.167 -0.4043 -1.0325  0.1685
  133MOL0     C18218  10.563   6.820   0.085 -0.9027 -0.5379  0.3299
  133MOL0     O18219  10.471   6.916   0.057  0.4610 -0.7002 -0.1684
  133MOL0     C18220  10.479   7.030   0.134  0.9945 -0.9764 -0.0506
  133MOL0     C18221  10.589   7.110   0.137  0.0592 -0.1448 -0.0400
  133MOL0     C18222  10.598   7.230   0.209 -0.4714 -0.4100  0.8634
  133MOL0     C18223  10.476   7.276   0.270  0.2400  0.4986  0.2264
  133MOL0     O18224  10.478   7.398   0.340  0.4042  0.0897  0.1129
  133MOL0     C18225  10.600   7.455   0.376 -0.4259 -0.2690 -0.7149
  133MOL0     C18226  10.583   7.588   0.459  0.1794  0.8686 -0.2842
  133MOL0     C18227  10.525   7.705   0.379  0.1350  0.1085  0.3390
  133MOL0     C18228  10.483   7.822   0.470  0.9003  0.2957 -0.4789
  133MOL0     C18229  10.337   7.824   0.504  0.7835  0.4818  1.1350
  133MOL0     C18230  10.285   7.934   0.590 -0.6206 -0.0264  0.6031
  133MOL0     C18231  10.134   7.919   0.600  0.3794 -0.3119  0.0587
  133MOL0     C18232  10.085   8.009   0.715  0.6120  0.3001  0.3859
  133MOL0     N18233   9.960   7.976   0.776  0.1192 -0.0345  0.2258
  133MOL0     C18234   9.897   7.855   0.786 -0.1884 -0.1079  0.2954
  133MOL0     C18235   9.794   7.884   0.869 -0.0397  0.3060  0.9920
  133MOL0     C18236   9.700   7.766   0.895  0.3129 -0.8954  0.3838
  133MOL0     C18237   9.711   7.708   1.035 -0.1801  0.0470 -0.0693
  133MOL0     C18238   9.592   7.614   1.067 -0.4417 -0.4274  0.5751
  133MOL0     C18239   9.590   7.544   1.211  0.3706 -0.9914 -0.0139
  133MOL0     O18240   9.654   7.416   1.207 -0.1765  0.1650 -0.3404
  133MOL0     C18241   9.645   7.352   1.325 -0.6495  0.2429 -0.5101
  133MOL0     C18242   9.683   7.413   1.444  0.3033 -0.5108 -0.4740
  133MOL0     C18243   9.653   7.348   1.566 -1.1963 -0.0856  0.0515
  133MOL0     C18244   9.679   7.428   1.687  0.1365  1.0868 -0.5632
  133MOL0     C18245   9.598   7.214   1.569  1.1593  0.0202  0.3984
  133MOL0     C18246   9.563   7.137   1.691  0.9658 -0.4518 -0.4655
  133MOL0     O18247   9.463   7.040   1.678  0.2666  0.6000  0.5590
  133MOL0     C18248   9.424   6.975   1.791 -0.4153  0.6297  0.0988
  133MOL0     C18249   9.308   7.017   1.849 -0.0388 -0.6692  0.6961
  133MOL0     C18250   9.267   6.957   1.969 -0.2940 -0.0415  0.4698
  133MOL0     C18251   9.339   6.849   2.020  0.2859 -1.4236 -0.7412
  133MOL0     O18252   9.300   6.782   2.127  0.1595  0.6305 -0.4819
  133MOL0     C18253   9.190   6.828   2.216 -0.3773 -0.4472 -0.0700
  133MOL0     C18254   9.213   6.766   2.349  0.4222 -0.4466 -0.2902
  133MOL0     C18255   9.091   6.789   2.432  0.0659  0.8173  0.4844
  133MOL0     C18256   9.107   6.728   2.573 -0.3174 -0.1505 -0.1377
  133MOL0     C18257   8.991   6.776   2.653  0.4399 -0.1509  0.4057
  133MOL0     C18258   8.981   6.732   2.801 -0.0576  0.4273  0.7899
  133MOL0     C18259   8.854   6.780   2.868  0.2330 -0.0013 -1.0014
  133MOL0     C18260   8.882   6.926   2.913  1.0861 -0.5005  0.2617
  133MOL0    Cl18261   9.010   6.948   3.024 -0.3237 -0.1103  0.2204
  133MOL0     C18262   9.465   6.818   1.975 -1.0083 -0.6032 -0.0318
  133MOL0     C18263   9.502   6.877   1.855 -0.2931  0.0546  0.1156
  133MOL0     O18264   9.618   7.169   1.800  0.9194 -0.3445 -0.9082
  133MOL0     C18265   9.569   7.156   1.444  0.4267 -0.1951 -0.9478
  133MOL0     C18266   9.601   7.224   1.327 -0.3480 -0.9475 -0.7870
  133MOL0     N18267   9.790   8.006   0.910 -0.3640  0.3301 -0.2567
  133MOL0     N18268   9.899   8.054   0.865  0.2676 -0.1653  0.4745
  133MOL0     C18269  10.362   7.193   0.270 -0.6791  0.7883  0.1015
  133MOL0     C18270  10.362   7.079   0.193  0.0445 -0.1005  0.0161
  133MOL0     C18271  10.545   6.695   0.004 -0.4689 -0.4114 -0.5282
  133MOL0     C18272  10.416   6.655  -0.028  1.1078 -0.3519 -0.1947
  133MOL0     C18273  10.388   6.531  -0.093 -0.7865 -0.7050 -0.2807
  133MOL0     C18274  10.490   6.450  -0.135 -0.3239 -0.0627 -1.4628
  133MOL0     O18275  10.471   6.329  -0.192  0.3231  0.5827  0.0147
  133MOL0     C18276  10.351   6.253  -0.144  0.0478 -0.1602 -0.3990
  133MOL0     C18277  10.249   6.230  -0.264 -0.8065  0.3251 -0.2312
  133MOL0     C18278  10.142   6.347  -0.269 -0.9640  0.3566 -0.4354
  133MOL0     C18279  10.191   6.458  -0.365  0.0858 -0.1469 -0.2945
  133MOL0     C18280  10.128   6.590  -0.351  1.0357  0.0382 -0.4357
  133MOL0     C18281  10.075   6.703  -0.329 -0.6166 -0.0554  0.5352
  133MOL0     C18282  10.617   6.487  -0.100  0.0821 -0.1848 -0.2538
  133MOL0     C18283  10.652   6.602  -0.032 -0.4505  0.0535 -0.5240
  133MOL0     C18284  10.801   6.622   0.002  0.1130  0.8489  0.2445
  133MOL0     H18285  10.679   7.081   0.084 -0.2691 -1.5318  0.1342
  133MOL0     H18286  10.697   7.275   0.213  0.4766 -1.7046 -3.0453
  133MOL0     H18287  10.645   7.489   0.283 -1.8581  1.2163 -0.9053
  133MOL0     H18288  10.656   7.383   0.436  1.2212  1.5619  0.0501
  133MOL0     H18289  10.521   7.558   0.544  0.8734 -2.1054 -0.6977
  133MOL0     H18290  10.677   7.621   0.503 -1.0153  0.2642  2.9784
  133MOL0     H18291  10.609   7.736   0.316  0.1712  1.0414  0.8351
  133MOL0     H18292  10.438   7.674   0.320 -0.2837 -1.4190  1.6877
  133MOL0     H18293  10.550   7.836   0.555 -0.8352  1.0075  0.8339
  133MOL0     H18294  10.492   7.915   0.413 -2.8408  0.1699 -1.5069
  133MOL0     H18295  10.310   7.732   0.556  0.1859  1.7700  3.2759
  133MOL0     H18296  10.291   7.823   0.405  1.4540 -1.4850  0.8124
  133MOL0     H18297  10.331   7.941   0.689  1.8719 -0.3218 -0.4834
  133MOL0     H18298  10.296   8.027   0.534 -2.0910 -0.8486 -1.1369
  133MOL0     H18299  10.115   7.815   0.626 -0.7256 -0.5620 -1.6090
  133MOL0     H18300  10.076   7.954   0.514 -1.2681  0.2804  1.3643
  133MOL0     H18301  10.154   7.994   0.798 -0.3076 -3.5539  0.6575
  133MOL0     H18302  10.094   8.111   0.677 -2.2378  0.0396 -1.3086
  133MOL0     H18303   9.919   7.755   0.751 -1.9488  0.1066 -1.6239
  133MOL0     H18304   9.715   7.689   0.819  1.5799  0.1337 -0.4395
  133MOL0     H18305   9.600   7.811   0.891  1.5526  2.0173  0.0542
  133MOL0     H18306   9.810   7.663   1.048  1.2244  3.6926  4.2235
  133MOL0     H18307   9.720   7.786   1.111  1.7316 -1.2199  1.0969
  133MOL0     H18308   9.509   7.686   1.065  0.7106  0.9730  1.1112
  133MOL0     H18309   9.592   7.538   0.989  1.7313  1.4546 -1.4328
  133MOL0     H18310   9.641   7.609   1.283 -1.7999 -0.3010  0.9813
  133MOL0     H18311   9.484   7.530   1.234 -0.5846  3.0931 -1.1761
  133MOL0     H18312   9.738   7.506   1.442  1.1457 -0.9385  0.8950
  133MOL0     H18313   9.701   7.533   1.663 -0.7734  1.8977  1.9015
  133MOL0     H18314   9.763   7.386   1.743  0.1212 -0.3421 -1.5684
  133MOL0     H18315   9.583   7.439   1.739  1.0973  1.9066  1.1233
  133MOL0     H18316   9.247   7.091   1.798 -0.1858 -0.1033  1.6540
  133MOL0     H18317   9.170   6.982   2.011 -0.8951 -0.4987 -0.6176
  133MOL0     H18318   9.194   6.937   2.224 -1.4445 -0.5219  2.8164
  133MOL0     H18319   9.102   6.793   2.161 -0.6374 -0.3644  0.2869
  133MOL0     H18320   9.229   6.657   2.351  0.1530 -0.4757  0.7170
  133MOL0     H18321   9.296   6.813   2.403  0.7152  0.2061 -1.2735
  133MOL0     H18322   9.002   6.744   2.385  0.8887 -1.2259  0.7582
  133MOL0     H18323   9.071   6.896   2.435 -1.0151  0.7686 -2.1828
  133MOL0     H18324   9.203   6.757   2.617 -0.5369 -1.2202  1.0982
  133MOL0     H18325   9.099   6.619   2.572 -1.5117 -0.1146 -2.3045
  133MOL0     H18326   9.007   6.884   2.661 -3.4315  0.6983 -0.8396
  133MOL0     H18327   8.897   6.763   2.598  1.1517  2.1426 -1.4963
  133MOL0     H18328   9.074   6.765   2.847  1.7787  1.9035 -3.4053
  133MOL0     H18329   8.989   6.625   2.783  4.2859  0.1753  2.9066
  133MOL0     H18330   8.839   6.720   2.958  4.1310  2.3187  1.5023
  133MOL0     H18331   8.765   6.790   2.807 -0.9366 -0.6456  0.5349
  133MOL0     H18332   8.786   6.962   2.951 -0.9660 -3.8514 -1.2989
  133MOL0     H18333   8.903   6.985   2.823 -1.0980 -0.1501 -0.0745
  133MOL0     H18334   9.516   6.737   2.028 -0.7323  0.0043  0.6539
  133MOL0     H18335   9.592   6.847   1.802 -2.1359 -1.2078 -2.5081
  133MOL0     H18336   9.534   7.053   1.444  3.0241 -1.2242  1.3133
  133MOL0     H18337   9.569   7.172   1.237  0.6139  0.0964 -1.7514
  133MOL0     H18338  10.269   7.223   0.316  0.6120  1.9166  2.1402
  133MOL0     H18339  10.278   7.016   0.167  2.0687 -2.8221 -0.4502
  133MOL0     H18340  10.336   6.726  -0.012  1.5614  0.3746 -1.0675
  133MOL0     H18341  10.284   6.519  -0.124 -1.7507  2.3384  1.3447
  133MOL0     H18342  10.380   6.155  -0.104 -1.3014 -0.8310 -1.0041
  133MOL0     H18343  10.304   6.305  -0.060 -1.7403  0.7180 -1.8610
  133MOL0     H18344  10.203   6.131  -0.262 -2.2681  0.9422  3.2232
  133MOL0     H18345  10.316   6.225  -0.351  0.1357 -0.2294  0.5011
  133MOL0     H18346  10.042   6.315  -0.302 -2.7322  3.9925  0.8401
  133MOL0     H18347  10.125   6.393  -0.172  0.1236  0.2967 -0.2041
  133MOL0     H18348  10.168   6.443  -0.471 -3.2023  3.0561 -0.2327
  133MOL0     H18349  10.299   6.468  -0.352  1.0070 -2.1026 -4.6916
  133MOL0     H18350  10.029   6.796  -0.303  1.7081  1.3820 -0.2417
  133MOL0     H18351  10.684   6.407  -0.128  0.6305  1.5287 -4.4661
  133MOL0     H18352  10.826   6.723  -0.033  0.1431 -0.0620 -2.6323
  133MOL0     H18353  10.806   6.611   0.110  2.4596  2.5288  0.3698
  133MOL0     H18354  10.863   6.541  -0.038 -0.9152 -1.2139  2.5364
  134MOL0     O18355   9.878  11.449   2.629 -0.4632  0.2757 -0.6235
  134MOL0     C18356   9.977  11.373   2.620  0.7268 -1.1501  0.2703
  134MOL0     O18357  10.013  11.317   2.497 -0.0760 -0.1355  0.3825
  134MOL0     C18358   9.916  11.289   2.403  0.4302 -0.1492  0.7563
  134MOL0     C18359   9.790  11.240   2.426 -0.6111  0.3587 -0.7756
  134MOL0     C18360   9.707  11.210   2.319  0.5599  0.5605 -0.2695
  134MOL0     C18361   9.750  11.227   2.190  0.9069 -0.3856  0.0944
  134MOL0     O18362   9.664  11.222   2.075  0.3801 -0.3377 -0.4844
  134MOL0     C18363   9.518  11.237   2.096  0.0185  0.1687  0.2165
  134MOL0     C18364   9.475  11.306   1.969  0.0073  0.0081  0.0072
  134MOL0     C18365   9.486  11.217   1.842 -0.2123  0.1418  0.2969
  134MOL0     C18366   9.417  11.077   1.849  0.0827  0.5321 -0.1875
  134MOL0     C18367   9.261  11.075   1.878 -0.2981  0.8599  0.3696
  134MOL0     C18368   9.211  10.931   1.854  0.3407  0.0145  1.1103
  134MOL0     C18369   9.161  10.922   1.705 -0.0160 -0.0141  0.7521
  134MOL0     C18370   9.157  10.774   1.659  0.1210  0.3038  0.1367
  134MOL0     N18371   9.100  10.772   1.519 -0.9688  0.1844 -0.1563
  134MOL0     C18372   8.968  10.800   1.482  0.1022 -0.3100 -0.6773
  134MOL0     C18373   8.970  10.790   1.346 -0.9243  0.0911 -0.4214
  134MOL0     C18374   8.858  10.823   1.258 -0.3229  0.2873  0.9144
  134MOL0     C18375   8.880  10.963   1.208  0.0282 -0.0784 -0.7526
  134MOL0     C18376   8.787  11.008   1.097  0.1193  0.3993 -0.0248
  134MOL0     C18377   8.753  11.154   1.106 -0.3407 -0.2169 -0.8420
  134MOL0     O18378   8.860  11.228   1.155 -0.2932  0.3115 -0.1256
  134MOL0     C18379   8.969  11.264   1.074 -0.3466  0.1474 -0.4004
  134MOL0     C18380   8.986  11.224   0.934  0.5075  0.7136 -0.2112
  134MOL0     C18381   9.117  11.250   0.873 -0.6034 -0.0747 -0.6352
  134MOL0     C18382   9.133  11.209   0.737 -0.4971 -0.5161  0.1529
  134MOL0     C18383   9.220  11.320   0.939 -0.0747  0.0051 -0.1136
  134MOL0     C18384   9.346  11.346   0.881  0.1104  0.6976 -0.4801
  134MOL0     O18385   9.448  11.261   0.898  0.1016  0.0215  0.1938
  134MOL0     C18386   9.564  11.275   0.825 -0.0842  0.1587  0.0890
  134MOL0     C18387   9.681  11.279   0.906 -0.7653  0.5114  0.0799
  134MOL0     C18388   9.808  11.282   0.835 -0.1661 -0.4131  0.4348
  134MOL0     C18389   9.821  11.263   0.696 -1.0288 -1.4597  0.0100
  134MOL0     O18390   9.941  11.265   0.623 -0.4060  0.3499 -0.4605
  134MOL0     C18391  10.060  11.296   0.698 -0.5407  1.0123  0.1091
  134MOL0     C18392  10.170  11.289   0.597  0.1444 -0.4781  0.1269
  134MOL0     C18393  10.201  11.422   0.533  0.3310 -0.2760 -0.5045
  134MOL0     C18394  10.326  11.422   0.446  0.2007  0.0686 -0.0607
  134MOL0     C18395  10.310  11.352   0.306 -0.4233  0.0401  0.1793
  134MOL0     C18396  10.447  11.329   0.230  0.8960 -0.5135  0.1811
  134MOL0     C18397  10.525  11.204   0.278 -0.2208  0.0591 -0.0637
  134MOL0     C18398  10.640  11.157   0.188 -0.3112  0.1758  0.5165
  134MOL0    Cl18399  10.695  10.995   0.227  0.0032  0.0462 -0.2727
  134MOL0     C18400   9.706  11.258   0.620 -0.0472  0.0082  0.1323
  134MOL0     C18401   9.579  11.262   0.686 -0.1867  0.3253  0.7851
  134MOL0     O18402   9.358  11.462   0.840  0.0427  0.1693  0.2734
  134MOL0     C18403   9.192  11.358   1.080 -0.3577 -0.1185  0.1235
  134MOL0     C18404   9.065  11.336   1.136  0.1568  0.4359 -0.3549
  134MOL0     N18405   9.106  10.763   1.310  0.5696  0.6617  0.3973
  134MOL0     N18406   9.184  10.746   1.413  0.2451 -0.6488  0.3774
  134MOL0     C18407   9.883  11.245   2.167 -0.5133 -0.8676  0.4326
  134MOL0     C18408   9.965  11.276   2.271 -0.2805 -0.0098 -0.5606
  134MOL0     C18409  10.045  11.337   2.747 -0.0342  0.8657  0.1869
  134MOL0     C18410  10.059  11.435   2.844  0.1459 -0.1189 -0.7485
  134MOL0     C18411  10.104  11.411   2.971 -0.6159 -0.2821 -1.3651
  134MOL0     C18412  10.125  11.281   3.018 -1.0882  0.3328  0.0656
  134MOL0     O18413  10.162  11.258   3.148 -0.1093  0.7444 -0.0133
  134MOL0     C18414  10.302  11.233   3.176  0.0843  0.4885  0.7158
  134MOL0     C18415  10.306  11.204   3.321 -0.2624 -0.6956  0.5269
  134MOL0     C18416  10.224  11.079   3.365  0.2693  0.5764 -0.6933
  134MOL0     C18417  10.268  10.944   3.304 -0.2427  1.0763 -0.1116
  134MOL0     C18418  10.417  10.918   3.320 -0.4853 -0.4213  0.3660
  134MOL0     C18419  10.530  10.886   3.350  0.4429  1.0968  0.0835
  134MOL0     C18420  10.120  11.182   2.921  0.1812 -0.1953 -0.8788
  134MOL0     C18421  10.086  11.209   2.786  0.1680  0.1334 -0.0209
  134MOL0     C18422  10.067  11.088   2.708  0.2979 -0.2474  0.6887
  134MOL0     H18423   9.763  11.222   2.529 -2.9535 -0.5298 -1.4908
  134MOL0     H18424   9.601  11.185   2.329  0.1769  1.6230 -1.4909
  134MOL0     H18425   9.506  11.301   2.184  1.2954  1.7321 -0.6778
  134MOL0     H18426   9.461  11.147   2.117  0.9688  0.2165  3.5665
  134MOL0     H18427   9.373  11.341   1.986 -0.6045 -2.6232  2.8814
  134MOL0     H18428   9.544  11.390   1.974  0.5847 -0.5105  2.4101
  134MOL0     H18429   9.442  11.271   1.758 -1.6072 -1.4198 -0.0380
  134MOL0     H18430   9.590  11.204   1.811 -0.7342 -1.2388 -0.9773
  134MOL0     H18431   9.432  11.020   1.756 -1.6413 -1.9180  0.9316
  134MOL0     H18432   9.465  11.010   1.920 -0.6038 -1.7073 -1.7270
  134MOL0     H18433   9.212  11.144   1.809 -0.9928 -0.1698 -0.1901
  134MOL0     H18434   9.246  11.100   1.984 -0.4437  1.0290  0.3097
  134MOL0     H18435   9.275  10.846   1.882  0.3028 -1.3560 -2.3849
  134MOL0     H18436   9.130  10.912   1.924 -1.5161  1.4186 -0.5438
  134MOL0     H18437   9.235  10.976   1.645  2.7710 -2.5515  1.6406
  134MOL0     H18438   9.058  10.959   1.698 -1.0622 -1.9477  3.9683
  134MOL0     H18439   9.259  10.735   1.655 -0.0295 -0.1518  0.7073
  134MOL0     H18440   9.099  10.727   1.739  2.5241 -3.1787  0.0464
  134MOL0     H18441   8.883  10.831   1.542  0.5602 -0.7234  0.1985
  134MOL0     H18442   8.757  10.821   1.299 -0.1425  4.3189  2.0268
  134MOL0     H18443   8.858  10.752   1.175  1.4231  0.2731  0.8903
  134MOL0     H18444   8.858  11.031   1.291 -0.7623 -0.3221 -0.7503
  134MOL0     H18445   8.984  10.978   1.179  0.2721 -0.7943 -0.2959
  134MOL0     H18446   8.831  10.997   0.997 -0.1800  3.1639 -0.5613
  134MOL0     H18447   8.695  10.950   1.100 -0.1221  0.8116  0.5931
  134MOL0     H18448   8.724  11.184   1.005  1.7985 -2.5296 -2.2793
  134MOL0     H18449   8.672  11.163   1.179  0.0538 -2.7742  0.0426
  134MOL0     H18450   8.912  11.173   0.873  0.2531 -0.0698  0.7238
  134MOL0     H18451   9.053  11.139   0.707  0.5198 -1.5525 -0.2190
  134MOL0     H18452   9.237  11.180   0.722 -0.6303 -0.9399  0.0140
  134MOL0     H18453   9.141  11.297   0.673 -0.1383 -0.0361  0.8516
  134MOL0     H18454   9.667  11.290   1.013 -0.6761 -0.0862  0.1585
  134MOL0     H18455   9.891  11.308   0.899 -0.9093  1.5290  0.6871
  134MOL0     H18456  10.057  11.401   0.731  3.5087  1.4454 -0.3929
  134MOL0     H18457  10.076  11.226   0.780  1.1377  1.3568  0.1039
  134MOL0     H18458  10.265  11.251   0.636  0.1516 -1.2325 -0.5778
  134MOL0     H18459  10.144  11.223   0.514  1.9291  0.3331 -1.1380
  134MOL0     H18460  10.217  11.500   0.608  0.2432  1.6297 -2.3836
  134MOL0     H18461  10.122  11.454   0.464 -1.4564 -0.7870  1.2074
  134MOL0     H18462  10.413  11.385   0.500  1.7183  2.1150 -0.9749
  134MOL0     H18463  10.352  11.526   0.427  0.8804  0.0865  0.9269
  134MOL0     H18464  10.264  11.256   0.329 -3.2467  1.5801  1.4023
  134MOL0     H18465  10.244  11.410   0.241 -0.2506  0.7535  0.6248
  134MOL0     H18466  10.502  11.423   0.228 -0.9081  0.6289  1.6061
  134MOL0     H18467  10.416  11.304   0.128  0.8669 -1.0887  0.3275
  134MOL0     H18468  10.466  11.112   0.289  1.4804 -1.1440 -0.7065
  134MOL0     H18469  10.573  11.222   0.375 -0.5464  1.2003 -0.0956
  134MOL0     H18470  10.732  11.216   0.195  0.1081 -0.4455  0.3326
  134MOL0     H18471  10.612  11.158   0.082 -1.6666 -0.3079  0.8535
  134MOL0     H18472   9.718  11.239   0.514 -3.4702 -0.2992 -0.3052
  134MOL0     H18473   9.492  11.266   0.622  1.1632  0.0400 -1.1758
  134MOL0     H18474   9.273  11.414   1.126 -1.6197  1.6036  0.3403
  134MOL0     H18475   9.045  11.365   1.239 -1.3764  1.3597 -0.8706
  134MOL0     H18476   9.936  11.245   2.073  2.2694  1.2431  1.8309
  134MOL0     H18477  10.069  11.305   2.266 -0.0287  0.2321  3.0272
  134MOL0     H18478  10.039  11.538   2.818 -3.1573 -0.5831 -0.5084
  134MOL0     H18479  10.103  11.494   3.041 -0.4007 -1.3939 -0.0247
  134MOL0     H18480  10.339  11.149   3.115 -0.5505  0.0539  0.9132
  134MOL0     H18481  10.354  11.327   3.158  1.9094 -0.0053  2.9354
  134MOL0     H18482  10.273  11.291   3.378  2.6247  2.2791 -1.9323
  134MOL0     H18483  10.412  11.198   3.348  0.0076  2.6612  0.6672
  134MOL0     H18484  10.234  11.071   3.474  2.1876 -1.7732 -0.9442
  134MOL0     H18485  10.117  11.086   3.346  0.0663  0.6038  0.3794
  134MOL0     H18486  10.235  10.920   3.203  1.7212  0.2204 -0.6047
  134MOL0     H18487  10.204  10.881   3.366  1.7576 -0.6294  0.3088
  134MOL0     H18488  10.624  10.854   3.388  0.4655 -1.6656 -2.0123
  134MOL0     H18489  10.158  11.085   2.951 -0.9012 -0.7966 -1.3918
  134MOL0     H18490  10.148  11.080   2.634 -1.7083 -0.4085 -1.5994
  134MOL0     H18491  10.073  11.000   2.773 -2.2391  0.8272  2.5079
  134MOL0     H18492   9.975  11.097   2.650  0.6798  0.6113  0.1976
  135MOL0     O18493  10.921   7.484   1.985 -0.7979  0.7099 -0.1464
  135MOL0     C18494  10.948   7.603   1.976 -0.2101 -0.5554 -0.0666
  135MOL0     O18495  11.077   7.659   1.966  0.8375  0.6341 -0.4246
  135MOL0     C18496  11.175   7.565   1.951  0.9276  0.3300 -0.3939
  135MOL0     C18497  11.256   7.542   2.058 -0.3296  0.5271  0.3789
  135MOL0     C18498  11.362   7.453   2.045 -0.6355  0.2498  0.4507
  135MOL0     C18499  11.393   7.385   1.926 -0.2515  0.3894  0.1607
  135MOL0     O18500  11.518   7.325   1.915  0.0431 -0.2609  0.0772
  135MOL0     C18501  11.509   7.189   1.857  0.2685 -0.1081  0.4673
  135MOL0     C18502  11.638   7.111   1.813  0.3409 -1.0305 -0.3034
  135MOL0     C18503  11.728   7.175   1.708 -0.3305 -0.2920 -0.5595
  135MOL0     C18504  11.654   7.259   1.605  0.2680 -0.9283 -0.4173
  135MOL0     C18505  11.582   7.157   1.513 -0.2707  0.6201 -0.4267
  135MOL0     C18506  11.487   7.234   1.420  0.4690  0.8900  0.6396
  135MOL0     C18507  11.391   7.136   1.335 -0.3051  0.7240 -0.6743
  135MOL0     C18508  11.291   7.065   1.423  0.9550 -0.8776 -0.4604
  135MOL0     N18509  11.201   7.169   1.484  0.3693  0.4645 -0.2030
  135MOL0     C18510  11.139   7.145   1.604 -0.8381  0.3725  0.4979
  135MOL0     C18511  11.051   7.245   1.611  0.1139 -0.4470 -0.4791
  135MOL0     C18512  10.951   7.266   1.723  0.1217 -1.2709 -0.1592
  135MOL0     C18513  10.861   7.145   1.740 -0.4844 -0.1526 -0.6918
  135MOL0     C18514  10.748   7.161   1.839 -0.4588 -0.4727  0.3917
  135MOL0     C18515  10.642   7.268   1.809  0.7374  0.1426 -0.1619
  135MOL0     O18516  10.544   7.261   1.916  0.1655  0.5301 -0.0958
  135MOL0     C18517  10.431   7.341   1.919  1.0112  0.3862 -0.8187
  135MOL0     C18518  10.330   7.298   2.001 -0.5035  0.2904  0.3539
  135MOL0     C18519  10.222   7.383   2.036  0.6205 -0.7834 -0.3562
  135MOL0     C18520  10.125   7.325   2.137  0.5803 -0.2471  0.8791
  135MOL0     C18521  10.220   7.516   1.983  0.5844  0.3037 -0.9066
  135MOL0     C18522  10.099   7.606   2.011  0.1634  0.2877 -0.2686
  135MOL0     O18523  10.122   7.738   2.027 -0.0679 -0.1100  0.2882
  135MOL0     C18524  10.007   7.799   2.069 -0.1719 -0.5353  0.4059
  135MOL0     C18525   9.940   7.885   1.983  0.1455  0.2933 -0.9583
  135MOL0     C18526   9.819   7.939   2.018  0.0454  0.1564 -0.6837
  135MOL0     C18527   9.760   7.911   2.143  0.0326  0.4054  0.6394
  135MOL0     O18528   9.634   7.960   2.186 -0.2791  0.5018  0.7257
  135MOL0     C18529   9.590   8.079   2.116  0.3181 -0.0610 -0.2703
  135MOL0     C18530   9.467   8.133   2.179 -0.0174  1.1766 -0.7854
  135MOL0     C18531   9.385   8.226   2.093 -0.4779  0.6180 -0.2150
  135MOL0     C18532   9.269   8.292   2.161 -0.0571 -0.0125 -0.3039
  135MOL0     C18533   9.202   8.393   2.064  0.0366 -0.3692  0.9992
  135MOL0     C18534   9.086   8.460   2.125 -1.1560 -0.2827 -0.1430
  135MOL0     C18535   8.972   8.376   2.164  0.5813 -0.3202 -1.3027
  135MOL0     C18536   8.841   8.458   2.195 -1.0309 -0.5041 -0.1713
  135MOL0    Cl18537   8.705   8.351   2.247  0.2819  0.0720  0.3215
  135MOL0     C18538   9.837   7.838   2.234 -0.0056 -0.8676  0.4857
  135MOL0     C18539   9.955   7.774   2.190 -0.6096 -0.5412 -0.1363
  135MOL0     O18540   9.986   7.552   1.985 -0.1915  0.3785 -0.1386
  135MOL0     C18541  10.317   7.553   1.888 -0.3366  1.0734 -0.0136
  135MOL0     C18542  10.419   7.459   1.855  0.4719 -0.9734  1.1123
  135MOL0     N18543  11.066   7.335   1.500  0.0048 -0.2482  0.1496
  135MOL0     N18544  11.164   7.286   1.430 -0.2117  0.5974 -0.4206
  135MOL0     C18545  11.297   7.395   1.818  0.3171 -0.9018 -0.0169
  135MOL0     C18546  11.193   7.486   1.834 -0.2062  0.6726 -0.6974
  135MOL0     C18547  10.834   7.699   1.952 -0.0094 -0.1982 -0.3657
  135MOL0     C18548  10.846   7.807   1.870  0.1275 -0.6654 -0.0518
  135MOL0     C18549  10.729   7.892   1.848 -0.0688 -0.9684 -0.2147
  135MOL0     C18550  10.606   7.866   1.901 -0.0754  0.6755  0.0104
  135MOL0     O18551  10.498   7.946   1.899 -0.0611 -0.2033  0.6685
  135MOL0     C18552  10.477   8.042   1.797 -0.1598  0.7041  0.0644
  135MOL0     C18553  10.335   8.097   1.806 -0.0737  0.1072 -0.4172
  135MOL0     C18554  10.283   8.097   1.948 -0.6996  1.1809 -0.6159
  135MOL0     C18555  10.166   8.191   1.974  1.2450  0.3174  0.3669
  135MOL0     C18556  10.214   8.323   1.955 -0.4270 -0.0382  0.0112
  135MOL0     C18557  10.246   8.437   1.941  1.0349 -0.2843 -0.8791
  135MOL0     C18558  10.603   7.749   1.975  0.3405  0.7963 -0.3802
  135MOL0     C18559  10.706   7.668   2.005 -0.4667 -0.5606  0.2339
  135MOL0     C18560  10.678   7.561   2.108  0.0532  0.1248 -0.4917
  135MOL0     H18561  11.232   7.597   2.149 -1.4213 -1.1235  1.1241
  135MOL0     H18562  11.429   7.452   2.130 -0.7788  1.6836  0.6120
  135MOL0     H18563  11.452   7.194   1.763  2.1171  1.2896 -0.6483
  135MOL0     H18564  11.453   7.126   1.926 -0.7483  0.1543 -0.0963
  135MOL0     H18565  11.691   7.095   1.908 -1.2486 -1.0635  0.6142
  135MOL0     H18566  11.619   7.013   1.768  2.4716 -1.8395  0.4463
  135MOL0     H18567  11.800   7.236   1.763 -2.4261 -0.3426  2.5110
  135MOL0     H18568  11.773   7.084   1.667 -4.2080 -2.8145  0.2611
  135MOL0     H18569  11.590   7.335   1.651 -0.2165 -0.0981 -2.3681
  135MOL0     H18570  11.726   7.317   1.548 -3.4532  1.8018 -2.8367
  135MOL0     H18571  11.533   7.082   1.575  2.0281 -1.5768 -1.0812
  135MOL0     H18572  11.659   7.098   1.462 -0.3946 -0.2110  0.3241
  135MOL0     H18573  11.425   7.317   1.457 -0.7040  1.0871 -1.6246
  135MOL0     H18574  11.554   7.288   1.353  1.0306  3.2950  2.9511
  135MOL0     H18575  11.458   7.065   1.288  0.5900  1.1802 -0.1104
  135MOL0     H18576  11.333   7.194   1.263 -3.8216  0.3527  1.5619
  135MOL0     H18577  11.230   7.002   1.358  1.6755 -2.0192 -0.0643
  135MOL0     H18578  11.336   6.990   1.488  0.1620 -2.0387 -1.2292
  135MOL0     H18579  11.151   7.059   1.669  2.7812 -2.4020 -3.2662
  135MOL0     H18580  10.899   7.361   1.709 -0.7197 -1.9087 -1.5809
  135MOL0     H18581  11.013   7.285   1.812  0.9496  1.5891 -1.2112
  135MOL0     H18582  10.818   7.131   1.641  1.8935  5.5845 -3.0012
  135MOL0     H18583  10.913   7.056   1.778  2.6362  1.7454 -0.0958
  135MOL0     H18584  10.688   7.071   1.850 -0.7708  0.0324  3.6320
  135MOL0     H18585  10.799   7.178   1.934  3.8126 -2.9374 -1.1967
  135MOL0     H18586  10.684   7.369   1.802  1.6374 -0.2277 -0.2388
  135MOL0     H18587  10.602   7.249   1.709 -1.2427 -0.2221  0.6462
  135MOL0     H18588  10.322   7.194   2.032 -0.9837  0.2477  0.1000
  135MOL0     H18589  10.069   7.411   2.177 -0.9877 -1.8586  2.3197
  135MOL0     H18590  10.174   7.279   2.224  1.0432  0.7145  1.1425
  135MOL0     H18591  10.059   7.260   2.079  0.0990  2.8085 -2.3078
  135MOL0     H18592   9.994   7.888   1.889  1.0617 -1.9657 -0.5695
  135MOL0     H18593   9.765   7.998   1.945  0.4863 -0.3143 -1.4037
  135MOL0     H18594   9.664   8.159   2.115 -1.4714  1.7421  1.3103
  135MOL0     H18595   9.569   8.037   2.018 -0.5462 -1.2429  0.4009
  135MOL0     H18596   9.398   8.050   2.196  1.6610 -0.5115 -1.9649
  135MOL0     H18597   9.501   8.195   2.264  0.3666 -0.5563  0.3705
  135MOL0     H18598   9.346   8.162   2.012 -2.4040  2.3688 -0.7706
  135MOL0     H18599   9.452   8.299   2.047 -0.1946 -1.1176 -2.7759
  135MOL0     H18600   9.304   8.336   2.255  1.0028 -1.8869  0.2339
  135MOL0     H18601   9.196   8.218   2.193 -0.7980 -0.2715 -2.4266
  135MOL0     H18602   9.274   8.466   2.028 -1.6269  0.1716 -1.4970
  135MOL0     H18603   9.163   8.350   1.971  3.4625  0.7878 -1.1586
  135MOL0     H18604   9.051   8.525   2.044 -0.1354 -1.0449 -1.2181
  135MOL0     H18605   9.125   8.525   2.204 -0.7668  2.9607 -2.7943
  135MOL0     H18606   8.999   8.310   2.247  1.6847  2.0565  0.3392
  135MOL0     H18607   8.948   8.307   2.082  2.1466 -0.2891 -1.8275
  135MOL0     H18608   8.816   8.523   2.110  3.7221 -0.1999 -1.5887
  135MOL0     H18609   8.868   8.520   2.280  0.2631  0.5154 -1.2908
  135MOL0     H18610   9.799   7.818   2.334  0.7953  0.7287  1.1429
  135MOL0     H18611  10.004   7.699   2.250  3.5700 -0.5728 -3.1570
  135MOL0     H18612  10.325   7.650   1.841  2.9544  0.8272 -0.2332
  135MOL0     H18613  10.488   7.486   1.776 -0.4470 -1.0315  0.2750
  135MOL0     H18614  11.316   7.366   1.715 -0.2368  1.9403 -1.0132
  135MOL0     H18615  11.134   7.510   1.746 -0.4869  3.4155  0.1385
  135MOL0     H18616  10.934   7.817   1.807  1.0038 -0.5679  1.1573
  135MOL0     H18617  10.730   7.971   1.773 -2.5311  0.0353  0.7023
  135MOL0     H18618  10.549   8.124   1.800 -0.9261  1.3881 -0.0467
  135MOL0     H18619  10.491   7.994   1.700  1.9882  1.4569 -0.0469
  135MOL0     H18620  10.271   8.030   1.747 -0.2312  1.3792 -1.7535
  135MOL0     H18621  10.325   8.194   1.757  1.1737 -0.8341 -2.7362
  135MOL0     H18622  10.254   7.995   1.975  1.2865  0.9742  0.9760
  135MOL0     H18623  10.364   8.123   2.017  1.3738 -3.2223 -1.0426
  135MOL0     H18624  10.125   8.175   2.075 -0.1743 -0.1628 -0.2648
  135MOL0     H18625  10.087   8.169   1.901  0.3223  0.8879  1.1557
  135MOL0     H18626  10.291   8.533   1.928  0.0763  0.7412  2.3256
  135MOL0     H18627  10.506   7.738   2.023 -0.9464  3.4206 -2.1457
  135MOL0     H18628  10.715   7.459   2.094 -0.5832 -0.3833  1.1721
  135MOL0     H18629  10.720   7.593   2.204 -0.8436  1.4511 -0.5139
  135MOL0     H18630  10.571   7.540   2.121  0.0554  1.0253  1.3962
  136MOL0     O18631   9.003  11.347  10.594 -0.1317  0.0251 -0.7577
  136MOL0     C18632   8.897  11.319  10.636  1.1660  0.9757  0.0580
  136MOL0     O18633   8.875  11.216  10.721  0.8032  0.4427  0.2944
  136MOL0     C18634   8.986  11.137  10.747 -0.1345 -0.2681  0.2937
  136MOL0     C18635   8.987  11.012  10.689 -0.1647  0.5834 -0.4961
  136MOL0     C18636   9.094  10.917  10.710  0.5540 -1.5204  0.5151
  136MOL0     C18637   9.197  10.957  10.796 -0.2380  0.1337 -0.2482
  136MOL0     O18638   9.307  10.873  10.805 -0.0701  0.7935 -0.2059
  136MOL0     C18639   9.279  10.735  10.861 -0.4748  0.0506 -0.0753
  136MOL0     C18640   9.262  10.719  11.010  0.5370  0.1995 -0.5729
  136MOL0     C18641   9.399  10.709  11.092  0.1477 -0.4328  0.2948
  136MOL0     C18642   9.489  10.601  11.050 -0.1872 -0.0787 -0.1547
  136MOL0     C18643   9.631  10.614  11.111 -0.2880  0.9083  0.0709
  136MOL0     C18644   9.722  10.731  11.058 -0.0781 -0.0106  0.2172
  136MOL0     C18645   9.868  10.727  11.108 -0.5328  0.0224  0.0633
  136MOL0     C18646   9.908  10.848  11.193  0.7116  0.8874  0.5616
  136MOL0     N18647   9.857  10.831  11.334  0.0042 -0.7378  0.4053
  136MOL0     C18648   9.724  10.827  11.372  0.4689  0.2512  0.4179
  136MOL0     C18649   9.731  10.797  11.501  0.3230  0.3998 -0.7651
  136MOL0     C18650   9.607  10.784  11.587 -0.8666  0.5480  0.2903
  136MOL0     C18651   9.631  10.863  11.715 -0.5262  0.3511 -0.0455
  136MOL0     C18652   9.602  11.011  11.688 -0.3220 -0.8515 -0.2856
  136MOL0     C18653   9.647  11.111  11.793 -0.2626 -0.1166  0.0714
  136MOL0     O18654   9.784  11.105  11.830 -0.3677  0.0321 -0.4613
  136MOL0     C18655   9.884  11.119  11.736  0.0986  0.2817 -0.0548
  136MOL0     C18656   9.863  11.193  11.618 -1.6839  0.4334  0.0388
  136MOL0     C18657   9.957  11.197  11.515  0.6853  0.1223 -0.7418
  136MOL0     C18658   9.916  11.288  11.397  0.0204  1.0221  0.2148
  136MOL0     C18659  10.077  11.124  11.532 -0.5050 -0.2340  0.4996
  136MOL0     C18660  10.187  11.124  11.430  0.2916 -0.1647  0.9197
  136MOL0     O18661  10.156  11.124  11.295  0.5121 -0.3007  0.1571
  136MOL0     C18662  10.252  11.102  11.206 -0.3357  0.6241 -1.1151
  136MOL0     C18663  10.307  11.205  11.141 -0.5649 -1.6758  0.1366
  136MOL0     C18664  10.417  11.191  11.055 -0.3847  0.0417  0.2494
  136MOL0     C18665  10.481  11.069  11.047  0.0122  0.3750 -0.4488
  136MOL0     O18666  10.599  11.055  10.968  0.7026  0.1875 -0.8448
  136MOL0     C18667  10.648  10.922  10.931  0.2324 -0.5167  0.1657
  136MOL0     C18668  10.755  10.933  10.819  0.6676  0.2226  0.1186
  136MOL0     C18669  10.886  10.985  10.884  0.2854 -0.0518 -0.1133
  136MOL0     C18670  11.002  10.922  10.814 -0.3559 -0.2284 -0.2828
  136MOL0     C18671  11.126  10.963  10.897  0.3289 -0.1392  0.0192
  136MOL0     C18672  11.253  10.897  10.836 -0.0048 -0.3706 -0.6432
  136MOL0     C18673  11.374  10.948  10.891 -0.9119  0.1159 -0.0288
  136MOL0     C18674  11.506  10.860  10.851  0.3318  0.1988  0.1813
  136MOL0    Cl18675  11.653  10.950  10.909 -0.3338  0.3925 -0.7180
  136MOL0     C18676  10.429  10.964  11.116  0.3300  0.4000 -0.1135
  136MOL0     C18677  10.307  10.972  11.190  0.4367  0.7323 -0.5279
  136MOL0     O18678  10.301  11.128  11.473 -0.6347 -0.1988  0.2038
  136MOL0     C18679  10.103  11.057  11.653  0.0313  0.8420  0.0314
  136MOL0     C18680  10.000  11.045  11.752 -0.1957  0.2557 -0.3287
  136MOL0     N18681   9.865  10.772  11.539  0.0081 -0.6047 -0.4014
  136MOL0     N18682   9.935  10.791  11.437 -0.1625  0.3159  0.1805
  136MOL0     C18683   9.198  11.077  10.865 -0.5734  0.2864 -0.5333
  136MOL0     C18684   9.096  11.170  10.838  0.4817  0.0663  0.4912
  136MOL0     C18685   8.778  11.398  10.606 -0.4226 -0.3323  0.5706
  136MOL0     C18686   8.653  11.345  10.640 -0.0159  0.3578 -0.4392
  136MOL0     C18687   8.539  11.412  10.616  0.5718  0.3875  1.2575
  136MOL0     C18688   8.536  11.528  10.547 -0.5264 -0.0825  0.1495
  136MOL0     O18689   8.416  11.590  10.528 -0.0265  0.7957 -0.0106
  136MOL0     C18690   8.341  11.517  10.428  0.9142  0.3282 -0.7909
  136MOL0     C18691   8.379  11.548  10.274 -0.1304 -0.9980 -0.3123
  136MOL0     C18692   8.363  11.693  10.237 -0.3898  0.5887 -0.1750
  136MOL0     C18693   8.416  11.746  10.108  0.4959 -0.4190  0.1753
  136MOL0     C18694   8.557  11.717  10.096  0.8739 -0.0693  0.0099
  136MOL0     C18695   8.678  11.700  10.086  0.0423 -1.2103 -0.1417
  136MOL0     C18696   8.650  11.587  10.507  0.5949  0.7751 -0.1580
  136MOL0     C18697   8.779  11.528  10.540 -0.0472  0.3392 -0.2926
  136MOL0     C18698   8.904  11.592  10.491  0.5902 -0.1884 -0.4144
  136MOL0     H18699   8.905  10.966  10.634 -0.9276 -0.5762  1.4967
  136MOL0     H18700   9.086  10.829  10.648  0.3418  1.4316 -4.2147
  136MOL0     H18701   9.364  10.676  10.824 -2.5996 -2.9796 -0.4671
  136MOL0     H18702   9.192  10.698  10.806 -2.9968  5.2197 -0.1284
  136MOL0     H18703   9.189  10.792  11.046  0.2374  0.2074 -1.1747
  136MOL0     H18704   9.215  10.622  11.027  1.2143 -0.0600 -0.1689
  136MOL0     H18705   9.441  10.810  11.094  2.3626 -1.2744 -0.5398
  136MOL0     H18706   9.378  10.682  11.196 -1.9616 -5.5810 -1.1298
  136MOL0     H18707   9.437  10.506  11.063  2.0607 -1.4295 -0.5191
  136MOL0     H18708   9.509  10.602  10.942 -1.2411  1.6953 -0.3808
  136MOL0     H18709   9.673  10.517  11.084 -0.6654  1.3421 -2.4086
  136MOL0     H18710   9.627  10.608  11.220 -1.9696  2.0693  0.1183
  136MOL0     H18711   9.738  10.721  10.950  0.8321 -0.9215  0.4225
  136MOL0     H18712   9.675  10.829  11.071 -0.3583  0.3150 -2.5995
  136MOL0     H18713   9.938  10.708  11.027  0.1885  2.9371 -0.1116
  136MOL0     H18714   9.874  10.649  11.185 -2.7932 -0.1271  0.1539
  136MOL0     H18715  10.018  10.852  11.194  0.7187  0.5945  0.9189
  136MOL0     H18716   9.865  10.935  11.142 -0.7218 -0.4046 -0.5142
  136MOL0     H18717   9.631  10.842  11.317 -0.6519 -1.6195  1.7173
  136MOL0     H18718   9.583  10.681  11.615  2.3140 -0.1745  0.6424
  136MOL0     H18719   9.529  10.831  11.526 -0.8209 -1.8270 -1.7764
  136MOL0     H18720   9.569  10.814  11.790  0.2705 -2.0547 -0.8740
  136MOL0     H18721   9.732  10.846  11.753 -0.5301 -0.5404 -0.4223
  136MOL0     H18722   9.650  11.046  11.597 -0.0812 -2.9075 -0.9937
  136MOL0     H18723   9.493  11.027  11.681 -0.2601  0.9086  1.6914
  136MOL0     H18724   9.634  11.208  11.743  4.9518  2.0566  2.1792
  136MOL0     H18725   9.586  11.099  11.883  1.6380  0.9823  1.5786
  136MOL0     H18726   9.777  11.256  11.602 -0.9183  1.1780 -1.3638
  136MOL0     H18727   9.862  11.227  11.323 -1.2675  1.7744  0.4997
  136MOL0     H18728  10.008  11.335  11.360 -0.5339  0.5960 -1.8698
  136MOL0     H18729   9.853  11.374  11.423  0.2499  0.4868  2.7650
  136MOL0     H18730  10.259  11.302  11.148 -0.3416 -1.2041 -3.1850
  136MOL0     H18731  10.464  11.277  11.006  2.8220 -1.4446  0.4329
  136MOL0     H18732  10.698  10.865  11.010 -0.1898  0.0819  0.8663
  136MOL0     H18733  10.568  10.861  10.888  0.0193 -0.0179 -0.1447
  136MOL0     H18734  10.779  10.835  10.776 -1.4396 -0.9429  1.4329
  136MOL0     H18735  10.706  10.997  10.745  0.1046 -3.0139 -2.5792
  136MOL0     H18736  10.893  10.963  10.991  3.5256  2.0792  0.2503
  136MOL0     H18737  10.888  11.094  10.876  1.2135  0.0044  0.7090
  136MOL0     H18738  11.010  10.958  10.711  0.5675  0.5635  0.0510
  136MOL0     H18739  10.994  10.814  10.800  2.7045 -0.5146 -0.5619
  136MOL0     H18740  11.133  11.073  10.900  0.4924 -0.1607  2.4211
  136MOL0     H18741  11.110  10.929  11.000 -4.7241  0.8314 -0.1749
  136MOL0     H18742  11.249  10.923  10.730  2.1485  2.5514 -0.1217
  136MOL0     H18743  11.248  10.788  10.850  2.2244 -0.5518 -0.9302
  136MOL0     H18744  11.369  10.949  11.001 -0.2761 -2.8549  0.1310
  136MOL0     H18745  11.402  11.052  10.872 -0.5359  0.1928  0.9018
  136MOL0     H18746  11.503  10.832  10.746 -1.2280  0.7917  0.0424
  136MOL0     H18747  11.493  10.770  10.913 -1.1321  0.9847  1.0779
  136MOL0     H18748  10.472  10.866  11.133  2.2936  0.9645 -1.4783
  136MOL0     H18749  10.260  10.891  11.244  0.9515  0.3848 -0.5938
  136MOL0     H18750  10.184  10.992  11.686 -3.2215 -2.8406  1.5125
  136MOL0     H18751  10.019  10.990  11.843  1.8181  1.9481  0.3347
  136MOL0     H18752   9.287  11.100  10.922 -1.8391  0.0950  1.6435
  136MOL0     H18753   9.093  11.262  10.896 -1.1401 -2.2231  4.4651
  136MOL0     H18754   8.647  11.251  10.695 -2.9244  0.7119 -0.0311
  136MOL0     H18755   8.451  11.359  10.651  0.9871 -2.6874 -1.8142
  136MOL0     H18756   8.358  11.410  10.443 -1.7196  0.2949  3.5926
  136MOL0     H18757   8.233  11.531  10.437  0.7884  0.8774 -2.6299
  136MOL0     H18758   8.318  11.489  10.205 -1.4056  0.4388 -0.4606
  136MOL0     H18759   8.485  11.523  10.261 -0.1554 -0.4968 -1.6922
  136MOL0     H18760   8.254  11.707  10.235 -0.6783 -1.3864 -0.8123
  136MOL0     H18761   8.405  11.754  10.318 -1.3704  0.9466  0.0771
  136MOL0     H18762   8.400  11.854  10.100  3.0552  0.0106 -0.0084
  136MOL0     H18763   8.351  11.694  10.037 -0.0522  2.7337 -1.8415
  136MOL0     H18764   8.785  11.698  10.095  0.1708  1.7250  0.0976
  136MOL0     H18765   8.640  11.677  10.446 -0.0302 -0.8055 -2.5236
  136MOL0     H18766   8.966  11.608  10.581  0.2989  2.4648 -0.5998
  136MOL0     H18767   8.956  11.546  10.407  0.7510 -0.3841 -0.2108
  136MOL0     H18768   8.879  11.689  10.447  0.6860  0.0744  0.1028
  137MOL0     O18769   3.532   2.037   8.170  0.4603  0.0195 -0.3870
  137MOL0     C18770   3.460   1.957   8.119  0.2895  0.4977 -0.1198
  137MOL0     O18771   3.493   1.825   8.080  0.0378 -0.6478 -0.0313
  137MOL0     C18772   3.621   1.791   8.109 -0.9396 -0.8417 -0.4053
  137MOL0     C18773   3.718   1.805   8.016  0.4456 -0.0974  1.1786
  137MOL0     C18774   3.854   1.802   8.047 -0.6877 -0.9597 -0.1836
  137MOL0     C18775   3.892   1.775   8.177  0.2156 -0.0403 -0.5966
  137MOL0     O18776   4.027   1.768   8.200  1.0568  0.6098  0.5522
  137MOL0     C18777   4.069   1.705   8.319 -0.5688 -0.8668  0.4789
  137MOL0     C18778   4.211   1.656   8.306 -0.4039  0.7379  0.0098
  137MOL0     C18779   4.306   1.766   8.291  0.1433  0.0389 -0.3079
  137MOL0     C18780   4.446   1.724   8.349 -0.1336  0.7466 -0.0864
  137MOL0     C18781   4.543   1.630   8.272 -0.9950  0.7609  0.3164
  137MOL0     C18782   4.545   1.660   8.126 -0.3404 -0.3177  0.6926
  137MOL0     C18783   4.653   1.573   8.051 -0.1019 -0.6049  0.9037
  137MOL0     C18784   4.680   1.629   7.908 -0.2879 -0.6617  0.1178
  137MOL0     N18785   4.814   1.590   7.853  0.2232 -0.1183 -0.2562
  137MOL0     C18786   4.856   1.463   7.833 -1.1029 -0.0932 -0.0315
  137MOL0     C18787   4.985   1.473   7.788  0.1280  0.3360 -1.0340
  137MOL0     C18788   5.075   1.352   7.760 -0.1972 -0.4133 -0.0373
  137MOL0     C18789   5.226   1.364   7.796  1.1941  0.0259  0.1104
  137MOL0     C18790   5.254   1.336   7.943  0.3959 -1.6271  0.1345
  137MOL0     C18791   5.253   1.190   8.001 -0.0878 -0.3478  0.2673
  137MOL0     O18792   5.128   1.167   8.071  0.2169  0.0588  0.2332
  137MOL0     C18793   5.125   1.098   8.185 -0.8085 -0.6584  0.2105
  137MOL0     C18794   4.997   1.067   8.239 -0.8195  0.0242  0.3051
  137MOL0     C18795   4.979   0.993   8.359 -0.3168  1.0763 -0.3219
  137MOL0     C18796   4.840   0.958   8.395  0.3297 -0.4285  0.0352
  137MOL0     C18797   5.090   0.943   8.432  0.0669  0.7894 -0.4124
  137MOL0     C18798   5.084   0.861   8.558  0.6819  0.7970 -0.7116
  137MOL0     O18799   5.203   0.838   8.627  0.3548 -0.2631  0.6507
  137MOL0     C18800   5.195   0.736   8.718  0.2452 -0.2005  0.9185
  137MOL0     C18801   5.206   0.604   8.674 -0.0149  0.3482 -0.2994
  137MOL0     C18802   5.193   0.500   8.760 -0.0091 -0.6956  0.0292
  137MOL0     C18803   5.162   0.526   8.896 -0.2579 -0.3340  0.3504
  137MOL0     O18804   5.162   0.408   8.968  0.7452  0.3337 -0.1765
  137MOL0     C18805   5.107   0.404   9.101 -0.0519  0.3794 -0.3854
  137MOL0     C18806   5.230   0.357   9.198 -0.0364  1.3289  0.4688
  137MOL0     C18807   5.246   0.428   9.340 -0.5991  0.6026 -0.9313
  137MOL0     C18808   5.363   0.365   9.422  0.3773  0.0177  0.0894
  137MOL0     C18809   5.364   0.412   9.574  0.4576 -0.0547  0.1267
  137MOL0     C18810   5.303   0.312   9.671  0.4757 -0.1896 -0.2701
  137MOL0     C18811   5.336   0.359   9.815  0.6004  0.0456  0.7454
  137MOL0     C18812   5.271   0.262   9.904 -0.0425  1.0424  0.1887
  137MOL0    Cl18813   5.385   0.123   9.911 -0.1831 -0.0447  0.0045
  137MOL0     C18814   5.154   0.662   8.944 -0.6989  0.1614 -0.3736
  137MOL0     C18815   5.170   0.764   8.851 -0.2481  0.6165 -0.0958
  137MOL0     O18816   4.976   0.803   8.589  0.3080  0.3639 -0.6172
  137MOL0     C18817   5.217   0.970   8.377  0.8480 -0.1559  0.1783
  137MOL0     C18818   5.240   1.049   8.258  0.2481  0.3990  0.4720
  137MOL0     N18819   5.017   1.611   7.803 -0.0477 -0.5943  0.8905
  137MOL0     N18820   4.916   1.674   7.850 -0.5293 -0.0915  0.9964
  137MOL0     C18821   3.793   1.755   8.276 -0.1604  0.7674 -0.5250
  137MOL0     C18822   3.662   1.766   8.234  0.4385 -0.0237 -0.4583
  137MOL0     C18823   3.314   1.970   8.127 -0.4426 -0.2033 -0.1266
  137MOL0     C18824   3.235   1.849   8.153 -0.3796 -0.3791 -0.5029
  137MOL0     C18825   3.095   1.856   8.170 -0.8360  0.3240  0.1614
  137MOL0     C18826   3.031   1.973   8.148  0.0161 -0.3228 -0.5977
  137MOL0     O18827   2.896   1.980   8.142  0.2205  0.6336  0.0152
  137MOL0     C18828   2.835   1.981   8.008 -0.2760 -0.1503 -0.2523
  137MOL0     C18829   2.705   1.924   7.996 -0.0061 -0.1315  0.7026
  137MOL0     C18830   2.585   2.010   8.046  0.0796 -0.8711 -0.6562
  137MOL0     C18831   2.484   2.027   7.940 -0.5247  0.8130 -0.3797
  137MOL0     C18832   2.522   2.125   7.842 -0.3536 -1.4149 -0.5143
  137MOL0     C18833   2.548   2.222   7.774 -0.4195  0.3975 -0.2594
  137MOL0     C18834   3.107   2.089   8.120  0.2779 -0.4944 -1.2854
  137MOL0     C18835   3.242   2.091   8.123 -0.3782  0.1534 -0.1209
  137MOL0     C18836   3.308   2.222   8.106  0.4106  0.4561 -0.5805
  137MOL0     H18837   3.689   1.846   7.920  2.9177  0.4487  0.5833
  137MOL0     H18838   3.938   1.815   7.980  1.4346  0.6211  2.5483
  137MOL0     H18839   4.015   1.610   8.333 -0.0801 -0.9191  2.2659
  137MOL0     H18840   4.050   1.767   8.407 -0.4831  2.3405 -1.5935
  137MOL0     H18841   4.238   1.601   8.397  2.8433  0.6143 -0.9060
  137MOL0     H18842   4.229   1.589   8.222  1.0562  1.4386 -0.2638
  137MOL0     H18843   4.315   1.786   8.184  1.4783  1.9679  0.0970
  137MOL0     H18844   4.272   1.858   8.340 -1.0968 -1.2510  1.3616
  137MOL0     H18845   4.492   1.823   8.364  1.1700  0.3931 -1.4467
  137MOL0     H18846   4.430   1.676   8.446 -0.7060  1.3525  0.1251
  137MOL0     H18847   4.508   1.529   8.294  1.1457 -0.1823 -0.4253
  137MOL0     H18848   4.640   1.654   8.315 -0.6933  1.5011 -0.7354
  137MOL0     H18849   4.443   1.647   8.087  0.2022 -0.0532 -0.8707
  137MOL0     H18850   4.573   1.765   8.118 -2.5736  0.6610  3.5609
  137MOL0     H18851   4.621   1.468   8.052 -1.6525 -0.1628  1.8026
  137MOL0     H18852   4.741   1.574   8.115 -1.2250  2.2375  2.6022
  137MOL0     H18853   4.607   1.582   7.841 -0.4562 -0.2810  0.0329
  137MOL0     H18854   4.675   1.738   7.906 -2.2179 -0.6915  0.8361
  137MOL0     H18855   4.809   1.367   7.853 -0.3009 -0.0643  2.1737
  137MOL0     H18856   5.066   1.331   7.653 -0.5753 -0.4403 -0.0026
  137MOL0     H18857   5.040   1.262   7.811  2.1388 -0.2576  2.0329
  137MOL0     H18858   5.296   1.297   7.745  1.5139 -0.5025  1.1974
  137MOL0     H18859   5.265   1.465   7.779 -0.0007  1.0435  2.8872
  137MOL0     H18860   5.352   1.375   7.974 -1.2236  1.8694  1.4813
  137MOL0     H18861   5.178   1.394   7.997  1.4601  0.6404 -0.6503
  137MOL0     H18862   5.269   1.112   7.926  0.0681  0.3638 -0.4408
  137MOL0     H18863   5.341   1.189   8.067  1.3391  1.2019 -1.4982
  137MOL0     H18864   4.907   1.104   8.191 -1.4310 -1.5239  0.1886
  137MOL0     H18865   4.782   0.978   8.304  1.6737 -3.8876 -1.7393
  137MOL0     H18866   4.804   1.016   8.481  1.8684  0.7343 -0.0546
  137MOL0     H18867   4.834   0.851   8.412 -0.9016 -0.6235 -1.3553
  137MOL0     H18868   5.218   0.578   8.569 -0.7678 -2.0866  0.1686
  137MOL0     H18869   5.210   0.396   8.731 -0.5668 -0.7910  0.0387
  137MOL0     H18870   5.066   0.501   9.132 -1.0263  0.0223 -0.5379
  137MOL0     H18871   5.020   0.339   9.102 -1.4401  2.1514 -0.2477
  137MOL0     H18872   5.219   0.248   9.206 -1.7622  1.2389 -2.1361
  137MOL0     H18873   5.325   0.381   9.150  0.1394 -1.9547 -1.0848
  137MOL0     H18874   5.161   0.422   9.408  1.6896 -2.1820  1.9950
  137MOL0     H18875   5.259   0.537   9.332  1.8143  0.4045 -0.6133
  137MOL0     H18876   5.460   0.386   9.376 -0.7820  2.0875 -1.5583
  137MOL0     H18877   5.341   0.258   9.431 -1.9425  0.4567  0.3329
  137MOL0     H18878   5.465   0.429   9.610  0.0121 -0.6313  1.7467
  137MOL0     H18879   5.310   0.507   9.581  1.0533  0.3574 -0.6821
  137MOL0     H18880   5.343   0.212   9.651  0.6782 -0.3666  0.9301
  137MOL0     H18881   5.195   0.309   9.656  0.4642 -0.0920 -0.2062
  137MOL0     H18882   5.278   0.451   9.826 -0.5894 -0.0890 -2.9153
  137MOL0     H18883   5.444   0.367   9.831  0.4857  2.3604  0.6973
  137MOL0     H18884   5.173   0.241   9.860  0.8682 -1.5492 -0.7961
  137MOL0     H18885   5.259   0.306  10.003  1.5680 -1.8196  1.8240
  137MOL0     H18886   5.122   0.688   9.045 -2.2506 -0.3554 -0.7064
  137MOL0     H18887   5.171   0.870   8.878  5.1061  0.7450  0.1543
  137MOL0     H18888   5.310   0.952   8.431  1.5423 -0.0921 -0.9518
  137MOL0     H18889   5.345   1.068   8.239  0.3335 -2.0808 -2.1195
  137MOL0     H18890   3.818   1.733   8.380 -5.7006 -0.6394  0.8306
  137MOL0     H18891   3.583   1.770   8.309  0.5110  2.8170 -0.4273
  137MOL0     H18892   3.281   1.755   8.181 -3.0683 -1.6377 -0.0117
  137MOL0     H18893   3.049   1.760   8.196  0.8641 -0.4633  0.3962
  137MOL0     H18894   2.833   2.086   7.979 -1.5087  0.0335  0.4156
  137MOL0     H18895   2.911   1.935   7.944  1.1671  2.9176 -0.9079
  137MOL0     H18896   2.706   1.833   8.057  0.7810 -0.3035  0.4372
  137MOL0     H18897   2.695   1.902   7.890 -0.2798 -0.7199  0.8493
  137MOL0     H18898   2.538   1.956   8.128  2.5356 -1.3797  0.5167
  137MOL0     H18899   2.622   2.103   8.089 -2.0213 -1.1659  2.0410
  137MOL0     H18900   2.400   2.077   7.988  0.8084 -1.5986  5.2147
  137MOL0     H18901   2.460   1.930   7.896  0.1639  1.6066 -2.6683
  137MOL0     H18902   2.582   2.294   7.702  1.8883 -2.6130 -2.4270
  137MOL0     H18903   3.056   2.181   8.095  0.7057  0.0092 -0.3510
  137MOL0     H18904   3.355   2.265   8.195  0.6799  1.9442 -1.4150
  137MOL0     H18905   3.391   2.222   8.035  1.6097  0.7976  0.7737
  137MOL0     H18906   3.233   2.295   8.073  0.1158  0.3520 -0.1615
  138MOL0     O18907  11.035   8.976   4.132  0.2459  0.3049  0.3966
  138MOL0     C18908  11.089   8.885   4.071 -0.2022  0.2993  0.6725
  138MOL0     O18909  11.030   8.800   3.980 -0.4116  0.5817 -0.3651
  138MOL0     C18910  10.890   8.791   3.980 -0.5403 -0.8487 -0.4977
  138MOL0     C18911  10.809   8.903   3.946 -0.6167  0.1032 -0.2978
  138MOL0     C18912  10.678   8.876   3.929  0.2154 -0.2846 -0.8136
  138MOL0     C18913  10.614   8.755   3.964 -0.3015  0.1047  0.1022
  138MOL0     O18914  10.481   8.746   3.953  0.0086 -0.4632  0.5889
  138MOL0     C18915  10.404   8.690   4.061  0.2125  0.4214 -0.1470
  138MOL0     C18916  10.271   8.751   4.052  0.6925 -0.3781 -0.2493
  138MOL0     C18917  10.171   8.680   4.150 -0.2214  0.1078  0.3241
  138MOL0     C18918  10.033   8.724   4.123  0.9582  0.2280  0.6913
  138MOL0     C18919   9.928   8.629   4.190 -0.8090 -0.3081 -0.1581
  138MOL0     C18920   9.787   8.692   4.200 -0.0807 -0.4313 -0.4390
  138MOL0     C18921   9.778   8.809   4.292  0.0365 -0.3574 -0.2273
  138MOL0     C18922   9.630   8.819   4.326 -0.3351  0.8757 -0.0132
  138MOL0     N18923   9.609   8.753   4.459 -0.7346  0.4271 -0.6514
  138MOL0     C18924   9.605   8.822   4.582  0.3350  1.1543  0.5213
  138MOL0     C18925   9.609   8.718   4.671 -0.1353  0.4146 -0.4099
  138MOL0     C18926   9.629   8.731   4.825 -0.3200 -0.8028 -0.3242
  138MOL0     C18927   9.733   8.636   4.877  0.5952  0.1568  0.4257
  138MOL0     C18928   9.721   8.628   5.029  0.4364 -0.1109  0.7075
  138MOL0     C18929   9.817   8.526   5.080 -0.4419 -0.9155 -0.3343
  138MOL0     O18930   9.948   8.592   5.076  0.2089 -0.4245  0.2555
  138MOL0     C18931  10.050   8.511   5.130  0.4350 -0.0032 -0.1239
  138MOL0     C18932  10.039   8.369   5.144 -0.1542 -0.2892  0.5319
  138MOL0     C18933  10.150   8.285   5.174 -0.0115  0.6636 -0.0355
  138MOL0     C18934  10.127   8.131   5.160 -0.1139  0.5472  0.3842
  138MOL0     C18935  10.266   8.350   5.208 -1.2695  0.2485  0.2491
  138MOL0     C18936  10.392   8.279   5.246 -0.4078 -0.7080 -0.0500
  138MOL0     O18937  10.423   8.144   5.223  0.4177 -0.1325  0.7585
  138MOL0     C18938  10.548   8.096   5.255 -0.0489 -0.3718  0.0026
  138MOL0     C18939  10.670   8.162   5.236 -0.0649 -0.4995 -0.0611
  138MOL0     C18940  10.798   8.109   5.268 -0.5202 -0.9342  0.1964
  138MOL0     C18941  10.812   7.979   5.320  0.1645 -0.0816  0.3401
  138MOL0     O18942  10.929   7.908   5.344  0.1179  0.4477 -0.4197
  138MOL0     C18943  11.060   7.974   5.349 -0.1873  0.7550 -0.4405
  138MOL0     C18944  11.171   7.880   5.303 -0.1868 -0.3807  0.7078
  138MOL0     C18945  11.242   7.818   5.430 -0.4708  0.1268  0.1806
  138MOL0     C18946  11.174   7.691   5.490  0.2064 -0.7778  0.1998
  138MOL0     C18947  11.237   7.639   5.618 -0.7359  0.3055 -0.2098
  138MOL0     C18948  11.191   7.494   5.647  0.1757  0.2764  0.3434
  138MOL0     C18949  11.257   7.447   5.774 -0.9426 -0.1658 -0.2788
  138MOL0     C18950  11.204   7.314   5.818 -0.5527  0.5560 -0.4508
  138MOL0    Cl18951  11.317   7.239   5.931  0.2539 -0.0200 -0.6758
  138MOL0     C18952  10.691   7.912   5.345  0.1874 -0.3208  0.6295
  138MOL0     C18953  10.563   7.972   5.313 -0.6868  0.3365 -0.5161
  138MOL0     O18954  10.461   8.357   5.309  0.2320  0.0282  0.1840
  138MOL0     C18955  10.269   8.491   5.199  0.3579  0.1373 -0.0784
  138MOL0     C18956  10.170   8.576   5.165  0.0591  0.5835 -0.8779
  138MOL0     N18957   9.615   8.597   4.614 -0.3623 -0.7140 -0.3941
  138MOL0     N18958   9.639   8.620   4.480  0.1401 -0.1783  0.1317
  138MOL0     C18959  10.702   8.642   3.993 -0.8001 -0.7996 -0.5303
  138MOL0     C18960  10.841   8.664   4.006 -0.6607 -0.2123  0.0978
  138MOL0     C18961  11.236   8.886   4.081 -0.3207 -0.1746  0.5979
  138MOL0     C18962  11.299   8.989   4.162  0.4067 -0.0036  0.7004
  138MOL0     C18963  11.428   8.984   4.185  0.4968  0.6249 -0.3215
  138MOL0     C18964  11.508   8.878   4.127 -0.1573 -1.1390 -0.8003
  138MOL0     O18965  11.643   8.853   4.167 -0.0695 -0.0746  0.1337
  138MOL0     C18966  11.732   8.960   4.200 -0.2640  0.5833  0.5288
  138MOL0     C18967  11.742   9.076   4.091  1.3831  0.0442 -0.4175
  138MOL0     C18968  11.838   9.188   4.129  0.4551  0.4505 -0.0882
  138MOL0     C18969  11.988   9.158   4.118 -0.5195  1.1151  0.8005
  138MOL0     C18970  12.068   9.275   4.155  0.5532 -0.7740 -0.4218
  138MOL0     C18971  12.126   9.379   4.192 -0.4788 -0.1937 -0.7379
  138MOL0     C18972  11.456   8.795   4.031  0.0816  0.4884 -0.0979
  138MOL0     C18973  11.316   8.793   4.006  0.3193  0.6893 -0.7695
  138MOL0     C18974  11.259   8.702   3.890 -0.2566  0.0958 -0.1692
  138MOL0     H18975  10.857   8.999   3.928  1.2461  0.0035  3.2839
  138MOL0     H18976  10.617   8.962   3.905  0.4927 -0.0704 -0.7539
  138MOL0     H18977  10.457   8.707   4.155  2.7925  1.3326 -1.6717
  138MOL0     H18978  10.399   8.586   4.026  1.2783  0.2074  0.3255
  138MOL0     H18979  10.276   8.859   4.072 -2.1879 -0.0492 -0.7856
  138MOL0     H18980  10.232   8.755   3.950 -0.9047 -0.3027  0.3380
  138MOL0     H18981  10.192   8.573   4.137  2.7099  0.7699 -1.3645
  138MOL0     H18982  10.193   8.698   4.256  3.3392  0.3149 -0.3198
  138MOL0     H18983  10.021   8.826   4.159  0.4616 -0.2888  2.0573
  138MOL0     H18984  10.012   8.728   4.015  0.0087  3.2595  0.9217
  138MOL0     H18985   9.952   8.591   4.290 -1.7675 -1.3369 -0.3002
  138MOL0     H18986   9.917   8.539   4.130  2.9237 -0.5428 -0.7038
  138MOL0     H18987   9.744   8.707   4.101  0.1996 -2.2375 -0.8770
  138MOL0     H18988   9.726   8.608   4.236  0.7733 -0.2393  1.5903
  138MOL0     H18989   9.815   8.900   4.244  2.4077  0.2298  2.4486
  138MOL0     H18990   9.842   8.795   4.379 -0.9780  1.2851  0.8340
  138MOL0     H18991   9.592   8.922   4.328 -1.0094  0.7228 -2.3101
  138MOL0     H18992   9.564   8.770   4.254 -0.2956 -2.8296  2.2113
  138MOL0     H18993   9.627   8.925   4.608  1.6764  0.2111  3.5234
  138MOL0     H18994   9.534   8.706   4.873  0.0075  0.9211  1.3252
  138MOL0     H18995   9.666   8.830   4.851 -0.7492 -0.7146 -0.0464
  138MOL0     H18996   9.697   8.540   4.839 -0.1073  1.3368 -2.0562
  138MOL0     H18997   9.829   8.671   4.837  0.9604 -0.1444  1.0166
  138MOL0     H18998   9.742   8.724   5.077  0.8909  0.9649 -1.4764
  138MOL0     H18999   9.617   8.606   5.053  0.9721 -1.4163  1.9332
  138MOL0     H19000   9.794   8.486   5.179  1.8319  0.2436  0.7249
  138MOL0     H19001   9.814   8.444   5.008  1.4797  1.1850 -3.0381
  138MOL0     H19002   9.947   8.317   5.122  0.0981 -1.1320  1.3858
  138MOL0     H19003  10.170   8.067   5.238  1.8169 -3.6183 -3.6634
  138MOL0     H19004  10.184   8.102   5.072  0.1839 -0.2302  0.8181
  138MOL0     H19005  10.020   8.108   5.157 -0.4176  1.7223  1.4006
  138MOL0     H19006  10.664   8.260   5.190 -1.1120  0.5776  2.2355
  138MOL0     H19007  10.889   8.161   5.242 -0.7071  0.1221  1.5786
  138MOL0     H19008  11.076   8.059   5.281  2.9911  0.7270  0.0807
  138MOL0     H19009  11.057   8.019   5.448 -0.4280  1.9097 -0.9539
  138MOL0     H19010  11.138   7.809   5.227  2.7458 -1.6513  0.5113
  138MOL0     H19011  11.247   7.940   5.252 -0.6716  0.6094  1.1083
  138MOL0     H19012  11.251   7.901   5.500  2.7943  0.5010 -0.4934
  138MOL0     H19013  11.343   7.783   5.405 -0.8832 -1.5914  0.7895
  138MOL0     H19014  11.180   7.611   5.416 -0.7923 -1.1349  0.4857
  138MOL0     H19015  11.070   7.713   5.514  0.6581 -2.8480  5.1352
  138MOL0     H19016  11.346   7.638   5.615 -0.6340  1.4943  1.6946
  138MOL0     H19017  11.199   7.707   5.695 -0.9046  1.3524 -1.2017
  138MOL0     H19018  11.224   7.427   5.567 -1.1181 -0.8271  0.6903
  138MOL0     H19019  11.082   7.488   5.646  0.2524 -1.9061  0.7054
  138MOL0     H19020  11.254   7.518   5.858  2.1272 -0.5038  0.2117
  138MOL0     H19021  11.364   7.441   5.752 -0.9580  3.1460 -1.7555
  138MOL0     H19022  11.194   7.252   5.729 -0.6097 -0.3162  0.1486
  138MOL0     H19023  11.110   7.317   5.874 -0.0679  3.0214  0.3395
  138MOL0     H19024  10.692   7.810   5.379 -0.4960 -1.1029 -1.5039
  138MOL0     H19025  10.478   7.906   5.327 -1.8753  1.5478 -1.7420
  138MOL0     H19026  10.361   8.544   5.220 -0.8576  1.4777  2.3802
  138MOL0     H19027  10.180   8.685   5.166  1.5952  0.4749 -1.5518
  138MOL0     H19028  10.656   8.546   4.013 -2.3142 -0.2826 -1.3918
  138MOL0     H19029  10.912   8.589   4.040 -0.1420 -0.3708 -1.2819
  138MOL0     H19030  11.241   9.067   4.210 -2.2954 -2.4406  1.7223
  138MOL0     H19031  11.479   9.049   4.256  4.6392 -1.2455 -1.2661
  138MOL0     H19032  11.687   9.010   4.286 -1.6422 -0.9793  0.7541
  138MOL0     H19033  11.834   8.923   4.218  0.4007  1.5713 -0.9350
  138MOL0     H19034  11.646   9.126   4.079  2.2138  1.6748 -0.5701
  138MOL0     H19035  11.767   9.026   3.997 -2.7490 -1.1592 -1.0943
  138MOL0     H19036  11.815   9.271   4.062 -1.2951  0.8669  0.9334
  138MOL0     H19037  11.807   9.229   4.226  2.0386 -2.5059  1.8485
  138MOL0     H19038  12.024   9.139   4.016 -0.4925  1.1953  0.7951
  138MOL0     H19039  12.014   9.071   4.179 -1.1559 -0.6499 -1.2844
  138MOL0     H19040  12.179   9.470   4.206 -0.9880 -0.0584  0.3972
  138MOL0     H19041  11.525   8.732   3.976  0.6998 -0.7997  2.0534
  138MOL0     H19042  11.196   8.762   3.825  1.2404  1.6354 -0.2672
  138MOL0     H19043  11.351   8.666   3.841 -1.6095 -2.0947 -1.2454
  138MOL0     H19044  11.202   8.617   3.929  0.0320  0.9225  2.1576
  139MOL0     O19045   7.935  10.247   1.335  0.4700  0.2999 -0.1819
  139MOL0     C19046   7.890  10.356   1.316  0.3440  0.0186 -0.0342
  139MOL0     O19047   7.887  10.459   1.412  0.1594  0.8425 -0.2659
  139MOL0     C19048   7.929  10.438   1.536 -0.2342  0.1541 -0.4079
  139MOL0     C19049   7.866  10.351   1.627  0.2784 -1.2501 -0.3444
  139MOL0     C19050   7.917  10.327   1.757  0.1098  0.3182  0.2066
  139MOL0     C19051   8.037  10.392   1.789  0.8149 -0.5552  0.8421
  139MOL0     O19052   8.101  10.380   1.914  0.2671  0.0867 -0.7683
  139MOL0     C19053   8.019  10.401   2.029 -0.1748  0.1867  0.2778
  139MOL0     C19054   8.111  10.397   2.155 -0.1873 -0.3992  0.2495
  139MOL0     C19055   8.181  10.270   2.194  0.2830 -0.7739  0.0623
  139MOL0     C19056   8.225  10.259   2.346  0.8006 -0.6124 -0.4357
  139MOL0     C19057   8.365  10.201   2.377  0.2609  0.9755  0.0377
  139MOL0     C19058   8.369  10.155   2.527  0.2175  0.2445 -0.2600
  139MOL0     C19059   8.508  10.096   2.567  0.0994  0.1481  0.2759
  139MOL0     C19060   8.500  10.017   2.702 -0.3476 -0.1260  0.8169
  139MOL0     N19061   8.470   9.869   2.690  0.1759 -0.1396 -0.0306
  139MOL0     C19062   8.351   9.805   2.650 -0.4455  0.4574  0.1276
  139MOL0     C19063   8.378   9.674   2.677  0.2828 -0.0692  0.1759
  139MOL0     C19064   8.288   9.558   2.658  0.5636  0.0067  0.7147
  139MOL0     C19065   8.344   9.443   2.578 -0.1014  0.0650  0.4341
  139MOL0     C19066   8.436   9.361   2.671  0.3884  0.7593  0.3945
  139MOL0     C19067   8.480   9.228   2.605 -0.5354  0.2641  0.8516
  139MOL0     O19068   8.373   9.155   2.565 -0.4711  0.1678 -0.6425
  139MOL0     C19069   8.393   9.040   2.495  0.5416 -0.6956  0.8213
  139MOL0     C19070   8.507   8.964   2.490  0.4753  0.1258 -0.1797
  139MOL0     C19071   8.521   8.861   2.390  0.3589 -0.7802  0.0863
  139MOL0     C19072   8.637   8.767   2.412 -0.0841 -0.4182  0.6255
  139MOL0     C19073   8.408   8.840   2.302 -0.1540  0.5169  0.1415
  139MOL0     C19074   8.418   8.748   2.186 -0.3922 -0.8233  0.3647
  139MOL0     O19075   8.544   8.699   2.144 -0.0985  0.7243 -0.5684
  139MOL0     C19076   8.536   8.624   2.026  0.2464  0.4368  0.3702
  139MOL0     C19077   8.595   8.673   1.908  0.7390  0.1622 -0.3381
  139MOL0     C19078   8.584   8.608   1.788 -0.0686  0.7394 -0.3272
  139MOL0     C19079   8.518   8.479   1.777  0.2075 -0.7209  0.0886
  139MOL0     O19080   8.490   8.428   1.649  0.2639 -0.5946 -0.3767
  139MOL0     C19081   8.467   8.281   1.642  0.1597 -0.7689 -0.2731
  139MOL0     C19082   8.323   8.253   1.622 -0.5933  0.8156 -0.4881
  139MOL0     C19083   8.277   8.268   1.476  1.3895  0.0974 -0.6999
  139MOL0     C19084   8.131   8.231   1.453 -0.1603 -0.5035  0.1626
  139MOL0     C19085   8.092   8.181   1.314 -0.4567  0.5431 -0.5304
  139MOL0     C19086   8.103   8.297   1.205 -0.2505 -0.1686 -0.1686
  139MOL0     C19087   8.053   8.229   1.069 -0.3947 -1.2720 -0.3824
  139MOL0     C19088   8.071   8.324   0.948 -0.8561  0.3573  0.1741
  139MOL0    Cl19089   7.968   8.466   0.949  0.1833  0.3105 -0.0432
  139MOL0     C19090   8.478   8.424   1.897  0.6213 -0.0285 -0.3266
  139MOL0     C19091   8.485   8.491   2.024  0.3167  0.5629 -0.0817
  139MOL0     O19092   8.306   8.725   2.130 -0.0473  0.2307  0.1686
  139MOL0     C19093   8.292   8.919   2.320  0.3445 -0.1612  0.3974
  139MOL0     C19094   8.279   9.014   2.415  0.6570  0.0798  0.8540
  139MOL0     N19095   8.502   9.660   2.735  0.2131  0.5061  0.4740
  139MOL0     N19096   8.559   9.773   2.723 -1.1063 -0.4492 -0.6217
  139MOL0     C19097   8.098  10.473   1.704 -0.3465 -0.4975 -0.5039
  139MOL0     C19098   8.048  10.488   1.579  0.7311  0.1113  0.2637
  139MOL0     C19099   7.854  10.383   1.171 -0.6194 -1.0269 -0.4957
  139MOL0     C19100   7.811  10.277   1.092  0.3675 -0.6253  0.4438
  139MOL0     C19101   7.773  10.294   0.957 -0.0753  0.4886 -0.3057
  139MOL0     C19102   7.759  10.421   0.900  0.3745  0.0358  0.2977
  139MOL0     O19103   7.725  10.452   0.770 -0.0710 -0.1794  0.0179
  139MOL0     C19104   7.702  10.344   0.682  0.7543  0.5204 -0.6303
  139MOL0     C19105   7.557  10.284   0.710 -0.2850  0.6260  1.2671
  139MOL0     C19106   7.557  10.168   0.608  0.4422 -0.4364 -0.1298
  139MOL0     C19107   7.414  10.114   0.592 -0.8174  0.2017  0.2214
  139MOL0     C19108   7.417  10.058   0.452  0.0485 -0.4040 -0.1690
  139MOL0     C19109   7.432  10.007   0.343  0.0475  1.2496  0.0672
  139MOL0     C19110   7.798  10.527   0.974  0.4652  0.1536  0.1030
  139MOL0     C19111   7.841  10.516   1.112 -0.3985  0.7119  0.2012
  139MOL0     C19112   7.890  10.637   1.187  1.0338 -0.6627  0.0346
  139MOL0     H19113   7.774  10.309   1.588 -1.0150  1.7635 -0.7853
  139MOL0     H19114   7.858  10.264   1.823 -0.3745  0.9952  0.4300
  139MOL0     H19115   7.927  10.342   2.028 -0.6018  0.8372 -0.3862
  139MOL0     H19116   7.977  10.502   2.030 -1.2244 -0.2220 -0.6213
  139MOL0     H19117   8.188  10.475   2.163  0.3032 -1.0769  3.8332
  139MOL0     H19118   8.049  10.423   2.241  1.1066 -1.0673  1.4234
  139MOL0     H19119   8.110  10.189   2.176 -1.1841  0.6319 -0.6473
  139MOL0     H19120   8.257  10.245   2.119 -0.2850  1.0248 -1.1755
  139MOL0     H19121   8.225  10.360   2.390 -0.6201 -1.3648  1.4268
  139MOL0     H19122   8.155  10.198   2.404 -1.6700  0.7553 -1.8307
  139MOL0     H19123   8.440  10.280   2.369 -0.0589  1.2454 -0.3016
  139MOL0     H19124   8.392  10.115   2.315  0.6934  1.6037 -0.6514
  139MOL0     H19125   8.326  10.227   2.596 -0.7018  1.2146 -1.7860
  139MOL0     H19126   8.296  10.073   2.524  1.0555 -0.4830 -2.1570
  139MOL0     H19127   8.574  10.180   2.588  1.1078 -0.5866  0.0894
  139MOL0     H19128   8.549  10.029   2.491 -0.4734 -0.4992  0.5150
  139MOL0     H19129   8.598  10.012   2.750 -0.5818 -1.1780  1.2213
  139MOL0     H19130   8.426  10.061   2.770 -2.4711 -0.2054 -1.3149
  139MOL0     H19131   8.251   9.838   2.622 -0.2039  0.5481 -0.6600
  139MOL0     H19132   8.204   9.595   2.597  0.6778  0.1326  0.6328
  139MOL0     H19133   8.249   9.523   2.754  1.5498  0.0715  1.1478
  139MOL0     H19134   8.267   9.375   2.541  0.9102 -0.5962 -0.5200
  139MOL0     H19135   8.395   9.491   2.493 -0.3903  1.9121  1.2405
  139MOL0     H19136   8.527   9.417   2.693  2.0121 -0.1921 -3.1411
  139MOL0     H19137   8.373   9.339   2.757 -1.2743  0.9144 -0.7356
  139MOL0     H19138   8.545   9.243   2.518 -0.7872  1.5378  0.8640
  139MOL0     H19139   8.525   9.175   2.688  0.6114  1.4232  1.0083
  139MOL0     H19140   8.588   8.996   2.555 -0.2711 -1.5603  1.7046
  139MOL0     H19141   8.704   8.827   2.474 -0.8212  1.4709 -0.3489
  139MOL0     H19142   8.694   8.737   2.324 -0.5907  0.9349 -0.1866
  139MOL0     H19143   8.613   8.674   2.466  0.7809 -1.7554 -1.1935
  139MOL0     H19144   8.648   8.767   1.915  2.4014 -0.3877 -3.6731
  139MOL0     H19145   8.625   8.653   1.698  1.8891  0.4981  0.3944
  139MOL0     H19146   8.527   8.233   1.565  1.9424  0.0651  0.5267
  139MOL0     H19147   8.501   8.230   1.733 -1.7537  2.5789  2.5949
  139MOL0     H19148   8.303   8.149   1.649  2.9551  0.3898  1.0731
  139MOL0     H19149   8.265   8.321   1.685  1.7300  0.5192  2.1892
  139MOL0     H19150   8.345   8.223   1.402  1.6812 -3.3344  1.3954
  139MOL0     H19151   8.286   8.373   1.447  1.9595 -0.2834 -1.9609
  139MOL0     H19152   8.088   8.329   1.475 -1.3197 -0.1867 -3.0053
  139MOL0     H19153   8.097   8.162   1.531 -0.9919  0.2164  0.4457
  139MOL0     H19154   8.165   8.105   1.284  2.3257  2.5244  0.7266
  139MOL0     H19155   7.991   8.146   1.336  0.3048 -1.2101  0.4175
  139MOL0     H19156   8.207   8.330   1.203 -0.0554 -0.7834 -0.8580
  139MOL0     H19157   8.043   8.385   1.226  0.0106 -0.4730  2.0509
  139MOL0     H19158   7.945   8.211   1.072 -1.2113  2.4593 -1.5418
  139MOL0     H19159   8.103   8.134   1.049  2.1094  0.0022 -0.4951
  139MOL0     H19160   8.044   8.268   0.858  1.3748 -0.3856 -0.0965
  139MOL0     H19161   8.175   8.355   0.933 -0.4393 -0.3365  1.4792
  139MOL0     H19162   8.426   8.331   1.917 -0.3951  0.8029  1.0757
  139MOL0     H19163   8.456   8.435   2.113 -1.9208 -0.4314 -1.3481
  139MOL0     H19164   8.207   8.902   2.255 -0.0783  1.9366  0.3076
  139MOL0     H19165   8.185   9.067   2.414  0.4024 -0.3013 -1.4394
  139MOL0     H19166   8.189  10.529   1.723 -0.6794  0.3448 -1.3346
  139MOL0     H19167   8.092  10.559   1.509 -0.7223 -1.0557 -1.9712
  139MOL0     H19168   7.836  10.181   1.135  4.4392  1.1717  2.6689
  139MOL0     H19169   7.742  10.205   0.904 -1.3545  1.7835 -1.8412
  139MOL0     H19170   7.695  10.376   0.577  1.4530  3.1468  0.0492
  139MOL0     H19171   7.784  10.272   0.677  0.8499  0.6503 -0.9569
  139MOL0     H19172   7.489  10.369   0.696  1.7712  2.0955 -0.6143
  139MOL0     H19173   7.548  10.236   0.808  3.5543 -0.3823  1.2834
  139MOL0     H19174   7.585  10.203   0.508 -3.2133  3.7488  0.0294
  139MOL0     H19175   7.614  10.089   0.658 -1.2560 -1.3694  0.3967
  139MOL0     H19176   7.324  10.171   0.617 -1.2569 -0.9785  1.4671
  139MOL0     H19177   7.410  10.028   0.660 -2.6746 -2.4009 -2.8650
  139MOL0     H19178   7.452   9.958   0.250 -0.4931  2.6332 -0.8000
  139MOL0     H19179   7.790  10.627   0.932 -0.4004  0.6650  1.4132
  139MOL0     H19180   7.855  10.718   1.123 -0.9503 -0.9282  0.7243
  139MOL0     H19181   7.834  10.634   1.281  2.4485 -2.4893  0.9069
  139MOL0     H19182   7.998  10.638   1.205  1.2831  1.5524 -1.2335
  140MOL0     O19183   9.840   2.845   9.067  0.5150 -0.0905  0.6956
  140MOL0     C19184   9.961   2.846   9.093  0.6062 -0.1727  0.2222
  140MOL0     O19185  10.020   2.793   9.207  0.3509 -0.0052 -0.3323
  140MOL0     C19186   9.965   2.707   9.298 -0.0321  0.2231 -0.1561
  140MOL0     C19187   9.853   2.620   9.267 -0.2570 -1.0319 -0.9101
  140MOL0     C19188   9.797   2.536   9.370 -0.3711 -0.4230 -0.8646
  140MOL0     C19189   9.853   2.537   9.502  0.2320  0.1428  0.6091
  140MOL0     O19190   9.797   2.451   9.588  0.2996 -0.0398 -0.7071
  140MOL0     C19191   9.851   2.433   9.718 -0.2641 -0.1588 -0.0112
  140MOL0     C19192   9.772   2.334   9.811  0.0590 -0.7240  1.0064
  140MOL0     C19193   9.865   2.284   9.922 -0.0797  0.5003  0.1444
  140MOL0     C19194   9.815   2.171  10.016  0.0255 -0.5739 -0.5119
  140MOL0     C19195   9.689   2.225  10.094  0.1172  1.0783 -0.1153
  140MOL0     C19196   9.612   2.117  10.182 -0.1963 -0.3230 -0.2641
  140MOL0     C19197   9.703   2.072  10.297 -0.3471 -0.2105  0.4474
  140MOL0     C19198   9.725   2.165  10.421  0.2496  0.2435 -0.0580
  140MOL0     N19199   9.607   2.208  10.498  0.4667 -0.5530 -0.3769
  140MOL0     C19200   9.574   2.168  10.624 -0.2763  0.3830  0.3612
  140MOL0     C19201   9.473   2.244  10.661 -0.5821  0.3221 -0.1855
  140MOL0     C19202   9.422   2.239  10.803 -0.1043 -0.2268 -0.5512
  140MOL0     C19203   9.497   2.323  10.910 -0.6405 -0.8984 -0.2496
  140MOL0     C19204   9.467   2.473  10.889  0.1329  0.0037  0.5607
  140MOL0     C19205   9.556   2.559  10.974 -0.5432  0.6181 -0.0586
  140MOL0     O19206   9.576   2.685  10.907 -0.5489 -0.0962 -0.2831
  140MOL0     C19207   9.668   2.772  10.963  0.1884  0.5935  0.0481
  140MOL0     C19208   9.673   2.892  10.908  0.0721 -0.3182  0.8369
  140MOL0     C19209   9.768   2.989  10.938  0.1148  0.1108 -0.9658
  140MOL0     C19210   9.764   3.124  10.868  0.0720  0.1085 -0.3579
  140MOL0     C19211   9.856   2.963  11.048 -0.8136 -0.0764 -0.5106
  140MOL0     C19212   9.962   3.058  11.101  0.5351 -0.6817  0.0291
  140MOL0     O19213  10.059   3.010  11.182  1.0751 -0.2327 -0.1289
  140MOL0     C19214  10.167   3.083  11.216  0.8622  0.2523  0.2784
  140MOL0     C19215  10.226   3.064  11.343 -0.1476 -0.2334  0.2954
  140MOL0     C19216  10.344   3.137  11.364  0.2269  0.1979 -0.1591
  140MOL0     C19217  10.389   3.247  11.289 -0.4845 -0.0335 -0.8601
  140MOL0     O19218  10.491   3.323  11.349 -0.4450  0.4406  0.0400
  140MOL0     C19219  10.581   3.382  11.255 -0.4052 -0.9074 -0.1486
  140MOL0     C19220  10.690   3.456  11.325 -0.4766 -0.4048  0.2438
  140MOL0     C19221  10.806   3.510  11.236  0.8522 -0.1668  0.0924
  140MOL0     C19222  10.928   3.547  11.319 -0.7743 -0.5801  0.9548
  140MOL0     C19223  11.012   3.658  11.247 -0.0635 -0.1822  0.5646
  140MOL0     C19224  11.134   3.703  11.332  1.3521  0.3422  0.2574
  140MOL0     C19225  11.231   3.788  11.255 -0.2025 -0.0502 -0.7392
  140MOL0     C19226  11.324   3.706  11.168  0.2115  0.5603  0.8320
  140MOL0    Cl19227  11.428   3.591  11.267 -0.3831  0.4152  0.2923
  140MOL0     C19228  10.323   3.264  11.165  0.6831  0.0569 -0.5926
  140MOL0     C19229  10.221   3.170  11.130  1.3797 -0.3180  0.1908
  140MOL0     O19230   9.931   3.176  11.097 -0.2218 -0.0547  0.3188
  140MOL0     C19231   9.845   2.845  11.114 -0.2395  0.2430  0.5769
  140MOL0     C19232   9.755   2.747  11.065 -0.2105 -0.1164 -0.3134
  140MOL0     N19233   9.429   2.313  10.553  0.1095 -0.1981 -0.8293
  140MOL0     N19234   9.513   2.302  10.453 -0.8161 -0.7118 -0.2394
  140MOL0     C19235   9.971   2.611   9.525  0.1265 -0.4354 -0.1906
  140MOL0     C19236  10.018   2.699   9.426  0.3202  0.9440  0.7527
  140MOL0     C19237  10.056   2.905   8.997 -0.6382 -0.5231 -0.2439
  140MOL0     C19238  10.188   2.858   8.983  0.2137 -0.2465 -0.2953
  140MOL0     C19239  10.280   2.913   8.893  0.4127 -0.8781  0.5327
  140MOL0     C19240  10.234   3.003   8.796  0.4166  0.7725 -0.6989
  140MOL0     O19241  10.319   3.067   8.706  0.9792 -0.2451 -0.2829
  140MOL0     C19242  10.453   3.082   8.738 -0.8211  0.3711 -0.4937
  140MOL0     C19243  10.526   3.139   8.618  0.3239 -0.2307  0.1363
  140MOL0     C19244  10.673   3.130   8.615 -0.4948  0.4368  0.2226
  140MOL0     C19245  10.725   2.986   8.639  0.1795 -0.8031 -0.1112
  140MOL0     C19246  10.671   2.878   8.543  0.0942 -0.2056 -0.7966
  140MOL0     C19247  10.646   2.811   8.446 -0.2809 -0.2138 -0.3292
  140MOL0     C19248  10.101   3.045   8.797  0.8618 -0.0554 -0.6645
  140MOL0     C19249  10.014   3.003   8.897  0.7309  0.5240 -0.6271
  140MOL0     C19250   9.882   3.071   8.906 -0.0325  0.0752 -0.0919
  140MOL0     H19251   9.815   2.618   9.165 -2.1959  1.3165 -0.3170
  140MOL0     H19252   9.707   2.484   9.340 -1.5927  1.4909 -0.7030
  140MOL0     H19253   9.865   2.533   9.759 -1.0893  0.4918 -1.2538
  140MOL0     H19254   9.950   2.391   9.698  0.4026  0.5739  1.5948
  140MOL0     H19255   9.681   2.382   9.847 -1.0542 -0.1331 -2.2766
  140MOL0     H19256   9.735   2.249   9.753  0.4448 -0.1361 -0.1251
  140MOL0     H19257   9.957   2.258   9.869 -0.3147 -1.1228  0.5038
  140MOL0     H19258   9.887   2.368   9.989  2.4085  0.9078 -1.0743
  140MOL0     H19259   9.781   2.084   9.958  0.4944 -0.0959 -1.5179
  140MOL0     H19260   9.903   2.143  10.074  0.5823  1.8700 -0.1005
  140MOL0     H19261   9.624   2.258  10.013 -0.7808 -4.2806 -1.9900
  140MOL0     H19262   9.712   2.313  10.155 -3.0894  1.7893  0.2461
  140MOL0     H19263   9.515   2.141  10.227 -0.3452 -2.5215  0.6968
  140MOL0     H19264   9.598   2.028  10.119 -2.0308  0.1724 -0.6231
  140MOL0     H19265   9.794   2.043  10.243 -2.0151 -0.5375 -2.3508
  140MOL0     H19266   9.653   1.988  10.345 -1.4583  0.3824  0.3479
  140MOL0     H19267   9.800   2.114  10.481  1.7430 -0.2359 -2.1898
  140MOL0     H19268   9.762   2.264  10.392 -2.9883  1.1975 -1.3577
  140MOL0     H19269   9.629   2.090  10.675  2.4075  0.7730 -1.7406
  140MOL0     H19270   9.415   2.136  10.839  0.5381 -0.7660 -1.8830
  140MOL0     H19271   9.320   2.280  10.804  0.7937  2.4036  2.4027
  140MOL0     H19272   9.477   2.290  11.012 -1.3456 -1.1437 -0.4618
  140MOL0     H19273   9.604   2.302  10.897 -0.2197  0.7676  0.2465
  140MOL0     H19274   9.472   2.501  10.783  1.2415  0.2025  0.6531
  140MOL0     H19275   9.366   2.507  10.915  0.8347  0.9750  2.2153
  140MOL0     H19276   9.519   2.565  11.077  1.7717 -0.3554  0.9139
  140MOL0     H19277   9.649   2.501  10.982 -1.3081 -0.4791  1.1350
  140MOL0     H19278   9.608   2.911  10.823 -0.9760 -0.8783  1.4813
  140MOL0     H19279   9.720   3.113  10.768 -0.4187 -1.3728 -0.0129
  140MOL0     H19280   9.869   3.154  10.854  0.2984 -0.3842  0.1942
  140MOL0     H19281   9.715   3.204  10.923 -0.5736  0.1224 -0.9329
  140MOL0     H19282  10.187   2.985  11.405 -1.1243 -0.1682 -0.2251
  140MOL0     H19283  10.373   3.133  11.469 -0.7214  1.3691  0.1646
  140MOL0     H19284  10.640   3.305  11.204  0.2030 -1.3176  1.1371
  140MOL0     H19285  10.529   3.437  11.176  1.9030  1.4930 -0.1021
  140MOL0     H19286  10.636   3.542  11.367 -0.2930 -0.8266  1.3644
  140MOL0     H19287  10.732   3.416  11.418 -2.5657 -1.4428  0.8105
  140MOL0     H19288  10.774   3.600  11.182 -0.0370  0.1784  1.1665
  140MOL0     H19289  10.829   3.429  11.165 -1.8103 -1.3508  0.4824
  140MOL0     H19290  11.001   3.466  11.331  1.4123  0.9296 -1.1486
  140MOL0     H19291  10.906   3.578  11.421  1.6650 -1.1455  1.7343
  140MOL0     H19292  11.036   3.611  11.151 -1.7387  0.2543 -0.1065
  140MOL0     H19293  10.954   3.747  11.221  1.2277  0.0962 -1.5196
  140MOL0     H19294  11.192   3.624  11.380  0.4196  0.5790  1.8407
  140MOL0     H19295  11.094   3.749  11.423  3.3063  0.4586  1.0996
  140MOL0     H19296  11.292   3.840  11.331  2.3593 -2.9650 -0.6122
  140MOL0     H19297  11.178   3.865  11.198  1.6545  3.0060  1.3345
  140MOL0     H19298  11.398   3.766  11.114 -0.6840 -0.3694 -1.5755
  140MOL0     H19299  11.259   3.658  11.094  1.7187 -0.4789  0.1453
  140MOL0     H19300  10.361   3.332  11.089 -3.4176  2.8426 -0.4637
  140MOL0     H19301  10.179   3.178  11.031  1.4129 -0.1814  0.1883
  140MOL0     H19302   9.901   2.820  11.203  0.2149 -0.0267  0.2187
  140MOL0     H19303   9.744   2.654  11.120  1.3761  0.8101  1.7018
  140MOL0     H19304  10.022   2.616   9.621 -0.2646 -3.1615  0.2368
  140MOL0     H19305  10.094   2.768   9.460  1.6310 -1.5134  3.0911
  140MOL0     H19306  10.226   2.794   9.062 -2.7916 -1.8651 -0.0412
  140MOL0     H19307  10.386   2.896   8.909  0.6909  0.3564  0.0962
  140MOL0     H19308  10.471   3.135   8.832  2.3091 -1.8100  0.3183
  140MOL0     H19309  10.486   2.979   8.752  1.6482  1.1800  0.0654
  140MOL0     H19310  10.501   3.245   8.602 -0.4722 -0.3005  0.8670
  140MOL0     H19311  10.497   3.085   8.527 -0.1490 -1.2467  0.8785
  140MOL0     H19312  10.712   3.156   8.516 -0.6515  0.5005  0.1776
  140MOL0     H19313  10.723   3.200   8.683 -1.2363  0.3932  0.8234
  140MOL0     H19314  10.699   2.953   8.740  1.1825  0.6556  0.6696
  140MOL0     H19315  10.834   2.972   8.638  0.5357  0.8760  2.7617
  140MOL0     H19316  10.639   2.729   8.377 -0.6080 -1.2278  0.8555
  140MOL0     H19317  10.070   3.130   8.737  1.9200  2.0871  1.6279
  140MOL0     H19318   9.843   3.072   8.804  2.9901  2.0704 -1.3344
  140MOL0     H19319   9.795   3.030   8.959  0.7015 -1.1958  0.1810
  140MOL0     H19320   9.904   3.173   8.936  0.1729  1.2171 -3.7187
  141MOL0     O19321   3.842   0.395   4.521  0.2444 -0.2380 -0.3905
  141MOL0     C19322   3.922   0.307   4.515 -0.2565 -0.3356  0.7695
  141MOL0     O19323   3.901   0.171   4.489 -0.0264  0.1108 -0.3715
  141MOL0     C19324   3.783   0.120   4.522 -0.0825  0.2799  1.1526
  141MOL0     C19325   3.718   0.114   4.650 -0.0558  0.1751 -0.0202
  141MOL0     C19326   3.602   0.047   4.665 -0.2075 -0.8741  1.2162
  141MOL0     C19327   3.531  -0.011   4.549  0.4346 -0.1357  0.0379
  141MOL0     O19328   3.410  -0.075   4.564 -0.1290 -1.0792 -0.6520
  141MOL0     C19329   3.375  -0.132   4.691 -1.0193  1.3377  0.3239
  141MOL0     C19330   3.235  -0.194   4.680 -0.3415 -0.7620  0.9814
  141MOL0     C19331   3.163  -0.193   4.812  0.1450  0.5755 -0.2006
  141MOL0     C19332   3.040  -0.282   4.809  0.3783  0.5422 -0.1262
  141MOL0     C19333   2.978  -0.295   4.952 -0.0477 -0.5281  0.3401
  141MOL0     C19334   2.838  -0.352   4.954 -0.1199 -0.0109 -0.6923
  141MOL0     C19335   2.819  -0.432   5.091 -0.0514  0.1189 -0.0856
  141MOL0     C19336   2.675  -0.449   5.129  0.0748  0.4820 -0.4907
  141MOL0     N19337   2.608  -0.321   5.155  0.6041  0.4550  0.3198
  141MOL0     C19338   2.481  -0.295   5.103  0.0518 -0.0177 -0.4836
  141MOL0     C19339   2.473  -0.164   5.123  0.7268 -1.2121  0.5478
  141MOL0     C19340   2.364  -0.080   5.079 -0.3179 -0.6943  0.4569
  141MOL0     C19341   2.368  -0.051   4.928 -0.4552  0.0790 -0.8409
  141MOL0     C19342   2.459   0.061   4.875  1.1672 -0.4713 -0.2393
  141MOL0     C19343   2.595   0.081   4.938 -0.4529  0.0241  0.1992
  141MOL0     O19344   2.680   0.152   4.844  0.6487 -0.5397 -0.1657
  141MOL0     C19345   2.803   0.185   4.887  0.1404  0.4664  0.2655
  141MOL0     C19346   2.870   0.122   4.989  0.7464 -0.2387 -0.6842
  141MOL0     C19347   3.002   0.157   5.023  0.0128 -0.1920 -0.0782
  141MOL0     C19348   3.057   0.105   5.154  0.4693 -0.7037  0.3132
  141MOL0     C19349   3.078   0.241   4.935  0.0825 -0.1534 -0.6310
  141MOL0     C19350   3.215   0.290   4.953  0.3035  0.4312  0.3868
  141MOL0     O19351   3.247   0.414   4.897 -0.2988 -0.9785 -0.3788
  141MOL0     C19352   3.380   0.454   4.892 -0.5601 -0.1364 -0.3215
  141MOL0     C19353   3.474   0.420   4.793  0.1351 -0.0242  0.0828
  141MOL0     C19354   3.612   0.445   4.805 -0.1193  0.4456 -0.3694
  141MOL0     C19355   3.666   0.499   4.925  0.5548  0.2001 -0.4968
  141MOL0     O19356   3.797   0.527   4.923 -0.6649  0.6438  0.2431
  141MOL0     C19357   3.861   0.514   5.054 -0.3506 -0.1654 -0.2017
  141MOL0     C19358   3.888   0.656   5.115  0.3395 -1.2668  0.6280
  141MOL0     C19359   3.973   0.746   5.030 -0.3093  0.3259  0.1314
  141MOL0     C19360   3.998   0.889   5.100 -0.2972  0.3142  0.8658
  141MOL0     C19361   4.082   0.981   5.023 -0.1037 -0.3792 -0.2863
  141MOL0     C19362   4.134   1.095   5.105  0.0081 -0.6893 -1.0909
  141MOL0     C19363   4.223   1.174   5.013  0.1324  0.5585  0.2769
  141MOL0     C19364   4.275   1.297   5.074 -0.8227 -0.1576  0.5926
  141MOL0    Cl19365   4.319   1.419   4.954  0.3280 -0.3025  0.2395
  141MOL0     C19366   3.565   0.539   5.023  0.8162  0.2476  0.3130
  141MOL0     C19367   3.429   0.518   5.005  0.4290  1.3846 -0.0241
  141MOL0     O19368   3.297   0.224   5.013 -0.7352  0.2303 -0.7988
  141MOL0     C19369   3.008   0.302   4.830  0.2650 -0.7304  0.6617
  141MOL0     C19370   2.869   0.280   4.808 -0.3700  0.6851  0.7421
  141MOL0     N19371   2.581  -0.121   5.198  0.7297 -0.1036  0.7967
  141MOL0     N19372   2.668  -0.213   5.204 -0.9141 -0.3037  0.1702
  141MOL0     C19373   3.591  -0.001   4.424  0.3193 -0.2186  0.8969
  141MOL0     C19374   3.721   0.055   4.412  0.1531  0.7182  0.3041
  141MOL0     C19375   4.071   0.347   4.519  0.8983  1.1081 -0.2685
  141MOL0     C19376   4.161   0.267   4.439 -0.5013 -0.2295 -0.0301
  141MOL0     C19377   4.300   0.290   4.426  0.2908  0.0882 -0.0771
  141MOL0     C19378   4.363   0.387   4.505  0.3422 -0.6443  0.3646
  141MOL0     O19379   4.501   0.417   4.505 -0.7665 -0.2842  0.5409
  141MOL0     C19380   4.586   0.375   4.399 -0.1890 -0.1461  0.1132
  141MOL0     C19381   4.719   0.327   4.444 -0.5501 -0.4770  0.2346
  141MOL0     C19382   4.708   0.202   4.532  1.0277 -0.8951 -1.0118
  141MOL0     C19383   4.827   0.107   4.520  0.0001 -0.3763 -0.1507
  141MOL0     C19384   4.824   0.022   4.632  0.4846  0.4352  0.2763
  141MOL0     C19385   4.820  -0.048   4.729 -0.4510  0.0991 -0.2377
  141MOL0     C19386   4.273   0.463   4.588 -0.1288 -0.5269  0.3311
  141MOL0     C19387   4.134   0.448   4.597 -0.6612  0.5223  0.5243
  141MOL0     C19388   4.066   0.541   4.701 -0.4582 -0.6108 -0.2341
  141MOL0     H19389   3.772   0.154   4.736  0.6875 -1.7652  0.4693
  141MOL0     H19390   3.562   0.032   4.765  0.6198 -0.9505  1.5406
  141MOL0     H19391   3.369  -0.056   4.769  3.3754  1.7764  0.4887
  141MOL0     H19392   3.451  -0.206   4.719 -4.2244 -2.7500 -0.7191
  141MOL0     H19393   3.176  -0.149   4.600 -1.7480 -0.3120  2.2393
  141MOL0     H19394   3.255  -0.298   4.649 -4.6344 -1.3456 -0.4137
  141MOL0     H19395   3.230  -0.228   4.892  0.0095 -0.2587 -0.4346
  141MOL0     H19396   3.117  -0.098   4.838 -2.3935 -0.2674 -1.2296
  141MOL0     H19397   2.973  -0.237   4.736 -1.5021 -1.0441  0.5303
  141MOL0     H19398   3.069  -0.382   4.776  0.4284  1.7707 -4.3521
  141MOL0     H19399   2.966  -0.200   5.004 -1.4835 -1.6435  2.1510
  141MOL0     H19400   3.054  -0.345   5.013  1.6006  1.8610  0.3692
  141MOL0     H19401   2.768  -0.271   4.928 -1.7533 -1.2074 -0.1288
  141MOL0     H19402   2.823  -0.424   4.873 -2.7098 -0.5246  0.1476
  141MOL0     H19403   2.870  -0.374   5.168 -0.3783  1.6619 -0.9931
  141MOL0     H19404   2.868  -0.529   5.082  0.9113  0.5820  0.0131
  141MOL0     H19405   2.624  -0.500   5.047  2.5229  4.7815 -5.2548
  141MOL0     H19406   2.663  -0.498   5.226  0.4426  0.4951 -0.4380
  141MOL0     H19407   2.414  -0.347   5.036  1.1346 -1.2145 -0.6616
  141MOL0     H19408   2.358   0.020   5.124  2.5063  0.5667 -1.5982
  141MOL0     H19409   2.265  -0.124   5.091 -0.1733 -1.7506 -1.6594
  141MOL0     H19410   2.384  -0.149   4.882  1.1675 -0.7830  1.3954
  141MOL0     H19411   2.266  -0.029   4.894 -1.6693 -0.5185  2.0796
  141MOL0     H19412   2.483   0.034   4.772 -1.6898  1.2725 -1.4771
  141MOL0     H19413   2.404   0.155   4.876  1.2624 -0.3449  2.5714
  141MOL0     H19414   2.585   0.133   5.033 -0.5531  1.2954 -0.4902
  141MOL0     H19415   2.641  -0.017   4.954 -1.5835 -0.7104 -0.8151
  141MOL0     H19416   2.823   0.047   5.051  1.5743 -3.3339 -3.4883
  141MOL0     H19417   2.978   0.088   5.228  0.7572  0.5935  0.9419
  141MOL0     H19418   3.131   0.178   5.189  1.4366 -0.0718 -2.7406
  141MOL0     H19419   3.092   0.004   5.133 -3.1045 -1.9235 -0.5644
  141MOL0     H19420   3.438   0.368   4.704  1.2071 -0.0619 -0.3495
  141MOL0     H19421   3.672   0.410   4.722 -2.6745 -1.5787 -1.5173
  141MOL0     H19422   3.800   0.455   5.122 -0.2598 -1.0502 -0.8772
  141MOL0     H19423   3.957   0.462   5.045  0.2276  0.4100  1.9740
  141MOL0     H19424   3.792   0.707   5.123  0.9376  0.3699 -1.5856
  141MOL0     H19425   3.931   0.643   5.215 -0.7771  0.2684  1.3368
  141MOL0     H19426   3.938   0.767   4.928  1.1382  0.7712 -0.2946
  141MOL0     H19427   4.068   0.694   5.014 -0.2924 -0.3809  2.2198
  141MOL0     H19428   4.055   0.874   5.192 -0.2606  0.4396  0.8648
  141MOL0     H19429   3.906   0.945   5.120 -0.9114 -0.0850 -0.7105
  141MOL0     H19430   4.174   0.933   4.987  1.2410  2.8270 -1.4523
  141MOL0     H19431   4.026   1.010   4.934  1.7724  1.8584 -0.8249
  141MOL0     H19432   4.196   1.064   5.190  3.4421 -0.3015 -3.2413
  141MOL0     H19433   4.046   1.151   5.136 -2.0162 -3.4177 -1.4784
  141MOL0     H19434   4.169   1.195   4.920  1.5959 -3.3247 -1.7260
  141MOL0     H19435   4.312   1.114   4.992  0.4480  0.7652  1.0057
  141MOL0     H19436   4.361   1.272   5.135 -0.5368  0.1554  0.3204
  141MOL0     H19437   4.205   1.348   5.142  1.1436  1.5938  1.4062
  141MOL0     H19438   3.593   0.587   5.116 -3.4738 -1.0101  2.4894
  141MOL0     H19439   3.362   0.561   5.079 -0.4484  1.3711 -0.7979
  141MOL0     H19440   3.043   0.372   4.754 -5.4639 -0.1421 -2.0185
  141MOL0     H19441   2.826   0.330   4.722 -0.8794 -1.2929 -0.2071
  141MOL0     H19442   3.554  -0.063   4.344  1.2512 -2.6831  2.2579
  141MOL0     H19443   3.773   0.051   4.316 -0.0480 -3.8778  0.1577
  141MOL0     H19444   4.128   0.181   4.382 -1.3655 -0.9964  1.5535
  141MOL0     H19445   4.352   0.253   4.338 -1.0468 -0.7691 -0.5436
  141MOL0     H19446   4.544   0.309   4.322  0.1024 -1.9918  1.4938
  141MOL0     H19447   4.602   0.466   4.339  1.6900  0.0468  0.8535
  141MOL0     H19448   4.771   0.408   4.496 -0.4896  1.6112 -2.8221
  141MOL0     H19449   4.774   0.305   4.352 -2.6094 -1.2266 -0.8879
  141MOL0     H19450   4.675   0.227   4.633 -1.4034 -1.9232 -1.5066
  141MOL0     H19451   4.623   0.143   4.499  1.9209 -2.1404 -1.1567
  141MOL0     H19452   4.916   0.167   4.543  0.4838 -0.8534 -0.7661
  141MOL0     H19453   4.841   0.054   4.426  1.1289 -3.1799  1.4561
  141MOL0     H19454   4.830  -0.111   4.814 -1.0765 -1.1397 -1.0594
  141MOL0     H19455   4.320   0.536   4.652 -2.5958  0.1543  1.5054
  141MOL0     H19456   4.107   0.508   4.797 -1.9428 -0.5418  0.4461
  141MOL0     H19457   4.101   0.643   4.680 -0.6184 -0.3059  0.9026
  141MOL0     H19458   3.957   0.541   4.701 -0.5163  1.3575 -1.4604
  142MOL0     O19459   1.052   8.988   3.957 -0.0422 -0.4108  0.2465
  142MOL0     C19460   1.073   9.107   3.915 -0.2459 -0.4489  1.0131
  142MOL0     O19461   1.089   9.141   3.778  1.1657 -0.2898  0.1583
  142MOL0     C19462   1.038   9.043   3.702 -0.1263  1.0519  0.0651
  142MOL0     C19463   1.123   8.954   3.634  0.0185  0.0306 -0.5682
  142MOL0     C19464   1.069   8.866   3.540 -0.5751  0.9895  0.2529
  142MOL0     C19465   0.932   8.859   3.510  0.7745  1.1216  0.3091
  142MOL0     O19466   0.872   8.780   3.405 -0.7777  1.3782  0.2070
  142MOL0     C19467   0.953   8.730   3.298 -0.7157  0.1501  0.7602
  142MOL0     C19468   0.874   8.613   3.230  0.4965  0.1560 -0.1133
  142MOL0     C19469   0.963   8.539   3.118  0.3465 -0.4166 -0.8475
  142MOL0     C19470   0.889   8.401   3.092  0.6207 -0.4942 -0.4219
  142MOL0     C19471   0.986   8.319   3.009 -1.0317  0.4548  1.0213
  142MOL0     C19472   1.112   8.280   3.087  0.9520  0.1478 -1.0289
  142MOL0     C19473   1.211   8.184   3.015  0.4716 -0.2296  0.1226
  142MOL0     C19474   1.251   8.236   2.877 -0.2473  0.3754  0.4753
  142MOL0     N19475   1.383   8.185   2.836  0.2434 -0.8771 -0.6661
  142MOL0     C19476   1.410   8.071   2.761  0.0611  0.4642  0.2662
  142MOL0     C19477   1.551   8.077   2.768  1.0329 -0.3786 -0.2017
  142MOL0     C19478   1.649   7.964   2.730  0.1817  0.5525  0.7574
  142MOL0     C19479   1.684   7.854   2.831 -0.1288  1.3371  0.2523
  142MOL0     C19480   1.725   7.916   2.968  0.1659 -0.7757  0.0791
  142MOL0     C19481   1.751   7.822   3.085  0.5636  0.1515 -0.6266
  142MOL0     O19482   1.816   7.699   3.043  0.8190 -0.6883  0.1070
  142MOL0     C19483   1.784   7.587   3.118  0.0494 -0.5608 -0.5284
  142MOL0     C19484   1.812   7.468   3.059  0.2910  0.0556  0.1101
  142MOL0     C19485   1.771   7.354   3.121  0.0469  1.3445 -0.2852
  142MOL0     C19486   1.809   7.233   3.049 -0.5982  0.0665  0.6201
  142MOL0     C19487   1.703   7.356   3.250 -0.9624 -0.0413  0.3172
  142MOL0     C19488   1.644   7.234   3.322 -0.1561 -0.1275 -0.1630
  142MOL0     O19489   1.600   7.245   3.451 -0.5573 -0.2220 -0.0298
  142MOL0     C19490   1.554   7.124   3.503 -0.9889 -0.2656  0.1921
  142MOL0     C19491   1.416   7.114   3.529 -0.7753  0.6326  1.0246
  142MOL0     C19492   1.359   6.999   3.581 -0.1934  1.1530 -0.2880
  142MOL0     C19493   1.434   6.885   3.595 -0.2117  1.0267  0.3405
  142MOL0     O19494   1.375   6.770   3.641 -0.1961  0.1379  0.7605
  142MOL0     C19495   1.441   6.643   3.625 -0.0857  0.1785  0.8070
  142MOL0     C19496   1.369   6.544   3.719  0.7140  0.8870 -0.6924
  142MOL0     C19497   1.294   6.429   3.649  0.1824  0.1231  0.1331
  142MOL0     C19498   1.247   6.314   3.741  0.0400  0.0409  0.5138
  142MOL0     C19499   1.113   6.348   3.806 -0.1511  0.1751 -0.4789
  142MOL0     C19500   1.082   6.259   3.930 -0.0644 -0.3348 -0.2220
  142MOL0     C19501   0.963   6.291   4.010 -0.8064 -0.5837  0.2829
  142MOL0     C19502   0.944   6.189   4.121 -0.3812  0.4896 -0.3360
  142MOL0    Cl19503   0.862   6.255   4.253  0.1742  0.2528 -0.3306
  142MOL0     C19504   1.570   6.892   3.567 -0.0374  0.5989 -0.8719
  142MOL0     C19505   1.633   7.006   3.522 -0.4809  0.7635 -0.7870
  142MOL0     O19506   1.636   7.128   3.258 -0.4134 -0.3515  0.4485
  142MOL0     C19507   1.685   7.478   3.316  0.7363  0.1120 -0.4184
  142MOL0     C19508   1.727   7.592   3.245 -0.3073 -0.7170  0.0877
  142MOL0     N19509   1.593   8.199   2.824  0.2972 -0.1006  0.0102
  142MOL0     N19510   1.489   8.256   2.869  0.0453  0.6357 -0.4534
  142MOL0     C19511   0.846   8.945   3.578  0.4803 -0.2863 -0.3836
  142MOL0     C19512   0.900   9.039   3.672 -0.1411 -0.0957 -0.4949
  142MOL0     C19513   1.116   9.218   4.005 -0.3741  0.1678  0.4070
  142MOL0     C19514   1.229   9.293   3.961 -0.5474 -0.3635  0.0380
  142MOL0     C19515   1.277   9.401   4.035  0.0721  0.3418  0.7224
  142MOL0     C19516   1.203   9.448   4.145  0.8495  0.3065  0.5974
  142MOL0     O19517   1.232   9.562   4.215 -0.0002  0.7177  0.2173
  142MOL0     C19518   1.336   9.641   4.171 -0.0658 -1.0668  0.2699
  142MOL0     C19519   1.339   9.771   4.259  0.4825 -0.3283  0.5412
  142MOL0     C19520   1.225   9.873   4.231  0.1411  0.1258 -0.0272
  142MOL0     C19521   1.098   9.828   4.314 -0.2006  0.7613 -0.0264
  142MOL0     C19522   0.981   9.782   4.231  0.0483 -0.7364 -0.2294
  142MOL0     C19523   0.884   9.762   4.153 -0.4997 -0.7531  0.2096
  142MOL0     C19524   1.093   9.380   4.183  1.2233  0.0241  1.0948
  142MOL0     C19525   1.050   9.263   4.113  0.7018 -0.0493 -0.0745
  142MOL0     C19526   0.920   9.190   4.153  0.0774 -0.6096 -0.2877
  142MOL0     H19527   1.228   8.952   3.662  0.0619 -0.1695 -0.7438
  142MOL0     H19528   1.136   8.790   3.500 -1.0881  0.9313 -0.5132
  142MOL0     H19529   1.048   8.688   3.332 -0.2189  0.1959 -0.5124
  142MOL0     H19530   0.964   8.815   3.230  0.7679  0.1947  1.0399
  142MOL0     H19531   0.851   8.540   3.308  0.8866 -0.3683 -0.4764
  142MOL0     H19532   0.778   8.647   3.191  1.0030  0.5666 -1.0392
  142MOL0     H19533   0.968   8.599   3.027  1.6087  1.1943  0.2265
  142MOL0     H19534   1.067   8.526   3.150 -0.7364 -1.8550  2.5403
  142MOL0     H19535   0.867   8.345   3.183 -1.9702 -1.9375 -1.8212
  142MOL0     H19536   0.797   8.408   3.032  1.3413 -0.9538 -1.6240
  142MOL0     H19537   1.008   8.379   2.921 -1.9684  2.0218  1.8030
  142MOL0     H19538   0.932   8.228   2.983 -0.3627  0.4024 -0.2501
  142MOL0     H19539   1.165   8.370   3.122  2.5154 -0.3693 -2.0089
  142MOL0     H19540   1.071   8.229   3.175  0.3195  0.1424 -1.3246
  142MOL0     H19541   1.164   8.086   3.002 -1.0102  0.4640 -0.0177
  142MOL0     H19542   1.297   8.170   3.080  1.9782 -3.6439 -2.3329
  142MOL0     H19543   1.185   8.188   2.804 -0.7419  2.2773 -0.3938
  142MOL0     H19544   1.241   8.344   2.861  2.3473  1.0873  2.9564
  142MOL0     H19545   1.344   7.997   2.716  1.7827 -1.5995  0.9867
  142MOL0     H19546   1.736   8.017   2.691  0.3436  0.6084  1.1877
  142MOL0     H19547   1.608   7.912   2.643 -1.1013  0.3923  1.4330
  142MOL0     H19548   1.593   7.795   2.845  0.2769  0.7961  0.6699
  142MOL0     H19549   1.755   7.788   2.779 -0.1495  2.2546 -0.9882
  142MOL0     H19550   1.819   7.969   2.953 -1.2915  2.3564  1.1337
  142MOL0     H19551   1.658   8.001   2.983 -0.1661 -0.4792 -2.5998
  142MOL0     H19552   1.807   7.874   3.163 -1.8404  2.2779 -0.1774
  142MOL0     H19553   1.655   7.788   3.122  1.6090  1.3722  3.7868
  142MOL0     H19554   1.844   7.476   2.955 -0.7643  3.2850 -0.0663
  142MOL0     H19555   1.717   7.177   3.029 -0.8941 -0.7437  3.6426
  142MOL0     H19556   1.860   7.169   3.122 -0.1356  0.3521  0.5450
  142MOL0     H19557   1.875   7.241   2.963  0.9006 -0.7261  1.6408
  142MOL0     H19558   1.349   7.200   3.519 -3.5566 -1.5861 -1.0766
  142MOL0     H19559   1.252   6.990   3.593  0.1156 -2.3715  1.2784
  142MOL0     H19560   1.443   6.615   3.519  0.9969  0.2542  0.7949
  142MOL0     H19561   1.547   6.640   3.650  0.9572 -1.4849 -3.0342
  142MOL0     H19562   1.439   6.501   3.791  1.7032  0.1849 -2.0310
  142MOL0     H19563   1.296   6.606   3.772 -0.0990 -0.4224 -0.2284
  142MOL0     H19564   1.358   6.394   3.567 -0.5175 -1.7461  0.3405
  142MOL0     H19565   1.207   6.472   3.599  0.8610  1.8498  0.3436
  142MOL0     H19566   1.313   6.288   3.824  1.2574 -0.0958 -0.4552
  142MOL0     H19567   1.220   6.240   3.665  0.5083  1.4154 -1.0579
  142MOL0     H19568   1.114   6.449   3.849  1.9525 -0.6138  1.5198
  142MOL0     H19569   1.022   6.338   3.747 -1.3087 -0.8772  1.4050
  142MOL0     H19570   1.171   6.264   3.994  0.4420 -1.4062 -0.8130
  142MOL0     H19571   1.080   6.151   3.913  0.5361 -0.5086  0.7091
  142MOL0     H19572   0.873   6.307   3.951  0.4673 -0.0721 -1.6275
  142MOL0     H19573   0.989   6.381   4.069  1.5745 -0.6265 -0.5710
  142MOL0     H19574   1.040   6.148   4.155  1.4824  1.7825 -3.5504
  142MOL0     H19575   0.886   6.103   4.085 -0.5483  0.6361 -0.4209
  142MOL0     H19576   1.633   6.805   3.582 -3.0353 -1.6511 -0.2194
  142MOL0     H19577   1.741   6.997   3.509  0.2990 -0.0054  4.1212
  142MOL0     H19578   1.653   7.490   3.419 -0.7002  6.5671 -1.2364
  142MOL0     H19579   1.714   7.687   3.296  0.0579  0.3303 -1.6861
  142MOL0     H19580   0.742   8.943   3.550  1.1011 -3.0851 -3.1166
  142MOL0     H19581   0.835   9.116   3.712  0.8462 -0.8632  2.9246
  142MOL0     H19582   1.278   9.259   3.870  1.5946 -1.5658  1.5608
  142MOL0     H19583   1.375   9.434   4.002 -0.4408  1.7196  0.5133
  142MOL0     H19584   1.429   9.585   4.178 -0.1867 -1.6703 -2.1256
  142MOL0     H19585   1.303   9.667   4.070  1.0831 -4.0031 -0.9485
  142MOL0     H19586   1.432   9.829   4.251  1.3837 -1.6925  0.8038
  142MOL0     H19587   1.332   9.734   4.361 -0.2385 -0.8437  0.3160
  142MOL0     H19588   1.240   9.977   4.262 -2.3326 -0.0880  2.2290
  142MOL0     H19589   1.198   9.873   4.125  0.9563 -1.2195 -0.2613
  142MOL0     H19590   1.060   9.910   4.376 -2.2269 -1.3352  1.6876
  142MOL0     H19591   1.124   9.753   4.389  0.1747  1.7482  0.8587
  142MOL0     H19592   0.799   9.759   4.088  0.9113  0.6304 -1.8205
  142MOL0     H19593   1.042   9.432   4.264  0.6790  1.6450 -0.2464
  142MOL0     H19594   0.902   9.090   4.113 -2.2428  0.7153 -2.8685
  142MOL0     H19595   0.916   9.183   4.262 -3.9019 -0.4039 -0.2777
  142MOL0     H19596   0.826   9.231   4.116 -1.8750 -2.3254  2.3836
  143MOL0     O19597   4.840   3.039  10.158 -0.1257  0.3272  0.0808
  143MOL0     C19598   4.917   2.999  10.072 -0.6469  0.0163 -0.0550
  143MOL0     O19599   4.915   3.038   9.943  1.0447  0.6875 -1.0904
  143MOL0     C19600   4.863   3.159   9.898 -0.3384  0.7676  0.7260
  143MOL0     C19601   4.826   3.272   9.970  0.5836 -0.4759 -0.6410
  143MOL0     C19602   4.779   3.379   9.901  0.0656  0.7177 -0.1411
  143MOL0     C19603   4.759   3.375   9.764  0.3859 -0.4720  0.1773
  143MOL0     O19604   4.708   3.490   9.706 -0.0487 -0.3885 -0.1032
  143MOL0     C19605   4.718   3.515   9.564  0.3751 -0.5537 -0.1343
  143MOL0     C19606   4.865   3.513   9.515  0.1558 -0.1390 -1.1337
  143MOL0     C19607   4.957   3.604   9.597 -0.1865  0.5323  0.9851
  143MOL0     C19608   5.068   3.671   9.528 -0.2994 -0.1942 -0.3256
  143MOL0     C19609   5.167   3.563   9.485  0.0205 -0.1293  0.3576
  143MOL0     C19610   5.299   3.617   9.434  0.4171  0.2139  0.5144
  143MOL0     C19611   5.391   3.525   9.361 -0.0523  1.0303 -0.4975
  143MOL0     C19612   5.321   3.437   9.250 -0.4138 -0.1933 -0.2486
  143MOL0     N19613   5.422   3.355   9.176  0.3488  0.1595  0.2623
  143MOL0     C19614   5.479   3.233   9.208 -0.6557 -0.0771 -0.6430
  143MOL0     C19615   5.561   3.204   9.101 -0.7485  0.9017 -0.1129
  143MOL0     C19616   5.623   3.067   9.088  0.2009  0.2098 -0.4980
  143MOL0     C19617   5.546   2.995   8.979  0.2492 -0.7882  0.1217
  143MOL0     C19618   5.554   2.842   8.993 -0.4399  0.5847  0.3785
  143MOL0     C19619   5.697   2.793   9.018 -0.1633  0.4571  0.3184
  143MOL0     O19620   5.790   2.848   8.926  0.3033 -0.3530 -0.9790
  143MOL0     C19621   5.921   2.815   8.941 -0.2794 -0.3736  0.2934
  143MOL0     C19622   5.992   2.816   8.822 -0.7985 -0.8408  0.7140
  143MOL0     C19623   6.133   2.799   8.821 -1.3023  0.0734 -0.4977
  143MOL0     C19624   6.200   2.797   8.682  0.7120  0.4322  0.2838
  143MOL0     C19625   6.201   2.762   8.938  0.0358 -0.7812 -0.7279
  143MOL0     C19626   6.348   2.733   8.949 -0.6460 -0.2607 -0.6069
  143MOL0     O19627   6.405   2.737   9.072 -0.2991  0.4410 -0.0344
  143MOL0     C19628   6.530   2.683   9.073 -0.6520 -0.5484 -0.2034
  143MOL0     C19629   6.643   2.762   9.075  0.5012  0.2748  0.7497
  143MOL0     C19630   6.767   2.700   9.071 -0.6208  1.3390  1.3527
  143MOL0     C19631   6.793   2.557   9.060  0.4465  1.2460  0.3669
  143MOL0     O19632   6.919   2.520   9.075 -0.0150 -0.2371 -0.7940
  143MOL0     C19633   6.957   2.394   9.136 -0.5149  0.1525  0.1582
  143MOL0     C19634   7.075   2.419   9.223  0.2381 -0.1848 -0.9258
  143MOL0     C19635   7.154   2.299   9.252 -0.0111 -0.6797  0.6542
  143MOL0     C19636   7.228   2.246   9.130 -0.4227 -0.6065  0.5319
  143MOL0     C19637   7.341   2.151   9.180  1.2117 -0.0095  0.2286
  143MOL0     C19638   7.407   2.083   9.053  0.2445  0.0708 -1.0841
  143MOL0     C19639   7.512   2.158   8.971 -1.0310  0.2735 -0.6823
  143MOL0     C19640   7.543   2.095   8.836  0.2989 -0.7617 -0.4860
  143MOL0    Cl19641   7.703   2.030   8.815 -0.1307 -0.2912  0.4234
  143MOL0     C19642   6.680   2.476   9.066  0.2585 -0.2657  0.1165
  143MOL0     C19643   6.549   2.542   9.081 -0.4741  0.6582 -0.7630
  143MOL0     O19644   6.401   2.691   8.852  0.1762  0.5648  0.2469
  143MOL0     C19645   6.130   2.767   9.066 -0.1755  0.0087 -0.7819
  143MOL0     C19646   5.998   2.795   9.053 -0.0638 -0.1183 -0.0879
  143MOL0     N19647   5.569   3.309   9.014  0.0866 -0.4079 -0.2597
  143MOL0     N19648   5.475   3.391   9.048 -0.0043  0.2322  0.0800
  143MOL0     C19649   4.785   3.261   9.694  0.2828 -0.7403 -1.0179
  143MOL0     C19650   4.839   3.158   9.759  0.1990  0.3875 -0.4221
  143MOL0     C19651   5.015   2.894  10.103  0.8177  0.1705  0.6481
  143MOL0     C19652   5.047   2.795  10.004 -0.0370 -0.9346  0.5537
  143MOL0     C19653   5.116   2.676  10.022 -0.2052 -0.7019 -0.1816
  143MOL0     C19654   5.157   2.648  10.150  0.0855 -0.4779 -0.5591
  143MOL0     O19655   5.237   2.539  10.165 -0.2550 -0.2415  0.1016
  143MOL0     C19656   5.251   2.489  10.296 -0.4640  0.4020 -0.4638
  143MOL0     C19657   5.264   2.333  10.300 -0.1263  1.3427  0.0315
  143MOL0     C19658   5.395   2.274  10.258 -0.2679 -0.4806 -0.6608
  143MOL0     C19659   5.478   2.243  10.375 -0.1109 -0.3753 -0.0852
  143MOL0     C19660   5.606   2.186  10.333  0.4124 -0.1603 -0.1638
  143MOL0     C19661   5.722   2.154  10.327 -0.2804  0.0662  0.4415
  143MOL0     C19662   5.150   2.751  10.255 -0.9638  0.2519  1.0592
  143MOL0     C19663   5.073   2.868  10.230  0.2805 -0.1747  0.5458
  143MOL0     C19664   5.068   2.978  10.334 -0.8414  0.5690 -0.4829
  143MOL0     H19665   4.832   3.270  10.079  1.5916 -0.2157 -0.6813
  143MOL0     H19666   4.752   3.469   9.956 -0.0911 -0.9165  2.6345
  143MOL0     H19667   4.666   3.611   9.556  0.1617 -0.5248  1.3525
  143MOL0     H19668   4.664   3.437   9.510  1.5708 -0.7940 -1.0041
  143MOL0     H19669   4.912   3.414   9.518 -1.1136 -0.7565 -1.1968
  143MOL0     H19670   4.858   3.541   9.409 -1.7809 -1.0079 -1.2767
  143MOL0     H19671   4.880   3.672   9.635  0.5392  1.2668  1.1347
  143MOL0     H19672   4.989   3.543   9.682  1.9909 -2.4528 -1.7331
  143MOL0     H19673   5.029   3.722   9.440 -2.3675 -3.3350 -1.4189
  143MOL0     H19674   5.119   3.732   9.603  1.2231 -2.9327  1.0277
  143MOL0     H19675   5.116   3.509   9.404 -2.4177  1.7645  0.4965
  143MOL0     H19676   5.188   3.496   9.569  1.9761  1.0385  0.8584
  143MOL0     H19677   5.271   3.699   9.367 -1.4836 -0.1377  0.8035
  143MOL0     H19678   5.350   3.665   9.518  1.2324  3.9695 -1.9052
  143MOL0     H19679   5.436   3.457   9.435  0.0685 -0.9478 -2.2899
  143MOL0     H19680   5.468   3.584   9.311 -0.2495  1.6092 -0.1315
  143MOL0     H19681   5.239   3.377   9.288 -0.5836  0.1733 -0.0278
  143MOL0     H19682   5.268   3.512   9.190 -0.0108  1.3878  1.2942
  143MOL0     H19683   5.459   3.178   9.299 -0.8023  0.9399 -0.0547
  143MOL0     H19684   5.625   3.003   9.177  3.1745  0.5612 -0.2070
  143MOL0     H19685   5.731   3.067   9.071  0.3167  0.4351  0.1781
  143MOL0     H19686   5.440   3.023   8.977  0.8057  1.4724 -0.1544
  143MOL0     H19687   5.590   3.020   8.883  0.8028  1.5983  0.9146
  143MOL0     H19688   5.490   2.813   9.077  1.9094  0.6550  2.2870
  143MOL0     H19689   5.510   2.798   8.903 -2.1645  3.2583 -0.2215
  143MOL0     H19690   5.726   2.809   9.122 -0.4144  0.2669  0.4192
  143MOL0     H19691   5.695   2.685   9.002 -1.1732  0.5182 -0.0709
  143MOL0     H19692   5.927   2.826   8.735  0.4818 -1.0233 -0.2974
  143MOL0     H19693   6.121   2.824   8.611 -2.5006 -0.8338  3.0842
  143MOL0     H19694   6.242   2.700   8.654  3.4262  0.9712  2.1078
  143MOL0     H19695   6.283   2.869   8.676  0.6492  0.3872 -2.6376
  143MOL0     H19696   6.636   2.870   9.082 -0.0708  0.1828  1.7389
  143MOL0     H19697   6.855   2.763   9.069 -0.8032  1.6272 -1.2532
  143MOL0     H19698   6.874   2.348   9.190  1.2581 -3.9961 -0.2895
  143MOL0     H19699   6.979   2.317   9.062  0.4479  0.5984 -0.0374
  143MOL0     H19700   7.147   2.481   9.169  0.4282  0.6279  0.2199
  143MOL0     H19701   7.042   2.462   9.319  0.4752 -5.0096  1.6200
  143MOL0     H19702   7.082   2.231   9.297  0.3582 -1.7830 -0.3664
  143MOL0     H19703   7.230   2.325   9.327 -1.1534  1.7276  1.0471
  143MOL0     H19704   7.273   2.325   9.069  1.0401 -0.6160  1.5382
  143MOL0     H19705   7.163   2.192   9.061  1.9678 -1.5726 -1.0692
  143MOL0     H19706   7.423   2.196   9.239  0.3945 -1.1705  2.3700
  143MOL0     H19707   7.302   2.069   9.241  0.2205 -0.1031 -0.5305
  143MOL0     H19708   7.322   2.054   8.991 -3.3543  4.2994  1.3235
  143MOL0     H19709   7.441   1.980   9.064  2.6495  0.6332 -2.3944
  143MOL0     H19710   7.607   2.163   9.024 -2.2691 -0.2574  1.7130
  143MOL0     H19711   7.473   2.259   8.952  1.4661  1.3210 -0.5308
  143MOL0     H19712   7.510   2.171   8.764  1.4047  0.6811  0.4808
  143MOL0     H19713   7.482   2.006   8.818  0.8585 -1.3684  0.5445
  143MOL0     H19714   6.693   2.369   9.054 -0.4181 -0.2719 -0.6794
  143MOL0     H19715   6.465   2.477   9.100 -0.2532  1.0707  2.1927
  143MOL0     H19716   6.184   2.761   9.160  2.6817 -0.0216 -2.3300
  143MOL0     H19717   5.956   2.791   9.153 -1.7974 -2.5457 -0.8206
  143MOL0     H19718   4.780   3.254   9.586  1.5090  0.6368 -1.2000
  143MOL0     H19719   4.852   3.068   9.699  3.1985  0.4896 -0.0957
  143MOL0     H19720   5.008   2.810   9.904  0.2024 -0.2247  0.5649
  143MOL0     H19721   5.126   2.603   9.942  1.6896  0.6383 -1.2484
  143MOL0     H19722   5.343   2.532  10.337  0.5948  0.3551 -2.6557
  143MOL0     H19723   5.165   2.519  10.356 -1.0531  1.5051 -1.8093
  143MOL0     H19724   5.191   2.282  10.238  0.1169  1.8637 -0.6969
  143MOL0     H19725   5.255   2.312  10.407 -1.2688  2.0360  0.0918
  143MOL0     H19726   5.387   2.180  10.203  0.7649  0.8224 -3.2132
  143MOL0     H19727   5.451   2.342  10.193  1.1616 -2.9871 -2.2436
  143MOL0     H19728   5.421   2.166  10.428 -2.0923  2.1468  1.7121
  143MOL0     H19729   5.488   2.325  10.447  0.2263 -1.7533  1.5027
  143MOL0     H19730   5.829   2.144  10.327  0.1327  3.2273 -0.2712
  143MOL0     H19731   5.200   2.742  10.351 -0.3639 -0.7919  0.6744
  143MOL0     H19732   5.171   2.976  10.373 -0.2248 -2.3779 -1.9701
  143MOL0     H19733   5.037   3.078  10.301  1.2702  1.2899 -0.4443
  143MOL0     H19734   5.004   2.943  10.415  1.5127 -0.7484  0.9373
  144MOL0     O19735   0.935   9.675  10.350  0.0684  0.7057  0.5127
  144MOL0     C19736   0.818   9.686  10.395 -0.1103 -0.4950 -0.3333
  144MOL0     O19737   0.781   9.772  10.504  0.7920 -0.3322  0.3675
  144MOL0     C19738   0.870   9.855  10.554 -0.6884  0.6309  0.0309
  144MOL0     C19739   0.980   9.795  10.626  0.0729 -0.1043  0.7809
  144MOL0     C19740   1.055   9.882  10.704  0.0968 -0.0020 -0.2134
  144MOL0     C19741   1.042  10.020  10.701 -0.0173  1.2007  0.4772
  144MOL0     O19742   1.114  10.095  10.794  0.2893  0.0368 -0.4449
  144MOL0     C19743   1.234  10.037  10.846 -0.7246 -0.4583 -0.2165
  144MOL0     C19744   1.330  10.145  10.893 -0.4886 -0.3342  0.5889
  144MOL0     C19745   1.351  10.260  10.795  0.3544  0.2404  1.0221
  144MOL0     C19746   1.431  10.377  10.868 -0.3689  0.5627 -0.6606
  144MOL0     C19747   1.469  10.499  10.780 -0.5587  1.1232 -0.1870
  144MOL0     C19748   1.592  10.481  10.687  0.0385 -0.3117  0.4310
  144MOL0     C19749   1.637  10.610  10.619  0.1299  0.7832  0.1343
  144MOL0     C19750   1.518  10.635  10.514  0.0773 -0.5967  0.0897
  144MOL0     N19751   1.583  10.722  10.411  0.2145 -0.0453 -0.0552
  144MOL0     C19752   1.584  10.857  10.403  0.0532  0.4308 -0.9774
  144MOL0     C19753   1.685  10.880  10.324 -1.1302 -0.6969  0.0245
  144MOL0     C19754   1.727  11.018  10.273  0.9622  0.2631 -0.1005
  144MOL0     C19755   1.804  11.102  10.380 -0.3181  0.0385 -0.0224
  144MOL0     C19756   1.937  11.032  10.421 -0.1105 -0.3950  0.5822
  144MOL0     C19757   2.038  11.023  10.303 -1.2083  0.8029  0.5143
  144MOL0     O19758   2.102  11.148  10.271 -0.4303  0.0403  0.4140
  144MOL0     C19759   2.237  11.134  10.237 -0.0198  0.0432 -1.3156
  144MOL0     C19760   2.327  11.234  10.277  0.0954 -0.3801  0.3997
  144MOL0     C19761   2.464  11.220  10.261  1.1467 -0.6511 -0.2601
  144MOL0     C19762   2.551  11.330  10.329 -0.2487  0.1099  0.5468
  144MOL0     C19763   2.515  11.108  10.187  0.8442 -0.6816  0.6691
  144MOL0     C19764   2.659  11.088  10.171  0.7039 -0.0384  0.5284
  144MOL0     O19765   2.747  11.196  10.190 -0.2309  0.5408 -0.7936
  144MOL0     C19766   2.881  11.176  10.197  0.6971 -0.0831 -0.7983
  144MOL0     C19767   2.939  11.182  10.325 -0.7084  0.4826 -1.2502
  144MOL0     C19768   3.079  11.162  10.342  0.7885 -0.1461  0.2304
  144MOL0     C19769   3.163  11.131  10.228 -0.5595 -0.7189 -0.1111
  144MOL0     O19770   3.294  11.111  10.244 -0.5614 -1.4356  0.1138
  144MOL0     C19771   3.384  11.147  10.135  1.0701  0.8914 -0.7880
  144MOL0     C19772   3.527  11.150  10.183  0.2454 -0.5153 -0.6216
  144MOL0     C19773   3.545  11.259  10.290 -0.6647 -0.6351 -1.0061
  144MOL0     C19774   3.700  11.274  10.305  0.0398 -0.1629  0.0072
  144MOL0     C19775   3.738  11.385  10.399  0.1383  0.5525 -0.5068
  144MOL0     C19776   3.890  11.395  10.422  0.0139 -0.2452  0.2212
  144MOL0     C19777   3.983  11.463  10.320 -0.3890 -0.1165  0.5520
  144MOL0     C19778   3.940  11.608  10.290  0.4506 -0.0534 -0.0457
  144MOL0    Cl19779   4.075  11.670  10.188  0.0776 -0.3386 -0.1384
  144MOL0     C19780   3.094  11.119  10.105 -0.1433 -0.9681  0.2599
  144MOL0     C19781   2.959  11.128  10.094  0.3886 -0.4384 -0.6081
  144MOL0     O19782   2.695  10.969  10.155 -0.2258 -0.2089 -0.5453
  144MOL0     C19783   2.422  11.007  10.140  0.5244 -0.0955 -0.4947
  144MOL0     C19784   2.289  11.027  10.160  0.5794 -0.8134 -0.4427
  144MOL0     N19785   1.742  10.768  10.275  0.4198  0.1833  0.1202
  144MOL0     N19786   1.669  10.670  10.324  0.3227 -0.7434 -0.0458
  144MOL0     C19787   0.941  10.076  10.626  0.5979 -0.7696  0.4191
  144MOL0     C19788   0.851   9.996  10.550 -0.3008  0.4163 -0.8648
  144MOL0     C19789   0.704   9.627  10.315 -0.1034 -0.4768 -0.0961
  144MOL0     C19790   0.733   9.535  10.214  0.5111  0.2898 -0.4031
  144MOL0     C19791   0.632   9.476  10.140  0.6561  0.1987  0.4981
  144MOL0     C19792   0.499   9.510  10.151  0.6884  0.1087 -0.5553
  144MOL0     O19793   0.388   9.478  10.070  0.4473 -0.6383 -0.1310
  144MOL0     C19794   0.400   9.349   9.996  0.9112 -0.3915  0.2746
  144MOL0     C19795   0.263   9.311   9.932  0.7582  0.6550  1.1632
  144MOL0     C19796   0.271   9.183   9.837  0.7826 -0.6244  1.2418
  144MOL0     C19797   0.279   9.051   9.915  0.3317  0.9167  0.7952
  144MOL0     C19798   0.407   9.038   9.982 -0.0153  0.5544  0.5979
  144MOL0     C19799   0.520   9.005  10.012  0.2634  0.2306  0.4245
  144MOL0     C19800   0.472   9.600  10.250  0.0300 -0.1637  0.1854
  144MOL0     C19801   0.564   9.667  10.334 -0.5890 -0.5515  0.2499
  144MOL0     C19802   0.512   9.768  10.432  0.3613 -0.1640  0.7103
  144MOL0     H19803   1.004   9.694  10.656  1.5937  0.4936  1.6823
  144MOL0     H19804   1.113   9.834  10.782  0.4261 -1.3459 -1.2409
  144MOL0     H19805   1.284   9.977  10.770  2.4242  2.8231 -1.0519
  144MOL0     H19806   1.211   9.983  10.938 -2.3254  0.1667 -0.2037
  144MOL0     H19807   1.305  10.184  10.993  1.5994 -1.3544  1.5767
  144MOL0     H19808   1.427  10.100  10.917 -1.2849 -1.4266  1.9547
  144MOL0     H19809   1.391  10.225  10.699 -2.2051  0.2368 -0.1360
  144MOL0     H19810   1.252  10.292  10.762  0.4364  2.2121  2.5357
  144MOL0     H19811   1.367  10.408  10.951 -2.3364  1.9186 -2.5636
  144MOL0     H19812   1.521  10.324  10.901 -0.1472  1.7579  0.7332
  144MOL0     H19813   1.494  10.569  10.861  3.9061 -1.5302  1.0233
  144MOL0     H19814   1.383  10.530  10.719 -0.6663 -1.4295 -1.4609
  144MOL0     H19815   1.675  10.432  10.738 -0.2079 -2.8216 -1.3770
  144MOL0     H19816   1.567  10.400  10.618 -1.7497 -0.4997  1.2431
  144MOL0     H19817   1.735  10.583  10.577 -0.3330 -2.4049  0.7968
  144MOL0     H19818   1.659  10.677  10.703 -2.1545  0.6490  0.9258
  144MOL0     H19819   1.490  10.538  10.472  2.3852 -1.7613  1.0564
  144MOL0     H19820   1.431  10.692  10.548  0.9171  1.7926 -1.5554
  144MOL0     H19821   1.528  10.940  10.445  0.4191  1.6382 -2.7689
  144MOL0     H19822   1.636  11.071  10.241  0.0391 -1.7803 -1.0313
  144MOL0     H19823   1.786  11.003  10.183 -1.0523  1.9206 -1.8064
  144MOL0     H19824   1.814  11.202  10.337 -2.2384  0.0356 -0.5650
  144MOL0     H19825   1.739  11.107  10.468 -1.2977  2.0823 -0.7766
  144MOL0     H19826   1.983  11.086  10.504 -2.4174  0.4575  1.3852
  144MOL0     H19827   1.920  10.929  10.453 -2.6787 -1.0466 -2.3471
  144MOL0     H19828   2.119  10.951  10.319 -1.9139 -1.2604 -3.7364
  144MOL0     H19829   1.996  10.977  10.213 -2.5765 -0.6484  1.8202
  144MOL0     H19830   2.288  11.328  10.316  2.1838  0.7402 -0.0579
  144MOL0     H19831   2.582  11.405  10.256 -0.7602  1.9275  2.1098
  144MOL0     H19832   2.630  11.276  10.383 -2.2274 -4.0246 -0.3095
  144MOL0     H19833   2.497  11.389  10.403 -1.7753  0.1407 -0.5591
  144MOL0     H19834   2.876  11.202  10.412 -3.5916 -4.7632 -1.7456
  144MOL0     H19835   3.125  11.156  10.440  1.2748 -1.1795 -0.0536
  144MOL0     H19836   3.368  11.067  10.063 -0.8886 -0.7894  1.3475
  144MOL0     H19837   3.359  11.243  10.089 -1.6866  0.8747  0.4806
  144MOL0     H19838   3.543  11.050  10.223  0.1614  0.2460  1.4201
  144MOL0     H19839   3.596  11.165  10.099  3.1014  0.7413  1.7560
  144MOL0     H19840   3.502  11.230  10.386 -3.1257 -0.0989 -1.8755
  144MOL0     H19841   3.490  11.350  10.263 -0.7819 -0.2392  0.4701
  144MOL0     H19842   3.743  11.283  10.205  0.5469 -4.6210 -0.4040
  144MOL0     H19843   3.749  11.191  10.357  1.3376 -0.1998 -1.2225
  144MOL0     H19844   3.696  11.479  10.361 -0.3350 -0.3164 -2.2748
  144MOL0     H19845   3.689  11.367  10.495 -2.3473  1.5290 -1.4745
  144MOL0     H19846   3.923  11.293  10.444 -2.1328 -0.9620  0.3076
  144MOL0     H19847   3.896  11.461  10.508 -3.3600 -1.0832  1.2323
  144MOL0     H19848   4.003  11.404  10.230  5.2202  1.2946  0.5258
  144MOL0     H19849   4.083  11.474  10.363  0.8135 -0.9093 -1.8358
  144MOL0     H19850   3.934  11.665  10.383  0.5614 -1.1326  0.6362
  144MOL0     H19851   3.846  11.611  10.234  0.4621  2.0154 -0.0513
  144MOL0     H19852   3.145  11.068  10.024 -2.7420  1.3250 -3.1155
  144MOL0     H19853   2.920  11.105   9.995  2.6609 -2.3902 -1.1412
  144MOL0     H19854   2.456  10.907  10.116  2.7072  0.0988  1.3817
  144MOL0     H19855   2.218  10.962  10.110 -1.8085  1.8308 -0.7824
  144MOL0     H19856   0.936  10.185  10.621  3.9921 -0.5565 -0.4789
  144MOL0     H19857   0.776  10.040  10.485  0.6289  5.3143  0.9453
  144MOL0     H19858   0.835   9.503  10.196  0.9091  2.3052 -2.1309
  144MOL0     H19859   0.665   9.399  10.070  0.1364 -0.1127  0.5889
  144MOL0     H19860   0.477   9.348   9.919  1.4597  1.2156  0.7528
  144MOL0     H19861   0.429   9.278  10.074  1.7650 -0.0881  0.2365
  144MOL0     H19862   0.240   9.396   9.867  0.7852  0.3800  0.7886
  144MOL0     H19863   0.187   9.302  10.010 -2.2342 -0.0092 -1.6170
  144MOL0     H19864   0.184   9.169   9.772  1.4090  0.7096  0.0505
  144MOL0     H19865   0.361   9.196   9.776  0.1338  2.6129  0.8288
  144MOL0     H19866   0.264   8.972   9.842  1.2738  0.2020  1.3500
  144MOL0     H19867   0.202   9.041   9.992  0.9137  0.5467  1.3391
  144MOL0     H19868   0.617   8.972  10.044  1.0550  1.3782 -0.7146
  144MOL0     H19869   0.367   9.628  10.263 -0.1578  0.1017 -1.6446
  144MOL0     H19870   0.517   9.714  10.527  2.5185 -0.0653  0.7142
  144MOL0     H19871   0.573   9.859  10.425 -1.0869  0.6996 -2.0338
  144MOL0     H19872   0.412   9.798  10.400  1.1525  0.0421 -1.8135
  145MOL0     O19873   0.338   6.040   4.997  0.2168 -0.3278  0.7558
  145MOL0     C19874   0.387   6.098   5.095  0.0181 -0.2535 -0.5649
  145MOL0     O19875   0.464   6.205   5.092  0.2522  0.7811  0.1644
  145MOL0     C19876   0.500   6.259   4.971  0.0836 -1.5524 -1.1572
  145MOL0     C19877   0.630   6.305   4.956  0.1298 -0.3183 -0.3936
  145MOL0     C19878   0.666   6.378   4.848  1.0126 -0.0375  0.6503
  145MOL0     C19879   0.571   6.411   4.748  0.2500 -0.0019  0.0759
  145MOL0     O19880   0.610   6.497   4.646 -0.7375  0.0215 -0.8623
  145MOL0     C19881   0.568   6.485   4.513 -0.0076 -0.7757 -0.1669
  145MOL0     C19882   0.457   6.599   4.492  0.0496  0.6578 -0.5224
  145MOL0     C19883   0.534   6.734   4.490 -1.1672 -0.1475 -0.5032
  145MOL0     C19884   0.463   6.848   4.422  0.5695  0.0931 -0.4260
  145MOL0     C19885   0.558   6.963   4.399 -0.4886 -0.9272 -0.2201
  145MOL0     C19886   0.517   7.056   4.291 -0.0871 -1.5444 -0.4738
  145MOL0     C19887   0.374   7.125   4.326 -0.1711  0.4794 -0.3468
  145MOL0     C19888   0.327   7.201   4.205  0.4576  0.5409  0.0782
  145MOL0     N19889   0.198   7.279   4.221 -0.1700 -0.6291  0.0801
  145MOL0     C19890   0.085   7.253   4.301  0.2242  0.1026 -0.7195
  145MOL0     C19891   0.006   7.360   4.290 -0.1597 -0.1208 -0.1725
  145MOL0     C19892  -0.133   7.370   4.346 -0.2144  0.0064 -0.2862
  145MOL0     C19893  -0.238   7.328   4.253 -0.3967  0.0785 -0.2248
  145MOL0     C19894  -0.243   7.410   4.115  0.2812  0.2938 -0.6443
  145MOL0     C19895  -0.377   7.414   4.059 -0.5122  0.3084 -0.3249
  145MOL0     O19896  -0.455   7.498   4.139 -0.2156 -0.3555  0.3285
  145MOL0     C19897  -0.571   7.550   4.085  1.1496 -0.9071  0.6161
  145MOL0     C19898  -0.633   7.652   4.159  0.0326 -0.5024 -0.5973
  145MOL0     C19899  -0.754   7.708   4.122 -0.5730 -0.4198 -0.6986
  145MOL0     C19900  -0.813   7.798   4.223  0.4104 -0.0334  0.8143
  145MOL0     C19901  -0.803   7.679   3.994 -0.3420 -0.5667 -0.6317
  145MOL0     C19902  -0.942   7.707   3.947  0.0131 -0.1296  1.0525
  145MOL0     O19903  -0.978   7.701   3.813 -0.2790  0.2864 -0.2139
  145MOL0     C19904  -1.098   7.749   3.783 -0.4241 -0.4290  0.5093
  145MOL0     C19905  -1.126   7.890   3.802 -0.4409 -0.0451 -1.2429
  145MOL0     C19906  -1.250   7.933   3.776 -0.3848  0.0712  0.0190
  145MOL0     C19907  -1.346   7.849   3.717 -0.2060 -0.3244  0.5346
  145MOL0     O19908  -1.469   7.898   3.694 -0.0840 -0.3141  0.0406
  145MOL0     C19909  -1.551   7.839   3.588  1.2092  0.5152 -0.1713
  145MOL0     C19910  -1.500   7.857   3.442  0.1972 -0.0205  0.2140
  145MOL0     C19911  -1.624   7.858   3.367  1.0307 -0.4227  1.0311
  145MOL0     C19912  -1.589   7.891   3.215 -0.3405  0.6053 -0.1859
  145MOL0     C19913  -1.720   7.877   3.126 -0.6078 -0.7864 -0.6752
  145MOL0     C19914  -1.825   7.982   3.157 -0.3747 -0.3062  0.5555
  145MOL0     C19915  -1.781   8.127   3.139  0.0778 -0.0908 -0.0464
  145MOL0     C19916  -1.901   8.217   3.136 -0.4641 -0.2612  0.0891
  145MOL0    Cl19917  -1.870   8.381   3.109 -0.4989 -0.0196  0.1965
  145MOL0     C19918  -1.313   7.713   3.676 -0.2532  0.7901 -0.5018
  145MOL0     C19919  -1.186   7.665   3.714  0.4508 -0.6275  1.0047
  145MOL0     O19920  -1.020   7.723   4.038  0.0770  0.1980  0.0292
  145MOL0     C19921  -0.732   7.590   3.914 -0.5288 -0.1219 -0.5261
  145MOL0     C19922  -0.613   7.523   3.958  0.2577  0.5762  0.0006
  145MOL0     N19923   0.067   7.450   4.205 -0.8426 -0.5290  0.0745
  145MOL0     N19924   0.182   7.401   4.154  0.3678  0.6986  0.6108
  145MOL0     C19925   0.443   6.365   4.759  0.3840 -0.7836 -0.2600
  145MOL0     C19926   0.404   6.301   4.880  0.6080  0.5808  0.1673
  145MOL0     C19927   0.341   6.042   5.230  0.0960  0.2453  0.0642
  145MOL0     C19928   0.240   5.947   5.242 -0.0021  0.4086 -0.2575
  145MOL0     C19929   0.198   5.897   5.359  0.6564  0.2181 -0.7627
  145MOL0     C19930   0.255   5.927   5.479  0.0559 -0.3397  0.0376
  145MOL0     O19931   0.212   5.859   5.593 -0.0885  0.1814 -0.3598
  145MOL0     C19932   0.082   5.797   5.618  0.0865  0.7230 -0.5901
  145MOL0     C19933   0.031   5.873   5.740  0.1261 -0.4238 -0.6825
  145MOL0     C19934  -0.115   5.838   5.769 -0.0140  0.3451 -0.1002
  145MOL0     C19935  -0.168   5.906   5.891 -0.8690  0.1268 -0.0576
  145MOL0     C19936  -0.194   6.048   5.859  0.8990 -0.4920  0.6487
  145MOL0     C19937  -0.222   6.165   5.839  0.5887 -0.2894  0.3677
  145MOL0     C19938   0.363   6.019   5.473  0.0139 -0.3222 -0.8142
  145MOL0     C19939   0.405   6.071   5.349 -0.5120 -0.0431  0.9000
  145MOL0     C19940   0.513   6.177   5.357  0.4846 -0.6670  0.0300
  145MOL0     H19941   0.698   6.273   5.035 -0.7250 -2.6936 -0.5554
  145MOL0     H19942   0.770   6.410   4.852  0.7998  1.1747 -1.5812
  145MOL0     H19943   0.517   6.390   4.495 -1.2632  0.1878 -2.1039
  145MOL0     H19944   0.654   6.498   4.447 -1.1116 -1.0708 -1.7282
  145MOL0     H19945   0.392   6.589   4.405  1.7078 -0.6107 -1.6736
  145MOL0     H19946   0.388   6.593   4.577  0.8347 -0.4869  0.0611
  145MOL0     H19947   0.570   6.754   4.591  2.1124  0.9951 -1.7667
  145MOL0     H19948   0.627   6.728   4.434 -0.4273  2.9620  0.1706
  145MOL0     H19949   0.426   6.806   4.329 -1.0130  4.0860 -1.8105
  145MOL0     H19950   0.378   6.874   4.486  1.2905  0.6650  0.3382
  145MOL0     H19951   0.661   6.928   4.385 -0.1849  0.1236 -0.6794
  145MOL0     H19952   0.552   7.023   4.490 -2.3708  1.2366 -1.6648
  145MOL0     H19953   0.594   7.133   4.281  0.4162 -1.5607  2.4887
  145MOL0     H19954   0.515   7.001   4.197  2.2882  0.5959 -1.8985
  145MOL0     H19955   0.385   7.190   4.413  2.9321  0.7103 -0.7869
  145MOL0     H19956   0.311   7.038   4.349  0.0434  0.5053  0.3822
  145MOL0     H19957   0.404   7.273   4.177  0.4181  0.9758  1.0267
  145MOL0     H19958   0.307   7.129   4.126  2.1424  0.0865  0.0300
  145MOL0     H19959   0.067   7.158   4.351 -0.8230  0.9840  0.6518
  145MOL0     H19960  -0.149   7.472   4.381  1.0042 -0.0152  0.3821
  145MOL0     H19961  -0.130   7.301   4.431 -0.3919 -0.0278 -0.3075
  145MOL0     H19962  -0.218   7.223   4.231 -2.5299 -0.4453  0.0951
  145MOL0     H19963  -0.342   7.328   4.288 -0.0877 -0.2273  0.7337
  145MOL0     H19964  -0.193   7.507   4.124  2.2470 -0.8428  2.1812
  145MOL0     H19965  -0.183   7.350   4.047 -0.7274  0.7794 -2.0017
  145MOL0     H19966  -0.361   7.454   3.959 -1.0252  1.2955 -0.0179
  145MOL0     H19967  -0.417   7.312   4.057  0.2944 -0.0055 -1.7594
  145MOL0     H19968  -0.603   7.674   4.262 -2.3781 -0.5882  0.1891
  145MOL0     H19969  -0.827   7.898   4.181  0.0339 -0.5723 -0.3752
  145MOL0     H19970  -0.757   7.792   4.317  1.3941  1.6838  0.3814
  145MOL0     H19971  -0.919   7.775   4.242  0.7059 -2.5938 -0.2318
  145MOL0     H19972  -1.050   7.956   3.846 -0.4653  0.3862 -1.8404
  145MOL0     H19973  -1.273   8.035   3.803 -1.0116 -0.2629  0.7768
  145MOL0     H19974  -1.581   7.736   3.608 -1.7020  1.1737 -0.6779
  145MOL0     H19975  -1.641   7.896   3.611  0.7734 -0.4642  0.6012
  145MOL0     H19976  -1.464   7.960   3.434  0.9170 -0.4039 -3.5762
  145MOL0     H19977  -1.431   7.777   3.415  0.5527  0.6134 -0.8383
  145MOL0     H19978  -1.681   7.945   3.403 -1.6031 -2.4306  2.0654
  145MOL0     H19979  -1.697   7.777   3.373 -1.2562  1.5046  1.0469
  145MOL0     H19980  -1.517   7.812   3.190 -0.6743 -0.2398  1.3610
  145MOL0     H19981  -1.538   7.987   3.207  2.3247 -0.7346 -0.3826
  145MOL0     H19982  -1.689   7.889   3.022  0.5421 -0.6143 -0.3303
  145MOL0     H19983  -1.763   7.778   3.143 -1.7284 -0.3985 -1.1743
  145MOL0     H19984  -1.865   7.964   3.257  3.0118 -1.3365  1.8633
  145MOL0     H19985  -1.904   7.964   3.083 -0.3928  2.2767 -0.1555
  145MOL0     H19986  -1.725   8.136   3.046 -0.1561  0.1717 -0.1631
  145MOL0     H19987  -1.719   8.156   3.225 -1.3640  0.6854  0.7800
  145MOL0     H19988  -1.967   8.209   3.223 -1.6249 -1.0794 -0.8387
  145MOL0     H19989  -1.966   8.182   3.056  2.1789 -0.6420 -2.0469
  145MOL0     H19990  -1.382   7.643   3.630 -0.2261  0.3495  0.1114
  145MOL0     H19991  -1.144   7.569   3.685  0.2834  0.1899 -2.3354
  145MOL0     H19992  -0.763   7.571   3.811  1.1403  4.1576 -2.0569
  145MOL0     H19993  -0.572   7.470   3.872 -1.2208  2.4941 -2.0235
  145MOL0     H19994   0.373   6.391   4.680 -0.5169  2.0319  1.3431
  145MOL0     H19995   0.300   6.272   4.896 -0.4767  1.8482 -3.4277
  145MOL0     H19996   0.176   5.925   5.157  0.5911  2.8707 -1.4576
  145MOL0     H19997   0.105   5.841   5.371  2.1835 -2.1176  1.0830
  145MOL0     H19998   0.010   5.807   5.537 -1.2076 -0.9618  0.2664
  145MOL0     H19999   0.079   5.690   5.641  1.4878  0.3291 -2.1170
  145MOL0     H20000   0.050   5.981   5.734  1.8698 -0.6211  0.5028
  145MOL0     H20001   0.088   5.846   5.829 -5.4700 -2.1778  2.9215
  145MOL0     H20002  -0.186   5.865   5.690 -0.0594  0.3093 -0.0710
  145MOL0     H20003  -0.138   5.734   5.793 -0.7680  0.5931  0.2815
  145MOL0     H20004  -0.093   5.904   5.970  1.3555  1.3074 -1.9939
  145MOL0     H20005  -0.260   5.858   5.927 -0.6817 -2.6330 -2.7993
  145MOL0     H20006  -0.257   6.260   5.805  0.0006 -0.4524  0.5043
  145MOL0     H20007   0.419   6.055   5.559 -1.2148  0.7556 -0.4167
  145MOL0     H20008   0.596   6.168   5.286  0.0262 -3.3005 -0.2534
  145MOL0     H20009   0.454   6.268   5.346 -1.8819 -1.6985  2.8091
  145MOL0     H20010   0.557   6.194   5.456  3.1490  1.8170 -1.4137
  146MOL0     O20011   1.827   6.646  10.315 -0.9539  0.2605  0.2343
  146MOL0     C20012   1.919   6.700  10.380  0.5111  0.4888 -1.4667
  146MOL0     O20013   1.899   6.762  10.500  0.2528 -0.7089 -0.0989
  146MOL0     C20014   1.775   6.736  10.563 -0.6045  0.2432  0.1040
  146MOL0     C20015   1.649   6.793  10.527  0.4323 -0.5823  0.2084
  146MOL0     C20016   1.530   6.779  10.602  0.0367  0.4302  0.7984
  146MOL0     C20017   1.524   6.700  10.713 -0.3319  0.3555  0.3192
  146MOL0     O20018   1.411   6.691  10.795 -0.9205 -0.1484  0.5985
  146MOL0     C20019   1.417   6.783  10.900 -0.1138 -0.0035 -0.5673
  146MOL0     C20020   1.353   6.710  11.029 -1.2487  0.1642  0.1259
  146MOL0     C20021   1.309   6.806  11.138 -0.1111 -0.2302 -0.6807
  146MOL0     C20022   1.387   6.782  11.278  0.2875  0.3471  0.6680
  146MOL0     C20023   1.377   6.636  11.322  0.1844  0.4920 -0.7614
  146MOL0     C20024   1.408   6.624  11.472 -0.0720  0.2697  0.8170
  146MOL0     C20025   1.406   6.473  11.503 -1.6062 -0.1105 -0.2720
  146MOL0     C20026   1.447   6.461  11.649  0.2794  0.9011 -0.6148
  146MOL0     N20027   1.584   6.495  11.685 -0.4880  0.4357  0.1887
  146MOL0     C20028   1.713   6.444  11.644 -0.2612 -1.1421 -0.2255
  146MOL0     C20029   1.798   6.492  11.745  0.1583 -0.1237  0.4853
  146MOL0     C20030   1.944   6.486  11.737  0.5395  0.4808  0.3393
  146MOL0     C20031   2.020   6.501  11.867 -0.3146 -0.0331  0.1661
  146MOL0     C20032   2.172   6.453  11.852  0.0437 -0.8397 -0.0575
  146MOL0     C20033   2.232   6.397  11.974  0.3982 -0.2589 -0.9052
  146MOL0     O20034   2.225   6.489  12.086 -0.4630  0.4792 -0.1043
  146MOL0     C20035   2.303   6.599  12.096  0.3604  0.1254 -0.1302
  146MOL0     C20036   2.436   6.598  12.051 -0.3230  0.1982  0.5378
  146MOL0     C20037   2.522   6.707  12.065  1.1899  0.7113 -0.5344
  146MOL0     C20038   2.650   6.684  11.998 -0.6052  0.3821 -0.3470
  146MOL0     C20039   2.462   6.827  12.105  0.1882  0.1280  0.1569
  146MOL0     C20040   2.549   6.945  12.137  0.2399  0.2028 -0.2212
  146MOL0     O20041   2.681   6.943  12.116  0.3551  0.3397  0.6813
  146MOL0     C20042   2.760   7.049  12.132  0.1019 -0.1790 -0.5656
  146MOL0     C20043   2.843   7.089  12.023  0.3681  0.1016  0.1410
  146MOL0     C20044   2.933   7.193  12.040 -0.1374 -0.1364 -0.2715
  146MOL0     C20045   2.939   7.266  12.164 -0.2635 -0.9613 -0.0132
  146MOL0     O20046   3.045   7.348  12.199 -1.0758 -0.2376  0.0216
  146MOL0     C20047   3.158   7.344  12.109 -0.0323  1.0855 -0.3291
  146MOL0     C20048   3.268   7.433  12.166 -0.2020 -0.0312  0.3971
  146MOL0     C20049   3.323   7.384  12.298  0.4921  0.2677 -0.0444
  146MOL0     C20050   3.358   7.512  12.377 -0.4186  0.7469  0.1094
  146MOL0     C20051   3.431   7.479  12.507  0.2314  1.1481  0.6150
  146MOL0     C20052   3.460   7.597  12.590 -0.6705  0.1481 -0.4542
  146MOL0     C20053   3.523   7.566  12.728 -0.7089  0.6762 -0.5298
  146MOL0     C20054   3.660   7.496  12.717  0.8028 -0.7534 -0.0206
  146MOL0    Cl20055   3.775   7.605  12.646  0.1089  0.1025 -0.1875
  146MOL0     C20056   2.855   7.234  12.263 -0.3054  0.1615  0.0810
  146MOL0     C20057   2.763   7.119  12.252 -0.1241  0.1290 -0.4583
  146MOL0     O20058   2.486   7.046  12.169 -0.1612  0.4459  0.4887
  146MOL0     C20059   2.327   6.833  12.144  0.0029 -0.0467 -0.5379
  146MOL0     C20060   2.254   6.722  12.150  0.5115  0.5376  0.1835
  146MOL0     N20061   1.725   6.577  11.826  0.5148  0.8498 -0.5970
  146MOL0     N20062   1.600   6.574  11.797 -0.4063  0.9688  0.8175
  146MOL0     C20063   1.638   6.617  10.743  0.5366 -0.2995  0.2971
  146MOL0     C20064   1.761   6.643  10.673 -0.6768  0.3190  1.2519
  146MOL0     C20065   2.045   6.712  10.317 -0.0059 -0.1400  0.0495
  146MOL0     C20066   2.055   6.702  10.174  0.6010 -0.4689 -0.9190
  146MOL0     C20067   2.171   6.725  10.103  0.8822 -0.8346 -0.2036
  146MOL0     C20068   2.283   6.772  10.167  0.6837  0.6904  0.2185
  146MOL0     O20069   2.398   6.826  10.109  0.2226  0.7691 -0.4827
  146MOL0     C20070   2.419   6.805   9.976  0.5261  0.4445  0.0226
  146MOL0     C20071   2.555   6.878   9.936  0.4356 -0.0736 -0.8936
  146MOL0     C20072   2.687   6.809   9.982 -0.2042  0.0153 -0.7574
  146MOL0     C20073   2.715   6.815  10.134 -0.3547  0.2134  0.6989
  146MOL0     C20074   2.856   6.770  10.153  1.2702 -0.1187 -0.5501
  146MOL0     C20075   2.973   6.740  10.176 -0.6255  0.4676  0.4492
  146MOL0     C20076   2.284   6.773  10.306 -0.5184  1.1206 -0.7479
  146MOL0     C20077   2.165   6.747  10.384 -0.7945  0.3334 -0.8473
  146MOL0     C20078   2.185   6.738  10.539 -0.6001 -1.0962 -0.8682
  146MOL0     H20079   1.641   6.850  10.435  3.6270 -1.6640 -0.8603
  146MOL0     H20080   1.438   6.825  10.569  1.4739  2.8946 -0.0122
  146MOL0     H20081   1.357   6.872  10.877  0.5767  0.3920 -0.8437
  146MOL0     H20082   1.521   6.811  10.917  0.1235  0.5219 -2.6140
  146MOL0     H20083   1.273   6.654  10.980  0.3608  1.0164 -3.9130
  146MOL0     H20084   1.427   6.637  11.062 -1.0180  0.5852  0.5510
  146MOL0     H20085   1.298   6.912  11.112 -1.4447  0.0628  0.8899
  146MOL0     H20086   1.207   6.770  11.155 -0.1455 -0.8423 -2.0492
  146MOL0     H20087   1.488   6.813  11.250  0.3826  0.0654  0.7028
  146MOL0     H20088   1.350   6.849  11.356 -3.7406  1.4853 -1.9048
  146MOL0     H20089   1.438   6.569  11.260 -1.4499 -1.4417 -0.4179
  146MOL0     H20090   1.275   6.600  11.303 -1.2875  4.2975 -0.9895
  146MOL0     H20091   1.511   6.657  11.489  0.2250 -0.3213  0.2149
  146MOL0     H20092   1.328   6.673  11.527 -0.7068  2.5846 -1.9017
  146MOL0     H20093   1.475   6.420  11.437 -0.9403 -1.6876  1.5676
  146MOL0     H20094   1.308   6.429  11.485 -2.4204  1.0784  1.0671
  146MOL0     H20095   1.375   6.519  11.708  3.5863  3.6874  1.0266
  146MOL0     H20096   1.434   6.359  11.687  0.8318  1.4938  1.3129
  146MOL0     H20097   1.739   6.380  11.560  0.0628 -0.3664 -0.7277
  146MOL0     H20098   1.992   6.552  11.663  0.1346  0.0926 -0.2745
  146MOL0     H20099   1.964   6.386  11.699  0.3801  0.4974  0.2098
  146MOL0     H20100   2.024   6.608  11.890 -1.7681  0.6149 -2.1545
  146MOL0     H20101   1.983   6.442  11.951  3.1534 -0.5529  1.4762
  146MOL0     H20102   2.184   6.377  11.775 -0.9590  2.0850 -3.3696
  146MOL0     H20103   2.226   6.542  11.817 -2.6573  1.5369  1.3156
  146MOL0     H20104   2.175   6.308  12.005  1.1393 -0.7559 -0.9532
  146MOL0     H20105   2.334   6.365  11.951  1.4918  0.7760  2.0521
  146MOL0     H20106   2.472   6.505  12.008 -1.0923  0.3477 -0.4718
  146MOL0     H20107   2.692   6.782  11.972  0.5186  0.1983  0.6530
  146MOL0     H20108   2.644   6.631  11.902  2.7290 -1.5598  0.3365
  146MOL0     H20109   2.724   6.634  12.061 -1.6674 -1.8178 -0.7652
  146MOL0     H20110   2.861   7.033  11.932  1.4724  1.2259 -0.3499
  146MOL0     H20111   2.998   7.226  11.960  1.4461 -0.7963  0.6668
  146MOL0     H20112   3.175   7.238  12.094 -2.2739  0.7566 -0.9836
  146MOL0     H20113   3.120   7.393  12.019 -2.8143  0.4446  0.3873
  146MOL0     H20114   3.362   7.442  12.110  0.5676 -2.5695  1.1852
  146MOL0     H20115   3.218   7.530  12.181  1.6961  1.1715 -0.6322
  146MOL0     H20116   3.411   7.323  12.276  0.2939 -1.5091  3.3956
  146MOL0     H20117   3.253   7.322  12.356  0.8018  1.9258  2.2421
  146MOL0     H20118   3.271   7.576  12.398 -2.0171 -0.8909 -1.2808
  146MOL0     H20119   3.419   7.582  12.319 -3.1577  4.1480  0.9949
  146MOL0     H20120   3.363   7.416  12.566  0.4979 -0.3568 -0.6172
  146MOL0     H20121   3.525   7.425  12.490 -0.4716  0.3086 -0.7794
  146MOL0     H20122   3.366   7.651  12.610 -0.9698 -0.7007  0.5291
  146MOL0     H20123   3.534   7.652  12.532 -1.1793  0.7742 -0.5200
  146MOL0     H20124   3.460   7.496  12.782 -0.9989  0.7631 -0.7536
  146MOL0     H20125   3.537   7.658  12.786 -1.9035  1.8004 -1.9354
  146MOL0     H20126   3.657   7.398  12.667  2.0919  0.3889 -2.5281
  146MOL0     H20127   3.698   7.472  12.816 -1.3293 -2.1051  0.5358
  146MOL0     H20128   2.855   7.297  12.352 -1.9606  0.3713 -0.0318
  146MOL0     H20129   2.705   7.097  12.341 -1.2241  0.4553 -1.0750
  146MOL0     H20130   2.281   6.924  12.180 -0.9021 -0.8546  0.3837
  146MOL0     H20131   2.149   6.722  12.180 -0.0938 -1.4890 -1.6699
  146MOL0     H20132   1.631   6.543  10.822  1.0072 -2.8810 -1.9485
  146MOL0     H20133   1.843   6.574  10.690 -3.2481 -3.0053  1.2536
  146MOL0     H20134   1.966   6.680  10.116 -1.7333  1.1406  1.8370
  146MOL0     H20135   2.164   6.704   9.997  0.7232 -0.8692 -0.1877
  146MOL0     H20136   2.417   6.703   9.935  0.6293  0.7205 -0.6922
  146MOL0     H20137   2.336   6.861   9.931  0.2197 -1.5595 -2.1221
  146MOL0     H20138   2.547   6.981   9.972 -3.9290 -0.2251 -0.9800
  146MOL0     H20139   2.559   6.874   9.827 -1.2877 -3.6667 -0.9630
  146MOL0     H20140   2.671   6.703   9.962  1.0240 -0.1312 -1.0583
  146MOL0     H20141   2.775   6.845   9.928  0.3042  1.3893  0.9061
  146MOL0     H20142   2.663   6.746  10.202 -2.1811  2.9817  2.2807
  146MOL0     H20143   2.684   6.914  10.168 -2.1461  0.2732 -0.9752
  146MOL0     H20144   3.077   6.721  10.185 -0.9919 -1.3605  1.1875
  146MOL0     H20145   2.380   6.795  10.350  0.5918 -1.5962 -1.5772
  146MOL0     H20146   2.108   6.676  10.587 -1.0183  0.7160  0.9608
  146MOL0     H20147   2.274   6.680  10.564 -2.3075 -2.5851  2.5154
  146MOL0     H20148   2.175   6.830  10.597 -0.9881 -1.8273  0.2527
  147MOL0     O20149   4.351   8.668   0.931  0.1682  0.2751 -0.9961
  147MOL0     C20150   4.356   8.788   0.933  0.1763  0.5009 -0.2759
  147MOL0     O20151   4.350   8.862   1.046 -0.7644  0.1392 -0.1319
  147MOL0     C20152   4.371   8.794   1.163 -0.2155  0.1161 -0.2449
  147MOL0     C20153   4.494   8.744   1.206  0.3947 -0.0255  0.1854
  147MOL0     C20154   4.504   8.682   1.337  0.1184  0.4450  1.0255
  147MOL0     C20155   4.387   8.669   1.414 -0.2045 -0.2016 -0.1750
  147MOL0     O20156   4.393   8.597   1.533 -0.2359 -0.2862  0.0560
  147MOL0     C20157   4.345   8.464   1.514 -0.5719 -0.6136  0.9723
  147MOL0     C20158   4.219   8.460   1.610  0.0665  0.1792  0.9402
  147MOL0     C20159   4.153   8.322   1.613  0.2658 -0.1558  0.3819
  147MOL0     C20160   4.113   8.269   1.474 -0.9107 -0.7720 -0.0629
  147MOL0     C20161   4.034   8.144   1.480 -0.1580  0.5684  0.3644
  147MOL0     C20162   4.013   8.065   1.354  0.2103  1.5197  0.3945
  147MOL0     C20163   3.895   7.966   1.358 -0.0394 -0.2611 -0.6544
  147MOL0     C20164   3.931   7.832   1.427 -0.5267 -0.4824  0.3592
  147MOL0     N20165   3.934   7.835   1.576  0.0097 -0.2070  0.2603
  147MOL0     C20166   3.853   7.901   1.662  0.4355  1.0248  0.4572
  147MOL0     C20167   3.918   7.903   1.779  0.4136 -0.5751  0.1840
  147MOL0     C20168   3.856   7.988   1.890 -0.5669 -0.5296 -0.5046
  147MOL0     C20169   3.871   8.139   1.852 -0.6304  0.5585 -0.3518
  147MOL0     C20170   3.824   8.237   1.962  0.0456 -0.0258 -0.7239
  147MOL0     C20171   3.859   8.384   1.926  0.3141  0.3898  0.6187
  147MOL0     O20172   3.997   8.398   1.958 -0.1965  0.1575  0.6869
  147MOL0     C20173   4.070   8.515   1.932  0.6790  0.8131 -0.8130
  147MOL0     C20174   4.017   8.621   1.861 -0.0311 -0.0933 -0.6132
  147MOL0     C20175   4.084   8.741   1.847  0.3017 -0.0413 -0.9777
  147MOL0     C20176   4.005   8.858   1.781  0.3244  1.6320  0.8491
  147MOL0     C20177   4.218   8.754   1.899  0.0586  0.0792 -0.2702
  147MOL0     C20178   4.300   8.863   1.861 -0.8619 -0.1477 -0.5118
  147MOL0     O20179   4.301   8.895   1.728  0.6152 -0.3961 -0.4176
  147MOL0     C20180   4.340   9.026   1.703  0.1866 -0.5012  0.7408
  147MOL0     C20181   4.478   9.059   1.700 -0.3850 -0.3399 -0.2976
  147MOL0     C20182   4.518   9.188   1.653  0.2740 -1.0735 -0.0803
  147MOL0     C20183   4.421   9.291   1.620 -0.0547  0.2074 -0.2900
  147MOL0     O20184   4.469   9.420   1.589 -0.4863  0.7136 -0.7514
  147MOL0     C20185   4.381   9.529   1.569  0.7439 -0.2756 -0.7608
  147MOL0     C20186   4.453   9.650   1.501  0.2809  0.8325 -0.9070
  147MOL0     C20187   4.357   9.758   1.483 -0.3224 -0.0306  0.8101
  147MOL0     C20188   4.418   9.885   1.420 -0.0626 -0.0635  0.5869
  147MOL0     C20189   4.497   9.981   1.508 -0.4045  0.0555  0.5117
  147MOL0     C20190   4.649   9.964   1.498 -0.2854  0.0696  1.1059
  147MOL0     C20191   4.707  10.027   1.371  0.6583  0.2665 -0.0837
  147MOL0     C20192   4.861  10.020   1.359 -0.9398  0.5330 -0.7789
  147MOL0    Cl20193   4.920  10.021   1.188  0.0023  0.1393 -0.5455
  147MOL0     C20194   4.283   9.261   1.647  0.2136  0.6856  0.2319
  147MOL0     C20195   4.244   9.129   1.675 -0.1332  0.2829  0.3428
  147MOL0     O20196   4.376   8.910   1.949  0.9344 -0.3723  0.1622
  147MOL0     C20197   4.275   8.640   1.968 -0.7567  0.3641  0.6546
  147MOL0     C20198   4.194   8.531   2.001 -0.4923  1.1060  0.5507
  147MOL0     N20199   4.049   7.863   1.762  0.3122 -0.2445 -0.0731
  147MOL0     N20200   4.055   7.818   1.641  0.3056 -0.0479  0.1737
  147MOL0     C20201   4.274   8.738   1.383  0.0006  0.9147 -0.1687
  147MOL0     C20202   4.264   8.789   1.256  0.3583  0.4906  0.5496
  147MOL0     C20203   4.388   8.859   0.811 -0.3345 -0.8721  0.1742
  147MOL0     C20204   4.438   8.993   0.811 -0.1858  0.0112  0.1196
  147MOL0     C20205   4.505   9.050   0.706  1.1949 -0.1528 -0.3606
  147MOL0     C20206   4.507   8.984   0.583 -0.4059  0.2585  0.5067
  147MOL0     O20207   4.575   9.031   0.473  0.1045  0.6606  0.6771
  147MOL0     C20208   4.619   9.161   0.457  0.5783  0.1661 -0.0924
  147MOL0     C20209   4.657   9.186   0.312 -0.0506  0.2605  0.4701
  147MOL0     C20210   4.806   9.140   0.291  0.7232  0.2013  0.1801
  147MOL0     C20211   4.894   9.259   0.316 -0.9805 -0.0818  1.2995
  147MOL0     C20212   4.872   9.376   0.225 -0.0106  0.2837 -0.2684
  147MOL0     C20213   4.854   9.450   0.130  0.8527 -0.6161  0.0744
  147MOL0     C20214   4.436   8.864   0.572 -0.8714 -0.8169  0.1527
  147MOL0     C20215   4.377   8.796   0.683 -0.5380 -0.5280 -0.2051
  147MOL0     C20216   4.320   8.658   0.648 -0.1447  0.0426  0.3708
  147MOL0     H20217   4.583   8.738   1.145 -0.4813 -1.7034 -1.0180
  147MOL0     H20218   4.602   8.645   1.367 -0.3731 -0.5204  1.4884
  147MOL0     H20219   4.414   8.387   1.550 -1.2127 -0.0322  3.7418
  147MOL0     H20220   4.320   8.446   1.409 -1.6623  1.8737  0.7292
  147MOL0     H20221   4.259   8.471   1.711 -1.8678  0.4370  1.7280
  147MOL0     H20222   4.145   8.537   1.585 -0.7200 -1.0200 -0.6151
  147MOL0     H20223   4.217   8.245   1.657 -0.5602 -0.3324  1.3032
  147MOL0     H20224   4.065   8.342   1.674 -0.0363  2.4913 -0.8123
  147MOL0     H20225   4.072   8.356   1.422  1.4869  0.1108 -0.5939
  147MOL0     H20226   4.205   8.245   1.419  0.0366  2.1965  0.0230
  147MOL0     H20227   3.939   8.183   1.518 -1.2456 -1.2090 -0.3966
  147MOL0     H20228   4.082   8.078   1.552  2.6162 -1.3017 -2.9060
  147MOL0     H20229   4.003   8.126   1.264  3.1616 -0.2770 -1.3208
  147MOL0     H20230   4.103   8.007   1.330  0.6575  2.8165 -1.2380
  147MOL0     H20231   3.862   7.939   1.257 -1.1057 -2.2587  0.1743
  147MOL0     H20232   3.812   8.013   1.412  3.7332  2.7766  3.1900
  147MOL0     H20233   3.858   7.754   1.401  1.0270 -2.0875  0.6029
  147MOL0     H20234   4.028   7.805   1.385  0.9637  3.9281  0.4580
  147MOL0     H20235   3.756   7.942   1.637 -0.6478 -1.6558 -0.0779
  147MOL0     H20236   3.913   7.962   1.979  3.1560  1.7087 -1.9750
  147MOL0     H20237   3.749   7.968   1.901 -1.0613  2.1949  0.2283
  147MOL0     H20238   3.980   8.148   1.851 -0.4653  1.5391  4.1528
  147MOL0     H20239   3.812   8.170   1.766 -0.8437  2.8508  0.5480
  147MOL0     H20240   3.719   8.230   1.991  0.0829 -1.7937 -0.9188
  147MOL0     H20241   3.882   8.213   2.052  0.6047 -0.1700 -1.1183
  147MOL0     H20242   3.835   8.411   1.822  0.1467  2.1406  1.0742
  147MOL0     H20243   3.795   8.450   1.985  0.3239 -0.0642  1.1427
  147MOL0     H20244   3.927   8.606   1.802 -1.5557 -0.3977  1.6563
  147MOL0     H20245   4.050   8.951   1.815  1.8924  1.3894 -0.4774
  147MOL0     H20246   3.899   8.852   1.809  0.0136 -0.1735 -0.5642
  147MOL0     H20247   4.014   8.856   1.672  0.2353 -1.1167  0.8070
  147MOL0     H20248   4.550   8.979   1.716  3.8954  2.7740 -2.1232
  147MOL0     H20249   4.625   9.203   1.638 -0.0177  0.0175 -1.3163
  147MOL0     H20250   4.285   9.498   1.526 -1.7893 -0.3523  4.1062
  147MOL0     H20251   4.347   9.580   1.660 -2.6516  1.7073 -2.9111
  147MOL0     H20252   4.539   9.682   1.561 -0.4331 -1.0997  1.2891
  147MOL0     H20253   4.486   9.609   1.406 -2.7640 -1.3471 -1.1586
  147MOL0     H20254   4.329   9.797   1.582  0.0246  0.4557  0.7200
  147MOL0     H20255   4.266   9.726   1.431 -1.3113 -0.3754  2.6656
  147MOL0     H20256   4.332   9.945   1.389  1.2207  0.5543 -2.0685
  147MOL0     H20257   4.473   9.862   1.328  0.7452 -0.5245  1.1651
  147MOL0     H20258   4.460  10.083   1.492  1.6568  0.7296 -0.3410
  147MOL0     H20259   4.479   9.946   1.610  2.5293 -2.9864  0.1518
  147MOL0     H20260   4.677   9.858   1.509 -0.9955 -0.5993 -2.2880
  147MOL0     H20261   4.701  10.012   1.581  1.7302  1.8119 -1.0356
  147MOL0     H20262   4.680  10.133   1.377  1.0601  0.2822  3.1411
  147MOL0     H20263   4.663   9.989   1.278  0.4945 -0.8379  0.4297
  147MOL0     H20264   4.902   9.935   1.414  0.6174  1.2605 -0.7757
  147MOL0     H20265   4.903  10.101   1.418  0.3458  0.1028 -1.0623
  147MOL0     H20266   4.217   9.348   1.640  0.0572  0.4859 -0.9509
  147MOL0     H20267   4.139   9.100   1.677  0.6780 -2.9246  1.8838
  147MOL0     H20268   4.380   8.647   1.994 -0.1226  2.7551 -2.0885
  147MOL0     H20269   4.228   8.451   2.067 -0.7885 -0.8194 -1.4971
  147MOL0     H20270   4.191   8.733   1.453  1.5996 -1.3091  1.7454
  147MOL0     H20271   4.168   8.830   1.224  1.4703  1.4192 -1.8516
  147MOL0     H20272   4.430   9.050   0.903  1.7389  0.1923  0.2221
  147MOL0     H20273   4.539   9.152   0.717 -1.1249  0.7656 -1.1882
  147MOL0     H20274   4.533   9.224   0.479  0.4769  0.5484 -1.4686
  147MOL0     H20275   4.699   9.188   0.526 -1.6605  0.2418  2.6428
  147MOL0     H20276   4.631   9.288   0.283 -3.6131 -0.0041  2.1721
  147MOL0     H20277   4.599   9.122   0.245  1.2434  0.0004 -0.4303
  147MOL0     H20278   4.828   9.056   0.358 -0.6621 -0.8347 -0.6130
  147MOL0     H20279   4.821   9.103   0.190 -2.1666 -0.0819 -0.2128
  147MOL0     H20280   5.001   9.235   0.311 -1.1745 -0.9488  1.1989
  147MOL0     H20281   4.886   9.291   0.420  0.8347 -0.2227  1.5145
  147MOL0     H20282   4.831   9.514   0.047 -0.4352 -1.0302  0.0928
  147MOL0     H20283   4.435   8.830   0.469  1.9544 -0.3271 -0.1016
  147MOL0     H20284   4.367   8.582   0.711 -0.2495  0.2942  0.7566
  147MOL0     H20285   4.214   8.647   0.676  0.5958 -3.3615  2.5191
  147MOL0     H20286   4.328   8.630   0.543 -2.5288 -0.1650  0.1873
  148MOL0     O20287   4.201   8.989   6.118 -0.0936 -0.3260  0.0339
  148MOL0     C20288   4.146   8.886   6.159 -0.4555  0.1997 -0.3030
  148MOL0     O20289   4.069   8.810   6.081  0.3699  0.2107 -0.0659
  148MOL0     C20290   4.046   8.864   5.958  0.0081  0.8919 -0.0646
  148MOL0     C20291   3.942   8.957   5.936  0.4092 -0.6885  0.1260
  148MOL0     C20292   3.928   8.992   5.801 -0.3596 -0.2187  0.5361
  148MOL0     C20293   4.010   8.947   5.691 -0.0847  0.1948  0.1025
  148MOL0     O20294   3.991   8.998   5.571  0.1557 -0.2383 -0.2177
  148MOL0     C20295   4.027   8.915   5.462 -0.1326  0.2264 -0.3502
  148MOL0     C20296   4.008   8.976   5.326  0.2429 -0.3906 -0.6339
  148MOL0     C20297   4.140   9.040   5.273 -0.1834  0.6645 -0.5860
  148MOL0     C20298   4.129   9.139   5.164  0.1350  0.0169  0.0347
  148MOL0     C20299   4.257   9.180   5.092  1.3144  0.1059  0.2778
  148MOL0     C20300   4.364   9.245   5.191  0.5402  0.4411 -0.4538
  148MOL0     C20301   4.470   9.316   5.113 -0.4326  0.2080  0.2231
  148MOL0     C20302   4.536   9.234   5.004 -0.8273  0.4548  0.2589
  148MOL0     N20303   4.642   9.292   4.914  0.2214 -0.3238 -0.8045
  148MOL0     C20304   4.719   9.402   4.951 -0.3610 -0.2851 -0.3226
  148MOL0     C20305   4.818   9.405   4.861  1.4046  0.1543 -0.8171
  148MOL0     C20306   4.938   9.487   4.878  0.1084 -0.2419  0.2670
  148MOL0     C20307   5.040   9.407   4.960 -0.2698  0.1389  0.1028
  148MOL0     C20308   5.146   9.496   5.028 -0.2393 -0.4780 -0.3243
  148MOL0     C20309   5.089   9.587   5.131  0.4511 -0.7307  0.1170
  148MOL0     O20310   5.205   9.636   5.202 -0.3804  0.4300  0.0288
  148MOL0     C20311   5.247   9.769   5.213 -0.8038  0.1889  1.0338
  148MOL0     C20312   5.364   9.802   5.277 -0.8537  0.5616  0.5400
  148MOL0     C20313   5.420   9.936   5.268 -0.5107  0.1438  0.2108
  148MOL0     C20314   5.560   9.948   5.319 -0.5318  0.4833  0.1135
  148MOL0     C20315   5.345  10.039   5.219  0.1578 -0.9480 -0.9590
  148MOL0     C20316   5.405  10.161   5.170  0.0443  0.2803 -0.1051
  148MOL0     O20317   5.509  10.135   5.078 -0.7023 -0.1243 -0.7394
  148MOL0     C20318   5.590  10.249   5.063 -0.1735  0.9608 -0.2531
  148MOL0     C20319   5.691  10.271   5.155  0.4158 -0.4569 -0.4349
  148MOL0     C20320   5.788  10.363   5.124  0.3000 -0.6843  0.2077
  148MOL0     C20321   5.782  10.432   5.006 -0.3694  0.1680 -0.3084
  148MOL0     O20322   5.883  10.512   4.982  0.4885  0.2723  0.1383
  148MOL0     C20323   5.848  10.654   4.963 -0.1050 -0.2051 -0.5162
  148MOL0     C20324   5.958  10.749   5.026 -0.4890  0.6185 -0.7480
  148MOL0     C20325   6.033  10.688   5.151  0.0736 -0.9550 -0.6967
  148MOL0     C20326   6.108  10.793   5.237 -0.4899  0.0936  0.1015
  148MOL0     C20327   6.234  10.808   5.154 -0.3776 -0.2400  0.9475
  148MOL0     C20328   6.323  10.921   5.200 -1.0212  0.1485  1.1669
  148MOL0     C20329   6.268  11.062   5.186  0.9371  0.1773 -0.6009
  148MOL0     C20330   6.357  11.166   5.260 -0.5240 -0.6630  0.0967
  148MOL0    Cl20331   6.522  11.171   5.193  0.3667  0.0378  0.2484
  148MOL0     C20332   5.683  10.409   4.917 -0.1387  0.2378 -0.3337
  148MOL0     C20333   5.585  10.317   4.944 -0.5990 -0.3701 -0.8312
  148MOL0     O20334   5.360  10.270   5.210  0.2618  0.0718 -0.6005
  148MOL0     C20335   5.217  10.011   5.184 -0.2752  0.0344  0.3019
  148MOL0     C20336   5.158   9.877   5.190  0.0041  0.1218 -0.1456
  148MOL0     N20337   4.797   9.301   4.772 -0.7051 -0.8314  0.0984
  148MOL0     N20338   4.689   9.236   4.807 -0.2556  1.0844  1.0267
  148MOL0     C20339   4.113   8.858   5.724 -0.4737  0.5763  0.3248
  148MOL0     C20340   4.130   8.826   5.859  0.6507 -0.2647  0.0702
  148MOL0     C20341   4.188   8.834   6.296  0.9064 -0.9040 -0.4224
  148MOL0     C20342   4.320   8.808   6.334 -0.5141 -0.1815 -0.8521
  148MOL0     C20343   4.355   8.774   6.471 -0.2795 -0.1821  0.2651
  148MOL0     C20344   4.253   8.742   6.570  0.5416 -0.8198 -0.2203
  148MOL0     O20345   4.298   8.717   6.697 -0.4866  1.0614 -0.0196
  148MOL0     C20346   4.212   8.717   6.815  0.2682  0.1382  0.0889
  148MOL0     C20347   4.273   8.677   6.943  0.3233  0.0335 -0.0375
  148MOL0     C20348   4.307   8.526   6.933  0.0992  0.1198  0.8543
  148MOL0     C20349   4.312   8.452   7.076  0.4172 -0.7806  0.2283
  148MOL0     C20350   4.179   8.445   7.130  1.4288 -0.8228  0.1758
  148MOL0     C20351   4.066   8.432   7.172 -0.4538 -0.6273 -0.1281
  148MOL0     C20352   4.123   8.753   6.522 -0.4263  0.2286  0.0645
  148MOL0     C20353   4.091   8.798   6.394 -0.2408  0.3203  0.6890
  148MOL0     C20354   3.945   8.829   6.377 -0.6168  0.2277  0.8423
  148MOL0     H20355   3.858   8.986   5.997 -0.1169 -0.8393 -0.5200
  148MOL0     H20356   3.850   9.062   5.773  0.0437  0.2381  0.5395
  148MOL0     H20357   3.976   8.818   5.467  3.5819 -1.8245  1.5233
  148MOL0     H20358   4.132   8.888   5.469  0.1274  0.2088 -3.3645
  148MOL0     H20359   3.989   8.904   5.246  2.0037 -2.5507  0.7962
  148MOL0     H20360   3.925   9.047   5.334  1.6486  1.4955 -1.9670
  148MOL0     H20361   4.194   9.088   5.356  0.9675  0.6501 -1.3068
  148MOL0     H20362   4.206   8.960   5.239  1.9097  0.9913  2.3371
  148MOL0     H20363   4.069   9.108   5.078  0.7683  0.8331 -0.7271
  148MOL0     H20364   4.082   9.227   5.209 -3.1763 -1.5093 -0.1999
  148MOL0     H20365   4.226   9.261   5.025  0.9026 -0.5101 -0.2788
  148MOL0     H20366   4.291   9.081   5.059 -1.2374 -0.7612  0.0506
  148MOL0     H20367   4.310   9.306   5.264 -3.4767 -0.9853 -1.9591
  148MOL0     H20368   4.408   9.162   5.245 -1.0393 -0.6417 -0.7636
  148MOL0     H20369   4.548   9.341   5.186  0.3358 -3.0210  0.6925
  148MOL0     H20370   4.441   9.415   5.076  0.7820 -0.2427 -2.1417
  148MOL0     H20371   4.574   9.137   5.038  0.5156  0.2370 -1.7190
  148MOL0     H20372   4.452   9.227   4.933 -0.2770  1.2350 -0.4914
  148MOL0     H20373   4.722   9.441   5.052  1.9478  1.7820 -1.0786
  148MOL0     H20374   4.920   9.592   4.902  1.0788  0.2027 -0.9021
  148MOL0     H20375   4.968   9.500   4.774 -0.4784 -1.5632 -0.0982
  148MOL0     H20376   4.987   9.361   5.044  1.9795  2.3160  2.9125
  148MOL0     H20377   5.095   9.329   4.908  0.3259  0.6721 -0.0771
  148MOL0     H20378   5.212   9.426   5.080 -0.2517  0.1473  0.5471
  148MOL0     H20379   5.205   9.552   4.954  1.4977 -0.7848  0.7715
  148MOL0     H20380   5.026   9.652   5.070 -1.5213 -1.9417  0.7440
  148MOL0     H20381   5.019   9.539   5.200  0.0236 -0.9339 -0.4448
  148MOL0     H20382   5.423   9.718   5.312 -2.3225 -1.6531 -1.9798
  148MOL0     H20383   5.633   9.945   5.237  1.5403  2.7123  1.7288
  148MOL0     H20384   5.597   9.883   5.399  3.2765  1.9032 -0.2933
  148MOL0     H20385   5.584  10.045   5.362  2.9705 -1.3481  2.8182
  148MOL0     H20386   5.709  10.219   5.249 -0.7444  1.7416  1.0669
  148MOL0     H20387   5.868  10.368   5.197 -0.3375  0.8434  0.8347
  148MOL0     H20388   5.849  10.677   4.856  2.2325 -1.2267 -0.7713
  148MOL0     H20389   5.746  10.681   4.993 -0.3786  0.4161 -1.9356
  148MOL0     H20390   6.031  10.752   4.945 -1.1040  0.3531 -1.3273
  148MOL0     H20391   5.914  10.846   5.049 -0.2846  0.1438  1.9717
  148MOL0     H20392   6.113  10.618   5.123  2.4315  1.8539 -1.5318
  148MOL0     H20393   5.964  10.629   5.211  0.3091 -1.1342 -0.5972
  148MOL0     H20394   6.132  10.754   5.336 -2.6062  0.4915  0.8200
  148MOL0     H20395   6.053  10.887   5.252  1.3180  0.7948  3.2490
  148MOL0     H20396   6.285  10.712   5.161 -1.0461 -0.7244 -0.4950
  148MOL0     H20397   6.211  10.820   5.048 -1.3172 -1.2164  1.0211
  148MOL0     H20398   6.411  10.915   5.135  0.1042  0.9303  2.5571
  148MOL0     H20399   6.353  10.893   5.301 -1.3051  1.6587  1.6867
  148MOL0     H20400   6.166  11.077   5.222  1.2124  1.7431 -0.4001
  148MOL0     H20401   6.256  11.086   5.080 -0.4669  2.0933 -0.0760
  148MOL0     H20402   6.373  11.131   5.363  2.3310 -0.1300 -0.0992
  148MOL0     H20403   6.310  11.264   5.247  2.7821  0.9607 -0.5918
  148MOL0     H20404   5.680  10.448   4.816 -0.2981  0.9916 -0.0464
  148MOL0     H20405   5.509  10.299   4.868 -1.8854  0.1653  0.2957
  148MOL0     H20406   5.153  10.094   5.156  0.4845  0.7454  0.6254
  148MOL0     H20407   5.055   9.853   5.167 -0.0562  0.0422  0.2135
  148MOL0     H20408   4.179   8.809   5.653 -0.6464  0.7994  0.0065
  148MOL0     H20409   4.213   8.774   5.905 -1.2419 -2.3483  1.3499
  148MOL0     H20410   4.399   8.816   6.260  0.4495  0.8601  0.2459
  148MOL0     H20411   4.460   8.767   6.495 -0.0426 -0.6542 -0.8383
  148MOL0     H20412   4.180   8.820   6.834 -0.3764 -0.7533  5.8647
  148MOL0     H20413   4.123   8.659   6.788  1.1443 -0.3594 -1.9056
  148MOL0     H20414   4.197   8.705   7.017  0.6082 -0.3834  0.4162
  148MOL0     H20415   4.366   8.731   6.964 -1.1926  2.3581  1.0916
  148MOL0     H20416   4.239   8.479   6.862  2.1156 -1.5718 -0.0944
  148MOL0     H20417   4.404   8.522   6.883 -0.6826  0.4175 -0.7520
  148MOL0     H20418   4.384   8.502   7.142  0.1941  1.3550 -1.0425
  148MOL0     H20419   4.332   8.345   7.064  1.1363 -0.8786  1.9771
  148MOL0     H20420   3.964   8.432   7.205 -0.2842 -0.1271  0.4047
  148MOL0     H20421   4.040   8.740   6.591 -1.7289  1.6359 -1.1805
  148MOL0     H20422   3.893   8.844   6.472 -0.8669  2.2981  0.4367
  148MOL0     H20423   3.932   8.927   6.330  1.6748  2.3215  4.1677
  148MOL0     H20424   3.900   8.762   6.302  0.2776  2.8756 -2.3235
  149MOL0     O20425   7.920   2.106   3.621 -1.1002  0.3262 -0.6091
  149MOL0     C20426   8.028   2.109   3.574 -1.0041 -0.0757  0.3884
  149MOL0     O20427   8.130   2.049   3.638 -0.2877 -0.6302  0.2531
  149MOL0     C20428   8.114   1.947   3.734  0.6472 -0.1748  0.0029
  149MOL0     C20429   8.160   1.821   3.701  0.3761 -0.3160  0.1491
  149MOL0     C20430   8.137   1.709   3.791 -0.4446  1.1290  0.5093
  149MOL0     C20431   8.061   1.720   3.911  1.1418 -0.4464  0.9221
  149MOL0     O20432   8.053   1.624   4.001 -0.1628 -0.5913 -0.1402
  149MOL0     C20433   8.071   1.486   3.962 -0.3108 -0.6365  0.3402
  149MOL0     C20434   8.020   1.411   4.078 -0.2480 -0.2991 -0.9116
  149MOL0     C20435   8.045   1.255   4.072  0.3559 -0.1197  0.2731
  149MOL0     C20436   8.172   1.203   4.133 -0.4580  0.4590 -0.4438
  149MOL0     C20437   8.295   1.215   4.045 -0.3930  0.2573  0.2397
  149MOL0     C20438   8.404   1.316   4.084  0.3109  0.4109 -0.2803
  149MOL0     C20439   8.545   1.293   4.020  0.3190  0.1071 -0.0628
  149MOL0     C20440   8.553   1.361   3.884  0.2735 -0.4809  0.2866
  149MOL0     N20441   8.447   1.327   3.794 -0.0867 -0.6939  0.6052
  149MOL0     C20442   8.445   1.218   3.712  0.7539 -0.4522 -0.3871
  149MOL0     C20443   8.317   1.203   3.678 -0.2406 -1.4272 -0.3463
  149MOL0     C20444   8.257   1.089   3.597  0.0851 -0.1883  0.5532
  149MOL0     C20445   8.290   0.963   3.681 -0.0918  0.4847  0.7151
  149MOL0     C20446   8.215   0.837   3.634  0.0714  0.1633  0.2709
  149MOL0     C20447   8.210   0.723   3.734 -0.5138 -0.0045  0.5752
  149MOL0     O20448   8.134   0.778   3.845  0.9223 -0.0059 -0.0865
  149MOL0     C20449   8.151   0.732   3.972 -1.1495  0.0975  0.2687
  149MOL0     C20450   8.229   0.622   4.008 -0.1712  0.8168 -0.1019
  149MOL0     C20451   8.244   0.580   4.142  0.0943  0.4126 -0.4068
  149MOL0     C20452   8.353   0.470   4.175  0.3364  0.2869 -0.1805
  149MOL0     C20453   8.174   0.656   4.238  0.4391  0.2485 -0.9157
  149MOL0     C20454   8.194   0.636   4.386 -0.3333  0.0111  0.4641
  149MOL0     O20455   8.181   0.739   4.477 -0.0853 -0.2854 -0.5397
  149MOL0     C20456   8.213   0.709   4.607 -0.3486  0.2014  0.2503
  149MOL0     C20457   8.342   0.701   4.649 -0.1443 -0.1779  0.2117
  149MOL0     C20458   8.376   0.671   4.783  0.2958  0.5320 -0.3042
  149MOL0     C20459   8.268   0.658   4.883 -0.0452  0.0282  1.3285
  149MOL0     O20460   8.310   0.639   5.011 -0.1081  0.5012  0.0805
  149MOL0     C20461   8.200   0.605   5.099 -0.2534  0.6955  0.2999
  149MOL0     C20462   8.265   0.595   5.236 -0.2547  0.0263  1.0551
  149MOL0     C20463   8.295   0.731   5.294  0.5654  0.2947 -1.0031
  149MOL0     C20464   8.319   0.732   5.445  0.0336 -0.5914  0.6974
  149MOL0     C20465   8.328   0.872   5.506 -0.0698 -0.3922 -0.3265
  149MOL0     C20466   8.407   0.861   5.646  0.2565  0.6562 -0.7721
  149MOL0     C20467   8.336   0.769   5.750 -0.6136 -0.6808 -0.5600
  149MOL0     C20468   8.412   0.784   5.884  0.4199  0.7182  0.1284
  149MOL0    Cl20469   8.576   0.730   5.871  0.3832 -0.1737 -0.2156
  149MOL0     C20470   8.130   0.655   4.841 -0.5149  0.2176  0.1063
  149MOL0     C20471   8.104   0.674   4.698  0.6004  0.3256 -0.6049
  149MOL0     O20472   8.215   0.521   4.421 -0.7757  0.0827 -0.2748
  149MOL0     C20473   8.100   0.763   4.201  0.3372 -0.6992  0.4064
  149MOL0     C20474   8.085   0.804   4.070 -0.0227  0.7526  0.4641
  149MOL0     N20475   8.246   1.318   3.713 -0.0998 -0.2007 -0.0204
  149MOL0     N20476   8.328   1.393   3.781 -0.1090 -0.0313  0.1194
  149MOL0     C20477   8.002   1.846   3.934  0.9041 -0.0948 -0.1435
  149MOL0     C20478   8.033   1.957   3.855 -0.2295 -0.0736  1.0975
  149MOL0     C20479   8.045   2.179   3.447 -0.2579 -0.0529  0.7475
  149MOL0     C20480   8.173   2.165   3.393  1.1198 -0.0714 -0.9923
  149MOL0     C20481   8.214   2.235   3.286  0.2336 -0.5273 -0.1153
  149MOL0     C20482   8.119   2.325   3.221 -0.6087 -0.1855 -0.1461
  149MOL0     O20483   8.164   2.395   3.112  0.1479  0.2144  0.1050
  149MOL0     C20484   8.278   2.482   3.123 -0.1581  0.1876  0.2272
  149MOL0     C20485   8.240   2.606   3.195 -0.2342 -0.4749 -0.2112
  149MOL0     C20486   8.151   2.690   3.101 -0.3271  0.3664  0.3659
  149MOL0     C20487   8.060   2.792   3.175 -0.3789  0.8946 -0.3096
  149MOL0     C20488   8.132   2.863   3.281 -0.1380 -0.2739 -1.2281
  149MOL0     C20489   8.189   2.929   3.372  0.4546 -0.7036  0.2894
  149MOL0     C20490   7.985   2.326   3.260 -0.5223 -0.2644  0.0993
  149MOL0     C20491   7.956   2.264   3.376  0.5499 -0.3314 -0.0143
  149MOL0     C20492   7.815   2.301   3.418 -0.5689 -1.0209  0.1901
  149MOL0     H20493   8.213   1.804   3.608  1.3899  3.5519 -0.1382
  149MOL0     H20494   8.184   1.616   3.760 -0.8818  0.2383  2.3825
  149MOL0     H20495   8.176   1.465   3.944  0.5998  3.8503 -0.9832
  149MOL0     H20496   8.010   1.478   3.871  1.9939  2.8338 -1.7653
  149MOL0     H20497   8.078   1.437   4.167  0.6045 -1.8068 -0.9834
  149MOL0     H20498   7.914   1.437   4.084  0.2312  1.5249  0.6335
  149MOL0     H20499   7.963   1.197   4.115  2.4794 -2.7960  1.0238
  149MOL0     H20500   8.042   1.219   3.969  0.1580 -2.3461  0.9977
  149MOL0     H20501   8.186   1.247   4.232 -0.5936 -1.1982  0.3441
  149MOL0     H20502   8.158   1.097   4.158 -2.1925  1.1310  1.7002
  149MOL0     H20503   8.280   1.205   3.937  3.1092 -1.7343 -0.2064
  149MOL0     H20504   8.357   1.126   4.061 -0.2045  0.0305 -1.5381
  149MOL0     H20505   8.370   1.420   4.077 -0.9822  0.4884  4.1430
  149MOL0     H20506   8.403   1.305   4.193 -4.1260 -1.1727 -0.2695
  149MOL0     H20507   8.568   1.186   4.015  1.1308  0.3187 -1.4776
  149MOL0     H20508   8.613   1.336   4.094  1.2617 -0.7633 -0.3984
  149MOL0     H20509   8.542   1.468   3.902 -1.0466 -0.3407 -1.1073
  149MOL0     H20510   8.652   1.342   3.840  0.7396 -0.2450  1.2171
  149MOL0     H20511   8.513   1.133   3.715  0.2917 -0.8089  0.3835
  149MOL0     H20512   8.293   1.085   3.493 -1.2595  0.9294  0.0051
  149MOL0     H20513   8.149   1.109   3.604 -0.6715 -3.0711 -1.3178
  149MOL0     H20514   8.398   0.944   3.683  0.3448  2.3343 -1.4773
  149MOL0     H20515   8.253   0.978   3.782 -0.5692  1.6091  0.3863
  149MOL0     H20516   8.108   0.856   3.619 -1.1741 -1.6390  4.8466
  149MOL0     H20517   8.273   0.798   3.550 -0.9894  0.7284 -0.7515
  149MOL0     H20518   8.157   0.635   3.697 -0.1919 -0.9546  2.2646
  149MOL0     H20519   8.309   0.687   3.763 -1.5903 -3.1032  0.7777
  149MOL0     H20520   8.285   0.562   3.937 -0.5515 -0.9763  1.0380
  149MOL0     H20521   8.427   0.445   4.098  2.3713  0.4178  1.6518
  149MOL0     H20522   8.292   0.381   4.191  3.2521 -2.2280 -1.9669
  149MOL0     H20523   8.402   0.494   4.269 -1.5630  0.3199  0.8478
  149MOL0     H20524   8.411   0.715   4.566 -3.1448 -5.2754 -3.8074
  149MOL0     H20525   8.482   0.657   4.802  0.2857 -0.5297 -0.9443
  149MOL0     H20526   8.127   0.685   5.108  0.6350  2.0777 -3.0367
  149MOL0     H20527   8.162   0.505   5.077  0.1002 -0.0945  2.9623
  149MOL0     H20528   8.198   0.537   5.300  1.6279 -0.8846  2.2651
  149MOL0     H20529   8.360   0.542   5.236  0.4869  1.0295 -2.8457
  149MOL0     H20530   8.211   0.797   5.271  1.0218  1.2282 -0.0613
  149MOL0     H20531   8.390   0.770   5.256  0.4119  0.3968 -1.2871
  149MOL0     H20532   8.409   0.670   5.455 -2.4021 -4.1030  2.9989
  149MOL0     H20533   8.236   0.685   5.497 -1.3361 -0.5899 -1.4010
  149MOL0     H20534   8.386   0.945   5.449 -1.9771  1.4282 -0.0396
  149MOL0     H20535   8.226   0.910   5.517 -0.1686  1.3195 -4.9302
  149MOL0     H20536   8.428   0.964   5.678 -1.2953  0.6960  0.1963
  149MOL0     H20537   8.502   0.809   5.629  1.2412  2.0391  0.2409
  149MOL0     H20538   8.324   0.670   5.704 -3.1133 -0.1141 -1.2884
  149MOL0     H20539   8.240   0.819   5.765  0.0179  0.2085  0.7178
  149MOL0     H20540   8.374   0.722   5.966  0.1849 -0.4564 -0.8277
  149MOL0     H20541   8.402   0.888   5.917  1.0978  0.3815  1.4798
  149MOL0     H20542   8.047   0.628   4.905 -0.5440  0.3614  0.1307
  149MOL0     H20543   8.001   0.673   4.666  0.7225  0.6065 -1.0170
  149MOL0     H20544   8.054   0.826   4.277  0.1009 -0.1017 -0.2249
  149MOL0     H20545   8.025   0.889   4.040  1.1888  2.3363  2.3076
  149MOL0     H20546   7.943   1.854   4.024 -1.2900 -1.2387 -1.4000
  149MOL0     H20547   7.978   2.045   3.886 -0.5725  1.1777 -2.5357
  149MOL0     H20548   8.246   2.094   3.431  1.3195  0.8091  0.3495
  149MOL0     H20549   8.305   2.219   3.229 -0.6788  0.6217 -2.0011
  149MOL0     H20550   8.352   2.443   3.194 -1.1127 -0.6796  0.7819
  149MOL0     H20551   8.335   2.500   3.031 -0.8942  3.1289  0.2738
  149MOL0     H20552   8.331   2.661   3.222 -0.2286 -0.2244 -0.7290
  149MOL0     H20553   8.193   2.578   3.290 -0.2170 -2.7970 -0.8115
  149MOL0     H20554   8.207   2.745   3.025 -1.9859  0.0313 -1.1802
  149MOL0     H20555   8.083   2.625   3.045  1.5378 -0.6317 -0.8655
  149MOL0     H20556   7.973   2.743   3.220  0.8666 -0.5588  0.5902
  149MOL0     H20557   8.034   2.867   3.099  2.7694 -0.2206 -2.6661
  149MOL0     H20558   8.240   2.989   3.445  0.6112 -0.6079  0.0996
  149MOL0     H20559   7.913   2.388   3.208 -1.8954 -2.3732 -0.6395
  149MOL0     H20560   7.749   2.340   3.339  2.6123  1.3127 -1.5452
  149MOL0     H20561   7.761   2.224   3.473 -1.7408 -0.3489  0.0205
  149MOL0     H20562   7.836   2.380   3.491  0.4585 -0.0159 -1.1426
  150MOL0     O20563   6.379   0.201   5.116 -0.2478 -1.0213  0.4198
  150MOL0     C20564   6.461   0.252   5.035 -0.0802  0.3362 -0.6481
  150MOL0     O20565   6.474   0.227   4.899 -0.0620  0.2658  0.3367
  150MOL0     C20566   6.396   0.130   4.849  0.3136 -1.0205  0.0132
  150MOL0     C20567   6.439   0.003   4.825 -0.2145  0.1665 -0.0475
  150MOL0     C20568   6.344  -0.083   4.758 -0.1652 -0.2143 -0.3745
  150MOL0     C20569   6.211  -0.040   4.717  0.2310 -0.1621 -0.7015
  150MOL0     O20570   6.115  -0.107   4.648 -0.5346  0.2121  0.0080
  150MOL0     C20571   6.157  -0.227   4.573  0.2689 -0.3941  1.0397
  150MOL0     C20572   6.034  -0.275   4.511  0.1537  0.4770 -0.1836
  150MOL0     C20573   5.930  -0.331   4.617  0.5337  0.3096  0.2025
  150MOL0     C20574   5.863  -0.456   4.570 -0.2885  0.8031  0.3676
  150MOL0     C20575   5.727  -0.484   4.639  0.3089 -0.3909  0.2882
  150MOL0     C20576   5.670  -0.620   4.611 -0.0487 -0.2612 -1.1039
  150MOL0     C20577   5.547  -0.649   4.708 -0.4181  0.2509 -0.1858
  150MOL0     C20578   5.420  -0.592   4.659 -0.2773  0.4120  0.3366
  150MOL0     N20579   5.359  -0.686   4.559 -0.9861  0.0207 -0.5279
  150MOL0     C20580   5.249  -0.772   4.578 -0.0392  0.2335 -0.4146
  150MOL0     C20581   5.225  -0.830   4.458 -0.3094 -0.8022  0.6095
  150MOL0     C20582   5.118  -0.937   4.414  0.1502 -0.3294  0.5405
  150MOL0     C20583   5.169  -1.071   4.460 -0.2408 -0.0940 -0.0791
  150MOL0     C20584   5.049  -1.170   4.455 -0.3095 -0.9457  0.2042
  150MOL0     C20585   5.095  -1.315   4.479  0.2626 -0.3210  1.1886
  150MOL0     O20586   5.179  -1.315   4.590 -0.8578 -0.1811 -0.4947
  150MOL0     C20587   5.239  -1.428   4.629  0.0258  0.2289 -0.2142
  150MOL0     C20588   5.210  -1.553   4.574  0.2031  0.5245 -0.6837
  150MOL0     C20589   5.273  -1.675   4.630  0.2619 -0.6937 -0.1545
  150MOL0     C20590   5.237  -1.812   4.574 -0.6949 -0.5916  0.1113
  150MOL0     C20591   5.370  -1.661   4.736 -0.0641  0.2607 -0.2499
  150MOL0     C20592   5.457  -1.772   4.793 -0.6964  0.6357  0.2519
  150MOL0     O20593   5.550  -1.746   4.899  0.3618 -0.6324  1.0151
  150MOL0     C20594   5.616  -1.855   4.950 -0.4868 -0.9054  0.1136
  150MOL0     C20595   5.748  -1.888   4.915 -0.0096  0.3213 -0.5309
  150MOL0     C20596   5.822  -1.977   4.992 -0.1992  0.2639  0.2540
  150MOL0     C20597   5.769  -2.042   5.102 -1.6265 -0.2091  0.2269
  150MOL0     O20598   5.842  -2.135   5.173 -0.1771 -0.2990  0.8253
  150MOL0     C20599   5.844  -2.116   5.315  0.3018 -0.8349  0.5207
  150MOL0     C20600   5.953  -2.222   5.357  0.2387 -0.3435 -0.1301
  150MOL0     C20601   6.094  -2.191   5.304 -0.1731 -0.1574  0.0691
  150MOL0     C20602   6.197  -2.293   5.369  0.4772 -0.3386  0.2176
  150MOL0     C20603   6.321  -2.302   5.285 -0.4188  0.4651  0.0877
  150MOL0     C20604   6.421  -2.198   5.322  0.9056 -0.2015  1.0021
  150MOL0     C20605   6.559  -2.242   5.293  0.0153  0.6839 -0.2423
  150MOL0     C20606   6.663  -2.139   5.342  0.4707 -0.2883  0.5929
  150MOL0    Cl20607   6.649  -2.115   5.516 -0.0086  0.3910 -0.0431
  150MOL0     C20608   5.635  -2.022   5.137  0.3832  0.2797 -0.4848
  150MOL0     C20609   5.565  -1.919   5.059 -0.5578  0.2240 -1.0503
  150MOL0     O20610   5.449  -1.884   4.738 -0.7210  0.1815 -0.0545
  150MOL0     C20611   5.395  -1.535   4.787  0.2969 -0.7302  0.1911
  150MOL0     C20612   5.321  -1.415   4.745 -0.1444  0.9485  0.3877
  150MOL0     N20613   5.319  -0.767   4.370  0.7061  0.3497 -0.0309
  150MOL0     N20614   5.402  -0.694   4.434  0.1158 -0.2952 -0.2001
  150MOL0     C20615   6.167   0.086   4.753 -0.0474  0.0564 -0.0980
  150MOL0     C20616   6.270   0.168   4.818  0.0894  0.3917 -0.4584
  150MOL0     C20617   6.563   0.350   5.089 -0.4128  0.4897  0.6516
  150MOL0     C20618   6.527   0.433   5.199 -0.7069  0.2913 -0.3060
  150MOL0     C20619   6.620   0.530   5.247  0.0838 -0.8414  0.4723
  150MOL0     C20620   6.746   0.547   5.186  0.3772 -0.3819 -0.4013
  150MOL0     O20621   6.850   0.635   5.223  0.0258  0.1712 -0.8738
  150MOL0     C20622   6.813   0.740   5.312  0.3220  0.3309 -0.2331
  150MOL0     C20623   6.934   0.809   5.375 -0.5475  1.2281  0.8495
  150MOL0     C20624   6.904   0.932   5.450  0.3492 -0.6423 -0.3339
  150MOL0     C20625   6.797   0.921   5.563 -0.1568 -0.1368 -1.0115
  150MOL0     C20626   6.832   0.826   5.665  0.4786 -0.1072  0.1678
  150MOL0     C20627   6.867   0.749   5.754  0.5141 -0.0884 -0.5184
  150MOL0     C20628   6.779   0.465   5.077 -0.2530 -0.1381  0.1117
  150MOL0     C20629   6.700   0.357   5.034  0.2424 -0.0526  0.7680
  150MOL0     C20630   6.747   0.249   4.931 -0.0798 -0.7037 -0.1698
  150MOL0     H20631   6.544  -0.027   4.833 -0.3895 -0.3916  0.2384
  150MOL0     H20632   6.374  -0.185   4.738 -1.8899 -1.2248  1.7294
  150MOL0     H20633   6.194  -0.306   4.640 -0.1443 -1.1327  0.4069
  150MOL0     H20634   6.223  -0.206   4.489 -0.7589 -0.4767  0.1900
  150MOL0     H20635   5.991  -0.202   4.442 -1.7029  2.0768  2.4885
  150MOL0     H20636   6.073  -0.364   4.460  1.4747  0.4018  0.8980
  150MOL0     H20637   5.982  -0.344   4.712 -1.1833  0.0869  1.1599
  150MOL0     H20638   5.856  -0.251   4.629 -1.2494 -1.1482 -0.4934
  150MOL0     H20639   5.862  -0.466   4.461  0.8548 -2.4043  0.5319
  150MOL0     H20640   5.924  -0.535   4.614 -2.6470 -0.5760  1.4042
  150MOL0     H20641   5.652  -0.417   4.596  1.4633  1.0237  0.4045
  150MOL0     H20642   5.744  -0.476   4.746  0.0876 -3.3830  0.6331
  150MOL0     H20643   5.643  -0.631   4.505  0.6820  0.4392 -1.3721
  150MOL0     H20644   5.747  -0.692   4.640  0.3872 -0.1067 -1.8555
  150MOL0     H20645   5.566  -0.611   4.809 -0.1949  0.0618 -0.1564
  150MOL0     H20646   5.540  -0.758   4.707  2.5284 -0.0766 -3.0998
  150MOL0     H20647   5.355  -0.583   4.746  1.1543 -1.9982  1.7830
  150MOL0     H20648   5.440  -0.495   4.613  2.9569  0.1835  1.0306
  150MOL0     H20649   5.197  -0.800   4.669  1.2068 -0.9312 -0.0357
  150MOL0     H20650   5.098  -0.930   4.307  0.7707  1.6794  0.5064
  150MOL0     H20651   5.023  -0.918   4.464 -0.0495  0.5795 -0.1599
  150MOL0     H20652   5.240  -1.111   4.387 -2.1591 -0.6337 -1.7577
  150MOL0     H20653   5.205  -1.074   4.563 -1.9917 -2.1220  0.5717
  150MOL0     H20654   4.977  -1.147   4.534  0.8489 -1.7586  1.5556
  150MOL0     H20655   4.998  -1.171   4.358 -1.7296 -2.4682  0.9119
  150MOL0     H20656   5.006  -1.376   4.495  1.3651 -2.6541 -0.8545
  150MOL0     H20657   5.140  -1.356   4.388  0.8607  0.6048  1.0539
  150MOL0     H20658   5.145  -1.570   4.489  0.7719  0.4724 -1.1139
  150MOL0     H20659   5.141  -1.810   4.522 -2.1170  3.0395  2.4138
  150MOL0     H20660   5.213  -1.887   4.650  3.0467 -0.7390  1.3499
  150MOL0     H20661   5.317  -1.847   4.509  1.5615  0.4344  2.1634
  150MOL0     H20662   5.803  -1.839   4.835  0.4541 -2.7263 -2.2376
  150MOL0     H20663   5.927  -2.002   4.980  0.1749  0.7258  2.2519
  150MOL0     H20664   5.874  -2.016   5.347 -0.3784 -0.5429  0.2699
  150MOL0     H20665   5.752  -2.142   5.367 -0.7547  1.5602 -0.0414
  150MOL0     H20666   5.955  -2.215   5.466  2.4789  3.8194 -0.2386
  150MOL0     H20667   5.916  -2.319   5.321 -0.5165 -0.6960  1.4770
  150MOL0     H20668   6.126  -2.092   5.338  0.6130 -0.9130  1.6287
  150MOL0     H20669   6.088  -2.187   5.195  0.6421 -2.0830 -0.0982
  150MOL0     H20670   6.156  -2.395   5.372 -2.5752  0.7888  0.7781
  150MOL0     H20671   6.210  -2.274   5.476 -0.7092 -0.3938  0.3862
  150MOL0     H20672   6.367  -2.400   5.303 -2.5436 -0.3365  1.6094
  150MOL0     H20673   6.289  -2.291   5.181 -1.3296 -1.7423  0.0830
  150MOL0     H20674   6.424  -2.178   5.429 -0.2913 -1.1606  1.2264
  150MOL0     H20675   6.396  -2.108   5.265  2.3135 -0.8097 -0.6832
  150MOL0     H20676   6.565  -2.253   5.185  2.2948  0.8457 -0.1819
  150MOL0     H20677   6.579  -2.339   5.340  3.9652  1.3193 -0.2556
  150MOL0     H20678   6.650  -2.037   5.304 -1.5385 -0.6732  0.1595
  150MOL0     H20679   6.759  -2.189   5.329 -0.0205 -0.8978 -0.8076
  150MOL0     H20680   5.579  -2.067   5.218 -1.0503 -0.3277 -1.7635
  150MOL0     H20681   5.467  -1.880   5.087  0.8296  2.6189  0.9093
  150MOL0     H20682   5.473  -1.528   4.861  0.7029  1.0888 -0.3655
  150MOL0     H20683   5.335  -1.324   4.802 -3.9636  1.2323  1.1127
  150MOL0     H20684   6.066   0.118   4.728 -0.9051 -2.3965  0.0132
  150MOL0     H20685   6.239   0.262   4.862 -2.3568  0.2047 -1.6462
  150MOL0     H20686   6.429   0.404   5.236 -0.7382 -1.8595 -1.8814
  150MOL0     H20687   6.596   0.596   5.330  2.6262 -0.4516  0.9631
  150MOL0     H20688   6.751   0.812   5.259 -0.3116 -0.3265 -0.4043
  150MOL0     H20689   6.743   0.715   5.393 -1.3941  2.0426 -1.1085
  150MOL0     H20690   7.005   0.829   5.295  0.8372 -1.0363  1.4232
  150MOL0     H20691   6.981   0.735   5.441  1.3427  2.0621  0.4984
  150MOL0     H20692   6.989   0.978   5.500 -1.4712  1.9531  0.5564
  150MOL0     H20693   6.872   1.002   5.372 -1.5231 -2.4064 -1.2647
  150MOL0     H20694   6.699   0.900   5.520 -1.4181  1.7929  0.7399
  150MOL0     H20695   6.773   1.020   5.604  1.7634  0.8451 -2.0999
  150MOL0     H20696   6.899   0.679   5.829 -4.4283 -3.9151 -1.4604
  150MOL0     H20697   6.878   0.469   5.033  0.4387  2.5411  1.6867
  150MOL0     H20698   6.696   0.251   4.834  1.7060 -3.0358 -1.2320
  150MOL0     H20699   6.849   0.276   4.901  0.0563 -0.3979  0.5523
  150MOL0     H20700   6.741   0.147   4.970  1.3552 -0.6110  0.3512
  151MOL0     O20701   9.619   0.493  11.337 -0.2016  0.5053  0.6302
  151MOL0     C20702   9.718   0.414  11.329  0.4742 -0.4135  0.9162
  151MOL0     O20703   9.747   0.313  11.420 -0.2727 -0.7663  0.6483
  151MOL0     C20704   9.664   0.313  11.533  0.2223 -0.2225  0.1049
  151MOL0     C20705   9.525   0.300  11.522 -0.1890 -0.8567  1.0010
  151MOL0     C20706   9.446   0.252  11.627 -0.2243 -0.7679  0.3792
  151MOL0     C20707   9.493   0.233  11.755  0.3246  0.6123  0.3057
  151MOL0     O20708   9.392   0.188  11.837  0.6749 -0.3710 -0.9908
  151MOL0     C20709   9.424   0.129  11.966 -0.3837 -0.1763 -0.0750
  151MOL0     C20710   9.516   0.010  11.966 -0.8183  0.4537 -0.6018
  151MOL0     C20711   9.457  -0.088  11.869 -0.4948  0.2842  0.5570
  151MOL0     C20712   9.328  -0.149  11.907  0.2218  0.5359  0.2624
  151MOL0     C20713   9.288  -0.282  11.842 -0.9867  1.0666  0.9605
  151MOL0     C20714   9.143  -0.320  11.874 -0.4663  0.4429 -0.0345
  151MOL0     C20715   9.090  -0.420  11.776  0.2508 -0.1505  0.3050
  151MOL0     C20716   8.941  -0.449  11.838 -0.4549  0.3900 -0.1804
  151MOL0     N20717   8.853  -0.495  11.727 -0.2285 -1.2851 -0.5146
  151MOL0     C20718   8.823  -0.628  11.701 -0.0324 -0.1370 -0.0271
  151MOL0     C20719   8.720  -0.624  11.613  0.5203 -0.6394 -0.4164
  151MOL0     C20720   8.639  -0.743  11.558 -0.7959 -0.8813 -0.7435
  151MOL0     C20721   8.730  -0.822  11.464  0.1179 -0.7586  0.1167
  151MOL0     C20722   8.658  -0.951  11.420 -0.0813 -0.0405 -0.0151
  151MOL0     C20723   8.564  -0.932  11.297  0.6674  0.1976 -0.6659
  151MOL0     O20724   8.637  -0.895  11.179 -0.0542 -1.0610  0.2816
  151MOL0     C20725   8.559  -0.809  11.100 -1.0917  0.2941  0.5451
  151MOL0     C20726   8.641  -0.732  11.014 -0.5171  0.1077  0.1488
  151MOL0     C20727   8.591  -0.641  10.923  0.9037 -0.7762  0.5703
  151MOL0     C20728   8.685  -0.578  10.831 -0.2707 -0.3393  0.0359
  151MOL0     C20729   8.446  -0.621  10.916  0.3614  0.9475  0.1096
  151MOL0     C20730   8.384  -0.513  10.826  0.9442 -0.2354 -0.4061
  151MOL0     O20731   8.251  -0.489  10.834  0.2674 -0.1692  0.1753
  151MOL0     C20732   8.193  -0.377  10.771  0.1527 -0.1240 -0.3866
  151MOL0     C20733   8.192  -0.251  10.823 -0.8919 -0.5005 -0.4680
  151MOL0     C20734   8.127  -0.147  10.755  0.2447 -1.4006 -0.9582
  151MOL0     C20735   8.078  -0.165  10.625 -0.0565  0.0396 -0.9267
  151MOL0     O20736   8.012  -0.056  10.567 -0.4213  0.3237  0.2876
  151MOL0     C20737   7.887  -0.067  10.633  0.3761 -1.0594  0.1893
  151MOL0     C20738   7.827   0.071  10.623  0.1251 -0.4304 -0.5292
  151MOL0     C20739   7.783   0.121  10.485 -0.1893  0.3167 -0.6925
  151MOL0     C20740   7.888   0.133  10.382 -0.3646 -0.3209 -0.1530
  151MOL0     C20741   7.820   0.208  10.259  0.3557 -0.0829  0.8446
  151MOL0     C20742   7.909   0.189  10.135 -0.2204 -0.7360  0.2316
  151MOL0     C20743   7.812   0.179  10.015 -0.3897  0.0974 -1.2269
  151MOL0     C20744   7.884   0.156   9.886 -0.6295  0.9902 -0.2588
  151MOL0    Cl20745   7.991   0.295   9.845  0.0421  0.1015 -0.0972
  151MOL0     C20746   8.096  -0.287  10.563 -0.4889 -0.2229 -0.4348
  151MOL0     C20747   8.148  -0.396  10.640 -0.1548 -0.5622 -0.3494
  151MOL0     O20748   8.453  -0.443  10.756 -0.7747 -0.4672  0.0167
  151MOL0     C20749   8.364  -0.687  11.006 -0.1423  0.6574  0.5134
  151MOL0     C20750   8.419  -0.779  11.092 -0.3179  0.0266  0.0117
  151MOL0     N20751   8.688  -0.493  11.592 -0.2025 -0.3440  0.4552
  151MOL0     N20752   8.773  -0.410  11.655 -0.2549  0.3189  0.1489
  151MOL0     C20753   9.634   0.253  11.775  0.2907  1.2589 -0.1347
  151MOL0     C20754   9.714   0.303  11.668  0.8327 -0.0614 -1.0271
  151MOL0     C20755   9.815   0.438  11.211  0.3201  0.8099 -0.6215
  151MOL0     C20756   9.794   0.556  11.129 -0.2162 -0.5173 -0.5565
  151MOL0     C20757   9.865   0.572  11.018  0.8825  0.0615 -0.2554
  151MOL0     C20758   9.970   0.490  10.977 -0.7187 -0.7289  0.7940
  151MOL0     O20759  10.052   0.513  10.874 -0.9899  0.0103  0.3539
  151MOL0     C20760  10.069   0.642  10.820  0.8123  0.6425 -0.7581
  151MOL0     C20761   9.954   0.659  10.713  0.3223 -0.7890 -0.1529
  151MOL0     C20762   9.991   0.568  10.595  0.0675 -0.4091  0.6242
  151MOL0     C20763   9.925   0.427  10.605  0.2702  0.5864 -0.2366
  151MOL0     C20764   9.894   0.383  10.468  0.8208 -0.2304 -0.6084
  151MOL0     C20765   9.878   0.336  10.360 -0.0976  0.7776 -0.3989
  151MOL0     C20766   9.993   0.371  11.055 -0.0268  0.0045  0.0744
  151MOL0     C20767   9.916   0.346  11.173  1.1402 -0.0439  0.1616
  151MOL0     C20768   9.955   0.219  11.247  0.3092 -0.9213  1.0581
  151MOL0     H20769   9.486   0.320  11.423  0.7059  0.2815  0.8485
  151MOL0     H20770   9.339   0.245  11.608 -0.4871 -4.8062  2.2608
  151MOL0     H20771   9.330   0.090  12.005  1.7956 -3.1554  2.7712
  151MOL0     H20772   9.464   0.203  12.037  0.4753 -0.5940 -0.1050
  151MOL0     H20773   9.621   0.030  11.946 -0.9656 -0.4745 -2.5922
  151MOL0     H20774   9.511  -0.041  12.063  4.6204 -0.2462 -0.4052
  151MOL0     H20775   9.457  -0.052  11.765  0.2813  1.3269  0.9040
  151MOL0     H20776   9.533  -0.167  11.862 -2.4023 -1.6892  1.0867
  151MOL0     H20777   9.340  -0.165  12.014  1.5084  1.3799  0.2558
  151MOL0     H20778   9.246  -0.077  11.901  0.7424  1.0027 -2.8624
  151MOL0     H20779   9.359  -0.361  11.868  0.4428  3.1724  4.1439
  151MOL0     H20780   9.295  -0.265  11.734  1.0439 -3.3826  0.1912
  151MOL0     H20781   9.141  -0.374  11.970 -3.8019  1.9353  0.9007
  151MOL0     H20782   9.076  -0.234  11.884 -1.1447 -0.0429 -0.3053
  151MOL0     H20783   9.151  -0.509  11.762  0.0398 -0.5874  1.9810
  151MOL0     H20784   9.079  -0.373  11.678  2.1028  0.1088  0.1994
  151MOL0     H20785   8.939  -0.521  11.920 -1.5298  2.1510  1.4216
  151MOL0     H20786   8.905  -0.359  11.888 -2.6748 -0.9075  0.7104
  151MOL0     H20787   8.880  -0.715  11.730 -2.0565 -1.0875  1.3638
  151MOL0     H20788   8.546  -0.707  11.513 -2.6351  0.0747  3.3795
  151MOL0     H20789   8.610  -0.804  11.644 -2.2913  0.3607 -0.3283
  151MOL0     H20790   8.736  -0.761  11.374  0.1790 -1.7670 -0.5729
  151MOL0     H20791   8.830  -0.847  11.501  0.1608  0.1615  0.6570
  151MOL0     H20792   8.740  -1.015  11.387 -0.7577 -0.5533 -0.7477
  151MOL0     H20793   8.609  -0.999  11.506 -1.9015 -0.0023 -0.9827
  151MOL0     H20794   8.514  -1.025  11.268  0.3997  0.6094 -1.5387
  151MOL0     H20795   8.488  -0.866  11.340  1.1637  0.0231  0.5254
  151MOL0     H20796   8.749  -0.739  11.023 -0.6251 -1.6949  0.2513
  151MOL0     H20797   8.653  -0.591  10.727  0.1495 -2.5691  0.1435
  151MOL0     H20798   8.785  -0.620  10.841 -0.0409  0.5808  2.1426
  151MOL0     H20799   8.684  -0.469  10.844 -1.4029 -0.1533 -1.3594
  151MOL0     H20800   8.225  -0.227  10.924 -2.4310  2.1705 -0.5214
  151MOL0     H20801   8.122  -0.052  10.808 -0.8349 -3.0228  2.0898
  151MOL0     H20802   7.820  -0.141  10.588  0.6030 -0.7042 -0.7689
  151MOL0     H20803   7.898  -0.066  10.742  1.9486  1.0155  0.0705
  151MOL0     H20804   7.735   0.072  10.682 -0.6905 -1.6005 -1.7194
  151MOL0     H20805   7.898   0.147  10.658 -1.0551 -0.6364  2.7011
  151MOL0     H20806   7.733   0.217  10.495  1.2663  0.8104  3.8020
  151MOL0     H20807   7.715   0.050  10.435  3.2439 -1.3577 -3.4174
  151MOL0     H20808   7.928   0.037  10.350 -0.3226 -0.7529  1.1474
  151MOL0     H20809   7.966   0.199  10.421  0.1620 -1.6877  1.1670
  151MOL0     H20810   7.719   0.166  10.254  0.5744 -0.4713 -0.5186
  151MOL0     H20811   7.807   0.312  10.289 -1.7908  0.3666 -1.2901
  151MOL0     H20812   7.969   0.098  10.134 -0.9554 -1.2202 -0.2477
  151MOL0     H20813   7.983   0.270  10.132  1.0252 -1.8516 -0.3048
  151MOL0     H20814   7.751   0.269   9.999  1.5799  1.3829 -1.8993
  151MOL0     H20815   7.754   0.090  10.041  1.8102 -0.6557  1.5494
  151MOL0     H20816   7.807   0.144   9.810 -0.9430  3.1216 -0.3227
  151MOL0     H20817   7.937   0.061   9.899  0.4086  1.4940 -0.7426
  151MOL0     H20818   8.052  -0.298  10.464 -2.2113 -2.9712  0.5106
  151MOL0     H20819   8.147  -0.496  10.597  2.1933 -0.4187 -0.8776
  151MOL0     H20820   8.259  -0.666  11.017 -0.4124 -0.0057 -0.5570
  151MOL0     H20821   8.353  -0.833  11.160 -0.2045 -1.7654 -1.2275
  151MOL0     H20822   9.688   0.230  11.867 -0.2846  2.9725  0.6664
  151MOL0     H20823   9.818   0.303  11.698  0.4089 -1.2546  0.5834
  151MOL0     H20824   9.719   0.631  11.150  2.1110  1.5444  1.0113
  151MOL0     H20825   9.855   0.669  10.972  0.1259  1.3982  2.5333
  151MOL0     H20826  10.071   0.715  10.901 -1.6382 -1.6321  1.5437
  151MOL0     H20827  10.166   0.657  10.771  2.6148  1.7855  2.8620
  151MOL0     H20828   9.954   0.764  10.685 -1.7720 -0.6129  0.3459
  151MOL0     H20829   9.858   0.633  10.759  0.4592 -0.9750  0.0367
  151MOL0     H20830   9.944   0.621  10.511 -0.2755 -1.7506 -0.0514
  151MOL0     H20831  10.100   0.553  10.594 -0.2008 -3.2329  2.9982
  151MOL0     H20832   9.827   0.447  10.648 -0.0090  0.0155 -0.6050
  151MOL0     H20833   9.985   0.358  10.666  0.6418 -0.3882 -1.6729
  151MOL0     H20834   9.883   0.286  10.265  3.0363  0.2714 -0.0779
  151MOL0     H20835  10.061   0.298  11.012  2.2301  1.7713  0.4151
  151MOL0     H20836  10.004   0.240  11.343 -1.5942  1.6740  1.5689
  151MOL0     H20837   9.862   0.167  11.271  0.0971 -1.8653 -1.5058
  151MOL0     H20838  10.011   0.148  11.186  1.6645  0.2797  0.8385
  152MOL0     O20839   3.184   9.828  11.354  0.0241  0.4792 -0.3815
  152MOL0     C20840   3.137   9.826  11.464  0.0925 -0.3368  0.6374
  152MOL0     O20841   3.182   9.909  11.564  0.3019  0.0854 -0.2344
  152MOL0     C20842   3.267  10.014  11.544 -0.0332  0.3583 -0.0048
  152MOL0     C20843   3.338  10.059  11.656  0.1240  0.2322  0.4859
  152MOL0     C20844   3.427  10.167  11.652  0.3151 -1.4398 -0.0663
  152MOL0     C20845   3.455  10.230  11.532  1.1971  0.7927 -0.4435
  152MOL0     O20846   3.527  10.347  11.524 -0.5869  0.0920  0.4964
  152MOL0     C20847   3.618  10.374  11.627  0.0506 -0.1460 -1.4547
  152MOL0     C20848   3.689  10.497  11.569  0.2502  0.7741  0.1597
  152MOL0     C20849   3.827  10.529  11.636 -0.3888  0.4483  0.5088
  152MOL0     C20850   3.880  10.651  11.578 -0.2407 -0.4957 -0.5426
  152MOL0     C20851   4.000  10.697  11.660 -0.1456  0.4384  0.3838
  152MOL0     C20852   4.047  10.832  11.621 -0.6135 -0.1814 -0.7810
  152MOL0     C20853   4.124  10.849  11.493 -0.3306 -0.3838 -0.0134
  152MOL0     C20854   4.160  10.995  11.474 -0.9626 -0.1469  0.2246
  152MOL0     N20855   4.196  11.006  11.324  0.2120  0.6424 -0.7886
  152MOL0     C20856   4.308  10.952  11.256  0.5178 -0.4364 -0.6477
  152MOL0     C20857   4.289  10.990  11.131  0.3218  0.3145  0.4781
  152MOL0     C20858   4.371  10.962  11.004 -0.0237  0.4386 -0.6032
  152MOL0     C20859   4.522  11.004  11.017 -0.7078 -0.9474  0.5083
  152MOL0     C20860   4.584  10.963  10.884 -0.0419  0.4690 -0.2064
  152MOL0     C20861   4.548  11.040  10.756 -0.1327 -0.7724 -0.1199
  152MOL0     O20862   4.569  11.186  10.787  0.2203 -0.1689 -0.3412
  152MOL0     C20863   4.542  11.281  10.692  0.2197 -0.7224 -0.5312
  152MOL0     C20864   4.416  11.346  10.702  0.3186  0.2321  0.0669
  152MOL0     C20865   4.386  11.446  10.603 -0.2189  0.6394 -0.2554
  152MOL0     C20866   4.255  11.518  10.612 -1.2744  0.9990  0.7921
  152MOL0     C20867   4.491  11.490  10.514 -0.1282 -0.7985  0.6843
  152MOL0     C20868   4.478  11.605  10.413 -0.5050  1.3199 -0.8099
  152MOL0     O20869   4.592  11.669  10.394  0.1355  0.2143 -0.7021
  152MOL0     C20870   4.590  11.797  10.336 -0.2549 -1.0712  0.5969
  152MOL0     C20871   4.635  11.805  10.205  0.2345  0.0030  0.5903
  152MOL0     C20872   4.601  11.914  10.125 -0.7283  1.2193 -0.9401
  152MOL0     C20873   4.533  12.029  10.177 -0.1005  0.5151  0.2020
  152MOL0     O20874   4.492  12.142  10.111 -0.2323  0.5240 -0.3298
  152MOL0     C20875   4.514  12.138   9.968  0.0114  0.9291 -0.0386
  152MOL0     C20876   4.459  12.263   9.898 -0.5141 -0.9026 -0.1453
  152MOL0     C20877   4.542  12.394   9.946 -0.3467 -0.5693 -0.7812
  152MOL0     C20878   4.483  12.536   9.900 -0.1420  0.5174  0.1275
  152MOL0     C20879   4.595  12.646   9.916  0.3280 -0.2376  0.1427
  152MOL0     C20880   4.533  12.786   9.920  0.3718  0.1956  0.3203
  152MOL0     C20881   4.637  12.892   9.921  0.2078 -0.2133  0.1341
  152MOL0     C20882   4.580  13.030   9.903  0.4019 -1.0734  0.6634
  152MOL0    Cl20883   4.620  13.084   9.738 -0.6133  0.5778 -0.3744
  152MOL0     C20884   4.494  12.028  10.314 -0.5179  0.7441 -0.8475
  152MOL0     C20885   4.521  11.910  10.392 -0.2660 -0.9178 -0.2139
  152MOL0     O20886   4.365  11.631  10.367 -0.6299  0.9517  0.0936
  152MOL0     C20887   4.609  11.422  10.514  0.3921  1.3163 -0.0610
  152MOL0     C20888   4.633  11.323  10.604 -1.2736  1.3085 -0.2741
  152MOL0     N20889   4.170  11.065  11.125  1.5679 -0.0607 -0.0855
  152MOL0     N20890   4.115  11.069  11.240 -0.1480  0.3735 -0.1735
  152MOL0     C20891   3.381  10.186  11.419 -1.1633  0.5454  0.2689
  152MOL0     C20892   3.287  10.084  11.429  0.4628 -0.1850  0.1504
  152MOL0     C20893   3.027   9.738  11.506 -0.5723 -0.1264  0.0688
  152MOL0     C20894   2.995   9.732  11.643 -0.2057  0.2984 -0.6254
  152MOL0     C20895   2.882   9.674  11.708 -0.2704 -0.3775  0.0898
  152MOL0     C20896   2.789   9.601  11.628  0.2374 -0.1259  0.1450
  152MOL0     O20897   2.687   9.522  11.676 -0.3993  0.2639  0.6069
  152MOL0     C20898   2.648   9.396  11.619 -0.6539  0.0240  0.4805
  152MOL0     C20899   2.721   9.291  11.706  0.1743 -0.0112  0.0743
  152MOL0     C20900   2.660   9.270  11.848 -0.6427  0.7670 -0.3294
  152MOL0     C20901   2.705   9.129  11.911  0.5385  0.1202  0.5299
  152MOL0     C20902   2.662   9.117  12.052 -1.5019  0.1445 -0.6729
  152MOL0     C20903   2.623   9.098  12.168 -0.3821  0.6017 -0.6806
  152MOL0     C20904   2.811   9.605  11.485  0.6466 -0.6114  0.4084
  152MOL0     C20905   2.935   9.661  11.429  0.6281 -0.1364 -0.6134
  152MOL0     C20906   2.981   9.624  11.299 -0.3987  0.3418 -1.0016
  152MOL0     H20907   3.325  10.012  11.754 -0.1512 -1.7078 -0.4354
  152MOL0     H20908   3.497  10.184  11.733  0.7276 -3.2611  0.0201
  152MOL0     H20909   3.679  10.291  11.664  0.3751  2.2377  4.6301
  152MOL0     H20910   3.557  10.416  11.708  2.5972  0.3348  0.3411
  152MOL0     H20911   3.711  10.485  11.462  1.1955  2.8184  0.0737
  152MOL0     H20912   3.612  10.575  11.566  0.0472  0.5569 -1.9578
  152MOL0     H20913   3.806  10.540  11.743  0.6481  0.5549  0.7095
  152MOL0     H20914   3.899  10.457  11.595 -0.7989  1.8549 -3.0551
  152MOL0     H20915   3.904  10.631  11.473  0.9648 -4.7666  0.3492
  152MOL0     H20916   3.801  10.727  11.578  0.1469 -0.0248 -2.6330
  152MOL0     H20917   4.083  10.626  11.654  0.2278  0.9700 -1.1122
  152MOL0     H20918   3.963  10.696  11.763  1.2666 -1.7543  0.9467
  152MOL0     H20919   3.959  10.897  11.633 -4.8365 -5.5170  2.0279
  152MOL0     H20920   4.115  10.867  11.698  0.3835 -2.1852 -0.6940
  152MOL0     H20921   4.059  10.816  11.412 -0.4821 -2.1055  0.7733
  152MOL0     H20922   4.218  10.793  11.487  1.3466  2.3242 -0.6956
  152MOL0     H20923   4.072  11.059  11.489 -0.7031  0.0762  0.8335
  152MOL0     H20924   4.242  11.019  11.542  0.9687 -3.4886 -0.7267
  152MOL0     H20925   4.390  10.905  11.309  0.7060 -1.1661 -1.5566
  152MOL0     H20926   4.325  11.010  10.917 -1.4650  0.8773  0.3599
  152MOL0     H20927   4.383  10.854  10.996  3.6650  0.8074 -1.8959
  152MOL0     H20928   4.530  11.110  11.043 -0.7560 -0.2984 -1.8988
  152MOL0     H20929   4.582  10.955  11.094 -0.1563 -2.0012 -0.5623
  152MOL0     H20930   4.690  10.980  10.904  0.2491 -2.1464  0.8478
  152MOL0     H20931   4.553  10.858  10.879 -1.4455  0.5661  3.6317
  152MOL0     H20932   4.598  11.015  10.662  0.1921  0.6107 -0.3349
  152MOL0     H20933   4.443  11.019  10.732  0.3631 -1.4708 -1.8807
  152MOL0     H20934   4.353  11.332  10.789  1.2811 -1.3077  0.5542
  152MOL0     H20935   4.273  11.623  10.638 -1.7430  0.5010  3.4023
  152MOL0     H20936   4.193  11.478  10.693 -0.9453 -0.8302  0.1859
  152MOL0     H20937   4.207  11.503  10.515  1.3448 -0.7233 -0.3421
  152MOL0     H20938   4.682  11.716  10.165  3.0122  1.3179  0.6589
  152MOL0     H20939   4.622  11.895  10.020 -1.9567 -0.1795 -0.9686
  152MOL0     H20940   4.622  12.131   9.951 -0.1761 -0.9536 -0.7136
  152MOL0     H20941   4.458  12.050   9.935  0.5865 -0.0327  1.4605
  152MOL0     H20942   4.476  12.250   9.790  1.9435  0.6133 -0.0253
  152MOL0     H20943   4.357  12.294   9.922 -0.9059  1.9297 -4.3445
  152MOL0     H20944   4.645  12.383   9.911 -0.2283  3.3920 -2.1975
  152MOL0     H20945   4.538  12.389  10.055 -0.9585 -0.2123 -0.7820
  152MOL0     H20946   4.385  12.561   9.942 -0.2454 -0.0274  0.2148
  152MOL0     H20947   4.471  12.520   9.793  2.5572  0.3767 -0.2275
  152MOL0     H20948   4.640  12.639  10.016  3.0071  2.0406 -0.7713
  152MOL0     H20949   4.673  12.627   9.841 -1.7761 -1.7578 -1.7840
  152MOL0     H20950   4.463  12.800  10.003 -0.0211 -1.9071  0.3842
  152MOL0     H20951   4.473  12.795   9.828  2.0303 -1.5497 -1.0116
  152MOL0     H20952   4.697  12.880   9.830  0.8644  2.5473  0.1246
  152MOL0     H20953   4.697  12.886  10.012  2.3094  2.1267 -0.9673
  152MOL0     H20954   4.637  13.092   9.972  1.1573 -2.0853  0.9663
  152MOL0     H20955   4.474  13.046   9.924  0.9234  2.0821  1.5202
  152MOL0     H20956   4.432  12.101  10.365 -1.0470 -1.8315  2.6655
  152MOL0     H20957   4.476  11.907  10.491  0.6792  0.3998  0.2861
  152MOL0     H20958   4.682  11.445  10.437 -0.1783  0.0767 -1.0142
  152MOL0     H20959   4.722  11.260  10.597 -2.5868 -0.6570 -0.2696
  152MOL0     H20960   3.397  10.233  11.323 -0.2921 -1.1230 -0.4461
  152MOL0     H20961   3.232  10.073  11.336  1.7625  0.3070 -0.7025
  152MOL0     H20962   3.057   9.779  11.719  1.9327  1.3871 -2.9308
  152MOL0     H20963   2.892   9.684  11.816 -1.1618  0.4194  0.1147
  152MOL0     H20964   2.541   9.375  11.611 -0.3194 -1.3596 -0.6801
  152MOL0     H20965   2.687   9.390  11.517  3.7422  0.7238  1.8925
  152MOL0     H20966   2.824   9.321  11.730 -0.1591 -1.0401  3.3649
  152MOL0     H20967   2.720   9.193  11.657 -1.7253  0.2515 -0.4858
  152MOL0     H20968   2.695   9.345  11.920  1.1148  0.6172 -0.9702
  152MOL0     H20969   2.551   9.273  11.848 -0.8260 -1.0738  2.6896
  152MOL0     H20970   2.810   9.111  11.936  0.2666  1.1366  2.5997
  152MOL0     H20971   2.661   9.046  11.855  0.1904  0.0732  0.8633
  152MOL0     H20972   2.598   9.096  12.272 -1.0423 -0.5341 -0.8378
  152MOL0     H20973   2.738   9.551  11.426  2.4089 -2.6906  0.0122
  152MOL0     H20974   2.995   9.711  11.234  0.0477  1.2487  0.2770
  152MOL0     H20975   3.075   9.568  11.304  0.5277  1.9593  1.6773
  152MOL0     H20976   2.914   9.562  11.239  2.1439 -2.0266 -1.6087
  153MOL0     O20977  11.346   1.769   5.435  0.3730  0.9825  0.4499
  153MOL0     C20978  11.445   1.809   5.501  0.4214 -0.2299  0.7592
  153MOL0     O20979  11.561   1.750   5.525 -0.0645 -0.8626  0.2732
  153MOL0     C20980  11.606   1.621   5.497 -0.2066 -1.1616  0.6568
  153MOL0     C20981  11.530   1.522   5.452  0.6323  0.6062 -0.6110
  153MOL0     C20982  11.578   1.393   5.436 -0.1035  0.1615 -0.2810
  153MOL0     C20983  11.710   1.357   5.483 -0.2208  0.3157  0.7475
  153MOL0     O20984  11.749   1.224   5.481  0.4981 -0.6180  0.2718
  153MOL0     C20985  11.806   1.189   5.608 -0.4057  0.2225 -0.2720
  153MOL0     C20986  11.853   1.039   5.613  0.0261 -1.1187 -0.2993
  153MOL0     C20987  11.981   1.034   5.533  0.4037  0.0384 -0.3976
  153MOL0     C20988  12.035   0.889   5.536 -0.5041 -0.3330 -0.1825
  153MOL0     C20989  12.178   0.881   5.497 -0.2704 -0.0314  1.1073
  153MOL0     C20990  12.237   0.740   5.471 -1.3289 -0.1066  0.0916
  153MOL0     C20991  12.385   0.752   5.410 -0.2922  0.1754  0.2378
  153MOL0     C20992  12.478   0.825   5.504 -0.3487  1.3189  0.0347
  153MOL0     N20993  12.609   0.842   5.447 -1.0330  0.3236 -0.0306
  153MOL0     C20994  12.697   0.739   5.402  0.1467  0.0185 -0.7232
  153MOL0     C20995  12.803   0.807   5.357 -1.1749 -0.0867  0.0048
  153MOL0     C20996  12.929   0.749   5.310 -1.0066 -0.9773  0.6346
  153MOL0     C20997  12.903   0.634   5.219  1.2520 -0.2001 -0.7065
  153MOL0     C20998  13.023   0.561   5.182  0.2950  0.5436  0.2462
  153MOL0     C20999  13.000   0.430   5.104  0.0851 -0.6417  0.9794
  153MOL0     O21000  13.106   0.413   5.005  0.4991 -0.7905 -0.0492
  153MOL0     C21001  13.102   0.468   4.882 -0.4618 -0.6203  0.3058
  153MOL0     C21002  13.001   0.557   4.840  1.1385  0.9468 -0.3574
  153MOL0     C21003  13.002   0.612   4.711 -0.6011 -0.7531  0.0741
  153MOL0     C21004  12.884   0.703   4.678 -0.5123 -0.0126  0.5156
  153MOL0     C21005  13.106   0.574   4.620  0.1092 -0.2440 -0.8302
  153MOL0     C21006  13.109   0.629   4.478  0.7146 -0.1043  0.5724
  153MOL0     O21007  13.229   0.601   4.411 -0.2049 -0.8488 -0.7194
  153MOL0     C21008  13.230   0.616   4.281  0.3601  0.2720 -0.2108
  153MOL0     C21009  13.221   0.508   4.198 -0.4125  0.3968 -0.0053
  153MOL0     C21010  13.193   0.512   4.054 -0.5857  0.3657  0.2568
  153MOL0     C21011  13.218   0.635   3.997  1.3193  0.2218 -0.6337
  153MOL0     O21012  13.207   0.671   3.861 -0.0438  0.0686  0.4342
  153MOL0     C21013  13.165   0.576   3.772  0.5347  0.1405  0.9415
  153MOL0     C21014  13.152   0.648   3.630  0.2120  0.2535  0.6249
  153MOL0     C21015  13.052   0.575   3.537  0.1739  0.6948 -0.4159
  153MOL0     C21016  13.029   0.634   3.392  0.3434 -0.1453 -0.9736
  153MOL0     C21017  13.148   0.597   3.310  0.1655  0.0295 -0.3393
  153MOL0     C21018  13.119   0.622   3.164 -0.2978  0.1736  1.0697
  153MOL0     C21019  13.235   0.585   3.077 -0.3095 -0.5070  0.4380
  153MOL0     C21020  13.215   0.624   2.932  0.4887 -0.1978  0.0446
  153MOL0    Cl21021  13.052   0.572   2.865 -0.0389  0.0727 -0.0697
  153MOL0     C21022  13.241   0.748   4.079 -0.4525 -0.0391  0.4467
  153MOL0     C21023  13.239   0.743   4.221 -0.2814 -0.2691  1.1259
  153MOL0     O21024  13.005   0.646   4.417 -0.5217  1.0959  0.4775
  153MOL0     C21025  13.211   0.489   4.669  0.1514  0.2291 -0.0226
  153MOL0     C21026  13.206   0.441   4.794  0.0103  0.2036 -0.8157
  153MOL0     N21027  12.782   0.940   5.360 -0.6090  0.0517 -0.2307
  153MOL0     N21028  12.663   0.963   5.412 -0.3388  0.4129  0.0710
  153MOL0     C21029  11.801   1.459   5.515  0.2229  0.1906 -0.6133
  153MOL0     C21030  11.745   1.592   5.526  0.5338  1.3198 -0.0526
  153MOL0     C21031  11.402   1.942   5.558 -0.3976 -0.1393 -0.4886
  153MOL0     C21032  11.416   2.058   5.484  0.3565 -0.4267 -1.2749
  153MOL0     C21033  11.391   2.184   5.540  0.5931  0.4473 -0.6929
  153MOL0     C21034  11.354   2.198   5.673  0.7404  0.3379  0.1114
  153MOL0     O21035  11.347   2.329   5.708 -0.7927 -0.6199 -0.2678
  153MOL0     C21036  11.244   2.356   5.812 -0.4437  1.3039  0.2299
  153MOL0     C21037  11.099   2.334   5.758 -0.9958  1.2892  0.6240
  153MOL0     C21038  10.995   2.378   5.866  0.8214  0.0599 -0.0802
  153MOL0     C21039  10.995   2.535   5.900  0.2140  0.5724 -0.4142
  153MOL0     C21040  10.934   2.622   5.801 -0.1069  1.0920  0.0283
  153MOL0     C21041  10.873   2.688   5.720 -1.1731  0.8070  0.4226
  153MOL0     C21042  11.331   2.082   5.740 -0.6624 -0.8403 -0.6810
  153MOL0     C21043  11.347   1.957   5.686 -0.0392  0.0641  0.6075
  153MOL0     C21044  11.326   1.835   5.779  0.4272 -0.1522  0.9636
  153MOL0     H21045  11.430   1.531   5.411  0.7536  2.3897 -0.5771
  153MOL0     H21046  11.514   1.311   5.405 -0.6961  0.1219  0.9826
  153MOL0     H21047  11.726   1.206   5.681 -0.8037 -2.8359  0.1475
  153MOL0     H21048  11.884   1.257   5.643 -1.4391  1.2666  0.0952
  153MOL0     H21049  11.884   1.019   5.716  2.0962  1.8123 -0.2365
  153MOL0     H21050  11.772   0.971   5.583 -1.9525  2.1476 -3.0893
  153MOL0     H21051  11.958   1.053   5.428 -0.5361 -4.8772 -1.2901
  153MOL0     H21052  12.058   1.105   5.567  0.4410  0.6281 -1.6446
  153MOL0     H21053  12.020   0.837   5.631 -0.2129  2.5167  1.5464
  153MOL0     H21054  11.969   0.823   5.480  1.1384 -0.4354 -2.0910
  153MOL0     H21055  12.238   0.938   5.569  1.5883  0.9151 -1.0471
  153MOL0     H21056  12.190   0.940   5.406  0.3417 -0.8965  0.6057
  153MOL0     H21057  12.233   0.666   5.551 -3.3340 -2.9039 -2.3851
  153MOL0     H21058  12.180   0.695   5.389 -0.3253 -3.4353  1.0504
  153MOL0     H21059  12.373   0.807   5.316 -0.5403  0.9422  0.7139
  153MOL0     H21060  12.429   0.654   5.387  1.5182  1.0005 -0.0213
  153MOL0     H21061  12.433   0.923   5.524 -0.0947  1.8690 -1.9097
  153MOL0     H21062  12.504   0.762   5.590  2.9007 -1.7695 -2.8876
  153MOL0     H21063  12.681   0.633   5.414 -1.7505  0.1248 -1.8350
  153MOL0     H21064  12.985   0.706   5.394 -2.3320  0.4640  2.3340
  153MOL0     H21065  12.988   0.826   5.259  0.7996 -3.1359 -0.7241
  153MOL0     H21066  12.846   0.556   5.270  1.8633 -0.3929 -0.3080
  153MOL0     H21067  12.846   0.675   5.134 -1.0778  1.7461  1.6169
  153MOL0     H21068  13.082   0.630   5.122  0.9629  1.9890  2.4149
  153MOL0     H21069  13.066   0.534   5.280  1.3528 -1.3660 -0.6952
  153MOL0     H21070  12.995   0.347   5.176  2.4049 -0.0120  1.9443
  153MOL0     H21071  12.907   0.435   5.047  1.2297  1.9165 -0.8435
  153MOL0     H21072  12.918   0.587   4.903 -0.5577 -1.2044 -1.4526
  153MOL0     H21073  12.830   0.735   4.768 -1.8855  0.5844 -0.4786
  153MOL0     H21074  12.818   0.649   4.609 -2.7512  3.0388  0.0618
  153MOL0     H21075  12.910   0.790   4.617 -1.3010  0.1227  0.3600
  153MOL0     H21076  13.202   0.410   4.241 -1.3472 -0.4348 -2.1490
  153MOL0     H21077  13.177   0.424   3.993 -1.1933 -0.2547  1.2845
  153MOL0     H21078  13.226   0.486   3.760  0.1526 -0.0137  0.1142
  153MOL0     H21079  13.064   0.542   3.798 -0.0530  0.9354 -0.2038
  153MOL0     H21080  13.117   0.751   3.640  1.9298  0.8732  0.6515
  153MOL0     H21081  13.256   0.642   3.598  0.4937  0.7708  1.4158
  153MOL0     H21082  12.955   0.582   3.589 -0.4857 -2.3727 -1.0563
  153MOL0     H21083  13.074   0.469   3.525  0.0972  0.9686 -4.0191
  153MOL0     H21084  13.022   0.743   3.394  1.1552 -0.0524 -2.1511
  153MOL0     H21085  12.936   0.590   3.355 -1.0970  1.8505  0.0818
  153MOL0     H21086  13.243   0.639   3.345  1.2928 -0.9943 -2.0404
  153MOL0     H21087  13.161   0.490   3.327  1.1070  0.3275  1.0563
  153MOL0     H21088  13.082   0.723   3.147 -4.9210 -1.5098 -0.4391
  153MOL0     H21089  13.041   0.552   3.131 -1.4296  0.6089  2.7075
  153MOL0     H21090  13.270   0.482   3.090 -0.5498 -0.3670  2.7044
  153MOL0     H21091  13.324   0.638   3.112  1.8069 -2.0387 -2.2608
  153MOL0     H21092  13.299   0.591   2.871  2.5350  2.0740  1.4002
  153MOL0     H21093  13.223   0.733   2.926  1.8779 -0.2600  0.3967
  153MOL0     H21094  13.265   0.843   4.032  1.4668 -1.3991 -1.5545
  153MOL0     H21095  13.258   0.839   4.269  1.1167 -0.7067  1.4988
  153MOL0     H21096  13.305   0.486   4.614 -0.5739  2.5641 -1.5272
  153MOL0     H21097  13.297   0.394   4.830 -0.8996 -1.7590 -0.9575
  153MOL0     H21098  11.907   1.448   5.535 -0.0129 -0.5577  0.2627
  153MOL0     H21099  11.801   1.674   5.570 -0.0475  0.8612  1.6143
  153MOL0     H21100  11.444   2.051   5.380  0.8422  0.0759 -1.1829
  153MOL0     H21101  11.403   2.273   5.479  4.8387  0.8574  0.3969
  153MOL0     H21102  11.254   2.288   5.898 -1.6875  0.9167  0.0825
  153MOL0     H21103  11.249   2.460   5.845 -1.0749  1.0004  1.3228
  153MOL0     H21104  11.102   2.225   5.743 -0.3222  1.2372  1.1056
  153MOL0     H21105  11.076   2.377   5.660  2.4248 -1.4547 -1.6096
  153MOL0     H21106  10.892   2.353   5.837 -1.1827  3.4614  3.2589
  153MOL0     H21107  11.023   2.333   5.961 -0.6346  0.6178  0.6509
  153MOL0     H21108  11.097   2.573   5.907  0.7032 -0.3828 -1.8817
  153MOL0     H21109  10.940   2.551   5.994  3.5501  1.6631  1.5061
  153MOL0     H21110  10.811   2.749   5.658  1.1745  0.4193 -2.5540
  153MOL0     H21111  11.305   2.093   5.845 -1.2950  1.9849 -1.0620
  153MOL0     H21112  11.289   1.855   5.880 -0.1579 -0.0925  0.7416
  153MOL0     H21113  11.248   1.771   5.737  2.1651 -2.3089  0.8381
  153MOL0     H21114  11.421   1.781   5.786  1.2677  1.3546  1.7141
  154MOL0     O21115   2.178  11.271   8.345 -0.3044  0.7330 -0.5073
  154MOL0     C21116   2.247  11.355   8.298 -0.5875  0.4499 -0.3617
  154MOL0     O21117   2.384  11.340   8.272 -0.1162 -0.0231  0.5634
  154MOL0     C21118   2.441  11.214   8.258 -0.0538 -0.0578 -0.3596
  154MOL0     C21119   2.388  11.088   8.303 -0.2931 -0.1261 -0.3511
  154MOL0     C21120   2.457  10.968   8.287  0.0223 -0.6449 -0.4412
  154MOL0     C21121   2.588  10.971   8.229  0.2086 -0.2204 -0.6851
  154MOL0     O21122   2.668  10.864   8.202  0.4484  0.1524  0.2458
  154MOL0     C21123   2.652  10.748   8.280  0.5215 -0.1271 -0.3071
  154MOL0     C21124   2.787  10.671   8.271 -0.4160 -0.1946 -0.1010
  154MOL0     C21125   2.786  10.566   8.162  1.2762  0.2811 -0.8908
  154MOL0     C21126   2.885  10.449   8.179  0.5335  0.5777 -0.7235
  154MOL0     C21127   3.033  10.491   8.185 -0.6605 -0.6536  1.3274
  154MOL0     C21128   3.082  10.571   8.059  0.3609 -0.7261 -0.4024
  154MOL0     C21129   3.066  10.493   7.924  0.2566 -0.0304 -0.2680
  154MOL0     C21130   3.137  10.364   7.926 -0.3771  1.3445  0.6801
  154MOL0     N21131   3.149  10.302   7.799 -0.3696 -0.0902  0.5667
  154MOL0     C21132   3.182  10.171   7.783 -0.1006 -0.6628 -0.1202
  154MOL0     C21133   3.206  10.153   7.657 -0.1387  0.4970  0.8186
  154MOL0     C21134   3.242  10.015   7.615 -0.7415 -0.2080  0.5989
  154MOL0     C21135   3.340  10.017   7.496  0.2048  0.0337  0.1531
  154MOL0     C21136   3.347   9.876   7.427 -0.3054 -0.7469 -0.7210
  154MOL0     C21137   3.463   9.868   7.323 -0.0549 -0.6741  0.7126
  154MOL0     O21138   3.585   9.904   7.387  0.4837 -0.0261  0.0204
  154MOL0     C21139   3.708   9.880   7.326 -0.3237 -0.4294 -0.9907
  154MOL0     C21140   3.829   9.913   7.400  0.1966  0.9182  0.2475
  154MOL0     C21141   3.960   9.887   7.360  0.7288 -0.0960  0.1021
  154MOL0     C21142   4.072   9.916   7.457  0.0604 -0.5452  0.1219
  154MOL0     C21143   3.974   9.810   7.240  0.1921  0.2468  0.2722
  154MOL0     C21144   4.108   9.770   7.186  0.3052  0.5907  0.8214
  154MOL0     O21145   4.098   9.667   7.100  0.0265  0.7292  0.1078
  154MOL0     C21146   4.192   9.580   7.058 -0.2077  0.0980 -0.0017
  154MOL0     C21147   4.305   9.551   7.135  0.2823 -1.1162 -0.1925
  154MOL0     C21148   4.409   9.457   7.096 -0.1438  0.0159  0.7018
  154MOL0     C21149   4.386   9.386   6.974  0.9760  0.2060  0.8446
  154MOL0     O21150   4.474   9.293   6.925  0.6139  0.5837  0.9073
  154MOL0     C21151   4.582   9.254   7.016 -0.2009 -0.3507  0.4073
  154MOL0     C21152   4.678   9.166   6.930  0.6475 -0.3805  0.1728
  154MOL0     C21153   4.631   9.018   6.949  0.4903  0.1350  0.2894
  154MOL0     C21154   4.720   8.916   6.862  0.0003  0.5759 -0.7342
  154MOL0     C21155   4.678   8.768   6.882 -0.2440 -0.1459  0.8703
  154MOL0     C21156   4.739   8.725   7.009 -0.2412  0.3580 -0.2260
  154MOL0     C21157   4.703   8.580   7.053 -0.1962  1.0232  0.5209
  154MOL0     C21158   4.803   8.501   7.136 -0.5376  0.2413  0.1005
  154MOL0    Cl21159   4.708   8.378   7.235 -0.1762 -0.0765  0.1291
  154MOL0     C21160   4.270   9.412   6.903  0.1973  0.6705  1.2862
  154MOL0     C21161   4.168   9.498   6.943 -1.2393  0.1088  0.5429
  154MOL0     O21162   4.217   9.826   7.220  0.1402 -1.1475 -0.5429
  154MOL0     C21163   3.857   9.772   7.168 -0.6998 -0.8180 -0.2347
  154MOL0     C21164   3.725   9.805   7.211  0.2824 -0.8768  0.6184
  154MOL0     N21165   3.169  10.261   7.586 -0.2668 -0.2174 -0.2924
  154MOL0     N21166   3.145  10.360   7.668  0.2097  0.2501 -0.4753
  154MOL0     C21167   2.635  11.094   8.187  0.1430  0.1179 -0.5177
  154MOL0     C21168   2.571  11.210   8.198  0.2367 -0.2741  0.6639
  154MOL0     C21169   2.189  11.499   8.300  0.7462 -0.0104  0.2914
  154MOL0     C21170   2.269  11.606   8.338 -0.0963  0.0744 -0.1566
  154MOL0     C21171   2.226  11.739   8.326  0.1679  0.4618  0.0556
  154MOL0     C21172   2.096  11.764   8.290 -0.8382 -0.6238  0.2298
  154MOL0     O21173   2.024  11.881   8.298  0.0300 -0.6503  0.7123
  154MOL0     C21174   2.102  11.984   8.368 -0.0020  0.1672  1.1244
  154MOL0     C21175   2.025  12.118   8.364  0.9777 -0.2007  0.1270
  154MOL0     C21176   1.902  12.111   8.460 -0.9930 -0.3052 -0.1054
  154MOL0     C21177   1.823  12.235   8.460  0.2117 -0.4005 -0.7159
  154MOL0     C21178   1.894  12.360   8.499 -1.1678  0.0432 -0.1924
  154MOL0     C21179   1.956  12.458   8.530  0.5699  1.1658  0.7487
  154MOL0     C21180   2.019  11.662   8.249 -0.8787  0.6597  0.7915
  154MOL0     C21181   2.062  11.531   8.253  0.3067  0.6964  0.0298
  154MOL0     C21182   1.967  11.431   8.191  0.3042  0.1124 -0.1981
  154MOL0     H21183   2.295  11.073   8.357  2.1960 -2.5690  3.7689
  154MOL0     H21184   2.413  10.873   8.315 -0.2584 -1.4962 -3.3849
  154MOL0     H21185   2.573  10.676   8.257  0.7756 -0.6260  0.3363
  154MOL0     H21186   2.634  10.780   8.383 -0.7229  1.0007 -0.8507
  154MOL0     H21187   2.869  10.741   8.249 -1.9294  1.2322 -1.4240
  154MOL0     H21188   2.804  10.624   8.368  1.0348  0.4969  0.0073
  154MOL0     H21189   2.691  10.513   8.157  1.3554  0.0534 -0.1444
  154MOL0     H21190   2.801  10.620   8.069 -2.3046  0.6109 -1.3978
  154MOL0     H21191   2.865  10.400   8.275 -0.8280 -0.8892 -1.6977
  154MOL0     H21192   2.864  10.365   8.112 -2.0252  0.7827 -0.2876
  154MOL0     H21193   3.091  10.399   8.199  1.0953  0.2687  0.4139
  154MOL0     H21194   3.052  10.545   8.279  0.6059  2.5311 -0.5960
  154MOL0     H21195   3.011  10.653   8.057  1.4325  0.3721  2.1263
  154MOL0     H21196   3.184  10.609   8.072 -0.3378  1.0436  0.2115
  154MOL0     H21197   3.110  10.561   7.850  0.4941 -0.9019 -0.9357
  154MOL0     H21198   2.964  10.469   7.894  0.1111  0.5003 -0.2179
  154MOL0     H21199   3.241  10.374   7.957 -0.3121 -1.5172  1.7300
  154MOL0     H21200   3.097  10.297   8.003  1.5616 -1.1053 -0.2932
  154MOL0     H21201   3.196  10.103   7.866  2.7793 -1.9397 -1.4752
  154MOL0     H21202   3.148   9.964   7.592 -1.3624  0.3233  1.8448
  154MOL0     H21203   3.286   9.959   7.699 -0.7174 -1.3998 -0.1834
  154MOL0     H21204   3.308  10.089   7.420  0.8943  0.2522  0.0671
  154MOL0     H21205   3.435  10.055   7.533  0.4205 -1.1630  0.9186
  154MOL0     H21206   3.369   9.811   7.512  0.6308 -0.0419 -0.4076
  154MOL0     H21207   3.253   9.866   7.372 -2.3549 -0.6954  2.5039
  154MOL0     H21208   3.462   9.759   7.311  2.0454 -0.9310  2.2836
  154MOL0     H21209   3.441   9.934   7.239  1.0947  0.8079  1.5183
  154MOL0     H21210   3.816   9.950   7.501 -1.6540  2.3223 -0.4597
  154MOL0     H21211   4.141   9.990   7.413 -1.4586  1.3691  0.8112
  154MOL0     H21212   4.121   9.829   7.500 -0.1859 -1.7663 -1.9183
  154MOL0     H21213   4.028   9.973   7.539 -0.7990  2.4144 -2.2158
  154MOL0     H21214   4.317   9.611   7.225  0.2984 -0.0376 -0.8972
  154MOL0     H21215   4.484   9.437   7.171 -1.6023  0.4569  2.3373
  154MOL0     H21216   4.643   9.334   7.057  2.5011 -1.5611 -0.9612
  154MOL0     H21217   4.548   9.204   7.107  0.5829  0.9511  1.4309
  154MOL0     H21218   4.700   9.193   6.826 -0.0735  0.6146  0.2584
  154MOL0     H21219   4.773   9.174   6.983 -0.1256 -0.6294  1.6356
  154MOL0     H21220   4.530   8.990   6.918 -0.1529 -0.4399  2.6388
  154MOL0     H21221   4.634   8.992   7.055  0.6523 -1.9299 -0.1832
  154MOL0     H21222   4.826   8.930   6.885 -0.1875  1.7863 -0.5346
  154MOL0     H21223   4.724   8.935   6.754  1.6528 -1.1934 -1.0245
  154MOL0     H21224   4.569   8.764   6.891 -0.2182  0.5793  1.6127
  154MOL0     H21225   4.721   8.701   6.807  1.2168 -0.2955  1.8055
  154MOL0     H21226   4.699   8.792   7.085 -5.7633 -1.8391 -0.7220
  154MOL0     H21227   4.849   8.722   7.012 -0.1256  0.8114 -2.3861
  154MOL0     H21228   4.678   8.517   6.967  0.6824 -0.2942  1.1835
  154MOL0     H21229   4.606   8.584   7.103 -2.4782 -1.2258 -3.2654
  154MOL0     H21230   4.847   8.566   7.213 -1.2366 -0.4195  1.0645
  154MOL0     H21231   4.878   8.461   7.067 -0.1184 -1.6091  1.5474
  154MOL0     H21232   4.256   9.367   6.805 -1.0182  2.3375  0.6492
  154MOL0     H21233   4.079   9.511   6.882  0.4854 -1.3606 -2.5613
  154MOL0     H21234   3.880   9.725   7.073  0.7274  0.6613 -0.6724
  154MOL0     H21235   3.636   9.787   7.151  0.5542  2.0118 -0.7901
  154MOL0     H21236   2.731  11.093   8.136  0.0445  0.7275 -0.7260
  154MOL0     H21237   2.612  11.302   8.157 -1.0346 -0.7218 -1.7260
  154MOL0     H21238   2.372  11.583   8.361  0.3402  1.8965 -0.1131
  154MOL0     H21239   2.298  11.816   8.349  0.9133 -0.2957  0.3049
  154MOL0     H21240   2.114  11.956   8.473 -2.7210 -1.8806  1.0121
  154MOL0     H21241   2.199  12.001   8.322  0.3178  2.6465  2.5246
  154MOL0     H21242   1.985  12.133   8.263  2.8173  2.9344 -0.2716
  154MOL0     H21243   2.094  12.200   8.389  1.0386 -0.3472  0.4335
  154MOL0     H21244   1.833  12.030   8.436  0.0208 -0.5973 -2.2405
  154MOL0     H21245   1.938  12.082   8.559 -0.8840 -1.6895 -0.5307
  154MOL0     H21246   1.729  12.221   8.514  0.3874 -3.4828 -1.0181
  154MOL0     H21247   1.793  12.244   8.355  0.7461 -3.0876 -1.1633
  154MOL0     H21248   2.013  12.539   8.570  0.7055  1.2803  0.3300
  154MOL0     H21249   1.913  11.677   8.230 -0.5147  1.6530 -0.5422
  154MOL0     H21250   1.876  11.413   8.249  0.8540 -2.2147  0.0449
  154MOL0     H21251   1.937  11.457   8.090 -0.6237  0.2911  0.1188
  154MOL0     H21252   2.014  11.333   8.174 -0.2643  0.1548 -2.2343
  155MOL0     O21253   6.649   4.078   4.800 -0.5884  0.9579 -0.4916
  155MOL0     C21254   6.534   4.067   4.832  0.8572  0.1479  0.4321
  155MOL0     O21255   6.454   3.962   4.809 -0.2205  0.4426  1.0258
  155MOL0     C21256   6.494   3.862   4.720  0.7107  0.2882  0.9810
  155MOL0     C21257   6.457   3.864   4.586 -0.2371 -1.1799 -0.2711
  155MOL0     C21258   6.502   3.755   4.505  0.2518 -0.2926 -0.5321
  155MOL0     C21259   6.585   3.649   4.556  0.7823 -0.6031 -0.5209
  155MOL0     O21260   6.635   3.537   4.487  0.7608 -0.3834  0.0234
  155MOL0     C21261   6.604   3.534   4.350  0.1954  0.7324  0.0461
  155MOL0     C21262   6.651   3.407   4.278  0.8870 -0.0436  0.1784
  155MOL0     C21263   6.558   3.294   4.326 -0.6750  0.0110  0.2253
  155MOL0     C21264   6.559   3.173   4.227  0.2624  0.3694 -0.1211
  155MOL0     C21265   6.432   3.077   4.231  0.3787 -0.1229 -0.2916
  155MOL0     C21266   6.432   2.990   4.358  0.1805 -0.2200  1.0115
  155MOL0     C21267   6.332   2.877   4.345  0.1311  0.6474 -0.1068
  155MOL0     C21268   6.318   2.800   4.484  0.4844  0.8394 -0.0953
  155MOL0     N21269   6.451   2.751   4.517  0.6056  0.3709 -1.4965
  155MOL0     C21270   6.518   2.784   4.636  0.1106 -0.5256 -0.5786
  155MOL0     C21271   6.641   2.710   4.628 -0.2699  0.8690  0.9927
  155MOL0     C21272   6.760   2.725   4.728  1.0532 -0.1708  0.2971
  155MOL0     C21273   6.890   2.679   4.669 -0.1255  0.3370  0.2800
  155MOL0     C21274   7.014   2.706   4.766 -0.4912  0.1860  0.0203
  155MOL0     C21275   6.986   2.649   4.907 -0.6098  0.1321 -0.7017
  155MOL0     O21276   7.112   2.643   4.983  0.4115  0.2855  0.5621
  155MOL0     C21277   7.162   2.518   5.020 -0.1186 -0.7838  0.3000
  155MOL0     C21278   7.280   2.513   5.098 -0.4019 -0.1771 -0.3766
  155MOL0     C21279   7.345   2.393   5.133 -0.3367 -0.0641  0.2062
  155MOL0     C21280   7.467   2.407   5.215  0.3935  1.2985  0.7245
  155MOL0     C21281   7.291   2.262   5.095 -0.9510 -0.4853  0.1478
  155MOL0     C21282   7.341   2.129   5.146 -0.6629 -0.5300 -0.4679
  155MOL0     O21283   7.405   2.134   5.263 -0.9622 -0.6514  0.1019
  155MOL0     C21284   7.509   2.038   5.299  0.7986 -0.4341  0.1317
  155MOL0     C21285   7.526   1.997   5.425  0.1231 -0.6629 -0.0157
  155MOL0     C21286   7.624   1.911   5.466  0.1694  0.6597  0.0459
  155MOL0     C21287   7.709   1.861   5.369  0.3722 -0.0710 -0.2281
  155MOL0     O21288   7.810   1.781   5.410 -0.1787 -0.2428  0.2580
  155MOL0     C21289   7.904   1.715   5.317  0.2264 -0.0402 -0.0622
  155MOL0     C21290   7.989   1.623   5.402  0.5465 -0.3390  0.5267
  155MOL0     C21291   8.104   1.578   5.318 -0.8590 -0.6749 -0.0436
  155MOL0     C21292   8.213   1.517   5.425 -0.2153  1.0523 -0.3553
  155MOL0     C21293   8.358   1.545   5.378  0.6012 -0.7273  0.4482
  155MOL0     C21294   8.408   1.690   5.425  0.2515  0.3433 -0.7571
  155MOL0     C21295   8.558   1.700   5.387  0.1566  0.0043 -0.0815
  155MOL0     C21296   8.626   1.835   5.366  0.1421 -0.2545  0.2960
  155MOL0    Cl21297   8.582   1.961   5.491  0.3872  0.4431  0.2418
  155MOL0     C21298   7.702   1.900   5.232 -1.3857  0.0153  0.1293
  155MOL0     C21299   7.613   2.008   5.209  0.0205  0.5061  1.1291
  155MOL0     O21300   7.333   2.034   5.070 -0.3502  0.1708  0.5416
  155MOL0     C21301   7.179   2.269   5.006  0.5361  0.3548 -0.5772
  155MOL0     C21302   7.114   2.390   4.983  0.2280 -0.9046 -0.8417
  155MOL0     N21303   6.634   2.641   4.508  0.5480  0.6752 -0.1121
  155MOL0     N21304   6.528   2.666   4.447  0.7761  0.1071 -0.0265
  155MOL0     C21305   6.625   3.654   4.687  0.3221  0.3748  0.9971
  155MOL0     C21306   6.573   3.760   4.770 -0.2490  0.7821 -0.3314
  155MOL0     C21307   6.479   4.169   4.926 -0.7635 -0.3224  0.3080
  155MOL0     C21308   6.535   4.302   4.918  0.2442  0.2003  0.8227
  155MOL0     C21309   6.493   4.405   4.994  0.1890 -0.4244  0.4451
  155MOL0     C21310   6.396   4.386   5.094  0.9413  0.4776  1.1724
  155MOL0     O21311   6.378   4.490   5.171  0.3766  0.1861 -0.0404
  155MOL0     C21312   6.257   4.562   5.155 -0.2951 -0.1055  0.0749
  155MOL0     C21313   6.277   4.707   5.208 -0.1807 -0.0959  0.4514
  155MOL0     C21314   6.313   4.723   5.360  0.2195 -0.3934  0.3354
  155MOL0     C21315   6.353   4.868   5.391  0.1390 -0.3529 -0.2557
  155MOL0     C21316   6.257   4.967   5.355  1.0947 -0.3022  1.0444
  155MOL0     C21317   6.178   5.044   5.298 -0.7948  0.2352 -0.0617
  155MOL0     C21318   6.335   4.256   5.102 -0.1684  0.3726 -0.5565
  155MOL0     C21319   6.363   4.151   5.009  0.6074 -0.6342 -0.4535
  155MOL0     C21320   6.276   4.024   5.022 -0.0232  0.1506  0.1620
  155MOL0     H21321   6.401   3.943   4.537 -0.5491 -3.6837 -4.4962
  155MOL0     H21322   6.473   3.746   4.401 -0.4373 -0.0861 -0.3673
  155MOL0     H21323   6.646   3.620   4.296 -0.0889 -0.2561 -1.8401
  155MOL0     H21324   6.496   3.539   4.335  0.1177  0.7738  0.6090
  155MOL0     H21325   6.630   3.421   4.171  2.9520  3.6774  0.0656
  155MOL0     H21326   6.758   3.388   4.292  1.0383  1.4784  1.3719
  155MOL0     H21327   6.581   3.251   4.424 -0.1955 -0.2523 -0.0042
  155MOL0     H21328   6.454   3.330   4.324 -0.2924  1.3838  1.9635
  155MOL0     H21329   6.555   3.221   4.129 -0.4206  0.1382 -0.2136
  155MOL0     H21330   6.651   3.115   4.230  0.8372  0.7692 -4.3500
  155MOL0     H21331   6.436   3.003   4.150  5.6903 -1.6766  0.9509
  155MOL0     H21332   6.340   3.136   4.227 -0.5100 -1.3094  1.3837
  155MOL0     H21333   6.532   2.949   4.374  0.5728  1.2318  2.6417
  155MOL0     H21334   6.417   3.049   4.449  0.9214 -1.6853  2.1234
  155MOL0     H21335   6.359   2.811   4.262  1.4520  0.8955  0.0995
  155MOL0     H21336   6.238   2.924   4.315 -0.5947 -2.6404 -3.8537
  155MOL0     H21337   6.276   2.871   4.556 -2.1666 -3.4831  3.0312
  155MOL0     H21338   6.258   2.710   4.475  0.9073  0.4115  1.1559
  155MOL0     H21339   6.485   2.856   4.710 -1.0063 -2.7103  1.1697
  155MOL0     H21340   6.736   2.666   4.817 -0.1856 -0.9608 -0.5215
  155MOL0     H21341   6.767   2.832   4.745 -1.9278  0.6610 -2.7517
  155MOL0     H21342   6.889   2.580   4.623  0.8306  1.7505 -3.1223
  155MOL0     H21343   6.901   2.744   4.581 -1.0175  1.1115  0.7227
  155MOL0     H21344   7.103   2.663   4.720 -0.7515 -1.8821  1.3108
  155MOL0     H21345   7.045   2.811   4.771 -0.3175  0.1554 -0.3288
  155MOL0     H21346   6.918   2.707   4.969 -0.6701 -2.6350  2.0293
  155MOL0     H21347   6.938   2.551   4.897 -3.7214  1.4298  0.4501
  155MOL0     H21348   7.322   2.610   5.123 -1.2177  0.4821 -1.4596
  155MOL0     H21349   7.430   2.390   5.317  0.4981  1.7210  0.8324
  155MOL0     H21350   7.505   2.509   5.218 -0.4790  1.6159  2.5852
  155MOL0     H21351   7.535   2.325   5.187 -2.1106 -1.6985  2.6350
  155MOL0     H21352   7.457   2.041   5.497 -0.9305  1.8746 -2.3741
  155MOL0     H21353   7.646   1.900   5.572  1.4890  0.8899 -0.1886
  155MOL0     H21354   7.861   1.650   5.240 -1.5616  1.9422 -0.8605
  155MOL0     H21355   7.950   1.794   5.257  2.8754 -1.2414  0.2879
  155MOL0     H21356   8.025   1.672   5.494  1.1099 -1.4830  0.9336
  155MOL0     H21357   7.927   1.540   5.435 -1.2743 -0.1940 -2.2176
  155MOL0     H21358   8.141   1.665   5.265 -1.3992 -0.5493 -0.2155
  155MOL0     H21359   8.072   1.500   5.248 -1.0106 -2.0102  1.4264
  155MOL0     H21360   8.179   1.414   5.444 -0.4214  1.3472  0.9835
  155MOL0     H21361   8.211   1.560   5.525  3.4729  0.2208  0.2362
  155MOL0     H21362   8.428   1.468   5.414 -1.5680 -1.9763  2.2467
  155MOL0     H21363   8.351   1.545   5.268 -3.6719 -0.9015  0.5617
  155MOL0     H21364   8.388   1.693   5.533  1.4281  2.2168 -0.5446
  155MOL0     H21365   8.352   1.775   5.385  0.2969  0.8116  0.1399
  155MOL0     H21366   8.577   1.637   5.300 -0.2293  0.4459 -0.4875
  155MOL0     H21367   8.606   1.658   5.476 -1.3047  0.7234  1.0837
  155MOL0     H21368   8.602   1.877   5.268  2.2073 -2.8490 -1.4663
  155MOL0     H21369   8.735   1.828   5.363  0.1301 -1.2185  1.6897
  155MOL0     H21370   7.764   1.865   5.150 -2.2744  0.9870 -0.9948
  155MOL0     H21371   7.604   2.045   5.108  0.5674 -2.5715 -0.1610
  155MOL0     H21372   7.138   2.180   4.959  1.1338 -0.1102 -0.2251
  155MOL0     H21373   7.022   2.366   4.930  1.5433 -0.0533 -3.7257
  155MOL0     H21374   6.678   3.572   4.733  0.6784  0.3200  0.4988
  155MOL0     H21375   6.597   3.764   4.876 -1.5684  0.7011 -0.0091
  155MOL0     H21376   6.610   4.319   4.842 -1.4860  0.6057 -0.8605
  155MOL0     H21377   6.539   4.503   4.982 -2.7680  1.0101 -0.3826
  155MOL0     H21378   6.221   4.564   5.052  0.3820  4.3016 -0.2740
  155MOL0     H21379   6.180   4.520   5.221  1.5737 -2.2583  1.0476
  155MOL0     H21380   6.186   4.761   5.184  1.4192  2.0004 -1.2254
  155MOL0     H21381   6.350   4.757   5.144  1.6095 -1.0178  1.6725
  155MOL0     H21382   6.226   4.704   5.424  1.9011  2.5378  3.8112
  155MOL0     H21383   6.394   4.653   5.384  2.0867  1.3414 -0.5875
  155MOL0     H21384   6.446   4.890   5.339 -0.9309 -2.8951 -3.5711
  155MOL0     H21385   6.365   4.877   5.500 -0.1778 -0.8354 -0.1785
  155MOL0     H21386   6.120   5.119   5.249 -0.0962 -0.2774 -1.7468
  155MOL0     H21387   6.256   4.262   5.176  0.5461 -0.4718  0.3068
  155MOL0     H21388   6.194   4.051   5.089  1.4644  2.5745  1.1338
  155MOL0     H21389   6.235   3.990   4.926  0.0853  0.2647  0.0744
  155MOL0     H21390   6.346   3.949   5.059 -1.5117 -1.1786  0.3862
  156MOL0     O21391   6.060   0.820   9.236 -0.2088  0.0077 -0.0023
  156MOL0     C21392   6.131   0.923   9.238 -0.5667  0.0560 -0.8971
  156MOL0     O21393   6.163   0.997   9.120 -0.0150  0.0399 -0.1692
  156MOL0     C21394   6.128   0.955   8.991 -0.4008  0.4289 -0.1364
  156MOL0     C21395   6.060   1.041   8.903  0.7363  0.1416 -0.3533
  156MOL0     C21396   6.026   0.997   8.773 -0.0689  0.0724  0.0159
  156MOL0     C21397   6.055   0.863   8.727 -1.1031  0.0123  0.1224
  156MOL0     O21398   6.020   0.839   8.591  0.2703  0.1856  0.0696
  156MOL0     C21399   6.017   0.703   8.558  0.3990 -0.3911 -0.0849
  156MOL0     C21400   5.911   0.683   8.452 -0.2683  0.3845  0.2962
  156MOL0     C21401   5.930   0.771   8.324 -0.1166 -0.2783  0.7943
  156MOL0     C21402   6.046   0.716   8.238  0.4366  0.6241  0.2849
  156MOL0     C21403   6.048   0.792   8.101 -0.6567 -0.6908 -0.8267
  156MOL0     C21404   6.137   0.747   7.990 -0.4309 -0.3412 -0.8988
  156MOL0     C21405   6.123   0.841   7.862 -1.0529  0.3670 -0.4017
  156MOL0     C21406   6.204   0.797   7.740 -0.0602  0.6735 -0.1508
  156MOL0     N21407   6.165   0.859   7.611  0.8798  0.0869  0.6422
  156MOL0     C21408   6.235   0.948   7.535  0.0680 -0.1586 -0.2225
  156MOL0     C21409   6.144   0.996   7.439  0.1927  0.2508 -0.4743
  156MOL0     C21410   6.185   1.098   7.331 -0.3056 -0.2421 -0.7128
  156MOL0     C21411   6.262   1.030   7.214  0.0557 -0.3355  0.8067
  156MOL0     C21412   6.162   0.978   7.101  0.0798  0.2096 -0.9780
  156MOL0     C21413   6.088   1.095   7.029 -0.5184  0.6914 -0.3332
  156MOL0     O21414   6.166   1.170   6.932 -0.8726 -0.8519 -0.1753
  156MOL0     C21415   6.106   1.277   6.872 -0.1073 -0.6305  0.1343
  156MOL0     C21416   6.017   1.269   6.771  0.3421  0.0251  0.1720
  156MOL0     C21417   5.965   1.383   6.701 -0.5605 -0.4184  0.3968
  156MOL0     C21418   5.881   1.358   6.578 -0.5484  0.3797 -0.6270
  156MOL0     C21419   6.016   1.519   6.731 -0.0336  0.5825 -0.0428
  156MOL0     C21420   5.983   1.645   6.661 -0.5272 -0.5403  0.8508
  156MOL0     O21421   5.894   1.642   6.557 -0.3362  0.5737 -0.9684
  156MOL0     C21422   5.847   1.763   6.499  1.1519  0.1596  0.2747
  156MOL0     C21423   5.716   1.763   6.442  0.9588  0.6925  0.3780
  156MOL0     C21424   5.675   1.866   6.359  0.2602  0.1533  0.2118
  156MOL0     C21425   5.749   1.985   6.329  0.3543  0.0165  0.8399
  156MOL0     O21426   5.718   2.087   6.249 -0.4885 -0.1732 -0.0068
  156MOL0     C21427   5.639   2.054   6.135  0.6818  0.3927 -0.1455
  156MOL0     C21428   5.597   2.165   6.045  0.3910 -0.5243  0.5473
  156MOL0     C21429   5.714   2.254   5.991  0.3433  0.4529 -0.5072
  156MOL0     C21430   5.654   2.372   5.914  0.5289  0.5072  0.2051
  156MOL0     C21431   5.751   2.445   5.815  0.8982 -0.1929  0.0415
  156MOL0     C21432   5.666   2.539   5.719 -0.8084 -0.2026  0.0126
  156MOL0     C21433   5.751   2.608   5.611 -0.5374  0.2439  0.2466
  156MOL0     C21434   5.671   2.653   5.493 -0.1492 -0.0544  0.8095
  156MOL0    Cl21435   5.587   2.799   5.546  0.4066  0.0965 -0.0909
  156MOL0     C21436   5.877   1.986   6.392  0.0473 -0.1686  0.4041
  156MOL0     C21437   5.926   1.877   6.471 -0.2442 -0.1512 -0.8710
  156MOL0     O21438   6.032   1.749   6.711  0.2676 -0.4143  0.5364
  156MOL0     C21439   6.108   1.522   6.844  0.2869  0.1630 -0.8401
  156MOL0     C21440   6.152   1.406   6.908 -0.5193 -0.2306  0.2364
  156MOL0     N21441   6.029   0.919   7.449  0.1207 -0.4920 -0.3422
  156MOL0     N21442   6.046   0.837   7.547 -1.1457 -0.2117  0.3297
  156MOL0     C21443   6.131   0.787   8.817  0.5470  1.5826 -0.3056
  156MOL0     C21444   6.162   0.824   8.948  0.6690  0.2466  0.5684
  156MOL0     C21445   6.189   0.975   9.364 -0.3831  0.3122 -0.1875
  156MOL0     C21446   6.245   1.105   9.366  0.3622 -0.0136  0.3028
  156MOL0     C21447   6.301   1.161   9.479 -0.7730 -0.4813  0.6040
  156MOL0     C21448   6.306   1.097   9.601  0.0421  0.2803  0.3831
  156MOL0     O21449   6.371   1.134   9.716 -0.2651 -0.2979  0.2186
  156MOL0     C21450   6.394   1.272   9.742 -0.9451 -0.0215  0.2597
  156MOL0     C21451   6.435   1.297   9.886 -0.3431 -0.5741 -0.1434
  156MOL0     C21452   6.435   1.448   9.925 -0.9972 -0.8098  0.0636
  156MOL0     C21453   6.523   1.474  10.044 -1.0567  0.0601 -0.0025
  156MOL0     C21454   6.463   1.409  10.161 -0.1041  1.3367  0.7288
  156MOL0     C21455   6.399   1.369  10.250  0.9237  0.0201  0.4295
  156MOL0     C21456   6.250   0.970   9.598 -0.3585  0.5059  0.6703
  156MOL0     C21457   6.198   0.901   9.489 -0.3243 -0.0273 -0.3371
  156MOL0     C21458   6.131   0.766   9.514 -0.0242 -0.7804  0.4461
  156MOL0     H21459   6.049   1.144   8.934  0.2581  0.5380 -1.7773
  156MOL0     H21460   5.982   1.059   8.696  2.7394  0.4856 -1.4161
  156MOL0     H21461   5.988   0.632   8.636  2.4975 -0.1721  0.9658
  156MOL0     H21462   6.117   0.670   8.529  0.7406  2.2770 -2.2508
  156MOL0     H21463   5.902   0.580   8.417  0.1435  0.7870 -1.0326
  156MOL0     H21464   5.814   0.697   8.501 -0.4931 -1.8069  0.5995
  156MOL0     H21465   5.835   0.774   8.270 -0.5824  2.8311  1.5843
  156MOL0     H21466   5.947   0.877   8.345 -2.0977  0.9295 -2.8990
  156MOL0     H21467   6.142   0.729   8.289  3.0831 -2.4748 -3.3181
  156MOL0     H21468   6.031   0.608   8.223  0.4041  0.8372 -1.3471
  156MOL0     H21469   6.078   0.895   8.120  1.8238 -1.3309 -1.0150
  156MOL0     H21470   5.945   0.800   8.065 -0.9503 -3.0722 -0.7233
  156MOL0     H21471   6.242   0.735   8.018 -0.2736  1.8822 -0.3719
  156MOL0     H21472   6.107   0.646   7.959  1.3668 -0.7239 -1.4722
  156MOL0     H21473   6.158   0.943   7.879  0.2544 -0.3574  1.6393
  156MOL0     H21474   6.017   0.841   7.833 -2.0676  0.3820  2.8905
  156MOL0     H21475   6.311   0.796   7.763  0.2877  0.3984 -1.6782
  156MOL0     H21476   6.199   0.689   7.723  1.7044  0.6075 -0.4318
  156MOL0     H21477   6.335   0.983   7.556 -0.6688  2.1256 -0.3213
  156MOL0     H21478   6.248   1.174   7.377 -2.8365  0.8499  1.1425
  156MOL0     H21479   6.103   1.160   7.295 -0.8257  1.0446  2.3871
  156MOL0     H21480   6.332   1.095   7.159  0.8459 -0.5950  1.4831
  156MOL0     H21481   6.328   0.949   7.245 -0.6387 -1.0691  0.3876
  156MOL0     H21482   6.214   0.918   7.025  1.7594  1.3537 -0.7704
  156MOL0     H21483   6.093   0.916   7.159  4.0634 -2.2660  1.6166
  156MOL0     H21484   6.006   1.053   6.971 -0.6954  1.7646 -0.8837
  156MOL0     H21485   6.044   1.166   7.100  1.3408  0.4189  1.1771
  156MOL0     H21486   5.983   1.170   6.744 -1.6579  0.4564  0.9375
  156MOL0     H21487   5.927   1.404   6.490 -0.7330 -0.4131 -1.1494
  156MOL0     H21488   5.786   1.408   6.597 -1.3982 -0.8251 -1.5764
  156MOL0     H21489   5.843   1.258   6.556 -1.1595 -0.0549  2.0873
  156MOL0     H21490   5.643   1.694   6.483  0.0989  2.2352  1.5654
  156MOL0     H21491   5.574   1.871   6.321  1.6839  0.8624 -4.0879
  156MOL0     H21492   5.698   1.995   6.065  0.3152  3.1039 -2.9330
  156MOL0     H21493   5.549   2.002   6.169  0.7857  1.2070  1.4691
  156MOL0     H21494   5.532   2.129   5.964 -0.1541  1.5746 -0.0197
  156MOL0     H21495   5.535   2.237   6.100  1.9171  0.5242  0.9561
  156MOL0     H21496   5.776   2.199   5.919  1.6529  1.7011 -0.3926
  156MOL0     H21497   5.774   2.284   6.077  0.6914 -2.7631  0.4977
  156MOL0     H21498   5.610   2.461   5.961  0.7541  2.2742 -2.6564
  156MOL0     H21499   5.582   2.329   5.844  0.6342  1.6479 -0.6413
  156MOL0     H21500   5.820   2.505   5.875  2.5074 -0.8299 -1.1237
  156MOL0     H21501   5.809   2.369   5.761  0.4251 -0.4032 -0.1800
  156MOL0     H21502   5.603   2.609   5.775 -1.7522 -0.7054 -0.3839
  156MOL0     H21503   5.598   2.467   5.671  0.7535 -1.0278 -1.0686
  156MOL0     H21504   5.823   2.531   5.581  0.7607  0.9729  1.3754
  156MOL0     H21505   5.802   2.695   5.654 -0.0278  0.8348 -1.4523
  156MOL0     H21506   5.609   2.567   5.469 -0.6294 -0.1143  2.2285
  156MOL0     H21507   5.745   2.669   5.413 -0.9906  0.4636  0.1180
  156MOL0     H21508   5.948   2.064   6.367 -0.1922  0.0288  0.3374
  156MOL0     H21509   6.027   1.880   6.509  0.5636 -1.0331 -2.7986
  156MOL0     H21510   6.133   1.620   6.883 -0.0571  0.5789 -1.6292
  156MOL0     H21511   6.214   1.416   6.996  0.9744 -1.0306 -0.6777
  156MOL0     H21512   6.148   0.684   8.785 -0.1128  0.7528  1.7853
  156MOL0     H21513   6.208   0.753   9.016  0.1227 -0.6139  0.0474
  156MOL0     H21514   6.222   1.161   9.275 -4.1094 -0.7040  0.7921
  156MOL0     H21515   6.326   1.267   9.472 -1.6893 -0.3763 -2.4217
  156MOL0     H21516   6.473   1.299   9.671 -1.1636 -3.1338 -1.3413
  156MOL0     H21517   6.308   1.336   9.721  0.6018  1.6846 -1.2268
  156MOL0     H21518   6.538   1.261   9.896  0.0784  1.0946  2.6187
  156MOL0     H21519   6.382   1.240   9.962  1.1220 -1.8848 -0.0549
  156MOL0     H21520   6.464   1.509   9.839  1.3781  2.2250  2.8126
  156MOL0     H21521   6.331   1.479   9.943 -0.6230  1.7897 -1.6943
  156MOL0     H21522   6.530   1.580  10.072 -2.2720  0.0151  0.5352
  156MOL0     H21523   6.625   1.438  10.025 -1.1600  0.9512 -2.6484
  156MOL0     H21524   6.326   1.330  10.317  0.2206 -0.7861 -0.7544
  156MOL0     H21525   6.260   0.920   9.694 -1.7113  1.9863  1.6309
  156MOL0     H21526   6.034   0.778   9.467 -1.8273 -0.1311  4.0238
  156MOL0     H21527   6.188   0.701   9.447  1.4686  0.5301  0.3745
  156MOL0     H21528   6.117   0.746   9.620 -1.4046 -0.4035  0.3457
  157MOL0     O21529   9.631   5.335   2.590  0.1028 -0.0010 -0.1441
  157MOL0     C21530   9.595   5.308   2.479 -0.1444  0.8916 -0.3405
  157MOL0     O21531   9.495   5.216   2.448  0.2500 -0.1950  0.5610
  157MOL0     C21532   9.425   5.169   2.549  0.6943 -0.1743  0.5678
  157MOL0     C21533   9.317   5.235   2.598  0.7147  0.3552 -0.1865
  157MOL0     C21534   9.238   5.185   2.707 -0.5833  0.5512 -0.1086
  157MOL0     C21535   9.291   5.064   2.766 -0.1465  0.4398 -0.7300
  157MOL0     O21536   9.207   5.012   2.866  0.0987 -0.3988  0.7965
  157MOL0     C21537   9.254   4.903   2.949 -0.7140  0.1291  0.2546
  157MOL0     C21538   9.200   4.901   3.092  0.8201 -0.0845  0.3149
  157MOL0     C21539   9.219   4.767   3.154 -0.2626  0.0878 -0.1682
  157MOL0     C21540   9.101   4.668   3.152  0.4072  0.1687  1.0744
  157MOL0     C21541   9.119   4.545   3.246  1.0600 -0.0276  0.3862
  157MOL0     C21542   8.995   4.455   3.225 -0.6172  0.6495 -0.9420
  157MOL0     C21543   8.976   4.329   3.317  1.4989  0.4241 -0.3977
  157MOL0     C21544   8.829   4.300   3.364  0.4807 -0.0050  0.0961
  157MOL0     N21545   8.772   4.409   3.433  0.5212 -0.2006 -0.6273
  157MOL0     C21546   8.817   4.490   3.535 -1.0191  0.7866  0.2622
  157MOL0     C21547   8.723   4.581   3.549 -0.1056  0.3709 -0.4263
  157MOL0     C21548   8.720   4.691   3.649 -0.2458 -0.3670  1.0043
  157MOL0     C21549   8.668   4.639   3.781  0.3643 -0.0431  0.1733
  157MOL0     C21550   8.657   4.754   3.881 -0.8679  0.0124 -0.5547
  157MOL0     C21551   8.596   4.707   4.015  0.2390  0.1558  0.7366
  157MOL0     O21552   8.681   4.611   4.053 -0.4528 -0.0653 -0.4586
  157MOL0     C21553   8.792   4.634   4.128 -0.1795 -0.6320  0.1283
  157MOL0     C21554   8.865   4.521   4.145  0.3442  0.6186 -0.8114
  157MOL0     C21555   8.965   4.504   4.250  0.5915  0.6611 -0.1003
  157MOL0     C21556   9.043   4.374   4.251  1.0935  0.7105 -0.3804
  157MOL0     C21557   9.001   4.614   4.333  0.7203  0.6270 -0.5646
  157MOL0     C21558   9.105   4.621   4.442  0.0044  0.3718 -0.6830
  157MOL0     O21559   9.128   4.744   4.504  0.2258 -0.0372  0.8512
  157MOL0     C21560   9.177   4.747   4.634 -1.7647  0.0374  0.6344
  157MOL0     C21561   9.283   4.834   4.663  0.4029 -0.2975  0.3721
  157MOL0     C21562   9.337   4.834   4.794 -0.0683  0.1819 -0.2913
  157MOL0     C21563   9.286   4.753   4.893 -0.1142  0.5012  0.1837
  157MOL0     O21564   9.326   4.748   5.020 -0.3731  0.0575  0.7697
  157MOL0     C21565   9.449   4.818   5.060  0.9440  0.0196 -0.1373
  157MOL0     C21566   9.427   4.966   5.096 -0.2156 -0.2046 -1.1964
  157MOL0     C21567   9.543   5.009   5.188  0.4122  0.0980 -0.7695
  157MOL0     C21568   9.690   5.007   5.143  0.8065 -0.0761  0.2530
  157MOL0     C21569   9.793   5.045   5.255 -0.1062 -0.4842  0.2865
  157MOL0     C21570   9.935   5.051   5.188  0.2442  0.6302  0.6501
  157MOL0     C21571   9.985   4.911   5.158  0.9447  0.9059 -0.6187
  157MOL0     C21572  10.134   4.916   5.144 -0.0751 -0.3768  0.3379
  157MOL0    Cl21573  10.197   4.740   5.134 -0.0764  0.4763  0.1182
  157MOL0     C21574   9.183   4.663   4.866 -0.4030  0.9403 -0.7960
  157MOL0     C21575   9.130   4.663   4.734  0.5151  0.6901  0.1932
  157MOL0     O21576   9.168   4.520   4.471 -0.4328 -0.5071  0.9392
  157MOL0     C21577   8.924   4.734   4.310  0.1041  0.7973 -0.2058
  157MOL0     C21578   8.828   4.743   4.204 -0.3441 -0.4599 -0.0026
  157MOL0     N21579   8.617   4.552   3.470 -0.4807  0.1298  0.1034
  157MOL0     N21580   8.653   4.455   3.399 -0.0005 -0.2415 -0.6015
  157MOL0     C21581   9.404   5.004   2.714  0.0198  0.5929 -0.0307
  157MOL0     C21582   9.469   5.058   2.609 -0.1719 -0.4458  0.4793
  157MOL0     C21583   9.653   5.375   2.357 -0.3570  0.2436 -0.1763
  157MOL0     C21584   9.582   5.357   2.242 -0.0355  0.1934  1.2507
  157MOL0     C21585   9.625   5.419   2.120 -0.4644 -0.3433  0.7115
  157MOL0     C21586   9.727   5.520   2.125 -0.6995  0.2681  0.3436
  157MOL0     O21587   9.738   5.620   2.026 -0.2288 -0.0143 -0.9911
  157MOL0     C21588   9.635   5.615   1.924  0.5407  0.5860 -0.0568
  157MOL0     C21589   9.639   5.723   1.826 -0.5510  0.0881  0.2117
  157MOL0     C21590   9.575   5.852   1.884 -0.1901 -0.2608  0.3757
  157MOL0     C21591   9.627   5.968   1.801 -1.2939 -0.5916  0.2999
  157MOL0     C21592   9.600   6.106   1.859 -0.1198 -0.0588  0.1303
  157MOL0     C21593   9.563   6.215   1.905 -1.1645  0.5586  0.5163
  157MOL0     C21594   9.808   5.530   2.242  0.3643 -0.3421  0.6219
  157MOL0     C21595   9.764   5.469   2.356 -0.1336  1.4154  0.0489
  157MOL0     C21596   9.859   5.495   2.480 -0.1762 -0.4321  0.4552
  157MOL0     H21597   9.289   5.321   2.538  0.5028 -0.6370 -1.5499
  157MOL0     H21598   9.146   5.234   2.736 -0.6920  1.5590 -1.9595
  157MOL0     H21599   9.359   4.928   2.970 -0.4352 -1.5827  1.0603
  157MOL0     H21600   9.253   4.803   2.904  3.1937 -1.1032  2.4442
  157MOL0     H21601   9.260   4.974   3.147 -0.1596 -0.9128  2.6431
  157MOL0     H21602   9.096   4.936   3.091  1.2763  1.3462  0.8001
  157MOL0     H21603   9.303   4.713   3.109 -0.2148  0.3241 -0.3678
  157MOL0     H21604   9.256   4.787   3.255  2.0258  2.7992 -1.4083
  157MOL0     H21605   9.012   4.726   3.178 -0.0750  0.6019 -1.3520
  157MOL0     H21606   9.102   4.633   3.049 -0.7961  1.1372  0.7143
  157MOL0     H21607   9.129   4.587   3.346 -0.1909 -1.0731  0.9804
  157MOL0     H21608   9.218   4.506   3.223  0.7551  0.1807 -1.4328
  157MOL0     H21609   8.903   4.511   3.247 -1.0268 -0.0236 -0.9170
  157MOL0     H21610   9.002   4.415   3.124  3.0452 -3.6795  0.6772
  157MOL0     H21611   9.031   4.333   3.412  0.0096 -0.3727  0.5323
  157MOL0     H21612   9.003   4.238   3.263 -2.0179 -1.4912  0.7710
  157MOL0     H21613   8.771   4.288   3.272  0.3128  1.3557 -0.0037
  157MOL0     H21614   8.811   4.212   3.427  0.0259 -0.1231 -0.1910
  157MOL0     H21615   8.909   4.487   3.593 -0.5244  0.8097 -0.5108
  157MOL0     H21616   8.649   4.764   3.608 -0.3639 -0.3002  1.3255
  157MOL0     H21617   8.814   4.747   3.656 -1.2985  1.7967 -0.7804
  157MOL0     H21618   8.567   4.598   3.770  1.0698 -1.9629  0.4265
  157MOL0     H21619   8.731   4.557   3.817  0.8137 -0.3773 -1.2825
  157MOL0     H21620   8.757   4.795   3.895 -0.0741 -2.3006  1.0377
  157MOL0     H21621   8.595   4.837   3.845 -1.3375  0.1665  0.5767
  157MOL0     H21622   8.584   4.792   4.083  1.0853  1.8672 -1.1641
  157MOL0     H21623   8.499   4.668   3.983  0.1976  1.6174 -1.0692
  157MOL0     H21624   8.831   4.432   4.093  0.0138 -0.2803  0.8455
  157MOL0     H21625   8.974   4.297   4.216  0.9227  0.1701  1.0807
  157MOL0     H21626   9.074   4.349   4.353 -0.9656 -0.7413 -0.0549
  157MOL0     H21627   9.140   4.366   4.200  0.2710 -1.2657 -1.7544
  157MOL0     H21628   9.309   4.909   4.589  2.8206 -2.0931 -0.7311
  157MOL0     H21629   9.420   4.898   4.819 -0.6742  1.8966 -2.3352
  157MOL0     H21630   9.463   4.770   5.157 -1.4862 -1.2871 -0.3585
  157MOL0     H21631   9.535   4.802   4.994  1.4333  1.3152  0.1534
  157MOL0     H21632   9.424   5.033   5.009 -1.1649 -1.3172 -2.0592
  157MOL0     H21633   9.329   4.977   5.144  0.0384  0.1063 -0.7393
  157MOL0     H21634   9.527   4.949   5.278  2.2568  0.9066  0.1557
  157MOL0     H21635   9.519   5.110   5.221  3.3547  0.2985  1.0935
  157MOL0     H21636   9.695   5.084   5.066  0.2907 -0.3095 -0.0165
  157MOL0     H21637   9.724   4.909   5.108  2.2640 -1.3930  4.7384
  157MOL0     H21638   9.793   5.146   5.296  4.4343  0.9131 -2.4853
  157MOL0     H21639   9.790   4.963   5.328 -2.7550 -2.5829 -1.9432
  157MOL0     H21640  10.003   5.107   5.253  0.3851  3.0949 -1.4803
  157MOL0     H21641   9.941   5.110   5.097  0.7925 -1.8772 -1.0482
  157MOL0     H21642   9.948   4.886   5.058  3.0048  0.5628 -1.3499
  157MOL0     H21643   9.963   4.837   5.234 -0.3592  0.8378 -1.0509
  157MOL0     H21644  10.189   4.961   5.227  1.9854  2.0247 -2.1652
  157MOL0     H21645  10.163   4.967   5.052  3.0233 -2.2031  0.1710
  157MOL0     H21646   9.142   4.608   4.950 -0.4916 -0.8015 -1.9428
  157MOL0     H21647   9.057   4.589   4.704  2.0267  0.4395 -3.4002
  157MOL0     H21648   8.950   4.822   4.369  0.2778 -0.8905  2.3962
  157MOL0     H21649   8.772   4.836   4.203  0.6388  0.3456  3.5873
  157MOL0     H21650   9.452   4.912   2.748 -0.8181 -0.3755 -1.3575
  157MOL0     H21651   9.560   5.010   2.575  0.3184  0.7909 -0.0436
  157MOL0     H21652   9.505   5.281   2.229  3.4957 -3.8211  1.6827
  157MOL0     H21653   9.557   5.393   2.040 -2.3730 -3.0866  3.0214
  157MOL0     H21654   9.638   5.518   1.873 -2.7817 -0.3106  1.1776
  157MOL0     H21655   9.541   5.616   1.980  0.7302 -1.5458  0.3732
  157MOL0     H21656   9.596   5.698   1.729  2.5108  0.8519 -1.4436
  157MOL0     H21657   9.747   5.731   1.817 -0.2435 -2.5675  0.7450
  157MOL0     H21658   9.466   5.855   1.880 -0.1617 -0.8003 -1.1922
  157MOL0     H21659   9.606   5.859   1.989 -1.3096  2.3447  0.6068
  157MOL0     H21660   9.567   5.953   1.710  1.2361  1.5748 -1.9266
  157MOL0     H21661   9.733   5.965   1.774 -1.1483  0.8968  0.6445
  157MOL0     H21662   9.528   6.308   1.946  1.2305  0.6291  2.6676
  157MOL0     H21663   9.884   5.607   2.246 -0.6437  1.0656 -2.8270
  157MOL0     H21664   9.879   5.403   2.535  1.0888  0.8026  2.1181
  157MOL0     H21665   9.955   5.532   2.444  0.5284 -0.7770  1.9270
  157MOL0     H21666   9.809   5.564   2.548 -0.2699  0.0521 -0.0995
  158MOL0     O21667   1.376   8.141   6.072  0.2205 -0.1165 -0.6238
  158MOL0     C21668   1.464   8.105   5.988 -0.1383  1.1177 -0.1041
  158MOL0     O21669   1.468   7.990   5.916  0.2515  0.5145  0.3496
  158MOL0     C21670   1.366   7.907   5.947  0.4458 -0.3846 -0.2715
  158MOL0     C21671   1.382   7.818   6.049 -0.5484  0.7495  0.1439
  158MOL0     C21672   1.275   7.721   6.082  0.3530 -0.3305  0.2053
  158MOL0     C21673   1.156   7.712   6.007  0.5985 -0.4138  0.6496
  158MOL0     O21674   1.053   7.624   6.048 -0.0290  0.2761  0.4956
  158MOL0     C21675   1.053   7.495   5.984  0.5828 -0.6143 -0.1207
  158MOL0     C21676   0.943   7.423   6.057  0.8866  0.0231  0.2588
  158MOL0     C21677   0.906   7.300   5.986  0.4382 -0.5190  0.8878
  158MOL0     C21678   0.814   7.218   6.079  0.3120  0.1201  0.2622
  158MOL0     C21679   0.809   7.088   6.004 -0.0824  0.6658 -0.3105
  158MOL0     C21680   0.760   6.984   6.103  0.8104 -0.7670 -1.5924
  158MOL0     C21681   0.770   6.839   6.046 -0.1478  0.6917 -0.1681
  158MOL0     C21682   0.678   6.837   5.924 -0.3185 -0.0131 -0.3444
  158MOL0     N21683   0.648   6.697   5.887  0.2009  0.4554  0.4776
  158MOL0     C21684   0.733   6.591   5.874  0.7249 -0.2130  0.2392
  158MOL0     C21685   0.660   6.480   5.859 -0.7001 -0.8806  0.2814
  158MOL0     C21686   0.702   6.344   5.825 -0.3949  0.3493 -0.3119
  158MOL0     C21687   0.702   6.311   5.681  0.0019 -0.6099  0.2737
  158MOL0     C21688   0.785   6.425   5.607 -0.4498 -0.5157 -0.3594
  158MOL0     C21689   0.855   6.375   5.478  0.4292  0.3586 -0.1232
  158MOL0     O21690   0.985   6.420   5.450  0.0866 -0.2353  1.0402
  158MOL0     C21691   1.100   6.369   5.512  0.2848  0.3476  1.3539
  158MOL0     C21692   1.232   6.409   5.461  0.3306  0.4620 -0.0304
  158MOL0     C21693   1.355   6.341   5.496  0.8110 -0.1644  0.1348
  158MOL0     C21694   1.480   6.365   5.424 -0.7579 -0.2365  0.3950
  158MOL0     C21695   1.339   6.240   5.595 -0.6284 -0.2503 -0.1054
  158MOL0     C21696   1.451   6.147   5.655  0.4444 -0.0846  0.8956
  158MOL0     O21697   1.413   6.041   5.729 -0.3604  0.7350 -0.6007
  158MOL0     C21698   1.509   6.000   5.816 -0.1524 -0.3725 -0.0934
  158MOL0     C21699   1.485   6.033   5.949  0.6442  0.2813  1.1653
  158MOL0     C21700   1.584   6.014   6.036  0.2444  0.7739 -0.6447
  158MOL0     C21701   1.713   5.977   6.006 -0.3497  0.1936  0.5318
  158MOL0     O21702   1.805   5.983   6.108  0.5421  0.6471 -0.6563
  158MOL0     C21703   1.936   5.945   6.074 -0.7218 -0.4876  0.0234
  158MOL0     C21704   2.023   5.962   6.193 -0.0318  0.4139  0.0954
  158MOL0     C21705   2.178   5.939   6.168 -0.5411 -0.0221  0.2751
  158MOL0     C21706   2.242   6.038   6.072 -0.6333  0.2388 -0.9844
  158MOL0     C21707   2.397   6.020   6.101  0.1667 -0.8914 -0.2177
  158MOL0     C21708   2.470   6.107   5.984 -0.7318 -0.5524 -0.7712
  158MOL0     C21709   2.429   6.252   5.960  0.5985 -0.0621 -1.0205
  158MOL0     C21710   2.395   6.337   6.094  0.5402 -0.2178  0.0179
  158MOL0    Cl21711   2.425   6.498   6.023 -0.0230 -0.2090 -0.2381
  158MOL0     C21712   1.728   5.923   5.875  0.6917 -0.1007 -0.7647
  158MOL0     C21713   1.630   5.942   5.781  0.4068  1.1063  0.0164
  158MOL0     O21714   1.559   6.171   5.614 -0.1504 -0.1168  0.4868
  158MOL0     C21715   1.213   6.215   5.650  0.6094  0.0499  0.4338
  158MOL0     C21716   1.096   6.272   5.603  0.5244 -1.0579 -0.1499
  158MOL0     N21717   0.527   6.514   5.869  1.0546 -0.6596 -0.2376
  158MOL0     N21718   0.521   6.647   5.870  0.3731  0.1492  0.2678
  158MOL0     C21719   1.145   7.803   5.900  0.9335  0.0798  0.5786
  158MOL0     C21720   1.247   7.892   5.867  0.1989 -0.9964 -0.3907
  158MOL0     C21721   1.581   8.193   5.958  0.3528  0.5440 -0.3560
  158MOL0     C21722   1.585   8.275   5.850  0.8199  0.2367 -0.4534
  158MOL0     C21723   1.686   8.367   5.825  0.0612  0.7317  0.6873
  158MOL0     C21724   1.795   8.383   5.917 -0.9296  1.6273  0.4366
  158MOL0     O21725   1.884   8.478   5.884  0.1734  0.5186 -0.0638
  158MOL0     C21726   2.000   8.490   5.958  1.1528  0.2403 -0.1578
  158MOL0     C21727   2.082   8.586   5.880  0.1086  1.1259  0.6923
  158MOL0     C21728   2.034   8.727   5.854  0.0031 -0.3686  0.3663
  158MOL0     C21729   1.996   8.763   5.709 -0.0416  0.1789 -0.3415
  158MOL0     C21730   1.860   8.721   5.677 -0.6621  0.6854  0.0992
  158MOL0     C21731   1.741   8.689   5.651  0.0838 -0.3596 -0.6250
  158MOL0     C21732   1.794   8.298   6.031  0.0084  0.3155  0.3452
  158MOL0     C21733   1.696   8.195   6.049 -0.4145 -0.5564  0.1123
  158MOL0     C21734   1.698   8.113   6.177 -0.8726  0.5315  0.1230
  158MOL0     H21735   1.476   7.815   6.104  0.0449 -0.5124 -0.8955
  158MOL0     H21736   1.288   7.643   6.158  1.5418 -0.4426 -0.0955
  158MOL0     H21737   1.145   7.436   5.988 -0.6254 -2.5386  2.8673
  158MOL0     H21738   1.025   7.506   5.878  2.0393 -1.1615 -0.5947
  158MOL0     H21739   0.975   7.405   6.160 -2.6179  0.5532  1.5604
  158MOL0     H21740   0.859   7.490   6.074  1.8203  0.7970  2.1076
  158MOL0     H21741   0.861   7.311   5.887  1.6276 -0.0254  0.3836
  158MOL0     H21742   1.006   7.257   5.970  0.8357  1.5086 -3.0550
  158MOL0     H21743   0.865   7.199   6.173  0.6083 -3.1326 -0.4621
  158MOL0     H21744   0.714   7.262   6.088 -0.5273 -1.6649  0.0240
  158MOL0     H21745   0.910   7.066   5.969  0.1917  2.6370 -0.9095
  158MOL0     H21746   0.730   7.104   5.930 -1.5155  2.1903  1.4437
  158MOL0     H21747   0.818   6.983   6.196  0.5292 -3.3377 -1.3656
  158MOL0     H21748   0.654   6.995   6.130  0.6507  1.5211 -2.9524
  158MOL0     H21749   0.742   6.758   6.114  1.6016 -3.9435 -4.3465
  158MOL0     H21750   0.875   6.817   6.024  0.0560  0.0796  1.2982
  158MOL0     H21751   0.578   6.881   5.935 -0.1670  0.5797 -1.1925
  158MOL0     H21752   0.718   6.891   5.837 -2.6036 -0.7208 -1.9517
  158MOL0     H21753   0.840   6.595   5.858  0.9789  0.7926  1.9136
  158MOL0     H21754   0.647   6.267   5.880  1.1885 -1.1209 -0.6781
  158MOL0     H21755   0.803   6.329   5.862 -2.1081 -2.0664  4.0963
  158MOL0     H21756   0.749   6.212   5.678 -1.5649 -1.5287  2.6204
  158MOL0     H21757   0.599   6.310   5.645 -0.9776 -0.4782  2.8098
  158MOL0     H21758   0.719   6.508   5.579 -0.6286 -1.0704 -1.6935
  158MOL0     H21759   0.861   6.456   5.680  0.7451 -1.6463 -1.0717
  158MOL0     H21760   0.861   6.266   5.476  0.5864  0.3559  0.4660
  158MOL0     H21761   0.780   6.400   5.402 -2.7465 -4.1814  1.1440
  158MOL0     H21762   1.235   6.480   5.380  1.6351 -0.6429 -1.0083
  158MOL0     H21763   1.560   6.381   5.497  1.0337  3.2601 -2.0338
  158MOL0     H21764   1.469   6.461   5.373 -0.7401  1.4367  3.3429
  158MOL0     H21765   1.507   6.287   5.352 -3.0195  1.8252 -2.9992
  158MOL0     H21766   1.384   6.069   5.968 -0.2699 -0.5603 -1.5934
  158MOL0     H21767   1.570   6.042   6.140 -0.7314 -1.5338 -0.0877
  158MOL0     H21768   1.950   5.845   6.031 -3.7744 -0.9425 -0.1048
  158MOL0     H21769   1.972   6.015   5.997 -1.4482  1.6341  1.5322
  158MOL0     H21770   2.014   6.063   6.232  0.0333  0.1683  0.7642
  158MOL0     H21771   1.981   5.892   6.266  0.3524 -0.9950 -0.9937
  158MOL0     H21772   2.182   5.850   6.105 -0.2167  0.8856 -1.0187
  158MOL0     H21773   2.239   5.930   6.258 -2.0273 -0.4756  1.2687
  158MOL0     H21774   2.205   6.141   6.079 -2.3389 -0.4185  0.7710
  158MOL0     H21775   2.228   6.019   5.965 -0.3467  1.0346 -1.1683
  158MOL0     H21776   2.416   6.064   6.200 -0.1993 -1.8525  0.2909
  158MOL0     H21777   2.422   5.914   6.099  0.6224 -0.7881 -2.1567
  158MOL0     H21778   2.459   6.053   5.889  0.2956 -1.1050 -0.5828
  158MOL0     H21779   2.576   6.114   6.011 -1.8225 -0.5144  4.6086
  158MOL0     H21780   2.348   6.249   5.886  0.1959  1.5885 -0.6752
  158MOL0     H21781   2.519   6.303   5.924  0.1848  0.9501 -0.6599
  158MOL0     H21782   2.462   6.322   6.179  1.0590  3.9878  0.5610
  158MOL0     H21783   2.288   6.330   6.116  0.4995 -0.4864 -0.2582
  158MOL0     H21784   1.827   5.884   5.856  0.0339 -2.3716  0.1097
  158MOL0     H21785   1.637   5.913   5.676 -2.8388  2.8658 -0.8204
  158MOL0     H21786   1.199   6.143   5.731 -3.1148 -1.1570 -1.0702
  158MOL0     H21787   1.001   6.263   5.653  1.8603 -0.3306  2.7613
  158MOL0     H21788   1.053   7.817   5.844  0.2721  0.0323  1.6183
  158MOL0     H21789   1.240   7.956   5.780  1.5099 -0.2983 -0.0122
  158MOL0     H21790   1.505   8.266   5.778  0.4279  0.7601 -0.0984
  158MOL0     H21791   1.687   8.424   5.733  0.6872 -0.5563 -0.1451
  158MOL0     H21792   1.987   8.537   6.056 -1.3155 -0.0922 -0.2565
  158MOL0     H21793   2.065   8.403   5.967  1.5377  0.6809  1.5851
  158MOL0     H21794   2.091   8.535   5.784 -1.0794  0.3612  0.9636
  158MOL0     H21795   2.188   8.585   5.907  0.0844  1.5112  0.8028
  158MOL0     H21796   1.948   8.743   5.920  0.5314 -1.8854  1.4843
  158MOL0     H21797   2.112   8.794   5.892  0.1129 -0.7830  0.8807
  158MOL0     H21798   2.070   8.716   5.644 -0.2316 -2.1818  1.0395
  158MOL0     H21799   2.002   8.872   5.709 -0.5633  0.2104  0.2625
  158MOL0     H21800   1.636   8.666   5.647 -0.4092  1.4824  0.4900
  158MOL0     H21801   1.872   8.307   6.106  1.3276  0.7833 -1.0487
  158MOL0     H21802   1.704   8.169   6.271 -2.3584  0.9005  0.0294
  158MOL0     H21803   1.621   8.037   6.193  0.7178 -1.3318 -0.7006
  158MOL0     H21804   1.787   8.054   6.156  0.3080  2.7646 -1.5413
  159MOL0     O21805   7.294  11.381   0.615 -0.0778 -0.4949 -0.3180
  159MOL0     C21806   7.374  11.400   0.707 -0.3941 -0.0440 -0.2006
  159MOL0     O21807   7.346  11.445   0.829  0.1258  0.0804 -0.2855
  159MOL0     C21808   7.216  11.480   0.868 -0.3609  0.1429 -0.3396
  159MOL0     C21809   7.107  11.418   0.827  0.1470  0.0468 -0.5557
  159MOL0     C21810   6.977  11.458   0.864 -0.5071  0.6298  0.9693
  159MOL0     C21811   6.974  11.566   0.950  0.5177 -0.0452 -0.4481
  159MOL0     O21812   6.872  11.607   1.026  0.1505  0.3965 -0.1246
  159MOL0     C21813   6.744  11.602   0.965  0.9501 -0.5961  0.3407
  159MOL0     C21814   6.642  11.625   1.080  0.2267 -0.6134 -0.2908
  159MOL0     C21815   6.498  11.622   1.023  0.4658 -0.3983 -0.6432
  159MOL0     C21816   6.407  11.676   1.139 -0.5251 -0.5370  0.8142
  159MOL0     C21817   6.258  11.635   1.121  0.0719  0.5659  0.6848
  159MOL0     C21818   6.199  11.662   0.984  0.4315  0.3305  0.7469
  159MOL0     C21819   6.216  11.811   0.946 -0.2538  0.1354 -0.7436
  159MOL0     C21820   6.132  11.898   1.048 -0.0545 -0.2306  0.1489
  159MOL0     N21821   6.100  12.032   0.993 -0.6180  0.0228  1.6743
  159MOL0     C21822   6.191  12.131   0.978  0.4360  0.4216  0.2462
  159MOL0     C21823   6.124  12.233   0.925  1.3625  0.2485 -0.7473
  159MOL0     C21824   6.191  12.351   0.868  0.7787 -1.5400 -0.2943
  159MOL0     C21825   6.178  12.481   0.948  0.5336 -0.8800  0.6450
  159MOL0     C21826   6.237  12.598   0.857  0.5984  1.0033 -0.6714
  159MOL0     C21827   6.307  12.713   0.940 -0.6190  0.1721  0.0757
  159MOL0     O21828   6.220  12.764   1.043 -0.3047  0.3983 -0.1240
  159MOL0     C21829   6.212  12.897   1.066  0.1331 -0.2098 -0.2792
  159MOL0     C21830   6.306  12.991   1.027  0.2322 -1.3127 -0.3299
  159MOL0     C21831   6.297  13.137   1.050 -0.4125 -0.3398  0.2786
  159MOL0     C21832   6.413  13.233   1.013 -0.3189  0.1537  1.1483
  159MOL0     C21833   6.183  13.172   1.124  0.0791  0.4930  0.4072
  159MOL0     C21834   6.151  13.315   1.164 -0.4120  0.5271 -0.3563
  159MOL0     O21835   6.208  13.414   1.085  1.4348  0.1309 -0.9990
  159MOL0     C21836   6.185  13.550   1.111  0.0742  0.7920 -0.1920
  159MOL0     C21837   6.099  13.626   1.027 -0.0705  0.1580 -1.1455
  159MOL0     C21838   6.086  13.764   1.041  0.1406 -0.1642  0.2108
  159MOL0     C21839   6.148  13.829   1.150  1.0733  0.7585  0.1024
  159MOL0     O21840   6.120  13.959   1.175 -0.1404  0.2720 -0.0818
  159MOL0     C21841   6.226  14.050   1.142 -0.4091  0.4652  0.5891
  159MOL0     C21842   6.205  14.197   1.184 -0.3329 -0.3489  0.0561
  159MOL0     C21843   6.077  14.265   1.121 -0.4553 -0.4211  0.2390
  159MOL0     C21844   6.116  14.346   0.997  0.0105  0.0577 -0.4166
  159MOL0     C21845   6.001  14.414   0.923  0.4472  1.2370  0.4090
  159MOL0     C21846   5.949  14.520   1.019  0.2447  0.2486  0.1004
  159MOL0     C21847   5.844  14.614   0.959  0.0091  0.3537  0.0082
  159MOL0     C21848   5.707  14.553   0.944 -0.2193 -0.0186 -0.4267
  159MOL0    Cl21849   5.650  14.504   1.105  0.2575  0.3568  0.2139
  159MOL0     C21850   6.233  13.756   1.232  0.4493  0.8654 -0.4309
  159MOL0     C21851   6.255  13.619   1.208 -0.3582  0.4582 -1.1509
  159MOL0     O21852   6.095  13.334   1.272 -0.6695  0.5732  0.0071
  159MOL0     C21853   6.084  13.082   1.157  0.7876 -0.4788 -0.8864
  159MOL0     C21854   6.103  12.943   1.131  0.3521 -0.7075  0.4098
  159MOL0     N21855   5.992  12.196   0.910  0.1170  0.0872  0.6657
  159MOL0     N21856   5.980  12.075   0.941 -0.5407  0.4360  0.6627
  159MOL0     C21857   7.093  11.634   0.997 -0.4760 -0.8126  0.7846
  159MOL0     C21858   7.217  11.592   0.954 -0.0636  0.4897 -0.2993
  159MOL0     C21859   7.514  11.399   0.667 -0.6731 -0.0084  0.6121
  159MOL0     C21860   7.606  11.407   0.776 -0.5062 -0.4621  0.3043
  159MOL0     C21861   7.743  11.414   0.754 -0.0715  0.3031  0.0796
  159MOL0     C21862   7.792  11.381   0.626  0.8712  0.4008 -0.0365
  159MOL0     O21863   7.929  11.370   0.617  0.7748 -0.6137 -0.3967
  159MOL0     C21864   7.976  11.309   0.500  0.6450 -0.9107  0.1978
  159MOL0     C21865   8.112  11.258   0.525 -0.0783  0.1239 -0.0131
  159MOL0     C21866   8.155  11.155   0.424  0.2857  0.2407 -0.4185
  159MOL0     C21867   8.267  11.073   0.464 -0.8585  0.0913 -0.0504
  159MOL0     C21868   8.310  10.974   0.366  0.5781 -0.0321 -0.2382
  159MOL0     C21869   8.362  10.897   0.293  0.8744  1.0157  0.1250
  159MOL0     C21870   7.702  11.378   0.520  0.4537  0.0836 -1.2893
  159MOL0     C21871   7.568  11.390   0.532  0.1796 -0.4189 -0.0750
  159MOL0     C21872   7.485  11.387   0.402  0.2760 -1.1464 -0.1587
  159MOL0     H21873   7.110  11.331   0.761  1.9701 -0.9670  0.7564
  159MOL0     H21874   6.887  11.415   0.821 -0.0119 -0.6289  1.1441
  159MOL0     H21875   6.715  11.511   0.910  1.9978  0.1678 -1.5613
  159MOL0     H21876   6.735  11.680   0.889 -0.1546 -1.5009 -0.5138
  159MOL0     H21877   6.665  11.556   1.161  0.0725  0.3790  0.6261
  159MOL0     H21878   6.663  11.721   1.128 -1.3874 -0.7537  0.7726
  159MOL0     H21879   6.486  11.678   0.930  1.4375 -0.0092 -0.5432
  159MOL0     H21880   6.475  11.517   1.003  1.4830 -0.8774  0.5956
  159MOL0     H21881   6.443  11.637   1.235 -1.5786  0.5691  1.6895
  159MOL0     H21882   6.414  11.784   1.155 -0.9230 -0.6870  2.1570
  159MOL0     H21883   6.201  11.687   1.199  1.0273  0.4398  1.5006
  159MOL0     H21884   6.233  11.529   1.128  0.5400  0.3986 -0.0977
  159MOL0     H21885   6.247  11.600   0.907  1.0000  2.3605 -0.6265
  159MOL0     H21886   6.091  11.646   0.979  0.4721 -0.6851  2.5184
  159MOL0     H21887   6.177  11.838   0.847 -0.7547  1.0377 -0.3205
  159MOL0     H21888   6.317  11.853   0.948  0.0662 -0.4979  3.0281
  159MOL0     H21889   6.041  11.845   1.077  1.2455 -2.9613 -0.4689
  159MOL0     H21890   6.183  11.909   1.143  1.4680 -0.5294 -0.6089
  159MOL0     H21891   6.295  12.136   1.011  1.7786  1.0402 -3.6161
  159MOL0     H21892   6.131  12.370   0.778 -2.4425 -0.9929  1.7933
  159MOL0     H21893   6.293  12.329   0.836  0.9528 -1.7607  0.4109
  159MOL0     H21894   6.072  12.503   0.962  0.6714 -1.9555  4.3679
  159MOL0     H21895   6.229  12.462   1.043  2.6986  0.6878 -0.1179
  159MOL0     H21896   6.312  12.547   0.797  0.0909 -1.0832  0.3689
  159MOL0     H21897   6.154  12.631   0.794 -0.2304  0.7315  0.2439
  159MOL0     H21898   6.398  12.666   0.978  0.1886  1.0027 -0.7537
  159MOL0     H21899   6.341  12.792   0.872  0.4795 -0.2211  0.1415
  159MOL0     H21900   6.396  12.956   0.979  0.3246  0.3082 -1.4075
  159MOL0     H21901   6.421  13.311   1.090  0.0577 -1.0165  2.3225
  159MOL0     H21902   6.382  13.291   0.925 -0.6300  0.7704  1.6535
  159MOL0     H21903   6.500  13.176   0.981 -2.7261 -1.0482 -4.5025
  159MOL0     H21904   6.025  13.580   0.962 -2.3175  0.0894  1.2916
  159MOL0     H21905   6.017  13.821   0.979 -2.3036  0.3848  3.1803
  159MOL0     H21906   6.319  14.021   1.192 -0.7809 -0.9434  0.4987
  159MOL0     H21907   6.224  14.048   1.033 -3.6735 -1.4609  0.5579
  159MOL0     H21908   6.187  14.204   1.292 -1.5119  0.7162 -0.1768
  159MOL0     H21909   6.302  14.243   1.163  0.7458 -1.6233  1.9282
  159MOL0     H21910   6.022  14.326   1.193 -2.0885  0.6233 -1.7998
  159MOL0     H21911   6.013  14.183   1.089  1.3822 -0.9727 -2.3336
  159MOL0     H21912   6.164  14.272   0.933  2.2960  0.7267  0.4156
  159MOL0     H21913   6.186  14.427   1.020 -0.5205  1.4173 -3.1340
  159MOL0     H21914   6.032  14.464   0.831 -1.0403  0.7117 -0.4244
  159MOL0     H21915   5.926  14.340   0.892  3.9160 -2.0162 -1.0925
  159MOL0     H21916   6.023  14.589   1.061 -0.8249  1.6641 -0.2248
  159MOL0     H21917   5.904  14.467   1.103  0.1009 -3.0884 -1.8951
  159MOL0     H21918   5.867  14.645   0.857 -1.3136 -0.6101 -0.6216
  159MOL0     H21919   5.843  14.708   1.014 -1.7379  0.2841  0.1488
  159MOL0     H21920   5.695  14.468   0.877 -1.1656 -0.9106  0.8390
  159MOL0     H21921   5.650  14.641   0.914  0.2542  0.3186 -0.3562
  159MOL0     H21922   6.280  13.821   1.305 -2.2058  0.3456  1.8950
  159MOL0     H21923   6.308  13.557   1.279 -2.2708 -1.6088 -1.4504
  159MOL0     H21924   5.989  13.103   1.205  1.6764  3.2645 -0.4669
  159MOL0     H21925   6.033  12.864   1.156  0.6487 -0.1994  3.1279
  159MOL0     H21926   7.088  11.712   1.072 -1.5463 -1.1315  1.0564
  159MOL0     H21927   7.309  11.638   0.991 -1.5188  2.5619  0.9313
  159MOL0     H21928   7.584  11.436   0.879  1.6208  1.6751  0.2321
  159MOL0     H21929   7.813  11.435   0.834  0.7142  0.7291 -0.7055
  159MOL0     H21930   7.919  11.225   0.458  1.4158 -0.6593 -1.4425
  159MOL0     H21931   7.971  11.392   0.429 -1.1239  1.7501  3.1885
  159MOL0     H21932   8.114  11.214   0.625  3.9172  1.6343  0.7814
  159MOL0     H21933   8.180  11.344   0.527 -1.4674  1.4129  4.2781
  159MOL0     H21934   8.070  11.087   0.408  0.8643 -0.9759  1.3729
  159MOL0     H21935   8.176  11.206   0.330  1.7889  0.5370  0.0626
  159MOL0     H21936   8.252  11.025   0.561 -1.6279  0.9701  0.2747
  159MOL0     H21937   8.355  11.134   0.486 -3.1399  3.9523 -0.7751
  159MOL0     H21938   8.396  10.832   0.215  1.9026 -1.2173  2.2913
  159MOL0     H21939   7.736  11.373   0.418  1.4006  1.0802 -1.0363
  159MOL0     H21940   7.445  11.487   0.385 -1.0898 -1.3260  1.7155
  159MOL0     H21941   7.542  11.354   0.315  1.5262  3.6408 -1.4501
  159MOL0     H21942   7.396  11.325   0.415 -1.4961  1.5670  1.4298
  160MOL0     O21943   3.190   6.449   5.513  0.4021  0.4294 -1.0344
  160MOL0     C21944   3.171   6.391   5.620 -0.3504  0.2513  0.7187
  160MOL0     O21945   3.171   6.448   5.738  0.3249 -0.0845 -0.6532
  160MOL0     C21946   3.137   6.584   5.745 -0.0997  0.6467 -0.2961
  160MOL0     C21947   3.224   6.674   5.819  0.3473  0.2929  0.4538
  160MOL0     C21948   3.176   6.813   5.834  0.3955  0.7434  0.1267
  160MOL0     C21949   3.067   6.864   5.771 -0.3003 -0.7546 -0.1497
  160MOL0     O21950   3.032   6.996   5.796  0.4597 -0.0515 -0.6601
  160MOL0     C21951   2.905   7.007   5.876  0.2938 -0.5935  0.5358
  160MOL0     C21952   2.909   7.134   5.952  0.1720 -0.0894  0.4634
  160MOL0     C21953   2.983   7.121   6.087  0.9530  0.3598  1.1974
  160MOL0     C21954   3.005   7.251   6.148 -0.4333 -0.2003 -1.2073
  160MOL0     C21955   3.044   7.253   6.300 -0.1075  0.4645  0.4446
  160MOL0     C21956   3.179   7.204   6.339  0.1743 -0.7806 -0.7024
  160MOL0     C21957   3.214   7.216   6.490 -0.1900 -0.6027  0.2162
  160MOL0     C21958   3.117   7.153   6.603  0.1290  0.3169  0.7674
  160MOL0     N21959   3.088   7.013   6.566 -0.0879  0.8593  0.1742
  160MOL0     C21960   3.171   6.898   6.553 -0.0002 -0.2017  0.4592
  160MOL0     C21961   3.085   6.809   6.500 -0.3191  1.0248  0.2431
  160MOL0     C21962   3.141   6.678   6.443  0.8694  0.2165 -0.9976
  160MOL0     C21963   3.207   6.701   6.306  0.0141  0.2390  0.2138
  160MOL0     C21964   3.107   6.660   6.189 -0.3639  0.3721  0.1340
  160MOL0     C21965   2.975   6.724   6.188  0.5869  0.5839  0.0242
  160MOL0     O21966   2.908   6.659   6.081 -0.2722  0.2180  0.5890
  160MOL0     C21967   2.795   6.714   6.039  0.7057 -1.2884 -0.3317
  160MOL0     C21968   2.713   6.803   6.109  0.2671 -0.1598 -0.5262
  160MOL0     C21969   2.597   6.866   6.051 -0.5471 -0.8399 -0.8964
  160MOL0     C21970   2.520   6.969   6.126  0.1599 -0.3417 -1.0214
  160MOL0     C21971   2.564   6.820   5.927 -0.5924  1.3123  0.5444
  160MOL0     C21972   2.450   6.860   5.844 -0.9068  0.0976 -0.5834
  160MOL0     O21973   2.323   6.869   5.898 -0.3053 -0.2170 -0.1276
  160MOL0     C21974   2.231   6.917   5.809  0.9697  0.0330 -0.2586
  160MOL0     C21975   2.136   6.831   5.760  0.2002 -0.4144 -0.8148
  160MOL0     C21976   2.021   6.878   5.685  0.4261  0.3722  0.0134
  160MOL0     C21977   2.016   7.018   5.653 -0.0811 -0.5254  0.0806
  160MOL0     O21978   1.924   7.077   5.576 -0.4664 -0.4628 -0.1573
  160MOL0     C21979   1.817   6.987   5.522  0.3784 -0.7610 -0.7721
  160MOL0     C21980   1.737   7.058   5.416 -0.1451 -0.2207  0.7248
  160MOL0     C21981   1.653   7.165   5.481  0.2769 -0.5996 -1.0207
  160MOL0     C21982   1.553   7.240   5.390  0.5352 -0.0167 -0.0195
  160MOL0     C21983   1.444   7.311   5.463  0.4319  0.2909  0.0166
  160MOL0     C21984   1.497   7.435   5.531  0.0390  0.4718 -0.2447
  160MOL0     C21985   1.379   7.537   5.549 -0.3444 -0.5340  0.4372
  160MOL0     C21986   1.330   7.554   5.695  0.0004 -0.0527 -0.4411
  160MOL0    Cl21987   1.284   7.384   5.750  0.1290  0.0520 -0.4352
  160MOL0     C21988   2.116   7.108   5.710  0.0898 -0.1579  0.4757
  160MOL0     C21989   2.223   7.056   5.787 -0.7431  0.0315 -0.8407
  160MOL0     O21990   2.480   6.898   5.727  0.4262  0.2513 -0.3073
  160MOL0     C21991   2.650   6.732   5.855 -0.1500 -0.6993  0.0882
  160MOL0     C21992   2.754   6.673   5.916 -0.1764  0.1463 -0.2749
  160MOL0     N21993   2.959   6.856   6.492  0.1648 -0.5601 -0.0881
  160MOL0     N21994   2.961   6.982   6.532 -0.0836  0.2590  0.8961
  160MOL0     C21995   2.989   6.776   5.695  0.2013 -0.1261  0.0455
  160MOL0     C21996   3.027   6.642   5.673 -0.1595 -0.0932 -0.0737
  160MOL0     C21997   3.176   6.240   5.622  0.0778 -0.6512  0.9676
  160MOL0     C21998   3.182   6.177   5.743 -0.3424  0.1546 -1.1001
  160MOL0     C21999   3.190   6.037   5.761 -0.0435 -0.5877  0.7913
  160MOL0     C22000   3.194   5.954   5.646 -0.5580  0.4786  0.2622
  160MOL0     O22001   3.190   5.814   5.657 -0.4758 -0.2660 -0.3935
  160MOL0     C22002   3.204   5.734   5.536  0.8024  0.2225 -0.5243
  160MOL0     C22003   3.180   5.584   5.572  0.5680  0.6228 -0.3379
  160MOL0     C22004   3.233   5.507   5.448 -0.3205 -0.4918 -0.7754
  160MOL0     C22005   3.200   5.359   5.471  1.2837  0.6142  0.3508
  160MOL0     C22006   3.063   5.321   5.452  0.5454  0.1863 -0.3466
  160MOL0     C22007   2.953   5.275   5.426 -1.1246 -0.4647  0.1095
  160MOL0     C22008   3.204   6.019   5.521 -0.6470  0.7267  0.3468
  160MOL0     C22009   3.187   6.154   5.504  0.3727 -0.3178  0.9746
  160MOL0     C22010   3.186   6.197   5.359  0.2905  0.7994  0.0143
  160MOL0     H22011   3.322   6.646   5.857  1.1926 -0.3680 -2.0302
  160MOL0     H22012   3.237   6.874   5.899  2.8091 -0.5403 -0.8135
  160MOL0     H22013   2.894   6.930   5.952 -4.4821 -1.0433 -0.3083
  160MOL0     H22014   2.820   7.026   5.810 -0.4001 -0.6189  1.4133
  160MOL0     H22015   2.952   7.207   5.883  2.3037 -2.0078 -0.3628
  160MOL0     H22016   2.807   7.160   5.981  0.1434 -0.8728  1.1026
  160MOL0     H22017   2.929   7.054   6.155 -0.8270 -1.2731 -1.6342
  160MOL0     H22018   3.075   7.075   6.051  0.3142 -0.8088  1.0010
  160MOL0     H22019   3.077   7.311   6.091 -1.8588  3.5525  0.5813
  160MOL0     H22020   2.914   7.309   6.133 -0.9204 -0.2317  1.1575
  160MOL0     H22021   2.973   7.189   6.353  1.9874 -1.3076  1.2719
  160MOL0     H22022   3.031   7.353   6.343  0.5147  0.0219  1.7156
  160MOL0     H22023   3.180   7.097   6.315  1.5593 -1.4581  1.9450
  160MOL0     H22024   3.244   7.275   6.287 -1.2286  2.4273  1.5805
  160MOL0     H22025   3.216   7.323   6.515 -0.6014 -0.1942 -1.3871
  160MOL0     H22026   3.313   7.174   6.510 -0.9051 -1.0551  3.2017
  160MOL0     H22027   3.169   7.158   6.699  0.2239  1.6966  0.6653
  160MOL0     H22028   3.024   7.210   6.616  0.4031  1.2855 -1.1595
  160MOL0     H22029   3.278   6.891   6.573  0.4789  1.7365 -1.1498
  160MOL0     H22030   3.059   6.608   6.428  3.1330 -2.7559 -0.4668
  160MOL0     H22031   3.206   6.632   6.518  1.7901  1.5343 -0.9506
  160MOL0     H22032   3.235   6.805   6.291  2.7303 -0.2890  1.0868
  160MOL0     H22033   3.303   6.648   6.298  0.4285  0.4287  2.8846
  160MOL0     H22034   3.164   6.687   6.099 -0.6039 -1.8843 -0.7663
  160MOL0     H22035   3.101   6.551   6.198  1.7357  0.2285  0.3134
  160MOL0     H22036   2.923   6.707   6.283 -1.0087  2.0475 -0.5255
  160MOL0     H22037   2.978   6.832   6.171 -4.3317  0.7162 -1.7624
  160MOL0     H22038   2.744   6.830   6.210 -0.3162 -1.6708  0.0917
  160MOL0     H22039   2.577   7.002   6.214 -0.3891 -1.8051 -0.0821
  160MOL0     H22040   2.437   6.914   6.171  0.2768 -0.5330 -1.0405
  160MOL0     H22041   2.492   7.050   6.059 -1.2128 -0.7752 -1.0009
  160MOL0     H22042   2.147   6.732   5.802 -1.3730 -0.2934 -0.0398
  160MOL0     H22043   1.938   6.809   5.682  2.6150 -2.6303  1.9892
  160MOL0     H22044   1.866   6.910   5.462  2.5569  0.2250 -0.3370
  160MOL0     H22045   1.757   6.941   5.601 -1.2801 -2.4243 -2.8527
  160MOL0     H22046   1.800   7.090   5.332 -2.4983 -1.4844 -1.6610
  160MOL0     H22047   1.667   6.988   5.370  0.0627 -0.1166  0.2454
  160MOL0     H22048   1.724   7.238   5.521 -3.9240  1.8547  2.8581
  160MOL0     H22049   1.594   7.131   5.567  0.0055 -0.0981 -1.0032
  160MOL0     H22050   1.495   7.169   5.330 -0.0821  0.4197  0.0550
  160MOL0     H22051   1.613   7.303   5.324 -0.6724  1.7963  0.5394
  160MOL0     H22052   1.376   7.336   5.381  0.0762 -0.9295 -0.0753
  160MOL0     H22053   1.389   7.241   5.526 -0.2248  0.0545 -0.8055
  160MOL0     H22054   1.573   7.483   5.468 -1.5479  3.5849  0.0623
  160MOL0     H22055   1.556   7.417   5.621 -1.4514  2.2654  1.1429
  160MOL0     H22056   1.298   7.507   5.482 -0.1298  1.2284 -0.7055
  160MOL0     H22057   1.403   7.634   5.504 -3.0679  0.4136  0.8587
  160MOL0     H22058   1.242   7.619   5.694 -1.1341 -1.5201 -2.1475
  160MOL0     H22059   1.412   7.593   5.755 -0.5617  0.2648  0.1239
  160MOL0     H22060   2.111   7.215   5.689  2.3949  0.1373  1.1570
  160MOL0     H22061   2.288   7.128   5.834 -0.3449  1.8197 -3.8590
  160MOL0     H22062   2.622   6.709   5.753  0.9273  1.1471 -0.6746
  160MOL0     H22063   2.799   6.590   5.863 -1.3750 -1.0553  0.5290
  160MOL0     H22064   2.885   6.792   5.668  0.3118  2.0805  0.7452
  160MOL0     H22065   2.982   6.581   5.595  1.7129  0.5210 -1.7188
  160MOL0     H22066   3.180   6.224   5.840  1.3730 -0.4401 -0.7389
  160MOL0     H22067   3.193   5.989   5.858 -0.2574  1.1721  1.6914
  160MOL0     H22068   3.131   5.759   5.459  0.4055 -0.5864 -0.4300
  160MOL0     H22069   3.298   5.756   5.486  0.3780  2.1899 -0.5392
  160MOL0     H22070   3.073   5.578   5.593  0.4818 -0.3735 -1.0002
  160MOL0     H22071   3.235   5.548   5.660 -0.3548 -1.4921 -0.5655
  160MOL0     H22072   3.180   5.534   5.356 -0.6372  3.2812  0.3775
  160MOL0     H22073   3.340   5.513   5.427 -0.8713  2.0920 -3.4416
  160MOL0     H22074   3.236   5.318   5.566  2.6745  1.5964  0.2881
  160MOL0     H22075   3.256   5.301   5.398 -1.4138 -1.4525 -0.2257
  160MOL0     H22076   2.867   5.231   5.379 -1.7637  4.2863 -4.1423
  160MOL0     H22077   3.219   5.948   5.440 -1.4479  1.6741 -0.6641
  160MOL0     H22078   3.254   6.135   5.300  0.6731  1.6060 -0.4078
  160MOL0     H22079   3.082   6.195   5.326  0.0480  2.6654  0.5725
  160MOL0     H22080   3.219   6.301   5.355  1.3085  0.6017  1.9946
  161MOL0     O22081   5.594  10.290   2.426 -0.2903  0.5117 -0.0080
  161MOL0     C22082   5.589  10.184   2.370 -0.2433  0.8504  0.8886
  161MOL0     O22083   5.584  10.064   2.425  0.3556 -0.7152  0.3234
  161MOL0     C22084   5.642  10.043   2.553  0.7231  0.2823  0.7520
  161MOL0     C22085   5.697   9.918   2.587 -0.2964 -1.6975  1.0077
  161MOL0     C22086   5.763   9.893   2.705 -0.0823 -0.0250  0.0939
  161MOL0     C22087   5.767   9.990   2.803  1.0457 -0.0212  0.0485
  161MOL0     O22088   5.830   9.978   2.926 -0.0262 -0.4032  0.5883
  161MOL0     C22089   5.877   9.851   2.964 -0.3289  0.0311 -0.8600
  161MOL0     C22090   5.935   9.863   3.104  0.4278  0.0332 -0.5019
  161MOL0     C22091   5.983   9.718   3.159  0.8952 -0.3880  0.1110
  161MOL0     C22092   5.968   9.712   3.314 -0.3389  0.5163 -0.4477
  161MOL0     C22093   6.000   9.571   3.374  0.1790  0.7376  0.1965
  161MOL0     C22094   6.139   9.514   3.354  0.0143 -0.2364 -0.2415
  161MOL0     C22095   6.257   9.602   3.400 -0.6619  0.1291 -0.3132
  161MOL0     C22096   6.382   9.514   3.392 -0.4694 -0.2412  0.3363
  161MOL0     N22097   6.491   9.586   3.456  0.0204 -0.6146  0.8552
  161MOL0     C22098   6.517   9.595   3.591  0.6115  0.0343  0.7479
  161MOL0     C22099   6.630   9.677   3.592  0.4599 -0.2264 -0.5030
  161MOL0     C22100   6.697   9.707   3.721 -0.3674  0.0491  0.1600
  161MOL0     C22101   6.730   9.853   3.744 -0.0033 -0.7458 -0.2831
  161MOL0     C22102   6.750   9.869   3.906  0.1889  0.6824  0.7548
  161MOL0     C22103   6.818  10.009   3.941 -0.0358  0.1688 -0.6462
  161MOL0     O22104   6.959  10.008   3.908  0.1120 -0.0541 -0.0771
  161MOL0     C22105   7.047   9.999   4.008  0.1312 -0.0934  0.1885
  161MOL0     C22106   7.036   9.921   4.124 -0.6887 -0.1389  0.3308
  161MOL0     C22107   7.142   9.909   4.217 -0.0560  0.2696  0.7987
  161MOL0     C22108   7.134   9.835   4.349 -0.1896  0.2136  0.4624
  161MOL0     C22109   7.252   9.988   4.199 -0.3439  0.6121 -0.9363
  161MOL0     C22110   7.364   9.983   4.295  0.4604 -0.2021 -0.1380
  161MOL0     O22111   7.464   9.903   4.266 -1.2669  0.0842 -0.8496
  161MOL0     C22112   7.575   9.901   4.348 -1.0076  0.3223 -0.3466
  161MOL0     C22113   7.628   9.776   4.383 -0.0900  0.5694 -0.1766
  161MOL0     C22114   7.731   9.780   4.471  0.2307  0.7236 -0.8829
  161MOL0     C22115   7.791   9.892   4.519  0.9831 -0.9567  0.2524
  161MOL0     O22116   7.888   9.882   4.616 -0.3236 -0.0215  0.1773
  161MOL0     C22117   8.009   9.962   4.590 -0.0708  0.0897  0.6630
  161MOL0     C22118   8.133   9.893   4.650 -0.6585 -0.6963 -0.3357
  161MOL0     C22119   8.269   9.958   4.638  0.7405  0.1192 -0.5330
  161MOL0     C22120   8.303  10.030   4.770 -0.2478 -0.2443  0.5226
  161MOL0     C22121   8.428  10.120   4.754 -0.1062 -0.2214  0.5042
  161MOL0     C22122   8.479  10.213   4.869  0.7833 -0.0625  0.1259
  161MOL0     C22123   8.368  10.293   4.947 -0.8724  1.0810 -1.2293
  161MOL0     C22124   8.433  10.340   5.073 -0.2318 -0.6981  0.3429
  161MOL0    Cl22125   8.611  10.392   5.067  0.7859  0.1700 -0.0366
  161MOL0     C22126   7.741  10.015   4.474  0.3407  0.1745 -0.1499
  161MOL0     C22127   7.638  10.021   4.383  0.0906 -0.4806 -0.5389
  161MOL0     O22128   7.337  10.053   4.396 -0.3311  0.2135 -0.2941
  161MOL0     C22129   7.269  10.055   4.078  0.1120 -0.4358  1.0486
  161MOL0     C22130   7.172  10.064   3.984  0.1588  0.4416  0.3686
  161MOL0     N22131   6.669   9.714   3.470 -0.5310  0.6539  0.2900
  161MOL0     N22132   6.581   9.668   3.394  0.0796 -0.0811 -0.0273
  161MOL0     C22133   5.694  10.102   2.786 -0.3726  0.0417 -0.0467
  161MOL0     C22134   5.628  10.135   2.665  0.0969  0.5855 -0.4137
  161MOL0     C22135   5.559  10.186   2.218 -0.5659 -0.4335 -0.2958
  161MOL0     C22136   5.509  10.074   2.154 -0.4277 -0.0471  0.0837
  161MOL0     C22137   5.461  10.078   2.023  0.3690 -0.1158 -0.2102
  161MOL0     C22138   5.475  10.197   1.946 -0.6379 -0.4909  0.0509
  161MOL0     O22139   5.450  10.211   1.813  0.2517  1.1195 -0.3052
  161MOL0     C22140   5.476  10.090   1.727  1.4621  0.3169 -0.8017
  161MOL0     C22141   5.606  10.121   1.656 -0.6145  0.2569  0.0162
  161MOL0     C22142   5.654  10.027   1.548 -0.0363  0.7086 -0.0874
  161MOL0     C22143   5.792  10.063   1.486  0.2901  1.2391  0.6991
  161MOL0     C22144   5.845   9.964   1.387 -0.4022  0.1873 -1.1400
  161MOL0     C22145   5.900   9.876   1.329  0.4300 -0.5330 -0.4691
  161MOL0     C22146   5.536  10.304   2.009 -0.5145  0.4791  0.6768
  161MOL0     C22147   5.582  10.296   2.138 -1.3742 -0.4166 -0.2093
  161MOL0     C22148   5.663  10.423   2.185 -1.1119  0.4132 -0.0012
  161MOL0     H22149   5.696   9.852   2.501  0.7181 -1.2709  0.6473
  161MOL0     H22150   5.823   9.804   2.718  0.4883  0.3500  0.0508
  161MOL0     H22151   5.962   9.810   2.907 -2.6956 -2.1740 -3.0472
  161MOL0     H22152   5.790   9.785   2.958 -0.5509  0.1609  0.5545
  161MOL0     H22153   6.011   9.941   3.110 -1.6897  2.2492 -0.7988
  161MOL0     H22154   5.853   9.896   3.169  2.9563 -0.7851  3.4371
  161MOL0     H22155   5.911   9.649   3.114  0.2725  0.5434 -0.3672
  161MOL0     H22156   6.083   9.696   3.122  2.4393  3.5656  1.4067
  161MOL0     H22157   6.042   9.786   3.346 -0.0568  0.9462 -2.0224
  161MOL0     H22158   5.868   9.739   3.351 -0.8677  2.5534 -3.0490
  161MOL0     H22159   5.935   9.491   3.339 -1.0051  0.4254  2.8199
  161MOL0     H22160   5.995   9.577   3.483  0.3299 -0.0377  0.2468
  161MOL0     H22161   6.140   9.414   3.398  0.7879  0.5068  1.5438
  161MOL0     H22162   6.155   9.509   3.246  1.3142 -2.3694 -0.0110
  161MOL0     H22163   6.256   9.640   3.503 -1.3236 -1.1444  0.1746
  161MOL0     H22164   6.282   9.683   3.331  1.3681  0.8230  1.1630
  161MOL0     H22165   6.379   9.415   3.438 -1.9533 -0.5570 -0.3854
  161MOL0     H22166   6.405   9.502   3.286 -0.0520 -0.2279  0.4246
  161MOL0     H22167   6.473   9.547   3.678 -1.3783  2.2074  1.0277
  161MOL0     H22168   6.781   9.637   3.720 -0.4770 -0.2729 -4.0071
  161MOL0     H22169   6.625   9.685   3.801 -1.3576  1.1988 -0.3873
  161MOL0     H22170   6.828   9.870   3.698 -1.4347 -1.7823 -4.1489
  161MOL0     H22171   6.655   9.920   3.701  0.2422 -1.9743 -2.8276
  161MOL0     H22172   6.655   9.860   3.960 -0.6718 -0.9601 -0.9115
  161MOL0     H22173   6.808   9.785   3.946 -1.2659 -0.9342 -0.3781
  161MOL0     H22174   6.759  10.085   3.889 -1.7810 -0.3559  0.4801
  161MOL0     H22175   6.807  10.030   4.047 -1.0527 -1.6220 -0.3608
  161MOL0     H22176   6.950   9.856   4.131  0.1253 -1.6014 -1.8908
  161MOL0     H22177   7.117   9.906   4.431 -0.4519  1.9371 -1.0299
  161MOL0     H22178   7.224   9.774   4.364 -0.7894 -0.6856  0.5211
  161MOL0     H22179   7.050   9.763   4.349 -0.3184  0.3222 -1.2005
  161MOL0     H22180   7.578   9.686   4.349 -0.2854 -0.8580  3.4887
  161MOL0     H22181   7.769   9.688   4.514 -2.7101 -0.0938  0.2712
  161MOL0     H22182   8.033   9.977   4.485 -1.6208  1.8511  0.4956
  161MOL0     H22183   7.991  10.058   4.640  0.8199  0.0663  1.0407
  161MOL0     H22184   8.106   9.880   4.755 -0.2823  0.4389 -0.0772
  161MOL0     H22185   8.134   9.796   4.599  0.5225  0.5370 -2.8608
  161MOL0     H22186   8.275  10.037   4.563  2.3092  2.0682  1.4910
  161MOL0     H22187   8.338   9.878   4.606 -1.2219 -1.1530 -1.7844
  161MOL0     H22188   8.328   9.952   4.843 -0.5703 -0.0606  0.8350
  161MOL0     H22189   8.219  10.091   4.805 -1.2110 -1.5282  0.5083
  161MOL0     H22190   8.517  10.064   4.721 -0.8108  0.7734 -3.6264
  161MOL0     H22191   8.406  10.186   4.670  0.2940  1.1799  1.4631
  161MOL0     H22192   8.538  10.291   4.820  0.7369  0.1701  0.4340
  161MOL0     H22193   8.538  10.150   4.935  0.3715  0.0887  0.6440
  161MOL0     H22194   8.286  10.228   4.978 -0.4223 -0.1353 -2.4756
  161MOL0     H22195   8.336  10.375   4.882  0.0480  1.5167 -1.1576
  161MOL0     H22196   8.440  10.259   5.146  0.0336  0.6240  1.8512
  161MOL0     H22197   8.375  10.420   5.120 -1.2146 -2.7900  2.9783
  161MOL0     H22198   7.785  10.110   4.504 -0.7069  1.2116 -1.7842
  161MOL0     H22199   7.605  10.118   4.349  2.4583  0.8769  0.7820
  161MOL0     H22200   7.361  10.106   4.049 -0.5404  0.1520 -0.0360
  161MOL0     H22201   7.194  10.122   3.895  1.3790  1.4612  1.2855
  161MOL0     H22202   5.714  10.181   2.858  0.4984  0.7272 -1.0314
  161MOL0     H22203   5.584  10.234   2.652  1.7928  1.1377 -2.4139
  161MOL0     H22204   5.489   9.980   2.203 -1.3216  0.5793  0.9632
  161MOL0     H22205   5.427   9.983   1.983  3.1644 -2.3832  2.2495
  161MOL0     H22206   5.473   9.994   1.779  3.8216  0.8416  0.4484
  161MOL0     H22207   5.390  10.087   1.659  1.4784 -1.0160 -0.7964
  161MOL0     H22208   5.682  10.141   1.733 -1.5323  1.7227  0.5883
  161MOL0     H22209   5.610  10.220   1.610  2.6889 -0.3193 -1.2550
  161MOL0     H22210   5.660   9.932   1.602  0.7146  0.4557 -0.6046
  161MOL0     H22211   5.567  10.027   1.482  1.4191  2.9040 -2.1459
  161MOL0     H22212   5.853  10.049   1.576  0.1791  1.4192  0.8027
  161MOL0     H22213   5.800  10.163   1.443  4.2745  0.5895 -0.5390
  161MOL0     H22214   5.939   9.792   1.274 -0.0700 -1.8173  1.0589
  161MOL0     H22215   5.567  10.390   1.950  1.8691 -1.5364 -1.1846
  161MOL0     H22216   5.752  10.379   2.231 -0.3927 -0.2832 -1.9619
  161MOL0     H22217   5.703  10.473   2.097  2.6641  1.1049  1.8855
  161MOL0     H22218   5.602  10.477   2.258  0.1746  0.9224  0.7449
  162MOL0     O22219   3.684  10.324   8.974 -0.2029 -0.0452  0.3889
  162MOL0     C22220   3.799  10.323   9.018 -0.2564 -0.0154  0.5907
  162MOL0     O22221   3.874  10.212   9.042  0.2534  0.2175 -0.2534
  162MOL0     C22222   3.862  10.087   8.990  0.3708  0.5697  0.0339
  162MOL0     C22223   3.937   9.992   9.049 -0.3675 -0.0908  0.0573
  162MOL0     C22224   3.931   9.862   8.999  0.4534  0.4860 -0.5024
  162MOL0     C22225   3.835   9.823   8.910 -0.5905  0.4042  0.8055
  162MOL0     O22226   3.810   9.692   8.887  0.3203  0.0969 -0.0440
  162MOL0     C22227   3.756   9.646   8.765  0.1124 -0.3971  0.6825
  162MOL0     C22228   3.831   9.695   8.644 -0.2655  0.2673 -0.9941
  162MOL0     C22229   3.977   9.654   8.646  0.6718  0.0820 -0.2245
  162MOL0     C22230   4.059   9.686   8.520 -0.4957  0.1522 -0.5392
  162MOL0     C22231   4.197   9.625   8.536 -0.1684  1.0795 -0.3212
  162MOL0     C22232   4.286   9.617   8.407 -0.1716 -0.7818 -0.3750
  162MOL0     C22233   4.324   9.756   8.355  0.5156  0.1543 -0.0941
  162MOL0     C22234   4.420   9.741   8.250 -0.1961  0.2085  0.0166
  162MOL0     N22235   4.488   9.866   8.213  0.3866 -0.2038  0.6110
  162MOL0     C22236   4.446   9.960   8.127 -0.2553  0.0405 -1.0020
  162MOL0     C22237   4.530  10.061   8.137 -0.6498 -0.2753 -0.2819
  162MOL0     C22238   4.544  10.200   8.080 -0.2242 -0.0302  0.0506
  162MOL0     C22239   4.409  10.282   8.101  0.0780  0.1785  1.1313
  162MOL0     C22240   4.377  10.300   8.247 -0.2787  0.0079 -1.1784
  162MOL0     C22241   4.468  10.396   8.329 -0.0183  0.0109 -0.6987
  162MOL0     O22242   4.418  10.436   8.460  0.3029 -0.1815  0.6115
  162MOL0     C22243   4.313  10.522   8.471 -0.1323  0.7297  1.0879
  162MOL0     C22244   4.314  10.653   8.411  0.2169  0.1806 -0.0691
  162MOL0     C22245   4.211  10.749   8.431 -1.0000 -0.2201  0.4516
  162MOL0     C22246   4.245  10.890   8.380 -0.0399 -0.1473 -0.2584
  162MOL0     C22247   4.106  10.717   8.528 -0.0995 -0.0394  0.9308
  162MOL0     C22248   4.007  10.803   8.574 -0.6747  0.6142 -0.0427
  162MOL0     O22249   3.939  10.780   8.689 -0.2877  0.0628  1.1206
  162MOL0     C22250   3.870  10.892   8.734 -0.0269 -0.1849 -0.5493
  162MOL0     C22251   3.944  10.991   8.798  0.5203  0.6997 -0.0929
  162MOL0     C22252   3.875  11.105   8.845 -0.7572 -0.3622 -0.7322
  162MOL0     C22253   3.742  11.128   8.835 -0.3113  0.0363  0.4354
  162MOL0     O22254   3.673  11.237   8.878 -0.0982  0.7703 -0.6002
  162MOL0     C22255   3.633  11.214   9.020 -0.0039 -0.4766 -0.3381
  162MOL0     C22256   3.600  11.345   9.082 -0.7002 -0.0072 -0.3143
  162MOL0     C22257   3.550  11.331   9.223 -1.1471 -0.0988 -0.3223
  162MOL0     C22258   3.572  11.472   9.291 -0.2896  0.2810  1.0771
  162MOL0     C22259   3.480  11.458   9.411  0.1381  0.3460 -0.0513
  162MOL0     C22260   3.527  11.368   9.536  0.1181  0.4959  0.1482
  162MOL0     C22261   3.452  11.390   9.664  0.0034 -0.2693 -0.5568
  162MOL0     C22262   3.514  11.311   9.779 -0.9520 -0.1768  0.8284
  162MOL0    Cl22263   3.551  11.134   9.738  0.2967 -0.2117  0.3470
  162MOL0     C22264   3.675  11.031   8.762  0.0113  1.1333 -0.1493
  162MOL0     C22265   3.734  10.909   8.718  0.0679  0.0209 -0.5865
  162MOL0     O22266   3.963  10.888   8.494  0.5870 -0.8096  0.4091
  162MOL0     C22267   4.102  10.590   8.578 -0.0573  0.8225 -0.8455
  162MOL0     C22268   4.210  10.490   8.557  0.2029 -0.1532  0.1648
  162MOL0     N22269   4.620  10.031   8.239 -0.2762  0.4107  0.8077
  162MOL0     N22270   4.601   9.913   8.270  0.5175 -0.1558  0.4002
  162MOL0     C22271   3.756   9.921   8.848 -0.2547 -0.1130  0.7797
  162MOL0     C22272   3.783  10.053   8.879  0.5033  0.0513 -0.2747
  162MOL0     C22273   3.835  10.462   9.071 -0.2704  0.5499  0.8898
  162MOL0     C22274   3.925  10.474   9.171 -0.1756 -0.3117 -0.8224
  162MOL0     C22275   3.984  10.596   9.206 -0.5892 -1.1743  0.9038
  162MOL0     C22276   3.942  10.717   9.141  0.3812  0.1619  0.1336
  162MOL0     O22277   3.996  10.838   9.172  0.4239 -0.5011  0.8792
  162MOL0     C22278   3.913  10.948   9.199  0.0909 -0.5815  0.2073
  162MOL0     C22279   3.994  11.042   9.276 -0.1067  0.5908  0.2013
  162MOL0     C22280   4.114  11.122   9.214  0.1713  0.2716 -0.5038
  162MOL0     C22281   4.184  11.207   9.329  0.3168 -0.9655  0.2047
  162MOL0     C22282   4.084  11.312   9.370  0.0148  0.3116  0.7500
  162MOL0     C22283   3.982  11.374   9.393 -0.1725 -0.4333  1.1258
  162MOL0     C22284   3.841  10.706   9.044 -0.0173  0.1068 -0.9289
  162MOL0     C22285   3.791  10.582   9.000 -0.3775  0.2542 -0.3509
  162MOL0     C22286   3.675  10.598   8.916  0.9243 -0.2089 -0.6574
  162MOL0     H22287   3.996  10.019   9.137 -1.6622 -2.8014  1.8952
  162MOL0     H22288   3.984   9.789   9.059 -0.8892 -2.2839 -2.4888
  162MOL0     H22289   3.652   9.679   8.753  0.0398 -0.8943 -0.1130
  162MOL0     H22290   3.759   9.539   8.744  0.0216  0.0404 -1.8782
  162MOL0     H22291   3.778   9.656   8.557 -1.4428 -0.1464 -0.1168
  162MOL0     H22292   3.841   9.803   8.632  0.9577 -0.0546 -3.5609
  162MOL0     H22293   4.031   9.686   8.736  1.4655 -0.3441 -0.5378
  162MOL0     H22294   3.967   9.546   8.650  0.8892  0.0888  0.7311
  162MOL0     H22295   4.006   9.631   8.442 -0.6558 -0.5182  0.0307
  162MOL0     H22296   4.067   9.793   8.496  2.0942  0.3343  0.7659
  162MOL0     H22297   4.179   9.522   8.568  2.9781  1.4861  3.7449
  162MOL0     H22298   4.252   9.673   8.618  0.9220  2.2663 -1.6965
  162MOL0     H22299   4.376   9.566   8.441  0.9619  2.1397  1.3285
  162MOL0     H22300   4.225   9.558   8.337 -2.8212 -0.2569  1.3377
  162MOL0     H22301   4.355   9.809   8.446 -1.1341 -0.9239  1.1451
  162MOL0     H22302   4.241   9.817   8.319 -1.2741 -1.5009  1.0657
  162MOL0     H22303   4.501   9.671   8.270  0.0971  0.7649  0.8337
  162MOL0     H22304   4.366   9.707   8.161 -1.0269  2.1819 -0.3003
  162MOL0     H22305   4.362   9.963   8.058 -0.3065  1.7234 -0.9000
  162MOL0     H22306   4.576  10.177   7.978  2.7531 -2.7911  1.4369
  162MOL0     H22307   4.626  10.254   8.127 -1.6442  0.9780  1.4983
  162MOL0     H22308   4.413  10.383   8.058  1.6372 -1.8438 -4.2560
  162MOL0     H22309   4.333  10.230   8.041  0.1583 -0.1935  1.3470
  162MOL0     H22310   4.274  10.332   8.261  0.3156  1.0456  1.5510
  162MOL0     H22311   4.373  10.202   8.295 -2.4270  1.0802  1.0329
  162MOL0     H22312   4.556  10.336   8.351 -1.4461 -1.6778  0.7278
  162MOL0     H22313   4.489  10.485   8.270  0.9770 -1.5674 -2.8244
  162MOL0     H22314   4.378  10.675   8.326 -1.7538  0.3287 -1.5880
  162MOL0     H22315   4.348  10.902   8.414 -0.5047  0.4325  1.0268
  162MOL0     H22316   4.184  10.969   8.427  0.5934  0.8426 -1.0584
  162MOL0     H22317   4.226  10.900   8.273 -1.6467 -2.7658 -0.3009
  162MOL0     H22318   4.052  10.994   8.806  0.4969  0.4057  0.3575
  162MOL0     H22319   3.939  11.185   8.882 -1.2284 -1.4406  2.7747
  162MOL0     H22320   3.544  11.151   9.026  0.0970 -0.6249 -0.3955
  162MOL0     H22321   3.711  11.165   9.078 -0.7650  0.3776  1.4991
  162MOL0     H22322   3.693  11.401   9.072  0.2682 -1.7802 -2.1846
  162MOL0     H22323   3.520  11.394   9.026 -2.5354 -0.5686  1.7006
  162MOL0     H22324   3.610  11.259   9.278  1.1213  0.8462 -1.4416
  162MOL0     H22325   3.448  11.290   9.225  0.3032 -4.1615 -0.2008
  162MOL0     H22326   3.542  11.559   9.233  1.2078  1.0742  1.4540
  162MOL0     H22327   3.678  11.482   9.315  0.3024  0.5320 -1.4216
  162MOL0     H22328   3.463  11.557   9.455 -1.8636 -0.5725  1.4215
  162MOL0     H22329   3.377  11.434   9.381  0.7032  2.7942 -4.9417
  162MOL0     H22330   3.633  11.388   9.554  0.0088  0.2024  1.2002
  162MOL0     H22331   3.522  11.263   9.505  0.9497  0.1868  0.9985
  162MOL0     H22332   3.343  11.380   9.656  0.1577 -1.3886 -1.5922
  162MOL0     H22333   3.468  11.495   9.691 -3.6860 -0.5326  3.9398
  162MOL0     H22334   3.447  11.332   9.863  0.5900  3.0277  1.3973
  162MOL0     H22335   3.605  11.367   9.801 -0.2500  1.5244 -4.7896
  162MOL0     H22336   3.570  11.038   8.737  0.2492 -0.5113 -1.9248
  162MOL0     H22337   3.685  10.838   8.653  0.6393  1.5762 -2.8069
  162MOL0     H22338   4.027  10.558   8.650  0.2838 -0.4307 -1.0195
  162MOL0     H22339   4.191  10.394   8.604 -2.5660  0.1539 -0.1841
  162MOL0     H22340   3.681   9.897   8.773  1.0277 -1.5650 -0.0765
  162MOL0     H22341   3.718  10.122   8.827 -2.3590 -1.8735  0.5284
  162MOL0     H22342   3.963  10.389   9.226 -0.3164  0.4922  0.5607
  162MOL0     H22343   4.050  10.610   9.291 -2.7024 -0.3503  2.5155
  162MOL0     H22344   3.870  10.990   9.107 -1.0770 -0.1695  0.9109
  162MOL0     H22345   3.827  10.918   9.260 -0.5823 -1.9827 -1.3723
  162MOL0     H22346   4.054  10.978   9.343  2.4430  2.1896 -0.4184
  162MOL0     H22347   3.914  11.105   9.316 -2.5025 -0.1294 -3.0766
  162MOL0     H22348   4.191  11.061   9.166 -1.6254 -1.3400 -1.4405
  162MOL0     H22349   4.068  11.183   9.136 -2.9470  0.6728  1.4835
  162MOL0     H22350   4.259  11.271   9.281 -2.0595  0.1454 -2.3414
  162MOL0     H22351   4.220  11.152   9.416  4.9508  2.0406  0.5377
  162MOL0     H22352   3.893  11.418   9.431 -1.8017 -1.1430 -1.5857
  162MOL0     H22353   3.807  10.802   9.007 -0.8725  0.0424 -0.3261
  162MOL0     H22354   3.670  10.546   8.820 -0.1326 -0.2796 -0.5829
  162MOL0     H22355   3.583  10.572   8.970  0.6556  2.0476  0.0487
  162MOL0     H22356   3.672  10.703   8.885  2.1468  0.2363  0.6312
  163MOL0     O22357   5.656   6.399   6.116  1.2469  0.4718  0.3207
  163MOL0     C22358   5.760   6.335   6.137  0.4317 -0.0333  0.2209
  163MOL0     O22359   5.847   6.358   6.243  0.2216  0.4090 -0.0975
  163MOL0     C22360   5.806   6.458   6.337  0.9154 -0.0027  0.4900
  163MOL0     C22361   5.764   6.422   6.465  1.0661  0.1788  0.5286
  163MOL0     C22362   5.717   6.517   6.555 -0.5262  0.5238  0.2015
  163MOL0     C22363   5.715   6.649   6.523  0.9545  0.0097  0.3712
  163MOL0     O22364   5.669   6.727   6.624 -0.2828 -0.3109 -0.6492
  163MOL0     C22365   5.701   6.875   6.630  0.4562 -0.0574 -0.1216
  163MOL0     C22366   5.849   6.900   6.648  0.0197 -0.2485  0.4759
  163MOL0     C22367   5.890   7.040   6.700  0.0809 -0.9450 -0.2631
  163MOL0     C22368   6.043   7.066   6.726 -0.0470  0.0873  0.3768
  163MOL0     C22369   6.072   7.191   6.817 -0.3025  0.3763  1.1849
  163MOL0     C22370   6.032   7.328   6.753 -0.7736  0.7962  0.7264
  163MOL0     C22371   6.119   7.357   6.634  0.1683  0.4128 -0.1420
  163MOL0     C22372   6.113   7.497   6.569  0.1385  0.1752 -0.3929
  163MOL0     N22373   6.153   7.617   6.653 -0.5753  0.0598 -0.0562
  163MOL0     C22374   6.086   7.657   6.776 -1.2370  0.6170 -0.3182
  163MOL0     C22375   6.172   7.749   6.827 -0.0018 -1.1515  0.7202
  163MOL0     C22376   6.140   7.818   6.948 -0.7100 -0.0452  0.3871
  163MOL0     C22377   6.162   7.970   6.936 -0.2776 -0.4516 -0.0218
  163MOL0     C22378   6.136   8.049   7.071  0.0751 -1.1145 -0.2151
  163MOL0     C22379   6.177   8.197   7.073  0.4197 -0.2529 -0.1456
  163MOL0     O22380   6.148   8.251   7.204  0.3864  0.1497  0.1334
  163MOL0     C22381   6.210   8.354   7.254 -0.4462 -0.5262 -1.1076
  163MOL0     C22382   6.227   8.375   7.392  0.6593  1.6087 -0.0249
  163MOL0     C22383   6.279   8.489   7.455  0.1145  0.1445  0.6160
  163MOL0     C22384   6.284   8.477   7.607 -0.1253 -0.0901  0.5551
  163MOL0     C22385   6.322   8.592   7.373 -0.9662 -0.7912 -0.1655
  163MOL0     C22386   6.386   8.722   7.420  0.8137  0.2659 -0.1915
  163MOL0     O22387   6.414   8.821   7.336 -0.2230  0.2692  0.3838
  163MOL0     C22388   6.496   8.925   7.384  0.3150 -0.1068  0.2396
  163MOL0     C22389   6.457   9.056   7.358  0.2737  0.3152 -0.4109
  163MOL0     C22390   6.524   9.170   7.413 -0.1797  0.3915 -0.2304
  163MOL0     C22391   6.636   9.146   7.488 -1.6571  0.6781 -0.7068
  163MOL0     O22392   6.710   9.255   7.538 -0.1258 -0.4447  0.4464
  163MOL0     C22393   6.629   9.360   7.592  0.0056  1.0815 -0.3427
  163MOL0     C22394   6.713   9.465   7.671  0.6839  0.8724 -0.1363
  163MOL0     C22395   6.846   9.515   7.599 -0.2294  0.4360  0.1472
  163MOL0     C22396   6.926   9.629   7.661  0.2827  0.6428 -0.8759
  163MOL0     C22397   7.030   9.675   7.567  0.4018 -0.7501  0.1995
  163MOL0     C22398   7.109   9.793   7.633 -0.8445  0.3056  0.4375
  163MOL0     C22399   7.204   9.848   7.528  0.2773 -0.8555 -0.2017
  163MOL0     C22400   7.319   9.748   7.485  0.0921 -0.3417  0.0425
  163MOL0    Cl22401   7.456   9.830   7.400  0.0275  0.2452  0.2602
  163MOL0     C22402   6.688   9.020   7.505 -0.0383 -0.6739 -0.1496
  163MOL0     C22403   6.620   8.913   7.455 -0.2793  0.3120  0.6747
  163MOL0     O22404   6.400   8.736   7.540 -0.0696  0.2921 -0.4921
  163MOL0     C22405   6.309   8.580   7.232 -0.4837  0.1804 -0.4519
  163MOL0     C22406   6.250   8.464   7.178 -0.0619 -0.4266 -0.6500
  163MOL0     N22407   6.280   7.760   6.736  0.3038  0.2633  0.0276
  163MOL0     N22408   6.260   7.689   6.635  0.3469  0.3334 -0.0352
  163MOL0     C22409   5.758   6.686   6.399 -0.2860  0.2217 -0.6521
  163MOL0     C22410   5.814   6.592   6.308  1.1104 -0.0786  0.5084
  163MOL0     C22411   5.797   6.237   6.034 -0.7270 -0.2405 -0.3432
  163MOL0     C22412   5.913   6.156   6.070 -0.7430  0.2719  0.2731
  163MOL0     C22413   5.943   6.057   5.976  0.1913 -1.1207  0.4827
  163MOL0     C22414   5.875   6.033   5.857  0.4649 -0.7098 -0.0402
  163MOL0     O22415   5.939   5.947   5.763  0.7876  0.1428 -0.1475
  163MOL0     C22416   5.862   5.882   5.662  0.0376 -0.5348  0.7160
  163MOL0     C22417   5.971   5.844   5.554 -0.7071  0.8990 -0.0681
  163MOL0     C22418   6.089   5.740   5.597 -0.7334  0.4212  0.0501
  163MOL0     C22419   6.043   5.589   5.589 -0.2706  0.2762 -0.4668
  163MOL0     C22420   6.024   5.538   5.453 -0.6268  0.3339  0.1648
  163MOL0     C22421   5.998   5.507   5.339 -0.1508 -0.6132  0.2368
  163MOL0     C22422   5.771   6.123   5.828  0.5014 -0.3207  0.2993
  163MOL0     C22423   5.737   6.234   5.904  0.6621  0.0691 -0.0892
  163MOL0     C22424   5.619   6.311   5.849  0.7213 -0.2471  0.7106
  163MOL0     H22425   5.753   6.316   6.484  3.5591 -0.1881  0.2694
  163MOL0     H22426   5.686   6.508   6.658  0.6528  4.0727  0.9895
  163MOL0     H22427   5.652   6.911   6.720 -0.5751 -1.3650 -0.1237
  163MOL0     H22428   5.661   6.920   6.539 -2.3608 -2.5702 -0.2818
  163MOL0     H22429   5.886   6.822   6.714  0.3550 -0.9409 -0.5012
  163MOL0     H22430   5.900   6.893   6.551 -0.5138 -1.5709  0.2773
  163MOL0     H22431   5.859   7.118   6.629  1.4551 -0.2436 -0.1168
  163MOL0     H22432   5.837   7.054   6.795 -0.9223 -2.1484 -0.6094
  163MOL0     H22433   6.078   6.975   6.774 -0.3830  1.7476  4.1504
  163MOL0     H22434   6.096   7.084   6.633  0.2058  1.2730  0.7324
  163MOL0     H22435   6.177   7.188   6.848 -0.4636  1.4144  1.8675
  163MOL0     H22436   6.020   7.179   6.913  1.6617  1.0871  2.4064
  163MOL0     H22437   5.927   7.336   6.722 -0.1455 -0.2933 -1.9728
  163MOL0     H22438   6.051   7.405   6.828 -4.9923  2.9564 -0.0857
  163MOL0     H22439   6.096   7.277   6.563 -0.5042  1.0306 -0.6359
  163MOL0     H22440   6.221   7.335   6.666 -0.3767 -3.5459 -0.6385
  163MOL0     H22441   6.168   7.499   6.474 -0.6341  1.1957 -0.8451
  163MOL0     H22442   6.008   7.520   6.551  0.2181  1.5436  0.6743
  163MOL0     H22443   5.997   7.627   6.830 -0.0346 -2.1269  0.2673
  163MOL0     H22444   6.209   7.779   7.024 -1.0534 -0.2971  0.5688
  163MOL0     H22445   6.035   7.806   6.975 -1.0176  0.5819 -0.4888
  163MOL0     H22446   6.267   7.988   6.909 -0.3181 -3.0676 -2.3966
  163MOL0     H22447   6.117   8.015   6.847  0.8611  1.8201  0.4777
  163MOL0     H22448   6.028   8.035   7.085  0.3156 -1.9344  0.9554
  163MOL0     H22449   6.183   8.001   7.158 -2.0863 -1.2624  0.9453
  163MOL0     H22450   6.286   8.209   7.066  0.6305 -0.4869  2.1254
  163MOL0     H22451   6.124   8.255   6.997 -0.5879 -2.1040 -0.9014
  163MOL0     H22452   6.208   8.286   7.450 -0.9095  1.9015 -0.0529
  163MOL0     H22453   6.323   8.556   7.670 -2.2542  0.4264  1.3188
  163MOL0     H22454   6.342   8.388   7.633 -2.1912 -1.7166 -0.0339
  163MOL0     H22455   6.181   8.454   7.635 -0.9323  1.8747 -0.5773
  163MOL0     H22456   6.365   9.071   7.302 -0.1470 -2.7713 -0.7285
  163MOL0     H22457   6.501   9.269   7.375 -3.4431 -1.1260 -2.6909
  163MOL0     H22458   6.592   9.411   7.503  0.4400  0.7560 -0.7165
  163MOL0     H22459   6.541   9.318   7.642  1.1346  0.1731  0.9651
  163MOL0     H22460   6.641   9.544   7.695  0.2933 -0.0260  1.9029
  163MOL0     H22461   6.743   9.426   7.769  2.8568  0.1266 -1.0293
  163MOL0     H22462   6.820   9.542   7.496 -1.6188  0.0941  0.3902
  163MOL0     H22463   6.908   9.426   7.589  0.8734  1.0842  1.0088
  163MOL0     H22464   6.975   9.609   7.756  2.5077  0.1885 -2.0486
  163MOL0     H22465   6.860   9.713   7.685  0.1922  0.2156  0.4554
  163MOL0     H22466   7.104   9.598   7.544  0.2943 -1.3634  1.7701
  163MOL0     H22467   6.985   9.702   7.471  0.5110 -2.0548 -0.2338
  163MOL0     H22468   7.159   9.762   7.725  0.9427 -1.0049 -0.9170
  163MOL0     H22469   7.036   9.870   7.660 -2.3599 -1.6074  2.2074
  163MOL0     H22470   7.252   9.939   7.566  0.2161 -0.8288 -0.1860
  163MOL0     H22471   7.141   9.883   7.446 -0.9484 -3.3218 -0.3903
  163MOL0     H22472   7.267   9.680   7.416 -1.4028 -0.5683  1.3399
  163MOL0     H22473   7.347   9.681   7.568 -1.1533 -2.6242 -1.2621
  163MOL0     H22474   6.784   9.018   7.554 -1.0206  0.8413  1.9898
  163MOL0     H22475   6.662   8.814   7.464  1.1971  0.5831 -2.2397
  163MOL0     H22476   6.345   8.641   7.151  1.2561  0.4707  0.5027
  163MOL0     H22477   6.235   8.462   7.071  0.1631  2.6134 -0.8153
  163MOL0     H22478   5.760   6.793   6.378  3.4705  0.5950  0.9617
  163MOL0     H22479   5.835   6.628   6.208 -3.2314  1.8275  0.0595
  163MOL0     H22480   5.970   6.168   6.161 -1.8805 -1.0403  1.1892
  163MOL0     H22481   6.030   5.995   5.995  0.7195  0.1079  2.2920
  163MOL0     H22482   5.797   5.799   5.691 -3.3495  1.3843 -0.7601
  163MOL0     H22483   5.787   5.951   5.625  0.0292  0.5900  2.7118
  163MOL0     H22484   6.027   5.932   5.522  1.2572 -0.2932 -0.0346
  163MOL0     H22485   5.930   5.790   5.469  1.8584 -2.9135  0.8485
  163MOL0     H22486   6.169   5.764   5.526 -0.8247  0.0112 -0.1940
  163MOL0     H22487   6.124   5.759   5.699  0.9662 -2.0191  0.0151
  163MOL0     H22488   5.948   5.577   5.642 -0.1982 -0.6861 -0.5462
  163MOL0     H22489   6.119   5.523   5.632  1.3039  2.1612 -0.2270
  163MOL0     H22490   5.986   5.456   5.245  0.4845 -0.0569 -0.1618
  163MOL0     H22491   5.724   6.113   5.730 -0.1923 -1.8041  0.7481
  163MOL0     H22492   5.620   6.419   5.867  0.5749  0.4284 -2.7318
  163MOL0     H22493   5.613   6.298   5.741  2.7184 -0.7956  0.6242
  163MOL0     H22494   5.533   6.274   5.905  1.3492 -0.4859  1.5486
  164MOL0     O22495   5.237  10.806   8.022  0.5158  0.0074  0.1025
  164MOL0     C22496   5.146  10.823   8.105 -0.1593  1.3568  0.0435
  164MOL0     O22497   5.035  10.902   8.077 -0.0290 -0.7566 -0.4115
  164MOL0     C22498   5.035  10.990   7.966  0.5706 -0.4071 -0.1741
  164MOL0     C22499   5.077  11.120   7.989 -0.0391 -0.2984 -0.5333
  164MOL0     C22500   5.080  11.206   7.879  0.0398  0.0292 -0.7595
  164MOL0     C22501   5.061  11.157   7.748  0.4076  1.0279  0.0845
  164MOL0     O22502   5.064  11.261   7.655 -0.8035 -0.0057 -0.7089
  164MOL0     C22503   5.031  11.233   7.524 -0.7964 -0.6379  0.0419
  164MOL0     C22504   5.162  11.213   7.444 -0.3396 -0.2900 -0.4182
  164MOL0     C22505   5.145  11.245   7.300 -0.5699  0.8932 -0.2125
  164MOL0     C22506   5.276  11.194   7.227  0.0675 -0.7195  0.8549
  164MOL0     C22507   5.245  11.231   7.079  0.5326 -0.9957 -0.5701
  164MOL0     C22508   5.323  11.141   6.987  0.5512  0.7146  0.3076
  164MOL0     C22509   5.473  11.124   7.024  0.2762  0.7577  0.5651
  164MOL0     C22510   5.557  11.251   6.999  0.4001 -0.2922  0.6789
  164MOL0     N22511   5.563  11.295   6.857 -0.9472  0.4436 -0.5727
  164MOL0     C22512   5.638  11.218   6.760  0.6799 -0.2056 -0.6904
  164MOL0     C22513   5.620  11.289   6.645  0.0585 -0.7144  0.4441
  164MOL0     C22514   5.677  11.238   6.510 -0.7386 -0.5024  0.5028
  164MOL0     C22515   5.822  11.284   6.485 -0.6359  0.6062 -0.0329
  164MOL0     C22516   5.871  11.422   6.552 -0.2077  0.7869 -0.6198
  164MOL0     C22517   5.800  11.548   6.490  0.1490  0.2832 -0.2319
  164MOL0     O22518   5.899  11.651   6.488  0.3366  0.1029 -0.7047
  164MOL0     C22519   5.999  11.658   6.393 -0.6984 -0.6984  0.3108
  164MOL0     C22520   5.961  11.697   6.264  0.4658  0.4439  0.3164
  164MOL0     C22521   6.054  11.711   6.161 -1.3294  0.1751 -1.0055
  164MOL0     C22522   6.010  11.773   6.032 -0.2690 -0.9967  0.0220
  164MOL0     C22523   6.193  11.690   6.184 -0.2670 -0.3321  0.1826
  164MOL0     C22524   6.301  11.715   6.091  0.0378 -0.0426  0.7948
  164MOL0     O22525   6.423  11.736   6.156  0.0935 -0.6476 -0.0762
  164MOL0     C22526   6.531  11.777   6.085  0.1619 -0.5049  0.5787
  164MOL0     C22527   6.636  11.686   6.083  0.4532 -0.4167 -0.1743
  164MOL0     C22528   6.745  11.714   6.001  0.1763 -0.9606  1.9405
  164MOL0     C22529   6.756  11.837   5.936 -0.5729  0.9397  0.0131
  164MOL0     O22530   6.864  11.880   5.856 -0.3658 -0.1386 -0.1056
  164MOL0     C22531   6.954  11.786   5.797  0.0528 -1.6313 -0.4764
  164MOL0     C22532   7.077  11.862   5.753  1.4406  0.1056 -0.0336
  164MOL0     C22533   7.065  11.936   5.620  0.2842 -0.2017 -1.2618
  164MOL0     C22534   7.160  12.041   5.602 -0.3005 -0.5886 -0.4284
  164MOL0     C22535   7.188  12.072   5.455  0.4078 -0.4043  0.0671
  164MOL0     C22536   7.305  12.011   5.373  0.4384  0.8321 -0.5718
  164MOL0     C22537   7.368  12.099   5.261  0.0176  0.6889 -0.2542
  164MOL0     C22538   7.257  12.126   5.162 -0.8896  0.2640 -0.2926
  164MOL0    Cl22539   7.323  12.175   4.998 -0.4691 -0.1337 -0.0500
  164MOL0     C22540   6.658  11.932   5.949 -0.2591  0.1672 -0.1770
  164MOL0     C22541   6.542  11.902   6.017  0.1826 -0.0174  0.4824
  164MOL0     O22542   6.283  11.751   5.977  0.1275  0.7108  0.6766
  164MOL0     C22543   6.225  11.642   6.316 -0.2120  0.1907  0.4734
  164MOL0     C22544   6.135  11.623   6.423 -0.1990 -0.5013  0.4728
  164MOL0     N22545   5.535  11.391   6.671  0.4124 -0.2514 -0.3098
  164MOL0     N22546   5.503  11.402   6.793 -0.0383 -0.3661  0.3376
  164MOL0     C22547   5.037  11.018   7.724 -0.2567  0.4513  0.4340
  164MOL0     C22548   5.019  10.945   7.837  0.6570 -0.7082  0.7176
  164MOL0     C22549   5.144  10.761   8.235  0.9544  0.5387  0.3650
  164MOL0     C22550   5.070  10.821   8.342  0.9048 -0.3110  0.9904
  164MOL0     C22551   5.062  10.766   8.473  0.5279  0.8846 -0.4361
  164MOL0     C22552   5.129  10.644   8.496 -0.0017 -0.5156  0.1179
  164MOL0     O22553   5.106  10.582   8.614  0.6416  1.1035 -0.2368
  164MOL0     C22554   5.222  10.580   8.700  0.8168 -0.0816 -0.3165
  164MOL0     C22555   5.173  10.641   8.831  0.3780 -2.0153  0.8774
  164MOL0     C22556   5.280  10.712   8.920  0.2651  0.2304 -0.3890
  164MOL0     C22557   5.370  10.628   8.996 -0.4972 -1.0116 -0.9799
  164MOL0     C22558   5.445  10.717   9.086 -0.4160  0.3951  0.4857
  164MOL0     C22559   5.498  10.786   9.165  0.6290 -1.0413 -0.8691
  164MOL0     C22560   5.199  10.580   8.388 -0.2855 -0.4218  0.3555
  164MOL0     C22561   5.206  10.636   8.257 -1.2904  0.0047  0.4133
  164MOL0     C22562   5.286  10.551   8.152 -0.5184 -0.1445 -0.0576
  164MOL0     H22563   5.102  11.168   8.083  1.2440 -0.4534 -0.7803
  164MOL0     H22564   5.108  11.306   7.908 -2.5485 -0.1874  3.3064
  164MOL0     H22565   4.981  11.318   7.477  2.8787 -0.2090 -3.7621
  164MOL0     H22566   4.976  11.140   7.506 -1.3021 -0.3324 -0.0055
  164MOL0     H22567   5.248  11.272   7.478  1.5853 -1.6975 -2.5209
  164MOL0     H22568   5.193  11.110   7.461  4.3787  0.9510  0.0821
  164MOL0     H22569   5.048  11.206   7.267  0.1533  0.1284 -1.5237
  164MOL0     H22570   5.133  11.353   7.287  2.1872  1.1972 -0.9251
  164MOL0     H22571   5.365  11.241   7.269  1.7381 -0.5315 -2.5098
  164MOL0     H22572   5.281  11.085   7.242  1.2590 -1.1567 -1.9641
  164MOL0     H22573   5.262  11.338   7.061 -2.7861 -0.4777 -1.1667
  164MOL0     H22574   5.139  11.223   7.054  0.2797 -3.8715  1.0273
  164MOL0     H22575   5.276  11.042   6.989  0.3720  0.7488 -1.0071
  164MOL0     H22576   5.303  11.177   6.885 -1.7210 -2.1874 -0.4159
  164MOL0     H22577   5.512  11.052   6.951  1.8110  1.0334  1.0599
  164MOL0     H22578   5.479  11.081   7.125  0.8076 -0.7487 -0.0701
  164MOL0     H22579   5.505  11.333   7.050 -0.4979 -0.4398  0.0347
  164MOL0     H22580   5.657  11.242   7.040  1.1831  2.2844 -0.4554
  164MOL0     H22581   5.697  11.131   6.785 -0.2799 -0.6376  0.1403
  164MOL0     H22582   5.612  11.274   6.430 -1.7399 -1.5441  0.8321
  164MOL0     H22583   5.661  11.131   6.526 -0.4501 -0.1583  3.7458
  164MOL0     H22584   5.886  11.203   6.522 -3.3981 -1.6432  0.1976
  164MOL0     H22585   5.844  11.280   6.378 -0.1140  1.5960  0.0293
  164MOL0     H22586   5.850  11.415   6.659  0.5998  0.7559 -0.4593
  164MOL0     H22587   5.980  11.430   6.559 -0.2038  0.2371 -0.0742
  164MOL0     H22588   5.779  11.530   6.385  1.0576  1.5648 -0.6596
  164MOL0     H22589   5.712  11.570   6.550 -0.4617  0.7972 -1.2976
  164MOL0     H22590   5.856  11.721   6.255  0.2036 -0.7703  0.0881
  164MOL0     H22591   5.903  11.753   6.022 -0.4753 -0.7439  1.5167
  164MOL0     H22592   6.040  11.730   5.936 -2.0309 -2.4184  0.0444
  164MOL0     H22593   6.034  11.880   6.022 -0.1786 -1.0634 -0.5274
  164MOL0     H22594   6.613  11.593   6.133 -1.9076 -0.8726 -1.9450
  164MOL0     H22595   6.816  11.636   5.976  0.1379 -0.9453  1.7813
  164MOL0     H22596   6.986  11.706   5.865  1.5874 -0.4165  0.2781
  164MOL0     H22597   6.914  11.748   5.702  3.3366 -2.2249 -1.7325
  164MOL0     H22598   7.098  11.928   5.838 -0.5832  0.0614  0.5390
  164MOL0     H22599   7.162  11.794   5.746  2.0208  0.7774  0.2612
  164MOL0     H22600   6.961  11.967   5.608 -0.5934 -2.3948  0.1363
  164MOL0     H22601   7.071  11.855   5.546 -2.3644 -2.3756  0.6956
  164MOL0     H22602   7.251  12.016   5.658 -2.0478 -0.5230  2.6371
  164MOL0     H22603   7.108  12.124   5.650 -1.4415 -1.2674 -0.4613
  164MOL0     H22604   7.096  12.053   5.399  0.8315  0.3360 -0.9051
  164MOL0     H22605   7.204  12.181   5.454  0.8105 -0.4043  2.0939
  164MOL0     H22606   7.264  11.919   5.329  2.4287 -2.6663  4.0000
  164MOL0     H22607   7.382  11.993   5.449 -0.9720 -1.5877  0.4037
  164MOL0     H22608   7.446  12.051   5.202 -0.0055  1.6000 -1.0616
  164MOL0     H22609   7.401  12.188   5.315  0.2375 -0.4140  1.5044
  164MOL0     H22610   7.191  12.207   5.194 -0.1433  1.6681 -2.1332
  164MOL0     H22611   7.196  12.036   5.151 -3.2276  1.1071  3.9385
  164MOL0     H22612   6.672  12.031   5.909 -1.2576  0.0947 -0.7363
  164MOL0     H22613   6.464  11.977   6.027  1.7174  1.5275  1.5854
  164MOL0     H22614   6.325  11.628   6.354 -1.5714 -3.7057  3.2246
  164MOL0     H22615   6.164  11.585   6.520  2.2940 -2.1710 -0.8186
  164MOL0     H22616   5.016  10.970   7.628  1.5933  0.5564 -0.0636
  164MOL0     H22617   4.986  10.842   7.836 -3.3651  0.4278 -0.0463
  164MOL0     H22618   5.018  10.915   8.331  0.2760 -0.9754 -3.7011
  164MOL0     H22619   4.994  10.814   8.543 -0.2284 -1.5021  0.5530
  164MOL0     H22620   5.261  10.478   8.704 -0.3216 -0.5026  0.6967
  164MOL0     H22621   5.300  10.648   8.665  1.2149  0.9877  2.4105
  164MOL0     H22622   5.118  10.573   8.896 -2.2355  2.6265  4.0010
  164MOL0     H22623   5.100  10.717   8.803 -0.0725 -2.1922  1.5433
  164MOL0     H22624   5.345  10.776   8.860  2.5055 -2.5111 -1.1059
  164MOL0     H22625   5.221  10.773   8.989  2.3857 -0.6341  2.3510
  164MOL0     H22626   5.440  10.583   8.926 -2.1155 -0.7936 -2.8460
  164MOL0     H22627   5.306  10.553   9.045  1.8017 -1.9561  0.7543
  164MOL0     H22628   5.544  10.857   9.231 -1.4268  0.9386 -1.4143
  164MOL0     H22629   5.239  10.482   8.412 -1.2964 -1.2107 -0.9928
  164MOL0     H22630   5.372  10.607   8.114  0.7516 -1.5450  0.6324
  164MOL0     H22631   5.325  10.458   8.193 -0.7892  0.8184  2.5930
  164MOL0     H22632   5.219  10.527   8.069  2.2888 -3.4409 -1.6194
  165MOL0     O22633   0.561   3.864   1.589 -0.3198  0.7569 -0.9760
  165MOL0     C22634   0.604   3.747   1.609  0.4210  0.1833  0.0765
  165MOL0     O22635   0.723   3.720   1.649  0.3394 -0.0390 -0.5681
  165MOL0     C22636   0.804   3.831   1.692 -0.0230  0.3302 -0.3159
  165MOL0     C22637   0.934   3.830   1.639 -0.2762 -0.1721  0.6878
  165MOL0     C22638   1.026   3.923   1.672 -0.1159 -0.1632  0.0065
  165MOL0     C22639   0.985   4.033   1.752 -0.9191  0.2422 -0.4102
  165MOL0     O22640   1.067   4.143   1.793  1.0395 -0.3660 -0.4188
  165MOL0     C22641   1.194   4.162   1.725  0.4033 -0.3289  0.4901
  165MOL0     C22642   1.301   4.084   1.793 -0.2695  0.5057 -0.4668
  165MOL0     C22643   1.423   4.061   1.709  0.0457  0.6224  0.2074
  165MOL0     C22644   1.512   3.965   1.797 -0.3058 -0.1532 -0.1119
  165MOL0     C22645   1.648   3.940   1.729 -0.5537  0.1188  0.1024
  165MOL0     C22646   1.636   3.861   1.598  1.2167  1.1171 -0.2932
  165MOL0     C22647   1.780   3.809   1.556 -0.0201 -0.6947  0.6376
  165MOL0     C22648   1.787   3.714   1.434 -0.3905  1.1059 -0.0622
  165MOL0     N22649   1.926   3.697   1.402 -0.1345 -0.8432 -0.0091
  165MOL0     C22650   2.005   3.746   1.296 -0.0416 -0.0496  0.9384
  165MOL0     C22651   2.124   3.684   1.304  0.0131 -0.6488 -0.0529
  165MOL0     C22652   2.243   3.690   1.214 -0.0214 -0.6011  0.5746
  165MOL0     C22653   2.226   3.583   1.110 -0.0734 -0.6977  0.7806
  165MOL0     C22654   2.323   3.600   0.988  0.1595  1.1103 -0.4220
  165MOL0     C22655   2.286   3.712   0.890  0.1762  0.7731  0.5194
  165MOL0     O22656   2.363   3.697   0.767  0.0055 -0.8050  0.0566
  165MOL0     C22657   2.334   3.594   0.678 -0.1419  0.9342 -0.6622
  165MOL0     C22658   2.444   3.536   0.606  0.3965 -0.5337  0.4945
  165MOL0     C22659   2.432   3.432   0.517  0.3125  0.3905 -0.9049
  165MOL0     C22660   2.563   3.388   0.458  0.8126 -0.5781 -0.1230
  165MOL0     C22661   2.299   3.376   0.492 -0.4234  1.1290  0.6903
  165MOL0     C22662   2.270   3.258   0.394  0.2719  0.5088 -0.1494
  165MOL0     O22663   2.132   3.254   0.363 -0.4323  0.1970  0.1455
  165MOL0     C22664   2.099   3.146   0.278  0.5091 -0.2404 -0.3596
  165MOL0     C22665   2.120   3.160   0.142  0.2563  1.1623  0.8746
  165MOL0     C22666   2.065   3.054   0.059  1.0560 -0.6837 -1.1044
  165MOL0     C22667   1.989   2.948   0.120  0.1316 -1.1894 -1.1111
  165MOL0     O22668   1.933   2.846   0.057 -0.0072 -0.5901  0.0273
  165MOL0     C22669   2.002   2.798  -0.058  0.2876  0.7774  0.5889
  165MOL0     C22670   1.926   2.682  -0.122 -0.0235  1.3749 -0.5177
  165MOL0     C22671   1.936   2.551  -0.036 -0.6156  0.3738 -0.0445
  165MOL0     C22672   1.916   2.569   0.117 -0.4057 -0.3174 -0.4426
  165MOL0     C22673   1.911   2.436   0.193  0.3059  0.3357 -0.0342
  165MOL0     C22674   2.028   2.337   0.173 -0.2950  0.7303 -0.0671
  165MOL0     C22675   2.029   2.211   0.274  0.3432 -1.3711  0.5038
  165MOL0     C22676   2.102   2.235   0.407 -0.9483 -0.2510 -0.1367
  165MOL0    Cl22677   2.058   2.095   0.521 -0.2218 -0.4173 -0.0293
  165MOL0     C22678   1.966   2.953   0.255  1.1447  1.0067 -0.3551
  165MOL0     C22679   2.022   3.049   0.346  0.9921 -0.0720  0.3267
  165MOL0     O22680   2.354   3.186   0.345 -0.6699  0.5692  0.7858
  165MOL0     C22681   2.190   3.429   0.572 -0.5160  0.0527 -0.8041
  165MOL0     C22682   2.209   3.535   0.662  0.0504 -0.6142  0.3576
  165MOL0     N22683   2.127   3.605   1.419  0.0207 -0.0981 -0.7461
  165MOL0     N22684   2.005   3.613   1.472  0.3917  1.1756 -0.7823
  165MOL0     C22685   0.860   4.024   1.814  0.1018 -0.6713  0.2898
  165MOL0     C22686   0.762   3.935   1.780  0.3021 -0.8731 -0.6557
  165MOL0     C22687   0.520   3.626   1.576  0.0574  0.2141 -0.1621
  165MOL0     C22688   0.590   3.512   1.526  0.3176  0.4268 -0.6996
  165MOL0     C22689   0.529   3.393   1.486 -0.4259 -0.5773  0.4887
  165MOL0     C22690   0.387   3.382   1.509  0.1855 -0.5949  0.3144
  165MOL0     O22691   0.310   3.273   1.479  0.5847  0.4318  0.1606
  165MOL0     C22692   0.364   3.168   1.390  0.2648  0.1538  0.7733
  165MOL0     C22693   0.349   3.223   1.244 -0.5321  0.5226  0.0602
  165MOL0     C22694   0.401   3.128   1.140 -0.2600 -0.3641 -0.1416
  165MOL0     C22695   0.553   3.110   1.144 -0.0602 -0.9874  0.5414
  165MOL0     C22696   0.618   3.232   1.098  0.5478 -0.4135 -0.6049
  165MOL0     C22697   0.672   3.332   1.056 -0.0372  0.3510  0.1173
  165MOL0     C22698   0.321   3.489   1.569 -0.4046  0.1072  0.4812
  165MOL0     C22699   0.384   3.605   1.606 -0.0355 -0.3235  0.3018
  165MOL0     C22700   0.302   3.705   1.683 -0.3278 -0.0818 -0.1699
  165MOL0     H22701   0.957   3.757   1.563 -1.8185 -0.4703  0.4743
  165MOL0     H22702   1.126   3.922   1.630  0.4302  1.7265  1.1389
  165MOL0     H22703   1.225   4.266   1.723  2.1308 -0.8071 -1.8557
  165MOL0     H22704   1.183   4.122   1.623  0.2214 -2.9963  1.4874
  165MOL0     H22705   1.324   4.138   1.885 -0.6448 -1.0120  0.5391
  165MOL0     H22706   1.271   3.982   1.818  0.5820 -0.1523 -1.9683
  165MOL0     H22707   1.403   4.005   1.617  0.7185 -3.2217  2.2096
  165MOL0     H22708   1.475   4.155   1.686  1.4356 -0.1048  0.2452
  165MOL0     H22709   1.528   4.017   1.892 -2.5946 -1.8821  1.3062
  165MOL0     H22710   1.462   3.871   1.821 -0.9737 -0.2325 -1.6903
  165MOL0     H22711   1.717   3.889   1.798  1.3612  1.3756 -0.7956
  165MOL0     H22712   1.704   4.032   1.711  1.0639 -1.1298 -1.6721
  165MOL0     H22713   1.565   3.780   1.615 -0.5938  2.2050 -2.1879
  165MOL0     H22714   1.588   3.921   1.520 -1.4395 -1.3140 -0.6738
  165MOL0     H22715   1.819   3.753   1.641 -2.4067 -1.5483  1.2572
  165MOL0     H22716   1.853   3.889   1.539  0.1963 -0.9976  0.1054
  165MOL0     H22717   1.741   3.618   1.461  3.9477 -0.6976  1.8358
  165MOL0     H22718   1.723   3.754   1.355 -2.0671 -3.9957 -1.6769
  165MOL0     H22719   1.963   3.804   1.214  2.1894  0.2739 -0.0744
  165MOL0     H22720   2.325   3.653   1.277 -1.1789  0.2805  2.7000
  165MOL0     H22721   2.272   3.790   1.180 -0.0585  0.0568  2.3762
  165MOL0     H22722   2.235   3.484   1.156 -0.8535 -0.7847  0.7588
  165MOL0     H22723   2.122   3.583   1.074  0.5540 -1.9389 -1.1978
  165MOL0     H22724   2.421   3.616   1.036  1.2828 -2.5233 -1.1615
  165MOL0     H22725   2.334   3.505   0.935  0.8457  1.3439 -0.7150
  165MOL0     H22726   2.178   3.712   0.873  0.4188  2.3354 -1.4294
  165MOL0     H22727   2.308   3.815   0.921  1.6873  1.8626 -3.5190
  165MOL0     H22728   2.540   3.582   0.627 -0.2522  0.5982  1.0756
  165MOL0     H22729   2.562   3.281   0.435 -0.6177 -0.4088 -0.9328
  165MOL0     H22730   2.633   3.404   0.540 -0.1439  2.0904  0.2784
  165MOL0     H22731   2.584   3.440   0.364  0.2302 -0.9402 -0.4626
  165MOL0     H22732   2.169   3.243   0.092 -0.7608  1.4277  0.2723
  165MOL0     H22733   2.052   3.065  -0.048 -0.4316  1.6603 -0.7768
  165MOL0     H22734   2.024   2.878  -0.129 -0.6401  0.7010  0.1952
  165MOL0     H22735   2.098   2.757  -0.027  1.3469  2.6593 -0.0107
  165MOL0     H22736   1.819   2.695  -0.134 -0.2605  0.7693  0.7084
  165MOL0     H22737   1.963   2.651  -0.220 -2.2480 -2.5756 -0.3223
  165MOL0     H22738   2.038   2.513  -0.052 -1.5806 -1.3663 -2.5469
  165MOL0     H22739   1.867   2.476  -0.074  1.1028  0.2201 -3.2029
  165MOL0     H22740   1.828   2.623   0.151  0.2178  0.6866 -0.4007
  165MOL0     H22741   2.003   2.619   0.161  0.1398 -1.8686  0.3437
  165MOL0     H22742   1.892   2.454   0.300 -2.0575 -0.8273 -0.1911
  165MOL0     H22743   1.823   2.384   0.155  1.3002 -1.3130 -0.2104
  165MOL0     H22744   2.114   2.396   0.206  0.0556  0.9219 -1.3019
  165MOL0     H22745   2.047   2.298   0.073  2.3961  1.9242 -0.0905
  165MOL0     H22746   2.083   2.142   0.209  0.8828 -0.0929 -0.4502
  165MOL0     H22747   1.928   2.173   0.294  0.7739 -1.2705  3.2573
  165MOL0     H22748   2.073   2.333   0.447 -0.9653 -1.1603  2.1994
  165MOL0     H22749   2.209   2.231   0.387 -1.2338  1.7276 -2.5552
  165MOL0     H22750   1.903   2.872   0.291  2.9890 -0.8467 -1.0638
  165MOL0     H22751   2.011   3.060   0.454  1.8053  1.6109  0.2635
  165MOL0     H22752   2.087   3.393   0.566  0.3257 -3.5382  2.3268
  165MOL0     H22753   2.129   3.563   0.730 -1.7845 -4.2296 -0.0519
  165MOL0     H22754   0.831   4.104   1.882 -0.3490  2.5672 -3.3250
  165MOL0     H22755   0.659   3.949   1.811  0.1910 -4.0625  0.8141
  165MOL0     H22756   0.698   3.524   1.527  0.6804 -2.1119  0.5919
  165MOL0     H22757   0.590   3.323   1.430  2.0160 -0.1029  2.3746
  165MOL0     H22758   0.466   3.134   1.412  0.0615 -0.2895  1.0392
  165MOL0     H22759   0.302   3.080   1.405 -1.7213  1.6728  1.9836
  165MOL0     H22760   0.416   3.310   1.240  5.6923 -3.5360  1.3191
  165MOL0     H22761   0.246   3.256   1.227 -0.2837  2.2785  1.5804
  165MOL0     H22762   0.355   3.030   1.156  0.4128 -0.6255  0.2277
  165MOL0     H22763   0.365   3.171   1.046 -1.7991 -1.1419  0.0695
  165MOL0     H22764   0.584   3.046   1.061 -1.0215  2.6102 -2.9043
  165MOL0     H22765   0.603   3.075   1.234  0.9481  1.8645  1.1864
  165MOL0     H22766   0.736   3.402   1.007 -0.0023  0.0916 -0.2123
  165MOL0     H22767   0.216   3.477   1.596 -0.3085  1.2786  1.4708
  165MOL0     H22768   0.354   3.725   1.777 -0.8476  0.2814  0.0465
  165MOL0     H22769   0.292   3.803   1.636 -2.0675 -0.3408 -0.4019
  165MOL0     H22770   0.203   3.663   1.702 -0.2278 -0.7174 -0.9577
  166MOL0     O22771   0.717   2.991   3.294  0.5183 -0.2574 -0.4065
  166MOL0     C22772   0.602   2.948   3.304  0.1167 -0.7287  0.6015
  166MOL0     O22773   0.522   2.964   3.418  0.7485  0.5526 -0.2680
  166MOL0     C22774   0.564   3.032   3.538 -0.3085 -0.0266 -0.2501
  166MOL0     C22775   0.653   3.139   3.536 -0.3685  0.1742 -0.1353
  166MOL0     C22776   0.686   3.217   3.653 -0.2385  0.3948 -0.3525
  166MOL0     C22777   0.633   3.183   3.782 -0.8735 -0.2300  0.0538
  166MOL0     O22778   0.662   3.272   3.879  0.1551 -0.6662  0.5086
  166MOL0     C22779   0.702   3.212   3.994 -0.2071  0.4664  0.0557
  166MOL0     C22780   0.714   3.313   4.109  0.7802  0.3270  0.6604
  166MOL0     C22781   0.577   3.350   4.177 -0.3954 -0.7226 -0.3685
  166MOL0     C22782   0.601   3.473   4.269  0.2031 -0.3133 -0.1847
  166MOL0     C22783   0.466   3.516   4.326  0.4711  0.2666 -0.3114
  166MOL0     C22784   0.471   3.638   4.431 -0.3392 -0.2937  0.0071
  166MOL0     C22785   0.340   3.661   4.502  0.0278 -0.5533  0.1041
  166MOL0     C22786   0.347   3.789   4.592  0.9624  0.6763  0.9093
  166MOL0     N22787   0.217   3.784   4.667 -0.5687 -0.0309 -0.7417
  166MOL0     C22788   0.101   3.827   4.632 -0.6431 -0.5784  0.4316
  166MOL0     C22789   0.025   3.815   4.746 -0.4249 -0.5539 -0.5832
  166MOL0     C22790  -0.122   3.833   4.767 -0.8691 -0.0831 -0.0763
  166MOL0     C22791  -0.190   3.721   4.860 -0.3901 -0.2372 -0.1125
  166MOL0     C22792  -0.156   3.745   5.012  0.2624  0.1275 -0.5708
  166MOL0     C22793  -0.272   3.717   5.109 -0.3853 -0.3320  0.5371
  166MOL0     O22794  -0.388   3.789   5.070  1.0146 -0.4789 -0.1100
  166MOL0     C22795  -0.427   3.904   5.142 -0.1380  0.3291 -0.6098
  166MOL0     C22796  -0.339   3.968   5.223  0.2631 -1.2848  0.7059
  166MOL0     C22797  -0.357   4.090   5.289  0.3541  0.1328  0.4807
  166MOL0     C22798  -0.242   4.151   5.368 -0.4449  1.0029  0.3612
  166MOL0     C22799  -0.492   4.136   5.282 -1.2061 -0.5275  0.0663
  166MOL0     C22800  -0.542   4.252   5.359  0.2575  0.2529  0.1840
  166MOL0     O22801  -0.661   4.305   5.329 -0.4375 -0.3558  0.3202
  166MOL0     C22802  -0.725   4.390   5.404 -0.1971 -0.0338 -0.1730
  166MOL0     C22803  -0.868   4.373   5.404  0.4985 -0.9392 -0.4400
  166MOL0     C22804  -0.945   4.459   5.481  0.7464 -0.8399  0.8040
  166MOL0     C22805  -0.895   4.557   5.556  0.5549  0.2620 -0.0389
  166MOL0     O22806  -0.970   4.652   5.622 -0.2816  0.0673  0.3047
  166MOL0     C22807  -1.095   4.609   5.676 -0.3255 -0.6010 -0.0882
  166MOL0     C22808  -1.153   4.730   5.748 -0.3544  0.2354 -0.0327
  166MOL0     C22809  -1.220   4.835   5.658  0.5751 -1.0884 -0.0822
  166MOL0     C22810  -1.366   4.801   5.612  0.8238  0.0703 -0.3658
  166MOL0     C22811  -1.409   4.907   5.517 -0.2400  0.4621  0.7907
  166MOL0     C22812  -1.443   5.049   5.576  0.2150 -1.1875 -0.0197
  166MOL0     C22813  -1.565   5.042   5.680  0.4592 -0.0216 -0.1035
  166MOL0     C22814  -1.643   5.167   5.699  0.2778 -0.0827  0.5179
  166MOL0    Cl22815  -1.740   5.198   5.545 -0.2162  0.4291  0.1453
  166MOL0     C22816  -0.754   4.559   5.571  0.0462  0.7318  0.6520
  166MOL0     C22817  -0.665   4.488   5.487  0.6193 -0.8264  0.8530
  166MOL0     O22818  -0.477   4.294   5.459 -0.1265  0.2431  0.7009
  166MOL0     C22819  -0.577   4.079   5.184 -0.7708 -1.0825 -0.5752
  166MOL0     C22820  -0.550   3.961   5.110 -0.2999 -0.1681  0.0788
  166MOL0     N22821   0.118   3.788   4.848 -0.0930 -0.7015 -0.0465
  166MOL0     N22822   0.234   3.773   4.799  0.0180 -0.2231 -0.2806
  166MOL0     C22823   0.548   3.072   3.790  0.5953  0.1500  0.2668
  166MOL0     C22824   0.515   2.995   3.666  0.1327 -0.3299 -0.1353
  166MOL0     C22825   0.551   2.889   3.177 -0.1503  0.3134  0.3393
  166MOL0     C22826   0.413   2.881   3.166 -0.7452 -1.1411 -0.1126
  166MOL0     C22827   0.354   2.859   3.045  0.5338  0.1318  0.0774
  166MOL0     C22828   0.421   2.822   2.934 -0.1644 -0.1406 -0.1290
  166MOL0     O22829   0.361   2.793   2.818  0.7950 -0.1046  0.1079
  166MOL0     C22830   0.215   2.806   2.824  0.0504  0.0144 -0.3628
  166MOL0     C22831   0.166   2.744   2.695 -1.1092 -0.7532  0.4901
  166MOL0     C22832   0.246   2.802   2.576  0.9350  0.2743 -0.9196
  166MOL0     C22833   0.165   2.811   2.449 -0.1054  1.0382 -0.1167
  166MOL0     C22834   0.266   2.838   2.347 -0.2216  0.1413 -0.9284
  166MOL0     C22835   0.340   2.870   2.259 -0.2313 -1.0056  0.9893
  166MOL0     C22836   0.558   2.791   2.954  0.0888 -0.2705 -0.1226
  166MOL0     C22837   0.622   2.828   3.077  0.2918 -0.1328 -0.3540
  166MOL0     C22838   0.759   2.795   3.103 -0.1283  0.6833  0.4384
  166MOL0     H22839   0.689   3.168   3.438  0.4718  3.7795  1.0739
  166MOL0     H22840   0.760   3.296   3.641  2.8627 -2.5186 -2.1447
  166MOL0     H22841   0.793   3.153   3.979 -2.1737 -2.6443 -0.7339
  166MOL0     H22842   0.629   3.134   4.019 -2.8158  2.2525 -1.5511
  166MOL0     H22843   0.775   3.261   4.183 -0.3425 -2.6799 -0.3817
  166MOL0     H22844   0.773   3.396   4.071  0.8486 -0.7929 -1.9185
  166MOL0     H22845   0.502   3.384   4.105  0.8529  1.7547 -0.6067
  166MOL0     H22846   0.526   3.272   4.235 -0.5512  1.2043  2.2384
  166MOL0     H22847   0.652   3.423   4.352  0.4332 -0.7494 -0.5836
  166MOL0     H22848   0.660   3.549   4.217 -1.1286  0.8674 -0.0446
  166MOL0     H22849   0.413   3.439   4.383  1.7910 -0.1589  0.3899
  166MOL0     H22850   0.396   3.548   4.248  0.3339  0.8326  0.0413
  166MOL0     H22851   0.541   3.611   4.511 -0.3735  0.1757  0.1954
  166MOL0     H22852   0.504   3.730   4.383  1.7185 -1.2124 -0.4390
  166MOL0     H22853   0.312   3.570   4.556  0.4588  0.0883  1.4718
  166MOL0     H22854   0.269   3.692   4.425 -0.6958 -4.5487 -1.0679
  166MOL0     H22855   0.438   3.792   4.651  1.6274 -0.7058  0.0136
  166MOL0     H22856   0.354   3.869   4.518  0.8584  0.6860  0.9097
  166MOL0     H22857   0.069   3.865   4.535 -0.2285  0.8148  0.8227
  166MOL0     H22858  -0.174   3.822   4.671 -1.5055  0.7279  0.1558
  166MOL0     H22859  -0.149   3.936   4.793  0.2119  1.1059 -3.1456
  166MOL0     H22860  -0.298   3.736   4.856 -0.2387  1.3354  0.8714
  166MOL0     H22861  -0.158   3.621   4.828 -0.2125 -0.5423  0.9597
  166MOL0     H22862  -0.075   3.675   5.036 -0.3853 -0.1204  1.0302
  166MOL0     H22863  -0.115   3.844   5.038 -1.7153  1.4129 -2.0379
  166MOL0     H22864  -0.274   3.610   5.090  0.0088 -0.0767 -1.1365
  166MOL0     H22865  -0.245   3.724   5.215  1.3260 -0.6741  0.1603
  166MOL0     H22866  -0.237   3.932   5.225  0.5687 -0.7543 -1.9911
  166MOL0     H22867  -0.269   4.136   5.473 -3.2614  2.6235 -0.0305
  166MOL0     H22868  -0.246   4.258   5.345 -1.2891  0.4789 -2.1907
  166MOL0     H22869  -0.142   4.110   5.350 -1.7280 -1.5022 -1.5104
  166MOL0     H22870  -0.914   4.290   5.352  0.7497 -1.2255 -0.2096
  166MOL0     H22871  -1.052   4.442   5.472  0.7109 -1.0213  1.4930
  166MOL0     H22872  -1.160   4.571   5.596 -0.5328 -3.6063  1.3951
  166MOL0     H22873  -1.085   4.523   5.742 -0.6828 -1.7116 -1.4452
  166MOL0     H22874  -1.231   4.692   5.814 -0.8004  0.5876 -0.3460
  166MOL0     H22875  -1.072   4.771   5.809 -0.8439 -0.3236  1.0153
  166MOL0     H22876  -1.161   4.851   5.568  0.7217 -3.6681 -0.5081
  166MOL0     H22877  -1.214   4.930   5.713 -1.0522  0.4710 -2.3723
  166MOL0     H22878  -1.438   4.802   5.695 -2.0048  0.6147 -2.6348
  166MOL0     H22879  -1.375   4.703   5.565 -2.1795 -0.6059  1.3518
  166MOL0     H22880  -1.336   4.928   5.439  0.0188  0.8521  1.1329
  166MOL0     H22881  -1.503   4.868   5.477 -1.3702  1.2878  2.5280
  166MOL0     H22882  -1.467   5.115   5.493 -0.0415 -1.1629  0.0756
  166MOL0     H22883  -1.357   5.090   5.631 -0.7957 -3.8091  3.9476
  166MOL0     H22884  -1.525   5.016   5.779 -1.0588  1.0165  0.8197
  166MOL0     H22885  -1.633   4.963   5.648 -0.9291  0.2487  1.9400
  166MOL0     H22886  -1.581   5.256   5.715 -0.3005  0.5275 -0.4451
  166MOL0     H22887  -1.711   5.158   5.784 -1.1764  0.6016 -0.5036
  166MOL0     H22888  -0.727   4.634   5.645  0.5973  0.2101  0.9834
  166MOL0     H22889  -0.560   4.515   5.494  1.5790 -1.7700 -4.9424
  166MOL0     H22890  -0.675   4.125   5.176  0.0336  1.0437  0.8649
  166MOL0     H22891  -0.617   3.919   5.035  0.9225  0.8221 -1.6254
  166MOL0     H22892   0.509   3.050   3.889  1.5414  1.8689  1.0697
  166MOL0     H22893   0.452   2.908   3.658 -0.1504 -0.4295  2.4389
  166MOL0     H22894   0.358   2.932   3.245 -1.4428 -2.1248  0.0553
  166MOL0     H22895   0.245   2.868   3.048  0.3008 -0.3457 -2.9496
  166MOL0     H22896   0.165   2.761   2.910  1.4718 -3.1182 -1.0284
  166MOL0     H22897   0.177   2.907   2.813 -1.1255 -0.3685  0.0520
  166MOL0     H22898   0.061   2.756   2.666 -0.9267  0.1010  0.1346
  166MOL0     H22899   0.165   2.635   2.703 -2.2113 -0.6261  2.8732
  166MOL0     H22900   0.278   2.900   2.611 -1.0950  0.7865 -0.3392
  166MOL0     H22901   0.331   2.734   2.563  1.1314  0.6415 -1.6370
  166MOL0     H22902   0.079   2.877   2.445 -0.2046  0.8587 -2.2992
  166MOL0     H22903   0.119   2.715   2.423 -3.4037  2.8275 -1.4852
  166MOL0     H22904   0.397   2.903   2.174 -0.5453 -2.8061  0.0411
  166MOL0     H22905   0.610   2.727   2.884  2.7018  1.8495 -0.3095
  166MOL0     H22906   0.832   2.875   3.118  0.6021 -0.4399  3.8476
  166MOL0     H22907   0.759   2.727   3.189 -0.5025  1.0177  0.7087
  166MOL0     H22908   0.799   2.739   3.018 -1.3469  1.3484 -0.6137
  167MOL0     O22909   7.831  10.412   0.159 -0.2511 -0.1766  0.4868
  167MOL0     C22910   7.896  10.509   0.106  0.7410  0.1712  0.3160
  167MOL0     O22911   7.843  10.615   0.045  0.7918  0.1889 -0.3095
  167MOL0     C22912   7.728  10.598  -0.021  0.7013  0.1635  0.1610
  167MOL0     C22913   7.604  10.614   0.037 -0.1008 -0.1901 -0.0376
  167MOL0     C22914   7.485  10.595  -0.038 -0.3651  0.6442 -0.5690
  167MOL0     C22915   7.491  10.575  -0.175 -0.4366  0.9403  0.1893
  167MOL0     O22916   7.377  10.551  -0.247 -0.8199  1.1489 -0.9452
  167MOL0     C22917   7.345  10.410  -0.242 -0.0833  0.2152 -0.7347
  167MOL0     C22918   7.226  10.404  -0.328  0.6172 -0.2969  0.2122
  167MOL0     C22919   7.263  10.398  -0.472  0.2720 -0.2837 -0.2353
  167MOL0     C22920   7.139  10.417  -0.561  0.1713 -0.0494 -1.2343
  167MOL0     C22921   7.179  10.455  -0.705 -0.7038  0.9268 -0.3633
  167MOL0     C22922   7.064  10.454  -0.799  0.2737 -1.0022 -0.1219
  167MOL0     C22923   7.106  10.501  -0.937 -0.1320 -0.0111 -0.3464
  167MOL0     C22924   7.006  10.470  -1.047  0.9974 -0.4946 -0.9544
  167MOL0     N22925   6.895  10.566  -1.042  0.5152 -0.1832  0.3421
  167MOL0     C22926   6.799  10.574  -0.945 -0.1957  0.1715 -0.0336
  167MOL0     C22927   6.731  10.686  -0.975 -0.6166  0.8915  0.8023
  167MOL0     C22928   6.619  10.750  -0.902 -0.4464 -0.0900 -0.4074
  167MOL0     C22929   6.515  10.640  -0.877  0.3764  0.7465 -0.0034
  167MOL0     C22930   6.379  10.695  -0.848  0.2877  0.3745  0.0376
  167MOL0     C22931   6.299  10.747  -0.968 -0.0175 -0.7994 -1.0096
  167MOL0     O22932   6.162  10.775  -0.927 -0.1916 -0.4898 -0.2605
  167MOL0     C22933   6.071  10.751  -1.021 -0.0298  0.3335 -0.1972
  167MOL0     C22934   5.978  10.652  -1.003  0.1149 -0.4049  0.6464
  167MOL0     C22935   5.907  10.601  -1.108  0.6457  0.5539  0.4043
  167MOL0     C22936   5.826  10.475  -1.087  0.1460  0.5316 -0.3763
  167MOL0     C22937   5.919  10.661  -1.240 -0.9712 -0.0880 -0.0051
  167MOL0     C22938   5.843  10.605  -1.356  0.8918 -0.0881  0.2675
  167MOL0     O22939   5.740  10.514  -1.351 -0.5980  0.4541 -0.3056
  167MOL0     C22940   5.710  10.439  -1.463  0.1875 -0.0982 -0.1735
  167MOL0     C22941   5.640  10.488  -1.572 -0.7008  1.0265  0.1212
  167MOL0     C22942   5.602  10.398  -1.671  0.5349  0.5203  0.6689
  167MOL0     C22943   5.634  10.259  -1.664 -0.4172 -0.5005  0.3198
  167MOL0     O22944   5.611  10.169  -1.767 -0.1964  0.5159  0.2774
  167MOL0     C22945   5.615  10.215  -1.900 -1.0762 -0.3966 -0.2536
  167MOL0     C22946   5.598  10.108  -1.999 -0.2408 -0.2859 -0.4667
  167MOL0     C22947   5.459  10.047  -1.983 -0.0854  0.4237  0.1158
  167MOL0     C22948   5.430   9.907  -2.054  0.2341 -0.6134  0.0609
  167MOL0     C22949   5.422   9.924  -2.204  0.2069 -0.0405 -0.0951
  167MOL0     C22950   5.420   9.787  -2.269  0.3886 -0.9910 -0.1484
  167MOL0     C22951   5.381   9.809  -2.421  0.0928 -0.8038  0.2324
  167MOL0     C22952   5.399   9.679  -2.494  0.1876  0.2063  0.4082
  167MOL0    Cl22953   5.291   9.557  -2.430 -0.2507 -0.4227 -0.0210
  167MOL0     C22954   5.693  10.214  -1.545  0.3815  0.4262 -0.5386
  167MOL0     C22955   5.723  10.306  -1.449 -0.2923  0.7435  0.0980
  167MOL0     O22956   5.882  10.654  -1.461  0.9397  0.2654  0.5447
  167MOL0     C22957   6.002  10.780  -1.255  0.3396  0.5251 -0.1320
  167MOL0     C22958   6.070  10.822  -1.144 -0.1670 -1.7691  0.5538
  167MOL0     N22959   6.777  10.747  -1.094 -0.2597  0.7281  0.0939
  167MOL0     N22960   6.869  10.661  -1.138  0.6975 -0.9622  0.0620
  167MOL0     C22961   7.618  10.572  -0.236  0.1021  0.8336 -0.1398
  167MOL0     C22962   7.735  10.581  -0.158  0.7913  0.3231 -0.6169
  167MOL0     C22963   8.045  10.511   0.128 -0.2320  0.3949  0.4077
  167MOL0     C22964   8.097  10.454   0.241  0.7834  0.2710  0.2110
  167MOL0     C22965   8.236  10.450   0.275  0.5503  0.7830 -1.3305
  167MOL0     C22966   8.329  10.519   0.192 -1.1507  0.7380 -0.5342
  167MOL0     O22967   8.464  10.532   0.227 -0.2543  0.1160  0.0176
  167MOL0     C22968   8.499  10.537   0.368 -0.0036 -0.4243 -0.1994
  167MOL0     C22969   8.649  10.553   0.375 -1.4275 -1.2711 -0.3708
  167MOL0     C22970   8.736  10.425   0.352 -0.4154 -0.1828  0.3504
  167MOL0     C22971   8.780  10.369   0.488  0.7074 -0.0468 -0.2232
  167MOL0     C22972   8.861  10.250   0.485  0.0677 -0.6090 -0.6030
  167MOL0     C22973   8.939  10.159   0.459  0.3261  0.4788 -0.0412
  167MOL0     C22974   8.281  10.569   0.074 -0.0339  0.3690 -0.4326
  167MOL0     C22975   8.145  10.569   0.044  0.0184 -0.0932  0.1247
  167MOL0     C22976   8.107  10.630  -0.092 -0.8524  0.1710 -0.5938
  167MOL0     H22977   7.601  10.631   0.145 -0.8798  0.5340 -0.1729
  167MOL0     H22978   7.394  10.603   0.020  0.2666  0.7452  0.4409
  167MOL0     H22979   7.318  10.374  -0.142  1.6913 -1.9017 -0.9212
  167MOL0     H22980   7.424  10.343  -0.279 -3.5591 -4.5742 -0.4817
  167MOL0     H22981   7.171  10.312  -0.306 -0.0027 -0.4676 -1.8358
  167MOL0     H22982   7.159  10.485  -0.299  0.1879  0.1065 -1.7843
  167MOL0     H22983   7.348  10.465  -0.488  1.4858 -0.7707  3.4202
  167MOL0     H22984   7.302  10.297  -0.483  1.1346 -0.1233  1.1755
  167MOL0     H22985   7.078  10.326  -0.563  0.4906 -0.4072  1.6461
  167MOL0     H22986   7.081  10.501  -0.522  0.4735 -0.7878  0.8990
  167MOL0     H22987   7.246  10.375  -0.735 -0.0120  0.3692  2.3378
  167MOL0     H22988   7.235  10.549  -0.702  0.8982  0.0011  1.7081
  167MOL0     H22989   7.016  10.356  -0.807 -1.3183 -0.1733 -6.6399
  167MOL0     H22990   6.983  10.520  -0.764  0.3777 -0.8900 -0.0919
  167MOL0     H22991   7.192  10.440  -0.967  0.9632  2.6086 -3.0801
  167MOL0     H22992   7.125  10.609  -0.931 -1.5451  0.1926  0.9977
  167MOL0     H22993   7.064  10.467  -1.139  1.9136  0.5106 -0.4254
  167MOL0     H22994   6.953  10.375  -1.029  1.7212 -1.3073 -2.8868
  167MOL0     H22995   6.782  10.510  -0.859  0.0346 -1.0979 -0.9118
  167MOL0     H22996   6.577  10.839  -0.950 -4.3452  0.0409  2.7486
  167MOL0     H22997   6.662  10.786  -0.808 -0.4735 -0.6888 -0.1587
  167MOL0     H22998   6.526  10.555  -0.944  1.2325  2.1990 -1.7870
  167MOL0     H22999   6.539  10.591  -0.781 -1.1135 -1.6900 -0.7761
  167MOL0     H23000   6.320  10.612  -0.809  1.0374 -0.5954 -0.8262
  167MOL0     H23001   6.384  10.772  -0.771 -0.0753 -0.3717  0.8317
  167MOL0     H23002   6.350  10.836  -1.005  0.2576 -0.4836  0.0989
  167MOL0     H23003   6.301  10.671  -1.046  2.0051 -1.4359 -0.3973
  167MOL0     H23004   5.976  10.601  -0.907  0.4023 -1.0416  0.3192
  167MOL0     H23005   5.859  10.387  -1.144  1.7977  0.7583  0.1705
  167MOL0     H23006   5.724  10.485  -1.123  0.1548 -1.2145 -1.0199
  167MOL0     H23007   5.822  10.437  -0.984 -1.1411  0.7740 -0.3299
  167MOL0     H23008   5.615  10.590  -1.600 -0.1335  1.3645  0.8292
  167MOL0     H23009   5.541  10.444  -1.748 -1.8534 -3.7034 -0.3348
  167MOL0     H23010   5.536  10.289  -1.917 -0.4721  0.4118  0.3421
  167MOL0     H23011   5.711  10.267  -1.916 -0.4228 -1.7620 -0.9650
  167MOL0     H23012   5.603  10.157  -2.097 -1.0288 -0.5507 -0.6405
  167MOL0     H23013   5.681  10.037  -1.993  0.7355  0.8538  0.2941
  167MOL0     H23014   5.375  10.111  -2.009  0.3108  0.5357 -0.9293
  167MOL0     H23015   5.434  10.016  -1.881 -2.0574 -2.5115 -1.1205
  167MOL0     H23016   5.341   9.865  -2.006 -0.8251  0.7812 -0.6085
  167MOL0     H23017   5.516   9.844  -2.029  0.7669  0.6414  1.6487
  167MOL0     H23018   5.339   9.989  -2.235  1.5657  2.7782  1.7518
  167MOL0     H23019   5.504   9.982  -2.248 -1.8147  1.2638 -2.4492
  167MOL0     H23020   5.345   9.728  -2.216  0.2084 -1.9360 -1.4194
  167MOL0     H23021   5.519   9.742  -2.260  1.0331  0.3047 -0.5504
  167MOL0     H23022   5.439   9.892  -2.464  0.5837 -0.9006  0.6994
  167MOL0     H23023   5.276   9.840  -2.426  0.9982  2.7097 -0.1109
  167MOL0     H23024   5.501   9.640  -2.486  0.0901 -0.4097 -1.0678
  167MOL0     H23025   5.368   9.708  -2.595 -1.2549 -0.0334  0.7572
  167MOL0     H23026   5.714  10.109  -1.529  0.8627  0.5353 -0.4430
  167MOL0     H23027   5.774  10.276  -1.357  0.7738  0.7885 -0.4576
  167MOL0     H23028   6.012  10.826  -1.353 -1.3531  1.2189 -0.0014
  167MOL0     H23029   6.126  10.911  -1.166 -2.6487  0.1748  1.5907
  167MOL0     H23030   7.619  10.549  -0.342  1.4428  1.5541 -0.2987
  167MOL0     H23031   7.827  10.588  -0.215  0.7725  0.4507 -0.6330
  167MOL0     H23032   8.028  10.408   0.311  1.0657 -0.5906 -0.0632
  167MOL0     H23033   8.276  10.402   0.364 -2.6457 -1.0899 -0.7383
  167MOL0     H23034   8.436  10.609   0.422 -0.2399 -1.1677  0.5337
  167MOL0     H23035   8.485  10.441   0.418  1.4849 -1.0944 -0.9889
  167MOL0     H23036   8.670  10.607   0.468  0.2471 -1.4185 -0.6261
  167MOL0     H23037   8.690  10.607   0.289 -1.5243 -3.3377 -1.7941
  167MOL0     H23038   8.667  10.359   0.299  1.5434  0.1543 -2.8907
  167MOL0     H23039   8.826  10.447   0.293  1.4299  1.8511  3.5938
  167MOL0     H23040   8.688  10.332   0.536 -1.2306  2.7897 -1.5078
  167MOL0     H23041   8.825  10.451   0.544  1.2160  0.0745 -0.8062
  167MOL0     H23042   9.007  10.076   0.457  3.2046  2.6403  0.1880
  167MOL0     H23043   8.347  10.607  -0.004 -2.0850 -0.1241 -2.5028
  167MOL0     H23044   8.189  10.650  -0.161  1.0687 -0.7593  1.3086
  167MOL0     H23045   8.031  10.565  -0.136  1.0658 -0.1588 -3.7320
  167MOL0     H23046   8.054  10.724  -0.075 -0.0974  0.1471  2.7451
  168MOL0     O23047   3.921   7.845   3.149  0.6974 -0.4989  0.2481
  168MOL0     C23048   3.829   7.804   3.073  0.0240 -0.5267 -0.6559
  168MOL0     O23049   3.835   7.701   2.991 -0.5575  0.0451 -0.0774
  168MOL0     C23050   3.947   7.622   2.961 -0.3338 -0.1201  0.1390
  168MOL0     C23051   4.073   7.653   3.008 -0.2079 -0.0945  0.1895
  168MOL0     C23052   4.189   7.575   2.991  0.4740 -0.0366  0.7446
  168MOL0     C23053   4.169   7.447   2.935 -0.6351  0.9920 -0.8387
  168MOL0     O23054   4.273   7.365   2.921 -0.0158 -0.1624  0.0806
  168MOL0     C23055   4.250   7.223   2.941 -0.7503 -0.3238 -1.0449
  168MOL0     C23056   4.391   7.153   2.933 -0.1624 -0.3976 -0.2275
  168MOL0     C23057   4.466   7.192   2.802 -0.6498  0.6835  0.1330
  168MOL0     C23058   4.615   7.170   2.831 -0.7158 -0.5683  0.3777
  168MOL0     C23059   4.696   7.194   2.703  0.2889 -0.5278 -0.6244
  168MOL0     C23060   4.840   7.161   2.728 -0.7495 -1.1956 -0.2648
  168MOL0     C23061   4.934   7.234   2.628 -0.2563 -0.1743  0.6966
  168MOL0     C23062   5.079   7.175   2.647 -0.3860  0.0497  0.1086
  168MOL0     N23063   5.177   7.234   2.559 -0.6149 -0.1878 -0.5656
  168MOL0     C23064   5.242   7.170   2.462 -0.2019 -0.5966 -0.7187
  168MOL0     C23065   5.300   7.265   2.389 -0.2959  0.0100  0.8652
  168MOL0     C23066   5.380   7.231   2.264 -0.0513  0.3292  0.3089
  168MOL0     C23067   5.520   7.297   2.271  0.4548 -0.3679  0.4707
  168MOL0     C23068   5.589   7.265   2.133  0.3349 -0.1469 -0.6614
  168MOL0     C23069   5.733   7.320   2.131 -0.0604  0.2185  0.1503
  168MOL0     O23070   5.775   7.308   1.990 -0.7993 -0.5640 -0.1444
  168MOL0     C23071   5.897   7.353   1.938 -0.4040  0.0607 -0.0461
  168MOL0     C23072   5.891   7.423   1.813 -0.0915 -0.0972 -0.2913
  168MOL0     C23073   6.009   7.488   1.760  0.2692 -0.0463 -0.0353
  168MOL0     C23074   5.984   7.574   1.637  0.1099 -0.5090  0.7426
  168MOL0     C23075   6.129   7.477   1.829  0.4515  0.2856 -0.8562
  168MOL0     C23076   6.256   7.549   1.797 -0.3300  0.0171 -0.6703
  168MOL0     O23077   6.245   7.634   1.697 -0.1768  0.0086 -0.3780
  168MOL0     C23078   6.304   7.750   1.701  0.0038  0.2059  0.3801
  168MOL0     C23079   6.385   7.806   1.807  0.4168  0.1385  0.4672
  168MOL0     C23080   6.418   7.939   1.808  0.4234  0.0103  0.2823
  168MOL0     C23081   6.393   8.018   1.700  0.8779 -0.3334 -0.2438
  168MOL0     O23082   6.431   8.148   1.686  0.2706 -0.2618  0.4617
  168MOL0     C23083   6.491   8.228   1.784  0.6892  0.3959 -0.2123
  168MOL0     C23084   6.474   8.375   1.756  0.3464 -0.3207  0.5720
  168MOL0     C23085   6.582   8.422   1.658  1.0786 -0.5206  0.4306
  168MOL0     C23086   6.528   8.529   1.557  0.4618 -0.0273  0.5263
  168MOL0     C23087   6.498   8.666   1.624  0.0246  0.1288 -0.6341
  168MOL0     C23088   6.403   8.739   1.528  0.7346 -0.3977 -0.5761
  168MOL0     C23089   6.390   8.890   1.555  0.8987 -0.6892 -0.1967
  168MOL0     C23090   6.357   8.926   1.706  0.7691 -0.4936  0.2372
  168MOL0    Cl23091   6.267   9.081   1.690  0.1444 -0.4188  0.6032
  168MOL0     C23092   6.315   7.975   1.601 -0.1261  0.0830  0.5264
  168MOL0     C23093   6.273   7.840   1.590 -0.5608 -0.0567 -0.5601
  168MOL0     O23094   6.357   7.539   1.868 -0.3407  0.0002  1.1367
  168MOL0     C23095   6.135   7.407   1.952  0.6555  0.4770  0.1332
  168MOL0     C23096   6.023   7.346   2.001  0.1407  0.4492 -1.1799
  168MOL0     N23097   5.270   7.388   2.442 -0.2518  0.4099  0.5510
  168MOL0     N23098   5.188   7.364   2.540  0.1071 -0.4063 -0.8632
  168MOL0     C23099   4.045   7.414   2.886  0.7363 -0.0079  0.6257
  168MOL0     C23100   3.934   7.500   2.888 -0.7898  0.1737 -0.0852
  168MOL0     C23101   3.700   7.880   3.085 -0.1261  0.8206 -0.1824
  168MOL0     C23102   3.617   7.881   2.970 -0.2533  0.7840 -0.1279
  168MOL0     C23103   3.479   7.915   2.972  0.2061 -0.5949 -0.4224
  168MOL0     C23104   3.419   7.952   3.095 -0.1436 -0.8454 -0.0254
  168MOL0     O23105   3.283   7.963   3.123 -0.5548  0.6968  0.5533
  168MOL0     C23106   3.187   7.945   3.020  0.2292  0.0882 -0.1725
  168MOL0     C23107   3.162   8.057   2.915  0.7623 -0.5699  0.2278
  168MOL0     C23108   3.139   8.197   2.966  0.0224 -1.3768  0.2042
  168MOL0     C23109   3.021   8.219   3.067 -0.3846  0.2941  0.6025
  168MOL0     C23110   2.998   8.364   3.082  0.6197 -0.0267  0.5202
  168MOL0     C23111   2.978   8.483   3.077 -0.3925 -0.0591  0.7986
  168MOL0     C23112   3.504   7.962   3.205 -0.1603 -0.3832  0.9051
  168MOL0     C23113   3.645   7.938   3.203 -0.0643  0.0656  0.2603
  168MOL0     C23114   3.731   7.962   3.328  0.6093 -0.5863 -0.2143
  168MOL0     H23115   4.098   7.743   3.063 -1.3640 -1.6535  3.5205
  168MOL0     H23116   4.284   7.601   3.034  0.5563 -1.2895  1.3656
  168MOL0     H23117   4.195   7.182   2.856 -2.2276  0.7919 -0.6682
  168MOL0     H23118   4.202   7.205   3.037 -1.2304  0.3268 -1.1588
  168MOL0     H23119   4.455   7.184   3.016 -1.8480  1.0500  0.5912
  168MOL0     H23120   4.381   7.044   2.927  1.8548 -0.6435  0.0190
  168MOL0     H23121   4.442   7.121   2.723  1.1929 -1.7490  1.6323
  168MOL0     H23122   4.440   7.294   2.772 -1.5527 -0.1108 -1.9574
  168MOL0     H23123   4.645   7.241   2.909 -1.1820  0.3260 -0.2461
  168MOL0     H23124   4.638   7.071   2.873  3.6639  1.0194  2.4057
  168MOL0     H23125   4.682   7.297   2.669 -3.2133 -0.9121 -0.7664
  168MOL0     H23126   4.652   7.125   2.630 -1.0412 -0.6133  0.2203
  168MOL0     H23127   4.868   7.202   2.826 -1.5218 -0.3559 -0.3836
  168MOL0     H23128   4.854   7.054   2.709  0.0217 -1.1382 -0.0730
  168MOL0     H23129   4.927   7.342   2.640  2.2979 -0.1335  2.8863
  168MOL0     H23130   4.898   7.211   2.528  1.6183 -1.0544  0.1771
  168MOL0     H23131   5.096   7.189   2.754  0.8636  0.6636 -0.1498
  168MOL0     H23132   5.086   7.069   2.619 -0.0101  0.3291 -0.9126
  168MOL0     H23133   5.241   7.062   2.448 -1.1812 -1.4715  4.3760
  168MOL0     H23134   5.334   7.276   2.175 -1.4777  1.4096  1.5461
  168MOL0     H23135   5.386   7.123   2.249 -0.1583  0.6503 -2.8409
  168MOL0     H23136   5.506   7.406   2.266  0.2547 -0.4152 -0.1428
  168MOL0     H23137   5.586   7.270   2.354  3.4617  2.8207 -0.6420
  168MOL0     H23138   5.601   7.156   2.133  1.0843 -0.1007  1.3726
  168MOL0     H23139   5.538   7.307   2.045  2.9415 -0.8218 -2.6416
  168MOL0     H23140   5.731   7.423   2.170  0.2572  0.0719  0.5674
  168MOL0     H23141   5.794   7.263   2.203 -1.4538 -0.4102  0.8778
  168MOL0     H23142   5.793   7.422   1.767 -0.4433  1.4004  0.3607
  168MOL0     H23143   5.882   7.556   1.601  0.1642 -0.8052  0.7282
  168MOL0     H23144   6.053   7.554   1.554  0.2839  0.0519  0.7502
  168MOL0     H23145   6.007   7.678   1.662  0.4363 -0.2307 -0.6229
  168MOL0     H23146   6.417   7.752   1.895 -0.5946 -0.6814  0.3399
  168MOL0     H23147   6.477   7.980   1.889  0.4985 -0.1031  0.2863
  168MOL0     H23148   6.423   8.223   1.870  2.0021  2.3194  1.0078
  168MOL0     H23149   6.588   8.196   1.822  0.7526  1.7341  0.8544
  168MOL0     H23150   6.377   8.399   1.712 -0.0070 -1.2931  0.7931
  168MOL0     H23151   6.502   8.435   1.842 -0.4657 -0.6689  1.0854
  168MOL0     H23152   6.630   8.341   1.602  1.7320  0.2733 -0.1750
  168MOL0     H23153   6.659   8.483   1.705 -0.0359  0.9452  0.4027
  168MOL0     H23154   6.439   8.479   1.517  1.2650 -1.9562  1.0239
  168MOL0     H23155   6.598   8.534   1.474 -3.3073  2.5252 -2.8859
  168MOL0     H23156   6.460   8.659   1.726 -1.1447 -0.4891 -1.1023
  168MOL0     H23157   6.586   8.731   1.624 -0.5081  0.8858 -1.5179
  168MOL0     H23158   6.303   8.696   1.535  1.0261 -1.6005 -2.6863
  168MOL0     H23159   6.437   8.724   1.425 -1.1430 -0.5936 -1.2008
  168MOL0     H23160   6.311   8.925   1.487  0.1620 -1.2866  0.3351
  168MOL0     H23161   6.475   8.954   1.529 -0.3965  1.4508  0.6133
  168MOL0     H23162   6.454   8.929   1.755  0.9788  0.5870 -0.2048
  168MOL0     H23163   6.287   8.857   1.753  0.6734  1.4748  3.2150
  168MOL0     H23164   6.299   8.043   1.518 -3.3147 -1.5895 -0.3942
  168MOL0     H23165   6.228   7.808   1.496 -0.7505  0.9013 -0.8004
  168MOL0     H23166   6.231   7.388   1.999  1.5142 -1.1214 -2.1287
  168MOL0     H23167   6.023   7.291   2.095  1.8405  1.6520 -0.4344
  168MOL0     H23168   4.039   7.325   2.826  1.8245 -1.2237  2.2312
  168MOL0     H23169   3.839   7.465   2.850 -0.9414 -0.8116  1.1153
  168MOL0     H23170   3.669   7.834   2.887 -0.2661  5.6481 -3.2526
  168MOL0     H23171   3.434   7.905   2.874  0.3414  0.6076 -0.6328
  168MOL0     H23172   3.223   7.854   2.971  5.4315  3.2821 -3.2205
  168MOL0     H23173   3.086   7.932   3.061 -0.5658 -0.9718 -2.2943
  168MOL0     H23174   3.074   8.025   2.859  0.5177 -2.2549  1.5005
  168MOL0     H23175   3.249   8.056   2.849  0.0406  0.5392 -0.7683
  168MOL0     H23176   3.237   8.233   2.999  1.1985  0.1829 -4.2347
  168MOL0     H23177   3.119   8.264   2.882 -1.5376 -2.4056 -0.2900
  168MOL0     H23178   3.061   8.196   3.166  1.9814  1.5082  0.0070
  168MOL0     H23179   2.934   8.158   3.040  1.3216 -1.3449 -1.6319
  168MOL0     H23180   2.963   8.589   3.075 -2.0530 -0.2892 -0.8696
  168MOL0     H23181   3.455   7.996   3.295 -2.6030  0.6825 -0.7214
  168MOL0     H23182   3.818   8.024   3.306  0.1468  0.3037  0.3705
  168MOL0     H23183   3.663   8.011   3.400  1.4080 -1.3428  1.1005
  168MOL0     H23184   3.771   7.867   3.364  2.3012  0.4858  0.8944
  169MOL0     O23185   5.604  10.664   9.689  0.0624 -0.6245  0.3065
  169MOL0     C23186   5.644  10.728   9.589 -2.2165  0.0223 -0.6798
  169MOL0     O23187   5.672  10.863   9.587 -0.6073  0.3731  0.0911
  169MOL0     C23188   5.694  10.924   9.709 -0.2820  0.4133  0.1059
  169MOL0     C23189   5.627  11.046   9.734 -0.5562 -0.0783 -0.4135
  169MOL0     C23190   5.655  11.116   9.851  0.1766 -0.0020 -0.2139
  169MOL0     C23191   5.749  11.068   9.938  1.0749  0.2429  0.3024
  169MOL0     O23192   5.770  11.125  10.060  0.3916  0.2218 -0.8489
  169MOL0     C23193   5.908  11.135  10.113 -0.7074 -0.2895 -0.4922
  169MOL0     C23194   5.925  11.218  10.237  0.5098  0.3558  0.1314
  169MOL0     C23195   5.887  11.364  10.217 -0.2146 -0.2321 -0.2734
  169MOL0     C23196   6.001  11.427  10.128  0.0302 -0.0281 -0.8609
  169MOL0     C23197   5.984  11.573  10.108 -0.6246  0.1542  0.2123
  169MOL0     C23198   6.079  11.634  10.007 -0.1003  0.2996 -0.3791
  169MOL0     C23199   6.033  11.607   9.856  0.7017  0.1981  0.7830
  169MOL0     C23200   6.084  11.714   9.762  0.4583 -0.0640  0.2373
  169MOL0     N23201   6.233  11.724   9.752 -0.2440  0.1479 -0.3676
  169MOL0     C23202   6.302  11.682   9.643 -0.1334  0.4300 -0.8552
  169MOL0     C23203   6.433  11.711   9.665 -0.3257  0.3150  0.5371
  169MOL0     C23204   6.541  11.685   9.564 -0.4522  1.2433 -0.1448
  169MOL0     C23205   6.550  11.531   9.527  0.5238 -0.0374  0.2209
  169MOL0     C23206   6.580  11.446   9.653  0.1471 -0.1747 -0.1927
  169MOL0     C23207   6.550  11.298   9.630  1.0546 -0.2680 -0.3297
  169MOL0     O23208   6.416  11.274   9.598  0.6878 -0.6976  0.7641
  169MOL0     C23209   6.366  11.154   9.589 -0.1842 -0.0165  0.5751
  169MOL0     C23210   6.233  11.129   9.596 -0.4841 -0.1959  0.0719
  169MOL0     C23211   6.184  10.995   9.602 -0.7574 -0.4490  0.4918
  169MOL0     C23212   6.034  10.986   9.599  0.0740  0.5334  0.5426
  169MOL0     C23213   6.277  10.881   9.615  0.9934 -0.2769  0.2797
  169MOL0     C23214   6.230  10.741   9.627  0.8402  0.7951  0.0947
  169MOL0     O23215   6.109  10.693   9.586  0.0608 -0.3788  0.2585
  169MOL0     C23216   6.073  10.557   9.593 -0.2642  0.2445  0.1097
  169MOL0     C23217   5.998  10.501   9.694 -0.5578 -0.6888 -0.8826
  169MOL0     C23218   5.970  10.363   9.713  0.7864 -0.0117 -0.5194
  169MOL0     C23219   6.005  10.277   9.607  0.1940 -0.2182  0.0043
  169MOL0     O23220   5.986  10.139   9.613 -0.0077 -0.3307 -0.2507
  169MOL0     C23221   6.019  10.078   9.737 -0.7593  0.2872 -1.1791
  169MOL0     C23222   6.026   9.926   9.719 -0.3469  0.4755 -0.1815
  169MOL0     C23223   5.897   9.856   9.684  0.3594  0.2272  0.6954
  169MOL0     C23224   5.936   9.706   9.657  0.1262  0.3162 -0.8872
  169MOL0     C23225   5.796   9.631   9.644 -0.2181 -0.5314 -0.0714
  169MOL0     C23226   5.816   9.488   9.603 -0.2521  0.2317 -1.0250
  169MOL0     C23227   5.681   9.422   9.556 -0.3710 -0.5148  0.2727
  169MOL0     C23228   5.707   9.284   9.506 -0.1178  0.4189  0.5421
  169MOL0    Cl23229   5.746   9.169   9.638  0.3160 -0.3211  0.0209
  169MOL0     C23230   6.077  10.324   9.496  1.0672 -0.4299  0.6083
  169MOL0     C23231   6.110  10.464   9.495  0.0224  0.4076  1.1481
  169MOL0     O23232   6.308  10.675   9.690  0.0469  0.4278 -0.3201
  169MOL0     C23233   6.411  10.915   9.606 -0.0010  0.4306 -0.4083
  169MOL0     C23234   6.451  11.044   9.590  0.7445 -0.3845  0.0125
  169MOL0     N23235   6.438  11.765   9.784 -0.3675 -0.1452 -0.6074
  169MOL0     N23236   6.323  11.769   9.841 -1.0339 -0.6642 -1.1628
  169MOL0     C23237   5.811  10.944   9.922  0.4028 -1.2969 -0.0260
  169MOL0     C23238   5.782  10.872   9.804  1.2549 -0.8931  0.9535
  169MOL0     C23239   5.679  10.657   9.473 -0.2626  0.4360  0.6905
  169MOL0     C23240   5.811  10.679   9.426 -0.3266 -1.3117 -0.3207
  169MOL0     C23241   5.854  10.613   9.318 -0.4404 -1.0585 -0.1672
  169MOL0     C23242   5.772  10.524   9.248 -0.2869 -0.0143  0.4767
  169MOL0     O23243   5.808  10.460   9.133  0.3405  0.1693  0.1082
  169MOL0     C23244   5.883  10.544   9.044  0.9313 -0.6637 -0.1525
  169MOL0     C23245   5.917  10.451   8.931  0.0604 -0.6827 -0.6775
  169MOL0     C23246   5.806  10.395   8.849  1.4488  0.2388 -0.0883
  169MOL0     C23247   5.688  10.493   8.807  0.3490  0.1061  0.4992
  169MOL0     C23248   5.628  10.464   8.677  0.6777  0.1484  0.4355
  169MOL0     C23249   5.594  10.445   8.555  0.2596 -0.7375 -2.1189
  169MOL0     C23250   5.644  10.504   9.291  0.4546  1.2971  0.3197
  169MOL0     C23251   5.590  10.568   9.403 -0.5972  0.4934 -0.2994
  169MOL0     C23252   5.442  10.547   9.449 -1.0864  0.4016  0.0484
  169MOL0     H23253   5.556  11.096   9.670 -0.8492  0.9121  0.6529
  169MOL0     H23254   5.588  11.197   9.877  0.3893 -0.9409  4.0577
  169MOL0     H23255   5.970  11.183  10.037 -2.6050  0.7234 -1.4618
  169MOL0     H23256   5.935  11.031  10.135 -0.8714 -0.0389  0.9822
  169MOL0     H23257   5.868  11.173  10.319  1.5056  0.2396  0.7730
  169MOL0     H23258   6.025  11.214  10.280  0.2227  1.6648  0.9766
  169MOL0     H23259   5.786  11.373  10.177 -0.0541  0.5840 -0.5213
  169MOL0     H23260   5.876  11.421  10.309 -1.8453  1.5263 -1.4624
  169MOL0     H23261   6.100  11.404  10.168 -1.2200 -1.1037  1.8122
  169MOL0     H23262   5.994  11.386  10.026 -1.9829 -0.8589 -0.4235
  169MOL0     H23263   5.996  11.618  10.207  0.5934  0.3918 -0.0359
  169MOL0     H23264   5.878  11.578  10.081 -0.8806  1.1302  1.3227
  169MOL0     H23265   6.082  11.743  10.017 -1.7695  0.7316 -3.2865
  169MOL0     H23266   6.180  11.601  10.032 -0.5709 -4.0041 -3.0634
  169MOL0     H23267   5.924  11.602   9.858  0.6273 -0.4857 -1.6862
  169MOL0     H23268   6.070  11.509   9.825 -0.6601  0.0842 -0.5307
  169MOL0     H23269   6.038  11.691   9.665  0.8816 -0.5226  0.1414
  169MOL0     H23270   6.043  11.809   9.798 -2.3655 -1.0115 -0.2589
  169MOL0     H23271   6.257  11.645   9.551 -0.4968  1.2461 -1.0092
  169MOL0     H23272   6.638  11.708   9.610  0.0222  0.4587 -0.7171
  169MOL0     H23273   6.528  11.742   9.472 -0.4744 -2.3425 -2.5715
  169MOL0     H23274   6.452  11.507   9.486  0.4263  0.3036  0.2513
  169MOL0     H23275   6.629  11.510   9.454  0.6074 -0.4899  0.4365
  169MOL0     H23276   6.688  11.454   9.669  0.0201 -1.1297  1.4560
  169MOL0     H23277   6.528  11.480   9.743 -0.6853  0.1568 -0.7854
  169MOL0     H23278   6.621  11.253   9.560  1.0137  0.3855 -0.8030
  169MOL0     H23279   6.570  11.249   9.726  3.2997  0.6073 -0.2994
  169MOL0     H23280   6.163  11.211   9.611 -1.3373 -1.0665  0.9542
  169MOL0     H23281   5.976  11.079   9.601  0.8438  1.0186  1.6182
  169MOL0     H23282   6.014  10.924   9.687  1.8582  0.6462  1.0712
  169MOL0     H23283   5.995  10.928   9.515 -1.9340  1.7679  0.5637
  169MOL0     H23284   5.976  10.562   9.780  0.2851 -1.3007 -0.2169
  169MOL0     H23285   5.923  10.332   9.805 -0.5893 -1.2011 -1.5746
  169MOL0     H23286   6.120  10.114   9.759 -0.4965  1.9570 -4.4355
  169MOL0     H23287   5.946  10.102   9.815  0.1335 -0.8281  0.0387
  169MOL0     H23288   6.098   9.905   9.639 -1.2919  0.0463 -0.9326
  169MOL0     H23289   6.068   9.882   9.810  1.0063  0.0951 -0.9568
  169MOL0     H23290   5.848   9.900   9.596 -0.8945 -1.1434  0.6546
  169MOL0     H23291   5.830   9.858   9.771  1.8422 -1.8448  1.9889
  169MOL0     H23292   6.004   9.657   9.728 -0.7337 -3.7709 -2.6174
  169MOL0     H23293   5.980   9.701   9.557  0.7214  2.9656 -0.8528
  169MOL0     H23294   5.736   9.618   9.734  2.2159  0.8719  1.8758
  169MOL0     H23295   5.737   9.676   9.563  0.6442 -1.5786 -1.3291
  169MOL0     H23296   5.854   9.439   9.693 -2.7216  2.3956  1.3595
  169MOL0     H23297   5.882   9.475   9.517 -0.1767  0.2353 -0.9674
  169MOL0     H23298   5.632   9.489   9.484  1.4944  0.8926  0.2175
  169MOL0     H23299   5.617   9.412   9.643  2.2343 -0.1549  2.3608
  169MOL0     H23300   5.799   9.283   9.446  0.2496 -1.0355  1.0902
  169MOL0     H23301   5.620   9.244   9.452 -1.7489  1.9539  1.9265
  169MOL0     H23302   6.095  10.271   9.403 -0.3379 -0.1076  0.1365
  169MOL0     H23303   6.161  10.508   9.410  0.4627  0.7976  1.6070
  169MOL0     H23304   6.486  10.838   9.593 -0.1818  0.3451 -0.9604
  169MOL0     H23305   6.557  11.049   9.566  0.6917 -0.5892 -0.2714
  169MOL0     H23306   5.882  10.896   9.989 -0.0909  1.9537  3.1482
  169MOL0     H23307   5.841  10.785   9.779  0.9743 -0.4262 -1.6784
  169MOL0     H23308   5.887  10.738   9.477 -1.2706 -1.4182  1.3118
  169MOL0     H23309   5.957  10.634   9.293  0.5188 -0.6788  3.5343
  169MOL0     H23310   5.823  10.623   8.998 -0.1473 -2.5999 -2.2220
  169MOL0     H23311   5.979  10.576   9.085  0.9468 -2.0899  0.9940
  169MOL0     H23312   5.981  10.368   8.962  1.0676 -0.9525 -3.2125
  169MOL0     H23313   5.975  10.503   8.854 -0.4437 -0.1340 -0.6943
  169MOL0     H23314   5.844  10.354   8.755 -1.3486  0.7607 -1.5293
  169MOL0     H23315   5.773  10.303   8.897 -0.8561 -0.4387 -2.7123
  169MOL0     H23316   5.722  10.596   8.794  3.0536 -1.0473 -2.9884
  169MOL0     H23317   5.612  10.482   8.885  1.2713  1.5008  1.6476
  169MOL0     H23318   5.550  10.433   8.459  0.4384 -0.3104 -2.2557
  169MOL0     H23319   5.575  10.439   9.238  0.5952  2.1618 -0.9720
  169MOL0     H23320   5.429  10.460   9.515  1.4968 -0.7745 -0.8624
  169MOL0     H23321   5.404  10.634   9.504 -0.0096  0.3635  0.8773
  169MOL0     H23322   5.373  10.546   9.364  0.3824  0.4199 -1.1807
  170MOL0     O23323   8.450   1.038   2.783 -1.0352  0.0863 -0.6643
  170MOL0     C23324   8.571   1.047   2.742  0.0352  0.4207 -0.1016
  170MOL0     O23325   8.688   1.061   2.811  0.3814  0.1004  0.5592
  170MOL0     C23326   8.680   1.047   2.947 -0.7786 -0.0020  0.1857
  170MOL0     C23327   8.587   1.109   3.035  0.2054 -0.3929  0.8278
  170MOL0     C23328   8.597   1.081   3.173  0.1302 -0.8671  0.1977
  170MOL0     C23329   8.695   1.004   3.226 -0.0731 -0.1940  0.6909
  170MOL0     O23330   8.713   0.985   3.365  0.3885  0.0209 -0.3401
  170MOL0     C23331   8.845   1.030   3.399  0.2095 -0.2282 -0.3488
  170MOL0     C23332   8.850   1.030   3.556  0.3788 -0.2100  0.0195
  170MOL0     C23333   8.817   0.884   3.604 -0.7056  0.1180 -0.3177
  170MOL0     C23334   8.727   0.886   3.730  0.3663 -0.4844 -0.4578
  170MOL0     C23335   8.702   0.741   3.785  0.6784 -0.6761  0.1404
  170MOL0     C23336   8.841   0.692   3.846  0.1093 -0.0963 -0.7393
  170MOL0     C23337   8.809   0.628   3.987 -0.0933  0.3514  0.2609
  170MOL0     C23338   8.930   0.593   4.075  0.4047  1.3220  0.1742
  170MOL0     N23339   8.892   0.559   4.211 -0.5423 -0.8888 -0.1299
  170MOL0     C23340   8.841   0.435   4.239  0.1434 -0.4635 -0.0600
  170MOL0     C23341   8.840   0.443   4.376  0.0111 -0.1101 -0.4314
  170MOL0     C23342   8.814   0.335   4.464  0.4238  0.2489 -0.3997
  170MOL0     C23343   8.674   0.271   4.459 -0.7809 -0.5828 -0.2224
  170MOL0     C23344   8.564   0.371   4.511  0.3775 -0.4533 -0.3230
  170MOL0     C23345   8.572   0.383   4.664  0.8202 -0.0988 -0.1942
  170MOL0     O23346   8.572   0.253   4.715 -0.0672  0.5000 -0.1094
  170MOL0     C23347   8.447   0.191   4.736  0.3300  0.1285 -0.5929
  170MOL0     C23348   8.446   0.076   4.816 -1.2147 -1.0720 -0.2364
  170MOL0     C23349   8.328  -0.003   4.835 -0.2627 -0.2867  0.8468
  170MOL0     C23350   8.355  -0.131   4.911 -0.2252  0.2497 -0.8019
  170MOL0     C23351   8.209   0.045   4.779 -0.2857  0.1618 -0.1917
  170MOL0     C23352   8.078  -0.025   4.785 -0.2671 -0.0622  0.4107
  170MOL0     O23353   7.971   0.020   4.712 -0.2473  0.6732 -0.4707
  170MOL0     C23354   7.856  -0.063   4.708 -0.9727  0.0785 -1.0152
  170MOL0     C23355   7.850  -0.146   4.594  0.1131  0.7381 -0.7217
  170MOL0     C23356   7.739  -0.230   4.585  0.5753  0.1847 -0.5378
  170MOL0     C23357   7.629  -0.212   4.674  0.1800 -0.0407 -0.5795
  170MOL0     O23358   7.512  -0.279   4.648  0.2658  0.0657  0.2162
  170MOL0     C23359   7.529  -0.424   4.610  0.0982 -0.0679  1.0375
  170MOL0     C23360   7.516  -0.455   4.450  0.4644  0.3329 -0.4391
  170MOL0     C23361   7.509  -0.606   4.419  0.1763 -0.3924 -0.0270
  170MOL0     C23362   7.648  -0.676   4.405  0.3888  0.1170 -0.5195
  170MOL0     C23363   7.616  -0.817   4.357 -0.2479 -0.2892  0.0067
  170MOL0     C23364   7.739  -0.909   4.363  0.0514 -0.5672  0.3616
  170MOL0     C23365   7.817  -0.903   4.496 -0.1649  0.4361  0.2224
  170MOL0     C23366   7.884  -1.033   4.518  0.2718  0.2121  0.2535
  170MOL0    Cl23367   7.945  -1.030   4.683  0.1485  0.3498  0.0183
  170MOL0     C23368   7.639  -0.130   4.786 -0.3335  0.6088  0.3158
  170MOL0     C23369   7.758  -0.061   4.806 -0.1478  0.2050  0.4785
  170MOL0     O23370   8.072  -0.122   4.860  0.1605  0.2446  0.3427
  170MOL0     C23371   8.209   0.167   4.707 -0.1203  0.2511 -0.0235
  170MOL0     C23372   8.322   0.235   4.681 -0.2299 -0.0702 -0.3827
  170MOL0     N23373   8.901   0.560   4.430  1.3052 -0.1255 -0.3041
  170MOL0     N23374   8.916   0.638   4.326 -0.5498 -0.1450  0.2077
  170MOL0     C23375   8.783   0.943   3.142 -0.2799  0.2487  0.7913
  170MOL0     C23376   8.775   0.962   3.002 -0.4656 -0.5455  1.0130
  170MOL0     C23377   8.586   1.060   2.587  0.3169 -0.4913 -0.8411
  170MOL0     C23378   8.472   1.022   2.509 -0.2226 -0.2988  0.1146
  170MOL0     C23379   8.473   1.015   2.368  0.2744  1.1144  0.3567
  170MOL0     C23380   8.585   1.049   2.298 -0.4243  0.4192  0.0675
  170MOL0     O23381   8.603   1.038   2.162 -0.0221  0.1107  0.5759
  170MOL0     C23382   8.487   1.049   2.080 -0.1918 -0.2158  0.5716
  170MOL0     C23383   8.411   1.185   2.094  0.7054 -0.3507 -0.7549
  170MOL0     C23384   8.507   1.298   2.050  0.4207 -0.4646  0.0995
  170MOL0     C23385   8.427   1.423   1.993 -0.7093  0.8265 -0.6880
  170MOL0     C23386   8.298   1.459   2.056  0.1781  0.3521 -0.3654
  170MOL0     C23387   8.188   1.499   2.098 -0.7792 -0.3210  0.4167
  170MOL0     C23388   8.698   1.085   2.374  0.2706 -0.3915  0.3522
  170MOL0     C23389   8.703   1.096   2.515 -0.6794 -0.1903  0.5728
  170MOL0     C23390   8.833   1.162   2.570 -0.7786  0.2868 -0.2941
  170MOL0     H23391   8.521   1.186   2.999  0.2453 -0.4065  0.7266
  170MOL0     H23392   8.532   1.129   3.246 -1.1216  3.4243 -3.2921
  170MOL0     H23393   8.855   1.131   3.358  2.7433 -0.4722 -0.4679
  170MOL0     H23394   8.929   0.983   3.348 -1.4778 -2.7663 -0.9905
  170MOL0     H23395   8.953   1.050   3.584  1.7899 -2.7684 -2.7697
  170MOL0     H23396   8.779   1.104   3.593 -0.5091  0.1888 -2.3064
  170MOL0     H23397   8.764   0.831   3.524 -5.1824  2.1052  0.9940
  170MOL0     H23398   8.902   0.815   3.608 -0.3590  0.2592 -3.1585
  170MOL0     H23399   8.761   0.956   3.807 -1.9825  1.2728 -0.9167
  170MOL0     H23400   8.633   0.932   3.700  2.3769  4.4592 -0.0727
  170MOL0     H23401   8.667   0.669   3.711  0.5907 -1.1815  0.6670
  170MOL0     H23402   8.615   0.748   3.851 -0.8102  1.6787 -1.8860
  170MOL0     H23403   8.885   0.626   3.772 -1.8852 -0.4360 -1.6890
  170MOL0     H23404   8.914   0.773   3.858 -0.9541  0.6522  1.1844
  170MOL0     H23405   8.745   0.539   3.978  0.5393  0.0246 -1.2862
  170MOL0     H23406   8.749   0.705   4.036 -1.3489 -0.1077 -0.5095
  170MOL0     H23407   8.987   0.511   4.031 -0.5856  0.8213 -0.1932
  170MOL0     H23408   8.995   0.681   4.067  0.4274  1.1470 -1.8545
  170MOL0     H23409   8.811   0.361   4.166 -0.5797 -0.2128 -0.0175
  170MOL0     H23410   8.842   0.360   4.567  2.2122 -2.3089 -0.1648
  170MOL0     H23411   8.873   0.247   4.435  1.2539  0.1278  1.4536
  170MOL0     H23412   8.639   0.251   4.358 -1.9799 -2.5485  0.5211
  170MOL0     H23413   8.672   0.185   4.527 -2.0840  0.8591  1.6570
  170MOL0     H23414   8.567   0.470   4.465  0.8611  0.1888  1.0132
  170MOL0     H23415   8.470   0.323   4.484  0.2520 -1.2626  1.4261
  170MOL0     H23416   8.660   0.441   4.694 -0.3133 -0.5485  4.9332
  170MOL0     H23417   8.484   0.439   4.696 -0.3138 -0.8280 -1.8899
  170MOL0     H23418   8.541   0.055   4.863 -0.2657  0.0656 -1.5433
  170MOL0     H23419   8.299  -0.132   5.005  2.0525 -2.7453  0.6999
  170MOL0     H23420   8.460  -0.150   4.936 -0.5691 -3.7109 -1.6871
  170MOL0     H23421   8.330  -0.215   4.845 -3.3142 -0.4875  1.1182
  170MOL0     H23422   7.917  -0.142   4.509 -1.7985  0.7297 -2.2885
  170MOL0     H23423   7.743  -0.303   4.505  1.7422  0.2626 -0.5675
  170MOL0     H23424   7.619  -0.468   4.654 -0.4298 -0.5583  1.6536
  170MOL0     H23425   7.442  -0.475   4.653  2.2114 -2.6334  2.6257
  170MOL0     H23426   7.426  -0.403   4.415 -1.7437 -2.0276  1.3475
  170MOL0     H23427   7.605  -0.416   4.400 -0.0747  0.3602 -1.4113
  170MOL0     H23428   7.457  -0.629   4.326 -0.8360  2.2044 -0.1632
  170MOL0     H23429   7.452  -0.658   4.497  2.7213 -0.3885  1.9761
  170MOL0     H23430   7.692  -0.672   4.505  2.2058  3.7602 -1.2801
  170MOL0     H23431   7.714  -0.614   4.343 -0.1241  1.6364  0.3852
  170MOL0     H23432   7.537  -0.867   4.414  1.0121 -3.3619 -0.6867
  170MOL0     H23433   7.579  -0.816   4.254  1.3424 -0.8423 -0.6145
  170MOL0     H23434   7.802  -0.870   4.282 -1.3308 -0.2556 -0.5944
  170MOL0     H23435   7.715  -1.013   4.341  2.7618 -1.4486  1.0913
  170MOL0     H23436   7.744  -0.879   4.574  1.4825 -0.4085  2.0981
  170MOL0     H23437   7.888  -0.821   4.488  0.4616 -0.1324 -0.0999
  170MOL0     H23438   7.968  -1.047   4.449  1.1193  4.6461  0.1131
  170MOL0     H23439   7.812  -1.114   4.505 -0.8548  1.4096 -1.2729
  170MOL0     H23440   7.572  -0.108   4.869  2.1630  1.5193  2.1916
  170MOL0     H23441   7.776   0.012   4.884 -0.3429 -0.2518  0.9594
  170MOL0     H23442   8.115   0.206   4.669  0.0713 -2.8979 -4.4798
  170MOL0     H23443   8.318   0.324   4.619  1.7338  2.0735  2.3311
  170MOL0     H23444   8.850   0.866   3.180  0.4195 -0.7077 -2.1022
  170MOL0     H23445   8.835   0.920   2.922 -1.1313  0.2814  0.0595
  170MOL0     H23446   8.377   0.989   2.550 -0.9535  1.7595  0.2229
  170MOL0     H23447   8.382   0.986   2.316  0.9178 -1.2821  0.4640
  170MOL0     H23448   8.527   1.032   1.979  0.2444 -0.1694  0.7353
  170MOL0     H23449   8.422   0.966   2.108  2.4404 -3.1945 -1.4228
  170MOL0     H23450   8.376   1.182   2.197  0.4337 -0.4625 -0.8493
  170MOL0     H23451   8.328   1.185   2.023  0.8080 -3.4560 -1.0234
  170MOL0     H23452   8.575   1.326   2.132  2.6921 -0.3634 -1.7263
  170MOL0     H23453   8.561   1.262   1.963  0.4682 -4.7637  1.6627
  170MOL0     H23454   8.404   1.392   1.891  1.0934  0.7422 -1.1081
  170MOL0     H23455   8.505   1.499   2.004  0.5154 -0.2847 -1.4097
  170MOL0     H23456   8.092   1.545   2.106 -0.8194 -0.4673  0.8177
  170MOL0     H23457   8.800   1.090   2.336  0.1849  2.7343  0.2145
  170MOL0     H23458   8.815   1.208   2.668  0.1134 -0.4542  0.2420
  170MOL0     H23459   8.915   1.090   2.584 -2.5436 -1.6193  0.8343
  170MOL0     H23460   8.850   1.253   2.513  0.1643  2.1112  2.6532
  171MOL0     O23461  11.370   0.775   5.573 -0.4137 -0.2375  0.3054
  171MOL0     C23462  11.361   0.668   5.507 -0.1948 -0.7759 -0.1113
  171MOL0     O23463  11.256   0.624   5.435  0.3023 -0.4683 -0.8881
  171MOL0     C23464  11.135   0.690   5.434 -0.3748  0.6493  0.3121
  171MOL0     C23465  11.121   0.830   5.423 -0.2807  0.2795 -0.3810
  171MOL0     C23466  11.002   0.885   5.403  0.9071 -0.1278 -0.7733
  171MOL0     C23467  10.884   0.810   5.398 -0.9093  0.4399  0.2870
  171MOL0     O23468  10.772   0.876   5.358 -0.1265  0.0228  0.0897
  171MOL0     C23469  10.704   0.820   5.242  0.5342 -0.9931  0.7389
  171MOL0     C23470  10.664   0.931   5.144  0.4848 -0.2373 -0.5664
  171MOL0     C23471  10.648   1.079   5.204 -0.8665  0.9433  0.6040
  171MOL0     C23472  10.549   1.084   5.325 -0.0538 -0.2785  0.3636
  171MOL0     C23473  10.548   1.222   5.392 -0.4632  0.8305  1.1443
  171MOL0     C23474  10.461   1.330   5.317 -0.6962 -0.1230  0.4345
  171MOL0     C23475  10.403   1.435   5.406  0.7549 -0.6267 -0.4267
  171MOL0     C23476  10.319   1.522   5.311 -1.1352  0.0039 -0.0136
  171MOL0     N23477  10.269   1.639   5.386 -0.7368 -0.5894 -0.8645
  171MOL0     C23478  10.338   1.734   5.458 -0.0051  0.1315  0.2744
  171MOL0     C23479  10.251   1.805   5.530 -0.1723  0.6063  0.4676
  171MOL0     C23480  10.292   1.907   5.635 -0.5505 -1.0055  0.4922
  171MOL0     C23481  10.228   2.038   5.582 -0.4906 -0.1804 -0.2266
  171MOL0     C23482  10.211   2.139   5.700 -0.2300 -0.4653  1.0299
  171MOL0     C23483  10.328   2.135   5.802  0.4680 -0.1858 -0.2097
  171MOL0     O23484  10.464   2.155   5.753 -0.0117  0.4166  0.2437
  171MOL0     C23485  10.559   2.140   5.849 -0.6948 -0.5149 -0.2764
  171MOL0     C23486  10.547   2.155   5.988  0.2622 -0.4761  0.6559
  171MOL0     C23487  10.661   2.134   6.079 -0.5154  0.2609  0.6922
  171MOL0     C23488  10.638   2.152   6.232 -0.6032  0.5076  0.3081
  171MOL0     C23489  10.785   2.109   6.021 -0.1341  0.7315  0.1790
  171MOL0     C23490  10.920   2.091   6.093  1.1879  0.0514 -1.1527
  171MOL0     O23491  11.017   2.056   6.012  0.1562  0.7428  0.1473
  171MOL0     C23492  11.113   1.986   6.082 -0.0681 -0.0614 -0.1396
  171MOL0     C23493  11.211   2.056   6.148 -0.1334 -0.5908  0.2418
  171MOL0     C23494  11.318   1.998   6.204 -0.0258 -0.1723  0.0963
  171MOL0     C23495  11.331   1.854   6.183 -0.0965  0.3210  0.5349
  171MOL0     O23496  11.432   1.779   6.219 -0.4555 -0.1254 -0.4768
  171MOL0     C23497  11.505   1.808   6.340  0.5426 -0.0985  0.2683
  171MOL0     C23498  11.632   1.737   6.318 -0.1474 -0.6100  0.1955
  171MOL0     C23499  11.744   1.826   6.393  0.2520  1.2187 -0.1891
  171MOL0     C23500  11.873   1.758   6.425 -0.0438 -0.1251  0.8450
  171MOL0     C23501  11.967   1.828   6.512  0.3798 -0.4619 -0.6150
  171MOL0     C23502  12.089   1.738   6.530 -0.8283  0.1428 -0.3434
  171MOL0     C23503  12.190   1.799   6.630  0.3593 -0.1050 -0.3060
  171MOL0     C23504  12.321   1.724   6.626  0.0942 -1.1066 -0.1224
  171MOL0    Cl23505  12.403   1.784   6.469  0.1505 -0.0362  0.1456
  171MOL0     C23506  11.228   1.779   6.118 -0.5308 -0.4779  0.1855
  171MOL0     C23507  11.115   1.841   6.072 -0.0302 -0.1563  0.0834
  171MOL0     O23508  10.917   2.095   6.216  0.4089  0.3613 -0.0283
  171MOL0     C23509  10.792   2.097   5.886 -0.4055 -0.4308  1.4934
  171MOL0     C23510  10.689   2.127   5.798  0.2681  0.7264  0.3004
  171MOL0     N23511  10.122   1.753   5.493 -0.2232  0.5960  0.1345
  171MOL0     N23512  10.140   1.658   5.410  0.9491 -0.9850 -0.2081
  171MOL0     C23513  10.891   0.668   5.417  0.1401  0.2826 -0.1408
  171MOL0     C23514  11.023   0.606   5.418  0.9820 -0.5346  0.5243
  171MOL0     C23515  11.480   0.579   5.500  0.7686  0.3790  0.1627
  171MOL0     C23516  11.482   0.463   5.429  0.6891 -1.1383  0.9582
  171MOL0     C23517  11.574   0.366   5.432  0.2880  0.2356  0.7345
  171MOL0     C23518  11.687   0.375   5.516  0.0252 -0.1914  0.7540
  171MOL0     O23519  11.770   0.255   5.527 -0.2922  0.0490 -0.9732
  171MOL0     C23520  11.893   0.270   5.602  0.8461 -0.1612  0.4977
  171MOL0     C23521  12.005   0.358   5.549  0.1605 -0.8487 -0.5070
  171MOL0     C23522  12.034   0.324   5.399 -0.3059  0.4931 -0.0876
  171MOL0     C23523  12.189   0.324   5.380  1.0080  0.0839  0.1473
  171MOL0     C23524  12.227   0.285   5.249 -0.4614 -0.8272  0.6984
  171MOL0     C23525  12.257   0.245   5.131 -0.7586  0.3128  0.4371
  171MOL0     C23526  11.700   0.506   5.580  1.0507 -0.2164  0.5406
  171MOL0     C23527  11.596   0.596   5.572 -0.6341 -1.2413 -1.2189
  171MOL0     C23528  11.610   0.712   5.673  0.2136 -0.2423 -0.0767
  171MOL0     H23529  11.209   0.891   5.438  0.6914 -1.5147  1.8560
  171MOL0     H23530  10.994   0.993   5.390  0.3283  0.0415  0.7711
  171MOL0     H23531  10.617   0.757   5.258  1.1128 -2.0578 -0.1699
  171MOL0     H23532  10.777   0.760   5.187  0.5300 -2.7520  2.5398
  171MOL0     H23533  10.731   0.940   5.059 -0.5987 -0.3646 -1.4507
  171MOL0     H23534  10.563   0.901   5.115  0.2068 -0.7886  0.8661
  171MOL0     H23535  10.748   1.117   5.227  0.7554 -0.6628 -3.0084
  171MOL0     H23536  10.610   1.146   5.127 -2.3650  1.4463  1.7298
  171MOL0     H23537  10.448   1.053   5.296 -0.5443  0.6046  1.0952
  171MOL0     H23538  10.579   1.014   5.404  0.9952 -1.4049 -0.9654
  171MOL0     H23539  10.650   1.255   5.413 -0.9102  2.9122  0.2826
  171MOL0     H23540  10.496   1.204   5.486  0.2092  1.8366  1.7178
  171MOL0     H23541  10.525   1.376   5.241 -1.1065 -1.2384 -0.6339
  171MOL0     H23542  10.378   1.280   5.265  1.0369  1.3144 -4.2159
  171MOL0     H23543  10.477   1.489   5.466 -0.1370  1.6839 -1.2717
  171MOL0     H23544  10.334   1.394   5.481  1.4230  3.1804  2.6061
  171MOL0     H23545  10.383   1.557   5.231  1.4724 -3.3793  0.3669
  171MOL0     H23546  10.232   1.463   5.280 -0.9251 -1.2498  1.6036
  171MOL0     H23547  10.446   1.726   5.464 -0.0204 -3.3580 -1.3082
  171MOL0     H23548  10.401   1.917   5.639 -0.6906  0.4080  2.2862
  171MOL0     H23549  10.253   1.870   5.730 -0.7858  0.8128  1.1529
  171MOL0     H23550  10.295   2.076   5.504  0.3855 -1.3854 -0.0940
  171MOL0     H23551  10.128   2.011   5.549 -1.0507 -2.5647  2.9076
  171MOL0     H23552  10.192   2.244   5.675  0.3012 -0.5892  0.0298
  171MOL0     H23553  10.115   2.116   5.748 -1.7864 -0.9232 -2.0457
  171MOL0     H23554  10.304   2.201   5.886  1.3499 -0.3909  0.2165
  171MOL0     H23555  10.326   2.036   5.850 -2.5749 -1.0409 -1.8217
  171MOL0     H23556  10.454   2.187   6.033 -1.2684 -0.8905 -2.0365
  171MOL0     H23557  10.691   2.082   6.297 -2.6568 -0.5588  0.9386
  171MOL0     H23558  10.532   2.139   6.256 -0.2422 -2.2989  0.7801
  171MOL0     H23559  10.667   2.250   6.269 -0.0474  0.4412  0.0686
  171MOL0     H23560  11.206   2.164   6.161  1.8452 -0.1874 -1.6378
  171MOL0     H23561  11.392   2.051   6.263  0.4930 -1.5252  0.7028
  171MOL0     H23562  11.526   1.915   6.352  0.1766 -0.1100  1.1086
  171MOL0     H23563  11.455   1.768   6.429  2.0758  0.2048  1.2965
  171MOL0     H23564  11.627   1.638   6.365 -0.5715 -2.2866 -3.0819
  171MOL0     H23565  11.659   1.728   6.212  2.0765  0.6054  0.6012
  171MOL0     H23566  11.703   1.846   6.492 -0.1844 -1.3708  0.2267
  171MOL0     H23567  11.761   1.914   6.331  2.0605  2.0356  1.3882
  171MOL0     H23568  11.927   1.728   6.335  0.4595 -0.3828  1.2290
  171MOL0     H23569  11.838   1.665   6.470 -0.6446 -0.7547 -0.8173
  171MOL0     H23570  11.986   1.933   6.491 -3.0644  1.1470  2.9503
  171MOL0     H23571  11.921   1.829   6.611  0.5008  2.2755 -0.5211
  171MOL0     H23572  12.132   1.709   6.434  1.9412  0.9406  0.5707
  171MOL0     H23573  12.061   1.639   6.566  2.1267 -0.4281  0.6575
  171MOL0     H23574  12.149   1.802   6.732 -0.5716  3.0411 -0.6559
  171MOL0     H23575  12.212   1.905   6.616  3.1344 -0.2771  1.9020
  171MOL0     H23576  12.305   1.616   6.622 -1.5894 -0.8657 -3.5278
  171MOL0     H23577  12.386   1.751   6.710 -0.9388 -1.9642  0.9882
  171MOL0     H23578  11.230   1.670   6.113 -1.5790 -0.4478 -2.4178
  171MOL0     H23579  11.035   1.792   6.019 -1.9676  1.5832  1.2441
  171MOL0     H23580  10.881   2.076   5.828 -1.6403  0.7992 -0.9863
  171MOL0     H23581  10.697   2.130   5.690 -1.1279  0.6283  0.1659
  171MOL0     H23582  10.799   0.611   5.420  1.5454 -2.1814  3.9140
  171MOL0     H23583  11.046   0.501   5.431  3.6868 -0.1314 -0.3839
  171MOL0     H23584  11.397   0.431   5.368  1.4047 -0.9388 -0.1874
  171MOL0     H23585  11.563   0.274   5.376  2.2378 -1.3236  2.7386
  171MOL0     H23586  11.855   0.305   5.699 -5.5742  1.7895 -2.2135
  171MOL0     H23587  11.946   0.176   5.621  1.9508  0.0195 -1.4005
  171MOL0     H23588  12.094   0.341   5.609 -0.4869 -1.7274  0.2243
  171MOL0     H23589  11.977   0.464   5.546 -0.3419 -0.9895 -1.0346
  171MOL0     H23590  11.988   0.226   5.386  1.6382 -0.3958 -0.7164
  171MOL0     H23591  12.000   0.382   5.314  1.2928 -0.4143 -1.4072
  171MOL0     H23592  12.230   0.251   5.450  1.4046 -0.1302 -0.3084
  171MOL0     H23593  12.224   0.424   5.403  0.8520  0.2393 -0.2715
  171MOL0     H23594  12.278   0.215   5.031  0.8641  2.3904  0.0761
  171MOL0     H23595  11.784   0.524   5.646  0.0477  2.7083  1.1935
  171MOL0     H23596  11.613   0.814   5.632 -3.9691 -0.2973 -1.0756
  171MOL0     H23597  11.520   0.712   5.735  0.6320 -2.0752  0.5731
  171MOL0     H23598  11.692   0.707   5.744 -0.6572  1.3668  1.1212
  172MOL0     O23599  10.978   1.977   4.997  0.6289 -0.2996 -0.4714
  172MOL0     C23600  10.908   1.998   4.902  0.6745 -0.6065  0.8193
  172MOL0     O23601  10.893   1.915   4.799 -0.2635  0.2605 -0.0566
  172MOL0     C23602  10.931   1.785   4.789  0.5360 -0.2203 -0.1201
  172MOL0     C23603  10.986   1.705   4.895  0.1393 -0.4419  0.1997
  172MOL0     C23604  11.034   1.569   4.877  1.3050 -1.5593 -0.6470
  172MOL0     C23605  11.030   1.516   4.748  0.4522 -0.0814 -0.3736
  172MOL0     O23606  11.096   1.401   4.733 -0.1915  0.2934  0.1471
  172MOL0     C23607  11.115   1.369   4.596  0.4470 -0.2809 -0.9528
  172MOL0     C23608  11.218   1.264   4.594 -0.7384  0.0447 -0.5345
  172MOL0     C23609  11.256   1.233   4.455  0.6419 -0.8182 -0.0218
  172MOL0     C23610  11.396   1.169   4.458  0.2257  0.6292 -0.4870
  172MOL0     C23611  11.429   1.118   4.320  0.5651 -0.4394 -0.3072
  172MOL0     C23612  11.577   1.085   4.298  0.0099 -0.2271 -0.7941
  172MOL0     C23613  11.613   1.087   4.145  0.3027 -0.2679 -0.8324
  172MOL0     C23614  11.761   1.049   4.117  0.2010  0.3314 -0.7467
  172MOL0     N23615  11.787   1.037   3.974 -0.9506 -0.6014 -0.4646
  172MOL0     C23616  11.763   0.924   3.904  0.0493 -0.0822  0.5623
  172MOL0     C23617  11.785   0.964   3.774 -0.0974 -0.6885  0.1700
  172MOL0     C23618  11.756   0.870   3.657 -0.1370  0.3457  0.3490
  172MOL0     C23619  11.630   0.899   3.586  0.0076  0.0163 -0.4367
  172MOL0     C23620  11.670   0.934   3.445  0.2190 -0.7906  0.3410
  172MOL0     C23621  11.655   1.084   3.427  0.3952  0.0258 -0.1204
  172MOL0     O23622  11.716   1.143   3.309 -0.1846  0.0892 -0.4997
  172MOL0     C23623  11.852   1.174   3.317  1.0556 -0.2874 -0.1357
  172MOL0     C23624  11.905   1.242   3.208 -0.8707  0.7504 -0.0161
  172MOL0     C23625  12.034   1.295   3.203 -0.5466 -0.5416 -0.6381
  172MOL0     C23626  12.080   1.359   3.070  0.2909 -0.0573  0.0534
  172MOL0     C23627  12.109   1.274   3.320 -0.0472  0.3714  0.2617
  172MOL0     C23628  12.235   1.331   3.332 -0.4785 -0.1630  0.6220
  172MOL0     O23629  12.258   1.382   3.457 -0.9769 -0.3184  0.7171
  172MOL0     C23630  12.378   1.437   3.482 -0.5885 -0.3374 -0.2471
  172MOL0     C23631  12.452   1.380   3.588  0.0491  1.8247  0.0931
  172MOL0     C23632  12.576   1.435   3.616 -0.2304  0.3510 -0.6059
  172MOL0     C23633  12.630   1.553   3.566  0.7287  0.0270 -0.5628
  172MOL0     O23634  12.747   1.600   3.623  0.1411  0.1453 -0.7243
  172MOL0     C23635  12.750   1.740   3.646  0.9378 -0.1570 -0.2908
  172MOL0     C23636  12.891   1.764   3.705 -0.1629  0.0787  0.4684
  172MOL0     C23637  12.995   1.758   3.593 -0.7921  0.6318  0.2711
  172MOL0     C23638  13.129   1.834   3.638 -0.1863 -0.3986  0.2238
  172MOL0     C23639  13.261   1.784   3.583  0.9245  0.3243  0.0120
  172MOL0     C23640  13.388   1.843   3.663  0.8239 -0.3996 -0.1822
  172MOL0     C23641  13.408   1.992   3.645 -0.5925 -0.8844  0.4775
  172MOL0     C23642  13.549   2.041   3.686  0.3839 -1.0870 -0.2054
  172MOL0    Cl23643  13.551   2.226   3.681  0.1912 -0.1956 -0.1285
  172MOL0     C23644  12.546   1.607   3.468 -0.4423  0.3366  0.2038
  172MOL0     C23645  12.423   1.557   3.424 -0.2875 -0.2902  0.5354
  172MOL0     O23646  12.314   1.341   3.232  0.1843  0.2355 -0.1536
  172MOL0     C23647  12.056   1.203   3.425 -0.5692 -0.0556 -0.1829
  172MOL0     C23648  11.934   1.151   3.422  0.2720  0.5359  0.1198
  172MOL0     N23649  11.820   1.100   3.770  0.7084 -0.5544  0.5245
  172MOL0     N23650  11.826   1.137   3.889 -0.0039 -0.2182 -0.3680
  172MOL0     C23651  10.961   1.591   4.649 -0.7491  0.5119 -0.9881
  172MOL0     C23652  10.924   1.729   4.662 -0.5014  0.5999 -0.4311
  172MOL0     C23653  10.846   2.135   4.904  0.0379 -0.4372 -0.5095
  172MOL0     C23654  10.793   2.176   5.026  0.0813  0.3051 -0.6520
  172MOL0     C23655  10.729   2.294   5.041 -0.2885  0.0987  1.1080
  172MOL0     C23656  10.720   2.385   4.933  0.2240  1.9854 -0.0797
  172MOL0     O23657  10.668   2.508   4.959 -0.1845  0.2690 -0.1040
  172MOL0     C23658  10.717   2.618   4.887 -0.0707 -0.8804  0.1466
  172MOL0     C23659  10.656   2.742   4.935 -0.3735 -0.8950 -0.0215
  172MOL0     C23660  10.751   2.863   4.899 -0.3363  0.6577 -0.1014
  172MOL0     C23661  10.698   3.000   4.926 -0.4060 -0.0183 -0.8797
  172MOL0     C23662  10.610   3.052   4.818  0.5098 -0.4295 -0.3029
  172MOL0     C23663  10.551   3.098   4.722  0.1202  0.3467  0.1554
  172MOL0     C23664  10.775   2.347   4.810 -0.0407 -0.0018 -0.1522
  172MOL0     C23665  10.837   2.217   4.794  0.3116 -0.0689  0.4182
  172MOL0     C23666  10.891   2.184   4.660 -0.2042  0.3018  0.1480
  172MOL0     H23667  11.004   1.746   4.994 -0.7045  2.4260 -0.7248
  172MOL0     H23668  11.072   1.496   4.948 -0.0661 -2.2416 -0.5914
  172MOL0     H23669  11.148   1.457   4.540  1.5337 -0.0113  0.0710
  172MOL0     H23670  11.025   1.319   4.560 -0.6596 -0.4694  1.7974
  172MOL0     H23671  11.304   1.299   4.651  1.7696 -2.0532 -2.7725
  172MOL0     H23672  11.182   1.176   4.648 -3.3183  2.3518  1.8780
  172MOL0     H23673  11.185   1.172   4.398  0.4663  1.1161 -2.0034
  172MOL0     H23674  11.267   1.329   4.405  0.8934 -0.6479  0.3542
  172MOL0     H23675  11.470   1.242   4.492  1.3483 -0.4298 -0.5836
  172MOL0     H23676  11.392   1.098   4.542 -0.8160  3.0023  1.6029
  172MOL0     H23677  11.403   1.189   4.241  4.2934  1.0198 -0.4093
  172MOL0     H23678  11.372   1.026   4.303  0.0115  0.2853 -2.7549
  172MOL0     H23679  11.640   1.157   4.351 -1.3558  1.4947 -1.4120
  172MOL0     H23680  11.600   0.985   4.337 -1.4008 -0.3022 -0.0718
  172MOL0     H23681  11.600   1.180   4.090  1.6767  0.3148 -0.2061
  172MOL0     H23682  11.547   1.016   4.095 -0.2898  0.3571 -0.9484
  172MOL0     H23683  11.838   1.118   4.152  0.2253 -0.0067 -0.1344
  172MOL0     H23684  11.781   0.955   4.169  0.7730 -0.2949 -2.0330
  172MOL0     H23685  11.744   0.821   3.931  1.6478 -0.6546 -0.3890
  172MOL0     H23686  11.758   0.767   3.695 -0.2475  0.0960 -0.3143
  172MOL0     H23687  11.845   0.891   3.597 -0.4428  2.3265  0.5465
  172MOL0     H23688  11.577   0.804   3.585 -0.2104  0.0407  2.0393
  172MOL0     H23689  11.575   0.971   3.647  0.3146 -1.5441  1.8128
  172MOL0     H23690  11.773   0.905   3.420  1.0555  1.0102  1.5330
  172MOL0     H23691  11.606   0.886   3.370 -0.0116 -2.0797  1.3093
  172MOL0     H23692  11.549   1.107   3.411  1.4604  3.7015 -3.3606
  172MOL0     H23693  11.692   1.134   3.517  1.7973  0.1034 -0.7055
  172MOL0     H23694  11.845   1.253   3.118 -0.5687  0.0389 -0.3105
  172MOL0     H23695  12.092   1.466   3.089 -0.2296 -0.2082  1.3491
  172MOL0     H23696  11.996   1.360   3.001 -0.9077  2.9324  1.3451
  172MOL0     H23697  12.173   1.326   3.022  0.5927 -0.3022  0.7977
  172MOL0     H23698  12.424   1.277   3.610  0.8127  1.0326 -2.3244
  172MOL0     H23699  12.635   1.379   3.688  0.3217  0.7561 -0.7290
  172MOL0     H23700  12.728   1.801   3.558 -1.8119 -1.8040 -0.8546
  172MOL0     H23701  12.676   1.759   3.724  1.2668  0.0620 -0.0248
  172MOL0     H23702  12.898   1.864   3.750  0.7001 -0.2488  1.0761
  172MOL0     H23703  12.914   1.693   3.785  0.2205  3.1559  3.3157
  172MOL0     H23704  12.959   1.809   3.503 -0.2986 -0.6276 -0.6751
  172MOL0     H23705  13.007   1.651   3.570 -0.8581  0.6095  0.3401
  172MOL0     H23706  13.137   1.829   3.747  1.7964  2.4981  0.3151
  172MOL0     H23707  13.111   1.939   3.615 -1.3011 -0.9577 -1.6923
  172MOL0     H23708  13.258   1.675   3.592  4.3315  0.1351  0.1647
  172MOL0     H23709  13.273   1.811   3.478  1.1046 -1.3532 -0.4222
  172MOL0     H23710  13.482   1.799   3.629  2.2394  0.9494  1.7982
  172MOL0     H23711  13.372   1.824   3.770 -1.4286  1.1039 -0.1849
  172MOL0     H23712  13.333   2.049   3.700 -1.1439 -2.4907  1.4592
  172MOL0     H23713  13.397   2.023   3.541 -1.0892 -1.1613  0.4441
  172MOL0     H23714  13.632   2.001   3.627  0.3874 -2.5355  0.7153
  172MOL0     H23715  13.570   2.027   3.792  1.1475 -0.7610 -0.3063
  172MOL0     H23716  12.575   1.702   3.424 -1.3159  0.3499 -0.3898
  172MOL0     H23717  12.365   1.610   3.350 -1.4262  1.1984  2.4046
  172MOL0     H23718  12.111   1.193   3.518 -0.2271  0.9487 -0.2652
  172MOL0     H23719  11.902   1.082   3.499 -0.4272 -3.0005 -3.0541
  172MOL0     H23720  10.943   1.529   4.562  0.4202 -0.6826 -0.4242
  172MOL0     H23721  10.894   1.785   4.574  0.5405  1.5203 -0.2122
  172MOL0     H23722  10.796   2.117   5.117 -0.9167  0.9847 -0.1473
  172MOL0     H23723  10.691   2.344   5.130 -1.2902  0.6358  0.4067
  172MOL0     H23724  10.824   2.623   4.908 -0.2117  0.8641  0.5589
  172MOL0     H23725  10.704   2.607   4.779  0.4687 -0.0796 -0.0082
  172MOL0     H23726  10.639   2.746   5.043 -1.2540  1.6681 -0.1854
  172MOL0     H23727  10.559   2.756   4.887  0.4685  2.3344 -1.0312
  172MOL0     H23728  10.848   2.858   4.949 -1.2520  0.2313  1.7454
  172MOL0     H23729  10.774   2.858   4.793 -0.8655  3.6525 -0.4492
  172MOL0     H23730  10.783   3.067   4.943  1.1550 -2.0082 -0.4898
  172MOL0     H23731  10.652   2.989   5.025  1.3344 -1.3026 -0.1542
  172MOL0     H23732  10.502   3.146   4.640 -0.2595  0.7042  0.5884
  172MOL0     H23733  10.785   2.419   4.731  0.8001  2.2483  1.8876
  172MOL0     H23734  10.922   2.273   4.604  1.9971 -1.7770 -2.2347
  172MOL0     H23735  10.978   2.118   4.652 -2.8547 -3.2818 -2.6693
  172MOL0     H23736  10.818   2.127   4.602  1.1258  2.4863 -4.0793
  173MOL0     O23737  11.485   6.966  10.140  0.3343  0.4597 -0.4731
  173MOL0     C23738  11.448   7.083  10.157 -0.2357  1.2696  0.4687
  173MOL0     O23739  11.335   7.144  10.110 -1.2464  1.0878  0.2557
  173MOL0     C23740  11.254   7.055  10.037 -0.0846  0.4922  0.9380
  173MOL0     C23741  11.234   7.085   9.900  1.2141  0.6911 -0.0944
  173MOL0     C23742  11.148   6.999   9.823  0.2215 -0.2651  0.1914
  173MOL0     C23743  11.104   6.882   9.880  1.0665 -0.0802 -0.4271
  173MOL0     O23744  11.038   6.799   9.793 -0.0231 -0.9378 -0.0727
  173MOL0     C23745  10.976   6.676   9.830  0.3252  0.7242 -0.1531
  173MOL0     C23746  10.890   6.643   9.712 -0.8027 -0.3015  0.5226
  173MOL0     C23747  10.796   6.527   9.746  0.6202  0.0651  0.1277
  173MOL0     C23748  10.721   6.500   9.616  0.0553  0.6289  0.6203
  173MOL0     C23749  10.601   6.414   9.633  0.1791 -0.0873  0.9000
  173MOL0     C23750  10.618   6.265   9.616 -0.6090  0.2312  0.0235
  173MOL0     C23751  10.698   6.188   9.721 -0.2786 -0.0525  0.7815
  173MOL0     C23752  10.680   6.040   9.718 -0.4999 -0.0703 -0.7832
  173MOL0     N23753  10.552   5.999   9.775 -0.0298  0.9498  0.0003
  173MOL0     C23754  10.450   5.941   9.700  0.2367 -0.0861 -0.0567
  173MOL0     C23755  10.366   5.893   9.795  0.3635 -0.1017  0.0613
  173MOL0     C23756  10.259   5.791   9.762 -0.7993 -0.2028 -0.4674
  173MOL0     C23757  10.273   5.657   9.839 -0.5736 -0.5444 -0.9804
  173MOL0     C23758  10.239   5.527   9.769  0.3676 -1.0072  0.6648
  173MOL0     C23759  10.292   5.406   9.848  0.6552  0.3355  0.2558
  173MOL0     O23760  10.196   5.377   9.958 -0.6628  0.2920 -0.3170
  173MOL0     C23761  10.218   5.269  10.043 -0.3861 -0.0192  0.1942
  173MOL0     C23762  10.185   5.290  10.176  0.7138  0.3364 -0.3935
  173MOL0     C23763  10.206   5.197  10.273 -0.7419 -0.4202 -1.0891
  173MOL0     C23764  10.176   5.232  10.418 -0.8534 -0.3472 -0.6593
  173MOL0     C23765  10.276   5.073  10.244  0.0965 -0.4309  0.7641
  173MOL0     C23766  10.303   4.956  10.336  0.1209 -0.5123 -0.3121
  173MOL0     O23767  10.361   4.843  10.280 -0.2756  0.2777  0.4366
  173MOL0     C23768  10.409   4.754  10.374 -0.5557 -0.0553 -0.5635
  173MOL0     C23769  10.331   4.678  10.472  1.2711  0.1339 -0.3355
  173MOL0     C23770  10.388   4.588  10.564  0.5607 -0.2325  0.2988
  173MOL0     C23771  10.530   4.565  10.554  0.7320  0.3031 -0.2002
  173MOL0     O23772  10.605   4.490  10.638 -0.0658  0.6013 -0.5214
  173MOL0     C23773  10.547   4.390  10.720  1.2992  0.3602 -0.0722
  173MOL0     C23774  10.635   4.305  10.804 -0.0096  0.3586 -0.1790
  173MOL0     C23775  10.735   4.405  10.872  0.4275  0.4241 -0.6907
  173MOL0     C23776  10.795   4.336  10.995 -0.1352 -0.7836  1.3090
  173MOL0     C23777  10.929   4.399  11.023 -0.4795  0.7036  0.9597
  173MOL0     C23778  10.977   4.354  11.160 -0.1558  0.8839  0.3306
  173MOL0     C23779  10.965   4.200  11.194 -1.1814 -0.7459  0.0671
  173MOL0     C23780  11.058   4.158  11.304  0.3699 -0.1305  0.2594
  173MOL0    Cl23781  11.222   4.134  11.250  0.7499 -0.1112 -0.0355
  173MOL0     C23782  10.604   4.640  10.457  0.0762  0.5208  0.1671
  173MOL0     C23783  10.542   4.732  10.371 -0.2179 -0.7419 -0.0792
  173MOL0     O23784  10.261   4.966  10.449 -0.1141  0.5452 -0.0862
  173MOL0     C23785  10.308   5.058  10.106 -0.4743  0.3033  0.8638
  173MOL0     C23786  10.284   5.150  10.007  0.1204  0.3146 -0.5229
  173MOL0     N23787  10.419   5.913   9.921 -0.9254  0.7046  0.0321
  173MOL0     N23788  10.527   5.978   9.908 -0.2329  0.6212 -0.0082
  173MOL0     C23789  11.129   6.855  10.018  0.3094  0.4247  0.4113
  173MOL0     C23790  11.190   6.944  10.099 -0.7463  0.3942  0.3976
  173MOL0     C23791  11.545   7.170  10.232 -0.0733 -0.2320  0.3223
  173MOL0     C23792  11.563   7.310  10.192  1.0478  0.3069 -0.0204
  173MOL0     C23793  11.662   7.385  10.251  0.6205 -0.8541 -0.5837
  173MOL0     C23794  11.730   7.342  10.368  0.8823  0.0391 -0.2413
  173MOL0     O23795  11.831   7.429  10.416 -0.6358 -0.6459 -0.6467
  173MOL0     C23796  11.806   7.572  10.412 -0.1341  0.3398 -0.6034
  173MOL0     C23797  11.899   7.636  10.520  0.8916 -0.3105  0.2383
  173MOL0     C23798  12.049   7.623  10.470 -0.5835  0.3275  0.3290
  173MOL0     C23799  12.139   7.697  10.569 -0.5551 -0.3448  0.1103
  173MOL0     C23800  12.122   7.844  10.557  0.0897 -0.0837 -0.1200
  173MOL0     C23801  12.114   7.967  10.546  0.1229 -0.4890  0.5070
  173MOL0     C23802  11.719   7.206  10.400  0.7048 -0.3279 -0.3118
  173MOL0     C23803  11.634   7.118  10.335  0.3656 -0.4043  0.1291
  173MOL0     C23804  11.631   6.978  10.374  1.0343 -0.4473  0.2960
  173MOL0     H23805  11.284   7.159   9.839  0.7603  1.1496  0.0888
  173MOL0     H23806  11.146   7.033   9.720  0.7297  2.0101  0.8725
  173MOL0     H23807  10.909   6.686   9.915  2.8246  1.9402  1.8059
  173MOL0     H23808  11.038   6.590   9.858 -0.7839  0.9992  3.5523
  173MOL0     H23809  10.838   6.727   9.665  0.4078  0.7512  0.9998
  173MOL0     H23810  10.966   6.610   9.639  0.0448  3.2251 -0.3600
  173MOL0     H23811  10.840   6.436   9.788 -1.9966 -0.6163  1.6670
  173MOL0     H23812  10.724   6.571   9.816  0.4277  2.1861 -1.3131
  173MOL0     H23813  10.696   6.595   9.569  0.4943 -0.0926 -1.1574
  173MOL0     H23814  10.794   6.452   9.550  2.2492  2.0960  1.8820
  173MOL0     H23815  10.517   6.457   9.577 -1.0778  1.6587  3.8738
  173MOL0     H23816  10.563   6.431   9.734  0.9099 -2.1380  1.5485
  173MOL0     H23817  10.512   6.238   9.616 -2.0061  4.6597 -2.3666
  173MOL0     H23818  10.657   6.247   9.515  0.7936  4.0320 -0.2889
  173MOL0     H23819  10.670   6.233   9.816  0.3402  2.3890 -0.1290
  173MOL0     H23820  10.804   6.194   9.696 -0.2398 -1.5649  0.4763
  173MOL0     H23821  10.682   6.010   9.613  3.8751  1.5980 -1.3962
  173MOL0     H23822  10.765   5.990   9.766 -2.1639 -2.5654 -0.2398
  173MOL0     H23823  10.443   5.931   9.592 -0.1225 -2.9134  0.1466
  173MOL0     H23824  10.269   5.766   9.656 -0.9525 -0.8183 -0.3402
  173MOL0     H23825  10.158   5.829   9.779  0.7145  2.4050  5.8810
  173MOL0     H23826  10.375   5.639   9.874 -1.5025 -0.5713  1.9780
  173MOL0     H23827  10.203   5.659   9.923 -0.0741  2.9689 -0.4876
  173MOL0     H23828  10.132   5.530   9.744  0.4430  2.0925  0.3518
  173MOL0     H23829  10.296   5.525   9.676 -0.6440 -2.6895  0.0253
  173MOL0     H23830  10.288   5.328   9.772  2.0634  1.6321 -1.2420
  173MOL0     H23831  10.396   5.408   9.882  0.7740 -2.2868  0.1836
  173MOL0     H23832  10.139   5.382  10.209 -0.7890 -1.3394  2.5715
  173MOL0     H23833  10.265   5.219  10.480  0.8725  1.6124 -2.5608
  173MOL0     H23834  10.092   5.173  10.456 -1.0473  1.9204  2.8494
  173MOL0     H23835  10.143   5.336  10.419 -1.1684 -0.4295 -1.4283
  173MOL0     H23836  10.225   4.703  10.466  1.0523  0.0333  2.1289
  173MOL0     H23837  10.323   4.555  10.645 -0.2538  2.1805  0.6893
  173MOL0     H23838  10.469   4.434  10.782 -2.5025 -4.3353 -0.8894
  173MOL0     H23839  10.489   4.315  10.665  0.6297 -0.8574  2.1680
  173MOL0     H23840  10.587   4.240  10.877  3.8389 -0.3599  2.0121
  173MOL0     H23841  10.683   4.238  10.732 -2.4909  1.1646 -2.7480
  173MOL0     H23842  10.675   4.485  10.914 -1.1237  0.1647 -2.3047
  173MOL0     H23843  10.812   4.432  10.799  2.1466 -0.3465  0.7728
  173MOL0     H23844  10.803   4.230  10.967  0.4652 -0.5684  0.6398
  173MOL0     H23845  10.724   4.358  11.075 -3.1580 -0.8873 -1.1608
  173MOL0     H23846  11.003   4.356  10.954 -1.5734 -0.2960  0.3733
  173MOL0     H23847  10.927   4.508  11.028 -0.7657  0.6489  2.5363
  173MOL0     H23848  10.942   4.425  11.236 -1.1955 -1.4795  2.1914
  173MOL0     H23849  11.084   4.374  11.146 -0.0776 -0.4970 -1.2945
  173MOL0     H23850  10.984   4.146  11.101 -1.4725 -1.7119  0.5517
  173MOL0     H23851  10.861   4.186  11.224 -0.8722  1.1272  2.3102
  173MOL0     H23852  11.027   4.062  11.347  1.3166  0.5749  2.6431
  173MOL0     H23853  11.047   4.228  11.387  2.2303  0.9711 -0.3646
  173MOL0     H23854  10.712   4.627  10.457 -0.0125 -1.8268  4.3846
  173MOL0     H23855  10.600   4.788  10.299 -0.8182  2.0532  1.4722
  173MOL0     H23856  10.364   4.970  10.074  1.1962  1.5500  0.2417
  173MOL0     H23857  10.311   5.144   9.902  0.7683 -1.1919 -0.2838
  173MOL0     H23858  11.089   6.767  10.069 -0.6822 -0.8734 -2.3930
  173MOL0     H23859  11.199   6.914  10.203  0.6928  0.8364  0.4239
  173MOL0     H23860  11.497   7.345  10.114  0.3646 -2.0695 -0.6085
  173MOL0     H23861  11.684   7.479  10.202 -1.0715 -1.3148 -2.3783
  173MOL0     H23862  11.826   7.605  10.310  0.1393 -0.8764 -0.9621
  173MOL0     H23863  11.700   7.581  10.437  0.0783 -0.1490  0.5691
  173MOL0     H23864  11.879   7.584  10.614  2.3037 -1.5545 -0.0984
  173MOL0     H23865  11.858   7.737  10.525 -3.2865 -1.7156 -1.1947
  173MOL0     H23866  12.082   7.519  10.481 -0.9521  0.2927  1.2354
  173MOL0     H23867  12.064   7.629  10.362 -2.3301 -1.0159 -0.0432
  173MOL0     H23868  12.244   7.679  10.545 -0.5807  2.0136 -2.2204
  173MOL0     H23869  12.123   7.659  10.670  3.3296  0.0059  1.0012
  173MOL0     H23870  12.119   8.073  10.528 -1.1072 -0.1909  1.7641
  173MOL0     H23871  11.774   7.175  10.488 -1.5359 -1.6032  0.7300
  173MOL0     H23872  11.657   6.919  10.286 -5.1248 -1.2321 -1.4718
  173MOL0     H23873  11.690   6.952  10.462  0.5029  0.0794  0.8199
  173MOL0     H23874  11.529   6.952  10.403  1.4747 -2.2972  0.3238
  174MOL0     O23875  10.354   4.791   0.907  0.0849  0.3408  1.1693
  174MOL0     C23876  10.418   4.689   0.896 -0.5575  0.1604 -0.1027
  174MOL0     O23877  10.373   4.567   0.894 -0.2404  0.1796 -0.8254
  174MOL0     C23878  10.234   4.545   0.891 -0.6016  0.4128 -0.2295
  174MOL0     C23879  10.166   4.503   0.783 -0.1498 -0.6939  0.3278
  174MOL0     C23880  10.028   4.471   0.780  0.6212 -0.4625  0.1232
  174MOL0     C23881   9.959   4.494   0.898 -0.5059  0.0395 -0.0840
  174MOL0     O23882   9.831   4.472   0.914 -0.7099 -0.1365 -0.4932
  174MOL0     C23883   9.734   4.462   0.800  0.0013 -0.6523 -0.0308
  174MOL0     C23884   9.647   4.588   0.803 -0.3461 -0.3939 -0.0648
  174MOL0     C23885   9.531   4.588   0.709  0.4406  0.3407  0.3087
  174MOL0     C23886   9.560   4.529   0.567 -0.0464  0.2085 -0.2820
  174MOL0     C23887   9.455   4.549   0.453  0.4437  0.5012 -0.1612
  174MOL0     C23888   9.485   4.684   0.399  0.4341  0.2602  0.2030
  174MOL0     C23889   9.375   4.730   0.299  0.0818 -0.0806 -0.3310
  174MOL0     C23890   9.365   4.633   0.174 -0.2428  0.0777 -0.0710
  174MOL0     N23891   9.289   4.695   0.069 -0.1586 -0.8523 -0.1997
  174MOL0     C23892   9.326   4.802  -0.011  1.0386  0.0677  0.4024
  174MOL0     C23893   9.262   4.786  -0.129 -0.5528  0.2328 -0.2498
  174MOL0     C23894   9.289   4.884  -0.244  0.2554 -0.0195 -0.4701
  174MOL0     C23895   9.203   4.859  -0.368 -0.0678  0.0628  0.5448
  174MOL0     C23896   9.221   4.973  -0.472 -0.4179  0.9645  0.0611
  174MOL0     C23897   9.106   4.992  -0.576 -0.7439  0.0578 -0.7850
  174MOL0     O23898   9.131   5.085  -0.676 -0.1012 -0.9921 -0.8071
  174MOL0     C23899   9.039   5.095  -0.776  0.1992  0.3459 -0.3490
  174MOL0     C23900   8.950   4.990  -0.810 -0.1110 -0.4038  0.2051
  174MOL0     C23901   8.878   4.993  -0.931  0.8072  0.3655 -0.9914
  174MOL0     C23902   8.815   4.867  -0.976 -0.3855  0.6643 -0.3237
  174MOL0     C23903   8.885   5.105  -1.021 -0.8516  0.9270  0.9615
  174MOL0     C23904   8.822   5.123  -1.154 -0.3710 -0.1673 -0.1871
  174MOL0     O23905   8.905   5.173  -1.255  0.2602  0.0428  0.1597
  174MOL0     C23906   8.867   5.205  -1.385 -0.3168  0.5743 -0.7412
  174MOL0     C23907   8.871   5.336  -1.424  0.7833  0.3679 -0.1374
  174MOL0     C23908   8.825   5.362  -1.555  1.2860 -0.2097 -1.0691
  174MOL0     C23909   8.795   5.262  -1.644  0.6244  0.2442 -0.8536
  174MOL0     O23910   8.747   5.314  -1.759 -1.1937 -0.3568  1.2380
  174MOL0     C23911   8.712   5.228  -1.864  0.0879 -0.0385  0.2285
  174MOL0     C23912   8.705   5.289  -2.005  0.0487  0.1325 -1.1176
  174MOL0     C23913   8.650   5.183  -2.103  0.6438  0.7366  0.3202
  174MOL0     C23914   8.584   5.259  -2.211  0.2058  0.0668 -0.5095
  174MOL0     C23915   8.535   5.157  -2.323  1.0763  0.2003 -0.1917
  174MOL0     C23916   8.503   5.235  -2.456  0.3808  0.4684  0.1559
  174MOL0     C23917   8.373   5.307  -2.450  0.5354 -0.0841  1.0530
  174MOL0     C23918   8.335   5.364  -2.585 -0.1759 -0.2427  0.0620
  174MOL0    Cl23919   8.261   5.232  -2.685  0.0770  0.0062 -0.1934
  174MOL0     C23920   8.801   5.130  -1.604  0.6463 -0.0119 -0.7289
  174MOL0     C23921   8.827   5.100  -1.468 -0.3939 -0.2724  0.1837
  174MOL0     O23922   8.706   5.104  -1.164  0.9011  0.0124  0.1266
  174MOL0     C23923   8.971   5.211  -0.984  0.9589  0.2213 -0.1475
  174MOL0     C23924   9.043   5.204  -0.867  0.7239  0.2862 -0.9023
  174MOL0     N23925   9.185   4.675  -0.120 -0.4828  0.3070 -0.4815
  174MOL0     N23926   9.204   4.616  -0.001 -0.5790 -0.1625 -0.1682
  174MOL0     C23927  10.023   4.537   1.017  0.0285 -0.9768 -0.1855
  174MOL0     C23928  10.160   4.557   1.008 -0.0677 -0.1883 -0.4912
  174MOL0     C23929  10.560   4.715   0.894  0.0087  0.1361 -0.0562
  174MOL0     C23930  10.646   4.607   0.931  0.7427 -0.2624 -0.0834
  174MOL0     C23931  10.784   4.609   0.914 -0.2632  0.3898  0.2428
  174MOL0     C23932  10.844   4.729   0.875 -0.2030  0.2188 -0.4341
  174MOL0     O23933  10.979   4.745   0.868 -0.1793  0.0401 -0.0265
  174MOL0     C23934  11.069   4.675   0.956  0.3325  0.8261 -0.9854
  174MOL0     C23935  11.029   4.696   1.101  0.8544 -0.4255 -0.1711
  174MOL0     C23936  11.046   4.849   1.122  1.7339  0.6157 -0.7178
  174MOL0     C23937  11.150   4.872   1.225 -1.1909  0.6952 -0.3633
  174MOL0     C23938  11.290   4.827   1.182 -0.1081 -0.4965  0.3737
  174MOL0     C23939  11.398   4.800   1.117  0.5019  0.0823 -0.8054
  174MOL0     C23940  10.762   4.840   0.847  0.5863 -0.3229  0.3561
  174MOL0     C23941  10.617   4.841   0.855  0.1152  0.2715  0.6891
  174MOL0     C23942  10.548   4.967   0.820  1.0031  0.3593 -0.4242
  174MOL0     H23943  10.227   4.482   0.695 -0.8630 -0.7973 -0.1520
  174MOL0     H23944   9.982   4.428   0.692 -0.9897  1.9314 -0.2775
  174MOL0     H23945   9.671   4.374   0.809  0.7186 -1.2771 -0.9500
  174MOL0     H23946   9.775   4.456   0.698  0.0425  3.1723 -0.4084
  174MOL0     H23947   9.617   4.595   0.908  1.2140 -0.0902  0.3928
  174MOL0     H23948   9.700   4.682   0.783 -1.1632 -0.0424 -0.6177
  174MOL0     H23949   9.457   4.520   0.752 -0.0613 -1.1711 -2.6983
  174MOL0     H23950   9.487   4.688   0.705 -1.1353 -0.3464 -0.5480
  174MOL0     H23951   9.662   4.557   0.539  0.5619 -2.4376 -0.9630
  174MOL0     H23952   9.562   4.421   0.584 -2.1866  0.2425  0.4868
  174MOL0     H23953   9.350   4.548   0.485 -0.2398  1.7824 -2.1762
  174MOL0     H23954   9.469   4.471   0.378 -0.8175 -0.5831  0.6933
  174MOL0     H23955   9.488   4.759   0.478 -1.3492 -1.0271  1.5799
  174MOL0     H23956   9.575   4.691   0.337 -1.6200  0.9345 -2.9393
  174MOL0     H23957   9.406   4.823   0.250  0.5877 -0.3872 -0.5898
  174MOL0     H23958   9.279   4.744   0.350  1.5073  1.0181  2.2205
  174MOL0     H23959   9.464   4.603   0.136 -0.8441  0.4948 -2.1086
  174MOL0     H23960   9.314   4.538   0.195 -0.3083  0.3438  1.0091
  174MOL0     H23961   9.397   4.883   0.004  0.0850  0.7767  1.2175
  174MOL0     H23962   9.393   4.875  -0.277  0.8559 -0.1021  1.3695
  174MOL0     H23963   9.271   4.988  -0.213 -1.1276 -0.6567  0.9426
  174MOL0     H23964   9.211   4.761  -0.416  1.4982  0.0058  0.8579
  174MOL0     H23965   9.098   4.864  -0.336 -0.2487  0.5817 -0.0950
  174MOL0     H23966   9.248   5.067  -0.425  4.0639  0.5094 -1.1577
  174MOL0     H23967   9.311   4.951  -0.530  2.0203  2.1517  3.1143
  174MOL0     H23968   9.084   4.889  -0.607  3.2059 -1.8093  1.8259
  174MOL0     H23969   9.025   5.036  -0.516 -1.7859 -1.0483 -1.3243
  174MOL0     H23970   8.934   4.892  -0.766 -3.7902 -0.1447 -0.2655
  174MOL0     H23971   8.808   4.872  -1.085 -0.3511 -0.0594 -0.3643
  174MOL0     H23972   8.717   4.857  -0.928  0.7639 -1.4620  1.7636
  174MOL0     H23973   8.867   4.777  -0.944 -1.1111  0.3329 -0.0434
  174MOL0     H23974   8.896   5.418  -1.358 -0.8883  1.8958 -1.2849
  174MOL0     H23975   8.822   5.468  -1.580 -1.6727  0.5884  1.9913
  174MOL0     H23976   8.784   5.146  -1.865  0.7643  0.4652  2.2902
  174MOL0     H23977   8.614   5.188  -1.837 -0.9995  1.9481 -0.5085
  174MOL0     H23978   8.644   5.380  -2.002  0.7039  0.6317 -2.2059
  174MOL0     H23979   8.795   5.335  -2.046  0.9891  0.0807  0.7800
  174MOL0     H23980   8.578   5.122  -2.047  0.8431 -1.6762 -1.8757
  174MOL0     H23981   8.724   5.110  -2.137 -0.7165 -0.8290  0.5862
  174MOL0     H23982   8.645   5.343  -2.248  0.3650  0.3835  0.4419
  174MOL0     H23983   8.494   5.301  -2.166  1.1298  1.8318 -0.1898
  174MOL0     H23984   8.610   5.083  -2.349  0.0388 -0.4676 -1.3839
  174MOL0     H23985   8.452   5.090  -2.300  1.1803  0.1476  0.0330
  174MOL0     H23986   8.480   5.168  -2.539  0.1253  4.0060 -2.8606
  174MOL0     H23987   8.583   5.307  -2.475  1.2942  0.4218  3.2166
  174MOL0     H23988   8.373   5.387  -2.376 -0.1018  0.2141  0.7397
  174MOL0     H23989   8.296   5.234  -2.424 -0.7237 -0.7921 -3.6698
  174MOL0     H23990   8.422   5.398  -2.642 -1.2457 -0.4253 -1.7726
  174MOL0     H23991   8.265   5.447  -2.579 -0.3737 -0.4259  0.3038
  174MOL0     H23992   8.775   5.043  -1.663  0.5489 -2.0917  2.1599
  174MOL0     H23993   8.818   4.997  -1.436  1.5892 -0.3086  0.7701
  174MOL0     H23994   8.991   5.293  -1.053 -2.1439  1.6832  0.5477
  174MOL0     H23995   9.110   5.288  -0.848  1.7067 -0.7640  0.4266
  174MOL0     H23996   9.956   4.562   1.099 -0.6643 -0.7909 -0.7938
  174MOL0     H23997  10.212   4.580   1.101 -1.9155  0.7308  0.3679
  174MOL0     H23998  10.592   4.525   0.977 -0.6233  2.1453  3.0098
  174MOL0     H23999  10.846   4.529   0.951 -0.1577  0.0806 -0.5935
  174MOL0     H24000  11.059   4.567   0.939 -1.1030  0.5964  0.9278
  174MOL0     H24001  11.174   4.703   0.940  0.6339 -0.7102 -1.8598
  174MOL0     H24002  11.092   4.627   1.158  0.3141 -1.4575 -0.7952
  174MOL0     H24003  10.924   4.673   1.121  0.2369 -0.1524 -2.7389
  174MOL0     H24004  11.077   4.895   1.028  0.9995 -0.1919 -1.3765
  174MOL0     H24005  10.952   4.878   1.170  1.5938 -5.0038  3.5670
  174MOL0     H24006  11.107   4.828   1.315 -3.6528 -0.8732 -2.1835
  174MOL0     H24007  11.157   4.981   1.236  2.6192  0.7085 -1.5195
  174MOL0     H24008  11.475   4.790   1.044 -0.6062 -1.6234 -1.8218
  174MOL0     H24009  10.816   4.932   0.824 -2.3724  0.9261 -2.4143
  174MOL0     H24010  10.473   4.962   0.741  0.1693  1.1445  0.2980
  174MOL0     H24011  10.494   5.008   0.906 -0.2677  0.9526 -1.4853
  174MOL0     H24012  10.623   5.039   0.786 -1.9062  3.6971 -0.3236
  175MOL0     O24013   2.078  10.643   3.800 -0.1249 -0.9493  0.6910
  175MOL0     C24014   2.039  10.653   3.917 -0.8397 -0.2806  0.2217
  175MOL0     O24015   1.936  10.730   3.963  0.7911 -0.8582 -0.4749
  175MOL0     C24016   1.883  10.836   3.895 -0.0828 -0.0998  0.6044
  175MOL0     C24017   1.948  10.907   3.800 -0.0229 -0.9878  0.7408
  175MOL0     C24018   1.885  11.009   3.722  0.2263  0.1795  0.9892
  175MOL0     C24019   1.753  11.038   3.741 -0.0031  0.2987 -1.0483
  175MOL0     O24020   1.660  11.120   3.680  0.0357  0.7395 -0.7138
  175MOL0     C24021   1.696  11.174   3.546  0.5281  0.1193  0.3667
  175MOL0     C24022   1.576  11.249   3.494 -0.8123  0.2485 -0.1917
  175MOL0     C24023   1.465  11.157   3.468  0.7518  0.2459 -0.2153
  175MOL0     C24024   1.338  11.220   3.413 -0.8538 -0.0404 -0.9352
  175MOL0     C24025   1.238  11.115   3.372  0.9974  0.2893  1.0040
  175MOL0     C24026   1.219  10.999   3.468 -0.5686 -0.1093 -0.5871
  175MOL0     C24027   1.093  10.921   3.430  0.4078 -0.5572 -0.9706
  175MOL0     C24028   1.065  10.818   3.542  0.7071 -0.3251  0.5970
  175MOL0     N24029   1.174  10.723   3.567  0.0399  0.5149 -0.3912
  175MOL0     C24030   1.256  10.714   3.676  0.2243 -0.4244 -0.1101
  175MOL0     C24031   1.347  10.619   3.640 -0.1730 -0.8113 -0.5172
  175MOL0     C24032   1.457  10.558   3.724 -0.4106  0.4341 -0.2480
  175MOL0     C24033   1.589  10.627   3.711  0.4799  0.5728 -0.4839
  175MOL0     C24034   1.660  10.596   3.584 -0.5175 -0.7241  0.0579
  175MOL0     C24035   1.770  10.698   3.562 -0.5895 -0.5233 -0.5516
  175MOL0     O24036   1.809  10.705   3.420 -0.0148  0.3928 -0.7660
  175MOL0     C24037   1.932  10.752   3.374 -0.3598  0.1395  0.0214
  175MOL0     C24038   2.044  10.758   3.452  0.2328 -0.5900  0.0954
  175MOL0     C24039   2.160  10.810   3.408  0.0445 -0.7284  0.0244
  175MOL0     C24040   2.268  10.807   3.507 -0.1835  0.2102  0.2549
  175MOL0     C24041   2.173  10.866   3.281  0.6046  0.2286 -0.7297
  175MOL0     C24042   2.306  10.925   3.232 -0.1098  0.0401 -0.8468
  175MOL0     O24043   2.375  11.005   3.317 -0.2358  0.8563  0.3628
  175MOL0     C24044   2.508  11.037   3.293 -0.4234  0.6171 -0.9077
  175MOL0     C24045   2.565  11.149   3.351 -0.4004  0.3188  0.2740
  175MOL0     C24046   2.700  11.168   3.338 -0.1174  1.0795 -0.6268
  175MOL0     C24047   2.787  11.091   3.255  0.9662  0.5980  1.2972
  175MOL0     O24048   2.920  11.136   3.240  0.5028  0.2980 -0.6365
  175MOL0     C24049   2.945  11.186   3.106  0.5470 -0.3645 -0.2629
  175MOL0     C24050   3.044  11.302   3.097  0.2525  0.3740 -0.3792
  175MOL0     C24051   3.005  11.414   3.191 -0.0477 -0.7909 -0.4117
  175MOL0     C24052   2.882  11.491   3.146  1.3594 -0.4003  1.2783
  175MOL0     C24053   2.865  11.627   3.217  0.0194  0.8121 -0.0880
  175MOL0     C24054   2.953  11.737   3.151 -0.6751 -0.8015  0.1854
  175MOL0     C24055   2.945  11.862   3.257 -0.1861 -0.5823  0.0013
  175MOL0     C24056   3.039  11.974   3.214 -0.3798  0.3249 -0.9466
  175MOL0    Cl24057   2.988  12.037   3.059  0.1339 -0.6020  0.6914
  175MOL0     C24058   2.730  10.968   3.211 -0.3393  0.5942  0.5687
  175MOL0     C24059   2.588  10.940   3.224  0.6585  0.4654  0.2499
  175MOL0     O24060   2.335  10.899   3.115  0.5700 -0.0679  0.0808
  175MOL0     C24061   2.066  10.851   3.189 -1.1038 -1.0649 -0.8362
  175MOL0     C24062   1.949  10.788   3.239  0.3921 -0.6358  0.4747
  175MOL0     N24063   1.306  10.572   3.525 -0.0356  1.0077  1.1700
  175MOL0     N24064   1.210  10.635   3.478 -0.4597 -0.5218  0.8925
  175MOL0     C24065   1.684  10.956   3.835  0.0568  0.2699  0.1889
  175MOL0     C24066   1.750  10.863   3.916  0.2706 -0.4571  0.6973
  175MOL0     C24067   2.113  10.571   4.013  0.5544 -0.2515 -0.5890
  175MOL0     C24068   2.235  10.519   3.984 -0.6565 -0.8928 -0.0801
  175MOL0     C24069   2.316  10.444   4.066 -0.5185  0.6425 -0.0711
  175MOL0     C24070   2.275  10.415   4.200  0.3706  0.2829  0.5844
  175MOL0     O24071   2.345  10.341   4.288 -0.3848 -0.1464 -0.2229
  175MOL0     C24072   2.484  10.318   4.249 -0.7942 -0.0623 -0.1986
  175MOL0     C24073   2.566  10.275   4.372  0.2652 -0.6190  1.0431
  175MOL0     C24074   2.541  10.132   4.406  0.4380 -0.9997 -0.4570
  175MOL0     C24075   2.542  10.099   4.555  0.3958 -0.2507  0.3368
  175MOL0     C24076   2.674  10.104   4.618  0.5984 -0.4454  0.1835
  175MOL0     C24077   2.775  10.100   4.672  0.0548  0.8714  0.6664
  175MOL0     C24078   2.162  10.475   4.240  0.2637 -0.7367 -0.4623
  175MOL0     C24079   2.076  10.546   4.148 -0.3332  0.2695  0.0116
  175MOL0     C24080   1.947  10.583   4.205 -0.5553  0.6641  0.4895
  175MOL0     H24081   2.054  10.891   3.782  0.0858  0.7128 -0.3553
  175MOL0     H24082   1.953  11.069   3.661  0.2598 -0.0168  0.8332
  175MOL0     H24083   1.716  11.092   3.476  0.8305  0.9442 -0.5336
  175MOL0     H24084   1.791  11.226   3.552  0.8343 -0.2958 -0.6342
  175MOL0     H24085   1.556  11.320   3.574 -0.4920 -3.1830  3.2449
  175MOL0     H24086   1.599  11.294   3.397 -0.7421 -4.1429 -2.4665
  175MOL0     H24087   1.491  11.087   3.389 -0.7481 -2.6174  1.6689
  175MOL0     H24088   1.451  11.098   3.559  0.7254 -0.5520 -0.7279
  175MOL0     H24089   1.315  11.296   3.488  3.1045  0.4012  0.0491
  175MOL0     H24090   1.374  11.278   3.328 -1.2033 -1.0408 -1.7894
  175MOL0     H24091   1.257  11.089   3.268  0.3206 -0.0411  0.9585
  175MOL0     H24092   1.142  11.167   3.377 -0.8471 -2.9460  2.7097
  175MOL0     H24093   1.303  10.929   3.467 -3.0355 -3.3093  0.3437
  175MOL0     H24094   1.211  11.038   3.570 -2.5043  0.1380 -0.7994
  175MOL0     H24095   1.125  10.881   3.334  2.8638  4.3150 -2.5376
  175MOL0     H24096   1.013  10.995   3.417  1.3370  0.8634  0.9240
  175MOL0     H24097   1.055  10.864   3.641  0.3494 -0.8050  0.7878
  175MOL0     H24098   0.981  10.757   3.509  0.0834  1.7368 -1.9935
  175MOL0     H24099   1.250  10.770   3.769  0.5308  0.3311 -0.5417
  175MOL0     H24100   1.461  10.452   3.696  0.1619 -0.9082  4.1630
  175MOL0     H24101   1.433  10.560   3.830 -3.0192 -0.3329 -0.7561
  175MOL0     H24102   1.580  10.736   3.716 -1.3152  0.4424 -0.3788
  175MOL0     H24103   1.648  10.591   3.796  2.0070  1.8164 -0.9611
  175MOL0     H24104   1.701  10.494   3.585  0.5311 -0.3183  1.7456
  175MOL0     H24105   1.594  10.612   3.498  2.3290  1.0692 -1.9653
  175MOL0     H24106   1.758  10.804   3.583  0.6942  0.3163 -3.4722
  175MOL0     H24107   1.855  10.664   3.623  2.2399  0.9126 -3.3689
  175MOL0     H24108   2.051  10.726   3.555  1.8949  1.0598  0.5297
  175MOL0     H24109   2.287  10.714   3.561 -2.7817 -0.4107  0.2200
  175MOL0     H24110   2.249  10.889   3.576  0.5749 -0.3995  1.2126
  175MOL0     H24111   2.367  10.820   3.461 -0.8725 -1.6031 -1.9475
  175MOL0     H24112   2.512  11.209   3.423  0.2571 -1.2357  2.1404
  175MOL0     H24113   2.743  11.247   3.399  0.4531  0.2173  0.1112
  175MOL0     H24114   2.963  11.101   3.040 -2.9333  1.2347 -3.6584
  175MOL0     H24115   2.851  11.235   3.078  1.5617  2.6939  1.1912
  175MOL0     H24116   3.141  11.262   3.127  0.0496  0.2889  0.1671
  175MOL0     H24117   3.054  11.339   2.994  0.2825 -4.1499 -2.2295
  175MOL0     H24118   3.092  11.477   3.211  0.2950 -1.5106  0.4332
  175MOL0     H24119   2.985  11.384   3.295  1.7213  0.6703  0.4036
  175MOL0     H24120   2.790  11.431   3.150  1.0599 -0.0072  0.6251
  175MOL0     H24121   2.885  11.521   3.041  0.0221 -2.1604  0.6861
  175MOL0     H24122   2.763  11.665   3.228  0.9356  2.7392  3.0594
  175MOL0     H24123   2.889  11.618   3.323 -1.6417 -2.1912  0.1496
  175MOL0     H24124   2.906  11.761   3.055  1.9448 -1.4120 -1.3622
  175MOL0     H24125   3.055  11.708   3.123 -2.2108 -4.4303 -2.5642
  175MOL0     H24126   2.977  11.822   3.353  0.3479 -0.4029 -0.1032
  175MOL0     H24127   2.839  11.892   3.263 -0.2096 -0.6199 -0.2113
  175MOL0     H24128   3.141  11.935   3.204 -0.8211 -1.0225 -0.4058
  175MOL0     H24129   3.030  12.052   3.290 -1.5779 -0.9688  0.3069
  175MOL0     H24130   2.790  10.897   3.154 -2.6889 -0.2950 -0.9573
  175MOL0     H24131   2.548  10.847   3.185 -2.4006  2.3680 -1.5762
  175MOL0     H24132   2.075  10.887   3.087  1.3367  2.5362  0.4268
  175MOL0     H24133   1.865  10.776   3.170 -2.4452  2.8558  2.9208
  175MOL0     H24134   1.578  10.966   3.857  0.3070  1.1064  1.0719
  175MOL0     H24135   1.692  10.813   3.994 -2.4713  1.4667  0.0183
  175MOL0     H24136   2.279  10.547   3.889 -1.6307  1.7896  0.1564
  175MOL0     H24137   2.405  10.420   4.010 -1.9352 -0.4112 -1.9908
  175MOL0     H24138   2.492  10.240   4.173  0.6344 -0.8231  0.6936
  175MOL0     H24139   2.523  10.410   4.203 -0.0528  0.0948  0.7120
  175MOL0     H24140   2.547  10.349   4.450 -2.7929 -1.2298  1.0128
  175MOL0     H24141   2.670  10.285   4.339 -1.0380  0.4824 -3.3653
  175MOL0     H24142   2.439  10.104   4.378  0.6874 -2.3015 -0.1104
  175MOL0     H24143   2.617  10.070   4.359  0.3427  0.7106 -3.0768
  175MOL0     H24144   2.505   9.996   4.563 -0.7194  0.0038 -1.2029
  175MOL0     H24145   2.481  10.159   4.623  1.4027 -1.2623  2.2375
  175MOL0     H24146   2.877  10.095   4.705 -0.0432 -3.5978  0.9466
  175MOL0     H24147   2.135  10.476   4.345  1.6465  1.2607 -0.0764
  175MOL0     H24148   1.929  10.564   4.311 -2.6472 -4.3921 -0.4912
  175MOL0     H24149   1.935  10.692   4.197 -1.0865  0.4782 -2.5290
  175MOL0     H24150   1.870  10.527   4.152  0.0522  2.4873 -2.5999
  176MOL0     O24151   4.414   8.125   8.391  0.7554  0.3972 -0.2713
  176MOL0     C24152   4.479   8.146   8.491 -0.9119 -0.3311 -0.2043
  176MOL0     O24153   4.552   8.262   8.521 -0.3261 -0.0486  0.5289
  176MOL0     C24154   4.573   8.352   8.416  1.1380  0.1838 -0.2235
  176MOL0     C24155   4.665   8.321   8.320  0.5724  0.6336 -0.3902
  176MOL0     C24156   4.690   8.413   8.211 -0.5046  0.5081  1.3018
  176MOL0     C24157   4.624   8.537   8.205 -0.4533 -0.6066  0.3777
  176MOL0     O24158   4.647   8.632   8.114 -0.2363 -0.4507 -0.5426
  176MOL0     C24159   4.751   8.616   8.013  0.1492 -0.4917 -0.1294
  176MOL0     C24160   4.744   8.742   7.923 -0.2315  0.5230 -0.2391
  176MOL0     C24161   4.595   8.770   7.893  0.9854 -0.7033  0.5346
  176MOL0     C24162   4.572   8.899   7.805  0.1900  0.8496 -0.7440
  176MOL0     C24163   4.420   8.932   7.787  0.0511 -1.2437 -1.0812
  176MOL0     C24164   4.419   9.060   7.705 -0.9032 -0.9078 -0.8361
  176MOL0     C24165   4.295   9.147   7.711 -1.8391 -0.4304 -0.1765
  176MOL0     C24166   4.176   9.089   7.635  0.4651  0.6091  0.8069
  176MOL0     N24167   4.197   9.063   7.491 -0.6609  0.3414  0.4743
  176MOL0     C24168   4.185   9.163   7.395  0.0243  0.6605  0.4241
  176MOL0     C24169   4.162   9.094   7.278  0.0649 -0.3332  0.5868
  176MOL0     C24170   4.131   9.156   7.146 -0.7209 -0.1043  0.5614
  176MOL0     C24171   4.090   9.060   7.036  1.1033 -0.5326  0.7660
  176MOL0     C24172   4.029   9.131   6.915 -0.9778  0.5204  0.8909
  176MOL0     C24173   4.018   9.052   6.785 -0.3034  0.2499 -0.0691
  176MOL0     O24174   4.151   9.056   6.720  0.5248  0.1312  0.1807
  176MOL0     C24175   4.190   9.150   6.625  0.4617  0.1541 -0.4428
  176MOL0     C24176   4.309   9.133   6.558 -0.3471 -0.0129  1.1881
  176MOL0     C24177   4.357   9.227   6.457 -0.6022  0.2452  0.6381
  176MOL0     C24178   4.470   9.177   6.363 -0.3313 -0.2341  0.2656
  176MOL0     C24179   4.274   9.343   6.425 -0.4246 -0.4676  1.2100
  176MOL0     C24180   4.297   9.435   6.312 -0.6245 -0.4733 -0.4718
  176MOL0     O24181   4.377   9.395   6.209 -0.1673  0.1407 -0.3928
  176MOL0     C24182   4.447   9.498   6.144  0.3504  0.6064  0.1118
  176MOL0     C24183   4.453   9.494   6.007  0.3148 -0.2382 -0.5272
  176MOL0     C24184   4.520   9.593   5.930  1.1342 -0.0273  0.4375
  176MOL0     C24185   4.588   9.693   5.999 -0.0477 -0.2718 -0.0455
  176MOL0     O24186   4.670   9.786   5.934  0.3713 -0.6685  0.1533
  176MOL0     C24187   4.764   9.744   5.833 -0.2664  0.0717 -0.6154
  176MOL0     C24188   4.889   9.679   5.886  0.4805 -0.0231  0.8084
  176MOL0     C24189   4.968   9.771   5.982 -0.4200 -0.3765  0.0562
  176MOL0     C24190   5.109   9.716   6.038  0.1387  0.8283  0.1783
  176MOL0     C24191   5.192   9.829   6.100 -0.0182 -0.3973  0.1340
  176MOL0     C24192   5.327   9.777   6.160 -0.5057  0.0839 -0.0920
  176MOL0     C24193   5.413   9.897   6.203 -0.0661  0.4960 -0.3794
  176MOL0     C24194   5.556   9.858   6.252  0.0375 -0.3983 -0.5669
  176MOL0    Cl24195   5.667   9.788   6.125  0.2752  0.1661  0.1419
  176MOL0     C24196   4.599   9.696   6.141 -0.4215  0.1468 -0.3517
  176MOL0     C24197   4.525   9.594   6.211  0.1114 -0.3979 -0.9205
  176MOL0     O24198   4.246   9.541   6.313  0.1060 -0.0067 -0.4470
  176MOL0     C24199   4.159   9.364   6.506 -0.1105  0.4932 -0.6807
  176MOL0     C24200   4.112   9.263   6.595 -0.4022 -1.0758  0.0263
  176MOL0     N24201   4.154   8.959   7.302 -1.0320 -0.2182 -0.5745
  176MOL0     N24202   4.177   8.941   7.427  0.7513  0.3963  0.2985
  176MOL0     C24203   4.533   8.559   8.301 -0.5624  0.1369 -0.0876
  176MOL0     C24204   4.509   8.473   8.408 -0.0156  0.9895 -1.2167
  176MOL0     C24205   4.481   8.048   8.597 -0.0628  0.8999  0.6250
  176MOL0     C24206   4.596   8.050   8.685  0.9250  0.3449  0.2543
  176MOL0     C24207   4.597   7.965   8.797  0.3002  0.3303 -0.6778
  176MOL0     C24208   4.490   7.881   8.827 -0.6915 -0.0742 -0.1135
  176MOL0     O24209   4.518   7.803   8.941  0.0108 -0.5841  0.3637
  176MOL0     C24210   4.417   7.795   9.044  0.1760 -0.9094  0.4508
  176MOL0     C24211   4.344   7.663   9.044 -0.1950 -0.6252  0.2633
  176MOL0     C24212   4.450   7.555   9.091  1.0195 -1.0935 -0.2817
  176MOL0     C24213   4.383   7.425   9.103  0.6841 -0.2372  0.1915
  176MOL0     C24214   4.359   7.367   8.965  0.7122  0.1053 -0.7270
  176MOL0     C24215   4.347   7.303   8.862 -0.1182 -0.1112  0.6319
  176MOL0     C24216   4.372   7.891   8.755 -0.1498  0.2460 -1.0005
  176MOL0     C24217   4.366   7.969   8.641 -0.3019 -0.4498  0.7420
  176MOL0     C24218   4.239   7.976   8.550 -0.4172 -0.2906 -0.1476
  176MOL0     H24219   4.717   8.226   8.325  0.3576  0.5809  1.4218
  176MOL0     H24220   4.768   8.394   8.138 -2.1342  0.9723 -0.6486
  176MOL0     H24221   4.732   8.527   7.953 -1.0921 -1.4335  1.5846
  176MOL0     H24222   4.851   8.609   8.058 -0.5504  1.3246  1.8930
  176MOL0     H24223   4.798   8.826   7.967  1.7902 -1.1235  0.6019
  176MOL0     H24224   4.805   8.727   7.834 -1.2861 -1.2246 -0.7080
  176MOL0     H24225   4.546   8.680   7.854  0.3100 -1.6268  3.3095
  176MOL0     H24226   4.543   8.794   7.986  2.2977  0.7978  0.9235
  176MOL0     H24227   4.632   8.983   7.842  1.0380 -0.2959  0.6173
  176MOL0     H24228   4.597   8.862   7.705 -3.5588 -2.1969 -0.7598
  176MOL0     H24229   4.362   8.950   7.878 -0.3861  3.0586 -1.9983
  176MOL0     H24230   4.360   8.859   7.731 -2.9125 -0.3131  0.6582
  176MOL0     H24231   4.496   9.123   7.749 -0.1860 -0.2647 -2.8929
  176MOL0     H24232   4.460   9.042   7.605  0.3389 -3.8684  0.0743
  176MOL0     H24233   4.329   9.234   7.655  3.8043 -0.9480  1.7364
  176MOL0     H24234   4.271   9.178   7.813 -0.6808  0.5946 -0.1929
  176MOL0     H24235   4.152   8.998   7.691 -3.8513  0.7224 -0.4729
  176MOL0     H24236   4.088   9.155   7.638  0.0704  0.3229 -1.8141
  176MOL0     H24237   4.188   9.270   7.414  1.0855  0.9709 -1.2529
  176MOL0     H24238   4.220   9.211   7.112  1.4824 -2.7830  1.5704
  176MOL0     H24239   4.041   9.218   7.154 -0.7008  0.1404 -0.8416
  176MOL0     H24240   4.176   8.999   7.006  0.3904  0.2736 -3.6892
  176MOL0     H24241   4.015   8.996   7.083  0.8367 -0.9131 -0.1665
  176MOL0     H24242   3.928   9.160   6.943 -1.4517 -0.5431  0.3267
  176MOL0     H24243   4.090   9.217   6.886 -3.3387  1.2539 -2.3017
  176MOL0     H24244   3.997   8.946   6.806 -2.0759  0.5142 -0.4250
  176MOL0     H24245   3.938   9.088   6.721 -3.1134 -0.8802  2.5742
  176MOL0     H24246   4.362   9.041   6.582 -0.5183 -1.5283 -3.3726
  176MOL0     H24247   4.516   9.091   6.414  0.4491 -1.5514 -2.5059
  176MOL0     H24248   4.547   9.252   6.345 -1.9341  1.2176 -0.8122
  176MOL0     H24249   4.431   9.153   6.264  2.0705  0.9047 -1.0484
  176MOL0     H24250   4.398   9.413   5.960  3.1227 -1.5803 -1.7532
  176MOL0     H24251   4.521   9.594   5.822  3.0020 -3.0712  0.3290
  176MOL0     H24252   4.719   9.690   5.749  0.9012 -1.0722 -0.5335
  176MOL0     H24253   4.804   9.836   5.789 -0.5276 -0.8400 -2.9032
  176MOL0     H24254   4.862   9.590   5.943  1.2301  1.4905  3.6895
  176MOL0     H24255   4.946   9.659   5.794 -1.5448  1.0920 -0.7918
  176MOL0     H24256   4.900   9.800   6.063 -2.9616  0.6116 -2.2817
  176MOL0     H24257   4.988   9.854   5.914 -2.6134 -0.1984 -0.4342
  176MOL0     H24258   5.158   9.667   5.953 -2.9891  0.0730 -1.3042
  176MOL0     H24259   5.091   9.646   6.120  0.5382  2.1401  1.4277
  176MOL0     H24260   5.215   9.903   6.024  1.2224  0.1621  1.0167
  176MOL0     H24261   5.142   9.882   6.182 -0.0740 -1.3844  0.7588
  176MOL0     H24262   5.401   9.731   6.093 -1.6722 -2.6160  0.3139
  176MOL0     H24263   5.311   9.724   6.254 -1.6900  1.3061  0.4173
  176MOL0     H24264   5.356   9.948   6.282 -0.4247 -1.3424  0.5853
  176MOL0     H24265   5.424   9.948   6.106 -0.9320 -1.0896 -1.3581
  176MOL0     H24266   5.555   9.796   6.342  2.4008  1.7392  1.0484
  176MOL0     H24267   5.601   9.954   6.278 -1.6122  0.1670  0.3356
  176MOL0     H24268   4.666   9.758   6.200 -1.3284 -2.0133  3.2664
  176MOL0     H24269   4.508   9.589   6.318 -0.1930 -1.2294 -1.0014
  176MOL0     H24270   4.095   9.451   6.499 -0.7764  0.0024 -0.7521
  176MOL0     H24271   4.017   9.280   6.645 -1.0557  2.6893 -2.1090
  176MOL0     H24272   4.468   8.646   8.296 -2.9538 -1.4739  0.9717
  176MOL0     H24273   4.451   8.504   8.495  0.8121  0.0539 -0.3072
  176MOL0     H24274   4.675   8.122   8.670  1.0548 -0.2183 -2.2056
  176MOL0     H24275   4.686   7.970   8.860  0.0196  1.6797 -0.3610
  176MOL0     H24276   4.474   7.804   9.137 -1.0326  2.6538  0.9926
  176MOL0     H24277   4.346   7.878   9.050 -0.2448 -1.3144  1.1021
  176MOL0     H24278   4.306   7.640   8.944 -1.3133  0.2892  0.4572
  176MOL0     H24279   4.272   7.670   9.126  1.0111 -1.0030  1.3832
  176MOL0     H24280   4.536   7.552   9.024  0.7116 -0.3175 -0.7203
  176MOL0     H24281   4.492   7.577   9.189  2.6393 -1.7142 -0.8115
  176MOL0     H24282   4.284   7.446   9.144  0.5096  1.0666 -0.8404
  176MOL0     H24283   4.446   7.364   9.169  0.2347 -0.4425  0.4356
  176MOL0     H24284   4.325   7.256   8.768 -0.8885 -0.5191  1.0070
  176MOL0     H24285   4.286   7.831   8.784  1.4722 -2.3865 -1.4239
  176MOL0     H24286   4.249   7.923   8.455  0.2587 -0.3531 -0.0441
  176MOL0     H24287   4.155   7.928   8.602  1.1009 -3.0014  0.0111
  176MOL0     H24288   4.213   8.077   8.518  0.2960  1.1511  3.3339
  177MOL0     O24289   9.165   2.581   5.436  0.5432 -0.5466  0.3211
  177MOL0     C24290   9.108   2.471   5.439 -0.3830 -0.3743 -0.1510
  177MOL0     O24291   9.172   2.353   5.436 -0.1289  0.2583 -0.5447
  177MOL0     C24292   9.307   2.341   5.419 -0.4827 -0.4866 -0.5881
  177MOL0     C24293   9.417   2.437   5.397  0.5591  0.0220 -0.4549
  177MOL0     C24294   9.549   2.402   5.376 -0.4550  0.2964 -0.0463
  177MOL0     C24295   9.588   2.267   5.389 -0.7199  0.2664  0.4541
  177MOL0     O24296   9.719   2.237   5.383  0.4135  0.1002  0.7474
  177MOL0     C24297   9.771   2.129   5.468 -0.1225  0.5721  0.2594
  177MOL0     C24298   9.858   2.194   5.577  0.3030  0.0660 -0.5939
  177MOL0     C24299   9.783   2.305   5.667  0.4650  0.4425  0.2296
  177MOL0     C24300   9.875   2.369   5.761 -1.4471 -0.0238  0.2485
  177MOL0     C24301   9.810   2.499   5.823  0.5288 -0.3063 -0.3491
  177MOL0     C24302   9.887   2.566   5.946  0.4978 -0.4582  0.3352
  177MOL0     C24303   9.946   2.470   6.046 -0.4525  0.5896 -0.5550
  177MOL0     C24304  10.017   2.533   6.170  0.8788 -0.3054 -0.4936
  177MOL0     N24305  10.121   2.448   6.217  1.3012  0.1275 -1.3947
  177MOL0     C24306  10.115   2.379   6.336  0.0029  0.1930  0.8044
  177MOL0     C24307  10.234   2.320   6.346  0.1465 -0.2513  1.1836
  177MOL0     C24308  10.276   2.229   6.453 -0.7775  0.1483  0.0801
  177MOL0     C24309  10.252   2.084   6.416 -0.4005  0.0464 -0.3355
  177MOL0     C24310  10.111   2.034   6.412  0.2014 -0.3718 -0.1827
  177MOL0     C24311  10.104   1.885   6.379 -0.3269 -0.9309  0.0796
  177MOL0     O24312  10.196   1.851   6.275 -0.9935  1.2123  0.2628
  177MOL0     C24313  10.201   1.718   6.237  1.1842 -0.0521 -0.0367
  177MOL0     C24314  10.285   1.673   6.140 -0.1064  0.4482  0.4338
  177MOL0     C24315  10.294   1.538   6.096  0.2758  0.6697 -0.6222
  177MOL0     C24316  10.393   1.501   5.994  0.3959 -0.2765 -0.8158
  177MOL0     C24317  10.206   1.440   6.159  0.1881 -0.5718  0.2873
  177MOL0     C24318  10.195   1.288   6.140 -0.6167  0.2350  0.5547
  177MOL0     O24319  10.183   1.204   6.246  0.5147 -0.5877  0.2637
  177MOL0     C24320  10.174   1.065   6.228 -0.8428 -0.2116  0.3672
  177MOL0     C24321  10.296   0.997   6.221 -0.7112 -0.2512 -0.4967
  177MOL0     C24322  10.303   0.854   6.188  0.1236 -0.2797  1.2863
  177MOL0     C24323  10.182   0.784   6.179  0.3981 -0.4827 -0.6725
  177MOL0     O24324  10.190   0.647   6.167  0.8218 -1.2684  0.0201
  177MOL0     C24325  10.275   0.600   6.062 -0.2460  0.0060  0.3838
  177MOL0     C24326  10.228   0.463   6.011 -0.5933 -0.3671  0.7029
  177MOL0     C24327  10.268   0.345   6.102  0.2130  0.8980 -0.0599
  177MOL0     C24328  10.210   0.204   6.056 -0.1275  0.4090  0.1509
  177MOL0     C24329  10.263   0.080   6.129 -0.0793 -0.2905 -0.7806
  177MOL0     C24330  10.413   0.071   6.129 -0.3978  0.8656 -0.2709
  177MOL0     C24331  10.500   0.042   5.998  0.6060  0.1733  0.2029
  177MOL0     C24332  10.463  -0.084   5.914 -0.1941  0.0232 -0.6471
  177MOL0    Cl24333  10.602  -0.117   5.811  0.5517 -0.0573  0.3179
  177MOL0     C24334  10.060   0.843   6.213 -0.5310 -0.4360 -0.1910
  177MOL0     C24335  10.051   0.989   6.222 -0.4212 -0.2079 -0.5868
  177MOL0     O24336  10.186   1.259   6.023 -0.1887 -0.1658  0.1881
  177MOL0     C24337  10.107   1.491   6.243  0.3364  0.2152  0.4711
  177MOL0     C24338  10.104   1.625   6.285 -0.0515  0.7734 -0.1583
  177MOL0     N24339  10.310   2.354   6.235  0.8148  0.2991 -0.5007
  177MOL0     N24340  10.236   2.414   6.152 -0.9952 -0.2733  0.3348
  177MOL0     C24341   9.492   2.174   5.411  1.1737  0.3885  0.1979
  177MOL0     C24342   9.355   2.207   5.431  0.9973 -0.1718  0.2488
  177MOL0     C24343   8.963   2.474   5.452 -0.9826  1.2027  0.5044
  177MOL0     C24344   8.897   2.354   5.488 -0.6981 -0.1260  0.4490
  177MOL0     C24345   8.761   2.354   5.530  0.8609  0.9463  0.0875
  177MOL0     C24346   8.685   2.476   5.537  1.7198 -0.3610 -0.4929
  177MOL0     O24347   8.557   2.477   5.578  0.4740 -0.3043  1.0113
  177MOL0     C24348   8.481   2.365   5.544 -0.2329 -0.4568  0.4597
  177MOL0     C24349   8.335   2.415   5.548  0.1571  0.8001  0.2900
  177MOL0     C24350   8.288   2.438   5.693  0.2136 -0.4752 -0.3449
  177MOL0     C24351   8.246   2.306   5.756 -0.3724 -0.9895 -0.5925
  177MOL0     C24352   8.174   2.340   5.880  0.6127  0.2077 -0.4321
  177MOL0     C24353   8.105   2.361   5.981 -0.9319 -0.0989 -1.1919
  177MOL0     C24354   8.751   2.595   5.501  0.5440 -0.3971  0.2171
  177MOL0     C24355   8.888   2.593   5.445 -0.0737  0.0168 -0.0410
  177MOL0     C24356   8.927   2.730   5.383 -0.0847 -1.3755  1.0917
  177MOL0     H24357   9.401   2.543   5.408 -1.0362 -0.4471  3.3582
  177MOL0     H24358   9.622   2.482   5.367 -0.4036  0.3373  0.6372
  177MOL0     H24359   9.845   2.075   5.408  1.5842  0.5529  2.2676
  177MOL0     H24360   9.705   2.051   5.507 -0.0105 -1.2514 -2.8106
  177MOL0     H24361   9.890   2.122   5.653 -3.7879 -0.7745  0.5247
  177MOL0     H24362   9.947   2.242   5.533 -0.7620  0.3634 -2.5217
  177MOL0     H24363   9.737   2.383   5.605 -2.9065  1.0836  3.2327
  177MOL0     H24364   9.706   2.258   5.729 -1.0901  0.0859 -1.8418
  177MOL0     H24365   9.923   2.296   5.828 -0.9086 -1.0039 -1.1536
  177MOL0     H24366   9.963   2.405   5.707 -0.2270  1.9027  3.2821
  177MOL0     H24367   9.706   2.478   5.852  0.7738 -0.3328  0.5578
  177MOL0     H24368   9.792   2.578   5.750 -2.7798 -0.9028 -0.3561
  177MOL0     H24369   9.967   2.630   5.907 -0.2351  1.8997  2.4256
  177MOL0     H24370   9.819   2.621   6.013 -1.6399 -3.6707  1.0348
  177MOL0     H24371  10.029   2.421   5.994  0.5906  0.5959  1.0446
  177MOL0     H24372   9.874   2.393   6.075  3.5516 -2.7572  1.6328
  177MOL0     H24373  10.060   2.632   6.149  0.1248  0.5649  1.7268
  177MOL0     H24374   9.942   2.548   6.249  2.1533 -0.3598  0.7727
  177MOL0     H24375  10.032   2.363   6.405  0.8079 -2.6243  1.2557
  177MOL0     H24376  10.216   2.248   6.542 -3.8214 -0.3688 -1.6866
  177MOL0     H24377  10.383   2.230   6.474 -1.2627  0.1912  2.8819
  177MOL0     H24378  10.309   2.065   6.325  0.7663 -3.1413  0.9326
  177MOL0     H24379  10.283   2.017   6.497 -1.3668  0.3918  0.3472
  177MOL0     H24380  10.071   2.066   6.509  0.6822 -1.6599  0.4554
  177MOL0     H24381  10.051   2.086   6.337 -0.7892 -1.6668 -0.3211
  177MOL0     H24382  10.129   1.839   6.475 -2.4636  1.7173  2.0454
  177MOL0     H24383   9.997   1.875   6.361 -0.5885  0.5083  0.7479
  177MOL0     H24384  10.357   1.741   6.096  1.6072 -1.5552 -0.0254
  177MOL0     H24385  10.472   1.575   6.013 -0.7492  0.2177  3.0558
  177MOL0     H24386  10.346   1.516   5.897 -2.0262 -2.7461 -0.1343
  177MOL0     H24387  10.436   1.401   5.992 -0.4772 -0.7294  1.0006
  177MOL0     H24388  10.388   1.054   6.224  0.7580 -2.5263 -0.1936
  177MOL0     H24389  10.392   0.806   6.149 -0.3989 -0.7777  0.6801
  177MOL0     H24390  10.283   0.664   5.974  3.9222 -0.9249 -0.1473
  177MOL0     H24391  10.376   0.586   6.101 -0.8639 -0.5742  1.8383
  177MOL0     H24392  10.119   0.473   6.003 -0.5437 -0.9490 -1.2155
  177MOL0     H24393  10.267   0.457   5.909 -0.9025  3.2760  0.2419
  177MOL0     H24394  10.258   0.366   6.209 -0.7417  3.2894 -0.5631
  177MOL0     H24395  10.377   0.337   6.092  0.2675  0.8910  0.5035
  177MOL0     H24396  10.219   0.187   5.948 -1.0438  2.0630 -0.2239
  177MOL0     H24397  10.103   0.200   6.080 -0.4477 -2.2735 -1.2867
  177MOL0     H24398  10.236   0.086   6.234  0.3203  2.9352 -0.7503
  177MOL0     H24399  10.215  -0.012   6.095 -0.5062 -1.5463  2.8189
  177MOL0     H24400  10.447  -0.016   6.186 -1.7078 -0.3283 -1.2596
  177MOL0     H24401  10.454   0.161   6.177  0.3024  3.5088 -5.1903
  177MOL0     H24402  10.603   0.025   6.031  0.6029 -0.2710 -0.0162
  177MOL0     H24403  10.501   0.122   5.923  3.9506 -1.9403 -2.2310
  177MOL0     H24404  10.385  -0.056   5.842  0.6636  2.7241 -0.6225
  177MOL0     H24405  10.443  -0.178   5.966  1.2301 -0.0723 -0.2206
  177MOL0     H24406   9.973   0.780   6.227  0.1339 -1.6291 -1.2655
  177MOL0     H24407   9.953   1.035   6.220  0.8926  2.7940 -2.1211
  177MOL0     H24408  10.028   1.430   6.286  0.0238  2.5589  3.6066
  177MOL0     H24409  10.019   1.652   6.346 -0.8764  0.4775 -1.1551
  177MOL0     H24410   9.506   2.068   5.430 -0.1042 -0.2666 -2.1734
  177MOL0     H24411   9.288   2.127   5.459 -0.7905  1.7283  1.7392
  177MOL0     H24412   8.953   2.261   5.494 -1.7199 -0.8411 -0.6048
  177MOL0     H24413   8.720   2.259   5.562  1.0819  0.6737 -0.4395
  177MOL0     H24414   8.497   2.340   5.439 -1.8951  1.9845 -0.4622
  177MOL0     H24415   8.489   2.285   5.619 -3.9974  0.2545  1.8553
  177MOL0     H24416   8.265   2.347   5.498  2.4742 -1.1927 -0.4136
  177MOL0     H24417   8.343   2.506   5.488 -2.2075  0.4471 -0.6908
  177MOL0     H24418   8.359   2.498   5.751 -0.4744  0.2374 -0.2248
  177MOL0     H24419   8.202   2.505   5.688  2.6211  2.9811  1.0296
  177MOL0     H24420   8.335   2.247   5.778  0.1068 -0.6131 -1.4857
  177MOL0     H24421   8.175   2.250   5.695 -0.3825 -2.7289  0.9099
  177MOL0     H24422   8.054   2.400   6.066 -1.3369  2.5508 -2.5375
  177MOL0     H24423   8.709   2.695   5.503  2.8771  0.8005  4.7238
  177MOL0     H24424   9.015   2.772   5.431 -0.5752  3.8016 -1.8139
  177MOL0     H24425   8.948   2.720   5.277 -3.6356  0.9542 -0.0103
  177MOL0     H24426   8.853   2.810   5.380  0.9761 -0.4106  0.0174
  178MOL0     O24427   1.561   5.376  10.711 -0.8054  0.0459  0.4884
  178MOL0     C24428   1.507   5.488  10.686  0.6377 -0.3035 -0.7117
  178MOL0     O24429   1.535   5.571  10.583 -0.5336 -0.3771 -0.3723
  178MOL0     C24430   1.613   5.530  10.476  0.0356  0.0017 -0.6839
  178MOL0     C24431   1.601   5.409  10.405 -0.1659 -0.2116 -0.4170
  178MOL0     C24432   1.688   5.384  10.292 -0.2152 -0.5492 -0.1670
  178MOL0     C24433   1.786   5.473  10.244  0.2891 -0.1881 -0.5613
  178MOL0     O24434   1.868   5.444  10.149 -0.3767  0.5306 -0.1023
  178MOL0     C24435   1.871   5.524  10.026  0.4883 -0.0694 -0.8831
  178MOL0     C24436   1.952   5.455   9.921  1.0229  0.1065 -0.6324
  178MOL0     C24437   1.962   5.530   9.792  0.0882  0.3521  0.1526
  178MOL0     C24438   2.051   5.443   9.706  0.0933 -0.1174 -0.5191
  178MOL0     C24439   2.128   5.519   9.589  0.1351 -0.1223 -0.5209
  178MOL0     C24440   2.260   5.573   9.643 -0.4264  0.2163  0.0107
  178MOL0     C24441   2.360   5.459   9.685  0.6517 -0.2144  0.4784
  178MOL0     C24442   2.513   5.485   9.650  0.0103 -0.2887  0.4860
  178MOL0     N24443   2.589   5.373   9.664 -0.1033  0.3736  0.5282
  178MOL0     C24444   2.564   5.244   9.706  0.0069 -0.2443  0.0903
  178MOL0     C24445   2.683   5.183   9.711 -0.0112 -0.0315 -0.9765
  178MOL0     C24446   2.715   5.051   9.772 -0.3974  0.5525 -0.3215
  178MOL0     C24447   2.723   5.035   9.920  0.5305 -0.6913 -0.1279
  178MOL0     C24448   2.586   5.040   9.988 -0.3290 -0.3874 -0.4608
  178MOL0     C24449   2.603   5.001  10.140  0.5292  0.1604 -0.2308
  178MOL0     O24450   2.477   5.035  10.207 -0.9630  0.5853 -0.5388
  178MOL0     C24451   2.470   5.007  10.343  0.5133 -0.1413  0.7640
  178MOL0     C24452   2.436   4.877  10.400  0.3681 -0.7185  0.4227
  178MOL0     C24453   2.416   4.865  10.537 -1.0969  0.1609  0.2022
  178MOL0     C24454   2.371   4.720  10.579  0.6005 -0.6446  0.1305
  178MOL0     C24455   2.448   4.974  10.628  0.9734 -0.2991  0.5689
  178MOL0     C24456   2.443   4.981  10.779  0.4470 -0.0060 -0.3859
  178MOL0     O24457   2.444   5.105  10.845 -0.4918 -1.0801  0.7989
  178MOL0     C24458   2.442   5.113  10.984 -0.5500  0.7902  0.1794
  178MOL0     C24459   2.534   5.054  11.066 -0.5297 -0.9576 -0.0975
  178MOL0     C24460   2.526   5.078  11.208 -0.6145  0.4652 -0.6892
  178MOL0     C24461   2.428   5.150  11.263  0.5139  0.3284 -0.3205
  178MOL0     O24462   2.423   5.158  11.403 -0.1442  0.6837 -0.4804
  178MOL0     C24463   2.298   5.132  11.474  0.2508 -0.4507 -0.1572
  178MOL0     C24464   2.320   5.114  11.616 -0.7760 -1.7377 -0.4260
  178MOL0     C24465   2.196   5.050  11.679 -0.1932  0.6524  0.2497
  178MOL0     C24466   2.221   5.019  11.826 -0.6823  0.1919  0.9472
  178MOL0     C24467   2.100   4.966  11.886 -0.4729 -0.1630 -0.2120
  178MOL0     C24468   2.121   4.909  12.029  0.0689  0.5419  0.1506
  178MOL0     C24469   2.223   4.791  12.035  0.4371 -0.3394 -0.3503
  178MOL0     C24470   2.185   4.699  12.148  0.0638  0.5427  0.3819
  178MOL0    Cl24471   2.311   4.551  12.147  0.2611  0.1151  0.2687
  178MOL0     C24472   2.330   5.200  11.176  0.1922  0.0721 -0.7358
  178MOL0     C24473   2.338   5.183  11.040  0.4720 -0.4765  0.0491
  178MOL0     O24474   2.433   4.873  10.835  0.0507 -0.2017  0.2284
  178MOL0     C24475   2.484   5.095  10.567 -0.6623 -0.5964  0.1049
  178MOL0     C24476   2.493   5.120  10.429 -0.1006  0.3712 -0.3097
  178MOL0     N24477   2.780   5.267   9.665  0.1245  0.2101 -0.8426
  178MOL0     N24478   2.724   5.390   9.648 -0.4969 -0.0283  0.2587
  178MOL0     C24479   1.788   5.596  10.311 -0.4327  0.4255  0.1545
  178MOL0     C24480   1.702   5.621  10.420  0.0424 -0.6031 -0.4451
  178MOL0     C24481   1.389   5.526  10.769 -0.4805 -0.1781  0.0616
  178MOL0     C24482   1.388   5.492  10.903  0.0358  0.3079 -0.2026
  178MOL0     C24483   1.283   5.545  10.985  0.4425  0.6294  0.0448
  178MOL0     C24484   1.178   5.604  10.929  0.5389  0.6858  0.1515
  178MOL0     O24485   1.068   5.645  10.997  0.2039  0.1868 -0.2390
  178MOL0     C24486   1.082   5.724  11.118 -0.8033  0.2198  0.3047
  178MOL0     C24487   0.949   5.709  11.195  0.2755 -0.2256 -0.9358
  178MOL0     C24488   0.825   5.736  11.112 -0.6931  0.1122 -0.0967
  178MOL0     C24489   0.690   5.698  11.175  1.0831  0.7182 -0.2921
  178MOL0     C24490   0.663   5.788  11.292  0.7110  0.0678 -0.2383
  178MOL0     C24491   0.623   5.848  11.386  0.3917 -0.7876  0.5478
  178MOL0     C24492   1.162   5.624  10.792 -0.5629 -1.1100 -0.4934
  178MOL0     C24493   1.269   5.576  10.716 -0.4029 -1.2244 -0.0273
  178MOL0     C24494   1.254   5.594  10.566  0.2914 -0.0345 -0.6101
  178MOL0     H24495   1.527   5.332  10.428  1.5006 -2.3236 -1.7547
  178MOL0     H24496   1.680   5.283  10.254  2.1499 -1.4721  1.5223
  178MOL0     H24497   1.913   5.624  10.043 -0.1912  0.2068 -0.8180
  178MOL0     H24498   1.772   5.549   9.988 -1.0745 -3.1649  0.7390
  178MOL0     H24499   2.055   5.449   9.959  0.3513  0.7591  1.4648
  178MOL0     H24500   1.918   5.351   9.918 -0.1166  0.2757  2.3077
  178MOL0     H24501   1.865   5.547   9.744 -0.8720 -0.9015  1.5735
  178MOL0     H24502   2.019   5.621   9.811  0.8518  0.2432 -1.3726
  178MOL0     H24503   2.132   5.395   9.762  1.8744 -0.4876 -3.2462
  178MOL0     H24504   1.994   5.362   9.660 -0.7217  0.3843 -0.4102
  178MOL0     H24505   2.066   5.596   9.542  0.7378  1.8628  1.7268
  178MOL0     H24506   2.150   5.444   9.513 -0.2140  0.5235 -1.2831
  178MOL0     H24507   2.305   5.631   9.562 -0.0813 -1.2887 -0.9022
  178MOL0     H24508   2.230   5.637   9.727 -1.0340 -0.5535  0.3928
  178MOL0     H24509   2.327   5.381   9.615  1.8468 -1.7132  1.5192
  178MOL0     H24510   2.344   5.422   9.786  1.9307 -0.7756  0.4944
  178MOL0     H24511   2.517   5.534   9.553 -0.5415 -1.9405 -0.4044
  178MOL0     H24512   2.540   5.555   9.730 -2.0628 -0.1588  1.1461
  178MOL0     H24513   2.465   5.208   9.733 -1.3132  1.5786 -1.8730
  178MOL0     H24514   2.814   5.031   9.730 -0.0475 -1.9164  1.4407
  178MOL0     H24515   2.654   4.977   9.721  0.0874  1.2611 -1.9888
  178MOL0     H24516   2.766   4.935   9.932  4.4865  0.7877 -0.4464
  178MOL0     H24517   2.784   5.107   9.975 -0.5623 -0.8099  1.2937
  178MOL0     H24518   2.538   5.138   9.977  2.6054  1.0853 -0.9649
  178MOL0     H24519   2.527   4.958   9.944  0.3830 -0.9467 -0.3864
  178MOL0     H24520   2.601   4.893  10.156 -0.6476  0.2431  0.3520
  178MOL0     H24521   2.695   5.039  10.184 -0.8968  1.8441  1.4903
  178MOL0     H24522   2.417   4.796  10.331 -2.3605  1.3643 -1.5031
  178MOL0     H24523   2.350   4.655  10.494  0.8647  1.3395 -1.5392
  178MOL0     H24524   2.278   4.726  10.636  0.3235 -0.5603 -0.3288
  178MOL0     H24525   2.451   4.680  10.643  3.3953  0.1813 -2.6084
  178MOL0     H24526   2.620   4.997  11.032 -2.0451 -2.9298 -0.7474
  178MOL0     H24527   2.599   5.034  11.275  1.0313  0.7554 -2.2341
  178MOL0     H24528   2.232   5.217  11.454 -1.5041 -1.7132  0.0837
  178MOL0     H24529   2.249   5.041  11.438 -1.9899  0.8444 -0.5985
  178MOL0     H24530   2.407   5.049  11.631 -0.0432 -0.8197 -0.5430
  178MOL0     H24531   2.338   5.209  11.668  0.1515 -2.4612  0.6070
  178MOL0     H24532   2.181   4.955  11.628 -3.2451  1.8113 -1.2459
  178MOL0     H24533   2.103   5.107  11.665 -1.3317 -1.5373 -2.0189
  178MOL0     H24534   2.249   5.117  11.865  2.6699 -0.6405  0.9464
  178MOL0     H24535   2.303   4.946  11.835  0.0987  0.8010 -0.7848
  178MOL0     H24536   2.022   5.043  11.885 -3.3987 -2.9304 -0.2906
  178MOL0     H24537   2.045   4.886  11.835 -2.2051  0.1946  0.9762
  178MOL0     H24538   2.024   4.883  12.071  0.0389  1.8314  0.9183
  178MOL0     H24539   2.163   4.988  12.091  2.5718  1.0945 -2.0266
  178MOL0     H24540   2.325   4.828  12.043  0.7053 -1.1277 -0.0883
  178MOL0     H24541   2.221   4.737  11.940  2.0533 -0.3001 -0.4251
  178MOL0     H24542   2.083   4.661  12.141  1.0157 -2.2311  0.3759
  178MOL0     H24543   2.197   4.748  12.245  4.0193 -2.2995  1.6277
  178MOL0     H24544   2.253   5.262  11.221 -1.5037 -3.1076  1.1517
  178MOL0     H24545   2.261   5.227  10.978  0.6877  1.7658  1.2506
  178MOL0     H24546   2.500   5.183  10.628 -1.3069  0.7230 -1.5512
  178MOL0     H24547   2.537   5.207  10.381 -1.7067  2.4708  1.8602
  178MOL0     H24548   1.868   5.666  10.289  0.1275  0.9955  3.4387
  178MOL0     H24549   1.710   5.711  10.480 -0.8319 -0.8283  0.0250
  178MOL0     H24550   1.458   5.419  10.942 -1.6656 -0.6573  1.2012
  178MOL0     H24551   1.285   5.527  11.092 -0.0957  1.7796  0.2657
  178MOL0     H24552   1.161   5.705  11.191  0.7026 -0.4421 -1.4177
  178MOL0     H24553   1.092   5.832  11.101  2.4866  0.1955  1.4352
  178MOL0     H24554   0.952   5.786  11.272 -0.4558 -0.6745 -0.4496
  178MOL0     H24555   0.947   5.614  11.248 -2.9609 -0.9336 -2.0963
  178MOL0     H24556   0.815   5.844  11.099 -0.4739  0.4414  2.1220
  178MOL0     H24557   0.839   5.685  11.016  1.7079 -1.7857  1.1302
  178MOL0     H24558   0.709   5.602  11.222  1.8267  1.2623  0.5510
  178MOL0     H24559   0.603   5.689  11.109  0.0384  2.2578  0.8012
  178MOL0     H24560   0.576   5.907  11.462  0.5058  0.4340 -0.2977
  178MOL0     H24561   1.067   5.658  10.750  0.1307  0.4463 -0.8650
  178MOL0     H24562   1.301   5.519  10.502  0.9824  0.4559 -0.6953
  178MOL0     H24563   1.151   5.609  10.532  0.6897  1.6798 -1.1736
  178MOL0     H24564   1.301   5.684  10.526 -1.6020 -0.3954 -4.0552
  179MOL0     O24565   8.690   9.511   8.886  0.8113 -0.5001  0.1604
  179MOL0     C24566   8.668   9.627   8.919  0.4417 -0.0050 -0.4321
  179MOL0     O24567   8.717   9.734   8.857 -0.2308 -0.0889  0.0584
  179MOL0     C24568   8.835   9.725   8.792  0.6160  0.0731  0.5378
  179MOL0     C24569   8.839   9.722   8.653  0.7714  0.0243 -0.5742
  179MOL0     C24570   8.961   9.725   8.585 -0.1377  0.7092  0.0687
  179MOL0     C24571   9.078   9.736   8.653  0.0684 -0.6807  0.2100
  179MOL0     O24572   9.206   9.725   8.596  0.1845 -0.2673  0.3473
  179MOL0     C24573   9.228   9.728   8.452 -0.2122  0.1778  0.3818
  179MOL0     C24574   9.198   9.595   8.387  0.8062  0.5728  0.0852
  179MOL0     C24575   9.273   9.479   8.434 -1.1858 -0.1316  0.4681
  179MOL0     C24576   9.196   9.356   8.473 -0.4350 -0.2326 -0.3925
  179MOL0     C24577   9.124   9.373   8.604 -0.4573 -0.4082 -0.1762
  179MOL0     C24578   9.057   9.245   8.660  0.3558  0.8624  0.2470
  179MOL0     C24579   8.965   9.284   8.769  0.3207 -0.4151 -0.4479
  179MOL0     C24580   9.033   9.338   8.896 -0.4860  0.0064 -0.2206
  179MOL0     N24581   9.107   9.227   8.956  0.5860 -0.8012 -0.2290
  179MOL0     C24582   9.056   9.138   9.043 -0.1145  0.7779  0.1600
  179MOL0     C24583   9.156   9.041   9.056 -1.0919 -0.0474  0.5347
  179MOL0     C24584   9.173   8.934   9.161 -0.5044 -0.4103  0.0836
  179MOL0     C24585   9.227   8.805   9.103  0.1492  0.0497  0.5395
  179MOL0     C24586   9.137   8.732   8.993  0.1013 -0.9061  0.1964
  179MOL0     C24587   9.162   8.588   8.985 -0.0123  0.4035  0.7188
  179MOL0     O24588   9.136   8.524   9.114  0.4508  0.0571  0.2903
  179MOL0     C24589   9.015   8.462   9.129  0.5662 -0.1456 -0.1689
  179MOL0     C24590   8.936   8.391   9.044  0.2662  0.2164 -0.1391
  179MOL0     C24591   8.804   8.343   9.079 -0.9320  1.2909 -0.2838
  179MOL0     C24592   8.722   8.285   8.961  0.1255 -0.5931  0.7238
  179MOL0     C24593   8.764   8.328   9.221  1.3246  0.5713 -0.9997
  179MOL0     C24594   8.635   8.276   9.277  1.0226 -0.5802  0.2244
  179MOL0     O24595   8.536   8.223   9.194 -0.0866 -0.6316  0.2840
  179MOL0     C24596   8.438   8.139   9.229  0.2699  0.8615 -0.5232
  179MOL0     C24597   8.482   8.022   9.302 -0.3718  0.2500  0.7929
  179MOL0     C24598   8.392   7.929   9.350  0.3841 -0.2188 -0.6773
  179MOL0     C24599   8.259   7.940   9.302 -0.1541  1.2233  0.1773
  179MOL0     O24600   8.169   7.838   9.338 -0.5168 -0.3779 -0.2462
  179MOL0     C24601   8.039   7.880   9.391 -0.3261 -0.2006 -0.0131
  179MOL0     C24602   7.975   7.751   9.444  0.8199  0.9006  0.1826
  179MOL0     C24603   7.842   7.793   9.511  0.3649 -0.3775 -0.2820
  179MOL0     C24604   7.840   7.748   9.656  0.3184 -0.9709  0.2116
  179MOL0     C24605   7.707   7.775   9.732 -0.0167  0.3432 -0.4909
  179MOL0     C24606   7.733   7.760   9.885 -1.3768  0.2098  0.1683
  179MOL0     C24607   7.620   7.817   9.973 -1.1656 -0.0395  0.7546
  179MOL0     C24608   7.595   7.746  10.110  0.6591 -0.5804 -0.2642
  179MOL0    Cl24609   7.470   7.627  10.072  0.2270  0.0723  0.2760
  179MOL0     C24610   8.213   8.044   9.225  0.2954 -1.2331 -0.0181
  179MOL0     C24611   8.300   8.149   9.188  0.2342 -0.7158  0.6105
  179MOL0     O24612   8.621   8.281   9.402  0.1646 -0.3326  0.2322
  179MOL0     C24613   8.849   8.395   9.304 -0.3981  0.3397 -0.5100
  179MOL0     C24614   8.971   8.457   9.259 -0.0926 -0.3923 -0.1019
  179MOL0     N24615   9.269   9.093   8.995 -1.0188  0.5154 -0.0530
  179MOL0     N24616   9.238   9.203   8.933 -0.3066 -0.0742  0.0372
  179MOL0     C24617   9.078   9.742   8.794  0.4772 -0.0550 -0.1366
  179MOL0     C24618   8.956   9.734   8.861 -0.3340 -0.4901  0.1210
  179MOL0     C24619   8.580   9.653   9.046  0.0873 -0.0270  1.1421
  179MOL0     C24620   8.532   9.792   9.075 -0.5518 -0.6494 -1.1160
  179MOL0     C24621   8.453   9.819   9.178  0.1836 -0.2054 -0.1588
  179MOL0     C24622   8.409   9.713   9.248  0.5172  0.5398 -0.0826
  179MOL0     O24623   8.352   9.736   9.373 -0.8068  1.3797 -0.2287
  179MOL0     C24624   8.209   9.763   9.370  0.2817  0.0606  0.9346
  179MOL0     C24625   8.132   9.631   9.332  0.2936  0.4386 -0.5443
  179MOL0     C24626   8.144   9.524   9.443 -0.2857  0.6622  1.0765
  179MOL0     C24627   8.050   9.402   9.407 -0.0239  0.6458  0.7017
  179MOL0     C24628   8.110   9.318   9.300  0.2345  0.0832 -0.3215
  179MOL0     C24629   8.167   9.245   9.211  0.9589 -0.3126 -0.2205
  179MOL0     C24630   8.444   9.587   9.234  0.7969 -0.3193  0.2210
  179MOL0     C24631   8.532   9.550   9.132  0.9847  0.0086 -0.3221
  179MOL0     C24632   8.573   9.404   9.123 -0.1349  0.1949  0.3078
  179MOL0     H24633   8.751   9.717   8.590  0.6535  0.1826 -0.4229
  179MOL0     H24634   8.951   9.714   8.478 -0.1406 -2.6995  0.3287
  179MOL0     H24635   9.335   9.739   8.434 -0.3559 -0.8758 -1.2763
  179MOL0     H24636   9.171   9.809   8.407 -2.7955 -0.0619  2.9193
  179MOL0     H24637   9.092   9.573   8.399  0.9595 -0.1988  0.0749
  179MOL0     H24638   9.219   9.602   8.280  2.0886 -3.4239 -0.0867
  179MOL0     H24639   9.340   9.452   8.351  0.9369  3.3704  0.8359
  179MOL0     H24640   9.341   9.514   8.513 -0.4976 -0.0398 -0.1518
  179MOL0     H24641   9.122   9.332   8.396  1.6604  2.0056 -3.3120
  179MOL0     H24642   9.278   9.285   8.490 -0.1398  0.5358  1.6581
  179MOL0     H24643   9.048   9.452   8.600  2.2073  2.6949  3.6292
  179MOL0     H24644   9.207   9.407   8.666 -0.3250 -0.3631 -0.3784
  179MOL0     H24645   9.007   9.199   8.574  0.1561  1.9741 -0.2422
  179MOL0     H24646   9.136   9.181   8.699  1.8955  1.0386 -2.3320
  179MOL0     H24647   8.898   9.200   8.791 -0.3444 -0.8887 -3.7051
  179MOL0     H24648   8.902   9.365   8.729 -1.3142 -1.1213  0.6004
  179MOL0     H24649   9.095   9.421   8.861 -1.0526 -0.2892 -2.0523
  179MOL0     H24650   8.963   9.373   8.972  0.1238 -2.8097  1.8320
  179MOL0     H24651   8.968   9.154   9.105 -2.0969 -0.2870 -2.2233
  179MOL0     H24652   9.083   8.912   9.219 -0.5977 -1.8208 -0.5608
  179MOL0     H24653   9.258   8.958   9.225  0.9484 -2.5621 -0.9276
  179MOL0     H24654   9.329   8.817   9.066  1.1582 -4.1547  1.4608
  179MOL0     H24655   9.231   8.737   9.189 -1.7750 -1.8492 -0.7954
  179MOL0     H24656   9.030   8.742   9.013 -0.2850 -1.3410 -1.5313
  179MOL0     H24657   9.166   8.780   8.899 -1.1066  0.0570  0.2864
  179MOL0     H24658   9.100   8.546   8.905  1.6080 -0.9091  0.0760
  179MOL0     H24659   9.265   8.565   8.958  0.3016 -1.1523  2.9694
  179MOL0     H24660   8.966   8.355   8.946  3.0918  1.6958  0.0869
  179MOL0     H24661   8.773   8.298   8.865 -2.7395 -2.7734 -1.2857
  179MOL0     H24662   8.619   8.322   8.963 -0.0003 -0.8971  0.2079
  179MOL0     H24663   8.715   8.176   8.958 -1.6962 -0.5035 -0.2496
  179MOL0     H24664   8.589   8.030   9.318 -0.4241  2.0301  0.5114
  179MOL0     H24665   8.425   7.843   9.406 -2.0689 -2.0686 -1.8546
  179MOL0     H24666   8.057   7.944   9.478  0.8310 -0.4285 -0.0743
  179MOL0     H24667   7.977   7.932   9.317 -1.3301  1.1188  1.6638
  179MOL0     H24668   7.951   7.690   9.356  0.4387  0.3073  0.6873
  179MOL0     H24669   8.046   7.696   9.506  0.5416 -0.3614 -0.5803
  179MOL0     H24670   7.768   7.742   9.448  2.6200  1.1516 -4.5698
  179MOL0     H24671   7.822   7.899   9.524  1.7706 -0.3836  2.4515
  179MOL0     H24672   7.913   7.799   9.719 -1.5184  1.1660  0.7560
  179MOL0     H24673   7.863   7.641   9.663  0.3994 -0.9334  0.5428
  179MOL0     H24674   7.657   7.871   9.722 -2.2123 -0.5802  0.9101
  179MOL0     H24675   7.631   7.704   9.699 -1.9030  0.7758  2.6018
  179MOL0     H24676   7.832   7.796   9.913 -0.4343 -0.9639 -1.5207
  179MOL0     H24677   7.738   7.651   9.891  0.8825 -0.2177 -4.8940
  179MOL0     H24678   7.530   7.815   9.911  0.2156 -2.0454 -1.3762
  179MOL0     H24679   7.648   7.922   9.985 -4.3310  0.7198  2.4428
  179MOL0     H24680   7.549   7.817  10.179  1.3068  0.0424 -0.4684
  179MOL0     H24681   7.669   7.688  10.166  0.8978 -0.5638 -0.5604
  179MOL0     H24682   8.114   8.034   9.184  0.3119  0.0276 -0.4249
  179MOL0     H24683   8.266   8.222   9.115  1.8436 -0.6217 -0.0968
  179MOL0     H24684   8.821   8.420   9.405 -0.2592  0.7013 -0.5572
  179MOL0     H24685   9.030   8.506   9.335 -2.2728  0.6982  0.9790
  179MOL0     H24686   9.169   9.742   8.853  1.2937 -2.4781 -1.2408
  179MOL0     H24687   8.953   9.720   8.969 -0.1521  3.9451  0.8955
  179MOL0     H24688   8.563   9.877   9.014  0.3654  1.1797  1.6818
  179MOL0     H24689   8.436   9.919   9.216  0.5022 -1.4942  3.8543
  179MOL0     H24690   8.172   9.804   9.464  2.6723  1.6330  1.2732
  179MOL0     H24691   8.180   9.829   9.288 -2.2296 -0.3648  1.3844
  179MOL0     H24692   8.143   9.585   9.233 -0.5288 -1.3171  0.1414
  179MOL0     H24693   8.032   9.672   9.345  0.0349 -0.4256  0.3196
  179MOL0     H24694   8.248   9.491   9.449 -0.4538 -0.2095 -0.1882
  179MOL0     H24695   8.114   9.564   9.540 -0.3703  0.7759  1.0026
  179MOL0     H24696   7.952   9.442   9.376 -0.9317 -2.8143 -1.4588
  179MOL0     H24697   8.037   9.351   9.503 -1.5884  0.1045  0.2392
  179MOL0     H24698   8.216   9.185   9.138 -2.1427 -2.6837 -0.5613
  179MOL0     H24699   8.397   9.510   9.295 -0.2581 -1.7659 -2.2942
  179MOL0     H24700   8.682   9.409   9.115 -0.1787  1.1138  0.2114
  179MOL0     H24701   8.538   9.355   9.215  0.3566  0.9508  0.9114
  179MOL0     H24702   8.522   9.361   9.037 -2.4405  4.3496 -0.6638
  180MOL0     O24703  10.372  10.186   0.859 -0.3105 -0.4161 -0.2402
  180MOL0     C24704  10.376  10.256   0.960  0.7048  0.6604  0.3923
  180MOL0     O24705  10.486  10.316   1.001 -0.6958  0.1580 -0.4711
  180MOL0     C24706  10.598  10.315   0.920  0.9465 -0.5296 -0.5698
  180MOL0     C24707  10.692  10.213   0.936  0.6670  0.5565  0.8668
  180MOL0     C24708  10.797  10.208   0.849 -0.1664  0.9504 -1.0136
  180MOL0     C24709  10.802  10.293   0.739 -0.3593 -0.6683  0.4221
  180MOL0     O24710  10.911  10.285   0.658  0.7366  1.2042 -0.3227
  180MOL0     C24711  10.888  10.243   0.533  0.1919 -0.5269  0.3781
  180MOL0     C24712  11.022  10.241   0.450  0.2226  0.9664 -0.3008
  180MOL0     C24713  11.123  10.143   0.499  0.5047 -0.6584  0.2922
  180MOL0     C24714  11.233  10.128   0.392 -1.2205  0.6791  0.4920
  180MOL0     C24715  11.293   9.992   0.414  0.3592  0.6752 -0.0057
  180MOL0     C24716  11.428   9.961   0.344  0.1981 -0.7485  0.1767
  180MOL0     C24717  11.510   9.870   0.423 -0.1921 -0.5030 -0.3900
  180MOL0     C24718  11.650   9.857   0.373 -0.0900 -0.5744 -0.1313
  180MOL0     N24719  11.737   9.964   0.435  0.5625  0.0086 -0.4154
  180MOL0     C24720  11.810  10.062   0.372  0.2934  1.1016  0.9933
  180MOL0     C24721  11.887  10.115   0.472 -0.1279  0.1435  0.3562
  180MOL0     C24722  11.977  10.234   0.472 -1.1923 -0.5962 -0.1310
  180MOL0     C24723  12.088  10.226   0.364  0.0334  0.7967  0.0855
  180MOL0     C24724  12.186  10.337   0.366  0.0860 -0.2530 -0.2603
  180MOL0     C24725  12.280  10.331   0.487  0.6984  0.1204  0.5374
  180MOL0     O24726  12.309  10.203   0.539 -0.1731 -0.4874 -0.6090
  180MOL0     C24727  12.331  10.196   0.675  1.1103  0.3679 -1.1936
  180MOL0     C24728  12.269  10.086   0.740 -0.0036 -0.5159  0.0865
  180MOL0     C24729  12.266  10.065   0.881 -0.4319  0.3698  0.3891
  180MOL0     C24730  12.180   9.951   0.924 -0.2393  0.9307 -0.1083
  180MOL0     C24731  12.319  10.163   0.964 -0.5374  0.1044  0.6137
  180MOL0     C24732  12.298  10.169   1.114  0.6440  0.8267 -0.4045
  180MOL0     O24733  12.396  10.234   1.176 -0.6333 -1.0519 -1.0926
  180MOL0     C24734  12.362  10.284   1.301  0.6159  0.4447  0.7684
  180MOL0     C24735  12.249  10.369   1.310  0.0447 -0.3142 -0.3522
  180MOL0     C24736  12.209  10.427   1.431 -0.9368  0.3358  0.3431
  180MOL0     C24737  12.277  10.401   1.548  0.1661  1.2439  0.7068
  180MOL0     O24738  12.236  10.444   1.671  0.6942  0.2982 -0.0497
  180MOL0     C24739  12.224  10.356   1.782  0.0838 -0.3383  0.6191
  180MOL0     C24740  12.108  10.264   1.776  0.7033  0.6111  0.4267
  180MOL0     C24741  12.135  10.128   1.695 -0.4550 -0.0112  1.3942
  180MOL0     C24742  12.017  10.037   1.747  0.0184  0.3861 -0.4657
  180MOL0     C24743  12.002   9.913   1.661  0.0165 -0.4141 -0.4758
  180MOL0     C24744  11.882   9.821   1.686 -0.6246  1.0556 -0.1976
  180MOL0     C24745  11.890   9.681   1.610 -0.4837 -0.2959 -0.9132
  180MOL0     C24746  11.764   9.597   1.627 -0.2315 -0.6362 -0.3154
  180MOL0    Cl24747  11.777   9.432   1.568 -0.0191  0.4049  0.6411
  180MOL0     C24748  12.410  10.348   1.542 -0.0959  0.0710  0.7190
  180MOL0     C24749  12.448  10.289   1.415 -0.5274 -0.0180 -0.3166
  180MOL0     O24750  12.190  10.126   1.170 -0.1088  0.2045 -0.0719
  180MOL0     C24751  12.387  10.273   0.904  1.1180 -0.5262  0.0025
  180MOL0     C24752  12.391  10.290   0.765 -0.0979 -0.3185  0.3082
  180MOL0     N24753  11.849  10.064   0.592 -0.8226 -0.0625 -0.8630
  180MOL0     N24754  11.757   9.971   0.570  0.5939 -0.4170  0.5322
  180MOL0     C24755  10.701  10.390   0.723 -0.4583  0.3697  0.7237
  180MOL0     C24756  10.599  10.406   0.814 -0.3479 -0.2898  0.2940
  180MOL0     C24757  10.249  10.263   1.041  0.7503  0.1994  0.6785
  180MOL0     C24758  10.164  10.150   1.051  0.3990  0.0775 -0.0116
  180MOL0     C24759  10.042  10.148   1.133  0.3715  0.3060  0.1771
  180MOL0     C24760   9.999  10.265   1.194  0.2540 -0.2429 -1.1988
  180MOL0     O24761   9.876  10.270   1.260 -1.1500  0.0239 -0.2300
  180MOL0     C24762   9.765  10.274   1.167 -0.0267 -0.2505  0.1812
  180MOL0     C24763   9.700  10.139   1.142 -0.1317  0.1204 -0.6409
  180MOL0     C24764   9.663  10.065   1.282  0.2217  0.7944  0.2148
  180MOL0     C24765   9.513  10.076   1.307 -0.6999  0.4971 -0.3727
  180MOL0     C24766   9.483  10.006   1.431  0.5312  0.9451 -0.1475
  180MOL0     C24767   9.455   9.949   1.535 -0.7396  0.0661 -0.9564
  180MOL0     C24768  10.079  10.382   1.180  0.4573 -1.2584 -0.0545
  180MOL0     C24769  10.204  10.380   1.113  0.3229 -0.9765  0.5597
  180MOL0     C24770  10.269  10.516   1.092  0.4802 -0.3685 -0.1780
  180MOL0     H24771  10.695  10.145   1.021 -1.3451  1.2315  1.5190
  180MOL0     H24772  10.877  10.135   0.860 -2.8226 -1.8462  1.8626
  180MOL0     H24773  10.823  10.319   0.489  0.6161 -0.1817  0.3311
  180MOL0     H24774  10.838  10.146   0.540 -1.8045  0.4410  0.2744
  180MOL0     H24775  10.995  10.225   0.345 -0.3464  2.3797 -0.3983
  180MOL0     H24776  11.066  10.339   0.432  0.6607  0.6637 -0.8883
  180MOL0     H24777  11.175  10.177   0.589  1.4922 -4.2930  1.2765
  180MOL0     H24778  11.069  10.051   0.524 -0.0096 -0.3309  0.4065
  180MOL0     H24779  11.199  10.135   0.289 -1.3021 -1.2496  0.3429
  180MOL0     H24780  11.315  10.199   0.410 -0.2306 -0.6208  1.3782
  180MOL0     H24781  11.215   9.920   0.388 -1.1735  0.1999  4.7557
  180MOL0     H24782  11.305   9.986   0.523 -1.9176 -0.7299  0.2360
  180MOL0     H24783  11.404   9.934   0.241 -1.3350  0.1532  0.2610
  180MOL0     H24784  11.485  10.054   0.340 -3.5101  1.7693  0.7086
  180MOL0     H24785  11.466   9.770   0.416  2.3765 -1.6094 -2.1007
  180MOL0     H24786  11.512   9.901   0.528 -0.7489 -0.9741 -0.2335
  180MOL0     H24787  11.693   9.759   0.397  2.9635  0.4349 -0.9443
  180MOL0     H24788  11.661   9.875   0.266  1.8089 -0.0130  0.1053
  180MOL0     H24789  11.800  10.091   0.267 -0.3512  0.7417  0.9439
  180MOL0     H24790  12.039  10.235   0.562  1.4894  1.2261 -1.8318
  180MOL0     H24791  11.919  10.325   0.456  1.4091  1.1356 -0.3337
  180MOL0     H24792  12.142  10.132   0.380 -2.2094 -0.5599  0.0930
  180MOL0     H24793  12.033  10.222   0.270 -0.2873 -1.7103  0.3277
  180MOL0     H24794  12.257  10.335   0.284 -1.3694 -0.2246 -1.5724
  180MOL0     H24795  12.125  10.428   0.359 -3.0542 -2.2650 -0.9703
  180MOL0     H24796  12.365  10.399   0.471  1.2818 -0.7561 -0.1322
  180MOL0     H24797  12.226  10.384   0.566 -1.3034 -0.6269 -0.2785
  180MOL0     H24798  12.216  10.019   0.673 -0.2288 -0.6950  0.4375
  180MOL0     H24799  12.182   9.870   0.850 -1.2442  0.5996  0.2012
  180MOL0     H24800  12.082  10.000   0.925  0.8607  3.2626  0.6980
  180MOL0     H24801  12.204   9.913   1.024 -2.9055 -0.7170  0.0281
  180MOL0     H24802  12.185  10.394   1.226  1.3097  0.4115 -1.1374
  180MOL0     H24803  12.127  10.495   1.411  0.5517  2.9514  2.5009
  180MOL0     H24804  12.315  10.300   1.806  1.3236  1.2947 -0.0529
  180MOL0     H24805  12.205  10.426   1.864  0.1935  0.2543  0.1432
  180MOL0     H24806  12.085  10.240   1.880  1.0930  0.8896  0.5824
  180MOL0     H24807  12.021  10.328   1.756 -0.5588 -0.8168  1.1632
  180MOL0     H24808  12.235  10.090   1.718  0.3971 -0.3639 -2.2582
  180MOL0     H24809  12.126  10.147   1.587 -3.7440 -0.7565  1.4371
  180MOL0     H24810  11.923  10.093   1.747 -0.1869  0.1171  1.4235
  180MOL0     H24811  12.037  10.013   1.852  1.4114  2.3787 -0.2111
  180MOL0     H24812  12.003   9.955   1.560 -0.3700  0.6287 -0.0596
  180MOL0     H24813  12.089   9.849   1.681  0.3860  0.6385  1.4821
  180MOL0     H24814  11.795   9.878   1.652 -0.3699  0.1974 -2.4097
  180MOL0     H24815  11.869   9.783   1.788 -0.6447 -4.5620 -1.9597
  180MOL0     H24816  11.976   9.629   1.652  1.6659  2.5833 -1.4252
  180MOL0     H24817  11.914   9.698   1.504  0.4248 -0.7509 -0.7831
  180MOL0     H24818  11.682   9.652   1.580 -1.2221 -0.1140  1.9006
  180MOL0     H24819  11.748   9.592   1.735 -1.1655 -0.6617 -0.4543
  180MOL0     H24820  12.491  10.337   1.613  0.3184  2.0089  0.5855
  180MOL0     H24821  12.546  10.246   1.399 -0.3650 -0.1782  0.9687
  180MOL0     H24822  12.439  10.346   0.966  0.1842  0.1320  0.0305
  180MOL0     H24823  12.447  10.371   0.721  1.7366 -2.7201 -2.1179
  180MOL0     H24824  10.710  10.460   0.641 -3.4898 -0.0037 -0.0371
  180MOL0     H24825  10.529  10.490   0.812 -1.1994 -0.9995 -1.1856
  180MOL0     H24826  10.200  10.066   0.992 -0.3706  0.5028 -1.1365
  180MOL0     H24827   9.988  10.055   1.145  0.0585  0.3350 -0.9391
  180MOL0     H24828   9.698  10.348   1.211 -0.8567  0.7006 -2.5270
  180MOL0     H24829   9.807  10.327   1.081  0.6449 -3.4574 -1.6512
  180MOL0     H24830   9.776  10.080   1.090 -2.0751 -1.1315 -2.1985
  180MOL0     H24831   9.609  10.132   1.083 -0.8166 -2.1699  0.5618
  180MOL0     H24832   9.705   9.965   1.280 -0.4076  0.5368 -0.4943
  180MOL0     H24833   9.716  10.111   1.367 -1.6743 -1.2836  2.6706
  180MOL0     H24834   9.464  10.039   1.216  0.9398 -0.6233 -0.8410
  180MOL0     H24835   9.487  10.181   1.322 -2.1239  0.6231 -3.0642
  180MOL0     H24836   9.418   9.905   1.625 -3.2541 -0.9333 -2.3637
  180MOL0     H24837  10.041  10.471   1.230 -1.3847 -0.5101 -2.5696
  180MOL0     H24838  10.314  10.528   0.993 -1.7484  0.8828 -1.1145
  180MOL0     H24839  10.187  10.589   1.086 -0.3888 -1.4075 -1.9075
  180MOL0     H24840  10.345  10.544   1.165  0.5622 -0.4088 -0.2471
  181MOL0     O24841   2.586   3.428   2.778 -0.3524  0.1201 -0.9837
  181MOL0     C24842   2.573   3.511   2.870 -0.2000 -0.6469 -0.5360
  181MOL0     O24843   2.592   3.486   3.010  0.1845 -0.2719  0.4688
  181MOL0     C24844   2.646   3.365   3.040 -0.1725  0.7863 -0.4404
  181MOL0     C24845   2.783   3.328   3.033  0.3064 -0.4919 -0.4575
  181MOL0     C24846   2.824   3.207   3.096 -0.3611  0.1478 -0.0971
  181MOL0     C24847   2.733   3.129   3.162 -0.1643 -0.4687  0.2189
  181MOL0     O24848   2.785   3.018   3.226  0.4338  0.9203  0.1819
  181MOL0     C24849   2.696   2.933   3.301  0.0629  0.4005  0.2849
  181MOL0     C24850   2.786   2.829   3.359  0.2065 -0.3403 -0.0826
  181MOL0     C24851   2.716   2.695   3.417  0.1453 -0.5835  0.8146
  181MOL0     C24852   2.640   2.701   3.548 -0.0638  0.1090  0.3392
  181MOL0     C24853   2.731   2.723   3.665 -0.4064  0.2985  1.0463
  181MOL0     C24854   2.661   2.666   3.788 -0.2468 -0.1009 -0.7571
  181MOL0     C24855   2.754   2.685   3.900  0.0440 -1.1019  0.2313
  181MOL0     C24856   2.687   2.630   4.023 -0.2208  0.0445  0.5962
  181MOL0     N24857   2.748   2.699   4.138 -0.7995  1.0950  0.9586
  181MOL0     C24858   2.713   2.825   4.184 -0.4320 -0.2716  0.4841
  181MOL0     C24859   2.801   2.844   4.286  0.0472  0.3345  0.8146
  181MOL0     C24860   2.803   2.969   4.374 -0.3869 -0.2982  0.6533
  181MOL0     C24861   2.710   2.959   4.492 -0.8389 -0.7429 -0.3892
  181MOL0     C24862   2.788   2.919   4.614 -0.3277 -0.2093 -0.4990
  181MOL0     C24863   2.720   2.941   4.748  0.5504  0.4378  0.5834
  181MOL0     O24864   2.817   2.974   4.846 -0.2303 -0.5086  0.1156
  181MOL0     C24865   2.852   2.860   4.917 -0.5319  0.0411  1.3635
  181MOL0     C24866   2.823   2.722   4.882 -0.0171 -0.1179 -0.7426
  181MOL0     C24867   2.857   2.620   4.969  0.3333 -0.9396  0.3256
  181MOL0     C24868   2.823   2.481   4.918 -0.0496 -0.0202 -0.4968
  181MOL0     C24869   2.922   2.652   5.093  0.1604  0.4368 -0.8022
  181MOL0     C24870   2.952   2.552   5.200  0.4456  1.4515  1.5536
  181MOL0     O24871   2.989   2.600   5.316  0.1331  0.7325  0.0465
  181MOL0     C24872   3.063   2.518   5.396  0.4190  0.5784 -1.3367
  181MOL0     C24873   3.197   2.506   5.365 -0.6745  1.0180  1.0145
  181MOL0     C24874   3.264   2.401   5.435 -0.5540  0.5727  0.4462
  181MOL0     C24875   3.212   2.342   5.549  0.7785  0.5451  1.6176
  181MOL0     O24876   3.294   2.264   5.622  0.3612  0.2193  0.0712
  181MOL0     C24877   3.237   2.163   5.706 -0.0483 -0.1180 -0.4733
  181MOL0     C24878   3.355   2.102   5.785 -0.9034 -0.0184 -0.4079
  181MOL0     C24879   3.465   2.053   5.692 -0.4115  0.4611  0.9809
  181MOL0     C24880   3.431   1.926   5.609 -0.1676 -1.1166 -0.9484
  181MOL0     C24881   3.547   1.890   5.512  0.2699 -0.0316  0.2630
  181MOL0     C24882   3.496   1.804   5.393 -0.6677 -0.7213 -0.2313
  181MOL0     C24883   3.425   1.671   5.444  0.0852 -0.2224  0.4699
  181MOL0     C24884   3.453   1.572   5.343  0.5020  0.3703  1.4856
  181MOL0    Cl24885   3.344   1.430   5.360  0.1437 -0.0086 -0.1853
  181MOL0     C24886   3.078   2.360   5.577  1.1465  0.0768 -0.1958
  181MOL0     C24887   3.000   2.440   5.495 -0.3047 -1.0037 -1.4338
  181MOL0     O24888   2.952   2.433   5.164 -0.2569  0.6623 -0.0336
  181MOL0     C24889   2.955   2.785   5.119 -0.1356  0.4523  0.0628
  181MOL0     C24890   2.913   2.889   5.037 -0.4209 -0.2386 -0.1983
  181MOL0     N24891   2.889   2.741   4.292 -0.5154  0.3617  0.2120
  181MOL0     N24892   2.859   2.652   4.203 -0.9117 -0.1242  0.0609
  181MOL0     C24893   2.597   3.160   3.153 -0.0211 -0.2415  1.2519
  181MOL0     C24894   2.554   3.274   3.087  0.5160  0.0763 -0.4594
  181MOL0     C24895   2.532   3.657   2.836  0.6778 -0.3201 -0.7382
  181MOL0     C24896   2.455   3.722   2.934  0.6917  0.6655  0.4168
  181MOL0     C24897   2.412   3.857   2.921  0.0397 -0.3005 -0.7274
  181MOL0     C24898   2.445   3.935   2.812  0.1503  0.4753  0.4223
  181MOL0     O24899   2.396   4.065   2.784  0.6143  0.2298  0.2516
  181MOL0     C24900   2.268   4.065   2.710  0.4708  1.6865 -0.5466
  181MOL0     C24901   2.274   4.160   2.589  1.4002 -0.0187  0.4736
  181MOL0     C24902   2.309   4.088   2.452 -0.1410  0.0094  0.1912
  181MOL0     C24903   2.306   4.181   2.334  0.7837 -0.7324  0.1206
  181MOL0     C24904   2.174   4.184   2.267 -0.3552  0.6369 -0.6957
  181MOL0     C24905   2.064   4.194   2.231  0.2068  1.2654  0.0374
  181MOL0     C24906   2.529   3.884   2.717  0.7324  0.7361  0.0941
  181MOL0     C24907   2.566   3.745   2.728 -0.4513 -0.2483  1.5862
  181MOL0     C24908   2.667   3.680   2.634  0.2410 -0.0636  0.3165
  181MOL0     H24909   2.852   3.403   2.996 -1.1791  0.2720 -1.8283
  181MOL0     H24910   2.929   3.194   3.075 -0.6815  1.1778 -2.7092
  181MOL0     H24911   2.611   2.899   3.241  0.7020 -0.1660 -0.3215
  181MOL0     H24912   2.659   2.985   3.390 -1.0265  2.3744 -1.2528
  181MOL0     H24913   2.850   2.806   3.273 -1.0844  1.1249 -1.4990
  181MOL0     H24914   2.846   2.882   3.433  1.8260 -0.5041 -1.2286
  181MOL0     H24915   2.648   2.667   3.337  0.7593  2.8962 -1.1463
  181MOL0     H24916   2.801   2.626   3.423  1.6090  0.8431 -1.8809
  181MOL0     H24917   2.560   2.775   3.547 -1.1922 -1.0796  0.1921
  181MOL0     H24918   2.587   2.607   3.563 -1.4899  1.0064  1.1453
  181MOL0     H24919   2.763   2.827   3.679 -1.9759  1.1481 -1.1777
  181MOL0     H24920   2.824   2.669   3.646 -0.4779  0.6056 -0.3145
  181MOL0     H24921   2.562   2.709   3.805 -0.0176  1.1125 -2.2776
  181MOL0     H24922   2.640   2.560   3.775 -0.1175 -0.2838  0.4055
  181MOL0     H24923   2.761   2.794   3.905  0.9924 -1.1877  1.0658
  181MOL0     H24924   2.860   2.660   3.890 -0.0033 -1.2183  0.0075
  181MOL0     H24925   2.583   2.662   4.018  0.4076  2.1067 -2.4707
  181MOL0     H24926   2.697   2.522   4.036  2.2920 -0.0227 -1.1322
  181MOL0     H24927   2.642   2.901   4.151 -0.7558 -1.0826 -0.7442
  181MOL0     H24928   2.777   3.056   4.312  2.2532 -2.3727 -3.9494
  181MOL0     H24929   2.909   2.987   4.397  0.3770 -2.1538 -1.0002
  181MOL0     H24930   2.670   3.058   4.520 -0.2796 -0.5013 -0.4341
  181MOL0     H24931   2.628   2.890   4.471  0.1799 -2.3786  0.7817
  181MOL0     H24932   2.809   2.812   4.602 -2.2028 -0.4433 -2.1631
  181MOL0     H24933   2.885   2.969   4.618  1.4225 -3.3032 -0.9092
  181MOL0     H24934   2.668   3.037   4.737 -0.6696 -0.1552  0.9130
  181MOL0     H24935   2.649   2.859   4.769 -0.6504  1.2766 -0.0784
  181MOL0     H24936   2.775   2.688   4.791 -1.9874  2.0867 -0.5950
  181MOL0     H24937   2.919   2.431   4.904  0.4599  0.8746 -0.2763
  181MOL0     H24938   2.762   2.482   4.827 -2.0552  0.4405  0.7807
  181MOL0     H24939   2.762   2.437   4.998 -0.8280  0.4732 -0.7984
  181MOL0     H24940   3.254   2.554   5.286  2.4084 -0.6342  2.0970
  181MOL0     H24941   3.367   2.385   5.408 -1.0529 -1.4648 -0.4649
  181MOL0     H24942   3.181   2.211   5.786  3.7899  1.8584  1.3099
  181MOL0     H24943   3.181   2.086   5.651  1.7631 -0.9643 -1.2545
  181MOL0     H24944   3.409   2.174   5.848 -0.1041  0.7333 -1.8943
  181MOL0     H24945   3.312   2.030   5.855 -1.6478  1.7144  0.9903
  181MOL0     H24946   3.551   2.043   5.759  1.0158  1.6521 -0.5560
  181MOL0     H24947   3.489   2.135   5.622 -2.4447 -0.5415 -1.0146
  181MOL0     H24948   3.333   1.947   5.564  0.9504  5.3559 -1.3787
  181MOL0     H24949   3.411   1.840   5.674  1.1031 -2.3771 -2.1717
  181MOL0     H24950   3.592   1.978   5.466 -0.8243  0.6395  0.4522
  181MOL0     H24951   3.623   1.829   5.562 -1.7195 -1.6714  1.4391
  181MOL0     H24952   3.588   1.782   5.337 -0.1472  3.9517 -1.6395
  181MOL0     H24953   3.418   1.853   5.334 -1.1228 -0.4390  0.5964
  181MOL0     H24954   3.317   1.686   5.453 -0.3434 -2.1335 -0.7619
  181MOL0     H24955   3.469   1.638   5.538  0.9477  0.7424  0.4217
  181MOL0     H24956   3.557   1.542   5.357  0.0929 -0.4972  2.9523
  181MOL0     H24957   3.432   1.613   5.244 -3.1387 -4.8682 -0.3652
  181MOL0     H24958   3.033   2.301   5.656 -1.7601  0.8805 -1.1135
  181MOL0     H24959   2.895   2.460   5.512  0.6039  4.7079 -0.4178
  181MOL0     H24960   3.019   2.814   5.203  0.1949 -2.1986  0.8082
  181MOL0     H24961   2.927   2.996   5.046  0.2517 -0.2119 -1.3395
  181MOL0     H24962   2.513   3.102   3.190  0.0116  1.2910  4.0472
  181MOL0     H24963   2.448   3.295   3.075  0.8989  0.4267 -4.7314
  181MOL0     H24964   2.415   3.664   3.017 -3.1404 -0.6561 -2.1016
  181MOL0     H24965   2.343   3.889   2.999 -0.7355  0.3146 -1.6313
  181MOL0     H24966   2.247   3.961   2.685  4.5039 -0.4906  3.5918
  181MOL0     H24967   2.199   4.104   2.785 -0.9054  1.4449 -1.6414
  181MOL0     H24968   2.331   4.252   2.607  0.4969  0.4599  0.9709
  181MOL0     H24969   2.172   4.197   2.580  1.3933 -0.2110 -0.2917
  181MOL0     H24970   2.414   4.059   2.463  0.1479 -0.3040 -2.6581
  181MOL0     H24971   2.244   4.001   2.441 -1.6604  0.9812  1.0527
  181MOL0     H24972   2.376   4.147   2.257  0.8517  2.9483 -1.6460
  181MOL0     H24973   2.336   4.283   2.361 -1.1288 -1.1282  4.5591
  181MOL0     H24974   1.961   4.192   2.203 -0.7274 -0.0042  3.0603
  181MOL0     H24975   2.549   3.942   2.628  1.4370  1.2562  0.5834
  181MOL0     H24976   2.754   3.634   2.682  1.4659  2.1765  0.3732
  181MOL0     H24977   2.620   3.601   2.576 -1.5452  1.0153  0.2306
  181MOL0     H24978   2.706   3.756   2.565  3.3689 -2.9321 -1.3669
  182MOL0     O24979   0.579   7.945   7.432 -0.4338 -0.5812  0.5054
  182MOL0     C24980   0.553   7.906   7.320  0.3842  0.0288 -1.0811
  182MOL0     O24981   0.619   7.799   7.265  0.4206  0.9032 -0.5187
  182MOL0     C24982   0.755   7.799   7.292 -0.0166  0.5527  0.3214
  182MOL0     C24983   0.813   7.682   7.350 -0.5850  0.0768 -0.2721
  182MOL0     C24984   0.952   7.665   7.351  0.1887 -1.4462  0.8695
  182MOL0     C24985   1.029   7.765   7.305 -0.6358  0.3752 -0.2539
  182MOL0     O24986   1.163   7.729   7.299 -0.2011  0.1559 -0.5468
  182MOL0     C24987   1.262   7.829   7.261  0.5954  0.1118  0.1464
  182MOL0     C24988   1.399   7.775   7.300  0.8193  0.1870  0.0254
  182MOL0     C24989   1.503   7.886   7.315 -0.2622 -0.4418  0.2407
  182MOL0     C24990   1.632   7.810   7.356 -0.3924 -0.3645 -0.0793
  182MOL0     C24991   1.745   7.911   7.394 -0.1649  0.8053 -0.8460
  182MOL0     C24992   1.769   7.931   7.551  0.1088  0.5258  0.0010
  182MOL0     C24993   1.856   8.050   7.568 -1.3922 -0.2516  0.8255
  182MOL0     C24994   1.903   8.060   7.708  0.8296  0.1808 -0.8647
  182MOL0     N24995   1.977   8.196   7.701  0.9423 -0.6289 -0.1275
  182MOL0     C24996   2.110   8.227   7.705  0.0697 -0.3690  0.6819
  182MOL0     C24997   2.120   8.355   7.730  0.1411  0.0666  1.0636
  182MOL0     C24998   2.248   8.443   7.736  0.2118  0.1401 -1.2001
  182MOL0     C24999   2.257   8.531   7.618 -0.3494 -0.5723  0.4706
  182MOL0     C25000   2.277   8.447   7.494 -0.5713 -0.4011 -0.5569
  182MOL0     C25001   2.285   8.545   7.367 -0.5862  0.0947 -0.3612
  182MOL0     O25002   2.160   8.605   7.338  0.1246  0.5364  0.2536
  182MOL0     C25003   2.056   8.520   7.317  0.7222 -1.2283 -0.1466
  182MOL0     C25004   2.035   8.482   7.187  0.4697 -0.0582  0.3601
  182MOL0     C25005   1.923   8.403   7.150  0.4822 -0.1936  0.3382
  182MOL0     C25006   1.914   8.380   7.004 -0.2720  1.0125 -0.2971
  182MOL0     C25007   1.829   8.373   7.254  0.2599  0.0238 -0.2266
  182MOL0     C25008   1.715   8.286   7.226  0.5189  0.3877 -0.4925
  182MOL0     O25009   1.624   8.296   7.331  0.2525 -0.0684 -0.4415
  182MOL0     C25010   1.487   8.288   7.313  1.5313  0.0538  0.5775
  182MOL0     C25011   1.421   8.270   7.187 -0.7630  0.8914  0.5335
  182MOL0     C25012   1.290   8.230   7.185 -0.6189 -0.1714 -0.4344
  182MOL0     C25013   1.206   8.224   7.301 -0.0371  0.3731 -0.6195
  182MOL0     O25014   1.068   8.205   7.302 -0.2863 -0.0447  0.2269
  182MOL0     C25015   0.998   8.318   7.357  0.4268  0.7134  0.2925
  182MOL0     C25016   0.851   8.296   7.347 -0.5769 -1.1391  0.6522
  182MOL0     C25017   0.815   8.283   7.197  0.1678  0.2692 -0.8162
  182MOL0     C25018   0.665   8.221   7.177  0.4499 -0.3668 -0.3509
  182MOL0     C25019   0.640   8.192   7.032  0.2365  0.6560  0.4355
  182MOL0     C25020   0.679   8.298   6.928  0.5099  0.5647 -0.0902
  182MOL0     C25021   0.619   8.262   6.790 -0.4919  0.6416 -0.4532
  182MOL0     C25022   0.649   8.373   6.691  0.9482 -0.4988 -0.5851
  182MOL0    Cl25023   0.820   8.411   6.679 -0.0513  0.1375 -0.6982
  182MOL0     C25024   1.273   8.255   7.420  1.0507  0.7872 -0.1568
  182MOL0     C25025   1.414   8.283   7.423 -0.2197  0.2658  0.4553
  182MOL0     O25026   1.698   8.220   7.124 -0.3790  0.6819 -0.6421
  182MOL0     C25027   1.862   8.400   7.392  0.3403  0.1252 -0.2506
  182MOL0     C25028   1.968   8.478   7.422  0.2253 -0.1135  0.4834
  182MOL0     N25029   1.994   8.400   7.748  0.4558  0.0154 -0.5749
  182MOL0     N25030   1.907   8.306   7.726  0.3680 -0.7762 -0.0357
  182MOL0     C25031   0.978   7.888   7.254 -0.0214  0.1994  0.4596
  182MOL0     C25032   0.840   7.896   7.247  1.2874 -0.1496  0.2149
  182MOL0     C25033   0.419   7.950   7.263 -0.9122  0.3306 -0.0583
  182MOL0     C25034   0.373   7.889   7.143  0.0695 -0.9740  0.3288
  182MOL0     C25035   0.258   7.919   7.079 -0.6120 -0.2522  0.6708
  182MOL0     C25036   0.184   8.030   7.117  0.1657  0.2099  0.0501
  182MOL0     O25037   0.068   8.041   7.041  0.6811 -0.3840 -0.5928
  182MOL0     C25038  -0.052   8.092   7.103 -0.9181 -0.4561  0.8975
  182MOL0     C25039  -0.178   8.089   7.024  0.0826  0.3144  0.7720
  182MOL0     C25040  -0.174   8.137   6.881 -0.8818 -0.7763  0.6042
  182MOL0     C25041  -0.303   8.151   6.802  0.6929  0.0773  0.3590
  182MOL0     C25042  -0.308   8.266   6.709 -0.0664 -0.2562 -0.9108
  182MOL0     C25043  -0.313   8.359   6.636  0.8152  0.3684  0.8021
  182MOL0     C25044   0.221   8.097   7.238  0.2798  0.6629 -0.2684
  182MOL0     C25045   0.333   8.053   7.314  1.0951  0.0711 -1.0170
  182MOL0     C25046   0.360   8.129   7.449  0.3668 -0.4885  0.1071
  182MOL0     H25047   0.752   7.599   7.386  0.9600 -0.7384  0.5849
  182MOL0     H25048   0.991   7.569   7.383  1.9481 -1.5761 -1.3584
  182MOL0     H25049   1.235   7.922   7.312 -2.2753 -0.9884  0.7954
  182MOL0     H25050   1.256   7.841   7.152 -1.9571  0.0680  0.2234
  182MOL0     H25051   1.388   7.719   7.393 -1.0200 -2.4636 -1.6409
  182MOL0     H25052   1.434   7.703   7.225  3.6815  1.3839  0.0674
  182MOL0     H25053   1.533   7.938   7.224  1.3522 -0.3499  0.7923
  182MOL0     H25054   1.487   7.955   7.399  2.3437  0.5679  0.0183
  182MOL0     H25055   1.615   7.744   7.441  2.9602 -0.2742  0.7825
  182MOL0     H25056   1.665   7.746   7.273  1.8765  1.9023 -1.0549
  182MOL0     H25057   1.722   8.003   7.341 -2.1773  2.5321  2.6332
  182MOL0     H25058   1.842   7.878   7.356 -0.2241  0.0323 -0.3635
  182MOL0     H25059   1.678   7.940   7.612  1.2585 -1.9123  2.3095
  182MOL0     H25060   1.819   7.843   7.594 -1.8367 -1.1048 -0.8892
  182MOL0     H25061   1.802   8.142   7.543 -0.9387 -0.0564  0.5514
  182MOL0     H25062   1.952   8.037   7.517 -0.7987  3.5349  0.6984
  182MOL0     H25063   1.830   8.047   7.789  1.4419 -2.9568 -0.7135
  182MOL0     H25064   1.973   7.979   7.732  0.5043  0.3257  0.6711
  182MOL0     H25065   2.195   8.163   7.685 -0.1078 -0.1708 -0.9029
  182MOL0     H25066   2.335   8.378   7.753 -0.2442 -0.0486  0.6544
  182MOL0     H25067   2.247   8.512   7.821 -1.0363 -0.4266 -0.7299
  182MOL0     H25068   2.168   8.594   7.612 -0.6307 -1.1044 -1.5207
  182MOL0     H25069   2.347   8.593   7.613 -0.7570  0.2084  2.1140
  182MOL0     H25070   2.377   8.405   7.488  0.8943  2.9166 -1.7942
  182MOL0     H25071   2.200   8.369   7.487 -0.7345 -0.3033  0.1227
  182MOL0     H25072   2.355   8.624   7.393 -2.2426  2.2016 -1.9472
  182MOL0     H25073   2.334   8.501   7.280  1.0523  0.0474  0.5405
  182MOL0     H25074   2.102   8.515   7.109 -0.8276  1.1828 -0.2806
  182MOL0     H25075   1.976   8.446   6.942 -2.7637  0.5345 -3.5854
  182MOL0     H25076   1.808   8.397   6.981 -0.5266 -2.7375 -2.7430
  182MOL0     H25077   1.938   8.276   6.982 -1.3863  0.2678  1.7648
  182MOL0     H25078   1.476   8.290   7.095 -0.0141  3.0526  1.3790
  182MOL0     H25079   1.247   8.211   7.087  0.9802 -0.6459 -1.0719
  182MOL0     H25080   1.013   8.332   7.465 -0.6424  0.2280  0.5149
  182MOL0     H25081   1.023   8.412   7.307 -3.2557  1.7852  0.2003
  182MOL0     H25082   0.816   8.214   7.410 -1.3709  0.5890  2.5936
  182MOL0     H25083   0.801   8.382   7.392  0.8476  0.5739 -0.8589
  182MOL0     H25084   0.882   8.207   7.156  0.3431  1.2946 -2.5563
  182MOL0     H25085   0.826   8.381   7.148 -0.5213  0.0834 -1.3646
  182MOL0     H25086   0.588   8.293   7.210 -0.1701  0.1839 -2.8000
  182MOL0     H25087   0.665   8.126   7.231  0.3781 -0.8083 -1.1182
  182MOL0     H25088   0.706   8.109   7.007 -1.0862  0.4843 -3.0089
  182MOL0     H25089   0.540   8.152   7.018  1.5333 -2.3925 -0.8504
  182MOL0     H25090   0.788   8.310   6.921  0.5048  0.9215  0.4036
  182MOL0     H25091   0.634   8.393   6.956 -1.6561 -0.2653 -0.5758
  182MOL0     H25092   0.511   8.260   6.809 -0.1069  1.2315  2.0819
  182MOL0     H25093   0.654   8.167   6.749 -2.4763 -0.4121  0.1690
  182MOL0     H25094   0.588   8.460   6.718 -0.7788 -1.9750  0.5145
  182MOL0     H25095   0.613   8.343   6.592  0.6320  2.3403 -1.4323
  182MOL0     H25096   1.213   8.253   7.510 -2.9778  1.0610 -2.6072
  182MOL0     H25097   1.460   8.307   7.518  0.7705  0.6579 -0.1110
  182MOL0     H25098   1.798   8.379   7.477  0.3866 -0.0538 -0.2615
  182MOL0     H25099   1.980   8.496   7.528 -3.1750  0.6277  0.8348
  182MOL0     H25100   1.044   7.962   7.211  1.1804  0.0226  1.9283
  182MOL0     H25101   0.798   7.981   7.193 -0.4679 -0.9634  0.2266
  182MOL0     H25102   0.423   7.808   7.090 -0.6194 -0.7214 -0.7187
  182MOL0     H25103   0.228   7.863   6.991 -1.9633  0.4411  0.6639
  182MOL0     H25104  -0.061   8.036   7.196  3.0621 -1.8550  0.6108
  182MOL0     H25105  -0.044   8.201   7.118 -2.4458 -0.0991 -0.5314
  182MOL0     H25106  -0.252   8.143   7.085 -3.6509 -2.5697 -0.8105
  182MOL0     H25107  -0.218   7.988   7.010 -0.0331  0.6896 -2.4448
  182MOL0     H25108  -0.137   8.239   6.872  0.4892 -1.3744 -1.3179
  182MOL0     H25109  -0.103   8.072   6.828  1.3897  0.5703  1.8373
  182MOL0     H25110  -0.385   8.175   6.869  1.2253 -1.5079  1.6614
  182MOL0     H25111  -0.337   8.060   6.752 -2.2646  3.0493 -3.7205
  182MOL0     H25112  -0.333   8.452   6.586  3.5038  1.6994  2.0373
  182MOL0     H25113   0.157   8.177   7.273  0.4755  1.1780 -1.0653
  182MOL0     H25114   0.439   8.201   7.427 -1.1150  1.0676 -0.2956
  182MOL0     H25115   0.278   8.194   7.480  0.1459 -1.7707  2.4068
  182MOL0     H25116   0.391   8.059   7.527  0.0880 -2.5611 -1.5489
  183MOL0     O25117   5.041   8.054  10.340 -0.6136  0.2578  0.3657
  183MOL0     C25118   5.088   7.954  10.396 -0.2408  0.0106 -0.0172
  183MOL0     O25119   5.047   7.831  10.367  0.0389  0.6145  0.0847
  183MOL0     C25120   4.977   7.829  10.244  0.7626 -0.8030 -1.2131
  183MOL0     C25121   5.043   7.794  10.127  0.8567 -1.1647  0.7652
  183MOL0     C25122   4.977   7.791  10.005  0.8934  0.0079  0.9550
  183MOL0     C25123   4.832   7.794  10.006 -1.2216 -0.0236  0.0655
  183MOL0     O25124   4.759   7.775   9.896  0.1315 -0.7948  0.0710
  183MOL0     C25125   4.622   7.732   9.904  0.6064  0.3160  0.5236
  183MOL0     C25126   4.595   7.703   9.760  0.8774  0.3613 -0.3998
  183MOL0     C25127   4.457   7.638   9.750  0.1868 -0.6204  0.0966
  183MOL0     C25128   4.438   7.615   9.601 -0.7322 -1.1236  0.6523
  183MOL0     C25129   4.319   7.516   9.583 -0.4122 -0.8449  0.1688
  183MOL0     C25130   4.277   7.499   9.440  0.2524 -0.0187  0.1383
  183MOL0     C25131   4.144   7.437   9.415  0.3125 -0.6558  0.5593
  183MOL0     C25132   4.014   7.508   9.465 -0.2339 -0.3585  0.3016
  183MOL0     N25133   4.013   7.648   9.416 -0.3900  0.7833  0.5052
  183MOL0     C25134   4.032   7.746   9.506 -0.7718  0.6378 -0.1908
  183MOL0     C25135   4.038   7.855   9.425 -0.1470 -0.8375  0.4745
  183MOL0     C25136   4.042   7.995   9.481 -0.2082 -1.2502 -0.1240
  183MOL0     C25137   4.152   8.077   9.415 -0.1127 -1.0647 -0.6936
  183MOL0     C25138   4.287   8.012   9.407  0.8806  0.4104  0.8591
  183MOL0     C25139   4.402   8.107   9.349 -0.3495 -0.3167  0.0501
  183MOL0     O25140   4.364   8.162   9.220 -0.2425  0.1204 -0.2164
  183MOL0     C25141   4.462   8.229   9.155 -0.4308  1.1498 -0.1544
  183MOL0     C25142   4.585   8.268   9.216 -0.1558 -0.8040 -0.8024
  183MOL0     C25143   4.681   8.351   9.144  0.2536  1.1920 -0.3935
  183MOL0     C25144   4.805   8.397   9.211  0.6845  0.1139  0.0721
  183MOL0     C25145   4.641   8.385   9.010  0.0017  0.8366 -1.0422
  183MOL0     C25146   4.721   8.475   8.939 -0.1333  0.8820  0.3562
  183MOL0     O25147   4.666   8.591   8.872 -0.0527  0.8116  0.2143
  183MOL0     C25148   4.748   8.673   8.802  0.2961 -0.7221  0.2886
  183MOL0     C25149   4.846   8.748   8.863  0.8451  0.2129  0.1392
  183MOL0     C25150   4.913   8.849   8.795  0.2648  0.3951 -0.1870
  183MOL0     C25151   4.892   8.874   8.655  0.4805  0.5964 -0.4320
  183MOL0     O25152   4.940   8.977   8.585 -0.8272  0.3113 -0.1007
  183MOL0     C25153   4.954   9.096   8.665 -0.2914 -1.1034  0.2987
  183MOL0     C25154   5.012   9.203   8.580 -0.6169 -0.1010 -0.5914
  183MOL0     C25155   4.906   9.250   8.477 -0.0511 -0.8112 -0.3514
  183MOL0     C25156   4.945   9.379   8.404  0.4123  0.3120  0.1243
  183MOL0     C25157   4.824   9.429   8.319  1.1699  0.3580 -1.0683
  183MOL0     C25158   4.725   9.509   8.405 -0.4734 -0.0378  0.0008
  183MOL0     C25159   4.783   9.647   8.433 -0.7698 -0.1017 -0.0666
  183MOL0     C25160   4.702   9.736   8.535 -0.3250  0.1732  0.0383
  183MOL0    Cl25161   4.714   9.660   8.690 -0.2652 -0.4818 -0.4010
  183MOL0     C25162   4.782   8.799   8.595 -0.0320 -0.3288 -0.6787
  183MOL0     C25163   4.718   8.692   8.668  0.3365  0.1840  0.0527
  183MOL0     O25164   4.838   8.437   8.927  0.5440  0.3788 -0.3489
  183MOL0     C25165   4.514   8.346   8.951 -0.5230  0.2306  0.1850
  183MOL0     C25166   4.434   8.261   9.023 -0.5739 -0.0928  1.2162
  183MOL0     N25167   4.036   7.813   9.291 -0.6906  0.4818  0.7804
  183MOL0     N25168   4.025   7.684   9.291 -0.1070 -0.4271  0.5920
  183MOL0     C25169   4.766   7.828  10.124 -0.1413  0.9180 -0.0439
  183MOL0     C25170   4.837   7.845  10.245  0.2432  0.1606  0.4985
  183MOL0     C25171   5.182   7.985  10.514  0.0985  0.4151 -0.2295
  183MOL0     C25172   5.271   8.091  10.500  0.1063  0.6840 -0.1244
  183MOL0     C25173   5.361   8.120  10.601  0.4012  0.4093  0.2187
  183MOL0     C25174   5.360   8.048  10.724  0.1956  0.3960  0.8305
  183MOL0     O25175   5.453   8.075  10.819 -0.0279  0.3988 -0.1184
  183MOL0     C25176   5.531   8.197  10.795  0.4524  0.5173  0.7004
  183MOL0     C25177   5.619   8.224  10.907  0.0323  0.2365 -0.1264
  183MOL0     C25178   5.541   8.239  11.040 -0.6242  0.6424 -0.0556
  183MOL0     C25179   5.646   8.253  11.154 -0.3695 -0.1514  0.2166
  183MOL0     C25180   5.724   8.129  11.178  0.5375 -0.3642 -0.0408
  183MOL0     C25181   5.789   8.026  11.211 -1.0805 -0.7096  0.3786
  183MOL0     C25182   5.269   7.946  10.738 -0.2094  0.6431  0.2523
  183MOL0     C25183   5.178   7.912  10.637  0.4398  0.5330  0.0918
  183MOL0     C25184   5.080   7.790  10.657 -0.2848 -0.8041 -0.6653
  183MOL0     H25185   5.149   7.771  10.126  0.4952 -3.5399 -3.1694
  183MOL0     H25186   5.030   7.783   9.910 -0.7318  2.5496 -0.2746
  183MOL0     H25187   4.553   7.811   9.934 -0.5351  0.6657 -2.6781
  183MOL0     H25188   4.610   7.642   9.965  3.0931  0.0330  0.7057
  183MOL0     H25189   4.590   7.799   9.708  1.6618  1.4576  1.4727
  183MOL0     H25190   4.667   7.634   9.714  0.4450 -0.2019 -0.2460
  183MOL0     H25191   4.471   7.542   9.801 -4.1151 -0.1430  2.7897
  183MOL0     H25192   4.375   7.694   9.798  1.1258  1.7958 -0.9631
  183MOL0     H25193   4.416   7.710   9.551  1.2181 -1.0902 -0.2333
  183MOL0     H25194   4.519   7.571   9.542  0.6651 -0.5836  2.0874
  183MOL0     H25195   4.238   7.562   9.641  0.9415 -0.7836  2.1164
  183MOL0     H25196   4.341   7.425   9.640 -1.0782  0.2572  2.2834
  183MOL0     H25197   4.278   7.596   9.389 -0.2709 -0.1986 -0.2285
  183MOL0     H25198   4.348   7.435   9.386  0.0134  0.5831 -0.9216
  183MOL0     H25199   4.137   7.343   9.470 -3.6935 -1.0918 -0.3835
  183MOL0     H25200   4.135   7.410   9.309  1.3135 -1.7683  0.7379
  183MOL0     H25201   3.927   7.449   9.435  0.5431 -0.6447 -1.4736
  183MOL0     H25202   4.015   7.519   9.574  2.8370  1.5637  0.1940
  183MOL0     H25203   4.035   7.740   9.614 -1.6154  0.2847 -0.1762
  183MOL0     H25204   4.058   7.984   9.588  0.8250  1.2564  0.0455
  183MOL0     H25205   3.946   8.046   9.466  0.1735 -1.1720 -2.9296
  183MOL0     H25206   4.120   8.110   9.316 -0.5434 -1.0569 -0.5554
  183MOL0     H25207   4.178   8.152   9.490 -2.6955 -1.6498  0.9157
  183MOL0     H25208   4.318   7.969   9.502  0.4952 -2.2745 -0.1521
  183MOL0     H25209   4.286   7.934   9.330  0.9364  0.7822  0.4720
  183MOL0     H25210   4.420   8.198   9.406  1.1997  0.1119 -1.0548
  183MOL0     H25211   4.492   8.047   9.333 -0.0476 -0.0781  0.8047
  183MOL0     H25212   4.611   8.251   9.320 -0.2352 -1.2164 -0.8476
  183MOL0     H25213   4.790   8.504   9.227 -2.4289 -0.0118 -1.2043
  183MOL0     H25214   4.887   8.377   9.141 -0.3201  2.3024 -1.8804
  183MOL0     H25215   4.824   8.333   9.297  2.0181 -3.4228 -2.6164
  183MOL0     H25216   4.863   8.755   8.970 -0.1217 -0.7956  0.3675
  183MOL0     H25217   4.990   8.903   8.849  0.4154  1.4238 -1.3888
  183MOL0     H25218   4.856   9.119   8.707 -0.6435 -1.4903 -0.2937
  183MOL0     H25219   5.020   9.081   8.751 -1.0749 -0.5383  1.0117
  183MOL0     H25220   5.034   9.279   8.656  0.0414 -1.9697  1.1640
  183MOL0     H25221   5.101   9.179   8.522 -1.9533  0.6401 -3.0812
  183MOL0     H25222   4.812   9.265   8.532 -0.3099 -0.5546 -0.8527
  183MOL0     H25223   4.877   9.180   8.399 -5.1529  0.0259  0.4237
  183MOL0     H25224   5.032   9.346   8.347 -2.8023 -6.4816 -1.8325
  183MOL0     H25225   4.988   9.450   8.476  0.1804 -0.1522  0.7337
  183MOL0     H25226   4.854   9.506   8.248 -0.9426  2.5553  0.2430
  183MOL0     H25227   4.771   9.340   8.282 -4.2351  1.6397  2.3417
  183MOL0     H25228   4.707   9.456   8.498  1.4592 -0.7912 -0.0026
  183MOL0     H25229   4.633   9.526   8.348  1.8455  2.7940 -3.3512
  183MOL0     H25230   4.783   9.704   8.340  3.2385  1.8823  0.8807
  183MOL0     H25231   4.884   9.658   8.474  0.0512  1.0168 -2.2206
  183MOL0     H25232   4.597   9.747   8.508 -0.0101 -0.1929 -1.4863
  183MOL0     H25233   4.746   9.836   8.538 -0.2470  0.1208  0.9138
  183MOL0     H25234   4.754   8.817   8.491 -0.5961  0.5313 -0.3892
  183MOL0     H25235   4.642   8.632   8.619 -0.1920  0.4871  0.4861
  183MOL0     H25236   4.494   8.375   8.848 -0.3535 -1.2265 -0.2911
  183MOL0     H25237   4.344   8.220   8.978  0.3358 -2.3411  1.3312
  183MOL0     H25238   4.661   7.851  10.133  0.1712  2.6189 -0.4002
  183MOL0     H25239   4.788   7.845  10.342 -2.4915 -4.6154 -0.5943
  183MOL0     H25240   5.262   8.148  10.408  1.6022 -0.5352 -1.0772
  183MOL0     H25241   5.420   8.205  10.569  0.1352  1.4398  2.3566
  183MOL0     H25242   5.602   8.192  10.712  0.4803  2.5582  0.5523
  183MOL0     H25243   5.465   8.283  10.784 -0.1864 -0.2005 -1.5338
  183MOL0     H25244   5.662   8.323  10.888 -1.7752  1.1121  0.1307
  183MOL0     H25245   5.703   8.156  10.921 -0.5010 -0.1140  1.6161
  183MOL0     H25246   5.473   8.324  11.033 -3.1360 -1.2529  0.0137
  183MOL0     H25247   5.482   8.147  11.048 -2.8787  1.6396 -3.4066
  183MOL0     H25248   5.597   8.281  11.248  1.4774 -1.4073  1.6255
  183MOL0     H25249   5.713   8.331  11.118 -0.0602 -1.2036 -1.6162
  183MOL0     H25250   5.863   7.954  11.239  1.5727  1.9566  0.6531
  183MOL0     H25251   5.287   7.883  10.824 -1.4839  0.5418  0.4565
  183MOL0     H25252   4.980   7.824  10.626 -0.4909 -0.8933 -0.0982
  183MOL0     H25253   5.112   7.719  10.579  0.8488  1.0843 -2.0068
  183MOL0     H25254   5.093   7.754  10.759  3.2150  2.4317  0.2540
  184MOL0     O25255   2.409   2.980   4.592 -0.0206 -0.0963 -0.5557
  184MOL0     C25256   2.289   3.012   4.577 -0.8108 -0.2875  0.6090
  184MOL0     O25257   2.243   3.125   4.514  0.0464  0.4134 -0.4712
  184MOL0     C25258   2.317   3.214   4.433  0.1711  0.3463 -0.2925
  184MOL0     C25259   2.251   3.277   4.331 -0.3445  0.0900  0.3961
  184MOL0     C25260   2.317   3.362   4.242  0.1745 -0.2847  0.6099
  184MOL0     C25261   2.444   3.394   4.250  0.8687  0.1996 -0.3269
  184MOL0     O25262   2.485   3.502   4.178  0.1502 -0.2212  0.4362
  184MOL0     C25263   2.619   3.551   4.187 -0.2777  0.5785 -0.0133
  184MOL0     C25264   2.648   3.633   4.306 -0.0265 -1.0764 -0.3804
  184MOL0     C25265   2.784   3.709   4.310  0.1817  1.0663 -0.8245
  184MOL0     C25266   2.793   3.773   4.459  0.1751 -0.3130 -0.3021
  184MOL0     C25267   2.931   3.823   4.467  0.2829  0.8756 -0.0236
  184MOL0     C25268   2.981   3.864   4.608  0.2036 -0.0212  0.0360
  184MOL0     C25269   2.955   3.764   4.729 -0.9752 -0.5612  0.1917
  184MOL0     C25270   3.010   3.837   4.857 -0.1432  0.2272 -0.2478
  184MOL0     N25271   2.973   3.782   4.991  0.6072  0.4219  0.6134
  184MOL0     C25272   3.062   3.781   5.102 -0.0088 -0.4569  0.1743
  184MOL0     C25273   2.998   3.716   5.200  1.0235  0.0765  0.2629
  184MOL0     C25274   3.051   3.689   5.340  0.1343 -0.4723 -0.4288
  184MOL0     C25275   2.982   3.766   5.449  0.5092 -0.4224  0.1152
  184MOL0     C25276   2.989   3.922   5.451  0.1178  0.5940  0.2186
  184MOL0     C25277   3.137   3.967   5.457  0.6309 -0.0281 -0.2414
  184MOL0     O25278   3.204   3.965   5.330  0.4859  0.3443 -0.9325
  184MOL0     C25279   3.334   4.002   5.332  0.3997 -0.0683  0.0848
  184MOL0     C25280   3.406   4.045   5.441  0.6181  0.1755  0.2506
  184MOL0     C25281   3.543   4.065   5.429 -0.6319  0.4061  0.6972
  184MOL0     C25282   3.609   4.127   5.548  0.2383 -0.3881 -0.1940
  184MOL0     C25283   3.615   4.046   5.308  0.2383 -0.1629  0.1580
  184MOL0     C25284   3.757   4.056   5.280  0.0350  0.5571 -0.3951
  184MOL0     O25285   3.830   4.107   5.378  0.6345  0.3667 -0.4054
  184MOL0     C25286   3.967   4.082   5.383 -0.7223  0.4925 -0.3366
  184MOL0     C25287   4.061   4.155   5.304  0.5269 -0.0088 -0.7223
  184MOL0     C25288   4.202   4.120   5.308 -0.1539  0.0795  0.6007
  184MOL0     C25289   4.252   4.021   5.394 -0.4772  0.1314 -0.0300
  184MOL0     O25290   4.381   3.969   5.406  1.0456 -0.2427 -0.1417
  184MOL0     C25291   4.469   4.011   5.300  0.7028  0.9724  0.5107
  184MOL0     C25292   4.611   3.964   5.311 -0.1188  0.0317  0.4734
  184MOL0     C25293   4.687   3.996   5.441  0.0879  0.1528  0.1292
  184MOL0     C25294   4.669   4.136   5.494  1.1140  0.0680 -0.0888
  184MOL0     C25295   4.746   4.151   5.620  0.1993  0.6441  0.0019
  184MOL0     C25296   4.896   4.185   5.596  0.4245  0.0939  0.1960
  184MOL0     C25297   4.969   4.190   5.715 -0.7460  0.4012 -0.2645
  184MOL0     C25298   5.113   4.237   5.686  0.2171 -0.7049  0.4825
  184MOL0    Cl25299   5.203   4.127   5.575  0.4157 -0.0953  0.3757
  184MOL0     C25300   4.165   3.970   5.488  0.0017 -0.0664  0.3943
  184MOL0     C25301   4.029   3.995   5.480  0.6728 -0.4876  0.0747
  184MOL0     O25302   3.801   4.000   5.177 -0.1556 -0.4118 -0.0718
  184MOL0     C25303   3.539   3.983   5.206 -0.4394  0.4698 -0.6196
  184MOL0     C25304   3.409   3.971   5.215 -0.1117  0.0394 -0.2439
  184MOL0     N25305   2.880   3.670   5.134 -0.0725  0.4804  0.3305
  184MOL0     N25306   2.859   3.706   5.014  0.4219 -1.2329 -0.5339
  184MOL0     C25307   2.516   3.341   4.363  0.8396  0.0961  0.4188
  184MOL0     C25308   2.453   3.251   4.447 -0.2625 -0.4122  0.1675
  184MOL0     C25309   2.183   2.917   4.620 -0.1074 -0.8446  0.2236
  184MOL0     C25310   2.093   2.880   4.523  0.0778 -1.3744 -0.6276
  184MOL0     C25311   1.981   2.797   4.546 -0.3953 -0.1054 -0.6290
  184MOL0     C25312   1.978   2.729   4.666  1.0379 -0.6998 -1.0993
  184MOL0     O25313   1.889   2.625   4.678 -0.4953  0.5528 -0.5024
  184MOL0     C25314   1.903   2.503   4.598 -0.2086  0.4421 -0.4352
  184MOL0     C25315   1.773   2.448   4.544  0.0710  0.1592 -0.6416
  184MOL0     C25316   1.725   2.524   4.415 -0.8965  0.2390 -0.2584
  184MOL0     C25317   1.582   2.489   4.382  0.2927 -0.0092  0.5478
  184MOL0     C25318   1.549   2.349   4.348  0.2135  0.2415  0.0206
  184MOL0     C25319   1.544   2.229   4.329 -0.8014 -0.3894 -0.3137
  184MOL0     C25320   2.085   2.744   4.756 -0.4585 -0.8046 -0.1540
  184MOL0     C25321   2.181   2.848   4.746 -0.1633  0.3520  0.0533
  184MOL0     C25322   2.285   2.883   4.851 -0.0165 -0.1601 -0.1017
  184MOL0     H25323   2.147   3.259   4.304  0.3214 -0.3845 -2.0849
  184MOL0     H25324   2.268   3.414   4.161  0.7516 -0.8144 -0.0963
  184MOL0     H25325   2.648   3.598   4.093 -1.1210 -3.4790 -2.5377
  184MOL0     H25326   2.682   3.463   4.202  0.7764  0.6439 -3.3294
  184MOL0     H25327   2.565   3.703   4.317  1.9642  1.2696  0.7916
  184MOL0     H25328   2.654   3.566   4.392  1.0718 -2.3534 -1.3983
  184MOL0     H25329   2.864   3.637   4.290 -1.7821 -1.0606 -1.5681
  184MOL0     H25330   2.777   3.788   4.234 -3.3345 -1.0123 -2.9401
  184MOL0     H25331   2.721   3.854   4.468  0.2446 -0.3342  0.4643
  184MOL0     H25332   2.768   3.706   4.542  0.9724  2.9691  2.8300
  184MOL0     H25333   2.947   3.912   4.406  2.2692 -0.0270 -0.9288
  184MOL0     H25334   2.995   3.742   4.430 -0.0771  1.4396 -1.9556
  184MOL0     H25335   3.085   3.890   4.589  0.0196  0.0204 -0.9773
  184MOL0     H25336   2.921   3.950   4.636  1.1285  0.6084  0.1074
  184MOL0     H25337   2.999   3.664   4.723 -0.6564 -0.3642 -1.0904
  184MOL0     H25338   2.849   3.749   4.752 -0.3880  0.8520  4.9356
  184MOL0     H25339   3.117   3.859   4.853 -1.0037  5.6260 -1.0447
  184MOL0     H25340   2.968   3.938   4.859 -0.3783  0.1328 -0.3839
  184MOL0     H25341   3.164   3.819   5.106 -0.9846  2.7998 -1.6164
  184MOL0     H25342   3.159   3.705   5.352 -0.2632  0.4968  2.9432
  184MOL0     H25343   3.052   3.582   5.360 -0.8865 -0.3201  0.5691
  184MOL0     H25344   2.875   3.741   5.449  0.4587 -0.2228  0.4060
  184MOL0     H25345   3.010   3.717   5.543 -2.7207  1.1700  2.1143
  184MOL0     H25346   2.929   3.973   5.375 -1.9780 -1.6725  0.2053
  184MOL0     H25347   2.936   3.951   5.542  0.6866  1.0193  0.4160
  184MOL0     H25348   3.136   4.072   5.488  2.1682  1.0739 -3.4449
  184MOL0     H25349   3.185   3.902   5.530 -1.0361  0.2684  1.1781
  184MOL0     H25350   3.366   4.062   5.540 -2.2223  2.3176 -1.1128
  184MOL0     H25351   3.704   4.077   5.572  0.6197 -1.9660 -4.2591
  184MOL0     H25352   3.560   4.135   5.645  2.4660  0.9638  0.9100
  184MOL0     H25353   3.624   4.234   5.527 -0.0769  0.0455  1.5843
  184MOL0     H25354   4.022   4.239   5.247 -0.2413  0.6766  0.7604
  184MOL0     H25355   4.263   4.185   5.246 -2.3276 -0.9133 -2.8659
  184MOL0     H25356   4.432   3.981   5.201 -0.5188 -0.4739  1.3666
  184MOL0     H25357   4.467   4.121   5.299 -1.0299  0.9824 -0.6887
  184MOL0     H25358   4.607   3.854   5.313 -0.9964 -0.0248 -1.5327
  184MOL0     H25359   4.668   3.980   5.219  1.3810 -4.1535  0.4593
  184MOL0     H25360   4.788   3.963   5.416 -0.5825 -1.2945 -0.8301
  184MOL0     H25361   4.655   3.928   5.521 -4.1595  0.7960 -0.7891
  184MOL0     H25362   4.562   4.142   5.516  0.8124 -4.4212  0.7019
  184MOL0     H25363   4.697   4.209   5.418  4.0083  1.9200  2.5598
  184MOL0     H25364   4.691   4.218   5.688 -0.1173 -0.9980  1.4189
  184MOL0     H25365   4.741   4.058   5.676 -1.5441  1.6797  1.6963
  184MOL0     H25366   4.906   4.283   5.549 -1.0962  1.3974  2.3871
  184MOL0     H25367   4.925   4.107   5.525 -0.3930  1.1571 -1.3714
  184MOL0     H25368   4.986   4.094   5.765  1.9663  1.7892  1.7149
  184MOL0     H25369   4.916   4.249   5.790 -2.8402  2.7005 -3.3034
  184MOL0     H25370   5.166   4.246   5.781  0.7824 -2.2630  0.3310
  184MOL0     H25371   5.114   4.328   5.626  0.7158 -2.4529 -2.3458
  184MOL0     H25372   4.196   3.899   5.564  0.0783 -1.9552 -1.3133
  184MOL0     H25373   3.962   3.937   5.542 -1.4890  4.0335  2.4972
  184MOL0     H25374   3.574   3.949   5.109 -1.0283 -0.5460 -0.4853
  184MOL0     H25375   3.352   3.929   5.132 -0.5333  1.1400 -0.5254
  184MOL0     H25376   2.620   3.364   4.381  0.3660  1.8245  1.1166
  184MOL0     H25377   2.499   3.192   4.526  0.3395 -0.5792 -0.3008
  184MOL0     H25378   2.110   2.928   4.428 -0.6098 -1.4067 -0.7683
  184MOL0     H25379   1.918   2.778   4.459  1.8224 -1.5749 -2.0041
  184MOL0     H25380   1.986   2.517   4.528  4.0532 -2.2101  3.5083
  184MOL0     H25381   1.943   2.426   4.665  1.4997  3.1949  1.9242
  184MOL0     H25382   1.687   2.441   4.611 -0.6694 -0.0429 -1.5845
  184MOL0     H25383   1.779   2.342   4.519  1.9434  0.2636 -0.7794
  184MOL0     H25384   1.745   2.630   4.434  0.5542 -0.0476 -0.0709
  184MOL0     H25385   1.779   2.481   4.331  1.1866  0.6765  0.7911
  184MOL0     H25386   1.563   2.547   4.291 -2.9189  0.5352  1.4565
  184MOL0     H25387   1.524   2.526   4.468  0.9886 -1.3914  1.6477
  184MOL0     H25388   1.562   2.123   4.326  1.8224 -0.0648  1.1516
  184MOL0     H25389   2.091   2.684   4.847  2.2695 -0.0076  0.2930
  184MOL0     H25390   2.304   2.990   4.863  0.5813 -0.5761  4.2459
  184MOL0     H25391   2.254   2.836   4.944  0.1574  3.0858  1.7565
  184MOL0     H25392   2.384   2.842   4.827  1.1180  1.2936  1.7793
  185MOL0     O25393   6.385   8.965   9.089  0.9150 -0.2658  0.9322
  185MOL0     C25394   6.348   8.983   8.971  0.7284 -0.2690 -0.3468
  185MOL0     O25395   6.335   8.888   8.877 -0.5426 -0.0837 -0.1090
  185MOL0     C25396   6.359   8.763   8.928  0.3219  0.8019  0.4480
  185MOL0     C25397   6.257   8.695   8.994  0.1013 -0.6356  0.0822
  185MOL0     C25398   6.273   8.567   9.046  0.5325  0.1709  0.5216
  185MOL0     C25399   6.389   8.497   9.022 -0.4246 -0.0592 -0.0609
  185MOL0     O25400   6.409   8.368   9.062 -0.2324  0.2949  0.5013
  185MOL0     C25401   6.371   8.270   8.968  0.6431 -0.8869 -0.3341
  185MOL0     C25402   6.216   8.273   8.961 -0.9179  0.3659  0.7912
  185MOL0     C25403   6.177   8.132   8.907  0.1227  0.0253  0.3386
  185MOL0     C25404   6.021   8.125   8.893 -0.5463 -0.2788  0.2983
  185MOL0     C25405   5.979   7.981   8.861  0.1172  0.0174 -1.0420
  185MOL0     C25406   5.822   7.963   8.865 -0.4355 -0.7715  0.3912
  185MOL0     C25407   5.777   7.824   8.833  0.6646 -0.2736  0.0151
  185MOL0     C25408   5.780   7.798   8.677  0.3823 -0.3328 -0.1286
  185MOL0     N25409   5.714   7.899   8.589 -0.0921 -0.7857 -0.2706
  185MOL0     C25410   5.589   7.947   8.600  0.2537 -0.2825  0.0522
  185MOL0     C25411   5.567   8.030   8.500  0.2282 -0.2373  0.1284
  185MOL0     C25412   5.438   8.103   8.459  0.3690 -0.4202  0.7932
  185MOL0     C25413   5.313   8.007   8.423 -0.6780 -0.3595  0.3241
  185MOL0     C25414   5.335   7.959   8.284 -0.0885 -0.0863 -0.8472
  185MOL0     C25415   5.317   8.074   8.188  1.5228 -0.7414 -0.8469
  185MOL0     O25416   5.254   8.030   8.067  0.1647  0.6159 -0.0810
  185MOL0     C25417   5.328   7.935   7.991  0.5049  0.4191 -0.3447
  185MOL0     C25418   5.467   7.899   7.986 -0.5393 -0.3192  0.4839
  185MOL0     C25419   5.519   7.795   7.914 -0.8353 -0.6927  0.4801
  185MOL0     C25420   5.671   7.800   7.912 -0.3022 -0.0189 -0.0379
  185MOL0     C25421   5.434   7.712   7.837 -0.6669 -0.1965  0.6465
  185MOL0     C25422   5.486   7.601   7.747  0.3926  0.5651  0.3216
  185MOL0     O25423   5.615   7.593   7.724 -0.5367 -0.4389 -0.1499
  185MOL0     C25424   5.673   7.508   7.634  0.2112  0.4189  0.3501
  185MOL0     C25425   5.804   7.484   7.645 -0.3503  0.2552 -0.2412
  185MOL0     C25426   5.869   7.398   7.557  0.9666 -0.2596 -0.2025
  185MOL0     C25427   5.806   7.335   7.451  0.3734  0.3238  0.3933
  185MOL0     O25428   5.884   7.256   7.371 -0.6855 -0.3670 -0.1146
  185MOL0     C25429   5.816   7.139   7.319  0.1966 -0.6068  0.0568
  185MOL0     C25430   5.928   7.042   7.287  0.0717  0.0986 -0.5902
  185MOL0     C25431   5.906   6.892   7.256  0.5368 -0.0736  0.4530
  185MOL0     C25432   5.861   6.871   7.105 -0.0668  0.4099  0.0201
  185MOL0     C25433   5.797   6.735   7.111 -0.8351 -0.4068 -0.2099
  185MOL0     C25434   5.752   6.682   6.973 -1.0016 -0.0614 -0.1977
  185MOL0     C25435   5.651   6.571   6.996 -0.1552  0.2636 -0.2810
  185MOL0     C25436   5.508   6.591   6.927  0.8120 -0.5764 -0.7528
  185MOL0    Cl25437   5.421   6.687   7.034 -0.1360  0.0574  0.0449
  185MOL0     C25438   5.665   7.362   7.431 -0.8906 -0.9307  0.8120
  185MOL0     C25439   5.605   7.442   7.528 -0.3447 -0.0305  0.1173
  185MOL0     O25440   5.407   7.516   7.715  0.2662 -0.4404  0.3652
  185MOL0     C25441   5.300   7.744   7.840  0.2494  0.4797  1.1092
  185MOL0     C25442   5.245   7.852   7.915 -0.1384 -0.2532 -0.4974
  185MOL0     N25443   5.686   8.051   8.436  0.2602  0.3882  0.5485
  185MOL0     N25444   5.773   7.974   8.492  0.7595 -0.8623  0.2081
  185MOL0     C25445   6.490   8.563   8.943  0.2569  0.7538 -0.1451
  185MOL0     C25446   6.476   8.693   8.901 -0.6463 -0.2662 -0.2482
  185MOL0     C25447   6.332   9.128   8.938  0.4523 -0.6606  0.1857
  185MOL0     C25448   6.376   9.222   9.031  0.0047 -0.3587 -0.8278
  185MOL0     C25449   6.372   9.361   9.006 -1.3011 -0.3374  0.5964
  185MOL0     C25450   6.292   9.409   8.901 -0.3523 -0.4420 -0.1939
  185MOL0     O25451   6.281   9.544   8.878 -0.0402  0.2708 -0.2957
  185MOL0     C25452   6.255   9.595   8.755 -0.3365 -0.0810  0.3377
  185MOL0     C25453   6.271   9.749   8.753  0.1821  0.4269 -0.3157
  185MOL0     C25454   6.227   9.820   8.624  0.3746  0.1222  0.0132
  185MOL0     C25455   6.094   9.897   8.617 -0.1333 -0.6540  0.7055
  185MOL0     C25456   6.082  10.003   8.716  0.9890 -0.9056  0.0321
  185MOL0     C25457   6.036  10.093   8.787 -0.6137 -0.1294  0.6400
  185MOL0     C25458   6.237   9.320   8.816  0.6534  0.9978  0.6107
  185MOL0     C25459   6.261   9.176   8.825  0.0767 -0.2702  0.2464
  185MOL0     C25460   6.197   9.094   8.712 -0.5707  0.2561 -0.2259
  185MOL0     H25461   6.160   8.741   8.985  0.4925  0.5494  1.3786
  185MOL0     H25462   6.191   8.518   9.098  1.0251 -0.0703  1.0841
  185MOL0     H25463   6.418   8.177   9.000  1.4302 -0.4442 -0.1556
  185MOL0     H25464   6.418   8.289   8.871  1.0469  0.9913  0.1843
  185MOL0     H25465   6.162   8.295   9.053 -0.8089  0.5488  0.8138
  185MOL0     H25466   6.186   8.339   8.879 -1.2259 -1.1002 -0.3043
  185MOL0     H25467   6.215   8.122   8.805 -2.0514  0.7019 -0.6106
  185MOL0     H25468   6.209   8.058   8.981 -0.1476 -0.8030 -0.3485
  185MOL0     H25469   5.988   8.156   8.993  1.4342  2.4666  0.2148
  185MOL0     H25470   5.992   8.199   8.818  2.3743 -1.0517 -1.7557
  185MOL0     H25471   6.016   7.904   8.929 -3.0647 -0.6382  0.1580
  185MOL0     H25472   6.013   7.954   8.761  0.1783  2.8541 -1.8615
  185MOL0     H25473   5.786   7.985   8.966 -1.6823 -1.7655  0.1792
  185MOL0     H25474   5.776   8.036   8.799 -1.3553 -0.4541  1.3587
  185MOL0     H25475   5.671   7.820   8.863  0.5190  1.9600 -0.0806
  185MOL0     H25476   5.843   7.751   8.881  0.1109 -0.3150  0.7384
  185MOL0     H25477   5.884   7.781   8.645  1.4185 -0.1771  2.8574
  185MOL0     H25478   5.718   7.708   8.679 -0.0276 -0.0623 -0.5527
  185MOL0     H25479   5.516   7.904   8.667  0.1660 -0.7755 -0.3502
  185MOL0     H25480   5.460   8.177   8.382 -3.7730 -1.2743 -1.5352
  185MOL0     H25481   5.406   8.169   8.540 -1.4516 -0.7608  0.3976
  185MOL0     H25482   5.301   7.928   8.497  1.5282  0.5858  1.7991
  185MOL0     H25483   5.218   8.062   8.426 -1.4783 -1.7534  1.3202
  185MOL0     H25484   5.436   7.918   8.282  1.0462  2.3725  0.9853
  185MOL0     H25485   5.267   7.875   8.270 -0.7516  0.1191  0.8287
  185MOL0     H25486   5.247   8.151   8.223  3.8366  0.3680  1.6648
  185MOL0     H25487   5.414   8.121   8.171  2.3883 -1.3965  1.8103
  185MOL0     H25488   5.536   7.962   8.042  0.1604  0.4313 -1.1395
  185MOL0     H25489   5.711   7.825   7.813 -1.4772  1.0512 -0.2746
  185MOL0     H25490   5.715   7.706   7.946 -0.6221 -0.1431  0.0355
  185MOL0     H25491   5.718   7.875   7.977 -1.8665  0.7894  0.2174
  185MOL0     H25492   5.866   7.529   7.722 -0.4597 -0.1253  0.0714
  185MOL0     H25493   5.976   7.389   7.566  0.9400 -2.0424 -1.1377
  185MOL0     H25494   5.750   7.089   7.391 -0.4195  0.8235  0.5234
  185MOL0     H25495   5.756   7.155   7.229  2.9431  0.9625 -1.6191
  185MOL0     H25496   5.986   7.084   7.205  2.0350 -0.2478  0.5738
  185MOL0     H25497   5.999   7.056   7.369 -0.5930  2.8304 -0.3736
  185MOL0     H25498   5.827   6.853   7.321 -1.5562  0.7609 -1.4519
  185MOL0     H25499   5.997   6.833   7.268 -1.1058 -2.4672  2.1657
  185MOL0     H25500   5.953   6.880   7.046  0.2358 -3.3194 -0.3130
  185MOL0     H25501   5.791   6.951   7.079 -1.5899 -0.8134  0.1954
  185MOL0     H25502   5.870   6.667   7.156  2.4512  0.9934 -2.9918
  185MOL0     H25503   5.707   6.752   7.171  0.6105  0.6721  1.7797
  185MOL0     H25504   5.835   6.661   6.904  0.2625 -0.7372  1.4605
  185MOL0     H25505   5.704   6.762   6.917  1.2194 -0.4464 -2.8889
  185MOL0     H25506   5.632   6.531   7.096  0.7724 -1.8338 -0.8799
  185MOL0     H25507   5.702   6.486   6.950  0.3392 -0.7531  2.0381
  185MOL0     H25508   5.455   6.495   6.935 -0.5200  0.2794  1.7992
  185MOL0     H25509   5.514   6.635   6.827  2.8268  1.1047  0.0489
  185MOL0     H25510   5.600   7.308   7.363 -0.4235 -1.7116  0.9713
  185MOL0     H25511   5.504   7.473   7.502 -0.5785 -0.1975  0.8025
  185MOL0     H25512   5.229   7.681   7.786  1.9454 -0.2229 -0.3988
  185MOL0     H25513   5.139   7.876   7.920 -0.5640 -1.9634 -0.6694
  185MOL0     H25514   6.583   8.510   8.924  1.2800  1.7227  1.8237
  185MOL0     H25515   6.542   8.739   8.828 -0.1816  4.2445  2.6536
  185MOL0     H25516   6.433   9.208   9.122  0.6756  3.7881 -0.3864
  185MOL0     H25517   6.410   9.433   9.078 -3.3636 -0.9549  2.4383
  185MOL0     H25518   6.333   9.565   8.685 -0.5153  4.4278 -2.2481
  185MOL0     H25519   6.161   9.558   8.712  0.3577  0.3230 -1.6234
  185MOL0     H25520   6.376   9.776   8.769  0.6021 -1.4523  0.2813
  185MOL0     H25521   6.220   9.795   8.837  2.8258  3.6423 -0.2566
  185MOL0     H25522   6.298   9.899   8.600 -2.0709  2.5533  0.2708
  185MOL0     H25523   6.221   9.745   8.544 -1.9829  0.1438  0.1050
  185MOL0     H25524   6.017   9.820   8.621 -0.0491 -0.7188  1.2769
  185MOL0     H25525   6.090   9.957   8.526 -0.3564  0.6910  1.5629
  185MOL0     H25526   5.984  10.153   8.859 -4.1272 -1.6076 -0.4302
  185MOL0     H25527   6.194   9.354   8.723  0.6110  3.5991  1.5150
  185MOL0     H25528   6.271   9.046   8.648 -0.8452 -0.1116 -0.2748
  185MOL0     H25529   6.152   9.010   8.766  2.3335 -0.4410  1.2998
  185MOL0     H25530   6.123   9.142   8.647 -2.7696 -0.1956  1.8172
  186MOL0     O25531   0.498  10.184   8.972  0.1872  0.1470  0.1398
  186MOL0     C25532   0.520  10.062   8.981 -0.0381  0.0629  0.9060
  186MOL0     O25533   0.416   9.973   8.966 -0.7683 -0.4977  0.5983
  186MOL0     C25534   0.285  10.024   8.937  1.3758 -0.8082 -0.4572
  186MOL0     C25535   0.203   9.951   8.847 -0.7575 -0.5787 -0.9941
  186MOL0     C25536   0.073   9.986   8.834  1.3662 -0.5283  0.4586
  186MOL0     C25537   0.014  10.097   8.904 -0.6124 -0.1486  0.0732
  186MOL0     O25538  -0.118  10.121   8.873  0.1042  0.3662 -0.0929
  186MOL0     C25539  -0.162  10.256   8.859  0.6057  0.3502 -0.4338
  186MOL0     C25540  -0.267  10.245   8.749  0.4478 -1.2700 -0.4799
  186MOL0     C25541  -0.312  10.372   8.679 -0.0624  0.0702 -1.8356
  186MOL0     C25542  -0.433  10.326   8.598 -0.1252  0.2129 -0.3860
  186MOL0     C25543  -0.506  10.451   8.547 -0.2580 -0.1376  1.0311
  186MOL0     C25544  -0.558  10.427   8.403 -0.2980 -0.0882 -1.3007
  186MOL0     C25545  -0.691  10.350   8.420 -0.0777  0.8744 -0.7842
  186MOL0     C25546  -0.734  10.297   8.291  0.8639  0.0703  0.2689
  186MOL0     N25547  -0.768  10.396   8.187  0.5860  0.3441 -0.2088
  186MOL0     C25548  -0.712  10.414   8.063 -0.0831 -1.3971 -0.0375
  186MOL0     C25549  -0.783  10.530   8.028 -0.6945  0.0881 -1.0861
  186MOL0     C25550  -0.755  10.622   7.915 -0.5748  0.3487  0.3486
  186MOL0     C25551  -0.629  10.703   7.928  0.5637  0.4197 -0.5635
  186MOL0     C25552  -0.556  10.696   7.794 -0.8486 -0.6243 -0.7485
  186MOL0     C25553  -0.460  10.812   7.786  0.6780  0.1975 -0.4409
  186MOL0     O25554  -0.406  10.821   7.656  0.6730 -0.5054  0.0818
  186MOL0     C25555  -0.339  10.940   7.623  0.4576 -0.2347  0.0794
  186MOL0     C25556  -0.311  11.039   7.717  0.0560 -0.4894 -0.3534
  186MOL0     C25557  -0.241  11.155   7.689  0.8289 -0.7427  0.0345
  186MOL0     C25558  -0.217  11.250   7.799  0.4856  0.0139 -0.9155
  186MOL0     C25559  -0.207  11.178   7.555 -0.6683 -0.2885 -0.7635
  186MOL0     C25560  -0.121  11.287   7.512 -1.2015 -0.7568  0.1016
  186MOL0     O25561  -0.101  11.295   7.369  0.3624 -0.0828  0.4806
  186MOL0     C25562  -0.013  11.364   7.297 -0.0816 -1.7593  1.2840
  186MOL0     C25563  -0.030  11.373   7.165 -0.1528 -0.4934 -0.2555
  186MOL0     C25564   0.049  11.454   7.084  0.2286 -0.4798 -0.2020
  186MOL0     C25565   0.147  11.534   7.130 -0.2397  0.7277  0.2368
  186MOL0     O25566   0.218  11.619   7.045 -0.0751 -0.3995 -0.1794
  186MOL0     C25567   0.359  11.642   7.071  0.1050 -0.9330 -0.7676
  186MOL0     C25568   0.428  11.720   6.957  0.3642  0.0381 -0.3376
  186MOL0     C25569   0.582  11.726   6.976 -0.2604  0.0702  0.4171
  186MOL0     C25570   0.663  11.706   6.847  0.2211  0.4464  0.7040
  186MOL0     C25571   0.815  11.688   6.871  0.3611 -0.2790  0.4063
  186MOL0     C25572   0.838  11.571   6.960 -0.5355  0.1023 -0.3801
  186MOL0     C25573   0.986  11.531   6.963 -0.1404  0.1110 -0.4447
  186MOL0     C25574   1.062  11.600   7.076  0.6486  0.2755 -0.7484
  186MOL0    Cl25575   1.091  11.773   7.059  0.1802  0.1069  0.5334
  186MOL0     C25576   0.187  11.522   7.270 -0.2423  0.3732  0.1707
  186MOL0     C25577   0.101  11.435   7.352  0.6206 -0.0183  0.7812
  186MOL0     O25578  -0.060  11.357   7.596  0.2800  0.0196  0.0983
  186MOL0     C25579  -0.241  11.079   7.460  0.5029  0.1416  0.6294
  186MOL0     C25580  -0.295  10.961   7.492  0.7585 -0.1789 -0.3864
  186MOL0     N25581  -0.868  10.569   8.124  0.4325  0.3727 -0.7941
  186MOL0     N25582  -0.863  10.488   8.218 -0.1361  0.5222  0.4862
  186MOL0     C25583   0.091  10.170   8.991 -0.4555  0.1185  0.1283
  186MOL0     C25584   0.228  10.128   9.006 -0.5806 -0.3445  0.7486
  186MOL0     C25585   0.660  10.009   8.990  0.7996  0.4678  0.3418
  186MOL0     C25586   0.677   9.876   9.006  0.7274 -1.3281  0.9778
  186MOL0     C25587   0.801   9.812   9.005 -0.1048  0.0128  0.8081
  186MOL0     C25588   0.913   9.895   9.011  0.6903 -0.6217 -0.3321
  186MOL0     O25589   1.032   9.838   8.998  0.2616 -0.0477 -0.4636
  186MOL0     C25590   1.086   9.802   9.126 -0.6740  0.0198  0.5524
  186MOL0     C25591   1.225   9.750   9.082 -0.4494  0.5124 -0.0105
  186MOL0     C25592   1.315   9.720   9.200  0.7314  0.0230 -0.4638
  186MOL0     C25593   1.458   9.679   9.160  0.6488  0.2723  0.1925
  186MOL0     C25594   1.492   9.536   9.187  0.1281 -0.5723 -0.4898
  186MOL0     C25595   1.519   9.424   9.202  0.3046 -0.2165  0.0908
  186MOL0     C25596   0.901  10.035   8.995  1.1613  0.3656 -0.2192
  186MOL0     C25597   0.771  10.094   8.996 -1.0201  0.7142  1.0876
  186MOL0     C25598   0.772  10.245   8.992  0.0255 -1.0976 -0.4026
  186MOL0     H25599   0.238   9.863   8.794 -0.5941 -0.0744 -1.7451
  186MOL0     H25600   0.003   9.939   8.765  0.0388  1.4253  0.3783
  186MOL0     H25601  -0.077  10.314   8.823  1.5217  1.4701  3.1745
  186MOL0     H25602  -0.195  10.288   8.958  2.1815 -1.1698  0.6191
  186MOL0     H25603  -0.227  10.175   8.675  3.0243  1.0888 -1.5258
  186MOL0     H25604  -0.349  10.187   8.792 -1.2766 -0.2270 -2.1629
  186MOL0     H25605  -0.333  10.443   8.759  3.8983 -0.8033  0.2704
  186MOL0     H25606  -0.232  10.413   8.616  0.4515  3.0127  0.4954
  186MOL0     H25607  -0.400  10.259   8.518 -0.4892 -0.8263  0.3117
  186MOL0     H25608  -0.503  10.264   8.655  0.0500 -0.9900 -1.4230
  186MOL0     H25609  -0.427  10.526   8.535 -0.7426  0.8296  3.4112
  186MOL0     H25610  -0.585  10.492   8.610 -1.0841  1.1923 -0.7776
  186MOL0     H25611  -0.588  10.525   8.364 -0.0794  1.4140  1.9436
  186MOL0     H25612  -0.467  10.396   8.351  3.7599  2.8489  3.2270
  186MOL0     H25613  -0.767  10.405   8.476  0.9594  0.5463  0.9971
  186MOL0     H25614  -0.661  10.262   8.478 -1.0945 -0.4111 -2.1307
  186MOL0     H25615  -0.660  10.225   8.255  0.7437 -0.2815  0.7151
  186MOL0     H25616  -0.829  10.243   8.295  0.1155  1.1077 -1.8799
  186MOL0     H25617  -0.634  10.365   8.007 -0.5795 -1.6940 -0.4744
  186MOL0     H25618  -0.840  10.690   7.909  0.0648  1.0853 -0.7244
  186MOL0     H25619  -0.751  10.568   7.819  1.7610  0.5855  0.2728
  186MOL0     H25620  -0.650  10.805   7.962  0.9120  0.0252  0.9290
  186MOL0     H25621  -0.558  10.672   8.006 -0.2683  2.6598  1.1977
  186MOL0     H25622  -0.495  10.607   7.778  0.7393  0.4925 -1.0681
  186MOL0     H25623  -0.628  10.732   7.719 -1.6375  4.6192  2.0378
  186MOL0     H25624  -0.519  10.899   7.816  3.1535  2.7376 -2.4261
  186MOL0     H25625  -0.391  10.803   7.870 -1.9603 -1.4492  1.7460
  186MOL0     H25626  -0.332  11.018   7.821  0.7868 -0.1769 -0.1381
  186MOL0     H25627  -0.263  11.347   7.774  4.1692  2.3176  0.4121
  186MOL0     H25628  -0.110  11.271   7.811  0.9645 -1.5521 -2.2434
  186MOL0     H25629  -0.253  11.206   7.893  0.8565 -1.4124 -1.4222
  186MOL0     H25630  -0.109  11.317   7.114  0.5151  0.8493 -2.9374
  186MOL0     H25631   0.035  11.462   6.977  2.6948  0.4868 -0.5038
  186MOL0     H25632   0.375  11.711   7.154  1.3729 -2.7968  0.6137
  186MOL0     H25633   0.411  11.550   7.097  0.9463  0.0585  1.3005
  186MOL0     H25634   0.407  11.679   6.857  0.9742  0.3294 -0.5923
  186MOL0     H25635   0.399  11.825   6.952  1.6669  0.3959 -0.8085
  186MOL0     H25636   0.603  11.647   7.050  1.5682 -0.5750 -0.7206
  186MOL0     H25637   0.609  11.824   7.015 -1.4462  0.9799 -0.9448
  186MOL0     H25638   0.650  11.791   6.780 -1.9185 -1.2487 -1.1882
  186MOL0     H25639   0.620  11.619   6.796 -1.3507  1.5679  0.0538
  186MOL0     H25640   0.862  11.675   6.773 -1.9660 -1.2803 -0.6538
  186MOL0     H25641   0.863  11.777   6.912  1.0239 -0.0116 -0.8895
  186MOL0     H25642   0.792  11.493   6.899  1.9307 -1.0378 -0.8952
  186MOL0     H25643   0.803  11.574   7.064  2.4100 -0.3662  0.7094
  186MOL0     H25644   1.036  11.543   6.866  0.2530  0.3463 -0.2133
  186MOL0     H25645   0.986  11.423   6.977 -1.1375  0.2150  0.4711
  186MOL0     H25646   1.158  11.548   7.078  1.6517  2.0041  2.4866
  186MOL0     H25647   1.019  11.584   7.175  4.5380  0.3661  1.1346
  186MOL0     H25648   0.270  11.576   7.314  0.0899 -1.8045  2.4082
  186MOL0     H25649   0.121  11.425   7.458 -1.9723  0.7307  1.4062
  186MOL0     H25650  -0.230  11.099   7.354  2.1284  0.5504  0.8516
  186MOL0     H25651  -0.316  10.895   7.408  2.6576  1.6148 -2.3924
  186MOL0     H25652   0.036  10.252   9.037 -0.6961 -0.8872  1.7002
  186MOL0     H25653   0.288  10.176   9.083  2.0514 -1.0040 -0.7643
  186MOL0     H25654   0.593   9.806   9.005 -0.0922 -0.4086  2.2775
  186MOL0     H25655   0.814   9.705   9.001 -0.5173 -0.0057 -1.2006
  186MOL0     H25656   1.105   9.879   9.202  2.5336  1.1063 -1.1442
  186MOL0     H25657   1.029   9.717   9.163  1.2098 -1.4012  0.3620
  186MOL0     H25658   1.277   9.836   9.039  0.8307  0.5841  1.6093
  186MOL0     H25659   1.221   9.661   9.019  3.9724 -0.6333  0.9892
  186MOL0     H25660   1.332   9.811   9.257  2.1702 -0.5406  0.0477
  186MOL0     H25661   1.267   9.642   9.260 -0.6069 -2.1190 -4.0027
  186MOL0     H25662   1.535   9.722   9.224 -1.3135  3.4204  0.7009
  186MOL0     H25663   1.471   9.724   9.060  1.3111  0.0151  0.1588
  186MOL0     H25664   1.530   9.318   9.198 -2.6642 -0.5830 -2.5013
  186MOL0     H25665   0.995  10.089   8.994  2.3836 -1.6615 -0.7747
  186MOL0     H25666   0.714  10.271   9.081  0.8308  2.4055 -0.7638
  186MOL0     H25667   0.874  10.280   9.007 -0.5609 -0.2888  2.3105
  186MOL0     H25668   0.731  10.297   8.905  1.9519  3.7231  1.2581
  187MOL0     O25669  10.859   2.511   0.337  0.0749  0.4811 -0.2695
  187MOL0     C25670  10.900   2.457   0.235  0.6329  0.1296  0.5033
  187MOL0     O25671  11.011   2.492   0.160 -0.1627 -0.3837  0.1553
  187MOL0     C25672  11.083   2.590   0.218 -0.4296  0.1835 -0.2518
  187MOL0     C25673  11.055   2.731   0.200 -0.9011  0.3832 -0.4249
  187MOL0     C25674  11.129   2.833   0.267 -1.0084  0.8085 -0.3127
  187MOL0     C25675  11.246   2.795   0.335  0.2124 -1.1014 -0.4044
  187MOL0     O25676  11.337   2.888   0.382  0.4632 -0.3229 -0.1876
  187MOL0     C25677  11.324   3.034   0.351  0.2034  0.8137  0.1952
  187MOL0     C25678  11.434   3.116   0.412  0.2067  0.4352  0.1417
  187MOL0     C25679  11.442   3.255   0.352 -0.1991  0.0317 -0.4432
  187MOL0     C25680  11.517   3.256   0.224  0.5204  0.1025  0.0638
  187MOL0     C25681  11.517   3.389   0.143  0.4186  0.0919  0.5024
  187MOL0     C25682  11.590   3.495   0.207  1.0615  0.0326 -1.0336
  187MOL0     C25683  11.564   3.629   0.146 -0.4153 -1.0810 -0.6567
  187MOL0     C25684  11.613   3.741   0.242 -0.1837  0.9070  1.0334
  187MOL0     N25685  11.508   3.840   0.281  0.0115 -0.2369 -0.0037
  187MOL0     C25686  11.439   3.922   0.194 -0.1371  0.0149  0.8379
  187MOL0     C25687  11.361   4.005   0.268  1.3172 -0.1922 -1.0484
  187MOL0     C25688  11.267   4.126   0.227 -0.3941  0.1219  0.0258
  187MOL0     C25689  11.129   4.081   0.185  0.0534  1.1714  0.6812
  187MOL0     C25690  11.037   4.206   0.188 -0.2352  0.4807  0.0289
  187MOL0     C25691  10.892   4.173   0.147 -0.3170 -1.0426  0.0022
  187MOL0     O25692  10.800   4.270   0.206 -1.0766 -0.3045  0.6723
  187MOL0     C25693  10.774   4.373   0.125 -0.3116 -0.6610 -0.0649
  187MOL0     C25694  10.714   4.358  -0.001  0.2183 -0.1947 -0.5474
  187MOL0     C25695  10.684   4.472  -0.083  0.3588 -0.2464 -0.7632
  187MOL0     C25696  10.625   4.456  -0.215  0.1092 -0.0825  0.1694
  187MOL0     C25697  10.709   4.604  -0.019 -0.7174 -0.4262 -0.0492
  187MOL0     C25698  10.659   4.734  -0.080 -0.1993 -0.0539  0.9549
  187MOL0     O25699  10.719   4.846  -0.039  0.0028 -0.4892  0.7169
  187MOL0     C25700  10.667   4.968  -0.078 -0.2217  0.1920  0.4163
  187MOL0     C25701  10.763   5.070  -0.110 -0.4313  0.1695 -0.1985
  187MOL0     C25702  10.724   5.193  -0.157  0.0273  0.2152  0.6046
  187MOL0     C25703  10.589   5.224  -0.173 -0.1064  1.0214 -0.4316
  187MOL0     O25704  10.548   5.347  -0.229 -0.4711  0.1257 -0.1420
  187MOL0     C25705  10.509   5.334  -0.369 -0.6104  0.1118 -0.4840
  187MOL0     C25706  10.384   5.411  -0.411 -0.1289 -1.0831 -0.1006
  187MOL0     C25707  10.344   5.400  -0.558  0.1947 -0.5263 -0.5325
  187MOL0     C25708  10.327   5.533  -0.620 -0.0103  0.4097  0.1556
  187MOL0     C25709  10.289   5.505  -0.760  0.6468 -0.0532 -0.1367
  187MOL0     C25710  10.276   5.630  -0.836 -0.3735 -0.2433 -0.1218
  187MOL0     C25711  10.188   5.611  -0.966 -0.5259  0.4637  0.5951
  187MOL0     C25712  10.067   5.698  -0.964 -0.0409 -0.9316 -0.0185
  187MOL0    Cl25713  10.142   5.872  -0.980  0.0871 -0.3557 -0.1666
  187MOL0     C25714  10.492   5.132  -0.126  0.1583 -0.4530  0.8100
  187MOL0     C25715  10.528   5.009  -0.072 -0.8117 -0.4080  0.0339
  187MOL0     O25716  10.564   4.734  -0.152  0.0595 -0.5579 -0.4696
  187MOL0     C25717  10.778   4.618   0.107 -0.6824  0.3621 -0.1763
  187MOL0     C25718  10.818   4.501   0.179  0.5067 -0.5655  1.0219
  187MOL0     N25719  11.385   3.975   0.404 -0.7382 -0.4269  0.0639
  187MOL0     N25720  11.471   3.879   0.404 -0.3816 -0.5160 -0.2041
  187MOL0     C25721  11.275   2.667   0.344  0.6720 -0.9441 -0.0949
  187MOL0     C25722  11.202   2.571   0.289 -0.4450  0.0655 -0.7285
  187MOL0     C25723  10.818   2.333   0.189 -0.4161 -0.9030  0.2224
  187MOL0     C25724  10.751   2.258   0.285 -0.1048 -0.0257  0.0426
  187MOL0     C25725  10.671   2.145   0.255  0.1114 -1.4146  0.3648
  187MOL0     C25726  10.663   2.102   0.125 -0.2873  0.4714 -0.4222
  187MOL0     O25727  10.589   1.992   0.102  0.0004  0.7131  0.3336
  187MOL0     C25728  10.640   1.869   0.048  0.7416 -0.2905 -0.2641
  187MOL0     C25729  10.597   1.857  -0.098  0.5249  0.4040 -0.3565
  187MOL0     C25730  10.440   1.852  -0.121  0.6947 -0.1281 -0.7066
  187MOL0     C25731  10.391   1.830  -0.262  0.4749  0.2151  0.0499
  187MOL0     C25732  10.440   1.946  -0.340 -0.7456 -0.7673 -0.8964
  187MOL0     C25733  10.492   2.035  -0.397 -0.3338 -0.4405 -0.2123
  187MOL0     C25734  10.737   2.173   0.026  0.4245 -0.2115  0.1817
  187MOL0     C25735  10.807   2.292   0.058  0.6640  0.2259  0.5722
  187MOL0     C25736  10.858   2.373  -0.064  0.6269 -1.0180 -1.0328
  187MOL0     H25737  10.968   2.771   0.148 -0.1332  1.7334 -0.7037
  187MOL0     H25738  11.095   2.935   0.256 -0.6629  0.7010 -3.2884
  187MOL0     H25739  11.226   3.067   0.385 -0.9365 -0.4352 -1.6593
  187MOL0     H25740  11.328   3.048   0.242  0.7877  1.0213  0.2413
  187MOL0     H25741  11.409   3.130   0.518  0.0929  1.0292  0.0408
  187MOL0     H25742  11.529   3.066   0.394  0.6388  0.0188  3.0361
  187MOL0     H25743  11.341   3.297   0.350  0.6444  2.6874  3.0997
  187MOL0     H25744  11.496   3.324   0.417  0.3146  1.7152 -2.5461
  187MOL0     H25745  11.624   3.233   0.232  0.6471  0.1732 -1.1775
  187MOL0     H25746  11.469   3.190   0.151  0.7232  0.8448 -0.7623
  187MOL0     H25747  11.414   3.422   0.128  0.0611  0.6665  3.5084
  187MOL0     H25748  11.570   3.367   0.050 -2.3120  0.9634 -1.4001
  187MOL0     H25749  11.552   3.506   0.309  1.8096 -1.6188 -0.5492
  187MOL0     H25750  11.698   3.485   0.197  1.2339  2.9658 -4.0306
  187MOL0     H25751  11.458   3.647   0.129 -0.5451 -3.1222 -2.5500
  187MOL0     H25752  11.615   3.642   0.050  0.8642 -1.1050 -0.0078
  187MOL0     H25753  11.656   3.692   0.329 -0.2975 -0.0346  0.5774
  187MOL0     H25754  11.690   3.793   0.184  0.6133 -1.3793 -0.0584
  187MOL0     H25755  11.432   3.915   0.086 -3.2231 -3.1045  1.0537
  187MOL0     H25756  11.312   4.175   0.141 -0.5673  0.8355  0.3345
  187MOL0     H25757  11.265   4.200   0.308 -3.1388 -0.3147  0.4701
  187MOL0     H25758  11.135   4.046   0.082  4.6387  0.9049  0.8327
  187MOL0     H25759  11.085   4.001   0.244 -0.7862  0.1400 -1.2654
  187MOL0     H25760  11.038   4.255   0.286 -2.1786  1.0473 -0.2014
  187MOL0     H25761  11.076   4.279   0.117 -0.5904 -1.0914 -1.8606
  187MOL0     H25762  10.881   4.172   0.038  1.8033  2.8177 -0.4095
  187MOL0     H25763  10.845   4.076   0.162 -0.6047 -1.3598 -2.5510
  187MOL0     H25764  10.684   4.262  -0.042  3.0874 -1.5468  0.2949
  187MOL0     H25765  10.681   4.505  -0.296 -2.6220  0.5300 -1.4680
  187MOL0     H25766  10.522   4.493  -0.212 -0.4057 -1.4916  2.8851
  187MOL0     H25767  10.622   4.348  -0.232  1.0116  0.0064 -0.7074
  187MOL0     H25768  10.868   5.070  -0.083  0.1471  0.4777 -2.2525
  187MOL0     H25769  10.798   5.267  -0.185 -0.6487  1.8927  2.8879
  187MOL0     H25770  10.599   5.362  -0.425 -1.2188 -2.4136 -2.8813
  187MOL0     H25771  10.489   5.230  -0.395  0.6358  0.3580 -2.6219
  187MOL0     H25772  10.306   5.377  -0.342  0.6067 -1.6043  0.4921
  187MOL0     H25773  10.397   5.516  -0.382 -4.0097 -1.2146  2.8803
  187MOL0     H25774  10.245   5.354  -0.554 -0.0862  0.1100 -0.1702
  187MOL0     H25775  10.416   5.334  -0.608 -0.3659 -2.5091  1.1589
  187MOL0     H25776  10.427   5.578  -0.629  0.0854 -0.1076 -1.8386
  187MOL0     H25777  10.258   5.597  -0.564 -2.8185 -1.9527 -0.3826
  187MOL0     H25778  10.359   5.440  -0.815  0.7848 -0.2500  0.2716
  187MOL0     H25779  10.190   5.458  -0.763  0.5640  0.1310 -0.2545
  187MOL0     H25780  10.376   5.656  -0.872 -0.9956  1.0767 -0.9885
  187MOL0     H25781  10.243   5.710  -0.770  1.2176 -0.6200  1.1835
  187MOL0     H25782  10.139   5.513  -0.966 -0.5170  0.3974 -1.8214
  187MOL0     H25783  10.251   5.606  -1.056  0.4998  1.1531  1.2493
  187MOL0     H25784  10.003   5.696  -0.875  2.8258  2.4494  2.3747
  187MOL0     H25785  10.001   5.693  -1.052  1.6037  2.4710 -1.6478
  187MOL0     H25786  10.389   5.164  -0.136  0.0605 -1.2243 -1.0567
  187MOL0     H25787  10.446   4.949  -0.034 -2.7279  0.1875 -2.8300
  187MOL0     H25788  10.793   4.720   0.140 -2.7689  1.6437 -2.7805
  187MOL0     H25789  10.862   4.507   0.278  0.0747  1.8968  1.1227
  187MOL0     H25790  11.357   2.632   0.406  1.9323 -0.4761 -1.4088
  187MOL0     H25791  11.227   2.466   0.297  3.1001  0.8442  0.2333
  187MOL0     H25792  10.779   2.283   0.387 -0.8461 -0.3387  0.3311
  187MOL0     H25793  10.613   2.088   0.327  1.4472 -1.8383  1.1370
  187MOL0     H25794  10.749   1.872   0.056  0.6985  2.0213  0.1350
  187MOL0     H25795  10.601   1.800   0.123 -0.2276  1.4942  0.9416
  187MOL0     H25796  10.648   1.774  -0.148  0.6545 -0.5237  1.2276
  187MOL0     H25797  10.641   1.945  -0.146 -4.1491  2.4315 -1.4694
  187MOL0     H25798  10.384   1.781  -0.060 -0.1118 -3.2470 -4.6743
  187MOL0     H25799  10.405   1.954  -0.102  0.4622 -0.4535  0.7590
  187MOL0     H25800  10.282   1.836  -0.268  0.2923 -2.4184 -0.1263
  187MOL0     H25801  10.419   1.739  -0.315  3.2602  1.4932 -0.8938
  187MOL0     H25802  10.554   2.105  -0.450  1.5710  0.0728  2.4711
  187MOL0     H25803  10.732   2.138  -0.077 -0.4229  1.4583 -0.3818
  187MOL0     H25804  10.961   2.340  -0.083  1.3599  1.0099 -0.8461
  187MOL0     H25805  10.805   2.373  -0.159 -1.1693  2.0599 -0.1684
  187MOL0     H25806  10.863   2.480  -0.043 -1.1948 -0.5230 -2.8221
  188MOL0     O25807  10.308   4.778   2.119  0.1225 -0.1040 -0.8740
  188MOL0     C25808  10.396   4.697   2.153  1.1625  0.7245 -0.3998
  188MOL0     O25809  10.513   4.738   2.207  0.1993  0.8666 -1.0497
  188MOL0     C25810  10.539   4.876   2.203  0.0977  1.0660 -0.4966
  188MOL0     C25811  10.599   4.932   2.091 -0.1655  0.1150 -0.7446
  188MOL0     C25812  10.616   5.068   2.077  0.4327 -0.6170  0.5522
  188MOL0     C25813  10.579   5.156   2.173 -0.8073 -0.1739 -0.5105
  188MOL0     O25814  10.608   5.294   2.162  0.3892 -0.3270 -0.5253
  188MOL0     C25815  10.536   5.396   2.235 -0.0565  0.0291  0.1650
  188MOL0     C25816  10.600   5.525   2.193  0.3275  0.3934  0.8959
  188MOL0     C25817  10.744   5.531   2.228  0.4482 -0.2332  0.0720
  188MOL0     C25818  10.801   5.672   2.206  0.3071 -0.3790  0.0828
  188MOL0     C25819  10.953   5.673   2.237  0.6838  0.6364 -1.0177
  188MOL0     C25820  10.999   5.818   2.224 -0.7421  1.1147 -0.0812
  188MOL0     C25821  11.139   5.846   2.284  0.3272 -0.0692  0.7124
  188MOL0     C25822  11.257   5.753   2.248  0.7823  0.3327  0.5632
  188MOL0     N25823  11.383   5.797   2.308 -0.5425  0.9394 -0.1197
  188MOL0     C25824  11.501   5.738   2.277 -0.7790  0.7122  0.5824
  188MOL0     C25825  11.586   5.794   2.378  0.9886 -1.5665  0.7585
  188MOL0     C25826  11.728   5.751   2.379  0.0160 -0.1075  0.2034
  188MOL0     C25827  11.768   5.682   2.507 -0.3863 -0.6031  0.3418
  188MOL0     C25828  11.909   5.626   2.512  0.9776  0.7060  0.7738
  188MOL0     C25829  11.938   5.531   2.632 -0.7246  0.9266 -0.2046
  188MOL0     O25830  12.074   5.495   2.619 -0.5339  0.1602  0.1239
  188MOL0     C25831  12.122   5.380   2.554 -0.6630 -0.6097 -0.0941
  188MOL0     C25832  12.232   5.318   2.606 -1.2331 -0.2361  0.4499
  188MOL0     C25833  12.278   5.203   2.547  0.0223 -0.4539  0.0023
  188MOL0     C25834  12.408   5.146   2.601  0.5300  0.3671 -0.2604
  188MOL0     C25835  12.206   5.138   2.445  0.3107 -0.7870  1.2937
  188MOL0     C25836  12.239   5.009   2.391 -0.3374 -0.5237 -0.2139
  188MOL0     O25837  12.243   4.911   2.490 -0.1560  0.0361  0.4901
  188MOL0     C25838  12.286   4.786   2.470  0.4070 -0.9858 -0.7004
  188MOL0     C25839  12.266   4.714   2.353  0.3751 -0.6741  0.2390
  188MOL0     C25840  12.319   4.586   2.327  0.2837  0.0609  0.2302
  188MOL0     C25841  12.409   4.532   2.425  0.2909 -0.2596  0.8507
  188MOL0     O25842  12.466   4.413   2.377  0.1801 -0.0860 -0.4596
  188MOL0     C25843  12.574   4.349   2.452  0.3200 -0.3135 -0.5207
  188MOL0     C25844  12.614   4.226   2.364  0.2007  0.4604  1.0085
  188MOL0     C25845  12.491   4.143   2.334 -0.3171  0.2140  0.0648
  188MOL0     C25846  12.543   4.011   2.273 -0.4414  0.6171  0.1336
  188MOL0     C25847  12.572   4.015   2.115  0.6171 -0.2375 -0.7550
  188MOL0     C25848  12.623   3.875   2.073 -0.1872 -0.4951 -0.6426
  188MOL0     C25849  12.780   3.840   2.083  0.5103  0.6070  0.4184
  188MOL0     C25850  12.806   3.702   2.021  0.6118 -0.1968  0.7079
  188MOL0    Cl25851  12.726   3.661   1.862  0.1878 -0.1021 -0.0981
  188MOL0     C25852  12.434   4.606   2.542 -0.0334  0.0561 -0.3681
  188MOL0     C25853  12.383   4.736   2.558  0.6184 -0.7132  0.2758
  188MOL0     O25854  12.256   4.986   2.276  0.1147  0.2760 -0.1058
  188MOL0     C25855  12.090   5.203   2.398  0.3237 -0.9027 -0.2582
  188MOL0     C25856  12.047   5.319   2.447 -0.0763 -0.3903 -0.1562
  188MOL0     N25857  11.515   5.876   2.464  0.1593  1.1218  0.5970
  188MOL0     N25858  11.398   5.878   2.420 -0.1128  0.0484  0.2090
  188MOL0     C25859  10.525   5.104   2.292  0.2042  0.3330  0.0052
  188MOL0     C25860  10.491   4.966   2.304  0.0138  0.8651  0.3343
  188MOL0     C25861  10.355   4.548   2.156  0.0819 -0.5254  0.1225
  188MOL0     C25862  10.226   4.514   2.102  0.4583 -0.1927 -0.1838
  188MOL0     C25863  10.176   4.385   2.103 -1.2090  0.1847  0.5953
  188MOL0     C25864  10.254   4.274   2.155  0.0172 -0.6715 -0.0390
  188MOL0     O25865  10.181   4.162   2.196  0.4417  0.2325  0.0170
  188MOL0     C25866  10.224   4.075   2.303  0.1116  0.2467  0.6046
  188MOL0     C25867  10.101   4.029   2.385  0.6434 -0.6022  0.1856
  188MOL0     C25868  10.017   4.140   2.447 -0.0178  0.9785 -0.0887
  188MOL0     C25869   9.893   4.074   2.525 -0.2958 -0.6522 -0.0299
  188MOL0     C25870   9.824   4.191   2.581  0.5389 -0.1320  0.7186
  188MOL0     C25871   9.763   4.288   2.618 -0.5680 -0.4047 -0.6725
  188MOL0     C25872  10.379   4.303   2.211 -0.0767 -0.4776  0.6125
  188MOL0     C25873  10.426   4.438   2.212 -0.0953  0.0840  0.3437
  188MOL0     C25874  10.553   4.465   2.282  0.1280 -0.2356 -0.5654
  188MOL0     H25875  10.605   4.853   2.016  1.8454  1.7457 -2.4336
  188MOL0     H25876  10.662   5.114   1.990  2.7368 -1.0468  1.4708
  188MOL0     H25877  10.565   5.389   2.340 -0.7909 -0.6018  0.3375
  188MOL0     H25878  10.427   5.383   2.229 -0.1189  0.8266 -0.6361
  188MOL0     H25879  10.588   5.544   2.086  2.4891 -0.2934  0.4699
  188MOL0     H25880  10.553   5.605   2.251  1.0127  0.3486  1.5339
  188MOL0     H25881  10.767   5.502   2.331  0.1701 -1.0477 -0.0887
  188MOL0     H25882  10.802   5.470   2.159  1.9168  1.6259 -0.4173
  188MOL0     H25883  10.782   5.716   2.108 -0.4627 -2.6802 -0.8738
  188MOL0     H25884  10.748   5.733   2.280 -1.8662 -1.5721 -0.4310
  188MOL0     H25885  11.007   5.609   2.166 -1.2195 -2.6960  0.2920
  188MOL0     H25886  10.974   5.622   2.332 -1.1252 -0.7236 -1.2966
  188MOL0     H25887  10.983   5.854   2.121 -1.0164  2.6251  0.4659
  188MOL0     H25888  10.927   5.883   2.274 -0.6986  0.1385  1.2925
  188MOL0     H25889  11.128   5.840   2.392  0.9289  1.8702  0.9078
  188MOL0     H25890  11.155   5.953   2.268 -2.1719  0.0207 -2.1875
  188MOL0     H25891  11.229   5.653   2.281  1.3278 -0.9360 -2.4803
  188MOL0     H25892  11.275   5.754   2.140  1.0894  1.2326  0.6127
  188MOL0     H25893  11.542   5.664   2.210  2.6097  3.3924 -0.6150
  188MOL0     H25894  11.795   5.835   2.356 -0.0490 -0.6636 -2.4049
  188MOL0     H25895  11.737   5.676   2.300 -0.6746 -1.6041  1.5026
  188MOL0     H25896  11.761   5.750   2.592  4.1393 -1.8315  1.9969
  188MOL0     H25897  11.689   5.608   2.528 -2.6838  2.0280  1.7173
  188MOL0     H25898  11.926   5.577   2.415 -0.1692  4.0454 -1.2934
  188MOL0     H25899  11.991   5.697   2.525 -0.8262  2.4556  3.7351
  188MOL0     H25900  11.933   5.592   2.722  1.6820  0.5947  0.2445
  188MOL0     H25901  11.874   5.443   2.622  1.4730 -0.6670 -1.2138
  188MOL0     H25902  12.303   5.350   2.682  1.5549 -0.9247 -1.6759
  188MOL0     H25903  12.406   5.118   2.706  2.6989 -0.7255 -0.4554
  188MOL0     H25904  12.483   5.226   2.599 -0.5189  1.5254  2.3361
  188MOL0     H25905  12.448   5.059   2.549 -0.4683 -0.2782  0.0414
  188MOL0     H25906  12.214   4.770   2.276 -0.7106  1.1659  2.2073
  188MOL0     H25907  12.293   4.541   2.231 -3.9334  0.8824  0.7785
  188MOL0     H25908  12.662   4.413   2.448  0.3182 -0.1841  1.1546
  188MOL0     H25909  12.534   4.317   2.548  0.1619  1.1785 -0.0689
  188MOL0     H25910  12.665   4.255   2.271  0.0587 -0.7462  0.5383
  188MOL0     H25911  12.681   4.170   2.429 -0.3003 -0.6759  0.5637
  188MOL0     H25912  12.428   4.194   2.261  0.0245 -1.2230 -1.2873
  188MOL0     H25913  12.443   4.108   2.426  1.0143 -1.7734  0.0866
  188MOL0     H25914  12.476   3.929   2.296 -1.3439  0.5920 -2.2889
  188MOL0     H25915  12.638   3.983   2.318  0.3895  0.3084 -1.6878
  188MOL0     H25916  12.474   4.019   2.067 -1.4791 -5.0026  2.2234
  188MOL0     H25917  12.633   4.096   2.076  2.4119 -1.1414  0.0606
  188MOL0     H25918  12.592   3.852   1.971 -3.4140 -0.7374  0.2902
  188MOL0     H25919  12.567   3.804   2.134  1.5699 -1.6159 -0.2673
  188MOL0     H25920  12.816   3.842   2.186  2.0317  1.2719 -0.0976
  188MOL0     H25921  12.830   3.915   2.021 -0.6070 -1.0973 -2.8134
  188MOL0     H25922  12.771   3.634   2.099 -1.0923 -1.3537 -0.9938
  188MOL0     H25923  12.913   3.680   2.013  0.7295  0.5594  0.1628
  188MOL0     H25924  12.508   4.560   2.607  0.9271 -2.2135 -2.8662
  188MOL0     H25925  12.427   4.805   2.629 -0.2418 -0.5893  0.7120
  188MOL0     H25926  12.036   5.159   2.315  1.0965  1.3127 -2.0419
  188MOL0     H25927  11.950   5.357   2.415  0.8665  0.0537 -2.7889
  188MOL0     H25928  10.505   5.173   2.374  1.9567  1.3146 -0.3387
  188MOL0     H25929  10.437   4.910   2.381  1.1956 -0.7215  0.0604
  188MOL0     H25930  10.166   4.595   2.062  0.0520 -0.1394  0.5212
  188MOL0     H25931  10.078   4.368   2.062 -1.2467 -1.5855  1.3185
  188MOL0     H25932  10.285   3.994   2.264 -2.4442 -0.7235 -1.6346
  188MOL0     H25933  10.293   4.121   2.374 -2.3048 -1.6456  4.5580
  188MOL0     H25934  10.120   3.956   2.464  0.7051 -1.4006 -0.5511
  188MOL0     H25935  10.036   3.971   2.319 -0.2535 -1.9104  2.1019
  188MOL0     H25936  10.071   4.217   2.504 -0.8742  0.1579  1.8878
  188MOL0     H25937   9.989   4.201   2.360  0.6281  0.1139 -0.9222
  188MOL0     H25938   9.917   4.012   2.611 -1.7042 -0.0380  0.8419
  188MOL0     H25939   9.833   4.021   2.450  0.5317 -0.7909 -0.6066
  188MOL0     H25940   9.720   4.364   2.680  0.2026 -1.0143  0.6576
  188MOL0     H25941  10.431   4.219   2.256  0.4607 -1.2385 -1.2936
  188MOL0     H25942  10.632   4.514   2.223 -0.7250  0.3576 -1.2412
  188MOL0     H25943  10.539   4.525   2.373  1.2564 -0.8166  0.0088
  188MOL0     H25944  10.591   4.373   2.326  1.0173 -0.1159 -1.0456
  189MOL0     O25945   6.432   3.297   0.396  0.2289 -0.4913  0.0190
  189MOL0     C25946   6.478   3.372   0.308 -0.6171 -0.9371 -1.0750
  189MOL0     O25947   6.443   3.373   0.178 -0.2599  0.2033  0.5644
  189MOL0     C25948   6.325   3.315   0.137 -0.4379  0.0911 -0.1611
  189MOL0     C25949   6.317   3.255   0.007  1.3838 -1.2927 -1.0317
  189MOL0     C25950   6.197   3.199  -0.031  0.5235  0.0426  0.1328
  189MOL0     C25951   6.089   3.188   0.061  0.1537 -0.7519  0.0818
  189MOL0     O25952   5.983   3.106   0.043  0.6414  0.1115 -0.2874
  189MOL0     C25953   5.965   3.006  -0.062 -0.8128 -0.3563 -0.0238
  189MOL0     C25954   5.866   3.055  -0.172 -0.3193 -0.2904 -0.8739
  189MOL0     C25955   5.913   3.168  -0.270  0.2988  0.9322 -0.0499
  189MOL0     C25956   5.798   3.200  -0.361  0.4970  0.2713 -0.2729
  189MOL0     C25957   5.814   3.334  -0.437 -0.8421 -0.3554 -1.0388
  189MOL0     C25958   5.930   3.320  -0.533 -0.1920  0.2014  1.1440
  189MOL0     C25959   5.927   3.431  -0.640  0.2745  0.3614  0.2447
  189MOL0     C25960   6.042   3.411  -0.737  0.5581 -0.0960 -0.7143
  189MOL0     N25961   6.023   3.511  -0.850 -0.2451  0.0575 -0.1695
  189MOL0     C25962   5.933   3.498  -0.949 -0.2982 -0.2044  0.9140
  189MOL0     C25963   5.950   3.611  -1.024 -0.3788 -0.1989 -0.1346
  189MOL0     C25964   5.867   3.619  -1.146 -0.6180  0.4401 -0.0997
  189MOL0     C25965   5.722   3.652  -1.102 -0.5711  0.4434  1.2767
  189MOL0     C25966   5.626   3.650  -1.223 -1.0812 -0.4220 -0.2794
  189MOL0     C25967   5.648   3.550  -1.336 -0.4733  0.5439  0.0885
  189MOL0     O25968   5.610   3.418  -1.295 -0.1634 -0.2946  0.0170
  189MOL0     C25969   5.646   3.310  -1.381 -0.6385  0.4393  0.5810
  189MOL0     C25970   5.718   3.316  -1.504 -0.3196  0.0432 -0.3459
  189MOL0     C25971   5.749   3.197  -1.572  0.2601  0.3148  0.6462
  189MOL0     C25972   5.831   3.202  -1.703  0.1863 -1.2378 -0.3498
  189MOL0     C25973   5.704   3.071  -1.516 -0.4845  0.6343 -0.4177
  189MOL0     C25974   5.716   2.940  -1.585  0.1000 -0.7068 -0.8560
  189MOL0     O25975   5.662   2.831  -1.523  0.0259  0.3978 -0.1756
  189MOL0     C25976   5.645   2.707  -1.580  0.1025  1.6460  0.5090
  189MOL0     C25977   5.529   2.634  -1.532 -0.0213  0.2383  0.4973
  189MOL0     C25978   5.507   2.501  -1.584  0.7867 -0.4805  0.1334
  189MOL0     C25979   5.597   2.441  -1.680  0.9036  0.6661 -0.0723
  189MOL0     O25980   5.592   2.310  -1.721  0.5071  0.4934  0.1208
  189MOL0     C25981   5.581   2.225  -1.605  0.1518 -0.1815 -0.2607
  189MOL0     C25982   5.579   2.078  -1.646 -1.8408  0.0061  0.6320
  189MOL0     C25983   5.555   1.974  -1.535  0.6134  1.0089 -0.1412
  189MOL0     C25984   5.421   1.907  -1.558  0.2675 -0.3756  0.6516
  189MOL0     C25985   5.407   1.803  -1.451  0.5561 -1.1417  0.4552
  189MOL0     C25986   5.479   1.668  -1.464  1.0654  0.2066 -0.6339
  189MOL0     C25987   5.390   1.565  -1.530 -1.0469 -0.5085 -0.2977
  189MOL0     C25988   5.478   1.459  -1.604  0.1378 -0.1181 -0.0432
  189MOL0    Cl25989   5.515   1.506  -1.771  0.1445 -0.1372  0.4720
  189MOL0     C25990   5.700   2.517  -1.733 -0.7587 -1.3086  0.3939
  189MOL0     C25991   5.719   2.651  -1.686 -0.0531 -0.1666  0.4079
  189MOL0     O25992   5.778   2.935  -1.687  0.3281 -0.3002  0.7495
  189MOL0     C25993   5.646   3.070  -1.391 -0.1112 -0.5294  0.0904
  189MOL0     C25994   5.609   3.185  -1.332 -0.9195 -0.2198 -0.7923
  189MOL0     N25995   6.032   3.699  -0.955 -0.0348 -0.0486  0.5091
  189MOL0     N25996   6.077   3.628  -0.850 -0.1043 -0.2135  0.8379
  189MOL0     C25997   6.097   3.251   0.183 -0.3355 -1.1635  0.1191
  189MOL0     C25998   6.209   3.316   0.218 -0.3560  0.4614 -0.1984
  189MOL0     C25999   6.599   3.459   0.344 -0.5580  0.0674 -0.4943
  189MOL0     C26000   6.604   3.505   0.468 -0.9302  0.3973  0.4875
  189MOL0     C26001   6.714   3.578   0.523 -0.0441  0.2797 -0.7386
  189MOL0     C26002   6.827   3.598   0.440  0.7344 -0.5774  0.0644
  189MOL0     O26003   6.953   3.644   0.476  0.0304 -0.4317  0.4134
  189MOL0     C26004   6.982   3.633   0.615 -0.3558  0.8280 -0.2257
  189MOL0     C26005   6.937   3.755   0.702 -0.6198  0.4512 -0.0490
  189MOL0     C26006   7.020   3.881   0.667 -0.0611 -0.3220 -0.3718
  189MOL0     C26007   7.132   3.895   0.765 -0.4888  0.1121 -0.0421
  189MOL0     C26008   7.241   3.989   0.725  0.4298 -0.7571 -0.1344
  189MOL0     C26009   7.339   4.047   0.711 -0.2988  0.1961  0.1049
  189MOL0     C26010   6.824   3.554   0.306  0.7845 -0.4290  0.6572
  189MOL0     C26011   6.710   3.480   0.263 -0.5459  0.3958 -0.8552
  189MOL0     C26012   6.733   3.413   0.125 -0.3021 -0.4003  1.5079
  189MOL0     H26013   6.395   3.241  -0.067  1.8941  0.9887 -1.0095
  189MOL0     H26014   6.198   3.149  -0.127  2.3606  1.3415 -0.5722
  189MOL0     H26015   5.915   2.919  -0.019 -0.3227 -1.7029 -2.0032
  189MOL0     H26016   6.058   2.964  -0.101 -2.0360 -2.3204 -0.9987
  189MOL0     H26017   5.851   2.966  -0.235  0.1894 -0.8039 -0.2874
  189MOL0     H26018   5.777   3.083  -0.115 -1.5314 -3.2224 -1.1333
  189MOL0     H26019   5.958   3.254  -0.220  3.1015  0.0882 -0.9640
  189MOL0     H26020   5.988   3.114  -0.329 -0.4432 -1.5118  1.1081
  189MOL0     H26021   5.788   3.117  -0.431  0.6285  0.5024 -0.5696
  189MOL0     H26022   5.703   3.214  -0.309  0.6920  3.0588 -0.5124
  189MOL0     H26023   5.836   3.422  -0.376  0.3141  0.7401 -2.9533
  189MOL0     H26024   5.718   3.342  -0.490 -1.5300 -0.7737  0.1037
  189MOL0     H26025   6.028   3.313  -0.485  2.4993 -1.3358 -3.8536
  189MOL0     H26026   5.923   3.226  -0.587  1.0141  0.2405  0.8815
  189MOL0     H26027   5.932   3.531  -0.598  1.4395  0.6310 -0.4825
  189MOL0     H26028   5.837   3.418  -0.700 -0.9374 -2.2253  2.4369
  189MOL0     H26029   6.133   3.435  -0.681  1.0239  3.2055 -2.6351
  189MOL0     H26030   6.039   3.307  -0.771  0.2728 -0.9916  1.8319
  189MOL0     H26031   5.868   3.412  -0.963 -0.7008  0.3734 -1.1683
  189MOL0     H26032   5.868   3.520  -1.194 -1.3283  1.8777 -3.3498
  189MOL0     H26033   5.912   3.688  -1.218 -0.4306  2.4968  1.9145
  189MOL0     H26034   5.689   3.568  -1.039  1.7206 -0.1095  1.8413
  189MOL0     H26035   5.704   3.743  -1.044 -2.2042 -1.4975  4.1110
  189MOL0     H26036   5.523   3.644  -1.187 -1.0308  0.4414  0.0149
  189MOL0     H26037   5.624   3.751  -1.264  1.5163  1.2427  3.1398
  189MOL0     H26038   5.575   3.577  -1.413 -0.5481  3.1335  0.9904
  189MOL0     H26039   5.752   3.555  -1.368 -0.5039 -0.1154 -0.1377
  189MOL0     H26040   5.747   3.411  -1.547 -1.7986  0.2281 -0.9922
  189MOL0     H26041   5.891   3.292  -1.716  0.5239 -1.5796 -1.2819
  189MOL0     H26042   5.762   3.181  -1.786 -3.0139  3.8115  0.6462
  189MOL0     H26043   5.913   3.129  -1.704 -0.5315 -2.1041  0.9918
  189MOL0     H26044   5.450   2.670  -1.467 -1.9687  2.0558 -2.6725
  189MOL0     H26045   5.421   2.443  -1.551  0.4333 -0.1197 -0.1392
  189MOL0     H26046   5.660   2.250  -1.533 -1.3454  1.3044  0.9436
  189MOL0     H26047   5.483   2.237  -1.558  1.3623  3.3883  1.7678
  189MOL0     H26048   5.510   2.057  -1.728 -1.3307 -2.4407  0.7508
  189MOL0     H26049   5.678   2.057  -1.689 -0.7382  2.5160  1.7554
  189MOL0     H26050   5.546   2.028  -1.440 -2.5860 -1.3835  1.0967
  189MOL0     H26051   5.626   1.892  -1.518 -1.7207 -0.5876  2.7414
  189MOL0     H26052   5.420   1.852  -1.653  2.4607 -0.2806  0.5274
  189MOL0     H26053   5.338   1.978  -1.558  2.0502  1.8183 -0.4801
  189MOL0     H26054   5.428   1.841  -1.351 -0.2920  3.1469 -0.7892
  189MOL0     H26055   5.304   1.767  -1.448  0.7648 -1.9101 -0.8112
  189MOL0     H26056   5.512   1.627  -1.368  2.5038  2.4492 -0.0891
  189MOL0     H26057   5.562   1.683  -1.534  0.5553 -1.6962 -1.7240
  189MOL0     H26058   5.317   1.604  -1.602  0.1168 -2.6370 -2.8316
  189MOL0     H26059   5.334   1.511  -1.454 -2.4858  0.1786 -0.8362
  189MOL0     H26060   5.419   1.367  -1.598 -1.5953  0.8688 -1.1168
  189MOL0     H26061   5.573   1.450  -1.550  0.6627 -0.5607 -1.0141
  189MOL0     H26062   5.773   2.486  -1.808  0.6432  2.3454  0.0266
  189MOL0     H26063   5.787   2.700  -1.755 -0.7073 -0.1442 -0.2425
  189MOL0     H26064   5.633   2.974  -1.343  2.1874 -1.0715 -0.2643
  189MOL0     H26065   5.557   3.175  -1.238 -1.2074  0.7325 -0.8437
  189MOL0     H26066   6.009   3.263   0.246 -0.7146 -0.5085 -0.5166
  189MOL0     H26067   6.216   3.385   0.302 -2.8725  1.0902 -0.4246
  189MOL0     H26068   6.516   3.503   0.531 -0.5971 -0.0130  0.9495
  189MOL0     H26069   6.719   3.606   0.628 -0.0650 -1.3000 -0.2993
  189MOL0     H26070   6.945   3.541   0.661  2.4374  0.0733  0.7092
  189MOL0     H26071   7.091   3.622   0.616 -0.5883 -2.6354  0.9165
  189MOL0     H26072   6.953   3.733   0.808  0.8913 -0.8519 -0.5072
  189MOL0     H26073   6.830   3.775   0.695 -1.4486 -1.7970  3.3177
  189MOL0     H26074   7.057   3.876   0.565 -1.8319 -1.3941 -1.0090
  189MOL0     H26075   6.955   3.969   0.675  0.9868  0.3394  1.5375
  189MOL0     H26076   7.186   3.799   0.759  3.7546  2.2553 -0.1040
  189MOL0     H26077   7.096   3.919   0.865 -0.0055  0.4915  0.0445
  189MOL0     H26078   7.433   4.097   0.700  0.4160 -0.8338  1.2980
  189MOL0     H26079   6.915   3.569   0.248  1.5198 -1.4983  1.4962
  189MOL0     H26080   6.680   3.317   0.127  0.3479 -0.7789  1.0210
  189MOL0     H26081   6.685   3.471   0.046  0.4539 -2.2605 -0.4341
  189MOL0     H26082   6.836   3.405   0.088 -1.7627  2.0123 -4.2589
  190MOL0     O26083   0.506   3.036   5.104 -0.1246 -0.2052 -0.6443
  190MOL0     C26084   0.597   3.085   5.170 -0.2920  0.3150  0.1047
  190MOL0     O26085   0.708   3.140   5.121 -0.1057 -0.7924  0.3985
  190MOL0     C26086   0.760   3.113   4.996 -0.5040 -0.0933 -0.0053
  190MOL0     C26087   0.853   3.210   4.954 -0.1149  0.0680 -0.9085
  190MOL0     C26088   0.928   3.187   4.838  0.0210  0.2676 -0.8045
  190MOL0     C26089   0.917   3.071   4.770 -0.4889  0.1713 -0.5460
  190MOL0     O26090   0.998   3.052   4.657 -0.1302  0.0487  0.2637
  190MOL0     C26091   0.929   3.030   4.530 -0.5204  0.4629  0.1212
  190MOL0     C26092   1.025   3.107   4.439 -0.1839 -0.2486  0.0523
  190MOL0     C26093   0.993   3.261   4.464 -0.1137 -0.0969 -0.1033
  190MOL0     C26094   1.044   3.345   4.361 -0.4736 -1.0001 -0.0292
  190MOL0     C26095   1.063   3.492   4.400 -0.6696 -0.8976 -0.4930
  190MOL0     C26096   0.926   3.539   4.460 -0.4595 -0.5163 -0.7472
  190MOL0     C26097   0.898   3.685   4.435 -0.1087  0.0238  0.4060
  190MOL0     C26098   0.970   3.774   4.541  0.5802  0.0615 -0.6335
  190MOL0     N26099   0.955   3.914   4.521  0.3164 -0.7202 -0.0238
  190MOL0     C26100   0.995   3.981   4.403  0.3943  0.2287  0.2121
  190MOL0     C26101   0.949   4.107   4.424 -1.1089  0.6530  0.4377
  190MOL0     C26102   0.950   4.206   4.307  0.7710  0.7938 -0.6720
  190MOL0     C26103   1.083   4.282   4.301  0.4950  0.4979  0.7672
  190MOL0     C26104   1.098   4.381   4.419  1.3491  0.3212  0.0700
  190MOL0     C26105   1.208   4.483   4.410  0.1195 -0.0954 -0.2783
  190MOL0     O26106   1.192   4.554   4.289 -0.2934 -0.3049  0.0431
  190MOL0     C26107   1.294   4.644   4.260 -0.1152  1.1671  0.4267
  190MOL0     C26108   1.274   4.710   4.136  0.7133  0.1091  0.6283
  190MOL0     C26109   1.381   4.776   4.067 -0.2513  0.1586 -0.4783
  190MOL0     C26110   1.350   4.846   3.933  0.2247  0.0745 -0.0584
  190MOL0     C26111   1.505   4.783   4.134  1.0361  0.4525  0.9030
  190MOL0     C26112   1.631   4.860   4.080 -0.1129 -0.0383  0.3159
  190MOL0     O26113   1.753   4.838   4.137 -0.1156  0.6234 -0.1389
  190MOL0     C26114   1.862   4.905   4.104  1.0363  0.1716  1.2541
  190MOL0     C26115   1.894   4.939   3.971  0.7675 -0.0463  0.5314
  190MOL0     C26116   2.025   4.978   3.941 -0.1531  0.2417 -0.0192
  190MOL0     C26117   2.114   4.978   4.043 -0.4684  0.0907  0.2651
  190MOL0     O26118   2.242   5.022   4.023  0.0718  0.0780  0.2337
  190MOL0     C26119   2.267   5.130   3.929  0.5095  1.1323  0.1543
  190MOL0     C26120   2.190   5.258   3.966 -0.6719 -0.0955 -0.1617
  190MOL0     C26121   2.176   5.317   4.110 -0.1034  0.4832 -0.3065
  190MOL0     C26122   2.064   5.419   4.135  0.3487  0.3789  0.2488
  190MOL0     C26123   2.109   5.563   4.112 -0.6943 -0.6723  0.4749
  190MOL0     C26124   2.010   5.664   4.160 -0.5868  0.0631  0.2343
  190MOL0     C26125   2.061   5.807   4.126  0.6937 -0.7956 -0.0057
  190MOL0     C26126   1.986   5.924   4.183 -0.1708  0.3624 -0.1103
  190MOL0    Cl26127   2.065   5.973   4.329  0.2920  0.1274 -0.3047
  190MOL0     C26128   2.080   4.942   4.178 -0.1884 -0.5465  0.7119
  190MOL0     C26129   1.951   4.912   4.212 -0.8119  0.3343 -0.1376
  190MOL0     O26130   1.607   4.940   3.988 -0.6606 -0.6101 -1.1067
  190MOL0     C26131   1.518   4.719   4.258 -0.9924  0.3787 -0.1854
  190MOL0     C26132   1.419   4.651   4.326  0.0112  0.7616  0.6950
  190MOL0     N26133   0.888   4.121   4.545 -0.0316  0.2941  0.3694
  190MOL0     N26134   0.886   4.005   4.596 -0.6944  0.8466 -0.1888
  190MOL0     C26135   0.818   2.976   4.808  1.0072 -0.2051 -0.0434
  190MOL0     C26136   0.747   2.995   4.923  0.1464  0.5558 -0.7125
  190MOL0     C26137   0.571   3.067   5.319 -0.3094  0.1296 -0.0585
  190MOL0     C26138   0.458   2.994   5.368  0.2124  0.0903  0.8549
  190MOL0     C26139   0.439   2.975   5.509  0.5880 -0.3873  0.3396
  190MOL0     C26140   0.526   3.030   5.607 -0.6372  0.9085 -0.7537
  190MOL0     O26141   0.509   3.007   5.743  0.5521  0.1443  0.3816
  190MOL0     C26142   0.505   2.865   5.788 -1.0056  0.2501 -1.0386
  190MOL0     C26143   0.647   2.819   5.791  0.3429 -1.0603 -0.0615
  190MOL0     C26144   0.675   2.687   5.851 -0.1060 -0.0483 -0.1723
  190MOL0     C26145   0.628   2.562   5.779 -0.5273 -0.7157  0.0146
  190MOL0     C26146   0.669   2.434   5.834 -0.2312 -0.1283  0.1826
  190MOL0     C26147   0.712   2.336   5.887 -0.2472 -0.1067 -0.6208
  190MOL0     C26148   0.621   3.117   5.558 -0.2304  0.1036  0.8051
  190MOL0     C26149   0.650   3.141   5.426 -0.4135 -0.1803  0.9669
  190MOL0     C26150   0.744   3.254   5.405 -0.2555 -0.2296  0.0353
  190MOL0     H26151   0.869   3.299   5.014 -0.7628 -0.7092  0.4653
  190MOL0     H26152   0.974   3.275   4.795  0.2993 -1.0279 -3.3132
  190MOL0     H26153   0.829   3.075   4.530  0.6745  3.3250  0.0701
  190MOL0     H26154   0.929   2.926   4.498  2.3356  0.5287 -0.3591
  190MOL0     H26155   1.132   3.086   4.451 -0.2372 -0.0648  0.8726
  190MOL0     H26156   0.997   3.073   4.339  0.9034  0.8482 -0.6583
  190MOL0     H26157   0.884   3.264   4.475  0.1167  0.9277  2.4262
  190MOL0     H26158   1.031   3.297   4.560 -2.1090 -1.0894  1.1390
  190MOL0     H26159   1.141   3.298   4.341 -0.3685 -0.7686 -0.0607
  190MOL0     H26160   0.994   3.332   4.264 -0.6720 -0.3507 -0.0191
  190MOL0     H26161   1.074   3.549   4.307  0.8836  0.1665  0.2942
  190MOL0     H26162   1.150   3.512   4.463 -0.2978  1.1338 -1.5664
  190MOL0     H26163   0.845   3.491   4.404 -0.0399  0.6084 -2.3895
  190MOL0     H26164   0.917   3.508   4.565 -0.0218  2.0375  0.1259
  190MOL0     H26165   0.791   3.699   4.454  0.2423  3.6345  0.3386
  190MOL0     H26166   0.930   3.705   4.333  0.2296 -2.6122 -0.0730
  190MOL0     H26167   0.937   3.745   4.641  2.2453 -1.4430 -0.4722
  190MOL0     H26168   1.078   3.752   4.540  0.2839 -1.9550  1.6863
  190MOL0     H26169   1.054   3.949   4.317 -1.9029  2.3234 -2.3047
  190MOL0     H26170   0.862   4.269   4.324  1.1405  0.8794  1.1073
  190MOL0     H26171   0.931   4.151   4.214 -0.8981  0.2879 -0.0699
  190MOL0     H26172   1.168   4.214   4.301 -1.1849 -1.7107  1.5258
  190MOL0     H26173   1.077   4.335   4.205  0.7963 -1.2845 -0.2868
  190MOL0     H26174   1.007   4.442   4.414 -0.8989 -2.5825 -6.5280
  190MOL0     H26175   1.112   4.333   4.516  4.4131 -2.1558 -1.4499
  190MOL0     H26176   1.197   4.554   4.493  1.0900 -0.4462  0.1671
  190MOL0     H26177   1.307   4.437   4.407 -0.4889 -1.4103 -2.1416
  190MOL0     H26178   1.172   4.696   4.101  0.4392 -2.6687  2.2284
  190MOL0     H26179   1.344   4.953   3.956 -1.6129  0.1077 -0.5547
  190MOL0     H26180   1.258   4.808   3.888  0.4838 -3.1649  1.8122
  190MOL0     H26181   1.427   4.825   3.858 -1.4321 -1.3671 -1.4508
  190MOL0     H26182   1.820   4.932   3.893  1.5380  0.9327 -0.3217
  190MOL0     H26183   2.057   5.008   3.842  2.0766 -2.5285 -0.2550
  190MOL0     H26184   2.376   5.144   3.932  0.2285  3.5855  0.3310
  190MOL0     H26185   2.231   5.099   3.831  0.4446 -0.3176  0.6072
  190MOL0     H26186   2.240   5.330   3.901 -0.5935 -1.6772 -1.9515
  190MOL0     H26187   2.086   5.240   3.937 -1.5904  1.4801  1.9437
  190MOL0     H26188   2.269   5.362   4.147  1.1709 -1.9138 -0.4090
  190MOL0     H26189   2.149   5.231   4.171 -0.4740  0.8709  0.0871
  190MOL0     H26190   2.033   5.427   4.240  0.1292  0.7078  0.1607
  190MOL0     H26191   1.989   5.384   4.063 -0.8124 -0.9407  2.0036
  190MOL0     H26192   2.205   5.576   4.162 -0.5541 -0.1448  0.0848
  190MOL0     H26193   2.132   5.571   4.006 -1.8930  2.5983  0.3366
  190MOL0     H26194   2.003   5.660   4.269  0.5749  0.4164  0.3344
  190MOL0     H26195   1.915   5.655   4.106 -1.2906 -0.8026  1.5625
  190MOL0     H26196   2.057   5.813   4.017 -0.3141  2.1809  0.0968
  190MOL0     H26197   2.166   5.818   4.155  1.6268  1.2005 -3.5713
  190MOL0     H26198   1.885   5.891   4.206  0.5731 -2.5422 -0.6888
  190MOL0     H26199   1.976   6.007   4.112 -3.1985  0.2434  0.0428
  190MOL0     H26200   2.148   4.957   4.261  0.8416 -2.2498  0.2490
  190MOL0     H26201   1.909   4.869   4.302 -2.0599 -3.6701 -2.3636
  190MOL0     H26202   1.617   4.701   4.298 -0.8108 -2.6376 -1.7188
  190MOL0     H26203   1.428   4.595   4.418  1.1599 -1.3318 -0.6166
  190MOL0     H26204   0.800   2.881   4.760 -1.4603 -0.4368  1.1808
  190MOL0     H26205   0.683   2.915   4.960 -2.3768  1.7679 -2.1671
  190MOL0     H26206   0.391   2.943   5.299  1.2203  1.9728 -1.6339
  190MOL0     H26207   0.346   2.921   5.526  0.7307 -0.2096  1.7659
  190MOL0     H26208   0.472   2.839   5.890  1.4067 -0.6035 -0.4203
  190MOL0     H26209   0.454   2.800   5.717  0.6704  0.5261 -2.5559
  190MOL0     H26210   0.706   2.896   5.842  1.4361 -1.3882 -0.7773
  190MOL0     H26211   0.676   2.816   5.685  1.0311 -0.8834  0.1153
  190MOL0     H26212   0.784   2.682   5.850 -0.0610  0.6577  0.8216
  190MOL0     H26213   0.640   2.671   5.953  1.5014 -0.6110  0.3293
  190MOL0     H26214   0.667   2.574   5.677  0.9694  1.3334  0.7491
  190MOL0     H26215   0.519   2.567   5.777 -0.5528 -1.3250 -1.6972
  190MOL0     H26216   0.749   2.246   5.930 -1.6449 -0.0765  0.7313
  190MOL0     H26217   0.683   3.159   5.637  1.4024 -2.2176  0.8793
  190MOL0     H26218   0.842   3.216   5.372  0.7560  1.2944  1.1353
  190MOL0     H26219   0.709   3.301   5.312  2.8071 -0.6176 -1.4677
  190MOL0     H26220   0.766   3.327   5.483 -0.4347 -0.1104 -0.0260
  191MOL0     O26221   0.446  11.020   1.172  0.9370 -0.3149 -0.5979
  191MOL0     C26222   0.551  11.021   1.243  0.6831  0.2007  0.3278
  191MOL0     O26223   0.554  11.062   1.378  0.3572  0.0131  0.3414
  191MOL0     C26224   0.445  11.096   1.457  0.0850  0.0688  0.1471
  191MOL0     C26225   0.409  11.013   1.571  0.0477  0.6433  1.3445
  191MOL0     C26226   0.298  11.047   1.654  0.0717  0.0593 -0.3851
  191MOL0     C26227   0.208  11.146   1.623 -0.4787  0.3693 -0.6292
  191MOL0     O26228   0.096  11.157   1.708  0.0175 -0.1886 -0.0368
  191MOL0     C26229   0.015  11.283   1.703 -1.0090 -0.1784 -0.1477
  191MOL0     C26230   0.112  11.386   1.773 -0.1251 -0.6221  0.0325
  191MOL0     C26231   0.176  11.323   1.901  0.9259  0.4621 -0.3745
  191MOL0     C26232   0.193  11.441   2.004  0.0948 -0.5321 -0.5614
  191MOL0     C26233   0.068  11.467   2.082  0.1328 -0.2233 -1.0552
  191MOL0     C26234   0.094  11.588   2.170  0.0823  0.7267  0.2019
  191MOL0     C26235  -0.020  11.629   2.273  0.8727  0.5771  0.5684
  191MOL0     C26236  -0.074  11.516   2.356 -0.8470 -1.0112  0.3120
  191MOL0     N26237  -0.175  11.563   2.454  0.0212  0.5969  0.5416
  191MOL0     C26238  -0.211  11.498   2.559  0.2840  0.2822 -0.8565
  191MOL0     C26239  -0.312  11.578   2.615 -0.6788  0.6284 -0.4625
  191MOL0     C26240  -0.376  11.542   2.740 -1.3391  0.8114 -0.6422
  191MOL0     C26241  -0.487  11.639   2.788  0.2910  0.4340 -0.5054
  191MOL0     C26242  -0.593  11.582   2.888  0.6257 -0.9397 -0.9504
  191MOL0     C26243  -0.523  11.495   2.993 -0.8519  0.6096 -0.3608
  191MOL0     O26244  -0.433  11.567   3.077 -0.1298 -0.1969  0.8031
  191MOL0     C26245  -0.498  11.607   3.192 -0.0657  0.5007 -0.3133
  191MOL0     C26246  -0.490  11.522   3.301  0.6212 -0.2382 -0.2104
  191MOL0     C26247  -0.546  11.553   3.420 -0.4988 -0.7321 -0.7278
  191MOL0     C26248  -0.525  11.456   3.537 -0.7794 -1.2773  0.4616
  191MOL0     C26249  -0.620  11.679   3.436  0.1607  0.9423  0.0659
  191MOL0     C26250  -0.680  11.733   3.555 -0.6779  0.2168 -1.0094
  191MOL0     O26251  -0.660  11.871   3.572  0.3466 -0.6982 -0.8179
  191MOL0     C26252  -0.727  11.915   3.684 -0.7265  0.3563  0.5132
  191MOL0     C26253  -0.655  11.978   3.788  0.4798  0.4967 -0.3655
  191MOL0     C26254  -0.725  12.035   3.894  0.5237 -0.4687 -0.5011
  191MOL0     C26255  -0.867  12.035   3.894 -0.1405 -1.1228  0.4764
  191MOL0     O26256  -0.946  12.106   3.979 -0.1202 -0.4131  0.0888
  191MOL0     C26257  -0.895  12.132   4.111 -0.5924 -0.0315  0.3668
  191MOL0     C26258  -0.911  12.015   4.208  0.3273 -0.5780  0.1767
  191MOL0     C26259  -1.049  11.957   4.193 -0.1906 -0.1659 -0.2747
  191MOL0     C26260  -1.087  11.873   4.319  0.0946 -0.6359  0.4332
  191MOL0     C26261  -1.202  11.781   4.299 -0.2859  0.3354  0.2840
  191MOL0     C26262  -1.213  11.675   4.404 -0.2610 -0.1137 -0.2122
  191MOL0     C26263  -1.273  11.735   4.529 -0.4653 -0.3046 -0.2560
  191MOL0     C26264  -1.252  11.624   4.638 -0.7688  0.9999  0.2656
  191MOL0    Cl26265  -1.326  11.673   4.794  0.2505 -0.1772 -0.0310
  191MOL0     C26266  -0.940  11.968   3.791 -0.1874 -0.2364  0.7483
  191MOL0     C26267  -0.871  11.904   3.686  0.2188  0.2255 -0.4902
  191MOL0     O26268  -0.745  11.655   3.634  0.0261  0.7829  0.8967
  191MOL0     C26269  -0.629  11.765   3.322 -0.4382 -0.1450  0.4209
  191MOL0     C26270  -0.568  11.733   3.200 -0.8755 -0.3592  0.5647
  191MOL0     N26271  -0.323  11.691   2.543 -0.0902  0.1380  0.8918
  191MOL0     N26272  -0.255  11.677   2.438 -0.0605  0.4112  0.2196
  191MOL0     C26273   0.231  11.223   1.516 -0.4939  0.0392 -0.0110
  191MOL0     C26274   0.352  11.203   1.436 -0.4219 -0.7240 -0.1234
  191MOL0     C26275   0.677  10.975   1.182 -0.6743 -0.5615 -0.5610
  191MOL0     C26276   0.778  10.936   1.274  0.8249  1.0339  0.5906
  191MOL0     C26277   0.906  10.897   1.232 -0.3816 -0.5103  0.0500
  191MOL0     C26278   0.942  10.892   1.095  0.1771 -0.1000 -0.0003
  191MOL0     O26279   1.073  10.857   1.060  0.0681 -0.5012 -0.1677
  191MOL0     C26280   1.129  10.828   0.930  0.2114  0.1168  0.1495
  191MOL0     C26281   1.273  10.870   0.942 -0.0673 -0.2193 -0.5055
  191MOL0     C26282   1.353  10.848   0.812  0.7099 -0.0501 -0.7024
  191MOL0     C26283   1.465  10.955   0.790  0.8836  0.2673  0.7658
  191MOL0     C26284   1.577  10.914   0.703 -0.6882 -0.5662 -0.0259
  191MOL0     C26285   1.686  10.904   0.650  0.4196  0.0265 -0.1096
  191MOL0     C26286   0.836  10.917   1.000  0.5311  0.3593 -0.4945
  191MOL0     C26287   0.706  10.966   1.040 -0.6051  0.4285  0.2347
  191MOL0     C26288   0.607  11.004   0.932 -0.6398  0.2813  0.0047
  191MOL0     H26289   0.464  10.927   1.610 -4.0210 -2.2990  1.2610
  191MOL0     H26290   0.277  10.982   1.738  2.5099 -0.9572 -0.4931
  191MOL0     H26291  -0.068  11.286   1.773  0.1373 -2.3008  1.4306
  191MOL0     H26292  -0.009  11.305   1.598 -0.1412  0.4668 -0.2270
  191MOL0     H26293   0.188  11.410   1.698  0.5294 -1.2909  0.4758
  191MOL0     H26294   0.055  11.477   1.793  1.0281  0.3955 -1.1278
  191MOL0     H26295   0.108  11.250   1.947  0.3714  1.2951  0.1475
  191MOL0     H26296   0.270  11.274   1.874  0.2005  0.5824 -3.4999
  191MOL0     H26297   0.274  11.405   2.067  1.7172 -0.6739 -2.6257
  191MOL0     H26298   0.222  11.533   1.953 -0.0785  0.2388  0.6802
  191MOL0     H26299   0.039  11.376   2.136 -0.4086 -0.6775 -2.0769
  191MOL0     H26300  -0.015  11.496   2.016 -0.5732 -1.3077 -0.6679
  191MOL0     H26301   0.181  11.552   2.227 -0.0118  1.1354  0.6118
  191MOL0     H26302   0.135  11.668   2.108 -1.3590 -0.3465 -2.2532
  191MOL0     H26303  -0.102  11.658   2.205  1.7459 -0.2655 -0.8956
  191MOL0     H26304  -0.005  11.715   2.339 -4.7305  0.4900  2.5495
  191MOL0     H26305  -0.119  11.438   2.294 -0.2801  0.1105 -1.5876
  191MOL0     H26306   0.008  11.464   2.406 -1.1252 -1.8888 -0.1339
  191MOL0     H26307  -0.169  11.402   2.589  0.0730  0.5024  0.2077
  191MOL0     H26308  -0.299  11.528   2.817  1.7621 -0.3627 -3.6601
  191MOL0     H26309  -0.424  11.447   2.715 -0.5618  0.0804  0.5315
  191MOL0     H26310  -0.445  11.731   2.830 -3.7474  3.1278 -1.8336
  191MOL0     H26311  -0.545  11.672   2.702  1.4757  1.7108 -0.8419
  191MOL0     H26312  -0.640  11.669   2.935  1.0944 -1.1667 -0.0468
  191MOL0     H26313  -0.665  11.522   2.831  2.3026 -1.3771 -2.7298
  191MOL0     H26314  -0.603  11.438   3.044  1.3616 -1.3147  1.1811
  191MOL0     H26315  -0.463  11.424   2.936 -0.6143  0.0559  0.5449
  191MOL0     H26316  -0.432  11.431   3.287 -1.5468 -2.1533  2.2188
  191MOL0     H26317  -0.578  11.474   3.631  1.9455 -4.1609  2.8067
  191MOL0     H26318  -0.418  11.456   3.560 -0.4974  2.1855 -0.3204
  191MOL0     H26319  -0.546  11.350   3.523 -1.5484 -1.1578  0.6925
  191MOL0     H26320  -0.546  11.976   3.790  0.5057  0.3005 -1.3304
  191MOL0     H26321  -0.659  12.067   3.973 -0.7247  1.9441 -0.3553
  191MOL0     H26322  -0.792  12.167   4.109 -0.6798  0.2250  0.3292
  191MOL0     H26323  -0.948  12.212   4.163 -2.0181 -1.1327  0.6937
  191MOL0     H26324  -0.831  11.941   4.194 -0.6022 -1.6007  0.1666
  191MOL0     H26325  -0.896  12.056   4.308  1.1662  2.9970 -1.2515
  191MOL0     H26326  -1.053  11.901   4.099 -0.1796  1.0851 -1.0350
  191MOL0     H26327  -1.137  12.021   4.182 -0.2337  0.0598  1.1773
  191MOL0     H26328  -1.113  11.946   4.396 -0.9654 -0.7736  0.2214
  191MOL0     H26329  -1.002  11.820   4.363  0.3866 -1.1409 -0.6893
  191MOL0     H26330  -1.294  11.840   4.294 -0.4474  0.0574 -0.0850
  191MOL0     H26331  -1.187  11.737   4.200 -2.8468  2.6372 -1.2750
  191MOL0     H26332  -1.125  11.612   4.415 -1.0957 -1.2669  0.0946
  191MOL0     H26333  -1.290  11.615   4.355 -1.8138  1.2510  0.4304
  191MOL0     H26334  -1.380  11.755   4.524 -0.6135 -0.3386  1.8239
  191MOL0     H26335  -1.214  11.825   4.549  0.9961 -1.0982 -0.8124
  191MOL0     H26336  -1.149  11.591   4.654 -0.1271  1.2386 -2.7326
  191MOL0     H26337  -1.309  11.538   4.603  0.2370  0.0762  0.8261
  191MOL0     H26338  -1.048  11.975   3.792 -0.1983 -0.2904  1.9886
  191MOL0     H26339  -0.914  11.849   3.603 -3.1035  1.6377  0.1611
  191MOL0     H26340  -0.697  11.849   3.334 -1.7752 -1.1750  0.2622
  191MOL0     H26341  -0.565  11.795   3.111  0.9525 -1.6887 -0.3592
  191MOL0     H26342   0.169  11.311   1.499 -0.2382 -0.3839 -3.7760
  191MOL0     H26343   0.366  11.281   1.363  2.3776 -1.9728 -1.0565
  191MOL0     H26344   0.754  10.939   1.380  0.5021  1.7001  0.5009
  191MOL0     H26345   0.986  10.879   1.303 -0.4300  1.3787  0.6483
  191MOL0     H26346   1.112  10.724   0.903  0.6659  0.8569 -3.5681
  191MOL0     H26347   1.080  10.887   0.851  1.1884  0.8212  0.0491
  191MOL0     H26348   1.326  10.817   1.021 -2.3203 -1.3219  0.3519
  191MOL0     H26349   1.274  10.975   0.974 -1.3076 -0.9199  2.1321
  191MOL0     H26350   1.387  10.744   0.815  0.9573  0.0274 -0.8197
  191MOL0     H26351   1.290  10.856   0.722  1.3394 -0.0284 -1.1507
  191MOL0     H26352   1.512  10.967   0.888 -1.9666  1.9868  2.0579
  191MOL0     H26353   1.425  11.054   0.766  2.0373  0.4255 -0.6146
  191MOL0     H26354   1.776  10.922   0.595  0.4588  0.5994  0.1362
  191MOL0     H26355   0.857  10.913   0.894 -0.9548  0.8332 -0.8334
  191MOL0     H26356   0.657  11.004   0.834 -1.6992 -0.0453 -0.5565
  191MOL0     H26357   0.527  10.929   0.934  0.1116 -0.5425 -0.3400
  191MOL0     H26358   0.565  11.105   0.942 -2.2399 -0.4686  1.3507
  192MOL0     O26359  10.407   5.311   1.062  0.4632  0.6485 -0.0027
  192MOL0     C26360  10.298   5.352   1.039  0.6656 -0.3949 -1.0584
  192MOL0     O26361  10.266   5.436   0.941  1.1333 -1.1395 -0.0087
  192MOL0     C26362  10.344   5.442   0.835 -0.3398  1.0664 -0.1445
  192MOL0     C26363  10.433   5.547   0.806  0.0518 -0.0896 -1.1353
  192MOL0     C26364  10.504   5.540   0.685  0.2416 -0.2430 -0.1597
  192MOL0     C26365  10.516   5.420   0.615  0.4440  0.5011 -0.0751
  192MOL0     O26366  10.587   5.423   0.496  0.4183  0.1574  0.2678
  192MOL0     C26367  10.502   5.450   0.385 -0.3882 -0.6149 -0.1497
  192MOL0     C26368  10.451   5.319   0.324  0.5860  0.4440  0.8273
  192MOL0     C26369  10.411   5.328   0.170  0.6217  0.0346  0.1893
  192MOL0     C26370  10.311   5.435   0.156  0.0271  0.7205  0.0406
  192MOL0     C26371  10.183   5.449   0.255 -0.1953 -0.6916  0.1123
  192MOL0     C26372  10.046   5.511   0.188  0.8820  0.2086  0.9679
  192MOL0     C26373   9.919   5.542   0.268 -0.3389  1.1867 -0.1954
  192MOL0     C26374   9.850   5.412   0.332  0.8365 -1.0816  0.1990
  192MOL0     N26375   9.702   5.434   0.339 -0.4312 -0.4330  0.6017
  192MOL0     C26376   9.617   5.445   0.234 -0.4353 -0.2610  1.0592
  192MOL0     C26377   9.498   5.440   0.286  0.2157 -0.9243 -1.6083
  192MOL0     C26378   9.374   5.456   0.207  0.0327  0.1047  0.4459
  192MOL0     C26379   9.240   5.433   0.268 -0.3753 -1.0968 -0.0673
  192MOL0     C26380   9.111   5.470   0.183  0.0827 -0.0733 -0.5201
  192MOL0     C26381   8.984   5.394   0.246  0.0227  0.1128  1.2241
  192MOL0     O26382   8.957   5.443   0.376  0.1592  0.1063 -0.6225
  192MOL0     C26383   8.835   5.425   0.424 -0.8584  0.5910 -0.5035
  192MOL0     C26384   8.724   5.371   0.355 -0.0438 -0.0301 -1.1832
  192MOL0     C26385   8.595   5.382   0.411  1.1702  1.0935  0.3900
  192MOL0     C26386   8.482   5.319   0.324 -0.7294 -0.7042 -0.4928
  192MOL0     C26387   8.573   5.432   0.537 -0.5020 -0.2600  0.3598
  192MOL0     C26388   8.441   5.439   0.611  0.3053  0.1731 -0.1634
  192MOL0     O26389   8.444   5.524   0.716 -0.5737 -0.0949  0.7799
  192MOL0     C26390   8.360   5.501   0.817 -0.0086  0.6046 -0.4876
  192MOL0     C26391   8.221   5.526   0.805 -0.1300  0.3332 -0.5522
  192MOL0     C26392   8.135   5.517   0.912  0.3282 -0.3297 -0.6858
  192MOL0     C26393   8.188   5.493   1.045  0.2131 -0.6972 -0.2338
  192MOL0     O26394   8.123   5.482   1.170  0.4645  0.1506 -0.0507
  192MOL0     C26395   7.986   5.436   1.158  0.4132  0.2581  0.7049
  192MOL0     C26396   7.952   5.347   1.273 -0.1419  0.2794 -0.1166
  192MOL0     C26397   7.813   5.259   1.241 -0.7802 -0.5104  0.1914
  192MOL0     C26398   7.792   5.166   1.365  0.2972  0.0001  0.4063
  192MOL0     C26399   7.704   5.051   1.308 -0.4452 -0.2724 -0.3724
  192MOL0     C26400   7.717   4.932   1.389  0.1410  0.2660  0.0903
  192MOL0     C26401   7.605   4.826   1.349  0.2069 -0.0277 -0.4568
  192MOL0     C26402   7.637   4.748   1.235 -0.2797  0.5897  0.0827
  192MOL0    Cl26403   7.793   4.655   1.246 -0.0838 -0.4043  0.3654
  192MOL0     C26404   8.325   5.462   1.055 -1.0347  0.8241  0.2720
  192MOL0     C26405   8.410   5.475   0.948  0.0395  0.6197  0.5747
  192MOL0     O26406   8.346   5.364   0.577 -0.5418 -0.0766 -0.1410
  192MOL0     C26407   8.687   5.478   0.609 -0.6056  0.5500  0.3220
  192MOL0     C26408   8.819   5.475   0.552  1.3392 -0.0632 -0.2807
  192MOL0     N26409   9.503   5.452   0.422 -0.1440 -0.0575 -0.3050
  192MOL0     N26410   9.632   5.445   0.460  0.3068 -1.2187  1.0391
  192MOL0     C26411  10.453   5.308   0.656 -0.0094  0.8450 -1.0692
  192MOL0     C26412  10.356   5.316   0.766 -0.0022  0.0865 -0.4230
  192MOL0     C26413  10.185   5.331   1.138 -0.5094  1.0810  0.0789
  192MOL0     C26414  10.057   5.339   1.091  0.0930 -0.3563  0.1659
  192MOL0     C26415   9.942   5.326   1.173  0.2200  0.5219 -0.2857
  192MOL0     C26416   9.955   5.306   1.309  0.3869  0.2393 -0.0656
  192MOL0     O26417   9.843   5.319   1.392  0.3655  1.0780 -0.6204
  192MOL0     C26418   9.869   5.309   1.533  0.2282 -0.2211 -0.5671
  192MOL0     C26419   9.733   5.351   1.601 -0.9025 -0.0276  0.6049
  192MOL0     C26420   9.614   5.257   1.590 -0.4540  0.1551 -0.0022
  192MOL0     C26421   9.627   5.137   1.496  0.7016  0.0941  0.1690
  192MOL0     C26422   9.508   5.044   1.499  0.2903  0.4707  0.7918
  192MOL0     C26423   9.419   4.965   1.478  0.4898 -0.0492  0.1259
  192MOL0     C26424  10.082   5.272   1.359 -0.3676  0.2082 -1.1120
  192MOL0     C26425  10.196   5.290   1.275  0.8936 -0.0440 -0.3388
  192MOL0     C26426  10.324   5.231   1.342  1.2665 -0.4971  0.8444
  192MOL0     H26427  10.433   5.632   0.874 -0.4456 -1.5181  0.7445
  192MOL0     H26428  10.546   5.631   0.643  1.9951 -1.6754 -1.6748
  192MOL0     H26429  10.562   5.510   0.315 -1.6791  1.3429  0.3478
  192MOL0     H26430  10.411   5.507   0.406 -2.4714 -2.3129 -3.7138
  192MOL0     H26431  10.518   5.238   0.354  0.4011  0.4830  1.3484
  192MOL0     H26432  10.355   5.297   0.371 -0.0077  1.3952  0.1019
  192MOL0     H26433  10.493   5.344   0.100  0.1119  0.9104 -0.2280
  192MOL0     H26434  10.349   5.241   0.146 -3.6008  2.2210  2.0922
  192MOL0     H26435  10.351   5.537   0.162 -4.5158  2.7291  1.2150
  192MOL0     H26436  10.272   5.430   0.054  0.4662 -3.0471 -0.0793
  192MOL0     H26437  10.204   5.506   0.346  2.8947  2.0160 -2.0408
  192MOL0     H26438  10.163   5.344   0.278  2.5031 -2.3670 -4.0233
  192MOL0     H26439  10.080   5.606   0.145  3.4049 -1.1971 -0.3279
  192MOL0     H26440  10.021   5.441   0.108 -1.9658 -0.2616  2.1439
  192MOL0     H26441   9.847   5.577   0.193 -3.2061 -1.8740  0.8800
  192MOL0     H26442   9.935   5.613   0.349 -0.4165  1.6001 -0.5396
  192MOL0     H26443   9.877   5.337   0.257 -1.5194  0.1002 -1.9835
  192MOL0     H26444   9.883   5.401   0.436  2.7532  1.3436 -0.0801
  192MOL0     H26445   9.648   5.447   0.130  0.2508 -0.5165  1.2496
  192MOL0     H26446   9.383   5.420   0.105 -0.5906  0.3592  0.3007
  192MOL0     H26447   9.367   5.566   0.208 -1.2521  0.0356  1.0438
  192MOL0     H26448   9.239   5.324   0.278 -1.8886 -1.2712 -1.5715
  192MOL0     H26449   9.225   5.491   0.359  0.4939  1.3102 -1.3620
  192MOL0     H26450   9.078   5.575   0.182 -1.1821 -0.4513 -0.6349
  192MOL0     H26451   9.124   5.442   0.079 -3.5239 -1.6342 -0.7133
  192MOL0     H26452   8.907   5.432   0.178 -0.1494 -0.8123  0.8851
  192MOL0     H26453   9.000   5.286   0.246  1.0638  0.1530 -2.1977
  192MOL0     H26454   8.733   5.335   0.253 -1.6850  1.0474 -1.7461
  192MOL0     H26455   8.513   5.347   0.223  0.0758 -0.4163 -0.1763
  192MOL0     H26456   8.393   5.377   0.349  0.2071  1.0557 -1.1344
  192MOL0     H26457   8.468   5.211   0.334 -1.2468 -0.5481  0.7185
  192MOL0     H26458   8.176   5.536   0.707 -0.0676 -3.5548 -1.1651
  192MOL0     H26459   8.034   5.554   0.895  1.0488  2.6411  0.8444
  192MOL0     H26460   7.926   5.528   1.158  2.1082  1.4831 -1.4261
  192MOL0     H26461   7.972   5.381   1.065 -2.3039  1.1987  0.4732
  192MOL0     H26462   8.029   5.278   1.311  0.1996  0.4596 -0.4768
  192MOL0     H26463   7.924   5.412   1.356 -1.7220  0.8888 -1.0925
  192MOL0     H26464   7.830   5.200   1.151 -1.4892  0.4507 -0.5929
  192MOL0     H26465   7.735   5.333   1.223 -0.5677 -0.4491 -0.5172
  192MOL0     H26466   7.745   5.219   1.448  0.6308  0.2985  0.4076
  192MOL0     H26467   7.891   5.131   1.395  0.9469  0.4679 -1.0703
  192MOL0     H26468   7.601   5.086   1.316 -0.0319  1.1787 -1.0014
  192MOL0     H26469   7.730   5.023   1.205 -1.2041  0.8088 -0.8777
  192MOL0     H26470   7.699   4.960   1.493  0.0143  0.2998  0.0591
  192MOL0     H26471   7.809   4.874   1.383 -0.8190 -1.3066  0.1114
  192MOL0     H26472   7.508   4.870   1.326  0.8142 -0.0164 -3.3561
  192MOL0     H26473   7.599   4.758   1.435 -1.4798 -1.4211 -1.6286
  192MOL0     H26474   7.630   4.804   1.141  1.2389 -0.3916 -0.6497
  192MOL0     H26475   7.556   4.675   1.222  0.4437 -0.8141  2.8525
  192MOL0     H26476   8.379   5.442   1.146  0.5547  1.1764 -0.5529
  192MOL0     H26477   8.515   5.451   0.960  0.3046  1.9738  1.1310
  192MOL0     H26478   8.675   5.526   0.706  0.3914  0.0629  0.7047
  192MOL0     H26479   8.902   5.507   0.612  1.9817 -1.3113 -0.4601
  192MOL0     H26480  10.453   5.205   0.623 -0.3495 -1.3751  4.6448
  192MOL0     H26481  10.300   5.227   0.790  0.6020 -0.0166  0.6570
  192MOL0     H26482  10.048   5.348   0.983  2.5314  1.5668  0.0289
  192MOL0     H26483   9.843   5.335   1.131  0.0936  1.8676  0.2773
  192MOL0     H26484   9.889   5.210   1.575  0.7682  2.2174  6.1808
  192MOL0     H26485   9.947   5.377   1.568  0.3952 -0.3720 -0.6475
  192MOL0     H26486   9.703   5.450   1.566 -0.9474 -1.4710 -4.2561
  192MOL0     H26487   9.770   5.353   1.704  0.7058  0.2991  0.0509
  192MOL0     H26488   9.609   5.230   1.696  5.2136 -0.0421  0.5055
  192MOL0     H26489   9.522   5.314   1.571 -0.9453 -0.4171  0.5961
  192MOL0     H26490   9.715   5.079   1.526 -1.1362 -2.9754  0.0740
  192MOL0     H26491   9.652   5.171   1.395  2.0277 -3.2836 -0.7920
  192MOL0     H26492   9.341   4.892   1.468  1.8106 -1.6372  1.0139
  192MOL0     H26493  10.091   5.259   1.466 -1.6524 -0.4821 -1.0753
  192MOL0     H26494  10.317   5.122   1.328 -1.6267 -0.3143  0.3126
  192MOL0     H26495  10.413   5.273   1.294 -0.4695  2.3178 -0.0841
  192MOL0     H26496  10.320   5.251   1.449 -0.5218 -1.6087  1.0235
  193MOL0     O26497   7.509   0.047  11.431 -0.1679 -0.8100  0.8890
  193MOL0     C26498   7.425   0.034  11.339  1.0230  0.0484  0.2549
  193MOL0     O26499   7.448   0.022  11.204 -0.1982  0.1508 -0.0231
  193MOL0     C26500   7.572   0.023  11.155  0.1644  0.6836  0.4599
  193MOL0     C26501   7.585   0.119  11.049  0.5977 -0.0204 -0.2404
  193MOL0     C26502   7.709   0.128  10.985  0.2987  0.5477  0.3235
  193MOL0     C26503   7.818   0.064  11.041 -0.3772  0.6938  0.5017
  193MOL0     O26504   7.941   0.077  10.978 -0.5553 -0.2515  0.2381
  193MOL0     C26505   7.978   0.217  10.949  1.8198  1.0856 -0.2308
  193MOL0     C26506   8.118   0.228  10.990 -0.6481 -0.6464 -0.3578
  193MOL0     C26507   8.204   0.331  10.904  0.3206  0.9059 -1.0414
  193MOL0     C26508   8.351   0.330  10.948  0.3091  0.5072 -0.5883
  193MOL0     C26509   8.437   0.441  10.871  0.3532  0.8510  0.0425
  193MOL0     C26510   8.586   0.416  10.881 -1.1208 -0.1394  0.0055
  193MOL0     C26511   8.682   0.519  10.832  0.6624 -0.5112  0.3152
  193MOL0     C26512   8.667   0.651  10.912 -0.1542  0.0302  0.4403
  193MOL0     N26513   8.760   0.745  10.856 -0.4149 -0.0696 -0.8803
  193MOL0     C26514   8.891   0.770  10.895  0.7804 -0.3830 -0.4316
  193MOL0     C26515   8.941   0.856  10.804 -0.3505 -0.2422 -0.1503
  193MOL0     C26516   9.073   0.919  10.827  0.3218 -0.4160 -0.1138
  193MOL0     C26517   9.144   0.968  10.694 -0.6408  0.3914  0.2831
  193MOL0     C26518   9.234   0.860  10.635 -0.5269  0.0794  0.6774
  193MOL0     C26519   9.304   0.916  10.510 -0.3173 -0.1183 -0.6838
  193MOL0     O26520   9.368   0.806  10.449 -0.0446 -0.2430 -0.1660
  193MOL0     C26521   9.463   0.826  10.348  0.5138 -0.0483 -0.2382
  193MOL0     C26522   9.550   0.722  10.318  0.4257  0.1028  0.9160
  193MOL0     C26523   9.666   0.744  10.237 -0.5123  0.3758 -0.8438
  193MOL0     C26524   9.773   0.639  10.242  0.4003 -0.4501 -0.1581
  193MOL0     C26525   9.671   0.865  10.159  0.2610  0.6961 -0.7257
  193MOL0     C26526   9.777   0.893  10.058  0.5265 -0.4217 -0.5372
  193MOL0     O26527   9.762   1.013  10.001  0.3053  0.6565 -0.6705
  193MOL0     C26528   9.852   1.074   9.922 -0.2119  0.1325  0.0001
  193MOL0     C26529   9.976   1.035   9.873  0.1850  0.1950 -0.9834
  193MOL0     C26530  10.060   1.111   9.790 -0.8956  0.5106  0.1060
  193MOL0     C26531  10.014   1.238   9.754 -0.6002 -0.2842  1.1821
  193MOL0     O26532  10.104   1.316   9.687  0.1931  0.3029 -0.5979
  193MOL0     C26533  10.058   1.422   9.598  0.3963 -0.3071  0.0185
  193MOL0     C26534  10.170   1.508   9.536 -0.5707 -0.2335  0.0743
  193MOL0     C26535  10.131   1.658   9.495 -0.4062  0.2151 -0.1242
  193MOL0     C26536  10.023   1.639   9.385  0.8482 -0.5023  0.4976
  193MOL0     C26537   9.876   1.695   9.435 -0.4576  0.2329  0.6154
  193MOL0     C26538   9.773   1.726   9.320 -0.7362 -0.4632 -0.4324
  193MOL0     C26539   9.741   1.606   9.227  0.0433  0.2808  0.7669
  193MOL0     C26540   9.630   1.525   9.296  1.2783  0.0462 -0.2094
  193MOL0    Cl26541   9.472   1.595   9.277 -0.0166  0.0658  0.4598
  193MOL0     C26542   9.885   1.276   9.793  0.3840 -0.2027 -0.0899
  193MOL0     C26543   9.812   1.195   9.876  0.3709 -0.6116 -0.3511
  193MOL0     O26544   9.850   0.804  10.024  0.6325  0.0440  0.2054
  193MOL0     C26545   9.564   0.957  10.182  0.2877 -0.9614  0.3648
  193MOL0     C26546   9.468   0.941  10.283 -0.2022 -0.6573 -0.3991
  193MOL0     N26547   8.840   0.887  10.715  0.0750  0.1062 -0.8998
  193MOL0     N26548   8.728   0.818  10.745 -0.9947  0.0709 -0.0030
  193MOL0     C26549   7.802  -0.033  11.136 -0.7699 -1.4257 -0.2469
  193MOL0     C26550   7.682  -0.052  11.200 -0.1596 -0.6096 -0.2627
  193MOL0     C26551   7.272   0.028  11.373  0.0445 -0.2168 -1.1536
  193MOL0     C26552   7.181  -0.002  11.270  0.6049  0.7127 -0.1962
  193MOL0     C26553   7.043  -0.015  11.302  0.7668  0.4958  0.2659
  193MOL0     C26554   6.992  -0.006  11.433 -0.8967 -0.2645  1.5889
  193MOL0     O26555   6.864  -0.016  11.456  0.7555 -0.3105  0.1796
  193MOL0     C26556   6.814   0.002  11.592 -0.3021 -0.9243 -0.0494
  193MOL0     C26557   6.663  -0.019  11.592 -0.1657  0.0470 -0.0305
  193MOL0     C26558   6.582   0.103  11.528  0.0973  0.0909 -0.0497
  193MOL0     C26559   6.596   0.126  11.373  1.2866 -0.1467  0.8904
  193MOL0     C26560   6.572  -0.001  11.298  0.0030 -0.3464  0.0112
  193MOL0     C26561   6.537  -0.082  11.217  0.0400 -0.1527 -0.3517
  193MOL0     C26562   7.081   0.013  11.540 -0.2444 -0.2939 -0.1876
  193MOL0     C26563   7.218   0.032  11.509  1.0571  0.1294 -0.3410
  193MOL0     C26564   7.314   0.037  11.625 -0.7203  0.1834 -0.5729
  193MOL0     H26565   7.505   0.185  11.017  2.2453  1.7987 -0.8281
  193MOL0     H26566   7.710   0.196  10.901  1.1508 -0.4936 -0.5387
  193MOL0     H26567   7.920   0.287  11.011  1.7317  1.1096 -0.3401
  193MOL0     H26568   7.963   0.229  10.841  2.0738 -0.2764 -0.4342
  193MOL0     H26569   8.124   0.258  11.096  1.1023  1.0264 -0.8676
  193MOL0     H26570   8.179   0.139  10.974 -2.2530 -1.6119 -1.3085
  193MOL0     H26571   8.182   0.325  10.797  0.3527 -0.5685 -0.9899
  193MOL0     H26572   8.166   0.430  10.934  0.6545  0.6342  0.3828
  193MOL0     H26573   8.382   0.355  11.050 -0.3423 -2.1425  0.3405
  193MOL0     H26574   8.387   0.229  10.927  1.8535  0.5682  1.4091
  193MOL0     H26575   8.419   0.539  10.914  1.6952  1.5265 -0.8658
  193MOL0     H26576   8.399   0.441  10.769 -0.1725 -0.4040  0.2198
  193MOL0     H26577   8.604   0.407  10.988 -0.2449  0.6987 -0.0641
  193MOL0     H26578   8.615   0.325  10.827  0.0138 -0.2359  0.7629
  193MOL0     H26579   8.665   0.556  10.730  4.4064 -1.3974 -0.7992
  193MOL0     H26580   8.783   0.479  10.838  0.9772  0.0338 -0.9632
  193MOL0     H26581   8.564   0.687  10.906 -1.5679 -3.8080 -1.3730
  193MOL0     H26582   8.698   0.629  11.014  0.3494 -0.1587  0.2462
  193MOL0     H26583   8.942   0.738  10.985 -0.9064 -0.9078  0.3821
  193MOL0     H26584   9.143   0.868  10.894 -1.9655 -1.3907  1.7108
  193MOL0     H26585   9.064   1.015  10.879  2.5490  0.3548 -1.0219
  193MOL0     H26586   9.077   1.016  10.622 -0.7809 -0.3317 -0.0742
  193MOL0     H26587   9.206   1.055  10.719  2.4203 -1.1540 -1.3395
  193MOL0     H26588   9.300   0.825  10.714 -0.2088  0.7477  0.7140
  193MOL0     H26589   9.178   0.768  10.613  0.9847 -0.7973  0.3696
  193MOL0     H26590   9.240   0.974  10.443  1.3838  2.0871 -0.5208
  193MOL0     H26591   9.387   0.982  10.536  0.4567  0.2087 -3.5596
  193MOL0     H26592   9.543   0.627  10.370  2.0686  0.0309  1.0408
  193MOL0     H26593   9.744   0.567  10.319 -2.0044 -1.0358 -1.4913
  193MOL0     H26594   9.872   0.685  10.249  0.2539 -0.1471 -0.0878
  193MOL0     H26595   9.770   0.589  10.144 -2.8807  3.8785 -2.6220
  193MOL0     H26596  10.034   0.947   9.902  0.2463  0.1196 -1.3319
  193MOL0     H26597  10.157   1.081   9.751  0.0425  0.5347  2.2554
  193MOL0     H26598  10.012   1.367   9.516 -1.0477 -0.5264  0.9361
  193MOL0     H26599   9.984   1.484   9.649  0.6419 -0.1359  0.1695
  193MOL0     H26600  10.258   1.506   9.601 -0.9849  4.8412  1.1806
  193MOL0     H26601  10.205   1.453   9.448  0.9693  2.5504 -1.1679
  193MOL0     H26602  10.223   1.694   9.448  1.6137 -3.4229  0.6316
  193MOL0     H26603  10.122   1.710   9.591 -1.3532 -2.4642  1.3323
  193MOL0     H26604  10.011   1.537   9.348 -1.5027  0.4592 -1.7635
  193MOL0     H26605  10.050   1.707   9.304 -0.2859 -0.3031  0.2613
  193MOL0     H26606   9.827   1.629   9.508  0.3582  0.3957  1.3343
  193MOL0     H26607   9.889   1.785   9.495 -0.2127 -0.4055  1.5479
  193MOL0     H26608   9.804   1.801   9.247  1.2453 -0.4723  0.3215
  193MOL0     H26609   9.682   1.766   9.366  0.0606  1.7326 -0.6377
  193MOL0     H26610   9.828   1.544   9.206 -1.1762 -1.0415 -0.6925
  193MOL0     H26611   9.706   1.632   9.126  1.8378  2.6052  0.6932
  193MOL0     H26612   9.639   1.527   9.405 -1.8490 -2.0485  0.2167
  193MOL0     H26613   9.626   1.420   9.265  0.5904  0.8911 -3.3833
  193MOL0     H26614   9.842   1.370   9.759  1.8973  0.6700  0.2921
  193MOL0     H26615   9.719   1.231   9.919  1.3344  1.6277 -0.0344
  193MOL0     H26616   9.561   1.046  10.119  1.7932 -2.0657 -1.3703
  193MOL0     H26617   9.393   1.019  10.292 -0.2356 -0.7156 -0.1790
  193MOL0     H26618   7.894  -0.086  11.159  0.1116  1.3301  3.7096
  193MOL0     H26619   7.670  -0.119  11.285 -1.0180  0.9111  0.8820
  193MOL0     H26620   7.219  -0.027  11.171  1.8984 -0.3216  0.5248
  193MOL0     H26621   6.981  -0.027  11.213 -0.9500 -1.3651  1.6193
  193MOL0     H26622   6.854  -0.069  11.665  0.1746 -3.6296 -2.6992
  193MOL0     H26623   6.842   0.103  11.623 -0.3882 -0.5134 -1.2717
  193MOL0     H26624   6.619  -0.038  11.691 -0.8983 -0.9550 -0.5334
  193MOL0     H26625   6.640  -0.108  11.533  1.6400 -2.5818  2.8739
  193MOL0     H26626   6.477   0.085  11.552  0.8142 -0.1162  3.5229
  193MOL0     H26627   6.608   0.192  11.586 -0.4591  0.5966 -0.5647
  193MOL0     H26628   6.688   0.175  11.339  0.9267  0.3592  0.6318
  193MOL0     H26629   6.520   0.195  11.337 -0.6495 -0.2085  4.4571
  193MOL0     H26630   6.510  -0.161  11.151 -0.6086  0.5187 -0.8987
  193MOL0     H26631   7.053   0.021  11.644 -0.2333 -1.6263 -0.0763
  193MOL0     H26632   7.257   0.057  11.716 -0.5433  1.4774 -0.7310
  193MOL0     H26633   7.367  -0.059  11.629 -0.1970  0.4961  0.3354
  193MOL0     H26634   7.385   0.118  11.607  0.2268 -0.8389 -1.6444
  194MOL0     O26635   9.994   7.119   7.029  0.2908  0.0908 -0.0825
  194MOL0     C26636   9.998   7.241   7.045 -0.0259  0.8616  0.1062
  194MOL0     O26637  10.012   7.301   7.164 -0.3716 -0.0231  0.1620
  194MOL0     C26638  10.040   7.231   7.279 -0.3982 -0.5195  0.5011
  194MOL0     C26639   9.981   7.273   7.403 -0.3432 -0.4214  0.4156
  194MOL0     C26640  10.019   7.219   7.527 -0.3635  0.2104 -0.0265
  194MOL0     C26641  10.102   7.112   7.537 -1.1285  0.0651  0.1780
  194MOL0     O26642  10.141   7.066   7.662  0.1604 -0.0518  0.2867
  194MOL0     C26643  10.081   6.949   7.701  0.5721  0.5926  0.8068
  194MOL0     C26644   9.935   6.980   7.748 -0.5092 -0.0045  0.4777
  194MOL0     C26645   9.862   6.856   7.799  0.3573  0.0233  0.1522
  194MOL0     C26646   9.925   6.803   7.934  0.4063  0.3753  0.0299
  194MOL0     C26647   9.906   6.914   8.041 -1.2196  0.6549  0.0084
  194MOL0     C26648   9.764   6.946   8.066  0.4615  0.4445  0.1791
  194MOL0     C26649   9.720   7.010   8.200 -0.5382 -0.2708 -0.6153
  194MOL0     C26650   9.780   7.152   8.224 -0.3546  1.3079 -1.0203
  194MOL0     N26651   9.749   7.255   8.130  0.0752 -0.3135 -0.1700
  194MOL0     C26652   9.803   7.383   8.151 -0.8127 -0.2312  0.3288
  194MOL0     C26653   9.735   7.468   8.074 -0.6521 -0.4311  0.2451
  194MOL0     C26654   9.775   7.621   8.065  1.0952  0.7409  0.1065
  194MOL0     C26655   9.914   7.641   7.998  0.0512 -0.3094  0.2116
  194MOL0     C26656   9.954   7.794   7.978  0.1583 -0.1919  0.1610
  194MOL0     C26657   9.969   7.860   8.123 -0.2818 -0.1564 -0.5966
  194MOL0     O26658  10.036   7.986   8.117  0.4250  0.8244 -0.9142
  194MOL0     C26659   9.965   8.086   8.066 -0.9658 -0.3396  0.6064
  194MOL0     C26660  10.037   8.184   7.981  0.5185 -0.3628 -0.4620
  194MOL0     C26661   9.973   8.296   7.921  0.5357 -0.3208 -1.7613
  194MOL0     C26662  10.062   8.375   7.828  0.2877  0.2499  0.8346
  194MOL0     C26663   9.835   8.309   7.933 -0.2122 -0.6256  0.5042
  194MOL0     C26664   9.752   8.422   7.885  0.1019 -0.0647  0.2401
  194MOL0     O26665   9.613   8.400   7.870  0.2943 -0.6162 -0.5455
  194MOL0     C26666   9.520   8.502   7.883 -0.0324 -0.5298 -0.2351
  194MOL0     C26667   9.540   8.600   7.980 -0.0290  1.1723 -0.0708
  194MOL0     C26668   9.435   8.701   7.985  0.8376  0.8961 -0.3910
  194MOL0     C26669   9.325   8.695   7.903  0.4720  0.1936  1.1072
  194MOL0     O26670   9.237   8.798   7.900  0.0003 -0.9962 -0.2340
  194MOL0     C26671   9.095   8.768   7.897 -0.0379  1.1067  0.0192
  194MOL0     C26672   9.018   8.837   7.796 -0.0470  0.7837  0.4861
  194MOL0     C26673   9.014   8.982   7.819 -0.1908 -0.7187 -0.5334
  194MOL0     C26674   8.920   9.040   7.713  0.1247 -1.1216 -0.0512
  194MOL0     C26675   8.995   9.176   7.668  0.8133  0.8363  0.6978
  194MOL0     C26676   8.927   9.268   7.571 -0.4262  0.7715 -0.0195
  194MOL0     C26677   9.005   9.399   7.583  0.2680  0.2334  0.5307
  194MOL0     C26678   8.953   9.499   7.479 -0.1809 -0.0807  0.1825
  194MOL0    Cl26679   8.771   9.518   7.484  0.1026 -0.3493 -0.3924
  194MOL0     C26680   9.312   8.590   7.803 -0.1510 -0.2452 -0.1432
  194MOL0     C26681   9.416   8.502   7.792 -0.2511 -0.8161  0.2788
  194MOL0     O26682   9.813   8.530   7.853  0.4298 -0.0123 -0.3303
  194MOL0     C26683   9.756   8.207   8.003 -0.4109 -0.8508 -0.3437
  194MOL0     C26684   9.828   8.105   8.068  0.0449 -0.2193  0.6928
  194MOL0     N26685   9.632   7.398   8.014 -0.0279  0.0371  0.0014
  194MOL0     N26686   9.645   7.272   8.042 -0.2760 -0.6546 -0.4872
  194MOL0     C26687  10.155   7.062   7.412  0.5618 -0.8724  0.0674
  194MOL0     C26688  10.138   7.125   7.288  0.5078 -0.1287  0.1112
  194MOL0     C26689   9.982   7.327   6.929 -0.0303  0.6097 -0.6837
  194MOL0     C26690  10.062   7.438   6.924  0.1583 -0.3824  0.3531
  194MOL0     C26691  10.060   7.513   6.808  1.5900 -0.5313  0.1329
  194MOL0     C26692   9.972   7.492   6.703 -0.0068 -0.0174 -0.0019
  194MOL0     O26693   9.962   7.568   6.592  0.1359 -0.5593  0.3997
  194MOL0     C26694  10.041   7.687   6.577  0.6683  0.5285  0.5558
  194MOL0     C26695   9.982   7.769   6.464 -0.4358  0.4568  0.4873
  194MOL0     C26696   9.841   7.820   6.492  0.5354  0.7596 -0.3611
  194MOL0     C26697   9.773   7.863   6.363  0.2556 -0.8827  0.0797
  194MOL0     C26698   9.629   7.869   6.382 -1.1957  0.1310 -0.7198
  194MOL0     C26699   9.521   7.884   6.407  0.3576 -0.4134 -0.9775
  194MOL0     C26700   9.893   7.374   6.708 -0.0583  0.3909  0.3030
  194MOL0     C26701   9.903   7.290   6.821  0.9999 -0.4486  0.2277
  194MOL0     C26702   9.812   7.180   6.795 -0.0808  0.6643 -0.5828
  194MOL0     H26703   9.917   7.360   7.390  1.6653  1.0581 -0.1687
  194MOL0     H26704   9.958   7.259   7.608 -1.3253  0.3339 -0.7871
  194MOL0     H26705  10.148   6.896   7.770  0.9485  2.7639  2.2289
  194MOL0     H26706  10.067   6.878   7.619 -0.6830 -0.4949  1.9134
  194MOL0     H26707   9.941   7.067   7.814 -0.6179  0.5555 -0.2382
  194MOL0     H26708   9.874   7.013   7.663 -0.7967  1.2497  1.1406
  194MOL0     H26709   9.758   6.878   7.825 -0.4511 -2.3355 -0.8714
  194MOL0     H26710   9.867   6.784   7.717  2.0182  0.3378 -0.0609
  194MOL0     H26711   9.877   6.708   7.960 -0.5472 -0.6300 -4.4784
  194MOL0     H26712  10.029   6.773   7.915 -0.7768 -3.5864 -1.1449
  194MOL0     H26713   9.957   7.006   8.010  2.3260 -1.3933 -0.7528
  194MOL0     H26714   9.950   6.888   8.137 -0.4676  4.4175  0.8551
  194MOL0     H26715   9.727   7.005   7.981 -3.2599  1.7301  2.4752
  194MOL0     H26716   9.731   6.843   8.078  2.6433 -0.1125  2.1310
  194MOL0     H26717   9.751   6.947   8.284  1.6698 -0.1931 -1.3224
  194MOL0     H26718   9.613   7.031   8.200 -0.2623  1.2303 -0.9400
  194MOL0     H26719   9.744   7.192   8.319 -2.6712 -1.7738 -0.4500
  194MOL0     H26720   9.889   7.149   8.232 -0.4282 -0.1462 -0.0699
  194MOL0     H26721   9.890   7.409   8.210 -1.5498  3.5309 -0.0149
  194MOL0     H26722   9.783   7.657   8.168  2.5753 -0.8835  0.6146
  194MOL0     H26723   9.708   7.690   8.013  2.2875  1.3120 -0.7101
  194MOL0     H26724   9.982   7.603   8.075 -0.7082  0.6622  1.3917
  194MOL0     H26725   9.911   7.592   7.901  0.1268  2.1177 -1.0850
  194MOL0     H26726  10.057   7.798   7.944 -0.1685  0.7448 -0.7554
  194MOL0     H26727   9.886   7.847   7.910  0.4019 -0.9255 -0.6676
  194MOL0     H26728   9.873   7.867   8.174 -0.2486  2.2608 -0.7522
  194MOL0     H26729  10.037   7.794   8.178 -0.2381 -0.9983 -1.6440
  194MOL0     H26730  10.144   8.177   7.972  0.6995  0.2215  0.9420
  194MOL0     H26731  10.021   8.347   7.731 -0.0014 -2.9750  1.7504
  194MOL0     H26732  10.167   8.342   7.829  0.2012 -0.0938 -0.4522
  194MOL0     H26733  10.050   8.483   7.834  2.1643  0.5931 -0.4180
  194MOL0     H26734   9.628   8.611   8.042 -0.2826  3.6727 -0.0569
  194MOL0     H26735   9.443   8.774   8.065  1.3582 -1.5531  1.9566
  194MOL0     H26736   9.085   8.660   7.884 -3.4761  1.2009  0.8262
  194MOL0     H26737   9.058   8.798   7.996  1.4496  1.6457  0.4421
  194MOL0     H26738   9.049   8.803   7.696 -2.2040 -2.4764  0.7626
  194MOL0     H26739   8.914   8.804   7.790  0.0647  0.2331  1.3435
  194MOL0     H26740   9.112   9.031   7.829 -0.5968 -0.3560  2.6701
  194MOL0     H26741   8.965   9.009   7.913 -1.8140  5.1793 -2.6033
  194MOL0     H26742   8.819   9.055   7.754  0.1537 -2.3395  0.4818
  194MOL0     H26743   8.911   8.984   7.620  1.7397  1.3512 -1.8387
  194MOL0     H26744   9.003   9.228   7.764 -1.1927 -0.6530  1.7278
  194MOL0     H26745   9.101   9.152   7.650  0.3694 -1.1331  0.5226
  194MOL0     H26746   8.823   9.273   7.605 -0.9434  1.8508 -1.6453
  194MOL0     H26747   8.914   9.229   7.469  0.5635 -0.2764  0.2345
  194MOL0     H26748   9.113   9.386   7.568  0.4429  0.4750  1.4729
  194MOL0     H26749   8.983   9.438   7.683  0.8067  1.1236  0.3146
  194MOL0     H26750   8.983   9.459   7.382 -1.6582 -3.2686  0.9099
  194MOL0     H26751   9.009   9.591   7.499  1.3619 -1.0935  0.6457
  194MOL0     H26752   9.230   8.591   7.732  1.4555 -1.0142 -2.0870
  194MOL0     H26753   9.409   8.423   7.718 -0.3763  1.1349 -1.9068
  194MOL0     H26754   9.649   8.197   8.014 -0.8523 -0.4793 -3.4238
  194MOL0     H26755   9.755   8.046   8.122 -3.0120 -0.2759 -3.1093
  194MOL0     H26756  10.233   6.986   7.419  1.1660 -0.1385  1.5474
  194MOL0     H26757  10.179   7.075   7.201 -0.8704 -0.2936 -0.4680
  194MOL0     H26758  10.128   7.464   7.006 -1.4172 -0.0554  1.5765
  194MOL0     H26759  10.122   7.601   6.795  1.8966 -0.8461 -0.6337
  194MOL0     H26760  10.037   7.748   6.668 -1.1096 -2.1189  2.4187
  194MOL0     H26761  10.145   7.656   6.561  1.1556  2.2533  0.2651
  194MOL0     H26762   9.991   7.705   6.376 -2.4908 -0.1360  0.6461
  194MOL0     H26763  10.045   7.859   6.461  0.4022 -0.1524 -0.6096
  194MOL0     H26764   9.779   7.745   6.541  2.1601 -1.7241 -1.8585
  194MOL0     H26765   9.849   7.906   6.560 -0.4783 -0.9086  2.0321
  194MOL0     H26766   9.783   7.791   6.282  0.2556 -0.2092 -0.5292
  194MOL0     H26767   9.806   7.961   6.328 -1.8283 -0.4826 -0.9091
  194MOL0     H26768   9.416   7.893   6.429  0.2308 -1.5612 -1.0812
  194MOL0     H26769   9.812   7.365   6.637 -0.9160 -3.7384  1.5399
  194MOL0     H26770   9.733   7.193   6.721 -1.6440  2.3831  1.2605
  194MOL0     H26771   9.867   7.089   6.770 -2.4283 -0.9105 -0.3016
  194MOL0     H26772   9.769   7.157   6.893  1.6114  0.2864  0.1214
  195MOL0     O26773   1.617   6.342   6.821 -0.4497 -0.6519  0.4381
  195MOL0     C26774   1.663   6.348   6.935  0.1514 -0.3358 -0.1653
  195MOL0     O26775   1.657   6.245   7.033 -0.2462  0.5129  0.7033
  195MOL0     C26776   1.600   6.130   6.993  0.2670  0.0619 -0.6672
  195MOL0     C26777   1.679   6.013   6.998 -0.0565 -0.4974  0.2198
  195MOL0     C26778   1.626   5.882   6.987 -0.2954 -0.9064 -0.2506
  195MOL0     C26779   1.485   5.870   6.988 -0.1295  0.0319  0.6547
  195MOL0     O26780   1.433   5.748   6.978 -0.9323 -0.4216  0.4874
  195MOL0     C26781   1.482   5.668   6.864 -1.0420 -0.0508 -0.5101
  195MOL0     C26782   1.354   5.608   6.801  0.3444 -0.8826 -0.1767
  195MOL0     C26783   1.294   5.508   6.903  0.6781  0.5018  1.0971
  195MOL0     C26784   1.188   5.422   6.835  0.0693 -0.7323  0.1272
  195MOL0     C26785   1.099   5.356   6.931  0.5496  0.1966  1.0784
  195MOL0     C26786   1.000   5.245   6.880  0.8741 -0.4814 -0.0914
  195MOL0     C26787   0.861   5.296   6.827 -0.2440  1.0590 -0.4885
  195MOL0     C26788   0.759   5.323   6.942  0.9127 -0.9619  0.7322
  195MOL0     N26789   0.652   5.382   6.869  0.1494  0.0584  0.6769
  195MOL0     C26790   0.616   5.510   6.872 -0.8087 -0.7670  0.1500
  195MOL0     C26791   0.498   5.520   6.814  0.0791  0.7520  0.2942
  195MOL0     C26792   0.429   5.647   6.835  0.3737  0.4215  0.5782
  195MOL0     C26793   0.485   5.757   6.745  0.6429 -1.4489 -0.7881
  195MOL0     C26794   0.399   5.885   6.744 -0.1162 -0.4157  0.4156
  195MOL0     C26795   0.442   5.992   6.643 -0.1047 -0.2533 -0.0993
  195MOL0     O26796   0.580   6.030   6.664  0.8636  0.0534 -0.1650
  195MOL0     C26797   0.629   6.134   6.598 -0.6497  0.7939  0.4837
  195MOL0     C26798   0.728   6.203   6.666  0.8113  0.9866  0.1068
  195MOL0     C26799   0.784   6.314   6.614 -0.3931  0.4709  0.3636
  195MOL0     C26800   0.891   6.386   6.690  0.0401  0.1545  0.0972
  195MOL0     C26801   0.734   6.359   6.489  0.0394 -0.8644  0.0033
  195MOL0     C26802   0.776   6.488   6.430  0.3261  0.5090 -0.2081
  195MOL0     O26803   0.844   6.480   6.319  0.0539 -0.6861 -0.1374
  195MOL0     C26804   0.929   6.571   6.274  1.0487  0.5181 -0.1259
  195MOL0     C26805   0.993   6.674   6.348 -0.3680 -1.2110 -0.2806
  195MOL0     C26806   1.100   6.753   6.288  0.8275  0.0249 -0.6744
  195MOL0     C26807   1.127   6.736   6.155  0.5485 -1.4615  0.7624
  195MOL0     O26808   1.224   6.818   6.102 -0.6058  0.3818 -0.8221
  195MOL0     C26809   1.318   6.767   6.012  0.3774  0.0507 -0.3359
  195MOL0     C26810   1.331   6.868   5.899  1.1007 -0.7967 -0.5036
  195MOL0     C26811   1.191   6.912   5.837  0.7862 -0.0004  0.0028
  195MOL0     C26812   1.206   7.023   5.727 -0.0949 -0.0235  0.3249
  195MOL0     C26813   1.063   7.057   5.674  0.3737  0.2102 -0.5114
  195MOL0     C26814   0.987   6.932   5.606  0.3025  0.1929 -0.4713
  195MOL0     C26815   0.846   6.989   5.566 -0.3110  0.1506  0.1295
  195MOL0     C26816   0.763   6.865   5.520 -0.0654  0.6232 -0.5904
  195MOL0    Cl26817   0.586   6.903   5.506 -0.2878  0.0761  0.0561
  195MOL0     C26818   1.057   6.643   6.079  0.0680 -0.5728 -0.0821
  195MOL0     C26819   0.971   6.553   6.137  0.6022  0.2338 -0.0195
  195MOL0     O26820   0.742   6.596   6.485 -0.6142 -0.1038 -0.1079
  195MOL0     C26821   0.628   6.291   6.426  0.2528  0.0753  0.6177
  195MOL0     C26822   0.570   6.175   6.477 -0.6936  0.8815 -0.1612
  195MOL0     N26823   0.473   5.400   6.751 -0.4409 -0.1650  0.3584
  195MOL0     N26824   0.567   5.320   6.781 -0.1299  0.0428  0.2565
  195MOL0     C26825   1.401   5.987   6.990 -0.4439  0.3431  0.3762
  195MOL0     C26826   1.458   6.118   6.991  0.4579 -0.7520  0.8560
  195MOL0     C26827   1.721   6.478   6.967  0.3067  0.2988  0.2500
  195MOL0     C26828   1.806   6.518   6.861 -0.5856 -0.5649 -0.1818
  195MOL0     C26829   1.861   6.645   6.863  0.3709  0.2470 -0.1703
  195MOL0     C26830   1.865   6.725   6.977  0.9573 -0.6501 -0.1805
  195MOL0     O26831   1.936   6.850   6.980  0.3304  0.9255  0.1747
  195MOL0     C26832   2.036   6.870   6.874  0.2503  0.2566  0.9096
  195MOL0     C26833   2.116   7.005   6.893 -0.4092 -0.0237  0.4577
  195MOL0     C26834   2.205   6.991   7.018 -0.3529  0.8024 -0.3857
  195MOL0     C26835   2.289   7.123   7.046 -0.0790 -0.2329 -0.3765
  195MOL0     C26836   2.195   7.229   7.088 -0.8166  0.7808  1.3264
  195MOL0     C26837   2.139   7.331   7.122  0.9264  0.5765  1.1024
  195MOL0     C26838   1.799   6.672   7.088  0.2541 -0.0136  0.8311
  195MOL0     C26839   1.727   6.548   7.087 -0.2154 -0.0098  0.5761
  195MOL0     C26840   1.665   6.493   7.212 -0.0642  0.4398  0.4025
  195MOL0     H26841   1.785   6.022   7.017 -0.2376 -0.1129  1.0490
  195MOL0     H26842   1.691   5.795   6.987 -1.2392 -1.6540  0.9500
  195MOL0     H26843   1.548   5.592   6.907 -2.6498 -1.1960  0.0266
  195MOL0     H26844   1.534   5.724   6.786 -0.8282  0.5420  0.0524
  195MOL0     H26845   1.276   5.680   6.777  0.4501 -0.5744  0.3917
  195MOL0     H26846   1.384   5.555   6.710 -0.4319  0.2392 -1.1139
  195MOL0     H26847   1.368   5.445   6.954  0.7078  1.6735  2.5531
  195MOL0     H26848   1.240   5.562   6.980 -0.5780  2.9292 -1.3069
  195MOL0     H26849   1.122   5.480   6.770 -0.8449 -3.3052 -1.3792
  195MOL0     H26850   1.247   5.346   6.784  2.2334  0.8140  0.1997
  195MOL0     H26851   1.034   5.437   6.965  0.7331  1.1291 -0.7094
  195MOL0     H26852   1.160   5.319   7.014  0.1943 -1.8530  0.4929
  195MOL0     H26853   1.063   5.183   6.816  0.6814 -1.2469  0.4428
  195MOL0     H26854   0.976   5.183   6.967 -0.0906  1.5847  1.1694
  195MOL0     H26855   0.815   5.224   6.759 -0.8818  2.4261 -1.5539
  195MOL0     H26856   0.885   5.384   6.768  2.6711  0.7417  0.0705
  195MOL0     H26857   0.729   5.228   6.987 -2.5413 -0.0317  0.6405
  195MOL0     H26858   0.793   5.401   7.011  0.2300 -1.2969  1.4682
  195MOL0     H26859   0.678   5.587   6.917  1.6823 -1.7488 -1.4111
  195MOL0     H26860   0.443   5.678   6.939 -1.5426 -1.6427  1.5576
  195MOL0     H26861   0.321   5.636   6.817 -0.0287  3.0164  1.0095
  195MOL0     H26862   0.585   5.782   6.781  1.6824 -0.6448 -3.9249
  195MOL0     H26863   0.492   5.724   6.641 -0.5607 -1.1631 -0.9789
  195MOL0     H26864   0.295   5.868   6.713 -1.3770  0.6162  3.6309
  195MOL0     H26865   0.391   5.922   6.847 -1.0269  0.2846  0.1014
  195MOL0     H26866   0.428   5.957   6.540  1.1569 -2.5620  0.4464
  195MOL0     H26867   0.386   6.082   6.671 -1.1358 -1.5662  2.2861
  195MOL0     H26868   0.768   6.151   6.752  1.6636  0.8024 -0.3806
  195MOL0     H26869   0.884   6.495   6.687 -3.3611  0.0059 -1.5731
  195MOL0     H26870   0.978   6.344   6.637 -1.3390 -1.5083 -0.9424
  195MOL0     H26871   0.888   6.357   6.795  0.7722  1.1541  0.4045
  195MOL0     H26872   0.976   6.692   6.454 -1.6668  0.6543 -0.7555
  195MOL0     H26873   1.168   6.810   6.351  1.2382 -2.4931  1.3597
  195MOL0     H26874   1.417   6.757   6.058  1.4895  3.9679 -1.4666
  195MOL0     H26875   1.287   6.670   5.974  0.7648  1.0687 -3.5205
  195MOL0     H26876   1.383   6.961   5.925  3.2998 -1.6835 -1.4511
  195MOL0     H26877   1.397   6.814   5.830  2.1746 -0.8479  0.5245
  195MOL0     H26878   1.122   6.939   5.917 -1.7652 -2.1692 -1.3071
  195MOL0     H26879   1.143   6.825   5.792 -3.3340  0.5832  2.7727
  195MOL0     H26880   1.266   6.980   5.647 -0.3676 -1.1060  0.6893
  195MOL0     H26881   1.257   7.108   5.774  1.5346 -1.5816  1.4838
  195MOL0     H26882   0.996   7.079   5.757  0.0426  0.9073 -0.9541
  195MOL0     H26883   1.059   7.141   5.604  0.2461  0.4604 -0.2072
  195MOL0     H26884   0.966   6.843   5.666  1.0972  0.2467 -0.0999
  195MOL0     H26885   1.045   6.903   5.517 -0.3041  0.2528 -0.8916
  195MOL0     H26886   0.847   7.070   5.492  0.9920  1.4648  1.5210
  195MOL0     H26887   0.804   7.039   5.654  2.4674  2.0751  0.5154
  195MOL0     H26888   0.790   6.784   5.588  2.0661  0.6866 -1.2694
  195MOL0     H26889   0.796   6.823   5.424  0.9789 -3.5772  1.3497
  195MOL0     H26890   1.081   6.625   5.975 -0.2983 -0.7751 -0.1330
  195MOL0     H26891   0.926   6.476   6.075 -1.6023  1.3094  0.1727
  195MOL0     H26892   0.591   6.315   6.326  1.9320 -2.9592 -0.8737
  195MOL0     H26893   0.494   6.118   6.424 -1.2975 -1.7648  3.2410
  195MOL0     H26894   1.293   5.984   6.986 -0.5456  1.2929  1.5923
  195MOL0     H26895   1.396   6.206   6.990  0.0934 -1.0090  0.0814
  195MOL0     H26896   1.824   6.459   6.771  0.1421  1.2933 -1.3322
  195MOL0     H26897   1.911   6.673   6.771 -2.2314 -0.2863 -1.8695
  195MOL0     H26898   2.107   6.793   6.841 -1.6408 -1.0404 -0.3300
  195MOL0     H26899   1.980   6.888   6.781 -1.4950  3.1316  2.3771
  195MOL0     H26900   2.055   7.095   6.902  2.5391  2.1062  0.9518
  195MOL0     H26901   2.180   7.028   6.807 -3.6877  1.7594 -1.6901
  195MOL0     H26902   2.143   6.970   7.105 -0.3534 -0.3027 -0.6376
  195MOL0     H26903   2.267   6.901   7.013 -1.4182  0.0769 -0.7898
  195MOL0     H26904   2.345   7.145   6.954  1.9034 -1.6176  0.4370
  195MOL0     H26905   2.364   7.107   7.123  0.6461 -0.7650 -1.1719
  195MOL0     H26906   2.088   7.425   7.132  0.0243  0.3879 -1.1072
  195MOL0     H26907   1.793   6.737   7.175 -1.3958 -0.7563  1.3126
  195MOL0     H26908   1.690   6.556   7.298  2.2194 -0.4153  0.4513
  195MOL0     H26909   1.556   6.498   7.211 -0.0903  1.1805 -2.4411
  195MOL0     H26910   1.696   6.390   7.233 -0.9217  0.5807  2.5605
  196MOL0     O26911   3.443   5.037   5.561 -0.5712  0.3371 -0.4333
  196MOL0     C26912   3.533   5.038   5.641 -0.0750  0.1808 -0.2760
  196MOL0     O26913   3.514   5.057   5.781  0.2145  0.5065 -0.0755
  196MOL0     C26914   3.403   5.123   5.832 -0.5983  0.3627 -0.0627
  196MOL0     C26915   3.402   5.266   5.807 -0.2155  0.2637 -0.2502
  196MOL0     C26916   3.299   5.336   5.856  0.2601  0.0757 -1.0253
  196MOL0     C26917   3.201   5.281   5.940  0.0481 -0.1017 -0.3270
  196MOL0     O26918   3.105   5.355   6.011  0.3863 -0.5819  0.0223
  196MOL0     C26919   3.118   5.495   6.025 -0.1121 -0.9821  0.2737
  196MOL0     C26920   3.235   5.520   6.110 -0.8655  0.7577 -0.2417
  196MOL0     C26921   3.261   5.665   6.153 -0.3046 -0.0778  0.2860
  196MOL0     C26922   3.360   5.683   6.273  0.0467  0.5117 -0.0198
  196MOL0     C26923   3.389   5.828   6.306  0.2186 -0.0617 -0.7487
  196MOL0     C26924   3.475   5.885   6.184  0.7010  0.3679 -0.4652
  196MOL0     C26925   3.534   6.024   6.218 -0.2900 -0.3219  0.4409
  196MOL0     C26926   3.646   6.043   6.324  0.5222  0.7934 -0.1982
  196MOL0     N26927   3.759   5.961   6.288  0.1773 -0.8023 -1.1860
  196MOL0     C26928   3.842   5.987   6.176 -0.5660 -0.2144  0.2064
  196MOL0     C26929   3.937   5.887   6.181  0.7085  0.1773  0.5205
  196MOL0     C26930   4.042   5.859   6.080 -0.1369  0.2583  0.0341
  196MOL0     C26931   4.036   5.944   5.950 -0.3874 -0.0970 -0.8962
  196MOL0     C26932   4.169   5.925   5.866 -0.5168  0.3607 -0.0307
  196MOL0     C26933   4.292   6.003   5.914  0.3255 -0.5468 -0.1615
  196MOL0     O26934   4.403   6.010   5.820  0.4338  0.4536  0.3369
  196MOL0     C26935   4.369   6.093   5.717 -0.0537 -0.0769 -0.9588
  196MOL0     C26936   4.397   6.051   5.585 -0.3810 -0.4764 -0.4372
  196MOL0     C26937   4.371   6.132   5.475 -0.1961  0.2340 -0.6392
  196MOL0     C26938   4.426   6.081   5.337  0.0549  0.2660 -0.2781
  196MOL0     C26939   4.303   6.255   5.496  0.1790 -0.6838 -0.4877
  196MOL0     C26940   4.248   6.343   5.381  0.0636 -0.7297  0.5987
  196MOL0     O26941   4.185   6.465   5.417  0.4892  0.7620 -0.3705
  196MOL0     C26942   4.098   6.524   5.332  0.1823  0.4870  0.5829
  196MOL0     C26943   3.966   6.530   5.383 -0.0870  0.3541  0.0534
  196MOL0     C26944   3.869   6.594   5.304 -0.4163  0.3268  0.5616
  196MOL0     C26945   3.899   6.641   5.178 -0.5268  0.6881 -0.4469
  196MOL0     O26946   3.796   6.714   5.106  0.4690  0.8878  0.1743
  196MOL0     C26947   3.790   6.740   4.960  0.7690  0.1494 -0.5897
  196MOL0     C26948   3.657   6.786   4.908 -0.3171 -0.9589  1.4196
  196MOL0     C26949   3.624   6.924   4.969  0.1719  0.8118  0.3820
  196MOL0     C26950   3.488   6.969   4.906 -0.0594  0.0579 -0.0900
  196MOL0     C26951   3.434   7.104   4.960 -0.7934 -0.4103  0.2360
  196MOL0     C26952   3.301   7.140   4.895 -0.8391  0.6766 -0.1768
  196MOL0     C26953   3.164   7.091   4.973 -0.3001  0.2377  0.1645
  196MOL0     C26954   3.037   7.149   4.911 -0.6594 -0.1163 -0.3769
  196MOL0    Cl26955   3.041   7.309   4.829  0.0324  0.1367 -0.2665
  196MOL0     C26956   4.028   6.631   5.131 -0.6908  0.3597  0.1851
  196MOL0     C26957   4.132   6.577   5.207  0.8833 -0.5805  0.1397
  196MOL0     O26958   4.245   6.296   5.268  0.3778  0.2027  0.9457
  196MOL0     C26959   4.282   6.305   5.629 -0.2254  0.0632  0.3829
  196MOL0     C26960   4.311   6.222   5.740 -0.2137  0.2962  1.3398
  196MOL0     N26961   3.909   5.819   6.295 -1.0123 -0.0840 -0.5985
  196MOL0     N26962   3.802   5.853   6.357 -0.1408 -0.7391 -0.4615
  196MOL0     C26963   3.210   5.139   5.971  0.7957 -0.4769  0.0319
  196MOL0     C26964   3.305   5.064   5.906 -0.4666  0.1965  0.0588
  196MOL0     C26965   3.671   5.035   5.602  0.2999  0.6874  0.7868
  196MOL0     C26966   3.770   5.080   5.690 -0.3020 -0.0179 -0.0642
  196MOL0     C26967   3.907   5.073   5.661  0.2648 -0.6464  0.1187
  196MOL0     C26968   3.952   5.022   5.544  0.1719 -0.9295 -0.4264
  196MOL0     O26969   4.090   5.009   5.524 -0.0922  0.1233  0.9116
  196MOL0     C26970   4.179   5.017   5.642  0.6003  0.0381  0.9404
  196MOL0     C26971   4.317   4.969   5.609  0.1677  1.1258 -0.1985
  196MOL0     C26972   4.368   5.031   5.476  0.3346  0.1365  0.2230
  196MOL0     C26973   4.519   5.010   5.450 -0.8281  0.1640 -0.3449
  196MOL0     C26974   4.566   5.081   5.326 -0.8833  0.6001 -0.2971
  196MOL0     C26975   4.608   5.146   5.234  0.0111 -0.7015 -0.5640
  196MOL0     C26976   3.857   4.972   5.455  0.1164  0.1067  0.1742
  196MOL0     C26977   3.715   4.984   5.484  0.6559  0.3039  0.1094
  196MOL0     C26978   3.630   4.923   5.375  0.6355 -0.3132  0.7079
  196MOL0     H26979   3.479   5.310   5.744 -0.0611  0.1626 -0.1317
  196MOL0     H26980   3.297   5.445   5.851  0.2664  0.1760  0.6078
  196MOL0     H26981   3.031   5.539   6.075  0.2763 -2.0339  1.9342
  196MOL0     H26982   3.140   5.546   5.930  1.4643  1.6253  1.9060
  196MOL0     H26983   3.236   5.465   6.205  0.3132  2.9242  1.0989
  196MOL0     H26984   3.325   5.495   6.053 -3.5124 -1.6304 -3.7818
  196MOL0     H26985   3.300   5.702   6.057 -2.6405 -2.9455 -1.9732
  196MOL0     H26986   3.167   5.713   6.181 -0.5970 -0.4858  0.0156
  196MOL0     H26987   3.325   5.634   6.365 -1.7770 -0.1191 -0.9894
  196MOL0     H26988   3.450   5.628   6.246 -2.4834 -2.9451 -2.2113
  196MOL0     H26989   3.441   5.849   6.400 -2.7967 -0.4899  1.1586
  196MOL0     H26990   3.304   5.895   6.320  0.9906  0.7924  0.0193
  196MOL0     H26991   3.565   5.827   6.161  1.7235  2.4973 -2.2098
  196MOL0     H26992   3.416   5.887   6.092  0.7903 -0.0824 -0.5318
  196MOL0     H26993   3.459   6.095   6.254 -0.6574 -1.3923  1.8564
  196MOL0     H26994   3.585   6.060   6.128  2.5950 -4.4835  0.1169
  196MOL0     H26995   3.668   6.149   6.338 -3.4674  1.8977 -1.0178
  196MOL0     H26996   3.606   6.009   6.420 -3.1712 -1.7346 -2.4039
  196MOL0     H26997   3.841   6.070   6.107 -0.7064 -0.2248  0.1952
  196MOL0     H26998   4.029   5.756   6.046  1.3730  0.8010 -2.5032
  196MOL0     H26999   4.134   5.872   6.138 -1.2897 -2.5189  2.7313
  196MOL0     H27000   3.946   5.923   5.892  0.8397  1.9386 -3.7413
  196MOL0     H27001   4.031   6.051   5.973 -0.3185  0.5369 -3.5391
  196MOL0     H27002   4.204   5.825   5.839 -0.2435  0.9621 -2.1241
  196MOL0     H27003   4.133   5.974   5.775 -1.5682 -0.8006 -0.2590
  196MOL0     H27004   4.258   6.099   5.953 -2.1191 -0.2358 -2.7485
  196MOL0     H27005   4.337   5.952   5.999 -3.1111 -0.0749  2.1393
  196MOL0     H27006   4.456   5.961   5.571 -0.4946 -0.4188 -1.3943
  196MOL0     H27007   4.511   6.142   5.307  2.6566 -1.5183  2.8831
  196MOL0     H27008   4.345   6.071   5.264 -2.5591  1.3721  2.2735
  196MOL0     H27009   4.458   5.978   5.354 -0.9402  0.2331  1.7455
  196MOL0     H27010   3.954   6.487   5.482  1.4487  1.5817  0.8212
  196MOL0     H27011   3.768   6.604   5.342 -1.0609 -1.7810 -0.4846
  196MOL0     H27012   3.871   6.809   4.934  1.2025  0.6472  1.8434
  196MOL0     H27013   3.822   6.649   4.909 -1.3708 -0.2848 -1.2562
  196MOL0     H27014   3.663   6.801   4.800 -0.5719 -0.3975  1.4802
  196MOL0     H27015   3.575   6.715   4.924 -1.5285 -0.6293 -2.4063
  196MOL0     H27016   3.697   7.001   4.942  0.3219  1.0076  1.3204
  196MOL0     H27017   3.614   6.929   5.078 -0.8128 -0.1276  0.3529
  196MOL0     H27018   3.417   6.889   4.928  1.8596 -1.2638  1.6691
  196MOL0     H27019   3.491   6.978   4.797  0.2616  1.9349  0.0271
  196MOL0     H27020   3.431   7.101   5.069  0.3727 -3.1362  0.2696
  196MOL0     H27021   3.502   7.187   4.939 -1.3764 -0.5203 -2.4665
  196MOL0     H27022   3.305   7.108   4.790 -0.6716  1.2381 -0.3451
  196MOL0     H27023   3.305   7.249   4.892 -1.9412  0.7241 -2.9278
  196MOL0     H27024   3.160   7.124   5.077  2.7800  3.1229 -0.4435
  196MOL0     H27025   3.161   6.982   4.982 -1.1492  0.3230  1.1284
  196MOL0     H27026   2.955   7.148   4.983  0.9898 -1.6112  1.6381
  196MOL0     H27027   3.014   7.085   4.826 -1.0808  0.6541 -0.8608
  196MOL0     H27028   4.053   6.659   5.029  0.0417  0.6834  0.4427
  196MOL0     H27029   4.234   6.576   5.171  0.8969  1.3556  0.0588
  196MOL0     H27030   4.221   6.394   5.645 -4.0683 -1.4152 -4.0082
  196MOL0     H27031   4.296   6.264   5.839 -0.3595  2.4449  0.4537
  196MOL0     H27032   3.139   5.096   6.041  1.1818  1.5988  1.8009
  196MOL0     H27033   3.326   4.958   5.919  0.2903  0.4272  0.8152
  196MOL0     H27034   3.734   5.133   5.778 -2.8290 -0.4824 -0.7291
  196MOL0     H27035   3.976   5.107   5.738  0.4808  2.1083 -1.1887
  196MOL0     H27036   4.189   5.123   5.667 -0.2334  1.1258 -2.7344
  196MOL0     H27037   4.145   4.952   5.723  3.4779 -2.6144  0.2254
  196MOL0     H27038   4.324   4.860   5.600 -0.1164  1.0697  0.2135
  196MOL0     H27039   4.384   4.996   5.692  0.3405 -0.5698  0.2670
  196MOL0     H27040   4.310   4.987   5.395  1.8124 -0.7951 -0.3795
  196MOL0     H27041   4.346   5.137   5.469  0.7656  0.1017 -2.9090
  196MOL0     H27042   4.540   4.903   5.439 -0.9117  0.1470 -0.3398
  196MOL0     H27043   4.578   5.039   5.538 -0.0525 -0.2129 -0.7351
  196MOL0     H27044   4.644   5.199   5.148  0.1019  0.3837  0.1270
  196MOL0     H27045   3.885   4.923   5.363 -3.3995  1.0517 -1.5604
  196MOL0     H27046   3.690   4.869   5.301 -0.5453  1.4220 -1.6756
  196MOL0     H27047   3.545   4.864   5.411  0.5535  0.3162  1.5866
  196MOL0     H27048   3.597   5.007   5.313 -0.2792 -0.7714  0.5547
  197MOL0     O27049  10.591   1.481   3.330 -0.2706 -0.6861 -0.2051
  197MOL0     C27050  10.688   1.558   3.337 -0.1673  0.3945  0.0326
  197MOL0     O27051  10.815   1.537   3.275 -0.0953 -0.8489  0.4534
  197MOL0     C27052  10.834   1.453   3.172  0.3950  0.1931  0.3187
  197MOL0     C27053  10.761   1.459   3.053 -0.0874  0.1785 -0.0881
  197MOL0     C27054  10.781   1.373   2.940 -0.3683 -0.7456 -0.3136
  197MOL0     C27055  10.884   1.270   2.956  0.2678 -0.8997 -0.0418
  197MOL0     O27056  10.923   1.182   2.856  0.2096  0.1004  0.6741
  197MOL0     C27057  10.873   1.212   2.723  0.2557 -0.1025 -0.3035
  197MOL0     C27058  10.938   1.124   2.614 -0.8781 -0.0386  0.0693
  197MOL0     C27059  11.085   1.158   2.584 -0.2394 -0.2603  0.4009
  197MOL0     C27060  11.158   1.068   2.486 -0.1523 -0.3630 -0.4975
  197MOL0     C27061  11.307   1.110   2.455 -0.7247 -0.0596 -0.0355
  197MOL0     C27062  11.384   1.055   2.331 -0.0221  0.2033 -0.0765
  197MOL0     C27063  11.296   1.083   2.215 -1.3515 -0.7747 -0.5234
  197MOL0     C27064  11.373   1.144   2.095 -0.0532  0.6610 -0.3789
  197MOL0     N27065  11.496   1.069   2.048  0.6860  0.3630 -0.8643
  197MOL0     C27066  11.490   0.942   1.999 -0.4556  0.0014  0.6474
  197MOL0     C27067  11.603   0.935   1.920 -0.1297  0.6362  0.0588
  197MOL0     C27068  11.649   0.824   1.830 -1.0833 -0.3531  0.8080
  197MOL0     C27069  11.701   0.874   1.697  0.9131  0.4017  0.4919
  197MOL0     C27070  11.594   0.944   1.614  1.0365 -0.1836  0.8135
  197MOL0     C27071  11.659   1.051   1.520 -0.1948  0.0076  0.3556
  197MOL0     O27072  11.751   0.969   1.444  0.1239 -1.0140 -0.3163
  197MOL0     C27073  11.836   1.031   1.356 -0.0993  1.4151  0.0136
  197MOL0     C27074  11.946   0.955   1.327  0.1400  0.2838  0.5810
  197MOL0     C27075  12.044   1.000   1.239 -0.1316  0.8738 -0.0531
  197MOL0     C27076  12.166   0.908   1.220  0.3982  0.4638  0.0401
  197MOL0     C27077  12.024   1.120   1.164 -0.0876 -0.1544  0.1693
  197MOL0     C27078  12.125   1.183   1.072 -0.1086  0.4197  0.2759
  197MOL0     O27079  12.097   1.311   1.027 -0.5273  0.5455 -0.5102
  197MOL0     C27080  12.194   1.367   0.947  0.1706  0.1699  0.2177
  197MOL0     C27081  12.177   1.349   0.808  0.2197 -0.0070 -0.6084
  197MOL0     C27082  12.264   1.411   0.715  0.0473  0.0425  0.4861
  197MOL0     C27083  12.361   1.500   0.753 -0.4429 -0.1876  0.4282
  197MOL0     O27084  12.454   1.557   0.671 -0.0959  0.2643 -0.2741
  197MOL0     C27085  12.433   1.553   0.527  0.3082  0.5783 -0.2108
  197MOL0     C27086  12.552   1.634   0.469  1.1956 -0.0954 -0.3157
  197MOL0     C27087  12.552   1.611   0.313  0.2022 -0.1105 -0.0559
  197MOL0     C27088  12.481   1.732   0.242 -0.0649  0.5351 -0.3322
  197MOL0     C27089  12.410   1.674   0.115 -0.1565 -0.1063  0.3681
  197MOL0     C27090  12.513   1.640   0.008  0.4848 -0.2096 -0.4442
  197MOL0     C27091  12.461   1.569  -0.110  0.2629  0.1520 -0.3595
  197MOL0     C27092  12.580   1.564  -0.198 -0.4951 -0.0358 -0.1058
  197MOL0    Cl27093  12.691   1.447  -0.130  0.2063 -0.4249 -0.2392
  197MOL0     C27094  12.384   1.517   0.890 -0.4367 -0.5537 -0.8758
  197MOL0     C27095  12.298   1.454   0.982  0.1124 -0.8736 -0.1843
  197MOL0     O27096  12.227   1.113   1.034  0.6044  0.2357  0.3558
  197MOL0     C27097  11.911   1.198   1.192  0.0938 -0.0157 -0.7375
  197MOL0     C27098  11.812   1.152   1.285 -0.1219 -0.1112 -0.2444
  197MOL0     N27099  11.668   1.055   1.942  0.3312  0.3186 -0.2754
  197MOL0     N27100  11.610   1.132   2.021 -0.1687 -0.0678  0.1519
  197MOL0     C27101  10.949   1.257   3.084  0.5311 -0.5860 -0.1094
  197MOL0     C27102  10.923   1.353   3.195 -0.8103  0.4758  0.0612
  197MOL0     C27103  10.679   1.676   3.417 -0.2488 -0.4880 -0.1697
  197MOL0     C27104  10.551   1.725   3.450 -1.0455  0.4673 -1.0724
  197MOL0     C27105  10.530   1.854   3.508  0.7536 -0.0053 -0.3475
  197MOL0     C27106  10.640   1.918   3.559  0.1466 -0.2794  0.7749
  197MOL0     O27107  10.625   2.024   3.645 -0.3458  0.0533 -0.3878
  197MOL0     C27108  10.593   2.156   3.592  0.8670 -0.9903  0.7791
  197MOL0     C27109  10.476   2.217   3.676  0.7987  0.1041 -0.1239
  197MOL0     C27110  10.349   2.133   3.644 -0.6872 -0.3106  0.1023
  197MOL0     C27111  10.220   2.192   3.686 -0.3333  0.1411  0.2758
  197MOL0     C27112  10.122   2.114   3.618  0.0060  1.1143  0.0182
  197MOL0     C27113  10.029   2.050   3.571 -0.3424 -0.1797 -0.1223
  197MOL0     C27114  10.771   1.872   3.535 -0.3129  0.2755  0.0270
  197MOL0     C27115  10.794   1.749   3.469 -0.1429  0.0929 -0.4225
  197MOL0     C27116  10.934   1.712   3.469  0.4914  1.0565  0.5478
  197MOL0     H27117  10.687   1.533   3.024 -1.4073 -1.7375 -1.9366
  197MOL0     H27118  10.725   1.376   2.847  1.2440  1.0453 -1.2821
  197MOL0     H27119  10.896   1.318   2.716  2.1016 -0.5163 -1.1906
  197MOL0     H27120  10.766   1.188   2.714  0.7566 -1.8399 -2.6703
  197MOL0     H27121  10.920   1.017   2.633  1.0205 -0.0295  2.3960
  197MOL0     H27122  10.878   1.144   2.525  0.3171 -1.9474 -1.2418
  197MOL0     H27123  11.088   1.266   2.569  1.1106 -0.0023  2.2650
  197MOL0     H27124  11.146   1.148   2.674  0.5796 -3.2156 -0.3541
  197MOL0     H27125  11.165   0.965   2.522 -3.6746  0.0951  2.0059
  197MOL0     H27126  11.096   1.064   2.396 -1.5441 -1.1700  0.4699
  197MOL0     H27127  11.362   1.082   2.546  0.1617  0.1585 -0.4962
  197MOL0     H27128  11.312   1.219   2.448  0.0472 -0.1625 -1.5297
  197MOL0     H27129  11.477   1.111   2.316  0.6957  0.1171  3.2635
  197MOL0     H27130  11.400   0.948   2.342 -0.9685  0.3465  4.9676
  197MOL0     H27131  11.228   1.163   2.245 -1.5740 -0.1011 -2.6616
  197MOL0     H27132  11.243   0.997   2.172  0.1282 -1.8487 -0.2615
  197MOL0     H27133  11.300   1.142   2.014 -0.8921 -0.5276  0.3607
  197MOL0     H27134  11.408   1.245   2.118  1.9579 -0.2427  0.8438
  197MOL0     H27135  11.413   0.868   2.017  1.1414 -1.1724  3.0252
  197MOL0     H27136  11.562   0.759   1.820 -0.9329 -0.9545  2.9377
  197MOL0     H27137  11.734   0.773   1.876  1.6074  1.3042 -1.9190
  197MOL0     H27138  11.782   0.945   1.717  1.0757  0.1249  0.8183
  197MOL0     H27139  11.746   0.794   1.638 -0.9397  1.4834 -2.6668
  197MOL0     H27140  11.544   0.860   1.564  1.7312 -2.6082  3.8668
  197MOL0     H27141  11.536   1.000   1.688  0.9098  0.0736  0.5212
  197MOL0     H27142  11.578   1.093   1.460 -0.4470  0.6930  1.1508
  197MOL0     H27143  11.710   1.130   1.576 -1.7496  1.9948 -0.8701
  197MOL0     H27144  11.964   0.864   1.384  3.2504 -0.1136 -0.8051
  197MOL0     H27145  12.187   0.878   1.117  1.8721  0.7505  0.2329
  197MOL0     H27146  12.136   0.819   1.274  1.5850  1.7211  2.9631
  197MOL0     H27147  12.254   0.942   1.277 -0.0154 -2.1083  2.3835
  197MOL0     H27148  12.099   1.280   0.778 -0.8951  0.1184  1.7897
  197MOL0     H27149  12.261   1.367   0.616 -0.5510 -1.6594  1.2287
  197MOL0     H27150  12.453   1.454   0.487 -1.0946 -0.2637  1.0370
  197MOL0     H27151  12.335   1.584   0.489  0.0782  0.1448  0.0157
  197MOL0     H27152  12.536   1.740   0.494  0.2395 -0.5653  1.2214
  197MOL0     H27153  12.648   1.602   0.509  0.9833  0.8315  1.0302
  197MOL0     H27154  12.516   1.512   0.285  2.8240 -1.7828  1.9686
  197MOL0     H27155  12.656   1.620   0.280 -0.0298 -1.3479 -1.2217
  197MOL0     H27156  12.563   1.798   0.213 -1.3039  1.5830 -1.5795
  197MOL0     H27157  12.414   1.781   0.313 -1.2923 -1.2092 -0.2138
  197MOL0     H27158  12.344   1.590   0.139 -0.2407  0.6435  3.0984
  197MOL0     H27159  12.350   1.754   0.070  1.5652  0.3505 -1.2384
  197MOL0     H27160  12.595   1.582   0.049  0.5702 -0.5913 -1.1391
  197MOL0     H27161  12.548   1.739  -0.022 -1.3858  0.5130 -0.3644
  197MOL0     H27162  12.385   1.627  -0.162  2.2082  1.3825 -1.9738
  197MOL0     H27163  12.419   1.472  -0.080  1.5585  0.2555  2.0812
  197MOL0     H27164  12.648   1.649  -0.199 -0.0221 -0.4037  0.0143
  197MOL0     H27165  12.550   1.536  -0.300  1.5006  0.0141 -0.7447
  197MOL0     H27166  12.446   1.595   0.933  0.3176 -2.6077  2.0578
  197MOL0     H27167  12.307   1.483   1.086  1.0719 -0.8011 -0.2754
  197MOL0     H27168  11.891   1.295   1.148  1.5531 -0.3910 -2.3637
  197MOL0     H27169  11.729   1.220   1.304  2.6875  4.0150 -1.3974
  197MOL0     H27170  11.022   1.177   3.093  0.1212 -1.3192 -2.4682
  197MOL0     H27171  10.969   1.341   3.293 -0.7961  1.0144  0.1190
  197MOL0     H27172  10.465   1.668   3.418 -0.1916 -1.3648 -0.2003
  197MOL0     H27173  10.429   1.890   3.524  1.0302  1.0809 -0.9673
  197MOL0     H27174  10.680   2.221   3.610  0.0088 -0.2445  2.4688
  197MOL0     H27175  10.570   2.170   3.486  1.3559  0.6920  0.8658
  197MOL0     H27176  10.464   2.323   3.654  2.7455  0.5131  0.5794
  197MOL0     H27177  10.498   2.209   3.783  0.0004 -0.4889  0.0082
  197MOL0     H27178  10.351   2.121   3.535  1.8125  2.0559 -0.2136
  197MOL0     H27179  10.353   2.039   3.701 -2.2083  1.0211  2.6048
  197MOL0     H27180  10.211   2.298   3.662  2.1072 -0.1985 -2.7130
  197MOL0     H27181  10.211   2.187   3.795  0.4002  1.1043  0.3881
  197MOL0     H27182   9.933   2.012   3.543 -0.6114 -0.7745  1.5412
  197MOL0     H27183  10.848   1.939   3.573 -0.0778 -1.0252  1.9870
  197MOL0     H27184  10.988   1.762   3.388 -1.4348 -0.7379 -2.0370
  197MOL0     H27185  10.984   1.734   3.564 -0.3320 -0.7191  1.4607
  197MOL0     H27186  10.944   1.603   3.463  0.1741  1.0715 -0.5633
  198MOL0     O27187   8.045   3.836   6.789  0.2906  0.2262  0.2061
  198MOL0     C27188   7.930   3.879   6.767 -0.2762 -0.3162  0.3173
  198MOL0     O27189   7.874   3.892   6.640  0.1040 -0.5711 -0.4623
  198MOL0     C27190   7.958   3.864   6.538 -0.1032 -1.0657  0.6945
  198MOL0     C27191   7.997   3.981   6.468 -0.8106 -0.6980 -0.0089
  198MOL0     C27192   8.066   3.980   6.351 -0.0281 -0.4186  0.9366
  198MOL0     C27193   8.119   3.856   6.297 -0.6376 -0.2233 -0.9463
  198MOL0     O27194   8.196   3.858   6.184 -0.1680  0.0431  0.6776
  198MOL0     C27195   8.238   3.734   6.129 -0.2452  0.4160 -0.7664
  198MOL0     C27196   8.337   3.750   6.015  0.2469 -1.0569 -0.2265
  198MOL0     C27197   8.275   3.722   5.878 -0.8132  0.0136  1.0139
  198MOL0     C27198   8.370   3.749   5.762 -0.1503 -0.0178 -0.1052
  198MOL0     C27199   8.284   3.708   5.631 -0.4608  0.2303 -0.2775
  198MOL0     C27200   8.265   3.559   5.606 -0.1600  0.2246 -0.4768
  198MOL0     C27201   8.384   3.471   5.632  0.2211  0.8878  0.9712
  198MOL0     C27202   8.346   3.339   5.565  0.5791  0.0832  0.4259
  198MOL0     N27203   8.220   3.272   5.612 -0.7446  0.4218 -0.2639
  198MOL0     C27204   8.117   3.230   5.530  0.0642  0.3325  0.1494
  198MOL0     C27205   8.024   3.176   5.623 -0.0484  0.2060  0.2934
  198MOL0     C27206   7.894   3.118   5.575 -0.4433  0.5225 -0.2710
  198MOL0     C27207   7.855   3.142   5.423  0.9297 -0.1330  0.4087
  198MOL0     C27208   7.702   3.121   5.391  0.1747  0.0919 -0.4088
  198MOL0     C27209   7.655   2.988   5.420  0.6218  1.0578 -0.8254
  198MOL0     O27210   7.716   2.886   5.337  0.5089 -0.0013 -0.0406
  198MOL0     C27211   7.706   2.764   5.389  0.0382 -0.0851 -0.5728
  198MOL0     C27212   7.824   2.682   5.399  0.5942  0.4646  0.0539
  198MOL0     C27213   7.813   2.563   5.460  0.3916  1.2709  1.2147
  198MOL0     C27214   7.942   2.490   5.474  0.2458 -0.0736  0.3361
  198MOL0     C27215   7.687   2.508   5.498  0.3473  0.9256 -0.5560
  198MOL0     C27216   7.667   2.372   5.556 -0.1476  0.1403  0.2312
  198MOL0     O27217   7.608   2.380   5.681  0.7784 -0.1421  0.0612
  198MOL0     C27218   7.609   2.257   5.747  0.3167 -0.2487 -0.1319
  198MOL0     C27219   7.713   2.209   5.841 -0.3530  0.2105 -0.2025
  198MOL0     C27220   7.711   2.081   5.894  0.4599 -0.7745 -0.5083
  198MOL0     C27221   7.602   1.995   5.870  0.2986 -0.3891  0.3652
  198MOL0     O27222   7.593   1.865   5.927 -0.2339 -0.1746 -0.3334
  198MOL0     C27223   7.467   1.815   5.980 -1.0559 -0.5769 -0.5130
  198MOL0     C27224   7.492   1.695   6.078 -0.6123  0.4740  0.7332
  198MOL0     C27225   7.608   1.608   6.026  0.1423  0.4229 -0.5054
  198MOL0     C27226   7.630   1.499   6.142  0.1610 -0.4219 -0.0245
  198MOL0     C27227   7.733   1.389   6.116  0.2848  0.0666  0.1554
  198MOL0     C27228   7.878   1.419   6.173 -0.0009 -0.1762 -0.5231
  198MOL0     C27229   7.965   1.286   6.149  0.5808  0.5102  1.0288
  198MOL0     C27230   8.113   1.315   6.171 -0.4233 -0.4133 -0.5442
  198MOL0    Cl27231   8.198   1.345   6.017 -0.4019  0.2637  0.0679
  198MOL0     C27232   7.502   2.042   5.775  0.5124  1.1171  0.8497
  198MOL0     C27233   7.511   2.169   5.706 -0.3394  0.2527  0.2744
  198MOL0     O27234   7.708   2.267   5.494  1.0079  0.2678 -0.8728
  198MOL0     C27235   7.575   2.592   5.491  0.5748 -0.2292  0.0248
  198MOL0     C27236   7.585   2.715   5.441 -0.5005  0.4296  0.6946
  198MOL0     N27237   8.071   3.193   5.747 -0.0142  0.3645  0.0383
  198MOL0     N27238   8.188   3.253   5.740  0.5252  0.0067  0.4286
  198MOL0     C27239   8.090   3.737   6.381 -0.3594  0.0150  0.4621
  198MOL0     C27240   8.000   3.745   6.490 -0.6999  0.6743 -0.3700
  198MOL0     C27241   7.855   3.950   6.877 -0.0811  0.4503  0.2737
  198MOL0     C27242   7.886   3.911   7.003 -0.2141  0.8800  0.3949
  198MOL0     C27243   7.807   3.949   7.116  0.2726 -0.1232 -0.5580
  198MOL0     C27244   7.711   4.047   7.100 -0.8969  0.3231 -0.4632
  198MOL0     O27245   7.663   4.118   7.200 -0.3745  0.0220 -0.2154
  198MOL0     C27246   7.730   4.134   7.327 -0.2795  0.5344  0.1696
  198MOL0     C27247   7.666   4.033   7.413  0.0339 -0.3295 -0.4741
  198MOL0     C27248   7.510   4.059   7.428 -0.2175  0.7504 -0.5334
  198MOL0     C27249   7.494   4.153   7.545  0.4753  1.1771  0.6082
  198MOL0     C27250   7.541   4.124   7.680  0.6144 -0.2186  0.4447
  198MOL0     C27251   7.578   4.094   7.791  0.2064  0.7962 -0.2400
  198MOL0     C27252   7.696   4.106   6.971  0.1825  0.1423 -0.3808
  198MOL0     C27253   7.762   4.054   6.857 -0.1382  0.3233  0.1108
  198MOL0     C27254   7.733   4.113   6.725  0.0823  0.0646 -0.5557
  198MOL0     H27255   7.962   4.076   6.506 -0.7158 -0.2330 -1.0616
  198MOL0     H27256   8.104   4.064   6.293 -0.0921 -1.0831 -0.0941
  198MOL0     H27257   8.158   3.668   6.094 -2.0119 -0.3778  3.9713
  198MOL0     H27258   8.281   3.681   6.214 -3.2455 -0.2332  0.4687
  198MOL0     H27259   8.379   3.851   6.010 -0.6917 -0.6517 -0.0630
  198MOL0     H27260   8.416   3.680   6.043 -1.7920 -2.5177  2.2989
  198MOL0     H27261   8.250   3.616   5.878  1.2275 -0.5472 -1.3114
  198MOL0     H27262   8.183   3.780   5.869 -1.2717 -1.0532 -3.2639
  198MOL0     H27263   8.407   3.852   5.762  1.8196 -0.6415 -1.8786
  198MOL0     H27264   8.468   3.701   5.772 -0.0959 -0.0637 -0.7743
  198MOL0     H27265   8.343   3.758   5.554 -1.4257  4.1834  1.3145
  198MOL0     H27266   8.189   3.762   5.635  0.0594  1.0842  1.6241
  198MOL0     H27267   8.178   3.538   5.668  0.3004  1.7853  0.7623
  198MOL0     H27268   8.235   3.544   5.502  3.0026  0.6355 -1.5719
  198MOL0     H27269   8.410   3.457   5.737 -2.5610 -0.5124  1.5699
  198MOL0     H27270   8.470   3.502   5.572  0.6640 -1.6134  0.2013
  198MOL0     H27271   8.340   3.342   5.456 -0.1981 -3.4816  0.2342
  198MOL0     H27272   8.430   3.273   5.590  0.2899 -0.2610  0.4998
  198MOL0     H27273   8.107   3.244   5.423 -0.5296 -1.1142  0.0009
  198MOL0     H27274   7.820   3.173   5.634 -0.6246 -0.2403  0.2158
  198MOL0     H27275   7.892   3.013   5.606 -0.8025  0.5798 -0.0892
  198MOL0     H27276   7.881   3.244   5.393 -3.0403  0.8658 -0.2087
  198MOL0     H27277   7.916   3.072   5.364  0.7567 -1.1476  1.3836
  198MOL0     H27278   7.647   3.190   5.455 -1.7148 -1.9549  0.2916
  198MOL0     H27279   7.675   3.145   5.288  1.1652 -2.1192 -1.2523
  198MOL0     H27280   7.669   2.965   5.527 -0.7700  1.9099 -0.4418
  198MOL0     H27281   7.546   2.988   5.412  0.7036  1.1897 -2.0904
  198MOL0     H27282   7.918   2.730   5.373 -0.1579  2.4574  0.7769
  198MOL0     H27283   7.985   2.472   5.374 -1.9542  0.2370 -0.7079
  198MOL0     H27284   7.930   2.384   5.499  0.4744  0.2796  2.0352
  198MOL0     H27285   8.013   2.537   5.542  0.8548 -2.7021  1.6759
  198MOL0     H27286   7.803   2.267   5.861  1.0301 -1.1110 -2.2668
  198MOL0     H27287   7.792   2.042   5.954 -0.1956 -3.7752 -1.3939
  198MOL0     H27288   7.399   1.890   6.022 -1.2382 -1.0031 -0.0430
  198MOL0     H27289   7.408   1.772   5.899 -4.5980  2.2570  0.2873
  198MOL0     H27290   7.522   1.729   6.178 -0.1930  0.4840  0.6036
  198MOL0     H27291   7.398   1.638   6.083 -0.0942 -0.4651  0.0117
  198MOL0     H27292   7.696   1.673   6.021 -0.5718  1.3005 -2.4022
  198MOL0     H27293   7.590   1.553   5.934 -0.2992 -1.1356  0.4709
  198MOL0     H27294   7.534   1.454   6.170  0.8299 -1.6993  0.3097
  198MOL0     H27295   7.666   1.552   6.231  0.2008 -1.2645  0.4778
  198MOL0     H27296   7.696   1.299   6.167 -0.8014 -0.7096 -1.9088
  198MOL0     H27297   7.722   1.364   6.010 -0.8157 -1.6765  0.6410
  198MOL0     H27298   7.862   1.448   6.277 -1.9946 -1.7779 -0.3333
  198MOL0     H27299   7.921   1.502   6.116  0.7682  1.1441  1.8045
  198MOL0     H27300   7.967   1.250   6.046 -1.0811  2.5995  0.1978
  198MOL0     H27301   7.929   1.200   6.208 -1.7528  2.7801  3.1504
  198MOL0     H27302   8.159   1.236   6.231  0.2713 -1.4578 -2.3637
  198MOL0     H27303   8.119   1.403   6.235 -6.0353 -1.7424  2.5227
  198MOL0     H27304   7.421   1.975   5.751 -2.3595  4.3862  0.5112
  198MOL0     H27305   7.418   2.203   5.661 -1.1617  0.5295  2.0653
  198MOL0     H27306   7.480   2.556   5.531  1.3834 -3.3190 -0.5733
  198MOL0     H27307   7.494   2.772   5.426 -1.7634 -2.0527 -2.0514
  198MOL0     H27308   8.107   3.634   6.352 -4.2038 -1.3412  2.2982
  198MOL0     H27309   7.953   3.655   6.526  0.7327 -1.0730 -2.5747
  198MOL0     H27310   7.965   3.838   7.014  2.2683  2.8083 -2.7926
  198MOL0     H27311   7.821   3.899   7.211 -0.1222  1.9821  0.6737
  198MOL0     H27312   7.837   4.117   7.311 -0.4129  0.0823 -0.2571
  198MOL0     H27313   7.720   4.235   7.368  0.8516  2.1827 -3.2717
  198MOL0     H27314   7.727   4.015   7.503  0.8606 -3.4174 -1.5230
  198MOL0     H27315   7.674   3.936   7.363  0.1271 -1.5319  1.7279
  198MOL0     H27316   7.471   4.101   7.334  2.5757 -0.4085 -2.3419
  198MOL0     H27317   7.468   3.961   7.450 -0.5218  0.4491 -2.2626
  198MOL0     H27318   7.388   4.178   7.556  0.2439  0.7831 -0.6450
  198MOL0     H27319   7.552   4.239   7.511  1.9937  0.6587  1.8054
  198MOL0     H27320   7.606   4.049   7.884 -0.5196 -0.6864 -0.7061
  198MOL0     H27321   7.640   4.198   6.967  1.4222  1.0426  1.6141
  198MOL0     H27322   7.675   4.049   6.657 -0.9409  0.8495 -0.4413
  198MOL0     H27323   7.678   4.207   6.728  1.2154  0.7542 -0.4343
  198MOL0     H27324   7.832   4.136   6.684  1.1305 -1.5521  0.8905
  199MOL0     O27325   2.641   6.286   9.822  0.3336 -0.2133 -0.1912
  199MOL0     C27326   2.704   6.334   9.915 -0.7548  0.9277 -0.5876
  199MOL0     O27327   2.646   6.389  10.030 -1.0058 -0.8992 -0.2535
  199MOL0     C27328   2.531   6.351  10.099 -0.7451 -0.3796 -0.0401
  199MOL0     C27329   2.468   6.225  10.076 -0.4411  0.7718 -0.1925
  199MOL0     C27330   2.347   6.197  10.139  0.4214 -1.1047 -0.9924
  199MOL0     C27331   2.285   6.282  10.225 -0.0969 -0.1458  0.1395
  199MOL0     O27332   2.172   6.256  10.300 -0.1037  0.0988 -0.6736
  199MOL0     C27333   2.054   6.203  10.246  0.3553 -0.8014 -0.2125
  199MOL0     C27334   1.946   6.179  10.353 -0.2687  0.6107  0.2208
  199MOL0     C27335   1.876   6.312  10.406  0.6367  0.3002 -0.8461
  199MOL0     C27336   1.756   6.284  10.499 -0.1120 -0.2370 -0.1240
  199MOL0     C27337   1.794   6.217  10.637  0.4551  0.3992 -0.3255
  199MOL0     C27338   1.688   6.230  10.747 -0.1649  0.5789 -1.5815
  199MOL0     C27339   1.757   6.221  10.885  0.2392 -0.4646 -1.2257
  199MOL0     C27340   1.653   6.221  10.995  0.0705 -0.1316 -0.4585
  199MOL0     N27341   1.714   6.290  11.110 -0.6197 -0.0460  0.4784
  199MOL0     C27342   1.733   6.428  11.111  0.4047 -0.5668 -0.1684
  199MOL0     C27343   1.764   6.459  11.245 -0.5975  0.7549  0.3567
  199MOL0     C27344   1.768   6.600  11.296 -0.5133 -0.1409 -0.5421
  199MOL0     C27345   1.756   6.716  11.195  0.3129  0.4373  0.4068
  199MOL0     C27346   1.750   6.850  11.275 -0.3062  0.1422  0.1635
  199MOL0     C27347   1.706   6.956  11.180  0.3797  0.3018  0.2834
  199MOL0     O27348   1.769   6.965  11.050  0.0317  0.9540 -0.0361
  199MOL0     C27349   1.719   7.012  10.933  0.0195 -0.3349  1.0555
  199MOL0     C27350   1.590   7.065  10.913 -0.3073 -0.1918  0.4096
  199MOL0     C27351   1.545   7.121  10.794 -0.1353 -0.1429 -0.3250
  199MOL0     C27352   1.403   7.146  10.772 -0.3493 -0.6031 -0.3794
  199MOL0     C27353   1.638   7.136  10.689  0.1726  0.7764 -0.5145
  199MOL0     C27354   1.599   7.181  10.552  0.1098  0.1606 -0.1386
  199MOL0     O27355   1.622   7.103  10.441  0.3658 -0.4361  0.3419
  199MOL0     C27356   1.593   7.154  10.310  0.3108  0.3045  0.8003
  199MOL0     C27357   1.668   7.105  10.201  0.1473 -0.5543 -0.0299
  199MOL0     C27358   1.650   7.138  10.068  1.0234  0.3346 -0.1441
  199MOL0     C27359   1.535   7.207  10.029 -0.7705 -0.4345 -0.3811
  199MOL0     O27360   1.511   7.218   9.887 -0.2385  0.8650  0.4957
  199MOL0     C27361   1.373   7.232   9.850 -0.2702  0.0093 -0.1947
  199MOL0     C27362   1.366   7.209   9.698  0.1995 -0.5558  0.7307
  199MOL0     C27363   1.414   7.328   9.616  0.5803 -0.5110  0.6386
  199MOL0     C27364   1.353   7.326   9.481  0.2207  0.0029  0.6680
  199MOL0     C27365   1.411   7.434   9.382 -0.5748  1.2576  0.4059
  199MOL0     C27366   1.331   7.468   9.259  0.2228  0.8995  1.1412
  199MOL0     C27367   1.407   7.563   9.169  0.5302  0.0967  0.8285
  199MOL0     C27368   1.393   7.526   9.029 -0.5015 -0.0316 -0.5741
  199MOL0    Cl27369   1.491   7.632   8.924  0.1737 -0.3125 -0.0210
  199MOL0     C27370   1.451   7.255  10.138  0.1295  0.4931 -0.0430
  199MOL0     C27371   1.482   7.231  10.275 -0.6180 -0.4554  0.0402
  199MOL0     O27372   1.558   7.298  10.555 -0.5319  1.0246 -0.1484
  199MOL0     C27373   1.761   7.071  10.703  0.2854 -0.2832 -0.4066
  199MOL0     C27374   1.805   7.028  10.829 -0.1545  0.1771 -1.3941
  199MOL0     N27375   1.786   6.347  11.313 -0.0643  1.0132 -0.7878
  199MOL0     N27376   1.761   6.246  11.239 -0.1903 -0.3557  0.4863
  199MOL0     C27377   2.347   6.403  10.256  0.0566 -0.2083 -0.0733
  199MOL0     C27378   2.470   6.441  10.188  0.8924  0.4214  0.0169
  199MOL0     C27379   2.852   6.320   9.918 -1.4194  1.2287  0.1230
  199MOL0     C27380   2.923   6.398  10.004 -0.3902  0.8256  0.1781
  199MOL0     C27381   3.063   6.400  10.008  0.4932  0.4351 -0.1661
  199MOL0     C27382   3.137   6.311   9.927 -0.6963 -0.3174 -0.7686
  199MOL0     O27383   3.276   6.312   9.925  0.9065 -0.3173  0.4083
  199MOL0     C27384   3.357   6.376  10.034 -0.9257  0.8141 -0.6945
  199MOL0     C27385   3.471   6.286  10.073  0.1638 -0.4901 -0.0856
  199MOL0     C27386   3.588   6.306   9.975  0.7197  0.6465 -0.5295
  199MOL0     C27387   3.711   6.231  10.021  0.6024 -0.5813  1.5109
  199MOL0     C27388   3.774   6.286  10.140 -0.9695  0.1817  0.3104
  199MOL0     C27389   3.839   6.310  10.238  1.1178 -0.5463 -0.4959
  199MOL0     C27390   3.065   6.233   9.838 -0.5300  0.0570  0.2024
  199MOL0     C27391   2.927   6.236   9.826 -0.1996  0.0215  0.0224
  199MOL0     C27392   2.866   6.157   9.713  0.6384 -0.0764 -0.7169
  199MOL0     H27393   2.509   6.158  10.001  1.7818  0.8090  0.9037
  199MOL0     H27394   2.296   6.102  10.122 -1.5873 -0.1481 -0.6207
  199MOL0     H27395   2.083   6.104  10.208 -1.2690 -2.0321  1.5723
  199MOL0     H27396   2.013   6.262  10.163  1.3605 -3.6940 -2.9792
  199MOL0     H27397   1.874   6.109  10.310  2.8273 -2.3173 -0.6298
  199MOL0     H27398   1.994   6.136  10.442  0.1806  1.5037  0.4221
  199MOL0     H27399   1.948   6.363  10.471 -0.3002 -0.9525  1.3098
  199MOL0     H27400   1.844   6.385  10.331  0.0729  1.8986  0.8517
  199MOL0     H27401   1.712   6.383  10.513  0.0024 -0.1068 -0.6816
  199MOL0     H27402   1.680   6.221  10.451  0.0683 -0.4123 -0.1800
  199MOL0     H27403   1.879   6.272  10.679 -1.9219  3.1283  1.2470
  199MOL0     H27404   1.820   6.114  10.613  0.5126  0.7720 -1.9954
  199MOL0     H27405   1.641   6.329  10.751 -0.5710  0.3551 -0.2602
  199MOL0     H27406   1.619   6.147  10.730  0.6288 -1.2681  2.8824
  199MOL0     H27407   1.814   6.311  10.906 -1.0881 -0.2309  1.9466
  199MOL0     H27408   1.821   6.133  10.890  0.0780 -0.5318 -0.0819
  199MOL0     H27409   1.565   6.279  10.967 -1.8325 -2.7413 -0.3019
  199MOL0     H27410   1.611   6.122  11.017  0.6522 -0.6108 -1.4430
  199MOL0     H27411   1.699   6.493  11.031 -0.4394  0.8069  1.2416
  199MOL0     H27412   1.850   6.600  11.369 -1.8819 -1.0669  1.0817
  199MOL0     H27413   1.676   6.607  11.355  0.3786 -2.7204  1.3707
  199MOL0     H27414   1.843   6.713  11.130  1.0657  4.4831  0.9692
  199MOL0     H27415   1.669   6.706  11.129  1.7132 -2.2753 -1.1734
  199MOL0     H27416   1.678   6.833  11.355  1.5520 -1.7746  1.5553
  199MOL0     H27417   1.846   6.882  11.316 -0.1318 -0.7719  0.4858
  199MOL0     H27418   1.598   6.961  11.159  0.1515  0.7121  1.4397
  199MOL0     H27419   1.718   7.053  11.230 -0.2757  2.0439 -2.6568
  199MOL0     H27420   1.517   7.056  10.992  0.5757 -1.6395  1.1006
  199MOL0     H27421   1.372   7.250  10.785 -1.1838 -0.4606 -2.9689
  199MOL0     H27422   1.352   7.081  10.844  1.1067 -1.5622 -0.1672
  199MOL0     H27423   1.375   7.109  10.673  1.7102  0.3366 -1.3793
  199MOL0     H27424   1.750   7.037  10.224 -0.5293 -1.0711  0.8969
  199MOL0     H27425   1.720   7.100   9.995  0.7617 -2.0698  0.7440
  199MOL0     H27426   1.309   7.155   9.894  1.1024 -1.2583 -0.3299
  199MOL0     H27427   1.332   7.328   9.885  1.2078 -0.3131  2.7949
  199MOL0     H27428   1.406   7.114   9.663  0.5139  0.9529 -3.5100
  199MOL0     H27429   1.261   7.201   9.669 -0.1553  2.2944  0.9252
  199MOL0     H27430   1.522   7.308   9.607  1.0205  2.4018 -2.5690
  199MOL0     H27431   1.407   7.422   9.671  4.5627  1.9398 -2.4781
  199MOL0     H27432   1.247   7.351   9.491  0.0711  3.5568 -5.3903
  199MOL0     H27433   1.358   7.224   9.442 -0.8683  0.4653 -0.7803
  199MOL0     H27434   1.404   7.533   9.427  0.7782  2.1069 -1.1462
  199MOL0     H27435   1.515   7.413   9.357 -1.1449 -1.1829 -0.2100
  199MOL0     H27436   1.233   7.514   9.271  0.7101  1.9939  1.0476
  199MOL0     H27437   1.309   7.377   9.202 -1.2683  3.4285 -2.7234
  199MOL0     H27438   1.510   7.581   9.200  0.2577  0.9314  1.2973
  199MOL0     H27439   1.360   7.660   9.188  1.1684  0.3250  1.2971
  199MOL0     H27440   1.292   7.553   8.996  0.3148  2.0144 -1.5349
  199MOL0     H27441   1.417   7.419   9.019  2.2612  0.5982 -1.3310
  199MOL0     H27442   1.358   7.307  10.118 -0.2546  0.7436  2.1139
  199MOL0     H27443   1.412   7.274  10.346  2.0544  0.8530  2.0623
  199MOL0     H27444   1.823   7.057  10.614 -0.3378 -3.5110 -0.4774
  199MOL0     H27445   1.899   6.974  10.828  0.8035  1.5548  1.8611
  199MOL0     H27446   2.300   6.466  10.330 -1.5411  0.9611 -1.9805
  199MOL0     H27447   2.511   6.540  10.200  1.8278  0.1014 -0.4768
  199MOL0     H27448   2.869   6.461  10.074 -2.8885 -1.3609  0.3783
  199MOL0     H27449   3.110   6.460  10.085 -0.7097 -1.3931  2.1311
  199MOL0     H27450   3.402   6.464   9.986  0.0056 -0.1196 -1.6153
  199MOL0     H27451   3.300   6.403  10.123 -2.8309 -2.7156 -0.6603
  199MOL0     H27452   3.434   6.184  10.082 -1.8939  0.3197  1.3718
  199MOL0     H27453   3.508   6.292  10.175  1.1559 -1.6111 -0.3578
  199MOL0     H27454   3.570   6.278   9.871  2.7058 -4.4176  0.2033
  199MOL0     H27455   3.618   6.411   9.985 -4.2343  2.1449  1.9268
  199MOL0     H27456   3.784   6.240   9.940 -0.1503 -2.6481  0.5215
  199MOL0     H27457   3.693   6.124  10.031  1.5301 -0.7834  1.1463
  199MOL0     H27458   3.906   6.340  10.316 -0.5122  0.3569  0.5928
  199MOL0     H27459   3.120   6.176   9.764  0.2292  2.3062 -1.0847
  199MOL0     H27460   2.944   6.108   9.654  0.6175 -1.0072  0.0101
  199MOL0     H27461   2.803   6.076   9.751 -1.8996  1.7694 -0.7250
  199MOL0     H27462   2.806   6.213   9.641  2.5243  0.4526 -1.9594
  200MOL0     O27463   2.860   8.125   9.718  0.0576 -0.1539  0.0068
  200MOL0     C27464   2.966   8.132   9.652 -0.0664 -0.5336 -1.1056
  200MOL0     O27465   2.974   8.124   9.516  0.0082  0.0054  0.4227
  200MOL0     C27466   2.871   8.069   9.448 -1.0330  1.1135  0.3086
  200MOL0     C27467   2.735   8.112   9.454 -0.0319 -0.2989  0.4566
  200MOL0     C27468   2.635   8.042   9.394  0.4114 -0.1639  0.0697
  200MOL0     C27469   2.672   7.922   9.335 -0.0488 -0.6855  0.2001
  200MOL0     O27470   2.576   7.837   9.274 -0.5918 -0.6906  0.4467
  200MOL0     C27471   2.462   7.912   9.217 -0.8632  0.3988  0.1689
  200MOL0     C27472   2.380   7.820   9.139 -0.4544 -0.8530  0.2580
  200MOL0     C27473   2.451   7.799   9.004 -0.3070  0.7716  0.2286
  200MOL0     C27474   2.345   7.729   8.924 -0.0713  0.5637  0.3189
  200MOL0     C27475   2.379   7.739   8.776 -0.5484  0.2971 -0.1259
  200MOL0     C27476   2.487   7.636   8.743 -0.0200 -0.3988  0.0957
  200MOL0     C27477   2.514   7.641   8.588  0.2202  0.1587  0.5248
  200MOL0     C27478   2.647   7.570   8.558 -0.3639 -0.4521 -0.7855
  200MOL0     N27479   2.686   7.552   8.419 -0.6531 -0.0481 -0.5458
  200MOL0     C27480   2.687   7.442   8.339  0.4309 -0.4856 -0.3963
  200MOL0     C27481   2.738   7.483   8.221  0.3436 -0.8857  0.4214
  200MOL0     C27482   2.749   7.399   8.087  0.0870  0.4667  1.2866
  200MOL0     C27483   2.830   7.269   8.092 -0.6761  0.4974 -0.0860
  200MOL0     C27484   2.976   7.286   8.041  0.1313 -0.4850 -0.4468
  200MOL0     C27485   3.073   7.372   8.120  0.2516 -0.3942 -0.8626
  200MOL0     O27486   3.063   7.333   8.261  0.5495 -0.2942  0.8313
  200MOL0     C27487   3.112   7.428   8.345 -0.6001 -0.7539  0.5832
  200MOL0     C27488   3.063   7.441   8.476 -0.4337  0.2239  0.5007
  200MOL0     C27489   3.108   7.542   8.565 -0.2291 -0.3073  0.7566
  200MOL0     C27490   3.022   7.562   8.693 -0.3646 -0.4630  0.2871
  200MOL0     C27491   3.217   7.625   8.526  0.1061  1.2947 -0.5405
  200MOL0     C27492   3.277   7.724   8.614 -0.6923 -0.0369  0.0137
  200MOL0     O27493   3.299   7.849   8.553 -0.4052 -0.5499 -0.0525
  200MOL0     C27494   3.350   7.940   8.642 -0.1062 -0.2003  0.2843
  200MOL0     C27495   3.261   8.028   8.702 -0.1389  0.6336 -0.1579
  200MOL0     C27496   3.305   8.139   8.780  0.7420 -0.0272  0.6822
  200MOL0     C27497   3.442   8.162   8.785 -0.2573 -0.4163  1.0979
  200MOL0     O27498   3.470   8.286   8.835  0.1707 -0.4870 -0.5617
  200MOL0     C27499   3.595   8.350   8.798  0.3510  1.2957 -0.2389
  200MOL0     C27500   3.582   8.494   8.813 -0.6631 -0.2239 -0.0204
  200MOL0     C27501   3.717   8.560   8.781 -0.0092  0.3432  0.3837
  200MOL0     C27502   3.701   8.698   8.723 -0.0646  0.1401 -0.2797
  200MOL0     C27503   3.837   8.764   8.684 -0.7122 -0.0569 -0.0372
  200MOL0     C27504   3.815   8.912   8.627 -0.7115 -0.2773  0.1598
  200MOL0     C27505   3.954   8.973   8.580  0.4988 -0.3333  0.9106
  200MOL0     C27506   3.929   9.106   8.507 -0.0757 -0.3638  0.0326
  200MOL0    Cl27507   4.076   9.162   8.411  0.0375 -0.0647 -0.4967
  200MOL0     C27508   3.534   8.067   8.735 -1.3847  0.6680  0.4258
  200MOL0     C27509   3.482   7.957   8.664 -0.1439 -0.0804 -0.3291
  200MOL0     O27510   3.310   7.688   8.726 -0.2901 -0.1085  1.0496
  200MOL0     C27511   3.278   7.593   8.408  0.7771  0.0146 -0.0168
  200MOL0     C27512   3.228   7.507   8.312 -0.4761  0.5851  0.1360
  200MOL0     N27513   2.768   7.614   8.230 -0.8935  0.3496 -0.5819
  200MOL0     N27514   2.735   7.660   8.350 -0.5667 -0.2808 -0.2215
  200MOL0     C27515   2.799   7.868   9.335 -0.8727 -0.2952 -0.2909
  200MOL0     C27516   2.902   7.943   9.385 -0.7050 -0.1555 -0.3152
  200MOL0     C27517   3.073   8.192   9.738  0.5001  0.5193  0.4841
  200MOL0     C27518   3.168   8.268   9.676 -1.2008  0.7337  0.3598
  200MOL0     C27519   3.264   8.349   9.750  0.0067  0.5411  0.1406
  200MOL0     C27520   3.275   8.333   9.892 -0.3389 -1.0818 -0.2535
  200MOL0     O27521   3.364   8.422   9.950  0.5225 -0.0579  0.4799
  200MOL0     C27522   3.373   8.437  10.094 -0.0219 -0.5872 -1.0147
  200MOL0     C27523   3.425   8.319  10.172 -0.0565  1.1181  0.4631
  200MOL0     C27524   3.461   8.351  10.312  0.6305 -0.6487 -0.2117
  200MOL0     C27525   3.589   8.292  10.358  0.7532 -0.1408 -0.1407
  200MOL0     C27526   3.702   8.350  10.286  0.4125  0.1990  0.3226
  200MOL0     C27527   3.798   8.396  10.238 -0.1532  0.0764 -0.8995
  200MOL0     C27528   3.174   8.262   9.954  0.2150 -0.6879 -0.8276
  200MOL0     C27529   3.063   8.196   9.883 -0.8519 -0.3576  0.0910
  200MOL0     C27530   2.954   8.127   9.966 -0.6013  0.3680  0.0390
  200MOL0     H27531   2.722   8.208   9.502 -1.4555 -1.1170  1.7977
  200MOL0     H27532   2.530   8.071   9.390  0.1547 -0.9718  0.6531
  200MOL0     H27533   2.506   7.999   9.166 -0.5266  0.1736  0.0742
  200MOL0     H27534   2.400   7.957   9.296 -0.4131 -1.6287  1.7750
  200MOL0     H27535   2.361   7.726   9.191 -1.1417  0.2202  2.0099
  200MOL0     H27536   2.284   7.868   9.121  0.5245  0.9558 -0.5430
  200MOL0     H27537   2.476   7.890   8.948 -0.2498  0.7600  0.2358
  200MOL0     H27538   2.543   7.741   9.013  0.6349  1.7391 -2.2931
  200MOL0     H27539   2.323   7.629   8.963 -1.0683  0.2617 -0.9429
  200MOL0     H27540   2.247   7.778   8.928 -0.1071  0.4789  0.4970
  200MOL0     H27541   2.415   7.838   8.744 -0.9444 -0.1893 -2.2510
  200MOL0     H27542   2.289   7.704   8.726  0.3024 -3.4626  0.6664
  200MOL0     H27543   2.575   7.656   8.806  1.7880 -1.2289 -2.0127
  200MOL0     H27544   2.449   7.538   8.772 -1.2085  0.1269  0.3515
  200MOL0     H27545   2.521   7.742   8.548  0.8984  1.2009  3.0829
  200MOL0     H27546   2.430   7.594   8.536 -2.0691  2.0977  2.2550
  200MOL0     H27547   2.722   7.633   8.608 -1.9973 -1.5746  3.5080
  200MOL0     H27548   2.644   7.476   8.613 -0.1277  1.2741  2.4027
  200MOL0     H27549   2.673   7.337   8.365  1.3906 -0.3939  0.5578
  200MOL0     H27550   2.801   7.462   8.014  2.1431 -0.8624  1.5266
  200MOL0     H27551   2.646   7.375   8.059  0.9507 -1.8883 -0.2032
  200MOL0     H27552   2.830   7.248   8.199 -2.8898  0.7905  0.0261
  200MOL0     H27553   2.801   7.185   8.028  1.8446  1.2886 -2.4627
  200MOL0     H27554   3.007   7.181   8.051  0.9266 -0.0909  1.6708
  200MOL0     H27555   2.971   7.311   7.935 -3.3776 -0.4203 -0.3868
  200MOL0     H27556   3.175   7.349   8.091  0.6123  1.4894 -1.2383
  200MOL0     H27557   3.072   7.480   8.103 -3.1995  0.2590  2.0216
  200MOL0     H27558   2.980   7.378   8.506 -0.2173  0.7064  2.2175
  200MOL0     H27559   3.048   7.500   8.779 -2.1226 -0.5790  0.7804
  200MOL0     H27560   2.915   7.545   8.680 -0.6541  1.5973 -0.4635
  200MOL0     H27561   3.031   7.664   8.734 -0.1599 -0.5031  0.3454
  200MOL0     H27562   3.161   7.987   8.689  0.5407 -1.8052  1.6112
  200MOL0     H27563   3.233   8.199   8.834 -1.1964 -2.8885  1.4928
  200MOL0     H27564   3.674   8.317   8.866  1.1132  0.2201 -1.6002
  200MOL0     H27565   3.629   8.333   8.696  1.2462  2.2295 -0.1204
  200MOL0     H27566   3.496   8.530   8.757 -2.1400 -2.2480  0.8275
  200MOL0     H27567   3.548   8.520   8.913 -0.9907  0.2807 -0.2582
  200MOL0     H27568   3.769   8.504   8.703 -1.6825 -0.7227  0.0038
  200MOL0     H27569   3.787   8.571   8.865 -0.1596  1.4664  0.3822
  200MOL0     H27570   3.649   8.744   8.808 -0.9555 -3.2100  1.1467
  200MOL0     H27571   3.625   8.706   8.645 -3.9788  0.9086  3.1864
  200MOL0     H27572   3.916   8.752   8.759 -1.5044 -0.0181  0.8221
  200MOL0     H27573   3.879   8.715   8.596  1.1472 -0.0716  0.8094
  200MOL0     H27574   3.772   8.981   8.701  0.2462  1.3852 -0.7869
  200MOL0     H27575   3.759   8.906   8.534  3.2359  1.6335 -2.6151
  200MOL0     H27576   4.003   8.910   8.506  1.1252  1.0238  0.1442
  200MOL0     H27577   4.027   9.000   8.657  3.6067  1.3107 -2.3744
  200MOL0     H27578   3.903   9.182   8.581  3.8897  1.0423  0.2594
  200MOL0     H27579   3.852   9.096   8.431 -0.8216 -1.2459  0.8753
  200MOL0     H27580   3.641   8.076   8.753 -1.0578 -0.9831 -0.4604
  200MOL0     H27581   3.553   7.886   8.623  1.2320  1.9764 -1.6835
  200MOL0     H27582   3.378   7.636   8.397  0.5705  0.5016 -0.0112
  200MOL0     H27583   3.263   7.496   8.209  0.3156  0.4644  0.4113
  200MOL0     H27584   2.829   7.784   9.274  0.7111  0.9383 -1.2918
  200MOL0     H27585   3.008   7.918   9.383 -0.8261 -0.7150 -0.0794
  200MOL0     H27586   3.171   8.281   9.569 -1.0366  1.1916  0.4162
  200MOL0     H27587   3.329   8.410   9.689  2.1697 -2.0919 -0.3709
  200MOL0     H27588   3.433   8.528  10.107  0.4168 -1.2220  2.0694
  200MOL0     H27589   3.274   8.462  10.132 -0.1727 -0.0012 -1.7690
  200MOL0     H27590   3.507   8.274  10.116 -0.8199 -0.9936  0.9617
  200MOL0     H27591   3.347   8.243  10.172  2.5282 -1.6990  0.4743
  200MOL0     H27592   3.468   8.460  10.324 -0.8554 -0.7973  2.8613
  200MOL0     H27593   3.379   8.318  10.376  1.6041 -0.0337  1.4268
  200MOL0     H27594   3.585   8.185  10.338 -0.4876 -0.6633  2.5327
  200MOL0     H27595   3.599   8.309  10.466  1.5961  1.6584 -0.4595
  200MOL0     H27596   3.875   8.452  10.188 -0.1086  0.2167 -0.6758
  200MOL0     H27597   3.170   8.247  10.061  2.2311 -1.2828 -0.8056
  200MOL0     H27598   2.920   8.035   9.916 -1.3381  1.4130 -1.4490
  200MOL0     H27599   2.996   8.095  10.062  0.9824 -1.0343 -1.0503
  200MOL0     H27600   2.866   8.188   9.986  0.3864  2.2511 -1.0961
  201MOL0     O27601  11.404   5.569   7.134  0.4095 -0.3966 -0.0019
  201MOL0     C27602  11.315   5.592   7.052 -0.6336  0.5233  0.5359
  201MOL0     O27603  11.294   5.715   6.999 -0.2951  0.1970 -0.3118
  201MOL0     C27604  11.400   5.802   6.969 -0.3105  0.2626  0.6897
  201MOL0     C27605  11.368   5.937   6.958 -0.2167  0.4028 -0.2270
  201MOL0     C27606  11.463   6.032   6.938  0.7099 -0.4273 -0.2752
  201MOL0     C27607  11.600   5.993   6.917  0.9660 -0.3092  0.7867
  201MOL0     O27608  11.698   6.073   6.867 -0.1483 -0.7678 -0.3962
  201MOL0     C27609  11.675   6.210   6.861 -0.6120  0.3800  0.8857
  201MOL0     C27610  11.800   6.303   6.836  0.2242  0.7773 -0.5582
  201MOL0     C27611  11.918   6.278   6.936  0.6460  0.0031  0.1331
  201MOL0     C27612  12.052   6.341   6.894  0.7080  0.0210  0.2762
  201MOL0     C27613  12.045   6.492   6.913 -0.0244  0.0821  0.1887
  201MOL0     C27614  12.170   6.571   6.908  0.7835 -0.0786  0.4031
  201MOL0     C27615  12.167   6.725   6.937 -0.0405 -0.6133 -1.2360
  201MOL0     C27616  12.253   6.807   6.842  0.0387  0.3280 -0.4266
  201MOL0     N27617  12.399   6.787   6.868  0.3436  0.0076  0.1667
  201MOL0     C27618  12.499   6.793   6.777 -0.7149 -0.3085 -0.6225
  201MOL0     C27619  12.610   6.776   6.845  0.6404  0.6079  0.1627
  201MOL0     C27620  12.755   6.772   6.787 -0.1249 -0.6535  0.1540
  201MOL0     C27621  12.832   6.646   6.825 -0.3182  0.5586  0.5894
  201MOL0     C27622  12.775   6.523   6.773 -0.5564  0.3614  0.8075
  201MOL0     C27623  12.859   6.397   6.799 -0.4326  0.0313  0.1351
  201MOL0     O27624  12.777   6.280   6.804  0.0980  0.0426 -0.3265
  201MOL0     C27625  12.786   6.180   6.706  0.3682  0.9383  0.9552
  201MOL0     C27626  12.669   6.110   6.698 -0.4029 -0.1275  0.1616
  201MOL0     C27627  12.652   5.990   6.622  0.7230 -0.7407  0.1128
  201MOL0     C27628  12.512   5.938   6.610 -0.8400  0.1129  0.0641
  201MOL0     C27629  12.766   5.930   6.569  0.1744 -0.3493  0.3303
  201MOL0     C27630  12.763   5.796   6.501 -0.1663  0.1888 -0.7257
  201MOL0     O27631  12.722   5.676   6.562 -0.7951 -1.0033  0.3143
  201MOL0     C27632  12.750   5.557   6.495 -0.0177  0.1609 -0.3185
  201MOL0     C27633  12.872   5.526   6.434  0.2989  0.1225 -0.3020
  201MOL0     C27634  12.885   5.413   6.359  0.6423  0.3046  0.1292
  201MOL0     C27635  12.793   5.309   6.366  0.0884 -0.4944  0.0968
  201MOL0     O27636  12.814   5.179   6.312 -0.4646 -0.6407  0.1985
  201MOL0     C27637  12.955   5.155   6.275 -0.1857 -0.2861  0.0289
  201MOL0     C27638  12.960   5.008   6.225  0.3032 -0.2207  0.2298
  201MOL0     C27639  12.941   4.925   6.349 -0.6417 -0.6345  0.0742
  201MOL0     C27640  12.921   4.771   6.318  0.0994 -0.5125 -0.3425
  201MOL0     C27641  12.930   4.698   6.456  0.0076  0.1743 -0.3503
  201MOL0     C27642  12.951   4.549   6.451  0.8207 -0.5293 -0.8322
  201MOL0     C27643  12.829   4.474   6.410  0.1136 -0.0811 -1.0266
  201MOL0     C27644  12.858   4.328   6.417 -0.6682  0.3815 -0.5312
  201MOL0    Cl27645  12.720   4.225   6.383  0.0278  0.0897  0.1767
  201MOL0     C27646  12.672   5.331   6.431  0.6403 -0.7650 -0.9272
  201MOL0     C27647  12.652   5.453   6.494  0.1207 -0.6210  0.0711
  201MOL0     O27648  12.808   5.804   6.384 -0.2122 -0.0075 -0.2572
  201MOL0     C27649  12.889   6.005   6.574  0.2680  0.4230 -0.2309
  201MOL0     C27650  12.907   6.130   6.652  1.0778 -0.2575  0.1699
  201MOL0     N27651  12.579   6.757   6.976 -0.3356  0.0212 -0.5529
  201MOL0     N27652  12.453   6.774   6.993  0.1412 -0.0389  0.6872
  201MOL0     C27653  11.635   5.857   6.924  0.0621 -0.1956 -0.3529
  201MOL0     C27654  11.538   5.758   6.956  0.2967  0.1093 -0.4596
  201MOL0     C27655  11.218   5.485   7.021 -0.2181 -0.7968  0.3610
  201MOL0     C27656  11.105   5.529   6.944  0.3851  1.0905  0.2955
  201MOL0     C27657  11.009   5.440   6.908  0.6047 -0.0608 -1.4284
  201MOL0     C27658  11.013   5.305   6.935  1.2666 -0.0547 -0.5941
  201MOL0     O27659  10.909   5.226   6.896 -0.1971 -0.0809 -0.0354
  201MOL0     C27660  10.948   5.106   6.815 -0.2788 -0.5904  0.3474
  201MOL0     C27661  10.826   5.041   6.746 -0.6403  0.6912  0.3296
  201MOL0     C27662  10.771   5.124   6.626 -0.5608  0.1728  0.0909
  201MOL0     C27663  10.679   5.051   6.532  0.0574 -0.0718  0.6202
  201MOL0     C27664  10.549   5.035   6.593  0.1645 -0.0075 -0.6954
  201MOL0     C27665  10.441   4.990   6.640  0.3260 -0.7678 -0.5869
  201MOL0     C27666  11.134   5.260   6.995 -0.2045 -0.4596 -0.0386
  201MOL0     C27667  11.236   5.343   7.039  0.4706 -0.5563 -0.3362
  201MOL0     C27668  11.369   5.275   7.087  0.7300  0.5315 -0.0970
  201MOL0     H27669  11.268   5.975   6.976 -0.8843 -0.3256 -2.1923
  201MOL0     H27670  11.420   6.132   6.929 -1.8173 -1.3590  0.6158
  201MOL0     H27671  11.639   6.243   6.959  2.6696  2.9326  1.4135
  201MOL0     H27672  11.594   6.225   6.789  1.7309 -1.0970 -2.2712
  201MOL0     H27673  11.831   6.282   6.733  0.9773  3.2491 -0.9169
  201MOL0     H27674  11.771   6.409   6.837 -3.9419 -0.0943  3.6340
  201MOL0     H27675  11.891   6.305   7.039  0.9442  1.0979 -0.0713
  201MOL0     H27676  11.947   6.173   6.928  1.0259  0.2644 -2.9371
  201MOL0     H27677  12.136   6.306   6.954  1.1952  0.0646 -0.3781
  201MOL0     H27678  12.074   6.334   6.787 -1.3976 -0.1287 -0.1872
  201MOL0     H27679  11.987   6.514   7.004 -0.5716  0.0742 -0.1514
  201MOL0     H27680  11.973   6.530   6.840 -2.4041 -3.6919  0.2905
  201MOL0     H27681  12.233   6.524   6.984 -0.3138 -2.3109 -0.0043
  201MOL0     H27682  12.219   6.564   6.811 -0.0282 -1.3037  0.0590
  201MOL0     H27683  12.200   6.742   7.040  3.9427 -1.7015 -2.1627
  201MOL0     H27684  12.061   6.754   6.936 -0.3868 -1.1118  2.9161
  201MOL0     H27685  12.231   6.783   6.738 -2.1627  1.6532 -0.3512
  201MOL0     H27686  12.232   6.914   6.856  0.2205  0.0593  2.6792
  201MOL0     H27687  12.488   6.818   6.672 -0.1233  0.7268 -0.4531
  201MOL0     H27688  12.806   6.866   6.808 -1.9307  0.5862 -0.8146
  201MOL0     H27689  12.750   6.766   6.678  1.1054  1.1742 -0.0449
  201MOL0     H27690  12.932   6.653   6.782  0.6569 -0.3320  2.6023
  201MOL0     H27691  12.854   6.630   6.931  2.4775  1.4581  0.2392
  201MOL0     H27692  12.685   6.496   6.828  0.7791 -2.7017  1.6748
  201MOL0     H27693  12.763   6.527   6.664  1.8879 -2.9073  0.2912
  201MOL0     H27694  12.932   6.401   6.717  0.7078  0.8132  1.1380
  201MOL0     H27695  12.896   6.417   6.900  0.0278  0.7352 -0.1623
  201MOL0     H27696  12.586   6.156   6.750  0.2371  0.5723  0.5953
  201MOL0     H27697  12.465   5.939   6.709  1.9544  1.4430  1.4776
  201MOL0     H27698  12.509   5.835   6.572  1.6825 -0.0297  0.0806
  201MOL0     H27699  12.445   5.992   6.542 -3.1415 -1.9666  0.5110
  201MOL0     H27700  12.946   5.605   6.425  1.7298 -1.4076 -5.8887
  201MOL0     H27701  12.970   5.417   6.292 -1.7790  0.3470 -3.1810
  201MOL0     H27702  12.991   5.223   6.198  3.2914 -0.4592  1.3131
  201MOL0     H27703  13.019   5.169   6.363 -0.2515 -0.8912  0.1790
  201MOL0     H27704  12.880   4.989   6.153 -0.7704  2.6588  0.5640
  201MOL0     H27705  13.053   4.977   6.175 -0.3919 -3.5133  0.7301
  201MOL0     H27706  12.854   4.962   6.402  0.8957  1.2972  1.3778
  201MOL0     H27707  13.025   4.946   6.416  1.0212  0.6317 -2.2307
  201MOL0     H27708  12.999   4.731   6.253 -0.4898  0.7445 -1.8810
  201MOL0     H27709  12.829   4.760   6.260 -0.9289  0.2051  1.0854
  201MOL0     H27710  13.028   4.732   6.492 -1.0720  2.7152  0.3691
  201MOL0     H27711  12.849   4.725   6.523 -1.0195  1.1828 -1.9420
  201MOL0     H27712  12.979   4.518   6.552 -1.8799  1.4777  0.6470
  201MOL0     H27713  13.042   4.528   6.394  2.4234  1.4179  0.8268
  201MOL0     H27714  12.786   4.502   6.313  1.7422 -2.1331 -2.4121
  201MOL0     H27715  12.750   4.487   6.485  1.1373  2.7056 -0.3058
  201MOL0     H27716  12.890   4.322   6.521  1.3314 -0.3566 -1.1431
  201MOL0     H27717  12.941   4.308   6.349 -1.8750  1.5032 -2.4149
  201MOL0     H27718  12.612   5.241   6.433 -0.8246  0.1875  1.0153
  201MOL0     H27719  12.560   5.472   6.549  0.3873 -0.1481  0.3706
  201MOL0     H27720  12.980   5.971   6.526  0.2795  0.2431 -0.0840
  201MOL0     H27721  13.002   6.180   6.666  0.1977  1.7407 -0.6626
  201MOL0     H27722  11.733   5.824   6.890 -0.6823 -1.3237 -1.5008
  201MOL0     H27723  11.578   5.657   6.945  5.6203  2.1250 -3.4317
  201MOL0     H27724  11.083   5.634   6.924 -0.9916  0.2380 -3.4155
  201MOL0     H27725  10.926   5.489   6.856  0.2224  1.2804  0.3448
  201MOL0     H27726  11.014   5.140   6.734 -2.0476 -1.0682 -1.3883
  201MOL0     H27727  11.001   5.027   6.868 -0.4659 -2.3893 -1.9847
  201MOL0     H27728  10.749   5.034   6.823 -0.8140 -3.1620 -0.0047
  201MOL0     H27729  10.860   4.941   6.715  2.7980  0.8370  2.9212
  201MOL0     H27730  10.727   5.219   6.659  0.2590  1.5391 -2.4760
  201MOL0     H27731  10.857   5.147   6.561 -1.2015  5.8344  0.7048
  201MOL0     H27732  10.723   4.958   6.495  1.3673  0.6440  0.2983
  201MOL0     H27733  10.672   5.106   6.438  2.6589 -2.9280 -1.4759
  201MOL0     H27734  10.357   4.939   6.684  0.0244  0.1349 -0.0841
  201MOL0     H27735  11.142   5.155   7.021  2.2200 -0.4680 -0.5469
  201MOL0     H27736  11.453   5.298   7.022  0.2715  0.4805 -0.7132
  201MOL0     H27737  11.399   5.302   7.189  1.8918 -2.7950  0.5646
  201MOL0     H27738  11.355   5.167   7.090 -2.5795  0.7910 -1.3261
  202MOL0     O27739   9.067   1.619   9.419 -0.0271 -0.1077  0.1579
  202MOL0     C27740   8.987   1.658   9.336 -1.1590 -0.8475  1.1719
  202MOL0     O27741   8.859   1.617   9.338  1.0927  0.5546 -0.1480
  202MOL0     C27742   8.805   1.556   9.457  0.0857  0.0720  0.1706
  202MOL0     C27743   8.784   1.419   9.465 -0.6083  0.6451 -0.5018
  202MOL0     C27744   8.697   1.363   9.569  1.0575 -0.4654 -0.4633
  202MOL0     C27745   8.638   1.452   9.657  0.3961  0.5127  0.2241
  202MOL0     O27746   8.568   1.407   9.762  0.3087  0.0918  1.1490
  202MOL0     C27747   8.430   1.398   9.754  0.1343 -0.2942  0.5027
  202MOL0     C27748   8.390   1.268   9.824 -0.1770  0.7507  0.2683
  202MOL0     C27749   8.429   1.258   9.967  0.0850 -0.9311 -0.4074
  202MOL0     C27750   8.567   1.197  10.010  0.5929  0.6483  0.1430
  202MOL0     C27751   8.604   1.237  10.158 -0.5420  0.3072 -0.4707
  202MOL0     C27752   8.699   1.131  10.218 -0.2123  0.7092  0.5710
  202MOL0     C27753   8.745   1.160  10.361 -0.4534 -0.6006 -0.3811
  202MOL0     C27754   8.874   1.083  10.392  0.4693 -0.2231  0.0547
  202MOL0     N27755   8.992   1.143  10.339  0.0207 -0.4371 -0.6456
  202MOL0     C27756   9.069   1.231  10.411  0.0875 -0.2089  0.1684
  202MOL0     C27757   9.189   1.244  10.346  0.4589 -0.7582 -0.5353
  202MOL0     C27758   9.308   1.342  10.368  0.2283  0.3512  0.2695
  202MOL0     C27759   9.393   1.288  10.478  0.1938  0.0159 -0.6369
  202MOL0     C27760   9.508   1.385  10.518  0.2400  0.4716 -0.2130
  202MOL0     C27761   9.623   1.412  10.415  0.0955 -0.4365 -0.6598
  202MOL0     O27762   9.650   1.296  10.331  0.9170 -0.5914 -0.0563
  202MOL0     C27763   9.785   1.275  10.309  0.0394  0.5633  0.6204
  202MOL0     C27764   9.827   1.138  10.330  0.1590 -0.1553 -0.0918
  202MOL0     C27765   9.952   1.092  10.299 -0.0698  0.3549  0.3354
  202MOL0     C27766   9.974   0.950  10.329 -0.9456  0.0739 -0.1058
  202MOL0     C27767  10.045   1.187  10.242  0.4236  0.4506  0.4822
  202MOL0     C27768  10.177   1.153  10.184 -0.2610  0.9108 -0.4808
  202MOL0     O27769  10.241   1.253  10.120  0.5921 -0.8713  0.0320
  202MOL0     C27770  10.369   1.239  10.074 -0.8396 -1.7153 -0.5714
  202MOL0     C27771  10.401   1.302   9.952 -0.5683 -0.4211 -1.3276
  202MOL0     C27772  10.534   1.280   9.891  0.7335  0.4017 -0.5208
  202MOL0     C27773  10.628   1.218   9.976  0.3478  0.9145 -0.6100
  202MOL0     O27774  10.757   1.226   9.932  0.1959  0.2536 -0.3056
  202MOL0     C27775  10.835   1.107   9.908 -0.5534 -0.7124  0.5996
  202MOL0     C27776  10.984   1.142   9.886 -0.2963  0.2972 -0.0211
  202MOL0     C27777  11.042   1.250   9.975 -0.8025 -0.1769  0.7146
  202MOL0     C27778  11.171   1.291   9.908 -0.0671 -0.4225 -0.1976
  202MOL0     C27779  11.244   1.389  10.006 -0.2616  0.0128  0.0132
  202MOL0     C27780  11.350   1.471   9.929  0.2347  0.0726 -0.5802
  202MOL0     C27781  11.413   1.574  10.023  0.4671  0.8873  0.5238
  202MOL0     C27782  11.482   1.691   9.946 -0.1187 -0.8156 -0.0493
  202MOL0    Cl27783  11.617   1.636   9.826 -0.5237  0.1416 -0.2084
  202MOL0     C27784  10.602   1.165  10.102  0.8809 -0.1051 -0.3746
  202MOL0     C27785  10.470   1.176  10.144 -0.8666 -1.4783  0.3234
  202MOL0     O27786  10.234   1.048  10.212 -0.2970  0.1893  0.2996
  202MOL0     C27787  10.001   1.327  10.228 -0.2336  0.5191  0.0184
  202MOL0     C27788   9.875   1.366  10.262 -1.4046 -0.3983 -0.4801
  202MOL0     N27789   9.182   1.158  10.239 -0.3309 -0.4735  0.1590
  202MOL0     N27790   9.069   1.096  10.233 -1.1876 -0.4743  0.0666
  202MOL0     C27791   8.658   1.589   9.649  0.4395 -0.4538 -0.0953
  202MOL0     C27792   8.743   1.639   9.550  0.7424  0.3883 -0.4940
  202MOL0     C27793   9.035   1.744   9.220  0.9215  0.4795 -0.4700
  202MOL0     C27794   9.164   1.724   9.181  0.6292 -1.0738  0.6477
  202MOL0     C27795   9.209   1.775   9.063 -0.2571 -0.3961  0.2480
  202MOL0     C27796   9.130   1.853   8.976  0.3673 -0.8714  0.4454
  202MOL0     O27797   9.192   1.897   8.861 -0.8186  0.4115  0.3188
  202MOL0     C27798   9.133   1.984   8.772 -0.3831 -0.7267 -0.3277
  202MOL0     C27799   9.166   1.959   8.624  0.0749  0.3034 -0.1882
  202MOL0     C27800   9.292   2.015   8.565  0.3546  0.2727  1.2871
  202MOL0     C27801   9.419   1.987   8.660 -0.1504  0.0356 -0.1823
  202MOL0     C27802   9.546   2.039   8.605 -0.4588 -0.0445 -0.2818
  202MOL0     C27803   9.644   2.106   8.565 -0.2197  0.9573 -0.2286
  202MOL0     C27804   9.003   1.885   9.029  1.1615  0.3531  0.3434
  202MOL0     C27805   8.952   1.826   9.150  0.6112 -0.9236  0.1059
  202MOL0     C27806   8.808   1.865   9.192 -0.5420  0.7973  0.6236
  202MOL0     H27807   8.819   1.340   9.400 -1.3075 -0.8787  0.8917
  202MOL0     H27808   8.689   1.256   9.580 -1.2212 -0.3088 -0.1509
  202MOL0     H27809   8.401   1.386   9.649  0.2671  1.8405  0.1727
  202MOL0     H27810   8.385   1.493   9.783 -0.3634 -0.3528 -0.0590
  202MOL0     H27811   8.281   1.260   9.813  0.0922  0.0458 -6.5921
  202MOL0     H27812   8.417   1.182   9.762  2.6730  0.4781  1.7042
  202MOL0     H27813   8.413   1.355  10.014  1.0800 -0.1891 -1.5273
  202MOL0     H27814   8.354   1.190  10.008  1.6870 -2.3494  0.3276
  202MOL0     H27815   8.570   1.088  10.010  1.9972  0.6662  0.0137
  202MOL0     H27816   8.637   1.232   9.933 -0.8778  1.4590 -0.8734
  202MOL0     H27817   8.519   1.241  10.226 -0.8776 -2.3961 -0.6054
  202MOL0     H27818   8.651   1.335  10.159  0.3833 -0.1157  1.0101
  202MOL0     H27819   8.639   1.039  10.216 -2.8124  2.1862  3.2977
  202MOL0     H27820   8.779   1.124  10.144 -1.2089  0.3611 -0.5195
  202MOL0     H27821   8.678   1.148  10.447 -0.4322 -0.1940 -0.3062
  202MOL0     H27822   8.768   1.267  10.356 -4.9796  0.7335  1.7664
  202MOL0     H27823   8.903   1.065  10.496  0.8306  1.8894  0.3560
  202MOL0     H27824   8.861   0.987  10.339  0.3206 -0.6870  0.9119
  202MOL0     H27825   9.038   1.279  10.503 -0.8673 -1.3614  0.4666
  202MOL0     H27826   9.271   1.440  10.401  0.4167  0.2206  0.8820
  202MOL0     H27827   9.366   1.369  10.279 -4.5987  3.6219 -2.3784
  202MOL0     H27828   9.330   1.276  10.566 -0.0699  2.8731 -0.3254
  202MOL0     H27829   9.439   1.193  10.451  5.6685  1.7944  1.0825
  202MOL0     H27830   9.462   1.477  10.554 -0.7704  0.1410 -0.6272
  202MOL0     H27831   9.558   1.343  10.605 -1.0202 -2.1266 -0.6466
  202MOL0     H27832   9.584   1.492  10.350  0.7756  1.3835  1.0588
  202MOL0     H27833   9.713   1.445  10.469 -0.8657 -0.6609  1.1368
  202MOL0     H27834   9.749   1.076  10.373 -0.2269 -0.4538 -1.2049
  202MOL0     H27835   9.904   0.906  10.401  2.1959 -0.7286  2.7644
  202MOL0     H27836  10.070   0.929  10.378 -2.2335 -1.6264  1.8720
  202MOL0     H27837   9.967   0.884  10.242  0.5501 -1.1753  0.6611
  202MOL0     H27838  10.316   1.353   9.908  1.0722  2.0062 -1.9190
  202MOL0     H27839  10.560   1.320   9.794  1.7801  1.0922  0.0255
  202MOL0     H27840  10.835   1.040   9.993  2.4087 -3.1709 -1.1162
  202MOL0     H27841  10.788   1.049   9.828  3.1373 -1.1270 -1.5356
  202MOL0     H27842  11.039   1.048   9.893 -2.7538 -1.1080  2.0238
  202MOL0     H27843  10.999   1.178   9.784  2.4807 -0.9903 -0.1437
  202MOL0     H27844  11.078   1.199  10.065  3.5996 -1.2078 -1.3456
  202MOL0     H27845  10.978   1.337   9.992  0.1487  0.3715  1.6252
  202MOL0     H27846  11.161   1.347   9.814  3.2414  1.5116  0.4674
  202MOL0     H27847  11.239   1.206   9.901  2.4457  0.6347  5.8490
  202MOL0     H27848  11.171   1.455  10.053  1.8891  0.4856  2.9675
  202MOL0     H27849  11.281   1.328  10.089 -1.6615  0.3080  0.8806
  202MOL0     H27850  11.297   1.517   9.845  0.1821  1.3978  0.1686
  202MOL0     H27851  11.424   1.401   9.889 -1.5043 -2.2169 -0.0182
  202MOL0     H27852  11.487   1.529  10.090 -0.7041 -2.8494 -0.4375
  202MOL0     H27853  11.339   1.615  10.092 -2.6567  0.7208 -2.4588
  202MOL0     H27854  11.521   1.745  10.033 -5.5570  0.2901  2.0963
  202MOL0     H27855  11.419   1.760   9.890  0.8625  0.3927  0.3011
  202MOL0     H27856  10.682   1.114  10.155  1.8260  0.7940 -0.9053
  202MOL0     H27857  10.444   1.122  10.235  0.9994 -0.6847  1.3915
  202MOL0     H27858  10.069   1.405  10.197  0.4281 -0.5331 -1.2987
  202MOL0     H27859   9.846   1.469  10.245 -0.8817 -0.4814 -2.0588
  202MOL0     H27860   8.614   1.667   9.711  1.1726  0.0243 -0.1610
  202MOL0     H27861   8.764   1.744   9.532  0.7062  0.8347  1.8081
  202MOL0     H27862   9.225   1.660   9.244  0.0153 -4.7178 -2.1370
  202MOL0     H27863   9.308   1.749   9.027  0.9410  3.6760  0.0919
  202MOL0     H27864   9.024   1.982   8.783 -0.6863  2.0478 -2.0217
  202MOL0     H27865   9.176   2.081   8.796  1.1601 -1.0274 -1.7066
  202MOL0     H27866   9.077   1.986   8.567 -0.8107 -0.1653  0.9431
  202MOL0     H27867   9.175   1.851   8.614  0.5637  0.5118 -2.9777
  202MOL0     H27868   9.306   1.965   8.469  2.4664  3.7535 -0.4020
  202MOL0     H27869   9.279   2.120   8.536 -0.8582 -0.3024 -0.3488
  202MOL0     H27870   9.429   1.883   8.694 -2.2707 -0.5024 -0.9953
  202MOL0     H27871   9.403   2.052   8.746  1.4749 -1.0657  1.0156
  202MOL0     H27872   9.720   2.174   8.532 -0.2972  0.1720 -2.1786
  202MOL0     H27873   8.927   1.938   8.972 -0.4050 -0.0887  1.8960
  202MOL0     H27874   8.784   1.969   9.169 -0.6145  0.3601 -1.5110
  202MOL0     H27875   8.744   1.790   9.144 -1.3554  1.7518  0.1884
  202MOL0     H27876   8.802   1.857   9.301 -1.4583 -0.6176  0.5024
  203MOL0     O27877  11.176   6.582  11.355  0.0261 -0.2869 -0.4256
  203MOL0     C27878  11.182   6.472  11.320 -0.7831  0.7794 -0.5970
  203MOL0     O27879  11.294   6.398  11.334  0.3086  0.3582  0.3568
  203MOL0     C27880  11.409   6.452  11.393  0.0219 -0.4955  0.1677
  203MOL0     C27881  11.418   6.464  11.531  0.0639 -0.2338 -0.1328
  203MOL0     C27882  11.545   6.498  11.588 -0.9224 -0.3717  0.1000
  203MOL0     C27883  11.658   6.515  11.514 -0.1560  0.6517  0.3848
  203MOL0     O27884  11.773   6.543  11.575  0.6800  0.8265 -0.0747
  203MOL0     C27885  11.902   6.565  11.512  0.4108  0.3831 -0.0798
  203MOL0     C27886  12.020   6.534  11.610  0.0746  0.5945 -0.7973
  203MOL0     C27887  12.034   6.633  11.728  0.8115  0.7655 -0.6763
  203MOL0     C27888  12.030   6.780  11.692  0.0563 -1.2532 -0.7404
  203MOL0     C27889  12.076   6.865  11.813 -0.4952 -0.5906 -0.3802
  203MOL0     C27890  11.982   6.867  11.940 -0.4280 -0.1319  0.3575
  203MOL0     C27891  11.992   6.998  12.019 -0.3173  0.2812  0.0070
  203MOL0     C27892  11.880   7.007  12.116  0.3974 -0.5455  0.0279
  203MOL0     N27893  11.870   7.137  12.177  0.0864  0.2283  0.3383
  203MOL0     C27894  11.963   7.243  12.175  0.1937 -0.6171 -0.3863
  203MOL0     C27895  11.928   7.329  12.270 -0.9465 -0.0811 -0.7563
  203MOL0     C27896  11.987   7.463  12.299  0.3544  0.0448 -0.5788
  203MOL0     C27897  12.000   7.561  12.174  0.3850 -0.2058  0.0743
  203MOL0     C27898  11.877   7.594  12.092  0.1482  0.1947  0.3334
  203MOL0     C27899  11.895   7.659  11.956  2.3662  0.1613 -0.8008
  203MOL0     O27900  11.986   7.763  11.945  0.4185  0.1197  1.1320
  203MOL0     C27901  12.039   7.793  11.822 -0.8042 -0.3759  0.1710
  203MOL0     C27902  12.065   7.928  11.786  0.5979 -0.4471 -0.5260
  203MOL0     C27903  12.106   7.973  11.665 -0.5810  0.1106  0.3560
  203MOL0     C27904  12.121   8.123  11.644 -0.1357 -0.2474 -0.2745
  203MOL0     C27905  12.121   7.881  11.557  0.3782  0.8044 -0.4899
  203MOL0     C27906  12.161   7.914  11.424  0.1765 -1.0951  0.2450
  203MOL0     O27907  12.099   7.847  11.328  0.4408  0.1349  0.1801
  203MOL0     C27908  12.083   7.912  11.206  0.9427 -0.5403  0.2959
  203MOL0     C27909  12.134   7.865  11.084  0.1199  0.2642  0.0565
  203MOL0     C27910  12.117   7.932  10.965  0.6728  0.0419 -0.9030
  203MOL0     C27911  12.050   8.057  10.964 -0.0433 -0.5512  0.8512
  203MOL0     O27912  12.039   8.124  10.845  0.6584 -0.7491  0.5251
  203MOL0     C27913  11.972   8.250  10.829  0.0575 -0.1611 -0.3194
  203MOL0     C27914  12.032   8.323  10.704 -0.1317 -0.5229 -0.2086
  203MOL0     C27915  12.175   8.365  10.729  0.1417  0.4382 -0.3069
  203MOL0     C27916  12.240   8.426  10.606  0.5414  0.6695 -0.0015
  203MOL0     C27917  12.377   8.478  10.626  0.1879 -0.2831 -0.5233
  203MOL0     C27918  12.444   8.501  10.492 -0.1776  0.4932  0.1128
  203MOL0     C27919  12.388   8.626  10.416  0.9496 -0.0364 -0.1973
  203MOL0     C27920  12.424   8.760  10.487 -0.0608  1.1504  0.5695
  203MOL0    Cl27921  12.601   8.830  10.461  0.5161  0.5008  0.0095
  203MOL0     C27922  11.980   8.109  11.077  0.3685 -0.7868  0.4416
  203MOL0     C27923  12.000   8.033  11.197  0.0264 -0.1893  0.9523
  203MOL0     O27924  12.256   7.990  11.410  0.1786  0.4026  0.3084
  203MOL0     C27925  12.086   7.744  11.583 -0.6121 -0.3274 -0.2413
  203MOL0     C27926  12.050   7.701  11.715 -0.0434  0.6628  0.2922
  203MOL0     N27927  11.819   7.278  12.332  1.0299  0.1419 -0.2060
  203MOL0     N27928  11.788   7.169  12.283 -0.1696 -0.0469  1.0494
  203MOL0     C27929  11.646   6.494  11.373 -0.3157  0.2259 -0.5378
  203MOL0     C27930  11.527   6.458  11.316 -0.6924 -0.4567  0.1636
  203MOL0     C27931  11.060   6.395  11.263 -1.2498  0.1823 -0.2420
  203MOL0     C27932  11.054   6.250  11.272  0.2543  0.1404 -0.8410
  203MOL0     C27933  10.931   6.180  11.246  0.1445 -0.2851  0.1274
  203MOL0     C27934  10.826   6.250  11.190  0.5312 -0.0222  0.6500
  203MOL0     O27935  10.714   6.173  11.163 -0.4694  0.8176 -0.1384
  203MOL0     C27936  10.615   6.220  11.066 -0.3552 -0.3395  0.0624
  203MOL0     C27937  10.645   6.175  10.929  0.6452  0.0861  0.1536
  203MOL0     C27938  10.524   6.220  10.835  0.3662  0.2148  0.0137
  203MOL0     C27939  10.555   6.197  10.687  0.0523 -0.6572 -0.2362
  203MOL0     C27940  10.672   6.273  10.648 -0.0036  0.4444  0.8001
  203MOL0     C27941  10.764   6.344  10.613  0.2341 -0.3674 -0.1973
  203MOL0     C27942  10.835   6.391  11.163  0.0444 -0.7879 -0.9293
  203MOL0     C27943  10.954   6.463  11.204  0.4516 -0.4973 -0.6644
  203MOL0     C27944  10.956   6.618  11.186 -1.0166 -0.8518  0.1293
  203MOL0     H27945  11.332   6.450  11.595 -0.5424  3.8634  0.2163
  203MOL0     H27946  11.548   6.520  11.695 -1.0230 -0.4046  0.1100
  203MOL0     H27947  11.911   6.667  11.475 -3.6280  0.5478 -1.0714
  203MOL0     H27948  11.911   6.491  11.432 -4.8311  0.2029 -0.8813
  203MOL0     H27949  12.004   6.431  11.642 -0.7452  0.8335 -0.4272
  203MOL0     H27950  12.115   6.525  11.556 -0.1436 -2.3593 -0.8606
  203MOL0     H27951  11.975   6.617  11.819  0.3891  1.3248 -0.8458
  203MOL0     H27952  12.135   6.611  11.763 -0.5160 -1.5773  2.1903
  203MOL0     H27953  12.086   6.812  11.604 -0.0534 -0.6766 -0.6090
  203MOL0     H27954  11.929   6.807  11.661  0.3124  1.4802  0.4758
  203MOL0     H27955  12.082   6.967  11.773  0.3928 -1.3771 -2.3568
  203MOL0     H27956  12.173   6.833  11.853 -2.0439 -0.2648  4.3359
  203MOL0     H27957  11.878   6.849  11.909  0.1647 -0.4862 -1.5963
  203MOL0     H27958  12.014   6.785  12.005  1.2899  0.9056  0.8861
  203MOL0     H27959  11.984   7.082  11.949  3.4683  0.4990 -0.3946
  203MOL0     H27960  12.095   6.996  12.055  0.5922 -1.0010 -2.4366
  203MOL0     H27961  11.785   6.976  12.071  0.4741  2.1562 -2.2755
  203MOL0     H27962  11.891   6.936  12.199 -2.2454 -1.3167 -0.1833
  203MOL0     H27963  12.045   7.261  12.107  0.3934  0.2534  0.0820
  203MOL0     H27964  12.077   7.444  12.359 -1.6079 -2.7243  1.8228
  203MOL0     H27965  11.923   7.521  12.366  0.6073 -1.2726  0.8579
  203MOL0     H27966  12.045   7.656  12.204  1.5398 -0.7774  0.2166
  203MOL0     H27967  12.069   7.512  12.103 -0.1783  0.6792 -1.1229
  203MOL0     H27968  11.834   7.495  12.075  0.5645 -0.0725  0.7887
  203MOL0     H27969  11.808   7.658  12.147 -0.1221 -0.5100  0.8343
  203MOL0     H27970  11.923   7.571  11.898 -0.7970 -2.8146  1.6772
  203MOL0     H27971  11.801   7.701  11.919  0.5454 -0.5685  2.5385
  203MOL0     H27972  12.056   8.005  11.862  2.5884 -1.7418  1.1148
  203MOL0     H27973  12.202   8.172  11.700  0.8372  0.9249 -2.5702
  203MOL0     H27974  12.032   8.179  11.672  0.7053 -0.7241  4.0267
  203MOL0     H27975  12.145   8.144  11.539  2.0515  3.2030  0.7413
  203MOL0     H27976  12.183   7.769  11.076  0.0298  0.3540 -2.0553
  203MOL0     H27977  12.158   7.901  10.870 -2.1011 -0.9399 -1.8707
  203MOL0     H27978  11.862   8.251  10.826 -0.1960 -1.9796  3.1662
  203MOL0     H27979  12.002   8.317  10.910  0.7731  0.2133 -0.8771
  203MOL0     H27980  12.036   8.250  10.623  3.4912 -1.6009  0.7577
  203MOL0     H27981  11.974   8.409  10.669  0.9570  0.9673  1.4730
  203MOL0     H27982  12.242   8.285  10.761 -0.9163  0.5038  2.3124
  203MOL0     H27983  12.183   8.431  10.816 -1.6497 -1.2793  1.2653
  203MOL0     H27984  12.176   8.503  10.561  1.4799  5.0418  5.1066
  203MOL0     H27985  12.248   8.340  10.540  0.8924 -0.7067  1.7663
  203MOL0     H27986  12.375   8.568  10.688 -2.3781  1.6932 -3.1762
  203MOL0     H27987  12.434   8.399  10.675  0.1627 -0.6927 -1.1411
  203MOL0     H27988  12.421   8.411  10.435 -2.2543  0.8187  0.3798
  203MOL0     H27989  12.552   8.515  10.509 -0.6966  2.1984  2.6417
  203MOL0     H27990  12.280   8.624  10.397  0.7826  2.2728  0.1680
  203MOL0     H27991  12.427   8.641  10.315  0.8811  2.0009  0.0377
  203MOL0     H27992  12.405   8.755  10.595  0.9449  3.5098  0.9259
  203MOL0     H27993  12.350   8.834  10.454 -0.3862  0.7193  0.3278
  203MOL0     H27994  11.924   8.201  11.085  0.1957 -0.8837  0.3479
  203MOL0     H27995  11.951   8.068  11.287 -0.0831  3.1854 -0.2611
  203MOL0     H27996  12.107   7.672  11.505  0.9520 -0.4718  0.2763
  203MOL0     H27997  12.020   7.597  11.725  0.8156  0.3908  0.1054
  203MOL0     H27998  11.731   6.497  11.306 -0.9882 -3.4923 -1.8224
  203MOL0     H27999  11.510   6.453  11.209 -1.7270  0.0916  0.2810
  203MOL0     H28000  11.133   6.206  11.332 -2.6641 -1.9719  1.7953
  203MOL0     H28001  10.926   6.073  11.261  2.9445 -0.7370 -1.4978
  203MOL0     H28002  10.514   6.189  11.095 -1.2042  1.4073 -0.9070
  203MOL0     H28003  10.602   6.328  11.068  1.2926 -0.0623 -1.7448
  203MOL0     H28004  10.646   6.066  10.930  1.9436 -0.1102 -3.9573
  203MOL0     H28005  10.736   6.232  10.906  0.2855  0.8385  0.5345
  203MOL0     H28006  10.427   6.177  10.861  0.2595  0.7113  0.4704
  203MOL0     H28007  10.519   6.328  10.853 -0.1972 -0.3728  4.8450
  203MOL0     H28008  10.474   6.229  10.622 -0.3422 -1.5296 -0.1931
  203MOL0     H28009  10.571   6.092  10.660  0.5078 -0.1646 -2.0171
  203MOL0     H28010  10.847   6.405  10.584  1.0571 -0.2673  2.1372
  203MOL0     H28011  10.758   6.453  11.117  0.7132  2.1769  1.6059
  203MOL0     H28012  10.889   6.647  11.105  0.6882  3.0519 -0.1351
  203MOL0     H28013  10.916   6.679  11.268  0.9605  1.6814 -0.6303
  203MOL0     H28014  11.058   6.653  11.165  0.6242 -4.1436  1.8392
  204MOL0     O28015  10.365   8.883   2.488  0.0786  0.0658  0.2168
  204MOL0     C28016  10.319   8.920   2.595  0.1448 -0.3691 -0.0893
  204MOL0     O28017  10.350   8.873   2.719 -0.1426  0.3122 -1.0671
  204MOL0     C28018  10.465   8.792   2.736  0.4807  1.2808  0.9614
  204MOL0     C28019  10.575   8.836   2.802 -0.0964 -0.8137 -0.0377
  204MOL0     C28020  10.677   8.749   2.844  0.8112  0.4534  0.0098
  204MOL0     C28021  10.675   8.614   2.800 -0.0476 -0.0960 -0.2885
  204MOL0     O28022  10.772   8.515   2.814 -0.3192 -0.0383  0.0492
  204MOL0     C28023  10.876   8.549   2.905  1.2191 -0.2958  0.4963
  204MOL0     C28024  10.976   8.436   2.933 -0.4867 -0.4606  0.0784
  204MOL0     C28025  11.097   8.495   3.000 -0.4219  0.4173 -0.2243
  204MOL0     C28026  11.218   8.400   3.000  0.5116 -0.5155 -0.0632
  204MOL0     C28027  11.305   8.435   3.121  0.7328 -0.7677 -0.0331
  204MOL0     C28028  11.431   8.347   3.115 -0.4729 -0.2835  0.6458
  204MOL0     C28029  11.409   8.211   3.182  0.5184 -0.5873 -1.0369
  204MOL0     C28030  11.535   8.121   3.155 -0.2256 -0.5014  0.4533
  204MOL0     N28031  11.673   8.146   3.217  0.3615  0.7378 -0.1935
  204MOL0     C28032  11.750   8.255   3.200 -1.1048  0.8259 -0.5716
  204MOL0     C28033  11.873   8.219   3.244  0.2037 -0.8556 -0.2265
  204MOL0     C28034  11.992   8.304   3.267  0.0059 -1.2498 -0.3623
  204MOL0     C28035  11.967   8.438   3.341 -0.1695 -0.8483 -1.3066
  204MOL0     C28036  12.090   8.532   3.351 -0.1875 -0.0621 -0.0201
  204MOL0     C28037  12.039   8.659   3.412  0.0281 -0.6911 -0.5082
  204MOL0     O28038  11.951   8.732   3.338  0.2628 -0.0300 -0.2535
  204MOL0     C28039  11.970   8.868   3.329 -0.2974  0.5969 -0.3238
  204MOL0     C28040  12.096   8.923   3.302 -0.0217 -0.0375  0.5539
  204MOL0     C28041  12.119   9.060   3.316  0.1765 -1.0046  0.4335
  204MOL0     C28042  12.260   9.114   3.329  0.3705  0.1084  0.6993
  204MOL0     C28043  12.009   9.147   3.339  0.3894  0.1349  0.5277
  204MOL0     C28044  12.009   9.299   3.340 -0.7276 -0.8675  0.5012
  204MOL0     O28045  11.903   9.360   3.395 -0.0438 -0.2580 -0.5873
  204MOL0     C28046  11.892   9.490   3.425  0.6839  0.0280 -0.6402
  204MOL0     C28047  11.764   9.530   3.460  0.5047  0.4891  0.4603
  204MOL0     C28048  11.737   9.663   3.501  1.0647 -0.1415  0.0426
  204MOL0     C28049  11.842   9.750   3.516  0.4360 -0.5500 -0.8367
  204MOL0     O28050  11.815   9.873   3.571 -0.5052  0.1592 -0.6019
  204MOL0     C28051  11.710   9.954   3.524  0.8911  0.1032 -0.1704
  204MOL0     C28052  11.701  10.095   3.583  0.0715  0.1711  0.5237
  204MOL0     C28053  11.837  10.169   3.614  0.6854  0.3123  0.3589
  204MOL0     C28054  11.922  10.175   3.489 -0.2985  0.6264  1.0421
  204MOL0     C28055  11.861  10.258   3.365  0.5462  0.5542  0.0036
  204MOL0     C28056  11.959  10.230   3.244 -0.9912 -0.5490  0.0294
  204MOL0     C28057  12.060  10.342   3.220  0.1634 -0.4346 -0.2007
  204MOL0     C28058  12.151  10.302   3.108 -0.3754 -0.4382 -0.5661
  204MOL0    Cl28059  12.061  10.283   2.951  0.1439  0.3971 -0.5749
  204MOL0     C28060  11.973   9.719   3.494 -0.0032  0.2755  0.2699
  204MOL0     C28061  12.003   9.584   3.446 -0.1067 -0.1322 -0.3279
  204MOL0     O28062  12.108   9.358   3.304 -0.1176 -0.0872  0.4190
  204MOL0     C28063  11.881   9.085   3.371  0.0511 -0.1252  0.6630
  204MOL0     C28064  11.870   8.946   3.367 -0.7557  0.2309  0.0447
  204MOL0     N28065  11.869   8.087   3.275  0.5492  0.6807  0.5099
  204MOL0     N28066  11.754   8.049   3.243  0.5220  0.0161 -0.2034
  204MOL0     C28067  10.573   8.573   2.726  0.1058 -0.2905 -0.5965
  204MOL0     C28068  10.470   8.658   2.694  0.8849 -0.3387 -0.8301
  204MOL0     C28069  10.203   9.015   2.578 -0.2515 -0.6592  0.1315
  204MOL0     C28070  10.109   8.992   2.480  0.0253 -0.6334  0.2591
  204MOL0     C28071  10.003   9.081   2.454 -0.7904  0.1652  0.1692
  204MOL0     C28072   9.993   9.197   2.518  0.0282 -0.3061  0.6006
  204MOL0     O28073   9.880   9.278   2.492 -0.3390 -0.3180  0.1445
  204MOL0     C28074   9.860   9.388   2.578  0.1168  0.2071 -0.7209
  204MOL0     C28075   9.828   9.346   2.729  0.4606  0.1868  0.3155
  204MOL0     C28076   9.755   9.448   2.809 -0.5116 -0.9594  0.8897
  204MOL0     C28077   9.620   9.496   2.764  0.3036 -0.7867 -0.5203
  204MOL0     C28078   9.519   9.408   2.816  0.9440  0.3807 -0.5450
  204MOL0     C28079   9.433   9.328   2.843  0.6055  0.0778 -1.1040
  204MOL0     C28080  10.087   9.233   2.617 -0.1828  0.5889  0.1845
  204MOL0     C28081  10.193   9.139   2.640  0.7853 -0.0403 -0.5147
  204MOL0     C28082  10.291   9.185   2.743  0.3151  0.0026  0.1219
  204MOL0     H28083  10.582   8.936   2.843  0.6674 -0.8076 -0.1604
  204MOL0     H28084  10.767   8.776   2.899  2.1986 -1.2705 -1.2950
  204MOL0     H28085  10.846   8.598   2.998  2.3149 -0.6746  1.0710
  204MOL0     H28086  10.937   8.624   2.854  2.1917  0.4072  2.5563
  204MOL0     H28087  10.936   8.360   3.000  0.2986 -0.2328  0.8238
  204MOL0     H28088  11.005   8.394   2.837  1.6324 -1.3365  1.0335
  204MOL0     H28089  11.123   8.585   2.943 -2.4916  0.2366 -1.5357
  204MOL0     H28090  11.072   8.523   3.103  0.4226 -2.0990  0.7396
  204MOL0     H28091  11.185   8.296   3.012  0.9573 -0.6757 -0.2118
  204MOL0     H28092  11.274   8.420   2.908 -0.4220  3.6987  0.0821
  204MOL0     H28093  11.242   8.416   3.209  0.2725  2.8519  0.6029
  204MOL0     H28094  11.323   8.543   3.119 -0.7827 -0.4382  1.6879
  204MOL0     H28095  11.463   8.345   3.010 -1.0134 -0.6431  0.4812
  204MOL0     H28096  11.504   8.387   3.186  1.7954 -2.3841 -0.3434
  204MOL0     H28097  11.320   8.157   3.146  0.0408 -0.2866 -0.3311
  204MOL0     H28098  11.391   8.231   3.288  2.0255 -0.5981 -0.7637
  204MOL0     H28099  11.512   8.018   3.183 -1.6542 -1.1740 -2.7333
  204MOL0     H28100  11.549   8.109   3.047 -1.5131 -0.3673  0.2581
  204MOL0     H28101  11.710   8.349   3.163  0.6732  1.4623 -0.9857
  204MOL0     H28102  12.034   8.334   3.170 -0.4159  2.7199  0.5386
  204MOL0     H28103  12.074   8.244   3.308  4.4109  2.6064 -2.5696
  204MOL0     H28104  11.888   8.504   3.304 -0.6470  3.1061  5.2225
  204MOL0     H28105  11.937   8.406   3.441 -0.7282 -0.3297 -1.3021
  204MOL0     H28106  12.173   8.493   3.409 -0.0330 -0.5826 -0.5784
  204MOL0     H28107  12.122   8.562   3.251 -0.3954  1.6666  0.4066
  204MOL0     H28108  11.999   8.641   3.512 -0.3218  2.5693  0.0736
  204MOL0     H28109  12.134   8.713   3.425  0.2063  0.3033 -4.6340
  204MOL0     H28110  12.178   8.853   3.289  0.8246  0.5576  2.2504
  204MOL0     H28111  12.272   9.183   3.245  1.6392  1.1021  1.6703
  204MOL0     H28112  12.329   9.029   3.324 -0.4656 -0.5171 -1.1333
  204MOL0     H28113  12.273   9.172   3.420  2.2424  0.0684  0.5038
  204MOL0     H28114  11.688   9.453   3.467  0.3403  0.7784  2.0771
  204MOL0     H28115  11.638   9.694   3.535  1.0704 -0.5683  0.4628
  204MOL0     H28116  11.708   9.961   3.415 -0.6501 -1.7824 -0.3116
  204MOL0     H28117  11.614   9.906   3.547  1.8944 -2.0198 -0.1042
  204MOL0     H28118  11.643  10.168   3.526  1.2168  1.4883  1.0051
  204MOL0     H28119  11.651  10.079   3.679 -1.8475 -0.0642 -0.4740
  204MOL0     H28120  11.886  10.111   3.692 -0.0376  1.9204  2.0998
  204MOL0     H28121  11.821  10.268   3.658 -1.6111 -0.3214  1.1167
  204MOL0     H28122  11.950  10.076   3.450 -1.3431  1.4013 -1.9311
  204MOL0     H28123  12.019  10.223   3.505  0.0075  0.6222 -0.5898
  204MOL0     H28124  11.762  10.217   3.342  0.5127  2.8185 -5.7616
  204MOL0     H28125  11.834  10.364   3.376 -3.5119 -0.4693  1.9085
  204MOL0     H28126  11.893  10.198   3.163  2.0959 -4.7693 -1.1492
  204MOL0     H28127  12.014  10.137   3.256  3.3720  1.7148 -0.2891
  204MOL0     H28128  12.120  10.357   3.310  2.0487  3.5635 -1.8652
  204MOL0     H28129  12.009  10.437   3.203  0.3506 -0.2463  0.2659
  204MOL0     H28130  12.200  10.205   3.120  1.6889  0.5840 -0.3186
  204MOL0     H28131  12.235  10.372   3.102 -0.9061  0.1003 -3.1412
  204MOL0     H28132  12.051   9.792   3.512  2.3836 -1.8803 -0.6541
  204MOL0     H28133  12.108   9.559   3.433 -0.1812 -0.2892 -0.6412
  204MOL0     H28134  11.800   9.156   3.384  0.0377  0.5726 -2.4979
  204MOL0     H28135  11.776   8.898   3.393  0.0633 -1.9755 -0.8770
  204MOL0     H28136  10.581   8.471   2.692 -0.8484  0.4000 -3.0727
  204MOL0     H28137  10.387   8.603   2.651  1.3908 -1.7890 -0.0341
  204MOL0     H28138  10.121   8.906   2.414  0.0391  1.4770 -2.6900
  204MOL0     H28139   9.935   9.064   2.370 -0.6084  1.2623 -0.2129
  204MOL0     H28140   9.948   9.454   2.579 -0.0028  0.4049  1.2025
  204MOL0     H28141   9.780   9.452   2.539  0.5447  0.9591 -0.3873
  204MOL0     H28142   9.924   9.331   2.780  0.3914 -0.9819  0.1392
  204MOL0     H28143   9.782   9.247   2.730 -0.0443  0.3211 -2.5304
  204MOL0     H28144   9.745   9.423   2.915 -3.2886 -1.0283  0.6699
  204MOL0     H28145   9.827   9.531   2.809 -1.6870  0.0970 -0.2181
  204MOL0     H28146   9.610   9.498   2.655 -0.6587 -2.1303 -0.4902
  204MOL0     H28147   9.597   9.594   2.807 -1.9448 -1.2249 -0.5964
  204MOL0     H28148   9.346   9.267   2.859 -0.3343  1.4940 -0.6486
  204MOL0     H28149  10.093   9.323   2.678 -2.3834 -1.3596  3.6074
  204MOL0     H28150  10.336   9.097   2.789 -0.7139  0.3109  1.7913
  204MOL0     H28151  10.357   9.249   2.684  0.8518 -0.7458 -0.0988
  204MOL0     H28152  10.243   9.252   2.814 -1.9762 -1.0800 -0.3121
  205MOL0     O28153   2.426   8.296   8.469 -0.6391 -0.1574  0.4962
  205MOL0     C28154   2.401   8.321   8.355  0.0716  0.0168 -0.8881
  205MOL0     O28155   2.341   8.438   8.309  0.2497  0.9543 -0.4292
  205MOL0     C28156   2.278   8.538   8.390 -1.1089  0.2722 -0.2076
  205MOL0     C28157   2.285   8.670   8.346  0.4508 -0.0096 -0.0850
  205MOL0     C28158   2.240   8.777   8.427  0.1128 -0.6070  0.4855
  205MOL0     C28159   2.171   8.750   8.546 -0.0914 -0.0430  0.2965
  205MOL0     O28160   2.132   8.853   8.626 -0.0495  0.0647 -0.3181
  205MOL0     C28161   2.240   8.935   8.670  0.2938  0.1745  0.3674
  205MOL0     C28162   2.198   9.011   8.804  0.0844 -0.5764  0.4189
  205MOL0     C28163   2.149   8.918   8.911 -0.7646  0.9200 -0.6267
  205MOL0     C28164   2.155   8.988   9.047  1.0534  0.3769 -0.0246
  205MOL0     C28165   2.083   8.911   9.168  1.0939  0.3212  0.7644
  205MOL0     C28166   2.147   8.774   9.182 -0.1797 -0.1430 -0.4722
  205MOL0     C28167   2.107   8.689   9.308  0.0732 -0.6333  0.5892
  205MOL0     C28168   1.958   8.670   9.314 -0.2666 -1.0821 -0.4737
  205MOL0     N28169   1.909   8.609   9.192  0.0365 -0.2437  0.0944
  205MOL0     C28170   1.851   8.668   9.080  0.6225  0.4709  0.0708
  205MOL0     C28171   1.828   8.560   8.992  0.2155 -0.0039 -0.3039
  205MOL0     C28172   1.767   8.564   8.858  0.2236  0.3436 -0.0640
  205MOL0     C28173   1.764   8.693   8.781 -0.1092 -0.1910  0.6365
  205MOL0     C28174   1.681   8.693   8.651  0.1820  0.1798  0.2280
  205MOL0     C28175   1.710   8.816   8.575  0.3667  0.1826  0.4568
  205MOL0     O28176   1.744   8.934   8.656  1.1182 -0.7357 -0.0259
  205MOL0     C28177   1.635   9.019   8.665  0.2068 -0.0754 -0.5641
  205MOL0     C28178   1.569   9.036   8.790 -1.1066  0.3341  0.5248
  205MOL0     C28179   1.459   9.125   8.803  0.1161  0.4709 -0.2021
  205MOL0     C28180   1.389   9.114   8.937 -0.9873  0.0548 -0.0687
  205MOL0     C28181   1.403   9.191   8.688 -0.0913  0.3062 -0.6531
  205MOL0     C28182   1.272   9.258   8.679 -0.4138  0.5388  0.1399
  205MOL0     O28183   1.226   9.315   8.792 -0.0477 -0.1396  0.4581
  205MOL0     C28184   1.097   9.339   8.816  1.0165  0.1076 -0.5479
  205MOL0     C28185   1.012   9.238   8.864  0.0750 -0.2618  0.4980
  205MOL0     C28186   0.873   9.250   8.863 -0.2936 -0.3120 -0.1119
  205MOL0     C28187   0.817   9.376   8.836  0.0565  0.5849  0.1981
  205MOL0     O28188   0.682   9.382   8.836  0.0619 -0.5082 -0.2181
  205MOL0     C28189   0.617   9.420   8.714 -0.4384  0.0041  0.2967
  205MOL0     C28190   0.471   9.390   8.720 -0.2549 -0.0560 -0.8951
  205MOL0     C28191   0.438   9.243   8.752 -0.1199  0.0010  0.4487
  205MOL0     C28192   0.285   9.225   8.792 -0.5013 -0.5467 -0.7363
  205MOL0     C28193   0.250   9.085   8.821  0.1159 -0.0893  0.3053
  205MOL0     C28194   0.107   9.072   8.873  0.6412 -0.2144 -0.1692
  205MOL0     C28195   0.098   8.945   8.952 -0.2879  0.7675 -0.1215
  205MOL0     C28196  -0.037   8.916   9.017  0.2765  0.4580  0.0462
  205MOL0    Cl28197  -0.094   9.030   9.133  0.8287  0.2956  0.0684
  205MOL0     C28198   0.897   9.480   8.796 -0.1407  1.2674  0.1295
  205MOL0     C28199   1.037   9.463   8.787 -0.0118  0.0323 -0.1488
  205MOL0     O28200   1.206   9.233   8.576  0.0459 -0.5613 -0.4602
  205MOL0     C28201   1.479   9.182   8.576 -0.2600 -0.1881 -0.2656
  205MOL0     C28202   1.595   9.102   8.560  0.0359 -0.1751 -0.2231
  205MOL0     N28203   1.880   8.449   9.055  0.7317  0.3605 -0.1310
  205MOL0     N28204   1.925   8.477   9.173  1.2640 -0.6571  1.1778
  205MOL0     C28205   2.156   8.616   8.587  0.1934 -0.4698  0.7909
  205MOL0     C28206   2.215   8.517   8.510 -0.3410  0.5659  0.0900
  205MOL0     C28207   2.450   8.222   8.252 -0.9788 -1.0357  0.2009
  205MOL0     C28208   2.408   8.260   8.121  0.4841 -0.5229 -0.8225
  205MOL0     C28209   2.443   8.180   8.015  0.3689  0.9317 -0.3459
  205MOL0     C28210   2.509   8.055   8.037 -0.0990 -0.6444  0.2633
  205MOL0     O28211   2.529   7.971   7.935 -0.5826 -0.2475 -0.0342
  205MOL0     C28212   2.631   7.876   7.919  0.3022 -0.3836  0.7011
  205MOL0     C28213   2.626   7.850   7.769  0.4574  0.6072  0.9504
  205MOL0     C28214   2.517   7.737   7.741 -1.0769 -0.6304  0.4201
  205MOL0     C28215   2.548   7.597   7.805 -0.2161  0.1401 -0.7755
  205MOL0     C28216   2.443   7.497   7.768 -0.1610 -0.8998 -0.2101
  205MOL0     C28217   2.357   7.420   7.752 -0.6175  0.0056 -0.7188
  205MOL0     C28218   2.547   8.021   8.168  0.5290  0.3997 -0.0652
  205MOL0     C28219   2.523   8.109   8.275 -0.6754 -0.1942  0.5224
  205MOL0     C28220   2.590   8.081   8.404  0.4938 -0.7009  0.0317
  205MOL0     H28221   2.325   8.679   8.245 -0.4887  1.1104 -0.3808
  205MOL0     H28222   2.260   8.878   8.394  0.1521 -0.0541  2.0899
  205MOL0     H28223   2.260   9.014   8.596 -2.7628  1.9257  1.2348
  205MOL0     H28224   2.332   8.879   8.688  0.1235  0.3481  1.8762
  205MOL0     H28225   2.284   9.073   8.830  0.7156 -1.9134  1.6768
  205MOL0     H28226   2.119   9.084   8.785  0.6259 -0.2022 -0.4974
  205MOL0     H28227   2.055   8.870   8.886 -0.3733 -0.6076  0.6455
  205MOL0     H28228   2.232   8.846   8.911 -0.5359  1.0779 -3.6406
  205MOL0     H28229   2.254   9.017   9.086  0.6978  4.7372 -1.8291
  205MOL0     H28230   2.107   9.084   9.028  0.5501 -0.1147 -1.2867
  205MOL0     H28231   1.978   8.898   9.142  0.3433  2.3844  2.4518
  205MOL0     H28232   2.084   8.973   9.258  0.1046  0.2232  0.8479
  205MOL0     H28233   2.132   8.726   9.085 -0.0339  0.0845 -0.6106
  205MOL0     H28234   2.255   8.780   9.192 -0.0604  0.2719 -1.7895
  205MOL0     H28235   2.138   8.745   9.397 -0.0303  1.0088 -0.3707
  205MOL0     H28236   2.162   8.595   9.306  0.9975 -0.0933 -0.4960
  205MOL0     H28237   1.937   8.604   9.399 -1.2435 -2.0814 -1.4426
  205MOL0     H28238   1.903   8.763   9.332 -0.2222 -1.3299  1.0903
  205MOL0     H28239   1.812   8.767   9.060 -0.0101 -0.2191 -2.3571
  205MOL0     H28240   1.660   8.541   8.868  0.6880 -2.4188 -0.7083
  205MOL0     H28241   1.811   8.479   8.805 -1.9455 -2.6152  2.5160
  205MOL0     H28242   1.719   8.765   8.849  1.3402  0.0440  1.3641
  205MOL0     H28243   1.866   8.723   8.755 -0.3241  0.0480  0.0475
  205MOL0     H28244   1.699   8.609   8.584  3.7755  1.3040 -0.4411
  205MOL0     H28245   1.574   8.700   8.671 -0.0374  1.9925 -1.2945
  205MOL0     H28246   1.788   8.788   8.504  0.6418 -0.5832  1.0502
  205MOL0     H28247   1.622   8.827   8.511  1.8810 -1.1675 -1.9835
  205MOL0     H28248   1.600   8.989   8.883 -1.6414  0.0648  0.5697
  205MOL0     H28249   1.454   9.075   9.016  1.9465 -0.7849 -2.7081
  205MOL0     H28250   1.303   9.050   8.914  1.2602 -2.9233 -0.7296
  205MOL0     H28251   1.351   9.207   8.981  2.1978 -0.0390  3.3760
  205MOL0     H28252   1.047   9.140   8.894 -0.2347 -0.5978 -0.2325
  205MOL0     H28253   0.809   9.166   8.889  0.8685 -1.4393 -0.7958
  205MOL0     H28254   0.620   9.525   8.685 -0.6802 -0.1881 -0.4393
  205MOL0     H28255   0.672   9.359   8.642  1.9903  1.0695  1.1191
  205MOL0     H28256   0.425   9.456   8.794  0.6365 -2.4585  1.9887
  205MOL0     H28257   0.431   9.414   8.621  1.7294 -0.4996 -1.8680
  205MOL0     H28258   0.499   9.203   8.834  0.6716 -1.2960 -0.7151
  205MOL0     H28259   0.471   9.183   8.666  0.3080  0.5736  0.2047
  205MOL0     H28260   0.228   9.270   8.710 -0.0681 -1.2253 -1.4286
  205MOL0     H28261   0.268   9.294   8.874 -0.6497 -0.3720 -0.9131
  205MOL0     H28262   0.266   9.037   8.724  1.8693 -0.9959  0.9924
  205MOL0     H28263   0.322   9.038   8.888 -0.3797  0.4591  1.2448
  205MOL0     H28264   0.041   9.065   8.786  2.8445  1.7596 -2.1697
  205MOL0     H28265   0.084   9.161   8.932 -1.0800  1.5465 -3.2606
  205MOL0     H28266   0.179   8.944   9.026 -1.5263 -0.5201  1.2832
  205MOL0     H28267   0.117   8.863   8.883 -0.1275 -0.1271  0.9479
  205MOL0     H28268  -0.017   8.820   9.066 -0.6699  0.4452  0.4309
  205MOL0     H28269  -0.113   8.916   8.938  0.1275  1.8970  0.1793
  205MOL0     H28270   0.864   9.571   8.746  2.2649  0.6734 -2.8725
  205MOL0     H28271   1.120   9.529   8.761 -0.6198  0.9102  0.0915
  205MOL0     H28272   1.442   9.243   8.494  0.3813  1.7705  0.8479
  205MOL0     H28273   1.649   9.104   8.466  1.2459  1.8944  0.4364
  205MOL0     H28274   2.112   8.605   8.685  1.1487  0.3320  1.3230
  205MOL0     H28275   2.205   8.416   8.548 -2.2320  1.1329  1.2208
  205MOL0     H28276   2.352   8.347   8.087  1.3733 -0.4101 -2.0764
  205MOL0     H28277   2.424   8.215   7.914  1.2670 -0.0465 -0.8781
  205MOL0     H28278   2.725   7.928   7.940  0.0742  1.8443 -2.9116
  205MOL0     H28279   2.615   7.803   8.000  0.4601 -0.6013  0.5363
  205MOL0     H28280   2.717   7.807   7.726 -1.0968 -0.7728 -1.1831
  205MOL0     H28281   2.612   7.940   7.708 -1.7073 -0.5792 -0.4373
  205MOL0     H28282   2.421   7.771   7.779 -1.4279 -0.0251 -0.9460
  205MOL0     H28283   2.511   7.730   7.632  0.7846 -0.5188  0.2715
  205MOL0     H28284   2.552   7.610   7.913 -0.8300  3.9311 -1.0634
  205MOL0     H28285   2.636   7.547   7.763 -2.1061 -2.3909 -1.9930
  205MOL0     H28286   2.292   7.336   7.742 -1.8319  1.0382 -1.7422
  205MOL0     H28287   2.605   7.931   8.187  1.3600  0.3566 -2.5288
  205MOL0     H28288   2.515   8.045   8.474  0.6746  0.3063  0.7535
  205MOL0     H28289   2.660   7.996   8.397 -0.0219 -1.0978 -0.4015
  205MOL0     H28290   2.655   8.165   8.428  0.6533 -0.7787 -0.1192
  206MOL0     O28291   0.421   6.969   6.361 -0.4120 -0.8122 -1.0151
  206MOL0     C28292   0.459   6.865   6.419 -0.0582 -0.4105 -0.1709
  206MOL0     O28293   0.553   6.856   6.521 -0.9608  0.5497 -0.0040
  206MOL0     C28294   0.630   6.971   6.536  0.4827  0.6393  0.0323
  206MOL0     C28295   0.575   7.085   6.608  0.4668  0.5677  0.3374
  206MOL0     C28296   0.648   7.199   6.622 -0.3020  0.1877  0.2352
  206MOL0     C28297   0.778   7.203   6.562  0.2993 -0.0414 -0.0122
  206MOL0     O28298   0.859   7.319   6.568  0.2038  0.4232  0.4493
  206MOL0     C28299   0.889   7.375   6.435  0.4294 -0.1562  0.0618
  206MOL0     C28300   0.899   7.529   6.453 -0.0447 -0.0828  0.7531
  206MOL0     C28301   1.044   7.578   6.458 -0.1233  0.0279  0.3005
  206MOL0     C28302   1.101   7.534   6.589 -0.4118 -0.0674  0.0577
  206MOL0     C28303   1.247   7.570   6.588 -1.0222 -0.6380  0.0147
  206MOL0     C28304   1.281   7.709   6.528  0.7023  0.7668  0.8929
  206MOL0     C28305   1.423   7.742   6.546 -0.1727 -1.1475 -0.3495
  206MOL0     C28306   1.464   7.863   6.455  1.0418  0.3262  0.0881
  206MOL0     N28307   1.598   7.914   6.488 -0.0073 -0.0691 -0.0053
  206MOL0     C28308   1.617   8.032   6.560  0.8282  0.0491 -0.5212
  206MOL0     C28309   1.749   8.041   6.576 -0.2689 -0.1404 -0.4952
  206MOL0     C28310   1.811   8.170   6.623 -0.2983 -0.0227 -0.4264
  206MOL0     C28311   1.956   8.149   6.639  0.0243 -0.2860 -0.0896
  206MOL0     C28312   1.993   8.057   6.759  0.7022 -1.0800 -0.0461
  206MOL0     C28313   2.146   8.047   6.782  0.2229 -0.4381  0.0347
  206MOL0     O28314   2.202   7.973   6.674 -0.2851 -0.2193 -0.7519
  206MOL0     C28315   2.177   7.838   6.676 -0.9717  0.4219  1.4558
  206MOL0     C28316   2.261   7.759   6.754 -0.3906 -0.5389 -0.4787
  206MOL0     C28317   2.261   7.619   6.745  0.2029  0.8697 -0.5704
  206MOL0     C28318   2.370   7.544   6.832  0.8186 -0.7637  0.6386
  206MOL0     C28319   2.163   7.546   6.666  1.0492 -0.3133 -0.3124
  206MOL0     C28320   2.163   7.398   6.638 -0.3125 -1.0146  0.8639
  206MOL0     O28321   2.092   7.356   6.530  0.1686 -0.4443  0.6949
  206MOL0     C28322   2.107   7.226   6.485 -0.2495  0.3874  0.6800
  206MOL0     C28323   2.170   7.199   6.363 -0.1808 -1.2804 -0.0185
  206MOL0     C28324   2.181   7.075   6.312 -0.6427  0.3255  0.7793
  206MOL0     C28325   2.143   6.963   6.383  0.1935  0.0037  0.4016
  206MOL0     O28326   2.165   6.832   6.343  0.7527 -0.7356  0.2937
  206MOL0     C28327   2.105   6.795   6.217 -0.8508  0.2419 -0.7229
  206MOL0     C28328   2.106   6.643   6.208  0.1841 -1.0297 -0.7612
  206MOL0     C28329   2.022   6.595   6.083  0.5198 -0.3026  0.8485
  206MOL0     C28330   2.053   6.441   6.046  0.2807 -0.2407  0.1888
  206MOL0     C28331   1.972   6.395   5.921  0.3228 -0.1223 -0.8240
  206MOL0     C28332   1.818   6.393   5.948 -0.5574  0.1701 -0.0214
  206MOL0     C28333   1.719   6.361   5.837 -0.5836 -0.4029 -0.6876
  206MOL0     C28334   1.570   6.416   5.851  0.1426 -0.4702 -0.5440
  206MOL0    Cl28335   1.605   6.594   5.863 -0.0102 -0.2158  0.1685
  206MOL0     C28336   2.054   6.988   6.497 -0.4439 -0.7530 -0.2968
  206MOL0     C28337   2.054   7.120   6.552  1.7045 -0.6590  0.6689
  206MOL0     O28338   2.216   7.324   6.711 -0.8311 -0.2541 -0.1962
  206MOL0     C28339   2.068   7.628   6.599 -0.1716  0.0396  0.3101
  206MOL0     C28340   2.077   7.773   6.605  0.0876 -0.0959 -0.4685
  206MOL0     N28341   1.804   7.925   6.517 -0.6158  0.0153  0.6187
  206MOL0     N28342   1.712   7.849   6.467  0.6891 -0.7084  0.1735
  206MOL0     C28343   0.827   7.087   6.506 -0.0192 -0.1521 -0.1989
  206MOL0     C28344   0.754   6.972   6.489 -0.7733 -0.6528  0.4599
  206MOL0     C28345   0.385   6.744   6.385  0.2699 -0.4605 -0.2321
  206MOL0     C28346   0.369   6.645   6.490 -0.7181 -0.3514  0.5729
  206MOL0     C28347   0.312   6.521   6.460 -0.6462  0.6304 -0.1034
  206MOL0     C28348   0.254   6.497   6.335 -0.2226 -0.3190  0.5246
  206MOL0     O28349   0.184   6.385   6.294  0.6007 -0.6002 -0.8291
  206MOL0     C28350   0.161   6.271   6.383  0.0223 -0.1429 -1.1828
  206MOL0     C28351   0.037   6.294   6.474 -0.6622 -0.5527  0.1260
  206MOL0     C28352  -0.093   6.336   6.411 -0.0549  0.0372  0.5708
  206MOL0     C28353  -0.131   6.255   6.285  0.3941  0.4320  0.9747
  206MOL0     C28354  -0.114   6.109   6.310  0.3177 -1.2832  0.2537
  206MOL0     C28355  -0.078   6.000   6.329  0.4692  0.7832 -0.2946
  206MOL0     C28356   0.264   6.598   6.229  0.3082  0.0222 -1.1450
  206MOL0     C28357   0.336   6.713   6.253 -0.8527 -0.7932 -0.8526
  206MOL0     C28358   0.353   6.803   6.145  0.0055 -0.3671  0.3237
  206MOL0     H28359   0.469   7.077   6.631 -0.2396  3.3675 -1.4580
  206MOL0     H28360   0.595   7.285   6.663 -0.0454  0.0188  0.9382
  206MOL0     H28361   0.797   7.357   6.380 -0.9442 -0.5814  2.3599
  206MOL0     H28362   0.975   7.339   6.378  1.1110  4.2130 -2.1418
  206MOL0     H28363   0.848   7.581   6.371 -1.6403 -2.5931  0.0329
  206MOL0     H28364   0.841   7.566   6.538 -1.1798  1.6137 -0.6781
  206MOL0     H28365   1.102   7.561   6.367 -1.1061 -0.0433 -0.3274
  206MOL0     H28366   1.028   7.686   6.463  2.3494  0.5848 -1.7000
  206MOL0     H28367   1.038   7.569   6.671 -2.3292  0.0031 -1.3704
  206MOL0     H28368   1.101   7.425   6.599 -3.9876 -0.0423  1.7096
  206MOL0     H28369   1.294   7.490   6.530 -5.7635 -5.4589  1.9219
  206MOL0     H28370   1.287   7.584   6.690  1.2617 -4.2349 -0.2054
  206MOL0     H28371   1.258   7.715   6.422 -1.7271 -0.5647  1.2793
  206MOL0     H28372   1.218   7.781   6.582  1.3749 -0.2642  3.2102
  206MOL0     H28373   1.490   7.664   6.510  0.6499 -0.6793  0.1360
  206MOL0     H28374   1.438   7.755   6.654  0.2867 -1.1687 -0.4074
  206MOL0     H28375   1.463   7.831   6.351 -1.8836 -1.8950  0.6580
  206MOL0     H28376   1.381   7.933   6.472  1.5108  0.2937  3.2599
  206MOL0     H28377   1.532   8.093   6.588 -1.7012 -2.9602 -1.0524
  206MOL0     H28378   1.761   8.183   6.719 -0.0176  1.5457 -0.4683
  206MOL0     H28379   1.801   8.249   6.548 -0.1400 -1.4690 -2.0691
  206MOL0     H28380   1.982   8.089   6.551 -0.5131  0.1673 -0.5663
  206MOL0     H28381   2.008   8.244   6.650 -2.0814  0.8098  1.0067
  206MOL0     H28382   1.944   8.105   6.844  2.2557 -0.2881  0.4513
  206MOL0     H28383   1.950   7.957   6.750  3.1685 -2.2019 -0.1442
  206MOL0     H28384   2.202   8.141   6.788  1.3246 -1.0711  0.0566
  206MOL0     H28385   2.164   7.991   6.874  0.7047  1.0432  0.8696
  206MOL0     H28386   2.327   7.807   6.826  2.0632 -0.4380 -2.6613
  206MOL0     H28387   2.439   7.615   6.879  0.5605  0.7655 -1.1467
  206MOL0     H28388   2.425   7.478   6.765  0.0212 -1.2876  0.4782
  206MOL0     H28389   2.325   7.481   6.909 -0.4689 -3.2034 -1.9343
  206MOL0     H28390   2.219   7.286   6.321 -0.3120  0.6815  3.5358
  206MOL0     H28391   2.229   7.071   6.215 -2.2331  0.8189 -0.0613
  206MOL0     H28392   2.000   6.824   6.207 -1.5733 -2.3323 -1.3853
  206MOL0     H28393   2.163   6.829   6.131 -0.9701  1.6853 -0.2616
  206MOL0     H28394   2.214   6.625   6.204  0.6333  1.0552  0.6643
  206MOL0     H28395   2.061   6.607   6.301  0.8438 -3.6311 -1.3442
  206MOL0     H28396   2.039   6.661   5.998  1.1149 -3.2167 -1.4282
  206MOL0     H28397   1.916   6.599   6.110  0.2176 -1.2313 -0.1539
  206MOL0     H28398   2.035   6.373   6.130 -1.9700 -2.4123 -1.8634
  206MOL0     H28399   2.156   6.425   6.014 -0.0615 -1.6791 -0.2464
  206MOL0     H28400   1.996   6.454   5.832  0.3734  1.3851  0.1311
  206MOL0     H28401   1.995   6.289   5.907 -1.7632 -0.6425 -0.5978
  206MOL0     H28402   1.788   6.490   5.989  0.6073  0.1747  0.8686
  206MOL0     H28403   1.806   6.314   6.022 -2.7594 -2.9333 -3.3392
  206MOL0     H28404   1.711   6.252   5.836  0.4992 -0.5144  0.4995
  206MOL0     H28405   1.772   6.392   5.747  1.6675 -1.2676  0.2748
  206MOL0     H28406   1.519   6.382   5.942 -0.9064  2.7947  0.2216
  206MOL0     H28407   1.505   6.386   5.769 -1.5471  1.4341  0.0455
  206MOL0     H28408   2.016   6.901   6.548  0.7408 -1.4162 -0.4985
  206MOL0     H28409   1.982   7.138   6.631  0.6582 -0.6075 -0.2709
  206MOL0     H28410   1.996   7.568   6.544  1.6585  0.4892 -2.8139
  206MOL0     H28411   2.004   7.830   6.549 -1.7485 -0.0499  1.8241
  206MOL0     H28412   0.927   7.089   6.464 -0.3665 -1.3308 -1.1375
  206MOL0     H28413   0.801   6.883   6.447  0.4018  1.2319 -2.5522
  206MOL0     H28414   0.409   6.664   6.590 -0.3479  4.7936 -0.2879
  206MOL0     H28415   0.313   6.436   6.528  0.1459  1.2496  0.6787
  206MOL0     H28416   0.144   6.184   6.319 -3.8187  0.7869 -1.6802
  206MOL0     H28417   0.249   6.252   6.445 -1.1532  1.1432  1.0013
  206MOL0     H28418   0.051   6.382   6.537  0.7204  0.6470 -1.7573
  206MOL0     H28419   0.010   6.207   6.535 -1.6386  0.7815  1.6611
  206MOL0     H28420  -0.171   6.330   6.487 -0.8079 -0.3438 -0.2102
  206MOL0     H28421  -0.107   6.441   6.382 -3.1524  0.1078  1.9168
  206MOL0     H28422  -0.070   6.278   6.197 -1.2464  3.3025  0.4467
  206MOL0     H28423  -0.234   6.275   6.252  0.1490 -4.5988 -2.3996
  206MOL0     H28424  -0.043   5.900   6.349  1.9609  1.2116 -0.5843
  206MOL0     H28425   0.233   6.577   6.127  0.9291  0.3290 -1.4061
  206MOL0     H28426   0.355   6.743   6.054  1.1209 -2.5652  1.7269
  206MOL0     H28427   0.277   6.883   6.146  1.6764  1.3096 -0.4855
  206MOL0     H28428   0.455   6.843   6.153  0.1008 -0.6223  0.3741
  207MOL0     O28429   8.371   5.974   5.981  0.1017 -0.6553 -0.3298
  207MOL0     C28430   8.421   6.079   5.944 -0.6825 -0.2854  0.2310
  207MOL0     O28431   8.479   6.104   5.822 -1.6206  0.2446  1.0244
  207MOL0     C28432   8.472   6.004   5.728  1.1500 -0.2180 -0.1992
  207MOL0     C28433   8.367   6.004   5.628 -1.6041  0.0149 -0.9517
  207MOL0     C28434   8.372   5.915   5.520 -0.8325 -0.3156 -0.3749
  207MOL0     C28435   8.466   5.811   5.515 -0.9181  0.5361  1.0801
  207MOL0     O28436   8.471   5.714   5.423  0.7574  0.2332  0.1823
  207MOL0     C28437   8.350   5.678   5.355 -0.2832 -0.2061 -0.0860
  207MOL0     C28438   8.383   5.621   5.220  0.1684  0.4570  0.2072
  207MOL0     C28439   8.398   5.466   5.223  0.4864  0.2589 -0.7415
  207MOL0     C28440   8.482   5.436   5.106 -0.4337  0.4665 -0.2897
  207MOL0     C28441   8.421   5.448   4.973  0.7098  0.0147  1.0469
  207MOL0     C28442   8.308   5.339   4.951  0.5154 -0.5836  0.1134
  207MOL0     C28443   8.227   5.348   4.821 -0.4125  0.1188  0.0957
  207MOL0     C28444   8.130   5.232   4.806 -0.4797  0.0102  0.4807
  207MOL0     N28445   8.029   5.236   4.910  0.5235 -0.2093  0.4625
  207MOL0     C28446   7.939   5.344   4.931  1.0543 -0.0945  0.3082
  207MOL0     C28447   7.863   5.295   5.026 -0.2202  0.0717  1.0120
  207MOL0     C28448   7.761   5.378   5.100 -0.9514  0.7930 -0.6837
  207MOL0     C28449   7.631   5.373   5.013 -0.5656 -0.8253 -0.9297
  207MOL0     C28450   7.523   5.467   5.056  0.2665 -0.0768 -0.2639
  207MOL0     C28451   7.398   5.449   4.969 -0.4719  1.3566 -0.5117
  207MOL0     O28452   7.283   5.488   5.041 -0.0965 -0.7385  0.0469
  207MOL0     C28453   7.241   5.616   5.012 -0.7337  0.0051 -0.4665
  207MOL0     C28454   7.218   5.639   4.881 -0.4838  0.3805  0.6748
  207MOL0     C28455   7.172   5.768   4.840  0.9811  0.2956  0.6636
  207MOL0     C28456   7.148   5.801   4.693 -0.2934  0.2705 -0.2662
  207MOL0     C28457   7.144   5.864   4.939  0.5882 -0.9789 -0.5869
  207MOL0     C28458   7.124   6.012   4.896  0.5547  0.2927  0.4567
  207MOL0     O28459   7.224   6.075   4.816  0.5928 -0.1827  0.0593
  207MOL0     C28460   7.197   6.210   4.786  0.8283 -0.9805  0.5422
  207MOL0     C28461   7.311   6.283   4.778 -0.8494 -0.3398 -0.1922
  207MOL0     C28462   7.311   6.423   4.744 -0.5612  0.3031 -0.6446
  207MOL0     C28463   7.191   6.479   4.713  0.0161  0.2978  0.4839
  207MOL0     O28464   7.192   6.602   4.663 -0.1769  0.1436  0.6565
  207MOL0     C28465   7.293   6.645   4.567 -0.3831  0.1921  1.0954
  207MOL0     C28466   7.235   6.760   4.484  0.3747 -0.5030 -0.6267
  207MOL0     C28467   7.100   6.737   4.414  1.2866 -0.8639  0.1381
  207MOL0     C28468   7.023   6.873   4.418  0.2495 -0.0564  0.2535
  207MOL0     C28469   6.897   6.882   4.323 -1.1193  0.4915 -0.2027
  207MOL0     C28470   6.760   6.846   4.387  0.2514 -0.5963  0.3814
  207MOL0     C28471   6.638   6.873   4.299  0.1047 -0.4923  0.2945
  207MOL0     C28472   6.517   6.791   4.337  0.2864  0.5743  0.6615
  207MOL0    Cl28473   6.462   6.822   4.523  0.3124  0.4891  0.0529
  207MOL0     C28474   7.075   6.415   4.720  1.0104  0.4954 -0.1128
  207MOL0     C28475   7.072   6.280   4.762  0.5605 -0.7199  0.3031
  207MOL0     O28476   7.018   6.062   4.928 -0.4096 -0.4878 -0.2535
  207MOL0     C28477   7.160   5.838   5.080 -0.5013  0.4400 -0.1216
  207MOL0     C28478   7.217   5.713   5.113 -0.4039 -0.1512 -0.2443
  207MOL0     N28479   7.889   5.162   5.048  0.4381 -0.2102 -0.4631
  207MOL0     N28480   7.989   5.131   4.981 -0.0616  0.2567  0.6936
  207MOL0     C28481   8.570   5.814   5.612 -0.2249  0.6689 -0.1963
  207MOL0     C28482   8.564   5.902   5.723  0.0126 -0.7557  0.1770
  207MOL0     C28483   8.399   6.197   6.042  0.3659  0.6369 -0.1918
  207MOL0     C28484   8.414   6.327   5.995 -0.4376  0.0933  0.5888
  207MOL0     C28485   8.395   6.435   6.069 -0.5037 -0.1626 -0.1115
  207MOL0     C28486   8.319   6.428   6.184  0.5836 -0.2492 -0.3095
  207MOL0     O28487   8.284   6.546   6.241 -0.2408 -0.0790 -0.2105
  207MOL0     C28488   8.199   6.548   6.361 -0.5905 -0.1432  0.4007
  207MOL0     C28489   8.136   6.684   6.364  0.1879 -0.5839  0.1255
  207MOL0     C28490   8.215   6.807   6.404  0.3269 -0.0893 -0.3919
  207MOL0     C28491   8.205   6.837   6.557 -0.6003  0.3316 -0.4288
  207MOL0     C28492   8.234   6.717   6.639  0.0677 -0.0758  0.3147
  207MOL0     C28493   8.258   6.621   6.707  0.1906  0.2137 -0.0704
  207MOL0     C28494   8.304   6.298   6.234 -0.6226 -0.0516  0.9697
  207MOL0     C28495   8.340   6.184   6.164  0.5457  0.8178 -0.1962
  207MOL0     C28496   8.308   6.054   6.244 -0.1439 -1.0125 -0.6000
  207MOL0     H28497   8.300   6.089   5.629 -0.6606  0.8881  2.6138
  207MOL0     H28498   8.296   5.930   5.444 -2.1226 -0.6269  0.8092
  207MOL0     H28499   8.286   5.762   5.326  2.2946  1.5334 -1.1099
  207MOL0     H28500   8.299   5.600   5.413  2.7751 -0.7544  2.1420
  207MOL0     H28501   8.310   5.650   5.143  1.5463  1.4794 -0.7601
  207MOL0     H28502   8.477   5.668   5.191 -0.0456  1.4431  1.0466
  207MOL0     H28503   8.449   5.437   5.315 -2.1682  0.6606  0.9580
  207MOL0     H28504   8.303   5.411   5.229  1.1072 -0.6419  3.3582
  207MOL0     H28505   8.578   5.489   5.113 -1.2031  2.1637 -1.8101
  207MOL0     H28506   8.513   5.333   5.121  1.8780  0.8663 -1.8148
  207MOL0     H28507   8.498   5.449   4.896 -1.4091  1.4676 -1.1890
  207MOL0     H28508   8.367   5.542   4.958 -2.3445 -1.8796 -0.6873
  207MOL0     H28509   8.348   5.238   4.968  0.2790 -0.6232  0.4545
  207MOL0     H28510   8.233   5.348   5.031  0.9964  0.9517  0.4133
  207MOL0     H28511   8.285   5.356   4.728  0.1297 -0.1593  0.4026
  207MOL0     H28512   8.178   5.445   4.818 -0.4446  0.1172 -2.5617
  207MOL0     H28513   8.090   5.226   4.705  1.1136 -0.8262 -0.1329
  207MOL0     H28514   8.187   5.141   4.825  1.7646  1.6722  2.3253
  207MOL0     H28515   7.941   5.441   4.884  2.0523 -0.1947  0.1078
  207MOL0     H28516   7.792   5.482   5.118  0.9658  0.4146 -1.5734
  207MOL0     H28517   7.735   5.322   5.191 -2.9420 -0.6204 -2.0406
  207MOL0     H28518   7.649   5.411   4.912 -0.6751 -1.2440 -1.1079
  207MOL0     H28519   7.581   5.276   5.007 -2.7022  0.2433 -1.5218
  207MOL0     H28520   7.497   5.456   5.162  0.1735  3.8878  0.2669
  207MOL0     H28521   7.555   5.571   5.042  1.1522 -0.0775  1.5246
  207MOL0     H28522   7.423   5.510   4.882 -0.4490 -0.8317 -2.1308
  207MOL0     H28523   7.389   5.347   4.932 -0.0343  1.5365 -1.1291
  207MOL0     H28524   7.224   5.551   4.817  2.2356  0.2461  0.9760
  207MOL0     H28525   7.130   5.706   4.641  0.4659 -0.7760  1.2950
  207MOL0     H28526   7.231   5.855   4.647 -0.7623  1.3624  0.1462
  207MOL0     H28527   7.067   5.874   4.686 -1.1633 -0.6318  0.0828
  207MOL0     H28528   7.398   6.222   4.799  0.3506  0.9731 -1.1097
  207MOL0     H28529   7.406   6.476   4.745  0.1301 -0.8902 -0.9293
  207MOL0     H28530   7.376   6.677   4.629 -0.1078 -0.7275  1.2166
  207MOL0     H28531   7.314   6.566   4.494  1.0587  2.1415 -0.7167
  207MOL0     H28532   7.219   6.844   4.552  0.1052 -0.6431 -0.5117
  207MOL0     H28533   7.304   6.796   4.407  0.5185 -0.0676 -0.2965
  207MOL0     H28534   7.042   6.656   4.458  0.6488 -0.1263  0.6754
  207MOL0     H28535   7.112   6.704   4.310  0.0411 -1.4085  0.1523
  207MOL0     H28536   7.091   6.956   4.398 -0.9290  1.8573  3.4060
  207MOL0     H28537   6.985   6.898   4.518 -0.6758  1.4953 -0.4411
  207MOL0     H28538   6.892   6.987   4.293 -2.3282  0.2420 -0.9436
  207MOL0     H28539   6.912   6.823   4.232 -0.9951 -1.2285  0.8801
  207MOL0     H28540   6.748   6.883   4.489  1.4900  2.6585 -0.5222
  207MOL0     H28541   6.768   6.738   4.396  2.3900 -0.5032  0.0603
  207MOL0     H28542   6.659   6.860   4.193  1.7932  0.6981  0.4323
  207MOL0     H28543   6.599   6.975   4.308 -0.2631 -0.5384 -0.6819
  207MOL0     H28544   6.556   6.689   4.324  1.9776  1.3298 -0.6805
  207MOL0     H28545   6.433   6.809   4.269 -0.6589 -0.3462  1.5586
  207MOL0     H28546   6.980   6.462   4.698 -0.0284 -1.8540 -1.0672
  207MOL0     H28547   6.969   6.244   4.770  0.1766 -0.1812 -1.6959
  207MOL0     H28548   7.140   5.911   5.158  0.4663 -0.7915  1.3399
  207MOL0     H28549   7.266   5.689   5.207  0.9984  1.2360 -0.5800
  207MOL0     H28550   8.648   5.739   5.606 -0.1476  0.8379 -1.8355
  207MOL0     H28551   8.634   5.887   5.806  0.5676  2.9578  0.5402
  207MOL0     H28552   8.474   6.356   5.910 -2.5347  1.7454 -0.4117
  207MOL0     H28553   8.437   6.527   6.030  0.9108 -0.9040 -0.4301
  207MOL0     H28554   8.124   6.471   6.340 -0.4663  0.5285 -3.1482
  207MOL0     H28555   8.262   6.521   6.447  0.2975 -2.2708 -0.8316
  207MOL0     H28556   8.056   6.677   6.438  0.0988 -4.7413 -0.1437
  207MOL0     H28557   8.093   6.701   6.265 -2.5667 -0.8868  1.1822
  207MOL0     H28558   8.318   6.800   6.366  1.0198  2.3979  0.7767
  207MOL0     H28559   8.176   6.903   6.371  3.5735  1.3911 -0.3479
  207MOL0     H28560   8.103   6.869   6.581 -0.8340 -1.4530  1.2224
  207MOL0     H28561   8.266   6.921   6.591 -2.5566  2.6576 -2.3533
  207MOL0     H28562   8.280   6.538   6.771 -0.8723 -0.9559 -1.1511
  207MOL0     H28563   8.263   6.305   6.334 -1.3844 -0.2827  0.6787
  207MOL0     H28564   8.217   6.003   6.209 -3.1161  0.5008  4.0068
  207MOL0     H28565   8.397   5.993   6.259  0.3813 -0.0714  0.1682
  207MOL0     H28566   8.279   6.092   6.342 -1.2385 -0.4929 -1.0960
  208MOL0     O28567   4.497   7.725   6.057  0.4506  0.0736  0.0478
  208MOL0     C28568   4.489   7.752   6.176  0.4704  0.7531 -0.9874
  208MOL0     O28569   4.391   7.825   6.245  0.2794 -0.5167  0.8228
  208MOL0     C28570   4.268   7.863   6.189 -0.7292  0.3255 -0.4104
  208MOL0     C28571   4.208   7.973   6.245  0.4027  0.6191  0.0230
  208MOL0     C28572   4.088   8.023   6.202 -0.6619  0.1003 -0.5714
  208MOL0     C28573   4.017   7.961   6.087  0.1147 -0.1446  0.6642
  208MOL0     O28574   3.883   7.987   6.061 -0.4577 -0.2208 -0.5311
  208MOL0     C28575   3.851   8.125   6.072 -0.5449 -0.4317 -0.1484
  208MOL0     C28576   3.772   8.172   5.957  0.2459 -0.3144 -0.2866
  208MOL0     C28577   3.856   8.166   5.829 -0.0110  0.3244 -0.3122
  208MOL0     C28578   3.770   8.170   5.708  0.0204  0.3820 -0.1140
  208MOL0     C28579   3.855   8.160   5.585  0.0253  0.8664  0.8977
  208MOL0     C28580   3.774   8.200   5.460 -0.5493  0.6304 -0.2515
  208MOL0     C28581   3.870   8.193   5.332 -0.1777  0.2407 -0.3529
  208MOL0     C28582   3.808   8.269   5.215  1.4060  0.1339 -0.5750
  208MOL0     N28583   3.831   8.417   5.223 -0.2111 -0.1597  0.5240
  208MOL0     C28584   3.729   8.513   5.235 -0.3893  0.4443  0.1062
  208MOL0     C28585   3.782   8.636   5.233  0.3909  0.3839 -0.0678
  208MOL0     C28586   3.691   8.758   5.241  1.3632  0.0983 -0.2045
  208MOL0     C28587   3.619   8.767   5.380 -0.6353  0.2297  0.6151
  208MOL0     C28588   3.523   8.889   5.366 -0.7167  0.6961  0.6669
  208MOL0     C28589   3.442   8.910   5.499 -0.5463  0.1775 -0.3299
  208MOL0     O28590   3.377   8.792   5.538  0.4204  0.3487 -0.2541
  208MOL0     C28591   3.290   8.797   5.645 -0.1306  0.7824  0.0986
  208MOL0     C28592   3.212   8.675   5.650 -0.8256  0.4919 -0.4331
  208MOL0     C28593   3.133   8.646   5.767 -0.6422 -0.9347  0.4787
  208MOL0     C28594   3.063   8.519   5.764  1.0208  0.2738 -0.2057
  208MOL0     C28595   3.124   8.742   5.874 -0.4896 -0.3777  0.2764
  208MOL0     C28596   3.066   8.731   6.005 -0.2567  0.1102 -0.7332
  208MOL0     O28597   3.079   8.829   6.096 -0.8207 -0.7282 -0.3717
  208MOL0     C28598   3.045   8.817   6.224 -0.4941 -0.2721 -0.6848
  208MOL0     C28599   3.021   8.941   6.286  1.1826  0.1098  0.6792
  208MOL0     C28600   2.979   8.938   6.421  0.0624  0.4397 -0.3543
  208MOL0     C28601   2.960   8.813   6.486  0.6708 -0.0884  0.4234
  208MOL0     O28602   2.910   8.821   6.613  0.7303 -0.8609 -0.1680
  208MOL0     C28603   2.998   8.768   6.703 -0.6706 -0.6855  0.0984
  208MOL0     C28604   2.961   8.832   6.843  0.8958 -0.1626  0.7633
  208MOL0     C28605   3.033   8.757   6.957 -0.1227 -0.1002  0.2691
  208MOL0     C28606   3.184   8.779   6.951  0.3676 -0.4032  0.0296
  208MOL0     C28607   3.271   8.731   7.077 -0.6830  0.7046  0.1838
  208MOL0     C28608   3.419   8.742   7.031  0.7262  0.6256  0.6846
  208MOL0     C28609   3.504   8.680   7.134 -0.1644  0.2373  0.4882
  208MOL0     C28610   3.534   8.529   7.106  0.2896 -0.1643  0.6025
  208MOL0    Cl28611   3.600   8.440   7.253  0.1777  0.2332  0.1110
  208MOL0     C28612   2.988   8.695   6.420  0.0846  0.3449 -0.9622
  208MOL0     C28613   3.039   8.694   6.298  0.3837  0.3176  0.5026
  208MOL0     O28614   2.994   8.630   6.016 -0.2617 -0.2588 -0.3390
  208MOL0     C28615   3.193   8.865   5.852  0.2926 -0.3583  0.1758
  208MOL0     C28616   3.273   8.894   5.739  0.0449  0.1761 -1.3625
  208MOL0     N28617   3.922   8.609   5.223  0.1365  0.1280 -0.2173
  208MOL0     N28618   3.950   8.491   5.220  0.1177  1.0133 -0.0715
  208MOL0     C28619   4.090   7.868   6.015  0.6728 -0.1266  0.1595
  208MOL0     C28620   4.211   7.823   6.066  0.0082 -0.5352  0.1271
  208MOL0     C28621   4.608   7.725   6.267  1.2483 -0.1385  0.6418
  208MOL0     C28622   4.618   7.788   6.393 -0.0943 -0.2328 -0.7448
  208MOL0     C28623   4.726   7.763   6.476  0.5459  0.6084  0.0507
  208MOL0     C28624   4.836   7.688   6.433  0.4960 -0.3571 -1.3706
  208MOL0     O28625   4.953   7.676   6.506  0.3150  0.2747 -0.0344
  208MOL0     C28626   4.961   7.738   6.642  1.0751  0.7793 -0.5694
  208MOL0     C28627   5.103   7.736   6.699 -0.4140  0.4566  0.1388
  208MOL0     C28628   5.215   7.745   6.593 -0.1898 -0.3518 -0.3276
  208MOL0     C28629   5.350   7.781   6.662  0.0119 -0.2104  0.0851
  208MOL0     C28630   5.454   7.818   6.564  1.1486 -0.4415  0.4356
  208MOL0     C28631   5.532   7.842   6.472 -0.7396 -0.0390  0.5158
  208MOL0     C28632   4.823   7.624   6.315  0.6784  0.2418 -0.2199
  208MOL0     C28633   4.713   7.635   6.232  0.4704  0.6884  0.3587
  208MOL0     C28634   4.738   7.568   6.099 -0.3078 -0.0690 -0.0312
  208MOL0     H28635   4.253   8.018   6.333  0.2363  0.0225  0.4109
  208MOL0     H28636   4.048   8.102   6.264 -0.1898  0.3828 -0.6270
  208MOL0     H28637   3.936   8.195   6.078 -1.7843  1.2055 -0.9174
  208MOL0     H28638   3.792   8.136   6.164 -0.7546  0.5072 -0.3866
  208MOL0     H28639   3.676   8.123   5.941  0.1116  0.1948 -1.0475
  208MOL0     H28640   3.748   8.273   5.990 -1.8142 -0.7965 -0.1615
  208MOL0     H28641   3.925   8.251   5.832  1.1656 -0.6297  1.6616
  208MOL0     H28642   3.925   8.081   5.826  1.6027  1.4308  2.2722
  208MOL0     H28643   3.697   8.089   5.703  2.0535 -1.5226 -4.3450
  208MOL0     H28644   3.726   8.270   5.702 -1.2029  0.1070  2.7255
  208MOL0     H28645   3.888   8.056   5.577  1.4152  1.3183  0.2576
  208MOL0     H28646   3.948   8.218   5.590 -0.1571  1.1185  1.3809
  208MOL0     H28647   3.689   8.133   5.443  1.7379 -1.8093 -3.4290
  208MOL0     H28648   3.739   8.303   5.474  0.7504  0.8620  1.6019
  208MOL0     H28649   3.898   8.090   5.308 -0.3721 -0.1490  1.0074
  208MOL0     H28650   3.965   8.241   5.355 -0.4728  1.4979 -1.6215
  208MOL0     H28651   3.848   8.238   5.118  1.2930 -3.4013  0.3791
  208MOL0     H28652   3.703   8.242   5.204  1.8482 -1.5518 -0.8526
  208MOL0     H28653   3.624   8.492   5.256  0.1606 -2.1962  0.6233
  208MOL0     H28654   3.618   8.749   5.161 -1.0777 -1.4578  2.0134
  208MOL0     H28655   3.763   8.838   5.225  3.3845 -1.5349  0.1899
  208MOL0     H28656   3.563   8.675   5.399  1.7889 -1.3647  0.6176
  208MOL0     H28657   3.694   8.782   5.459 -1.0668 -1.5977  1.4365
  208MOL0     H28658   3.573   8.983   5.345 -1.4442  0.7174 -1.1480
  208MOL0     H28659   3.449   8.866   5.288 -0.0887 -0.5619  0.4154
  208MOL0     H28660   3.510   8.945   5.577  0.7012 -0.7242 -0.9692
  208MOL0     H28661   3.368   8.990   5.486 -1.4578 -0.2626  1.7679
  208MOL0     H28662   3.228   8.606   5.569 -0.8009  1.4221 -1.2351
  208MOL0     H28663   2.958   8.548   5.758  1.0613  0.5077  0.1601
  208MOL0     H28664   3.063   8.468   5.861 -1.2670 -1.7303 -1.1517
  208MOL0     H28665   3.097   8.448   5.688 -0.1355  1.5810 -2.0065
  208MOL0     H28666   3.017   9.037   6.236 -0.6493  0.4359  1.3804
  208MOL0     H28667   2.951   9.028   6.475 -3.3090  0.9568 -2.6283
  208MOL0     H28668   2.989   8.660   6.721  1.2789 -0.6656  1.5400
  208MOL0     H28669   3.103   8.796   6.687  0.3465 -3.0683  1.8988
  208MOL0     H28670   2.974   8.940   6.848 -0.5686  0.2847 -2.7139
  208MOL0     H28671   2.852   8.830   6.847  0.7720 -2.9822 -1.2359
  208MOL0     H28672   3.009   8.652   6.972  1.0969 -0.7609 -1.8733
  208MOL0     H28673   3.010   8.815   7.047  1.8662  1.6995 -0.3156
  208MOL0     H28674   3.196   8.885   6.928  2.0474 -0.8585 -1.3087
  208MOL0     H28675   3.222   8.724   6.865 -1.9496  0.9251 -1.9771
  208MOL0     H28676   3.245   8.779   7.172 -1.2044  1.1539 -0.1818
  208MOL0     H28677   3.239   8.627   7.090 -1.2347  1.2385  4.2605
  208MOL0     H28678   3.435   8.849   7.020 -1.2486  1.1370  2.1196
  208MOL0     H28679   3.437   8.701   6.931 -0.4898  1.9402 -0.1121
  208MOL0     H28680   3.453   8.678   7.230 -1.3948  0.1893 -0.1404
  208MOL0     H28681   3.586   8.747   7.160 -1.8911  3.3619 -1.5363
  208MOL0     H28682   3.612   8.517   7.030  1.3599  1.4953  1.3687
  208MOL0     H28683   3.440   8.477   7.087  0.2287  0.3281 -0.5470
  208MOL0     H28684   2.967   8.606   6.478 -2.0401  1.3803 -0.0394
  208MOL0     H28685   3.050   8.593   6.259  1.1680  1.2110 -1.7580
  208MOL0     H28686   3.182   8.948   5.921 -0.2887  1.2361 -1.7435
  208MOL0     H28687   3.321   8.991   5.737  1.5689 -0.3419  2.4849
  208MOL0     H28688   4.060   7.828   5.918 -1.3994  2.4038 -0.3566
  208MOL0     H28689   4.261   7.745   6.010 -1.5572 -1.6424  0.2171
  208MOL0     H28690   4.538   7.852   6.426 -1.2807 -2.1311  0.2766
  208MOL0     H28691   4.723   7.821   6.567  1.7278 -1.7147  1.6565
  208MOL0     H28692   4.923   7.841   6.646  1.9501  1.0703  0.8968
  208MOL0     H28693   4.901   7.670   6.703 -0.1971  0.8559 -1.6800
  208MOL0     H28694   5.119   7.648   6.761  2.9550  1.5883  1.0738
  208MOL0     H28695   5.107   7.823   6.765 -0.1030 -0.1267  0.8928
  208MOL0     H28696   5.221   7.644   6.550  0.6234 -0.1192 -0.7909
  208MOL0     H28697   5.192   7.820   6.517 -1.0000 -0.0103  0.2400
  208MOL0     H28698   5.386   7.693   6.716  1.0557  0.9144  1.2794
  208MOL0     H28699   5.344   7.862   6.735  1.0713 -0.3469  0.3300
  208MOL0     H28700   5.599   7.866   6.392  0.4901 -1.9153  0.9319
  208MOL0     H28701   4.922   7.585   6.292  0.0667 -0.3864 -2.0154
  208MOL0     H28702   4.688   7.470   6.095  1.2144 -0.8380 -1.4980
  208MOL0     H28703   4.707   7.635   6.019  0.0879 -0.6298 -0.6635
  208MOL0     H28704   4.841   7.536   6.082 -0.2853  0.0158 -0.0543
  209MOL0     O28705   6.130   4.782   2.796  0.5862  0.0221  0.2858
  209MOL0     C28706   6.205   4.825   2.711 -0.4998 -0.2621 -0.1224
  209MOL0     O28707   6.334   4.834   2.719 -0.3588  0.0474  0.3345
  209MOL0     C28708   6.392   4.767   2.829 -1.1083  1.1244 -0.4656
  209MOL0     C28709   6.477   4.833   2.916  0.3998  0.9671  0.0435
  209MOL0     C28710   6.540   4.766   3.026 -0.6886  0.7514  0.7261
  209MOL0     C28711   6.517   4.629   3.048 -0.3288 -0.4753 -0.4978
  209MOL0     O28712   6.574   4.564   3.156 -1.1466  0.6885  0.5905
  209MOL0     C28713   6.594   4.424   3.142 -0.0529  0.5016 -0.6723
  209MOL0     C28714   6.660   4.369   3.267 -0.2288  0.4378 -0.1145
  209MOL0     C28715   6.798   4.424   3.281  0.8831  0.6598 -0.4484
  209MOL0     C28716   6.882   4.331   3.375 -0.1462 -0.2431  0.7784
  209MOL0     C28717   7.008   4.407   3.394 -0.2970  0.0699  0.0338
  209MOL0     C28718   7.104   4.338   3.489 -0.4500  0.4780  0.6554
  209MOL0     C28719   7.250   4.385   3.484 -0.1685 -0.2158 -0.7130
  209MOL0     C28720   7.341   4.304   3.580 -0.3627 -0.0791 -0.7609
  209MOL0     N28721   7.375   4.172   3.531  0.6966  0.5338 -0.2958
  209MOL0     C28722   7.374   4.047   3.591  0.0681 -0.2197 -0.6118
  209MOL0     C28723   7.393   3.957   3.491 -1.1656  0.3566 -0.1551
  209MOL0     C28724   7.400   3.802   3.509 -0.2444  0.5258  0.2138
  209MOL0     C28725   7.543   3.754   3.491 -0.3428 -0.1075  0.4856
  209MOL0     C28726   7.557   3.601   3.509  0.2426  0.8193  0.0535
  209MOL0     C28727   7.700   3.548   3.512 -0.1586 -0.0373 -0.4391
  209MOL0     O28728   7.778   3.558   3.384 -0.0283  0.6025  0.0434
  209MOL0     C28729   7.731   3.488   3.281  0.4665  0.6242 -0.3802
  209MOL0     C28730   7.732   3.349   3.270  0.3739  0.3489  0.5440
  209MOL0     C28731   7.684   3.270   3.160 -0.0324  0.0856 -0.4306
  209MOL0     C28732   7.709   3.127   3.159 -0.5833 -0.5740  0.4046
  209MOL0     C28733   7.627   3.337   3.049 -0.6684  0.3004  0.1388
  209MOL0     C28734   7.560   3.269   2.932  0.2589 -0.8806  0.1068
  209MOL0     O28735   7.541   3.352   2.821 -0.2254 -0.1527 -0.6515
  209MOL0     C28736   7.494   3.296   2.706  0.3532 -0.9977 -0.5953
  209MOL0     C28737   7.522   3.170   2.651  0.7647  0.3306 -0.6368
  209MOL0     C28738   7.485   3.140   2.514  0.0623 -0.5820  0.4604
  209MOL0     C28739   7.404   3.230   2.436 -0.9170  0.0292  0.0382
  209MOL0     O28740   7.366   3.219   2.303 -0.0103 -0.4426  0.0770
  209MOL0     C28741   7.357   3.086   2.261  0.4427  0.5260  1.2965
  209MOL0     C28742   7.307   3.093   2.124 -0.8584 -0.5030  0.2967
  209MOL0     C28743   7.344   2.969   2.048 -0.2772 -0.1802  0.8664
  209MOL0     C28744   7.321   2.999   1.893  0.9107 -0.7580  0.1998
  209MOL0     C28745   7.369   2.871   1.790  0.6882  0.3825 -0.0532
  209MOL0     C28746   7.333   2.734   1.847  0.5031  0.1642  0.1166
  209MOL0     C28747   7.177   2.703   1.826 -0.3652 -0.4814  0.0678
  209MOL0     C28748   7.137   2.549   1.827 -0.3982  0.3151 -0.1025
  209MOL0    Cl28749   7.193   2.469   1.978 -0.1495 -0.1715 -0.1102
  209MOL0     C28750   7.384   3.351   2.496 -0.3976 -0.0073  0.3976
  209MOL0     C28751   7.412   3.381   2.631  1.0337  0.2035  0.5027
  209MOL0     O28752   7.516   3.157   2.944  0.7216  0.4428  0.1941
  209MOL0     C28753   7.632   3.479   3.062 -0.2895 -0.6038  0.1440
  209MOL0     C28754   7.677   3.554   3.174 -0.0797  0.8893 -0.0119
  209MOL0     N28755   7.419   4.024   3.372 -0.3503  0.1907 -0.0217
  209MOL0     N28756   7.405   4.147   3.406  0.1042  0.0694  0.1186
  209MOL0     C28757   6.437   4.564   2.955 -0.1251 -0.1135 -0.1869
  209MOL0     C28758   6.373   4.629   2.849 -0.6877 -0.0846  0.1574
  209MOL0     C28759   6.143   4.876   2.591  0.1743 -0.1854  0.1069
  209MOL0     C28760   6.074   4.999   2.586  0.6142 -0.1010 -0.2329
  209MOL0     C28761   6.009   5.052   2.471 -0.0044  0.4336 -0.1847
  209MOL0     C28762   6.006   4.968   2.360  0.8360  0.2826  0.7038
  209MOL0     O28763   5.943   5.022   2.250  0.3991 -0.0426 -0.4749
  209MOL0     C28764   5.939   4.960   2.121 -0.6130 -0.3051 -0.8058
  209MOL0     C28765   6.079   4.944   2.048 -0.1766 -0.1982 -0.4283
  209MOL0     C28766   6.140   5.078   2.013  0.2289  0.5518 -0.0266
  209MOL0     C28767   6.292   5.072   1.984  0.3806 -0.0416  0.3371
  209MOL0     C28768   6.304   5.036   1.838  0.9542  0.6608 -0.5380
  209MOL0     C28769   6.305   4.986   1.731 -0.1326  0.7278 -0.4883
  209MOL0     C28770   6.082   4.849   2.359 -0.2798 -0.1505  0.2239
  209MOL0     C28771   6.155   4.802   2.471 -0.3927  0.1942  0.6899
  209MOL0     C28772   6.222   4.669   2.464 -0.6379  0.0192  0.3659
  209MOL0     H28773   6.496   4.938   2.899  1.5307  0.5738 -1.3238
  209MOL0     H28774   6.600   4.825   3.094  0.8763  0.5502 -0.4255
  209MOL0     H28775   6.648   4.398   3.051 -1.6699 -2.7325 -0.8208
  209MOL0     H28776   6.498   4.372   3.143  0.5637 -0.6645  0.0717
  209MOL0     H28777   6.596   4.391   3.352  0.5345 -2.5575  1.3663
  209MOL0     H28778   6.645   4.260   3.260 -1.5398  0.6072 -0.3708
  209MOL0     H28779   6.845   4.427   3.182 -1.6094 -3.1853 -1.9860
  209MOL0     H28780   6.781   4.528   3.313 -1.6712  0.3012 -0.4552
  209MOL0     H28781   6.835   4.309   3.472  2.7861 -3.2351  1.7278
  209MOL0     H28782   6.898   4.231   3.334 -0.7552 -0.0860  0.1449
  209MOL0     H28783   6.982   4.507   3.429  0.7209 -0.1063  1.3787
  209MOL0     H28784   7.059   4.428   3.300 -3.5944 -1.9177 -2.4067
  209MOL0     H28785   7.068   4.347   3.592 -1.4332 -1.1716  0.4902
  209MOL0     H28786   7.096   4.233   3.459 -1.0735  1.1480 -1.6509
  209MOL0     H28787   7.260   4.490   3.510  1.5417 -1.3579  4.1818
  209MOL0     H28788   7.279   4.385   3.378 -1.3386  0.2344 -1.0512
  209MOL0     H28789   7.432   4.363   3.591 -0.9229  0.3538  2.4939
  209MOL0     H28790   7.294   4.293   3.678  0.5869 -2.4492 -0.4850
  209MOL0     H28791   7.328   4.031   3.688  0.8534 -4.0165 -0.7198
  209MOL0     H28792   7.339   3.762   3.427  0.8643  0.7598 -0.7647
  209MOL0     H28793   7.344   3.761   3.593 -3.7202  0.6139 -1.8494
  209MOL0     H28794   7.575   3.786   3.392  1.1352 -1.1130  0.6050
  209MOL0     H28795   7.614   3.798   3.561 -0.3558 -0.2430  0.5841
  209MOL0     H28796   7.514   3.574   3.606 -1.3819 -0.3034 -0.9365
  209MOL0     H28797   7.498   3.550   3.432 -0.1813  2.0159 -0.4347
  209MOL0     H28798   7.754   3.595   3.595 -0.5935  2.1501 -1.3302
  209MOL0     H28799   7.688   3.444   3.544 -0.0648 -0.5611 -2.0196
  209MOL0     H28800   7.784   3.294   3.348  3.4355  1.1607 -0.7811
  209MOL0     H28801   7.798   3.107   3.099 -0.7702  0.5963 -0.3000
  209MOL0     H28802   7.617   3.080   3.123 -0.6859  1.5259 -2.3636
  209MOL0     H28803   7.739   3.092   3.258 -0.7296 -2.2513 -0.1093
  209MOL0     H28804   7.595   3.103   2.695  0.3835 -1.8322 -3.0776
  209MOL0     H28805   7.533   3.057   2.464  0.6659  2.0837 -3.9216
  209MOL0     H28806   7.453   3.034   2.253  0.4422  0.8358 -1.7456
  209MOL0     H28807   7.296   3.033   2.334  0.5051  1.9909  2.4710
  209MOL0     H28808   7.199   3.105   2.123 -0.9110 -0.9875 -0.0216
  209MOL0     H28809   7.345   3.187   2.082  0.1119 -0.1470  1.9083
  209MOL0     H28810   7.285   2.881   2.075  1.8288 -1.5069  1.3835
  209MOL0     H28811   7.451   2.949   2.058 -0.0151  2.1424  3.9079
  209MOL0     H28812   7.372   3.091   1.862  0.3493 -0.7926 -0.8767
  209MOL0     H28813   7.215   3.024   1.882  1.2077  1.2008  1.2646
  209MOL0     H28814   7.318   2.884   1.694  2.3501  2.5443 -0.7143
  209MOL0     H28815   7.477   2.876   1.776  1.1567  0.1225  2.7980
  209MOL0     H28816   7.349   2.722   1.955 -1.7682  0.1139  0.5024
  209MOL0     H28817   7.375   2.648   1.794  1.3051  0.6586 -0.0693
  209MOL0     H28818   7.163   2.743   1.725  2.8738 -2.4089 -1.3115
  209MOL0     H28819   7.118   2.763   1.896 -2.4942 -1.8457 -0.4489
  209MOL0     H28820   7.189   2.505   1.741 -1.9577 -1.5635 -0.1562
  209MOL0     H28821   7.029   2.533   1.820 -0.0521 -4.2808  1.2672
  209MOL0     H28822   7.330   3.426   2.439 -1.6002  0.3167  1.9023
  209MOL0     H28823   7.368   3.474   2.667 -3.0379 -0.7149 -1.5219
  209MOL0     H28824   7.573   3.535   2.991  0.3953  1.2078  0.9517
  209MOL0     H28825   7.665   3.662   3.180  0.9386  1.0823 -1.2155
  209MOL0     H28826   6.407   4.459   2.956 -2.5283  0.5009 -1.0352
  209MOL0     H28827   6.311   4.572   2.780 -0.7154 -0.7943  0.7613
  209MOL0     H28828   6.075   5.055   2.678  0.8449 -1.7018  0.7760
  209MOL0     H28829   5.948   5.141   2.479  1.0220  1.1275  0.0898
  209MOL0     H28830   5.890   4.862   2.114  2.3444 -1.9670  0.1489
  209MOL0     H28831   5.881   5.031   2.061  1.0404  0.9236 -1.0333
  209MOL0     H28832   6.059   4.882   1.960 -1.4355 -1.3735  0.6479
  209MOL0     H28833   6.148   4.895   2.118  0.8080  0.7268 -0.7120
  209MOL0     H28834   6.083   5.129   1.934  2.7027 -0.2232 -2.4819
  209MOL0     H28835   6.135   5.145   2.099  1.1380 -0.1106  0.5627
  209MOL0     H28836   6.331   5.005   2.061 -4.1716 -1.3417  1.8062
  209MOL0     H28837   6.340   5.170   1.993 -0.8004  0.8155 -1.8401
  209MOL0     H28838   6.279   4.923   1.648 -1.2036  0.0296  0.3460
  209MOL0     H28839   6.076   4.783   2.274 -4.2289 -1.7517  1.4950
  209MOL0     H28840   6.310   4.672   2.399 -0.0728 -1.6611  1.0030
  209MOL0     H28841   6.257   4.633   2.562  0.0138 -2.4880 -0.7114
  209MOL0     H28842   6.153   4.594   2.425 -3.7672  2.9168 -0.0809
  210MOL0     O28843  10.738   8.326   4.846  0.0063 -1.1322 -0.5268
  210MOL0     C28844  10.798   8.362   4.950  0.9743  0.0673 -0.0298
  210MOL0     O28845  10.754   8.457   5.035 -0.4500 -0.2952  0.2059
  210MOL0     C28846  10.647   8.536   5.001  0.8199  0.7695  0.8822
  210MOL0     C28847  10.667   8.671   4.986 -0.2375  0.2449 -0.7453
  210MOL0     C28848  10.567   8.747   4.933 -0.0480  0.5298 -0.0450
  210MOL0     C28849  10.441   8.691   4.900 -0.2223 -0.6664 -0.5181
  210MOL0     O28850  10.348   8.782   4.851 -0.4455  0.3306 -0.0013
  210MOL0     C28851  10.321   8.746   4.714 -0.0372 -0.4178 -0.2837
  210MOL0     C28852  10.235   8.863   4.656 -0.4740 -0.3955 -0.8671
  210MOL0     C28853  10.252   8.885   4.503 -0.0779 -0.0461 -0.2230
  210MOL0     C28854  10.357   8.998   4.480 -0.3513 -0.3420 -0.0411
  210MOL0     C28855  10.403   8.999   4.330 -0.3148 -0.0101 -0.4940
  210MOL0     C28856  10.561   9.030   4.327  0.4625  1.2128  0.0796
  210MOL0     C28857  10.590   9.179   4.353  0.0715  0.1713  0.3407
  210MOL0     C28858  10.738   9.210   4.335 -0.2393  0.2036  0.6458
  210MOL0     N28859  10.837   9.148   4.429 -0.3235  0.6789 -0.3178
  210MOL0     C28860  10.881   9.023   4.405 -0.2043  0.3574 -0.7473
  210MOL0     C28861  11.000   9.017   4.472 -0.7029  0.0985 -0.2929
  210MOL0     C28862  11.094   8.898   4.470 -0.4935 -0.3931  0.1649
  210MOL0     C28863  11.245   8.942   4.506 -0.4827 -0.7634  0.7251
  210MOL0     C28864  11.326   8.812   4.516  0.2799  0.3884  0.0902
  210MOL0     C28865  11.474   8.845   4.512 -0.5800 -0.1151  0.1057
  210MOL0     O28866  11.555   8.732   4.546  0.0395  0.0540  0.4262
  210MOL0     C28867  11.691   8.738   4.537 -0.4504 -0.1111 -0.1319
  210MOL0     C28868  11.763   8.857   4.550 -0.6039  0.4483  0.5578
  210MOL0     C28869  11.903   8.847   4.551 -0.7045  1.2864 -0.2134
  210MOL0     C28870  11.978   8.986   4.552  0.1639  0.3146 -0.2536
  210MOL0     C28871  11.965   8.724   4.546  0.2716  0.6556 -0.0473
  210MOL0     C28872  12.113   8.711   4.535 -0.1176  0.1535 -0.4736
  210MOL0     O28873  12.192   8.771   4.628  0.2866  0.4113 -0.5981
  210MOL0     C28874  12.328   8.797   4.595  0.4926 -0.2177  0.4671
  210MOL0     C28875  12.369   8.853   4.462 -0.1474 -1.0235 -0.6779
  210MOL0     C28876  12.507   8.878   4.451  0.3821  0.0729  1.4894
  210MOL0     C28877  12.602   8.864   4.551  0.9477 -0.4999  0.9347
  210MOL0     O28878  12.747   8.872   4.542  0.0067  0.9684 -0.4688
  210MOL0     C28879  12.792   8.950   4.431 -0.7529  0.6495  0.3189
  210MOL0     C28880  12.943   8.966   4.424  0.0152  0.6909  0.2200
  210MOL0     C28881  12.974   9.069   4.318  0.1522 -0.9367 -0.2490
  210MOL0     C28882  13.122   9.103   4.316  0.1986  1.0824 -0.4030
  210MOL0     C28883  13.144   9.202   4.206  0.2561 -0.3009 -0.2679
  210MOL0     C28884  13.162   9.141   4.070  0.5486 -0.2172 -0.8524
  210MOL0     C28885  13.186   9.254   3.963 -0.2002  0.8154  0.2794
  210MOL0     C28886  13.202   9.185   3.825 -0.6083 -0.8281 -0.4511
  210MOL0    Cl28887  13.065   9.077   3.796  0.4733  0.0300 -0.2519
  210MOL0     C28888  12.558   8.821   4.672  0.1357 -0.4937 -1.1289
  210MOL0     C28889  12.420   8.784   4.691 -1.0482 -0.1409 -0.6517
  210MOL0     O28890  12.155   8.630   4.447 -0.7613  0.4540  0.0448
  210MOL0     C28891  11.891   8.608   4.531  0.5392  0.4147 -0.3244
  210MOL0     C28892  11.752   8.607   4.535 -0.7993 -0.1851  0.3558
  210MOL0     N28893  11.027   9.148   4.514  0.2261 -1.0214 -0.6731
  210MOL0     N28894  10.925   9.223   4.504 -0.9270 -0.3760  0.0310
  210MOL0     C28895  10.415   8.557   4.925  0.5497  0.4289 -0.2487
  210MOL0     C28896  10.524   8.474   4.967  0.4479  0.6986 -0.6116
  210MOL0     C28897  10.929   8.299   4.984 -0.1018 -0.1754 -0.0361
  210MOL0     C28898  10.970   8.187   4.919  0.8894  0.2341  0.1874
  210MOL0     C28899  11.093   8.119   4.939 -0.0072 -0.0837  0.1240
  210MOL0     C28900  11.185   8.169   5.031  0.3791 -0.2662 -0.4112
  210MOL0     O28901  11.306   8.099   5.016 -0.5087  0.2858 -0.2047
  210MOL0     C28902  11.431   8.171   5.028 -1.1636 -0.0010  1.1328
  210MOL0     C28903  11.481   8.165   5.170 -0.3659 -0.0766  1.0995
  210MOL0     C28904  11.619   8.229   5.178 -0.4903  0.9486 -0.4906
  210MOL0     C28905  11.711   8.148   5.272 -0.0457  0.1023 -0.5633
  210MOL0     C28906  11.857   8.192   5.259  1.0755 -0.3630 -0.4782
  210MOL0     C28907  11.972   8.234   5.243  0.4618 -0.6633 -0.2385
  210MOL0     C28908  11.156   8.291   5.088 -0.1049  0.2750  0.0528
  210MOL0     C28909  11.034   8.356   5.066  0.0038 -0.4035 -0.4591
  210MOL0     C28910  11.009   8.491   5.142 -1.0270 -0.0090 -0.0520
  210MOL0     H28911  10.757   8.713   5.030  0.1917 -2.2954  1.0430
  210MOL0     H28912  10.571   8.855   4.938  0.2294  0.4882  2.9710
  210MOL0     H28913  10.259   8.656   4.707  1.7158 -1.6426 -0.7278
  210MOL0     H28914  10.406   8.726   4.648 -1.0722  0.6913 -2.0538
  210MOL0     H28915  10.133   8.839   4.689  0.2571 -0.7871  1.2132
  210MOL0     H28916  10.278   8.949   4.707  2.7455 -0.8887 -2.4578
  210MOL0     H28917  10.285   8.792   4.456 -3.6026 -1.5779  0.0092
  210MOL0     H28918  10.151   8.911   4.471  0.0094 -1.5986 -1.9424
  210MOL0     H28919  10.319   9.098   4.504 -1.6030 -0.6564 -0.6151
  210MOL0     H28920  10.440   8.966   4.544 -3.3569 -3.4304  2.7344
  210MOL0     H28921  10.359   9.087   4.283 -1.5551  0.3069  1.1853
  210MOL0     H28922  10.389   8.906   4.274  2.0699  0.1536 -1.4975
  210MOL0     H28923  10.606   8.964   4.401  1.0781  2.5840  0.9544
  210MOL0     H28924  10.601   9.005   4.228  3.6601  1.8270  1.1256
  210MOL0     H28925  10.565   9.202   4.457  2.3309  2.2160  0.5286
  210MOL0     H28926  10.522   9.243   4.296 -0.0179  1.3764  1.7148
  210MOL0     H28927  10.775   9.199   4.232  0.6642 -2.9670  1.1888
  210MOL0     H28928  10.732   9.316   4.359  1.2937  0.4894 -0.0651
  210MOL0     H28929  10.831   8.947   4.345 -1.7383 -0.0731  0.9977
  210MOL0     H28930  11.093   8.855   4.370  0.0298  2.2554 -1.0829
  210MOL0     H28931  11.060   8.825   4.543 -1.0419 -3.8894 -3.2514
  210MOL0     H28932  11.281   9.000   4.420  1.1560 -2.1019  0.4674
  210MOL0     H28933  11.255   9.007   4.594 -1.5938 -0.6996  0.8189
  210MOL0     H28934  11.308   8.772   4.616 -1.2649  1.4399  0.2570
  210MOL0     H28935  11.290   8.743   4.439 -2.3077  1.8519 -0.1363
  210MOL0     H28936  11.513   8.891   4.421  0.4218 -1.0522  0.0356
  210MOL0     H28937  11.483   8.926   4.586  1.4221 -1.1082  1.0288
  210MOL0     H28938  11.717   8.954   4.540 -0.7718  0.2567 -0.7338
  210MOL0     H28939  12.075   8.965   4.506  0.6697 -0.7725  1.2364
  210MOL0     H28940  11.978   9.025   4.654 -2.1342 -0.8897  0.2661
  210MOL0     H28941  11.926   9.054   4.483 -0.1721 -0.5212 -0.8441
  210MOL0     H28942  12.305   8.877   4.378 -0.3223  0.4082 -0.1604
  210MOL0     H28943  12.539   8.892   4.348  0.1081 -0.0599  1.3830
  210MOL0     H28944  12.760   8.910   4.335  0.4223  2.7538 -1.0358
  210MOL0     H28945  12.749   9.050   4.444  1.5124  1.4011  3.0346
  210MOL0     H28946  12.973   8.992   4.526 -0.0926 -2.0344  1.0473
  210MOL0     H28947  12.985   8.869   4.397 -1.8551 -0.2181  0.3697
  210MOL0     H28948  12.927   9.162   4.349  1.7357  0.2681 -1.2646
  210MOL0     H28949  12.936   9.048   4.218  0.3093  1.3399 -0.8517
  210MOL0     H28950  13.177   9.009   4.304  0.0298  0.6951  1.5712
  210MOL0     H28951  13.164   9.135   4.412  1.6742  0.3426 -0.7810
  210MOL0     H28952  13.065   9.278   4.206  0.2816 -0.2727 -0.7996
  210MOL0     H28953  13.238   9.248   4.236 -0.7681  0.8524  1.3713
  210MOL0     H28954  13.069   9.084   4.063 -2.0464  3.0448  2.6010
  210MOL0     H28955  13.245   9.070   4.067  2.2206  1.4670  1.5496
  210MOL0     H28956  13.279   9.308   3.980  0.7945 -1.1925  1.6647
  210MOL0     H28957  13.096   9.316   3.956 -0.9559 -0.0295  1.8526
  210MOL0     H28958  13.299   9.134   3.819 -0.2472 -0.0631 -1.5391
  210MOL0     H28959  13.197   9.262   3.747 -2.2031 -1.0145 -0.5492
  210MOL0     H28960  12.629   8.798   4.751  1.5115 -0.9850 -2.4668
  210MOL0     H28961  12.401   8.746   4.790  1.1889  1.1023  0.3315
  210MOL0     H28962  11.940   8.511   4.537 -1.5323 -0.6653  0.3138
  210MOL0     H28963  11.687   8.521   4.537 -0.9163 -0.1155 -0.1962
  210MOL0     H28964  10.311   8.528   4.911 -0.1562  2.5303  0.1575
  210MOL0     H28965  10.513   8.367   4.977  2.8794  0.4143 -0.2977
  210MOL0     H28966  10.904   8.144   4.844 -1.7647  1.5214  1.6618
  210MOL0     H28967  11.111   8.038   4.869  2.4651  0.8297 -0.3721
  210MOL0     H28968  11.507   8.144   4.955 -0.8764  1.7584  0.7358
  210MOL0     H28969  11.416   8.278   5.006  0.0138  0.7356  3.5240
  210MOL0     H28970  11.483   8.058   5.191 -0.0188 -0.3813 -0.3673
  210MOL0     H28971  11.413   8.227   5.229 -2.6715  0.7076 -2.1419
  210MOL0     H28972  11.674   8.226   5.084 -0.7420 -0.2194 -0.6141
  210MOL0     H28973  11.621   8.329   5.222  1.7807  0.8011 -0.1415
  210MOL0     H28974  11.703   8.039   5.264 -1.0989 -0.1129  2.1468
  210MOL0     H28975  11.667   8.165   5.371 -4.2958 -2.4928 -1.7560
  210MOL0     H28976  12.068   8.276   5.220  0.5410  0.0866  1.3396
  210MOL0     H28977  11.230   8.341   5.148  1.5869 -3.9144  1.8710
  210MOL0     H28978  10.973   8.572   5.078  0.2756  0.1509 -0.6164
  210MOL0     H28979  10.937   8.475   5.222 -1.3478 -3.0886 -0.8495
  210MOL0     H28980  11.103   8.532   5.181  0.0391 -0.5260 -1.9255
  211MOL0     O28981   1.590  10.101   9.236  0.0526 -0.2415  0.4086
  211MOL0     C28982   1.565  10.067   9.115  0.8808  0.3325 -0.1331
  211MOL0     O28983   1.445  10.100   9.040  0.3023  0.0238  0.7275
  211MOL0     C28984   1.344  10.170   9.089  0.3804  0.4982 -0.6977
  211MOL0     C28985   1.287  10.257   9.007 -0.1514 -0.1668  0.3695
  211MOL0     C28986   1.169  10.320   9.041 -0.2415 -0.1359 -0.8303
  211MOL0     C28987   1.126  10.316   9.169 -0.6170  0.1395  0.7608
  211MOL0     O28988   1.026  10.412   9.200 -0.4259  0.1385 -0.6067
  211MOL0     C28989   1.023  10.447   9.335  0.5154  0.2418  0.5849
  211MOL0     C28990   0.896  10.530   9.355  0.2446  0.6656 -0.4209
  211MOL0     C28991   0.774  10.455   9.310 -0.5277  0.2020 -0.9022
  211MOL0     C28992   0.643  10.520   9.352 -0.7495  0.3648 -0.6627
  211MOL0     C28993   0.512  10.445   9.320  0.5476  0.6141  0.1261
  211MOL0     C28994   0.468  10.496   9.179  0.7452  0.0234 -0.1863
  211MOL0     C28995   0.320  10.473   9.167 -0.8005  0.5290  0.6029
  211MOL0     C28996   0.259  10.485   9.023  0.6309  0.2405  0.3052
  211MOL0     N28997   0.285  10.620   8.960 -0.0130 -0.0415 -0.3102
  211MOL0     C28998   0.404  10.647   8.899  1.5669 -0.4797 -0.0529
  211MOL0     C28999   0.382  10.778   8.866 -0.1665  0.2391  0.4833
  211MOL0     C29000   0.474  10.856   8.776  0.5329  0.0916  0.4069
  211MOL0     C29001   0.598  10.890   8.856  0.6867 -0.5874 -0.0096
  211MOL0     C29002   0.698  10.944   8.759  0.1107  0.2597  1.2422
  211MOL0     C29003   0.805  10.838   8.711  0.2028  0.6911 -0.3051
  211MOL0     O29004   0.766  10.732   8.621  0.5267 -0.1670 -0.0048
  211MOL0     C29005   0.836  10.608   8.615 -0.3526 -0.0809 -0.6375
  211MOL0     C29006   0.763  10.496   8.582 -0.0369 -0.2957 -0.7182
  211MOL0     C29007   0.814  10.366   8.608  0.1035  0.2616 -0.7545
  211MOL0     C29008   0.724  10.261   8.578  0.5254 -0.1590  0.1900
  211MOL0     C29009   0.952  10.355   8.647  0.6819 -0.3060  0.4594
  211MOL0     C29010   1.021  10.227   8.679  0.4276 -0.2995 -0.3857
  211MOL0     O29011   1.156  10.230   8.687 -0.0169 -0.7880  0.6617
  211MOL0     C29012   1.238  10.120   8.679  0.8831  0.6372 -0.3511
  211MOL0     C29013   1.354  10.119   8.603 -0.1789  0.1588 -0.2896
  211MOL0     C29014   1.433  10.000   8.606  0.3390 -0.5231  0.6692
  211MOL0     C29015   1.396   9.880   8.662 -0.0495 -0.5089 -0.5283
  211MOL0     O29016   1.469   9.768   8.637 -0.4021  0.1054 -0.4056
  211MOL0     C29017   1.456   9.659   8.731  0.2551 -0.4038 -0.4514
  211MOL0     C29018   1.582   9.584   8.719  0.8887  0.3018 -0.4375
  211MOL0     C29019   1.614   9.473   8.814  0.4295 -1.7568  0.1930
  211MOL0     C29020   1.743   9.399   8.770  0.5533 -0.5288  0.2425
  211MOL0     C29021   1.806   9.300   8.878 -0.5877  0.4161  0.2523
  211MOL0     C29022   1.916   9.369   8.967  0.3239 -0.4774 -0.3478
  211MOL0     C29023   1.840   9.471   9.060  0.0410 -0.2906 -0.0387
  211MOL0     C29024   1.930   9.516   9.171 -1.0380  0.0924 -0.0339
  211MOL0    Cl29025   2.083   9.600   9.119  0.0624  0.5794 -0.7076
  211MOL0     C29026   1.273   9.885   8.734 -1.0871 -0.6333  0.3706
  211MOL0     C29027   1.198  10.000   8.738 -0.5252  0.7617 -0.7889
  211MOL0     O29028   0.957  10.125   8.669 -0.3674 -0.2576 -0.2638
  211MOL0     C29029   1.027  10.470   8.667  1.3765  0.0384 -0.2376
  211MOL0     C29030   0.968  10.595   8.663 -0.4320  0.5133 -0.6217
  211MOL0     N29031   0.260  10.824   8.904  0.0919 -0.3372 -0.1798
  211MOL0     N29032   0.202  10.728   8.966 -0.7924 -0.2376 -0.6668
  211MOL0     C29033   1.194  10.235   9.263  1.0360  0.0522  0.4900
  211MOL0     C29034   1.294  10.149   9.220 -0.6597  0.4370  0.1931
  211MOL0     C29035   1.670   9.998   9.034 -0.5821 -0.0306  0.6856
  211MOL0     C29036   1.638   9.980   8.899  1.1450  0.8287  1.3155
  211MOL0     C29037   1.722   9.913   8.814  0.2512 -0.5929  0.2992
  211MOL0     C29038   1.847   9.863   8.855  0.3141  0.5392  0.2104
  211MOL0     O29039   1.921   9.798   8.760  0.4081  0.5691 -0.4342
  211MOL0     C29040   2.059   9.761   8.800  0.1583  0.5510 -0.4682
  211MOL0     C29041   2.092   9.633   8.719 -0.1536 -0.3501  0.4360
  211MOL0     C29042   2.241   9.616   8.690  0.7815  0.7543  0.5244
  211MOL0     C29043   2.266   9.466   8.656 -0.2901  0.2168 -0.2230
  211MOL0     C29044   2.277   9.398   8.782 -0.2460  0.6887  0.0031
  211MOL0     C29045   2.291   9.349   8.896  0.2100 -0.6360  0.4722
  211MOL0     C29046   1.870   9.871   8.993  0.6457 -1.1530  0.2572
  211MOL0     C29047   1.795   9.952   9.088  0.3008 -1.0331  0.1318
  211MOL0     C29048   1.838   9.963   9.229 -0.1033 -0.2290 -0.1182
  211MOL0     H29049   1.339  10.265   8.912 -1.3020  1.3628 -0.1754
  211MOL0     H29050   1.118  10.384   8.969  0.8658  3.3859  1.3123
  211MOL0     H29051   1.106  10.513   9.359 -1.0906  2.2705  0.8404
  211MOL0     H29052   1.022  10.363   9.405  1.6111 -0.7925 -0.6041
  211MOL0     H29053   0.884  10.547   9.462  3.4390 -0.8912  0.2962
  211MOL0     H29054   0.885  10.621   9.295 -0.0941 -1.1307 -3.2701
  211MOL0     H29055   0.771  10.453   9.200  0.7375  1.6981 -0.9852
  211MOL0     H29056   0.783  10.353   9.348 -0.2767  1.1674  1.8200
  211MOL0     H29057   0.665  10.519   9.460  0.0262  0.4240 -0.8116
  211MOL0     H29058   0.635  10.622   9.314 -0.4209 -0.5983 -3.5899
  211MOL0     H29059   0.434  10.476   9.389  0.4959 -1.4743  1.0974
  211MOL0     H29060   0.522  10.336   9.330 -3.7822 -0.0326 -0.6404
  211MOL0     H29061   0.497  10.600   9.165  0.5047  0.2053  0.6061
  211MOL0     H29062   0.518  10.440   9.100  2.3613  2.7439 -1.2042
  211MOL0     H29063   0.262  10.539   9.232 -2.9322 -0.3935 -0.2762
  211MOL0     H29064   0.301  10.370   9.197 -1.3487  0.7750  1.1147
  211MOL0     H29065   0.281  10.397   8.963 -0.0987 -0.6419  1.3009
  211MOL0     H29066   0.150  10.471   9.030  1.0027 -2.1405  2.6642
  211MOL0     H29067   0.490  10.589   8.867  1.2173  1.0029 -4.4466
  211MOL0     H29068   0.412  10.941   8.748 -1.1303 -0.5098  2.0656
  211MOL0     H29069   0.503  10.793   8.691  0.2438 -2.4715  2.1058
  211MOL0     H29070   0.581  10.976   8.921  3.0001  0.4105 -0.6244
  211MOL0     H29071   0.636  10.811   8.921  0.6586 -0.4285  0.1983
  211MOL0     H29072   0.666  10.999   8.670 -2.0024 -2.6437  0.0355
  211MOL0     H29073   0.755  11.014   8.820  1.6668 -2.0322  2.6036
  211MOL0     H29074   0.884  10.888   8.654  1.4809 -1.5639 -0.6243
  211MOL0     H29075   0.853  10.796   8.800 -4.0721 -1.3249  1.3492
  211MOL0     H29076   0.657  10.511   8.561  0.0131  2.8486  0.6334
  211MOL0     H29077   0.685  10.219   8.671  0.4895 -1.7756 -0.5217
  211MOL0     H29078   0.760  10.175   8.521  0.6717 -1.2643  1.8786
  211MOL0     H29079   0.638  10.295   8.518 -0.4027 -1.9659  0.4299
  211MOL0     H29080   1.389  10.204   8.546  1.4541  0.3291  0.9037
  211MOL0     H29081   1.521  10.004   8.542 -0.3777  1.2176 -0.2815
  211MOL0     H29082   1.465   9.707   8.829  0.4283  2.0817 -1.5946
  211MOL0     H29083   1.366   9.597   8.738 -1.7786  2.4941  1.9408
  211MOL0     H29084   1.582   9.538   8.620  3.5163 -1.9525  0.4844
  211MOL0     H29085   1.666   9.654   8.728  0.4920  0.7669 -0.3093
  211MOL0     H29086   1.544   9.392   8.794  0.3685 -1.8075  0.5957
  211MOL0     H29087   1.612   9.503   8.920  0.0219 -3.0675  0.5720
  211MOL0     H29088   1.816   9.477   8.746 -1.0068  0.6789 -0.8019
  211MOL0     H29089   1.729   9.338   8.680  0.0027 -2.4479  1.5859
  211MOL0     H29090   1.730   9.267   8.950 -0.3796 -0.9698 -0.1224
  211MOL0     H29091   1.856   9.217   8.826  2.9747  2.1312  0.6192
  211MOL0     H29092   1.995   9.405   8.900  0.1727  0.3810 -0.0847
  211MOL0     H29093   1.959   9.285   9.021  1.5599  0.1677 -0.2912
  211MOL0     H29094   1.758   9.425   9.117  0.0078 -0.7571 -0.4569
  211MOL0     H29095   1.812   9.562   9.006 -0.6226  0.8371  2.1042
  211MOL0     H29096   1.959   9.427   9.228  0.2773  0.8820  0.5545
  211MOL0     H29097   1.873   9.582   9.237  2.0740  0.7189  2.2485
  211MOL0     H29098   1.223   9.797   8.772 -2.0486 -0.4866 -0.5156
  211MOL0     H29099   1.104   9.998   8.791 -0.9675 -2.0614 -1.5482
  211MOL0     H29100   1.130  10.472   8.701  1.1019 -0.1305  0.6428
  211MOL0     H29101   1.023  10.679   8.705 -1.0861 -0.2387  1.8935
  211MOL0     H29102   1.171  10.236   9.369 -1.7464  0.7188 -0.0387
  211MOL0     H29103   1.338  10.080   9.291  0.5250  1.0317  0.0756
  211MOL0     H29104   1.546  10.020   8.858 -0.0244 -1.8221  1.1324
  211MOL0     H29105   1.703   9.901   8.708  1.1021 -1.0251  0.1866
  211MOL0     H29106   2.127   9.841   8.769 -1.5098  1.9802 -0.5709
  211MOL0     H29107   2.075   9.745   8.907 -4.1884  0.9063  0.4068
  211MOL0     H29108   2.054   9.656   8.619  1.6210  3.0176  0.3766
  211MOL0     H29109   2.038   9.551   8.766  0.3119  0.1239  1.8599
  211MOL0     H29110   2.259   9.678   8.602  1.0200  2.5811  1.8110
  211MOL0     H29111   2.299   9.648   8.777 -0.1431  0.8974  1.0948
  211MOL0     H29112   2.362   9.447   8.608 -0.0015 -1.7030  0.9985
  211MOL0     H29113   2.194   9.428   8.583 -1.0990 -3.9554  2.4021
  211MOL0     H29114   2.297   9.298   8.990 -1.7069 -2.3867 -0.2785
  211MOL0     H29115   1.941   9.802   9.037  0.6982 -1.7053 -0.6617
  211MOL0     H29116   1.926   9.901   9.250  2.5796  2.4888 -2.4882
  211MOL0     H29117   1.865  10.066   9.255 -2.5673  0.4294  0.0165
  211MOL0     H29118   1.755   9.923   9.288 -0.0759 -2.1595 -1.3111
  212MOL0     O29119  10.317   1.734   9.042  0.2587  0.0133  0.5178
  212MOL0     C29120  10.332   1.810   8.950  0.1504 -0.3216 -0.0845
  212MOL0     O29121  10.239   1.908   8.927  0.2742 -0.0729  0.5863
  212MOL0     C29122  10.153   1.940   9.036 -0.2964 -0.3929  0.2043
  212MOL0     C29123  10.021   1.965   9.001 -0.0719 -0.1727  0.5951
  212MOL0     C29124   9.926   2.003   9.102 -0.7372  0.1060  0.0125
  212MOL0     C29125   9.959   2.007   9.234  0.1580 -0.5095 -0.3160
  212MOL0     O29126   9.878   2.043   9.337 -0.3970  0.6142 -0.7208
  212MOL0     C29127   9.765   2.128   9.311  0.3551 -0.2215 -0.3851
  212MOL0     C29128   9.687   2.149   9.443 -0.3670  0.3640  0.6550
  212MOL0     C29129   9.607   2.035   9.493  0.4008  0.4130  0.1645
  212MOL0     C29130   9.510   2.084   9.595 -0.0073  0.1552  0.8234
  212MOL0     C29131   9.434   1.982   9.677 -0.0967  0.0229 -1.2307
  212MOL0     C29132   9.399   2.046   9.818 -0.4834 -0.3943  0.2174
  212MOL0     C29133   9.343   1.952   9.933  0.0733 -0.4015 -0.7542
  212MOL0     C29134   9.426   1.830   9.963 -0.2256 -0.0514  1.0664
  212MOL0     N29135   9.342   1.732  10.034 -0.7174  0.3184  0.1465
  212MOL0     C29136   9.250   1.659   9.976 -0.0168  1.2017 -0.7146
  212MOL0     C29137   9.179   1.615  10.085 -0.4169  0.4559 -0.2340
  212MOL0     C29138   9.068   1.519  10.081  0.2795 -0.0292 -0.0439
  212MOL0     C29139   9.076   1.401   9.975 -0.7977 -0.4984 -0.5450
  212MOL0     C29140   8.930   1.354   9.953 -0.7335 -0.8225  0.0018
  212MOL0     C29141   8.928   1.244   9.841 -0.2543  0.2359  1.0120
  212MOL0     O29142   9.005   1.286   9.726  0.2959 -0.5462 -0.0706
  212MOL0     C29143   9.012   1.215   9.608  0.4489 -0.1310 -1.2558
  212MOL0     C29144   9.082   1.278   9.510 -0.1018 -0.1593 -0.6866
  212MOL0     C29145   9.126   1.213   9.389 -0.2068 -0.6281 -0.1791
  212MOL0     C29146   9.208   1.291   9.288  0.0802 -0.3431 -0.3872
  212MOL0     C29147   9.093   1.074   9.377  0.3169 -0.2314 -0.1292
  212MOL0     C29148   9.140   0.989   9.266  1.1104  0.2692  0.1055
  212MOL0     O29149   9.225   1.036   9.175 -0.1731 -0.6238 -0.0295
  212MOL0     C29150   9.244   0.973   9.057 -0.1584 -0.7409 -0.6282
  212MOL0     C29151   9.363   0.915   9.042 -0.7212 -0.1676  0.7562
  212MOL0     C29152   9.391   0.833   8.923 -0.0990 -0.1148 -0.5853
  212MOL0     C29153   9.295   0.815   8.823 -0.1803  0.1666 -0.6931
  212MOL0     O29154   9.329   0.764   8.703 -0.5386  0.4997 -0.4192
  212MOL0     C29155   9.425   0.657   8.680 -0.1413  0.2613  0.3266
  212MOL0     C29156   9.400   0.535   8.763  0.0648  0.9499  0.0742
  212MOL0     C29157   9.506   0.435   8.714  0.1051  0.4930 -0.2517
  212MOL0     C29158   9.642   0.447   8.785  0.1335  0.3616  0.0896
  212MOL0     C29159   9.740   0.353   8.730 -0.3519  0.5985 -0.4070
  212MOL0     C29160   9.827   0.425   8.629  0.1858 -0.9375  0.4050
  212MOL0     C29161   9.937   0.332   8.585 -0.7022  0.0073  0.3357
  212MOL0     C29162  10.014   0.381   8.467  0.4894  0.0597 -0.2070
  212MOL0    Cl29163   9.925   0.390   8.308  0.0857  0.4473  0.2938
  212MOL0     C29164   9.177   0.882   8.846  0.2411 -0.5508  0.3797
  212MOL0     C29165   9.151   0.946   8.964  0.3097 -0.4431 -0.3824
  212MOL0     O29166   9.091   0.884   9.261 -0.0316  0.3415  0.1419
  212MOL0     C29167   9.013   1.011   9.481 -1.2168  0.1071 -0.7208
  212MOL0     C29168   8.974   1.077   9.592 -0.4863  0.1246  0.6269
  212MOL0     N29169   9.243   1.657  10.201  0.1476  0.2917 -0.2138
  212MOL0     N29170   9.341   1.721  10.171 -0.2179 -0.0682  0.1318
  212MOL0     C29171  10.091   1.986   9.274 -0.1011  0.0859  0.7267
  212MOL0     C29172  10.190   1.955   9.175 -0.3567  0.5725 -0.5889
  212MOL0     C29173  10.451   1.792   8.867 -0.6307 -0.1887 -0.2212
  212MOL0     C29174  10.509   1.660   8.885  0.2986 -0.1091  0.4456
  212MOL0     C29175  10.634   1.632   8.826  0.4128  0.5678 -0.7987
  212MOL0     C29176  10.705   1.729   8.749 -0.3690 -1.0684  0.0911
  212MOL0     O29177  10.825   1.721   8.690  0.0119 -0.0233 -0.2517
  212MOL0     C29178  10.920   1.638   8.768 -0.2442 -0.0303  0.2373
  212MOL0     C29179  11.055   1.636   8.693  0.2203  0.6128 -0.8672
  212MOL0     C29180  11.145   1.522   8.750  0.3563  0.9872 -0.1326
  212MOL0     C29181  11.118   1.376   8.699 -0.2668 -0.1602 -0.7191
  212MOL0     C29182  11.116   1.376   8.549  0.1561  0.1843 -0.2246
  212MOL0     C29183  11.120   1.385   8.430 -0.6076  0.1548  0.2689
  212MOL0     C29184  10.647   1.857   8.740 -0.3382  0.1981 -1.1462
  212MOL0     C29185  10.528   1.896   8.806  0.0594  0.5554  0.3005
  212MOL0     C29186  10.499   2.034   8.797 -0.2969  0.0620  0.3633
  212MOL0     H29187  10.000   1.939   8.898  1.4850 -0.4158  0.3084
  212MOL0     H29188   9.821   2.006   9.077 -1.3670 -0.5035  2.4069
  212MOL0     H29189   9.699   2.077   9.240  1.3603 -2.6178  0.2991
  212MOL0     H29190   9.802   2.227   9.283  1.3017  0.4179  2.7274
  212MOL0     H29191   9.758   2.182   9.519 -1.0480  0.7050  1.1603
  212MOL0     H29192   9.622   2.233   9.418 -1.2316 -1.1841 -2.9159
  212MOL0     H29193   9.559   1.974   9.415 -1.1547  2.9247 -1.0087
  212MOL0     H29194   9.666   1.964   9.551  0.4074  0.5215  0.2896
  212MOL0     H29195   9.567   2.145   9.666 -1.6116  1.2064  1.2646
  212MOL0     H29196   9.447   2.156   9.542 -0.1525 -0.3215  0.3291
  212MOL0     H29197   9.501   1.901   9.707 -1.9667 -0.0336  3.7345
  212MOL0     H29198   9.348   1.931   9.633  0.5629 -0.3330 -2.1596
  212MOL0     H29199   9.481   2.100   9.867 -2.8167  2.8905  0.9093
  212MOL0     H29200   9.328   2.128   9.801  1.4689  1.2327 -0.3899
  212MOL0     H29201   9.239   1.926   9.911  0.7244 -0.7758 -3.7458
  212MOL0     H29202   9.337   2.008  10.027  0.1148 -1.6637  0.0199
  212MOL0     H29203   9.461   1.779   9.873  2.2497 -0.3233  2.0947
  212MOL0     H29204   9.514   1.850  10.025  2.2434 -1.1668 -1.8160
  212MOL0     H29205   9.225   1.644   9.871 -0.7594 -0.4603 -0.3269
  212MOL0     H29206   8.975   1.576  10.067  0.7157  1.0702  1.2365
  212MOL0     H29207   9.064   1.464  10.176 -0.9099  0.9550  0.5216
  212MOL0     H29208   9.124   1.432   9.882 -1.8185  0.1058 -0.8859
  212MOL0     H29209   9.133   1.320  10.021  1.7004 -0.4507 -3.2347
  212MOL0     H29210   8.887   1.319  10.047 -1.1200 -0.1917  0.0674
  212MOL0     H29211   8.877   1.439   9.909  0.7944  0.2926  0.2242
  212MOL0     H29212   8.968   1.147   9.871 -2.1741 -1.5032 -1.6083
  212MOL0     H29213   8.829   1.228   9.797 -0.7721  1.3026  1.7223
  212MOL0     H29214   9.106   1.381   9.532 -2.0805  0.2564 -0.3567
  212MOL0     H29215   9.190   1.257   9.186  1.2456 -0.2523 -0.6397
  212MOL0     H29216   9.317   1.294   9.303  0.2259  1.2489 -1.5164
  212MOL0     H29217   9.163   1.390   9.277 -2.5702 -1.4301  0.0848
  212MOL0     H29218   9.441   0.912   9.117  0.8797 -0.4015 -0.8282
  212MOL0     H29219   9.487   0.788   8.903 -0.7995 -1.5477 -0.8198
  212MOL0     H29220   9.415   0.616   8.579 -1.5726 -2.9794  1.6487
  212MOL0     H29221   9.532   0.679   8.673  0.0424 -0.9647 -2.0082
  212MOL0     H29222   9.406   0.546   8.872  1.4007  1.9185 -0.0687
  212MOL0     H29223   9.302   0.499   8.733  1.5456 -2.7090 -0.9726
  212MOL0     H29224   9.515   0.441   8.605 -2.3811  3.6096 -0.4138
  212MOL0     H29225   9.470   0.333   8.732  0.5965  0.4047  0.2723
  212MOL0     H29226   9.627   0.430   8.892  0.5297  1.4154  0.3226
  212MOL0     H29227   9.681   0.549   8.788  0.1467  0.3679 -0.2211
  212MOL0     H29228   9.802   0.323   8.815  0.0155  4.4661  0.8464
  212MOL0     H29229   9.706   0.251   8.707 -0.6563  0.8664 -1.1686
  212MOL0     H29230   9.874   0.515   8.670 -0.6492 -0.2553 -0.0994
  212MOL0     H29231   9.770   0.469   8.546  1.4311  0.9312  0.4871
  212MOL0     H29232   9.903   0.231   8.560  0.5820 -0.4192  0.1990
  212MOL0     H29233  10.013   0.309   8.661  0.7089  0.2135 -0.9490
  212MOL0     H29234  10.100   0.316   8.447 -1.6856 -3.1488  0.1305
  212MOL0     H29235  10.049   0.483   8.490  0.2765 -0.2169  1.5009
  212MOL0     H29236   9.099   0.878   8.771  0.9124 -0.5421 -0.3256
  212MOL0     H29237   9.049   0.980   8.982  0.4561  0.2554 -0.8436
  212MOL0     H29238   8.984   0.906   9.478  0.6473 -0.4219 -2.6632
  212MOL0     H29239   8.912   1.030   9.667 -1.5335  1.9477  0.9799
  212MOL0     H29240  10.118   1.978   9.379 -0.7912  0.0486  0.9025
  212MOL0     H29241  10.290   1.921   9.201 -0.0312  0.6223 -1.7013
  212MOL0     H29242  10.464   1.584   8.947  2.0444 -4.1326 -2.7773
  212MOL0     H29243  10.678   1.534   8.843  1.3394  1.4322  2.3870
  212MOL0     H29244  10.931   1.677   8.869  1.2609  0.5493 -0.1094
  212MOL0     H29245  10.874   1.540   8.781 -0.8175  0.3372  1.0411
  212MOL0     H29246  11.104   1.733   8.704  1.2678  0.0456 -0.4335
  212MOL0     H29247  11.041   1.620   8.585 -0.7149  1.2675 -0.8603
  212MOL0     H29248  11.246   1.556   8.729  0.6733  0.6463  0.7864
  212MOL0     H29249  11.140   1.510   8.859 -0.3047  3.1138  0.1268
  212MOL0     H29250  11.037   1.320   8.748  0.4778 -2.5841 -2.0844
  212MOL0     H29251  11.200   1.311   8.731 -0.5445  0.5743  1.6871
  212MOL0     H29252  11.144   1.402   8.327  4.0083 -2.9934  0.4969
  212MOL0     H29253  10.705   1.936   8.693 -1.5070  1.1897 -0.9587
  212MOL0     H29254  10.409   2.054   8.739 -2.2762  0.8624  3.4719
  212MOL0     H29255  10.493   2.064   8.903 -0.1991 -2.3778  1.1147
  212MOL0     H29256  10.580   2.102   8.767 -2.7580  1.6033 -3.4686
  213MOL0     O29257   5.210  11.026   9.073 -0.8158  0.2573  0.1161
  213MOL0     C29258   5.083  11.036   9.067 -0.2200 -0.0416 -0.2437
  213MOL0     O29259   4.995  11.049   9.180 -0.1893 -1.2471  0.2762
  213MOL0     C29260   5.049  11.027   9.309  1.0482 -0.2082 -0.3605
  213MOL0     C29261   4.958  11.063   9.414  0.0877 -0.7370 -0.1603
  213MOL0     C29262   4.981  11.048   9.553 -0.0198 -0.2999  1.1151
  213MOL0     C29263   5.092  10.976   9.596 -0.5347  0.0735  0.7672
  213MOL0     O29264   5.089  10.942   9.728 -0.5724 -0.2570  0.0677
  213MOL0     C29265   5.120  10.803   9.757 -0.3242 -0.0800  0.2682
  213MOL0     C29266   5.161  10.788   9.907 -0.0128 -0.0977  0.2700
  213MOL0     C29267   5.303  10.847   9.938  0.0777  0.1252  0.4551
  213MOL0     C29268   5.311  10.872  10.082 -0.2059  0.0494  0.0458
  213MOL0     C29269   5.451  10.858  10.130 -0.2942 -0.1117  1.0286
  213MOL0     C29270   5.475  10.935  10.257  0.1242 -0.7615  0.4189
  213MOL0     C29271   5.623  10.914  10.313  0.8616  0.5355  0.0235
  213MOL0     C29272   5.665  10.969  10.457  0.2553 -0.5091  0.1500
  213MOL0     N29273   5.579  10.908  10.561 -0.6763 -0.0942 -0.8022
  213MOL0     C29274   5.584  10.769  10.586 -0.6289  0.0779  0.7614
  213MOL0     C29275   5.471  10.742  10.661 -0.5611 -0.5670  0.3430
  213MOL0     C29276   5.409  10.602  10.691  0.3620 -0.1186  0.5969
  213MOL0     C29277   5.469  10.546  10.827 -0.2763 -0.5608  0.4298
  213MOL0     C29278   5.590  10.455  10.795 -0.4226 -0.4887 -0.0120
  213MOL0     C29279   5.688  10.444  10.913 -0.7122 -0.4482 -0.3477
  213MOL0     O29280   5.755  10.563  10.906 -0.4517  0.2011  0.3776
  213MOL0     C29281   5.859  10.600  10.988 -1.2066 -0.3726  0.4001
  213MOL0     C29282   5.898  10.522  11.100 -0.1892 -0.6761  0.5764
  213MOL0     C29283   6.019  10.544  11.172  0.7496 -0.6688 -0.4591
  213MOL0     C29284   6.050  10.440  11.276  0.0706  0.9718  0.6266
  213MOL0     C29285   6.083  10.667  11.148  0.0722  1.3022  0.6075
  213MOL0     C29286   6.218  10.701  11.201  0.6433 -0.5140 -0.2986
  213MOL0     O29287   6.228  10.840  11.227  0.4528 -0.1492  1.1048
  213MOL0     C29288   6.342  10.894  11.183  0.1741 -0.0991 -0.6430
  213MOL0     C29289   6.355  10.934  11.051  0.0270 -0.0098  0.9787
  213MOL0     C29290   6.479  10.987  11.018  0.1026 -2.1648  0.1047
  213MOL0     C29291   6.585  10.994  11.110  1.4769  0.2331  0.0572
  213MOL0     O29292   6.710  11.050  11.069  0.5848  0.0511 -0.1645
  213MOL0     C29293   6.805  11.114  11.161  0.0166  0.5926  0.5265
  213MOL0     C29294   6.842  11.255  11.114  0.1096 -0.2983  0.3647
  213MOL0     C29295   6.913  11.260  10.985 -1.0152  0.6620  1.0028
  213MOL0     C29296   6.908  11.398  10.918  1.0785 -0.8276 -0.7000
  213MOL0     C29297   7.004  11.414  10.803  0.6433 -0.0182  0.0716
  213MOL0     C29298   7.134  11.488  10.824 -1.1184  0.2503  0.6962
  213MOL0     C29299   7.184  11.568  10.704 -1.1597 -0.4028  0.4137
  213MOL0     C29300   7.307  11.649  10.734 -0.8392 -0.7878 -0.4996
  213MOL0    Cl29301   7.368  11.722  10.582  0.6924  0.0543  0.9620
  213MOL0     C29302   6.570  10.951  11.243  0.0533  0.7069  0.0286
  213MOL0     C29303   6.445  10.909  11.282  0.0542  0.2779 -0.0151
  213MOL0     O29304   6.308  10.617  11.193 -0.1802 -0.2163 -0.3722
  213MOL0     C29305   6.029  10.755  11.054  0.0931  0.9688 -0.2187
  213MOL0     C29306   5.919  10.724  10.969  0.6500  0.3284  0.1306
  213MOL0     N29307   5.407  10.861  10.684 -0.1762  0.5470 -0.2594
  213MOL0     N29308   5.472  10.961  10.628  0.2705 -0.2772  0.6883
  213MOL0     C29309   5.185  10.931   9.502  0.1183 -0.7059 -0.0997
  213MOL0     C29310   5.169  10.962   9.364 -0.0838  0.4180 -0.4297
  213MOL0     C29311   5.032  11.039   8.926  0.2641 -0.9841  0.7528
  213MOL0     C29312   5.084  11.141   8.840  0.2380 -0.0500  0.1315
  213MOL0     C29313   5.025  11.166   8.714  0.1802  0.5505 -1.0823
  213MOL0     C29314   4.916  11.099   8.669  0.0248  0.5051  0.2845
  213MOL0     O29315   4.879  11.118   8.532 -0.2983  0.2500 -0.1686
  213MOL0     C29316   4.775  11.039   8.475 -0.2679  0.4835  0.1389
  213MOL0     C29317   4.643  11.093   8.502  0.5852  0.5508  0.0182
  213MOL0     C29318   4.613  11.223   8.429  0.1669  0.6626  0.2716
  213MOL0     C29319   4.468  11.268   8.430  0.6321 -0.1858  1.6853
  213MOL0     C29320   4.438  11.358   8.545  0.2179  0.8327  0.0469
  213MOL0     C29321   4.422  11.440   8.635 -1.0816 -0.1935 -0.3354
  213MOL0     C29322   4.850  11.014   8.769  0.6445 -0.5716  0.7785
  213MOL0     C29323   4.913  10.975   8.887  0.3403 -0.3403 -0.2829
  213MOL0     C29324   4.842  10.874   8.980  0.6841  1.2085 -0.2454
  213MOL0     H29325   4.871  11.122   9.386  1.0137  1.6670  1.6220
  213MOL0     H29326   4.909  11.089   9.623  0.9347 -0.5985  2.3137
  213MOL0     H29327   5.192  10.754   9.691  0.8950  2.8274 -0.7321
  213MOL0     H29328   5.025  10.750   9.753 -1.0274  0.9170  2.4903
  213MOL0     H29329   5.095  10.841   9.976 -0.4296 -2.8249  2.1055
  213MOL0     H29330   5.147  10.680   9.919  0.5951 -0.4066 -1.5531
  213MOL0     H29331   5.382  10.782   9.898 -1.8187 -0.7712 -2.0994
  213MOL0     H29332   5.321  10.943   9.890  1.6526  0.1736  1.0820
  213MOL0     H29333   5.269  10.970  10.108  1.7346  0.7894  0.5297
  213MOL0     H29334   5.252  10.802  10.143 -0.9936  0.9019  0.2814
  213MOL0     H29335   5.517  10.909  10.058 -1.7981  0.0398 -0.3106
  213MOL0     H29336   5.481  10.753  10.135 -2.7978 -1.1705 -2.3053
  213MOL0     H29337   5.464  11.042  10.240 -0.2895 -0.5345  1.9734
  213MOL0     H29338   5.401  10.904  10.331 -0.0967  0.3961  0.6896
  213MOL0     H29339   5.686  10.963  10.238  1.3794  0.7225  0.5733
  213MOL0     H29340   5.649  10.808  10.321  1.3588  0.8008  3.0472
  213MOL0     H29341   5.772  10.961  10.478  0.4800 -1.0457 -1.0999
  213MOL0     H29342   5.643  11.076  10.459 -4.5020 -1.2801  1.7410
  213MOL0     H29343   5.652  10.694  10.547 -0.3958  1.2111 -1.1195
  213MOL0     H29344   5.427  10.537  10.604 -1.9714 -2.0213  1.4122
  213MOL0     H29345   5.301  10.606  10.710  0.5621 -2.0396  2.6663
  213MOL0     H29346   5.493  10.632  10.890 -2.0157  0.8613 -0.7200
  213MOL0     H29347   5.382  10.501  10.875 -1.2846 -1.1718 -1.8365
  213MOL0     H29348   5.556  10.357  10.761 -0.2047 -1.5909  2.6761
  213MOL0     H29349   5.635  10.509  10.711  0.8672 -2.0876 -0.3908
  213MOL0     H29350   5.634  10.417  11.004 -0.8230 -3.0625 -1.1003
  213MOL0     H29351   5.761  10.364  10.898  3.6280  3.0098  0.2195
  213MOL0     H29352   5.842  10.432  11.125  1.8645 -1.7426  1.6010
  213MOL0     H29353   6.158  10.447  11.292 -0.1577  3.2325  1.4931
  213MOL0     H29354   6.021  10.337  11.251  0.1101  0.5494  2.2310
  213MOL0     H29355   5.996  10.462  11.368 -1.4632  1.2221 -0.2991
  213MOL0     H29356   6.273  10.935  10.980  0.2329 -1.2676  0.6910
  213MOL0     H29357   6.514  11.017  10.920  3.2412 -2.6163  0.9812
  213MOL0     H29358   6.755  11.130  11.256  0.3777 -0.5767  0.9261
  213MOL0     H29359   6.896  11.056  11.178  0.2575  0.7675 -0.1145
  213MOL0     H29360   6.749  11.312  11.104 -0.0199 -0.7294 -1.2140
  213MOL0     H29361   6.907  11.303  11.187 -2.3509  0.5906  2.0983
  213MOL0     H29362   6.856  11.201  10.914  1.2882 -0.2156 -0.2460
  213MOL0     H29363   7.011  11.212  11.001 -0.3324  2.1536  1.4995
  213MOL0     H29364   6.919  11.478  10.993 -0.2505 -0.9769 -0.3312
  213MOL0     H29365   6.808  11.412  10.877  0.7560  1.9611  0.7684
  213MOL0     H29366   7.030  11.313  10.772  3.3392  0.6273 -0.0248
  213MOL0     H29367   6.952  11.462  10.719 -1.3686 -2.3390 -0.1085
  213MOL0     H29368   7.212  11.416  10.852 -1.3451 -1.2444 -2.1690
  213MOL0     H29369   7.132  11.548  10.916  4.4763  0.9732  0.7141
  213MOL0     H29370   7.107  11.635  10.663  2.0054  1.3857 -3.2360
  213MOL0     H29371   7.208  11.501  10.621 -0.7673  1.5461 -1.1445
  213MOL0     H29372   7.379  11.578  10.774  0.1359  1.0562  1.2029
  213MOL0     H29373   7.299  11.722  10.816  1.7941 -0.2968 -0.5946
  213MOL0     H29374   6.657  10.948  11.309  0.6307 -2.4053 -0.7249
  213MOL0     H29375   6.424  10.874  11.383 -0.4478 -6.1015 -1.8657
  213MOL0     H29376   6.074  10.852  11.034  2.8473  0.3557  2.4152
  213MOL0     H29377   5.897  10.786  10.883 -0.4959 -0.6443 -0.2979
  213MOL0     H29378   5.275  10.877   9.532 -1.4152 -2.7388  1.1299
  213MOL0     H29379   5.243  10.925   9.294 -2.0180 -1.1235 -1.7763
  213MOL0     H29380   5.173  11.195   8.871  0.7897 -1.6456  1.4777
  213MOL0     H29381   5.088  11.213   8.639  1.4093 -0.1262 -0.5237
  213MOL0     H29382   4.778  11.032   8.366 -4.3292 -0.2586 -0.0750
  213MOL0     H29383   4.776  10.937   8.515  0.2156 -0.5256 -2.2644
  213MOL0     H29384   4.622  11.097   8.609 -4.3108 -0.2209 -0.7007
  213MOL0     H29385   4.581  11.011   8.464  1.1343 -1.5190  3.2631
  213MOL0     H29386   4.685  11.301   8.454  2.6347 -1.5761  0.5894
  213MOL0     H29387   4.638  11.192   8.328 -2.9705 -1.8405  0.0873
  213MOL0     H29388   4.400  11.182   8.430  1.6449 -1.1268 -1.6105
  213MOL0     H29389   4.463  11.319   8.334 -0.8233 -0.1634  1.7568
  213MOL0     H29390   4.429  11.517   8.709 -1.0930 -1.8588  1.4894
  213MOL0     H29391   4.763  10.963   8.729  1.4674 -1.3795 -0.0320
  213MOL0     H29392   4.836  10.780   8.925 -2.0105  0.5448  0.9905
  213MOL0     H29393   4.894  10.855   9.074  2.3171 -1.1019 -1.5227
  213MOL0     H29394   4.741  10.911   9.004  0.4865 -0.1042  1.0784
  214MOL0     O29395   7.738   4.171   5.999  0.9776 -0.7023  0.2502
  214MOL0     C29396   7.682   4.275   5.991  0.0337 -0.0518 -0.6814
  214MOL0     O29397   7.551   4.295   5.944  0.3622  0.1833  0.0213
  214MOL0     C29398   7.473   4.191   5.901 -0.4048 -0.1908 -0.6212
  214MOL0     C29399   7.518   4.076   5.843 -0.4055 -0.9007 -0.3748
  214MOL0     C29400   7.432   3.969   5.821 -0.2912  0.8666 -0.0724
  214MOL0     C29401   7.298   3.973   5.865 -0.5337  0.2326  0.8093
  214MOL0     O29402   7.224   3.862   5.852  0.7439 -0.0080 -0.3283
  214MOL0     C29403   7.125   3.832   5.948 -0.3902  0.5156 -0.2526
  214MOL0     C29404   7.073   3.693   5.914  0.9116 -0.2339 -0.7421
  214MOL0     C29405   6.993   3.621   6.023 -0.1742 -0.7722 -0.7077
  214MOL0     C29406   6.859   3.697   6.050 -0.6025  0.1518  0.0160
  214MOL0     C29407   6.764   3.620   6.144 -0.2294  0.7177 -0.4508
  214MOL0     C29408   6.645   3.720   6.175  0.3171  0.1048  0.3132
  214MOL0     C29409   6.659   3.811   6.299 -0.2745 -0.0861 -0.6601
  214MOL0     C29410   6.522   3.893   6.319 -0.2750  0.7836  0.3411
  214MOL0     N29411   6.400   3.822   6.334 -0.0450  0.0477  0.3394
  214MOL0     C29412   6.293   3.834   6.250 -0.0323  1.0294  0.0893
  214MOL0     C29413   6.195   3.761   6.303 -0.3896  0.6220 -0.2292
  214MOL0     C29414   6.045   3.777   6.267 -0.1108 -0.0912  1.0937
  214MOL0     C29415   5.956   3.867   6.363  0.2655  0.0331 -0.2354
  214MOL0     C29416   5.801   3.856   6.340  1.0880 -0.1069  0.4710
  214MOL0     C29417   5.769   3.842   6.196  0.3135  1.0892  0.6300
  214MOL0     O29418   5.627   3.869   6.166  0.2853 -0.1841 -0.2947
  214MOL0     C29419   5.532   3.767   6.172 -0.6743 -0.5979 -0.4591
  214MOL0     C29420   5.568   3.639   6.216 -0.2371  0.8969 -0.5593
  214MOL0     C29421   5.483   3.525   6.196 -0.6839  0.0055 -0.2328
  214MOL0     C29422   5.549   3.387   6.238 -0.9307 -0.9815  0.4194
  214MOL0     C29423   5.348   3.542   6.139 -2.1732 -0.5750 -0.3136
  214MOL0     C29424   5.246   3.442   6.131 -0.3982 -0.6948 -0.1101
  214MOL0     O29425   5.120   3.486   6.115  0.8002 -0.9289 -0.2879
  214MOL0     C29426   5.011   3.412   6.143 -0.7264  0.4553 -0.5507
  214MOL0     C29427   4.918   3.363   6.049  0.0101  0.3830  0.1210
  214MOL0     C29428   4.806   3.287   6.084 -0.0891 -0.8692 -0.1363
  214MOL0     C29429   4.775   3.271   6.222 -1.5562 -0.5462 -0.0708
  214MOL0     O29430   4.660   3.207   6.256  0.3765 -0.0740  0.0221
  214MOL0     C29431   4.567   3.270   6.346  0.3440  0.1496 -0.8543
  214MOL0     C29432   4.509   3.395   6.278 -0.8860  0.4392 -0.7255
  214MOL0     C29433   4.430   3.493   6.379  0.1088  0.0841 -0.4371
  214MOL0     C29434   4.355   3.415   6.482 -0.4771 -0.6194 -0.7341
  214MOL0     C29435   4.249   3.510   6.544 -0.0572 -0.1495 -0.1071
  214MOL0     C29436   4.155   3.446   6.649  0.5122  0.7945 -0.6317
  214MOL0     C29437   4.041   3.527   6.707 -0.3822  0.4785 -0.4509
  214MOL0     C29438   3.959   3.614   6.604 -0.0119 -1.1260 -1.1315
  214MOL0    Cl29439   3.817   3.689   6.689 -0.2961 -0.1364  0.3324
  214MOL0     C29440   4.870   3.312   6.322  0.2099 -0.1836  1.0232
  214MOL0     C29441   4.983   3.392   6.276  0.3869 -0.5503 -1.1889
  214MOL0     O29442   5.271   3.328   6.130 -0.3364 -0.5451 -0.3078
  214MOL0     C29443   5.317   3.676   6.104  0.0047  0.2175 -0.7673
  214MOL0     C29444   5.409   3.786   6.112  0.5051 -0.1893 -0.1266
  214MOL0     N29445   6.254   3.717   6.429 -0.6441 -1.0731  0.5702
  214MOL0     N29446   6.375   3.740   6.437  0.1351 -0.0984 -0.1690
  214MOL0     C29447   7.254   4.096   5.920  0.3186 -0.4753 -0.6364
  214MOL0     C29448   7.338   4.201   5.936 -0.8412 -0.1955  0.3262
  214MOL0     C29449   7.752   4.393   6.033  0.0547 -0.0814  0.4369
  214MOL0     C29450   7.682   4.514   6.047  0.0884 -0.3136 -0.5761
  214MOL0     C29451   7.738   4.627   6.107  0.3998  0.1850 -0.1107
  214MOL0     C29452   7.868   4.625   6.157 -0.3373 -0.7462 -0.4075
  214MOL0     O29453   7.919   4.741   6.211  0.1416 -0.5936  0.3046
  214MOL0     C29454   7.998   4.723   6.330 -0.5181 -0.1582 -0.7196
  214MOL0     C29455   8.016   4.858   6.405 -0.7498  0.0236 -0.4049
  214MOL0     C29456   7.877   4.950   6.399  0.0004  0.3376  0.7916
  214MOL0     C29457   7.861   5.063   6.497 -0.5564  0.0898 -0.3100
  214MOL0     C29458   7.978   5.157   6.497  1.1517  0.0212  0.9630
  214MOL0     C29459   8.071   5.232   6.504  0.4435  0.3055 -0.6786
  214MOL0     C29460   7.944   4.504   6.142  1.0498  0.1033  0.4117
  214MOL0     C29461   7.883   4.394   6.079  0.0975  0.2461 -0.0713
  214MOL0     C29462   7.973   4.271   6.093  0.8275  0.2268  0.7076
  214MOL0     H29463   7.619   4.075   5.803 -1.0007 -0.7236 -1.9211
  214MOL0     H29464   7.472   3.886   5.764  0.6586  2.1173 -1.2986
  214MOL0     H29465   7.048   3.910   5.939 -0.3032  0.4890 -1.2981
  214MOL0     H29466   7.153   3.841   6.053 -0.9164 -0.8823  0.0274
  214MOL0     H29467   7.010   3.697   5.825 -0.9787  1.1336  0.5567
  214MOL0     H29468   7.161   3.630   5.898  1.0277  0.2365 -2.0457
  214MOL0     H29469   6.978   3.519   5.987 -0.3936 -0.3941 -1.7354
  214MOL0     H29470   7.049   3.620   6.117  0.2924  1.8165 -0.8820
  214MOL0     H29471   6.876   3.803   6.069 -0.6477  1.2460 -4.7027
  214MOL0     H29472   6.803   3.705   5.956  1.6492  1.2469 -1.3289
  214MOL0     H29473   6.808   3.582   6.237  2.1168 -1.0616 -2.1733
  214MOL0     H29474   6.730   3.527   6.098  5.5214 -1.6664 -0.7318
  214MOL0     H29475   6.612   3.783   6.092 -5.5353  0.8195  2.6499
  214MOL0     H29476   6.558   3.657   6.195  0.2535  0.3486  0.8025
  214MOL0     H29477   6.749   3.871   6.311 -1.5355  1.3787  3.5902
  214MOL0     H29478   6.659   3.744   6.386  0.3650  0.9475  0.1462
  214MOL0     H29479   6.528   3.945   6.415 -2.5126  0.7926  0.5294
  214MOL0     H29480   6.522   3.968   6.239 -0.6869 -1.1597 -1.5662
  214MOL0     H29481   6.283   3.882   6.153 -1.5571  1.6993  0.5471
  214MOL0     H29482   6.008   3.676   6.284  1.5657 -1.3261 -1.7587
  214MOL0     H29483   6.026   3.817   6.167 -2.0862 -0.2810  1.3617
  214MOL0     H29484   5.980   3.839   6.466  0.1112  2.1671  0.4355
  214MOL0     H29485   5.988   3.971   6.352 -2.5820  1.0604  0.3922
  214MOL0     H29486   5.750   3.773   6.390  0.0313 -0.5246 -1.2433
  214MOL0     H29487   5.755   3.950   6.371 -2.4390 -1.5188  0.0333
  214MOL0     H29488   5.824   3.910   6.130 -0.6216 -0.4576 -1.8832
  214MOL0     H29489   5.795   3.741   6.162 -3.9641  0.5026 -1.6169
  214MOL0     H29490   5.659   3.622   6.274 -1.3073  1.9629  1.5321
  214MOL0     H29491   5.511   3.316   6.164 -2.1256 -0.5140  0.5615
  214MOL0     H29492   5.505   3.345   6.329  0.0512 -3.3194 -0.1220
  214MOL0     H29493   5.658   3.394   6.246 -1.0763  0.1581  1.8166
  214MOL0     H29494   4.936   3.369   5.942 -0.2638  0.1608  0.0609
  214MOL0     H29495   4.744   3.245   6.005 -0.2259  2.4837 -1.9559
  214MOL0     H29496   4.498   3.186   6.360  1.6928 -1.4515 -3.1442
  214MOL0     H29497   4.621   3.288   6.440 -1.6244 -2.2316  0.8862
  214MOL0     H29498   4.589   3.451   6.228  0.8683  2.1860  3.5505
  214MOL0     H29499   4.443   3.358   6.199 -2.5568  0.5310  0.5650
  214MOL0     H29500   4.373   3.570   6.327  1.1227  0.4158 -1.0750
  214MOL0     H29501   4.515   3.549   6.419  0.4759 -2.0756  2.0813
  214MOL0     H29502   4.422   3.369   6.555 -1.4256  2.8851  2.6777
  214MOL0     H29503   4.304   3.326   6.445 -0.2914 -0.5386 -1.1936
  214MOL0     H29504   4.303   3.592   6.593  0.3368  1.1427 -2.5303
  214MOL0     H29505   4.185   3.561   6.471 -0.3652 -0.3931 -0.0113
  214MOL0     H29506   4.210   3.390   6.725 -0.6010  0.4940 -0.0207
  214MOL0     H29507   4.118   3.367   6.582 -2.5822  0.8696  0.7977
  214MOL0     H29508   4.077   3.599   6.782 -0.0996 -0.4141  0.2851
  214MOL0     H29509   3.987   3.450   6.763  1.8553  0.4827  1.9025
  214MOL0     H29510   3.919   3.554   6.522 -2.4210 -0.8081 -0.2969
  214MOL0     H29511   4.029   3.692   6.574 -0.7317  0.8085  1.7694
  214MOL0     H29512   4.856   3.299   6.429 -0.2405 -1.0741  0.8629
  214MOL0     H29513   5.055   3.427   6.350  2.2563 -0.7847 -2.7967
  214MOL0     H29514   5.217   3.703   6.071 -0.8170 -0.7055  0.8778
  214MOL0     H29515   5.378   3.884   6.080  0.4428 -0.8952 -2.3533
  214MOL0     H29516   7.157   4.115   5.965  1.0862 -0.4458  1.0880
  214MOL0     H29517   7.313   4.300   5.971 -2.8475 -0.8873  1.0220
  214MOL0     H29518   7.577   4.511   6.022  0.1941 -1.8704 -0.9050
  214MOL0     H29519   7.667   4.709   6.111 -1.3091 -1.2706  1.9731
  214MOL0     H29520   7.943   4.657   6.398  0.1685 -0.0426 -0.0436
  214MOL0     H29521   8.097   4.687   6.302  0.7152  1.7265  0.9663
  214MOL0     H29522   8.110   4.899   6.366  0.3700 -0.4401  1.6769
  214MOL0     H29523   8.038   4.839   6.510 -1.5749  2.0978  0.1886
  214MOL0     H29524   7.871   4.990   6.298  2.0762 -0.9258  0.1019
  214MOL0     H29525   7.790   4.884   6.405 -1.5919  2.0226 -1.9030
  214MOL0     H29526   7.845   5.022   6.597 -1.9883 -3.9807 -2.0033
  214MOL0     H29527   7.767   5.116   6.477 -0.0649 -0.4215 -4.9730
  214MOL0     H29528   8.159   5.293   6.509  0.4007  0.2766  2.2557
  214MOL0     H29529   8.045   4.499   6.182  0.9483  0.5973  0.7448
  214MOL0     H29530   7.986   4.227   5.994 -0.2888 -0.8027  1.0054
  214MOL0     H29531   8.071   4.281   6.141  1.6693 -0.4840 -0.7884
  214MOL0     H29532   7.932   4.186   6.147  0.5646  1.3826  2.4178
  215MOL0     O29533   9.836   0.623   2.317  0.2500  0.6021 -0.2688
  215MOL0     C29534   9.817   0.723   2.385 -0.2726 -0.0508  0.7660
  215MOL0     O29535   9.892   0.843   2.366  0.0129 -0.1925 -0.4583
  215MOL0     C29536   9.979   0.854   2.259 -0.8707  0.7309  0.1998
  215MOL0     C29537   9.964   0.793   2.138 -0.8490  0.2202  0.1965
  215MOL0     C29538  10.067   0.793   2.038  0.4533  0.3446 -0.3016
  215MOL0     C29539  10.187   0.858   2.062  1.0283  1.0949 -0.3269
  215MOL0     O29540  10.271   0.871   1.962 -0.1869  0.8843  1.0262
  215MOL0     C29541  10.353   0.753   1.945  0.0975 -0.3789  0.2266
  215MOL0     C29542  10.458   0.792   1.842  0.3985  0.4679 -0.4157
  215MOL0     C29543  10.551   0.673   1.821  0.2062 -0.6225 -0.2383
  215MOL0     C29544  10.656   0.674   1.710 -0.1558 -0.7212  0.1450
  215MOL0     C29545  10.773   0.572   1.731  0.1596  0.1103  0.5211
  215MOL0     C29546  10.870   0.560   1.610  0.6243  1.1015 -0.3821
  215MOL0     C29547  10.805   0.488   1.486  0.2537  0.0282  0.6824
  215MOL0     C29548  10.792   0.336   1.486  0.6890 -0.2581  0.2715
  215MOL0     N29549  10.927   0.284   1.464  0.6283  0.7527 -0.0599
  215MOL0     C29550  10.982   0.270   1.342  0.3225  0.2563  0.6100
  215MOL0     C29551  11.098   0.206   1.369 -0.2503 -0.4163 -0.5645
  215MOL0     C29552  11.211   0.175   1.274  0.5552 -0.8717 -0.6564
  215MOL0     C29553  11.305   0.283   1.228  0.1539  0.3049 -0.2573
  215MOL0     C29554  11.403   0.211   1.130 -0.4745 -0.4328 -0.4528
  215MOL0     C29555  11.534   0.289   1.122  0.0070 -0.2046 -0.1204
  215MOL0     O29556  11.537   0.399   1.032 -1.0248  0.6771  0.1336
  215MOL0     C29557  11.660   0.450   0.982  1.0250  0.4087  0.4536
  215MOL0     C29558  11.791   0.430   1.040  0.3189 -0.3963  0.2756
  215MOL0     C29559  11.906   0.483   0.986 -0.3643  0.3434 -0.7274
  215MOL0     C29560  12.036   0.459   1.053  0.1066  0.7591  0.2485
  215MOL0     C29561  11.897   0.578   0.881  0.5327  0.8262  0.0277
  215MOL0     C29562  12.012   0.649   0.819 -0.6829  0.3017 -0.3731
  215MOL0     O29563  11.987   0.771   0.766  0.3426  0.8871  0.2611
  215MOL0     C29564  12.080   0.824   0.683 -0.3909  0.7465 -0.5993
  215MOL0     C29565  12.166   0.925   0.719  0.3641  0.8541  0.2617
  215MOL0     C29566  12.255   0.981   0.634 -0.4673  0.7739  0.3841
  215MOL0     C29567  12.256   0.940   0.502 -0.0158  0.5935  0.4538
  215MOL0     O29568  12.347   1.002   0.423 -0.0779 -0.4563  0.3464
  215MOL0     C29569  12.324   1.013   0.280 -0.1569 -0.0605 -0.2727
  215MOL0     C29570  12.417   1.127   0.225  0.1183 -0.3716 -0.8918
  215MOL0     C29571  12.560   1.096   0.230  0.2613  0.7731  0.1186
  215MOL0     C29572  12.648   1.204   0.169  0.2751  0.2412  0.1962
  215MOL0     C29573  12.800   1.170   0.168 -0.0971 -0.1438 -0.1354
  215MOL0     C29574  12.883   1.272   0.097  0.2587 -0.2153 -0.4920
  215MOL0     C29575  12.882   1.422   0.147 -0.1099 -0.2865  0.3416
  215MOL0     C29576  12.959   1.515   0.063  0.1519 -0.1116  0.1162
  215MOL0    Cl29577  13.144   1.498   0.080 -0.0948  0.7400 -0.1619
  215MOL0     C29578  12.175   0.839   0.461  0.5476  0.7501  0.6914
  215MOL0     C29579  12.087   0.776   0.555 -0.6906 -0.7814 -0.7576
  215MOL0     O29580  12.120   0.595   0.818  0.8506  1.4612  0.2766
  215MOL0     C29581  11.763   0.610   0.829 -0.0069  0.5738  1.1020
  215MOL0     C29582  11.654   0.542   0.875  0.2469  0.0260 -0.4629
  215MOL0     N29583  11.111   0.197   1.509 -0.1275 -1.1977  1.1155
  215MOL0     N29584  11.006   0.230   1.569  0.8207  0.3799  1.1031
  215MOL0     C29585  10.210   0.916   2.187  0.0279 -0.6479 -0.2174
  215MOL0     C29586  10.100   0.911   2.282 -0.7099 -0.6470  0.6888
  215MOL0     C29587   9.742   0.709   2.512 -0.5525  0.3097  1.1730
  215MOL0     C29588   9.787   0.779   2.622 -1.2889  0.0867  0.3382
  215MOL0     C29589   9.736   0.762   2.747  0.2580  0.1122 -1.0025
  215MOL0     C29590   9.626   0.675   2.766  1.0886 -0.4335 -0.7674
  215MOL0     O29591   9.572   0.640   2.886  0.1305 -0.7594  0.0597
  215MOL0     C29592   9.646   0.654   3.010  0.1117 -0.2352  0.0131
  215MOL0     C29593   9.643   0.792   3.083 -0.0440  0.6976  0.4531
  215MOL0     C29594   9.500   0.846   3.099 -0.8096 -0.7804  0.5048
  215MOL0     C29595   9.517   0.982   3.161  0.3927  0.0063  0.3191
  215MOL0     C29596   9.373   1.038   3.188 -0.5013  0.7826  0.5942
  215MOL0     C29597   9.263   1.080   3.215 -0.1383 -0.3922  0.4854
  215MOL0     C29598   9.580   0.609   2.656  0.5123 -0.5506  0.3896
  215MOL0     C29599   9.635   0.619   2.526  0.3131 -1.0661 -0.2632
  215MOL0     C29600   9.556   0.563   2.421 -0.3678 -0.6865  0.8927
  215MOL0     H29601   9.869   0.748   2.111  0.0098 -1.5693 -0.0029
  215MOL0     H29602  10.036   0.746   1.945 -1.3625 -0.4784  0.6653
  215MOL0     H29603  10.299   0.668   1.902 -0.8080  1.8631 -3.6496
  215MOL0     H29604  10.405   0.731   2.038 -0.6655  2.8395  1.5521
  215MOL0     H29605  10.410   0.826   1.750 -1.8715 -0.8306  0.2101
  215MOL0     H29606  10.516   0.872   1.888 -2.5525  2.6318 -0.2677
  215MOL0     H29607  10.591   0.660   1.922  0.3486 -0.9128 -0.3310
  215MOL0     H29608  10.492   0.584   1.795  0.1193 -0.2595 -1.3535
  215MOL0     H29609  10.612   0.650   1.613  0.4357 -0.4015 -0.2117
  215MOL0     H29610  10.704   0.772   1.709  0.9338 -1.0894 -4.2605
  215MOL0     H29611  10.742   0.469   1.749 -0.0528  0.4734  2.4236
  215MOL0     H29612  10.827   0.592   1.824 -1.0360 -2.4826  1.8616
  215MOL0     H29613  10.887   0.663   1.578 -2.1719  1.8760  0.4101
  215MOL0     H29614  10.962   0.506   1.635 -0.0833 -0.1346 -0.3661
  215MOL0     H29615  10.855   0.524   1.396 -0.6063 -2.4347 -0.8735
  215MOL0     H29616  10.700   0.510   1.464  0.5759 -0.4698 -1.5199
  215MOL0     H29617  10.741   0.310   1.579  0.1211  3.8981  1.2913
  215MOL0     H29618  10.723   0.293   1.413 -0.3909 -1.8155  2.1057
  215MOL0     H29619  10.932   0.296   1.249  1.2385  0.5046  0.1744
  215MOL0     H29620  11.156   0.138   1.187 -3.0265  3.9488 -0.8260
  215MOL0     H29621  11.270   0.100   1.327 -0.7761 -1.1005  0.5651
  215MOL0     H29622  11.252   0.359   1.170 -0.3823 -1.5182 -2.2824
  215MOL0     H29623  11.346   0.339   1.312 -2.3821  1.1445  0.5409
  215MOL0     H29624  11.426   0.118   1.182 -0.4318 -0.7312 -0.9902
  215MOL0     H29625  11.362   0.188   1.031 -1.5953  0.2279 -0.1543
  215MOL0     H29626  11.544   0.332   1.222 -3.2918  2.2086 -0.6903
  215MOL0     H29627  11.602   0.204   1.110 -1.2257 -1.6404  2.3039
  215MOL0     H29628  11.805   0.373   1.131 -0.3332 -0.3754  0.3899
  215MOL0     H29629  12.021   0.427   1.156  0.7741 -1.4484 -0.2820
  215MOL0     H29630  12.095   0.551   1.057  1.8263 -0.0757 -2.6249
  215MOL0     H29631  12.104   0.393   0.999  0.1499  1.4550 -0.5923
  215MOL0     H29632  12.144   0.949   0.822 -0.8138 -1.0801  0.5093
  215MOL0     H29633  12.322   1.058   0.671 -1.5552  1.6911  0.4936
  215MOL0     H29634  12.351   0.914   0.242  2.5297  0.3960  0.2656
  215MOL0     H29635  12.218   1.031   0.259 -0.4716 -1.3656  0.0454
  215MOL0     H29636  12.387   1.149   0.123  1.7323  1.2535 -1.0669
  215MOL0     H29637  12.397   1.212   0.292 -2.1531 -1.5810  0.0889
  215MOL0     H29638  12.568   1.008   0.166  3.2070  1.9605 -1.3434
  215MOL0     H29639  12.592   1.057   0.327  1.1835 -0.0868 -0.5203
  215MOL0     H29640  12.621   1.290   0.230 -1.7343 -0.4098  0.2990
  215MOL0     H29641  12.616   1.222   0.066  1.3975 -1.8742 -0.5956
  215MOL0     H29642  12.830   1.151   0.272 -1.2995 -0.7750  0.1125
  215MOL0     H29643  12.803   1.076   0.112 -0.7154  0.1865 -0.7418
  215MOL0     H29644  12.849   1.265  -0.007  1.5638 -3.8893 -0.8124
  215MOL0     H29645  12.986   1.237   0.101  0.1339 -0.4791  0.9168
  215MOL0     H29646  12.939   1.423   0.241 -1.1844  0.3104  1.0103
  215MOL0     H29647  12.777   1.450   0.155 -0.5312 -1.7557  0.0712
  215MOL0     H29648  12.920   1.615   0.082 -0.6725  0.0933 -2.3441
  215MOL0     H29649  12.927   1.498  -0.040 -0.3450  2.2952 -0.1922
  215MOL0     H29650  12.168   0.800   0.360 -2.1353  0.0505  1.0702
  215MOL0     H29651  12.029   0.691   0.523  0.8378 -2.0193 -0.3931
  215MOL0     H29652  11.753   0.691   0.758  2.4968 -1.7482 -2.2354
  215MOL0     H29653  11.557   0.572   0.835  1.3689  1.6988 -2.1100
  215MOL0     H29654  10.296   0.973   2.220 -0.9727  0.8838 -0.1610
  215MOL0     H29655  10.127   0.969   2.370  2.8269 -0.8779 -0.0964
  215MOL0     H29656   9.851   0.865   2.608 -1.8622  0.6067  0.8691
  215MOL0     H29657   9.770   0.816   2.835 -2.8958 -0.9693  1.0275
  215MOL0     H29658   9.597   0.578   3.071 -2.1531 -0.5745 -2.0663
  215MOL0     H29659   9.750   0.623   2.992 -0.1242  0.5641 -3.4874
  215MOL0     H29660   9.709   0.868   3.041 -1.3931  1.2820 -0.6864
  215MOL0     H29661   9.686   0.759   3.178  2.7049  2.4151 -0.0748
  215MOL0     H29662   9.445   0.866   3.007  0.0119 -0.6600  0.0307
  215MOL0     H29663   9.441   0.797   3.177  0.5195  1.0476  2.8173
  215MOL0     H29664   9.576   1.043   3.092 -0.6419  0.6227 -0.0611
  215MOL0     H29665   9.576   0.974   3.252  2.3972 -2.1880 -1.0660
  215MOL0     H29666   9.171   1.104   3.265 -1.2188  1.1232 -2.0461
  215MOL0     H29667   9.487   0.555   2.668  0.6042 -0.4817  1.4718
  215MOL0     H29668   9.464   0.512   2.453 -0.5546 -1.5018 -0.8410
  215MOL0     H29669   9.507   0.636   2.356  1.7550  1.0489  1.1443
  215MOL0     H29670   9.616   0.497   2.357  3.3604  0.7417  2.6435
  216MOL0     O29671   3.647   0.603   2.984 -0.5088 -0.7639  0.2240
  216MOL0     C29672   3.682   0.486   2.964  0.3429  0.1973  0.7057
  216MOL0     O29673   3.777   0.444   2.878  0.5298  0.2447  0.1484
  216MOL0     C29674   3.811   0.529   2.782 -0.1774 -0.0051 -0.2763
  216MOL0     C29675   3.929   0.602   2.796  0.3046  0.1450 -0.1877
  216MOL0     C29676   3.970   0.696   2.700  0.4283  0.1068  1.2765
  216MOL0     C29677   3.889   0.730   2.591  0.6343 -0.3678 -0.3023
  216MOL0     O29678   3.943   0.802   2.489  0.7182 -0.0206  0.6369
  216MOL0     C29679   4.018   0.919   2.508  0.3176  0.2841  0.4456
  216MOL0     C29680   3.950   1.032   2.421  0.0465  1.2699  0.4716
  216MOL0     C29681   4.017   1.171   2.437 -0.2256 -0.6383  0.3404
  216MOL0     C29682   3.923   1.289   2.390  1.0361  0.5736  0.4732
  216MOL0     C29683   3.847   1.336   2.512  0.3346 -1.2945 -0.5225
  216MOL0     C29684   3.731   1.430   2.489  0.3703 -0.3127 -0.7335
  216MOL0     C29685   3.676   1.479   2.620  0.0944 -0.8375  1.1308
  216MOL0     C29686   3.586   1.606   2.591 -0.4186  0.1651 -0.9046
  216MOL0     N29687   3.446   1.581   2.533  1.0547  0.1589 -0.1766
  216MOL0     C29688   3.331   1.556   2.606 -0.6761 -0.2132  0.2775
  216MOL0     C29689   3.235   1.534   2.518 -0.5429 -0.2135  0.0922
  216MOL0     C29690   3.090   1.488   2.558  0.9816 -0.5292  0.4583
  216MOL0     C29691   3.095   1.340   2.610  0.6318  0.5380 -0.0200
  216MOL0     C29692   2.964   1.312   2.681 -0.0554 -0.3530 -0.3757
  216MOL0     C29693   2.960   1.155   2.717  0.0849 -0.4684 -0.0809
  216MOL0     O29694   2.837   1.140   2.799 -0.1984 -0.8830  0.4149
  216MOL0     C29695   2.837   1.203   2.922  0.4323  0.4529  0.0012
  216MOL0     C29696   2.733   1.294   2.951 -0.1717 -0.0256 -0.2168
  216MOL0     C29697   2.735   1.363   3.068 -0.0822  0.1711 -0.7433
  216MOL0     C29698   2.609   1.435   3.093 -1.0386  0.0462  0.5878
  216MOL0     C29699   2.840   1.336   3.170  0.0896  0.4250 -1.1738
  216MOL0     C29700   2.846   1.403   3.299  0.3301 -0.1693  0.1292
  216MOL0     O29701   2.906   1.335   3.402  0.0919  0.8668 -0.3298
  216MOL0     C29702   2.949   1.399   3.517  0.1349  0.1246 -0.0305
  216MOL0     C29703   2.866   1.442   3.628 -0.6326  0.0741  0.1064
  216MOL0     C29704   2.916   1.513   3.738  0.4606 -0.7504  0.7658
  216MOL0     C29705   3.047   1.537   3.756  0.5383 -0.1178  1.4653
  216MOL0     O29706   3.080   1.598   3.867 -0.7247  0.5129  0.4476
  216MOL0     C29707   3.220   1.634   3.888 -0.1260  0.2150 -0.3101
  216MOL0     C29708   3.271   1.751   3.797  0.3064 -0.4747  0.1438
  216MOL0     C29709   3.421   1.776   3.807 -0.0275  0.0991  0.6701
  216MOL0     C29710   3.462   1.852   3.925 -0.5693  0.1466 -0.2633
  216MOL0     C29711   3.619   1.882   3.925  0.6337 -0.9734  0.0183
  216MOL0     C29712   3.658   1.997   3.836 -0.3791  0.2045  0.4219
  216MOL0     C29713   3.806   2.044   3.868  0.2226 -0.3624 -0.1107
  216MOL0     C29714   3.868   2.155   3.771  0.0368 -0.1840  0.0368
  216MOL0    Cl29715   3.823   2.143   3.605 -0.1088 -0.4030  0.3604
  216MOL0     C29716   3.136   1.485   3.647  0.0392 -0.3938 -0.6158
  216MOL0     C29717   3.094   1.431   3.535  1.4059 -0.1926  0.2635
  216MOL0     O29718   2.798   1.514   3.303 -0.2984 -0.1930  0.9032
  216MOL0     C29719   2.936   1.239   3.141 -0.3851 -0.3362  0.5766
  216MOL0     C29720   2.939   1.174   3.018  0.6738 -0.7545 -0.8285
  216MOL0     N29721   3.289   1.550   2.394 -0.5088  0.1588  1.1347
  216MOL0     N29722   3.413   1.574   2.403 -0.7251 -0.5183 -1.0116
  216MOL0     C29723   3.768   0.657   2.575 -0.8055 -0.4414 -0.4269
  216MOL0     C29724   3.727   0.557   2.673 -0.4429  0.1080 -0.1282
  216MOL0     C29725   3.604   0.372   3.028  0.9292  0.3474  1.8724
  216MOL0     C29726   3.666   0.246   3.042 -0.7894 -0.4139 -0.2367
  216MOL0     C29727   3.606   0.138   3.109 -0.3283  1.1270 -0.4820
  216MOL0     C29728   3.480   0.161   3.165  0.0944  0.3456 -0.2275
  216MOL0     O29729   3.431   0.044   3.231  0.0412  0.0048 -0.1371
  216MOL0     C29730   3.467   0.034   3.363 -0.6447 -0.1765 -0.9267
  216MOL0     C29731   3.416   0.154   3.447  0.0528 -0.7059  0.1577
  216MOL0     C29732   3.392   0.125   3.594  0.5887 -0.3755 -0.3721
  216MOL0     C29733   3.386   0.252   3.684  0.1462 -0.6459 -0.1325
  216MOL0     C29734   3.288   0.352   3.639  0.2031 -1.0260  1.3631
  216MOL0     C29735   3.217   0.435   3.582  0.2916 -0.5305  0.4502
  216MOL0     C29736   3.407   0.281   3.133 -0.4946  0.7654  0.3052
  216MOL0     C29737   3.468   0.379   3.068  1.0139  0.8026  0.5002
  216MOL0     C29738   3.392   0.509   3.034 -0.5398  0.5397 -0.6282
  216MOL0     H29739   3.979   0.573   2.887 -2.1249 -1.7748  0.6440
  216MOL0     H29740   4.065   0.746   2.712  0.5727  0.4465 -0.9418
  216MOL0     H29741   4.117   0.893   2.471 -0.7389  0.9094 -3.2321
  216MOL0     H29742   4.012   0.942   2.615  1.6581 -0.2258  0.6452
  216MOL0     H29743   3.952   1.000   2.317  1.6174 -0.5798  1.0187
  216MOL0     H29744   3.847   1.037   2.459  0.5530 -0.9085  2.3687
  216MOL0     H29745   4.038   1.195   2.542  2.1726  3.0342 -0.7756
  216MOL0     H29746   4.109   1.171   2.378 -2.0916  1.9603 -2.9183
  216MOL0     H29747   3.988   1.370   2.355  3.1901 -0.6614  1.4437
  216MOL0     H29748   3.854   1.260   2.310 -0.7153  1.2277  1.6824
  216MOL0     H29749   3.915   1.388   2.580 -0.0678 -0.9830 -0.3550
  216MOL0     H29750   3.813   1.252   2.574 -0.6355 -0.7169 -0.2530
  216MOL0     H29751   3.781   1.510   2.434  2.4653 -1.7611 -1.0376
  216MOL0     H29752   3.653   1.372   2.439  0.7966 -2.4912  0.9676
  216MOL0     H29753   3.761   1.499   2.686  0.0977  0.6519  0.7186
  216MOL0     H29754   3.614   1.399   2.661 -0.4669 -1.0831 -0.1305
  216MOL0     H29755   3.572   1.662   2.684 -1.1964  0.3983 -1.1562
  216MOL0     H29756   3.639   1.672   2.522 -1.3571  2.0438  0.1079
  216MOL0     H29757   3.319   1.534   2.712 -5.6114 -2.1623 -0.3845
  216MOL0     H29758   3.021   1.517   2.478  2.3669  2.9921  0.3956
  216MOL0     H29759   3.063   1.553   2.641  2.7925  1.9150 -0.7598
  216MOL0     H29760   3.115   1.266   2.533 -1.2141 -0.9956  0.8695
  216MOL0     H29761   3.186   1.349   2.669  3.2252 -0.3425 -3.6060
  216MOL0     H29762   2.961   1.383   2.765 -0.8963  1.8293 -2.1351
  216MOL0     H29763   2.895   1.340   2.601 -0.8999  0.4853  0.6159
  216MOL0     H29764   2.943   1.095   2.627 -2.6812 -1.4137  0.9550
  216MOL0     H29765   3.050   1.123   2.769  0.1024 -0.5909 -0.1863
  216MOL0     H29766   2.655   1.299   2.876  0.6581 -1.7669 -1.2590
  216MOL0     H29767   2.545   1.441   3.004  0.3643  0.7541 -0.4270
  216MOL0     H29768   2.635   1.538   3.117  1.0880 -0.1614 -0.5763
  216MOL0     H29769   2.560   1.377   3.171  0.6690 -2.1846  0.1076
  216MOL0     H29770   2.761   1.420   3.616 -0.9842  0.4797  2.0825
  216MOL0     H29771   2.858   1.551   3.821  0.0281  0.3781 -0.0397
  216MOL0     H29772   3.243   1.652   3.993 -1.9437  1.6832 -0.1164
  216MOL0     H29773   3.278   1.545   3.859  1.1521  0.7487  0.5322
  216MOL0     H29774   3.249   1.722   3.694 -2.6744  1.9327 -0.0364
  216MOL0     H29775   3.216   1.845   3.810  1.2265  0.2834 -1.1707
  216MOL0     H29776   3.446   1.840   3.722  0.7682  1.9795  2.2518
  216MOL0     H29777   3.488   1.690   3.799 -2.5618 -1.9594  0.1501
  216MOL0     H29778   3.438   1.783   4.007 -2.0148  1.2249  0.2814
  216MOL0     H29779   3.402   1.943   3.932 -1.8495 -0.7738  2.6479
  216MOL0     H29780   3.649   1.920   4.023 -2.3231  0.0674  0.6331
  216MOL0     H29781   3.678   1.794   3.902  1.7461 -0.3031  0.2558
  216MOL0     H29782   3.590   2.080   3.855  1.5436  2.1001 -0.5330
  216MOL0     H29783   3.661   1.965   3.731 -2.7190 -0.1402  0.4165
  216MOL0     H29784   3.872   1.957   3.861 -0.5888 -1.3201  2.8291
  216MOL0     H29785   3.796   2.082   3.970 -0.0906  0.2840 -0.3699
  216MOL0     H29786   3.976   2.167   3.782  0.2506 -0.0220 -1.8462
  216MOL0     H29787   3.830   2.250   3.810  3.2444  0.5476  1.7142
  216MOL0     H29788   3.243   1.503   3.652  0.0105 -0.3711 -0.0912
  216MOL0     H29789   3.158   1.398   3.454  2.8024  2.4189  0.1934
  216MOL0     H29790   3.020   1.214   3.204 -1.5244 -0.2650  2.1934
  216MOL0     H29791   3.024   1.113   2.991  0.2441 -1.8421  0.1869
  216MOL0     H29792   3.697   0.678   2.497 -3.1660  2.2621  2.1701
  216MOL0     H29793   3.636   0.498   2.667  1.7457 -3.7127  0.8005
  216MOL0     H29794   3.767   0.234   3.005  0.0697 -0.2239  1.9110
  216MOL0     H29795   3.656   0.041   3.112 -1.3990  0.5523  2.9589
  216MOL0     H29796   3.442  -0.057   3.419  3.0453  0.6179  2.5047
  216MOL0     H29797   3.575   0.046   3.371 -0.5393 -1.9655  1.3657
  216MOL0     H29798   3.321   0.173   3.397  1.7706 -0.4014 -3.2707
  216MOL0     H29799   3.482   0.241   3.441  1.4026 -1.7886 -1.6735
  216MOL0     H29800   3.298   0.071   3.607 -0.4161  1.1272 -1.0517
  216MOL0     H29801   3.474   0.063   3.632  0.7588  1.5922  2.8659
  216MOL0     H29802   3.480   0.308   3.687 -0.8621  1.1144 -0.0801
  216MOL0     H29803   3.367   0.231   3.789 -0.4524 -1.3164 -0.3687
  216MOL0     H29804   3.157   0.505   3.527  1.2232  0.9496  1.2560
  216MOL0     H29805   3.301   0.285   3.155 -0.3645 -1.0355  1.5075
  216MOL0     H29806   3.286   0.498   3.056 -0.7920 -1.0439 -2.3466
  216MOL0     H29807   3.434   0.589   3.094 -1.9145  0.8544 -0.0652
  216MOL0     H29808   3.380   0.531   2.927 -0.6385 -0.3118 -0.8020
  217MOL0     O29809  11.401  10.070  11.450 -0.3792  0.1579  0.3565
  217MOL0     C29810  11.407  10.155  11.537 -0.0676 -0.1643 -0.3182
  217MOL0     O29811  11.517  10.187  11.603 -0.0730  0.3803 -0.0974
  217MOL0     C29812  11.642  10.135  11.567 -0.2952 -0.3684 -0.2142
  217MOL0     C29813  11.662   9.996  11.547  0.1623  0.8871  0.2001
  217MOL0     C29814  11.790   9.946  11.514  1.4050 -0.9452  0.1296
  217MOL0     C29815  11.903  10.022  11.537 -0.6456 -0.0259 -0.5443
  217MOL0     O29816  12.027   9.974  11.507  0.2192  0.6040  0.1922
  217MOL0     C29817  12.128   9.994  11.600  0.7049  0.0100 -1.4206
  217MOL0     C29818  12.262   9.959  11.548 -0.5741  0.6706  0.6050
  217MOL0     C29819  12.374  10.038  11.624 -0.1338 -0.2475  0.0706
  217MOL0     C29820  12.378   9.996  11.767 -0.4803 -0.3583  0.5272
  217MOL0     C29821  12.523   9.946  11.810 -0.1463  0.4907 -0.2737
  217MOL0     C29822  12.508   9.904  11.956  0.3361  0.0744 -0.5186
  217MOL0     C29823  12.640   9.911  12.036 -0.7800 -0.6358 -0.5632
  217MOL0     C29824  12.702  10.052  12.054  0.0893 -0.9617 -0.0471
  217MOL0     N29825  12.843  10.055  12.020  0.4166  0.3500  0.1872
  217MOL0     C29826  12.888  10.031  11.891 -0.6842  0.0542  0.3746
  217MOL0     C29827  13.017  10.077  11.885 -0.3275  0.0708 -1.3928
  217MOL0     C29828  13.118  10.063  11.776  0.5293 -0.2614  0.1727
  217MOL0     C29829  13.242  10.007  11.836 -0.3916  0.1642  0.2759
  217MOL0     C29830  13.346   9.965  11.736  1.0694  0.1021  0.0464
  217MOL0     C29831  13.462   9.896  11.808  0.4301  0.0906  0.0699
  217MOL0     O29832  13.566   9.989  11.848 -0.0737  0.2123  0.1200
  217MOL0     C29833  13.672  10.012  11.761 -0.0834  0.3282 -0.1102
  217MOL0     C29834  13.664   9.992  11.627 -0.1258 -0.2487 -0.1871
  217MOL0     C29835  13.775  10.008  11.546  0.6927 -1.4136 -0.4401
  217MOL0     C29836  13.749  10.009  11.397  0.1893 -1.4770  0.1705
  217MOL0     C29837  13.890  10.051  11.602 -0.2405 -0.3745 -0.0478
  217MOL0     C29838  14.022  10.064  11.531  0.3492  0.5681  0.2760
  217MOL0     O29839  14.141  10.048  11.595 -0.2108  0.5651 -0.0222
  217MOL0     C29840  14.245  10.106  11.531  0.1936  0.8548 -0.3593
  217MOL0     C29841  14.259  10.240  11.557 -0.2718  0.1352  0.1053
  217MOL0     C29842  14.369  10.307  11.495 -0.5726 -0.1876 -0.5400
  217MOL0     C29843  14.462  10.251  11.399 -1.0264  0.3024 -0.1018
  217MOL0     O29844  14.574  10.316  11.350  0.1943 -0.2879 -0.0019
  217MOL0     C29845  14.569  10.459  11.350 -0.4073 -1.0501 -0.0711
  217MOL0     C29846  14.701  10.502  11.286 -0.5276 -0.2507  0.0543
  217MOL0     C29847  14.687  10.631  11.204  0.8596 -0.6440  0.2859
  217MOL0     C29848  14.800  10.683  11.127 -0.0936 -0.9226 -0.5966
  217MOL0     C29849  14.777  10.806  11.035 -1.1445 -0.2017 -0.0008
  217MOL0     C29850  14.909  10.843  10.955 -0.8344 -0.8304 -0.8799
  217MOL0     C29851  14.874  10.950  10.852  0.2931  0.7788 -0.1018
  217MOL0     C29852  14.987  10.954  10.756  0.0776  0.1662  0.2594
  217MOL0    Cl29853  14.956  11.062  10.608 -0.1651 -0.0271  0.2838
  217MOL0     C29854  14.452  10.112  11.381  0.5554  0.2324 -0.1467
  217MOL0     C29855  14.349  10.039  11.457 -0.0782  0.0490  0.1318
  217MOL0     O29856  14.012  10.108  11.415  0.4317 -0.3498 -0.7447
  217MOL0     C29857  13.902  10.094  11.739 -0.1165  0.3954 -0.7375
  217MOL0     C29858  13.789  10.072  11.820  1.0742  0.3574  0.4970
  217MOL0     N29859  13.042  10.149  12.005 -0.1301 -0.0924 -0.0828
  217MOL0     N29860  12.937  10.127  12.093 -0.0337 -0.5412  0.2549
  217MOL0     C29861  11.881  10.160  11.561 -1.3515  0.4073 -0.1537
  217MOL0     C29862  11.762  10.213  11.569  0.3714 -1.0554  0.0360
  217MOL0     C29863  11.295  10.247  11.575  1.1294 -1.5058 -0.6900
  217MOL0     C29864  11.323  10.350  11.675 -0.0736 -0.1190  0.5830
  217MOL0     C29865  11.222  10.440  11.724  0.0695  0.4922  1.1996
  217MOL0     C29866  11.097  10.442  11.665 -0.1239  0.0929 -0.1884
  217MOL0     O29867  10.990  10.522  11.709  0.2576  0.1060 -0.3452
  217MOL0     C29868  11.024  10.626  11.805  0.2052 -0.2515  0.4482
  217MOL0     C29869  10.895  10.697  11.838 -0.7717 -0.4825  0.5572
  217MOL0     C29870  10.787  10.608  11.912  0.0222  0.7644 -0.4206
  217MOL0     C29871  10.730  10.487  11.835  0.0604  0.7621  0.2563
  217MOL0     C29872  10.611  10.437  11.910 -0.1400  0.2601  0.0297
  217MOL0     C29873  10.513  10.385  11.968 -0.0808  0.3680  0.0765
  217MOL0     C29874  11.071  10.350  11.564 -0.5397  0.0112  0.3588
  217MOL0     C29875  11.167  10.255  11.517  0.1267  0.4875  0.9753
  217MOL0     C29876  11.130  10.164  11.408  0.1565  0.4709  0.8261
  217MOL0     H29877  11.580   9.926  11.533  2.4001 -2.2550  1.5706
  217MOL0     H29878  11.795   9.852  11.460 -0.6120 -1.2450  0.4054
  217MOL0     H29879  12.097   9.936  11.688 -0.9151  2.8875  0.0630
  217MOL0     H29880  12.119  10.100  11.622 -2.7161 -0.5716  0.7373
  217MOL0     H29881  12.276   9.850  11.555 -1.8295  0.5158  0.9112
  217MOL0     H29882  12.277   9.981  11.442 -1.0028 -0.3410  0.3245
  217MOL0     H29883  12.472  10.035  11.576 -1.1211 -2.4592 -2.0515
  217MOL0     H29884  12.342  10.143  11.625  0.1051 -0.1110 -1.9381
  217MOL0     H29885  12.346  10.087  11.819  0.6207  1.7091 -2.1598
  217MOL0     H29886  12.303   9.917  11.777 -0.5774 -0.4167 -0.5479
  217MOL0     H29887  12.604  10.020  11.801 -0.7197  0.9859 -1.7442
  217MOL0     H29888  12.557   9.867  11.742  3.7826  1.8748 -0.2290
  217MOL0     H29889  12.431   9.966  12.003  1.7725  2.4732 -1.1841
  217MOL0     H29890  12.474   9.800  11.962 -0.5653  0.4083  0.3585
  217MOL0     H29891  12.726   9.856  11.996  1.9995  3.8609 -1.5297
  217MOL0     H29892  12.617   9.855  12.126  1.0683  0.6575  0.8039
  217MOL0     H29893  12.642  10.125  11.998 -2.4843 -2.6170  0.3767
  217MOL0     H29894  12.690  10.080  12.159  0.4542 -0.6125 -0.0938
  217MOL0     H29895  12.836   9.980  11.811 -2.0099  2.2618 -0.2573
  217MOL0     H29896  13.142  10.158  11.728  0.2833 -0.8205 -1.0877
  217MOL0     H29897  13.077   9.997  11.699  1.1098 -1.7340  1.0878
  217MOL0     H29898  13.295  10.078  11.900  0.7607 -1.5325  1.2909
  217MOL0     H29899  13.201   9.928  11.899 -1.2784  1.1250  0.9398
  217MOL0     H29900  13.298   9.905  11.659  1.3212  2.7899 -2.3430
  217MOL0     H29901  13.390  10.048  11.681  0.4992  0.2595 -0.1839
  217MOL0     H29902  13.436   9.844  11.900  3.1354 -0.7563  0.4525
  217MOL0     H29903  13.511   9.819  11.749 -1.0318 -0.6980 -0.1422
  217MOL0     H29904  13.576   9.966  11.570  0.6775  1.3876 -2.3142
  217MOL0     H29905  13.678   9.929  11.373 -0.7816 -0.7732  0.6272
  217MOL0     H29906  13.833   9.984  11.332  0.2484  1.1216 -0.8728
  217MOL0     H29907  13.700  10.102  11.368 -3.1319 -2.7899  1.0452
  217MOL0     H29908  14.181  10.293  11.610  2.3609  2.2832  2.1117
  217MOL0     H29909  14.369  10.412  11.523 -0.4754  0.7010 -3.5115
  217MOL0     H29910  14.484  10.494  11.291  0.3168 -1.7075 -1.5527
  217MOL0     H29911  14.568  10.493  11.454 -0.4825 -0.2652 -0.3199
  217MOL0     H29912  14.783  10.506  11.357 -1.6700  1.1361  1.3579
  217MOL0     H29913  14.726  10.431  11.206  2.9752  1.4226 -0.5069
  217MOL0     H29914  14.650  10.707  11.273 -0.6501  1.7298 -2.8292
  217MOL0     H29915  14.606  10.621  11.130  1.2557 -1.8065 -0.0101
  217MOL0     H29916  14.854  10.604  11.073 -0.7966 -1.7536 -0.1136
  217MOL0     H29917  14.861  10.724  11.208  1.1299 -0.5141 -1.6810
  217MOL0     H29918  14.702  10.771  10.964 -0.3965 -4.8344  1.2066
  217MOL0     H29919  14.732  10.887  11.093 -1.2971  1.8545 -2.7541
  217MOL0     H29920  14.944  10.749  10.912  1.1215 -0.6697  0.2124
  217MOL0     H29921  14.978  10.882  11.030 -3.3273 -1.2358  1.8159
  217MOL0     H29922  14.847  11.047  10.894 -0.3721  0.0313  1.2761
  217MOL0     H29923  14.784  10.922  10.795  1.8408  1.1709 -2.9263
  217MOL0     H29924  15.013  10.860  10.707 -0.8617 -1.1298  2.1154
  217MOL0     H29925  15.082  10.977  10.806 -0.4335 -0.7137  1.7111
  217MOL0     H29926  14.522  10.054  11.322  0.8434  0.0361  0.3812
  217MOL0     H29927  14.351   9.931  11.446  0.2368  0.2131 -1.9228
  217MOL0     H29928  13.996  10.133  11.775 -0.1825 -0.2995  0.2262
  217MOL0     H29929  13.768  10.107  11.920 -2.9042 -0.2301  0.0146
  217MOL0     H29930  11.968  10.224  11.550 -0.6237 -0.8017 -1.9132
  217MOL0     H29931  11.751  10.321  11.581 -0.3944 -1.1572  0.3149
  217MOL0     H29932  11.421  10.355  11.722  3.0414  2.7838 -5.1746
  217MOL0     H29933  11.245  10.518  11.796  2.6049  0.7157  0.2616
  217MOL0     H29934  11.077  10.586  11.891  1.1827  0.2725  0.1058
  217MOL0     H29935  11.087  10.702  11.758  0.0985 -0.5793 -0.2398
  217MOL0     H29936  10.864  10.739  11.742  4.5076 -0.5019 -1.5447
  217MOL0     H29937  10.929  10.775  11.906  2.8365 -1.7003  0.3835
  217MOL0     H29938  10.827  10.573  12.008  0.4162  1.6878 -0.2321
  217MOL0     H29939  10.705  10.669  11.949 -1.6274 -3.2604  3.4620
  217MOL0     H29940  10.804  10.406  11.831 -1.7437 -0.9502 -0.3706
  217MOL0     H29941  10.712  10.520  11.733  2.5039  2.6713  0.3716
  217MOL0     H29942  10.426  10.355  12.022 -0.6353 -2.0529 -1.9297
  217MOL0     H29943  10.975  10.347  11.513  0.2593 -0.2904 -1.1947
  217MOL0     H29944  11.180  10.186  11.313 -1.0112 -1.8509 -0.4019
  217MOL0     H29945  11.153  10.058  11.422  2.1251  0.6067 -0.9001
  217MOL0     H29946  11.024  10.165  11.379  0.2485  4.5120  0.0825
  218MOL0     O29947   6.616   2.349   0.116  0.1817 -0.0797  0.5733
  218MOL0     C29948   6.585   2.453   0.176 -0.0081  0.4184 -0.6965
  218MOL0     O29949   6.533   2.452   0.306  0.0362 -0.2618  0.0814
  218MOL0     C29950   6.541   2.330   0.381 -0.4503  0.1031  0.8969
  218MOL0     C29951   6.673   2.280   0.407 -0.2596 -0.0560  0.1670
  218MOL0     C29952   6.690   2.159   0.464 -0.7038 -0.1941 -1.6370
  218MOL0     C29953   6.583   2.083   0.509  0.0200  0.9825  0.4958
  218MOL0     O29954   6.602   1.962   0.568  0.0880 -0.0284  1.2170
  218MOL0     C29955   6.587   1.981   0.707 -0.4661  0.5792 -1.0002
  218MOL0     C29956   6.667   1.880   0.795  0.0785  0.5060 -0.3860
  218MOL0     C29957   6.804   1.854   0.740  0.4297  0.3212  1.0194
  218MOL0     C29958   6.880   1.757   0.834 -0.5323  0.5978 -0.2861
  218MOL0     C29959   6.956   1.843   0.938  0.3001 -0.3004  0.1765
  218MOL0     C29960   7.030   1.756   1.044 -0.1259 -0.4404  0.0405
  218MOL0     C29961   7.081   1.847   1.156 -0.2023 -0.7668  0.0253
  218MOL0     C29962   7.191   1.943   1.097 -0.5414  0.1387  0.4026
  218MOL0     N29963   7.284   2.006   1.200  0.1296  0.4064 -0.0196
  218MOL0     C29964   7.363   1.945   1.289 -0.9828  0.9633  0.4766
  218MOL0     C29965   7.439   2.040   1.350  0.8309  0.5744  0.4792
  218MOL0     C29966   7.536   2.027   1.457 -0.7745 -0.7141  0.1297
  218MOL0     C29967   7.681   2.068   1.401  0.5923  0.0243 -0.3704
  218MOL0     C29968   7.790   2.042   1.507 -0.4037  0.2673 -0.2386
  218MOL0     C29969   7.925   2.024   1.430  0.0183  0.0042  0.5829
  218MOL0     O29970   7.919   1.929   1.325 -0.5191  0.5636 -0.0424
  218MOL0     C29971   8.041   1.920   1.261  0.0542  0.0950  0.3310
  218MOL0     C29972   8.038   1.842   1.145 -0.0266  1.0258 -1.0306
  218MOL0     C29973   8.151   1.824   1.064  0.0442  0.5962  0.4036
  218MOL0     C29974   8.142   1.757   0.937  0.8996  0.4672 -0.4366
  218MOL0     C29975   8.279   1.880   1.105 -0.4802  0.1713  0.1584
  218MOL0     C29976   8.412   1.874   1.037 -0.4147  0.2463 -0.0010
  218MOL0     O29977   8.529   1.893   1.120  0.0451  0.7999  0.3566
  218MOL0     C29978   8.644   1.915   1.064 -0.7116  0.0488  0.1831
  218MOL0     C29979   8.666   2.006   0.956 -0.7403 -0.0392  0.1847
  218MOL0     C29980   8.778   1.988   0.885 -0.0082 -0.4657  0.6371
  218MOL0     C29981   8.880   1.914   0.929  0.7359  1.3368 -0.8033
  218MOL0     O29982   8.982   1.920   0.845 -0.2283  0.7949 -0.1401
  218MOL0     C29983   9.088   1.822   0.834  0.3687  0.3839  0.4908
  218MOL0     C29984   9.184   1.850   0.714  1.2065 -0.5684  0.7178
  218MOL0     C29985   9.117   1.863   0.585 -0.2064 -0.4474 -0.1606
  218MOL0     C29986   9.224   1.895   0.472 -0.6817  0.0512 -0.1572
  218MOL0     C29987   9.157   1.947   0.342 -0.5274  0.2526  0.1534
  218MOL0     C29988   9.264   1.981   0.237 -0.1903  0.8229 -0.2489
  218MOL0     C29989   9.197   2.043   0.110 -0.1328 -0.4038 -0.6111
  218MOL0     C29990   9.171   1.918   0.010 -0.4895 -0.2820 -0.1146
  218MOL0    Cl29991   9.034   1.940  -0.102  0.2460  0.1799  0.3830
  218MOL0     C29992   8.870   1.843   1.049  1.1001 -0.1115  0.3984
  218MOL0     C29993   8.751   1.836   1.113 -0.2175 -0.2465 -0.0838
  218MOL0     O29994   8.416   1.860   0.913 -0.3448 -0.2602 -0.1812
  218MOL0     C29995   8.278   1.962   1.215  0.1131 -0.5237  0.1129
  218MOL0     C29996   8.159   1.983   1.298 -1.7475 -0.3930  0.2321
  218MOL0     N29997   7.409   2.162   1.292 -0.3334 -0.6352 -0.0003
  218MOL0     N29998   7.312   2.135   1.212 -0.6162  0.3274 -0.1104
  218MOL0     C29999   6.454   2.132   0.483 -0.7710  0.4851 -0.9581
  218MOL0     C30000   6.432   2.256   0.420 -0.2805 -0.2533 -0.0079
  218MOL0     C30001   6.642   2.580   0.111  0.6009  0.4854 -0.6474
  218MOL0     C30002   6.721   2.653   0.199  0.0602 -0.5510 -0.1072
  218MOL0     C30003   6.794   2.759   0.149  0.4702  0.8360  1.1241
  218MOL0     C30004   6.785   2.803   0.021  0.2202 -0.1293 -0.0671
  218MOL0     O30005   6.847   2.921  -0.002  0.4829 -0.3220 -0.2443
  218MOL0     C30006   6.766   3.043   0.018 -0.3603 -0.1842 -0.5856
  218MOL0     C30007   6.760   3.129  -0.106 -0.6186 -0.5892  0.0919
  218MOL0     C30008   6.892   3.199  -0.141  0.4197  0.2043 -0.5739
  218MOL0     C30009   6.890   3.248  -0.285  0.6223 -0.5402  0.0249
  218MOL0     C30010   6.787   3.353  -0.295 -1.3435  0.4674  0.4954
  218MOL0     C30011   6.711   3.447  -0.314  0.1995  0.5382  0.0948
  218MOL0     C30012   6.710   2.738  -0.072 -0.5587 -0.5571 -0.1907
  218MOL0     C30013   6.640   2.615  -0.028  0.5334 -0.0037 -0.3185
  218MOL0     C30014   6.560   2.528  -0.129  0.4384  0.3166 -0.9818
  218MOL0     H30015   6.760   2.341   0.384  0.1878 -1.5740 -2.5264
  218MOL0     H30016   6.791   2.143   0.500 -1.3498 -1.8596 -0.4107
  218MOL0     H30017   6.479   1.980   0.725 -0.8477  2.6157 -2.7791
  218MOL0     H30018   6.617   2.080   0.743  0.3014 -0.2873  0.8819
  218MOL0     H30019   6.671   1.919   0.897 -0.0437  4.9321 -1.8631
  218MOL0     H30020   6.614   1.785   0.783 -1.3939  1.0674  1.2505
  218MOL0     H30021   6.793   1.813   0.639  0.4195  3.2363 -0.2558
  218MOL0     H30022   6.859   1.946   0.720 -1.9612  1.0936 -3.3609
  218MOL0     H30023   6.816   1.688   0.890  0.5994 -0.8492 -0.7276
  218MOL0     H30024   6.953   1.694   0.782 -2.2126 -1.6527 -0.0872
  218MOL0     H30025   6.874   1.896   0.988 -0.9403 -0.6417 -1.4130
  218MOL0     H30026   7.027   1.909   0.888  0.3842  0.9037  1.8087
  218MOL0     H30027   6.958   1.684   1.085 -0.8373  0.8842  1.2126
  218MOL0     H30028   7.115   1.709   0.994  1.6321  2.1420  0.3689
  218MOL0     H30029   7.116   1.785   1.238  2.3091 -0.9209 -1.0677
  218MOL0     H30030   6.997   1.910   1.186  0.9346  0.0041  1.7030
  218MOL0     H30031   7.247   1.883   1.024  0.1337  1.7234 -0.4313
  218MOL0     H30032   7.144   2.023   1.038 -0.5365  0.1762  0.4499
  218MOL0     H30033   7.359   1.838   1.306 -2.5245  1.2789  2.5240
  218MOL0     H30034   7.551   1.920   1.471  2.1875 -0.2871  1.0101
  218MOL0     H30035   7.514   2.076   1.552  2.0480  2.0371 -0.4394
  218MOL0     H30036   7.696   2.008   1.311  2.0067 -0.5449  0.2277
  218MOL0     H30037   7.693   2.175   1.381  2.0937  0.0840  0.7161
  218MOL0     H30038   7.799   2.133   1.566  1.0345  1.1878 -1.7915
  218MOL0     H30039   7.759   1.953   1.564 -0.0277  0.0352 -0.3966
  218MOL0     H30040   7.951   2.123   1.390 -1.5532 -0.0225 -0.5846
  218MOL0     H30041   8.000   1.990   1.501  1.2220 -0.0837 -0.6912
  218MOL0     H30042   7.943   1.794   1.127  0.5726 -0.7779  0.2644
  218MOL0     H30043   8.139   1.826   0.852  2.0354  1.3592  0.2359
  218MOL0     H30044   8.045   1.706   0.935  1.5677 -0.8865  0.3526
  218MOL0     H30045   8.221   1.681   0.931 -0.1641 -0.9343  1.7542
  218MOL0     H30046   8.579   2.062   0.922  1.6752  3.0835 -1.4360
  218MOL0     H30047   8.781   2.038   0.789 -1.8743 -0.6188  0.4637
  218MOL0     H30048   9.139   1.804   0.930 -0.1706  1.2016  0.9448
  218MOL0     H30049   9.040   1.730   0.800  0.1780  0.7345 -0.1994
  218MOL0     H30050   9.256   1.930   0.734  0.6312 -0.1235  1.0295
  218MOL0     H30051   9.250   1.764   0.702  1.5248  0.0043 -2.6719
  218MOL0     H30052   9.031   1.931   0.591  0.4512  0.3304  0.8125
  218MOL0     H30053   9.069   1.770   0.553  2.5361 -1.5225 -1.4908
  218MOL0     H30054   9.277   1.801   0.456  0.1000  0.7205 -1.6625
  218MOL0     H30055   9.304   1.959   0.511  0.8178 -2.7025  1.5850
  218MOL0     H30056   9.093   1.866   0.308  1.3900 -2.2865  2.1782
  218MOL0     H30057   9.091   2.030   0.371  0.4455  1.3206 -0.5898
  218MOL0     H30058   9.326   1.895   0.211 -3.8943 -2.3464  0.5440
  218MOL0     H30059   9.327   2.060   0.280 -0.7974  1.4687 -0.5437
  218MOL0     H30060   9.244   2.126   0.058 -0.8708 -0.4671 -1.4046
  218MOL0     H30061   9.096   2.075   0.137 -0.2563 -2.1879  1.3214
  218MOL0     H30062   9.148   1.836   0.079 -4.0075  2.4809  2.3825
  218MOL0     H30063   9.264   1.897  -0.044 -0.8766 -2.7515  0.0962
  218MOL0     H30064   8.947   1.788   1.103  1.2372 -0.0452  0.2694
  218MOL0     H30065   8.719   1.769   1.192 -1.5939  2.3002  1.6898
  218MOL0     H30066   8.366   2.019   1.243  0.8560 -3.1227  3.8662
  218MOL0     H30067   8.172   2.054   1.379  0.5418 -0.5820  0.1021
  218MOL0     H30068   6.364   2.085   0.520  0.5787  1.0363  3.5265
  218MOL0     H30069   6.340   2.305   0.390  1.3644  2.7114 -0.5341
  218MOL0     H30070   6.731   2.628   0.304  1.3224  1.2256  0.2421
  218MOL0     H30071   6.856   2.816   0.217 -3.7691  2.8567  3.7239
  218MOL0     H30072   6.660   3.030   0.042 -0.5935  0.6715 -1.0905
  218MOL0     H30073   6.806   3.109   0.095  0.9944 -3.0704  1.3529
  218MOL0     H30074   6.685   3.207  -0.093 -0.1413  0.0422 -0.7927
  218MOL0     H30075   6.724   3.070  -0.191 -1.2751  3.7686 -2.9760
  218MOL0     H30076   6.909   3.277  -0.066 -2.1549 -2.3423  3.0055
  218MOL0     H30077   6.982   3.138  -0.133 -1.8265 -3.1050  4.9358
  218MOL0     H30078   6.872   3.163  -0.352 -1.7798  0.7092 -1.0207
  218MOL0     H30079   6.982   3.301  -0.313 -0.9925  2.7353  0.4908
  218MOL0     H30080   6.630   3.514  -0.335  0.8946  0.2990 -4.2712
  218MOL0     H30081   6.687   2.776  -0.171  0.7687  1.3456  0.1699
  218MOL0     H30082   6.637   2.495  -0.198  2.1509 -1.9338  1.7683
  218MOL0     H30083   6.509   2.440  -0.089  6.2040 -3.3922 -0.6075
  218MOL0     H30084   6.489   2.597  -0.175 -0.2899  0.3656  0.1691
  219MOL0     O30085   0.586   8.489   1.797 -0.6283 -0.0599  0.4723
  219MOL0     C30086   0.484   8.516   1.735 -0.3522 -0.5722 -0.4762
  219MOL0     O30087   0.465   8.629   1.668  0.3673  0.2670  0.2512
  219MOL0     C30088   0.552   8.736   1.694  0.1605  0.3943  0.6693
  219MOL0     C30089   0.622   8.790   1.584  0.7256  0.5574 -0.2588
  219MOL0     C30090   0.709   8.898   1.606 -0.2033 -0.4547 -0.2173
  219MOL0     C30091   0.737   8.950   1.727  0.1813  0.4098 -0.5562
  219MOL0     O30092   0.823   9.062   1.745 -0.0470 -0.2789  0.2644
  219MOL0     C30093   0.929   9.084   1.652  0.0609  0.3210 -0.6090
  219MOL0     C30094   1.044   8.992   1.682 -1.0337  0.0798  0.3728
  219MOL0     C30095   1.171   9.024   1.608  0.1827  0.6961  0.2300
  219MOL0     C30096   1.288   8.923   1.634 -0.0641 -0.0027 -0.4134
  219MOL0     C30097   1.389   8.919   1.509  1.0213 -0.2759 -0.0480
  219MOL0     C30098   1.434   9.052   1.453 -0.4684  0.1251 -0.3731
  219MOL0     C30099   1.530   9.119   1.553  0.8838  0.7051  0.2195
  219MOL0     C30100   1.612   9.231   1.483 -0.1274 -0.6594 -0.2988
  219MOL0     N30101   1.698   9.306   1.571  0.1900 -0.0166  0.1561
  219MOL0     C30102   1.822   9.250   1.598  0.7568  0.3208 -0.5916
  219MOL0     C30103   1.888   9.342   1.659  0.4980 -1.0485  0.2088
  219MOL0     C30104   2.024   9.332   1.721  0.4899 -0.0368 -0.5487
  219MOL0     C30105   2.139   9.327   1.609 -0.3314  0.6414  0.8581
  219MOL0     C30106   2.126   9.449   1.509  1.0207 -0.0928 -0.4474
  219MOL0     C30107   2.039   9.429   1.376 -0.7712  0.2891 -1.1852
  219MOL0     O30108   2.099   9.314   1.307 -0.5649 -0.6061 -0.1855
  219MOL0     C30109   2.007   9.229   1.258 -0.1390  0.1823  0.0413
  219MOL0     C30110   1.891   9.269   1.185 -0.3313 -0.2663 -0.2922
  219MOL0     C30111   1.797   9.172   1.139 -0.7367  0.1238  0.5301
  219MOL0     C30112   1.687   9.218   1.050  0.2305  1.1959 -0.7696
  219MOL0     C30113   1.817   9.034   1.171  0.1846  0.6509 -0.4579
  219MOL0     C30114   1.732   8.920   1.147  0.3735 -0.3622  0.6485
  219MOL0     O30115   1.690   8.906   1.016  0.0974 -0.4243 -0.2340
  219MOL0     C30116   1.586   8.826   0.994  1.0540 -0.0992 -1.4237
  219MOL0     C30117   1.466   8.837   1.061 -0.3031  0.0004 -0.7268
  219MOL0     C30118   1.354   8.747   1.043 -0.6778  0.6438  0.8844
  219MOL0     C30119   1.368   8.645   0.947  0.0923  0.4376 -0.3706
  219MOL0     O30120   1.282   8.538   0.927  0.0955 -0.8142  0.4412
  219MOL0     C30121   1.161   8.547   1.004 -0.1641  0.5972 -0.1327
  219MOL0     C30122   1.054   8.442   0.963 -0.0377 -0.6164  0.4974
  219MOL0     C30123   0.951   8.420   1.065  0.3492  0.1570 -0.0937
  219MOL0     C30124   0.837   8.332   1.005 -0.4292  1.0459 -0.5178
  219MOL0     C30125   0.858   8.178   1.034 -0.5786 -0.0153  0.2203
  219MOL0     C30126   0.750   8.100   0.952 -0.1419 -0.1751 -0.4547
  219MOL0     C30127   0.793   7.957   0.955 -0.7426  0.2894 -0.6184
  219MOL0     C30128   0.673   7.869   0.925  0.1996 -0.1069  0.6510
  219MOL0    Cl30129   0.615   7.899   0.759  0.3147  0.3292  0.7257
  219MOL0     C30130   1.481   8.633   0.876 -0.0539 -0.2499  0.8476
  219MOL0     C30131   1.593   8.713   0.898 -0.1549 -0.2980  0.4365
  219MOL0     O30132   1.715   8.838   1.237 -0.0852 -0.4192 -0.7876
  219MOL0     C30133   1.930   9.000   1.245  0.2588  0.4417  0.1028
  219MOL0     C30134   2.030   9.089   1.274  0.6089 -0.9289 -0.3308
  219MOL0     N30135   1.802   9.453   1.674  0.4549 -0.4318 -0.8203
  219MOL0     N30136   1.686   9.418   1.642 -0.0293  0.2944 -0.0695
  219MOL0     C30137   0.669   8.901   1.837 -0.0599 -0.4292 -0.0426
  219MOL0     C30138   0.579   8.794   1.822  0.1456  0.0153  0.2369
  219MOL0     C30139   0.363   8.428   1.762  0.8252  0.9944  0.5117
  219MOL0     C30140   0.362   8.365   1.888  0.1218 -1.1689  0.7214
  219MOL0     C30141   0.250   8.284   1.926 -1.2670 -0.1565  0.5160
  219MOL0     C30142   0.154   8.241   1.837  0.5447  0.2787  1.0897
  219MOL0     O30143   0.043   8.166   1.871  0.7149  0.5093  0.2291
  219MOL0     C30144  -0.053   8.106   1.782 -0.5404 -0.3493 -0.1828
  219MOL0     C30145   0.002   7.985   1.705  0.2087  0.6813  0.1168
  219MOL0     C30146  -0.104   7.916   1.623  1.2434  0.5701  0.2331
  219MOL0     C30147  -0.167   7.797   1.683 -0.5287  0.1558 -0.3664
  219MOL0     C30148  -0.298   7.773   1.627 -0.2556  0.0166  0.4456
  219MOL0     C30149  -0.409   7.744   1.580 -0.3683 -0.4122 -0.6525
  219MOL0     C30150   0.160   8.305   1.713 -0.2952 -0.2052  0.7027
  219MOL0     C30151   0.261   8.392   1.668 -0.3696 -0.2831  0.5528
  219MOL0     C30152   0.264   8.446   1.526  0.4426  0.0441  0.5384
  219MOL0     H30153   0.634   8.732   1.492  2.5260 -1.6568  1.2549
  219MOL0     H30154   0.756   8.928   1.513 -0.1578 -2.3508 -0.8517
  219MOL0     H30155   0.967   9.186   1.665  1.2304 -0.2907  1.2158
  219MOL0     H30156   0.903   9.072   1.546  1.6474 -0.7928 -0.8992
  219MOL0     H30157   1.063   8.995   1.790 -0.4951 -0.6553  0.3084
  219MOL0     H30158   1.024   8.887   1.658  0.8333 -0.3372  0.4349
  219MOL0     H30159   1.151   9.029   1.501  1.8574  1.5533 -0.0723
  219MOL0     H30160   1.209   9.120   1.645  0.2689  0.2889  1.2362
  219MOL0     H30161   1.331   8.940   1.733  0.2794  2.3934 -0.9136
  219MOL0     H30162   1.235   8.828   1.646 -1.3604  0.9227  1.7703
  219MOL0     H30163   1.346   8.860   1.428  0.0698 -0.0738  0.2936
  219MOL0     H30164   1.470   8.850   1.536  1.7635  0.7665  0.4788
  219MOL0     H30165   1.490   9.042   1.360  0.1087  2.7197 -0.3836
  219MOL0     H30166   1.349   9.116   1.426  0.8354  1.1416 -2.3531
  219MOL0     H30167   1.592   9.039   1.595 -0.0170  1.3289  2.9711
  219MOL0     H30168   1.470   9.167   1.631  2.9690  0.9620  1.7731
  219MOL0     H30169   1.672   9.189   1.401  0.6383 -0.7557  0.3028
  219MOL0     H30170   1.549   9.302   1.428  0.8044 -0.8746 -1.7024
  219MOL0     H30171   1.867   9.152   1.582  0.1749 -0.5054  2.1916
  219MOL0     H30172   2.043   9.241   1.779 -0.6812  0.3389  0.4698
  219MOL0     H30173   2.028   9.418   1.788 -0.4600  1.4994 -2.3439
  219MOL0     H30174   2.238   9.343   1.654 -0.2428 -0.5923  1.1479
  219MOL0     H30175   2.145   9.232   1.556  2.5915  1.8197 -1.2111
  219MOL0     H30176   2.090   9.533   1.569 -0.7006 -1.1902  0.1414
  219MOL0     H30177   2.225   9.469   1.467  0.6082  0.6566 -1.1143
  219MOL0     H30178   1.934   9.425   1.407 -0.2361 -0.2101  0.7042
  219MOL0     H30179   2.048   9.515   1.310 -0.0079  0.0414 -1.4123
  219MOL0     H30180   1.865   9.375   1.180 -0.9392 -0.3120  1.4111
  219MOL0     H30181   1.631   9.132   1.015  2.1096 -0.6009  0.3893
  219MOL0     H30182   1.720   9.276   0.963  1.7028  2.0795  0.3137
  219MOL0     H30183   1.613   9.276   1.105  0.9325  1.1378  0.2701
  219MOL0     H30184   1.457   8.927   1.122 -2.6512  0.1749 -1.2210
  219MOL0     H30185   1.271   8.762   1.111 -2.1870 -0.4809 -0.6242
  219MOL0     H30186   1.180   8.530   1.111  0.9148 -2.2480 -0.6844
  219MOL0     H30187   1.104   8.634   0.971 -2.0808 -0.6545 -0.2793
  219MOL0     H30188   1.001   8.485   0.878 -1.4909 -1.1282  1.1107
  219MOL0     H30189   1.102   8.349   0.931  2.5145  0.7533  0.1113
  219MOL0     H30190   0.904   8.518   1.073  1.9144  1.2018 -2.3398
  219MOL0     H30191   0.988   8.380   1.160 -0.0201 -1.7512 -0.7095
  219MOL0     H30192   0.834   8.354   0.898  1.3055 -0.0782 -0.8358
  219MOL0     H30193   0.746   8.372   1.051 -0.7207 -1.2450  1.0617
  219MOL0     H30194   0.952   8.146   0.987 -0.2892  0.2312  0.6279
  219MOL0     H30195   0.854   8.157   1.141 -0.5169 -0.9598  0.0474
  219MOL0     H30196   0.741   8.127   0.847  0.8347 -1.4201 -0.8759
  219MOL0     H30197   0.660   8.114   1.013  1.5156  3.3381  1.5621
  219MOL0     H30198   0.849   7.932   1.045  0.6623 -3.3346 -2.3073
  219MOL0     H30199   0.873   7.933   0.884  0.2429 -4.0440  1.6446
  219MOL0     H30200   0.596   7.889   1.000  1.7951  0.4953  2.1988
  219MOL0     H30201   0.699   7.765   0.943  0.1993 -0.7152 -2.2586
  219MOL0     H30202   1.499   8.560   0.799 -0.7451 -1.4243  1.7593
  219MOL0     H30203   1.683   8.719   0.838 -0.4107 -2.6786 -0.2939
  219MOL0     H30204   1.942   8.895   1.270 -1.1993  0.3436  0.4835
  219MOL0     H30205   2.112   9.070   1.343  0.4258 -3.2663 -0.6672
  219MOL0     H30206   0.677   8.925   1.942 -0.3187 -3.7254  0.8655
  219MOL0     H30207   0.540   8.760   1.917 -2.2074 -1.1666 -1.0776
  219MOL0     H30208   0.452   8.364   1.949  1.2875 -0.7149 -0.9277
  219MOL0     H30209   0.229   8.248   2.026 -3.4371  2.0333  0.9613
  219MOL0     H30210  -0.139   8.070   1.839  0.1057 -1.0096  0.4099
  219MOL0     H30211  -0.084   8.182   1.710  2.1609  1.6930  0.6376
  219MOL0     H30212   0.052   7.914   1.772 -2.2204 -1.1541  0.1498
  219MOL0     H30213   0.074   8.033   1.639  0.8393  0.7137  0.8114
  219MOL0     H30214  -0.182   7.988   1.597  2.5580  1.2795 -1.9952
  219MOL0     H30215  -0.071   7.895   1.520 -2.4580  2.1321 -1.4816
  219MOL0     H30216  -0.187   7.812   1.789 -3.4403  1.1421 -0.9466
  219MOL0     H30217  -0.105   7.707   1.672  0.8471  1.2995 -2.6037
  219MOL0     H30218  -0.513   7.733   1.555 -0.7639 -1.2225  1.2317
  219MOL0     H30219   0.081   8.285   1.641  1.3606  2.1596 -1.9394
  219MOL0     H30220   0.175   8.508   1.515  0.6621  1.2127  4.0448
  219MOL0     H30221   0.353   8.503   1.499 -1.0595  2.3790  0.2371
  219MOL0     H30222   0.254   8.360   1.459 -0.1460 -0.3259  1.0862
  220MOL0     O30223   4.384   3.510   5.018 -0.9909 -0.1588  0.4580
  220MOL0     C30224   4.328   3.616   5.041  0.0583 -0.2283  0.4077
  220MOL0     O30225   4.385   3.730   5.019  0.4462  1.1055  0.4764
  220MOL0     C30226   4.479   3.742   4.927 -0.2386 -0.1037 -0.2498
  220MOL0     C30227   4.482   3.855   4.837  0.6841 -0.0282 -0.5150
  220MOL0     C30228   4.593   3.873   4.759  0.8154 -0.3208 -0.8385
  220MOL0     C30229   4.703   3.790   4.762 -0.8536  0.5123  0.4584
  220MOL0     O30230   4.821   3.814   4.697 -0.2051 -0.0462  0.0090
  220MOL0     C30231   4.813   3.865   4.564 -0.0319  0.5725  0.1097
  220MOL0     C30232   4.947   3.936   4.544 -0.6406  0.0470 -0.1474
  220MOL0     C30233   4.957   4.021   4.418 -0.0645  0.3416  0.8476
  220MOL0     C30234   4.856   4.136   4.424 -1.1111  0.2274 -0.8807
  220MOL0     C30235   4.854   4.203   4.294 -0.4931 -0.3906  0.3767
  220MOL0     C30236   4.769   4.329   4.284  0.9635  0.1103  0.3595
  220MOL0     C30237   4.612   4.323   4.296 -0.2851  1.0854  0.1956
  220MOL0     C30238   4.576   4.354   4.443 -0.6116  0.3751  0.0357
  220MOL0     N30239   4.439   4.313   4.479 -0.6812  0.2881 -0.2274
  220MOL0     C30240   4.317   4.332   4.415  1.5645  0.1689  0.7961
  220MOL0     C30241   4.221   4.264   4.484 -0.8791  0.2518  0.1101
  220MOL0     C30242   4.077   4.282   4.466 -0.2785 -0.4482 -0.9130
  220MOL0     C30243   3.990   4.153   4.479  0.2483 -0.1818 -0.0899
  220MOL0     C30244   3.997   4.071   4.350  0.3630  0.3600  0.0187
  220MOL0     C30245   3.917   3.937   4.353  0.0929  0.3112 -0.2214
  220MOL0     O30246   3.774   3.958   4.348 -0.0271  0.3565 -0.9818
  220MOL0     C30247   3.692   3.967   4.456  0.5796  0.2401 -0.1500
  220MOL0     C30248   3.564   4.003   4.417 -0.8459  0.0152  0.0673
  220MOL0     C30249   3.461   4.025   4.509 -0.1384  0.2685 -0.1378
  220MOL0     C30250   3.323   4.055   4.456  0.1842 -0.4916 -0.4508
  220MOL0     C30251   3.491   4.006   4.644  0.5656  0.6007  0.3520
  220MOL0     C30252   3.380   4.025   4.748  0.5672  0.1717  0.6154
  220MOL0     O30253   3.294   4.127   4.730 -0.2951 -0.3831 -0.4385
  220MOL0     C30254   3.182   4.158   4.807  0.0703  0.0128 -0.8817
  220MOL0     C30255   3.181   4.141   4.943  1.0592  0.2081 -0.9152
  220MOL0     C30256   3.062   4.173   5.009 -0.2239 -0.0294 -0.3484
  220MOL0     C30257   2.945   4.228   4.942 -0.3658  0.4498 -0.1413
  220MOL0     O30258   2.833   4.269   4.996  0.2123 -0.3159 -0.1769
  220MOL0     C30259   2.803   4.233   5.130  0.2069  0.0142  1.1343
  220MOL0     C30260   2.828   4.343   5.219 -0.8070  0.0378  0.5924
  220MOL0     C30261   2.832   4.291   5.364 -0.0478  0.2436  1.7357
  220MOL0     C30262   2.688   4.255   5.412 -0.0150 -0.0777  0.3951
  220MOL0     C30263   2.699   4.227   5.560 -0.1209 -0.1676 -0.2315
  220MOL0     C30264   2.608   4.111   5.619  0.1453  0.2710 -0.5016
  220MOL0     C30265   2.626   4.105   5.773 -0.6190 -0.1264  0.6635
  220MOL0     C30266   2.509   4.035   5.837 -0.1755  0.7489 -0.1184
  220MOL0    Cl30267   2.489   3.866   5.770  0.4393 -0.2509  0.2240
  220MOL0     C30268   2.950   4.237   4.797 -0.4225  0.5826 -0.4195
  220MOL0     C30269   3.074   4.214   4.739 -0.4950 -0.1681 -0.0052
  220MOL0     O30270   3.378   3.945   4.837  0.5423  0.1962  0.3806
  220MOL0     C30271   3.617   3.952   4.680  1.3217 -0.4670 -0.3931
  220MOL0     C30272   3.723   3.938   4.590 -0.0814 -0.8003 -0.1874
  220MOL0     N30273   4.286   4.206   4.597  0.6299  0.5480 -0.0926
  220MOL0     N30274   4.415   4.240   4.594  1.4852 -0.3257 -0.1226
  220MOL0     C30275   4.702   3.691   4.857  0.0207 -0.2868 -0.1680
  220MOL0     C30276   4.600   3.672   4.943 -0.9785  0.3352  0.4238
  220MOL0     C30277   4.204   3.605   5.121 -0.4563 -1.0508 -0.4509
  220MOL0     C30278   4.168   3.487   5.179  0.1117 -0.1553  0.4841
  220MOL0     C30279   4.057   3.475   5.273 -0.5108  0.4177  0.9582
  220MOL0     C30280   3.964   3.577   5.292 -0.8018 -0.3502  0.5917
  220MOL0     O30281   3.852   3.554   5.371  0.3306 -0.1757 -0.1166
  220MOL0     C30282   3.776   3.678   5.408  0.4341 -0.2648  0.4163
  220MOL0     C30283   3.647   3.662   5.486 -0.5222 -0.3022 -0.1241
  220MOL0     C30284   3.537   3.602   5.398 -0.8368 -0.2291  0.1611
  220MOL0     C30285   3.410   3.557   5.460  1.0306 -0.5217 -0.1484
  220MOL0     C30286   3.407   3.420   5.523  0.2427 -0.2047  0.0108
  220MOL0     C30287   3.425   3.311   5.579 -1.2307  0.3370  0.1023
  220MOL0     C30288   4.001   3.695   5.226  0.7284 -0.0869  0.4974
  220MOL0     C30289   4.109   3.713   5.138 -0.2325  0.2404  0.6204
  220MOL0     C30290   4.134   3.840   5.085  0.0535 -0.2931  0.1059
  220MOL0     H30291   4.404   3.930   4.826 -0.3269 -0.8831  0.6133
  220MOL0     H30292   4.605   3.968   4.707  2.5862 -0.7144 -1.2326
  220MOL0     H30293   4.730   3.933   4.544  2.1665  2.3857 -4.3507
  220MOL0     H30294   4.808   3.778   4.497 -0.5169 -0.2423  1.1730
  220MOL0     H30295   4.981   4.003   4.624  0.8572 -1.4068  0.5080
  220MOL0     H30296   5.026   3.860   4.539 -1.1848 -0.4969 -0.4743
  220MOL0     H30297   5.059   4.058   4.401  0.4477 -2.1167 -2.1112
  220MOL0     H30298   4.939   3.957   4.332  2.1892  1.1329 -0.2945
  220MOL0     H30299   4.757   4.093   4.440  0.1719 -2.2068  1.3189
  220MOL0     H30300   4.876   4.210   4.502 -2.5764 -0.4537  0.2018
  220MOL0     H30301   4.817   4.127   4.224 -0.3804 -0.6721  0.6188
  220MOL0     H30302   4.950   4.233   4.251  0.7479 -1.8703  1.9745
  220MOL0     H30303   4.813   4.404   4.350  2.7493 -0.8080  0.2954
  220MOL0     H30304   4.774   4.379   4.186 -5.1282  1.7511  0.5011
  220MOL0     H30305   4.581   4.226   4.257  0.5809 -0.4581  3.1255
  220MOL0     H30306   4.569   4.398   4.228 -0.2443  1.6596  0.7891
  220MOL0     H30307   4.643   4.304   4.513 -1.1686 -2.5420 -1.3612
  220MOL0     H30308   4.580   4.462   4.456 -1.7648  0.2714  1.4602
  220MOL0     H30309   4.303   4.386   4.322 -1.4553  0.3647  1.2636
  220MOL0     H30310   4.060   4.330   4.369  1.9720  3.6709  0.5081
  220MOL0     H30311   4.045   4.354   4.541  0.0531 -0.1234 -1.0774
  220MOL0     H30312   4.023   4.096   4.567  2.1922 -1.1426 -1.3625
  220MOL0     H30313   3.884   4.178   4.490  0.1373  0.0410 -1.5158
  220MOL0     H30314   3.970   4.132   4.264  0.9391 -2.7867 -2.6252
  220MOL0     H30315   4.104   4.049   4.339  0.1989  0.4772 -2.3815
  220MOL0     H30316   3.923   3.868   4.268 -1.7563 -0.0644 -0.1039
  220MOL0     H30317   3.947   3.883   4.444  0.7478  1.7271  0.4260
  220MOL0     H30318   3.556   4.019   4.310 -0.3684 -1.0091 -0.1340
  220MOL0     H30319   3.284   4.148   4.498  0.8250  0.9200 -2.8185
  220MOL0     H30320   3.242   3.981   4.456 -1.6561  1.4212 -0.0300
  220MOL0     H30321   3.332   4.084   4.351 -0.3205  1.6666  0.0495
  220MOL0     H30322   3.271   4.099   4.986  1.6437  0.4305 -1.8909
  220MOL0     H30323   3.070   4.171   5.117 -1.1018 -1.4575 -0.2781
  220MOL0     H30324   2.694   4.226   5.141 -0.0012  0.9320 -0.2232
  220MOL0     H30325   2.846   4.135   5.154 -0.2698 -0.8857 -1.4244
  220MOL0     H30326   2.926   4.388   5.200 -1.6902  2.2376  0.9563
  220MOL0     H30327   2.756   4.425   5.216 -0.6093  0.1689 -0.8538
  220MOL0     H30328   2.862   4.382   5.418 -1.5377  2.7038 -1.2671
  220MOL0     H30329   2.908   4.212   5.367  0.0389  0.2322 -0.0310
  220MOL0     H30330   2.641   4.173   5.356 -1.3255  2.2449 -2.1535
  220MOL0     H30331   2.616   4.337   5.405 -1.3025 -1.2746 -1.3311
  220MOL0     H30332   2.804   4.202   5.577  0.3130  1.5093 -0.3124
  220MOL0     H30333   2.694   4.319   5.618 -2.9858 -0.4717  0.1524
  220MOL0     H30334   2.645   4.016   5.578 -0.1991 -1.1447  2.1917
  220MOL0     H30335   2.504   4.131   5.593 -0.0560 -1.0619 -0.8118
  220MOL0     H30336   2.630   4.208   5.809 -0.6210 -0.1572  0.7509
  220MOL0     H30337   2.724   4.058   5.776 -1.4142 -1.9062  0.2193
  220MOL0     H30338   2.417   4.086   5.808 -1.5819 -1.4223  0.2841
  220MOL0     H30339   2.519   4.034   5.946 -1.2315 -1.0491 -0.0015
  220MOL0     H30340   2.870   4.279   4.736 -0.4664 -2.3704 -2.5893
  220MOL0     H30341   3.090   4.246   4.636  0.4485 -0.2266  0.1163
  220MOL0     H30342   3.632   3.937   4.786  2.3180  1.3270 -0.2466
  220MOL0     H30343   3.817   3.915   4.639  0.1457 -2.7555 -1.4169
  220MOL0     H30344   4.783   3.620   4.873  0.0105 -0.3998 -0.5942
  220MOL0     H30345   4.600   3.607   5.029  0.4532 -0.2169  0.0313
  220MOL0     H30346   4.230   3.398   5.182  1.9015  1.0422  3.0702
  220MOL0     H30347   4.026   3.382   5.320 -1.7326 -0.5291 -1.5331
  220MOL0     H30348   3.841   3.742   5.469  0.1269 -0.3872  0.8776
  220MOL0     H30349   3.741   3.721   5.314 -5.2536  0.8256  2.6561
  220MOL0     H30350   3.613   3.761   5.518  0.4390  0.7045 -1.9801
  220MOL0     H30351   3.668   3.598   5.571 -2.1639 -0.5608  0.1153
  220MOL0     H30352   3.506   3.686   5.335  2.3372  1.1861  0.2969
  220MOL0     H30353   3.578   3.518   5.340  0.9563 -1.8277  3.4571
  220MOL0     H30354   3.323   3.559   5.394  0.0245 -2.7018  0.9914
  220MOL0     H30355   3.384   3.632   5.536 -0.6266 -0.7761 -0.4123
  220MOL0     H30356   3.433   3.216   5.627 -0.8509  1.0491  1.4969
  220MOL0     H30357   3.933   3.778   5.247  2.0591  1.2266 -0.2103
  220MOL0     H30358   4.234   3.882   5.105  0.6770 -0.5323 -2.2515
  220MOL0     H30359   4.119   3.841   4.977 -2.7154  0.0882  0.4329
  220MOL0     H30360   4.068   3.909   5.138  0.5372  0.7417 -0.5925
  221MOL0     O30361   7.378   5.305   3.163 -0.0943  0.1428  0.4920
  221MOL0     C30362   7.320   5.399   3.103  0.3453  0.2656  0.2814
  221MOL0     O30363   7.266   5.387   2.979 -0.6665  0.0841  0.0573
  221MOL0     C30364   7.296   5.270   2.905  0.1321  0.1135 -0.3294
  221MOL0     C30365   7.200   5.172   2.903  0.4302 -0.0305  0.5369
  221MOL0     C30366   7.231   5.045   2.847  0.3593  0.1684 -1.1863
  221MOL0     C30367   7.353   5.018   2.797 -0.4682 -0.9791 -0.1020
  221MOL0     O30368   7.381   4.896   2.735  0.4379  0.7204 -0.3369
  221MOL0     C30369   7.493   4.874   2.646 -0.5800 -0.7569 -0.1736
  221MOL0     C30370   7.614   4.787   2.694  0.5500 -0.1445 -0.6137
  221MOL0     C30371   7.674   4.835   2.828  0.2122 -0.6534  0.7190
  221MOL0     C30372   7.702   4.715   2.918 -0.0968  0.3866 -0.2072
  221MOL0     C30373   7.770   4.758   3.051  0.0606  0.2067  0.4369
  221MOL0     C30374   7.812   4.642   3.142  0.2485 -0.8047 -0.6238
  221MOL0     C30375   7.692   4.568   3.206  0.8532  1.1517  0.2434
  221MOL0     C30376   7.722   4.536   3.356  0.5396  0.4232 -0.4692
  221MOL0     N30377   7.841   4.451   3.368  0.0858 -0.8488  0.1675
  221MOL0     C30378   7.833   4.313   3.376 -0.9025 -0.0051 -0.0326
  221MOL0     C30379   7.953   4.279   3.428 -0.2192 -0.3064  0.2581
  221MOL0     C30380   8.009   4.142   3.456  1.2323  0.3690 -0.1825
  221MOL0     C30381   7.919   4.056   3.550  0.6721  0.5540  0.1111
  221MOL0     C30382   7.925   3.910   3.523  0.9280  0.4639 -0.3015
  221MOL0     C30383   8.041   3.829   3.590  0.3217 -0.3586 -0.5734
  221MOL0     O30384   8.164   3.871   3.531 -0.8377 -0.7086 -0.5620
  221MOL0     C30385   8.277   3.805   3.553 -0.4295 -0.5550 -0.5447
  221MOL0     C30386   8.296   3.732   3.674 -1.2393  0.2092  0.0164
  221MOL0     C30387   8.410   3.659   3.711  0.2661 -0.1770  0.8396
  221MOL0     C30388   8.406   3.589   3.857 -0.3799  0.0636  0.2052
  221MOL0     C30389   8.516   3.660   3.608  0.4750  0.4501  0.2592
  221MOL0     C30390   8.658   3.603   3.629  0.0646 -0.6563 -0.4913
  221MOL0     O30391   8.743   3.641   3.534  0.4110 -0.6387  0.0084
  221MOL0     C30392   8.879   3.606   3.521  0.5671  0.6365  0.6084
  221MOL0     C30393   8.973   3.707   3.479 -0.2785 -0.1470 -0.6172
  221MOL0     C30394   9.113   3.678   3.483 -0.1859  0.6217 -0.5169
  221MOL0     C30395   9.152   3.545   3.503  0.2235  0.6462 -0.4559
  221MOL0     O30396   9.288   3.518   3.525 -0.2463  0.2330 -0.1641
  221MOL0     C30397   9.358   3.418   3.451 -0.0331  0.1734 -0.0939
  221MOL0     C30398   9.366   3.477   3.301 -0.8230  0.5100  0.2430
  221MOL0     C30399   9.425   3.624   3.289 -0.5820 -0.6550 -0.3498
  221MOL0     C30400   9.389   3.705   3.161  0.2729 -0.7872  0.0399
  221MOL0     C30401   9.435   3.845   3.170  0.2049 -0.0566 -1.1185
  221MOL0     C30402   9.421   3.936   3.049  0.5107 -0.7588 -0.4913
  221MOL0     C30403   9.282   3.955   2.991  0.4367 -0.0455 -0.2666
  221MOL0     C30404   9.195   4.061   3.059  0.5820  0.1025 -0.2642
  221MOL0    Cl30405   9.159   4.025   3.239  0.2235 -0.3819  0.3688
  221MOL0     C30406   9.064   3.440   3.527  0.3375 -0.3214 -0.5222
  221MOL0     C30407   8.925   3.476   3.541 -1.2194 -0.6544  0.2598
  221MOL0     O30408   8.693   3.542   3.733 -0.3531  0.3645 -0.8001
  221MOL0     C30409   8.493   3.724   3.487 -0.6583  0.0457  0.7795
  221MOL0     C30410   8.378   3.802   3.466  0.0192  0.1826  0.3201
  221MOL0     N30411   8.031   4.390   3.449 -0.2036  0.5394 -0.5868
  221MOL0     N30412   7.958   4.496   3.425 -0.3669  0.3115 -0.0117
  221MOL0     C30413   7.455   5.114   2.802 -0.5470  0.1153  0.7115
  221MOL0     C30414   7.424   5.244   2.850  0.0054 -0.5337  0.0335
  221MOL0     C30415   7.310   5.528   3.168 -0.8799 -0.3187  0.2368
  221MOL0     C30416   7.203   5.606   3.120 -0.1902  0.4552  0.0339
  221MOL0     C30417   7.167   5.728   3.183  0.4803 -1.3801  0.0824
  221MOL0     C30418   7.247   5.785   3.288 -0.5971 -0.4975  0.2348
  221MOL0     O30419   7.225   5.900   3.355  1.0585 -1.0326 -0.0341
  221MOL0     C30420   7.094   5.958   3.373 -0.3278 -0.0200 -0.5511
  221MOL0     C30421   7.106   6.101   3.423 -0.6097 -0.2139  0.0673
  221MOL0     C30422   6.975   6.184   3.401  0.3719  0.7489  1.0660
  221MOL0     C30423   6.962   6.329   3.446 -0.8339 -0.4248 -0.5736
  221MOL0     C30424   7.092   6.396   3.401  0.2537  0.4394 -0.2842
  221MOL0     C30425   7.193   6.460   3.370  0.6397  0.8166  0.4707
  221MOL0     C30426   7.364   5.715   3.321  0.4433 -0.1426  0.1746
  221MOL0     C30427   7.397   5.581   3.265 -0.1626 -0.0592  0.6670
  221MOL0     C30428   7.515   5.510   3.322  0.3898 -0.8287 -0.0906
  221MOL0     H30429   7.101   5.186   2.944 -0.1343  2.7214 -1.5193
  221MOL0     H30430   7.155   4.968   2.846  0.3117  0.1896 -0.0316
  221MOL0     H30431   7.524   4.970   2.605 -3.6633  0.7901  0.8434
  221MOL0     H30432   7.460   4.820   2.556  0.0865 -0.4868 -0.5874
  221MOL0     H30433   7.576   4.688   2.723  0.9524  0.1326  0.9543
  221MOL0     H30434   7.688   4.771   2.615 -1.5177 -0.5242 -2.5749
  221MOL0     H30435   7.760   4.894   2.797 -1.0158  2.2366  2.4596
  221MOL0     H30436   7.601   4.901   2.876  3.3681  2.6335  1.4033
  221MOL0     H30437   7.609   4.664   2.945  0.2092 -0.7872 -1.2894
  221MOL0     H30438   7.762   4.647   2.857  1.3717  2.4590 -1.1938
  221MOL0     H30439   7.700   4.824   3.104  1.7608  1.3575  1.3619
  221MOL0     H30440   7.859   4.813   3.017 -0.7371  1.1403 -0.1872
  221MOL0     H30441   7.875   4.567   3.094 -1.6628 -3.1108  0.2674
  221MOL0     H30442   7.875   4.691   3.217 -0.0284 -1.2280 -0.1030
  221MOL0     H30443   7.669   4.475   3.153 -0.5920  0.7391  1.5188
  221MOL0     H30444   7.602   4.629   3.191  0.2778  0.1136 -0.6875
  221MOL0     H30445   7.744   4.628   3.411  1.5744  0.9174 -1.6623
  221MOL0     H30446   7.647   4.478   3.412  0.4705  1.7334  0.8572
  221MOL0     H30447   7.752   4.246   3.350  1.0306 -2.4932 -0.0103
  221MOL0     H30448   8.107   4.151   3.502  1.0471  1.6913 -0.0107
  221MOL0     H30449   8.030   4.107   3.354  3.3750  2.6642 -0.6308
  221MOL0     H30450   7.957   4.068   3.652 -2.8871  1.3917  1.4719
  221MOL0     H30451   7.816   4.093   3.554  1.3258  2.4204  2.6646
  221MOL0     H30452   7.832   3.863   3.554  1.4659 -0.1722  0.3928
  221MOL0     H30453   7.933   3.891   3.415  0.4855 -0.9519 -0.0991
  221MOL0     H30454   8.039   3.854   3.697 -2.0311 -1.3837 -0.3192
  221MOL0     H30455   8.026   3.721   3.586  3.0970 -0.8384 -0.0697
  221MOL0     H30456   8.216   3.728   3.747  0.7823  0.6757  2.4197
  221MOL0     H30457   8.504   3.569   3.901 -0.6282  1.5900  1.5499
  221MOL0     H30458   8.358   3.491   3.852 -0.1393  0.0149 -2.0662
  221MOL0     H30459   8.346   3.642   3.931 -1.9334 -1.5193  0.1618
  221MOL0     H30460   8.925   3.799   3.448 -0.7456 -0.8894 -2.1938
  221MOL0     H30461   9.182   3.761   3.472 -0.0604  0.8250  1.4130
  221MOL0     H30462   9.463   3.405   3.481 -0.4855 -1.9929  0.7485
  221MOL0     H30463   9.321   3.316   3.455 -1.1854  0.4951 -1.6719
  221MOL0     H30464   9.432   3.415   3.240 -0.7026  1.9681 -1.1648
  221MOL0     H30465   9.267   3.471   3.255 -0.6587  0.1917 -0.0746
  221MOL0     H30466   9.533   3.628   3.310 -0.2497  1.7452 -2.2051
  221MOL0     H30467   9.376   3.687   3.363  0.6102 -1.6212  1.3451
  221MOL0     H30468   9.280   3.699   3.150  0.0878 -0.5309  1.5333
  221MOL0     H30469   9.443   3.649   3.084  2.1559 -1.1736  1.5811
  221MOL0     H30470   9.378   3.891   3.251 -0.6358  1.9791 -2.7649
  221MOL0     H30471   9.541   3.843   3.197  0.6275 -2.1013 -2.6132
  221MOL0     H30472   9.472   3.886   2.966  1.9251  0.8940 -0.6734
  221MOL0     H30473   9.474   4.027   3.080  1.7100 -1.3598 -0.7131
  221MOL0     H30474   9.221   3.865   3.001  1.4828 -0.6207  1.3077
  221MOL0     H30475   9.295   3.984   2.886  3.3281  0.5443  0.1790
  221MOL0     H30476   9.102   4.077   3.005  1.3597  0.1721 -1.6225
  221MOL0     H30477   9.252   4.154   3.052  1.7974 -0.6932 -1.7864
  221MOL0     H30478   9.095   3.336   3.536 -2.3126 -1.2845 -1.4005
  221MOL0     H30479   8.857   3.398   3.576 -0.1012 -1.3111  1.0609
  221MOL0     H30480   8.567   3.728   3.408 -1.3321 -1.1617  0.0533
  221MOL0     H30481   8.365   3.860   3.375 -1.3920 -0.4337  0.1031
  221MOL0     H30482   7.557   5.089   2.773 -0.6121  0.1319  0.4651
  221MOL0     H30483   7.500   5.322   2.850 -0.5795  0.0534  0.4224
  221MOL0     H30484   7.145   5.584   3.031 -2.1551 -0.5007  1.4770
  221MOL0     H30485   7.090   5.793   3.143  2.8103  2.7338  1.5707
  221MOL0     H30486   7.035   5.959   3.281 -0.3885  1.7568 -0.5146
  221MOL0     H30487   7.049   5.890   3.446  0.1871 -1.3877 -1.4560
  221MOL0     H30488   7.177   6.146   3.353 -0.0207 -0.6617  0.3664
  221MOL0     H30489   7.149   6.098   3.523  0.0080 -0.3252 -0.1990
  221MOL0     H30490   6.944   6.181   3.297  0.2754  2.1622  1.0346
  221MOL0     H30491   6.896   6.135   3.459 -0.5924 -0.2870 -1.0405
  221MOL0     H30492   6.957   6.333   3.555  0.3628 -1.1123 -0.4659
  221MOL0     H30493   6.874   6.382   3.409  0.1347  1.3759 -0.3853
  221MOL0     H30494   7.277   6.517   3.336  0.7247 -0.3928 -1.4806
  221MOL0     H30495   7.417   5.771   3.397 -1.0533  0.5781  0.7413
  221MOL0     H30496   7.583   5.586   3.362 -1.0792  0.2874  0.3860
  221MOL0     H30497   7.488   5.440   3.401 -2.4295 -0.3091 -0.4750
  221MOL0     H30498   7.569   5.447   3.250  1.5820 -0.0146  0.0642
  222MOL0     O30499   2.220   1.992   9.492  0.2402  0.5595 -0.8336
  222MOL0     C30500   2.112   2.039   9.494 -0.0475  0.1956 -0.5566
  222MOL0     O30501   2.046   2.075   9.598  0.4557  0.2501 -0.6316
  222MOL0     C30502   2.062   2.022   9.724 -0.0538  0.2540  0.3315
  222MOL0     C30503   2.116   1.891   9.744 -0.1855 -0.6121  0.1903
  222MOL0     C30504   2.133   1.851   9.884 -1.0382  0.8953  0.7238
  222MOL0     C30505   2.083   1.931   9.982 -0.6237  0.3809 -0.5026
  222MOL0     O30506   2.086   1.877  10.111  0.3361  0.4397 -0.8729
  222MOL0     C30507   2.009   1.941  10.210 -0.4964 -0.1608  0.0155
  222MOL0     C30508   1.859   1.930  10.206  0.5905 -0.7131  0.5638
  222MOL0     C30509   1.782   1.995  10.324  0.0512 -0.0433  0.5595
  222MOL0     C30510   1.635   1.987  10.311  1.1676 -0.0628 -0.4613
  222MOL0     C30511   1.551   2.044  10.425 -0.3137 -0.2351  0.5485
  222MOL0     C30512   1.525   1.963  10.553 -0.1195 -0.7393  0.4748
  222MOL0     C30513   1.427   1.846  10.528 -0.0223  1.0392  0.3835
  222MOL0     C30514   1.365   1.778  10.657  0.0332 -0.2197  0.6649
  222MOL0     N30515   1.252   1.688  10.629  0.3047 -0.2553 -0.0055
  222MOL0     C30516   1.135   1.716  10.552 -0.6240  0.6006  0.0175
  222MOL0     C30517   1.060   1.602  10.569  0.8525  0.7547  0.5499
  222MOL0     C30518   0.925   1.577  10.511  0.4264  0.0919  0.7290
  222MOL0     C30519   0.892   1.661  10.384  0.3611  0.4172  0.8144
  222MOL0     C30520   1.005   1.661  10.270  0.4135  0.1026  0.8734
  222MOL0     C30521   0.944   1.675  10.139  0.1620  0.4142 -0.4711
  222MOL0     O30522   0.877   1.801  10.125  0.4498 -0.6341 -0.5069
  222MOL0     C30523   0.831   1.833   9.997  0.1560  0.2567  0.4403
  222MOL0     C30524   0.919   1.871   9.896  1.3259  0.2695  1.0583
  222MOL0     C30525   0.871   1.889   9.766 -0.0482 -0.3614  0.4078
  222MOL0     C30526   0.959   1.928   9.656  0.8278  0.1526  0.3477
  222MOL0     C30527   0.727   1.866   9.734  0.1327  0.2447 -0.1373
  222MOL0     C30528   0.667   1.844   9.594 -0.1619  0.8260  0.4736
  222MOL0     O30529   0.529   1.847   9.579  0.0679 -0.6727  0.0641
  222MOL0     C30530   0.459   1.843   9.456 -0.3851  0.2519 -0.1317
  222MOL0     C30531   0.484   1.942   9.363 -0.2288  0.3782  0.5057
  222MOL0     C30532   0.401   1.953   9.252  0.1087 -0.0520  0.5212
  222MOL0     C30533   0.285   1.878   9.237 -0.2486 -0.5537  1.2740
  222MOL0     O30534   0.200   1.902   9.129  0.2520 -0.2251 -0.1751
  222MOL0     C30535   0.060   1.898   9.131  0.5374 -0.4519 -0.7712
  222MOL0     C30536   0.011   1.837   8.997 -0.1849 -1.1342  0.5065
  222MOL0     C30537  -0.120   1.751   8.995  0.2761  0.4754  0.7259
  222MOL0     C30538  -0.242   1.805   9.070 -0.5130 -0.2682 -0.0474
  222MOL0     C30539  -0.288   1.945   9.023 -0.0522  0.6504 -0.3937
  222MOL0     C30540  -0.428   1.995   9.072 -0.0628  0.9475 -0.5738
  222MOL0     C30541  -0.531   1.931   8.995  0.6539  0.1711  1.0691
  222MOL0     C30542  -0.664   2.003   9.014  0.6367 -0.0623 -0.8909
  222MOL0    Cl30543  -0.694   2.156   8.909 -0.2123 -0.8518  0.3939
  222MOL0     C30544   0.256   1.791   9.337  0.0060 -0.2402  0.7941
  222MOL0     C30545   0.336   1.778   9.452 -0.7897  0.0567 -0.6372
  222MOL0     O30546   0.749   1.797   9.505  0.2007 -0.5328 -0.2116
  222MOL0     C30547   0.647   1.852   9.848  0.4475  0.1604 -0.5513
  222MOL0     C30548   0.693   1.838   9.977  0.6926 -0.7234  0.2246
  222MOL0     N30549   1.123   1.514  10.653 -0.1445 -0.7385 -0.5327
  222MOL0     N30550   1.239   1.569  10.686  0.0688  0.7034 -0.2217
  222MOL0     C30551   2.043   2.060   9.952 -0.0689  0.2966 -0.3137
  222MOL0     C30552   2.019   2.109   9.825  0.1433  0.5239 -0.4152
  222MOL0     C30553   2.043   2.026   9.369 -0.2087 -0.0626 -0.1182
  222MOL0     C30554   1.993   2.148   9.310 -0.5467  0.7110 -0.2236
  222MOL0     C30555   1.906   2.146   9.195 -1.0370 -0.6858 -0.9057
  222MOL0     C30556   1.886   2.025   9.130  0.1351 -0.1538  0.3235
  222MOL0     O30557   1.810   2.010   9.020  0.3983  0.5671 -0.2382
  222MOL0     C30558   1.682   1.948   9.050 -0.9768  0.4892  0.5980
  222MOL0     C30559   1.611   1.894   8.925  0.4744  0.3470 -0.5353
  222MOL0     C30560   1.469   1.842   8.972 -0.3014 -0.1194  0.5849
  222MOL0     C30561   1.390   1.816   8.835 -0.1736 -0.2243 -1.0095
  222MOL0     C30562   1.249   1.796   8.861  0.0004  1.2516 -0.1036
  222MOL0     C30563   1.130   1.795   8.881 -0.0080 -0.2139 -0.6397
  222MOL0     C30564   1.936   1.913   9.191 -1.2200  0.6100 -0.0881
  222MOL0     C30565   2.025   1.907   9.294 -0.3581 -0.3699 -0.0418
  222MOL0     C30566   2.086   1.779   9.325  0.5784 -0.2308 -0.9960
  222MOL0     H30567   2.167   1.838   9.664  3.4031  3.5613 -0.6680
  222MOL0     H30568   2.200   1.768   9.902 -0.9216  1.1199  1.3249
  222MOL0     H30569   2.027   2.049  10.207  0.9286 -0.2760  2.1468
  222MOL0     H30570   2.046   1.907  10.307  1.5722  0.4612 -0.4899
  222MOL0     H30571   1.835   1.975  10.109  0.9918  1.2408  1.3323
  222MOL0     H30572   1.831   1.826  10.190 -0.7623 -0.0363 -2.0612
  222MOL0     H30573   1.807   1.941  10.416 -1.7299  1.9200  2.3314
  222MOL0     H30574   1.815   2.099  10.337 -2.6261  0.8903  0.5471
  222MOL0     H30575   1.614   2.057  10.229  0.6090 -0.7071 -0.8773
  222MOL0     H30576   1.598   1.889  10.282 -1.5488  0.5198  0.7183
  222MOL0     H30577   1.461   2.065  10.367  1.8361 -1.3551 -3.6358
  222MOL0     H30578   1.590   2.146  10.439 -1.7316  0.7171 -1.8091
  222MOL0     H30579   1.625   1.932  10.582  3.2533  1.9445 -6.1395
  222MOL0     H30580   1.486   2.027  10.632 -1.0202 -1.2933  0.5026
  222MOL0     H30581   1.480   1.767  10.474 -1.1987  2.1335 -2.6129
  222MOL0     H30582   1.356   1.883  10.453  1.0966  0.1402 -1.1896
  222MOL0     H30583   1.459   1.731  10.687  0.5509  0.0357 -0.4951
  222MOL0     H30584   1.341   1.846  10.740  0.3645 -2.1658  2.4447
  222MOL0     H30585   1.127   1.806  10.493 -0.9631  1.7838  1.7918
  222MOL0     H30586   0.849   1.586  10.589  0.8384 -1.8211  1.4036
  222MOL0     H30587   0.932   1.473  10.479  2.5433  0.0452  1.1764
  222MOL0     H30588   0.801   1.622  10.337  0.8126 -0.0106  0.2778
  222MOL0     H30589   0.866   1.762  10.417 -0.4347  0.5199 -0.0933
  222MOL0     H30590   1.069   1.750  10.276 -0.0127  0.9420 -3.8469
  222MOL0     H30591   1.070   1.574  10.275 -0.2894 -0.6359 -1.7737
  222MOL0     H30592   1.030   1.669  10.070  2.1028  1.3478  1.7394
  222MOL0     H30593   0.881   1.589  10.114 -0.8930  0.5410  1.5609
  222MOL0     H30594   1.025   1.876   9.919  2.0422  1.2830 -2.0063
  222MOL0     H30595   0.917   2.004   9.589  0.0544 -0.3823  0.1991
  222MOL0     H30596   0.987   1.836   9.604 -0.8262  0.1368 -0.6099
  222MOL0     H30597   1.049   1.976   9.694  1.0587 -0.4012  0.5138
  222MOL0     H30598   0.563   2.015   9.382 -0.5389  0.8169  0.1298
  222MOL0     H30599   0.411   2.033   9.179  5.0535 -0.3940  0.4960
  222MOL0     H30600   0.019   1.836   9.212 -0.5596 -0.6097 -1.4131
  222MOL0     H30601   0.018   1.999   9.135  1.6427  0.1938 -3.2635
  222MOL0     H30602  -0.004   1.925   8.934 -0.9178  0.4686  2.7941
  222MOL0     H30603   0.088   1.795   8.931  0.3998  1.6505 -0.7283
  222MOL0     H30604  -0.088   1.652   9.028  2.5822 -1.4226 -5.6148
  222MOL0     H30605  -0.143   1.736   8.889  6.1933  0.3515 -0.9276
  222MOL0     H30606  -0.225   1.801   9.178 -0.5900 -2.4744 -0.0780
  222MOL0     H30607  -0.326   1.736   9.058 -1.3028  0.6352  0.1382
  222MOL0     H30608  -0.213   2.015   9.060  0.2920 -0.7726  1.7311
  222MOL0     H30609  -0.278   1.959   8.915  0.0745  3.7046 -0.0894
  222MOL0     H30610  -0.437   2.104   9.072 -2.5655  0.9921  4.1263
  222MOL0     H30611  -0.435   1.975   9.179 -1.9054  1.1795 -0.6247
  222MOL0     H30612  -0.549   1.830   9.031 -0.8695  0.3041  0.7663
  222MOL0     H30613  -0.509   1.941   8.888 -1.2751  2.2004  0.7699
  222MOL0     H30614  -0.662   2.031   9.119  0.3546 -0.7773 -0.6917
  222MOL0     H30615  -0.745   1.933   8.995 -1.6182  1.9604  0.7814
  222MOL0     H30616   0.160   1.741   9.339  0.8642 -1.9755  0.3661
  222MOL0     H30617   0.309   1.711   9.534 -0.0290  2.2585  1.5470
  222MOL0     H30618   0.539   1.846   9.837  0.3962 -1.2267  0.4178
  222MOL0     H30619   0.614   1.817  10.048  0.7687 -0.3028  0.4318
  222MOL0     H30620   2.004   2.123  10.031  5.6512  2.5760  1.2117
  222MOL0     H30621   1.977   2.206   9.803 -0.8445 -0.0052 -0.9563
  222MOL0     H30622   2.010   2.250   9.343  0.3754  1.4950 -2.8668
  222MOL0     H30623   1.863   2.239   9.159 -2.6084 -0.2655  1.7818
  222MOL0     H30624   1.691   1.868   9.124  2.6788  0.9849  0.8733
  222MOL0     H30625   1.613   2.022   9.093 -1.3335  0.7744 -0.4421
  222MOL0     H30626   1.668   1.814   8.878  3.3575  0.1451  2.8976
  222MOL0     H30627   1.613   1.974   8.851  3.0045  0.4716 -0.3952
  222MOL0     H30628   1.490   1.757   9.037  4.2172  1.2356  1.3032
  222MOL0     H30629   1.414   1.919   9.027 -1.8523  0.9448 -2.2519
  222MOL0     H30630   1.440   1.729   8.790  2.6527  0.6966  0.1083
  222MOL0     H30631   1.381   1.900   8.766 -0.6229  0.8575  0.3120
  222MOL0     H30632   1.023   1.791   8.888 -0.1195  0.6082 -1.6331
  222MOL0     H30633   1.903   1.820   9.146 -1.0276  1.1454 -1.3916
  222MOL0     H30634   2.123   1.731   9.234  0.1184 -1.1336 -0.7224
  222MOL0     H30635   2.179   1.780   9.382  0.1703 -0.5097 -0.3021
  222MOL0     H30636   2.017   1.720   9.387  0.0305  1.8435  0.4657
  223MOL0     O30637   2.642   3.471  10.583 -0.4800 -0.3563 -0.3100
  223MOL0     C30638   2.639   3.588  10.546  0.1650 -0.2852  0.0198
  223MOL0     O30639   2.710   3.689  10.606  0.0782  0.6018 -0.2490
  223MOL0     C30640   2.778   3.653  10.719  0.2816  0.3618 -0.5117
  223MOL0     C30641   2.714   3.653  10.841  0.1497 -1.0468  0.4540
  223MOL0     C30642   2.789   3.606  10.954 -0.3472 -0.2706  0.2242
  223MOL0     C30643   2.919   3.544  10.937 -0.6299 -0.1048 -0.1317
  223MOL0     O30644   2.992   3.479  11.042  0.0214  0.0914 -1.0913
  223MOL0     C30645   2.917   3.422  11.154 -0.0085 -0.5994 -0.9890
  223MOL0     C30646   3.012   3.342  11.253  0.5470 -0.1977 -0.1784
  223MOL0     C30647   3.067   3.215  11.193  0.2480  1.2437 -0.3800
  223MOL0     C30648   3.063   3.100  11.291  0.6329 -0.5381 -0.7062
  223MOL0     C30649   3.127   2.983  11.235 -0.9060 -0.0070  0.1845
  223MOL0     C30650   3.130   2.870  11.359  0.1978 -0.6930  0.7046
  223MOL0     C30651   3.181   2.734  11.333 -0.1522  0.2649 -0.0352
  223MOL0     C30652   3.329   2.722  11.321  0.0839 -1.6637 -0.3133
  223MOL0     N30653   3.353   2.584  11.281  1.0061 -0.0702  0.2152
  223MOL0     C30654   3.368   2.549  11.149 -0.1618  0.5927 -0.1192
  223MOL0     C30655   3.399   2.417  11.163 -0.7418 -0.0747 -0.2754
  223MOL0     C30656   3.429   2.315  11.056 -0.4353 -0.2031 -0.3127
  223MOL0     C30657   3.586   2.279  11.040 -0.5073  0.0469 -0.7306
  223MOL0     C30658   3.627   2.170  11.139  0.1224 -1.0515 -0.5346
  223MOL0     C30659   3.780   2.129  11.096  0.3120 -0.6993  0.1809
  223MOL0     O30660   3.874   2.232  11.074 -0.0514 -0.3014 -0.0984
  223MOL0     C30661   3.918   2.309  11.186 -0.3244  0.1712 -0.5288
  223MOL0     C30662   4.000   2.418  11.154 -0.6149 -1.2068  0.3266
  223MOL0     C30663   4.050   2.510  11.243  0.1113 -0.4663  0.2362
  223MOL0     C30664   4.107   2.640  11.183 -0.1060 -0.9613  0.9994
  223MOL0     C30665   4.020   2.493  11.379  0.6810  0.0218  0.2756
  223MOL0     C30666   4.055   2.597  11.479 -0.2128  0.3133  0.1223
  223MOL0     O30667   3.962   2.625  11.573 -0.0133  0.2437 -0.1201
  223MOL0     C30668   4.008   2.716  11.666  0.0251 -0.2813 -0.3522
  223MOL0     C30669   4.113   2.691  11.754  0.0020  0.6804  0.3043
  223MOL0     C30670   4.150   2.793  11.844 -0.1964  0.1657 -0.5727
  223MOL0     C30671   4.092   2.924  11.845 -0.0464  0.2223  0.5363
  223MOL0     O30672   4.136   3.021  11.927 -0.9645 -0.0890 -0.4339
  223MOL0     C30673   4.241   3.092  11.862 -0.1157 -0.2914 -0.0469
  223MOL0     C30674   4.309   3.184  11.961 -0.1258 -0.0816 -0.5907
  223MOL0     C30675   4.424   3.250  11.896 -0.7189 -1.1799  0.9200
  223MOL0     C30676   4.498   3.359  11.976 -0.6289 -0.2020  0.1789
  223MOL0     C30677   4.434   3.500  11.950 -0.7943 -0.4711 -0.5289
  223MOL0     C30678   4.507   3.600  12.036  0.3924  0.1921 -0.2067
  223MOL0     C30679   4.455   3.740  12.026  0.3059  0.4197  0.3894
  223MOL0     C30680   4.328   3.760  12.098 -0.3677 -0.7869  0.0297
  223MOL0    Cl30681   4.228   3.890  12.020 -0.6362  0.1612  0.1449
  223MOL0     C30682   3.977   2.948  11.761  0.9309  0.2045  0.3316
  223MOL0     C30683   3.939   2.843  11.672  0.0852  0.1274  0.6835
  223MOL0     O30684   4.165   2.649  11.466  0.4528  0.8296 -0.3866
  223MOL0     C30685   3.955   2.377  11.417 -0.2921  0.9831 -1.2361
  223MOL0     C30686   3.893   2.283  11.324 -0.5205  1.3357  0.5616
  223MOL0     N30687   3.412   2.381  11.297 -0.4018 -0.2862  0.7037
  223MOL0     N30688   3.375   2.484  11.365 -0.5334 -0.2740  0.1860
  223MOL0     C30689   2.973   3.544  10.810 -0.1188  0.4578  0.5682
  223MOL0     C30690   2.910   3.611  10.707  0.6672 -0.3006 -0.8587
  223MOL0     C30691   2.556   3.615  10.423  0.3943  0.8256 -0.6390
  223MOL0     C30692   2.466   3.507  10.377 -0.5979  0.0741 -0.2513
  223MOL0     C30693   2.373   3.536  10.278 -0.4697  1.0081  0.1983
  223MOL0     C30694   2.373   3.648  10.193 -0.1662  0.2839  0.2450
  223MOL0     O30695   2.306   3.658  10.077  0.1063 -0.4967  0.8743
  223MOL0     C30696   2.272   3.532  10.010  0.1369 -0.2575 -0.1557
  223MOL0     C30697   2.327   3.541   9.873 -0.3113  0.1361  0.0174
  223MOL0     C30698   2.310   3.679   9.801  0.3273  0.7912  0.3607
  223MOL0     C30699   2.340   3.661   9.650 -0.0528 -0.1239  0.1608
  223MOL0     C30700   2.287   3.786   9.591  0.0191 -0.4925  0.4656
  223MOL0     C30701   2.237   3.872   9.539  0.0829  0.3558  0.5399
  223MOL0     C30702   2.457   3.751  10.234  0.5078 -0.0682  0.0188
  223MOL0     C30703   2.551   3.733  10.346  0.1837 -0.0641  0.8445
  223MOL0     C30704   2.637   3.849  10.385  0.0044 -0.7800  0.2088
  223MOL0     H30705   2.613   3.692  10.843  1.5368  3.5225 -1.9004
  223MOL0     H30706   2.744   3.609  11.052  0.0945  0.6867  0.4159
  223MOL0     H30707   2.839   3.354  11.118 -0.7389  0.0224 -0.6217
  223MOL0     H30708   2.876   3.506  11.211  0.7669 -0.8744 -0.0022
  223MOL0     H30709   3.099   3.404  11.276  1.1885 -1.5437  1.2209
  223MOL0     H30710   2.953   3.338  11.346 -0.9079  2.5944 -0.8740
  223MOL0     H30711   3.020   3.188  11.097  1.4782 -1.1888 -0.3696
  223MOL0     H30712   3.171   3.219  11.159  0.1277 -4.1441 -2.4189
  223MOL0     H30713   3.109   3.127  11.387 -0.5562  1.0301 -0.5407
  223MOL0     H30714   2.958   3.074  11.311  0.4411  0.8443  0.1923
  223MOL0     H30715   3.229   2.995  11.197 -0.9007 -1.8845 -0.5145
  223MOL0     H30716   3.069   2.946  11.150  0.8728 -0.1679 -1.0126
  223MOL0     H30717   3.193   2.911  11.439 -1.5145  0.6570  1.4417
  223MOL0     H30718   3.032   2.870  11.409  0.3152  0.6834  0.9832
  223MOL0     H30719   3.138   2.699  11.239  3.5723 -2.7515 -0.8578
  223MOL0     H30720   3.138   2.663  11.404 -0.3382  1.3323  0.9429
  223MOL0     H30721   3.373   2.790  11.247 -0.9538  0.0230  0.5549
  223MOL0     H30722   3.372   2.754  11.416 -0.5415  3.4110 -1.4345
  223MOL0     H30723   3.349   2.606  11.059  2.0272 -0.5630 -1.3977
  223MOL0     H30724   3.388   2.348  10.960  1.0510  0.0934 -0.8821
  223MOL0     H30725   3.375   2.228  11.094  1.3304 -1.5093 -0.6608
  223MOL0     H30726   3.590   2.250  10.934 -2.8218 -0.1203 -0.8380
  223MOL0     H30727   3.643   2.366  11.072  1.8158 -1.9139  0.7894
  223MOL0     H30728   3.619   2.220  11.236 -1.9556 -2.4545  0.0741
  223MOL0     H30729   3.562   2.083  11.143 -2.2007  0.6103  3.3665
  223MOL0     H30730   3.823   2.066  11.174  5.5301  1.4640 -0.5523
  223MOL0     H30731   3.782   2.080  10.998  0.3282 -0.3786  0.0212
  223MOL0     H30732   4.007   2.446  11.050  2.2333 -0.2849  0.6684
  223MOL0     H30733   4.072   2.648  11.080 -2.5901  3.2165  1.9496
  223MOL0     H30734   4.216   2.645  11.196  0.2205 -0.4547 -1.4204
  223MOL0     H30735   4.071   2.738  11.217 -5.6212 -2.8537  1.7045
  223MOL0     H30736   4.148   2.589  11.764 -6.1382 -2.1748 -1.8888
  223MOL0     H30737   4.222   2.787  11.925 -0.7955  0.3937 -0.0150
  223MOL0     H30738   4.317   3.015  11.846  1.2375  1.2026 -1.0649
  223MOL0     H30739   4.197   3.146  11.777 -1.7561 -2.0400 -0.3911
  223MOL0     H30740   4.237   3.261  11.990 -0.3375 -0.2080 -0.7740
  223MOL0     H30741   4.345   3.120  12.042  3.9384 -0.9500 -2.8420
  223MOL0     H30742   4.389   3.303  11.807 -0.5624 -0.2983  1.3719
  223MOL0     H30743   4.489   3.171  11.856 -0.5576  0.3475 -2.1441
  223MOL0     H30744   4.600   3.345  11.938 -1.2527 -1.0136 -1.2680
  223MOL0     H30745   4.505   3.338  12.083 -0.4469 -1.1663 -0.0161
  223MOL0     H30746   4.444   3.531  11.846 -2.6906  0.1863 -0.5452
  223MOL0     H30747   4.326   3.491  11.968 -0.2767 -1.7994  2.3866
  223MOL0     H30748   4.611   3.584  12.005  0.1190  2.0215 -2.3836
  223MOL0     H30749   4.490   3.571  12.140  1.3148 -2.8154 -0.8116
  223MOL0     H30750   4.447   3.755  11.918  1.0272 -2.2437 -0.1171
  223MOL0     H30751   4.534   3.812  12.050  1.1043 -0.4554  0.4697
  223MOL0     H30752   4.353   3.792  12.199 -0.6469 -1.4846  0.3304
  223MOL0     H30753   4.269   3.668  12.102 -0.9290 -0.4167  0.3548
  223MOL0     H30754   3.932   3.046  11.769  2.4678  1.0808 -1.0619
  223MOL0     H30755   3.848   2.846  11.613  0.0259  0.6028  0.7915
  223MOL0     H30756   3.933   2.368  11.523 -1.7109  0.3638 -1.5498
  223MOL0     H30757   3.829   2.202  11.358  0.8630  0.6315  1.5769
  223MOL0     H30758   3.073   3.501  10.803 -0.8713 -1.5001  1.0378
  223MOL0     H30759   2.945   3.620  10.604  2.1121  0.7637 -0.3059
  223MOL0     H30760   2.458   3.411  10.428  0.5388  0.9646  1.6975
  223MOL0     H30761   2.301   3.457  10.259 -2.6989  2.6699  1.3020
  223MOL0     H30762   2.307   3.440  10.058  0.4075  0.0389  0.2228
  223MOL0     H30763   2.162   3.528  10.010  0.0187  1.8997  0.5246
  223MOL0     H30764   2.293   3.456   9.813  0.8079 -0.5205  0.2761
  223MOL0     H30765   2.436   3.529   9.877 -0.2212  1.2293  1.7689
  223MOL0     H30766   2.207   3.713   9.811 -0.1090 -0.2586 -0.3043
  223MOL0     H30767   2.362   3.758   9.856 -1.6485  2.3577  0.0592
  223MOL0     H30768   2.284   3.582   9.599  1.0664  1.1916 -3.4337
  223MOL0     H30769   2.447   3.653   9.627  0.1767 -0.5027  1.3303
  223MOL0     H30770   2.166   3.945   9.504 -2.1338 -1.3382  1.2518
  223MOL0     H30771   2.453   3.844  10.178 -4.1225  0.6550  1.1101
  223MOL0     H30772   2.742   3.831  10.360 -0.1621 -0.7885 -0.5159
  223MOL0     H30773   2.599   3.940  10.339  0.6668  1.1058  3.1242
  223MOL0     H30774   2.621   3.872  10.490 -3.4260  0.2636 -0.4147
  224MOL0     O30775   6.595   1.368   5.231 -0.0209 -0.0569  0.4502
  224MOL0     C30776   6.477   1.379   5.270 -0.8307  1.2977 -0.0291
  224MOL0     O30777   6.368   1.394   5.185 -0.2598 -0.2362  0.9098
  224MOL0     C30778   6.243   1.376   5.240 -0.0250 -0.6169  0.3656
  224MOL0     C30779   6.201   1.245   5.258 -0.5003 -0.3525  0.2139
  224MOL0     C30780   6.066   1.215   5.283  0.1877 -2.1831 -0.2400
  224MOL0     C30781   5.977   1.331   5.304 -0.8514  0.1334 -0.6627
  224MOL0     O30782   5.841   1.325   5.336 -0.5019 -0.9563  0.1005
  224MOL0     C30783   5.787   1.196   5.365 -0.4850 -0.2090  0.5627
  224MOL0     C30784   5.644   1.208   5.402  0.1978  0.4564  0.5673
  224MOL0     C30785   5.631   1.268   5.540 -1.0383  0.2919  0.9313
  224MOL0     C30786   5.481   1.259   5.587  0.2165  0.4889 -0.7316
  224MOL0     C30787   5.445   1.358   5.707  0.4869  0.0858 -0.7022
  224MOL0     C30788   5.460   1.506   5.661  0.0978 -0.4334  0.0970
  224MOL0     C30789   5.377   1.608   5.729 -0.2025  0.1773  0.1910
  224MOL0     C30790   5.422   1.755   5.703  0.1864  1.0133 -0.2886
  224MOL0     N30791   5.358   1.839   5.808 -1.1025  0.7482  0.3767
  224MOL0     C30792   5.248   1.916   5.776  0.6847 -0.9489  0.3143
  224MOL0     C30793   5.207   1.969   5.894 -1.0497  1.0166 -0.2135
  224MOL0     C30794   5.078   2.047   5.923  0.0128  0.4312  0.2028
  224MOL0     C30795   4.948   1.970   5.886 -0.1064 -0.0708 -0.7225
  224MOL0     C30796   4.936   1.832   5.942 -0.3677  0.4048  0.1469
  224MOL0     C30797   5.009   1.795   6.076  0.8382  0.0093  0.0355
  224MOL0     O30798   4.923   1.699   6.151 -0.6170  0.5146  0.3497
  224MOL0     C30799   4.921   1.561   6.118  0.5352  0.5593 -0.4110
  224MOL0     C30800   4.834   1.468   6.183  0.0546  0.0599 -0.7439
  224MOL0     C30801   4.835   1.332   6.171 -0.0373 -0.4449  0.3802
  224MOL0     C30802   4.737   1.264   6.265 -0.1915  0.1092  0.1839
  224MOL0     C30803   4.927   1.276   6.078 -0.0676 -0.1295  0.2903
  224MOL0     C30804   4.934   1.131   6.036  0.5515  0.0828 -0.9202
  224MOL0     O30805   5.036   1.090   5.962 -0.3137  0.5421  0.5747
  224MOL0     C30806   5.033   0.965   5.905  0.6629  0.6954  0.0954
  224MOL0     C30807   5.026   0.948   5.766  1.5483  0.5859 -0.3687
  224MOL0     C30808   5.002   0.819   5.718  0.2232 -0.1991 -0.0007
  224MOL0     C30809   5.001   0.704   5.790  0.5114 -0.8504 -0.1660
  224MOL0     O30810   4.998   0.583   5.733  0.1614 -0.0129 -0.2879
  224MOL0     C30811   4.886   0.544   5.668  0.4121 -0.2137  0.4257
  224MOL0     C30812   4.923   0.393   5.642 -0.3311 -0.1837  0.8248
  224MOL0     C30813   4.814   0.303   5.576  0.1876  0.0979  0.0359
  224MOL0     C30814   4.770   0.346   5.433  0.3272 -0.2465 -0.1537
  224MOL0     C30815   4.657   0.268   5.363 -0.4917 -0.5800  0.8558
  224MOL0     C30816   4.526   0.268   5.444  0.5639 -0.3332 -0.5721
  224MOL0     C30817   4.433   0.380   5.403 -0.1494 -0.4207 -0.1737
  224MOL0     C30818   4.311   0.395   5.501 -0.5585  0.5761 -0.6517
  224MOL0    Cl30819   4.203   0.255   5.460  0.1447 -0.3286  0.0859
  224MOL0     C30820   5.013   0.722   5.928  0.1598  0.6126 -0.1567
  224MOL0     C30821   5.035   0.851   5.992 -0.5307 -0.4585 -0.9314
  224MOL0     O30822   4.861   1.052   6.103  0.6212 -0.5960 -0.3905
  224MOL0     C30823   5.006   1.363   6.000  0.2570 -0.0998 -0.1076
  224MOL0     C30824   5.002   1.502   6.026 -0.5883  0.1016  0.0842
  224MOL0     N30825   5.300   1.930   5.984 -0.3597  0.0055  0.6760
  224MOL0     N30826   5.387   1.844   5.941 -0.0571  0.4310  0.1577
  224MOL0     C30827   6.026   1.459   5.294 -0.2971  0.6805  0.1867
  224MOL0     C30828   6.156   1.486   5.258  0.5288  0.6582 -0.6324
  224MOL0     C30829   6.458   1.372   5.429 -0.7765 -0.1604  1.8254
  224MOL0     C30830   6.413   1.480   5.510  0.3150 -0.4414  0.5739
  224MOL0     C30831   6.408   1.464   5.650 -0.6692  0.3224  0.5616
  224MOL0     C30832   6.443   1.344   5.711  0.2460  0.4009 -0.3993
  224MOL0     O30833   6.429   1.327   5.847  0.3143 -0.0219 -0.4735
  224MOL0     C30834   6.441   1.441   5.938  0.0026 -0.0036  1.1621
  224MOL0     C30835   6.452   1.413   6.089 -0.0750 -0.2483  0.2511
  224MOL0     C30836   6.600   1.381   6.119  0.7037  0.1928 -0.0832
  224MOL0     C30837   6.611   1.319   6.247 -0.5609 -0.2397 -0.3378
  224MOL0     C30838   6.746   1.254   6.265 -0.5729  0.2973 -0.2180
  224MOL0     C30839   6.858   1.218   6.277  0.3303  0.5090 -0.3943
  224MOL0     C30840   6.502   1.246   5.634 -1.2916  0.4976 -0.2658
  224MOL0     C30841   6.507   1.254   5.490  0.4190 -0.0295 -0.7632
  224MOL0     C30842   6.545   1.133   5.417  0.6121  0.2742  0.0798
  224MOL0     H30843   6.277   1.167   5.259 -0.1324  0.0030  1.3461
  224MOL0     H30844   6.036   1.113   5.307  0.0968 -2.0941  0.0281
  224MOL0     H30845   5.844   1.151   5.447 -0.1047 -1.1000 -0.1846
  224MOL0     H30846   5.796   1.120   5.287 -3.7239  1.2335 -1.4461
  224MOL0     H30847   5.601   1.272   5.324  4.3792  0.7102 -1.8687
  224MOL0     H30848   5.606   1.106   5.401 -0.3130  0.5883  2.4113
  224MOL0     H30849   5.705   1.222   5.605  2.5539  3.5027 -0.5176
  224MOL0     H30850   5.645   1.375   5.526 -2.9908  0.3863 -0.8749
  224MOL0     H30851   5.402   1.279   5.514  0.7802  1.5080 -1.0791
  224MOL0     H30852   5.460   1.157   5.620  0.1292  0.2892 -1.3856
  224MOL0     H30853   5.514   1.360   5.791 -0.8421  2.3021  0.4041
  224MOL0     H30854   5.341   1.341   5.735  0.6972  0.6871  0.4577
  224MOL0     H30855   5.563   1.543   5.663 -0.1992  0.4139  0.0783
  224MOL0     H30856   5.432   1.510   5.555 -1.0370 -0.4952  0.3784
  224MOL0     H30857   5.383   1.586   5.836 -2.5166  0.6598  0.4809
  224MOL0     H30858   5.274   1.596   5.695  0.2857  1.7501 -2.0991
  224MOL0     H30859   5.527   1.751   5.733 -0.4339 -1.4800  1.9487
  224MOL0     H30860   5.399   1.785   5.600 -3.2254 -0.7766 -0.1819
  224MOL0     H30861   5.205   1.933   5.677  2.6373 -1.4506 -0.6758
  224MOL0     H30862   5.083   2.136   5.859 -2.2007  0.6669  0.2885
  224MOL0     H30863   5.082   2.076   6.028 -0.1658 -0.1907  0.3871
  224MOL0     H30864   4.868   2.024   5.936  0.9587  0.6856  0.2147
  224MOL0     H30865   4.940   1.970   5.776 -1.3802  1.1467 -0.6573
  224MOL0     H30866   4.829   1.818   5.962  0.1512 -0.8488  2.4032
  224MOL0     H30867   4.969   1.754   5.873 -3.3114 -0.0084 -0.9258
  224MOL0     H30868   5.113   1.763   6.062  2.9827  5.7464  0.3804
  224MOL0     H30869   5.015   1.875   6.150 -1.6738 -2.0403  2.6706
  224MOL0     H30870   4.767   1.504   6.260  0.1780  1.0486 -1.0931
  224MOL0     H30871   4.704   1.173   6.214  0.2332 -1.0905  1.9653
  224MOL0     H30872   4.648   1.312   6.306 -1.4297 -2.1444  0.3287
  224MOL0     H30873   4.791   1.229   6.353 -1.3340  1.8443  1.6505
  224MOL0     H30874   5.014   1.028   5.693  0.9231  0.4510 -0.4178
  224MOL0     H30875   5.018   0.815   5.611  1.7525 -1.8844  0.2456
  224MOL0     H30876   4.794   0.561   5.725 -0.2243  0.5438 -0.7890
  224MOL0     H30877   4.867   0.593   5.572  1.1898  0.3880  0.5641
  224MOL0     H30878   5.011   0.394   5.577  0.3691 -0.1524  1.7540
  224MOL0     H30879   4.961   0.351   5.735  1.1877  1.6197  1.0868
  224MOL0     H30880   4.732   0.306   5.649 -0.5728 -2.3454 -0.6166
  224MOL0     H30881   4.846   0.198   5.575 -1.5068 -0.4814  1.1279
  224MOL0     H30882   4.866   0.338   5.379  0.5911 -3.9238  0.6071
  224MOL0     H30883   4.754   0.454   5.438 -0.8585 -0.4708  1.4929
  224MOL0     H30884   4.653   0.292   5.256 -0.4511 -2.7817  0.2996
  224MOL0     H30885   4.689   0.163   5.355 -1.0353 -0.6455 -1.1332
  224MOL0     H30886   4.531   0.279   5.553 -0.3682 -0.4639 -0.5004
  224MOL0     H30887   4.478   0.170   5.435 -3.5529  1.2520  1.3084
  224MOL0     H30888   4.398   0.363   5.300 -1.7289 -0.5310  0.3603
  224MOL0     H30889   4.493   0.471   5.406 -0.9751  0.1183  0.2121
  224MOL0     H30890   4.271   0.497   5.506  1.1433  1.2576 -0.4518
  224MOL0     H30891   4.347   0.400   5.604 -0.2122  0.8279 -0.7863
  224MOL0     H30892   5.020   0.639   5.997  3.3599  1.1129  0.2446
  224MOL0     H30893   5.055   0.865   6.098 -0.0465 -0.8979 -0.9630
  224MOL0     H30894   5.059   1.316   5.918 -1.9098 -0.3203 -1.4613
  224MOL0     H30895   5.067   1.567   5.968  2.7159 -0.4682  2.8124
  224MOL0     H30896   5.955   1.540   5.305  0.0994  0.7684  2.6363
  224MOL0     H30897   6.197   1.586   5.244  1.7355  0.0943 -1.2406
  224MOL0     H30898   6.393   1.572   5.456 -1.7679 -0.2559  1.5559
  224MOL0     H30899   6.385   1.554   5.705 -2.6899  1.1505 -1.4586
  224MOL0     H30900   6.521   1.512   5.916  0.2313 -0.7074 -0.4654
  224MOL0     H30901   6.352   1.501   5.918  2.5153  3.4437 -0.7575
  224MOL0     H30902   6.377   1.335   6.105 -0.7267 -0.0032 -1.4264
  224MOL0     H30903   6.413   1.503   6.136  0.6153 -1.3145  3.0971
  224MOL0     H30904   6.648   1.313   6.048 -0.5114 -1.1593  0.3307
  224MOL0     H30905   6.659   1.473   6.119 -2.2743  2.3369 -2.3450
  224MOL0     H30906   6.537   1.248   6.286  0.1848  0.6650  3.1564
  224MOL0     H30907   6.625   1.401   6.319 -1.2139 -0.1172 -0.3436
  224MOL0     H30908   6.950   1.165   6.276  0.0536  0.0293 -1.7347
  224MOL0     H30909   6.530   1.158   5.690 -3.2315 -0.2449 -0.3849
  224MOL0     H30910   6.507   1.124   5.315  1.3508 -0.8722 -0.1241
  224MOL0     H30911   6.655   1.131   5.416  0.6894 -3.3712  0.9880
  224MOL0     H30912   6.506   1.041   5.462 -0.9993  1.2422  0.7277
  225MOL0     O30913   6.037   4.876   9.653 -0.6760 -0.0664 -0.4520
  225MOL0     C30914   6.073   4.755   9.669 -0.7591 -0.0064 -0.0694
  225MOL0     O30915   6.075   4.678   9.788  0.4320 -0.5702  0.5559
  225MOL0     C30916   6.061   4.740   9.910  0.5302  0.4287  0.7990
  225MOL0     C30917   6.128   4.677  10.021 -0.2959  0.3364  0.4631
  225MOL0     C30918   6.117   4.726  10.154  0.2108 -0.7372  0.4110
  225MOL0     C30919   6.030   4.835  10.180 -0.5270 -0.4999  0.1924
  225MOL0     O30920   6.021   4.886  10.305 -0.0572  0.1170 -0.2323
  225MOL0     C30921   5.980   4.791  10.410  0.2964 -0.0699 -0.3728
  225MOL0     C30922   5.896   4.880  10.511  1.0169 -0.0851  0.5683
  225MOL0     C30923   5.756   4.888  10.459 -0.3245  0.1069 -0.2994
  225MOL0     C30924   5.681   4.761  10.504  0.0066 -0.0175 -0.2444
  225MOL0     C30925   5.534   4.775  10.528 -0.3674 -0.6634 -0.1874
  225MOL0     C30926   5.460   4.669  10.602  0.5021 -1.4329  0.3438
  225MOL0     C30927   5.432   4.556  10.500 -0.5964 -0.3201  0.6379
  225MOL0     C30928   5.379   4.429  10.561  0.6076 -0.1038  1.0166
  225MOL0     N30929   5.236   4.453  10.578 -0.0148 -0.1072  0.1660
  225MOL0     C30930   5.155   4.421  10.471 -0.3801 -0.3116  0.4179
  225MOL0     C30931   5.036   4.456  10.516 -0.0913 -1.0821 -0.0476
  225MOL0     C30932   4.895   4.444  10.465 -0.1211  0.7991 -0.8374
  225MOL0     C30933   4.848   4.537  10.354 -0.6441  0.2732 -0.2911
  225MOL0     C30934   4.887   4.676  10.367 -0.2685  0.2168  0.2391
  225MOL0     C30935   4.813   4.767  10.275  1.6351 -1.0528  1.5815
  225MOL0     O30936   4.673   4.737  10.261  0.4340  0.0886 -0.2748
  225MOL0     C30937   4.623   4.701  10.141 -0.6104  0.7061  0.1692
  225MOL0     C30938   4.495   4.748  10.102  0.0072  0.5762  0.4455
  225MOL0     C30939   4.436   4.721   9.979 -0.6981  0.2111  0.3471
  225MOL0     C30940   4.304   4.793   9.960  0.6227  0.0615 -0.5727
  225MOL0     C30941   4.500   4.634   9.887 -0.9896  0.0256 -0.5014
  225MOL0     C30942   4.446   4.586   9.754 -0.1777 -0.1640 -0.6892
  225MOL0     O30943   4.343   4.649   9.709  0.2803 -0.9231  0.0424
  225MOL0     C30944   4.327   4.664   9.573 -1.3002 -0.4727 -0.3229
  225MOL0     C30945   4.204   4.662   9.520 -1.2537 -0.5445 -0.0670
  225MOL0     C30946   4.178   4.685   9.382  0.1127 -0.1943  0.9087
  225MOL0     C30947   4.280   4.700   9.295 -1.0684  0.8013 -0.1337
  225MOL0     O30948   4.253   4.709   9.162 -0.9379  0.0342 -1.3998
  225MOL0     C30949   4.320   4.606   9.084 -0.8199 -0.5846 -0.7172
  225MOL0     C30950   4.278   4.627   8.936  0.0924 -0.2273  0.1346
  225MOL0     C30951   4.369   4.550   8.848  0.1927  0.1009  0.9024
  225MOL0     C30952   4.379   4.406   8.888 -0.4883  0.4201 -0.9641
  225MOL0     C30953   4.398   4.325   8.758  0.3270 -0.4423  0.0554
  225MOL0     C30954   4.413   4.178   8.798  0.3381 -0.0605  0.3643
  225MOL0     C30955   4.461   4.092   8.672  0.2651  0.0271  0.7801
  225MOL0     C30956   4.390   3.957   8.685 -0.8018  1.2911 -0.8003
  225MOL0    Cl30957   4.385   3.855   8.537  0.3770 -0.1140 -0.0460
  225MOL0     C30958   4.411   4.703   9.347  0.2750  0.2346 -0.4677
  225MOL0     C30959   4.435   4.699   9.487  0.6232 -0.1888  0.4797
  225MOL0     O30960   4.516   4.504   9.693 -0.5793  0.0301  0.2008
  225MOL0     C30961   4.623   4.580   9.932  0.0222  0.4468 -0.2083
  225MOL0     C30962   4.697   4.620  10.050 -0.2252 -0.4870  0.3364
  225MOL0     N30963   5.052   4.525  10.639  0.5517  0.7138 -0.0474
  225MOL0     N30964   5.177   4.514  10.678  0.1665 -0.0251 -0.4975
  225MOL0     C30965   5.954   4.888  10.071  0.9584  0.7867 -0.3901
  225MOL0     C30966   5.970   4.840   9.946  0.5616  0.4067  0.3960
  225MOL0     C30967   6.135   4.679   9.554  0.1698  0.2056 -0.4153
  225MOL0     C30968   6.248   4.599   9.583  0.1249  1.2851 -0.3170
  225MOL0     C30969   6.307   4.522   9.482  0.0492 -0.2117 -0.0827
  225MOL0     C30970   6.262   4.527   9.354  0.2918 -1.3597  0.0346
  225MOL0     O30971   6.324   4.457   9.251  0.2847 -0.7235 -0.0355
  225MOL0     C30972   6.259   4.476   9.118 -0.2455  0.4861 -0.2522
  225MOL0     C30973   6.339   4.406   9.012 -0.3422 -0.4449  0.3675
  225MOL0     C30974   6.354   4.253   9.036 -0.5977 -1.0854  0.1973
  225MOL0     C30975   6.220   4.194   9.016 -0.7833  0.7273 -0.2471
  225MOL0     C30976   6.237   4.053   8.987  0.0655  0.4293  0.6935
  225MOL0     C30977   6.230   3.932   8.999 -0.0993  0.9350 -0.9868
  225MOL0     C30978   6.143   4.600   9.328  0.2960 -0.0818  0.0874
  225MOL0     C30979   6.082   4.685   9.423 -0.1783  0.2194  0.4875
  225MOL0     C30980   5.966   4.770   9.375 -0.7993  0.9723  0.5976
  225MOL0     H30981   6.201   4.601   9.997 -0.2353  1.1167 -2.1019
  225MOL0     H30982   6.167   4.676  10.236 -0.5721  1.1450  2.1324
  225MOL0     H30983   6.066   4.746  10.459  0.6378  1.8546  0.8931
  225MOL0     H30984   5.916   4.718  10.358  2.4439 -2.2671 -0.1031
  225MOL0     H30985   5.902   4.837  10.611 -0.6177 -0.2647  0.6320
  225MOL0     H30986   5.935   4.980  10.530 -4.8406  2.7979 -0.2497
  225MOL0     H30987   5.707   4.974  10.506  2.2905 -0.4055  3.8841
  225MOL0     H30988   5.749   4.887  10.350  5.1141  2.1185 -1.0082
  225MOL0     H30989   5.680   4.691  10.420  0.5688  0.1405 -0.3831
  225MOL0     H30990   5.727   4.719  10.595 -1.5963 -3.5123 -0.8800
  225MOL0     H30991   5.492   4.803  10.431  0.9236  0.7458 -0.3736
  225MOL0     H30992   5.515   4.866  10.587  0.3047  0.6242 -1.8831
  225MOL0     H30993   5.515   4.640  10.692  1.6481  0.3411  0.2824
  225MOL0     H30994   5.359   4.706  10.621  1.2654  1.0095  0.0059
  225MOL0     H30995   5.530   4.526  10.461 -0.4637  3.1172 -2.1759
  225MOL0     H30996   5.385   4.588  10.406  1.0718 -2.2444 -0.9699
  225MOL0     H30997   5.389   4.344  10.493  0.7705 -1.1097  2.2597
  225MOL0     H30998   5.442   4.416  10.649  1.6501 -2.1038  0.0305
  225MOL0     H30999   5.183   4.371  10.379  0.3075  0.6935  0.0571
  225MOL0     H31000   4.840   4.464  10.559  2.7626 -0.1696  1.1841
  225MOL0     H31001   4.871   4.338  10.448 -0.8203  0.3724  2.1489
  225MOL0     H31002   4.881   4.477  10.268 -1.6386 -0.6857 -0.0191
  225MOL0     H31003   4.740   4.529  10.341 -0.8018 -0.1291  1.1798
  225MOL0     H31004   4.868   4.694  10.474  1.9140 -1.6782  1.0516
  225MOL0     H31005   4.996   4.689  10.359 -0.3128 -0.3185 -1.5032
  225MOL0     H31006   4.821   4.871  10.306 -0.0058 -0.3362 -0.1939
  225MOL0     H31007   4.853   4.758  10.174 -0.3797 -1.0508  0.7201
  225MOL0     H31008   4.457   4.807  10.185 -1.0231 -1.8928  1.8452
  225MOL0     H31009   4.288   4.860  10.046  1.2637  1.1677 -1.2957
  225MOL0     H31010   4.220   4.723   9.952  0.7499  0.0126 -1.4916
  225MOL0     H31011   4.309   4.865   9.878  0.1984  3.0591  1.8196
  225MOL0     H31012   4.123   4.638   9.588 -1.8742  0.2928 -0.4965
  225MOL0     H31013   4.078   4.687   9.339  0.9346  0.0238 -1.1118
  225MOL0     H31014   4.429   4.610   9.091 -0.9403 -0.3778  1.6987
  225MOL0     H31015   4.289   4.512   9.129 -0.4298 -1.0187 -1.3356
  225MOL0     H31016   4.175   4.591   8.929 -0.1262  0.1909  0.9873
  225MOL0     H31017   4.285   4.731   8.904 -0.9182  0.0595  0.7777
  225MOL0     H31018   4.470   4.588   8.829  0.6218 -1.6039 -0.5157
  225MOL0     H31019   4.325   4.550   8.748 -0.6861  1.1797  1.2746
  225MOL0     H31020   4.293   4.364   8.941 -0.5150 -0.1331 -1.4336
  225MOL0     H31021   4.470   4.382   8.945 -0.8598  0.0903 -0.5051
  225MOL0     H31022   4.312   4.340   8.693  1.7673  2.9091 -1.2992
  225MOL0     H31023   4.488   4.357   8.704  1.5260 -2.2408  0.8732
  225MOL0     H31024   4.314   4.146   8.832  0.8932 -0.8910  1.2049
  225MOL0     H31025   4.471   4.165   8.889 -1.9050 -1.2099  1.7310
  225MOL0     H31026   4.570   4.087   8.673  0.3536  1.5947  2.1171
  225MOL0     H31027   4.421   4.140   8.582  0.8979  0.3047  0.6460
  225MOL0     H31028   4.285   3.973   8.713 -0.7414 -0.8249  0.8666
  225MOL0     H31029   4.427   3.889   8.762 -3.7412 -0.3054 -0.6374
  225MOL0     H31030   4.492   4.719   9.276 -0.3551  3.0547 -0.6852
  225MOL0     H31031   4.535   4.718   9.523  0.6489 -0.0057  0.3089
  225MOL0     H31032   4.685   4.508   9.878 -1.4233 -0.1868 -1.0750
  225MOL0     H31033   4.801   4.590  10.055  0.4642  1.9388  1.9328
  225MOL0     H31034   5.870   4.955  10.086  1.3533  1.3124 -0.4989
  225MOL0     H31035   5.923   4.885   9.859  1.8148  1.4695  0.2311
  225MOL0     H31036   6.299   4.606   9.679 -0.8530 -1.9131  0.5552
  225MOL0     H31037   6.406   4.479   9.497 -0.9087 -2.0561  1.3154
  225MOL0     H31038   6.157   4.438   9.123  1.1037 -3.6831 -0.9774
  225MOL0     H31039   6.252   4.583   9.095 -0.2442  0.9457  1.6902
  225MOL0     H31040   6.439   4.449   9.008 -0.6232  0.1568 -0.4545
  225MOL0     H31041   6.293   4.419   8.914  0.6127 -0.3234 -0.0708
  225MOL0     H31042   6.431   4.212   8.969  0.9682 -1.6983  2.2490
  225MOL0     H31043   6.400   4.218   9.129  3.4300  1.5441 -0.5114
  225MOL0     H31044   6.176   4.240   8.927 -0.1650 -1.6877 -1.8839
  225MOL0     H31045   6.160   4.193   9.108 -0.5606 -0.6132 -0.1030
  225MOL0     H31046   6.237   3.825   8.997  1.2602  1.0029 -2.5471
  225MOL0     H31047   6.092   4.596   9.232 -2.1907 -1.8429  1.3652
  225MOL0     H31048   5.998   4.823   9.284 -2.7985 -0.5058 -1.0592
  225MOL0     H31049   5.883   4.707   9.342 -0.2629  1.0745 -1.0455
  225MOL0     H31050   5.926   4.843   9.445  0.9373  2.5055  0.0917
  226MOL0     O31051   4.179   4.251  10.897 -0.5313  0.1025  0.1717
  226MOL0     C31052   4.140   4.359  10.860 -0.6410  0.2728  1.0177
  226MOL0     O31053   4.146   4.468  10.943 -0.2824 -0.0567 -0.2435
  226MOL0     C31054   4.220   4.461  11.055 -0.0875 -1.4273 -2.1609
  226MOL0     C31055   4.324   4.558  11.076  0.8596  0.2318  0.0782
  226MOL0     C31056   4.410   4.554  11.182  0.0488  0.1942  0.3904
  226MOL0     C31057   4.410   4.442  11.268 -0.1339  0.2076 -1.1548
  226MOL0     O31058   4.499   4.428  11.371  0.2893 -0.3880 -0.6314
  226MOL0     C31059   4.572   4.545  11.414 -0.5539  1.1214 -0.1657
  226MOL0     C31060   4.606   4.528  11.565 -0.6182  0.4852  0.3610
  226MOL0     C31061   4.727   4.429  11.567 -0.5430 -0.0736 -0.3420
  226MOL0     C31062   4.779   4.397  11.699 -0.1409  0.0232 -0.8442
  226MOL0     C31063   4.908   4.312  11.690 -0.6768  0.1947 -0.1851
  226MOL0     C31064   4.963   4.268  11.827 -0.1933 -0.7537  0.0766
  226MOL0     C31065   5.041   4.140  11.805 -0.4232 -0.0199 -0.5202
  226MOL0     C31066   5.077   4.058  11.930 -0.0033 -0.2268 -0.2181
  226MOL0     N31067   5.190   3.970  11.904 -0.7033 -0.3220  1.1580
  226MOL0     C31068   5.293   3.944  11.992 -0.2761  0.4694  0.1389
  226MOL0     C31069   5.365   3.848  11.935 -0.1416  0.1621  0.0066
  226MOL0     C31070   5.484   3.784  12.000 -0.1581  0.2242 -0.7636
  226MOL0     C31071   5.488   3.635  11.992 -0.7768  0.2150 -0.4032
  226MOL0     C31072   5.635   3.590  12.010  0.3673 -0.6408  0.0664
  226MOL0     C31073   5.717   3.613  11.879  0.6956  0.2187 -0.1333
  226MOL0     O31074   5.850   3.648  11.911 -0.0197  0.7039 -0.2217
  226MOL0     C31075   5.942   3.637  11.810 -0.3324  0.5320 -1.0730
  226MOL0     C31076   6.077   3.668  11.830 -0.4765  0.9135 -0.4933
  226MOL0     C31077   6.175   3.669  11.737 -0.2049  0.5566  1.2632
  226MOL0     C31078   6.314   3.703  11.775 -0.0559 -0.9580 -0.3883
  226MOL0     C31079   6.138   3.614  11.604 -0.2891  0.0890 -0.6006
  226MOL0     C31080   6.223   3.601  11.480 -0.2974 -0.8951 -1.1698
  226MOL0     O31081   6.175   3.549  11.367 -0.6467 -0.0356 -0.4581
  226MOL0     C31082   6.251   3.555  11.253  0.0328  0.2397  0.2161
  226MOL0     C31083   6.332   3.444  11.203 -0.2474 -0.9041  0.1505
  226MOL0     C31084   6.394   3.451  11.073  0.3299 -0.4577 -0.2993
  226MOL0     C31085   6.383   3.563  11.001 -0.7924 -0.3476 -0.1990
  226MOL0     O31086   6.469   3.560  10.898  0.2855  0.5481 -0.2199
  226MOL0     C31087   6.454   3.644  10.787  0.5541 -0.5022  1.2824
  226MOL0     C31088   6.503   3.577  10.657  0.9194  0.1997 -0.0535
  226MOL0     C31089   6.382   3.506  10.582 -0.1716  0.4633  0.6743
  226MOL0     C31090   6.372   3.356  10.609 -0.1016  1.0103 -0.4790
  226MOL0     C31091   6.269   3.286  10.505  0.2502  0.3984 -0.3208
  226MOL0     C31092   6.266   3.137  10.515  0.0476  0.5082  0.5614
  226MOL0     C31093   6.400   3.074  10.521 -0.2971  0.5232  0.1108
  226MOL0     C31094   6.403   2.945  10.430  0.1834  0.2131 -0.6470
  226MOL0    Cl31095   6.386   3.010  10.257  0.2637 -0.0489 -0.2688
  226MOL0     C31096   6.325   3.676  11.048 -0.7008 -0.5211 -0.0200
  226MOL0     C31097   6.250   3.670  11.167 -0.3678 -0.1094  0.7240
  226MOL0     O31098   6.331   3.654  11.491 -0.2323  0.4571  0.2739
  226MOL0     C31099   6.003   3.575  11.589  0.1795 -0.3312  0.7083
  226MOL0     C31100   5.909   3.592  11.684  0.4331 -0.0485 -0.1589
  226MOL0     N31101   5.302   3.797  11.818  1.1908 -0.6295 -0.4983
  226MOL0     N31102   5.202   3.879  11.796  0.7425 -0.0253  0.3058
  226MOL0     C31103   4.306   4.347  11.255 -0.4569  0.1670  0.2063
  226MOL0     C31104   4.216   4.358  11.149  0.7461 -0.5627  0.1232
  226MOL0     C31105   4.094   4.361  10.719 -0.3324  0.7305  0.5180
  226MOL0     C31106   4.045   4.478  10.663 -0.4967  0.5076  0.0315
  226MOL0     C31107   4.002   4.481  10.529 -0.0218  0.2643 -0.1503
  226MOL0     C31108   4.017   4.370  10.441 -0.7492 -0.6980 -0.1294
  226MOL0     O31109   3.988   4.365  10.307  0.3513 -0.1647  0.4530
  226MOL0     C31110   3.940   4.487  10.242  0.3081 -0.1389 -0.0273
  226MOL0     C31111   3.941   4.469  10.092  0.3456  0.2086  0.1887
  226MOL0     C31112   3.845   4.358  10.052  0.0510  0.0748  0.4720
  226MOL0     C31113   3.856   4.365   9.894  0.6539 -0.0272  0.1617
  226MOL0     C31114   3.746   4.280   9.831  0.3853 -0.7558  0.2223
  226MOL0     C31115   3.661   4.224   9.763 -0.5786  0.4555  0.1113
  226MOL0     C31116   4.071   4.256  10.504  0.6857 -0.5483  0.4646
  226MOL0     C31117   4.099   4.245  10.639 -0.1281  0.1132  1.2492
  226MOL0     C31118   4.154   4.111  10.665 -0.2299 -0.4579 -0.0274
  226MOL0     H31119   4.344   4.620  10.989  1.3589 -1.1777 -0.8456
  226MOL0     H31120   4.490   4.628  11.188  0.4538 -0.2898  1.1760
  226MOL0     H31121   4.519   4.641  11.417 -0.8788  0.9335  2.4310
  226MOL0     H31122   4.654   4.555  11.343 -1.8141 -1.5229 -2.1686
  226MOL0     H31123   4.635   4.623  11.610 -2.2197  1.5170 -0.6890
  226MOL0     H31124   4.520   4.485  11.616 -2.6628  1.0788 -2.3389
  226MOL0     H31125   4.695   4.336  11.518 -3.8884  0.3741  0.7774
  226MOL0     H31126   4.797   4.468  11.493 -1.7838  1.0724 -0.9540
  226MOL0     H31127   4.797   4.494  11.745 -1.2017  0.9320 -2.2412
  226MOL0     H31128   4.706   4.345  11.762  1.5821  0.4202  1.6078
  226MOL0     H31129   4.988   4.366  11.639  0.1491 -1.3041 -0.5300
  226MOL0     H31130   4.889   4.229  11.621 -1.0450  1.7177 -1.9928
  226MOL0     H31131   5.027   4.348  11.865  0.6180 -0.5969 -1.5250
  226MOL0     H31132   4.881   4.252  11.898  0.0951 -1.9987  0.1568
  226MOL0     H31133   5.130   4.170  11.750  1.9738  4.0638  4.7387
  226MOL0     H31134   4.976   4.082  11.738 -0.0580  0.9572 -1.7688
  226MOL0     H31135   5.091   4.102  12.029 -0.9127 -4.1585  1.8610
  226MOL0     H31136   4.989   3.997  11.952  1.3778 -1.8424  1.0883
  226MOL0     H31137   5.317   3.993  12.086 -0.1117  1.0244 -0.1898
  226MOL0     H31138   5.488   3.817  12.105  1.1243  2.4960 -1.4666
  226MOL0     H31139   5.582   3.814  11.964  0.5058 -0.9060  0.0199
  226MOL0     H31140   5.427   3.594  12.073 -0.6359  1.7782  0.5269
  226MOL0     H31141   5.454   3.608  11.891 -3.5631  1.9212 -0.0506
  226MOL0     H31142   5.693   3.625  12.096 -0.6329  4.3287 -0.9734
  226MOL0     H31143   5.623   3.484  12.032 -3.1008 -0.6280 -1.2139
  226MOL0     H31144   5.711   3.514  11.833 -1.7153 -0.9483  2.4029
  226MOL0     H31145   5.663   3.679  11.809  0.2688 -0.2475 -0.2481
  226MOL0     H31146   6.100   3.715  11.926  3.2312 -1.4845 -0.0395
  226MOL0     H31147   6.313   3.745  11.876 -3.6525  0.9493 -1.0381
  226MOL0     H31148   6.352   3.785  11.714  0.3467  0.7751  2.0372
  226MOL0     H31149   6.361   3.605  11.762  1.0047 -0.3510 -1.2844
  226MOL0     H31150   6.334   3.346  11.250  1.2373 -1.2616 -0.5787
  226MOL0     H31151   6.441   3.363  11.030  2.2712  1.4734 -2.3751
  226MOL0     H31152   6.355   3.687  10.771  1.3293  0.1861 -2.9882
  226MOL0     H31153   6.512   3.734  10.808 -1.0988  0.9330  0.0125
  226MOL0     H31154   6.539   3.649  10.582 -2.6100  2.4654  0.1578
  226MOL0     H31155   6.578   3.504  10.686  0.9011  0.1187 -0.2084
  226MOL0     H31156   6.409   3.522  10.477 -1.6199 -2.1695 -0.1773
  226MOL0     H31157   6.280   3.546  10.587  0.0092  1.5639 -2.3916
  226MOL0     H31158   6.335   3.324  10.707 -1.5092 -0.6744 -1.4845
  226MOL0     H31159   6.472   3.311  10.610  0.1450  1.4929  1.7281
  226MOL0     H31160   6.168   3.322  10.521 -0.9143 -3.4074  2.2893
  226MOL0     H31161   6.291   3.311  10.401  2.9553 -2.1947 -0.5224
  226MOL0     H31162   6.215   3.098  10.427 -1.0869  0.4759  1.2214
  226MOL0     H31163   6.203   3.099  10.596 -4.3574  2.6008 -1.5605
  226MOL0     H31164   6.428   3.058  10.626 -0.6710  0.9634  0.2828
  226MOL0     H31165   6.479   3.143  10.491 -0.3633  1.2495  1.5186
  226MOL0     H31166   6.318   2.880  10.453 -0.3339  0.5656 -1.5310
  226MOL0     H31167   6.497   2.889  10.440  0.9672  1.1323 -2.4110
  226MOL0     H31168   6.355   3.778  11.026  0.1514  0.0336  3.2139
  226MOL0     H31169   6.201   3.759  11.207  0.0252  0.3678  0.1601
  226MOL0     H31170   5.973   3.532  11.494  0.5119 -0.9808  0.8853
  226MOL0     H31171   5.805   3.574  11.658  0.2953  2.5046 -1.7249
  226MOL0     H31172   4.310   4.275  11.336  0.8527  1.1134  1.0177
  226MOL0     H31173   4.129   4.294  11.138  0.8020 -0.3175 -2.0437
  226MOL0     H31174   4.031   4.565  10.726  0.6341  1.4152 -0.9269
  226MOL0     H31175   3.971   4.577  10.490  0.0733 -0.0680 -1.0792
  226MOL0     H31176   3.839   4.507  10.277 -0.7740  1.1687 -3.4864
  226MOL0     H31177   4.013   4.561  10.277  3.0942 -2.8881  0.3913
  226MOL0     H31178   4.044   4.462  10.057  0.3750  1.2787  0.0019
  226MOL0     H31179   3.905   4.566  10.054  0.5728  0.3889  0.4272
  226MOL0     H31180   3.880   4.261  10.086  1.7163 -0.9753 -3.6168
  226MOL0     H31181   3.747   4.388  10.090  0.0653  1.1562 -0.2862
  226MOL0     H31182   3.951   4.328   9.855 -0.6731 -2.7336 -0.8121
  226MOL0     H31183   3.846   4.466   9.855 -3.1642 -0.1542  0.3918
  226MOL0     H31184   3.594   4.172   9.697 -0.3716 -2.4730  2.0430
  226MOL0     H31185   4.071   4.177  10.430  0.1389  2.6040 -3.2940
  226MOL0     H31186   4.084   4.064  10.734 -2.6584  1.7395 -0.8299
  226MOL0     H31187   4.163   4.049  10.575 -2.7002  2.5350 -2.5720
  226MOL0     H31188   4.254   4.104  10.709  0.7373 -2.0710 -2.2239
  227MOL0     O31189   6.249   8.804   0.732 -0.0856  0.1445  0.8085
  227MOL0     C31190   6.342   8.874   0.774 -0.4388  0.2738  0.6578
  227MOL0     O31191   6.324   8.977   0.862 -0.0103  0.5528 -0.0431
  227MOL0     C31192   6.197   8.993   0.917  0.1685  1.0893  0.0488
  227MOL0     C31193   6.083   9.035   0.849  0.6219 -0.8978  0.9983
  227MOL0     C31194   5.955   9.036   0.907  0.4855  0.2966  0.2489
  227MOL0     C31195   5.941   9.005   1.041  0.4207 -0.5175  0.0848
  227MOL0     O31196   5.811   8.994   1.094 -0.3530  0.7358 -0.4632
  227MOL0     C31197   5.743   8.873   1.054 -0.9999  0.6278  0.7769
  227MOL0     C31198   5.596   8.886   1.073 -0.6364  1.0923 -0.9256
  227MOL0     C31199   5.524   8.768   1.128  0.1584  0.1803 -0.4757
  227MOL0     C31200   5.375   8.787   1.119 -0.3315  0.1669  0.1992
  227MOL0     C31201   5.314   8.651   1.115 -0.3203 -1.2578 -0.3086
  227MOL0     C31202   5.329   8.559   0.981  0.1716 -0.0596 -0.0458
  227MOL0     C31203   5.271   8.423   1.004 -0.2514  0.3095  0.2416
  227MOL0     C31204   5.123   8.431   1.037  0.0371  0.2299  1.0743
  227MOL0     N31205   5.073   8.295   1.019 -0.1948 -0.4814 -0.8983
  227MOL0     C31206   5.044   8.220   1.134  0.2050  0.2125  0.0980
  227MOL0     C31207   5.054   8.090   1.092 -0.1286  0.2750 -0.4105
  227MOL0     C31208   5.029   7.965   1.166 -0.3488  0.4943 -0.1997
  227MOL0     C31209   4.880   7.947   1.189 -0.2484 -0.6443 -0.1016
  227MOL0     C31210   4.843   7.876   1.324  0.4001  0.3796 -0.9286
  227MOL0     C31211   4.908   7.741   1.361  0.2217  0.0153  0.2352
  227MOL0     O31212   4.835   7.652   1.264 -0.6611 -0.4624 -0.3769
  227MOL0     C31213   4.918   7.551   1.245 -0.5230 -0.3613  0.9626
  227MOL0     C31214   4.984   7.478   1.346  0.1998 -0.2441  0.1196
  227MOL0     C31215   5.090   7.392   1.315  0.6014  0.1799  0.3129
  227MOL0     C31216   5.151   7.319   1.429 -0.3893  0.5368 -0.0219
  227MOL0     C31217   5.120   7.366   1.175  0.2949 -0.4382  0.0630
  227MOL0     C31218   5.209   7.260   1.128 -0.0412  0.3018  0.6671
  227MOL0     O31219   5.151   7.146   1.082 -0.2300 -0.2187  0.3859
  227MOL0     C31220   5.245   7.072   1.005  0.0617  0.1977 -0.4038
  227MOL0     C31221   5.287   7.094   0.874 -0.2667  0.2873  0.6323
  227MOL0     C31222   5.360   7.001   0.796 -0.0605  0.3338 -0.0200
  227MOL0     C31223   5.408   6.882   0.859 -0.3084 -0.6316 -0.6490
  227MOL0     O31224   5.501   6.798   0.800  0.7156  0.6091  0.1793
  227MOL0     C31225   5.503   6.805   0.657 -0.0485  0.2667 -1.0219
  227MOL0     C31226   5.593   6.701   0.592 -0.1152 -0.1853  0.2509
  227MOL0     C31227   5.739   6.717   0.593 -0.2373 -0.1900  0.1551
  227MOL0     C31228   5.806   6.750   0.729  0.8831 -0.4893 -0.0989
  227MOL0     C31229   5.956   6.724   0.718  0.1467 -0.0166 -0.5986
  227MOL0     C31230   6.038   6.794   0.608 -0.2604 -0.1145  0.3297
  227MOL0     C31231   6.171   6.827   0.671  0.1092 -0.3260  0.9302
  227MOL0     C31232   6.261   6.911   0.590 -0.5629 -0.5778  0.0335
  227MOL0    Cl31233   6.265   6.829   0.424  0.1968 -0.4064 -0.6455
  227MOL0     C31234   5.370   6.863   0.996 -0.2541  0.5924  0.5086
  227MOL0     C31235   5.296   6.953   1.064 -0.5248 -0.3694 -0.6264
  227MOL0     O31236   5.330   7.278   1.147 -0.3088 -0.0404  0.1752
  227MOL0     C31237   5.031   7.418   1.080 -0.3649 -0.6574  0.0957
  227MOL0     C31238   4.931   7.510   1.106  0.3549 -0.1048 -0.0187
  227MOL0     N31239   5.080   8.092   0.948  0.2815 -0.9571 -0.5015
  227MOL0     N31240   5.098   8.209   0.918  0.2127  0.5512  0.5836
  227MOL0     C31241   6.052   8.978   1.121  0.1161  0.7393  0.3439
  227MOL0     C31242   6.179   8.967   1.053 -0.6773 -0.6584  0.2667
  227MOL0     C31243   6.478   8.838   0.721 -0.1385  0.9474  0.1187
  227MOL0     C31244   6.490   8.735   0.619 -0.2146 -0.4261  0.0653
  227MOL0     C31245   6.618   8.682   0.591 -0.1614  0.2277  1.1054
  227MOL0     C31246   6.736   8.733   0.655  0.5411 -0.0419  0.2784
  227MOL0     O31247   6.860   8.689   0.603  0.2767  0.0972 -0.2645
  227MOL0     C31248   6.980   8.680   0.681 -0.6459  0.4443 -0.3529
  227MOL0     C31249   6.941   8.572   0.788  0.1819 -0.1416 -0.2922
  227MOL0     C31250   6.920   8.432   0.717 -0.3286  0.3359 -0.4866
  227MOL0     C31251   6.983   8.326   0.806 -0.3521  0.3808 -0.0935
  227MOL0     C31252   6.973   8.187   0.744  0.6627 -0.9596 -0.0906
  227MOL0     C31253   6.980   8.078   0.688  0.6307  0.0689 -0.5226
  227MOL0     C31254   6.730   8.837   0.749  0.0861 -0.4612  0.0514
  227MOL0     C31255   6.599   8.881   0.787 -0.3842  0.1504 -0.7312
  227MOL0     C31256   6.603   9.005   0.883 -0.3630 -0.4993  0.8590
  227MOL0     H31257   6.093   9.062   0.744  1.1061  0.3039  1.3409
  227MOL0     H31258   5.870   9.051   0.840  2.2414 -1.1663 -2.5134
  227MOL0     H31259   5.771   8.792   1.122 -0.5708 -1.8242 -2.1025
  227MOL0     H31260   5.773   8.835   0.955  1.6366 -0.1158  1.7612
  227MOL0     H31261   5.573   8.972   1.137  2.3875  1.0114  0.4458
  227MOL0     H31262   5.556   8.897   0.971 -1.7597  1.5649 -0.4552
  227MOL0     H31263   5.562   8.669   1.100  0.0919  0.3582 -1.2088
  227MOL0     H31264   5.542   8.768   1.236  0.0396 -1.7040 -0.4200
  227MOL0     H31265   5.333   8.853   1.195 -1.0941 -0.6478  0.5101
  227MOL0     H31266   5.354   8.833   1.022  1.1764  0.9942  0.2512
  227MOL0     H31267   5.209   8.674   1.133 -0.0878  1.6642 -2.0856
  227MOL0     H31268   5.354   8.603   1.204  1.5133  0.5071 -0.1060
  227MOL0     H31269   5.287   8.596   0.887 -0.5033 -0.9032 -0.0906
  227MOL0     H31270   5.433   8.536   0.958 -0.5576 -0.8515 -2.8841
  227MOL0     H31271   5.329   8.370   1.080 -0.3848 -0.1276  0.0428
  227MOL0     H31272   5.296   8.375   0.909  1.1962 -1.1543  1.3088
  227MOL0     H31273   5.084   8.466   1.133 -1.0098  2.3030 -0.0328
  227MOL0     H31274   5.085   8.499   0.959  1.8604  0.1735  0.0937
  227MOL0     H31275   5.006   8.253   1.230 -0.7558 -0.1496 -0.1514
  227MOL0     H31276   5.079   7.961   1.263  0.0198 -1.8262 -0.4315
  227MOL0     H31277   5.074   7.887   1.104  1.8327  3.0508 -2.0715
  227MOL0     H31278   4.827   8.042   1.193 -1.6306 -1.2590 -2.1415
  227MOL0     H31279   4.850   7.892   1.099  3.2353 -0.2956 -1.6710
  227MOL0     H31280   4.863   7.942   1.409 -0.0191  0.3786 -0.8236
  227MOL0     H31281   4.736   7.856   1.338  0.4902  0.0070 -0.7349
  227MOL0     H31282   5.015   7.754   1.342  0.2735 -2.5617 -1.7376
  227MOL0     H31283   4.894   7.721   1.468  0.9464  0.4451  0.4186
  227MOL0     H31284   4.969   7.505   1.450  4.6102  0.7392  0.7330
  227MOL0     H31285   5.114   7.347   1.527 -1.8691  0.1723 -0.4597
  227MOL0     H31286   5.259   7.337   1.428 -0.0058 -1.5883 -0.7291
  227MOL0     H31287   5.145   7.212   1.407 -4.0243  0.5593  0.3810
  227MOL0     H31288   5.257   7.181   0.816 -0.3483  1.8682  2.9060
  227MOL0     H31289   5.380   7.029   0.693  1.2706  0.0008  0.1367
  227MOL0     H31290   5.404   6.790   0.612  0.9831  0.6470 -3.6168
  227MOL0     H31291   5.532   6.906   0.625  4.8267 -0.1479  1.2092
  227MOL0     H31292   5.558   6.602   0.621 -1.4366  0.0207 -0.5357
  227MOL0     H31293   5.572   6.726   0.487 -3.6408  0.4038  0.9956
  227MOL0     H31294   5.769   6.798   0.525 -1.1242 -0.8157 -1.0125
  227MOL0     H31295   5.779   6.624   0.552 -3.3321 -2.9832  2.9556
  227MOL0     H31296   5.764   6.704   0.819  1.4763  0.1555  0.5134
  227MOL0     H31297   5.793   6.858   0.740  1.9257 -0.1592 -1.7534
  227MOL0     H31298   5.987   6.765   0.814 -1.9981  2.0556 -0.6894
  227MOL0     H31299   5.972   6.616   0.709  0.5385 -0.2832  2.3653
  227MOL0     H31300   5.982   6.880   0.571 -3.2744 -2.2985 -0.5596
  227MOL0     H31301   6.052   6.729   0.521 -1.9424 -0.7033  0.4479
  227MOL0     H31302   6.223   6.731   0.673  0.3236 -0.2442 -0.1346
  227MOL0     H31303   6.157   6.864   0.773 -1.4005  0.3020  0.5171
  227MOL0     H31304   6.365   6.915   0.626 -0.1715 -4.2914 -0.2251
  227MOL0     H31305   6.228   7.015   0.580  0.0770 -0.3257  0.4707
  227MOL0     H31306   5.417   6.775   1.040 -2.2487 -0.6225  0.3231
  227MOL0     H31307   5.275   6.946   1.171  0.6349  2.4288 -0.1236
  227MOL0     H31308   5.047   7.379   0.980 -1.1610 -1.7279  0.3609
  227MOL0     H31309   4.855   7.544   1.037 -3.4980  1.5016  4.4439
  227MOL0     H31310   6.045   8.967   1.229  1.6549  1.1415  0.5183
  227MOL0     H31311   6.268   8.957   1.114  0.0149 -2.4755 -0.9609
  227MOL0     H31312   6.398   8.694   0.577 -0.4163  2.0807 -2.2990
  227MOL0     H31313   6.631   8.603   0.517 -0.2125  0.0773  1.2541
  227MOL0     H31314   7.061   8.639   0.621 -0.7202 -1.5659  0.8259
  227MOL0     H31315   7.002   8.772   0.735 -3.3013 -0.3618  2.4105
  227MOL0     H31316   6.843   8.598   0.830  0.2859 -0.1545 -0.0460
  227MOL0     H31317   7.017   8.557   0.865 -0.2005 -2.9194 -0.3408
  227MOL0     H31318   6.813   8.413   0.705 -0.1166 -0.2306 -1.5864
  227MOL0     H31319   6.972   8.419   0.622  1.1280 -4.1580  0.6957
  227MOL0     H31320   6.942   8.320   0.908  0.2537 -0.0171  0.1301
  227MOL0     H31321   7.088   8.349   0.824 -0.6612  0.1254  2.5045
  227MOL0     H31322   6.994   7.980   0.649 -0.0572 -0.3570  0.2819
  227MOL0     H31323   6.816   8.880   0.798  0.5141 -2.9768  1.7014
  227MOL0     H31324   6.532   8.993   0.965 -2.2003 -0.5606 -0.6903
  227MOL0     H31325   6.702   9.023   0.927  1.0666 -1.8526 -1.5956
  227MOL0     H31326   6.577   9.092   0.823 -2.9990 -1.4805  0.4695
  228MOL0     O31327   7.482   4.802   6.341  0.0783  0.6163  1.2320
  228MOL0     C31328   7.443   4.916   6.324 -0.2249  0.0369 -0.5323
  228MOL0     O31329   7.453   4.987   6.205 -0.2831  0.0979 -0.0846
  228MOL0     C31330   7.431   4.917   6.091 -0.0477  0.0961  0.0308
  228MOL0     C31331   7.476   4.986   5.976 -1.2315 -0.1910 -0.3973
  228MOL0     C31332   7.488   4.922   5.850 -0.4360 -0.0922 -0.1557
  228MOL0     C31333   7.444   4.791   5.840  0.2074 -0.3260 -0.1958
  228MOL0     O31334   7.462   4.730   5.720  0.4354  0.0258 -0.0766
  228MOL0     C31335   7.503   4.592   5.713  0.2425  0.1269  0.8508
  228MOL0     C31336   7.378   4.520   5.664 -0.3411  0.0638 -0.1232
  228MOL0     C31337   7.415   4.386   5.599 -0.8178 -0.3051 -1.1511
  228MOL0     C31338   7.316   4.362   5.483 -0.3704  0.3512 -1.0917
  228MOL0     C31339   7.355   4.232   5.407 -0.6086  0.1585 -0.8408
  228MOL0     C31340   7.284   4.115   5.480  0.4754  0.8068 -1.0911
  228MOL0     C31341   7.329   3.980   5.418 -0.4342 -0.1056  0.3850
  228MOL0     C31342   7.268   3.851   5.478  0.2924 -0.3307  1.3148
  228MOL0     N31343   7.295   3.737   5.385 -0.3001 -0.6075 -0.1916
  228MOL0     C31344   7.232   3.712   5.270 -0.8746 -0.9869 -0.1750
  228MOL0     C31345   7.302   3.606   5.216 -0.1548  0.0015  0.0073
  228MOL0     C31346   7.273   3.546   5.087 -0.5526  0.2372  0.7067
  228MOL0     C31347   7.268   3.658   4.978  0.1286 -1.2293 -0.5060
  228MOL0     C31348   7.302   3.590   4.848  0.2662  0.3685  0.0022
  228MOL0     C31349   7.307   3.685   4.730  0.3747  0.5992 -0.3181
  228MOL0     O31350   7.404   3.787   4.763 -0.9814  0.5757  0.3854
  228MOL0     C31351   7.391   3.902   4.698 -0.7501  0.0234 -0.5096
  228MOL0     C31352   7.412   3.917   4.561 -0.7338  0.5591  0.2883
  228MOL0     C31353   7.394   4.050   4.507  0.3818  0.3762  0.0338
  228MOL0     C31354   7.418   4.063   4.359  0.1570  0.1620  0.3330
  228MOL0     C31355   7.369   4.160   4.587 -0.3514 -0.6210 -0.8598
  228MOL0     C31356   7.355   4.306   4.550 -0.0307  0.3196 -0.9111
  228MOL0     O31357   7.354   4.399   4.647  0.1488  0.1920 -1.1499
  228MOL0     C31358   7.332   4.527   4.599 -0.3554  0.3092 -0.2778
  228MOL0     C31359   7.229   4.596   4.660  0.4337  0.1579 -0.0703
  228MOL0     C31360   7.193   4.717   4.612 -0.3367  0.6691  0.8438
  228MOL0     C31361   7.264   4.784   4.506 -0.2843 -0.1071  0.8042
  228MOL0     O31362   7.212   4.897   4.438  0.4099 -0.0511 -0.3192
  228MOL0     C31363   7.088   4.870   4.358 -0.1476 -0.1643 -0.1930
  228MOL0     C31364   7.001   4.994   4.338  0.0034 -0.2489  0.4878
  228MOL0     C31365   7.049   5.093   4.221  0.8167  0.5430 -0.2638
  228MOL0     C31366   7.003   5.047   4.088  0.9244 -0.4048  0.3683
  228MOL0     C31367   7.044   5.141   3.973 -0.6541  1.3835 -0.5770
  228MOL0     C31368   7.081   5.072   3.837  0.7258 -0.1176  0.0191
  228MOL0     C31369   7.139   5.168   3.734  0.6960  0.0301 -0.0739
  228MOL0     C31370   7.042   5.282   3.696  0.5927  0.9453 -0.0420
  228MOL0    Cl31371   7.091   5.385   3.564 -0.2843  0.3603  0.0503
  228MOL0     C31372   7.375   4.712   4.447 -0.3931 -0.1838  0.3725
  228MOL0     C31373   7.405   4.585   4.494 -0.0449 -0.5838  0.0566
  228MOL0     O31374   7.347   4.331   4.436  0.3062  0.3376 -0.7073
  228MOL0     C31375   7.353   4.133   4.725  0.1522 -0.1125 -0.2530
  228MOL0     C31376   7.363   4.007   4.780 -0.5119 -0.1398 -0.2903
  228MOL0     N31377   7.408   3.571   5.296 -0.2973 -0.6740  0.1554
  228MOL0     N31378   7.401   3.647   5.390  0.1860 -0.3943 -0.2261
  228MOL0     C31379   7.388   4.726   5.951  0.0107  0.5290  0.8515
  228MOL0     C31380   7.383   4.786   6.075  0.2755 -0.5775  0.2582
  228MOL0     C31381   7.375   4.973   6.447  0.0243 -0.8171 -1.1014
  228MOL0     C31382   7.311   5.103   6.431  0.3186  0.0415  0.7844
  228MOL0     C31383   7.274   5.167   6.545  0.4359 -0.2707 -0.2243
  228MOL0     C31384   7.289   5.114   6.677 -0.3777 -0.5870 -1.2267
  228MOL0     O31385   7.231   5.186   6.779 -0.2265 -0.8228 -0.2046
  228MOL0     C31386   7.272   5.171   6.915 -1.0000 -0.3646  0.4517
  228MOL0     C31387   7.243   5.301   7.004  0.1572 -0.6443  0.0832
  228MOL0     C31388   7.097   5.340   6.992  0.3654 -0.4703 -0.3190
  228MOL0     C31389   7.047   5.434   7.102  1.5064  0.2620 -0.7862
  228MOL0     C31390   7.035   5.363   7.232 -0.1509 -0.2874  0.1076
  228MOL0     C31391   7.053   5.301   7.335  0.7120  0.3969 -0.3338
  228MOL0     C31392   7.361   4.991   6.691  0.4351  0.6458 -0.4417
  228MOL0     C31393   7.391   4.918   6.577  0.7113  0.2859  0.3008
  228MOL0     C31394   7.454   4.779   6.614 -0.6456  0.5096  0.0721
  228MOL0     H31395   7.499   5.092   5.986  2.7532 -0.9627  0.3042
  228MOL0     H31396   7.533   4.985   5.773 -1.1336  0.6823  0.0431
  228MOL0     H31397   7.536   4.555   5.810 -2.4636  0.2766  1.9114
  228MOL0     H31398   7.580   4.583   5.635 -0.5437  0.8361 -0.0438
  228MOL0     H31399   7.315   4.490   5.748 -0.5996 -0.8102 -0.6211
  228MOL0     H31400   7.318   4.579   5.594  0.7718 -1.3056 -2.3226
  228MOL0     H31401   7.515   4.399   5.557 -1.0101 -0.0693 -1.5410
  228MOL0     H31402   7.408   4.298   5.664 -0.0658  0.2292 -0.3266
  228MOL0     H31403   7.217   4.355   5.529  1.3563 -0.9941  2.8695
  228MOL0     H31404   7.310   4.449   5.416 -0.2045  0.6497 -0.7244
  228MOL0     H31405   7.462   4.215   5.419 -0.9950 -1.1588  1.1787
  228MOL0     H31406   7.319   4.232   5.304 -3.2282 -0.9671 -0.0320
  228MOL0     H31407   7.306   4.125   5.586 -0.4632 -1.0431 -0.6905
  228MOL0     H31408   7.176   4.126   5.469 -0.5586 -0.2552  4.7398
  228MOL0     H31409   7.436   3.969   5.440 -1.1134 -0.3177  4.3162
  228MOL0     H31410   7.315   3.986   5.310  0.4406 -2.4820  0.0848
  228MOL0     H31411   7.316   3.843   5.576  3.3307  2.2115  0.2005
  228MOL0     H31412   7.160   3.860   5.491 -0.1060 -1.3002 -0.8771
  228MOL0     H31413   7.151   3.771   5.228  1.5845  1.3227 -2.0518
  228MOL0     H31414   7.172   3.505   5.082 -0.4486  0.1328 -1.9972
  228MOL0     H31415   7.345   3.469   5.057  0.0123  1.0457 -0.1091
  228MOL0     H31416   7.165   3.695   4.977  0.2820 -0.7760 -0.0894
  228MOL0     H31417   7.337   3.739   5.005  1.9626 -2.2798 -1.8040
  228MOL0     H31418   7.404   3.550   4.851  0.2325  0.3152  0.9838
  228MOL0     H31419   7.238   3.505   4.823  2.4618 -0.8847 -1.7547
  228MOL0     H31420   7.330   3.636   4.636  0.1444  1.9317 -1.0964
  228MOL0     H31421   7.204   3.718   4.713 -0.3725 -0.6447  1.4611
  228MOL0     H31422   7.418   3.838   4.487 -0.3559  2.0034 -1.2725
  228MOL0     H31423   7.513   4.115   4.349  0.1200  0.0359 -0.9064
  228MOL0     H31424   7.345   4.127   4.309 -1.0999 -0.1721  1.6689
  228MOL0     H31425   7.407   3.965   4.310 -2.3144 -3.2115  6.4323
  228MOL0     H31426   7.179   4.560   4.750  2.5309 -0.9710  0.7238
  228MOL0     H31427   7.110   4.772   4.656 -2.2352  0.2420 -1.9532
  228MOL0     H31428   7.101   4.827   4.258 -6.3098 -2.0534 -0.5701
  228MOL0     H31429   7.021   4.803   4.412 -1.4838  0.7334 -0.6725
  228MOL0     H31430   6.895   4.970   4.331  0.2388 -1.5191  0.9343
  228MOL0     H31431   7.019   5.047   4.433  0.7659  1.7837 -0.7311
  228MOL0     H31432   7.158   5.107   4.226  0.7284  0.7189  2.6697
  228MOL0     H31433   6.998   5.185   4.250  0.8665 -0.0241  1.8063
  228MOL0     H31434   6.894   5.053   4.101  0.9890 -0.4468  0.9541
  228MOL0     H31435   7.015   4.939   4.077 -0.9415 -1.4640  5.6004
  228MOL0     H31436   6.972   5.222   3.959 -0.0607  1.5185 -3.4225
  228MOL0     H31437   7.136   5.189   4.006 -0.8814  1.2136  0.3343
  228MOL0     H31438   6.996   5.014   3.798 -0.2397 -1.0615  3.2099
  228MOL0     H31439   7.155   4.999   3.872 -1.4894 -1.4097  2.3854
  228MOL0     H31440   7.167   5.116   3.642  0.4767 -1.3085  0.5960
  228MOL0     H31441   7.226   5.208   3.786  0.5846 -0.6628  0.6551
  228MOL0     H31442   7.011   5.348   3.777 -0.3071  2.0671 -1.2520
  228MOL0     H31443   6.947   5.234   3.671  0.1398  0.6568  2.0858
  228MOL0     H31444   7.439   4.755   4.370 -2.3287 -0.0510 -1.2614
  228MOL0     H31445   7.485   4.527   4.448 -1.1927 -3.7329  1.7276
  228MOL0     H31446   7.333   4.211   4.798  1.8324 -0.6097  0.7828
  228MOL0     H31447   7.331   4.000   4.883  0.8717  3.5655  0.5572
  228MOL0     H31448   7.350   4.625   5.941  2.9772 -0.6768  0.9798
  228MOL0     H31449   7.322   4.745   6.155  0.2383  2.1341  1.7533
  228MOL0     H31450   7.294   5.150   6.335 -1.7222 -0.9928  0.5802
  228MOL0     H31451   7.207   5.251   6.532 -0.0068 -0.1740  2.1827
  228MOL0     H31452   7.213   5.089   6.957 -2.9627  1.5638  1.7020
  228MOL0     H31453   7.380   5.163   6.930 -0.7932  1.7686  0.4636
  228MOL0     H31454   7.305   5.384   6.970 -1.5437  0.5682 -0.2006
  228MOL0     H31455   7.269   5.272   7.106  2.8570 -2.7667 -1.0936
  228MOL0     H31456   7.078   5.377   6.890  3.4058 -1.5308 -1.3670
  228MOL0     H31457   7.048   5.242   6.997 -2.2233  0.7573  0.1893
  228MOL0     H31458   6.959   5.494   7.077  0.8083  0.3988  1.7772
  228MOL0     H31459   7.125   5.509   7.120  0.1913  1.6248 -0.5776
  228MOL0     H31460   7.089   5.252   7.423  0.1075 -0.7757 -0.7268
  228MOL0     H31461   7.379   4.957   6.792  0.0955 -0.7483 -0.8333
  228MOL0     H31462   7.419   4.690   6.562  0.9816  0.0000 -0.1997
  228MOL0     H31463   7.562   4.784   6.597 -0.7978  0.3030 -0.9633
  228MOL0     H31464   7.444   4.770   6.723 -2.3749  2.6289  0.1744
  229MOL0     O31465   7.879  11.098   1.669 -1.1040 -0.2599 -0.6777
  229MOL0     C31466   7.846  11.092   1.549 -1.0167 -1.0785 -0.8456
  229MOL0     O31467   7.731  11.037   1.504  1.0626 -0.1345  0.5258
  229MOL0     C31468   7.652  10.972   1.595  0.6352  0.2115 -0.5509
  229MOL0     C31469   7.703  10.859   1.668 -1.0739 -0.5815  0.2569
  229MOL0     C31470   7.607  10.791   1.742 -0.2099 -0.3621  1.0285
  229MOL0     C31471   7.470  10.821   1.758 -1.0121 -0.4278  0.3618
  229MOL0     O31472   7.395  10.732   1.835 -0.2971 -0.3981  0.1584
  229MOL0     C31473   7.276  10.775   1.908 -0.4804  0.3802 -0.1955
  229MOL0     C31474   7.214  10.653   1.967 -0.2565 -0.1842  0.4780
  229MOL0     C31475   7.121  10.595   1.858 -0.2881 -0.5409 -0.1508
  229MOL0     C31476   7.038  10.478   1.906  0.4480 -0.3173  0.5311
  229MOL0     C31477   6.900  10.514   1.956 -0.4999  0.5035  0.4636
  229MOL0     C31478   6.787  10.520   1.847 -0.3528 -0.7756  0.7753
  229MOL0     C31479   6.745  10.395   1.781  0.4810 -0.1256 -0.3793
  229MOL0     C31480   6.729  10.286   1.884  0.5257  1.2381 -0.4743
  229MOL0     N31481   6.642  10.175   1.824  0.1681  0.1434 -0.1647
  229MOL0     C31482   6.502  10.186   1.811  0.7610 -0.0959  0.0414
  229MOL0     C31483   6.463  10.057   1.794 -0.5131 -0.0032  1.2301
  229MOL0     C31484   6.324  10.016   1.782 -0.7378 -0.0338  0.1894
  229MOL0     C31485   6.296   9.866   1.810  0.5440  0.8353  0.7977
  229MOL0     C31486   6.175   9.841   1.901  0.0829 -0.7048 -0.1933
  229MOL0     C31487   6.212   9.858   2.050  0.2546 -0.0308  0.2180
  229MOL0     O31488   6.214   9.997   2.087 -0.4063  0.7122  0.7022
  229MOL0     C31489   6.323  10.069   2.128 -0.1064  0.3123  0.0019
  229MOL0     C31490   6.451  10.017   2.153  1.1594  0.0718 -0.1177
  229MOL0     C31491   6.544  10.103   2.212 -0.6068 -0.4156 -0.0417
  229MOL0     C31492   6.674  10.031   2.233 -0.0715  0.3589 -0.0684
  229MOL0     C31493   6.514  10.230   2.242 -0.3934  0.3876  0.0121
  229MOL0     C31494   6.617  10.315   2.304  0.0269  0.7174  0.1772
  229MOL0     O31495   6.573  10.413   2.384  0.1553  0.0615  0.4665
  229MOL0     C31496   6.651  10.521   2.397  0.3422 -0.2540 -0.6393
  229MOL0     C31497   6.727  10.584   2.300 -0.7891  0.4655 -0.3327
  229MOL0     C31498   6.817  10.680   2.321 -0.2945  0.0769  0.1932
  229MOL0     C31499   6.826  10.744   2.443  0.0134  0.5252 -0.5254
  229MOL0     O31500   6.911  10.852   2.451  0.2909  0.5067 -0.1596
  229MOL0     C31501   6.881  10.959   2.546 -0.9274  0.4171 -0.1342
  229MOL0     C31502   6.992  10.968   2.657  0.9894  0.4636 -0.2179
  229MOL0     C31503   7.125  10.988   2.594 -0.5248 -0.3623 -0.2144
  229MOL0     C31504   7.235  11.010   2.707  0.0038  0.3691  0.7696
  229MOL0     C31505   7.368  11.049   2.635 -1.3969  0.1551  0.7259
  229MOL0     C31506   7.497  11.071   2.727  0.5331  0.9266 -0.8849
  229MOL0     C31507   7.548  10.937   2.768  0.3170  0.1053  0.2520
  229MOL0     C31508   7.644  10.953   2.877  0.6746  0.1138 -0.1671
  229MOL0    Cl31509   7.810  10.975   2.795  0.2219 -0.3549  0.4166
  229MOL0     C31510   6.752  10.684   2.551 -0.1855 -0.5220 -0.3517
  229MOL0     C31511   6.656  10.577   2.530 -0.0637 -0.3541 -0.9591
  229MOL0     O31512   6.741  10.294   2.280 -0.4230  0.3513  0.5916
  229MOL0     C31513   6.389  10.283   2.223 -0.1097  0.1209  0.1571
  229MOL0     C31514   6.291  10.201   2.162 -0.3371 -0.2428 -0.6069
  229MOL0     N31515   6.576   9.977   1.782  0.0079 -0.5929  0.4295
  229MOL0     N31516   6.682  10.045   1.805 -0.2566 -0.8889 -0.4355
  229MOL0     C31517   7.425  10.927   1.677  0.0983 -0.1941 -0.9172
  229MOL0     C31518   7.515  11.003   1.604  0.0863 -0.0813  0.3166
  229MOL0     C31519   7.937  11.148   1.444  0.6592  0.0459 -0.3086
  229MOL0     C31520   7.895  11.131   1.307  0.1632  0.3101  0.3934
  229MOL0     C31521   7.961  11.192   1.201 -1.1384 -0.4067 -0.5811
  229MOL0     C31522   8.081  11.266   1.228  0.4457  0.4070 -0.7189
  229MOL0     O31523   8.147  11.333   1.127 -1.1051  0.0227 -0.8813
  229MOL0     C31524   8.110  11.336   0.991  0.1242 -0.3570  0.5487
  229MOL0     C31525   8.226  11.411   0.917  0.3343  0.6920 -1.3027
  229MOL0     C31526   8.354  11.329   0.888 -0.4886 -0.9794 -0.0511
  229MOL0     C31527   8.480  11.410   0.911  0.3619  0.4276  0.4355
  229MOL0     C31528   8.481  11.536   0.834  0.1033  0.4980 -0.3419
  229MOL0     C31529   8.485  11.646   0.784 -0.5583  0.2708 -0.4976
  229MOL0     C31530   8.125  11.286   1.353  0.3494 -0.6394 -0.0936
  229MOL0     C31531   8.060  11.218   1.458 -0.0048  0.2775 -0.0077
  229MOL0     C31532   8.125  11.241   1.590 -1.4800  0.4116 -0.6348
  229MOL0     H31533   7.806  10.828   1.652 -0.6955  0.3204  0.8806
  229MOL0     H31534   7.644  10.704   1.795  2.9748  0.8403  1.0415
  229MOL0     H31535   7.207  10.833   1.847  0.6189  1.7795 -0.1572
  229MOL0     H31536   7.312  10.841   1.987  1.4368 -3.2704  2.2798
  229MOL0     H31537   7.286  10.580   2.002  0.6504 -0.4867 -1.8215
  229MOL0     H31538   7.157  10.695   2.050 -1.2989 -0.3231 -0.1381
  229MOL0     H31539   7.053  10.672   1.818 -0.8954 -0.4177  1.0942
  229MOL0     H31540   7.187  10.559   1.778  1.7448 -0.4389  1.3798
  229MOL0     H31541   7.023  10.410   1.822  1.5288 -0.3301  0.3468
  229MOL0     H31542   7.088  10.429   1.990 -0.6578 -2.0373  0.2528
  229MOL0     H31543   6.905  10.614   1.999  0.8275 -0.1348  1.9051
  229MOL0     H31544   6.869  10.452   2.040 -0.3576  0.2370  0.3210
  229MOL0     H31545   6.696  10.558   1.895 -2.0872 -2.2076 -1.1427
  229MOL0     H31546   6.818  10.598   1.776  0.5352 -2.8032 -1.1922
  229MOL0     H31547   6.822  10.364   1.710 -0.9680  2.4922 -3.3103
  229MOL0     H31548   6.650  10.402   1.728  1.5689 -0.4681 -2.4447
  229MOL0     H31549   6.820  10.229   1.902 -0.8454 -0.7755  0.4321
  229MOL0     H31550   6.684  10.316   1.979 -1.4918 -0.8777 -0.6739
  229MOL0     H31551   6.427  10.265   1.820  1.1894  0.7942 -2.9335
  229MOL0     H31552   6.290  10.044   1.682  3.3418 -0.1849 -1.4183
  229MOL0     H31553   6.260  10.073   1.850 -0.5028  0.3917  0.0611
  229MOL0     H31554   6.281   9.809   1.717  0.1907  2.7305 -0.3772
  229MOL0     H31555   6.382   9.820   1.859  0.8244 -2.3058 -2.2170
  229MOL0     H31556   6.091   9.906   1.874 -0.9413 -2.1209 -0.5984
  229MOL0     H31557   6.135   9.739   1.893 -0.9342 -0.5093  1.8478
  229MOL0     H31558   6.118   9.826   2.097 -0.5313 -0.9616 -1.8574
  229MOL0     H31559   6.290   9.792   2.089 -1.0001 -1.3823  0.5521
  229MOL0     H31560   6.481   9.915   2.134  1.9787 -0.0088  1.4473
  229MOL0     H31561   6.645   9.929   2.263 -0.4799 -0.3137 -2.5523
  229MOL0     H31562   6.721  10.069   2.325 -2.3500 -0.2685  1.4628
  229MOL0     H31563   6.733  10.041   2.142 -3.3437  3.2779 -2.1200
  229MOL0     H31564   6.720  10.549   2.197  1.3157  2.7415 -1.3422
  229MOL0     H31565   6.876  10.717   2.238 -1.0249  2.3720  0.6178
  229MOL0     H31566   6.855  11.056   2.504 -1.3514  0.3927  0.0625
  229MOL0     H31567   6.787  10.922   2.588 -0.7514  0.6953  0.5246
  229MOL0     H31568   6.962  11.052   2.721  0.1709 -0.0696  0.1208
  229MOL0     H31569   6.995  10.873   2.711 -1.6815 -0.0744 -0.8838
  229MOL0     H31570   7.106  11.079   2.536 -4.8037 -0.2485  1.0412
  229MOL0     H31571   7.153  10.906   2.527  4.3739  3.0328 -2.9611
  229MOL0     H31572   7.241  10.914   2.759  1.6791 -1.8589 -3.1745
  229MOL0     H31573   7.206  11.084   2.783 -3.6891 -0.0149 -0.0891
  229MOL0     H31574   7.388  10.973   2.560 -0.3349  0.1857  0.9662
  229MOL0     H31575   7.351  11.134   2.568  0.9827 -0.5663 -0.9014
  229MOL0     H31576   7.456  11.116   2.818  0.1212 -1.0245 -0.0533
  229MOL0     H31577   7.568  11.136   2.675 -1.0608  0.2175 -4.3073
  229MOL0     H31578   7.586  10.884   2.680 -2.2810  0.7681 -1.3700
  229MOL0     H31579   7.458  10.882   2.796 -0.7808  1.5771 -0.2908
  229MOL0     H31580   7.649  10.856   2.927 -2.5245 -1.0699 -1.9072
  229MOL0     H31581   7.626  11.029   2.954 -0.5879 -0.2120 -0.1213
  229MOL0     H31582   6.774  10.721   2.651 -2.4927 -0.1336  0.0840
  229MOL0     H31583   6.600  10.528   2.609  2.2334 -0.3475  0.7517
  229MOL0     H31584   6.349  10.378   2.257 -1.0778  0.4524 -1.7155
  229MOL0     H31585   6.190  10.239   2.154  0.6285  2.2252 -2.5426
  229MOL0     H31586   7.318  10.945   1.686  0.3652  0.5652  1.6234
  229MOL0     H31587   7.481  11.080   1.535  0.6105 -2.5581 -2.9453
  229MOL0     H31588   7.799  11.087   1.284 -0.0086  0.7148  0.3250
  229MOL0     H31589   7.933  11.176   1.097 -1.1188  1.5720 -0.9431
  229MOL0     H31590   8.113  11.232   0.958  0.7376  0.0723 -0.7885
  229MOL0     H31591   8.011  11.382   0.979 -1.1509 -3.4283 -2.2834
  229MOL0     H31592   8.247  11.503   0.972 -1.9736 -0.1903  1.2913
  229MOL0     H31593   8.195  11.450   0.820  0.0471  1.3859 -0.9396
  229MOL0     H31594   8.357  11.231   0.936  0.2340 -1.4082 -0.9704
  229MOL0     H31595   8.352  11.298   0.784  4.0451  0.2043 -0.6970
  229MOL0     H31596   8.560  11.342   0.880  2.5881  2.5638  1.1664
  229MOL0     H31597   8.499  11.412   1.019 -2.1814 -3.4820  1.1723
  229MOL0     H31598   8.465  11.743   0.742 -0.8160 -0.7485 -2.9184
  229MOL0     H31599   8.204  11.357   1.376  0.8179 -1.2097  0.1083
  229MOL0     H31600   8.158  11.147   1.636 -1.0468  1.4453  1.2722
  229MOL0     H31601   8.220  11.293   1.583 -0.1816 -1.7556 -0.0690
  229MOL0     H31602   8.054  11.296   1.653  0.6413  0.4537  1.8738
  230MOL0     O31603   1.984   8.607   3.135 -0.4335 -0.2116  0.1923
  230MOL0     C31604   1.883   8.543   3.132 -0.4650 -1.1109  0.4202
  230MOL0     O31605   1.881   8.418   3.172 -0.6620 -0.6355 -1.1071
  230MOL0     C31606   1.925   8.390   3.301  0.0702 -0.1052 -0.6946
  230MOL0     C31607   1.939   8.482   3.400  0.2910  0.6114  1.2304
  230MOL0     C31608   1.963   8.446   3.524 -0.7849 -0.3311  0.1516
  230MOL0     C31609   1.978   8.307   3.559  0.2891 -0.2779 -0.3670
  230MOL0     O31610   2.002   8.264   3.688 -0.6025 -0.3047 -0.3803
  230MOL0     C31611   1.983   8.363   3.797  0.2025  0.7746  0.8280
  230MOL0     C31612   1.952   8.281   3.930  0.2471  0.8983 -0.3736
  230MOL0     C31613   1.875   8.365   4.027  0.2746 -0.1994 -0.2215
  230MOL0     C31614   1.958   8.434   4.128  0.0202  0.6768  0.7957
  230MOL0     C31615   1.950   8.390   4.273  0.1794 -0.0185 -0.5454
  230MOL0     C31616   1.990   8.246   4.277 -0.2880 -0.0019  0.9143
  230MOL0     C31617   1.991   8.194   4.420  0.2741  0.0829  0.3285
  230MOL0     C31618   2.065   8.054   4.429  0.7738 -1.7341  0.6082
  230MOL0     N31619   2.048   7.992   4.556 -0.5553  1.2485  0.0173
  230MOL0     C31620   2.044   8.046   4.681 -0.5205 -0.4415 -0.0463
  230MOL0     C31621   2.047   7.936   4.762  0.1759 -0.7904 -0.8600
  230MOL0     C31622   2.032   7.942   4.916  0.2879 -0.0465 -0.3032
  230MOL0     C31623   1.909   8.008   4.976  0.4522 -0.8441  0.6103
  230MOL0     C31624   1.915   8.001   5.136  0.3293 -0.6799 -0.3440
  230MOL0     C31625   2.056   8.006   5.212  0.1579 -0.1785 -0.1701
  230MOL0     O31626   2.120   8.133   5.218  0.2705 -0.0006  0.3327
  230MOL0     C31627   2.228   8.149   5.138 -0.8042  0.4155  0.4987
  230MOL0     C31628   2.240   8.261   5.045  0.2993 -0.1324  0.1557
  230MOL0     C31629   2.353   8.282   4.962 -0.0121  1.0055 -0.1104
  230MOL0     C31630   2.354   8.411   4.887  0.5960 -0.6701 -0.3102
  230MOL0     C31631   2.458   8.183   4.954 -0.4711 -1.3855  0.3142
  230MOL0     C31632   2.580   8.197   4.870 -0.6975  0.4236  0.6082
  230MOL0     O31633   2.595   8.310   4.793 -0.3902 -0.3031 -0.0838
  230MOL0     C31634   2.654   8.313   4.671 -0.5718  0.1656  1.3205
  230MOL0     C31635   2.675   8.441   4.628 -0.3243 -0.4962  0.1071
  230MOL0     C31636   2.742   8.464   4.509 -0.0675 -0.8404 -0.2979
  230MOL0     C31637   2.802   8.367   4.426  0.8518  0.0280 -0.0197
  230MOL0     O31638   2.863   8.411   4.316  0.2211 -0.4137  0.7294
  230MOL0     C31639   2.876   8.322   4.204 -0.0401  0.3846 -0.4901
  230MOL0     C31640   2.901   8.418   4.088 -1.0688  0.0013  0.3059
  230MOL0     C31641   2.783   8.477   4.033 -0.6477 -0.3969  0.3365
  230MOL0     C31642   2.813   8.572   3.917  0.0275  0.0149 -1.5317
  230MOL0     C31643   2.819   8.497   3.790 -0.2980 -0.6347  0.1285
  230MOL0     C31644   2.819   8.580   3.670  0.1235 -1.0465  0.9655
  230MOL0     C31645   2.927   8.687   3.645  0.7495  0.4281  0.5340
  230MOL0     C31646   2.928   8.755   3.514 -0.0590  0.0196 -0.1415
  230MOL0    Cl31647   2.778   8.846   3.486 -0.1776  0.2186 -0.0104
  230MOL0     C31648   2.774   8.236   4.471 -0.5158 -0.2218  0.8395
  230MOL0     C31649   2.706   8.204   4.593 -0.0898  0.1060  0.5670
  230MOL0     O31650   2.673   8.113   4.888  0.2042 -0.8098  0.2050
  230MOL0     C31651   2.448   8.080   5.056 -0.8821  0.5601 -0.1903
  230MOL0     C31652   2.338   8.063   5.131  0.5383  0.2010 -0.3971
  230MOL0     N31653   2.038   7.820   4.679 -0.1326 -0.3682 -1.1342
  230MOL0     N31654   2.040   7.852   4.561 -0.5066 -0.5083  0.4689
  230MOL0     C31655   1.947   8.210   3.465 -0.1286  0.9764  0.1015
  230MOL0     C31656   1.924   8.258   3.338 -0.0212  0.5769  0.0240
  230MOL0     C31657   1.769   8.608   3.064 -0.2912  0.0983 -0.0913
  230MOL0     C31658   1.681   8.524   2.984  0.2737  0.4778 -0.1339
  230MOL0     C31659   1.582   8.582   2.911 -0.1095  0.0384 -0.8543
  230MOL0     C31660   1.563   8.721   2.897  0.7447  0.2575 -0.2117
  230MOL0     O31661   1.476   8.781   2.812 -0.6492 -0.3044 -0.3506
  230MOL0     C31662   1.365   8.715   2.762  0.4328  0.2296  0.4876
  230MOL0     C31663   1.267   8.680   2.882 -0.5021 -0.4082  0.7317
  230MOL0     C31664   1.200   8.799   2.968  0.0350  1.0289 -0.1646
  230MOL0     C31665   1.290   8.857   3.074  0.3207  0.2475  0.1305
  230MOL0     C31666   1.231   8.982   3.138  0.0436  0.0222  1.1284
  230MOL0     C31667   1.183   9.079   3.203  1.1023  0.5867  0.0532
  230MOL0     C31668   1.643   8.803   2.973  0.7066  0.4293 -0.3278
  230MOL0     C31669   1.743   8.749   3.062  0.8445 -0.2762 -0.0520
  230MOL0     C31670   1.814   8.864   3.144 -0.7883  0.3618 -0.2819
  230MOL0     H31671   1.934   8.590   3.388 -0.6202  0.6408  1.8137
  230MOL0     H31672   1.978   8.529   3.593 -1.7581 -0.2483  0.2708
  230MOL0     H31673   1.893   8.420   3.772  0.1788 -0.9505 -3.9483
  230MOL0     H31674   2.063   8.434   3.820  1.6097 -0.2724 -0.5744
  230MOL0     H31675   1.888   8.193   3.915  2.9111 -1.4393  1.0716
  230MOL0     H31676   2.039   8.242   3.984 -2.2006 -1.8797  1.8840
  230MOL0     H31677   1.814   8.443   3.981  2.7241  1.0431 -1.5397
  230MOL0     H31678   1.801   8.297   4.071 -0.5799 -1.6343 -3.5845
  230MOL0     H31679   2.062   8.437   4.095 -0.1322  2.3050  0.3802
  230MOL0     H31680   1.940   8.542   4.125 -2.0863  0.3681  0.6086
  230MOL0     H31681   1.846   8.386   4.307  0.1168  1.5928 -0.4925
  230MOL0     H31682   2.016   8.450   4.335 -0.2890 -3.1316  3.3210
  230MOL0     H31683   1.925   8.198   4.204  1.2731 -0.4204 -0.2462
  230MOL0     H31684   2.089   8.239   4.233 -0.8830 -0.0509 -0.4490
  230MOL0     H31685   1.885   8.183   4.446  0.4361 -0.3389  0.8257
  230MOL0     H31686   2.033   8.272   4.484 -3.1578  2.0354  0.4672
  230MOL0     H31687   2.005   8.002   4.353  2.1132  1.7856 -3.2796
  230MOL0     H31688   2.166   8.059   4.387  0.4668 -2.6798 -0.2900
  230MOL0     H31689   2.049   8.154   4.695  5.1544 -0.3536 -0.5396
  230MOL0     H31690   2.128   7.988   4.942  1.0252 -1.1878 -0.8994
  230MOL0     H31691   2.045   7.836   4.942 -0.7062 -0.3574 -1.0054
  230MOL0     H31692   1.912   8.113   4.944 -1.5445 -1.6103 -2.5540
  230MOL0     H31693   1.814   7.965   4.944 -0.4702  0.3176  1.6599
  230MOL0     H31694   1.852   8.083   5.172 -0.9966 -2.1930  0.9121
  230MOL0     H31695   1.857   7.916   5.174 -1.6499 -0.4063 -2.5357
  230MOL0     H31696   2.043   7.975   5.316  2.1601 -1.8693 -0.3737
  230MOL0     H31697   2.112   7.924   5.166  0.2616 -0.4733  0.4801
  230MOL0     H31698   2.145   8.313   5.040 -0.3654 -1.3358 -0.2048
  230MOL0     H31699   2.441   8.464   4.927 -0.1885  0.9566 -0.6767
  230MOL0     H31700   2.267   8.476   4.893  0.9350 -0.0661 -1.6087
  230MOL0     H31701   2.377   8.398   4.781  2.3919 -0.4370  0.0164
  230MOL0     H31702   2.646   8.527   4.688 -1.1106 -2.8133  3.2750
  230MOL0     H31703   2.749   8.571   4.490 -0.1737 -0.6720  0.5963
  230MOL0     H31704   2.952   8.244   4.217 -1.1983 -1.1564 -2.4322
  230MOL0     H31705   2.776   8.280   4.199 -0.0252  0.1920  0.6701
  230MOL0     H31706   2.964   8.501   4.122 -0.9220 -1.3052  3.6776
  230MOL0     H31707   2.955   8.354   4.018  0.7274  0.4471  1.2099
  230MOL0     H31708   2.734   8.534   4.113 -2.4264 -0.5651 -0.5943
  230MOL0     H31709   2.721   8.393   4.002 -2.3253  1.2041 -0.8192
  230MOL0     H31710   2.910   8.617   3.940 -0.3073 -0.7219  1.7694
  230MOL0     H31711   2.735   8.648   3.924 -2.3522 -2.3984 -0.2549
  230MOL0     H31712   2.912   8.439   3.797  0.7470  1.1174  2.7746
  230MOL0     H31713   2.734   8.428   3.792 -0.6358 -0.2160  1.1137
  230MOL0     H31714   2.732   8.646   3.671  0.4880 -0.4900 -0.8407
  230MOL0     H31715   2.809   8.519   3.580 -0.2852 -0.7451  0.8045
  230MOL0     H31716   3.018   8.628   3.660  0.8539  0.6410  0.7389
  230MOL0     H31717   2.923   8.762   3.724  2.7640  1.0478  0.1060
  230MOL0     H31718   2.943   8.683   3.433 -2.8191 -0.2249 -0.5144
  230MOL0     H31719   3.012   8.825   3.513 -0.6251  0.7784  1.6628
  230MOL0     H31720   2.804   8.152   4.409  0.0730  0.5291  0.0700
  230MOL0     H31721   2.693   8.100   4.624 -1.3084 -1.0119 -3.1323
  230MOL0     H31722   2.525   8.004   5.059  0.6716  2.0841  1.3261
  230MOL0     H31723   2.344   7.965   5.177  2.0087  0.0235 -0.9213
  230MOL0     H31724   1.945   8.103   3.486 -0.4590  0.6474 -1.4406
  230MOL0     H31725   1.914   8.189   3.254  1.2585 -0.7408  0.9120
  230MOL0     H31726   1.695   8.417   2.991  1.3122  0.6931  1.5975
  230MOL0     H31727   1.525   8.510   2.853 -0.0309 -0.5569 -0.2190
  230MOL0     H31728   1.325   8.784   2.687  0.9692 -1.2821 -1.2649
  230MOL0     H31729   1.388   8.624   2.707 -0.9905  0.2936 -0.2791
  230MOL0     H31730   1.323   8.620   2.954 -2.6421 -0.6284  2.3037
  230MOL0     H31731   1.182   8.624   2.841 -1.2224  0.9113  0.3929
  230MOL0     H31732   1.169   8.880   2.902  1.8880  1.7741 -0.1906
  230MOL0     H31733   1.108   8.758   3.011  1.1815 -0.7944  0.6883
  230MOL0     H31734   1.386   8.867   3.022  1.5079 -1.2419  1.9424
  230MOL0     H31735   1.314   8.788   3.155  2.2020  1.6834  0.8682
  230MOL0     H31736   1.151   9.159   3.267 -0.5659  2.1299 -2.5352
  230MOL0     H31737   1.618   8.908   2.959 -0.1049  0.2533 -0.2821
  230MOL0     H31738   1.746   8.949   3.158 -1.5644 -0.3442  0.2983
  230MOL0     H31739   1.832   8.833   3.247 -0.6477 -0.0448 -0.4270
  230MOL0     H31740   1.897   8.909   3.088 -1.0694  1.8447  0.4279
  231MOL0     O31741   5.520   6.918   6.271  0.0913 -0.7732 -0.1080
  231MOL0     C31742   5.545   6.888   6.158 -0.4140  0.5622  1.5242
  231MOL0     O31743   5.656   6.916   6.088 -0.5962 -0.3133  0.0149
  231MOL0     C31744   5.757   6.996   6.129 -0.5003 -0.1256 -0.3642
  231MOL0     C31745   5.766   7.083   6.240  0.4244 -0.8357 -0.3393
  231MOL0     C31746   5.887   7.163   6.254  0.9465  0.7553 -0.4445
  231MOL0     C31747   5.990   7.167   6.155 -1.0373  0.6469 -0.6972
  231MOL0     O31748   6.105   7.237   6.172 -0.0797 -0.3816  0.2498
  231MOL0     C31749   6.116   7.364   6.119 -0.5204 -0.8999  0.8082
  231MOL0     C31750   6.266   7.381   6.100 -0.0403 -0.5124  0.4035
  231MOL0     C31751   6.348   7.421   6.235  0.6742  0.6775  0.5093
  231MOL0     C31752   6.490   7.448   6.217 -0.3291  0.1184 -0.2752
  231MOL0     C31753   6.579   7.431   6.347  0.8020  0.5274  0.0713
  231MOL0     C31754   6.560   7.566   6.423  0.2756 -0.1332  0.6176
  231MOL0     C31755   6.598   7.562   6.576 -0.6274 -0.6960 -0.1963
  231MOL0     C31756   6.745   7.511   6.592 -0.1720 -0.3559 -0.5115
  231MOL0     N31757   6.781   7.475   6.726 -0.1249  0.6639  0.4684
  231MOL0     C31758   6.878   7.380   6.754 -0.5958  0.6389  0.2218
  231MOL0     C31759   6.863   7.367   6.894  0.0105  0.3578  0.1355
  231MOL0     C31760   6.912   7.259   6.983  0.4721  0.0355 -0.1703
  231MOL0     C31761   6.803   7.155   6.988  0.1746 -0.8179  0.5652
  231MOL0     C31762   6.861   7.034   7.067 -0.6769  0.1065 -0.6364
  231MOL0     C31763   6.755   6.931   7.110  0.3992  0.9617  0.2129
  231MOL0     O31764   6.706   6.859   6.995 -0.5796 -0.0233  1.1453
  231MOL0     C31765   6.758   6.731   6.958  0.3168  0.1069 -0.2422
  231MOL0     C31766   6.871   6.668   7.027  0.6478 -0.6706  0.9739
  231MOL0     C31767   6.927   6.550   6.974 -0.7083 -0.7890 -0.9501
  231MOL0     C31768   7.044   6.499   7.053 -0.1966 -0.1320 -0.0103
  231MOL0     C31769   6.874   6.486   6.867  0.0142  0.5227  0.2702
  231MOL0     C31770   6.908   6.347   6.822  1.0929 -0.0177  0.3176
  231MOL0     O31771   6.853   6.306   6.705 -0.4759 -0.4432  1.1210
  231MOL0     C31772   6.877   6.179   6.653  0.9290 -0.0628 -0.3913
  231MOL0     C31773   6.762   6.126   6.604 -0.0174 -0.3643 -1.0421
  231MOL0     C31774   6.770   6.009   6.521 -0.0633  0.2082 -0.6873
  231MOL0     C31775   6.895   5.954   6.485  0.4332  0.2610 -0.5497
  231MOL0     O31776   6.911   5.849   6.400 -0.5431  0.1321 -0.6559
  231MOL0     C31777   6.810   5.797   6.322 -0.7461 -0.3004 -0.8208
  231MOL0     C31778   6.763   5.898   6.211  0.3573  1.3925  0.2258
  231MOL0     C31779   6.870   5.940   6.119 -0.1639 -0.4208  0.1828
  231MOL0     C31780   6.825   6.032   6.009 -0.2132 -0.7113 -0.3138
  231MOL0     C31781   6.819   6.177   6.078 -0.8149 -0.3391  0.4368
  231MOL0     C31782   6.758   6.280   5.991 -0.2728 -0.0001 -0.1950
  231MOL0     C31783   6.772   6.412   6.047  0.5416 -0.7823  0.3078
  231MOL0     C31784   6.774   6.512   5.938 -0.6320 -1.5860  0.5749
  231MOL0    Cl31785   6.606   6.519   5.854  0.5789  0.1917  0.3304
  231MOL0     C31786   7.003   6.011   6.546 -0.3536 -0.4001 -0.5554
  231MOL0     C31787   6.996   6.126   6.625 -0.0314 -0.4881  0.3049
  231MOL0     O31788   6.978   6.279   6.900 -0.1855  0.2183  0.6654
  231MOL0     C31789   6.764   6.548   6.808 -0.8239 -0.4092  1.2860
  231MOL0     C31790   6.715   6.670   6.850  0.1105 -0.0023 -0.2358
  231MOL0     N31791   6.772   7.453   6.943 -0.3614  1.3264  0.1339
  231MOL0     N31792   6.722   7.516   6.843  0.0269 -1.3035 -0.3135
  231MOL0     C31793   5.967   7.092   6.043  0.4399  0.1169  1.5009
  231MOL0     C31794   5.857   7.010   6.028  0.0321  0.1212  0.1294
  231MOL0     C31795   5.451   6.808   6.082  0.9472 -0.3003 -0.1700
  231MOL0     C31796   5.424   6.833   5.940  0.7387  0.2904 -0.2027
  231MOL0     C31797   5.315   6.765   5.875 -0.2537 -0.0514  0.1977
  231MOL0     C31798   5.239   6.663   5.935 -0.3830 -0.5898  0.1612
  231MOL0     O31799   5.152   6.589   5.859  0.4079  0.7169  0.7799
  231MOL0     C31800   5.107   6.456   5.905  0.2615 -1.1321  0.0815
  231MOL0     C31801   5.224   6.365   5.878 -0.2883  0.2308  0.5563
  231MOL0     C31802   5.194   6.215   5.908 -0.8090 -0.3553 -0.3400
  231MOL0     C31803   5.095   6.133   5.817  0.1767 -0.0497 -0.4195
  231MOL0     C31804   5.133   6.117   5.683 -0.2605  0.3101  0.2184
  231MOL0     C31805   5.147   6.120   5.563  0.1369 -0.1903 -0.0289
  231MOL0     C31806   5.258   6.642   6.076 -0.7820  0.8268  0.5233
  231MOL0     C31807   5.374   6.699   6.144 -0.7715  0.3903  1.3288
  231MOL0     C31808   5.396   6.647   6.283  0.3341  0.9800  0.9918
  231MOL0     H31809   5.687   7.079   6.314  0.6137  3.3173  0.3061
  231MOL0     H31810   5.906   7.215   6.347 -0.8939 -1.7746  1.5143
  231MOL0     H31811   6.072   7.437   6.187 -0.0883  0.2770 -0.1560
  231MOL0     H31812   6.056   7.383   6.029  3.2526  0.8637 -1.5963
  231MOL0     H31813   6.313   7.289   6.064  2.8400  1.0967 -0.3053
  231MOL0     H31814   6.281   7.457   6.023  1.0638 -1.1762 -0.0669
  231MOL0     H31815   6.297   7.512   6.267 -0.0277  1.4419 -2.4462
  231MOL0     H31816   6.333   7.347   6.314 -0.9789  1.2102  0.7232
  231MOL0     H31817   6.537   7.381   6.144  2.2665 -0.8080  2.0941
  231MOL0     H31818   6.493   7.545   6.167 -1.2527 -0.6971 -2.0256
  231MOL0     H31819   6.679   7.410   6.310  0.9580  0.6979  0.3994
  231MOL0     H31820   6.529   7.353   6.404  0.6356  0.1961 -0.5200
  231MOL0     H31821   6.622   7.647   6.383  0.4620 -0.8145 -0.5100
  231MOL0     H31822   6.455   7.594   6.410  0.4803  0.4164  0.0562
  231MOL0     H31823   6.534   7.494   6.632 -1.5019  1.0372  0.9890
  231MOL0     H31824   6.595   7.661   6.623 -0.3258 -1.2562  1.0332
  231MOL0     H31825   6.758   7.417   6.538  0.9016 -0.9185  0.6868
  231MOL0     H31826   6.812   7.584   6.547 -1.9096 -0.6083 -3.8120
  231MOL0     H31827   6.950   7.340   6.684  0.3206  1.2490  0.7790
  231MOL0     H31828   6.928   7.296   7.084  2.3470 -1.8887  0.3069
  231MOL0     H31829   7.009   7.226   6.945  0.4500 -1.2609  0.8556
  231MOL0     H31830   6.723   7.204   7.044 -1.2642  0.3325 -2.2806
  231MOL0     H31831   6.765   7.126   6.889  1.8482 -1.1382 -0.0211
  231MOL0     H31832   6.925   6.971   7.003  0.1191  0.0124  0.2326
  231MOL0     H31833   6.921   7.076   7.147 -1.0532 -0.6179  0.0414
  231MOL0     H31834   6.801   6.862   7.182  3.3068  0.4526 -1.9682
  231MOL0     H31835   6.669   6.974   7.162 -0.8117 -0.4311 -0.5659
  231MOL0     H31836   6.904   6.716   7.118  0.1413  1.1149  0.2737
  231MOL0     H31837   7.062   6.563   7.139  0.3493 -0.4851  0.1470
  231MOL0     H31838   7.134   6.512   6.992 -0.4215 -0.5091 -0.4371
  231MOL0     H31839   7.025   6.400   7.096 -1.8532  0.6111  1.0283
  231MOL0     H31840   6.663   6.163   6.629  1.0261  2.5983 -0.8627
  231MOL0     H31841   6.673   5.974   6.486 -0.3496 -0.0384  0.3031
  231MOL0     H31842   6.849   5.704   6.279 -0.2294 -0.1098 -0.7782
  231MOL0     H31843   6.733   5.768   6.394  0.5111  0.1439  0.7900
  231MOL0     H31844   6.693   5.845   6.145 -1.0358  2.4956  0.7625
  231MOL0     H31845   6.694   5.979   6.234 -1.5730  0.7765 -2.8291
  231MOL0     H31846   6.922   5.859   6.068  1.7206 -1.1766  3.0648
  231MOL0     H31847   6.947   5.983   6.185  0.9730 -1.6847 -0.2950
  231MOL0     H31848   6.727   6.003   5.970  0.5885 -1.5053 -1.8185
  231MOL0     H31849   6.900   6.042   5.930  2.1980 -2.8745  1.5145
  231MOL0     H31850   6.756   6.163   6.167 -1.4860 -2.3603 -0.2971
  231MOL0     H31851   6.921   6.209   6.101 -0.9590  2.3317 -2.0693
  231MOL0     H31852   6.652   6.263   5.968  0.2571  0.1150 -3.1074
  231MOL0     H31853   6.805   6.264   5.893  0.6248  1.8631 -0.0901
  231MOL0     H31854   6.861   6.416   6.110  0.9497  1.2163 -0.3210
  231MOL0     H31855   6.687   6.438   6.111  0.0631 -1.3757 -0.0769
  231MOL0     H31856   6.841   6.475   5.860  1.6939  0.8944  1.2495
  231MOL0     H31857   6.798   6.611   5.976 -2.0067 -0.8593 -0.3483
  231MOL0     H31858   7.097   5.967   6.515 -0.4277 -0.8750 -0.1208
  231MOL0     H31859   7.085   6.171   6.668 -0.4497  0.1934  0.4622
  231MOL0     H31860   6.702   6.515   6.725 -0.4359 -0.9599  1.2083
  231MOL0     H31861   6.622   6.715   6.816  1.3060  0.7971 -2.7000
  231MOL0     H31862   6.033   7.092   5.957 -1.6400 -2.9321 -0.2627
  231MOL0     H31863   5.860   6.947   5.940 -0.6082 -4.2807  2.9217
  231MOL0     H31864   5.478   6.911   5.887  1.6991  0.4450  0.9530
  231MOL0     H31865   5.286   6.788   5.773  2.9102  0.1546 -0.7583
  231MOL0     H31866   5.069   6.451   6.007 -0.8215  0.9586 -0.1471
  231MOL0     H31867   5.030   6.432   5.830 -0.5585  1.9166 -0.2292
  231MOL0     H31868   5.311   6.400   5.935  0.1711 -0.3469  0.2303
  231MOL0     H31869   5.250   6.371   5.772 -2.0017 -2.3994 -0.1182
  231MOL0     H31870   5.288   6.159   5.906 -0.7179 -0.1860 -1.9387
  231MOL0     H31871   5.155   6.208   6.010 -1.1764  1.4543 -0.3245
  231MOL0     H31872   5.001   6.181   5.843  0.3170 -0.2826  0.5951
  231MOL0     H31873   5.073   6.032   5.855 -0.4666 -0.1079 -0.9444
  231MOL0     H31874   5.148   6.134   5.456 -1.6287 -1.0165 -0.1824
  231MOL0     H31875   5.216   6.554   6.122  1.7588 -0.0314  1.4001
  231MOL0     H31876   5.383   6.539   6.273  1.9339  0.6633  2.0469
  231MOL0     H31877   5.495   6.674   6.321  1.5286 -1.6030 -0.0555
  231MOL0     H31878   5.322   6.702   6.341 -3.5849  1.6112 -3.9225
  232MOL0     O31879   0.245   6.691  11.025 -0.0648  0.4893 -0.4756
  232MOL0     C31880   0.194   6.634  10.930  0.4505 -0.6814  0.3908
  232MOL0     O31881   0.058   6.631  10.903  0.5241 -0.5215 -0.8548
  232MOL0     C31882  -0.021   6.714  10.971 -0.1708 -0.1473 -0.8506
  232MOL0     C31883  -0.024   6.718  11.106  0.2738  0.2085 -0.1201
  232MOL0     C31884  -0.117   6.792  11.179 -0.8825  1.2717 -0.1131
  232MOL0     C31885  -0.217   6.861  11.114  0.3846 -0.3340 -0.4924
  232MOL0     O31886  -0.324   6.922  11.176  0.5661 -0.2968  0.3310
  232MOL0     C31887  -0.324   6.927  11.321 -0.8551  0.1295  0.2596
  232MOL0     C31888  -0.452   6.997  11.374  0.1689  0.7304  0.9228
  232MOL0     C31889  -0.453   7.152  11.347 -0.2254 -0.5116  0.1430
  232MOL0     C31890  -0.565   7.224  11.430 -0.0044  0.1300  1.1703
  232MOL0     C31891  -0.559   7.379  11.407  0.7351 -0.7377 -0.2546
  232MOL0     C31892  -0.653   7.460  11.497  0.0395 -0.6169 -0.8769
  232MOL0     C31893  -0.670   7.607  11.446 -0.2559 -0.3920  0.1339
  232MOL0     C31894  -0.533   7.689  11.459  0.4666  0.4904 -0.4309
  232MOL0     N31895  -0.554   7.825  11.452  0.0716 -0.2161  0.6103
  232MOL0     C31896  -0.581   7.893  11.330 -0.2824  0.7663  0.1903
  232MOL0     C31897  -0.600   8.018  11.383  0.2063  0.5569 -0.4120
  232MOL0     C31898  -0.640   8.124  11.282  0.0603  0.3821 -0.2705
  232MOL0     C31899  -0.786   8.137  11.239 -0.9650 -0.3608 -0.1960
  232MOL0     C31900  -0.886   8.100  11.350  0.1260 -0.1604 -0.2061
  232MOL0     C31901  -0.927   7.946  11.335 -0.4093  0.8016 -0.7092
  232MOL0     O31902  -0.945   7.909  11.197  0.4899  0.4992  0.1795
  232MOL0     C31903  -0.952   7.763  11.182  0.3201  0.2537 -1.3897
  232MOL0     C31904  -0.978   7.715  11.051 -0.3430 -0.3139 -0.0612
  232MOL0     C31905  -0.983   7.579  11.027  0.1488  0.1300 -0.3191
  232MOL0     C31906  -0.976   7.535  10.888  0.5770  0.6173 -0.0068
  232MOL0     C31907  -0.975   7.488  11.133 -0.0010  0.4972 -0.3781
  232MOL0     C31908  -0.975   7.337  11.125  1.1500  0.1024  0.4583
  232MOL0     O31909  -0.913   7.271  11.228  0.0616  0.2914  0.2118
  232MOL0     C31910  -0.908   7.133  11.207  0.5481 -0.3767  0.6153
  232MOL0     C31911  -0.797   7.069  11.162 -0.2026 -0.1283 -1.2451
  232MOL0     C31912  -0.795   6.930  11.155 -0.4314  0.1984 -0.0519
  232MOL0     C31913  -0.904   6.845  11.192  0.1996 -0.5604 -0.7992
  232MOL0     O31914  -0.907   6.713  11.149 -0.1789  0.4589 -0.4766
  232MOL0     C31915  -1.034   6.666  11.110 -0.4860 -0.2236  0.2073
  232MOL0     C31916  -1.038   6.671  10.956 -1.4280 -0.1014  0.2544
  232MOL0     C31917  -1.182   6.636  10.895  0.1101  0.5637 -0.2951
  232MOL0     C31918  -1.198   6.512  10.814 -0.3389  0.0110 -0.0076
  232MOL0     C31919  -1.314   6.510  10.707  0.7170 -0.1397  0.2281
  232MOL0     C31920  -1.337   6.363  10.655  0.0633 -0.3389 -0.4036
  232MOL0     C31921  -1.487   6.351  10.635 -0.0223 -0.2720 -0.6105
  232MOL0     C31922  -1.513   6.219  10.565 -0.1613  0.5785  0.0088
  232MOL0    Cl31923  -1.689   6.193  10.523  0.0283 -0.1123 -0.2956
  232MOL0     C31924  -1.012   6.917  11.253  0.2157 -0.8686 -0.0640
  232MOL0     C31925  -1.022   7.062  11.260 -0.4148 -1.0018 -0.2156
  232MOL0     O31926  -1.029   7.273  11.029  0.2754  0.3638 -0.6429
  232MOL0     C31927  -0.965   7.547  11.268 -0.3585  0.0334 -0.5967
  232MOL0     C31928  -0.946   7.680  11.285 -1.0594  0.1297 -0.1303
  232MOL0     N31929  -0.577   8.018  11.527  0.2070  0.6936  0.2699
  232MOL0     N31930  -0.554   7.896  11.567  0.6604  0.7563  0.1795
  232MOL0     C31931  -0.206   6.872  10.974  0.0754 -0.3930  0.2215
  232MOL0     C31932  -0.103   6.803  10.903 -0.4031  0.3151  0.4017
  232MOL0     C31933   0.279   6.541  10.852 -0.2745  0.6251  0.9771
  232MOL0     C31934   0.219   6.429  10.782 -0.0994 -1.0553 -0.4099
  232MOL0     C31935   0.284   6.330  10.725 -0.0176 -0.1002 -0.7490
  232MOL0     C31936   0.422   6.321  10.723 -0.0706 -0.2052  0.8469
  232MOL0     O31937   0.494   6.217  10.675  0.0005 -0.4283  0.1390
  232MOL0     C31938   0.430   6.108  10.609  0.1131  0.7838 -0.0546
  232MOL0     C31939   0.420   6.118  10.458 -0.6286 -0.9391  0.3668
  232MOL0     C31940   0.346   6.243  10.405  0.3991  0.1874 -0.9287
  232MOL0     C31941   0.302   6.225  10.261 -0.6740  0.2833 -0.8475
  232MOL0     C31942   0.405   6.182  10.173  0.3498  1.7650  0.4006
  232MOL0     C31943   0.488   6.136  10.099 -0.1734  0.0275  0.1694
  232MOL0     C31944   0.485   6.422  10.793  0.0429 -0.8333  0.4655
  232MOL0     C31945   0.424   6.542  10.847  0.0961  0.2482  0.4049
  232MOL0     C31946   0.513   6.642  10.910  0.0972 -0.2487 -0.4081
  232MOL0     H31947   0.051   6.664  11.162  2.0100  0.2085 -2.3076
  232MOL0     H31948  -0.109   6.774  11.286  0.9535  2.4931  0.0126
  232MOL0     H31949  -0.238   6.983  11.358  0.6192  0.0162 -2.6562
  232MOL0     H31950  -0.317   6.831  11.372  0.5111  1.4227  2.6998
  232MOL0     H31951  -0.535   6.941  11.330  2.7507 -0.8390 -2.3693
  232MOL0     H31952  -0.460   6.978  11.482 -1.2789  1.1441  0.9079
  232MOL0     H31953  -0.353   7.192  11.367 -0.4832 -0.1389  0.7009
  232MOL0     H31954  -0.457   7.179  11.241  0.8042  3.9665  1.0465
  232MOL0     H31955  -0.663   7.185  11.402  0.2964  1.0836 -1.4479
  232MOL0     H31956  -0.551   7.203  11.537  2.1562  0.8183  1.0702
  232MOL0     H31957  -0.603   7.390  11.307 -0.5676 -4.3700 -0.2422
  232MOL0     H31958  -0.460   7.426  11.411 -0.0726  1.0712 -0.2924
  232MOL0     H31959  -0.748   7.405  11.499  0.4342 -1.2943  0.1659
  232MOL0     H31960  -0.613   7.454  11.599 -1.9052  3.2106  0.3232
  232MOL0     H31961  -0.751   7.644  11.510  0.4113 -1.1963  1.4988
  232MOL0     H31962  -0.697   7.608  11.340 -0.6861 -0.2751  0.2450
  232MOL0     H31963  -0.491   7.675  11.560 -0.8166  0.1887  0.0737
  232MOL0     H31964  -0.459   7.659  11.385  1.7606  0.5020  0.8063
  232MOL0     H31965  -0.594   7.865  11.226  1.1599 -1.9461  0.6512
  232MOL0     H31966  -0.578   8.131  11.192 -0.4632 -1.4941 -0.8015
  232MOL0     H31967  -0.625   8.218  11.338  0.7890  0.3453 -0.3927
  232MOL0     H31968  -0.799   8.244  11.218 -3.7501 -0.6573 -0.3794
  232MOL0     H31969  -0.790   8.094  11.139  0.5302 -1.1055  0.0376
  232MOL0     H31970  -0.858   8.116  11.454 -2.9110 -2.6263  1.1611
  232MOL0     H31971  -0.978   8.153  11.327  1.3439  0.8377 -3.1872
  232MOL0     H31972  -0.840   7.890  11.370 -0.0214  0.3684 -2.2801
  232MOL0     H31973  -1.018   7.925  11.392 -0.4566  4.1104  0.6381
  232MOL0     H31974  -0.990   7.789  10.972  0.8606 -0.9965 -0.9058
  232MOL0     H31975  -0.952   7.623  10.826 -4.3090  0.3416 -2.7525
  232MOL0     H31976  -1.074   7.497  10.858  0.3205 -0.1823  1.7424
  232MOL0     H31977  -0.909   7.449  10.873 -2.2346 -2.2642  2.6240
  232MOL0     H31978  -0.705   7.115  11.127  2.1845 -3.5600 -0.0179
  232MOL0     H31979  -0.702   6.878  11.135 -0.1760  0.6827 -0.1566
  232MOL0     H31980  -1.039   6.561  11.140 -2.1293 -0.3863 -0.5297
  232MOL0     H31981  -1.131   6.694  11.152  0.1465  0.6904  1.0963
  232MOL0     H31982  -1.008   6.772  10.927 -0.4789 -0.3349  0.3818
  232MOL0     H31983  -0.965   6.603  10.913 -0.1695 -0.2331  2.4537
  232MOL0     H31984  -1.192   6.723  10.829  3.4143  1.6535  0.4479
  232MOL0     H31985  -1.258   6.630  10.973  1.1711 -0.9492  0.6667
  232MOL0     H31986  -1.202   6.423  10.877 -2.0453 -1.6721 -2.3322
  232MOL0     H31987  -1.109   6.486  10.756 -0.1748 -0.6005  0.5023
  232MOL0     H31988  -1.406   6.549  10.749  0.6475 -0.8029  0.7120
  232MOL0     H31989  -1.284   6.561  10.614 -0.3271 -0.4775 -0.3069
  232MOL0     H31990  -1.303   6.287  10.726  3.5594 -0.1017 -1.6009
  232MOL0     H31991  -1.282   6.349  10.561  0.3859  1.3153 -0.4945
  232MOL0     H31992  -1.517   6.443  10.583  0.0856  0.8410  1.2273
  232MOL0     H31993  -1.544   6.358  10.728 -0.3485  0.0986 -0.8366
  232MOL0     H31994  -1.460   6.133  10.608  0.7739 -0.1248 -2.3979
  232MOL0     H31995  -1.458   6.228  10.471  0.3500 -1.9666 -0.0197
  232MOL0     H31996  -1.098   6.861  11.288 -2.0009  0.5811 -2.7336
  232MOL0     H31997  -1.094   7.131  11.302 -0.3234 -0.8475 -0.3131
  232MOL0     H31998  -0.959   7.475  11.350  0.8162  0.1272 -0.5746
  232MOL0     H31999  -0.937   7.719  11.386  2.3004  0.5199 -0.4443
  232MOL0     H32000  -0.277   6.940  10.928 -0.5896 -1.2223 -0.0001
  232MOL0     H32001  -0.084   6.811  10.796 -2.1223  1.1031  0.1268
  232MOL0     H32002   0.113   6.428  10.761 -0.7279  1.5150  2.0002
  232MOL0     H32003   0.234   6.252  10.669  2.1765 -1.1370 -1.4083
  232MOL0     H32004   0.484   6.022  10.647 -0.9050  0.1771  0.0723
  232MOL0     H32005   0.340   6.077  10.663  1.6102  1.2027  2.9048
  232MOL0     H32006   0.378   6.023  10.422 -1.0802 -1.4184  2.0650
  232MOL0     H32007   0.521   6.131  10.419 -0.8603  2.1119  0.5760
  232MOL0     H32008   0.258   6.280  10.458  1.1150  2.6084 -1.3102
  232MOL0     H32009   0.414   6.328  10.412 -4.3898  4.6781 -2.8007
  232MOL0     H32010   0.271   6.322  10.222  2.8242  2.0967  0.4736
  232MOL0     H32011   0.210   6.166  10.256  0.0461 -0.9755  0.0893
  232MOL0     H32012   0.556   6.087  10.031  2.2670  3.7915 -0.4082
  232MOL0     H32013   0.592   6.403  10.790 -0.2071 -2.5568  1.0325
  232MOL0     H32014   0.451   6.732  10.919 -1.3448 -1.2776  0.2996
  232MOL0     H32015   0.538   6.611  11.011  0.3165 -1.8069 -0.9102
  232MOL0     H32016   0.605   6.654  10.852  1.0791  1.3438  1.4045
  233MOL0     O32017  10.353   7.353  10.276  0.4658  0.9804  0.3130
  233MOL0     C32018  10.458   7.300  10.291 -0.8670 -0.2852 -0.0231
  233MOL0     O32019  10.493   7.233  10.400 -0.3423 -0.5718  0.2490
  233MOL0     C32020  10.388   7.177  10.479 -0.1848  0.2876 -0.8625
  233MOL0     C32021  10.378   7.187  10.619  0.8567  0.0967  0.6509
  233MOL0     C32022  10.272   7.130  10.687 -0.1594 -0.3337 -0.9415
  233MOL0     C32023  10.186   7.034  10.621 -0.3376  0.0860 -0.0341
  233MOL0     O32024  10.080   6.978  10.692 -0.1322  0.1731  0.9384
  233MOL0     C32025  10.073   6.834  10.697 -0.6656 -0.0599  0.6320
  233MOL0     C32026   9.934   6.779  10.661 -0.5487  0.0788  0.2099
  233MOL0     C32027   9.829   6.788  10.769 -0.2727  0.1293  0.2326
  233MOL0     C32028   9.691   6.740  10.729 -0.1212 -1.3934  0.1416
  233MOL0     C32029   9.605   6.757  10.849 -0.8681  0.1164  0.5502
  233MOL0     C32030   9.458   6.732  10.809 -0.5240  0.0093  0.2395
  233MOL0     C32031   9.402   6.824  10.695 -0.1449  0.8247  0.0606
  233MOL0     C32032   9.250   6.778  10.686  0.4217 -0.5024 -0.4434
  233MOL0     N32033   9.185   6.887  10.621  0.3197  0.3205  0.6521
  233MOL0     C32034   9.115   6.995  10.683 -0.0249 -0.1447 -0.4015
  233MOL0     C32035   9.064   7.064  10.584 -0.6203  0.5002 -0.0890
  233MOL0     C32036   8.973   7.176  10.593 -0.5060 -0.4019  0.0700
  233MOL0     C32037   9.064   7.299  10.579  1.0132  0.7953 -0.4058
  233MOL0     C32038   9.149   7.300  10.453 -0.3065  0.3298 -0.3801
  233MOL0     C32039   9.216   7.432  10.423 -0.0545  0.4431 -0.1821
  233MOL0     O32040   9.328   7.432  10.525 -0.2304 -2.0075 -0.0993
  233MOL0     C32041   9.424   7.535  10.502  0.4373 -0.5436  0.5851
  233MOL0     C32042   9.408   7.641  10.412 -0.9243  0.3976  0.5035
  233MOL0     C32043   9.514   7.726  10.381 -0.2531  1.2116 -0.9577
  233MOL0     C32044   9.484   7.828  10.279  0.1431  0.3631 -0.0960
  233MOL0     C32045   9.641   7.713  10.452 -1.1695  0.6109  0.2511
  233MOL0     C32046   9.749   7.822  10.452 -1.3015  0.0648  0.1796
  233MOL0     O32047   9.871   7.782  10.506  0.8955  0.2885  0.0350
  233MOL0     C32048   9.994   7.856  10.499  0.3793  0.5214  0.4783
  233MOL0     C32049  10.103   7.789  10.552  0.1285  0.1287 -0.3264
  233MOL0     C32050  10.235   7.836  10.562 -0.4158  0.1843 -0.1816
  233MOL0     C32051  10.262   7.963  10.505  0.2951  0.2701 -0.5672
  233MOL0     O32052  10.383   8.016  10.474  0.4978  0.2903  0.5547
  233MOL0     C32053  10.497   7.924  10.464 -0.0610  0.3263 -0.0249
  233MOL0     C32054  10.564   7.891  10.594 -1.3884 -0.5755 -0.7238
  233MOL0     C32055  10.647   8.010  10.640 -0.3573  0.4166  0.3059
  233MOL0     C32056  10.704   7.982  10.780 -0.7636 -0.7996 -0.2379
  233MOL0     C32057  10.786   7.852  10.803 -0.0002  0.0339  1.3208
  233MOL0     C32058  10.918   7.860  10.729 -0.1715  0.1309 -0.6545
  233MOL0     C32059  10.994   7.735  10.760  0.1223 -0.1105  0.6040
  233MOL0     C32060  11.143   7.772  10.736 -0.2504  0.2721  0.3527
  233MOL0    Cl32061  11.165   7.781  10.549  0.4509 -0.4977 -0.0125
  233MOL0     C32062  10.155   8.038  10.449  0.3317 -0.1323  0.7440
  233MOL0     C32063  10.022   7.992  10.452  1.1300 -0.0504 -0.0952
  233MOL0     O32064   9.729   7.927  10.392  0.3054  0.0485  0.2953
  233MOL0     C32065   9.655   7.610  10.540 -0.5078 -0.0319  0.2874
  233MOL0     C32066   9.545   7.520  10.564 -1.5038 -0.4706 -0.1105
  233MOL0     N32067   9.086   6.999  10.466 -0.2347  0.2967 -0.5898
  233MOL0     N32068   9.158   6.892  10.484 -0.2418 -0.2485 -0.4383
  233MOL0     C32069  10.214   7.011  10.489 -0.2603  0.4847 -0.3082
  233MOL0     C32070  10.314   7.081  10.421 -0.4250  0.6744  0.2047
  233MOL0     C32071  10.574   7.339  10.198  1.3398  0.9105 -1.1038
  233MOL0     C32072  10.565   7.466  10.136  0.0933 -0.5238 -0.4823
  233MOL0     C32073  10.661   7.504  10.035 -0.2032  0.0576 -0.2759
  233MOL0     C32074  10.771   7.425  10.015  0.5062  0.8958 -1.1783
  233MOL0     O32075  10.851   7.469   9.921 -0.5985 -1.3753  0.5576
  233MOL0     C32076  10.972   7.404   9.902 -0.4742 -0.8477  0.3507
  233MOL0     C32077  11.082   7.494   9.836  1.1578  0.1505 -0.0831
  233MOL0     C32078  11.052   7.529   9.689 -0.6895  0.1913 -0.1812
  233MOL0     C32079  11.102   7.420   9.597 -0.4085  0.1046  0.4704
  233MOL0     C32080  11.005   7.324   9.564  1.2234 -0.2830 -0.3366
  233MOL0     C32081  10.918   7.247   9.547  0.0507  0.2335  0.4924
  233MOL0     C32082  10.780   7.300  10.081  0.2068 -0.6255  0.6297
  233MOL0     C32083  10.682   7.256  10.169 -0.2296 -0.5385 -0.1222
  233MOL0     C32084  10.695   7.113  10.232  0.4790  0.6128  0.0347
  233MOL0     H32085  10.445   7.262  10.660  0.9998  0.9167 -1.0197
  233MOL0     H32086  10.270   7.153  10.793 -0.5792 -2.5150 -0.4239
  233MOL0     H32087  10.095   6.799  10.798 -1.5413  0.6632  1.0864
  233MOL0     H32088  10.145   6.790  10.627  0.8709  1.5225  1.1562
  233MOL0     H32089   9.903   6.836  10.574 -0.5973  0.7833  0.6870
  233MOL0     H32090   9.926   6.679  10.617  1.2381 -0.1768  0.3956
  233MOL0     H32091   9.872   6.741  10.858  2.9513  0.7973 -0.8367
  233MOL0     H32092   9.822   6.895  10.791  2.4951  0.5543 -0.4868
  233MOL0     H32093   9.665   6.802  10.643  1.3324 -1.1142 -0.1151
  233MOL0     H32094   9.695   6.638  10.688 -0.9576 -0.9532 -1.0986
  233MOL0     H32095   9.605   6.863  10.876  2.0634  0.7611 -1.4855
  233MOL0     H32096   9.641   6.689  10.926 -1.2773 -2.7279 -1.6030
  233MOL0     H32097   9.445   6.624  10.796  0.3064  0.2462 -4.0630
  233MOL0     H32098   9.400   6.756  10.898 -3.4053  0.4336 -1.6228
  233MOL0     H32099   9.452   6.798  10.601 -1.6179 -0.4227 -0.4113
  233MOL0     H32100   9.417   6.929  10.724  0.1095  1.5709 -2.4691
  233MOL0     H32101   9.231   6.687  10.628 -0.4180 -2.2811  2.4078
  233MOL0     H32102   9.211   6.766  10.787  0.7641  2.2872  0.0954
  233MOL0     H32103   9.102   7.001  10.790 -0.6962 -1.5142 -0.3760
  233MOL0     H32104   8.928   7.189  10.692 -0.5522  0.5289 -0.0625
  233MOL0     H32105   8.900   7.167  10.512 -1.7050  1.0751  0.9390
  233MOL0     H32106   8.994   7.383  10.571 -0.5603 -0.0756  2.8530
  233MOL0     H32107   9.128   7.318  10.665  1.2314 -0.8903 -0.1752
  233MOL0     H32108   9.232   7.233  10.479 -3.0859 -1.9620  3.7864
  233MOL0     H32109   9.087   7.256  10.375 -2.7444  0.5199  1.3604
  233MOL0     H32110   9.237   7.432  10.315 -4.8133  3.2158 -1.4149
  233MOL0     H32111   9.148   7.517  10.434  0.6495  1.1536 -1.2060
  233MOL0     H32112   9.310   7.659  10.369 -0.5538 -0.4065 -0.7504
  233MOL0     H32113   9.450   7.922  10.322  1.6991  2.3876 -2.9821
  233MOL0     H32114   9.407   7.783  10.216  0.1727 -0.6457  0.5600
  233MOL0     H32115   9.572   7.858  10.221  0.7537  2.8542  1.9364
  233MOL0     H32116  10.078   7.694  10.598 -3.7338  0.6131 -1.1177
  233MOL0     H32117  10.313   7.778  10.609 -0.7052  1.7116  2.3998
  233MOL0     H32118  10.469   7.832  10.411  4.1983  0.4013 -2.8711
  233MOL0     H32119  10.574   7.972  10.402  0.5948  1.2122  1.4185
  233MOL0     H32120  10.491   7.860  10.669 -0.5045 -2.3127 -0.5131
  233MOL0     H32121  10.637   7.810  10.578  2.9660  3.1731 -2.0404
  233MOL0     H32122  10.599   8.108  10.636  0.6289  0.8971 -0.3013
  233MOL0     H32123  10.731   8.018  10.570 -0.1497  1.5928  0.6576
  233MOL0     H32124  10.625   7.984  10.855  1.3311  0.7951  2.0872
  233MOL0     H32125  10.776   8.060  10.805 -2.1384  1.1766 -2.0708
  233MOL0     H32126  10.800   7.851  10.912 -3.5841 -2.2443  1.8939
  233MOL0     H32127  10.720   7.770  10.775 -0.2470  0.2643  1.2205
  233MOL0     H32128  10.973   7.945  10.772 -2.1783  0.7338  0.8639
  233MOL0     H32129  10.909   7.871  10.620  2.5378 -0.5191 -1.0194
  233MOL0     H32130  10.951   7.654  10.702  1.4935 -0.5508  0.1591
  233MOL0     H32131  10.984   7.714  10.867  3.0197  2.2704  1.5075
  233MOL0     H32132  11.202   7.690  10.777 -0.5867 -0.6864 -1.0000
  233MOL0     H32133  11.179   7.864  10.782 -0.0612 -0.5743  1.9658
  233MOL0     H32134  10.174   8.138  10.410 -0.6415 -0.0253  0.5130
  233MOL0     H32135   9.946   8.053  10.404  0.0819 -0.9145  0.4251
  233MOL0     H32136   9.748   7.587  10.590  0.4605 -1.4546 -2.0342
  233MOL0     H32137   9.554   7.442  10.639 -1.9375 -0.4846 -0.0738
  233MOL0     H32138  10.161   6.927  10.445  1.2147 -0.7314  0.1686
  233MOL0     H32139  10.336   7.046  10.321  1.4792 -0.8492  1.0853
  233MOL0     H32140  10.485   7.529  10.173  0.0540 -0.8632  0.0209
  233MOL0     H32141  10.648   7.594   9.977 -0.0709  2.1195  2.6642
  233MOL0     H32142  11.010   7.388  10.003  3.7689  4.4081 -0.0021
  233MOL0     H32143  10.974   7.311   9.843  4.0931  0.8758 -2.8183
  233MOL0     H32144  11.180   7.446   9.832  2.0784  1.8213  1.0598
  233MOL0     H32145  11.095   7.581   9.901 -1.4170 -0.6100  1.5715
  233MOL0     H32146  10.947   7.560   9.685 -0.5964  0.3568 -1.9039
  233MOL0     H32147  11.118   7.615   9.677  0.0556 -0.6842 -3.2476
  233MOL0     H32148  11.187   7.362   9.633  0.0995 -2.2858 -3.9495
  233MOL0     H32149  11.128   7.467   9.501  0.9987  0.9654  1.2446
  233MOL0     H32150  10.835   7.180   9.538 -2.1634  2.7525  0.5457
  233MOL0     H32151  10.869   7.241  10.058  0.6999  1.5058 -3.9541
  233MOL0     H32152  10.604   7.058  10.204 -0.3854  1.8655  0.3281
  233MOL0     H32153  10.781   7.056  10.195  0.5136  1.5506 -1.4380
  233MOL0     H32154  10.710   7.126  10.339  0.9409  2.8995 -0.2669
  234MOL0     O32155   0.604   6.590   1.874  0.4627  0.3857  0.2604
  234MOL0     C32156   0.696   6.662   1.905  1.0934 -0.8985 -1.0973
  234MOL0     O32157   0.819   6.667   1.842 -0.0273 -0.4195  0.5646
  234MOL0     C32158   0.856   6.557   1.770 -0.8531 -0.1745  0.3339
  234MOL0     C32159   0.840   6.568   1.631 -0.0637 -0.6562  0.2223
  234MOL0     C32160   0.891   6.468   1.547  0.1141 -0.1255  0.0979
  234MOL0     C32161   0.958   6.364   1.597 -0.7188  0.0348 -0.5400
  234MOL0     O32162   0.990   6.269   1.508 -0.0854 -0.1214  0.8902
  234MOL0     C32163   0.908   6.153   1.521  0.3771  0.9352  0.4745
  234MOL0     C32164   0.926   6.055   1.401 -0.6041  0.4698  0.3347
  234MOL0     C32165   0.907   6.134   1.270 -0.4384  0.7430  0.5712
  234MOL0     C32166   0.860   6.045   1.154  0.2940 -0.5879 -0.9856
  234MOL0     C32167   0.786   6.127   1.043 -0.2972 -0.6241  0.4773
  234MOL0     C32168   0.881   6.220   0.973  0.7133 -0.1641 -0.5579
  234MOL0     C32169   0.969   6.158   0.869 -0.4994 -0.0820 -0.4066
  234MOL0     C32170   0.882   6.097   0.752  0.1122 -0.4659  0.9247
  234MOL0     N32171   0.972   6.045   0.638 -0.1468 -0.0818  0.8588
  234MOL0     C32172   0.962   5.934   0.561 -1.2419 -1.7848 -0.2566
  234MOL0     C32173   1.076   5.947   0.479 -0.4098  0.1388 -1.3359
  234MOL0     C32174   1.089   5.860   0.366 -1.7569 -0.0796 -0.1643
  234MOL0     C32175   1.222   5.788   0.373 -0.2640  1.0987  0.3598
  234MOL0     C32176   1.241   5.695   0.242 -0.0128  0.0650 -0.3804
  234MOL0     C32177   1.388   5.652   0.241 -0.7767 -0.3307  0.5458
  234MOL0     O32178   1.392   5.559   0.124  0.0686 -0.0467 -0.2733
  234MOL0     C32179   1.429   5.607   0.005 -1.1709 -0.1105 -0.3616
  234MOL0     C32180   1.516   5.516  -0.067  0.1731  0.4986 -0.0125
  234MOL0     C32181   1.559   5.540  -0.194 -0.3653 -0.5529  0.8696
  234MOL0     C32182   1.625   5.429  -0.270  0.3131  0.0906 -0.0544
  234MOL0     C32183   1.540   5.675  -0.246 -1.0693  0.2565  0.4534
  234MOL0     C32184   1.591   5.722  -0.377  0.0722  0.0848 -0.3481
  234MOL0     O32185   1.707   5.663  -0.423 -0.2732 -0.5860 -0.7008
  234MOL0     C32186   1.764   5.699  -0.543  0.3419  0.4378  0.0719
  234MOL0     C32187   1.866   5.618  -0.576 -0.3476 -0.1772 -0.6810
  234MOL0     C32188   1.943   5.635  -0.701  0.6305 -0.1019  0.0309
  234MOL0     C32189   1.920   5.755  -0.779 -0.4903 -1.1819  1.2134
  234MOL0     O32190   1.992   5.785  -0.893  0.1820  0.4370 -0.3866
  234MOL0     C32191   2.136   5.783  -0.883 -0.9772 -0.7432  0.4967
  234MOL0     C32192   2.208   5.885  -0.980 -0.6642  0.0283 -0.9745
  234MOL0     C32193   2.364   5.889  -0.957 -0.0967 -0.3543 -0.3764
  234MOL0     C32194   2.425   5.986  -1.057 -0.2683  0.3797 -0.5528
  234MOL0     C32195   2.570   5.998  -1.038  0.0693  0.2512  0.9589
  234MOL0     C32196   2.619   6.066  -1.164 -0.1524  0.5258  1.1141
  234MOL0     C32197   2.770   6.064  -1.159  0.4373 -0.6281 -0.3846
  234MOL0     C32198   2.831   6.114  -1.288 -0.8564 -0.7494  0.8161
  234MOL0    Cl32199   2.797   6.004  -1.433  0.3031  0.3445  0.1421
  234MOL0     C32200   1.817   5.838  -0.734  0.1862  0.1605  0.4041
  234MOL0     C32201   1.730   5.803  -0.627 -0.6060 -0.3651 -0.2269
  234MOL0     O32202   1.530   5.814  -0.436 -0.1114 -0.5298  0.1293
  234MOL0     C32203   1.478   5.768  -0.164  0.4578  0.0497 -0.8083
  234MOL0     C32204   1.417   5.740  -0.042 -0.1331 -0.1561  0.2622
  234MOL0     N32205   1.141   6.058   0.494 -0.0081 -0.3054  0.0908
  234MOL0     N32206   1.081   6.114   0.599  0.0474 -0.3372  0.3339
  234MOL0     C32207   0.983   6.351   1.740  1.0037  0.3848  0.0662
  234MOL0     C32208   0.931   6.447   1.820  0.5435 -0.6371 -0.1953
  234MOL0     C32209   0.664   6.755   2.022 -0.4165 -0.5253  0.0538
  234MOL0     C32210   0.765   6.857   2.042  0.3040 -0.2922  0.6289
  234MOL0     C32211   0.760   6.948   2.146 -0.5842  0.9524  0.6157
  234MOL0     C32212   0.650   6.936   2.230 -0.3147  0.0602 -0.6487
  234MOL0     O32213   0.653   7.023   2.333  0.4587  0.0104  0.6128
  234MOL0     C32214   0.749   6.994   2.435 -0.3847  0.2234  0.4017
  234MOL0     C32215   0.705   7.061   2.566 -0.2920  0.4117  0.6092
  234MOL0     C32216   0.784   6.978   2.675 -0.4997  0.6699 -0.5854
  234MOL0     C32217   0.766   7.036   2.817 -0.3166  0.6848 -0.6753
  234MOL0     C32218   0.624   7.023   2.856  0.0313 -0.8704  0.1347
  234MOL0     C32219   0.498   7.013   2.868  0.3317  0.1949 -0.9093
  234MOL0     C32220   0.551   6.835   2.218  0.2982 -0.7239  0.8449
  234MOL0     C32221   0.555   6.746   2.114 -0.4676 -0.5527  0.4406
  234MOL0     C32222   0.454   6.635   2.111 -0.0674  0.3631 -0.3352
  234MOL0     H32223   0.797   6.655   1.583  0.3770  1.9441  4.0407
  234MOL0     H32224   0.885   6.467   1.439 -1.5391 -2.0315  0.1731
  234MOL0     H32225   0.808   6.196   1.510  1.5323  3.3791 -1.4494
  234MOL0     H32226   0.926   6.095   1.613  0.5165 -0.9178 -0.6608
  234MOL0     H32227   1.031   6.026   1.400 -0.4569  1.0008  0.2817
  234MOL0     H32228   0.865   5.964   1.404  1.6221 -1.0635  1.6861
  234MOL0     H32229   0.832   6.213   1.279 -0.1566  1.2578 -1.1447
  234MOL0     H32230   0.995   6.193   1.243 -0.5602  0.6563 -0.0327
  234MOL0     H32231   0.946   5.991   1.114  0.5128 -0.8364 -0.1963
  234MOL0     H32232   0.795   5.967   1.194  0.2946  1.0260  2.5833
  234MOL0     H32233   0.708   6.184   1.094 -0.9471 -2.3070  1.4348
  234MOL0     H32234   0.742   6.061   0.968 -2.6313 -0.9189  2.0322
  234MOL0     H32235   0.813   6.292   0.926  3.0398  2.6159  0.0780
  234MOL0     H32236   0.928   6.281   1.050 -2.5212  0.3939  1.1493
  234MOL0     H32237   1.034   6.081   0.911 -1.8666 -0.8790  0.3066
  234MOL0     H32238   1.030   6.240   0.830 -1.6437  0.3425 -1.3771
  234MOL0     H32239   0.815   6.019   0.790 -1.4982 -0.6564 -2.0420
  234MOL0     H32240   0.825   6.172   0.697  3.1248  2.6439  1.6756
  234MOL0     H32241   0.889   5.854   0.563 -0.2258 -2.8115 -1.8741
  234MOL0     H32242   1.099   5.926   0.280  1.1120 -0.5922 -0.3317
  234MOL0     H32243   1.001   5.797   0.347 -2.0070  0.7304 -1.8968
  234MOL0     H32244   1.299   5.866   0.378  1.2375 -0.2097 -1.0890
  234MOL0     H32245   1.234   5.727   0.463  0.0121 -0.7894 -0.9155
  234MOL0     H32246   1.184   5.602   0.237 -0.1702  0.1191  0.2410
  234MOL0     H32247   1.222   5.757   0.154  0.0632  0.9747  0.2222
  234MOL0     H32248   1.461   5.733   0.234 -0.0818 -0.8634  1.4523
  234MOL0     H32249   1.414   5.598   0.332 -2.4811 -2.0248  0.0954
  234MOL0     H32250   1.524   5.419  -0.021  2.0933  1.7311  2.5322
  234MOL0     H32251   1.617   5.334  -0.217  1.6284 -1.9209 -3.1491
  234MOL0     H32252   1.733   5.440  -0.281  0.3700  0.8063  1.0426
  234MOL0     H32253   1.571   5.415  -0.365  0.2156  0.0105  0.0128
  234MOL0     H32254   1.906   5.536  -0.517 -1.1283  0.2377  0.4564
  234MOL0     H32255   2.020   5.562  -0.722  0.7575 -0.1383  0.6183
  234MOL0     H32256   2.156   5.795  -0.777 -3.9027  1.6459  0.9015
  234MOL0     H32257   2.173   5.682  -0.903  0.4071 -0.0881 -0.4243
  234MOL0     H32258   2.194   5.859  -1.085 -1.2881  0.7804 -1.0817
  234MOL0     H32259   2.156   5.981  -0.979  0.4769  0.6737 -1.1994
  234MOL0     H32260   2.403   5.788  -0.969  1.6011  0.2496 -0.2127
  234MOL0     H32261   2.377   5.919  -0.853  0.4484  1.1593 -0.8537
  234MOL0     H32262   2.365   6.077  -1.052 -1.6302 -0.5330  3.1125
  234MOL0     H32263   2.407   5.942  -1.155 -0.6700  0.5242 -0.5476
  234MOL0     H32264   2.590   6.061  -0.950  1.4210  1.7193 -0.3323
  234MOL0     H32265   2.618   5.902  -1.015 -1.8224 -0.8957  0.2719
  234MOL0     H32266   2.598   6.173  -1.169  3.4870  1.4252  1.8782
  234MOL0     H32267   2.580   6.007  -1.247 -0.5255 -2.9116  3.5022
  234MOL0     H32268   2.819   5.974  -1.121 -0.0978  0.1545  2.3518
  234MOL0     H32269   2.802   6.134  -1.082  1.2656 -4.0963  2.6837
  234MOL0     H32270   2.935   6.144  -1.274 -0.9598 -0.0754  0.1696
  234MOL0     H32271   2.785   6.208  -1.320  2.7100  0.3764 -1.6703
  234MOL0     H32272   1.794   5.931  -0.785  2.0111  0.7898  0.6463
  234MOL0     H32273   1.651   5.875  -0.606 -3.5628 -3.8840  1.9672
  234MOL0     H32274   1.464   5.869  -0.199  1.5510  1.2802  1.9883
  234MOL0     H32275   1.377   5.831   0.003 -1.6492 -1.0639  0.8242
  234MOL0     H32276   1.030   6.272   1.799 -1.0148 -1.3418 -0.4877
  234MOL0     H32277   0.951   6.448   1.926 -0.3269  1.8223 -0.0008
  234MOL0     H32278   0.852   6.869   1.977  2.0178  1.4475  3.0265
  234MOL0     H32279   0.839   7.022   2.139 -0.4885  0.7098 -1.2403
  234MOL0     H32280   0.762   6.886   2.440 -4.6002 -0.4884  0.2028
  234MOL0     H32281   0.837   7.051   2.403 -0.2724 -0.7864 -1.1879
  234MOL0     H32282   0.603   7.028   2.590 -0.0375 -1.7933 -0.9961
  234MOL0     H32283   0.716   7.170   2.564  1.0157  0.3589 -3.1015
  234MOL0     H32284   0.745   6.876   2.673 -1.2405  0.9620 -1.1044
  234MOL0     H32285   0.891   6.970   2.651 -0.5052 -1.1792 -0.1498
  234MOL0     H32286   0.806   7.136   2.838 -0.0124 -0.1539  3.7396
  234MOL0     H32287   0.822   6.975   2.889 -0.7563 -0.9533 -1.6831
  234MOL0     H32288   0.392   7.016   2.886  0.2970 -1.3724 -0.7686
  234MOL0     H32289   0.467   6.840   2.287 -2.7796  0.0999 -2.5749
  234MOL0     H32290   0.386   6.652   2.195  2.2933  0.3129  1.7205
  234MOL0     H32291   0.387   6.650   2.026  0.7064  2.9526 -0.5648
  234MOL0     H32292   0.491   6.532   2.108 -0.1978  0.0648  3.3604
  235MOL0     O32293   4.399   1.802   4.260 -0.1937  0.6209 -0.6542
  235MOL0     C32294   4.304   1.749   4.196 -0.9120  0.0629 -0.1718
  235MOL0     O32295   4.194   1.685   4.242  0.1599  0.4543  0.1832
  235MOL0     C32296   4.187   1.648   4.372 -0.5502  0.5171 -0.4803
  235MOL0     C32297   4.151   1.747   4.466 -0.7507  0.0500  0.3658
  235MOL0     C32298   4.124   1.715   4.599 -0.5129 -0.5724 -0.4907
  235MOL0     C32299   4.136   1.587   4.647 -0.1945 -0.1038  0.5254
  235MOL0     O32300   4.093   1.541   4.773  0.2521  0.0862 -0.0048
  235MOL0     C32301   4.039   1.632   4.875  0.1432  0.2333  0.9995
  235MOL0     C32302   3.983   1.549   4.984 -0.3861 -0.6842  0.3165
  235MOL0     C32303   3.874   1.450   4.929 -0.1773  0.6029  1.0639
  235MOL0     C32304   3.799   1.400   5.056 -0.9959 -0.3717  0.2490
  235MOL0     C32305   3.748   1.259   5.031 -0.9581 -0.7171  0.7046
  235MOL0     C32306   3.643   1.219   5.137 -0.0329 -0.3231  0.0198
  235MOL0     C32307   3.551   1.105   5.101 -0.1345  0.5825 -0.4292
  235MOL0     C32308   3.463   1.070   5.220  0.0186 -0.6618 -0.3866
  235MOL0     N32309   3.355   0.970   5.195 -0.2788  0.1606 -0.6972
  235MOL0     C32310   3.229   1.010   5.145  0.0993 -0.0997 -0.6710
  235MOL0     C32311   3.172   0.885   5.132  0.3636  0.4698  0.0369
  235MOL0     C32312   3.040   0.849   5.068  0.1956  0.1742  0.2357
  235MOL0     C32313   2.920   0.830   5.155 -0.8148  0.4011 -0.0357
  235MOL0     C32314   2.782   0.788   5.106  0.0290 -0.1882 -0.1805
  235MOL0     C32315   2.783   0.695   4.988 -0.3864  0.3329 -1.3444
  235MOL0     O32316   2.866   0.575   4.992  0.4512  0.1199 -0.2664
  235MOL0     C32317   2.875   0.497   5.110 -0.0366  0.4972 -0.1767
  235MOL0     C32318   2.771   0.419   5.168  0.1655  0.2607  0.1438
  235MOL0     C32319   2.786   0.355   5.294  0.2586 -0.5271 -0.4217
  235MOL0     C32320   2.660   0.282   5.353  0.1399 -0.2975  0.2079
  235MOL0     C32321   2.912   0.347   5.356 -0.5449 -0.8436  0.5373
  235MOL0     C32322   2.933   0.255   5.481 -0.5406  0.2030  0.8866
  235MOL0     O32323   3.054   0.270   5.529  0.3508 -0.6049 -0.9470
  235MOL0     C32324   3.081   0.211   5.653  0.2053 -0.3146 -0.7683
  235MOL0     C32325   3.068   0.288   5.778  0.3461  0.4982  0.6776
  235MOL0     C32326   3.101   0.232   5.892  0.1321 -0.1545 -0.1189
  235MOL0     C32327   3.158   0.109   5.898  0.3080 -0.4369  0.6365
  235MOL0     O32328   3.205   0.079   6.016  0.0541  0.4674 -0.1836
  235MOL0     C32329   3.320   0.001   6.024  0.7877  0.5736 -0.4299
  235MOL0     C32330   3.337  -0.048   6.166  0.6579 -0.3514  0.2604
  235MOL0     C32331   3.253  -0.178   6.183 -0.8808  0.9116  0.7764
  235MOL0     C32332   3.239  -0.210   6.332  0.0187 -0.1619 -0.1196
  235MOL0     C32333   3.199  -0.366   6.347  0.2189 -0.3151  0.6236
  235MOL0     C32334   3.135  -0.403   6.479  0.7521  0.6007 -0.0042
  235MOL0     C32335   3.213  -0.367   6.610  0.5553  0.2046  0.6805
  235MOL0     C32336   3.323  -0.469   6.635 -0.1899 -0.0039 -0.0950
  235MOL0    Cl32337   3.257  -0.629   6.667 -0.0122 -0.0112  0.0042
  235MOL0     C32338   3.161   0.025   5.786 -0.0318 -0.0029  0.1321
  235MOL0     C32339   3.118   0.075   5.665  0.5938  0.3658  0.3644
  235MOL0     O32340   2.852   0.179   5.521 -0.3701  0.6586  0.1738
  235MOL0     C32341   3.019   0.418   5.292  0.6851  0.8444 -0.0231
  235MOL0     C32342   2.989   0.493   5.183  0.1520 -0.2697  0.6012
  235MOL0     N32343   3.257   0.784   5.162 -0.4514  0.2785 -0.1716
  235MOL0     N32344   3.368   0.838   5.189  0.1789  0.9061 -0.1412
  235MOL0     C32345   4.170   1.492   4.550 -0.8769 -0.4215 -0.5892
  235MOL0     C32346   4.190   1.516   4.420 -0.5720  0.9165 -0.4297
  235MOL0     C32347   4.309   1.778   4.042 -0.0509 -0.6862  1.1781
  235MOL0     C32348   4.265   1.672   3.963  0.1084  0.4084  0.0163
  235MOL0     C32349   4.284   1.673   3.829  0.0830 -0.3299 -0.3263
  235MOL0     C32350   4.323   1.786   3.760  0.2676  0.9901  0.1241
  235MOL0     O32351   4.335   1.788   3.623  0.4382  0.4559  0.8881
  235MOL0     C32352   4.298   1.684   3.540  0.5647  0.1017  0.1503
  235MOL0     C32353   4.270   1.745   3.401  0.5270 -0.8835  0.5910
  235MOL0     C32354   4.248   1.647   3.289  0.8789  0.2156  0.4157
  235MOL0     C32355   4.180   1.718   3.165  0.7040  0.2396 -0.4902
  235MOL0     C32356   4.050   1.777   3.194 -0.1271 -0.0853  0.2492
  235MOL0     C32357   3.946   1.834   3.194  0.7540  0.1852  0.4713
  235MOL0     C32358   4.360   1.897   3.832  0.3152  0.3290  0.1329
  235MOL0     C32359   4.367   1.894   3.979  0.9617  0.7418  0.8767
  235MOL0     C32360   4.411   2.017   4.051  0.3061  0.1703 -1.0295
  235MOL0     H32361   4.155   1.850   4.432  1.7787  0.5222  1.8419
  235MOL0     H32362   4.095   1.782   4.679  0.4949 -1.5874  0.7693
  235MOL0     H32363   3.962   1.694   4.827 -2.0720 -2.2718  1.0879
  235MOL0     H32364   4.115   1.702   4.910 -2.7416  4.1787  0.0842
  235MOL0     H32365   4.068   1.500   5.032 -0.6125 -1.9302 -0.4789
  235MOL0     H32366   3.932   1.621   5.049 -0.4176 -0.0997 -0.3451
  235MOL0     H32367   3.807   1.494   4.854  0.8939  1.0795  0.3737
  235MOL0     H32368   3.917   1.361   4.883  0.0296 -0.1124  2.5705
  235MOL0     H32369   3.871   1.384   5.137 -1.5306 -0.7853  0.6512
  235MOL0     H32370   3.731   1.474   5.101  0.3121 -0.1109  1.9068
  235MOL0     H32371   3.832   1.189   5.026  0.3501  0.8749 -2.2089
  235MOL0     H32372   3.697   1.250   4.935 -0.0091 -0.9547  0.2097
  235MOL0     H32373   3.706   1.195   5.224  1.3541  3.0802  0.0788
  235MOL0     H32374   3.586   1.309   5.160  0.0699 -0.6097  1.5566
  235MOL0     H32375   3.614   1.020   5.073  2.6722  2.4821 -0.2896
  235MOL0     H32376   3.497   1.142   5.013  0.8578  1.9058 -0.5072
  235MOL0     H32377   3.534   1.032   5.294 -0.9265 -2.0965 -0.1613
  235MOL0     H32378   3.414   1.153   5.271 -0.9909 -1.9828  0.8802
  235MOL0     H32379   3.192   1.108   5.118  0.7581 -0.0468 -1.4351
  235MOL0     H32380   3.055   0.760   5.007 -1.3413 -0.5560  0.8696
  235MOL0     H32381   3.011   0.928   4.998 -0.4567 -0.7913 -0.6137
  235MOL0     H32382   2.955   0.762   5.233  1.1364  1.9294  0.5010
  235MOL0     H32383   2.897   0.920   5.213 -0.5962  1.5112 -1.6232
  235MOL0     H32384   2.736   0.729   5.186  2.2381 -0.9550  0.6215
  235MOL0     H32385   2.720   0.873   5.077  2.1308  0.6057 -2.7752
  235MOL0     H32386   2.682   0.661   4.965 -0.3663 -0.5963 -0.0981
  235MOL0     H32387   2.807   0.748   4.895  1.1220  0.1855 -1.0676
  235MOL0     H32388   2.677   0.402   5.117  0.3851 -1.6270  0.2884
  235MOL0     H32389   2.670   0.173   5.363  0.6560 -0.5905 -2.6902
  235MOL0     H32390   2.575   0.296   5.286 -0.5275  2.9315  1.5163
  235MOL0     H32391   2.633   0.335   5.445 -1.9377  2.1519 -1.6716
  235MOL0     H32392   3.023   0.385   5.761  3.3422  1.8732 -0.0460
  235MOL0     H32393   3.088   0.284   5.986  2.2964  0.1705  0.0467
  235MOL0     H32394   3.328  -0.085   5.957  0.6783  0.0738  0.1949
  235MOL0     H32395   3.408   0.058   5.992 -0.4610  4.5932  2.4409
  235MOL0     H32396   3.444  -0.057   6.186  0.5414  0.2735  1.2189
  235MOL0     H32397   3.307   0.019   6.247  1.0202  0.9034 -0.6128
  235MOL0     H32398   3.314  -0.260   6.143  0.8348  1.9785  1.0935
  235MOL0     H32399   3.160  -0.192   6.128  1.3541 -1.6708 -2.7629
  235MOL0     H32400   3.160  -0.143   6.368  0.4124  0.8678 -1.1298
  235MOL0     H32401   3.332  -0.185   6.384  0.8773  0.4067 -1.8538
  235MOL0     H32402   3.133  -0.394   6.264  0.7026  1.1832 -0.3113
  235MOL0     H32403   3.281  -0.436   6.328  0.1510  0.1610 -1.8465
  235MOL0     H32404   3.091  -0.504   6.477  0.4503  0.7262 -1.6590
  235MOL0     H32405   3.042  -0.346   6.473  0.7885  0.6128 -0.5751
  235MOL0     H32406   3.139  -0.368   6.690  0.8516  0.7642  0.9594
  235MOL0     H32407   3.242  -0.262   6.604 -2.1364  1.1326  2.1807
  235MOL0     H32408   3.392  -0.456   6.718 -0.3148 -1.0130  0.1841
  235MOL0     H32409   3.387  -0.464   6.546  0.5585  1.8720  0.5054
  235MOL0     H32410   3.217  -0.067   5.788 -0.8856 -0.5164  0.7688
  235MOL0     H32411   3.130   0.013   5.576  2.3220  0.2499  0.6440
  235MOL0     H32412   3.109   0.413   5.352  0.4759 -2.7781  0.2298
  235MOL0     H32413   3.078   0.545   5.147  0.8963 -0.9849  1.3767
  235MOL0     H32414   4.183   1.389   4.582  1.6750 -0.4526 -1.4887
  235MOL0     H32415   4.208   1.439   4.345 -0.5300 -0.7605  1.2202
  235MOL0     H32416   4.227   1.584   4.013  0.4992  0.8828  1.1666
  235MOL0     H32417   4.235   1.595   3.772  2.3984 -0.9107 -1.6348
  235MOL0     H32418   4.371   1.602   3.532 -0.7524 -1.0993  0.0063
  235MOL0     H32419   4.206   1.647   3.585  1.8730  1.2232  4.2090
  235MOL0     H32420   4.355   1.810   3.379  0.7952 -0.8993  1.5527
  235MOL0     H32421   4.182   1.807   3.422  2.0431  0.9006  1.9920
  235MOL0     H32422   4.345   1.602   3.264  1.4029  1.8502 -0.6246
  235MOL0     H32423   4.180   1.567   3.320 -0.4649 -0.1659 -3.0687
  235MOL0     H32424   4.184   1.642   3.086  0.3184 -1.2911  0.8858
  235MOL0     H32425   4.246   1.799   3.136  1.1689  1.0401  2.5165
  235MOL0     H32426   3.848   1.877   3.191  1.5142  2.0768  1.4150
  235MOL0     H32427   4.394   1.983   3.776  3.1370 -1.5226 -1.2287
  235MOL0     H32428   4.432   2.096   3.978 -0.6077  0.2590 -1.2076
  235MOL0     H32429   4.326   2.050   4.111 -0.4295 -2.0807 -0.7249
  235MOL0     H32430   4.489   2.008   4.127  0.4200  4.8328 -0.3094
  236MOL0     O32431   2.458   5.909   8.658  0.4153  0.0502 -0.3390
  236MOL0     C32432   2.518   5.801   8.639  0.4579 -1.2611 -0.8474
  236MOL0     O32433   2.480   5.680   8.691  0.0262 -0.2571  0.0657
  236MOL0     C32434   2.386   5.683   8.791  0.2633  0.1479  0.6456
  236MOL0     C32435   2.421   5.683   8.924  1.1903 -0.0203 -0.0988
  236MOL0     C32436   2.329   5.688   9.032 -1.0063  0.3076  0.6828
  236MOL0     C32437   2.191   5.697   9.001 -0.4619  0.1285  0.6900
  236MOL0     O32438   2.078   5.678   9.081 -0.1261  0.7892  0.1348
  236MOL0     C32439   2.099   5.643   9.217  0.2828  0.2357 -0.2277
  236MOL0     C32440   2.144   5.772   9.291  0.0485  0.2967  0.0779
  236MOL0     C32441   2.037   5.880   9.334 -0.4491 -0.1639  0.5192
  236MOL0     C32442   2.065   5.942   9.471 -0.4567 -0.1485 -0.2575
  236MOL0     C32443   1.988   6.076   9.485  0.3957 -0.3613 -0.1777
  236MOL0     C32444   1.997   6.137   9.628  0.7403 -0.5063  0.1075
  236MOL0     C32445   1.912   6.060   9.739  0.0181 -0.0280  0.9074
  236MOL0     C32446   1.962   6.085   9.877  0.1096 -0.1193  0.5016
  236MOL0     N32447   1.879   6.005   9.971 -1.3365 -0.8844 -1.4487
  236MOL0     C32448   1.745   6.014   9.999  0.7469  0.3745  0.5968
  236MOL0     C32449   1.733   5.936  10.109  0.0124  0.3560  0.0098
  236MOL0     C32450   1.601   5.902  10.178  0.0549  0.7598  0.5267
  236MOL0     C32451   1.555   6.005  10.283  0.0555  0.3469  0.4301
  236MOL0     C32452   1.442   5.954  10.362 -0.4187  0.3267 -0.3764
  236MOL0     C32453   1.413   6.050  10.474 -0.6198 -0.4410  1.1796
  236MOL0     O32454   1.346   5.990  10.578  0.5108 -0.3116  0.3591
  236MOL0     C32455   1.336   6.049  10.698  0.0459 -0.1867 -0.5309
  236MOL0     C32456   1.305   6.182  10.722 -0.4971  0.6076  0.3484
  236MOL0     C32457   1.294   6.246  10.838  0.3968  1.0888 -0.1409
  236MOL0     C32458   1.267   6.386  10.836 -0.5735 -0.3590 -0.4634
  236MOL0     C32459   1.304   6.158  10.955  0.0631  0.5584 -0.5282
  236MOL0     C32460   1.295   6.194  11.099  0.5124 -0.2243  0.9380
  236MOL0     O32461   1.251   6.105  11.195  0.2207 -0.2850 -0.8383
  236MOL0     C32462   1.297   6.118  11.322 -0.2911 -0.1387 -0.4375
  236MOL0     C32463   1.429   6.126  11.355 -0.4128  0.0820 -0.2277
  236MOL0     C32464   1.459   6.122  11.495  0.2637 -0.0689  0.3086
  236MOL0     C32465   1.371   6.110  11.602  0.3769  0.4347 -0.3523
  236MOL0     O32466   1.387   6.118  11.739  0.1065  0.8330 -0.1113
  236MOL0     C32467   1.530   6.114  11.776  0.1583  1.1829  0.4586
  236MOL0     C32468   1.521   6.066  11.924  0.1927  0.1564  0.0856
  236MOL0     C32469   1.643   6.115  12.009  0.2266  0.4047  0.0446
  236MOL0     C32470   1.640   6.268  12.043 -0.5986 -0.2787  0.6846
  236MOL0     C32471   1.752   6.330  12.121 -0.0767  0.0524 -0.7535
  236MOL0     C32472   1.697   6.466  12.160  0.4513 -0.2964  0.5561
  236MOL0     C32473   1.798   6.535  12.262 -0.8195 -0.1288  0.3501
  236MOL0     C32474   1.753   6.661  12.341  0.6419 -0.2963  0.6993
  236MOL0    Cl32475   1.608   6.615  12.440 -0.1495 -0.1458  0.4458
  236MOL0     C32476   1.235   6.084  11.566 -0.9351 -0.6964  0.5310
  236MOL0     C32477   1.201   6.099  11.429 -0.1766  0.2035  0.6125
  236MOL0     O32478   1.315   6.311  11.124  0.7544 -0.4308 -0.8773
  236MOL0     C32479   1.329   6.016  10.932 -0.2070  0.0872 -0.5683
  236MOL0     C32480   1.348   5.964  10.805  0.7899 -0.5572 -0.0263
  236MOL0     N32481   1.856   5.880  10.143 -0.2223 -0.6836  0.0976
  236MOL0     N32482   1.939   5.916  10.055 -0.0201 -0.1395 -0.2189
  236MOL0     C32483   2.159   5.695   8.867 -0.5433  0.1709  0.0177
  236MOL0     C32484   2.248   5.684   8.760 -0.3150  0.4066 -0.1535
  236MOL0     C32485   2.625   5.812   8.537 -0.3363  0.1283  0.1408
  236MOL0     C32486   2.667   5.683   8.487 -0.9927 -0.6746 -0.5732
  236MOL0     C32487   2.754   5.667   8.384 -0.7499 -1.0667 -0.3038
  236MOL0     C32488   2.805   5.784   8.318 -0.0076  0.3261  0.1974
  236MOL0     O32489   2.881   5.767   8.205 -0.2228 -0.9229 -0.5353
  236MOL0     C32490   2.981   5.866   8.186  0.3375  0.4937 -0.4350
  236MOL0     C32491   3.081   5.829   8.074  0.3665 -0.0863  0.0478
  236MOL0     C32492   3.150   5.695   8.085 -0.0047  0.4386 -0.3343
  236MOL0     C32493   3.291   5.702   8.025 -0.1242 -0.1952 -0.1987
  236MOL0     C32494   3.351   5.565   8.038 -0.7932 -0.2712  0.8097
  236MOL0     C32495   3.368   5.443   8.054 -0.3212 -0.5898 -0.2930
  236MOL0     C32496   2.776   5.908   8.376 -0.2014  0.7282  0.6924
  236MOL0     C32497   2.694   5.916   8.484 -0.0680  0.1082 -0.4194
  236MOL0     C32498   2.683   6.055   8.542  0.0761  0.7104 -0.0751
  236MOL0     H32499   2.525   5.693   8.952  0.7877  1.5959  0.9717
  236MOL0     H32500   2.375   5.679   9.130 -3.0784  1.5953  1.8206
  236MOL0     H32501   2.181   5.571   9.204 -0.9093 -1.6017  1.7975
  236MOL0     H32502   2.019   5.590   9.269 -0.7623  2.5489  0.6463
  236MOL0     H32503   2.207   5.734   9.372  2.7089  1.7029 -1.2094
  236MOL0     H32504   2.225   5.808   9.227  0.2080  0.1954  0.2243
  236MOL0     H32505   2.026   5.950   9.251 -1.8746 -1.9400 -0.8543
  236MOL0     H32506   1.943   5.825   9.331 -0.0854 -0.8802 -3.6288
  236MOL0     H32507   2.026   5.867   9.541 -2.5630  0.3718 -0.8071
  236MOL0     H32508   2.173   5.932   9.487 -0.5256 -4.9146 -1.1080
  236MOL0     H32509   1.882   6.070   9.457 -0.1002  0.1801  1.4605
  236MOL0     H32510   2.042   6.150   9.426  1.5385 -1.4077 -0.4864
  236MOL0     H32511   2.106   6.140   9.644  0.5971 -2.3874  1.8519
  236MOL0     H32512   1.974   6.244   9.633 -1.5262 -1.0118  1.8214
  236MOL0     H32513   1.939   5.956   9.717  0.6343  0.6150 -1.6630
  236MOL0     H32514   1.809   6.094   9.724 -0.1611 -0.2897  1.5250
  236MOL0     H32515   2.065   6.049   9.884  0.2344  0.1647  0.1650
  236MOL0     H32516   1.967   6.192   9.900  1.4985  0.2503 -1.2406
  236MOL0     H32517   1.669   6.076   9.953 -1.7960 -3.2557 -0.5171
  236MOL0     H32518   1.618   5.808  10.231  0.7546 -0.5258 -1.8593
  236MOL0     H32519   1.531   5.886  10.096  1.3422  2.4075 -0.9690
  236MOL0     H32520   1.631   6.032  10.357 -1.7898  1.8673  1.8813
  236MOL0     H32521   1.525   6.102  10.244 -0.9100  1.1810  3.0013
  236MOL0     H32522   1.346   5.943  10.310 -0.2198 -5.1013 -0.1604
  236MOL0     H32523   1.472   5.863  10.415 -0.1646  1.3427  1.3065
  236MOL0     H32524   1.498   6.086  10.532 -1.5723  0.2262  2.1966
  236MOL0     H32525   1.343   6.126  10.436  1.4864  2.8690  3.3490
  236MOL0     H32526   1.289   6.235  10.628 -0.4911 -1.1344 -0.6839
  236MOL0     H32527   1.225   6.406  10.738 -3.7905 -1.9221  0.4822
  236MOL0     H32528   1.362   6.439  10.851  1.4157 -4.2626  2.9571
  236MOL0     H32529   1.194   6.419  10.911  2.1193  0.3235  2.0752
  236MOL0     H32530   1.515   6.120  11.289  1.8556  0.8203  2.4745
  236MOL0     H32531   1.565   6.142  11.507 -0.0570  1.7916  0.3129
  236MOL0     H32532   1.587   6.045  11.713 -1.3180  1.2125 -0.9598
  236MOL0     H32533   1.582   6.209  11.766  1.1895  0.6976  1.0862
  236MOL0     H32534   1.429   6.104  11.970 -1.9974 -4.6507  0.2829
  236MOL0     H32535   1.505   5.959  11.932 -0.8890  0.2627 -0.5078
  236MOL0     H32536   1.730   6.073  11.957 -0.7516 -0.5204 -0.8805
  236MOL0     H32537   1.635   6.056  12.101  0.4296  0.0389 -0.1657
  236MOL0     H32538   1.542   6.284  12.091 -0.9356  2.7464 -0.7922
  236MOL0     H32539   1.633   6.325  11.950 -0.3487  0.3697  1.0542
  236MOL0     H32540   1.776   6.259  12.201 -3.3100 -1.8622 -1.3043
  236MOL0     H32541   1.845   6.341  12.064 -1.4044  1.5519 -2.7848
  236MOL0     H32542   1.598   6.453  12.203 -2.0411  3.0453 -3.3876
  236MOL0     H32543   1.686   6.534  12.075  2.7430  0.3889  0.7347
  236MOL0     H32544   1.895   6.562  12.220 -1.5227  1.6605 -0.2511
  236MOL0     H32545   1.814   6.452  12.331 -3.2554 -1.4765 -0.5590
  236MOL0     H32546   1.727   6.738  12.268  1.1866 -1.3767 -0.6939
  236MOL0     H32547   1.833   6.703  12.404  0.5942 -0.2532  0.7313
  236MOL0     H32548   1.165   6.047  11.640 -0.1900 -1.7012  0.7474
  236MOL0     H32549   1.097   6.089  11.397 -0.1204 -1.2501  0.8141
  236MOL0     H32550   1.335   5.946  11.014  0.0887  0.4057 -0.3111
  236MOL0     H32551   1.368   5.857  10.797 -1.3347 -1.2178  2.3474
  236MOL0     H32552   2.054   5.683   8.843 -0.5474 -2.3803  0.9347
  236MOL0     H32553   2.229   5.681   8.654 -0.0749 -1.8626 -0.1898
  236MOL0     H32554   2.614   5.589   8.500 -0.7540 -0.7393 -0.0327
  236MOL0     H32555   2.793   5.570   8.358 -0.4907 -1.4720  1.4789
  236MOL0     H32556   2.942   5.967   8.170 -0.2162  0.1363 -1.4176
  236MOL0     H32557   3.051   5.868   8.270  2.0127 -1.4775 -1.6778
  236MOL0     H32558   3.164   5.899   8.067  2.3555 -2.3733 -0.6743
  236MOL0     H32559   3.033   5.831   7.976  1.4503 -3.0941 -0.6728
  236MOL0     H32560   3.165   5.679   8.192 -3.2380  0.9011  0.3039
  236MOL0     H32561   3.092   5.611   8.047  0.6789 -0.8580  1.3851
  236MOL0     H32562   3.352   5.776   8.078  0.0669 -1.2310  1.0872
  236MOL0     H32563   3.286   5.724   7.918  1.8747  0.5473 -0.1798
  236MOL0     H32564   3.361   5.337   8.047 -1.3769 -0.6468  1.1061
  236MOL0     H32565   2.815   6.001   8.336  1.7144 -1.0441 -1.7959
  236MOL0     H32566   2.639   6.058   8.642  2.2951  1.1231  0.9462
  236MOL0     H32567   2.785   6.094   8.552  0.5493 -0.5376  0.2282
  236MOL0     H32568   2.626   6.122   8.477  0.0013  1.5714  0.8633
  237MOL0     O32569   3.616   6.132   6.825  0.7606  0.0883  0.3167
  237MOL0     C32570   3.592   6.139   6.706 -0.1244 -0.2176  0.2932
  237MOL0     O32571   3.684   6.176   6.608 -0.7988  0.2649  0.6752
  237MOL0     C32572   3.811   6.208   6.644  0.5817  0.3507  0.5171
  237MOL0     C32573   3.834   6.345   6.679 -0.4806  0.1137 -0.3722
  237MOL0     C32574   3.961   6.387   6.715 -0.3010 -0.5115 -0.1115
  237MOL0     C32575   4.070   6.302   6.711 -0.1916 -0.3932 -0.3517
  237MOL0     O32576   4.187   6.365   6.727 -0.0704 -0.0046  0.0951
  237MOL0     C32577   4.294   6.271   6.758  0.5166 -0.3708  0.0081
  237MOL0     C32578   4.418   6.365   6.776 -0.3760 -0.4908  0.4648
  237MOL0     C32579   4.433   6.450   6.655  0.4210 -0.1363  0.1948
  237MOL0     C32580   4.559   6.536   6.664 -0.1711 -0.6174 -0.4168
  237MOL0     C32581   4.583   6.616   6.530 -0.4092 -0.2251 -0.1682
  237MOL0     C32582   4.599   6.540   6.393  0.4829  0.3316 -1.0068
  237MOL0     C32583   4.672   6.633   6.300  0.3181  0.6648  0.6102
  237MOL0     C32584   4.663   6.580   6.157 -0.1697 -0.0559  1.0068
  237MOL0     N32585   4.710   6.661   6.045 -0.4525  0.5373 -0.0165
  237MOL0     C32586   4.847   6.687   6.022 -0.4808  0.3669 -0.1934
  237MOL0     C32587   4.838   6.799   5.934  0.1845 -0.0157 -0.6012
  237MOL0     C32588   4.952   6.889   5.885 -0.7362  0.4684 -0.6706
  237MOL0     C32589   4.984   7.016   5.978  0.0371  0.5296  0.5622
  237MOL0     C32590   4.877   7.126   5.980 -0.4417  0.6227  0.9683
  237MOL0     C32591   4.917   7.246   6.069 -0.5969 -0.5165  0.6479
  237MOL0     O32592   4.922   7.209   6.201  0.4075 -0.0397  0.0054
  237MOL0     C32593   5.022   7.255   6.280 -1.0553  0.9731  0.4332
  237MOL0     C32594   5.158   7.205   6.281 -0.4306  0.2605 -0.3865
  237MOL0     C32595   5.260   7.233   6.369 -0.0246 -0.7500  0.6009
  237MOL0     C32596   5.403   7.178   6.341 -1.0427  0.4737  0.0632
  237MOL0     C32597   5.226   7.326   6.472 -0.1717 -0.2424 -0.4298
  237MOL0     C32598   5.325   7.359   6.583 -0.1785 -0.3571 -0.0589
  237MOL0     O32599   5.447   7.308   6.578  0.5663  0.1603  0.0653
  237MOL0     C32600   5.531   7.356   6.684  0.4797 -0.2718 -0.2620
  237MOL0     C32601   5.603   7.471   6.655 -0.3357  0.4963  0.2705
  237MOL0     C32602   5.690   7.533   6.753 -0.5320  0.1916  0.3388
  237MOL0     C32603   5.718   7.472   6.873  0.4220  0.2175 -0.0021
  237MOL0     O32604   5.793   7.537   6.959  0.2757  0.0538 -0.4235
  237MOL0     C32605   5.828   7.476   7.082  0.1934  0.0337 -0.3267
  237MOL0     C32606   5.941   7.552   7.157 -0.7085  0.3666  0.1885
  237MOL0     C32607   5.888   7.668   7.238 -0.1616  0.4044 -0.1286
  237MOL0     C32608   6.006   7.750   7.300 -0.8869  0.2163  0.0439
  237MOL0     C32609   5.960   7.866   7.391  0.1113 -0.0147  0.2793
  237MOL0     C32610   6.073   7.882   7.494 -0.4993 -0.8718  0.1729
  237MOL0     C32611   6.045   8.008   7.575  0.9372  0.3462 -0.5167
  237MOL0     C32612   6.150   8.031   7.685 -0.3823  0.0085 -0.6746
  237MOL0    Cl32613   6.304   8.088   7.629  0.3196  0.0805 -0.6243
  237MOL0     C32614   5.651   7.347   6.891 -0.6869  1.0986  0.5488
  237MOL0     C32615   5.558   7.285   6.802 -0.4130  0.6099 -0.8306
  237MOL0     O32616   5.282   7.452   6.659 -1.6377  0.2456  0.8037
  237MOL0     C32617   5.096   7.379   6.472  0.3037  0.7589 -0.5583
  237MOL0     C32618   4.994   7.344   6.377  0.1590  0.6456 -0.2916
  237MOL0     N32619   4.708   6.823   5.906 -0.2606 -0.5144 -0.0283
  237MOL0     N32620   4.640   6.740   5.963  0.3363 -0.1768 -0.3127
  237MOL0     C32621   4.046   6.168   6.673 -0.2775 -0.3847  0.4625
  237MOL0     C32622   3.922   6.120   6.633  0.0164 -0.3695  0.8948
  237MOL0     C32623   3.454   6.095   6.661  0.2495 -0.2344 -0.6530
  237MOL0     C32624   3.393   5.971   6.707 -0.3428  0.2333 -0.0095
  237MOL0     C32625   3.266   5.934   6.650 -0.7426  0.8691  0.4501
  237MOL0     C32626   3.196   6.024   6.559  0.0991 -0.9627  0.6142
  237MOL0     O32627   3.073   6.012   6.501 -0.6013 -0.0815 -0.8955
  237MOL0     C32628   3.012   5.881   6.505  0.2720 -0.3240 -0.5421
  237MOL0     C32629   2.917   5.879   6.376  0.5156 -0.3532 -0.5379
  237MOL0     C32630   2.896   5.737   6.333 -0.5657 -0.0699 -0.5753
  237MOL0     C32631   2.757   5.722   6.271  0.0641 -0.7682  0.4292
  237MOL0     C32632   2.643   5.747   6.360  0.0057  0.5016 -0.2090
  237MOL0     C32633   2.549   5.768   6.425 -0.6691 -0.1029 -0.8883
  237MOL0     C32634   3.258   6.144   6.525 -0.4285 -0.2596 -0.2505
  237MOL0     C32635   3.383   6.181   6.573  0.1062  0.2479  0.3402
  237MOL0     C32636   3.438   6.308   6.508 -0.7697 -0.0054 -0.6775
  237MOL0     H32637   3.760   6.423   6.692  1.6963  2.0790  1.3293
  237MOL0     H32638   3.967   6.492   6.742 -4.2229  0.4156 -2.0839
  237MOL0     H32639   4.319   6.202   6.677  0.4744  1.2866 -1.4897
  237MOL0     H32640   4.260   6.215   6.846 -3.0904  1.2786 -0.1672
  237MOL0     H32641   4.404   6.431   6.862 -1.6379 -2.2914  1.7272
  237MOL0     H32642   4.505   6.300   6.784  0.1016 -0.0982 -1.2632
  237MOL0     H32643   4.453   6.392   6.565 -1.7930  4.4927 -3.7345
  237MOL0     H32644   4.349   6.516   6.631  0.7944 -0.3839 -1.9357
  237MOL0     H32645   4.540   6.606   6.745  0.3382 -0.4306 -0.4531
  237MOL0     H32646   4.649   6.476   6.682  0.4991  0.3375 -0.4983
  237MOL0     H32647   4.680   6.664   6.547 -1.3941  1.8550 -0.1195
  237MOL0     H32648   4.514   6.697   6.508  0.4616  1.1254  1.8538
  237MOL0     H32649   4.637   6.442   6.421 -2.5019 -0.8674 -0.7089
  237MOL0     H32650   4.504   6.510   6.347 -0.8600  2.3007  0.2774
  237MOL0     H32651   4.773   6.663   6.329  1.8559 -1.9208 -1.5954
  237MOL0     H32652   4.614   6.726   6.289 -0.2292  0.3788  1.0377
  237MOL0     H32653   4.728   6.492   6.155  1.2630  0.8046  3.8755
  237MOL0     H32654   4.565   6.540   6.129  0.8577 -2.1424  0.1959
  237MOL0     H32655   4.932   6.642   6.073  0.0542  2.4960  0.9377
  237MOL0     H32656   4.918   6.933   5.791 -0.0972  1.8791 -0.2671
  237MOL0     H32657   5.041   6.831   5.862 -0.4615  0.3452  0.6091
  237MOL0     H32658   4.986   6.987   6.083 -1.2863 -1.9004 -0.0164
  237MOL0     H32659   5.080   7.055   5.941  0.0029 -0.7122 -0.9495
  237MOL0     H32660   4.845   7.150   5.878  0.1409  1.0944  0.8948
  237MOL0     H32661   4.790   7.089   6.035  0.5939  0.2445  2.4048
  237MOL0     H32662   5.009   7.296   6.037  0.8193 -2.4241  1.5372
  237MOL0     H32663   4.830   7.310   6.049  0.3093  0.6333  0.2863
  237MOL0     H32664   5.183   7.138   6.198 -0.2819  1.4001 -1.2899
  237MOL0     H32665   5.403   7.145   6.237 -1.5097 -0.6218  0.3937
  237MOL0     H32666   5.422   7.095   6.410 -3.3938 -0.8682 -0.7897
  237MOL0     H32667   5.487   7.248   6.344  0.6697 -1.1905 -3.4655
  237MOL0     H32668   5.573   7.516   6.561  1.4437  2.3835  0.5513
  237MOL0     H32669   5.743   7.625   6.732  1.0024 -0.9835 -1.2277
  237MOL0     H32670   5.736   7.477   7.141  0.2212 -2.2717 -0.1754
  237MOL0     H32671   5.859   7.372   7.081  0.8380  0.1124  2.4907
  237MOL0     H32672   6.000   7.475   7.208 -0.0367 -1.1204 -2.6105
  237MOL0     H32673   6.010   7.594   7.083  0.4336  0.4495  1.2632
  237MOL0     H32674   5.826   7.624   7.316  1.8938 -2.4848  0.0196
  237MOL0     H32675   5.833   7.731   7.167 -0.8120  0.0869  0.0897
  237MOL0     H32676   6.056   7.793   7.213 -2.9945 -0.2577 -1.4758
  237MOL0     H32677   6.078   7.683   7.350 -1.3418 -2.1317 -2.2268
  237MOL0     H32678   5.945   7.960   7.336  0.9760 -0.2976 -0.4787
  237MOL0     H32679   5.862   7.857   7.437 -2.6920  1.7331 -4.6140
  237MOL0     H32680   6.163   7.903   7.436 -1.7886 -0.2484 -1.7112
  237MOL0     H32681   6.079   7.795   7.560 -2.6162 -1.3083 -0.1182
  237MOL0     H32682   5.946   7.985   7.616  2.2438 -1.8814  1.6651
  237MOL0     H32683   6.035   8.092   7.506  1.0032 -0.4725 -1.5475
  237MOL0     H32684   6.157   7.950   7.758 -1.5059  1.1701  0.7782
  237MOL0     H32685   6.114   8.116   7.744 -0.3603  1.1025 -2.1841
  237MOL0     H32686   5.673   7.288   6.979 -0.3145 -2.2342 -1.5846
  237MOL0     H32687   5.512   7.189   6.820  1.8321 -0.2372  0.8408
  237MOL0     H32688   5.068   7.449   6.550  1.0116 -0.3112  0.7006
  237MOL0     H32689   4.894   7.386   6.389  0.3737  0.8313  1.0895
  237MOL0     H32690   4.129   6.099   6.676  1.7849  1.9566  0.0997
  237MOL0     H32691   3.909   6.018   6.597  2.8368  0.3395 -2.6445
  237MOL0     H32692   3.445   5.894   6.763 -3.7208 -0.9744  1.7265
  237MOL0     H32693   3.229   5.839   6.687 -0.0657  0.7204  0.7535
  237MOL0     H32694   3.096   5.814   6.484  1.4037  0.9382 -0.1900
  237MOL0     H32695   2.969   5.866   6.604  3.0745  1.4662  1.1017
  237MOL0     H32696   2.956   5.942   6.296  0.6325  0.1117 -0.1185
  237MOL0     H32697   2.821   5.925   6.400  0.6473 -0.5487  0.4171
  237MOL0     H32698   2.978   5.705   6.268  0.2010  0.7937 -0.0552
  237MOL0     H32699   2.901   5.674   6.422  1.6707  0.5131 -0.2406
  237MOL0     H32700   2.728   5.630   6.219 -1.4801  0.6877 -1.4445
  237MOL0     H32701   2.745   5.798   6.194  0.5319 -0.7001  0.4187
  237MOL0     H32702   2.466   5.802   6.483  1.8450  2.3024  1.5930
  237MOL0     H32703   3.203   6.205   6.455 -1.6201  0.2551  1.0858
  237MOL0     H32704   3.359   6.342   6.440 -2.4412 -2.4356 -0.0646
  237MOL0     H32705   3.469   6.375   6.589 -1.7784 -1.5877  1.0867
  237MOL0     H32706   3.525   6.296   6.442 -0.5037  1.7785 -0.7167
  238MOL0     O32707   9.383  10.043   1.976  0.6295 -0.2649 -0.1627
  238MOL0     C32708   9.402   9.925   2.006  0.1012  0.3414 -0.5945
  238MOL0     O32709   9.521   9.858   1.981 -0.2737 -0.4578 -0.4148
  238MOL0     C32710   9.628   9.925   1.933  0.0581 -0.8673  0.0118
  238MOL0     C32711   9.713   9.841   1.848  0.6560 -0.4627  0.3476
  238MOL0     C32712   9.818   9.901   1.782  0.4995  0.1257  0.8708
  238MOL0     C32713   9.855  10.038   1.797 -0.7949  0.2049  0.7674
  238MOL0     O32714   9.968  10.095   1.734  0.6241 -0.3026 -0.1391
  238MOL0     C32715  10.024  10.036   1.620 -0.6143  0.3277  0.1443
  238MOL0     C32716  10.108  10.133   1.543 -0.9338 -0.5844  1.0094
  238MOL0     C32717  10.228  10.063   1.487  0.4489  0.2047  0.6643
  238MOL0     C32718  10.318  10.167   1.415  0.5706 -0.9498  0.1763
  238MOL0     C32719  10.458  10.119   1.366 -0.1307  0.2773  0.7473
  238MOL0     C32720  10.561  10.238   1.383  0.2499 -0.8425  0.6819
  238MOL0     C32721  10.697  10.235   1.320  0.4628  0.9212  1.0057
  238MOL0     C32722  10.791  10.150   1.396  0.1603 -0.4579  0.2872
  238MOL0     N32723  10.933  10.177   1.345  0.4113 -0.2220  0.2795
  238MOL0     C32724  11.039  10.221   1.416  0.6240 -0.0310  0.1485
  238MOL0     C32725  11.142  10.227   1.334 -0.2176 -0.1444 -0.2284
  238MOL0     C32726  11.289  10.251   1.364  0.4468 -0.4742 -0.3284
  238MOL0     C32727  11.371  10.345   1.267  0.3203  0.1440  0.0315
  238MOL0     C32728  11.297  10.479   1.218  0.5096  0.8695 -0.1480
  238MOL0     C32729  11.395  10.580   1.154 -0.0619  0.5544 -1.0565
  238MOL0     O32730  11.319  10.677   1.090 -0.8604 -0.5895 -0.1805
  238MOL0     C32731  11.387  10.744   0.992  0.0103  0.4493  0.3347
  238MOL0     C32732  11.535  10.748   0.985 -0.7818  0.1474  0.5319
  238MOL0     C32733  11.604  10.840   0.904 -0.1109  0.2394 -0.3876
  238MOL0     C32734  11.747  10.863   0.933 -0.9255 -0.1554  0.0309
  238MOL0     C32735  11.532  10.908   0.800  0.6154  0.6105 -0.4293
  238MOL0     C32736  11.594  11.005   0.702 -0.4382  0.6719 -0.6586
  238MOL0     O32737  11.547  11.006   0.575 -0.3231 -0.2778  0.6530
  238MOL0     C32738  11.572  11.107   0.485 -0.1926  0.2103 -0.0367
  238MOL0     C32739  11.568  11.242   0.512  0.4638 -0.0230 -0.4692
  238MOL0     C32740  11.566  11.337   0.403 -0.2963 -0.6104 -0.5477
  238MOL0     C32741  11.574  11.294   0.268  1.2418  1.0262 -0.3532
  238MOL0     O32742  11.560  11.381   0.163  0.3707 -0.1449 -0.2541
  238MOL0     C32743  11.601  11.521   0.171  1.0819  0.1172 -0.2960
  238MOL0     C32744  11.579  11.579   0.031 -0.4113  0.7788 -0.3825
  238MOL0     C32745  11.627  11.487  -0.079 -0.6268 -0.1864  0.1396
  238MOL0     C32746  11.775  11.495  -0.100 -0.2238  0.8041  0.4140
  238MOL0     C32747  11.844  11.371  -0.026  0.7935 -0.1145  0.0995
  238MOL0     C32748  11.989  11.352  -0.070 -1.1647  0.3136 -0.4160
  238MOL0     C32749  12.063  11.228   0.008  0.6144 -0.0145  1.3081
  238MOL0     C32750  12.193  11.220  -0.062 -0.6308 -0.1358  0.2497
  238MOL0    Cl32751  12.296  11.110   0.027  0.3428  0.0375  0.1373
  238MOL0     C32752  11.578  11.155   0.240 -0.3627  0.7485  0.2568
  238MOL0     C32753  11.575  11.068   0.351 -0.2015 -0.2671  0.2471
  238MOL0     O32754  11.693  11.062   0.737  0.2390 -0.8116  0.1355
  238MOL0     C32755  11.388  10.892   0.803 -0.4963 -0.4714  0.6280
  238MOL0     C32756  11.323  10.819   0.901 -0.5189 -0.5638 -0.7620
  238MOL0     N32757  11.101  10.188   1.205  0.6272  0.0052 -0.6096
  238MOL0     N32758  10.972  10.173   1.211 -0.4364  0.1747 -0.0033
  238MOL0     C32759   9.772  10.121   1.880  0.5613 -0.0437 -0.2480
  238MOL0     C32760   9.661  10.061   1.953 -0.4297  0.9719 -0.5616
  238MOL0     C32761   9.297   9.839   2.062 -0.0779  0.1308 -0.3530
  238MOL0     C32762   9.272   9.717   2.003 -0.8106 -0.2287 -0.2745
  238MOL0     C32763   9.199   9.617   2.067  0.2322 -0.6291  0.2431
  238MOL0     C32764   9.139   9.639   2.189  0.1808 -0.4226 -0.4049
  238MOL0     O32765   9.074   9.540   2.252 -0.1740 -0.2301  0.0205
  238MOL0     C32766   8.932   9.534   2.214  0.0886  0.2568 -0.1849
  238MOL0     C32767   8.854   9.614   2.321  0.3956  0.3956  0.1563
  238MOL0     C32768   8.711   9.665   2.270  0.4010 -1.2563 -0.4180
  238MOL0     C32769   8.626   9.694   2.387  0.2373  0.1544  0.2166
  238MOL0     C32770   8.492   9.723   2.350 -0.2938 -0.8531  0.6433
  238MOL0     C32771   8.381   9.775   2.325 -0.9838  0.3524 -0.2848
  238MOL0     C32772   9.153   9.767   2.244 -0.5866  0.6154 -0.5262
  238MOL0     C32773   9.223   9.866   2.186 -1.1100 -0.2085  0.5103
  238MOL0     C32774   9.233  10.012   2.239 -0.5344 -0.7555 -0.0549
  238MOL0     H32775   9.688   9.737   1.829  0.9789 -0.9185  2.2048
  238MOL0     H32776   9.881   9.836   1.723  1.4359  3.0886 -1.6806
  238MOL0     H32777   9.949  10.013   1.544 -0.3515  0.5920 -0.1981
  238MOL0     H32778  10.080   9.946   1.648 -0.4786  1.1709  2.7957
  238MOL0     H32779  10.045  10.170   1.461  1.0156  0.5876 -0.0297
  238MOL0     H32780  10.144  10.216   1.604 -2.0111 -0.1128  1.0252
  238MOL0     H32781  10.292  10.016   1.562  4.1400 -0.0723 -2.3492
  238MOL0     H32782  10.196   9.990   1.411 -2.4456  0.5792  1.3960
  238MOL0     H32783  10.266  10.201   1.325  1.6737  0.6555  0.0906
  238MOL0     H32784  10.337  10.245   1.489  1.4304 -0.4505 -0.5415
  238MOL0     H32785  10.447  10.082   1.264 -4.5476  2.1556  0.2901
  238MOL0     H32786  10.497  10.038   1.427 -1.7219  0.5464  2.2237
  238MOL0     H32787  10.519  10.327   1.334  2.3950 -0.3692 -0.4275
  238MOL0     H32788  10.582  10.270   1.485  1.7364  1.9408 -0.3747
  238MOL0     H32789  10.730  10.339   1.306 -0.0087  0.8619 -0.7215
  238MOL0     H32790  10.681  10.192   1.221  0.2943  1.9486  0.5731
  238MOL0     H32791  10.792  10.174   1.503 -3.4397 -3.0539  1.0918
  238MOL0     H32792  10.763  10.044   1.404  3.1413 -1.2368  1.4288
  238MOL0     H32793  11.032  10.234   1.524 -1.2442 -2.3279  0.3797
  238MOL0     H32794  11.342  10.156   1.367 -2.3602 -2.1409  1.2035
  238MOL0     H32795  11.296  10.294   1.464  0.6514  3.2637 -1.8063
  238MOL0     H32796  11.470  10.369   1.308  0.2310  0.8091 -0.1320
  238MOL0     H32797  11.390  10.290   1.174 -0.9771 -0.4080  0.0744
  238MOL0     H32798  11.207  10.467   1.157  0.7225 -0.2905 -0.2538
  238MOL0     H32799  11.250  10.515   1.310 -0.6121 -1.2124  0.1510
  238MOL0     H32800  11.454  10.616   1.238 -0.4672 -3.1569  1.0002
  238MOL0     H32801  11.465  10.537   1.082  0.8515  0.4020 -0.0883
  238MOL0     H32802  11.595  10.710   1.067  0.7992  0.2963 -0.5228
  238MOL0     H32803  11.816  10.828   0.856  1.9687 -2.1425  3.2451
  238MOL0     H32804  11.787  10.808   1.019  0.9246  0.0733 -0.6324
  238MOL0     H32805  11.762  10.966   0.966 -1.5842 -0.2569  0.6707
  238MOL0     H32806  11.545  11.277   0.612 -3.0956 -0.2026 -1.1020
  238MOL0     H32807  11.546  11.442   0.424  0.6192  0.5427 -4.4730
  238MOL0     H32808  11.542  11.574   0.246  1.5419  0.5949 -0.2712
  238MOL0     H32809  11.705  11.516   0.203  1.2529 -0.9412 -0.9427
  238MOL0     H32810  11.471  11.591   0.014 -0.6207 -0.4935 -0.0359
  238MOL0     H32811  11.628  11.677   0.027  2.0882 -0.0671  3.5350
  238MOL0     H32812  11.585  11.527  -0.172  2.1232  1.4474 -0.5088
  238MOL0     H32813  11.598  11.382  -0.064 -2.3233  0.1554 -0.4626
  238MOL0     H32814  11.825  11.590  -0.080  2.8886 -1.1645  2.9087
  238MOL0     H32815  11.788  11.486  -0.208 -0.0637  2.9230  0.2204
  238MOL0     H32816  11.829  11.391   0.080  0.3064  0.5768 -0.0914
  238MOL0     H32817  11.789  11.280  -0.053 -1.2650  1.4470 -1.3510
  238MOL0     H32818  12.044  11.439  -0.034  1.1486 -0.4521 -1.8594
  238MOL0     H32819  11.999  11.350  -0.179 -1.7270 -2.6624 -0.5221
  238MOL0     H32820  12.006  11.136  -0.009 -1.2787  1.3789 -0.5286
  238MOL0     H32821  12.073  11.247   0.115 -2.3090 -3.0133  2.2782
  238MOL0     H32822  12.242  11.317  -0.077 -0.0428 -0.4968 -0.2027
  238MOL0     H32823  12.171  11.179  -0.161 -0.3520  1.2025 -0.4053
  238MOL0     H32824  11.585  11.131   0.135  0.1345  1.3939  0.1392
  238MOL0     H32825  11.556  10.965   0.321  3.3630 -1.1202  0.4775
  238MOL0     H32826  11.324  10.941   0.730  2.2844 -0.5943 -2.1002
  238MOL0     H32827  11.215  10.822   0.912 -0.6868  0.9413 -2.3625
  238MOL0     H32828   9.812  10.222   1.888  2.9408 -0.7963 -1.4974
  238MOL0     H32829   9.604  10.124   2.020 -1.6759 -0.8522  0.1699
  238MOL0     H32830   9.327   9.678   1.918  1.3889  3.5995 -0.8670
  238MOL0     H32831   9.199   9.527   2.006  0.3861  1.0164 -2.3486
  238MOL0     H32832   8.929   9.571   2.111  3.6633 -1.8183 -1.2390
  238MOL0     H32833   8.904   9.428   2.209  0.4729  0.0833  0.9503
  238MOL0     H32834   8.901   9.712   2.332 -0.7875  1.4268 -2.8205
  238MOL0     H32835   8.844   9.555   2.412  1.9971 -0.2076 -0.0127
  238MOL0     H32836   8.717   9.754   2.207 -0.0641  0.1241  1.4235
  238MOL0     H32837   8.668   9.591   2.201 -1.1340 -0.4604 -0.3721
  238MOL0     H32838   8.673   9.777   2.441  1.5447 -1.8653  2.4088
  238MOL0     H32839   8.626   9.605   2.451 -0.0058  0.2336  0.3268
  238MOL0     H32840   8.287   9.812   2.289  0.2942  2.7256 -1.3566
  238MOL0     H32841   9.104   9.783   2.339  0.4485  1.3885 -0.1010
  238MOL0     H32842   9.330  10.032   2.286  0.1002 -0.7370 -1.3161
  238MOL0     H32843   9.204  10.075   2.155 -1.4715  0.1015  0.8858
  238MOL0     H32844   9.170  10.036   2.325 -0.4821  1.9542 -0.6999
  239MOL0     O32845   0.699  11.494   5.662 -0.1447  0.2281 -0.4770
  239MOL0     C32846   0.754  11.463   5.556 -0.2499 -0.1554  0.0124
  239MOL0     O32847   0.693  11.406   5.449 -0.1828 -0.6909  0.0373
  239MOL0     C32848   0.557  11.392   5.457  0.0639 -0.9228  0.9018
  239MOL0     C32849   0.498  11.326   5.558  0.2970  0.7069  0.6643
  239MOL0     C32850   0.358  11.339   5.577  1.3409  1.2007 -0.5102
  239MOL0     C32851   0.276  11.397   5.482  1.0454 -0.2861 -0.6841
  239MOL0     O32852   0.139  11.391   5.506 -0.2508  0.3913 -0.1368
  239MOL0     C32853   0.050  11.481   5.428  0.3707  0.3670 -0.1651
  239MOL0     C32854  -0.082  11.476   5.504  1.3147  0.6678 -0.2130
  239MOL0     C32855  -0.195  11.547   5.413  0.7232 -0.3386  0.4483
  239MOL0     C32856  -0.333  11.545   5.470 -0.4297 -0.9367 -0.1761
  239MOL0     C32857  -0.432  11.615   5.370 -0.7397 -0.2939 -0.0625
  239MOL0     C32858  -0.565  11.625   5.433 -1.1993  0.4032 -0.5532
  239MOL0     C32859  -0.620  11.496   5.479 -0.2880  0.1951 -0.0215
  239MOL0     C32860  -0.623  11.379   5.386 -0.4448 -0.3159  0.3728
  239MOL0     N32861  -0.722  11.396   5.274 -0.4051  0.8238 -0.8212
  239MOL0     C32862  -0.709  11.334   5.150  0.2666  0.0707 -0.5900
  239MOL0     C32863  -0.824  11.348   5.088 -1.1008 -0.9318  0.3799
  239MOL0     C32864  -0.870  11.295   4.958 -0.4721  0.4896 -0.7776
  239MOL0     C32865  -0.768  11.331   4.856 -0.5031 -0.2718 -1.0673
  239MOL0     C32866  -0.792  11.265   4.718  0.2450  0.1288 -0.0196
  239MOL0     C32867  -0.696  11.315   4.607 -0.2269  0.4881 -0.3686
  239MOL0     O32868  -0.760  11.422   4.542  0.1095 -0.6980 -0.8199
  239MOL0     C32869  -0.692  11.499   4.449  0.4914  1.5491  0.8931
  239MOL0     C32870  -0.581  11.456   4.381 -0.2504 -0.0077  0.0758
  239MOL0     C32871  -0.486  11.530   4.309  0.2205  0.4011 -1.0074
  239MOL0     C32872  -0.362  11.465   4.263  0.3783  0.1468  0.5274
  239MOL0     C32873  -0.523  11.664   4.295 -1.2934 -0.0268 -0.2526
  239MOL0     C32874  -0.443  11.764   4.219 -0.8855 -0.5378 -1.0089
  239MOL0     O32875  -0.471  11.899   4.237  0.1646 -0.6039 -0.2952
  239MOL0     C32876  -0.399  12.008   4.191  0.5858 -0.4359  0.8389
  239MOL0     C32877  -0.455  12.135   4.212 -0.5755  0.6565 -0.7792
  239MOL0     C32878  -0.395  12.250   4.165  1.5887  0.0007  0.4968
  239MOL0     C32879  -0.273  12.244   4.108  0.2531  0.1188 -0.6570
  239MOL0     O32880  -0.219  12.362   4.062 -0.1834 -0.4652  0.0120
  239MOL0     C32881  -0.150  12.354   3.932  0.5580 -0.3638 -0.5692
  239MOL0     C32882  -0.252  12.394   3.816 -0.5041  0.3245  0.1198
  239MOL0     C32883  -0.372  12.302   3.808 -0.7452  0.2543 -0.0298
  239MOL0     C32884  -0.437  12.335   3.665  0.6445 -0.9220 -0.4101
  239MOL0     C32885  -0.359  12.262   3.556  0.5497  0.6131 -0.1310
  239MOL0     C32886  -0.453  12.259   3.433 -0.3940  0.1862  0.7644
  239MOL0     C32887  -0.384  12.179   3.312  0.0961 -0.4678 -0.0456
  239MOL0     C32888  -0.458  12.043   3.283 -0.2764  0.5676 -0.4918
  239MOL0    Cl32889  -0.395  12.008   3.130 -0.1120  0.1601  0.1104
  239MOL0     C32890  -0.201  12.125   4.111 -0.3517  0.5925  1.1692
  239MOL0     C32891  -0.264  12.004   4.146  0.3028 -0.0245 -0.4490
  239MOL0     O32892  -0.365  11.716   4.135 -0.1007 -0.2887  0.1804
  239MOL0     C32893  -0.643  11.712   4.343  1.4174  0.2336 -1.0958
  239MOL0     C32894  -0.726  11.629   4.426 -0.3646 -0.3520  0.0571
  239MOL0     N32895  -0.905  11.435   5.166 -0.4371  0.0180 -0.2865
  239MOL0     N32896  -0.840  11.468   5.270 -0.2807  0.9447 -0.6366
  239MOL0     C32897   0.347  11.455   5.368 -0.0356 -0.3152  1.0585
  239MOL0     C32898   0.482  11.452   5.356 -0.5703  0.3801 -0.5089
  239MOL0     C32899   0.900  11.489   5.562 -0.0067 -1.0127 -0.4709
  239MOL0     C32900   0.965  11.482   5.690  0.5476 -0.1305  0.0832
  239MOL0     C32901   1.107  11.499   5.693  0.1762  1.2886 -0.9939
  239MOL0     C32902   1.192  11.516   5.581 -0.4514 -0.3934  0.3689
  239MOL0     O32903   1.326  11.515   5.590 -0.7998  0.1325 -0.2652
  239MOL0     C32904   1.392  11.443   5.699  0.4025 -1.2782 -0.7875
  239MOL0     C32905   1.400  11.523   5.832  0.7241  0.4201  0.0790
  239MOL0     C32906   1.355  11.463   5.965  0.0060 -0.6877  0.3551
  239MOL0     C32907   1.318  11.564   6.074  0.4905 -0.0936 -0.1304
  239MOL0     C32908   1.439  11.621   6.144  0.9708  0.7748  0.2866
  239MOL0     C32909   1.531  11.669   6.203 -0.2237  0.4586  0.5078
  239MOL0     C32910   1.123  11.528   5.457  0.3462  0.2635 -0.0782
  239MOL0     C32911   0.981  11.516   5.451 -0.4456 -0.3756  0.1044
  239MOL0     C32912   0.925  11.531   5.311  0.2063 -0.3721 -1.0053
  239MOL0     H32913   0.548  11.267   5.634 -1.8076 -1.3080  0.6098
  239MOL0     H32914   0.301  11.299   5.659 -1.1686  2.6708 -1.4254
  239MOL0     H32915   0.043  11.447   5.324 -0.6191 -0.8993  0.2934
  239MOL0     H32916   0.080  11.587   5.422  1.1059  0.1886  0.2060
  239MOL0     H32917  -0.113  11.373   5.518 -0.0852  1.3487  2.3660
  239MOL0     H32918  -0.078  11.518   5.605  2.2627 -0.2046  0.1203
  239MOL0     H32919  -0.167  11.653   5.407 -1.4777  0.3264  0.8231
  239MOL0     H32920  -0.199  11.504   5.313  0.4970 -1.4209  0.9130
  239MOL0     H32921  -0.354  11.439   5.488  3.0059 -1.5333  1.1507
  239MOL0     H32922  -0.323  11.598   5.565  0.1819 -0.0872 -0.6936
  239MOL0     H32923  -0.444  11.561   5.276 -1.8448 -0.9354  0.4242
  239MOL0     H32924  -0.398  11.717   5.355  3.3739 -1.3600  0.7730
  239MOL0     H32925  -0.550  11.694   5.518  1.0814  1.0291 -1.3921
  239MOL0     H32926  -0.633  11.678   5.367 -2.4321  1.2338  1.2817
  239MOL0     H32927  -0.726  11.520   5.492 -0.5766  0.2515 -2.1572
  239MOL0     H32928  -0.580  11.455   5.572 -2.3981 -0.9275  0.4590
  239MOL0     H32929  -0.519  11.363   5.355 -0.3142 -0.0314  0.6606
  239MOL0     H32930  -0.647  11.284   5.434  1.7158 -0.4721  1.2925
  239MOL0     H32931  -0.624  11.277   5.114  1.2583  1.8080 -1.1088
  239MOL0     H32932  -0.971  11.326   4.930 -0.1913  0.6404 -1.6647
  239MOL0     H32933  -0.872  11.187   4.977  0.8273  0.6308  0.3528
  239MOL0     H32934  -0.788  11.438   4.851 -0.4833 -0.2390 -0.5028
  239MOL0     H32935  -0.667  11.307   4.890 -1.1998 -3.4741 -0.8828
  239MOL0     H32936  -0.786  11.156   4.712 -0.5864  0.0621  0.1949
  239MOL0     H32937  -0.891  11.298   4.683  1.7422  1.5089 -3.3851
  239MOL0     H32938  -0.595  11.340   4.640  0.5306 -0.7519 -1.6150
  239MOL0     H32939  -0.679  11.228   4.543  1.7557 -0.1637  0.9365
  239MOL0     H32940  -0.556  11.352   4.401 -1.0916 -0.1362  0.5066
  239MOL0     H32941  -0.265  11.513   4.275 -0.8480  2.7811  0.5329
  239MOL0     H32942  -0.362  11.460   4.154  1.9522  2.1604  0.3822
  239MOL0     H32943  -0.370  11.366   4.309 -5.0725  0.9458  2.0281
  239MOL0     H32944  -0.550  12.137   4.266 -1.0138 -0.7837 -1.4552
  239MOL0     H32945  -0.439  12.348   4.180  1.9960  0.2672 -0.0505
  239MOL0     H32946  -0.073  12.431   3.933 -1.2304  1.5222 -0.3553
  239MOL0     H32947  -0.111  12.254   3.912 -3.2443 -2.1627 -0.0326
  239MOL0     H32948  -0.283  12.492   3.852 -1.2279 -0.2330  1.0650
  239MOL0     H32949  -0.187  12.395   3.728 -0.5577 -0.3535  0.0675
  239MOL0     H32950  -0.436  12.315   3.896 -2.2503  0.5514 -1.1147
  239MOL0     H32951  -0.344  12.197   3.813 -1.3428  0.0229 -1.1604
  239MOL0     H32952  -0.436  12.443   3.651 -3.6535 -1.1180 -6.6854
  239MOL0     H32953  -0.542  12.304   3.669  1.3240 -3.3062  1.4367
  239MOL0     H32954  -0.267  12.321   3.545  1.3582  0.2490  3.4234
  239MOL0     H32955  -0.343  12.158   3.586  1.6288  0.5826 -0.7557
  239MOL0     H32956  -0.467  12.364   3.407 -2.2871 -0.1462  0.3221
  239MOL0     H32957  -0.545  12.211   3.467  0.1361 -1.4279  0.0476
  239MOL0     H32958  -0.280  12.169   3.344  0.3931  0.8977 -0.5387
  239MOL0     H32959  -0.371  12.250   3.230 -2.4454  4.0790  3.0932
  239MOL0     H32960  -0.565  12.062   3.286  0.0241  2.3861  2.1614
  239MOL0     H32961  -0.423  11.970   3.357  1.6342  0.5916 -1.2943
  239MOL0     H32962  -0.095  12.125   4.086 -0.8429 -0.0155 -1.1599
  239MOL0     H32963  -0.207  11.912   4.149  1.1414  0.4942  1.2120
  239MOL0     H32964  -0.669  11.817   4.338  1.5167  0.4984  2.1020
  239MOL0     H32965  -0.811  11.675   4.475 -0.6891 -0.4916 -0.3712
  239MOL0     H32966   0.296  11.504   5.286 -1.9112 -3.6009  0.0727
  239MOL0     H32967   0.528  11.511   5.277 -1.2207  2.0277  0.2751
  239MOL0     H32968   0.903  11.470   5.779  0.1344 -1.1242 -0.3248
  239MOL0     H32969   1.151  11.507   5.792 -2.7999  3.4997  0.3126
  239MOL0     H32970   1.338  11.352   5.727  0.8996 -1.1396  0.6948
  239MOL0     H32971   1.494  11.414   5.672  1.4650  1.0870  0.4520
  239MOL0     H32972   1.344  11.614   5.810 -2.7820 -2.2889 -3.8009
  239MOL0     H32973   1.507  11.544   5.838  1.1020 -1.4754  0.6374
  239MOL0     H32974   1.264  11.407   5.943 -1.7460  1.8182  0.8254
  239MOL0     H32975   1.428  11.387   5.995  0.8661 -0.2341 -0.5351
  239MOL0     H32976   1.262  11.510   6.151 -0.1198  0.7941  0.0596
  239MOL0     H32977   1.257  11.644   6.031  1.3290  1.4466  1.3779
  239MOL0     H32978   1.606  11.707   6.269  1.5486 -0.2066 -1.0283
  239MOL0     H32979   1.183  11.552   5.370 -1.7364  2.9950 -0.9062
  239MOL0     H32980   0.842  11.602   5.306 -0.3625 -1.0218 -0.8846
  239MOL0     H32981   1.003  11.554   5.238 -0.3352 -0.1615 -1.5293
  239MOL0     H32982   0.885  11.429   5.307 -1.3862 -0.1093  3.1415
  240MOL0     O32983   2.472   5.040   0.793 -0.6127  0.3319 -0.3367
  240MOL0     C32984   2.581   5.099   0.814  0.3761 -0.4111 -0.1102
  240MOL0     O32985   2.691   5.097   0.731  0.7517  0.5925 -1.1482
  240MOL0     C32986   2.694   5.039   0.612 -0.5587  0.5312  0.1498
  240MOL0     C32987   2.821   4.994   0.570  0.8136 -0.6011  0.4071
  240MOL0     C32988   2.830   4.936   0.447  0.2093  0.4539  0.4931
  240MOL0     C32989   2.719   4.913   0.364  0.6877  0.3949  0.2853
  240MOL0     O32990   2.742   4.858   0.249 -0.2811 -0.4062 -0.1223
  240MOL0     C32991   2.635   4.787   0.187  0.0522  1.2633 -0.0293
  240MOL0     C32992   2.681   4.766   0.051  0.5721 -0.3938 -0.0743
  240MOL0     C32993   2.567   4.695  -0.030 -0.3899 -0.1249 -0.0421
  240MOL0     C32994   2.523   4.776  -0.147  0.6955 -0.0881 -1.1795
  240MOL0     C32995   2.404   4.691  -0.201 -0.4532 -0.0403 -1.2184
  240MOL0     C32996   2.259   4.729  -0.155 -0.3584  0.1078 -0.3965
  240MOL0     C32997   2.156   4.657  -0.227  0.4577 -0.4084 -1.1661
  240MOL0     C32998   2.019   4.721  -0.217  0.4338 -0.4068  0.6478
  240MOL0     N32999   1.904   4.626  -0.219 -0.5333  0.1786  0.0747
  240MOL0     C33000   1.823   4.612  -0.323 -0.2467  0.4380 -0.1738
  240MOL0     C33001   1.726   4.527  -0.292  0.6099  0.1422  0.3430
  240MOL0     C33002   1.599   4.494  -0.358 -0.2389  0.6434  0.6654
  240MOL0     C33003   1.465   4.511  -0.283 -0.8607  1.0082  0.4989
  240MOL0     C33004   1.335   4.478  -0.365  0.0253 -0.0968 -0.1341
  240MOL0     C33005   1.331   4.361  -0.467 -0.3587  0.7412 -0.0752
  240MOL0     O33006   1.390   4.243  -0.405 -0.0718 -0.4313 -0.0489
  240MOL0     C33007   1.323   4.167  -0.310  0.1647 -0.5110 -0.3919
  240MOL0     C33008   1.189   4.186  -0.273 -1.0889  0.2780  0.5338
  240MOL0     C33009   1.141   4.127  -0.155  0.3645  0.4739 -0.5746
  240MOL0     C33010   1.003   4.165  -0.108 -0.3808  0.1488 -0.1554
  240MOL0     C33011   1.221   4.025  -0.092  0.3280  0.3331 -0.1634
  240MOL0     C33012   1.165   3.928   0.013 -0.3704  1.4640  0.7959
  240MOL0     O33013   1.195   3.795  -0.005 -0.4758  0.5271 -0.1050
  240MOL0     C33014   1.151   3.703   0.080 -0.6479  0.1907  0.4343
  240MOL0     C33015   1.243   3.612   0.136 -0.0471  0.1670 -0.2971
  240MOL0     C33016   1.212   3.508   0.221  0.1923 -0.6060 -0.0295
  240MOL0     C33017   1.078   3.487   0.238 -0.3399  0.2234 -0.3904
  240MOL0     O33018   1.043   3.374   0.294  0.1213  0.3682 -0.6263
  240MOL0     C33019   1.091   3.264   0.223  0.4636 -1.3857 -0.7873
  240MOL0     C33020   1.027   3.141   0.292  0.2635  0.3431  0.0921
  240MOL0     C33021   1.107   3.014   0.274 -0.2279  0.1963 -0.5877
  240MOL0     C33022   1.090   2.918   0.395  0.2682 -0.2185 -0.6537
  240MOL0     C33023   1.166   2.793   0.392 -0.0075  1.0730  0.8308
  240MOL0     C33024   1.144   2.701   0.511 -0.2772  0.3671  0.0144
  240MOL0     C33025   1.246   2.581   0.531 -0.1124 -0.3057 -0.8453
  240MOL0     C33026   1.220   2.504   0.673  0.4202  0.6251 -0.6638
  240MOL0    Cl33027   1.059   2.427   0.671  0.1679 -0.0199 -0.2016
  240MOL0     C33028   0.976   3.559   0.177 -0.0408  0.3075  0.0831
  240MOL0     C33029   1.016   3.666   0.094  0.2860 -0.1531  0.0658
  240MOL0     O33030   1.099   3.978   0.110  0.3129  0.9398 -0.3043
  240MOL0     C33031   1.344   3.992  -0.151 -0.0401 -0.3795  0.8003
  240MOL0     C33032   1.407   4.081  -0.239  0.0195 -0.6383  0.7626
  240MOL0     N33033   1.742   4.500  -0.156 -0.1025  0.3151  0.0407
  240MOL0     N33034   1.853   4.549  -0.120  1.0315  0.1501  0.0289
  240MOL0     C33035   2.600   4.976   0.400 -0.4692 -0.4172  0.7328
  240MOL0     C33036   2.595   5.045   0.521  0.8812 -0.2947  0.1468
  240MOL0     C33037   2.577   5.193   0.927  0.7104  0.1494  0.2151
  240MOL0     C33038   2.462   5.194   1.006 -0.2421  0.3197 -0.4304
  240MOL0     C33039   2.440   5.285   1.111  0.2224  1.1132  0.4635
  240MOL0     C33040   2.540   5.381   1.137  0.0071  0.0725  0.1574
  240MOL0     O33041   2.512   5.468   1.247  1.1455  0.1978 -0.7046
  240MOL0     C33042   2.628   5.521   1.310 -0.4634  0.1941 -0.0349
  240MOL0     C33043   2.615   5.593   1.442 -0.8995  0.2997  0.0267
  240MOL0     C33044   2.563   5.740   1.434  0.0633  0.6190  0.0378
  240MOL0     C33045   2.414   5.750   1.386  0.0663  0.7253 -0.3026
  240MOL0     C33046   2.318   5.663   1.453 -1.0925 -0.4308 -0.4813
  240MOL0     C33047   2.248   5.572   1.498 -0.6470 -1.1449  0.0136
  240MOL0     C33048   2.654   5.385   1.056  0.2993  0.7153  0.6539
  240MOL0     C33049   2.678   5.284   0.961 -0.4840 -0.3959 -0.0744
  240MOL0     C33050   2.804   5.303   0.876 -0.5010  0.3674  0.4800
  240MOL0     H33051   2.914   5.012   0.623  1.6421 -0.9231 -0.8922
  240MOL0     H33052   2.930   4.912   0.411 -1.1627 -0.9839 -2.7554
  240MOL0     H33053   2.537   4.836   0.188 -0.1164  0.9228  0.5416
  240MOL0     H33054   2.621   4.687   0.228  0.3644  1.0631 -0.4002
  240MOL0     H33055   2.706   4.869   0.024  1.4776 -0.7212 -0.5378
  240MOL0     H33056   2.769   4.701   0.045 -0.5696 -2.1989  1.5427
  240MOL0     H33057   2.607   4.603  -0.074 -1.0274  1.4470 -4.3423
  240MOL0     H33058   2.482   4.680   0.037 -0.7101  3.7550  0.6340
  240MOL0     H33059   2.487   4.878  -0.131  0.4719  0.1414 -2.9517
  240MOL0     H33060   2.599   4.781  -0.225 -0.8962 -0.9196 -2.8807
  240MOL0     H33061   2.415   4.585  -0.178 -2.5960 -0.3723 -1.5325
  240MOL0     H33062   2.412   4.709  -0.308 -1.1274 -0.7681 -1.3967
  240MOL0     H33063   2.255   4.700  -0.050  2.1361  2.5056  0.5072
  240MOL0     H33064   2.240   4.836  -0.169  0.1204  0.4072  1.0705
  240MOL0     H33065   2.155   4.558  -0.180 -0.6831  1.0499  2.1969
  240MOL0     H33066   2.187   4.653  -0.332  1.6630 -1.9920 -0.8010
  240MOL0     H33067   2.013   4.781  -0.126 -1.5854  0.3624  0.0700
  240MOL0     H33068   2.004   4.793  -0.299  1.3262 -2.2534 -1.2130
  240MOL0     H33069   1.829   4.664  -0.418 -1.6757 -1.4340 -1.3368
  240MOL0     H33070   1.608   4.388  -0.381  1.2796  0.6225  1.2300
  240MOL0     H33071   1.603   4.552  -0.451  1.3219  2.1690  1.6203
  240MOL0     H33072   1.464   4.437  -0.202 -1.7743 -1.3073 -1.4864
  240MOL0     H33073   1.465   4.612  -0.242  0.8454  0.2777  2.4759
  240MOL0     H33074   1.245   4.465  -0.304 -1.3659  1.0655 -1.8532
  240MOL0     H33075   1.309   4.568  -0.422  0.2300  1.8362  2.6054
  240MOL0     H33076   1.228   4.342  -0.498 -0.9321  1.0693  1.5580
  240MOL0     H33077   1.392   4.389  -0.554  0.4825 -2.9862 -0.8541
  240MOL0     H33078   1.139   4.269  -0.322  0.7171  1.3839  0.4738
  240MOL0     H33079   0.967   4.266  -0.133 -1.4121 -0.1552  0.0493
  240MOL0     H33080   1.000   4.162   0.001 -0.0969  0.8306 -0.1205
  240MOL0     H33081   0.931   4.102  -0.161 -0.1943  0.0453 -0.2902
  240MOL0     H33082   1.351   3.619   0.127 -0.0642 -1.3163 -2.2504
  240MOL0     H33083   1.279   3.442   0.275 -0.1617  0.4952  1.8370
  240MOL0     H33084   1.068   3.268   0.116  2.0047  0.9873 -1.1232
  240MOL0     H33085   1.200   3.266   0.235  0.5473  3.7454 -0.1778
  240MOL0     H33086   1.030   3.166   0.398  1.3038  0.9906 -0.0704
  240MOL0     H33087   0.928   3.126   0.249  0.4613 -0.5521 -0.0780
  240MOL0     H33088   1.210   3.043   0.249 -0.4297 -0.7454 -2.8340
  240MOL0     H33089   1.072   2.965   0.182  1.1364 -0.8161 -0.6097
  240MOL0     H33090   0.985   2.894   0.415  0.4636  0.9299  2.3527
  240MOL0     H33091   1.127   2.976   0.481 -1.7740 -0.2213  0.2920
  240MOL0     H33092   1.144   2.751   0.293  4.2111  2.8573 -1.1018
  240MOL0     H33093   1.273   2.815   0.387  0.3512 -0.5024  0.8092
  240MOL0     H33094   1.040   2.669   0.496 -0.4532  1.7204 -2.0807
  240MOL0     H33095   1.152   2.761   0.601 -0.9459  2.1984 -1.0915
  240MOL0     H33096   1.347   2.623   0.528  0.4834 -1.3293  1.9784
  240MOL0     H33097   1.231   2.509   0.449 -2.9308  0.0750 -0.7628
  240MOL0     H33098   1.229   2.569   0.760 -0.8747  0.7462 -0.5981
  240MOL0     H33099   1.293   2.424   0.688 -0.4737 -0.1728 -0.4855
  240MOL0     H33100   0.868   3.554   0.185 -0.2473  1.7095 -1.4106
  240MOL0     H33101   0.951   3.721   0.026  1.3036  0.4471 -0.4494
  240MOL0     H33102   1.391   3.896  -0.132  0.1415 -0.2268  1.1420
  240MOL0     H33103   1.504   4.055  -0.281 -0.8153 -1.1356 -0.9525
  240MOL0     H33104   2.511   4.975   0.337  0.4586 -0.0924 -0.6427
  240MOL0     H33105   2.504   5.099   0.546  0.7349 -0.5631  0.1940
  240MOL0     H33106   2.381   5.123   0.987 -0.9807  1.2592 -0.8526
  240MOL0     H33107   2.348   5.276   1.167 -1.7004 -0.7202 -2.6568
  240MOL0     H33108   2.714   5.455   1.307 -1.1781 -0.7802 -3.3257
  240MOL0     H33109   2.667   5.585   1.231  1.2266 -1.2038 -0.3816
  240MOL0     H33110   2.715   5.594   1.486 -1.8214  0.7055  2.2575
  240MOL0     H33111   2.550   5.533   1.506 -0.9899 -3.1563 -3.0036
  240MOL0     H33112   2.560   5.787   1.532  1.1493 -1.3345  1.0606
  240MOL0     H33113   2.634   5.799   1.375 -0.3734  2.0519  0.8712
  240MOL0     H33114   2.411   5.716   1.282  0.4051 -1.3675  0.3272
  240MOL0     H33115   2.372   5.851   1.385 -2.6304 -0.2962  0.7934
  240MOL0     H33116   2.171   5.514   1.545 -0.7539 -1.0311 -0.0214
  240MOL0     H33117   2.730   5.461   1.071  1.4701  0.6626 -3.6480
  240MOL0     H33118   2.870   5.378   0.923 -2.1215  2.1257  0.0619
  240MOL0     H33119   2.866   5.216   0.854 -1.9404 -0.2602 -1.3335
  240MOL0     H33120   2.772   5.342   0.779 -2.2941 -0.6925  0.6132
  241MOL0     O33121   1.356   3.968   5.699  0.7481 -0.4199 -0.0669
  241MOL0     C33122   1.363   3.962   5.576 -1.0664  1.2310  0.0765
  241MOL0     O33123   1.442   4.033   5.501 -0.2385 -0.4817 -0.2646
  241MOL0     C33124   1.537   4.098   5.572  0.4521 -0.2920 -0.2285
  241MOL0     C33125   1.669   4.041   5.593  1.2367 -0.1634  0.2571
  241MOL0     C33126   1.768   4.108   5.664 -0.6536 -0.2007  0.3903
  241MOL0     C33127   1.739   4.240   5.697 -0.1693 -0.7870  0.4183
  241MOL0     O33128   1.832   4.321   5.757  0.1093  0.2589 -0.4127
  241MOL0     C33129   1.943   4.358   5.679  0.5693  0.2653  0.5300
  241MOL0     C33130   1.912   4.489   5.600  0.6226 -0.9355  0.8711
  241MOL0     C33131   2.037   4.543   5.542 -1.1558 -0.0490 -0.2109
  241MOL0     C33132   2.138   4.596   5.653  0.0714 -0.3792  0.1156
  241MOL0     C33133   2.241   4.671   5.563 -0.5482 -0.3193 -0.1177
  241MOL0     C33134   2.347   4.765   5.638  0.4995 -0.3340  0.7154
  241MOL0     C33135   2.416   4.691   5.757 -0.0518 -0.3020 -0.2707
  241MOL0     C33136   2.467   4.552   5.736 -0.2429  0.0803 -0.5441
  241MOL0     N33137   2.524   4.501   5.862 -0.1332 -1.0004  0.4182
  241MOL0     C33138   2.452   4.439   5.958  0.7448  0.0100 -0.9569
  241MOL0     C33139   2.541   4.427   6.056  0.3601  0.2887  0.9085
  241MOL0     C33140   2.524   4.367   6.196  0.2969  0.2313 -0.2158
  241MOL0     C33141   2.513   4.213   6.196 -0.1288 -0.1124  0.2101
  241MOL0     C33142   2.576   4.160   6.327  0.5509  0.6605 -0.2366
  241MOL0     C33143   2.524   4.026   6.361  0.9922 -0.0342  0.0445
  241MOL0     O33144   2.531   3.939   6.245 -0.8627  1.0435 -0.0926
  241MOL0     C33145   2.480   3.801   6.251 -0.1345 -0.5690  0.1384
  241MOL0     C33146   2.523   3.719   6.139  0.3601  0.3840  0.3550
  241MOL0     C33147   2.490   3.585   6.130 -0.0506 -0.2251  0.3479
  241MOL0     C33148   2.538   3.510   6.009  0.2577 -0.4193  0.1696
  241MOL0     C33149   2.410   3.526   6.239  0.3678 -0.7939  0.8075
  241MOL0     C33150   2.371   3.384   6.233  0.4081 -0.8934  0.1523
  241MOL0     O33151   2.286   3.352   6.334  0.3752 -0.0801  0.4492
  241MOL0     C33152   2.268   3.218   6.366 -0.5824 -0.6739 -0.7130
  241MOL0     C33153   2.137   3.181   6.398  0.7731 -0.5521  0.1178
  241MOL0     C33154   2.112   3.060   6.474 -0.6792 -0.1192 -0.1765
  241MOL0     C33155   2.226   2.982   6.506  1.4785  1.0625 -0.1413
  241MOL0     O33156   2.212   2.860   6.562  0.3958  0.4016  0.3666
  241MOL0     C33157   2.239   2.861   6.700  0.6053  0.3504 -1.3676
  241MOL0     C33158   2.127   2.773   6.768  0.2730  0.0193 -0.0303
  241MOL0     C33159   2.102   2.648   6.696  0.4244  1.6187  0.3281
  241MOL0     C33160   1.995   2.554   6.767  0.1497  0.6244 -0.4573
  241MOL0     C33161   2.014   2.403   6.751  0.6822 -0.7943  0.5731
  241MOL0     C33162   2.038   2.341   6.611  0.4258 -0.3277 -0.3611
  241MOL0     C33163   1.924   2.351   6.503 -0.2625 -0.3774 -0.0959
  241MOL0     C33164   1.993   2.369   6.364  0.0410 -0.7000  0.0994
  241MOL0    Cl33165   1.866   2.379   6.233 -0.1462  0.0592 -0.2248
  241MOL0     C33166   2.356   3.016   6.459 -0.2572 -0.7990 -0.2665
  241MOL0     C33167   2.379   3.138   6.391  0.7181 -0.4026  0.6919
  241MOL0     O33168   2.436   3.301   6.171  0.5265  0.5571  0.3995
  241MOL0     C33169   2.371   3.611   6.349  0.2296 -0.1035 -0.3047
  241MOL0     C33170   2.398   3.750   6.350  0.0508 -0.1168 -1.1991
  241MOL0     N33171   2.657   4.498   6.032  0.0603  0.0617  0.0631
  241MOL0     N33172   2.648   4.534   5.906  0.3494  0.2070 -0.8378
  241MOL0     C33173   1.618   4.298   5.677 -0.3762  0.0324 -0.4461
  241MOL0     C33174   1.515   4.228   5.608 -0.7785 -0.0213  0.2779
  241MOL0     C33175   1.275   3.869   5.503 -0.7662 -0.2345  0.4230
  241MOL0     C33176   1.251   3.885   5.363 -1.3828  0.7796  0.4910
  241MOL0     C33177   1.157   3.805   5.294 -0.1089 -0.1448  0.2160
  241MOL0     C33178   1.073   3.716   5.362  0.0214  0.9150 -0.0804
  241MOL0     O33179   0.971   3.639   5.313  0.0277 -0.4793  0.4248
  241MOL0     C33180   0.941   3.652   5.165  0.4719  0.7507 -0.9885
  241MOL0     C33181   1.056   3.616   5.068 -0.4802 -0.7420 -0.8396
  241MOL0     C33182   1.015   3.563   4.932  0.6420  0.2201  0.2064
  241MOL0     C33183   1.121   3.513   4.841 -0.5489 -0.0426  0.4038
  241MOL0     C33184   1.219   3.617   4.810 -0.0568  0.4882  0.6840
  241MOL0     C33185   1.317   3.680   4.782  1.1688  0.5617 -0.2594
  241MOL0     C33186   1.097   3.701   5.495  0.3872 -0.0990 -0.5080
  241MOL0     C33187   1.205   3.759   5.563  1.0298 -0.5205 -0.1558
  241MOL0     C33188   1.214   3.705   5.705 -0.5483  0.0725 -0.2149
  241MOL0     H33189   1.686   3.937   5.569  1.2494  0.4172 -2.6804
  241MOL0     H33190   1.850   4.055   5.712 -0.9952  1.7626  3.4182
  241MOL0     H33191   1.972   4.278   5.610 -3.5748 -0.0251 -1.1496
  241MOL0     H33192   2.025   4.391   5.744  0.4313 -1.3491  1.5846
  241MOL0     H33193   1.843   4.459   5.521  0.7039 -4.1647  1.9165
  241MOL0     H33194   1.855   4.565   5.655 -0.1864 -1.9141  1.4157
  241MOL0     H33195   2.080   4.453   5.498  0.3747  0.6990 -0.3096
  241MOL0     H33196   2.018   4.616   5.463 -2.0384 -0.9917 -0.8961
  241MOL0     H33197   2.075   4.661   5.714 -2.2785 -1.6373 -0.8329
  241MOL0     H33198   2.189   4.521   5.714  0.0461 -0.5397 -0.0613
  241MOL0     H33199   2.193   4.734   5.487 -3.2110 -2.4733 -0.3629
  241MOL0     H33200   2.299   4.594   5.510 -0.3579  0.4472 -1.0586
  241MOL0     H33201   2.426   4.791   5.567 -2.4129  3.1154 -1.6446
  241MOL0     H33202   2.282   4.851   5.655 -1.8475 -1.4101 -1.8986
  241MOL0     H33203   2.338   4.686   5.833  1.1918  2.4748  1.3168
  241MOL0     H33204   2.501   4.756   5.780  1.4813 -1.4219 -2.4171
  241MOL0     H33205   2.393   4.482   5.697 -0.4183  0.0044 -0.0804
  241MOL0     H33206   2.542   4.544   5.657 -0.2806 -0.9475 -0.4897
  241MOL0     H33207   2.347   4.413   5.946 -0.1563  1.8111  2.0307
  241MOL0     H33208   2.432   4.397   6.248 -0.3795 -0.8451 -0.7572
  241MOL0     H33209   2.609   4.406   6.253  1.5480  1.1419 -2.5887
  241MOL0     H33210   2.407   4.188   6.195 -0.6620  1.9644  0.3359
  241MOL0     H33211   2.564   4.174   6.107 -1.3544  2.5670 -1.8038
  241MOL0     H33212   2.686   4.158   6.334  0.9373  5.5000 -1.4075
  241MOL0     H33213   2.563   4.224   6.415 -1.6943  1.0363 -0.7834
  241MOL0     H33214   2.584   3.982   6.441 -2.4822 -2.6299  1.4817
  241MOL0     H33215   2.420   4.036   6.391  1.0803  0.0986  0.3021
  241MOL0     H33216   2.591   3.777   6.076  2.0042  0.9368  2.5194
  241MOL0     H33217   2.623   3.441   6.020  0.0280 -0.4267  2.2788
  241MOL0     H33218   2.551   3.575   5.922 -4.7061 -1.0344 -1.3335
  241MOL0     H33219   2.460   3.439   5.980  2.6102 -4.7393  3.0945
  241MOL0     H33220   2.056   3.253   6.391  1.5608  0.5262  1.6362
  241MOL0     H33221   2.017   3.039   6.520 -0.3428  1.6929  1.4660
  241MOL0     H33222   2.340   2.823   6.720  0.8561  1.7121  0.0571
  241MOL0     H33223   2.235   2.963   6.738 -0.0247  0.2838 -1.2511
  241MOL0     H33224   2.149   2.744   6.871 -1.8287 -2.8147 -0.2580
  241MOL0     H33225   2.032   2.823   6.784 -0.4486 -0.8970 -1.2509
  241MOL0     H33226   2.197   2.593   6.692  0.2331  1.3053 -0.0307
  241MOL0     H33227   2.069   2.666   6.593  2.7449 -0.7018 -0.9332
  241MOL0     H33228   1.894   2.584   6.739  0.0569  1.0897  0.3469
  241MOL0     H33229   2.001   2.579   6.873 -0.7909  0.9805 -0.4762
  241MOL0     H33230   2.099   2.376   6.815  0.4260  0.1110  1.3088
  241MOL0     H33231   1.921   2.360   6.789  0.1602 -0.1146  0.0879
  241MOL0     H33232   2.056   2.236   6.634 -2.6152 -1.2468 -1.7721
  241MOL0     H33233   2.127   2.387   6.566 -0.0483  1.9414  0.8557
  241MOL0     H33234   1.862   2.437   6.528 -0.0813 -0.2732 -0.0025
  241MOL0     H33235   1.850   2.270   6.499 -1.4184  0.7136 -2.0105
  241MOL0     H33236   2.057   2.285   6.337 -1.4069 -1.3090 -1.7094
  241MOL0     H33237   2.050   2.462   6.367  0.1380 -0.6341 -2.0289
  241MOL0     H33238   2.439   2.953   6.490  0.2964  0.0060 -0.0707
  241MOL0     H33239   2.479   3.158   6.354  0.6371 -0.1431  0.6168
  241MOL0     H33240   2.322   3.587   6.443  3.0931  0.6562  1.5345
  241MOL0     H33241   2.358   3.820   6.423  0.2441 -0.4276 -0.7871
  241MOL0     H33242   1.593   4.393   5.722 -0.0375 -1.3279  2.9245
  241MOL0     H33243   1.427   4.286   5.584 -0.5366 -0.3365 -1.5751
  241MOL0     H33244   1.300   3.963   5.306  1.2589 -0.8577  0.3401
  241MOL0     H33245   1.134   3.825   5.190 -1.9886 -2.1354  0.1863
  241MOL0     H33246   0.866   3.574   5.154 -0.7244  1.5056  1.2744
  241MOL0     H33247   0.895   3.747   5.136  1.7114  1.6529 -0.1299
  241MOL0     H33248   1.117   3.543   5.123 -1.7252  0.4363  2.3429
  241MOL0     H33249   1.125   3.698   5.046  1.7696 -2.3375 -0.0971
  241MOL0     H33250   0.967   3.468   4.957  3.5136 -1.3886  0.1533
  241MOL0     H33251   0.950   3.635   4.883  1.6690  1.0673  0.0423
  241MOL0     H33252   1.073   3.494   4.745 -0.5001  3.2639 -0.3884
  241MOL0     H33253   1.153   3.416   4.881 -2.0601 -0.0330  1.7234
  241MOL0     H33254   1.407   3.727   4.748  0.7530  0.0697 -2.2060
  241MOL0     H33255   1.021   3.632   5.533 -0.6865  0.3216 -1.8083
  241MOL0     H33256   1.141   3.631   5.738  1.3287 -2.5949 -1.7042
  241MOL0     H33257   1.311   3.658   5.722  0.8820  1.9172 -2.5176
  241MOL0     H33258   1.216   3.791   5.772  3.1998  0.7816 -0.9738
  242MOL0     O33259   2.808   4.909   8.106  0.2571  0.7215 -0.0519
  242MOL0     C33260   2.786   4.847   8.001  0.5160 -0.3698 -0.1676
  242MOL0     O33261   2.851   4.864   7.885  0.5933  0.5411  0.7759
  242MOL0     C33262   2.969   4.922   7.877  0.1500 -1.0403 -0.7793
  242MOL0     C33263   3.004   5.060   7.838  0.1818 -0.8760 -0.3427
  242MOL0     C33264   3.140   5.099   7.852 -0.1666 -0.2452  0.5428
  242MOL0     C33265   3.242   4.998   7.885  0.8656  0.2997 -0.4556
  242MOL0     O33266   3.371   5.036   7.888  0.1439  0.3030  0.0409
  242MOL0     C33267   3.471   4.940   7.854 -0.4856 -0.1903 -0.8410
  242MOL0     C33268   3.612   5.008   7.855 -0.0807  1.0549 -0.2692
  242MOL0     C33269   3.717   4.893   7.853  1.2319  0.2476  0.0953
  242MOL0     C33270   3.865   4.925   7.839  0.5778  0.7108 -0.7725
  242MOL0     C33271   3.959   4.805   7.795 -0.0633 -0.7220  0.5944
  242MOL0     C33272   3.991   4.718   7.911 -0.1041  0.0422 -0.2540
  242MOL0     C33273   4.099   4.603   7.875 -0.1855  0.2398 -0.6014
  242MOL0     C33274   4.049   4.493   7.784  0.0127  0.5991 -0.9191
  242MOL0     N33275   3.935   4.417   7.839  0.2273 -0.9151  0.2418
  242MOL0     C33276   3.907   4.373   7.964  0.6048 -0.6944 -0.0824
  242MOL0     C33277   3.785   4.318   7.947 -0.0745 -0.2650  0.1466
  242MOL0     C33278   3.710   4.240   8.056 -0.3974  0.8264  0.0273
  242MOL0     C33279   3.721   4.079   8.025 -0.2656 -0.0121 -0.5392
  242MOL0     C33280   3.651   3.986   8.120 -0.1366  0.0554 -0.0573
  242MOL0     C33281   3.688   4.012   8.266 -0.0558  0.0874 -0.1649
  242MOL0     O33282   3.615   4.122   8.320 -0.3077 -0.0132 -0.6436
  242MOL0     C33283   3.623   4.156   8.451  0.0459  0.2059  0.2185
  242MOL0     C33284   3.582   4.291   8.490  0.1961  0.6276  0.7135
  242MOL0     C33285   3.576   4.324   8.627 -0.2978  0.3019 -0.8869
  242MOL0     C33286   3.510   4.462   8.646  0.2041 -0.2077  0.5576
  242MOL0     C33287   3.605   4.240   8.736  0.5526  0.6351 -0.4289
  242MOL0     C33288   3.600   4.285   8.883 -0.4508 -0.0337  0.0148
  242MOL0     O33289   3.624   4.412   8.910  0.0813  0.5854  0.0123
  242MOL0     C33290   3.611   4.435   9.047 -0.3960  0.0523  0.4537
  242MOL0     C33291   3.713   4.419   9.137 -0.2685  0.1166  0.7165
  242MOL0     C33292   3.700   4.469   9.264 -0.3203 -0.9027 -0.1709
  242MOL0     C33293   3.571   4.515   9.304  0.4055  1.3042 -0.2152
  242MOL0     O33294   3.540   4.553   9.429 -0.4419 -0.1016  0.4427
  242MOL0     C33295   3.621   4.661   9.496  0.6063 -0.9384 -0.0630
  242MOL0     C33296   3.534   4.719   9.616  1.0174  0.2392 -0.4288
  242MOL0     C33297   3.505   4.613   9.725  0.5130 -0.3562  0.0907
  242MOL0     C33298   3.454   4.668   9.864  0.9533  0.8271 -0.5487
  242MOL0     C33299   3.327   4.756   9.856  0.1393  0.2665  0.3790
  242MOL0     C33300   3.288   4.822   9.986  0.0570  0.5189  0.3591
  242MOL0     C33301   3.152   4.898   9.981  0.0982 -1.4486  0.7862
  242MOL0     C33302   3.154   5.029   9.905 -0.0251  0.0578  0.2658
  242MOL0    Cl33303   3.108   5.008   9.731 -0.3307 -0.7899 -0.0422
  242MOL0     C33304   3.466   4.535   9.213 -0.9244  0.2787  0.2758
  242MOL0     C33305   3.490   4.491   9.079  0.0581  1.5895 -0.5061
  242MOL0     O33306   3.606   4.190   8.967  0.3678 -0.0809 -0.4076
  242MOL0     C33307   3.638   4.109   8.694 -0.1485 -0.1915  0.1197
  242MOL0     C33308   3.655   4.067   8.559  1.3362 -0.5175 -0.1736
  242MOL0     N33309   3.738   4.327   7.812 -0.2294  0.3707  1.1243
  242MOL0     N33310   3.825   4.403   7.755 -0.5687  0.1004  0.2072
  242MOL0     C33311   3.201   4.863   7.893 -1.1093 -0.6309 -0.0486
  242MOL0     C33312   3.068   4.832   7.900 -0.9849  0.4101 -0.8291
  242MOL0     C33313   2.688   4.739   7.996  1.4362  0.0194  0.8538
  242MOL0     C33314   2.657   4.695   7.865 -1.4670 -0.1709  0.0620
  242MOL0     C33315   2.565   4.589   7.846 -0.6439  1.2704 -0.4151
  242MOL0     C33316   2.502   4.529   7.953  0.3044  0.2518  0.7684
  242MOL0     O33317   2.405   4.432   7.926  0.4126 -0.3987  0.1103
  242MOL0     C33318   2.335   4.362   8.030 -0.3973 -0.6468  0.4060
  242MOL0     C33319   2.407   4.243   8.072 -0.3943  0.2520  0.7252
  242MOL0     C33320   2.411   4.138   7.960  0.9182 -0.8968  0.3724
  242MOL0     C33321   2.490   4.012   7.991  0.7166  0.1008 -0.0420
  242MOL0     C33322   2.408   3.922   8.083  0.0648  0.3357  0.4471
  242MOL0     C33323   2.335   3.845   8.133 -0.0764  0.4747 -0.1596
  242MOL0     C33324   2.526   4.583   8.082 -0.2005  1.3857  0.3304
  242MOL0     C33325   2.622   4.683   8.107 -0.2734  0.4757 -0.8173
  242MOL0     C33326   2.648   4.728   8.251  0.4695 -0.0997 -0.7610
  242MOL0     H33327   2.925   5.124   7.798 -0.3469 -1.0669  0.3721
  242MOL0     H33328   3.184   5.197   7.838 -2.0574  1.0795  3.0794
  242MOL0     H33329   3.447   4.897   7.757 -1.1700 -1.9844  0.0771
  242MOL0     H33330   3.479   4.856   7.924  0.3996 -1.0964 -1.9794
  242MOL0     H33331   3.627   5.083   7.777 -1.1096  1.2499 -0.3008
  242MOL0     H33332   3.614   5.060   7.952  3.0795  0.1470  0.2302
  242MOL0     H33333   3.713   4.846   7.951 -0.6041 -1.5854 -0.7897
  242MOL0     H33334   3.691   4.820   7.775 -0.7151  1.1325 -0.1142
  242MOL0     H33335   3.862   4.998   7.758 -0.7388  2.7873  1.0303
  242MOL0     H33336   3.903   4.972   7.930  1.8040 -0.6213 -0.5583
  242MOL0     H33337   4.052   4.853   7.765  0.5427 -1.9615  0.4246
  242MOL0     H33338   3.911   4.754   7.711  2.8988 -5.5645  1.4843
  242MOL0     H33339   4.035   4.779   7.990  1.9012  0.4742 -1.6340
  242MOL0     H33340   3.901   4.673   7.954 -0.9357  2.6631  0.9656
  242MOL0     H33341   4.136   4.553   7.965 -1.2014  1.7011  0.6887
  242MOL0     H33342   4.185   4.646   7.822  0.3149 -0.4135 -0.3315
  242MOL0     H33343   4.022   4.538   7.688  0.7458 -0.1407 -1.4928
  242MOL0     H33344   4.120   4.412   7.763 -0.8423 -0.2070 -0.7755
  242MOL0     H33345   3.975   4.386   8.048  2.5017  2.1579 -1.8600
  242MOL0     H33346   3.606   4.274   8.051 -0.5160  0.4857  0.1051
  242MOL0     H33347   3.738   4.264   8.159 -0.0156  2.3636 -0.4060
  242MOL0     H33348   3.684   4.048   7.927 -0.0361 -2.7286  0.1483
  242MOL0     H33349   3.828   4.057   8.021  0.0669  1.0156  1.4346
  242MOL0     H33350   3.542   3.994   8.113 -0.3024 -1.8934 -0.1362
  242MOL0     H33351   3.671   3.882   8.096 -1.7928 -0.0685 -1.1043
  242MOL0     H33352   3.671   3.921   8.324  1.0178  0.0854  0.1559
  242MOL0     H33353   3.793   4.039   8.277 -0.4587  1.2109  1.4525
  242MOL0     H33354   3.566   4.357   8.406 -1.4708 -0.1800  0.3497
  242MOL0     H33355   3.484   4.508   8.550  1.7238  0.0029  0.2180
  242MOL0     H33356   3.574   4.528   8.704  0.2359 -0.1733  0.4827
  242MOL0     H33357   3.420   4.457   8.707 -1.7804 -0.1719 -2.1532
  242MOL0     H33358   3.799   4.358   9.111  0.3258  0.9282  0.7193
  242MOL0     H33359   3.772   4.463   9.345  1.1791 -1.6859 -1.5052
  242MOL0     H33360   3.715   4.631   9.543  0.2412 -2.4063 -0.2192
  242MOL0     H33361   3.641   4.744   9.427  0.6246 -0.9469 -0.0677
  242MOL0     H33362   3.578   4.810   9.660 -1.9749  1.4500  0.3244
  242MOL0     H33363   3.435   4.748   9.580  0.3580  1.6917  2.2523
  242MOL0     H33364   3.599   4.560   9.743  0.3610  0.5366  4.5748
  242MOL0     H33365   3.446   4.538   9.671  2.1862 -0.8425 -1.1756
  242MOL0     H33366   3.530   4.724   9.921  1.3176 -0.0926 -0.1144
  242MOL0     H33367   3.416   4.584   9.922 -0.2460  2.0083  0.4521
  242MOL0     H33368   3.338   4.830   9.776  1.7201 -0.1697  0.1618
  242MOL0     H33369   3.245   4.687   9.830  0.5966  0.1347 -0.7852
  242MOL0     H33370   3.364   4.896  10.015  1.2933  0.6696 -2.9034
  242MOL0     H33371   3.293   4.754  10.071  3.0011  1.3549  0.9896
  242MOL0     H33372   3.136   4.914  10.088  2.8302 -3.0653  1.5297
  242MOL0     H33373   3.071   4.832   9.950 -0.2326 -0.8192  0.2923
  242MOL0     H33374   3.254   5.074   9.911 -0.4416  1.0839 -0.1819
  242MOL0     H33375   3.081   5.101   9.942 -1.6186 -2.5523  2.5539
  242MOL0     H33376   3.370   4.573   9.246  0.1215  1.7411  1.8050
  242MOL0     H33377   3.407   4.490   9.010 -2.1018  0.6446  1.9512
  242MOL0     H33378   3.666   4.035   8.769 -1.2885  0.0957  0.8429
  242MOL0     H33379   3.676   3.962   8.545 -1.9617 -1.1910 -0.8183
  242MOL0     H33380   3.274   4.784   7.910  2.2895  2.4322  0.7328
  242MOL0     H33381   3.029   4.735   7.927  1.0106  0.5811  3.4250
  242MOL0     H33382   2.696   4.741   7.775  0.3136  1.0895  1.4100
  242MOL0     H33383   2.552   4.550   7.745  3.3129 -1.2110 -0.2006
  242MOL0     H33384   2.323   4.435   8.110  2.3865  0.2703  0.1116
  242MOL0     H33385   2.237   4.339   7.989  0.4429 -1.6448 -1.1424
  242MOL0     H33386   2.375   4.205   8.169  0.4375 -1.3414  0.4028
  242MOL0     H33387   2.508   4.276   8.098 -1.1200  1.9913  1.5197
  242MOL0     H33388   2.312   4.109   7.923  0.6787  2.2525 -1.7685
  242MOL0     H33389   2.464   4.183   7.876  1.2045 -2.1237 -0.1326
  242MOL0     H33390   2.592   4.033   8.025  0.6676 -0.9860  0.8576
  242MOL0     H33391   2.496   3.954   7.899 -3.2897 -2.4718  1.0702
  242MOL0     H33392   2.271   3.783   8.193 -0.6893  3.0350  2.0223
  242MOL0     H33393   2.485   4.524   8.164 -0.2920 -1.1455 -1.4330
  242MOL0     H33394   2.620   4.656   8.328  1.5746  1.7143  1.4352
  242MOL0     H33395   2.755   4.744   8.264  0.0444  0.4987  2.8090
  242MOL0     H33396   2.594   4.823   8.254 -1.9267 -1.4127  0.5117
  243MOL0     O33397   8.496   2.543   8.071  0.6926 -0.0549 -0.3047
  243MOL0     C33398   8.373   2.520   8.101  0.0448  0.6216 -0.5603
  243MOL0     O33399   8.308   2.554   8.212 -0.1074 -0.8223 -0.0507
  243MOL0     C33400   8.327   2.674   8.280 -0.0176 -0.1006  0.2546
  243MOL0     C33401   8.404   2.783   8.240  0.0918 -0.4313  1.1289
  243MOL0     C33402   8.425   2.884   8.330  0.5351 -0.9112 -0.9332
  243MOL0     C33403   8.355   2.900   8.455  0.8638  0.8856  0.0958
  243MOL0     O33404   8.371   2.979   8.562 -0.3439 -0.6248 -0.8800
  243MOL0     C33405   8.469   3.088   8.543 -0.1833 -0.1928 -0.4736
  243MOL0     C33406   8.468   3.159   8.687  0.6758  0.4240  1.0325
  243MOL0     C33407   8.334   3.230   8.728  0.5153 -0.5921 -0.3761
  243MOL0     C33408   8.319   3.255   8.882 -0.9177 -0.0585  0.6166
  243MOL0     C33409   8.183   3.312   8.916 -0.2125  0.6502  0.3047
  243MOL0     C33410   8.072   3.206   8.906  0.5368 -0.5424 -0.2111
  243MOL0     C33411   8.077   3.114   9.028 -0.2627  0.2989 -0.4105
  243MOL0     C33412   7.960   3.032   9.048  0.4474 -0.5388 -0.7441
  243MOL0     N33413   7.831   3.085   9.075  0.2874 -0.6037  0.0362
  243MOL0     C33414   7.718   3.047   9.015  0.1456 -0.2126 -0.2320
  243MOL0     C33415   7.622   3.134   9.060  0.2433  1.1174  0.1243
  243MOL0     C33416   7.475   3.134   9.015 -0.3651  0.0277 -0.7868
  243MOL0     C33417   7.466   3.190   8.868 -0.1354  0.7228  0.1982
  243MOL0     C33418   7.323   3.216   8.825  0.5311 -0.4619 -0.9427
  243MOL0     C33419   7.304   3.281   8.682  0.0095 -0.3705 -0.4538
  243MOL0     O33420   7.158   3.265   8.650 -0.2151  0.4983 -0.4361
  243MOL0     C33421   7.086   3.358   8.575  0.1791 -0.9651 -0.0387
  243MOL0     C33422   7.136   3.417   8.461  0.6177  0.1775  0.2070
  243MOL0     C33423   7.052   3.494   8.378 -0.1117 -0.3362 -0.3538
  243MOL0     C33424   7.134   3.558   8.264 -0.8211 -0.0703 -0.3358
  243MOL0     C33425   6.917   3.515   8.413 -0.1016  0.5086 -0.8166
  243MOL0     C33426   6.825   3.600   8.326 -1.0313  0.3912  0.0252
  243MOL0     O33427   6.696   3.595   8.353  0.8822 -0.3936  0.6290
  243MOL0     C33428   6.614   3.707   8.320  0.8192  0.4568  0.7320
  243MOL0     C33429   6.665   3.835   8.316  0.5165  0.2703  0.0187
  243MOL0     C33430   6.577   3.938   8.294 -0.2384 -0.3631 -0.4113
  243MOL0     C33431   6.438   3.906   8.282  0.2326  0.1548  0.6901
  243MOL0     O33432   6.348   4.001   8.276 -0.1243  0.3778 -0.4931
  243MOL0     C33433   6.373   4.117   8.361  0.4014  0.3541 -0.3946
  243MOL0     C33434   6.250   4.213   8.385 -0.9531 -0.0338 -0.8301
  243MOL0     C33435   6.145   4.143   8.478 -1.0218  1.1981  0.1588
  243MOL0     C33436   6.047   4.250   8.532  0.4510 -0.1704  0.7265
  243MOL0     C33437   5.928   4.188   8.607 -0.2104  0.2921 -0.3755
  243MOL0     C33438   5.840   4.296   8.684 -0.0600 -0.8971  0.9176
  243MOL0     C33439   5.916   4.354   8.801 -0.0187 -0.5615 -0.5115
  243MOL0     C33440   5.831   4.465   8.875 -0.3585 -0.9030 -0.1647
  243MOL0    Cl33441   5.924   4.528   9.009  0.6319 -0.1695 -0.2807
  243MOL0     C33442   6.397   3.773   8.269 -0.3327  0.5733  0.1084
  243MOL0     C33443   6.488   3.673   8.310  0.1468 -0.6394 -0.0274
  243MOL0     O33444   6.878   3.647   8.221  0.5567 -0.0775 -0.0788
  243MOL0     C33445   6.869   3.459   8.530 -0.6184  0.6484 -0.5193
  243MOL0     C33446   6.958   3.383   8.612  0.5422  0.0912 -0.1361
  243MOL0     N33447   7.681   3.211   9.161 -0.3295  0.7578  0.6131
  243MOL0     N33448   7.809   3.183   9.169 -0.0082 -0.7571  0.9682
  243MOL0     C33449   8.278   2.789   8.492  0.3557  0.5794  0.2937
  243MOL0     C33450   8.265   2.678   8.404  0.5963  0.8526  0.5753
  243MOL0     C33451   8.304   2.418   8.017 -0.4339  0.4532  0.5645
  243MOL0     C33452   8.188   2.349   8.060  0.2243  0.2456  0.8102
  243MOL0     C33453   8.117   2.246   7.984  0.0177 -0.3161  0.2699
  243MOL0     C33454   8.150   2.235   7.842  0.2550 -0.2072 -0.4168
  243MOL0     O33455   8.094   2.150   7.742 -0.0976 -0.7326 -0.1777
  243MOL0     C33456   7.988   2.063   7.776  0.5938  0.5815  0.2452
  243MOL0     C33457   7.860   2.149   7.801  0.8022 -0.4130 -0.1962
  243MOL0     C33458   7.740   2.078   7.874 -1.3547 -0.0030 -0.8204
  243MOL0     C33459   7.769   2.069   8.029  0.0107 -0.9159  0.1590
  243MOL0     C33460   7.688   1.951   8.059 -0.3563 -1.0034  0.4714
  243MOL0     C33461   7.622   1.853   8.074 -0.5196 -0.4711  0.1632
  243MOL0     C33462   8.265   2.306   7.799  0.9928  0.1129 -0.4323
  243MOL0     C33463   8.338   2.394   7.881  0.1710  0.8095  0.1806
  243MOL0     C33464   8.439   2.461   7.806 -0.0070  0.5001 -0.1040
  243MOL0     H33465   8.449   2.770   8.142 -1.2337 -0.7888  0.5398
  243MOL0     H33466   8.502   2.956   8.305  0.0621 -0.0391  0.0419
  243MOL0     H33467   8.452   3.159   8.461  3.2746 -0.2912 -1.4196
  243MOL0     H33468   8.565   3.038   8.525 -0.4855 -1.6570  1.6412
  243MOL0     H33469   8.493   3.082   8.761 -1.5758 -1.7201 -0.2765
  243MOL0     H33470   8.539   3.242   8.685 -1.4778  2.3795 -0.6200
  243MOL0     H33471   8.326   3.319   8.665 -1.8391 -0.7598 -0.3834
  243MOL0     H33472   8.254   3.164   8.693 -0.6835  1.7004 -2.2003
  243MOL0     H33473   8.342   3.174   8.951 -1.2933 -1.1467 -0.4966
  243MOL0     H33474   8.398   3.330   8.896  0.6302 -0.3539 -4.4919
  243MOL0     H33475   8.140   3.391   8.855 -0.1435 -0.4494 -1.2307
  243MOL0     H33476   8.191   3.340   9.022  0.9376 -1.9353  1.0057
  243MOL0     H33477   7.975   3.258   8.909  1.1057  0.5280  2.5122
  243MOL0     H33478   8.065   3.154   8.809 -2.2722 -0.9001  0.0960
  243MOL0     H33479   8.097   3.176   9.115 -1.9013 -0.0077  0.2141
  243MOL0     H33480   8.163   3.047   9.024 -0.8964 -0.5399 -0.3617
  243MOL0     H33481   7.948   2.975   8.956  1.1641 -0.1400 -1.0928
  243MOL0     H33482   7.987   2.962   9.128  0.1723  0.6162  0.3964
  243MOL0     H33483   7.708   2.975   8.934  0.1852  2.2761 -2.6108
  243MOL0     H33484   7.423   3.194   9.091 -2.2015  0.1490 -2.0875
  243MOL0     H33485   7.441   3.030   9.011  2.4711 -1.0034 -0.6113
  243MOL0     H33486   7.530   3.278   8.853 -0.4916  0.7751 -1.1644
  243MOL0     H33487   7.510   3.120   8.796 -0.3500  1.8915 -1.1123
  243MOL0     H33488   7.260   3.127   8.834 -0.3401  0.1035 -1.3136
  243MOL0     H33489   7.287   3.285   8.902  0.3692  0.4968 -1.8614
  243MOL0     H33490   7.334   3.387   8.678 -2.2270  0.2956 -2.2340
  243MOL0     H33491   7.365   3.230   8.607  1.0694  0.0787  0.0671
  243MOL0     H33492   7.231   3.393   8.414 -0.3787  1.2282 -2.5255
  243MOL0     H33493   7.123   3.667   8.267  2.7892  0.3773  1.5818
  243MOL0     H33494   7.102   3.531   8.162 -0.2041  2.8917 -1.4221
  243MOL0     H33495   7.241   3.538   8.268 -0.9253 -0.5598  0.1866
  243MOL0     H33496   6.772   3.851   8.317  0.7955 -1.3888  0.2800
  243MOL0     H33497   6.620   4.034   8.267 -0.2291 -0.9229 -2.5506
  243MOL0     H33498   6.409   4.092   8.461 -1.3203 -1.4703 -0.1685
  243MOL0     H33499   6.445   4.175   8.302 -0.0432  0.1720 -1.1330
  243MOL0     H33500   6.287   4.305   8.431 -1.6235 -0.3695  0.4315
  243MOL0     H33501   6.192   4.238   8.296 -4.3628  0.0195  1.2042
  243MOL0     H33502   6.206   4.091   8.553  0.0571  2.3337  0.1015
  243MOL0     H33503   6.091   4.076   8.410  2.0784  1.7251 -3.0865
  243MOL0     H33504   6.015   4.317   8.451  0.4653  0.1344  0.9757
  243MOL0     H33505   6.103   4.316   8.599  1.8483 -0.9380  0.3547
  243MOL0     H33506   5.872   4.118   8.544  0.7799 -3.2772  2.3861
  243MOL0     H33507   5.964   4.125   8.689 -0.4172  2.5841  1.5560
  243MOL0     H33508   5.754   4.245   8.728 -0.0884 -0.8740  0.8888
  243MOL0     H33509   5.799   4.380   8.627  0.0426 -2.1580 -1.1391
  243MOL0     H33510   6.020   4.383   8.782  0.1562  1.4498  2.7965
  243MOL0     H33511   5.918   4.271   8.872  1.3807  1.1663  1.5799
  243MOL0     H33512   5.740   4.430   8.924  0.2186 -1.7898  0.3004
  243MOL0     H33513   5.812   4.549   8.807 -0.7955  0.7054  1.8552
  243MOL0     H33514   6.297   3.743   8.239  0.4451 -0.0885 -2.0524
  243MOL0     H33515   6.464   3.567   8.314  1.1627 -0.8350  1.4634
  243MOL0     H33516   6.765   3.484   8.547 -0.2564  2.2854 -0.6291
  243MOL0     H33517   6.940   3.347   8.713 -0.0684  1.1438  0.1526
  243MOL0     H33518   8.226   2.802   8.586  1.2515 -0.8238  1.0332
  243MOL0     H33519   8.189   2.603   8.422 -0.6151  1.6526 -0.9523
  243MOL0     H33520   8.171   2.378   8.163  3.1426  0.8677  1.1961
  243MOL0     H33521   8.035   2.194   8.032 -1.2167  0.7777 -0.5760
  243MOL0     H33522   7.965   1.995   7.693  0.8979  1.7454 -0.8133
  243MOL0     H33523   8.009   2.009   7.869  1.8581  1.9174  0.7760
  243MOL0     H33524   7.815   2.179   7.706 -1.4459  0.5376  1.0817
  243MOL0     H33525   7.885   2.239   7.858 -4.9559  1.7853 -0.4656
  243MOL0     H33526   7.649   2.139   7.871  0.4098  2.9385  0.8179
  243MOL0     H33527   7.724   1.980   7.829  0.8078 -1.3890  1.1564
  243MOL0     H33528   7.728   2.153   8.086 -1.2293 -1.4421  0.0676
  243MOL0     H33529   7.876   2.059   8.050  0.1882  1.8484  0.9733
  243MOL0     H33530   7.556   1.777   8.111  1.2421 -2.0430  0.1879
  243MOL0     H33531   8.288   2.290   7.694 -6.1305  2.3678 -2.9056
  243MOL0     H33532   8.424   2.448   7.699 -0.2375 -2.1695  0.1620
  243MOL0     H33533   8.440   2.566   7.837 -2.3022  0.8284 -0.9704
  243MOL0     H33534   8.537   2.421   7.835 -0.7188  0.9107  3.3942
  244MOL0     O33535   8.595   0.249   4.080 -0.2052  1.0147 -0.1782
  244MOL0     C33536   8.493   0.179   4.064  0.0091  0.3341  0.8117
  244MOL0     O33537   8.424   0.168   3.950 -0.7273 -0.6007 -0.2898
  244MOL0     C33538   8.446   0.237   3.833 -0.4693  0.2349 -0.3236
  244MOL0     C33539   8.342   0.325   3.793 -0.0631 -1.3786 -0.2339
  244MOL0     C33540   8.366   0.412   3.689  1.0973 -0.1451  0.2111
  244MOL0     C33541   8.490   0.416   3.623  0.0173 -0.1147 -1.0766
  244MOL0     O33542   8.509   0.518   3.528 -0.2231  0.7086 -0.0187
  244MOL0     C33543   8.554   0.474   3.401 -0.6669 -0.0416 -0.3192
  244MOL0     C33544   8.678   0.543   3.348  0.4058 -0.9221 -0.1368
  244MOL0     C33545   8.810   0.508   3.421 -0.7101  0.2413 -0.0901
  244MOL0     C33546   8.920   0.592   3.352 -0.0753 -0.0904 -0.5076
  244MOL0     C33547   9.061   0.553   3.398  0.1941 -0.8040  0.1683
  244MOL0     C33548   9.166   0.625   3.315  0.8421 -0.1370  0.4890
  244MOL0     C33549   9.242   0.534   3.214 -0.4601 -0.4228 -0.0252
  244MOL0     C33550   9.164   0.488   3.093  0.2061 -0.5106 -0.2740
  244MOL0     N33551   9.141   0.608   3.005  0.4604  0.0306 -0.2215
  244MOL0     C33552   9.231   0.653   2.921 -0.0949  0.4018 -0.8435
  244MOL0     C33553   9.162   0.722   2.828 -0.0882 -0.5325  0.3337
  244MOL0     C33554   9.193   0.784   2.694 -0.4589 -0.6553 -0.5945
  244MOL0     C33555   9.129   0.705   2.573 -0.8079 -0.9159  0.0320
  244MOL0     C33556   9.179   0.764   2.437  0.5435 -0.4015  0.1851
  244MOL0     C33557   9.132   0.896   2.391 -0.1437  0.5067  0.6626
  244MOL0     O33558   8.994   0.889   2.342  0.5309  0.0744  0.6918
  244MOL0     C33559   8.977   0.821   2.218  0.5026 -0.2224  0.1214
  244MOL0     C33560   8.841   0.809   2.187  0.2686  1.2389 -1.0743
  244MOL0     C33561   8.800   0.755   2.065  1.3064  0.0103 -0.7881
  244MOL0     C33562   8.652   0.736   2.033  0.2889  0.1054 -0.6991
  244MOL0     C33563   8.896   0.708   1.973 -0.6924 -0.1365  0.0397
  244MOL0     C33564   8.864   0.669   1.831 -0.1422 -0.5044 -0.8988
  244MOL0     O33565   8.957   0.588   1.779  0.6955 -0.3113  0.0322
  244MOL0     C33566   8.996   0.562   1.653 -0.0038  0.9131  0.2755
  244MOL0     C33567   9.099   0.474   1.638  0.0956  0.2875  0.1871
  244MOL0     C33568   9.157   0.443   1.509 -0.3890  0.7008 -0.0242
  244MOL0     C33569   9.113   0.498   1.393  0.9005 -0.3484  0.4540
  244MOL0     O33570   9.175   0.456   1.279 -0.1347  0.3320  0.2927
  244MOL0     C33571   9.139   0.520   1.162 -0.6004  0.4974  1.4919
  244MOL0     C33572   9.011   0.466   1.097  0.3999  0.6760 -0.0788
  244MOL0     C33573   9.032   0.312   1.052  0.3024 -0.5098 -0.4411
  244MOL0     C33574   8.929   0.282   0.940  0.1341  0.7027  0.6816
  244MOL0     C33575   8.947   0.125   0.895 -0.1190 -0.5405 -0.3130
  244MOL0     C33576   8.818   0.057   0.853 -0.0848  0.7200  0.3747
  244MOL0     C33577   8.847  -0.070   0.767  0.4706 -0.4898 -0.9459
  244MOL0     C33578   8.848  -0.035   0.614  0.3061  0.2383 -0.3667
  244MOL0    Cl33579   8.872  -0.194   0.539  0.4450 -0.0543  0.2280
  244MOL0     C33580   9.004   0.580   1.409 -0.1703 -0.1835 -0.2538
  244MOL0     C33581   8.945   0.621   1.535 -0.8405  0.7459  0.3042
  244MOL0     O33582   8.769   0.715   1.765 -0.1921  0.4364  0.3554
  244MOL0     C33583   9.036   0.713   2.010 -0.0073 -0.4379 -0.3446
  244MOL0     C33584   9.079   0.780   2.132  0.3573  0.4191  1.1768
  244MOL0     N33585   9.031   0.730   2.872 -0.2873 -0.1278  0.9033
  244MOL0     N33586   9.017   0.657   2.970  0.6027 -0.3548 -0.1653
  244MOL0     C33587   8.593   0.329   3.670 -0.1175 -0.5098  0.0716
  244MOL0     C33588   8.575   0.241   3.776 -0.3822 -1.0247 -0.0121
  244MOL0     C33589   8.446   0.095   4.179  0.0267  0.4351 -0.3807
  244MOL0     C33590   8.314   0.105   4.221  0.5796  0.3862  0.1509
  244MOL0     C33591   8.262   0.006   4.310  0.3122 -0.6789  0.2698
  244MOL0     C33592   8.335  -0.103   4.341 -0.0289  0.5136 -0.3208
  244MOL0     O33593   8.281  -0.218   4.391  0.2722  0.4649  0.5597
  244MOL0     C33594   8.309  -0.254   4.533 -0.5108  0.1269 -0.0163
  244MOL0     C33595   8.194  -0.341   4.587 -0.6237 -0.2546 -0.1126
  244MOL0     C33596   8.163  -0.463   4.494 -0.0220 -0.0189  0.1572
  244MOL0     C33597   8.012  -0.477   4.470  0.2274  0.2667 -0.0833
  244MOL0     C33598   7.948  -0.533   4.593 -0.7336 -0.5163 -0.7915
  244MOL0     C33599   7.917  -0.565   4.703 -0.9622  0.8677  0.3755
  244MOL0     C33600   8.470  -0.104   4.312 -0.3380  0.1041 -0.6381
  244MOL0     C33601   8.530  -0.011   4.226 -0.6040 -0.0660 -0.6734
  244MOL0     C33602   8.671  -0.034   4.189 -0.1670 -0.1274  0.0495
  244MOL0     H33603   8.244   0.325   3.839 -0.9529  2.7158 -1.7357
  244MOL0     H33604   8.289   0.481   3.655  3.1105  2.9529  1.4710
  244MOL0     H33605   8.469   0.481   3.333 -3.6063 -1.0733  2.9643
  244MOL0     H33606   8.573   0.367   3.400 -0.7124 -0.0561  0.2295
  244MOL0     H33607   8.675   0.504   3.246  1.6310  0.1895 -0.6209
  244MOL0     H33608   8.659   0.651   3.348  0.3070 -0.9236  1.2783
  244MOL0     H33609   8.809   0.534   3.527  0.3271  0.9561 -0.2497
  244MOL0     H33610   8.830   0.401   3.410  1.3384  0.4744  0.8862
  244MOL0     H33611   8.905   0.569   3.246  1.3223  1.2163 -1.0210
  244MOL0     H33612   8.900   0.699   3.361  3.6253  0.5539  3.5949
  244MOL0     H33613   9.069   0.444   3.390  1.3593 -0.7555  0.5566
  244MOL0     H33614   9.077   0.578   3.503 -0.1460 -0.8453  0.2325
  244MOL0     H33615   9.117   0.704   3.258  4.4180  0.3306 -2.2676
  244MOL0     H33616   9.238   0.677   3.379 -0.7618 -1.0167  3.1940
  244MOL0     H33617   9.274   0.451   3.279 -1.1915 -0.8541 -0.2063
  244MOL0     H33618   9.338   0.576   3.184  0.6468 -1.9568  1.1413
  244MOL0     H33619   9.221   0.412   3.039  1.2243 -0.2401  0.3873
  244MOL0     H33620   9.063   0.455   3.119 -0.2323  2.5359  2.5589
  244MOL0     H33621   9.338   0.637   2.922 -0.1399 -0.7630  3.0629
  244MOL0     H33622   9.302   0.794   2.687  0.1234  3.5476  5.6837
  244MOL0     H33623   9.147   0.883   2.703 -0.3973 -0.7226  0.6316
  244MOL0     H33624   9.160   0.601   2.587  1.2886 -0.1552  1.6573
  244MOL0     H33625   9.019   0.702   2.571 -0.9012  1.3542 -1.5259
  244MOL0     H33626   9.287   0.765   2.453  0.8561  2.4628 -1.3853
  244MOL0     H33627   9.157   0.688   2.361 -2.6232 -1.9015  2.3792
  244MOL0     H33628   9.127   0.968   2.474  1.0366 -1.7328  2.8164
  244MOL0     H33629   9.208   0.940   2.325  1.5764  1.1387  2.9186
  244MOL0     H33630   8.757   0.830   2.254 -2.0271  2.0020 -3.9819
  244MOL0     H33631   8.598   0.761   2.125  2.4673  2.1646  0.1510
  244MOL0     H33632   8.622   0.631   2.028  4.4904 -1.4413  1.4751
  244MOL0     H33633   8.620   0.796   1.947 -2.2656 -1.0547 -0.6288
  244MOL0     H33634   9.128   0.425   1.730 -0.9064 -1.3383 -0.3251
  244MOL0     H33635   9.230   0.362   1.504  2.3613  2.9935  0.1880
  244MOL0     H33636   9.141   0.628   1.177  1.8375  0.6636  0.4635
  244MOL0     H33637   9.222   0.502   1.093 -0.5575 -2.1308  2.1212
  244MOL0     H33638   8.935   0.455   1.174  2.4243 -3.5941  1.5890
  244MOL0     H33639   8.986   0.530   1.011 -0.1415  0.6754  0.0748
  244MOL0     H33640   9.014   0.251   1.141  2.6985 -0.4411  0.1740
  244MOL0     H33641   9.137   0.300   1.021  1.0447  0.6500  1.4529
  244MOL0     H33642   8.946   0.355   0.861 -3.2358  1.9473  0.9504
  244MOL0     H33643   8.826   0.298   0.974 -0.1366  0.2727  0.0914
  244MOL0     H33644   9.019   0.116   0.813 -0.7772 -2.6524 -0.7414
  244MOL0     H33645   8.996   0.065   0.972  1.1770  0.4006 -0.3600
  244MOL0     H33646   8.751   0.127   0.802 -0.0799 -0.7799 -1.8294
  244MOL0     H33647   8.757   0.030   0.940 -1.5971  1.4299 -0.4163
  244MOL0     H33648   8.791  -0.162   0.789 -0.5642 -0.1867 -2.1898
  244MOL0     H33649   8.952  -0.097   0.787  0.3161 -0.1207  0.4547
  244MOL0     H33650   8.937   0.024   0.592 -0.0734  1.0484  0.2128
  244MOL0     H33651   8.756   0.015   0.583 -1.3181 -1.1053  1.9979
  244MOL0     H33652   8.963   0.620   1.317  0.4950 -0.0005 -0.4755
  244MOL0     H33653   8.865   0.694   1.538 -1.5248 -0.0004  2.0087
  244MOL0     H33654   9.109   0.664   1.947  1.1664 -2.3347  2.3338
  244MOL0     H33655   9.184   0.784   2.157  0.1085 -3.8992  3.8162
  244MOL0     H33656   8.692   0.331   3.624 -0.0431  0.3523  0.2350
  244MOL0     H33657   8.652   0.179   3.821  0.5733  0.0464 -0.1283
  244MOL0     H33658   8.245   0.183   4.190  0.5387  0.6692  0.9137
  244MOL0     H33659   8.159   0.003   4.342  0.7121  3.2423  2.6462
  244MOL0     H33660   8.402  -0.310   4.525 -0.0999  0.9573 -1.4216
  244MOL0     H33661   8.336  -0.167   4.593 -0.4245 -0.3798  0.6957
  244MOL0     H33662   8.102  -0.286   4.602 -0.9007 -1.5434  3.9858
  244MOL0     H33663   8.223  -0.369   4.688 -1.7970  3.1199  1.2829
  244MOL0     H33664   8.211  -0.449   4.397  0.3119 -2.7156 -0.1443
  244MOL0     H33665   8.206  -0.554   4.538  2.2775 -1.2050 -3.9798
  244MOL0     H33666   7.994  -0.561   4.403 -0.6574 -0.2714  0.7990
  244MOL0     H33667   7.960  -0.385   4.438 -2.7263 -1.2352  0.0216
  244MOL0     H33668   7.886  -0.593   4.802  0.3103  1.0333  0.8378
  244MOL0     H33669   8.530  -0.184   4.356 -1.6910 -0.3757  0.4020
  244MOL0     H33670   8.723   0.025   4.265  1.6542 -0.7553 -0.6640
  244MOL0     H33671   8.710  -0.133   4.215  0.6891  0.9280  3.1988
  244MOL0     H33672   8.695   0.003   4.089 -1.5935  0.7620  0.0109
  245MOL0     O33673   2.582  11.516   1.275  0.0710 -0.3599 -0.2193
  245MOL0     C33674   2.674  11.441   1.304 -0.0973 -0.5516  0.3772
  245MOL0     O33675   2.784  11.433   1.235  0.0083  0.2031  0.4086
  245MOL0     C33676   2.815  11.511   1.130  0.0154 -0.5783  0.8064
  245MOL0     C33677   2.912  11.609   1.142 -0.4837 -0.0067 -0.2997
  245MOL0     C33678   2.915  11.722   1.061 -0.9544  0.2444  0.0431
  245MOL0     C33679   2.840  11.719   0.937 -0.8942 -1.1855 -0.4455
  245MOL0     O33680   2.861  11.821   0.845  0.0888  0.1651  0.0458
  245MOL0     C33681   2.740  11.885   0.796 -0.1953 -0.4709  0.4923
  245MOL0     C33682   2.787  12.021   0.763 -0.2067  0.3108  0.1800
  245MOL0     C33683   2.689  12.093   0.682 -0.6410 -0.1558 -0.0876
  245MOL0     C33684   2.742  12.219   0.619  0.0675 -0.5367 -0.7685
  245MOL0     C33685   2.728  12.329   0.713  0.3979 -1.0189 -0.0674
  245MOL0     C33686   2.801  12.452   0.662 -1.4325  0.0334 -0.0061
  245MOL0     C33687   2.793  12.582   0.737  0.0840 -1.0429 -0.3669
  245MOL0     C33688   2.700  12.681   0.666 -0.1361 -0.5950  1.0117
  245MOL0     N33689   2.697  12.810   0.735  0.4001  0.4338  0.5536
  245MOL0     C33690   2.581  12.883   0.756 -0.2606 -0.4104  0.5701
  245MOL0     C33691   2.629  12.996   0.814  0.1104 -0.1768  0.1934
  245MOL0     C33692   2.551  13.129   0.830 -0.3613  0.7458 -0.1136
  245MOL0     C33693   2.537  13.214   0.704 -0.5895 -0.5910  0.0910
  245MOL0     C33694   2.470  13.348   0.742  0.3828 -0.5622 -0.5204
  245MOL0     C33695   2.496  13.452   0.628 -0.6195  0.9707  0.7170
  245MOL0     O33696   2.418  13.403   0.515  0.2819 -0.1011 -0.3673
  245MOL0     C33697   2.416  13.492   0.408  0.5501 -1.0725  0.7080
  245MOL0     C33698   2.504  13.604   0.387  0.0430  0.4385  0.3642
  245MOL0     C33699   2.491  13.683   0.268 -0.8715  0.7139  0.7731
  245MOL0     C33700   2.596  13.789   0.251  0.4031 -0.8185 -0.2748
  245MOL0     C33701   2.389  13.638   0.171  0.1319 -0.6680 -0.6160
  245MOL0     C33702   2.358  13.714   0.047  0.5366  0.6132  0.5552
  245MOL0     O33703   2.241  13.675  -0.021 -0.4138 -0.4391  0.1224
  245MOL0     C33704   2.224  13.675  -0.155  0.3634  0.6749  0.0466
  245MOL0     C33705   2.308  13.737  -0.258  0.0185 -0.6625  0.1224
  245MOL0     C33706   2.278  13.708  -0.391  0.1593 -0.2433  0.3888
  245MOL0     C33707   2.169  13.635  -0.437  0.0328  0.6306 -0.3713
  245MOL0     O33708   2.151  13.608  -0.570 -0.5885  0.6356  0.0933
  245MOL0     C33709   2.203  13.699  -0.669 -0.5564 -0.0797  1.5291
  245MOL0     C33710   2.162  13.645  -0.808 -0.0985  0.6687 -0.8972
  245MOL0     C33711   2.142  13.757  -0.913  0.5690 -0.7355  0.2286
  245MOL0     C33712   2.137  13.692  -1.048 -0.9931 -0.2229 -0.1155
  245MOL0     C33713   2.274  13.637  -1.106  0.0356  0.2123 -1.1474
  245MOL0     C33714   2.352  13.760  -1.161 -1.0198  0.0306 -0.0903
  245MOL0     C33715   2.478  13.776  -1.073 -0.3826 -0.0437 -0.1380
  245MOL0     C33716   2.591  13.675  -1.099  0.6024 -0.4628 -0.1542
  245MOL0    Cl33717   2.743  13.747  -1.042  0.4538  0.0379 -0.7384
  245MOL0     C33718   2.097  13.570  -0.339 -0.2687 -0.4245  0.2503
  245MOL0     C33719   2.130  13.593  -0.204 -0.2532  0.8759 -0.2957
  245MOL0     O33720   2.425  13.801   0.006  0.2350  0.0331  0.7292
  245MOL0     C33721   2.309  13.523   0.193  0.0626 -0.1844  0.2025
  245MOL0     C33722   2.318  13.461   0.318  0.4416 -0.4841 -0.1229
  245MOL0     N33723   2.766  12.981   0.855  0.6916 -0.0813  0.2192
  245MOL0     N33724   2.806  12.878   0.790 -0.6385 -0.0923  0.3484
  245MOL0     C33725   2.745  11.618   0.915 -0.5475  0.1332 -0.1997
  245MOL0     C33726   2.729  11.527   1.016  0.7285  0.3468 -0.1109
  245MOL0     C33727   2.662  11.356   1.423 -0.5046 -0.1423 -0.2194
  245MOL0     C33728   2.537  11.297   1.435 -0.1769 -0.4260 -0.0273
  245MOL0     C33729   2.509  11.196   1.531 -0.9970  0.5331 -0.2572
  245MOL0     C33730   2.613  11.171   1.625 -0.0922  0.7428 -0.2731
  245MOL0     O33731   2.620  11.070   1.723  0.1109  0.1024  0.0182
  245MOL0     C33732   2.495  11.008   1.764  0.1804 -0.1214  0.4444
  245MOL0     C33733   2.452  10.887   1.685 -0.0818  0.2897  0.1765
  245MOL0     C33734   2.355  10.803   1.755  1.0103 -0.6305 -0.2302
  245MOL0     C33735   2.254  10.722   1.677  0.3392 -0.0931  0.2813
  245MOL0     C33736   2.324  10.624   1.594  0.0310 -0.0713 -0.1804
  245MOL0     C33737   2.373  10.546   1.504 -0.2978  0.1637 -0.4996
  245MOL0     C33738   2.735  11.235   1.618 -0.0258 -0.1863  0.1103
  245MOL0     C33739   2.770  11.320   1.512 -0.8681 -0.1830 -0.3453
  245MOL0     C33740   2.909  11.376   1.523  0.4053 -0.3037  0.2144
  245MOL0     H33741   2.972  11.610   1.232 -2.2763  3.2229  1.0443
  245MOL0     H33742   2.990  11.799   1.079 -0.6986 -0.4525  2.1627
  245MOL0     H33743   2.664  11.891   0.875 -1.9260 -1.0991 -1.0735
  245MOL0     H33744   2.696  11.829   0.713  0.5300  1.4491 -1.2741
  245MOL0     H33745   2.817  12.070   0.856 -0.4568 -0.8574  0.8947
  245MOL0     H33746   2.870  12.004   0.695 -1.1472 -2.7231 -0.3586
  245MOL0     H33747   2.657  12.032   0.597 -0.9539 -0.3871  0.1917
  245MOL0     H33748   2.600  12.128   0.734 -1.8222  0.4982 -2.3919
  245MOL0     H33749   2.848  12.197   0.605  0.4712  0.6608  0.2901
  245MOL0     H33750   2.693  12.237   0.523 -1.8913 -1.2903  0.0365
  245MOL0     H33751   2.776  12.311   0.810  4.1524  0.4106 -1.4859
  245MOL0     H33752   2.625  12.361   0.731  1.9634  3.2694  2.7691
  245MOL0     H33753   2.908  12.429   0.659 -1.1316  1.4974 -1.9006
  245MOL0     H33754   2.776  12.477   0.559  0.6668  3.2328  0.1321
  245MOL0     H33755   2.892  12.629   0.733  0.1151 -1.1660 -2.8794
  245MOL0     H33756   2.767  12.563   0.841  1.7497  0.6924  0.4262
  245MOL0     H33757   2.730  12.703   0.563  1.3937  1.9386  1.9024
  245MOL0     H33758   2.599  12.640   0.656 -0.1090 -0.8879  1.8447
  245MOL0     H33759   2.481  12.862   0.719 -0.3813  1.4283 -0.2637
  245MOL0     H33760   2.607  13.188   0.903 -0.0245 -0.5289  0.6930
  245MOL0     H33761   2.453  13.107   0.873 -0.3896 -0.7386 -0.8411
  245MOL0     H33762   2.635  13.232   0.659 -0.7210  2.3088  0.7613
  245MOL0     H33763   2.482  13.159   0.628  0.7564  0.5643 -1.7915
  245MOL0     H33764   2.364  13.338   0.768 -0.2271  0.6330 -2.3551
  245MOL0     H33765   2.511  13.388   0.835  0.5709 -1.4058 -0.2315
  245MOL0     H33766   2.481  13.553   0.668 -0.5695  1.9962 -1.7015
  245MOL0     H33767   2.601  13.449   0.597  0.4488 -0.4904  4.0176
  245MOL0     H33768   2.579  13.635   0.460 -1.2755  0.8639  1.5998
  245MOL0     H33769   2.588  13.857   0.165  0.0630 -1.6989 -0.9597
  245MOL0     H33770   2.691  13.735   0.255  1.0038  0.2827  2.7392
  245MOL0     H33771   2.596  13.841   0.347  0.1991 -0.6654 -0.3561
  245MOL0     H33772   2.394  13.801  -0.241 -0.2901 -0.8093  2.4854
  245MOL0     H33773   2.344  13.756  -0.462 -0.0797  0.0657  0.3711
  245MOL0     H33774   2.153  13.795  -0.656 -1.6216  0.5073 -4.1332
  245MOL0     H33775   2.309  13.717  -0.652  0.0031  0.2099 -1.6906
  245MOL0     H33776   2.239  13.572  -0.833 -0.2205  0.6394 -1.1905
  245MOL0     H33777   2.065  13.596  -0.799  0.3671  0.0728  2.2391
  245MOL0     H33778   2.224  13.828  -0.899 -1.3013  0.8838  4.5517
  245MOL0     H33779   2.048  13.808  -0.888  0.4335 -1.7359  1.8326
  245MOL0     H33780   2.111  13.776  -1.114 -0.8640  0.6745  0.9574
  245MOL0     H33781   2.065  13.609  -1.050  1.0256 -2.0542 -1.3078
  245MOL0     H33782   2.324  13.580  -1.028  1.1072  2.8116  0.1776
  245MOL0     H33783   2.265  13.575  -1.196  2.6006  0.2084 -1.4644
  245MOL0     H33784   2.289  13.850  -1.157 -0.4067  0.4147  1.3196
  245MOL0     H33785   2.385  13.761  -1.266  1.7175 -1.5057  0.6663
  245MOL0     H33786   2.459  13.768  -0.965  1.1651  0.2172  0.1725
  245MOL0     H33787   2.512  13.880  -1.084  0.7498 -0.1621  1.7337
  245MOL0     H33788   2.599  13.648  -1.205  2.1115 -2.5929  0.4169
  245MOL0     H33789   2.567  13.589  -1.036 -1.2913 -0.3529 -0.6793
  245MOL0     H33790   2.010  13.516  -0.374 -1.6223  2.0255 -0.3401
  245MOL0     H33791   2.068  13.537  -0.135  0.5308  1.0900  0.6054
  245MOL0     H33792   2.217  13.493   0.145  1.3106  0.4770 -2.8230
  245MOL0     H33793   2.246  13.383   0.342  1.1722 -1.5417 -1.2195
  245MOL0     H33794   2.671  11.623   0.835 -2.1257  0.8217  1.2356
  245MOL0     H33795   2.656  11.446   1.019 -1.4608  2.1868  3.5361
  245MOL0     H33796   2.465  11.326   1.359 -0.4827  2.8423  1.3525
  245MOL0     H33797   2.425  11.128   1.532 -2.1399  1.8638 -0.9970
  245MOL0     H33798   2.510  10.971   1.866 -1.5946  1.2111  1.2453
  245MOL0     H33799   2.413  11.079   1.766  0.8117  0.6092  1.6449
  245MOL0     H33800   2.540  10.824   1.668  0.5936  1.0567  0.7596
  245MOL0     H33801   2.408  10.912   1.588  1.5195  1.6107 -0.2550
  245MOL0     H33802   2.410  10.728   1.812 -0.9391 -1.0109  1.2675
  245MOL0     H33803   2.304  10.864   1.830  3.0144  0.5727  0.2478
  245MOL0     H33804   2.202  10.788   1.607  1.2898  0.8038  0.3907
  245MOL0     H33805   2.185  10.662   1.738  0.3607 -0.1354  0.2651
  245MOL0     H33806   2.406  10.478   1.428 -1.3241  0.4511 -1.2328
  245MOL0     H33807   2.818  11.208   1.684 -0.1411 -0.5486  0.1088
  245MOL0     H33808   2.922  11.481   1.497 -0.2747 -0.7714 -2.3045
  245MOL0     H33809   2.957  11.352   1.619 -3.0899  0.6391  2.3788
  245MOL0     H33810   2.971  11.320   1.452 -0.7263  0.4458 -1.4227
  246MOL0     O33811   4.944   3.261   9.227  0.1342 -0.0747 -0.4545
  246MOL0     C33812   4.862   3.170   9.220  0.0785  1.0233  0.2504
  246MOL0     O33813   4.869   3.051   9.292 -0.1159  0.0385  0.2842
  246MOL0     C33814   4.980   3.017   9.379 -0.2818 -0.1622 -0.6576
  246MOL0     C33815   4.971   2.939   9.502  0.0504 -0.3086  0.8068
  246MOL0     C33816   5.084   2.886   9.568  0.7201 -0.6503  0.7098
  246MOL0     C33817   5.210   2.906   9.508  0.1006  0.4189  0.2935
  246MOL0     O33818   5.329   2.869   9.571  0.3623  0.2179  0.3295
  246MOL0     C33819   5.341   2.820   9.710  0.8481 -0.8025  0.1906
  246MOL0     C33820   5.321   2.934   9.809  0.8308 -0.5159 -0.0846
  246MOL0     C33821   5.386   3.071   9.764 -0.2427 -0.0259 -0.9422
  246MOL0     C33822   5.350   3.174   9.872  1.3704  0.5794  0.7139
  246MOL0     C33823   5.370   3.315   9.803  0.0174 -0.1389  0.2810
  246MOL0     C33824   5.369   3.447   9.886 -0.4757 -1.2954  0.2157
  246MOL0     C33825   5.244   3.469   9.966 -0.1600  1.2936 -0.5013
  246MOL0     C33826   5.259   3.595  10.053 -0.0964 -1.1953 -0.1540
  246MOL0     N33827   5.305   3.722   9.981  1.0047  0.2293 -0.3060
  246MOL0     C33828   5.246   3.764   9.868  0.6431 -0.8108 -0.0950
  246MOL0     C33829   5.313   3.880   9.832  0.2856 -0.0028  1.0680
  246MOL0     C33830   5.260   3.972   9.720 -0.5148 -0.6039 -0.1937
  246MOL0     C33831   5.363   4.061   9.662 -0.5190  0.3407  1.0392
  246MOL0     C33832   5.316   4.178   9.573  0.4348 -0.1067 -0.3664
  246MOL0     C33833   5.234   4.123   9.455 -0.3133  0.3927 -0.5191
  246MOL0     O33834   5.318   4.046   9.366 -0.0820 -0.1932  0.1435
  246MOL0     C33835   5.254   3.977   9.267  0.5657  0.4811  0.2946
  246MOL0     C33836   5.339   3.889   9.193 -0.2127  1.0863 -0.4382
  246MOL0     C33837   5.289   3.815   9.080 -0.2547 -1.3744 -0.0130
  246MOL0     C33838   5.388   3.734   9.002  0.7487  0.7823  0.6582
  246MOL0     C33839   5.151   3.838   9.036  0.1458 -0.0239  0.9844
  246MOL0     C33840   5.101   3.776   8.910 -0.8674 -0.3534  0.0819
  246MOL0     O33841   4.971   3.745   8.915 -0.6210  0.0253 -0.0806
  246MOL0     C33842   4.901   3.691   8.809  0.5366 -0.4868 -1.3445
  246MOL0     C33843   4.958   3.612   8.710 -0.5368  0.0577 -0.3688
  246MOL0     C33844   4.880   3.567   8.610  0.0650  0.2437  1.5422
  246MOL0     C33845   4.737   3.577   8.603 -1.2245 -0.5386  0.2004
  246MOL0     O33846   4.664   3.512   8.499 -0.3515  0.1464 -0.2593
  246MOL0     C33847   4.532   3.562   8.469 -0.8226 -0.9711 -0.0691
  246MOL0     C33848   4.485   3.516   8.329  0.0561 -0.5323 -0.6439
  246MOL0     C33849   4.344   3.570   8.294  0.9148  0.2658  0.0265
  246MOL0     C33850   4.253   3.462   8.238  0.9806 -0.4028  0.4127
  246MOL0     C33851   4.099   3.510   8.228 -0.3099 -0.0882 -0.4076
  246MOL0     C33852   4.037   3.475   8.095 -0.6323 -0.8162  0.5025
  246MOL0     C33853   4.001   3.326   8.067  0.3337  0.6478 -0.9203
  246MOL0     C33854   3.931   3.272   8.185 -0.3317 -0.0675 -0.5936
  246MOL0    Cl33855   3.850   3.118   8.140  0.2664 -0.0663  0.5106
  246MOL0     C33856   4.681   3.651   8.704 -0.6242 -0.0285  0.1349
  246MOL0     C33857   4.760   3.710   8.808 -0.1728 -0.9809 -0.4771
  246MOL0     O33858   5.174   3.791   8.811  0.2974  0.7380  0.0593
  246MOL0     C33859   5.069   3.936   9.098 -0.6993  0.1925 -0.5611
  246MOL0     C33860   5.117   3.999   9.218  0.5878 -0.9527 -0.2453
  246MOL0     N33861   5.395   3.915   9.933  0.0362  0.4470 -0.3062
  246MOL0     N33862   5.400   3.816  10.024 -0.5010 -0.7720 -0.2141
  246MOL0     C33863   5.226   2.981   9.399 -1.0670 -0.1457  0.1284
  246MOL0     C33864   5.115   3.045   9.345  0.1678  0.9500  0.1492
  246MOL0     C33865   4.739   3.184   9.134  0.5684  0.6100  0.0397
  246MOL0     C33866   4.651   3.079   9.129 -0.8465 -0.0141  0.0512
  246MOL0     C33867   4.534   3.099   9.071  0.9347  0.5911 -0.2053
  246MOL0     C33868   4.489   3.210   8.994  0.0288  0.5938 -0.5367
  246MOL0     O33869   4.365   3.227   8.931 -0.0402 -0.5225 -0.4846
  246MOL0     C33870   4.276   3.115   8.918 -0.4301  0.5188  0.7626
  246MOL0     C33871   4.335   3.006   8.812  0.6453 -0.2576 -0.8507
  246MOL0     C33872   4.252   3.007   8.685  0.2336  0.1408 -0.0822
  246MOL0     C33873   4.267   3.150   8.609  0.8637  0.4957 -0.6912
  246MOL0     C33874   4.410   3.181   8.577 -0.3120 -0.3539  0.4923
  246MOL0     C33875   4.528   3.212   8.566  0.0761  1.0192 -0.2618
  246MOL0     C33876   4.579   3.318   8.992  0.1066 -0.3961 -0.3609
  246MOL0     C33877   4.707   3.305   9.058 -0.1943  0.3727  0.5540
  246MOL0     C33878   4.805   3.412   9.029  0.7601 -0.1212 -1.5337
  246MOL0     H33879   4.869   2.919   9.531 -0.2948 -1.2918 -0.9145
  246MOL0     H33880   5.078   2.843   9.667  0.1376  1.1943  1.5300
  246MOL0     H33881   5.440   2.774   9.716 -0.1974 -3.2140  0.0756
  246MOL0     H33882   5.262   2.751   9.742 -0.4625  0.1367 -0.9093
  246MOL0     H33883   5.213   2.932   9.822  0.4824 -2.5438 -2.5549
  246MOL0     H33884   5.367   2.900   9.903  0.1032  0.0268  0.4858
  246MOL0     H33885   5.494   3.061   9.749 -0.5257 -0.3955 -3.0619
  246MOL0     H33886   5.340   3.091   9.667 -0.5756  0.3675 -0.7060
  246MOL0     H33887   5.245   3.167   9.901  0.4442 -2.8119 -2.6184
  246MOL0     H33888   5.403   3.153   9.965  1.9779  0.0750  0.2680
  246MOL0     H33889   5.297   3.326   9.723 -2.0245  0.3646  2.0984
  246MOL0     H33890   5.470   3.304   9.760  1.2401 -2.1410  3.2576
  246MOL0     H33891   5.459   3.442   9.949 -0.9195 -1.3459  0.8576
  246MOL0     H33892   5.386   3.520   9.808 -1.6276 -0.8655  0.3463
  246MOL0     H33893   5.213   3.382  10.024  0.1618  1.2137 -0.4460
  246MOL0     H33894   5.156   3.495   9.906  0.0706  4.8351  0.4496
  246MOL0     H33895   5.164   3.624  10.099  1.3351  2.0919  1.0467
  246MOL0     H33896   5.322   3.584  10.141 -2.5697 -0.4550  1.8493
  246MOL0     H33897   5.168   3.721   9.806 -1.8587  2.4218  0.5593
  246MOL0     H33898   5.178   4.032   9.761 -0.5542 -1.6321  1.3284
  246MOL0     H33899   5.229   3.910   9.636 -0.5607  0.1335 -0.7280
  246MOL0     H33900   5.432   4.109   9.732  1.5118  1.1256 -1.3622
  246MOL0     H33901   5.415   3.994   9.594 -1.2929 -2.7917  3.3204
  246MOL0     H33902   5.251   4.241   9.634  2.7866  1.1103  1.0504
  246MOL0     H33903   5.399   4.244   9.546  1.4155 -1.0148  0.3613
  246MOL0     H33904   5.148   4.067   9.494 -1.3196 -0.0033 -3.0713
  246MOL0     H33905   5.201   4.211   9.400  1.8992  2.0296  0.6402
  246MOL0     H33906   5.444   3.870   9.211 -1.0798 -2.5691  1.8250
  246MOL0     H33907   5.346   3.649   8.948  2.2698 -0.4025  1.2934
  246MOL0     H33908   5.463   3.692   9.069 -0.2314  1.9279  2.5475
  246MOL0     H33909   5.428   3.809   8.932  1.6330  0.6225  0.9879
  246MOL0     H33910   5.063   3.587   8.698 -0.6165 -0.6127  0.2439
  246MOL0     H33911   4.920   3.510   8.527 -3.5368  0.2560 -0.4071
  246MOL0     H33912   4.472   3.521   8.551 -1.2766 -0.6091 -0.2170
  246MOL0     H33913   4.551   3.670   8.466 -0.6266 -0.9128  1.8818
  246MOL0     H33914   4.555   3.554   8.255 -1.6850  1.1143 -1.5210
  246MOL0     H33915   4.474   3.408   8.340 -2.6435 -0.4490 -1.8464
  246MOL0     H33916   4.338   3.655   8.225  1.2364  0.7483  0.5784
  246MOL0     H33917   4.312   3.611   8.390  3.0861  0.0312  0.8893
  246MOL0     H33918   4.249   3.359   8.276 -1.1025 -1.1560 -1.5931
  246MOL0     H33919   4.296   3.450   8.139  2.5056 -3.1516  1.2842
  246MOL0     H33920   4.038   3.471   8.310  0.5804 -1.9138 -0.5714
  246MOL0     H33921   4.087   3.619   8.231 -1.5918 -0.2283  0.0378
  246MOL0     H33922   4.106   3.509   8.018 -0.5486 -0.7763  0.5951
  246MOL0     H33923   3.942   3.530   8.092 -2.0137 -3.0610  0.5185
  246MOL0     H33924   4.085   3.264   8.034  0.5656  1.2642 -1.5109
  246MOL0     H33925   3.928   3.336   7.986 -1.7243 -0.3094  0.7265
  246MOL0     H33926   3.851   3.343   8.208  1.0746  3.2825 -4.7105
  246MOL0     H33927   4.000   3.260   8.269  0.0629 -0.7561 -1.0075
  246MOL0     H33928   4.575   3.670   8.700 -0.3491  1.3527 -1.3669
  246MOL0     H33929   4.712   3.760   8.891  1.7962  0.7456 -0.2801
  246MOL0     H33930   4.969   3.962   9.064 -0.0655  1.5616 -1.5082
  246MOL0     H33931   5.056   4.070   9.273 -0.6740  0.6782 -3.4846
  246MOL0     H33932   5.330   2.998   9.370 -0.6125 -1.2362  1.0378
  246MOL0     H33933   5.140   3.114   9.264  2.1202  0.3127  0.1415
  246MOL0     H33934   4.674   2.981   9.169  0.9143  1.9500  4.3995
  246MOL0     H33935   4.456   3.025   9.084 -1.7756  3.6330  2.5141
  246MOL0     H33936   4.251   3.076   9.017 -0.5798 -0.8562  0.1978
  246MOL0     H33937   4.184   3.156   8.875 -0.6534  0.7795  1.4709
  246MOL0     H33938   4.317   2.910   8.862  1.7928  0.1262  0.3442
  246MOL0     H33939   4.445   3.010   8.805  1.4823 -4.0682  4.0201
  246MOL0     H33940   4.298   2.931   8.622  2.2565  3.3865 -2.9193
  246MOL0     H33941   4.147   2.990   8.709 -0.1738 -4.9828 -3.8863
  246MOL0     H33942   4.207   3.226   8.658 -0.0628 -0.3448 -0.4771
  246MOL0     H33943   4.218   3.128   8.513  0.3908 -2.3138  0.1023
  246MOL0     H33944   4.631   3.240   8.558  0.0410  2.6048  2.9856
  246MOL0     H33945   4.545   3.408   8.942  1.9669  1.3685  1.3489
  246MOL0     H33946   4.866   3.369   8.950 -0.0328 -3.7842 -0.3308
  246MOL0     H33947   4.755   3.504   8.997 -0.2669  1.1505  2.9708
  246MOL0     H33948   4.860   3.448   9.117 -2.0815  2.2468 -0.5455
  247MOL0     O33949   5.649   9.357   3.801 -0.0910 -0.0353 -0.0107
  247MOL0     C33950   5.675   9.396   3.691  0.3208  0.1012  0.2168
  247MOL0     O33951   5.788   9.350   3.623  0.2427 -0.0309 -0.3887
  247MOL0     C33952   5.803   9.220   3.618  0.4120  1.0578 -0.2798
  247MOL0     C33953   5.697   9.130   3.617 -0.5167 -0.9236  0.0729
  247MOL0     C33954   5.712   8.992   3.597 -0.8989 -0.7247 -0.8873
  247MOL0     C33955   5.840   8.941   3.555  0.1637  0.0969  0.0523
  247MOL0     O33956   5.879   8.808   3.544 -0.0235 -0.3448 -0.3637
  247MOL0     C33957   5.784   8.711   3.601 -0.1067 -0.6838 -0.2430
  247MOL0     C33958   5.669   8.680   3.492 -0.5657  0.3378 -0.1334
  247MOL0     C33959   5.695   8.548   3.416 -0.2743 -0.7249 -0.3804
  247MOL0     C33960   5.818   8.553   3.324 -0.2130  0.0588 -0.7891
  247MOL0     C33961   5.859   8.415   3.271 -0.4054  0.0855  0.5838
  247MOL0     C33962   5.914   8.427   3.127 -0.3140  0.7287  0.3779
  247MOL0     C33963   5.969   8.287   3.075 -0.5115  0.4915  0.1828
  247MOL0     C33964   6.093   8.250   3.167 -0.5990 -0.3341  0.3541
  247MOL0     N33965   6.158   8.131   3.115 -1.1492  0.5764  0.5373
  247MOL0     C33966   6.258   8.121   3.036 -1.4164 -0.6865 -0.4966
  247MOL0     C33967   6.288   7.988   3.026  0.1012 -0.5926 -0.5336
  247MOL0     C33968   6.405   7.920   2.958  0.8235  0.8509 -0.1610
  247MOL0     C33969   6.457   7.980   2.833  0.4327 -0.9770 -0.3066
  247MOL0     C33970   6.384   7.931   2.711  0.6174  0.0207 -0.6183
  247MOL0     C33971   6.403   8.029   2.602 -0.3108  0.3554  0.9230
  247MOL0     O33972   6.369   8.160   2.630 -0.3661  0.1946 -0.3533
  247MOL0     C33973   6.255   8.221   2.588  0.4465 -0.4384 -0.5034
  247MOL0     C33974   6.144   8.159   2.526  0.0035  0.1660  0.1475
  247MOL0     C33975   6.022   8.222   2.505  0.5464  0.0281  0.0011
  247MOL0     C33976   5.911   8.158   2.424  0.2109  0.9311  0.2386
  247MOL0     C33977   6.001   8.352   2.566 -0.1387  0.3633  1.5522
  247MOL0     C33978   5.869   8.424   2.569  0.2692  0.2130 -0.0475
  247MOL0     O33979   5.870   8.559   2.562  0.3305 -0.2469 -0.1272
  247MOL0     C33980   5.749   8.628   2.563 -0.1453  0.7045  0.8659
  247MOL0     C33981   5.721   8.699   2.680  0.2446  0.2347  0.6289
  247MOL0     C33982   5.595   8.751   2.700  0.2597  1.1599 -0.1130
  247MOL0     C33983   5.489   8.744   2.605 -0.8498  1.5931  0.5330
  247MOL0     O33984   5.358   8.779   2.609  0.3091  0.2102  0.3182
  247MOL0     C33985   5.305   8.838   2.724  0.3234 -0.4108  0.6318
  247MOL0     C33986   5.187   8.760   2.781 -0.5303  0.2664  0.1603
  247MOL0     C33987   5.066   8.737   2.684  0.8247 -0.4344  1.2082
  247MOL0     C33988   4.949   8.681   2.755 -0.0552 -0.0579 -0.8311
  247MOL0     C33989   4.836   8.631   2.662  0.2090 -0.2384 -0.3352
  247MOL0     C33990   4.789   8.714   2.541 -0.3671  0.0788  0.3524
  247MOL0     C33991   4.730   8.851   2.573 -0.5111  0.5482  0.0781
  247MOL0     C33992   4.692   8.922   2.439  0.5791 -0.5864  0.1447
  247MOL0    Cl33993   4.569   9.056   2.473  0.2311  0.1898  0.4833
  247MOL0     C33994   5.526   8.682   2.485 -0.7467  0.5065  0.5346
  247MOL0     C33995   5.647   8.619   2.464 -0.4767 -0.3197  0.1426
  247MOL0     O33996   5.764   8.359   2.584 -0.1139 -0.0851 -0.5843
  247MOL0     C33997   6.118   8.422   2.618  0.8598  0.0715  0.9877
  247MOL0     C33998   6.237   8.354   2.626 -0.1248 -0.4729  1.1565
  247MOL0     N33999   6.202   7.919   3.111 -0.1141 -0.0352  0.2810
  247MOL0     N34000   6.127   8.007   3.155 -1.1164 -0.1697  0.6535
  247MOL0     C34001   5.943   9.032   3.535 -1.1453 -0.1415 -0.0220
  247MOL0     C34002   5.927   9.167   3.573  0.2430  0.1443 -0.0968
  247MOL0     C34003   5.576   9.496   3.636  0.0151  1.2935  0.3068
  247MOL0     C34004   5.624   9.586   3.544 -0.0813 -0.4672 -0.4760
  247MOL0     C34005   5.539   9.690   3.499 -0.4997 -0.7527 -0.0580
  247MOL0     C34006   5.406   9.671   3.503  0.2656 -0.7732  0.0170
  247MOL0     O34007   5.329   9.758   3.431 -0.1229 -0.2090 -0.4909
  247MOL0     C34008   5.195   9.718   3.407 -0.0501 -0.5508  0.4108
  247MOL0     C34009   5.134   9.813   3.312 -0.0323  0.1940  0.4888
  247MOL0     C34010   4.992   9.789   3.290 -0.6351 -0.3128  0.7658
  247MOL0     C34011   4.947   9.866   3.164  0.8329  0.1051  1.2685
  247MOL0     C34012   4.806   9.833   3.133  1.2398 -0.8794  1.0386
  247MOL0     C34013   4.694   9.802   3.095 -0.5609  0.3776 -0.0880
  247MOL0     C34014   5.352   9.585   3.593 -0.1281  0.6695  0.1927
  247MOL0     C34015   5.434   9.490   3.660 -0.3712 -0.9819  1.0840
  247MOL0     C34016   5.367   9.386   3.749  0.1439  1.0951  0.4991
  247MOL0     H34017   5.597   9.162   3.645 -0.9316 -0.2922 -1.9710
  247MOL0     H34018   5.631   8.923   3.615  0.3357 -1.9494  0.2473
  247MOL0     H34019   5.743   8.759   3.690  0.3096  1.1531 -1.0030
  247MOL0     H34020   5.834   8.621   3.640 -4.1425 -1.7552  3.1628
  247MOL0     H34021   5.566   8.683   3.530 -1.6285  0.0897 -2.7245
  247MOL0     H34022   5.659   8.762   3.420  1.1746  1.4972  0.8697
  247MOL0     H34023   5.704   8.470   3.492 -0.7776 -0.3690  0.0530
  247MOL0     H34024   5.616   8.515   3.348 -0.3144  1.1131 -1.3093
  247MOL0     H34025   5.799   8.620   3.240 -0.1348 -1.2441 -1.8792
  247MOL0     H34026   5.893   8.594   3.393 -1.3946 -0.5528  0.9376
  247MOL0     H34027   5.781   8.338   3.272 -0.3423 -0.0411 -1.2916
  247MOL0     H34028   5.940   8.377   3.334 -0.8609  1.7663  2.2970
  247MOL0     H34029   5.830   8.459   3.066  1.5554  2.0179 -1.6630
  247MOL0     H34030   5.992   8.503   3.119  0.7870 -0.5830 -3.1694
  247MOL0     H34031   6.004   8.295   2.972  0.7581  0.9035  0.6245
  247MOL0     H34032   5.891   8.210   3.078 -0.7142  0.7100  0.8312
  247MOL0     H34033   6.166   8.331   3.165 -0.6198 -0.1457  3.1030
  247MOL0     H34034   6.072   8.234   3.273  2.3415 -1.3387  0.8627
  247MOL0     H34035   6.303   8.214   3.003  0.1421 -0.2482  2.4581
  247MOL0     H34036   6.359   7.822   2.940 -2.0460  2.0400  0.1948
  247MOL0     H34037   6.480   7.917   3.037 -3.0129 -1.5594  3.8315
  247MOL0     H34038   6.426   8.082   2.858  1.1960 -0.8025 -0.0399
  247MOL0     H34039   6.565   7.983   2.815  0.3448  1.8603 -0.8612
  247MOL0     H34040   6.430   7.835   2.685 -2.6137 -2.5241  2.1272
  247MOL0     H34041   6.277   7.919   2.730 -0.1710  5.5105  0.1145
  247MOL0     H34042   6.511   8.017   2.585 -0.4810 -0.1098  0.0786
  247MOL0     H34043   6.352   7.993   2.512  0.5150 -0.4916  0.7740
  247MOL0     H34044   6.147   8.056   2.492  3.6153  0.2468 -0.1808
  247MOL0     H34045   5.948   8.075   2.363  0.1738  0.9921  0.1329
  247MOL0     H34046   5.856   8.230   2.363  1.4508 -0.7305 -3.0922
  247MOL0     H34047   5.839   8.111   2.492  2.4402 -0.9259  1.4497
  247MOL0     H34048   5.796   8.706   2.759 -0.4584  1.5938  1.2004
  247MOL0     H34049   5.582   8.795   2.799  0.7624 -5.3356  3.3809
  247MOL0     H34050   5.380   8.852   2.803  1.5335  0.5202 -0.6287
  247MOL0     H34051   5.268   8.937   2.696 -0.5171 -0.1327  2.5664
  247MOL0     H34052   5.217   8.664   2.824  0.2540 -0.1758 -1.2983
  247MOL0     H34053   5.162   8.810   2.875 -1.7472 -0.6980  0.3717
  247MOL0     H34054   5.099   8.663   2.610  0.9143  0.6094  0.1737
  247MOL0     H34055   5.040   8.818   2.615  2.3467 -0.4434  0.5662
  247MOL0     H34056   4.918   8.755   2.830 -2.4415  1.4054 -3.1075
  247MOL0     H34057   4.978   8.593   2.814  1.0399  0.7709 -0.0980
  247MOL0     H34058   4.859   8.530   2.625  0.2815  0.2207 -1.6197
  247MOL0     H34059   4.738   8.609   2.705 -0.1409 -0.5399 -1.2453
  247MOL0     H34060   4.713   8.653   2.490  0.3189 -1.5672  1.2232
  247MOL0     H34061   4.876   8.728   2.476 -2.9742  0.1576 -3.4822
  247MOL0     H34062   4.804   8.913   2.624 -0.3516 -0.5719  1.2508
  247MOL0     H34063   4.642   8.834   2.637  0.5546 -0.5912  1.3108
  247MOL0     H34064   4.645   8.855   2.367  0.7354  0.6209 -1.1403
  247MOL0     H34065   4.784   8.969   2.403  0.2195  0.0203  0.0030
  247MOL0     H34066   5.450   8.677   2.408 -1.7699 -0.5476  1.5687
  247MOL0     H34067   5.665   8.573   2.368  2.6979  1.1686 -0.1069
  247MOL0     H34068   6.115   8.527   2.648 -1.6588  0.4097 -0.1879
  247MOL0     H34069   6.322   8.415   2.658  1.4204 -1.9074 -0.0082
  247MOL0     H34070   6.040   9.004   3.495 -0.5809 -0.0832  1.2558
  247MOL0     H34071   6.012   9.233   3.556  0.0489 -0.2050 -2.8014
  247MOL0     H34072   5.730   9.601   3.526 -0.6654  2.1222 -2.5891
  247MOL0     H34073   5.586   9.772   3.445 -1.0829  0.4104  1.1360
  247MOL0     H34074   5.191   9.615   3.372  0.3840 -0.4049 -0.0783
  247MOL0     H34075   5.135   9.716   3.499 -1.1410  1.5468 -0.1787
  247MOL0     H34076   5.196   9.814   3.222  0.6025 -0.1377  0.9122
  247MOL0     H34077   5.148   9.912   3.355  3.0445  0.9999 -1.9861
  247MOL0     H34078   4.974   9.681   3.284 -0.1115 -0.5661  3.1220
  247MOL0     H34079   4.954   9.833   3.382  0.7879  0.7685  0.8625
  247MOL0     H34080   5.020   9.836   3.088  1.8151  2.8320  1.0111
  247MOL0     H34081   4.956   9.975   3.171 -0.7588  0.2322  1.8015
  247MOL0     H34082   4.598   9.782   3.050  0.1521 -0.0013 -1.4801
  247MOL0     H34083   5.247   9.587   3.622  0.1359 -0.7117  1.3150
  247MOL0     H34084   5.375   9.287   3.701 -2.2729  1.2216 -0.3427
  247MOL0     H34085   5.412   9.384   3.848  1.6608  0.6615 -0.1654
  247MOL0     H34086   5.260   9.412   3.748 -0.7492 -1.8583 -2.8162
  248MOL0     O34087   7.965   7.056   3.345  0.6685 -0.2590  0.3092
  248MOL0     C34088   8.023   7.048   3.455 -0.5414  0.8148 -0.0534
  248MOL0     O34089   8.156   7.074   3.475  0.3691 -0.1771 -0.0902
  248MOL0     C34090   8.231   7.108   3.370 -0.5080  0.4313 -0.9030
  248MOL0     C34091   8.291   7.008   3.286  0.2503  0.0949 -0.3646
  248MOL0     C34092   8.387   7.041   3.189 -0.7558 -0.3700  0.4543
  248MOL0     C34093   8.408   7.177   3.158 -0.0794  0.5446 -0.1010
  248MOL0     O34094   8.518   7.203   3.076  0.2853 -0.4835  0.0101
  248MOL0     C34095   8.504   7.178   2.933 -0.5435 -0.6489 -0.7551
  248MOL0     C34096   8.605   7.259   2.860  0.0246  0.1466  0.3927
  248MOL0     C34097   8.607   7.248   2.707 -0.0385  0.2853  0.8478
  248MOL0     C34098   8.719   7.150   2.664 -0.1481 -0.4230 -0.4127
  248MOL0     C34099   8.769   7.153   2.519  0.4801 -0.0406  0.3124
  248MOL0     C34100   8.648   7.125   2.422 -1.0118  1.2280 -0.1683
  248MOL0     C34101   8.690   7.077   2.286 -0.7428 -0.0211  0.5899
  248MOL0     C34102   8.733   6.931   2.271 -0.0327  0.4878 -0.1077
  248MOL0     N34103   8.773   6.908   2.129  0.3127  0.3853 -0.2455
  248MOL0     C34104   8.685   6.925   2.022  0.0392  0.1798 -1.2624
  248MOL0     C34105   8.758   6.886   1.913 -0.4165 -0.7805 -0.4580
  248MOL0     C34106   8.719   6.850   1.775  0.0657  0.6806  0.2114
  248MOL0     C34107   8.756   6.960   1.678  0.0621 -0.5505 -0.2507
  248MOL0     C34108   8.784   6.901   1.533 -0.3656  0.2335  0.7070
  248MOL0     C34109   8.856   7.012   1.442 -0.1666  0.4452  0.3528
  248MOL0     O34110   8.972   7.066   1.494 -1.5782  0.7749  0.6869
  248MOL0     C34111   9.029   7.176   1.418 -0.5985  0.5681  0.9015
  248MOL0     C34112   9.136   7.233   1.487  0.7995 -0.2447  0.1521
  248MOL0     C34113   9.201   7.350   1.449 -0.2519 -0.3894  0.7473
  248MOL0     C34114   9.318   7.397   1.520  0.0576  0.3057 -0.3405
  248MOL0     C34115   9.144   7.420   1.335  0.9878  0.0228  0.3755
  248MOL0     C34116   9.200   7.550   1.283 -0.8889 -0.0747 -0.3339
  248MOL0     O34117   9.224   7.658   1.369  0.1583 -0.3816  0.4887
  248MOL0     C34118   9.291   7.772   1.322  0.1507 -1.6078 -0.8218
  248MOL0     C34119   9.279   7.837   1.202  0.5522 -0.3314 -0.2353
  248MOL0     C34120   9.346   7.959   1.178 -1.0349 -0.3090 -1.0369
  248MOL0     C34121   9.444   8.003   1.271  0.5362 -0.0817  1.8508
  248MOL0     O34122   9.521   8.109   1.246  0.1946 -0.6248  0.1711
  248MOL0     C34123   9.603   8.100   1.128 -0.2347  0.6745 -0.6860
  248MOL0     C34124   9.722   8.197   1.145  0.0024  0.2259  0.0764
  248MOL0     C34125   9.667   8.343   1.170 -0.0013  0.6204  0.2878
  248MOL0     C34126   9.798   8.428   1.182  0.3398 -0.3080  0.2956
  248MOL0     C34127   9.757   8.584   1.184  0.2463 -0.7377  0.1176
  248MOL0     C34128   9.788   8.641   1.322  0.6259 -0.4245 -0.2466
  248MOL0     C34129   9.758   8.785   1.320  1.0400 -0.0285  0.4318
  248MOL0     C34130   9.825   8.848   1.447  0.8433 -0.1729  0.6874
  248MOL0    Cl34131   9.752   8.776   1.591 -0.4079 -0.1670 -0.2806
  248MOL0     C34132   9.463   7.930   1.385 -0.2793 -0.1820 -0.1670
  248MOL0     C34133   9.389   7.819   1.408 -0.0666 -0.6404 -0.0413
  248MOL0     O34134   9.243   7.544   1.171 -0.1961 -1.0155  0.2789
  248MOL0     C34135   9.031   7.370   1.268  0.7453 -0.6431 -0.7182
  248MOL0     C34136   8.980   7.245   1.304  0.0870 -0.6284 -0.7198
  248MOL0     N34137   8.890   6.856   1.954 -0.5269  0.3553  0.3614
  248MOL0     N34138   8.890   6.852   2.083  0.0089 -0.5808 -0.6865
  248MOL0     C34139   8.344   7.280   3.230 -0.8531 -0.0120  0.3031
  248MOL0     C34140   8.261   7.248   3.333 -0.5150  0.5646  0.1875
  248MOL0     C34141   7.950   6.986   3.568  0.1872 -0.7623 -0.2183
  248MOL0     C34142   8.010   6.888   3.643 -0.3880  0.1125 -0.1946
  248MOL0     C34143   7.956   6.832   3.759  0.0420  0.2909  0.1602
  248MOL0     C34144   7.830   6.869   3.796  0.1828 -0.4210 -0.2315
  248MOL0     O34145   7.764   6.835   3.911  0.0311  0.5698  0.0807
  248MOL0     C34146   7.841   6.791   4.024 -0.1886 -0.5473  0.0156
  248MOL0     C34147   7.846   6.647   4.027 -0.2921 -0.1325 -0.4753
  248MOL0     C34148   7.703   6.588   4.011 -0.2122  0.4860 -0.0371
  248MOL0     C34149   7.703   6.427   4.028  0.8848 -0.3064 -0.2351
  248MOL0     C34150   7.573   6.391   4.091  0.6057 -0.1597 -0.2370
  248MOL0     C34151   7.476   6.356   4.155 -0.1659  0.7009  0.1909
  248MOL0     C34152   7.763   6.960   3.715 -0.1280  0.7708 -0.2835
  248MOL0     C34153   7.823   7.030   3.609  0.6378  0.2851  0.3762
  248MOL0     C34154   7.733   7.132   3.533 -0.0574  0.3026 -0.2635
  248MOL0     H34155   8.262   6.907   3.313 -0.0208  0.2713  0.0204
  248MOL0     H34156   8.443   6.974   3.125 -1.5996  0.3118 -1.0437
  248MOL0     H34157   8.407   7.205   2.891  0.2030  1.6048 -1.1961
  248MOL0     H34158   8.513   7.071   2.914  0.4193 -0.3587 -2.0115
  248MOL0     H34159   8.618   7.364   2.888 -0.7434  0.7721 -1.4313
  248MOL0     H34160   8.698   7.210   2.892 -0.7312 -1.0932  0.7561
  248MOL0     H34161   8.508   7.210   2.682 -0.2194  0.2343  1.6248
  248MOL0     H34162   8.619   7.343   2.655 -1.5320 -0.4884 -1.0003
  248MOL0     H34163   8.807   7.179   2.723 -2.4859  1.0624  2.6613
  248MOL0     H34164   8.696   7.044   2.678 -0.5664 -0.8105 -3.3998
  248MOL0     H34165   8.850   7.081   2.512 -0.8292 -1.4421 -4.7292
  248MOL0     H34166   8.797   7.254   2.489  3.4819 -0.9973 -0.3725
  248MOL0     H34167   8.600   7.039   2.470  0.6922 -1.6408 -3.1366
  248MOL0     H34168   8.588   7.216   2.424 -0.7092  1.4528 -0.9067
  248MOL0     H34169   8.774   7.146   2.272 -1.0184  0.0926 -0.6193
  248MOL0     H34170   8.613   7.099   2.212 -1.0445  0.2482  0.9782
  248MOL0     H34171   8.811   6.918   2.346 -0.1107 -1.4337 -0.3184
  248MOL0     H34172   8.646   6.876   2.307  1.9716 -1.1431  2.5868
  248MOL0     H34173   8.580   6.949   2.034  0.1768 -0.5030  3.1805
  248MOL0     H34174   8.613   6.819   1.776  0.2762 -0.0729  0.5560
  248MOL0     H34175   8.773   6.758   1.750 -2.9360 -1.7846  2.0000
  248MOL0     H34176   8.690   7.046   1.667  1.3703  1.1142  3.4067
  248MOL0     H34177   8.854   6.996   1.709 -0.8270  2.6033 -0.7852
  248MOL0     H34178   8.858   6.821   1.547  0.8620  1.1812 -0.1410
  248MOL0     H34179   8.697   6.865   1.476  0.7675  3.1517 -3.3083
  248MOL0     H34180   8.862   6.975   1.339 -0.9485 -1.7220  1.0460
  248MOL0     H34181   8.786   7.095   1.431  0.3050  0.7448 -0.5826
  248MOL0     H34182   9.173   7.176   1.571  0.2983 -0.9030 -0.0608
  248MOL0     H34183   9.321   7.350   1.619  0.8894  1.6317  0.2954
  248MOL0     H34184   9.317   7.505   1.534 -2.3902  0.4302 -1.1660
  248MOL0     H34185   9.406   7.367   1.462  1.6881 -1.4752  2.7236
  248MOL0     H34186   9.220   7.798   1.120  1.1561  1.2665 -1.4891
  248MOL0     H34187   9.317   8.015   1.090  2.2041  0.7421 -1.5899
  248MOL0     H34188   9.644   7.998   1.130 -1.0341  0.3531  0.9189
  248MOL0     H34189   9.536   8.117   1.043 -0.7329 -0.3748 -0.5289
  248MOL0     H34190   9.777   8.162   1.233  2.3846  1.5608 -0.7691
  248MOL0     H34191   9.776   8.210   1.051 -1.2123 -1.5597 -0.9059
  248MOL0     H34192   9.602   8.350   1.258  1.1081  0.0906  1.1824
  248MOL0     H34193   9.623   8.373   1.074 -1.4279  0.5545  0.8875
  248MOL0     H34194   9.863   8.420   1.095  0.8065  2.6935  0.2596
  248MOL0     H34195   9.857   8.390   1.266 -0.4361  0.6677  1.3197
  248MOL0     H34196   9.807   8.650   1.113 -0.7187  1.4945  1.3915
  248MOL0     H34197   9.649   8.591   1.168  0.5462  0.5484 -1.6461
  248MOL0     H34198   9.893   8.627   1.347  1.0172  0.6929 -1.1311
  248MOL0     H34199   9.720   8.600   1.397 -2.4306  0.7778 -2.1370
  248MOL0     H34200   9.650   8.803   1.319  0.8284 -1.1579  1.5178
  248MOL0     H34201   9.790   8.843   1.233  0.2573 -0.7979 -0.3904
  248MOL0     H34202   9.814   8.956   1.434 -0.6090 -0.5611 -2.2765
  248MOL0     H34203   9.931   8.822   1.452  1.0052  0.3570  0.0596
  248MOL0     H34204   9.540   7.956   1.456  1.4395 -1.4501 -1.4949
  248MOL0     H34205   9.414   7.756   1.493  2.6939 -1.3212 -1.2650
  248MOL0     H34206   8.989   7.427   1.186 -2.4924  0.3585  1.4370
  248MOL0     H34207   8.897   7.211   1.243 -0.7558 -0.2513  0.1850
  248MOL0     H34208   8.363   7.386   3.218  2.5255 -0.6303 -0.6543
  248MOL0     H34209   8.225   7.331   3.392 -0.8666 -1.1433  2.5237
  248MOL0     H34210   8.114   6.869   3.617 -0.7840 -0.0058 -1.7778
  248MOL0     H34211   8.018   6.759   3.811 -0.3615 -1.5163 -1.7628
  248MOL0     H34212   7.932   6.851   4.038 -0.3437  0.1462 -1.6522
  248MOL0     H34213   7.794   6.822   4.118  0.3914  3.6867 -0.8869
  248MOL0     H34214   7.885   6.606   4.120  1.5681  1.1346 -0.6392
  248MOL0     H34215   7.892   6.596   3.942 -4.5683 -3.3710 -1.1940
  248MOL0     H34216   7.642   6.631   4.091 -0.3336 -0.2462  0.2652
  248MOL0     H34217   7.647   6.614   3.920 -3.2171  1.8941  2.0135
  248MOL0     H34218   7.785   6.376   4.081  1.4587 -0.9300 -1.6766
  248MOL0     H34219   7.695   6.394   3.924  3.7666  1.8862 -1.2980
  248MOL0     H34220   7.392   6.306   4.199  1.2523 -1.0851  1.0035
  248MOL0     H34221   7.665   6.997   3.743 -0.1712 -0.1204  0.8015
  248MOL0     H34222   7.643   7.087   3.490 -0.0129  2.3819 -2.7621
  248MOL0     H34223   7.708   7.212   3.603  1.0592  1.0258 -0.6667
  248MOL0     H34224   7.786   7.177   3.449  0.2786  0.1311 -0.1465
  249MOL0     O34225   9.744   9.391   8.803 -0.2631 -0.3207  0.4366
  249MOL0     C34226   9.686   9.489   8.860  0.3651  0.1830 -0.4829
  249MOL0     O34227   9.624   9.588   8.805  0.7650 -0.9473 -0.4104
  249MOL0     C34228   9.618   9.616   8.670  0.4669  0.0230 -0.3451
  249MOL0     C34229   9.635   9.521   8.566 -0.3615  0.3421  0.3677
  249MOL0     C34230   9.658   9.562   8.434 -0.3746 -0.0136  0.8923
  249MOL0     C34231   9.627   9.697   8.409 -0.2222  0.0174  0.3978
  249MOL0     O34232   9.631   9.761   8.288 -0.1599  0.2069  0.0835
  249MOL0     C34233   9.696   9.690   8.176  0.3092 -0.1369  0.7426
  249MOL0     C34234   9.664   9.769   8.046  0.0457  0.9701 -0.5466
  249MOL0     C34235   9.714   9.692   7.933  0.2231 -0.0468  0.0623
  249MOL0     C34236   9.736   9.781   7.811  0.1538  1.2167  1.4782
  249MOL0     C34237   9.800   9.701   7.697 -0.5723  0.3914 -0.5194
  249MOL0     C34238   9.746   9.562   7.667 -0.4382 -0.4494 -0.7496
  249MOL0     C34239   9.802   9.498   7.537  0.2733  0.0513  0.6564
  249MOL0     C34240   9.944   9.446   7.530  0.5350  0.3398  0.1442
  249MOL0     N34241   9.975   9.340   7.631 -0.2838  0.0198  0.1177
  249MOL0     C34242   9.961   9.207   7.592  0.1744  0.1330 -0.9777
  249MOL0     C34243   9.987   9.153   7.713 -0.4077 -0.0285  0.2443
  249MOL0     C34244   9.975   9.013   7.745  0.4241 -0.4718 -0.1951
  249MOL0     C34245   9.838   8.951   7.701  1.0917 -0.1450  0.0605
  249MOL0     C34246   9.719   9.009   7.781  0.2431 -0.8079 -0.9179
  249MOL0     C34247   9.590   8.952   7.746  0.2693 -0.2867  1.0744
  249MOL0     O34248   9.558   8.986   7.611  0.1011  0.1071 -0.9122
  249MOL0     C34249   9.513   9.117   7.592  0.0267 -0.2206 -0.6208
  249MOL0     C34250   9.505   9.166   7.460  0.0692  1.1158 -0.0599
  249MOL0     C34251   9.487   9.300   7.427  0.2559  1.0614 -0.1924
  249MOL0     C34252   9.475   9.339   7.277 -0.2104  0.2882  0.1003
  249MOL0     C34253   9.449   9.390   7.526 -0.2492  0.3387 -0.2742
  249MOL0     C34254   9.408   9.534   7.507 -0.0941 -0.1888  0.1186
  249MOL0     O34255   9.331   9.593   7.609 -0.0674 -0.0659 -0.5138
  249MOL0     C34256   9.287   9.723   7.596  0.3713 -0.6742  0.2567
  249MOL0     C34257   9.158   9.761   7.649  0.1618 -0.1608  0.6132
  249MOL0     C34258   9.111   9.892   7.652  0.4296  1.0416  0.0570
  249MOL0     C34259   9.187   9.994   7.590 -0.2165 -0.1167 -1.1437
  249MOL0     O34260   9.148  10.127   7.592 -0.4378  0.2663  0.2859
  249MOL0     C34261   9.090  10.168   7.711  0.3948 -0.0636  1.1593
  249MOL0     C34262   9.024  10.294   7.690 -0.2323 -0.3088 -1.4740
  249MOL0     C34263   8.977  10.358   7.816  0.3742  0.4147 -0.3316
  249MOL0     C34264   9.085  10.395   7.913  0.0050 -0.6534 -0.0519
  249MOL0     C34265   9.037  10.461   8.035 -0.4667 -0.6284 -0.4233
  249MOL0     C34266   9.139  10.501   8.132  0.1081 -0.6367  0.7092
  249MOL0     C34267   9.079  10.583   8.251 -0.3513 -0.2911  0.3822
  249MOL0     C34268   9.164  10.571   8.379  0.4435 -0.7594  0.2720
  249MOL0    Cl34269   9.080  10.661   8.518 -0.5772  0.1910  0.6852
  249MOL0     C34270   9.310   9.967   7.540 -1.0646  0.7614  0.5906
  249MOL0     C34271   9.349   9.833   7.533  0.4959 -0.1458 -0.3555
  249MOL0     O34272   9.460   9.593   7.412  0.9664  0.6149 -0.3477
  249MOL0     C34273   9.459   9.349   7.659 -0.7085  0.0381  0.2875
  249MOL0     C34274   9.478   9.210   7.695  0.8368 -0.2792  0.2731
  249MOL0     N34275  10.009   9.252   7.806 -1.2231 -0.6816  0.4952
  249MOL0     N34276  10.004   9.367   7.755  0.0007 -0.6310 -0.0885
  249MOL0     C34277   9.607   9.791   8.513 -0.0027 -0.7757 -0.6292
  249MOL0     C34278   9.607   9.752   8.645 -0.0817  0.4379 -0.9388
  249MOL0     C34279   9.697   9.481   9.006 -0.0636  0.0796 -0.1648
  249MOL0     C34280   9.747   9.597   9.061 -0.3856  0.7986  0.1445
  249MOL0     C34281   9.747   9.616   9.203  0.1912  0.5395 -1.1157
  249MOL0     C34282   9.698   9.516   9.296 -1.4583 -0.1154 -0.0751
  249MOL0     O34283   9.698   9.522   9.433 -0.8153  0.8785  0.6740
  249MOL0     C34284   9.717   9.636   9.500  0.2306 -0.4564  0.2471
  249MOL0     C34285   9.713   9.591   9.646  0.0137  0.8109 -0.8309
  249MOL0     C34286   9.838   9.510   9.686  0.0363  0.2311  0.0626
  249MOL0     C34287   9.977   9.567   9.652 -0.8079 -0.3868 -0.5340
  249MOL0     C34288  10.008   9.692   9.720  0.1769 -0.3475  0.6338
  249MOL0     C34289  10.045   9.802   9.772 -0.3105  0.8204  0.8747
  249MOL0     C34290   9.635   9.409   9.237 -0.0579 -0.3037 -0.2496
  249MOL0     C34291   9.636   9.394   9.092 -0.1255  0.1627 -0.4636
  249MOL0     C34292   9.566   9.271   9.027 -0.7000 -0.2640  0.0109
  249MOL0     H34293   9.656   9.417   8.588 -1.0486 -0.3836 -2.0940
  249MOL0     H34294   9.687   9.491   8.356 -1.1493  0.6314  0.0017
  249MOL0     H34295   9.655   9.589   8.165  0.2801  0.0649 -1.5398
  249MOL0     H34296   9.805   9.685   8.188  0.9286 -0.3895 -3.3245
  249MOL0     H34297   9.555   9.757   8.038  0.3919 -2.7309 -2.1674
  249MOL0     H34298   9.683   9.876   8.044 -0.3359  1.0786  0.9077
  249MOL0     H34299   9.807   9.638   7.953 -1.3324 -3.0328 -0.1479
  249MOL0     H34300   9.628   9.625   7.917 -1.2723  2.1570 -1.8196
  249MOL0     H34301   9.645   9.829   7.774 -1.0072  0.9077  3.7982
  249MOL0     H34302   9.811   9.858   7.832  0.5992  0.8138  1.3833
  249MOL0     H34303   9.903   9.687   7.729  0.1087 -0.4630 -2.8748
  249MOL0     H34304   9.809   9.746   7.597 -1.6304 -1.8276 -1.6967
  249MOL0     H34305   9.768   9.499   7.753 -0.2850  0.5348 -0.0523
  249MOL0     H34306   9.638   9.564   7.653 -0.5695  1.2148  0.2302
  249MOL0     H34307   9.788   9.565   7.452 -2.8259 -0.6750  0.4755
  249MOL0     H34308   9.740   9.408   7.526  2.5438 -1.3840 -1.5947
  249MOL0     H34309   9.973   9.405   7.433 -2.0388 -3.9850  0.9551
  249MOL0     H34310  10.001   9.533   7.563 -2.7255  1.5606  3.1713
  249MOL0     H34311   9.944   9.163   7.494  4.7173 -1.0396 -1.4418
  249MOL0     H34312   9.998   8.987   7.849  1.4908 -2.8410 -0.9590
  249MOL0     H34313  10.054   8.958   7.695 -0.1326 -1.2461 -0.2354
  249MOL0     H34314   9.833   8.959   7.592 -0.9807 -3.8171 -0.2660
  249MOL0     H34315   9.856   8.849   7.736  1.6972  0.5829  2.0357
  249MOL0     H34316   9.730   8.991   7.889 -1.7347 -0.0354 -0.5346
  249MOL0     H34317   9.715   9.119   7.775 -3.0050 -0.4841  2.8907
  249MOL0     H34318   9.598   8.845   7.770  1.2867 -1.0501 -2.2289
  249MOL0     H34319   9.507   8.988   7.808 -0.7337  0.0578 -0.4045
  249MOL0     H34320   9.531   9.092   7.385 -1.2426 -0.4900  1.0003
  249MOL0     H34321   9.369   9.361   7.260 -1.1705 -2.8021  1.3344
  249MOL0     H34322   9.519   9.256   7.220  1.1738 -0.1126  1.6812
  249MOL0     H34323   9.538   9.424   7.251  1.0538 -0.7599 -0.3841
  249MOL0     H34324   9.091   9.694   7.703 -0.3241  0.9145  1.3871
  249MOL0     H34325   9.017   9.908   7.705  0.7343  0.8905  0.6562
  249MOL0     H34326   9.017  10.108   7.765  2.5614 -3.4362  0.6710
  249MOL0     H34327   9.174  10.192   7.777  0.6331  1.9916  0.1973
  249MOL0     H34328   9.088  10.358   7.628  2.4991 -1.8573 -0.4344
  249MOL0     H34329   8.934  10.271   7.633  0.8135 -1.2116 -2.8348
  249MOL0     H34330   8.907  10.294   7.870  0.3614 -0.8758 -1.7941
  249MOL0     H34331   8.915  10.444   7.789 -0.5195  0.9338  3.0130
  249MOL0     H34332   9.143  10.462   7.849 -1.0385 -0.4562 -0.7987
  249MOL0     H34333   9.142  10.307   7.943  2.5410  0.0925 -2.2971
  249MOL0     H34334   8.970  10.545   8.014  0.8267  1.0513  1.7210
  249MOL0     H34335   8.962  10.401   8.086  0.0191  1.2067  2.7469
  249MOL0     H34336   9.217  10.549   8.072  0.9819 -3.1135 -0.2559
  249MOL0     H34337   9.183  10.407   8.168  1.8248 -0.7321 -1.4386
  249MOL0     H34338   8.979  10.543   8.272  0.5294 -2.6882  0.3848
  249MOL0     H34339   9.071  10.689   8.225 -3.9983 -0.0056  2.1108
  249MOL0     H34340   9.259  10.622   8.360 -0.6024  0.7556 -1.2446
  249MOL0     H34341   9.171  10.468   8.413 -7.1156 -1.8849  0.0180
  249MOL0     H34342   9.376  10.033   7.485 -0.6067 -0.8820 -0.9568
  249MOL0     H34343   9.446   9.820   7.487  0.7955  0.3649  0.1135
  249MOL0     H34344   9.445   9.427   7.734 -1.5229  0.1997 -0.0261
  249MOL0     H34345   9.467   9.185   7.800  0.2155 -0.6025  0.1366
  249MOL0     H34346   9.587   9.896   8.491 -3.0433  0.2816  5.2795
  249MOL0     H34347   9.602   9.813   8.734  0.1489 -0.6827 -0.1391
  249MOL0     H34348   9.784   9.678   9.000 -1.0286  0.1874 -1.1060
  249MOL0     H34349   9.782   9.715   9.232  0.3253  0.1614  0.0748
  249MOL0     H34350   9.808   9.686   9.465  1.7662 -3.3877 -0.3476
  249MOL0     H34351   9.640   9.710   9.479  0.8093  0.0829 -0.0065
  249MOL0     H34352   9.623   9.531   9.666  1.6007 -0.7299  2.4943
  249MOL0     H34353   9.698   9.677   9.712 -2.5700 -1.1912  1.4509
  249MOL0     H34354   9.826   9.491   9.793 -2.2998 -0.9982 -0.3696
  249MOL0     H34355   9.820   9.413   9.640  0.1845 -0.9306  2.2993
  249MOL0     H34356   9.995   9.572   9.544 -1.2318  3.0973 -0.5613
  249MOL0     H34357  10.050   9.489   9.676 -0.9147 -1.2057 -2.6379
  249MOL0     H34358  10.089   9.892   9.809  3.3413 -0.0327 -0.8629
  249MOL0     H34359   9.603   9.332   9.307  0.0782  0.9278  1.2469
  249MOL0     H34360   9.525   9.295   8.929  0.0572  3.1357  0.4157
  249MOL0     H34361   9.646   9.197   9.021  1.2632  1.7223  0.6022
  249MOL0     H34362   9.490   9.231   9.096 -0.7231 -0.1240  0.0666
  250MOL0     O34363  11.309   4.482   2.337  0.2062 -0.7857  0.6967
  250MOL0     C34364  11.359   4.534   2.239  0.6702 -0.2680  0.0831
  250MOL0     O34365  11.320   4.646   2.176 -0.7195  0.2733 -0.5671
  250MOL0     C34366  11.222   4.721   2.235 -0.8282  0.4669 -0.4387
  250MOL0     C34367  11.094   4.733   2.191 -0.4781 -0.2312 -0.2330
  250MOL0     C34368  11.000   4.814   2.253 -0.4082 -0.5861 -0.2293
  250MOL0     C34369  11.032   4.891   2.366 -0.2110 -0.0243 -0.3608
  250MOL0     O34370  10.955   4.985   2.427  0.0413  0.0153  0.7247
  250MOL0     C34371  10.885   5.069   2.337  0.0911  0.5930  0.8523
  250MOL0     C34372  10.872   5.196   2.422 -0.1559 -0.3729  0.5050
  250MOL0     C34373  11.012   5.250   2.448  0.4851 -0.3121  0.2600
  250MOL0     C34374  11.008   5.376   2.535  0.2506 -0.4689  0.6828
  250MOL0     C34375  11.137   5.463   2.532  0.4676  0.2742  0.1724
  250MOL0     C34376  11.269   5.385   2.541 -0.0123 -0.1704  0.5650
  250MOL0     C34377  11.275   5.310   2.680 -1.2560  0.5182 -1.4027
  250MOL0     C34378  11.412   5.274   2.723 -0.2377 -0.2791  0.1378
  250MOL0     N34379  11.488   5.223   2.607  0.3719 -0.8007 -0.4870
  250MOL0     C34380  11.456   5.112   2.530  0.5981  0.0134 -0.1434
  250MOL0     C34381  11.560   5.107   2.441  0.3681 -0.5041  0.3674
  250MOL0     C34382  11.567   5.000   2.331  0.1524  0.6511 -0.0946
  250MOL0     C34383  11.643   4.867   2.373 -0.0004 -0.7612  0.5871
  250MOL0     C34384  11.784   4.907   2.418 -0.2887 -0.0108 -0.1887
  250MOL0     C34385  11.868   4.786   2.451  0.6941  0.6376  0.0062
  250MOL0     O34386  11.894   4.730   2.325  0.1274  0.3640 -0.4328
  250MOL0     C34387  11.918   4.589   2.327 -0.5430 -0.1638 -0.0832
  250MOL0     C34388  11.991   4.524   2.428  0.2100  0.3848  0.3326
  250MOL0     C34389  12.021   4.384   2.425  1.1524 -0.2524  0.1648
  250MOL0     C34390  12.106   4.329   2.534  0.7932 -1.0436 -0.1703
  250MOL0     C34391  11.977   4.305   2.316 -1.0541  0.3534 -0.1176
  250MOL0     C34392  11.997   4.157   2.302  0.3520 -0.1974 -1.0946
  250MOL0     O34393  11.944   4.111   2.189 -0.0140 -0.1168 -0.0164
  250MOL0     C34394  11.995   3.995   2.147  0.3705  0.4172 -0.8709
  250MOL0     C34395  12.125   3.990   2.120 -0.6455  0.2993  0.5260
  250MOL0     C34396  12.176   3.869   2.066  0.4420 -0.6371 -0.2682
  250MOL0     C34397  12.089   3.759   2.037  0.1253  0.4881 -0.0655
  250MOL0     O34398  12.125   3.637   1.980 -0.6640 -0.6771 -0.0390
  250MOL0     C34399  12.263   3.608   1.970 -0.7899  1.0344  0.1332
  250MOL0     C34400  12.291   3.460   1.932  0.1373 -0.1844  0.5389
  250MOL0     C34401  12.439   3.428   1.930  0.3397 -0.7316 -0.9858
  250MOL0     C34402  12.476   3.283   1.879 -0.0514 -0.2556  0.7288
  250MOL0     C34403  12.627   3.246   1.908 -0.6928 -0.3176  0.0846
  250MOL0     C34404  12.661   3.194   2.042 -0.3071 -0.0550 -0.3080
  250MOL0     C34405  12.811   3.160   2.060 -0.5190  0.3717 -0.0868
  250MOL0     C34406  12.851   3.165   2.214 -0.0415 -0.1426  0.3480
  250MOL0    Cl34407  12.752   3.046   2.306 -0.0906 -0.3980  0.3960
  250MOL0     C34408  11.956   3.772   2.059 -0.3663  0.4506 -0.7487
  250MOL0     C34409  11.906   3.888   2.133  0.0521  0.8226 -0.8005
  250MOL0     O34410  12.065   4.092   2.386 -0.8477  0.3992  0.0897
  250MOL0     C34411  11.911   4.375   2.213 -0.3859 -0.0996 -0.2707
  250MOL0     C34412  11.883   4.512   2.226  0.0941  0.4905  1.1417
  250MOL0     N34413  11.645   5.206   2.456 -0.1861 -0.6965 -0.1321
  250MOL0     N34414  11.603   5.278   2.552  0.4015  0.0279 -0.4149
  250MOL0     C34415  11.154   4.873   2.420 -0.9786 -0.0537 -0.3140
  250MOL0     C34416  11.244   4.788   2.353 -1.0615  0.3091  0.4703
  250MOL0     C34417  11.463   4.448   2.168 -0.6994 -1.1909  0.2151
  250MOL0     C34418  11.561   4.513   2.092 -0.3874  0.1149  0.0796
  250MOL0     C34419  11.649   4.459   1.996 -0.6517  1.1094 -0.7525
  250MOL0     C34420  11.651   4.320   1.994 -0.0020  0.5320  0.2382
  250MOL0     O34421  11.741   4.262   1.903  0.1994  0.0833  0.2424
  250MOL0     C34422  11.740   4.118   1.889  0.3373  0.8352 -0.0158
  250MOL0     C34423  11.862   4.065   1.817 -0.2478  0.6626 -0.7244
  250MOL0     C34424  11.905   4.146   1.705 -0.7050 -0.1892 -0.5612
  250MOL0     C34425  11.969   4.282   1.731 -0.5553  0.0935  0.2536
  250MOL0     C34426  12.053   4.287   1.853 -0.3628  0.7453 -0.1219
  250MOL0     C34427  12.139   4.299   1.937 -0.9639  0.0103 -0.3743
  250MOL0     C34428  11.569   4.244   2.075 -0.1928 -0.2782  0.0739
  250MOL0     C34429  11.476   4.302   2.165 -0.8792  0.4639 -0.2604
  250MOL0     C34430  11.385   4.221   2.250  0.5254  0.1962  0.2877
  250MOL0     H34431  11.068   4.680   2.100 -0.4087 -0.5082 -0.0930
  250MOL0     H34432  10.897   4.823   2.221  0.1796  1.4034 -1.7121
  250MOL0     H34433  10.792   5.025   2.299 -0.0554  2.8574 -1.7178
  250MOL0     H34434  10.943   5.086   2.246 -0.2655 -0.9923  0.2911
  250MOL0     H34435  10.800   5.256   2.366 -1.1482 -4.3220 -2.8493
  250MOL0     H34436  10.823   5.165   2.515 -0.9628 -1.3084 -0.2172
  250MOL0     H34437  11.073   5.177   2.503 -1.6832 -3.1736 -0.8980
  250MOL0     H34438  11.064   5.267   2.354 -0.0780  1.9529  0.3205
  250MOL0     H34439  10.924   5.442   2.511  0.6646  0.6707  2.2084
  250MOL0     H34440  10.982   5.340   2.635 -2.2563  0.8424  0.6105
  250MOL0     H34441  11.145   5.548   2.600 -1.8163  3.0205 -2.6834
  250MOL0     H34442  11.140   5.519   2.438  2.4291 -1.5661 -0.9793
  250MOL0     H34443  11.284   5.326   2.450 -0.8303  1.4357 -0.6833
  250MOL0     H34444  11.342   5.467   2.540 -0.7330  0.5035 -0.9641
  250MOL0     H34445  11.222   5.214   2.671 -1.5540  0.3582  1.1965
  250MOL0     H34446  11.238   5.371   2.763  1.7885 -0.2311  0.6775
  250MOL0     H34447  11.452   5.360   2.777  1.5954 -2.4120  2.4278
  250MOL0     H34448  11.414   5.195   2.799 -1.5008 -0.8079 -0.3627
  250MOL0     H34449  11.381   5.034   2.536  0.6168  0.1076  2.1023
  250MOL0     H34450  11.618   5.045   2.245 -0.7776  1.5901 -0.1771
  250MOL0     H34451  11.464   4.971   2.308 -0.7542  2.6052  1.2085
  250MOL0     H34452  11.592   4.825   2.461 -1.8286  0.4288  0.1511
  250MOL0     H34453  11.651   4.793   2.293 -1.0548 -0.6631  0.3716
  250MOL0     H34454  11.829   4.968   2.340  2.4894 -1.8126 -0.1278
  250MOL0     H34455  11.757   4.968   2.505 -3.6578  4.2775 -3.7713
  250MOL0     H34456  11.948   4.833   2.511 -2.6896  3.7087  2.6197
  250MOL0     H34457  11.816   4.723   2.524  1.0072 -0.5327 -0.7561
  250MOL0     H34458  12.011   4.580   2.519 -0.5495 -0.3487  0.9752
  250MOL0     H34459  12.146   4.413   2.591 -1.2522 -1.0546  1.4113
  250MOL0     H34460  12.190   4.281   2.483  1.5507  2.4947 -2.6174
  250MOL0     H34461  12.049   4.258   2.595  0.3840 -1.7420 -1.3314
  250MOL0     H34462  12.190   4.075   2.133  0.6242 -0.4020 -0.9719
  250MOL0     H34463  12.278   3.864   2.031 -0.3713 -1.8666 -2.7080
  250MOL0     H34464  12.310   3.678   1.900 -1.1847 -0.7148 -1.9996
  250MOL0     H34465  12.297   3.630   2.071  0.2536 -0.8454  0.2401
  250MOL0     H34466  12.241   3.394   2.004  0.8080 -0.7333  0.5111
  250MOL0     H34467  12.233   3.449   1.841 -0.0629  1.6651  0.3950
  250MOL0     H34468  12.472   3.439   2.033  0.5019  5.0133 -1.3784
  250MOL0     H34469  12.497   3.503   1.877  0.4610 -0.8195 -0.9786
  250MOL0     H34470  12.460   3.294   1.772 -0.4722  2.5677  1.0091
  250MOL0     H34471  12.405   3.205   1.905  1.4410 -0.9766  2.9808
  250MOL0     H34472  12.644   3.166   1.835 -3.7949 -4.0051  2.9893
  250MOL0     H34473  12.681   3.338   1.882 -2.1075  0.2951 -0.8164
  250MOL0     H34474  12.594   3.111   2.064 -1.1023  0.4413 -0.8348
  250MOL0     H34475  12.637   3.264   2.123 -0.6277  1.4815 -1.6656
  250MOL0     H34476  12.883   3.225   2.010  0.7486 -1.5231 -0.8562
  250MOL0     H34477  12.826   3.061   2.016 -1.9118  0.3722 -0.6123
  250MOL0     H34478  12.828   3.266   2.251 -1.0175 -0.2698  0.0912
  250MOL0     H34479  12.959   3.151   2.226  0.0277 -0.0542 -0.1529
  250MOL0     H34480  11.884   3.698   2.026 -0.1349  0.7376 -1.9143
  250MOL0     H34481  11.803   3.887   2.167 -0.1314 -1.4544 -1.2789
  250MOL0     H34482  11.887   4.320   2.122 -1.2778  0.3920 -0.3370
  250MOL0     H34483  11.846   4.572   2.144  1.9356 -2.0573 -1.7484
  250MOL0     H34484  11.163   4.926   2.514 -0.7106 -0.3083 -0.1964
  250MOL0     H34485  11.343   4.767   2.393 -0.7313 -0.0502 -0.4979
  250MOL0     H34486  11.564   4.621   2.101  1.8704 -0.0063  1.5314
  250MOL0     H34487  11.718   4.520   1.939  1.4126 -1.6643 -1.4363
  250MOL0     H34488  11.729   4.057   1.979  1.9176 -0.4182 -0.6191
  250MOL0     H34489  11.648   4.106   1.832  0.9767 -1.6117 -0.6680
  250MOL0     H34490  11.831   3.970   1.772 -0.8876  1.8900 -3.0614
  250MOL0     H34491  11.948   4.052   1.882  0.8835 -0.4680 -2.3597
  250MOL0     H34492  11.973   4.083   1.646  0.0685  2.1692 -2.3459
  250MOL0     H34493  11.821   4.160   1.636 -0.3014 -0.1985 -1.0679
  250MOL0     H34494  11.890   4.355   1.750  1.3599  1.8789  1.8709
  250MOL0     H34495  12.026   4.312   1.643  1.1716 -0.3758  1.1727
  250MOL0     H34496  12.216   4.312   2.011  1.1034 -0.7099 -2.2977
  250MOL0     H34497  11.565   4.136   2.065  0.6865 -0.2424 -0.8067
  250MOL0     H34498  11.397   4.242   2.356 -3.9360  0.0644  1.0191
  250MOL0     H34499  11.278   4.245   2.241  0.4436 -0.0122  0.6871
  250MOL0     H34500  11.403   4.113   2.249  2.9092  0.5286 -1.2087
  251MOL0     O34501   4.976   9.879   2.258  0.0752  0.0029  0.7426
  251MOL0     C34502   5.052   9.788   2.224  0.0249 -0.0376  0.5437
  251MOL0     O34503   5.088   9.775   2.092  0.2496  0.0199  0.7839
  251MOL0     C34504   5.027   9.859   1.999 -0.2219  0.1414 -0.4669
  251MOL0     C34505   4.905   9.831   1.946  1.1074 -0.5445 -0.6105
  251MOL0     C34506   4.844   9.921   1.850 -0.3253 -0.7108 -0.5012
  251MOL0     C34507   4.902  10.046   1.840  1.3000  0.7842 -0.0311
  251MOL0     O34508   4.818  10.129   1.768  0.2409  1.1226 -0.1406
  251MOL0     C34509   4.785  10.252   1.832 -0.7088  1.0044 -0.3006
  251MOL0     C34510   4.682  10.330   1.744  0.0308 -0.0897 -0.0307
  251MOL0     C34511   4.666  10.478   1.786 -0.1197 -0.4994  0.8433
  251MOL0     C34512   4.564  10.548   1.696  0.2209  0.5194  1.2957
  251MOL0     C34513   4.422  10.530   1.748  0.8289  0.0984 -0.4561
  251MOL0     C34514   4.316  10.574   1.646 -0.0365  0.1929 -0.5350
  251MOL0     C34515   4.179  10.573   1.722 -0.5549  0.4268 -0.8028
  251MOL0     C34516   4.096  10.446   1.702  0.4373  0.5422 -0.6507
  251MOL0     N34517   4.151  10.330   1.765 -1.1088 -0.1787 -0.0859
  251MOL0     C34518   4.138  10.297   1.899 -0.6314  0.8775 -0.8016
  251MOL0     C34519   4.172  10.169   1.898 -0.3188 -0.3111  0.7621
  251MOL0     C34520   4.169  10.067   2.013 -0.3688 -0.1261 -0.2043
  251MOL0     C34521   4.063   9.972   1.986  0.4949  0.3780  1.2404
  251MOL0     C34522   3.930  10.048   1.957 -0.4250 -0.7115 -0.3573
  251MOL0     C34523   3.868  10.150   2.069 -0.4244  0.2059  0.1279
  251MOL0     O34524   3.854  10.065   2.184 -0.3581 -0.1409 -0.8816
  251MOL0     C34525   3.729  10.079   2.240 -0.2122  0.5239  0.1607
  251MOL0     C34526   3.642   9.973   2.230 -0.4288  0.2351 -0.0757
  251MOL0     C34527   3.504   9.985   2.267  0.6412 -0.6644 -0.7830
  251MOL0     C34528   3.404   9.869   2.232  0.2490  0.1748  0.9159
  251MOL0     C34529   3.463  10.116   2.314 -0.5316 -0.2301 -0.2402
  251MOL0     C34530   3.320  10.157   2.361  0.8916  0.2976 -0.5925
  251MOL0     O34531   3.277  10.283   2.348  0.0039  0.0736 -0.2933
  251MOL0     C34532   3.141  10.323   2.339 -0.5606  0.8762  0.2354
  251MOL0     C34533   3.027  10.247   2.364 -0.5910  1.1629 -0.5898
  251MOL0     C34534   2.894  10.292   2.341  0.8841  0.3279  1.0181
  251MOL0     C34535   2.869  10.418   2.293  0.0657  0.6343  0.4104
  251MOL0     O34536   2.751  10.475   2.252  0.2425 -0.9075 -0.3945
  251MOL0     C34537   2.624  10.421   2.281  1.0364 -0.9800  0.0720
  251MOL0     C34538   2.520  10.510   2.236  0.0237  0.7097 -0.6982
  251MOL0     C34539   2.531  10.645   2.312 -0.1944 -0.2906  0.1493
  251MOL0     C34540   2.402  10.726   2.301 -0.1967 -0.4425  0.6260
  251MOL0     C34541   2.423  10.867   2.350 -0.3395 -0.1431 -0.4217
  251MOL0     C34542   2.306  10.959   2.305 -0.0832  0.4260 -0.4776
  251MOL0     C34543   2.303  10.997   2.152  0.5190  0.6775  1.0243
  251MOL0     C34544   2.218  11.123   2.118  0.4753  0.2876 -0.1069
  251MOL0    Cl34545   2.314  11.216   2.008  0.0875  0.6516  0.4316
  251MOL0     C34546   2.982  10.496   2.263  0.2320  0.7702  0.1574
  251MOL0     C34547   3.118  10.448   2.273  0.2962 -0.0769 -1.2493
  251MOL0     O34548   3.260  10.059   2.403 -0.0145 -0.0629 -0.8688
  251MOL0     C34549   3.561  10.215   2.332  0.8015 -0.1819  0.1624
  251MOL0     C34550   3.689  10.200   2.296  0.1345  0.2084 -0.3848
  251MOL0     N34551   4.212  10.131   1.774  0.6835 -0.2122 -0.0409
  251MOL0     N34552   4.192  10.227   1.687  0.1198 -0.4379  0.1642
  251MOL0     C34553   5.025  10.083   1.904  0.3224 -0.8815 -0.2896
  251MOL0     C34554   5.087   9.983   1.975 -0.4974  0.6375 -0.9790
  251MOL0     C34555   5.130   9.716   2.327 -0.6125 -0.7606  0.7048
  251MOL0     C34556   5.265   9.690   2.297  0.0094  0.6759 -0.5702
  251MOL0     C34557   5.354   9.637   2.397 -0.0070 -0.9133 -0.1328
  251MOL0     C34558   5.307   9.605   2.525  0.1750 -0.3455 -0.4404
  251MOL0     O34559   5.385   9.569   2.628 -0.3935 -0.3338 -0.4044
  251MOL0     C34560   5.507   9.501   2.590 -0.2161  0.5556  0.7224
  251MOL0     C34561   5.530   9.395   2.693  0.5814  0.1453 -0.7406
  251MOL0     C34562   5.431   9.278   2.682  0.0248 -0.3317 -1.0307
  251MOL0     C34563   5.420   9.200   2.816  0.3484 -0.7138 -0.6197
  251MOL0     C34564   5.276   9.190   2.860  0.1705 -0.0929  0.3422
  251MOL0     C34565   5.164   9.193   2.910  0.3403  0.8306 -0.3971
  251MOL0     C34566   5.172   9.634   2.546  0.5309  0.4567 -0.3289
  251MOL0     C34567   5.078   9.683   2.450 -0.2614 -0.9044 -1.2315
  251MOL0     C34568   4.933   9.714   2.499 -0.3082 -0.8780  0.2313
  251MOL0     H34569   4.846   9.743   1.966 -2.2031  1.2691 -1.5246
  251MOL0     H34570   4.763   9.896   1.783 -2.6030 -0.0643  1.8593
  251MOL0     H34571   4.877  10.310   1.844  0.9197 -0.3138 -4.5459
  251MOL0     H34572   4.739  10.227   1.928 -2.6241 -0.4998 -1.5338
  251MOL0     H34573   4.723  10.317   1.644 -1.0108 -2.5268 -0.2163
  251MOL0     H34574   4.585  10.279   1.741 -1.1499  1.9736  0.6856
  251MOL0     H34575   4.648  10.493   1.893  2.2285 -0.2314  1.2452
  251MOL0     H34576   4.760  10.528   1.766 -0.7425  0.1657 -0.5974
  251MOL0     H34577   4.574  10.657   1.686 -1.1436  0.7270  1.9468
  251MOL0     H34578   4.573  10.502   1.597 -0.2284  3.2856 -0.1360
  251MOL0     H34579   4.418  10.586   1.842 -0.1635 -0.8416  0.0827
  251MOL0     H34580   4.410  10.424   1.773  3.3708  0.0044  0.7038
  251MOL0     H34581   4.351  10.676   1.628 -2.5749  1.6042  1.8963
  251MOL0     H34582   4.309  10.509   1.558  0.0953  0.0162 -0.4158
  251MOL0     H34583   4.129  10.658   1.675 -0.0421  0.9024 -0.5125
  251MOL0     H34584   4.181  10.602   1.828  0.8992  1.9854 -1.2182
  251MOL0     H34585   3.998  10.449   1.752  1.5112 -0.0076  1.6167
  251MOL0     H34586   4.077  10.433   1.595 -1.0681 -0.5487 -0.2884
  251MOL0     H34587   4.100  10.352   1.984 -1.6213 -0.7054 -0.1795
  251MOL0     H34588   4.146  10.121   2.105 -0.9853  3.1228 -2.1466
  251MOL0     H34589   4.266  10.015   2.016  0.9892  2.3195  1.6339
  251MOL0     H34590   4.090   9.916   1.897  1.2223  3.7802 -0.8503
  251MOL0     H34591   4.059   9.905   2.073 -1.1487 -2.4761 -0.8775
  251MOL0     H34592   3.933  10.090   1.856 -3.2349 -1.2071 -0.7439
  251MOL0     H34593   3.847   9.977   1.945 -1.6549  0.4946  0.5855
  251MOL0     H34594   3.936  10.233   2.092  1.8635 -1.2576 -1.0174
  251MOL0     H34595   3.775  10.196   2.034  0.4195  3.1337  1.3774
  251MOL0     H34596   3.687   9.878   2.204 -1.1212  0.5400 -2.6767
  251MOL0     H34597   3.311   9.907   2.188  0.7706 -1.6457 -2.0184
  251MOL0     H34598   3.377   9.808   2.318  1.1766 -1.9399 -0.2252
  251MOL0     H34599   3.444   9.806   2.152 -5.1059 -0.5909 -1.5906
  251MOL0     H34600   3.043  10.146   2.399  1.3605  1.4422 -0.5985
  251MOL0     H34601   2.818  10.217   2.359  2.7624 -1.3977  2.1899
  251MOL0     H34602   2.614  10.329   2.221  0.1259 -1.8442  1.4904
  251MOL0     H34603   2.606  10.383   2.382  1.7520 -5.6567 -1.3148
  251MOL0     H34604   2.521  10.521   2.127 -0.7899 -0.9963 -0.9032
  251MOL0     H34605   2.436  10.444   2.258 -1.2719  1.7845 -2.1129
  251MOL0     H34606   2.618  10.704   2.282 -3.1849  1.9867 -5.5986
  251MOL0     H34607   2.552  10.621   2.417  1.9718 -1.3843 -0.4721
  251MOL0     H34608   2.316  10.683   2.353  0.3925 -2.0841  0.3113
  251MOL0     H34609   2.376  10.729   2.194 -0.2315 -2.3616  0.5340
  251MOL0     H34610   2.435  10.863   2.459  2.5714 -1.9668 -0.7329
  251MOL0     H34611   2.514  10.896   2.297 -0.2873 -1.5805 -1.1573
  251MOL0     H34612   2.302  11.056   2.356 -0.3583  1.8943 -3.1181
  251MOL0     H34613   2.207  10.919   2.329 -0.6586  1.7210 -0.6016
  251MOL0     H34614   2.257  10.916   2.094  0.2492  1.5540 -0.0250
  251MOL0     H34615   2.408  11.010   2.123  0.2701 -0.4118 -0.4775
  251MOL0     H34616   2.201  11.176   2.212 -1.1675  1.8523 -1.2177
  251MOL0     H34617   2.123  11.111   2.064  0.9207  4.9951 -2.4072
  251MOL0     H34618   2.970  10.600   2.235 -1.3762  0.9042  1.1863
  251MOL0     H34619   3.197  10.513   2.238  2.2330 -1.7976 -0.2644
  251MOL0     H34620   3.535  10.313   2.371  1.4871  0.1634 -0.2409
  251MOL0     H34621   3.755  10.284   2.315 -1.6888  1.5625  0.2346
  251MOL0     H34622   5.060  10.185   1.893 -2.2625 -0.1777 -3.1762
  251MOL0     H34623   5.181   9.999   2.026  0.3124  3.3528 -3.0875
  251MOL0     H34624   5.303   9.717   2.199 -2.0452 -0.7659 -1.8375
  251MOL0     H34625   5.458   9.620   2.371 -0.6905 -1.6225 -2.7451
  251MOL0     H34626   5.504   9.453   2.492 -2.7997 -1.0094  1.4885
  251MOL0     H34627   5.594   9.568   2.597 -1.9075  2.7651  1.8165
  251MOL0     H34628   5.520   9.449   2.788 -4.1053  2.4259 -2.2065
  251MOL0     H34629   5.629   9.350   2.687  0.5924  0.0430  0.1686
  251MOL0     H34630   5.336   9.314   2.642 -1.0424  2.1011  3.1382
  251MOL0     H34631   5.467   9.208   2.606 -0.9056 -1.7884 -0.1810
  251MOL0     H34632   5.481   9.240   2.896 -0.9756 -1.1566  0.6521
  251MOL0     H34633   5.457   9.097   2.807 -2.7256 -2.1422  1.4674
  251MOL0     H34634   5.065   9.197   2.950  0.1456 -1.3703 -0.4962
  251MOL0     H34635   5.140   9.604   2.645 -3.3246  0.4637 -1.4108
  251MOL0     H34636   4.877   9.712   2.405 -0.5170 -0.6028  0.3455
  251MOL0     H34637   4.892   9.644   2.573 -1.4735 -0.7485 -0.2767
  251MOL0     H34638   4.931   9.817   2.536  1.8584 -1.4088  2.0477
  252MOL0     O34639   3.852   1.433   5.424  0.0616 -0.0291  0.3255
  252MOL0     C34640   3.872   1.328   5.470 -0.0282  0.3366  0.1866
  252MOL0     O34641   3.991   1.275   5.499  0.2834 -0.5827  1.0338
  252MOL0     C34642   4.116   1.324   5.474  0.6376 -0.1643  0.7058
  252MOL0     C34643   4.225   1.238   5.423  0.0983  0.0808 -0.6063
  252MOL0     C34644   4.358   1.282   5.414 -0.6324 -0.8323  0.6089
  252MOL0     C34645   4.388   1.416   5.440  0.3776  0.4264  0.5648
  252MOL0     O34646   4.510   1.463   5.439  0.0732 -0.0162  0.2528
  252MOL0     C34647   4.617   1.382   5.375 -0.3753  0.3700  0.5956
  252MOL0     C34648   4.745   1.474   5.351  0.0532 -0.5141  0.3866
  252MOL0     C34649   4.726   1.551   5.220 -0.0562 -0.0331  0.2626
  252MOL0     C34650   4.863   1.627   5.211 -0.5274 -0.3375 -0.3462
  252MOL0     C34651   4.874   1.718   5.084 -0.0665 -0.0355  0.8450
  252MOL0     C34652   4.833   1.655   4.946 -0.5012 -0.7993 -0.0126
  252MOL0     C34653   4.919   1.540   4.902 -0.0022  0.3458  0.0981
  252MOL0     C34654   4.872   1.496   4.763 -0.4085 -0.4242  0.9399
  252MOL0     N34655   4.963   1.391   4.715  0.1823  0.2424  0.0377
  252MOL0     C34656   4.926   1.284   4.628  0.2953  0.8247 -0.1047
  252MOL0     C34657   5.041   1.205   4.610  0.5002 -0.7101 -0.2136
  252MOL0     C34658   5.053   1.078   4.536 -0.4207 -0.4640  0.3979
  252MOL0     C34659   5.195   1.046   4.470 -0.0741  0.0405  0.0162
  252MOL0     C34660   5.243   1.150   4.366  0.4643  1.0547 -0.4789
  252MOL0     C34661   5.376   1.121   4.295  0.2319  0.0896  0.1800
  252MOL0     O34662   5.494   1.130   4.382 -0.0462  0.0359  0.2020
  252MOL0     C34663   5.605   1.085   4.317 -0.5814 -0.7765 -0.4744
  252MOL0     C34664   5.721   1.109   4.391 -1.2582  0.1536  0.1079
  252MOL0     C34665   5.854   1.065   4.357 -0.1076 -0.1623 -0.7253
  252MOL0     C34666   5.972   1.074   4.450 -0.0145  0.2864 -0.0160
  252MOL0     C34667   5.867   1.007   4.225  0.2049  0.2151 -0.8119
  252MOL0     C34668   6.000   0.961   4.167 -0.1816 -0.0287  1.0276
  252MOL0     O34669   6.086   0.892   4.239 -0.2664 -0.1275  0.3680
  252MOL0     C34670   6.204   0.857   4.176 -0.4398 -0.1667 -0.6360
  252MOL0     C34671   6.245   0.726   4.160  0.7838 -0.3195  0.8024
  252MOL0     C34672   6.361   0.704   4.075  1.1150 -0.2212 -0.4420
  252MOL0     C34673   6.452   0.802   4.042  1.0070 -0.2619 -0.1594
  252MOL0     O34674   6.568   0.760   3.983 -0.1840  0.2251 -0.2467
  252MOL0     C34675   6.660   0.858   3.923  0.2164 -0.4439 -0.0085
  252MOL0     C34676   6.817   0.822   3.911  0.0726  0.0361  0.1181
  252MOL0     C34677   6.840   0.702   3.823 -0.2957 -0.5868 -0.1149
  252MOL0     C34678   6.985   0.701   3.773 -0.0179 -0.0659 -0.4971
  252MOL0     C34679   6.999   0.593   3.666  1.2189 -0.3506 -0.2079
  252MOL0     C34680   7.137   0.575   3.596 -0.1758 -0.0361 -0.1332
  252MOL0     C34681   7.212   0.704   3.569  0.7508 -0.4639  0.3762
  252MOL0     C34682   7.318   0.689   3.459 -1.0246  1.1245 -0.2325
  252MOL0    Cl34683   7.471   0.610   3.526 -0.5457  0.4106 -0.0622
  252MOL0     C34684   6.417   0.934   4.089 -0.0204  0.0872  0.0721
  252MOL0     C34685   6.293   0.966   4.149 -0.0132 -0.8650  0.3595
  252MOL0     O34686   6.017   1.002   4.055 -0.5256  0.5610  0.3917
  252MOL0     C34687   5.750   0.993   4.141  0.8548  0.2532 -0.3911
  252MOL0     C34688   5.622   1.030   4.189 -0.9130 -0.6148 -0.9118
  252MOL0     N34689   5.141   1.268   4.681  0.3245  0.6024  0.2001
  252MOL0     N34690   5.096   1.374   4.739  0.0974 -0.0370 -0.1146
  252MOL0     C34691   4.279   1.512   5.462  0.6456  0.0820 -0.6877
  252MOL0     C34692   4.150   1.459   5.496  0.8920  0.2538  0.8428
  252MOL0     C34693   3.748   1.246   5.523 -0.6906  0.2462  1.0503
  252MOL0     C34694   3.646   1.314   5.594 -0.5526 -0.8385  0.9022
  252MOL0     C34695   3.549   1.250   5.670 -0.6807 -0.5565  0.1153
  252MOL0     C34696   3.538   1.110   5.661 -0.1637 -0.2805  1.1315
  252MOL0     O34697   3.451   1.036   5.734 -0.7388  0.8786 -0.2397
  252MOL0     C34698   3.380   0.919   5.678 -0.5359 -0.4958 -0.1986
  252MOL0     C34699   3.285   0.946   5.564 -0.2677  0.6546 -0.7498
  252MOL0     C34700   3.189   1.050   5.597  0.3443  0.6246  0.1311
  252MOL0     C34701   3.119   1.086   5.463 -0.3645 -0.7069 -0.7725
  252MOL0     C34702   3.044   1.205   5.493  0.6560  0.4028  0.2300
  252MOL0     C34703   2.985   1.311   5.507  0.8316  0.5515  0.7753
  252MOL0     C34704   3.629   1.040   5.580  0.0299 -0.2530  0.7467
  252MOL0     C34705   3.734   1.105   5.509  0.5915  0.7667  0.2269
  252MOL0     C34706   3.835   1.021   5.425  0.3735 -0.3288  0.3048
  252MOL0     H34707   4.222   1.132   5.403  1.9810 -0.5593  1.9763
  252MOL0     H34708   4.429   1.205   5.385 -0.1074 -0.1264 -0.0203
  252MOL0     H34709   4.574   1.370   5.275  2.2723  0.1329 -0.6097
  252MOL0     H34710   4.642   1.286   5.420 -0.3130  0.5986  1.0497
  252MOL0     H34711   4.762   1.548   5.430  0.4939 -0.8884  0.6512
  252MOL0     H34712   4.823   1.398   5.338 -1.1979 -1.7817  0.1475
  252MOL0     H34713   4.706   1.497   5.127 -0.4610  3.7640 -2.0633
  252MOL0     H34714   4.652   1.631   5.209  0.2311 -0.0993 -2.9319
  252MOL0     H34715   4.886   1.693   5.296  2.6905 -1.6203 -0.0900
  252MOL0     H34716   4.942   1.554   5.194 -0.3019 -0.1764 -0.0134
  252MOL0     H34717   4.980   1.744   5.080 -0.1805  0.8490  2.5947
  252MOL0     H34718   4.823   1.814   5.094 -0.4284 -0.1859  0.4750
  252MOL0     H34719   4.729   1.625   4.961 -0.6010  0.0548  1.1096
  252MOL0     H34720   4.841   1.729   4.866 -1.1918 -0.0776  0.5746
  252MOL0     H34721   4.911   1.461   4.978  1.2464  2.3642  2.4672
  252MOL0     H34722   5.025   1.565   4.891 -0.3495  1.0549 -2.2030
  252MOL0     H34723   4.767   1.463   4.765 -0.6524  0.3267  0.9789
  252MOL0     H34724   4.872   1.588   4.703  1.4782 -0.8480  0.2244
  252MOL0     H34725   4.827   1.276   4.584  0.3783  5.2324 -1.6259
  252MOL0     H34726   4.974   1.083   4.460 -0.5832 -3.1876  0.2883
  252MOL0     H34727   5.027   0.996   4.603 -1.3570  0.1973  0.8577
  252MOL0     H34728   5.269   1.038   4.550  1.3618 -1.2067 -1.3701
  252MOL0     H34729   5.192   0.949   4.420 -1.3495 -0.3185  0.7360
  252MOL0     H34730   5.168   1.142   4.286 -1.5769 -1.2283  1.4730
  252MOL0     H34731   5.241   1.250   4.408  2.6082  0.4346  1.2727
  252MOL0     H34732   5.385   1.017   4.262 -1.6482  0.2727 -1.0689
  252MOL0     H34733   5.381   1.190   4.211  1.0016 -0.2482 -0.0565
  252MOL0     H34734   5.696   1.147   4.489  2.1443  0.3676  1.0066
  252MOL0     H34735   6.003   0.979   4.496  1.7934  0.7421 -0.1941
  252MOL0     H34736   5.964   1.153   4.525 -1.8086 -0.2525  0.4144
  252MOL0     H34737   6.061   1.102   4.393 -0.2199  1.0478  0.0309
  252MOL0     H34738   6.184   0.645   4.199 -2.0367  0.9127 -0.7281
  252MOL0     H34739   6.377   0.598   4.060 -3.1804 -1.4268  1.7851
  252MOL0     H34740   6.628   0.864   3.818  1.4229 -1.3994 -0.4616
  252MOL0     H34741   6.664   0.954   3.974 -0.7963 -0.9249  1.0227
  252MOL0     H34742   6.868   0.908   3.867  0.0551 -0.0400 -0.0495
  252MOL0     H34743   6.849   0.806   4.015  2.4413 -0.8128 -0.6977
  252MOL0     H34744   6.772   0.719   3.739 -0.5396  3.1880  0.6822
  252MOL0     H34745   6.808   0.617   3.884 -0.8885 -0.4333 -0.2042
  252MOL0     H34746   7.052   0.679   3.857 -2.7197  1.4664  2.2708
  252MOL0     H34747   7.003   0.794   3.719 -2.5153 -0.5681 -2.4098
  252MOL0     H34748   6.964   0.496   3.702 -1.2321 -0.3403 -2.2721
  252MOL0     H34749   6.936   0.626   3.583  0.4087 -0.4203  0.3709
  252MOL0     H34750   7.119   0.525   3.501  0.3006  0.2819 -0.4003
  252MOL0     H34751   7.216   0.518   3.646  0.1367  0.2438 -0.3016
  252MOL0     H34752   7.257   0.756   3.654  0.5702 -0.1912  0.3017
  252MOL0     H34753   7.141   0.771   3.521  3.0088  2.6214  1.0594
  252MOL0     H34754   7.352   0.788   3.428 -0.3953  0.2546 -2.5772
  252MOL0     H34755   7.280   0.626   3.378 -0.1321  0.0155  0.1731
  252MOL0     H34756   6.484   1.017   4.072 -0.7760  0.7653  0.3735
  252MOL0     H34757   6.262   1.067   4.170 -0.1457 -0.6023 -1.0045
  252MOL0     H34758   5.752   0.948   4.043 -1.3355  0.7325 -0.7008
  252MOL0     H34759   5.536   1.018   4.123 -2.3431  2.4652  0.1896
  252MOL0     H34760   4.306   1.614   5.489 -0.7732 -0.1748  2.0904
  252MOL0     H34761   4.080   1.537   5.521  0.7126  0.8957 -1.4735
  252MOL0     H34762   3.661   1.422   5.596  1.9665 -0.8209 -3.6525
  252MOL0     H34763   3.482   1.307   5.733 -0.6423  0.3584 -0.6516
  252MOL0     H34764   3.450   0.838   5.653 -0.4732 -0.1681 -1.1234
  252MOL0     H34765   3.324   0.890   5.767  0.0086  0.0401  0.3245
  252MOL0     H34766   3.224   0.858   5.538  4.1928 -3.0923  0.1716
  252MOL0     H34767   3.352   0.979   5.485 -0.4192  0.1410 -1.1032
  252MOL0     H34768   3.113   1.018   5.669  2.7792  0.6304  2.8706
  252MOL0     H34769   3.238   1.137   5.643  1.0233 -1.0617  2.8022
  252MOL0     H34770   3.066   0.993   5.441 -0.7166 -0.8199  0.4771
  252MOL0     H34771   3.177   1.113   5.375 -2.4257  2.5167 -1.3319
  252MOL0     H34772   2.926   1.401   5.517  0.2730  0.0030  2.9967
  252MOL0     H34773   3.635   0.932   5.572  2.3476 -0.4347  3.5386
  252MOL0     H34774   3.873   1.081   5.342  2.7483 -0.1307  1.4512
  252MOL0     H34775   3.913   1.009   5.501 -0.7159  5.4513  2.8373
  252MOL0     H34776   3.795   0.932   5.376  1.1567 -1.4915  1.7014
  253MOL0     O34777   4.864   3.903   4.032  0.5742  0.0427 -0.1108
  253MOL0     C34778   4.905   3.805   3.977 -0.2447  0.4921  0.3295
  253MOL0     O34779   4.925   3.681   4.036  0.6623  0.1896 -0.6621
  253MOL0     C34780   4.843   3.642   4.145 -0.0697 -0.7478  0.0544
  253MOL0     C34781   4.884   3.533   4.218 -0.1019 -0.3022  0.7948
  253MOL0     C34782   4.812   3.470   4.331 -0.2668 -0.4898 -0.0503
  253MOL0     C34783   4.681   3.516   4.358  0.0177  0.3843 -0.5317
  253MOL0     O34784   4.614   3.461   4.466  0.3775 -0.0952 -0.3267
  253MOL0     C34785   4.504   3.536   4.533 -0.1680 -0.6727  0.5156
  253MOL0     C34786   4.453   3.475   4.662 -0.0543 -0.9767 -0.1990
  253MOL0     C34787   4.414   3.326   4.644 -0.2267  0.3802  0.5940
  253MOL0     C34788   4.367   3.252   4.772  0.2194  0.0435  0.0570
  253MOL0     C34789   4.316   3.109   4.748  0.1079 -0.5467 -0.6432
  253MOL0     C34790   4.290   3.047   4.884 -0.2742 -0.6279  0.0707
  253MOL0     C34791   4.203   2.924   4.893 -0.1307  0.3042 -0.2665
  253MOL0     C34792   4.274   2.798   4.828  0.2936  1.1057 -0.1899
  253MOL0     N34793   4.348   2.710   4.914  0.2999  0.5625 -0.0086
  253MOL0     C34794   4.459   2.737   4.990 -0.1851  0.7604  0.0109
  253MOL0     C34795   4.492   2.612   5.040 -0.3165  0.2788 -0.0779
  253MOL0     C34796   4.607   2.582   5.127  0.5887  0.1311 -0.5439
  253MOL0     C34797   4.737   2.577   5.050  0.5486  0.1881  0.8261
  253MOL0     C34798   4.737   2.455   4.946  0.0122  0.0918  0.2122
  253MOL0     C34799   4.839   2.478   4.832 -0.0731 -0.9099 -0.8763
  253MOL0     O34800   4.972   2.499   4.876  0.0559 -0.4906 -0.3549
  253MOL0     C34801   5.049   2.391   4.923 -0.7150  0.6911  0.1346
  253MOL0     C34802   4.999   2.260   4.930  0.5229 -0.7578 -0.6455
  253MOL0     C34803   5.074   2.153   4.978  0.0293  0.2312 -1.0698
  253MOL0     C34804   4.997   2.025   4.993  0.7685  0.0201 -0.5015
  253MOL0     C34805   5.200   2.174   5.038  0.5676 -0.3723  1.1587
  253MOL0     C34806   5.283   2.066   5.102 -0.1129 -0.4698 -0.9812
  253MOL0     O34807   5.379   2.113   5.193 -0.5359 -0.1170 -0.2310
  253MOL0     C34808   5.459   2.025   5.277 -0.2368 -0.1410 -0.9701
  253MOL0     C34809   5.528   1.907   5.233  0.1413 -0.1874 -0.0089
  253MOL0     C34810   5.615   1.829   5.310  0.2307  0.2248 -0.4415
  253MOL0     C34811   5.656   1.886   5.442 -0.1605 -0.0713 -0.2975
  253MOL0     O34812   5.745   1.836   5.536 -0.0269 -0.8204 -0.3575
  253MOL0     C34813   5.806   1.711   5.504 -0.1106 -0.4572 -0.8705
  253MOL0     C34814   5.849   1.655   5.640  0.3878 -0.5753 -0.0977
  253MOL0     C34815   5.920   1.522   5.618 -0.0136  0.7436 -0.8072
  253MOL0     C34816   5.997   1.484   5.745 -0.1970  1.1051  0.3128
  253MOL0     C34817   6.055   1.338   5.728  0.3173  0.2720 -0.4697
  253MOL0     C34818   5.972   1.255   5.830 -0.1138 -0.3608 -0.3454
  253MOL0     C34819   6.054   1.119   5.843  0.0744  0.3688 -0.1958
  253MOL0     C34820   5.977   1.021   5.927 -0.5454 -0.2011 -0.2916
  253MOL0    Cl34821   5.822   0.965   5.857 -0.0444  0.2984  0.7799
  253MOL0     C34822   5.583   1.998   5.489  0.5688  0.5597 -0.8286
  253MOL0     C34823   5.482   2.059   5.417 -0.3353 -0.0698  1.7042
  253MOL0     O34824   5.259   1.946   5.082  0.0391 -0.3787  0.3234
  253MOL0     C34825   5.247   2.313   5.030  0.5790 -0.4233 -0.3998
  253MOL0     C34826   5.173   2.419   4.976  0.7257  0.4874  0.2741
  253MOL0     N34827   4.406   2.524   4.998 -0.9065 -0.5690 -0.3269
  253MOL0     N34828   4.309   2.581   4.927  0.3207  0.1590  0.2667
  253MOL0     C34829   4.634   3.618   4.279 -0.4106 -0.3838 -0.0812
  253MOL0     C34830   4.707   3.683   4.179 -0.2563 -0.8221 -0.0527
  253MOL0     C34831   4.942   3.827   3.842 -0.2217  0.8212  0.2118
  253MOL0     C34832   5.048   3.753   3.786  0.2502 -0.0489 -0.0506
  253MOL0     C34833   5.096   3.769   3.654 -0.7094  0.4513  0.2055
  253MOL0     C34834   5.035   3.860   3.567 -0.1042  0.1547  0.3570
  253MOL0     O34835   5.068   3.884   3.436  0.8174  0.0934 -0.1436
  253MOL0     C34836   5.181   3.813   3.377 -0.2499  0.4904 -0.4182
  253MOL0     C34837   5.181   3.851   3.228  0.2192  1.1982  0.5590
  253MOL0     C34838   5.319   3.813   3.174  0.1693  0.4280  0.2604
  253MOL0     C34839   5.380   3.668   3.188 -0.2801 -0.2595 -0.5966
  253MOL0     C34840   5.275   3.572   3.159  0.1296  0.2088 -0.7338
  253MOL0     C34841   5.194   3.473   3.163  0.0199 -0.0506 -0.2121
  253MOL0     C34842   4.925   3.940   3.623 -0.2333  0.5584 -0.4959
  253MOL0     C34843   4.874   3.917   3.750 -0.0356 -0.4916 -0.7166
  253MOL0     C34844   4.746   4.004   3.791  0.7353  0.3482  0.2613
  253MOL0     H34845   4.977   3.491   4.182 -0.6234 -1.0603  0.3182
  253MOL0     H34846   4.867   3.391   4.380  0.0071 -1.1747 -1.4091
  253MOL0     H34847   4.419   3.536   4.465 -2.8439 -2.0678  3.6073
  253MOL0     H34848   4.538   3.638   4.555 -0.1577 -0.6884  0.5714
  253MOL0     H34849   4.529   3.490   4.739  0.7459 -0.7754 -1.0170
  253MOL0     H34850   4.363   3.528   4.695  0.6904  1.4917 -1.9028
  253MOL0     H34851   4.341   3.315   4.563  0.6001  0.9819 -0.2582
  253MOL0     H34852   4.503   3.267   4.617 -0.0898  0.5196  0.7416
  253MOL0     H34853   4.440   3.262   4.853 -0.9733  2.9290  0.8893
  253MOL0     H34854   4.282   3.309   4.810 -0.6263 -1.1930  0.0815
  253MOL0     H34855   4.378   3.057   4.675 -2.0297  0.1988 -3.1392
  253MOL0     H34856   4.222   3.106   4.693  1.2954 -2.4199 -2.7077
  253MOL0     H34857   4.386   3.023   4.931 -0.3546 -0.9756  0.0587
  253MOL0     H34858   4.239   3.127   4.938 -1.2247 -0.2301 -1.3636
  253MOL0     H34859   4.114   2.938   4.832  0.7459 -0.0313 -1.6765
  253MOL0     H34860   4.189   2.898   4.998  3.0369  1.0765  0.4562
  253MOL0     H34861   4.190   2.734   4.802 -2.6256  4.3226  0.5684
  253MOL0     H34862   4.325   2.826   4.735 -2.6512 -0.1326 -2.3238
  253MOL0     H34863   4.506   2.834   4.989  2.5162 -0.4554  0.1533
  253MOL0     H34864   4.575   2.490   5.176  0.7277  0.3419 -0.0536
  253MOL0     H34865   4.624   2.666   5.194  1.4329  0.3264 -0.9816
  253MOL0     H34866   4.773   2.667   5.000 -0.4347  1.6377  2.5950
  253MOL0     H34867   4.817   2.546   5.119 -0.5502  0.2750  2.1700
  253MOL0     H34868   4.751   2.361   5.000  2.1353  0.1818 -0.0934
  253MOL0     H34869   4.639   2.453   4.896  2.1357 -1.4702 -4.4384
  253MOL0     H34870   4.822   2.394   4.764 -2.7889  1.1540 -3.0027
  253MOL0     H34871   4.808   2.570   4.782 -2.9883  0.1110  2.4151
  253MOL0     H34872   4.895   2.242   4.905 -0.0651  0.9409  0.4715
  253MOL0     H34873   5.051   1.954   4.931  4.0927 -0.1864  2.3521
  253MOL0     H34874   4.893   2.032   4.959  1.1500 -2.4081 -2.4286
  253MOL0     H34875   5.000   1.989   5.096  0.0143  0.8304 -0.1837
  253MOL0     H34876   5.520   1.882   5.128  2.0659  0.1363 -0.2584
  253MOL0     H34877   5.657   1.736   5.274  0.3289 -0.8176  2.1469
  253MOL0     H34878   5.735   1.636   5.469  1.0482 -1.1612 -1.7897
  253MOL0     H34879   5.889   1.704   5.433 -1.7617 -3.8122 -2.7041
  253MOL0     H34880   5.914   1.723   5.695 -0.2600  0.1215 -0.1800
  253MOL0     H34881   5.760   1.645   5.703  0.2233 -1.9910 -0.5168
  253MOL0     H34882   5.987   1.529   5.532  0.6107 -0.6126 -0.4619
  253MOL0     H34883   5.851   1.437   5.611  0.4609  0.2003  0.7365
  253MOL0     H34884   5.938   1.489   5.837  1.7821 -1.3559  1.8450
  253MOL0     H34885   6.084   1.549   5.759  1.8626 -1.6859  1.5939
  253MOL0     H34886   6.031   1.294   5.630  1.0230 -1.0748 -0.0660
  253MOL0     H34887   6.160   1.339   5.757  0.3705 -1.5475 -0.4579
  253MOL0     H34888   5.880   1.237   5.774  1.3971  1.1758 -3.6825
  253MOL0     H34889   5.945   1.303   5.924  0.9449 -2.0562  0.8660
  253MOL0     H34890   6.161   1.131   5.866  0.2834 -2.4219  0.6979
  253MOL0     H34891   6.066   1.078   5.742 -0.0062  0.4549 -0.2408
  253MOL0     H34892   5.953   1.059   6.026  0.1522 -0.7856  0.1087
  253MOL0     H34893   6.040   0.935   5.949 -0.8840 -1.3472 -3.2563
  253MOL0     H34894   5.610   2.039   5.586 -0.7180  0.3974 -0.3822
  253MOL0     H34895   5.425   2.138   5.464  0.7373  0.5219  2.0632
  253MOL0     H34896   5.349   2.331   5.065  0.5075  2.9060 -1.5303
  253MOL0     H34897   5.216   2.519   4.978  2.6714 -0.2348 -1.3766
  253MOL0     H34898   4.533   3.656   4.290  0.3747  1.4097  1.4658
  253MOL0     H34899   4.664   3.770   4.130 -3.5953 -1.9591  0.6539
  253MOL0     H34900   5.089   3.668   3.840 -0.0943 -2.6993 -3.5993
  253MOL0     H34901   5.181   3.716   3.612 -0.5396 -0.5906  1.7412
  253MOL0     H34902   5.275   3.845   3.424 -0.4830 -1.6247  1.6889
  253MOL0     H34903   5.190   3.706   3.399  0.2502  1.2007  3.5429
  253MOL0     H34904   5.166   3.958   3.213 -1.5323  0.5556 -3.1816
  253MOL0     H34905   5.102   3.791   3.182  1.6601 -1.7332  1.6140
  253MOL0     H34906   5.327   3.834   3.067  3.1271 -3.6356 -0.5571
  253MOL0     H34907   5.383   3.890   3.218 -1.0788  1.1901  0.8077
  253MOL0     H34908   5.426   3.667   3.288  0.3757  1.1226 -0.8568
  253MOL0     H34909   5.458   3.651   3.114  0.1730  2.1871 -0.7722
  253MOL0     H34910   5.124   3.393   3.175  2.3137 -2.3132 -0.8407
  253MOL0     H34911   4.880   4.020   3.565 -2.7976 -0.7128 -0.3706
  253MOL0     H34912   4.788   4.096   3.832 -1.1362 -0.5277  4.6982
  253MOL0     H34913   4.668   4.005   3.714 -1.7846 -2.6762  2.5249
  253MOL0     H34914   4.693   3.958   3.875  0.9803  0.9261  0.7422
  254MOL0     O34915   6.559   4.829  11.092  0.1982  0.1636  0.4460
  254MOL0     C34916   6.598   4.720  11.050 -0.0541 -0.2004 -0.2065
  254MOL0     O34917   6.727   4.700  11.011  0.0723  0.7624 -0.3363
  254MOL0     C34918   6.815   4.799  11.056  0.0697  0.2893 -0.3744
  254MOL0     C34919   6.856   4.913  10.979 -0.5103 -0.0834  0.2377
  254MOL0     C34920   6.942   5.012  11.029 -0.3482  1.0287 -1.5780
  254MOL0     C34921   6.998   4.996  11.155  0.4736 -0.1804 -0.2309
  254MOL0     O34922   7.095   5.083  11.205  0.1682 -0.0005  0.5790
  254MOL0     C34923   7.066   5.222  11.207 -0.1980 -0.8271  0.4416
  254MOL0     C34924   7.130   5.291  11.327 -0.2424  0.4208 -0.6306
  254MOL0     C34925   7.265   5.346  11.288 -0.0833 -0.3579 -0.4482
  254MOL0     C34926   7.347   5.375  11.413  0.1267  0.0726  0.3176
  254MOL0     C34927   7.486   5.425  11.386 -0.0801  0.1131 -0.4201
  254MOL0     C34928   7.556   5.491  11.498 -1.0911 -0.3754  0.0213
  254MOL0     C34929   7.497   5.617  11.551  0.4363  0.1238  1.0023
  254MOL0     C34930   7.580   5.654  11.675  0.1585 -0.4647  0.4654
  254MOL0     N34931   7.514   5.768  11.738 -0.4380  0.8292 -0.7825
  254MOL0     C34932   7.495   5.783  11.873 -0.3244  1.2616  0.5482
  254MOL0     C34933   7.427   5.900  11.881 -0.3354 -0.0759  0.9064
  254MOL0     C34934   7.375   5.996  11.991  0.7741  0.4334  0.5146
  254MOL0     C34935   7.219   5.984  12.013  0.0035  0.5866  0.5538
  254MOL0     C34936   7.174   6.073  12.123  0.0651 -0.2838  0.5536
  254MOL0     C34937   7.199   6.026  12.262  0.1388  0.9334  0.5677
  254MOL0     O34938   7.128   6.107  12.354 -0.0216  0.5395 -0.2085
  254MOL0     C34939   7.190   6.180  12.453 -0.4287 -0.3203 -0.7516
  254MOL0     C34940   7.117   6.262  12.530  0.1118  0.7842 -0.2423
  254MOL0     C34941   7.173   6.337  12.642 -0.8628 -0.0287 -1.0109
  254MOL0     C34942   7.080   6.432  12.714 -1.0240  0.1955 -0.6994
  254MOL0     C34943   7.309   6.310  12.679  1.0150 -0.0405 -1.0254
  254MOL0     C34944   7.371   6.364  12.799  0.4072 -0.1781  0.6950
  254MOL0     O34945   7.287   6.425  12.898 -0.2887  0.4060  0.1808
  254MOL0     C34946   7.354   6.473  13.007  0.5629 -0.4472  0.8381
  254MOL0     C34947   7.365   6.616  13.018 -0.5944 -0.5344 -0.8170
  254MOL0     C34948   7.431   6.669  13.135 -0.5766 -0.7824  0.1028
  254MOL0     C34949   7.497   6.592  13.225  1.1015  0.1813  0.0944
  254MOL0     O34950   7.576   6.651  13.324 -0.5000  0.2382 -0.2134
  254MOL0     C34951   7.668   6.564  13.397 -0.3265  1.1156  0.2353
  254MOL0     C34952   7.741   6.638  13.512  0.7365 -0.4712  0.5588
  254MOL0     C34953   7.884   6.589  13.517 -0.0788  0.4864  1.8202
  254MOL0     C34954   7.950   6.640  13.644  0.5639 -0.4673 -0.1293
  254MOL0     C34955   8.091   6.609  13.637 -0.0697 -0.4026 -0.2480
  254MOL0     C34956   8.161   6.651  13.773 -0.2799 -0.4523  0.6753
  254MOL0     C34957   8.309   6.662  13.744 -0.2754 -0.6001  0.3751
  254MOL0     C34958   8.386   6.757  13.833  0.1991  0.1065 -0.5899
  254MOL0    Cl34959   8.362   6.916  13.757 -0.4870 -0.2150  0.3813
  254MOL0     C34960   7.480   6.450  13.214 -0.0196 -0.7416  0.4239
  254MOL0     C34961   7.405   6.389  13.107  0.4067  0.1638 -0.1326
  254MOL0     O34962   7.488   6.348  12.806  0.1571  0.0054 -0.4087
  254MOL0     C34963   7.380   6.223  12.595  0.1262  0.2217 -0.2812
  254MOL0     C34964   7.323   6.167  12.483 -0.3640 -0.0279 -0.0377
  254MOL0     N34965   7.418   5.951  11.752 -0.0339  0.7737 -0.2709
  254MOL0     N34966   7.473   5.875  11.664 -0.5843  0.1970 -0.1693
  254MOL0     C34967   6.957   4.887  11.239 -0.1537  0.4136 -0.1241
  254MOL0     C34968   6.870   4.791  11.187 -0.8597  0.3791  0.7110
  254MOL0     C34969   6.502   4.617  11.024 -0.3615 -0.3917  0.1075
  254MOL0     C34970   6.540   4.505  10.941 -0.5381 -0.5941 -0.1540
  254MOL0     C34971   6.451   4.401  10.901  1.0027 -0.4311 -0.1186
  254MOL0     C34972   6.327   4.389  10.972 -0.2206 -0.6153  0.0399
  254MOL0     O34973   6.237   4.281  10.975  0.2596 -0.1879  0.3033
  254MOL0     C34974   6.268   4.173  10.888  0.6715 -0.5086  0.7655
  254MOL0     C34975   6.160   4.066  10.878  0.6457  0.5798  0.3965
  254MOL0     C34976   6.211   3.938  10.802 -0.5453 -0.2460 -0.0814
  254MOL0     C34977   6.263   3.942  10.657 -0.0440  0.5597  0.3250
  254MOL0     C34978   6.403   4.005  10.650 -0.1251 -0.4572 -0.0902
  254MOL0     C34979   6.521   4.053  10.637  0.4143  0.2281 -0.0066
  254MOL0     C34980   6.294   4.497  11.063 -0.0149  0.5899 -0.1548
  254MOL0     C34981   6.373   4.607  11.098 -0.3971 -0.0889  0.9031
  254MOL0     C34982   6.314   4.703  11.204 -0.5441  0.2350  0.2658
  254MOL0     H34983   6.826   4.930  10.876  0.0805 -0.9871 -0.1019
  254MOL0     H34984   6.993   5.091  10.973 -0.6225  1.9694 -0.5379
  254MOL0     H34985   6.958   5.239  11.210 -0.1302  0.2017  5.1364
  254MOL0     H34986   7.092   5.274  11.114  0.2957 -2.6435 -0.4749
  254MOL0     H34987   7.057   5.352  11.381  0.2890 -1.2745  2.2365
  254MOL0     H34988   7.136   5.210  11.400 -2.6146  0.0959 -0.7111
  254MOL0     H34989   7.317   5.277  11.221  0.7435  1.2315 -1.5092
  254MOL0     H34990   7.256   5.442  11.234  1.4238 -0.8924 -1.7050
  254MOL0     H34991   7.293   5.451  11.471  1.0735  3.7721 -3.1839
  254MOL0     H34992   7.359   5.292  11.483  1.9075 -0.5583 -0.6770
  254MOL0     H34993   7.478   5.498  11.305 -1.1044  0.2644 -0.2010
  254MOL0     H34994   7.551   5.344  11.352 -0.8723 -0.3681 -0.8204
  254MOL0     H34995   7.576   5.412  11.572 -0.3674 -1.4215 -1.2520
  254MOL0     H34996   7.658   5.509  11.463 -1.7837 -0.8679 -2.3987
  254MOL0     H34997   7.392   5.604  11.581  0.9269 -1.4127  2.1181
  254MOL0     H34998   7.501   5.696  11.476  0.0398  0.9636  1.8463
  254MOL0     H34999   7.586   5.565  11.739  0.1536 -3.8304 -3.7206
  254MOL0     H35000   7.684   5.670  11.645 -0.1104  1.0205  0.2713
  254MOL0     H35001   7.522   5.703  11.942 -0.8489  0.2890 -0.3377
  254MOL0     H35002   7.399   6.101  11.971 -0.1529  0.5663  0.0574
  254MOL0     H35003   7.438   5.980  12.079  1.1165  1.3300  0.4378
  254MOL0     H35004   7.162   6.008  11.922  1.3175 -0.3537 -0.5555
  254MOL0     H35005   7.193   5.881  12.040 -3.7572  1.8139  2.2906
  254MOL0     H35006   7.208   6.175  12.105 -3.3797  0.7972 -0.7469
  254MOL0     H35007   7.065   6.080  12.114  0.0517 -1.0358  0.0059
  254MOL0     H35008   7.163   5.925  12.281 -1.3451  0.8015 -2.4855
  254MOL0     H35009   7.307   6.017  12.276  0.2933 -3.0917 -1.8257
  254MOL0     H35010   7.009   6.267  12.517 -0.3089 -4.7572 -0.9965
  254MOL0     H35011   7.132   6.526  12.732 -2.7234  0.8129  1.3997
  254MOL0     H35012   7.038   6.393  12.807  4.2713  0.0151  2.0061
  254MOL0     H35013   6.999   6.453  12.644  0.0867  0.8814 -1.8269
  254MOL0     H35014   7.315   6.675  12.943  2.7853 -1.3264 -3.9942
  254MOL0     H35015   7.434   6.777  13.144 -0.2659 -0.8682  1.3415
  254MOL0     H35016   7.605   6.487  13.442  0.7209  0.4062  0.5332
  254MOL0     H35017   7.747   6.529  13.329  2.0231  1.5234  2.5803
  254MOL0     H35018   7.743   6.746  13.495  0.0855 -0.8337 -2.4377
  254MOL0     H35019   7.686   6.614  13.603  0.8722  0.4113  0.8919
  254MOL0     H35020   7.936   6.619  13.426 -3.3227  0.1007 -0.3139
  254MOL0     H35021   7.892   6.480  13.514  3.1328  0.6395 -1.1605
  254MOL0     H35022   7.900   6.590  13.728 -1.7773  0.8828 -0.6298
  254MOL0     H35023   7.931   6.745  13.668 -2.3810 -1.0029  0.3174
  254MOL0     H35024   8.103   6.501  13.619  0.0702 -0.4162 -0.0720
  254MOL0     H35025   8.141   6.665  13.557 -0.3229 -1.0115 -0.8508
  254MOL0     H35026   8.149   6.585  13.859  3.4424 -2.6931 -0.3057
  254MOL0     H35027   8.121   6.747  13.807  1.2491  0.7628 -0.7405
  254MOL0     H35028   8.327   6.706  13.645 -2.5363  3.4649  1.5689
  254MOL0     H35029   8.360   6.565  13.746  3.6173  1.1078 -2.4066
  254MOL0     H35030   8.492   6.732  13.838 -0.0400 -0.7580  0.4614
  254MOL0     H35031   8.350   6.759  13.936  1.8842  1.4703  0.0143
  254MOL0     H35032   7.517   6.381  13.290  1.7391 -1.3366 -0.9048
  254MOL0     H35033   7.392   6.281  13.106 -4.1127  0.5046 -1.4165
  254MOL0     H35034   7.482   6.195  12.620 -0.4198 -3.9561 -1.9414
  254MOL0     H35035   7.386   6.101  12.424 -0.3165 -0.9371  0.9963
  254MOL0     H35036   7.013   4.864  11.329  0.3261  0.3637 -0.4300
  254MOL0     H35037   6.833   4.714  11.254 -0.0257 -0.6205  0.0442
  254MOL0     H35038   6.635   4.524  10.892  0.8768  2.3456  3.2060
  254MOL0     H35039   6.479   4.322  10.831  1.5163  1.9298 -2.7720
  254MOL0     H35040   6.276   4.211  10.786 -3.1727 -1.3682 -0.0118
  254MOL0     H35041   6.363   4.130  10.922  1.5323  1.2698  0.7114
  254MOL0     H35042   6.062   4.100  10.843  0.3252  1.8548  2.3487
  254MOL0     H35043   6.137   4.041  10.982 -0.0645 -0.7425 -0.0600
  254MOL0     H35044   6.301   3.905  10.855  0.5421  1.5293 -0.7158
  254MOL0     H35045   6.130   3.866  10.794 -2.9379  2.3519 -1.2119
  254MOL0     H35046   6.190   4.000  10.599  2.2295 -1.0150 -4.6260
  254MOL0     H35047   6.274   3.845  10.607  1.0172  0.4042  0.8374
  254MOL0     H35048   6.625   4.075  10.629 -0.2393  3.5489 -0.9833
  254MOL0     H35049   6.201   4.487  11.119  0.2006  2.0062  0.4898
  254MOL0     H35050   6.375   4.792  11.214  0.1893  0.1024 -2.3891
  254MOL0     H35051   6.219   4.742  11.165 -0.0922  2.8650  1.5956
  254MOL0     H35052   6.315   4.652  11.301 -0.4420  0.3362  0.3179
  255MOL0     O35053   6.536  11.393   6.504 -0.2616  0.1457 -0.5415
  255MOL0     C35054   6.650  11.421   6.545 -0.5094  0.5487  0.6004
  255MOL0     O35055   6.679  11.535   6.611 -0.1467  0.7064  0.2663
  255MOL0     C35056   6.599  11.646   6.605  0.2448  0.1747  0.3082
  255MOL0     C35057   6.516  11.683   6.710 -0.9219  0.5096  0.5208
  255MOL0     C35058   6.439  11.799   6.696  1.2036  0.6666  0.1221
  255MOL0     C35059   6.436  11.875   6.582 -0.6713  0.8595  0.3198
  255MOL0     O35060   6.378  11.989   6.556  0.0452  0.3393 -0.8063
  255MOL0     C35061   6.235  11.992   6.589  0.4649  0.1414  0.5885
  255MOL0     C35062   6.163  12.107   6.527 -0.6969  0.1047 -0.0547
  255MOL0     C35063   6.127  12.065   6.387 -0.3536  0.3399 -0.1445
  255MOL0     C35064   6.019  12.161   6.337 -0.1885 -0.4605  0.2804
  255MOL0     C35065   5.987  12.153   6.190 -0.0561  0.1699 -0.1370
  255MOL0     C35066   5.874  12.243   6.153 -0.0461 -0.3934  0.3426
  255MOL0     C35067   5.744  12.204   6.206  0.5467  0.1041 -0.7136
  255MOL0     C35068   5.628  12.267   6.126  0.2248 -0.7117  0.2529
  255MOL0     N35069   5.498  12.262   6.204 -0.6198  0.6828 -0.7086
  255MOL0     C35070   5.469  12.337   6.315 -0.1219 -0.3576 -0.4163
  255MOL0     C35071   5.339  12.314   6.336  0.2340 -0.2322 -0.6545
  255MOL0     C35072   5.248  12.379   6.444  0.4181  0.1792 -0.1298
  255MOL0     C35073   5.103  12.341   6.422 -0.4932  0.7668  0.1758
  255MOL0     C35074   5.018  12.448   6.490  0.5084 -0.6868 -0.3056
  255MOL0     C35075   4.871  12.450   6.434 -0.6598  0.5044  0.0045
  255MOL0     O35076   4.791  12.339   6.490  0.2174 -0.3429  0.0614
  255MOL0     C35077   4.748  12.352   6.616  1.4956 -0.1429 -1.0282
  255MOL0     C35078   4.736  12.468   6.696 -0.0330 -0.1109 -0.5482
  255MOL0     C35079   4.687  12.482   6.823  0.4061  0.7686 -0.3321
  255MOL0     C35080   4.655  12.625   6.872  0.3083  0.7767 -1.4356
  255MOL0     C35081   4.663  12.356   6.888  0.1032  1.2016 -0.6487
  255MOL0     C35082   4.648  12.354   7.033  0.5323 -0.4223  0.1991
  255MOL0     O35083   4.643  12.232   7.086 -0.1345 -1.0503  0.3831
  255MOL0     C35084   4.652  12.204   7.223  0.9061  0.3205 -0.3552
  255MOL0     C35085   4.701  12.290   7.320  0.2550  0.5098 -0.0753
  255MOL0     C35086   4.727  12.253   7.452  0.2063  0.2148  0.1637
  255MOL0     C35087   4.682  12.136   7.502  0.1884  1.2998 -0.4490
  255MOL0     O35088   4.716  12.114   7.636  0.1559  0.1495  0.0230
  255MOL0     C35089   4.632  12.041   7.724 -0.3472  0.5837 -0.2527
  255MOL0     C35090   4.605  12.115   7.866  0.1006  0.2042  0.2049
  255MOL0     C35091   4.568  12.264   7.848  0.3569 -0.0624 -0.4488
  255MOL0     C35092   4.552  12.327   7.985 -0.3957 -0.8150  0.5941
  255MOL0     C35093   4.517  12.475   7.978  1.1863 -0.2491  0.1140
  255MOL0     C35094   4.493  12.524   8.120  0.0830  1.1964  0.1274
  255MOL0     C35095   4.459  12.671   8.124  0.1004 -0.5296  0.8988
  255MOL0     C35096   4.428  12.718   8.261  0.7127  0.6095  0.3470
  255MOL0    Cl35097   4.252  12.720   8.284  0.0356  0.4099  0.5457
  255MOL0     C35098   4.609  12.048   7.412 -0.5350 -0.5042 -0.9693
  255MOL0     C35099   4.611  12.074   7.272 -0.7933  1.2565  0.4168
  255MOL0     O35100   4.642  12.459   7.098  0.2206  0.6925 -0.6570
  255MOL0     C35101   4.662  12.239   6.810  0.8065 -0.1760  0.3990
  255MOL0     C35102   4.691  12.236   6.667 -1.0734  0.6123 -0.6941
  255MOL0     N35103   5.291  12.225   6.235 -0.3498 -0.3084  0.3564
  255MOL0     N35104   5.398  12.186   6.160  1.3086 -0.7870  0.6091
  255MOL0     C35105   6.536  11.844   6.490  0.1679 -0.2181 -0.2470
  255MOL0     C35106   6.614  11.729   6.494  0.3959 -0.3601 -0.5318
  255MOL0     C35107   6.748  11.306   6.537  0.2664 -0.7464  0.5297
  255MOL0     C35108   6.852  11.291   6.629  0.6294 -0.8597  0.3207
  255MOL0     C35109   6.932  11.179   6.630 -0.4086 -0.2853  0.2405
  255MOL0     C35110   6.928  11.082   6.534  0.5109  0.0844 -0.7288
  255MOL0     O35111   7.012  10.973   6.557  0.0004  0.1153 -0.2014
  255MOL0     C35112   7.009  10.859   6.458 -0.1410  0.1098  0.4151
  255MOL0     C35113   6.894  10.770   6.509 -0.3879  0.4099 -0.2983
  255MOL0     C35114   6.928  10.686   6.633  0.0826  0.2143 -0.1357
  255MOL0     C35115   7.026  10.572   6.591  0.4593  0.5307  0.3089
  255MOL0     C35116   7.051  10.478   6.706  0.1118 -0.2314  0.3285
  255MOL0     C35117   7.085  10.403   6.796 -0.6396 -0.5762 -0.5694
  255MOL0     C35118   6.831  11.099   6.432 -0.0192  0.7425 -0.2631
  255MOL0     C35119   6.753  11.211   6.428  0.2792  0.0376  0.1558
  255MOL0     C35120   6.659  11.224   6.312  0.2461 -0.3471  0.6296
  255MOL0     H35121   6.527  11.631   6.805  1.0815  1.4071  0.8335
  255MOL0     H35122   6.364  11.821   6.771 -0.1195 -0.6133 -0.7592
  255MOL0     H35123   6.227  12.001   6.697 -0.5502  1.4015  0.4351
  255MOL0     H35124   6.184  11.898   6.564 -0.5097  0.1541  2.4106
  255MOL0     H35125   6.070  12.128   6.581 -1.6199  1.0895 -1.9361
  255MOL0     H35126   6.237  12.188   6.522  1.0848 -1.5109 -2.7712
  255MOL0     H35127   6.210  12.057   6.315 -2.1132 -0.6442 -2.1953
  255MOL0     H35128   6.083  11.965   6.384  0.1507  0.1340 -1.0293
  255MOL0     H35129   5.928  12.128   6.388 -0.1570 -1.4653 -0.2703
  255MOL0     H35130   6.049  12.263   6.363 -0.1144  0.3048 -2.5395
  255MOL0     H35131   5.970  12.048   6.162  2.9726  0.0102 -1.8144
  255MOL0     H35132   6.071  12.191   6.131  2.6754 -2.4409  1.8130
  255MOL0     H35133   5.902  12.336   6.204  0.9975 -1.2023  1.2890
  255MOL0     H35134   5.873  12.262   6.045 -2.0251  1.7061  0.6522
  255MOL0     H35135   5.738  12.243   6.308 -0.5313 -1.3647 -0.1974
  255MOL0     H35136   5.731  12.096   6.209  3.2856 -0.3284 -1.4265
  255MOL0     H35137   5.646  12.369   6.091 -1.3825 -0.1573  0.9542
  255MOL0     H35138   5.620  12.200   6.040 -0.7954 -1.0354  0.5924
  255MOL0     H35139   5.529  12.410   6.368  0.4022 -0.8944 -0.2686
  255MOL0     H35140   5.243  12.486   6.423 -2.2420  0.6958  2.4730
  255MOL0     H35141   5.295  12.382   6.543  2.5265 -0.6563 -1.0319
  255MOL0     H35142   5.083  12.326   6.316 -1.0673 -1.8244  0.5766
  255MOL0     H35143   5.075  12.246   6.469 -0.2980  0.7089  0.1759
  255MOL0     H35144   5.015  12.425   6.597 -0.3045  0.1339 -0.1331
  255MOL0     H35145   5.058  12.548   6.473 -2.1735  0.6293  0.5820
  255MOL0     H35146   4.823  12.542   6.468  2.2828  1.2810  2.5796
  255MOL0     H35147   4.874  12.441   6.325 -1.2550  0.0914  0.0219
  255MOL0     H35148   4.783  12.554   6.648 -1.1012 -0.4468 -2.2894
  255MOL0     H35149   4.636  12.703   6.797  0.1363  1.3572 -0.8041
  255MOL0     H35150   4.746  12.648   6.927 -1.0335 -0.6706  1.6555
  255MOL0     H35151   4.568  12.633   6.938  2.9768  1.8026  2.2637
  255MOL0     H35152   4.753  12.383   7.299  2.0225  0.2140  2.5078
  255MOL0     H35153   4.786  12.330   7.501 -1.2093  0.9760  0.7527
  255MOL0     H35154   4.537  12.016   7.676  0.0922 -1.8338  0.0089
  255MOL0     H35155   4.674  11.945   7.753 -0.8235  1.0007  2.0707
  255MOL0     H35156   4.513  12.068   7.902 -0.8308  1.3395 -0.6251
  255MOL0     H35157   4.676  12.096   7.947 -1.3979  1.6553  1.9415
  255MOL0     H35158   4.465  12.261   7.813 -0.7112 -1.4174  2.4370
  255MOL0     H35159   4.648  12.314   7.792  2.4585 -1.5281  1.0685
  255MOL0     H35160   4.649  12.318   8.036  0.4988  0.9814 -0.6776
  255MOL0     H35161   4.476  12.276   8.045 -2.6642  1.0579 -0.5234
  255MOL0     H35162   4.603  12.532   7.942  0.3607  0.7887 -0.2528
  255MOL0     H35163   4.427  12.488   7.916  1.7900  0.6104 -0.5957
  255MOL0     H35164   4.594  12.524   8.163  0.3562  1.6970 -0.5054
  255MOL0     H35165   4.422  12.463   8.177  1.4970 -2.2708 -1.5011
  255MOL0     H35166   4.370  12.691   8.064 -1.2452 -1.7266  2.4362
  255MOL0     H35167   4.541  12.732   8.083  0.3815  0.7763  3.2221
  255MOL0     H35168   4.468  12.817   8.281  3.0666 -0.4266  1.1493
  255MOL0     H35169   4.458  12.643   8.335 -0.8899  0.2145  0.6307
  255MOL0     H35170   4.579  11.950   7.447  0.6856 -1.3359 -2.1498
  255MOL0     H35171   4.564  12.013   7.196 -1.2785  1.0038  0.9100
  255MOL0     H35172   4.628  12.145   6.851 -1.3874 -0.2979 -1.5088
  255MOL0     H35173   4.694  12.157   6.593 -1.9783 -0.0764 -0.0221
  255MOL0     H35174   6.544  11.920   6.413 -1.2441  3.5590  2.9638
  255MOL0     H35175   6.685  11.700   6.418  0.3598 -3.4005  0.4421
  255MOL0     H35176   6.872  11.373   6.697  3.5132 -0.9640 -0.3000
  255MOL0     H35177   7.013  11.166   6.701 -1.5664  0.4308  1.7630
  255MOL0     H35178   7.003  10.890   6.354 -0.6532 -1.1528  0.0597
  255MOL0     H35179   7.108  10.813   6.465  0.4114  1.2796  0.7347
  255MOL0     H35180   6.855  10.707   6.428 -1.1476 -0.9000  1.0513
  255MOL0     H35181   6.809  10.838   6.519  0.3665  1.9975 -3.2795
  255MOL0     H35182   6.976  10.737   6.716 -1.5249  0.1065  0.9041
  255MOL0     H35183   6.844  10.643   6.690  1.2915 -3.3385 -0.7466
  255MOL0     H35184   7.121  10.594   6.541 -0.8959 -0.7975 -3.2528
  255MOL0     H35185   6.991  10.507   6.510  0.3422 -1.3312  1.7741
  255MOL0     H35186   7.121  10.345   6.879 -0.7229 -1.5633 -1.2014
  255MOL0     H35187   6.827  11.021   6.357 -2.0066  1.0612 -0.5539
  255MOL0     H35188   6.555  11.214   6.344  0.7819  1.8400  3.4708
  255MOL0     H35189   6.668  11.327   6.278 -4.1559  0.4863  1.4722
  255MOL0     H35190   6.690  11.153   6.235  3.4450  1.2439  0.2674
  256MOL0     O35191   4.657   5.792   2.046 -0.2612  0.1108  0.1405
  256MOL0     C35192   4.764   5.754   1.998  0.1408 -0.4697  0.4338
  256MOL0     O35193   4.869   5.837   1.969  0.0340  0.6031  0.3366
  256MOL0     C35194   4.846   5.966   2.008  1.0195  0.4686 -0.1981
  256MOL0     C35195   4.890   6.018   2.127 -1.2037  0.7833  0.8018
  256MOL0     C35196   4.884   6.151   2.152 -0.2989 -0.0935  0.6579
  256MOL0     C35197   4.837   6.248   2.052  0.4442  0.4402 -0.1166
  256MOL0     O35198   4.817   6.388   2.063  0.4189  0.7962 -0.1126
  256MOL0     C35199   4.906   6.456   2.137 -0.3873 -0.7379 -0.7992
  256MOL0     C35200   5.054   6.440   2.087  0.3483  0.0332  0.4699
  256MOL0     C35201   5.075   6.532   1.962  0.3961 -0.3371 -0.3425
  256MOL0     C35202   4.996   6.492   1.839 -0.0515 -0.2037  0.0254
  256MOL0     C35203   5.068   6.549   1.723 -0.4266  0.3247 -0.3076
  256MOL0     C35204   5.021   6.501   1.576  0.7095  0.3822  0.5817
  256MOL0     C35205   5.075   6.584   1.457 -0.4908 -0.2431 -0.7971
  256MOL0     C35206   5.229   6.564   1.428 -0.5952  0.0190  0.0624
  256MOL0     N35207   5.254   6.477   1.316 -0.0963 -0.4600 -0.1885
  256MOL0     C35208   5.219   6.349   1.309  0.2674 -0.3616 -0.0187
  256MOL0     C35209   5.235   6.327   1.179 -0.3303  0.1226  0.1031
  256MOL0     C35210   5.184   6.202   1.114 -0.8469 -0.8859  0.3786
  256MOL0     C35211   5.265   6.079   1.160  0.1602  0.7313  0.0247
  256MOL0     C35212   5.198   5.956   1.092  0.5454 -0.2360  0.3960
  256MOL0     C35213   5.275   5.818   1.103 -0.4591 -1.5457  0.4552
  256MOL0     O35214   5.277   5.772   1.238  0.4066 -0.8555  0.6701
  256MOL0     C35215   5.153   5.766   1.300 -0.0020 -0.1166  0.0560
  256MOL0     C35216   5.143   5.828   1.423 -0.7256 -0.3740  0.2107
  256MOL0     C35217   5.046   5.797   1.510 -0.6649 -0.5322 -0.5277
  256MOL0     C35218   5.062   5.853   1.649  0.0798  0.2543 -0.3314
  256MOL0     C35219   4.932   5.721   1.473  0.1801 -0.2640 -0.5691
  256MOL0     C35220   4.814   5.702   1.556  0.6208 -0.0690 -0.1445
  256MOL0     O35221   4.718   5.616   1.501  0.0241 -0.7592 -0.1564
  256MOL0     C35222   4.590   5.611   1.553 -0.1917  0.2626  0.2596
  256MOL0     C35223   4.477   5.678   1.497  0.9179 -0.7488  0.2973
  256MOL0     C35224   4.343   5.648   1.538 -0.4626  0.0576  1.0905
  256MOL0     C35225   4.321   5.569   1.652 -0.4842  0.2096  0.2350
  256MOL0     O35226   4.200   5.540   1.709  0.7298 -0.5317 -0.0062
  256MOL0     C35227   4.081   5.583   1.637  0.6260 -0.0742  0.2602
  256MOL0     C35228   3.949   5.523   1.693  0.0595  0.5955 -0.2460
  256MOL0     C35229   3.844   5.513   1.588 -0.2206 -0.1639 -0.0527
  256MOL0     C35230   3.705   5.518   1.657 -0.4785 -0.3434  0.4450
  256MOL0     C35231   3.603   5.512   1.548 -0.5955 -0.0461  0.8429
  256MOL0     C35232   3.462   5.508   1.606 -0.5299  1.1080  0.1011
  256MOL0     C35233   3.441   5.630   1.689  0.3559  0.4454  0.4036
  256MOL0     C35234   3.296   5.683   1.713  0.3210 -0.2988 -0.2327
  256MOL0    Cl35235   3.229   5.656   1.870  0.4221 -0.2871 -0.1871
  256MOL0     C35236   4.437   5.514   1.708  0.2223  0.1246  0.6130
  256MOL0     C35237   4.570   5.524   1.663 -0.5500 -0.6121  0.8331
  256MOL0     O35238   4.793   5.774   1.652  0.5035  0.3811  0.8975
  256MOL0     C35239   4.933   5.670   1.338  0.3499  0.0039  0.5895
  256MOL0     C35240   5.041   5.685   1.249 -0.5639 -0.4742  0.7889
  256MOL0     N35241   5.276   6.437   1.108  0.0743  0.3034 -0.3311
  256MOL0     N35242   5.300   6.523   1.198 -0.3427 -0.6977  0.4303
  256MOL0     C35243   4.800   6.190   1.929 -0.1701  1.4448  0.2058
  256MOL0     C35244   4.807   6.053   1.904 -0.5196 -0.5535 -0.0781
  256MOL0     C35245   4.777   5.608   1.976 -0.1779 -0.4648  0.2908
  256MOL0     C35246   4.890   5.566   1.901  0.1882 -0.6131 -0.0194
  256MOL0     C35247   4.932   5.435   1.885 -0.6181 -0.2144 -0.6862
  256MOL0     C35248   4.858   5.338   1.950  1.0692 -0.0769 -0.5740
  256MOL0     O35249   4.883   5.210   1.937  0.1272 -0.6199  0.0986
  256MOL0     C35250   4.822   5.166   1.815  0.6433 -0.2402 -0.7037
  256MOL0     C35251   4.748   5.037   1.856  0.8338 -0.6553 -0.4308
  256MOL0     C35252   4.642   4.999   1.748 -0.2257  0.0125 -0.2027
  256MOL0     C35253   4.681   4.928   1.624 -0.2546  0.7155  0.5977
  256MOL0     C35254   4.718   4.781   1.635 -0.3832 -0.3491  0.7087
  256MOL0     C35255   4.738   4.662   1.642  0.0536  0.2716 -0.7919
  256MOL0     C35256   4.742   5.376   2.022  0.4073  0.3104 -0.0685
  256MOL0     C35257   4.696   5.508   2.033 -0.1711 -0.6849  0.5073
  256MOL0     C35258   4.578   5.539   2.118 -0.2943  0.2573 -0.5052
  256MOL0     H35259   4.925   5.946   2.200  0.5729  1.9510  1.1736
  256MOL0     H35260   4.915   6.193   2.247 -0.0778 -1.4772  1.2261
  256MOL0     H35261   4.908   6.425   2.242 -1.2117 -0.7559 -0.7872
  256MOL0     H35262   4.887   6.564   2.140  2.3802 -0.1851 -0.5136
  256MOL0     H35263   5.133   6.460   2.160 -0.2774 -0.0664  1.1970
  256MOL0     H35264   5.084   6.339   2.057 -1.0370 -0.9140  2.0841
  256MOL0     H35265   5.032   6.628   1.993 -1.1352 -0.7091 -1.1962
  256MOL0     H35266   5.181   6.541   1.937  0.5190 -2.3435 -0.6473
  256MOL0     H35267   4.993   6.385   1.817  0.7525 -0.0848 -0.7363
  256MOL0     H35268   4.893   6.525   1.853  0.5127  1.0827  1.3766
  256MOL0     H35269   5.172   6.517   1.735 -0.4014 -0.0597 -1.4462
  256MOL0     H35270   5.069   6.658   1.734 -1.4536  0.1986  1.4474
  256MOL0     H35271   5.048   6.396   1.558  1.4213  0.9810 -2.2876
  256MOL0     H35272   4.913   6.510   1.565  1.0048  1.2613 -2.5043
  256MOL0     H35273   5.058   6.687   1.491 -0.6597 -0.2692 -0.8001
  256MOL0     H35274   5.022   6.574   1.362  0.3419 -1.7019 -1.1398
  256MOL0     H35275   5.273   6.662   1.407 -0.2150  0.2254  1.6715
  256MOL0     H35276   5.275   6.535   1.523 -1.7220  0.7317  0.8570
  256MOL0     H35277   5.179   6.281   1.383  1.2257 -2.2285 -1.1429
  256MOL0     H35278   5.185   6.211   1.005  0.1578 -0.4143  0.4151
  256MOL0     H35279   5.077   6.193   1.138 -0.6105 -1.3834  1.3054
  256MOL0     H35280   5.371   6.091   1.136  0.3495 -0.8408 -0.0738
  256MOL0     H35281   5.265   6.063   1.268 -0.1945  0.3894 -0.0238
  256MOL0     H35282   5.100   5.946   1.139 -0.0211 -0.8833 -0.8591
  256MOL0     H35283   5.178   5.966   0.985 -0.7071  0.1513  0.6484
  256MOL0     H35284   5.228   5.744   1.038 -0.9098 -0.7408 -0.1550
  256MOL0     H35285   5.378   5.827   1.067 -1.6758 -0.3836 -3.1545
  256MOL0     H35286   5.228   5.892   1.443  0.3090 -1.6172 -0.0421
  256MOL0     H35287   5.169   5.867   1.667 -0.0350 -0.0161  0.6467
  256MOL0     H35288   5.025   5.790   1.731  1.7222 -0.3908 -0.0396
  256MOL0     H35289   5.003   5.943   1.667  0.9086  0.3130  2.7272
  256MOL0     H35290   4.486   5.755   1.420 -0.1028 -1.3465 -0.4510
  256MOL0     H35291   4.260   5.687   1.481 -0.2596 -0.9992  0.0456
  256MOL0     H35292   4.066   5.692   1.636 -1.4658 -0.1257  4.3275
  256MOL0     H35293   4.089   5.546   1.534  0.3902 -2.9533  1.1921
  256MOL0     H35294   3.970   5.417   1.710 -2.1840 -0.3886 -2.8561
  256MOL0     H35295   3.908   5.575   1.779  2.6446  1.6328  0.4717
  256MOL0     H35296   3.853   5.430   1.518 -1.8531  0.8574 -1.5673
  256MOL0     H35297   3.849   5.601   1.522  0.4169  0.6285  1.0101
  256MOL0     H35298   3.688   5.610   1.714  1.6648 -0.1544  0.8583
  256MOL0     H35299   3.693   5.434   1.725  0.2819 -1.5208 -0.8422
  256MOL0     H35300   3.615   5.599   1.483 -2.1383 -0.6619 -0.3440
  256MOL0     H35301   3.624   5.421   1.491  2.1125  0.6812  0.5606
  256MOL0     H35302   3.443   5.420   1.669  4.0205  0.4039  0.8388
  256MOL0     H35303   3.407   5.506   1.511  0.0684 -0.8094 -0.2397
  256MOL0     H35304   3.505   5.703   1.639  0.5981 -1.0954 -1.6530
  256MOL0     H35305   3.486   5.603   1.786 -0.0479 -2.1161 -0.0519
  256MOL0     H35306   3.229   5.632   1.644  0.1223  2.1541 -1.9450
  256MOL0     H35307   3.288   5.790   1.691 -1.4133 -0.3997 -0.2276
  256MOL0     H35308   4.442   5.457   1.800  1.2987  2.0697  1.8237
  256MOL0     H35309   4.651   5.475   1.716 -1.2159 -0.7484  1.7558
  256MOL0     H35310   4.857   5.609   1.290  2.3933 -1.0583 -1.4792
  256MOL0     H35311   5.068   5.640   1.154  3.7467  0.0681  1.5641
  256MOL0     H35312   4.767   6.240   1.839 -1.5147 -0.9000 -0.6886
  256MOL0     H35313   4.776   6.001   1.813  2.5923 -0.2057 -1.4389
  256MOL0     H35314   4.945   5.647   1.855 -0.0746  0.2434  1.1124
  256MOL0     H35315   5.015   5.402   1.823 -0.2612 -2.9783  1.0686
  256MOL0     H35316   4.754   5.240   1.772  1.0370  1.8234  1.9732
  256MOL0     H35317   4.904   5.133   1.750 -0.6897 -3.5414 -0.9089
  256MOL0     H35318   4.692   5.053   1.949  0.1964 -2.0089 -0.5667
  256MOL0     H35319   4.824   4.961   1.876  1.5074 -0.1581 -1.0377
  256MOL0     H35320   4.571   4.935   1.801 -0.2722  0.7716  0.6830
  256MOL0     H35321   4.589   5.087   1.710 -0.4845 -0.3635 -0.7150
  256MOL0     H35322   4.755   4.984   1.566 -0.6416 -0.6332 -1.3162
  256MOL0     H35323   4.594   4.930   1.556 -0.2002 -1.7406  0.3553
  256MOL0     H35324   4.765   4.559   1.636  0.4796  0.1740  1.5222
  256MOL0     H35325   4.687   5.298   2.074 -2.3428  2.2099  0.0740
  256MOL0     H35326   4.530   5.442   2.138 -0.4567  0.2665 -0.8337
  256MOL0     H35327   4.610   5.599   2.203  0.3556 -0.0900 -0.4983
  256MOL0     H35328   4.513   5.592   2.048  1.2828  1.9394 -0.7314
  257MOL0     O35329  11.214   6.251   3.849  0.0943 -0.1755 -0.6487
  257MOL0     C35330  11.328   6.207   3.854 -0.4387  0.6746 -0.3846
  257MOL0     O35331  11.381   6.117   3.765  0.5192  0.1920  0.2260
  257MOL0     C35332  11.309   6.077   3.660  0.3262  0.4428 -0.2441
  257MOL0     C35333  11.224   6.161   3.580  0.8433 -0.5806 -0.0267
  257MOL0     C35334  11.150   6.112   3.473 -0.8298 -0.8549  0.2080
  257MOL0     C35335  11.152   5.968   3.450 -1.4162 -0.3178 -0.8504
  257MOL0     O35336  11.087   5.899   3.348  0.1182 -0.0407 -0.3952
  257MOL0     C35337  11.016   5.972   3.251 -0.0286 -0.3324 -0.6976
  257MOL0     C35338  10.873   6.005   3.314 -0.8602  0.4304  0.4668
  257MOL0     C35339  10.782   5.885   3.308 -0.9187  0.6166 -0.3036
  257MOL0     C35340  10.772   5.809   3.444 -0.4376 -0.1890 -0.9154
  257MOL0     C35341  10.654   5.707   3.432 -0.2771 -0.0942 -0.1332
  257MOL0     C35342  10.628   5.623   3.554  0.4705 -0.4363 -0.3723
  257MOL0     C35343  10.523   5.517   3.517 -0.9455 -0.5894 -0.5287
  257MOL0     C35344  10.488   5.426   3.637  0.1933  0.3877 -0.4619
  257MOL0     N35345  10.424   5.308   3.590  0.9249  1.5181  0.8558
  257MOL0     C35346  10.484   5.182   3.596  0.6035 -0.7739  1.0209
  257MOL0     C35347  10.400   5.106   3.522 -0.6380  0.1903  1.0063
  257MOL0     C35348  10.405   4.953   3.509 -0.0779  0.2195 -0.1594
  257MOL0     C35349  10.439   4.916   3.359 -0.0465 -0.4693 -0.1612
  257MOL0     C35350  10.592   4.932   3.332  0.8104 -0.4338  0.2225
  257MOL0     C35351  10.613   4.985   3.186 -0.6563  0.6687  0.5681
  257MOL0     O35352  10.582   4.877   3.101  0.0940 -0.1341 -0.1181
  257MOL0     C35353  10.643   4.753   3.111 -0.1518 -0.4993  0.4330
  257MOL0     C35354  10.779   4.737   3.145  0.6828  0.0209 -0.7415
  257MOL0     C35355  10.833   4.606   3.171  0.5535 -0.5799 -0.3339
  257MOL0     C35356  10.979   4.598   3.209  0.2492  0.7394  0.6321
  257MOL0     C35357  10.741   4.494   3.173 -0.1906  0.1389  0.5296
  257MOL0     C35358  10.786   4.367   3.219  0.4373  0.5011  0.7758
  257MOL0     O35359  10.795   4.264   3.117 -0.0687  0.6207 -0.1679
  257MOL0     C35360  10.852   4.141   3.147 -0.5701  0.3455  0.0536
  257MOL0     C35361  10.921   4.073   3.048  0.2209  0.4290  0.0522
  257MOL0     C35362  10.971   3.947   3.074  0.8343 -1.1076 -0.0354
  257MOL0     C35363  10.944   3.876   3.193  0.7834  1.0626  0.1214
  257MOL0     O35364  10.999   3.745   3.222  0.3808 -0.1062 -0.1879
  257MOL0     C35365  11.054   3.674   3.110 -0.2030 -0.6519 -0.2543
  257MOL0     C35366  11.128   3.546   3.158  0.0252  0.4141  0.5559
  257MOL0     C35367  11.249   3.564   3.226 -0.4933 -0.2877  0.2695
  257MOL0     C35368  11.332   3.435   3.219 -0.2434 -0.5080 -0.4581
  257MOL0     C35369  11.469   3.436   3.274 -1.3254  0.6990  0.6653
  257MOL0     C35370  11.537   3.300   3.243 -0.2911 -0.5678 -0.1396
  257MOL0     C35371  11.688   3.299   3.260  0.4704  0.0495  0.1261
  257MOL0     C35372  11.750   3.331   3.401  0.3495 -0.0532 -0.1163
  257MOL0    Cl35373  11.723   3.503   3.438  0.2391  0.4385  0.0782
  257MOL0     C35374  10.868   3.938   3.290 -0.2069  0.4738  0.2483
  257MOL0     C35375  10.824   4.075   3.267 -1.0253  0.2332 -0.9172
  257MOL0     O35376  10.802   4.356   3.340  0.2488 -0.0468  0.5812
  257MOL0     C35377  10.603   4.512   3.137  0.7888 -0.3781  0.7997
  257MOL0     C35378  10.563   4.642   3.105 -0.6755 -0.6841 -0.1415
  257MOL0     N35379  10.296   5.184   3.470 -0.0957 -0.1377  0.0640
  257MOL0     N35380  10.305   5.301   3.521 -0.1382  0.4246 -0.4710
  257MOL0     C35381  11.234   5.889   3.536 -0.4303 -0.4663  0.7475
  257MOL0     C35382  11.314   5.932   3.633 -1.0072 -0.8354 -0.6097
  257MOL0     C35383  11.411   6.246   3.972 -0.0054  0.2727 -0.0421
  257MOL0     C35384  11.358   6.341   4.064 -0.0623  0.0706  0.1899
  257MOL0     C35385  11.427   6.388   4.173 -0.1921 -0.1154  0.3830
  257MOL0     C35386  11.546   6.326   4.213 -0.0439 -0.4461 -0.4526
  257MOL0     O35387  11.617   6.374   4.318 -0.4674 -0.4838 -0.0100
  257MOL0     C35388  11.671   6.287   4.417 -0.6410  0.2579  0.0353
  257MOL0     C35389  11.645   6.344   4.550  0.5649  0.0233 -1.0902
  257MOL0     C35390  11.493   6.362   4.583 -0.7049 -0.8331  0.0124
  257MOL0     C35391  11.419   6.227   4.617  0.1836 -0.2635  0.5794
  257MOL0     C35392  11.480   6.149   4.730  1.0274  0.6165  0.5962
  257MOL0     C35393  11.526   6.083   4.826  0.5654 -0.3769  0.0204
  257MOL0     C35394  11.597   6.246   4.121 -0.6403 -0.6166  0.0486
  257MOL0     C35395  11.545   6.199   4.003  0.4081  0.2430  0.7842
  257MOL0     C35396  11.631   6.098   3.922 -0.1367  0.7586 -0.2487
  257MOL0     H35397  11.220   6.268   3.602  2.9936 -0.6204  0.8403
  257MOL0     H35398  11.083   6.186   3.430 -0.8276  0.6990  2.6164
  257MOL0     H35399  11.008   5.911   3.161 -2.8681 -1.6227  0.3275
  257MOL0     H35400  11.071   6.064   3.229  1.2366  0.0241  3.2415
  257MOL0     H35401  10.879   6.043   3.416  0.1949  0.0378  0.5652
  257MOL0     H35402  10.822   6.077   3.250 -0.0238 -1.4648 -2.5809
  257MOL0     H35403  10.685   5.933   3.291  0.2100  3.7249  1.2278
  257MOL0     H35404  10.804   5.819   3.224  0.2229 -0.6046  0.9068
  257MOL0     H35405  10.861   5.757   3.481 -0.5983  0.8635  1.1294
  257MOL0     H35406  10.756   5.880   3.527  2.0023 -2.4727  1.7360
  257MOL0     H35407  10.682   5.638   3.352 -1.2898  0.7525 -1.2593
  257MOL0     H35408  10.559   5.756   3.408 -0.4313 -0.2453  0.1679
  257MOL0     H35409  10.722   5.571   3.572 -0.0653 -2.0803 -1.9585
  257MOL0     H35410  10.596   5.691   3.633  1.0260  1.5559 -1.7715
  257MOL0     H35411  10.560   5.460   3.431 -1.8589 -2.3728  0.2051
  257MOL0     H35412  10.433   5.566   3.479  0.0633  0.7093 -1.3214
  257MOL0     H35413  10.580   5.416   3.695 -0.7593  4.5587  2.2185
  257MOL0     H35414  10.416   5.476   3.703 -0.6147 -0.5911 -0.5658
  257MOL0     H35415  10.574   5.135   3.636  0.8929 -3.5538 -2.4147
  257MOL0     H35416  10.306   4.910   3.531 -0.1162  0.8194  0.9033
  257MOL0     H35417  10.478   4.911   3.579  0.0036  0.4384 -0.1116
  257MOL0     H35418  10.420   4.809   3.351  0.6533 -0.5674 -0.5643
  257MOL0     H35419  10.378   4.980   3.295  0.8955  0.1223 -0.4895
  257MOL0     H35420  10.633   5.003   3.405  3.2093  1.2757 -2.5558
  257MOL0     H35421  10.633   4.832   3.351 -1.2251 -1.1117  1.2995
  257MOL0     H35422  10.551   5.069   3.152  0.7145  2.2981  1.9018
  257MOL0     H35423  10.713   5.022   3.163 -0.9602 -0.4622 -3.2797
  257MOL0     H35424  10.850   4.819   3.139 -0.7797  1.4049  0.0861
  257MOL0     H35425  10.987   4.607   3.318 -1.4283  1.0393  0.7495
  257MOL0     H35426  11.031   4.680   3.158  3.0493 -0.7230  0.9064
  257MOL0     H35427  11.023   4.504   3.177  0.7503  1.2102 -0.0841
  257MOL0     H35428  10.943   4.119   2.952  2.8559 -2.6118 -0.9436
  257MOL0     H35429  11.016   3.902   2.986 -1.9718  0.0048 -2.1891
  257MOL0     H35430  10.975   3.655   3.036 -0.9745  0.4105  0.2638
  257MOL0     H35431  11.128   3.731   3.052 -1.7498  0.5678 -1.1452
  257MOL0     H35432  11.062   3.491   3.225 -1.3811  1.9037  0.4514
  257MOL0     H35433  11.151   3.496   3.063  1.4104 -0.4749  1.3461
  257MOL0     H35434  11.249   3.614   3.323 -0.4760  0.4168 -0.0834
  257MOL0     H35435  11.307   3.636   3.166  1.7216 -0.1049  2.4792
  257MOL0     H35436  11.338   3.404   3.114 -1.3774  1.1546 -1.0476
  257MOL0     H35437  11.277   3.364   3.280 -0.1443 -0.2136 -0.0245
  257MOL0     H35438  11.532   3.500   3.212 -1.9691 -0.1885 -0.9880
  257MOL0     H35439  11.472   3.466   3.379  3.6050 -3.6724  2.1791
  257MOL0     H35440  11.519   3.261   3.142  0.8804 -0.6270 -0.3409
  257MOL0     H35441  11.507   3.218   3.309  2.7855 -0.0918  2.0736
  257MOL0     H35442  11.730   3.368   3.186 -1.3864  0.1962 -0.8544
  257MOL0     H35443  11.729   3.198   3.245  0.6622  0.0370  0.6920
  257MOL0     H35444  11.852   3.291   3.398  0.6338  0.6338  0.2293
  257MOL0     H35445  11.687   3.274   3.470 -1.6228  2.0643 -0.0762
  257MOL0     H35446  10.851   3.892   3.386  4.0100  0.8095  1.3805
  257MOL0     H35447  10.768   4.116   3.351 -2.5669 -2.3218 -0.5851
  257MOL0     H35448  10.534   4.429   3.142  0.0313  0.2899  1.6245
  257MOL0     H35449  10.459   4.650   3.076 -0.7600  0.7671  0.5151
  257MOL0     H35450  11.236   5.782   3.518  0.8178 -0.4859  0.9438
  257MOL0     H35451  11.374   5.869   3.698  1.0875  0.1105 -1.5285
  257MOL0     H35452  11.259   6.386   4.062  1.4767  3.9806  2.2994
  257MOL0     H35453  11.378   6.453   4.245 -0.4150 -0.8641  0.9242
  257MOL0     H35454  11.632   6.185   4.420  0.7238 -0.2879 -0.0948
  257MOL0     H35455  11.779   6.274   4.403 -0.4458  1.2823  0.4916
  257MOL0     H35456  11.691   6.442   4.566  1.9598 -0.7199 -0.3378
  257MOL0     H35457  11.690   6.284   4.629  0.1024  0.6542 -0.3322
  257MOL0     H35458  11.496   6.421   4.674 -1.4227  1.8463 -1.5923
  257MOL0     H35459  11.439   6.414   4.503 -0.9624 -2.4538 -0.9114
  257MOL0     H35460  11.428   6.165   4.528  3.0528 -0.7833  1.1225
  257MOL0     H35461  11.313   6.250   4.628 -0.2463 -2.1931  0.8325
  257MOL0     H35462  11.548   6.016   4.906 -1.6875 -1.3161 -0.0723
  257MOL0     H35463  11.696   6.206   4.137 -0.2370  0.9176  1.8289
  257MOL0     H35464  11.628   5.997   3.965  2.0224  0.7403 -0.0064
  257MOL0     H35465  11.610   6.097   3.815  4.2414  1.8514 -1.3129
  257MOL0     H35466  11.739   6.118   3.924  0.2690 -1.1386 -1.0746
  258MOL0     O35467   3.609   3.190  10.337  0.4972  0.4357  0.5490
  258MOL0     C35468   3.626   3.236  10.219 -1.1265 -0.6524 -0.1393
  258MOL0     O35469   3.750   3.260  10.163  0.2510 -0.3259 -0.5071
  258MOL0     C35470   3.868   3.257  10.236  0.3679  0.1561 -0.6603
  258MOL0     C35471   3.983   3.264  10.163 -0.1375  0.0319 -0.0288
  258MOL0     C35472   4.111   3.275  10.223  0.2982 -0.5153  0.9395
  258MOL0     C35473   4.110   3.309  10.364  0.2349  0.0827  1.2544
  258MOL0     O35474   4.235   3.328  10.432  0.4390  0.4083 -0.1438
  258MOL0     C35475   4.264   3.255  10.554 -0.4659  0.1990 -0.8883
  258MOL0     C35476   4.422   3.253  10.565  0.6901 -0.0586 -0.0691
  258MOL0     C35477   4.476   3.124  10.499 -0.0722  0.9265  0.1039
  258MOL0     C35478   4.628   3.106  10.480  0.0307  0.2421  0.6002
  258MOL0     C35479   4.673   2.954  10.460 -0.7967 -0.1913  0.3136
  258MOL0     C35480   4.606   2.878  10.348 -0.1433  0.1656  0.1529
  258MOL0     C35481   4.638   2.730  10.336 -0.0894  0.2667  0.5866
  258MOL0     C35482   4.790   2.700  10.303  0.8522  0.7373 -0.3078
  258MOL0     N35483   4.800   2.554  10.269 -0.1183  0.3888 -0.2165
  258MOL0     C35484   4.771   2.499  10.147 -0.2458 -0.7909  0.4689
  258MOL0     C35485   4.828   2.374  10.152  0.1292  0.0804  0.5164
  258MOL0     C35486   4.828   2.282  10.027  0.5958  0.2779 -0.6607
  258MOL0     C35487   4.960   2.184  10.018  0.2704 -0.1389  0.4190
  258MOL0     C35488   5.096   2.263   9.988 -0.1647  1.1872 -0.2865
  258MOL0     C35489   5.127   2.284   9.839 -0.1800  0.3843 -0.2987
  258MOL0     O35490   5.077   2.406   9.788 -0.3916 -0.2677 -0.3175
  258MOL0     C35491   5.124   2.451   9.667  0.8530  0.1859  0.8167
  258MOL0     C35492   5.264   2.452   9.635  0.7066 -0.7756  0.1325
  258MOL0     C35493   5.310   2.514   9.516 -0.0201 -0.2284 -0.4136
  258MOL0     C35494   5.461   2.531   9.497  0.8643  0.1813 -0.5506
  258MOL0     C35495   5.212   2.560   9.428  1.2732  0.5451  0.7002
  258MOL0     C35496   5.237   2.626   9.303  0.5222 -0.2864 -0.8260
  258MOL0     O35497   5.136   2.618   9.207 -0.2886  0.1538 -0.3012
  258MOL0     C35498   5.169   2.641   9.083 -0.7222 -0.6047  0.2165
  258MOL0     C35499   5.200   2.537   8.988 -0.2832 -0.0832 -0.0280
  258MOL0     C35500   5.215   2.578   8.852  1.2070  0.1631 -0.9357
  258MOL0     C35501   5.221   2.717   8.811  0.7811 -0.7189 -0.0627
  258MOL0     O35502   5.238   2.737   8.679 -0.6799 -0.2994  0.1700
  258MOL0     C35503   5.352   2.824   8.643 -0.2374 -0.4225  0.1396
  258MOL0     C35504   5.487   2.753   8.618 -0.2302 -0.3740 -0.2545
  258MOL0     C35505   5.500   2.660   8.502  0.0305 -0.0220 -0.3819
  258MOL0     C35506   5.652   2.610   8.474 -0.0045  0.2097 -0.2509
  258MOL0     C35507   5.753   2.728   8.486  0.0958 -0.0660  0.4388
  258MOL0     C35508   5.884   2.687   8.420 -0.1690 -0.5678  0.3213
  258MOL0     C35509   5.875   2.708   8.266 -0.3662 -0.3898  0.5944
  258MOL0     C35510   5.978   2.616   8.198 -0.0793 -0.2979  0.4022
  258MOL0    Cl35511   5.951   2.443   8.243  0.0469 -0.7485 -0.0959
  258MOL0     C35512   5.178   2.816   8.902 -0.8571 -0.4701 -1.1831
  258MOL0     C35513   5.141   2.771   9.034 -0.8733 -0.0509 -0.7137
  258MOL0     O35514   5.345   2.683   9.288  0.2469 -0.0953  0.5093
  258MOL0     C35515   5.078   2.554   9.462 -0.7125 -0.0818 -0.8035
  258MOL0     C35516   5.039   2.511   9.581  0.8458  0.2165 -1.4227
  258MOL0     N35517   4.893   2.357  10.274 -0.6104  0.3318 -0.3437
  258MOL0     N35518   4.874   2.467  10.343 -0.7466  0.6737  0.2381
  258MOL0     C35519   3.987   3.313  10.439  1.0105 -0.3815  0.6593
  258MOL0     C35520   3.865   3.292  10.376  0.0495 -0.2783  0.0902
  258MOL0     C35521   3.519   3.244  10.112  0.4890 -0.4239 -0.0143
  258MOL0     C35522   3.508   3.362  10.043 -0.4845 -0.6202 -0.3265
  258MOL0     C35523   3.409   3.389   9.942  0.1674  0.6326  0.2118
  258MOL0     C35524   3.312   3.294   9.925  1.0768 -0.8779 -0.2559
  258MOL0     O35525   3.201   3.311   9.839 -0.1601  0.3713  0.2384
  258MOL0     C35526   3.158   3.448   9.801  0.2004  0.3531  0.0150
  258MOL0     C35527   3.020   3.449   9.743  0.1458  0.4135 -0.3060
  258MOL0     C35528   3.022   3.411   9.589 -0.5076  0.3020 -0.5865
  258MOL0     C35529   3.112   3.303   9.548 -0.4329  0.7963 -0.3254
  258MOL0     C35530   3.112   3.299   9.400 -0.1371 -0.1843 -0.2255
  258MOL0     C35531   3.098   3.265   9.285 -0.5925 -0.7234 -0.1308
  258MOL0     C35532   3.320   3.172  10.000 -0.0006 -0.2140 -0.2101
  258MOL0     C35533   3.425   3.147  10.094 -0.0721  0.6032 -0.7652
  258MOL0     C35534   3.405   3.026  10.177 -0.0983  0.2132 -0.1455
  258MOL0     H35535   3.962   3.247  10.058 -1.3864  1.0984  0.0127
  258MOL0     H35536   4.202   3.264  10.164 -0.5644  1.0503 -0.7987
  258MOL0     H35537   4.228   3.153  10.541  1.5466 -0.9862  1.7060
  258MOL0     H35538   4.218   3.305  10.640  2.6943 -0.8008  1.5893
  258MOL0     H35539   4.476   3.335  10.517  3.5314 -2.7562 -1.8874
  258MOL0     H35540   4.455   3.252  10.669  2.7581 -0.6228 -0.6898
  258MOL0     H35541   4.444   3.033  10.550 -0.7116  0.4013 -1.1835
  258MOL0     H35542   4.439   3.123  10.396  1.3580  0.7161 -0.4271
  258MOL0     H35543   4.667   3.170  10.401 -3.2240  1.6811 -0.0048
  258MOL0     H35544   4.669   3.138  10.576 -0.0713  3.4326 -0.2904
  258MOL0     H35545   4.655   2.899  10.553 -1.3702  0.2150  0.4450
  258MOL0     H35546   4.781   2.961  10.444 -1.2438  0.9531 -3.0153
  258MOL0     H35547   4.497   2.888  10.358 -0.0106  0.7673  1.2072
  258MOL0     H35548   4.621   2.939  10.258  0.6047  0.1867  0.2921
  258MOL0     H35549   4.579   2.673  10.264 -0.4254 -1.8325  2.4110
  258MOL0     H35550   4.620   2.681  10.433 -0.4061 -0.8920 -0.0424
  258MOL0     H35551   4.819   2.754  10.213 -1.5733 -1.3751 -2.5267
  258MOL0     H35552   4.849   2.725  10.392  4.1619  0.9367 -2.3909
  258MOL0     H35553   4.704   2.535  10.069  0.0180 -0.4064  0.4182
  258MOL0     H35554   4.830   2.349   9.941  1.2885 -0.0685 -0.9238
  258MOL0     H35555   4.734   2.226  10.021  0.6808  0.2763 -2.5554
  258MOL0     H35556   4.967   2.130  10.114  0.6473  0.0078  0.4780
  258MOL0     H35557   4.933   2.103   9.949  0.4874  0.7163 -0.6936
  258MOL0     H35558   5.102   2.360  10.039  3.9667  1.6462 -1.2579
  258MOL0     H35559   5.176   2.206  10.037  0.1983  2.3153  0.4844
  258MOL0     H35560   5.236   2.281   9.833 -0.0651 -1.5897  1.6328
  258MOL0     H35561   5.096   2.200   9.777 -0.1884  1.0766 -1.2614
  258MOL0     H35562   5.318   2.398   9.712 -2.2403 -2.7633  0.9871
  258MOL0     H35563   5.481   2.482   9.402 -1.2023 -2.4635  0.2406
  258MOL0     H35564   5.523   2.482   9.572 -0.4005 -0.6324  0.0026
  258MOL0     H35565   5.482   2.638   9.499  1.9917 -0.0363  0.1934
  258MOL0     H35566   5.205   2.437   9.032 -0.7707 -0.8396 -1.6111
  258MOL0     H35567   5.245   2.505   8.778  2.0662  1.5546 -2.0033
  258MOL0     H35568   5.327   2.875   8.549  3.8533 -1.3736 -1.6895
  258MOL0     H35569   5.366   2.899   8.721  0.8761 -2.5712  2.1381
  258MOL0     H35570   5.558   2.836   8.611 -1.1164  0.3401 -1.2181
  258MOL0     H35571   5.507   2.697   8.710  1.8824 -1.4000 -1.2765
  258MOL0     H35572   5.454   2.703   8.413  0.0971  0.4593 -0.1874
  258MOL0     H35573   5.438   2.575   8.534 -2.4250  2.3412  1.6382
  258MOL0     H35574   5.662   2.567   8.374  2.6520  1.0361 -0.4123
  258MOL0     H35575   5.679   2.541   8.555 -1.1237  1.3644  1.1686
  258MOL0     H35576   5.722   2.815   8.426  1.1039  0.2157  0.3102
  258MOL0     H35577   5.771   2.754   8.591  1.2953 -2.5565  0.9108
  258MOL0     H35578   5.920   2.586   8.442  2.5282  0.3579  0.4469
  258MOL0     H35579   5.967   2.744   8.462  1.8416 -2.1590 -1.3123
  258MOL0     H35580   5.900   2.812   8.244 -4.9719  0.9534  0.7600
  258MOL0     H35581   5.772   2.696   8.230  0.3194 -2.3906 -0.9483
  258MOL0     H35582   6.083   2.637   8.220  0.2701  1.0198 -2.1620
  258MOL0     H35583   5.970   2.628   8.089  1.5594 -1.1188  0.1653
  258MOL0     H35584   5.177   2.922   8.878  0.4560 -0.4369 -1.1306
  258MOL0     H35585   5.096   2.837   9.107  2.4424  0.9691  0.5799
  258MOL0     H35586   4.993   2.593   9.406 -3.1429  1.1547  3.2513
  258MOL0     H35587   4.934   2.515   9.607  1.2902 -0.2329  0.6493
  258MOL0     H35588   3.998   3.326  10.546 -0.3865  1.4726  0.6226
  258MOL0     H35589   3.778   3.315  10.437 -0.3643 -2.0388  0.2421
  258MOL0     H35590   3.583   3.439  10.057 -0.2187 -0.9025 -0.2106
  258MOL0     H35591   3.415   3.485   9.892 -1.9603  1.4884  1.4963
  258MOL0     H35592   3.152   3.509   9.891  2.5375  2.0776 -0.8991
  258MOL0     H35593   3.232   3.494   9.735  0.1361  1.8092  0.9141
  258MOL0     H35594   2.990   3.554   9.743  1.0768  0.7207 -2.1938
  258MOL0     H35595   2.948   3.390   9.800  2.2180 -2.6955 -0.6245
  258MOL0     H35596   2.928   3.374   9.547 -0.5210  1.9023 -2.0509
  258MOL0     H35597   3.051   3.502   9.536 -0.7028 -0.9607 -3.0152
  258MOL0     H35598   3.085   3.208   9.596  1.7334 -0.1199 -0.8231
  258MOL0     H35599   3.214   3.318   9.583 -0.8919  2.3193  0.4148
  258MOL0     H35600   3.100   3.238   9.181 -1.2742 -1.4066  0.0289
  258MOL0     H35601   3.249   3.092   9.981  1.4736 -0.8807 -3.7964
  258MOL0     H35602   3.376   3.054  10.279  1.9183 -1.4455  0.9673
  258MOL0     H35603   3.311   2.980  10.144 -1.1605  0.6347  2.1164
  258MOL0     H35604   3.481   2.947  10.174  0.2562  0.5711 -3.0327
  259MOL0     O35605   3.468   9.012   1.812 -1.0799  0.5330  0.0686
  259MOL0     C35606   3.356   8.964   1.794 -0.2044 -0.2066 -0.4461
  259MOL0     O35607   3.254   8.961   1.884  0.7504  0.2602  0.3230
  259MOL0     C35608   3.279   8.996   2.016  0.5217  1.6616 -0.5164
  259MOL0     C35609   3.322   9.125   2.055  0.1739 -0.0861  0.3393
  259MOL0     C35610   3.365   9.142   2.186  0.6147  0.2730  0.1142
  259MOL0     C35611   3.335   9.042   2.287 -0.7424 -0.6006  0.6539
  259MOL0     O35612   3.355   9.076   2.424 -0.0602 -0.0323  0.3108
  259MOL0     C35613   3.252   9.048   2.519  0.7949 -0.6423 -1.0089
  259MOL0     C35614   3.292   9.098   2.655 -0.4458 -0.0546  0.5106
  259MOL0     C35615   3.367   9.233   2.646  0.1922 -0.2149 -0.1055
  259MOL0     C35616   3.262   9.340   2.597  0.1417  0.8766 -0.5161
  259MOL0     C35617   3.330   9.475   2.604  0.6684 -0.5424  0.3865
  259MOL0     C35618   3.220   9.589   2.588 -0.1540  0.3718  0.5021
  259MOL0     C35619   3.192   9.607   2.448  0.1509 -0.4304  0.2340
  259MOL0     C35620   3.102   9.724   2.430  0.0481  0.0671  0.3697
  259MOL0     N35621   3.058   9.743   2.288  0.6527 -0.4348 -0.6131
  259MOL0     C35622   3.043   9.865   2.238  0.1782 -1.1893  0.6501
  259MOL0     C35623   2.990   9.857   2.111 -0.1125  0.3444 -0.2802
  259MOL0     C35624   2.956   9.972   2.016 -0.2701 -0.0080  0.0284
  259MOL0     C35625   3.071   9.983   1.915  0.2658 -0.3540  0.0173
  259MOL0     C35626   3.073   9.862   1.818 -0.6248 -0.8463 -1.1419
  259MOL0     C35627   2.942   9.791   1.779  0.3548 -0.5282  0.1567
  259MOL0     O35628   2.988   9.733   1.658  0.5151 -0.5852  0.1095
  259MOL0     C35629   2.891   9.651   1.602  0.2075 -0.3307  0.4717
  259MOL0     C35630   2.852   9.534   1.659 -0.8926  0.3736 -0.0166
  259MOL0     C35631   2.753   9.455   1.601  0.3509 -0.6522 -0.1185
  259MOL0     C35632   2.709   9.341   1.686  1.1625  0.6060  0.2135
  259MOL0     C35633   2.691   9.489   1.476  0.5934  0.6738 -0.6568
  259MOL0     C35634   2.587   9.401   1.406 -0.0467 -0.9488 -0.1168
  259MOL0     O35635   2.613   9.378   1.273  0.3994  0.1783 -0.3069
  259MOL0     C35636   2.509   9.318   1.212 -0.0339  0.1165 -0.0145
  259MOL0     C35637   2.391   9.389   1.184 -0.5601  0.7571 -0.4473
  259MOL0     C35638   2.320   9.347   1.066  0.0772  0.1078  0.5325
  259MOL0     C35639   2.352   9.239   0.987 -0.6624  0.5035  0.2276
  259MOL0     O35640   2.280   9.194   0.877  0.3660 -0.1915 -0.0962
  259MOL0     C35641   2.145   9.171   0.909  0.5856  0.6769  0.0898
  259MOL0     C35642   2.097   9.082   0.791 -0.0294 -0.4249  0.8706
  259MOL0     C35643   2.120   8.930   0.813  0.7483  0.4479  0.0414
  259MOL0     C35644   2.069   8.846   0.696  0.5080  0.2677  0.1048
  259MOL0     C35645   2.036   8.712   0.735 -1.2592  0.7558  0.3914
  259MOL0     C35646   2.045   8.606   0.628 -0.2668 -0.2732  0.2495
  259MOL0     C35647   2.013   8.466   0.687 -0.6001 -0.1264  0.1021
  259MOL0     C35648   1.882   8.449   0.765 -0.1545  0.3810 -0.1387
  259MOL0    Cl35649   1.852   8.285   0.796  0.1944  0.8250  0.3473
  259MOL0     C35650   2.461   9.166   1.036  0.0626  1.1318  0.8592
  259MOL0     C35651   2.542   9.196   1.148  0.3729 -0.5889  0.3414
  259MOL0     O35652   2.498   9.355   1.473  0.2559 -0.2633 -0.3127
  259MOL0     C35653   2.743   9.605   1.418 -0.0561 -0.2151 -0.0935
  259MOL0     C35654   2.831   9.694   1.480 -0.7663  0.6192  0.2973
  259MOL0     N35655   2.977   9.722   2.089  0.5273 -0.4718  0.2196
  259MOL0     N35656   3.007   9.661   2.195 -0.8184 -0.9002  0.3059
  259MOL0     C35657   3.281   8.919   2.242 -0.3559  0.7761  0.2081
  259MOL0     C35658   3.254   8.896   2.110 -0.3762  0.6268  0.5997
  259MOL0     C35659   3.329   8.933   1.657  0.1136 -0.1166  1.2776
  259MOL0     C35660   3.227   8.830   1.637 -0.0370 -1.1888 -0.0350
  259MOL0     C35661   3.193   8.788   1.517 -0.9380  0.2632 -0.1461
  259MOL0     C35662   3.245   8.837   1.399 -0.4913  0.3773 -0.0738
  259MOL0     O35663   3.224   8.774   1.280  0.2698 -0.7277 -0.2523
  259MOL0     C35664   3.243   8.633   1.274  1.0650  0.1738 -0.4878
  259MOL0     C35665   3.204   8.564   1.140  0.3047 -0.1705 -0.2015
  259MOL0     C35666   3.197   8.414   1.151  0.2717 -0.0618  0.7723
  259MOL0     C35667   3.044   8.360   1.160 -0.0667  0.1737  0.3257
  259MOL0     C35668   2.975   8.396   1.279 -0.4743  1.1855  0.0223
  259MOL0     C35669   2.909   8.405   1.379 -0.3592  1.1413  0.4459
  259MOL0     C35670   3.347   8.935   1.412  0.1240  0.3720 -0.0652
  259MOL0     C35671   3.391   8.987   1.538  0.0718 -0.1687 -0.9266
  259MOL0     C35672   3.511   9.083   1.531 -0.3048 -0.2295  0.0598
  259MOL0     H35673   3.353   9.202   1.985 -3.1291  0.5612 -0.6007
  259MOL0     H35674   3.395   9.239   2.225 -1.4211 -0.0417  2.8164
  259MOL0     H35675   3.226   8.942   2.516  0.7150 -0.6356 -0.5794
  259MOL0     H35676   3.156   9.091   2.489 -0.0017 -0.5928  1.4431
  259MOL0     H35677   3.210   9.115   2.726  0.4564 -0.2821  1.6217
  259MOL0     H35678   3.355   9.018   2.693  2.3758  0.2383 -3.0273
  259MOL0     H35679   3.407   9.264   2.744  3.6061  2.7235 -2.1538
  259MOL0     H35680   3.455   9.240   2.581  0.2541  1.6144  0.1237
  259MOL0     H35681   3.236   9.327   2.492 -0.2367  1.4240 -0.4890
  259MOL0     H35682   3.177   9.326   2.664  1.1674  1.6390  1.0179
  259MOL0     H35683   3.413   9.494   2.536 -1.3240 -1.5039 -2.4654
  259MOL0     H35684   3.385   9.472   2.699 -0.8388 -1.3038  1.2814
  259MOL0     H35685   3.129   9.566   2.644  0.2426 -0.6969  0.7250
  259MOL0     H35686   3.266   9.682   2.625 -1.1251  0.3139  1.9437
  259MOL0     H35687   3.154   9.519   2.396  0.2300  0.0429 -0.6361
  259MOL0     H35688   3.286   9.618   2.394  0.0484 -0.3503  0.0713
  259MOL0     H35689   3.017   9.722   2.499 -1.6309  2.6542 -1.4244
  259MOL0     H35690   3.155   9.818   2.448  0.9700  0.7003 -4.3679
  259MOL0     H35691   3.063   9.962   2.282 -0.3196 -0.7099 -0.1481
  259MOL0     H35692   2.941  10.052   2.089  1.4714 -1.4335  2.0801
  259MOL0     H35693   2.857   9.963   1.971  0.8515  1.8588 -3.1249
  259MOL0     H35694   3.068  10.077   1.859  3.4281 -0.9124 -1.2990
  259MOL0     H35695   3.163   9.987   1.974  0.2961  0.8043 -0.0973
  259MOL0     H35696   3.121   9.896   1.726 -0.0427 -0.9877 -0.8982
  259MOL0     H35697   3.134   9.787   1.868 -3.0748 -0.8658  2.1534
  259MOL0     H35698   2.922   9.721   1.861  2.0910 -0.4396  0.6930
  259MOL0     H35699   2.866   9.868   1.760 -0.0580 -0.9664  0.0294
  259MOL0     H35700   2.889   9.514   1.759 -2.6817 -3.0550  0.1008
  259MOL0     H35701   2.602   9.339   1.705  0.9226  1.3708 -0.9540
  259MOL0     H35702   2.747   9.338   1.788 -1.2986  0.6676  1.1898
  259MOL0     H35703   2.742   9.244   1.647 -0.2601  1.0177 -2.2822
  259MOL0     H35704   2.363   9.478   1.239 -1.3257 -0.5462  1.3862
  259MOL0     H35705   2.230   9.404   1.041  0.0846  0.0295  0.3256
  259MOL0     H35706   2.139   9.113   1.002  0.8218 -2.8203 -1.9179
  259MOL0     H35707   2.091   9.265   0.901  0.8520  0.7195 -1.3766
  259MOL0     H35708   1.989   9.099   0.787 -0.0928 -0.9915 -0.2962
  259MOL0     H35709   2.142   9.108   0.695 -0.6391  0.7038  0.8759
  259MOL0     H35710   2.066   8.924   0.908 -0.0105 -1.1430 -0.4522
  259MOL0     H35711   2.226   8.915   0.833  1.0398 -0.5070 -1.9486
  259MOL0     H35712   2.145   8.847   0.617  1.3477 -0.7367  0.8880
  259MOL0     H35713   1.977   8.892   0.658  0.6641  2.2509  1.9203
  259MOL0     H35714   2.101   8.695   0.821 -1.3105 -1.3021  0.0806
  259MOL0     H35715   1.933   8.718   0.769 -1.1803 -2.2042  1.4608
  259MOL0     H35716   2.141   8.607   0.576  0.4371  0.7943  1.5052
  259MOL0     H35717   1.964   8.621   0.556  0.2140  2.3424  0.1321
  259MOL0     H35718   2.101   8.439   0.745  0.9306  2.1329 -1.0445
  259MOL0     H35719   1.997   8.396   0.604 -3.9634 -1.1579  1.4432
  259MOL0     H35720   1.803   8.488   0.701  0.1246 -1.3012 -1.5916
  259MOL0     H35721   1.886   8.508   0.857 -1.7730  2.2549 -1.1954
  259MOL0     H35722   2.480   9.075   0.981  3.2497  3.8647 -3.1536
  259MOL0     H35723   2.624   9.133   1.178  0.6535 -0.1992  0.4045
  259MOL0     H35724   2.706   9.627   1.318 -1.1626  0.2832  0.4057
  259MOL0     H35725   2.852   9.794   1.444 -1.8298  1.3987  1.7405
  259MOL0     H35726   3.254   8.849   2.321 -1.2819 -0.4955 -1.1630
  259MOL0     H35727   3.210   8.802   2.077  1.0668 -0.5237  1.8352
  259MOL0     H35728   3.162   8.785   1.711 -4.0808  3.6510 -0.1070
  259MOL0     H35729   3.124   8.704   1.523 -0.8255  0.2709  1.9615
  259MOL0     H35730   3.343   8.607   1.313  1.2078 -1.7233 -1.9649
  259MOL0     H35731   3.166   8.595   1.342 -0.7311  2.4231 -1.1566
  259MOL0     H35732   3.264   8.584   1.051 -1.2839  0.4523 -1.1913
  259MOL0     H35733   3.106   8.600   1.105 -0.0412 -1.6227 -0.8470
  259MOL0     H35734   3.236   8.373   1.057 -0.1445  1.4779 -0.1024
  259MOL0     H35735   3.262   8.378   1.232  1.2599  0.0872  0.0685
  259MOL0     H35736   3.046   8.251   1.153  0.1961  0.1118  1.2915
  259MOL0     H35737   2.985   8.398   1.076 -0.2126  2.4794  1.3923
  259MOL0     H35738   2.837   8.409   1.458 -0.3030  0.9991  0.5054
  259MOL0     H35739   3.385   8.979   1.320 -1.0609  1.3998 -0.0877
  259MOL0     H35740   3.509   9.164   1.605 -0.8473 -1.2986  1.2696
  259MOL0     H35741   3.606   9.031   1.545  2.1986  4.3441  2.3145
  259MOL0     H35742   3.518   9.120   1.428 -1.4992 -2.9436 -1.0986
  260MOL0     O35743   6.571   1.375   9.277  0.1360 -0.3240  0.8090
  260MOL0     C35744   6.667   1.318   9.325 -0.4964  0.6765  0.7312
  260MOL0     O35745   6.737   1.223   9.259 -0.0788 -0.3961 -0.1022
  260MOL0     C35746   6.675   1.173   9.155  0.4305  0.1606 -0.0421
  260MOL0     C35747   6.731   1.183   9.028  0.5050  0.1092  0.2363
  260MOL0     C35748   6.672   1.116   8.912  0.9310  0.2308 -0.2268
  260MOL0     C35749   6.540   1.067   8.924  0.2916 -0.1442 -0.8232
  260MOL0     O35750   6.459   1.019   8.828  0.1692 -0.1087  0.0969
  260MOL0     C35751   6.480   1.054   8.689 -0.0347 -0.2139  0.2957
  260MOL0     C35752   6.387   0.994   8.584 -1.0280 -0.3254  0.6175
  260MOL0     C35753   6.451   1.020   8.443  0.2234  0.0577 -0.3886
  260MOL0     C35754   6.363   0.933   8.344  0.1932 -0.1753  0.2809
  260MOL0     C35755   6.417   0.938   8.202 -1.4395  0.9978 -0.0955
  260MOL0     C35756   6.562   0.900   8.188 -0.1624 -0.5175  0.0064
  260MOL0     C35757   6.606   0.904   8.038 -0.5128  0.2841 -0.3624
  260MOL0     C35758   6.621   1.050   7.986  0.3284  0.5682  0.0599
  260MOL0     N35759   6.617   1.071   7.838 -0.5995 -0.1277 -0.4039
  260MOL0     C35760   6.635   1.195   7.786 -0.6658  0.6339  0.5305
  260MOL0     C35761   6.603   1.195   7.665 -0.6641 -0.2642  0.0594
  260MOL0     C35762   6.626   1.316   7.576 -0.3200 -0.3457 -1.1630
  260MOL0     C35763   6.531   1.308   7.457  0.4699 -1.1540  0.0770
  260MOL0     C35764   6.565   1.432   7.364 -0.0605  1.5084  0.0477
  260MOL0     C35765   6.512   1.414   7.224  0.3589  0.1219 -0.6988
  260MOL0     O35766   6.573   1.505   7.142 -0.8080  0.0036 -0.6164
  260MOL0     C35767   6.535   1.490   7.008 -0.2292 -1.4610 -1.1810
  260MOL0     C35768   6.505   1.602   6.936 -0.2230  0.0749 -0.1523
  260MOL0     C35769   6.454   1.596   6.806 -0.5335 -0.6248 -0.6137
  260MOL0     C35770   6.444   1.735   6.740  0.1135 -0.2945 -0.8472
  260MOL0     C35771   6.443   1.478   6.739  0.3726 -0.2053 -0.1188
  260MOL0     C35772   6.403   1.467   6.593 -0.0604 -0.7376 -0.2878
  260MOL0     O35773   6.322   1.566   6.549  0.1445  0.6156 -0.2574
  260MOL0     C35774   6.262   1.576   6.431 -0.1314 -0.3284 -0.2667
  260MOL0     C35775   6.214   1.458   6.370 -0.2541 -0.6435 -0.6291
  260MOL0     C35776   6.139   1.466   6.257 -0.6135 -0.3322  0.1418
  260MOL0     C35777   6.116   1.581   6.186 -0.2627 -0.8195 -0.9781
  260MOL0     O35778   6.037   1.580   6.075  0.4447 -0.5253 -0.3327
  260MOL0     C35779   5.914   1.650   6.103  0.6968 -0.8000 -0.2168
  260MOL0     C35780   5.792   1.566   6.082 -0.0235 -0.0131  0.1482
  260MOL0     C35781   5.791   1.444   6.187  0.2767 -0.7521  1.2594
  260MOL0     C35782   5.673   1.345   6.164 -0.1361 -0.5030  0.9583
  260MOL0     C35783   5.696   1.252   6.045  0.1954 -1.3000  0.2226
  260MOL0     C35784   5.566   1.190   5.992 -0.0599 -0.9830 -0.8824
  260MOL0     C35785   5.483   1.109   6.090  0.3116  0.2480 -0.0132
  260MOL0     C35786   5.371   1.041   6.025  0.6163 -0.1508  0.4003
  260MOL0    Cl35787   5.409   0.897   5.932  0.0887  0.0461  0.5030
  260MOL0     C35788   6.164   1.701   6.254 -0.6764 -0.0467  0.4626
  260MOL0     C35789   6.228   1.698   6.374  0.2869  0.6162  0.4970
  260MOL0     O35790   6.453   1.381   6.528 -0.3266  0.3766 -0.0087
  260MOL0     C35791   6.476   1.357   6.805  0.0750  0.4074 -0.5843
  260MOL0     C35792   6.519   1.362   6.940  0.5756  0.0387 -0.1258
  260MOL0     N35793   6.545   1.069   7.633  0.7860 -0.4492  0.2019
  260MOL0     N35794   6.551   0.994   7.742  0.7898  0.6345  0.1082
  260MOL0     C35795   6.485   1.054   9.063  0.4730 -0.6949  0.9533
  260MOL0     C35796   6.551   1.109   9.169  0.1248 -0.5260  0.6340
  260MOL0     C35797   6.732   1.376   9.444 -0.6208  0.1112 -0.2717
  260MOL0     C35798   6.762   1.286   9.555  0.3034 -0.3851 -0.1952
  260MOL0     C35799   6.819   1.337   9.669  0.0342  0.5543  0.0640
  260MOL0     C35800   6.835   1.468   9.697  0.7356  0.6075 -0.7190
  260MOL0     O35801   6.876   1.493   9.829  0.4974  0.0291 -0.2374
  260MOL0     C35802   6.911   1.631   9.863  0.6808  1.0015  0.0331
  260MOL0     C35803   6.896   1.634  10.012 -0.7928 -0.3158 -0.0667
  260MOL0     C35804   6.939   1.771  10.078 -0.4199 -0.9276  0.0550
  260MOL0     C35805   7.089   1.783  10.082  0.2068  0.6280  0.5029
  260MOL0     C35806   7.135   1.844  10.213 -0.1424  0.3546  0.1591
  260MOL0     C35807   7.175   1.902  10.311  0.0666 -0.6939  0.2323
  260MOL0     C35808   6.806   1.561   9.594 -0.2312  0.1034  0.0878
  260MOL0     C35809   6.753   1.520   9.464  0.8466  0.0735  0.4461
  260MOL0     C35810   6.727   1.625   9.363 -0.0851  0.2834  0.1705
  260MOL0     H35811   6.813   1.252   9.015 -1.1490  1.9737 -1.0058
  260MOL0     H35812   6.732   1.128   8.822 -0.0719  0.7961 -0.8372
  260MOL0     H35813   6.586   1.033   8.672  0.0505  0.5003 -0.1404
  260MOL0     H35814   6.465   1.163   8.691  0.7866 -0.0993  0.5123
  260MOL0     H35815   6.379   0.886   8.602 -0.0176 -0.6498 -0.7144
  260MOL0     H35816   6.286   1.034   8.596 -2.2142 -3.2818  1.3443
  260MOL0     H35817   6.452   1.127   8.418  3.4263  0.0258 -0.8348
  260MOL0     H35818   6.555   0.987   8.437 -0.6832 -2.9868 -0.6948
  260MOL0     H35819   6.352   0.830   8.377  1.0132  0.0943  1.4634
  260MOL0     H35820   6.264   0.980   8.337 -0.3002 -1.2449 -0.0918
  260MOL0     H35821   6.394   1.037   8.162 -1.6604 -0.6623 -4.7566
  260MOL0     H35822   6.359   0.870   8.138  1.9706 -1.9150 -0.4294
  260MOL0     H35823   6.630   0.969   8.239  0.2599  0.6400 -2.0251
  260MOL0     H35824   6.569   0.797   8.225  1.7296  0.0224  1.2809
  260MOL0     H35825   6.525   0.855   7.983 -2.3719  1.8667  0.8056
  260MOL0     H35826   6.698   0.849   8.020  0.2605  0.4442  2.5774
  260MOL0     H35827   6.544   1.119   8.022  1.2593  2.2276 -0.9866
  260MOL0     H35828   6.718   1.091   8.017 -0.1307  0.7546  1.3249
  260MOL0     H35829   6.671   1.289   7.828 -0.3833  1.1172 -0.7506
  260MOL0     H35830   6.732   1.328   7.552 -0.1855  4.1326  0.7930
  260MOL0     H35831   6.593   1.409   7.622 -1.0694 -0.7623 -0.8253
  260MOL0     H35832   6.542   1.214   7.404 -1.1096 -1.2041 -0.2056
  260MOL0     H35833   6.425   1.304   7.486 -0.2544 -1.3635 -2.4165
  260MOL0     H35834   6.533   1.528   7.404  1.0924  1.1676  1.9340
  260MOL0     H35835   6.672   1.432   7.341  0.1148  2.1544  0.8371
  260MOL0     H35836   6.534   1.309   7.203  0.7698  0.2280 -0.7915
  260MOL0     H35837   6.405   1.437   7.235  1.0442  2.5956  2.0374
  260MOL0     H35838   6.525   1.696   6.987  0.1665  0.0184 -0.1949
  260MOL0     H35839   6.343   1.767   6.716  0.1406  1.4426  1.1043
  260MOL0     H35840   6.514   1.746   6.656  2.7154  1.6395  1.4202
  260MOL0     H35841   6.463   1.821   6.804 -2.8157 -0.0343 -0.2014
  260MOL0     H35842   6.240   1.368   6.424 -1.1985  0.1257  1.2108
  260MOL0     H35843   6.091   1.382   6.207 -0.5532 -0.7199  0.7285
  260MOL0     H35844   5.907   1.699   6.201  0.2184  1.1224 -1.1574
  260MOL0     H35845   5.899   1.735   6.035 -1.7127  1.4828  2.8508
  260MOL0     H35846   5.697   1.618   6.096  0.5105  0.1724  3.9841
  260MOL0     H35847   5.796   1.511   5.987 -2.8262 -0.3596  0.1516
  260MOL0     H35848   5.789   1.492   6.285 -0.5074 -0.4550  1.1012
  260MOL0     H35849   5.885   1.388   6.187  0.4996 -0.4953  3.7702
  260MOL0     H35850   5.576   1.393   6.146  0.1510  0.4122  1.7729
  260MOL0     H35851   5.657   1.287   6.256 -1.6369  0.2934  1.2304
  260MOL0     H35852   5.741   1.312   5.966  0.8661 -0.5665  1.1351
  260MOL0     H35853   5.775   1.184   6.078  1.6237  1.6820  3.6593
  260MOL0     H35854   5.571   1.132   5.899 -2.0993 -1.8863 -0.4736
  260MOL0     H35855   5.489   1.263   5.966 -1.0496 -2.1656 -1.3395
  260MOL0     H35856   5.442   1.169   6.172 -1.9809 -0.6091 -0.4479
  260MOL0     H35857   5.543   1.030   6.134 -3.7067 -3.1774 -0.0072
  260MOL0     H35858   5.314   1.114   5.967  1.2064  0.3280  0.4036
  260MOL0     H35859   5.312   1.002   6.109  0.1327 -0.4113 -0.0552
  260MOL0     H35860   6.164   1.794   6.198 -0.1113  0.7936  1.8097
  260MOL0     H35861   6.244   1.793   6.425  3.0288  1.1550 -1.1285
  260MOL0     H35862   6.475   1.261   6.754  0.4563  0.0851  0.0019
  260MOL0     H35863   6.545   1.274   6.999 -1.4937 -1.9509 -2.0159
  260MOL0     H35864   6.392   1.000   9.082  0.2045 -1.0765 -1.2300
  260MOL0     H35865   6.507   1.086   9.265 -1.2767 -2.1448 -0.3412
  260MOL0     H35866   6.739   1.181   9.549 -1.5611 -0.4786  4.4302
  260MOL0     H35867   6.851   1.266   9.745  3.2333  1.7687 -0.0205
  260MOL0     H35868   7.014   1.636   9.826  0.3753  1.5181 -0.7581
  260MOL0     H35869   6.848   1.717   9.839 -0.1574  0.8273  1.4668
  260MOL0     H35870   6.943   1.552  10.069 -2.0304 -0.4966  0.7498
  260MOL0     H35871   6.791   1.621  10.042 -0.7035 -0.2000  0.2974
  260MOL0     H35872   6.899   1.851  10.015  1.5499  0.3208  0.3178
  260MOL0     H35873   6.892   1.769  10.177 -0.6553  1.9664  0.0700
  260MOL0     H35874   7.124   1.846   9.999 -1.6739  0.1318 -0.7226
  260MOL0     H35875   7.127   1.681  10.077 -1.6714 -0.0948  0.4488
  260MOL0     H35876   7.214   1.943  10.402  2.5114  0.2037 -1.1325
  260MOL0     H35877   6.830   1.664   9.616 -1.8261  0.6317 -0.5009
  260MOL0     H35878   6.620   1.628   9.337 -0.6050 -0.6884  2.0324
  260MOL0     H35879   6.758   1.726   9.392  0.7800 -1.2275  5.3953
  260MOL0     H35880   6.786   1.596   9.276  2.1579 -0.5264  1.8844
  261MOL0     O35881   6.288   5.518   3.311 -0.3655  0.2533  0.9090
  261MOL0     C35882   6.349   5.619   3.290 -0.3903 -1.3622 -0.0017
  261MOL0     O35883   6.319   5.709   3.192 -0.7054 -0.0969  0.4639
  261MOL0     C35884   6.229   5.681   3.088 -0.1165 -0.3412  0.3717
  261MOL0     C35885   6.267   5.586   2.999 -0.0717  0.7092  0.2835
  261MOL0     C35886   6.184   5.568   2.892 -0.2361 -0.0668 -0.1506
  261MOL0     C35887   6.062   5.632   2.874 -0.3110 -0.2027 -0.1909
  261MOL0     O35888   5.992   5.595   2.764 -0.4758  1.8052 -0.6783
  261MOL0     C35889   5.936   5.695   2.672 -0.6836  0.3571 -0.1216
  261MOL0     C35890   5.837   5.629   2.574 -0.1373  0.0606 -0.3374
  261MOL0     C35891   5.902   5.538   2.472 -0.1749 -0.0116  0.4083
  261MOL0     C35892   5.807   5.457   2.385  0.6785  0.1474  0.6733
  261MOL0     C35893   5.865   5.401   2.254  0.2295  0.5774  0.1914
  261MOL0     C35894   5.806   5.272   2.204  1.2347 -0.7958 -0.4234
  261MOL0     C35895   5.663   5.290   2.154 -0.2114 -0.0019  0.9186
  261MOL0     C35896   5.645   5.386   2.033 -0.4014 -0.7524 -0.0993
  261MOL0     N35897   5.721   5.331   1.913  0.5386  0.2229 -0.7698
  261MOL0     C35898   5.699   5.205   1.858  0.1116 -0.9336 -0.9927
  261MOL0     C35899   5.800   5.187   1.768 -0.1216 -0.4762  0.0720
  261MOL0     C35900   5.818   5.071   1.674  0.2190 -0.5748  0.4891
  261MOL0     C35901   5.862   5.101   1.534  0.1616  0.0422 -0.1381
  261MOL0     C35902   5.909   4.974   1.451  0.0253  0.3595 -0.7689
  261MOL0     C35903   5.902   5.006   1.298 -0.3286 -0.3878 -0.5850
  261MOL0     O35904   5.974   5.127   1.268 -0.2721 -0.2511  0.7245
  261MOL0     C35905   5.995   5.151   1.134 -0.6628  0.0987 -0.3605
  261MOL0     C35906   6.108   5.218   1.096  0.7603  0.5306  0.8340
  261MOL0     C35907   6.133   5.263   0.965  0.6249 -0.0248 -0.6264
  261MOL0     C35908   6.242   5.372   0.950  0.4130  0.7370 -0.2522
  261MOL0     C35909   6.040   5.229   0.864 -0.0097  0.2376 -0.9830
  261MOL0     C35910   6.057   5.266   0.721 -0.3617 -0.1027  0.8635
  261MOL0     O35911   5.982   5.203   0.627 -0.2990 -0.4247 -0.1571
  261MOL0     C35912   5.986   5.242   0.494 -0.3396 -0.9325 -0.3521
  261MOL0     C35913   6.043   5.163   0.396 -0.6850  1.0902  0.4652
  261MOL0     C35914   6.038   5.195   0.261  0.2244 -0.5101 -0.1901
  261MOL0     C35915   5.996   5.320   0.218 -0.5994  0.2594  0.2227
  261MOL0     O35916   5.986   5.361   0.088  0.0395  0.0635  0.3022
  261MOL0     C35917   6.070   5.309  -0.020  1.0904  0.4464 -0.1563
  261MOL0     C35918   6.039   5.379  -0.151  0.2730  0.2106 -0.0305
  261MOL0     C35919   6.084   5.529  -0.143 -0.1499 -0.2422 -0.1608
  261MOL0     C35920   6.058   5.602  -0.271 -0.7512 -0.5230 -0.0647
  261MOL0     C35921   6.144   5.728  -0.270  0.1342  1.1188  0.6806
  261MOL0     C35922   6.166   5.778  -0.411 -0.5098 -0.1476 -0.4346
  261MOL0     C35923   6.218   5.923  -0.416 -0.1565  0.8231  1.2189
  261MOL0     C35924   6.366   5.940  -0.363 -0.4788 -0.2308  0.3955
  261MOL0    Cl35925   6.404   6.112  -0.365  0.0706  0.2273  0.2357
  261MOL0     C35926   5.951   5.406   0.318  0.0828 -0.0128  0.0442
  261MOL0     C35927   5.939   5.363   0.454  0.7961 -0.4231  0.4123
  261MOL0     O35928   6.145   5.348   0.694 -0.9329 -0.0827  0.7771
  261MOL0     C35929   5.941   5.137   0.898 -0.0520 -1.6358  0.9965
  261MOL0     C35930   5.915   5.104   1.034  0.3343  0.4052  0.9331
  261MOL0     N35931   5.886   5.295   1.773  0.2978  0.9777 -0.2353
  261MOL0     N35932   5.836   5.375   1.862 -0.3530 -0.5157 -0.3757
  261MOL0     C35933   6.023   5.727   2.972  0.1824 -0.0046 -0.4475
  261MOL0     C35934   6.107   5.748   3.086  0.2692 -0.1927  0.4261
  261MOL0     C35935   6.476   5.637   3.370  0.9117 -0.6615  0.2274
  261MOL0     C35936   6.515   5.771   3.357  0.9902  0.3842 -0.0833
  261MOL0     C35937   6.616   5.823   3.424 -0.1337 -0.2870  0.5937
  261MOL0     C35938   6.699   5.746   3.503  0.0569  0.2103 -0.7420
  261MOL0     O35939   6.807   5.803   3.571 -0.3666 -0.0649 -0.0025
  261MOL0     C35940   6.792   5.830   3.709  0.1955  0.8148 -0.1606
  261MOL0     C35941   6.936   5.865   3.769 -0.2450  0.1066 -0.0709
  261MOL0     C35942   7.022   5.748   3.764  0.0753  0.6418 -0.4127
  261MOL0     C35943   7.148   5.775   3.846 -0.7500 -0.3797 -0.2945
  261MOL0     C35944   7.240   5.662   3.824  0.4678  0.5154 -0.8522
  261MOL0     C35945   7.325   5.573   3.806 -0.3653  0.3898 -0.8047
  261MOL0     C35946   6.657   5.615   3.524 -0.0696  0.8332  0.2036
  261MOL0     C35947   6.543   5.561   3.462 -0.2844  0.0374  0.7781
  261MOL0     C35948   6.512   5.412   3.473  0.8324 -0.2907  0.1605
  261MOL0     H35949   6.359   5.530   2.984 -0.8628 -0.3589 -0.7990
  261MOL0     H35950   6.205   5.503   2.807 -1.3115  0.8536 -1.1658
  261MOL0     H35951   6.012   5.750   2.615  2.3747 -0.1257  3.1527
  261MOL0     H35952   5.873   5.764   2.729 -0.4387 -0.8615  1.7136
  261MOL0     H35953   5.778   5.561   2.635  0.6608  0.0410  0.4255
  261MOL0     H35954   5.771   5.701   2.524 -0.5284 -0.1692 -0.1550
  261MOL0     H35955   5.969   5.597   2.409 -0.5528 -0.4365 -0.4149
  261MOL0     H35956   5.968   5.468   2.524  0.9466  1.5322  1.1174
  261MOL0     H35957   5.762   5.377   2.446  0.3227 -1.3456 -1.4256
  261MOL0     H35958   5.719   5.514   2.355  0.9804  0.1115 -0.2916
  261MOL0     H35959   5.972   5.384   2.266 -0.0007  0.3609  2.3382
  261MOL0     H35960   5.848   5.478   2.178 -2.2397 -1.0547 -1.0587
  261MOL0     H35961   5.863   5.234   2.118  1.4272 -0.5517 -0.4033
  261MOL0     H35962   5.806   5.200   2.287 -1.6121 -0.1443  0.2658
  261MOL0     H35963   5.588   5.314   2.230 -0.3713  1.0571  0.4434
  261MOL0     H35964   5.635   5.195   2.107 -1.4038  3.0345 -5.5959
  261MOL0     H35965   5.540   5.388   2.003  0.2245 -0.9044 -2.5133
  261MOL0     H35966   5.664   5.491   2.056  0.2155 -0.9192  0.1748
  261MOL0     H35967   5.618   5.139   1.888 -2.1421  2.0342 -0.0688
  261MOL0     H35968   5.724   5.016   1.669  0.0294 -0.1041 -2.4934
  261MOL0     H35969   5.894   5.004   1.716  0.4224 -0.8090 -0.2516
  261MOL0     H35970   5.782   5.147   1.474 -1.4094 -3.5663 -1.0675
  261MOL0     H35971   5.945   5.172   1.541 -1.3745  1.8141  1.1339
  261MOL0     H35972   6.011   4.946   1.476 -0.1382  0.0290 -0.4615
  261MOL0     H35973   5.833   4.899   1.477 -1.2005  1.6636 -0.4047
  261MOL0     H35974   5.954   4.916   1.266  0.2298 -0.4056  0.3339
  261MOL0     H35975   5.796   5.010   1.269  0.0780  0.4725 -2.0644
  261MOL0     H35976   6.170   5.250   1.179 -1.1654  3.1433  1.3771
  261MOL0     H35977   6.289   5.396   1.046  4.0724 -0.4254 -1.5914
  261MOL0     H35978   6.198   5.468   0.923 -0.1438  0.9658  1.3528
  261MOL0     H35979   6.330   5.361   0.886 -0.6380  1.8452 -1.9548
  261MOL0     H35980   6.082   5.069   0.432 -0.3635  1.4717  1.1208
  261MOL0     H35981   6.054   5.117   0.187 -1.8002  1.2142 -2.6453
  261MOL0     H35982   6.175   5.316   0.009  0.5163 -2.3652  3.3798
  261MOL0     H35983   6.042   5.203  -0.027 -2.3977  1.3510 -2.3956
  261MOL0     H35984   6.091   5.323  -0.230  2.5232 -0.4418  1.7902
  261MOL0     H35985   5.934   5.370  -0.180  0.1461  1.8464 -0.1196
  261MOL0     H35986   6.190   5.519  -0.116 -0.1971  0.0497  0.1329
  261MOL0     H35987   6.048   5.584  -0.056  3.7654  0.0222  1.4872
  261MOL0     H35988   5.953   5.627  -0.289 -0.0051  2.5846 -0.6753
  261MOL0     H35989   6.092   5.540  -0.354 -0.3138 -0.4870  0.0809
  261MOL0     H35990   6.096   5.809  -0.214 -2.0491  0.8174 -0.6276
  261MOL0     H35991   6.245   5.705  -0.236 -0.4925 -0.4926  1.5740
  261MOL0     H35992   6.069   5.783  -0.462  0.0105  2.0575 -1.2852
  261MOL0     H35993   6.238   5.714  -0.463  0.4236  0.5597 -0.0346
  261MOL0     H35994   6.151   5.995  -0.370 -2.0722 -0.5803  0.7416
  261MOL0     H35995   6.215   5.956  -0.520 -0.3374  1.7005  1.4938
  261MOL0     H35996   6.430   5.888  -0.435  0.8085  0.7608  0.7912
  261MOL0     H35997   6.375   5.903  -0.260 -1.9269 -0.2471  0.5330
  261MOL0     H35998   5.915   5.504   0.289  0.4874 -0.6205 -2.7056
  261MOL0     H35999   5.892   5.432   0.524 -4.0043 -2.2042 -0.6343
  261MOL0     H36000   5.877   5.113   0.814 -0.5900  0.5105  0.7462
  261MOL0     H36001   5.822   5.054   1.062  1.0005 -0.4898  1.6019
  261MOL0     H36002   5.935   5.790   2.961  0.7646  0.6453 -1.5313
  261MOL0     H36003   6.080   5.832   3.148 -2.8227  0.2923 -1.3784
  261MOL0     H36004   6.468   5.848   3.297  2.0867  1.3852  0.3125
  261MOL0     H36005   6.637   5.927   3.400 -0.7689 -0.8177 -2.6905
  261MOL0     H36006   6.733   5.922   3.716 -0.3524  0.4920 -0.5134
  261MOL0     H36007   6.756   5.742   3.762 -0.9184  0.9225 -0.7210
  261MOL0     H36008   6.941   5.906   3.870 -1.6287  2.2976 -0.8276
  261MOL0     H36009   6.983   5.936   3.700 -1.5515 -0.6058 -1.7678
  261MOL0     H36010   6.976   5.659   3.808  2.0313 -1.4458 -2.2947
  261MOL0     H36011   7.056   5.744   3.660 -1.8153  1.1276 -1.0876
  261MOL0     H36012   7.136   5.794   3.953  1.6726  1.1540 -0.2187
  261MOL0     H36013   7.203   5.861   3.808  1.3268 -0.8226  1.5256
  261MOL0     H36014   7.384   5.487   3.780 -1.3873  0.4755 -3.7054
  261MOL0     H36015   6.719   5.556   3.590 -2.7568 -1.4423  0.9317
  261MOL0     H36016   6.557   5.348   3.398 -1.8745 -2.8664  0.5341
  261MOL0     H36017   6.536   5.378   3.574  1.9475  2.2970  0.8455
  261MOL0     H36018   6.403   5.401   3.473  0.4927  1.6061  3.7035
  262MOL0     O36019   6.772  10.562   4.829 -0.4415  0.5480 -0.0762
  262MOL0     C36020   6.705  10.569   4.935 -0.4987 -0.7795  0.2879
  262MOL0     O36021   6.698  10.670   5.016 -0.8480 -0.1613 -0.2641
  262MOL0     C36022   6.778  10.782   5.016  0.5483 -0.2632 -0.4136
  262MOL0     C36023   6.907  10.790   4.968 -0.7194  0.1443  0.1283
  262MOL0     C36024   6.976  10.906   4.951 -0.8943 -0.4492  0.6752
  262MOL0     C36025   6.921  11.024   4.996 -0.1141 -0.2533 -0.2506
  262MOL0     O36026   7.000  11.135   4.981  0.2750 -1.0459 -0.2487
  262MOL0     C36027   6.918  11.255   4.958  0.2866  0.3691  0.3150
  262MOL0     C36028   7.000  11.374   4.915 -0.9106 -0.5200  0.8609
  262MOL0     C36029   7.079  11.362   4.777 -0.7791 -0.5394 -0.3964
  262MOL0     C36030   7.153  11.487   4.737  0.4152 -0.1533  0.8921
  262MOL0     C36031   7.236  11.467   4.610 -0.1566  0.3205  0.2759
  262MOL0     C36032   7.334  11.580   4.581 -0.1443  0.1558  0.2376
  262MOL0     C36033   7.434  11.553   4.465 -0.1968  0.6024 -0.2727
  262MOL0     C36034   7.453  11.682   4.385  0.0449 -0.8118 -0.0075
  262MOL0     N36035   7.546  11.770   4.449  0.3362 -0.2480 -0.0210
  262MOL0     C36036   7.679  11.739   4.493  0.0264 -0.3140  0.2084
  262MOL0     C36037   7.736  11.868   4.507 -0.1653  0.3815  0.6944
  262MOL0     C36038   7.866  11.895   4.561 -0.3819 -0.7335 -1.0738
  262MOL0     C36039   7.857  11.996   4.674 -0.1806 -0.1439 -0.0010
  262MOL0     C36040   7.740  11.953   4.777  0.3693 -0.5795  0.4879
  262MOL0     C36041   7.784  11.813   4.843 -0.2228 -0.4630  0.4485
  262MOL0     O36042   7.920  11.806   4.891  0.5649  0.0956  0.1000
  262MOL0     C36043   7.939  11.833   5.024  0.1589  0.0211  0.0885
  262MOL0     C36044   7.855  11.912   5.105  0.3944 -0.3534 -0.7813
  262MOL0     C36045   7.885  11.924   5.237  0.5803  0.5022  0.0184
  262MOL0     C36046   7.792  11.994   5.331  0.1997 -0.2906 -0.3391
  262MOL0     C36047   8.013  11.868   5.290  0.1546  0.1588  0.8079
  262MOL0     C36048   8.070  11.881   5.427  0.3968  0.4923 -0.1845
  262MOL0     O36049   8.176  11.801   5.445  0.3321  0.0561  0.4991
  262MOL0     C36050   8.253  11.808   5.560  0.5943 -0.8510  0.4260
  262MOL0     C36051   8.346  11.914   5.575  0.2264 -0.9777 -0.1001
  262MOL0     C36052   8.434  11.901   5.683 -0.2918  0.7327 -0.0368
  262MOL0     C36053   8.428  11.789   5.776  0.8370 -1.2646  0.1702
  262MOL0     O36054   8.519  11.781   5.872  0.0360 -0.0659 -0.1215
  262MOL0     C36055   8.574  11.897   5.930  0.5572  0.6066  0.1049
  262MOL0     C36056   8.616  11.881   6.082  1.3227 -0.3921  1.1579
  262MOL0     C36057   8.720  11.770   6.110  0.1734  0.5612 -0.2057
  262MOL0     C36058   8.816  11.803   6.229  0.1850 -0.1417  1.0245
  262MOL0     C36059   8.920  11.693   6.248  0.2825 -0.8391 -0.0669
  262MOL0     C36060   9.017  11.726   6.364 -0.4197 -0.9167  1.0719
  262MOL0     C36061   9.136  11.631   6.378  0.2623  0.1153  0.6770
  262MOL0     C36062   9.112  11.491   6.445  0.2945  0.1202 -0.7139
  262MOL0    Cl36063   9.112  11.516   6.628  0.2331  0.2709  0.3561
  262MOL0     C36064   8.338  11.689   5.749 -0.1054  0.5656 -0.0974
  262MOL0     C36065   8.253  11.696   5.638  0.1518 -0.1848 -0.4575
  262MOL0     O36066   8.036  11.963   5.513  1.1081 -0.0991  0.1060
  262MOL0     C36067   8.079  11.790   5.199 -0.2503  0.5490 -1.1741
  262MOL0     C36068   8.048  11.775   5.069  0.1585 -0.6041  0.2703
  262MOL0     N36069   7.648  11.964   4.460  0.3564  0.3505  0.6406
  262MOL0     N36070   7.530  11.904   4.433 -0.4736  0.9258  0.6273
  262MOL0     C36071   6.796  11.015   5.066  0.0476 -0.2601  1.0350
  262MOL0     C36072   6.725  10.896   5.067  0.1927  0.2138  0.0478
  262MOL0     C36073   6.581  10.487   4.939 -0.4915  0.1091  0.1620
  262MOL0     C36074   6.618  10.353   4.973  1.3372 -0.7616  0.2545
  262MOL0     C36075   6.518  10.260   5.002 -0.5951  0.6903 -0.5935
  262MOL0     C36076   6.386  10.301   5.002  0.6715 -0.7859  0.6376
  262MOL0     O36077   6.285  10.225   5.060  0.1740  0.6430 -0.2352
  262MOL0     C36078   6.316  10.111   5.150 -0.0711  1.4002  0.2749
  262MOL0     C36079   6.193  10.049   5.223  0.1786  0.2100 -0.3867
  262MOL0     C36080   6.060  10.063   5.153  0.9012 -0.4160 -0.2212
  262MOL0     C36081   5.989   9.934   5.143 -0.6303  0.3609  0.4112
  262MOL0     C36082   5.976   9.859   5.265  0.6772 -0.2751 -0.0427
  262MOL0     C36083   5.938   9.802   5.366  0.1668  0.6150 -0.8393
  262MOL0     C36084   6.346  10.435   4.966 -0.5702  0.2705  0.2936
  262MOL0     C36085   6.445  10.529   4.928 -0.1209 -0.0027 -0.3117
  262MOL0     C36086   6.401  10.671   4.898 -0.0625  0.2101  0.8113
  262MOL0     H36087   6.955  10.699   4.933 -2.1557  0.2250 -2.2419
  262MOL0     H36088   7.076  10.907   4.908 -1.3299 -2.9847 -0.5919
  262MOL0     H36089   6.861  11.278   5.048 -0.4004 -1.1991  0.3204
  262MOL0     H36090   6.859  11.224   4.871 -1.2919  1.8697  0.8041
  262MOL0     H36091   6.941  11.466   4.911 -0.1958 -0.0589 -3.3654
  262MOL0     H36092   7.065  11.401   4.999 -0.5597  1.7247 -0.0633
  262MOL0     H36093   7.160  11.289   4.788  0.1423  0.3435 -1.2112
  262MOL0     H36094   7.008  11.318   4.706 -1.6747 -0.7826  0.6199
  262MOL0     H36095   7.080  11.567   4.721  2.7344  2.2152  1.4217
  262MOL0     H36096   7.222  11.515   4.818  1.6789 -1.8355  0.4558
  262MOL0     H36097   7.163  11.460   4.529 -1.4793  0.5383  1.4236
  262MOL0     H36098   7.292  11.374   4.621  1.0632  1.1559  1.5044
  262MOL0     H36099   7.276  11.664   4.541  0.5119  0.0541 -0.9874
  262MOL0     H36100   7.392  11.612   4.667  1.7341 -1.8940 -0.1934
  262MOL0     H36101   7.394  11.476   4.399  2.4064 -1.0042 -0.0974
  262MOL0     H36102   7.527  11.520   4.513  0.0692  0.9629 -0.5292
  262MOL0     H36103   7.489  11.664   4.283  0.2311  0.6402 -0.2272
  262MOL0     H36104   7.360  11.739   4.373 -0.5547 -1.5361  1.0561
  262MOL0     H36105   7.723  11.647   4.531 -1.0807 -1.1898 -0.5575
  262MOL0     H36106   7.938  11.936   4.489  1.9016 -2.7230 -0.0738
  262MOL0     H36107   7.914  11.804   4.600 -2.2808 -1.7768 -1.0431
  262MOL0     H36108   7.951  11.993   4.730 -0.8812 -1.8922  1.1971
  262MOL0     H36109   7.829  12.092   4.631 -0.4015 -1.4418 -2.9664
  262MOL0     H36110   7.727  12.034   4.849 -0.1693  0.8223 -1.1460
  262MOL0     H36111   7.641  11.943   4.733 -0.5628  2.2627  1.7495
  262MOL0     H36112   7.707  11.781   4.914  0.5877  0.5253  1.8248
  262MOL0     H36113   7.787  11.731   4.770 -0.2260  0.1434 -0.2510
  262MOL0     H36114   7.770  11.967   5.065 -1.4664 -1.4004  1.5343
  262MOL0     H36115   7.841  12.092   5.338 -0.7152  0.0493  2.3108
  262MOL0     H36116   7.781  11.931   5.420  2.7240  0.6381  0.7216
  262MOL0     H36117   7.693  12.019   5.292  1.3557  3.1084 -1.4815
  262MOL0     H36118   8.364  11.984   5.494  0.0644 -1.5507 -0.6337
  262MOL0     H36119   8.498  11.989   5.692 -2.8172  2.6999 -0.1205
  262MOL0     H36120   8.664  11.927   5.875 -0.0446  1.0801 -0.6503
  262MOL0     H36121   8.505  11.982   5.930  1.6005  1.4751 -0.7846
  262MOL0     H36122   8.667  11.974   6.109  0.5165  0.4164  0.0265
  262MOL0     H36123   8.536  11.871   6.155  0.8734 -0.3883  0.6708
  262MOL0     H36124   8.780  11.748   6.022  1.5617  3.1558  0.0021
  262MOL0     H36125   8.659  11.686   6.144  1.2993 -0.0521  0.3420
  262MOL0     H36126   8.773  11.826   6.327  1.6746  3.2061  1.0328
  262MOL0     H36127   8.881  11.887   6.204  2.4950 -1.4043  2.4256
  262MOL0     H36128   8.868  11.601   6.275  1.6837 -1.1387  1.8914
  262MOL0     H36129   8.980  11.690   6.157  1.5009 -1.1134  0.7124
  262MOL0     H36130   8.962  11.750   6.456 -0.3317  0.4473  0.7936
  262MOL0     H36131   9.063  11.819   6.330 -1.6912 -1.4454 -2.5514
  262MOL0     H36132   9.212  11.677   6.441  1.3734 -1.6858  0.7057
  262MOL0     H36133   9.195  11.620   6.287 -0.0568 -1.4730  0.6266
  262MOL0     H36134   9.193  11.429   6.406  1.7839  0.4712  1.6182
  262MOL0     H36135   9.017  11.445   6.418  0.0384  0.4795 -0.4230
  262MOL0     H36136   8.345  11.604   5.816  0.3196 -0.1282 -1.0102
  262MOL0     H36137   8.194  11.611   5.606  0.1199 -0.0316 -0.8221
  262MOL0     H36138   8.176  11.743   5.214  0.4739  1.6335 -2.2404
  262MOL0     H36139   8.121  11.725   5.005  0.1327  0.4403 -0.5946
  262MOL0     H36140   6.738  11.096   5.108 -1.4633 -1.5884  1.6422
  262MOL0     H36141   6.629  10.914   5.115 -0.0725  0.8565 -0.6768
  262MOL0     H36142   6.722  10.323   4.972  1.3952 -0.5407 -0.6907
  262MOL0     H36143   6.556  10.162   5.030  2.3964  1.5573 -1.2545
  262MOL0     H36144   6.346  10.033   5.079 -2.3077 -0.6422  1.4203
  262MOL0     H36145   6.402  10.143   5.210  0.4915  3.1297 -1.3589
  262MOL0     H36146   6.201  10.097   5.321  1.4287 -1.2241  0.2576
  262MOL0     H36147   6.211   9.943   5.244 -2.4210  0.1421  2.0582
  262MOL0     H36148   5.995  10.138   5.199 -2.0818 -2.1477 -1.3257
  262MOL0     H36149   6.081  10.097   5.051  1.4096  0.2511  0.1048
  262MOL0     H36150   6.036   9.874   5.065 -1.8974 -1.9075  1.2987
  262MOL0     H36151   5.891   9.950   5.098  0.8153 -2.7377 -4.7296
  262MOL0     H36152   5.887   9.760   5.450  2.0083 -1.0672 -0.4999
  262MOL0     H36153   6.243  10.465   4.984 -1.4237 -3.7810  3.5723
  262MOL0     H36154   6.443  10.732   4.979  1.1506  0.9314 -0.3235
  262MOL0     H36155   6.452  10.708   4.809  1.2491  3.4474  2.7357
  262MOL0     H36156   6.292  10.675   4.888  0.1311  2.6987 -1.3884
  263MOL0     O36157   1.056   2.150   5.814 -0.7796  0.1552 -0.8565
  263MOL0     C36158   1.023   2.151   5.696 -0.7107 -0.0276 -0.6081
  263MOL0     O36159   1.034   2.047   5.606 -0.4476 -0.7380 -0.5526
  263MOL0     C36160   1.084   1.925   5.650 -1.0668 -0.3310 -0.2098
  263MOL0     C36161   1.042   1.808   5.596 -0.2487  0.1935 -0.7058
  263MOL0     C36162   1.086   1.681   5.640 -0.6264  0.2828 -0.3480
  263MOL0     C36163   1.196   1.679   5.726  0.5015  0.0850 -0.6015
  263MOL0     O36164   1.240   1.552   5.758  0.4143  0.6638 -0.2174
  263MOL0     C36165   1.367   1.527   5.820  0.9157 -0.3447 -0.0351
  263MOL0     C36166   1.366   1.512   5.968 -0.4625  0.0215 -0.0762
  263MOL0     C36167   1.335   1.366   6.006  0.0461 -0.0880 -0.2562
  263MOL0     C36168   1.324   1.341   6.159  0.1051 -0.4374  0.2636
  263MOL0     C36169   1.217   1.231   6.177 -0.4721 -0.4158 -0.1023
  263MOL0     C36170   1.203   1.193   6.321  1.1152  0.0268  0.4044
  263MOL0     C36171   1.077   1.106   6.352  0.2678 -0.5452  0.3008
  263MOL0     C36172   1.104   0.954   6.361  0.2587 -0.0182 -0.1851
  263MOL0     N36173   1.145   0.896   6.236 -0.8498  0.4578 -0.5991
  263MOL0     C36174   1.081   0.905   6.122  0.0717  0.3740  0.4833
  263MOL0     C36175   1.156   0.827   6.038 -0.6330  0.2342  0.2877
  263MOL0     C36176   1.130   0.799   5.895 -0.4715  0.3026 -0.5672
  263MOL0     C36177   1.207   0.882   5.797  0.2732 -0.3533  0.2512
  263MOL0     C36178   1.356   0.912   5.816  0.6699 -0.0561 -1.7297
  263MOL0     C36179   1.430   0.933   5.678  0.5199  0.1387 -0.7547
  263MOL0     O36180   1.568   0.971   5.706 -0.2998 -0.2548 -0.3677
  263MOL0     C36181   1.652   0.987   5.603  0.0940  0.0581 -0.1166
  263MOL0     C36182   1.785   0.959   5.630 -0.4699 -0.9348 -0.6385
  263MOL0     C36183   1.887   0.983   5.529 -0.0322  0.0098  0.7415
  263MOL0     C36184   2.033   0.962   5.552  0.3280 -0.0864  0.0203
  263MOL0     C36185   1.845   1.043   5.400 -0.7237  1.4105 -0.2196
  263MOL0     C36186   1.940   1.080   5.289  0.0027  0.3458 -0.1692
  263MOL0     O36187   1.888   1.075   5.161  0.7350  0.0778  0.2995
  263MOL0     C36188   1.963   1.125   5.060 -0.1402 -0.9640  1.1533
  263MOL0     C36189   2.044   1.039   4.999  0.0033 -0.3594  0.3249
  263MOL0     C36190   2.140   1.089   4.905  0.0504  0.6327 -1.0298
  263MOL0     C36191   2.132   1.224   4.865  0.3596  0.0386  0.2331
  263MOL0     O36192   2.215   1.263   4.759 -0.0771 -0.6492 -0.3286
  263MOL0     C36193   2.211   1.389   4.704  0.2347  0.1232  0.4138
  263MOL0     C36194   2.274   1.391   4.573  0.6531 -0.0298  0.2189
  263MOL0     C36195   2.415   1.340   4.564  1.0041  0.1568  0.3894
  263MOL0     C36196   2.494   1.414   4.452 -0.1504 -0.5935 -0.2260
  263MOL0     C36197   2.645   1.394   4.471  0.5892  0.5405  0.2584
  263MOL0     C36198   2.672   1.243   4.466  1.2522 -0.2232  0.3638
  263MOL0     C36199   2.827   1.227   4.475  0.1268  0.2032  0.0668
  263MOL0     C36200   2.861   1.080   4.476  0.1973 -0.4873  0.4419
  263MOL0    Cl36201   3.024   1.073   4.531 -0.1832  0.4398 -0.2623
  263MOL0     C36202   2.043   1.308   4.930  0.1411  0.3910  0.1194
  263MOL0     C36203   1.962   1.261   5.028 -0.8130 -0.4057 -0.4456
  263MOL0     O36204   2.047   1.130   5.317 -0.0489  0.0031 -0.4145
  263MOL0     C36205   1.705   1.052   5.377  0.2197 -0.2562  0.5491
  263MOL0     C36206   1.623   1.031   5.482 -0.7147  0.2173 -0.2743
  263MOL0     N36207   1.265   0.766   6.104  0.5027  0.2533 -0.2808
  263MOL0     N36208   1.250   0.815   6.223 -0.4952  0.4374 -1.2477
  263MOL0     C36209   1.239   1.794   5.780 -0.1794  0.2942 -0.4387
  263MOL0     C36210   1.183   1.912   5.740  0.2943  0.4391 -0.0943
  263MOL0     C36211   0.988   2.283   5.642 -0.1645 -0.0480 -0.4114
  263MOL0     C36212   1.061   2.394   5.693 -0.1696  0.5347 -0.5199
  263MOL0     C36213   1.029   2.522   5.654  0.0752  0.0372  0.4872
  263MOL0     C36214   0.943   2.543   5.555  0.4890 -0.5306  0.3902
  263MOL0     O36215   0.920   2.680   5.529 -0.7161  0.8982  0.7564
  263MOL0     C36216   0.845   2.710   5.412 -0.0473 -0.2388  0.5944
  263MOL0     C36217   0.866   2.857   5.358 -0.4206  0.1723  0.3682
  263MOL0     C36218   1.001   2.872   5.304  0.9655  0.2830  0.4518
  263MOL0     C36219   1.012   2.979   5.202 -0.8256  0.2502  2.0869
  263MOL0     C36220   1.149   3.005   5.159  0.1638 -0.4659  0.2262
  263MOL0     C36221   1.265   3.009   5.127 -0.1318  0.1912  0.5534
  263MOL0     C36222   0.873   2.432   5.496  0.0252 -0.0292  0.3843
  263MOL0     C36223   0.891   2.299   5.541 -0.5828 -0.3599 -0.4234
  263MOL0     C36224   0.797   2.191   5.492  0.6574  0.4646  0.4756
  263MOL0     H36225   0.965   1.818   5.520 -0.2281 -0.3060 -0.8002
  263MOL0     H36226   1.057   1.602   5.571 -1.7636  2.4909 -2.5774
  263MOL0     H36227   1.439   1.606   5.794  0.7077  0.2151  1.0423
  263MOL0     H36228   1.411   1.437   5.776  2.9963 -0.1302  1.4644
  263MOL0     H36229   1.467   1.535   6.003  0.1356 -0.6211 -1.3407
  263MOL0     H36230   1.292   1.586   6.002  0.8934  1.3080  0.1648
  263MOL0     H36231   1.240   1.336   5.961 -1.0046 -0.9688  2.3586
  263MOL0     H36232   1.414   1.301   5.970  1.7727  0.5698  2.1011
  263MOL0     H36233   1.422   1.306   6.194  0.0715 -1.3964 -0.5557
  263MOL0     H36234   1.300   1.440   6.197 -3.7658  0.6156 -4.0382
  263MOL0     H36235   1.238   1.143   6.115 -0.5305  0.3592 -1.2605
  263MOL0     H36236   1.122   1.270   6.139 -1.2988 -2.7284 -0.5977
  263MOL0     H36237   1.295   1.143   6.355  0.3108 -2.5081 -0.9160
  263MOL0     H36238   1.191   1.283   6.382 -4.4704 -0.1298 -0.0268
  263MOL0     H36239   1.005   1.127   6.272  1.9556  2.6712 -0.5760
  263MOL0     H36240   1.046   1.152   6.446  2.9609 -1.2268  1.6375
  263MOL0     H36241   1.189   0.934   6.426 -0.0581 -1.3691 -0.1536
  263MOL0     H36242   1.016   0.909   6.407 -0.2200  0.6614 -0.4084
  263MOL0     H36243   0.990   0.959   6.096 -0.6065 -1.6517 -1.8387
  263MOL0     H36244   1.025   0.819   5.873  0.1279  2.4213 -1.6949
  263MOL0     H36245   1.144   0.692   5.875 -1.8048 -0.2260  1.0586
  263MOL0     H36246   1.200   0.831   5.701  1.0366 -2.2820  1.1712
  263MOL0     H36247   1.156   0.978   5.795  0.5570 -0.1900  0.6626
  263MOL0     H36248   1.375   0.994   5.887 -0.5737  0.7416 -2.2855
  263MOL0     H36249   1.402   0.827   5.867 -0.1045  0.2564 -0.4655
  263MOL0     H36250   1.424   0.846   5.613 -0.1513  0.2538 -0.8545
  263MOL0     H36251   1.387   1.016   5.621 -1.9601 -1.6710 -1.6899
  263MOL0     H36252   1.813   0.921   5.728  0.0165 -0.6569 -0.6707
  263MOL0     H36253   2.077   1.056   5.586 -0.0117  1.1806 -2.8006
  263MOL0     H36254   2.078   0.928   5.459 -2.3245 -2.9896 -0.3541
  263MOL0     H36255   2.040   0.883   5.628 -0.8533  0.7051  0.9996
  263MOL0     H36256   2.041   0.935   5.031 -1.2945 -0.3456  0.3132
  263MOL0     H36257   2.212   1.018   4.866  2.2718  2.7213 -0.9552
  263MOL0     H36258   2.111   1.432   4.690  1.2448  1.8578 -2.5221
  263MOL0     H36259   2.259   1.463   4.769 -1.7904  0.8547  1.1668
  263MOL0     H36260   2.215   1.323   4.511 -1.6319  0.3636  1.8022
  263MOL0     H36261   2.274   1.494   4.538  2.4944  0.1070  0.5224
  263MOL0     H36262   2.395   1.236   4.535 -3.5638  1.3261 -1.4645
  263MOL0     H36263   2.460   1.340   4.664 -0.9862 -2.1550  1.3948
  263MOL0     H36264   2.490   1.523   4.459 -0.6461 -0.4290 -2.4625
  263MOL0     H36265   2.459   1.390   4.352  0.0793 -0.3980 -0.3546
  263MOL0     H36266   2.700   1.435   4.386 -1.5665 -0.5246 -1.7872
  263MOL0     H36267   2.663   1.445   4.566  0.7521  1.0960 -0.0673
  263MOL0     H36268   2.650   1.211   4.364  2.5092  2.6773 -0.9563
  263MOL0     H36269   2.629   1.188   4.550  0.4250  0.2418  0.2531
  263MOL0     H36270   2.854   1.263   4.575 -0.6487 -0.7363  0.6310
  263MOL0     H36271   2.873   1.291   4.399  1.5091  2.9622  2.9686
  263MOL0     H36272   2.856   1.037   4.375  0.5951  1.4417 -0.4556
  263MOL0     H36273   2.794   1.021   4.539 -1.1806  5.1750  5.2061
  263MOL0     H36274   2.044   1.415   4.913  1.3741  0.6415  1.5920
  263MOL0     H36275   1.902   1.331   5.085 -1.1782 -0.1605 -1.1166
  263MOL0     H36276   1.663   1.095   5.287 -6.9856  0.9265  3.8094
  263MOL0     H36277   1.519   1.048   5.455 -1.1427 -1.3781  0.2798
  263MOL0     H36278   1.327   1.789   5.844 -0.8271  0.2044  0.4538
  263MOL0     H36279   1.237   2.002   5.767  1.8934  0.5660 -3.2720
  263MOL0     H36280   1.140   2.384   5.766  2.2495 -2.6857 -3.2448
  263MOL0     H36281   1.074   2.605   5.708  0.0881 -0.6213  1.5267
  263MOL0     H36282   0.871   2.640   5.332 -0.4984  0.3804 -0.1113
  263MOL0     H36283   0.739   2.702   5.436 -1.1585  2.0266 -2.7918
  263MOL0     H36284   0.855   2.929   5.439  2.2226  0.0098  0.9351
  263MOL0     H36285   0.794   2.876   5.278 -0.3803  1.1296  0.5513
  263MOL0     H36286   1.078   2.887   5.380  0.1395 -1.6722  1.7402
  263MOL0     H36287   1.021   2.779   5.251  0.6047 -1.8750  3.8195
  263MOL0     H36288   0.956   3.065   5.239 -0.6518  1.8076 -0.9713
  263MOL0     H36289   0.956   2.934   5.120  0.5225  2.8912 -0.4507
  263MOL0     H36290   1.368   3.022   5.099 -0.4736 -1.0369 -1.4726
  263MOL0     H36291   0.794   2.459   5.427  2.9806  3.7354 -1.9261
  263MOL0     H36292   0.851   2.125   5.424 -0.0878 -0.4979  0.7903
  263MOL0     H36293   0.759   2.131   5.575 -0.5878 -2.3521 -1.9165
  263MOL0     H36294   0.711   2.230   5.435 -0.1549 -4.0923 -1.8925
  264MOL0     O36295   2.263   5.151   9.911 -0.2875  0.4513 -0.1819
  264MOL0     C36296   2.229   5.035   9.928  0.4716 -0.4032 -0.3747
  264MOL0     O36297   2.201   4.949   9.828 -0.4771  0.2469 -0.4868
  264MOL0     C36298   2.232   4.992   9.704  1.0897 -1.0925 -0.4177
  264MOL0     C36299   2.138   5.070   9.629  0.2429  0.1365  0.3846
  264MOL0     C36300   2.173   5.111   9.497  0.4639  0.3170 -0.3142
  264MOL0     C36301   2.300   5.077   9.442  0.1330 -0.7052  0.4508
  264MOL0     O36302   2.340   5.132   9.323 -0.2133 -0.0835 -0.3207
  264MOL0     C36303   2.252   5.148   9.213 -0.3914 -0.6720 -0.3396
  264MOL0     C36304   2.338   5.223   9.110  0.2937 -0.2172 -0.3969
  264MOL0     C36305   2.257   5.291   8.995  0.7679 -0.4613 -0.7313
  264MOL0     C36306   2.340   5.299   8.869 -0.3564 -0.2790  0.6328
  264MOL0     C36307   2.245   5.337   8.744 -0.0452 -0.0148 -0.8439
  264MOL0     C36308   2.196   5.212   8.673 -0.5615  0.6071 -0.2177
  264MOL0     C36309   2.105   5.254   8.554  1.2812 -0.7033  1.1241
  264MOL0     C36310   2.056   5.136   8.471 -0.1009  0.0871 -0.3884
  264MOL0     N36311   2.157   5.083   8.382 -0.1032  0.4009 -0.6934
  264MOL0     C36312   2.213   5.142   8.273 -0.7047 -0.6869 -0.0651
  264MOL0     C36313   2.313   5.062   8.236 -1.1220  0.9440  0.3147
  264MOL0     C36314   2.411   5.092   8.114 -0.5838 -0.0646 -0.1154
  264MOL0     C36315   2.354   5.030   7.982 -1.0459  0.8763 -0.6380
  264MOL0     C36316   2.440   5.071   7.862  1.1939  0.3503  1.1157
  264MOL0     C36317   2.418   4.980   7.737  0.6459 -0.0491 -0.3542
  264MOL0     O36318   2.282   4.973   7.694 -0.1041 -0.4094  0.1947
  264MOL0     C36319   2.268   5.062   7.586  0.2262 -1.0436 -0.8649
  264MOL0     C36320   2.235   5.200   7.617 -0.5584  0.6495 -0.4785
  264MOL0     C36321   2.226   5.297   7.517  0.7756  0.7494  0.2949
  264MOL0     C36322   2.213   5.441   7.577 -1.0423  0.1985  0.9697
  264MOL0     C36323   2.235   5.262   7.380 -0.0269  0.6125 -0.7852
  264MOL0     C36324   2.218   5.360   7.272 -0.0175  1.0830 -0.1911
  264MOL0     O36325   2.267   5.323   7.156  0.6813 -0.0637 -0.5609
  264MOL0     C36326   2.236   5.404   7.050  0.6778 -0.6715  0.3185
  264MOL0     C36327   2.175   5.352   6.933  0.0534 -0.7791 -0.0341
  264MOL0     C36328   2.157   5.434   6.813 -0.0178  0.0515  0.5706
  264MOL0     C36329   2.187   5.570   6.823  0.4442 -0.2642 -0.2914
  264MOL0     O36330   2.162   5.650   6.720 -0.0115 -0.3602  0.1122
  264MOL0     C36331   2.050   5.735   6.749 -0.1791 -0.2173  0.1812
  264MOL0     C36332   2.064   5.870   6.684 -0.0025  0.3481 -0.5026
  264MOL0     C36333   2.203   5.934   6.728  0.1158  0.0263 -0.7287
  264MOL0     C36334   2.210   5.969   6.886 -0.4196 -0.0076 -0.1596
  264MOL0     C36335   2.173   6.114   6.910  0.4468 -0.0194  0.3022
  264MOL0     C36336   2.193   6.174   7.057  0.0635  1.3755  0.9249
  264MOL0     C36337   2.164   6.325   7.044  0.4191  0.1318 -0.3254
  264MOL0     C36338   2.147   6.397   7.175 -0.0130  0.1565  0.5857
  264MOL0    Cl36339   2.293   6.383   7.287  0.1659  0.0310 -0.1592
  264MOL0     C36340   2.237   5.626   6.946 -0.7482  0.4137 -0.4313
  264MOL0     C36341   2.267   5.535   7.054 -0.2495 -0.8905  0.7135
  264MOL0     O36342   2.169   5.468   7.303  0.3148 -0.6296 -0.0717
  264MOL0     C36343   2.270   5.126   7.346  0.4058  0.0822  0.9922
  264MOL0     C36344   2.281   5.030   7.450 -0.3163 -0.8337  0.4719
  264MOL0     N36345   2.328   4.963   8.338 -0.0494  1.0045 -0.3798
  264MOL0     N36346   2.233   4.977   8.426  0.2540 -0.4179 -0.3644
  264MOL0     C36347   2.396   5.005   9.515  0.2022 -0.3920  0.3340
  264MOL0     C36348   2.357   4.958   9.645 -0.0545  0.4844  0.8853
  264MOL0     C36349   2.165   5.003  10.064  0.1083 -0.3065  0.7018
  264MOL0     C36350   2.111   4.874  10.075  0.2121 -0.3494  0.1457
  264MOL0     C36351   2.035   4.838  10.186 -0.7565 -1.1373  0.0071
  264MOL0     C36352   2.024   4.923  10.298 -0.1219 -0.1235 -0.3691
  264MOL0     O36353   1.974   4.869  10.418  0.3887  0.5505 -0.3562
  264MOL0     C36354   2.010   4.932  10.541 -0.5566 -0.0712 -0.8059
  264MOL0     C36355   1.978   4.848  10.662 -0.5438 -0.8082 -0.1085
  264MOL0     C36356   2.065   4.897  10.780  0.2347 -0.0166  0.0526
  264MOL0     C36357   2.045   4.841  10.918  0.5156 -0.8620  0.4980
  264MOL0     C36358   2.094   4.708  10.906 -0.5518  0.6470  0.8743
  264MOL0     C36359   2.146   4.596  10.893  0.2193 -0.1253 -0.3065
  264MOL0     C36360   2.091   5.045  10.296  0.3658 -0.2542  0.7276
  264MOL0     C36361   2.158   5.088  10.179  0.0468 -0.3610  0.7052
  264MOL0     C36362   2.228   5.230  10.182 -1.0095  0.6216 -0.1610
  264MOL0     H36363   2.049   5.105   9.681  1.0097  1.3347  0.9420
  264MOL0     H36364   2.111   5.180   9.442  1.2875  1.5206  0.2338
  264MOL0     H36365   2.172   5.221   9.226 -1.0501 -1.0493 -2.0647
  264MOL0     H36366   2.219   5.050   9.177  1.1994 -1.1387 -0.6215
  264MOL0     H36367   2.404   5.294   9.160  0.5395 -1.7984  1.6581
  264MOL0     H36368   2.400   5.146   9.063  0.2687 -0.1556 -0.5310
  264MOL0     H36369   2.167   5.234   8.968  0.7158 -0.9268  0.3664
  264MOL0     H36370   2.228   5.388   9.036 -2.6595 -2.2995  1.6311
  264MOL0     H36371   2.420   5.372   8.885 -0.3414 -0.0430 -0.4569
  264MOL0     H36372   2.396   5.206   8.855 -0.0534 -0.1569  0.9906
  264MOL0     H36373   2.305   5.397   8.676 -0.3582  1.3175  0.0257
  264MOL0     H36374   2.165   5.399   8.784 -1.2141 -1.6669 -0.5024
  264MOL0     H36375   2.282   5.157   8.634 -2.2768 -1.4097 -1.4130
  264MOL0     H36376   2.144   5.144   8.742  1.4168  0.1228  0.8614
  264MOL0     H36377   2.160   5.319   8.484  0.7659 -3.2291 -1.8544
  264MOL0     H36378   2.020   5.313   8.589  1.8803  1.3639 -0.6523
  264MOL0     H36379   2.028   5.056   8.540 -1.9449  0.6130 -0.4818
  264MOL0     H36380   1.968   5.160   8.411 -0.1898  1.1825  0.1517
  264MOL0     H36381   2.182   5.228   8.213  0.1956 -0.2623  0.0707
  264MOL0     H36382   2.509   5.047   8.133 -0.4704 -0.2496 -1.1234
  264MOL0     H36383   2.422   5.201   8.106 -1.6517  0.0215 -0.5849
  264MOL0     H36384   2.374   4.923   7.991  2.0941  1.2012 -2.3075
  264MOL0     H36385   2.249   5.056   7.966 -1.6442 -0.2811  1.1601
  264MOL0     H36386   2.407   5.166   7.819  0.8631 -0.0379  0.4937
  264MOL0     H36387   2.549   5.065   7.867  1.3681  0.5462 -1.1945
  264MOL0     H36388   2.488   5.009   7.658 -0.3049 -0.2063 -1.2656
  264MOL0     H36389   2.431   4.881   7.782 -2.8938  0.1859  1.5170
  264MOL0     H36390   2.218   5.227   7.721 -0.0965  0.3754 -0.3261
  264MOL0     H36391   2.266   5.505   7.506 -1.5001 -2.0336 -1.5500
  264MOL0     H36392   2.268   5.461   7.669 -2.0919  1.6505  1.3082
  264MOL0     H36393   2.108   5.472   7.573 -0.9022  0.9051  2.3634
  264MOL0     H36394   2.155   5.245   6.935  0.0001 -0.7722 -0.1660
  264MOL0     H36395   2.115   5.393   6.722  1.5009 -1.5266  0.5223
  264MOL0     H36396   1.960   5.688   6.707  0.5856 -1.0301 -0.5962
  264MOL0     H36397   2.019   5.738   6.854 -1.2900  0.3977 -0.1434
  264MOL0     H36398   2.060   5.864   6.575  2.2868  0.1448 -0.6353
  264MOL0     H36399   1.986   5.939   6.717  2.1027  1.4502  2.7167
  264MOL0     H36400   2.217   6.028   6.674 -1.1895  1.5892  1.4632
  264MOL0     H36401   2.289   5.871   6.707  1.5007  0.5168  2.6731
  264MOL0     H36402   2.312   5.947   6.919 -0.5219 -1.8436 -0.9634
  264MOL0     H36403   2.140   5.905   6.940  0.4886 -0.6550  0.2874
  264MOL0     H36404   2.237   6.175   6.845 -1.6034 -0.2225 -2.0728
  264MOL0     H36405   2.073   6.136   6.872  0.9809  1.4254 -0.3468
  264MOL0     H36406   2.300   6.174   7.076  0.3666 -0.2578 -0.5309
  264MOL0     H36407   2.128   6.119   7.126  0.3105 -1.8440 -1.2023
  264MOL0     H36408   2.071   6.334   6.985  1.1439 -3.4508 -2.3311
  264MOL0     H36409   2.256   6.362   6.999  0.9971 -2.0567 -1.0393
  264MOL0     H36410   2.052   6.369   7.223 -0.7549  1.1778 -0.2233
  264MOL0     H36411   2.139   6.505   7.158 -1.4778 -0.2030 -1.3995
  264MOL0     H36412   2.279   5.726   6.945 -0.6926  0.4560  1.7516
  264MOL0     H36413   2.325   5.589   7.128 -0.8515  0.7057  0.0719
  264MOL0     H36414   2.286   5.090   7.245 -0.6287  0.3010  0.7400
  264MOL0     H36415   2.301   4.933   7.406 -2.0709  0.2212 -3.1040
  264MOL0     H36416   2.489   4.992   9.460 -1.6765 -0.5274 -3.1433
  264MOL0     H36417   2.431   4.901   9.702  1.5877  1.1196 -0.5180
  264MOL0     H36418   2.109   4.811   9.986 -0.7539  1.3685 -1.1203
  264MOL0     H36419   1.982   4.743  10.181 -1.5923 -0.7387  0.8065
  264MOL0     H36420   2.118   4.951  10.542 -0.4156 -0.8529 -0.6731
  264MOL0     H36421   1.974   5.035  10.557 -0.3553 -0.4329  2.7259
  264MOL0     H36422   1.996   4.743  10.635 -3.0368 -1.1231 -0.8331
  264MOL0     H36423   1.870   4.861  10.676 -0.3517  2.0205 -0.7751
  264MOL0     H36424   2.170   4.880  10.754 -0.2724  0.1045 -2.2849
  264MOL0     H36425   2.044   5.003  10.793  2.0711  0.1843  1.9160
  264MOL0     H36426   1.937   4.844  10.936 -0.1912 -1.7289 -3.0041
  264MOL0     H36427   2.088   4.900  11.000  0.8638 -0.1187 -0.2075
  264MOL0     H36428   2.194   4.501  10.880  1.4123  0.3979  0.1002
  264MOL0     H36429   2.093   5.113  10.381 -1.9913  1.5865 -0.5879
  264MOL0     H36430   2.189   5.312  10.121  0.6283 -0.6542 -3.1343
  264MOL0     H36431   2.214   5.263  10.285 -0.4127 -0.4899  0.2914
  264MOL0     H36432   2.337   5.225  10.172 -1.0786 -0.1183 -0.6899
  265MOL0     O36433   1.968   9.028   9.595 -0.2678  0.7918  0.2657
  265MOL0     C36434   1.864   9.056   9.665 -0.2221  0.7803  0.4682
  265MOL0     O36435   1.861   9.087   9.793  0.7352 -0.2665  0.2695
  265MOL0     C36436   1.972   9.077   9.868  0.0917 -0.8333 -0.0712
  265MOL0     C36437   2.077   9.169   9.855  0.4910 -0.4163  0.4652
  265MOL0     C36438   2.195   9.167   9.941  0.7193  0.0831 -0.8010
  265MOL0     C36439   2.201   9.069  10.040  0.8178 -0.1927 -0.0615
  265MOL0     O36440   2.314   9.062  10.119  0.1668  0.3637  0.3005
  265MOL0     C36441   2.367   8.931  10.148 -0.1844  0.3881  0.3019
  265MOL0     C36442   2.407   8.850  10.025  0.3267 -0.3797 -0.4140
  265MOL0     C36443   2.467   8.709  10.057 -0.3912 -0.1233  0.2351
  265MOL0     C36444   2.356   8.607  10.077  0.2495 -0.6235  0.5555
  265MOL0     C36445   2.377   8.543  10.218 -0.0547  0.1058 -0.1732
  265MOL0     C36446   2.272   8.437  10.257 -1.0684  0.0862  0.3916
  265MOL0     C36447   2.306   8.372  10.386 -0.1098  0.2892  0.1825
  265MOL0     C36448   2.431   8.281  10.383  0.3192 -0.0856 -1.0158
  265MOL0     N36449   2.453   8.200  10.503  0.4199 -0.5841 -0.3684
  265MOL0     C36450   2.423   8.219  10.636 -0.7543 -0.2992 -0.8415
  265MOL0     C36451   2.476   8.112  10.695 -0.0804  0.5121 -0.0486
  265MOL0     C36452   2.485   8.094  10.849  1.0620 -0.1195  0.0467
  265MOL0     C36453   2.428   8.216  10.919 -0.4960  0.1457 -0.9230
  265MOL0     C36454   2.268   8.194  10.937 -0.7222  0.5180  0.7455
  265MOL0     C36455   2.188   8.292  11.007  0.1361 -0.3454 -0.7413
  265MOL0     O36456   2.051   8.248  11.013  0.0485 -0.6481  0.0718
  265MOL0     C36457   1.957   8.331  11.074 -0.1187  0.4151 -0.2930
  265MOL0     C36458   1.980   8.398  11.190 -0.1973  0.0593  0.1267
  265MOL0     C36459   1.882   8.478  11.258 -0.4849 -1.4030 -0.1879
  265MOL0     C36460   1.925   8.530  11.397  0.3075 -0.8837 -0.8252
  265MOL0     C36461   1.764   8.507  11.187  0.1816  0.5482  0.0580
  265MOL0     C36462   1.654   8.581  11.251  0.0092 -0.1187  0.1739
  265MOL0     O36463   1.684   8.699  11.319 -0.2731 -0.3410  0.3890
  265MOL0     C36464   1.593   8.757  11.402 -0.5676 -0.0041 -0.0432
  265MOL0     C36465   1.487   8.835  11.357 -0.2016  0.3436  0.2089
  265MOL0     C36466   1.401   8.875  11.458  1.1141 -0.0746 -0.2902
  265MOL0     C36467   1.419   8.862  11.594 -0.3053  0.1943 -0.0677
  265MOL0     O36468   1.351   8.907  11.708 -0.5026 -0.1352 -0.1633
  265MOL0     C36469   1.226   8.978  11.690 -0.6905  0.2095  0.4620
  265MOL0     C36470   1.151   8.987  11.822  0.8425  0.2050 -0.5589
  265MOL0     C36471   1.012   9.059  11.800  0.1570 -0.5337 -0.1796
  265MOL0     C36472   0.951   9.080  11.941  1.1306  0.6225  0.1002
  265MOL0     C36473   0.811   9.144  11.937  0.3006  0.0142 -0.6629
  265MOL0     C36474   0.726   9.112  12.064 -0.9844  0.4230  0.1085
  265MOL0     C36475   0.640   8.979  12.042  0.3374 -0.1814  0.0447
  265MOL0     C36476   0.530   8.960  12.148  0.8692  0.5719 -0.2072
  265MOL0    Cl36477   0.413   9.099  12.147  0.3965  0.2232 -0.3088
  265MOL0     C36478   1.536   8.796  11.632 -0.2890  0.3783  0.5469
  265MOL0     C36479   1.617   8.736  11.535 -0.0235  0.1247 -0.0316
  265MOL0     O36480   1.537   8.541  11.227  0.1134 -0.0159 -0.8927
  265MOL0     C36481   1.735   8.437  11.069  0.5105 -0.0895 -0.3006
  265MOL0     C36482   1.834   8.351  11.019 -0.7594 -0.2320 -0.1134
  265MOL0     N36483   2.532   8.028  10.599  0.1806 -0.2227 -0.3796
  265MOL0     N36484   2.519   8.077  10.484  0.6854 -0.5567 -0.0098
  265MOL0     C36485   2.087   8.980  10.050 -0.5767 -0.6712  0.6722
  265MOL0     C36486   1.973   8.979   9.967 -0.0997 -0.0097  0.7598
  265MOL0     C36487   1.731   9.064   9.595  0.4773  0.2380 -0.1191
  265MOL0     C36488   1.723   8.998   9.470 -0.0107 -0.0954  0.7941
  265MOL0     C36489   1.600   9.015   9.384 -0.5324 -0.3419  0.1075
  265MOL0     C36490   1.494   9.077   9.434 -0.4109  0.2776  0.1368
  265MOL0     O36491   1.378   9.095   9.362  0.6650 -0.5721  0.0750
  265MOL0     C36492   1.264   9.180   9.402  0.0756 -0.1941  0.2599
  265MOL0     C36493   1.179   9.220   9.276 -0.3383  1.2583 -0.8675
  265MOL0     C36494   1.098   9.338   9.313 -0.1321 -0.3962 -0.3719
  265MOL0     C36495   1.011   9.383   9.196 -0.7100 -1.0266 -0.0752
  265MOL0     C36496   0.911   9.471   9.242 -0.7097  0.4068 -0.4628
  265MOL0     C36497   0.835   9.549   9.292  0.1552  0.8824 -0.0606
  265MOL0     C36498   1.507   9.134   9.564 -0.6115  0.4245  0.5773
  265MOL0     C36499   1.622   9.125   9.646 -0.2651 -0.6122 -0.2222
  265MOL0     C36500   1.620   9.204   9.770 -0.5003 -0.1908  0.0059
  265MOL0     H36501   2.067   9.246   9.780  0.8752 -2.4594 -1.7954
  265MOL0     H36502   2.275   9.240   9.927 -0.5681  1.4453 -1.3885
  265MOL0     H36503   2.293   8.865  10.195  1.0222 -1.7036 -0.5810
  265MOL0     H36504   2.451   8.945  10.217 -0.3079 -2.3357  1.1207
  265MOL0     H36505   2.329   8.841   9.949 -0.6528 -0.3464  0.5473
  265MOL0     H36506   2.495   8.906   9.993  0.0951 -0.0343 -0.4526
  265MOL0     H36507   2.535   8.670   9.980  0.5847  2.8162 -0.4972
  265MOL0     H36508   2.526   8.716  10.148 -0.1835  0.2823  0.0728
  265MOL0     H36509   2.254   8.644  10.064  0.7693  0.4514 -0.6416
  265MOL0     H36510   2.361   8.527  10.002  1.3768  0.7369 -0.8932
  265MOL0     H36511   2.368   8.621  10.295 -3.2198 -1.3262  1.0774
  265MOL0     H36512   2.480   8.506  10.223  1.4949  3.7726 -1.3298
  265MOL0     H36513   2.174   8.485  10.253 -3.0894 -3.6750  0.2510
  265MOL0     H36514   2.272   8.363  10.176 -0.1488  1.8669 -1.3322
  265MOL0     H36515   2.230   8.299  10.415  0.5700 -0.5501 -0.0999
  265MOL0     H36516   2.320   8.450  10.461  0.7429  0.8499 -0.5375
  265MOL0     H36517   2.427   8.209  10.301  0.0827 -0.4655 -0.6751
  265MOL0     H36518   2.511   8.355  10.374 -1.1432  1.4830 -1.5509
  265MOL0     H36519   2.370   8.301  10.682  0.3855  0.1111 -0.2020
  265MOL0     H36520   2.588   8.077  10.880  1.5954  3.1149  0.4380
  265MOL0     H36521   2.419   8.011  10.875  0.0249  1.0498  1.2630
  265MOL0     H36522   2.464   8.208  11.022 -1.4829 -0.5324 -0.6164
  265MOL0     H36523   2.467   8.312  10.886  4.3359 -0.5206  1.8654
  265MOL0     H36524   2.224   8.193  10.837  1.9925  0.0869 -0.5291
  265MOL0     H36525   2.254   8.098  10.987  0.3135  0.4571  0.9442
  265MOL0     H36526   2.236   8.308  11.104  1.5847  1.7215 -1.7172
  265MOL0     H36527   2.191   8.390  10.959 -0.4937  2.0824  3.6370
  265MOL0     H36528   2.080   8.390  11.232 -0.2398  1.1603  0.4752
  265MOL0     H36529   1.992   8.616  11.389  1.6338 -1.6170  1.5866
  265MOL0     H36530   1.978   8.450  11.449  2.5021 -0.3564 -2.1228
  265MOL0     H36531   1.839   8.565  11.455 -0.5437 -1.3209 -1.7769
  265MOL0     H36532   1.465   8.851  11.252  2.2830  0.6227 -0.3347
  265MOL0     H36533   1.315   8.935  11.429  2.4201  1.1519 -1.8253
  265MOL0     H36534   1.248   9.079  11.653 -0.1069  0.6829  2.0131
  265MOL0     H36535   1.174   8.918  11.615 -1.2831  1.6059 -0.2789
  265MOL0     H36536   1.146   8.884  11.859  4.6601  0.4877  1.1792
  265MOL0     H36537   1.211   9.047  11.892 -0.3683  0.4210  0.3294
  265MOL0     H36538   0.950   9.000  11.732  0.1751 -0.4119 -0.3032
  265MOL0     H36539   1.023   9.160  11.760 -0.0148 -0.1419  0.7405
  265MOL0     H36540   1.014   9.154  11.990  0.0828  1.6522 -0.0787
  265MOL0     H36541   0.939   8.985  11.995  0.2928  1.3188  1.1728
  265MOL0     H36542   0.815   9.248  11.902 -0.7453 -0.6687 -2.9921
  265MOL0     H36543   0.772   9.084  11.855  1.9920 -3.7958  1.0814
  265MOL0     H36544   0.666   9.202  12.083 -0.1134  0.8264  1.0445
  265MOL0     H36545   0.785   9.103  12.155 -0.6269  0.2320 -0.1422
  265MOL0     H36546   0.710   8.896  12.057  1.6780  0.7181 -0.9720
  265MOL0     H36547   0.589   8.972  11.946  2.1757  0.0758 -1.0016
  265MOL0     H36548   0.589   8.945  12.240  0.6499 -2.5349 -0.4459
  265MOL0     H36549   0.471   8.868  12.142  0.8680  0.2741  2.7560
  265MOL0     H36550   1.546   8.773  11.737 -2.1183 -1.4573  0.3832
  265MOL0     H36551   1.698   8.680  11.579 -0.0847  2.6475  3.6803
  265MOL0     H36552   1.640   8.452  11.019  1.0572  0.9143 -1.0941
  265MOL0     H36553   1.805   8.299  10.928  1.0751 -1.5661  0.0048
  265MOL0     H36554   2.094   8.894  10.116 -0.8502 -1.3457 -0.1418
  265MOL0     H36555   1.892   8.910   9.987 -1.4070 -0.4998 -4.7206
  265MOL0     H36556   1.804   8.938   9.428 -0.3781  2.0486 -3.5566
  265MOL0     H36557   1.608   8.984   9.280 -2.2438 -2.4309  0.5180
  265MOL0     H36558   1.202   9.131   9.478 -0.0675  2.1456  1.7486
  265MOL0     H36559   1.310   9.263   9.456 -0.8795 -0.4500  1.5380
  265MOL0     H36560   1.119   9.131   9.254 -0.5079  1.0931  0.2168
  265MOL0     H36561   1.248   9.252   9.197  0.8055  1.2770  0.1088
  265MOL0     H36562   1.042   9.333   9.406  3.2561  0.5090  1.9128
  265MOL0     H36563   1.172   9.413   9.343  0.4473 -0.8724 -0.5874
  265MOL0     H36564   0.973   9.293   9.148  0.5560 -2.4467  1.4500
  265MOL0     H36565   1.075   9.429   9.119 -1.1192 -1.1642 -0.5011
  265MOL0     H36566   0.771   9.623   9.337  1.0786  0.6185  1.7862
  265MOL0     H36567   1.425   9.185   9.614  0.9856  2.1252  1.6435
  265MOL0     H36568   1.691   9.286   9.764 -2.4491  1.4884 -2.8612
  265MOL0     H36569   1.534   9.271   9.783 -1.0947 -1.2357  1.8024
  265MOL0     H36570   1.630   9.144   9.860 -1.3659  2.2979  1.8712
  266MOL0     O36571   3.928   6.066   3.755  0.0297  0.1714 -0.1575
  266MOL0     C36572   3.968   6.129   3.856  0.9816  0.0071  0.0694
  266MOL0     O36573   4.096   6.123   3.904  0.6843 -0.3543  0.3237
  266MOL0     C36574   4.179   6.018   3.871 -0.2804  0.0176 -0.6456
  266MOL0     C36575   4.313   6.036   3.887  0.0360  0.6863 -0.8126
  266MOL0     C36576   4.408   5.934   3.878 -0.1446 -0.5366 -0.6784
  266MOL0     C36577   4.369   5.805   3.849  0.0382 -0.0602 -0.4446
  266MOL0     O36578   4.455   5.702   3.841 -0.2141 -0.1883  0.4965
  266MOL0     C36579   4.431   5.614   3.731  0.5718 -0.4262  0.1188
  266MOL0     C36580   4.541   5.514   3.721 -1.3886  1.2087 -1.0621
  266MOL0     C36581   4.528   5.444   3.592  0.7147  0.2161 -0.0358
  266MOL0     C36582   4.410   5.351   3.577  0.5832  0.0199 -0.3176
  266MOL0     C36583   4.411   5.277   3.445  0.4007 -0.3235  0.1024
  266MOL0     C36584   4.278   5.214   3.405  0.1657  0.3233  0.0221
  266MOL0     C36585   4.167   5.315   3.373  0.0853  0.4758  0.2123
  266MOL0     C36586   4.034   5.254   3.418  0.3881  0.2855  0.1176
  266MOL0     N36587   3.926   5.316   3.344  0.3583  0.4203  0.2850
  266MOL0     C36588   3.884   5.447   3.332  0.1380  0.5766 -0.1923
  266MOL0     C36589   3.789   5.460   3.239 -0.7462  1.0715  0.1442
  266MOL0     C36590   3.712   5.587   3.220 -0.4027  0.1461  0.7985
  266MOL0     C36591   3.647   5.606   3.088  0.2614 -0.0802  0.1094
  266MOL0     C36592   3.600   5.753   3.057  0.3164 -0.1069 -0.3887
  266MOL0     C36593   3.713   5.849   3.019 -0.0283 -0.6558  0.3263
  266MOL0     O36594   3.670   5.961   2.946  0.0337  0.1210 -0.2006
  266MOL0     C36595   3.716   5.998   2.822  0.2801  0.2892 -0.2749
  266MOL0     C36596   3.765   5.896   2.739 -0.1794  0.4533 -0.1154
  266MOL0     C36597   3.810   5.923   2.616 -0.3770 -0.2569  0.0512
  266MOL0     C36598   3.872   5.814   2.534  0.2446 -0.2474  0.0435
  266MOL0     C36599   3.798   6.057   2.561  0.1295 -0.7409  0.0461
  266MOL0     C36600   3.829   6.106   2.424  0.8217  0.8014 -0.3473
  266MOL0     O36601   3.850   6.239   2.399  0.8810  0.2020 -0.7023
  266MOL0     C36602   3.884   6.274   2.270 -1.8131 -0.1006  0.1778
  266MOL0     C36603   4.008   6.344   2.251  0.2722 -0.9904  0.4136
  266MOL0     C36604   4.040   6.392   2.123 -0.5949 -0.3184  0.3603
  266MOL0     C36605   3.953   6.383   2.019  0.0283 -1.0335 -0.3270
  266MOL0     O36606   4.004   6.431   1.899  0.4391 -0.3941 -0.0129
  266MOL0     C36607   3.931   6.422   1.773 -1.2145 -0.3250 -0.2791
  266MOL0     C36608   4.026   6.418   1.650  0.5921  0.4249  0.3687
  266MOL0     C36609   4.095   6.555   1.632 -0.1394 -0.2550  0.0624
  266MOL0     C36610   4.193   6.549   1.511  0.1883 -0.2148 -0.6692
  266MOL0     C36611   4.305   6.666   1.518 -0.0170  1.2302  0.2789
  266MOL0     C36612   4.371   6.701   1.380 -0.7859  0.1406 -0.3157
  266MOL0     C36613   4.460   6.830   1.398  0.1987 -0.0060  0.4022
  266MOL0     C36614   4.551   6.824   1.520  0.7315 -0.4553  0.3288
  266MOL0    Cl36615   4.680   6.692   1.507  0.0926  0.1797 -0.2322
  266MOL0     C36616   3.830   6.326   2.045 -0.6117 -0.0758  1.2110
  266MOL0     C36617   3.798   6.260   2.168  0.2915  0.7746  0.4139
  266MOL0     O36618   3.832   6.015   2.340  0.3457 -0.2744  0.5080
  266MOL0     C36619   3.746   6.156   2.651  0.4950  0.2904  0.6454
  266MOL0     C36620   3.705   6.132   2.779 -0.0965  0.2933 -0.6894
  266MOL0     N36621   3.766   5.331   3.205  0.0994 -0.3130  0.5077
  266MOL0     N36622   3.837   5.243   3.270  0.0987  0.5403 -0.4532
  266MOL0     C36623   4.228   5.787   3.832 -1.2798  0.0182 -0.4271
  266MOL0     C36624   4.141   5.891   3.845  1.2573 -0.1021  0.5984
  266MOL0     C36625   3.869   6.197   3.947  0.2581 -0.2994 -0.0931
  266MOL0     C36626   3.924   6.243   4.067  0.7567 -0.1964  0.1728
  266MOL0     C36627   3.834   6.286   4.168 -0.1459 -0.5168 -0.0390
  266MOL0     C36628   3.696   6.291   4.156 -0.0099 -0.2650 -0.2540
  266MOL0     O36629   3.607   6.347   4.254  0.3021  0.1160  0.1400
  266MOL0     C36630   3.659   6.432   4.363  0.2139 -0.4460  0.0662
  266MOL0     C36631   3.680   6.579   4.327 -0.4916 -0.4028  1.0906
  266MOL0     C36632   3.724   6.663   4.449 -0.2370  0.6601 -0.8933
  266MOL0     C36633   3.874   6.635   4.491  0.9819  0.4902 -0.5034
  266MOL0     C36634   3.920   6.747   4.563  0.0465  0.3402 -0.6056
  266MOL0     C36635   3.953   6.839   4.637 -0.2002 -0.0254  0.3518
  266MOL0     C36636   3.647   6.263   4.028 -0.3567  0.2912 -0.4045
  266MOL0     C36637   3.732   6.214   3.922 -0.4855 -0.2583 -0.7757
  266MOL0     C36638   3.652   6.160   3.798  0.4353 -0.0484 -0.3561
  266MOL0     H36639   4.330   6.138   3.920 -3.6029  1.2864 -0.4233
  266MOL0     H36640   4.514   5.948   3.895  0.0446 -1.6419 -0.9227
  266MOL0     H36641   4.439   5.678   3.643  0.4147  1.2959  1.3035
  266MOL0     H36642   4.341   5.555   3.747  0.2408  0.4256  1.6751
  266MOL0     H36643   4.636   5.567   3.720 -0.3872 -0.4304  0.3075
  266MOL0     H36644   4.554   5.445   3.806 -0.0972  0.4642 -1.8371
  266MOL0     H36645   4.517   5.521   3.515  0.2364 -0.1744 -0.3627
  266MOL0     H36646   4.610   5.373   3.578 -0.2414 -1.2270  1.3020
  266MOL0     H36647   4.408   5.274   3.655 -0.7118  0.2860 -0.0683
  266MOL0     H36648   4.314   5.404   3.579  1.4246  1.5863 -0.6534
  266MOL0     H36649   4.480   5.193   3.431  0.2595 -0.0249 -2.9921
  266MOL0     H36650   4.426   5.357   3.372  0.3933 -1.1967 -0.8791
  266MOL0     H36651   4.292   5.145   3.321 -1.7776 -0.8605  0.6140
  266MOL0     H36652   4.247   5.156   3.492  0.0401  1.2311  0.5986
  266MOL0     H36653   4.157   5.318   3.264 -2.5288 -1.4013  0.2845
  266MOL0     H36654   4.185   5.415   3.412  0.5399  0.9614 -1.1759
  266MOL0     H36655   4.039   5.145   3.408  2.4464  0.1873  1.6376
  266MOL0     H36656   4.026   5.272   3.525  0.1166  1.4636 -0.0828
  266MOL0     H36657   3.921   5.530   3.392  1.4769  0.7753 -1.2274
  266MOL0     H36658   3.788   5.664   3.233  1.7570 -1.4358 -1.5296
  266MOL0     H36659   3.641   5.599   3.303  2.4832 -0.3584  3.5236
  266MOL0     H36660   3.708   5.571   3.003 -2.2212  0.9216 -2.2474
  266MOL0     H36661   3.556   5.546   3.096  0.9636 -0.9629  2.0431
  266MOL0     H36662   3.526   5.745   2.978 -0.0146  0.2159 -0.1142
  266MOL0     H36663   3.540   5.790   3.141  0.5752  0.0040 -0.2521
  266MOL0     H36664   3.771   5.884   3.104 -0.3669  0.7799 -0.0082
  266MOL0     H36665   3.780   5.776   2.973 -1.6114 -2.5009  0.7912
  266MOL0     H36666   3.774   5.792   2.769  3.5774  0.8124  0.5182
  266MOL0     H36667   3.801   5.790   2.454  1.3395 -2.4206 -0.3406
  266MOL0     H36668   3.904   5.722   2.584  0.6368  0.7010  1.6084
  266MOL0     H36669   3.960   5.856   2.485  0.0592  0.3324  0.1991
  266MOL0     H36670   4.083   6.331   2.329  0.8437  0.0016  0.0609
  266MOL0     H36671   4.139   6.435   2.108  0.4410 -1.9457  2.0368
  266MOL0     H36672   3.876   6.328   1.766  0.7410 -1.3755 -4.2646
  266MOL0     H36673   3.856   6.501   1.768 -3.3409 -2.2242  0.1698
  266MOL0     H36674   4.097   6.336   1.660 -0.0263 -0.0238  1.2421
  266MOL0     H36675   3.967   6.402   1.559  0.9556 -0.2080  0.2434
  266MOL0     H36676   4.166   6.574   1.713  0.4298 -3.8552  0.5867
  266MOL0     H36677   4.021   6.635   1.619 -0.6602 -0.5044  1.2799
  266MOL0     H36678   4.135   6.552   1.418  1.6246  0.8581 -1.5750
  266MOL0     H36679   4.248   6.454   1.509 -0.1717 -0.4874  0.8364
  266MOL0     H36680   4.255   6.754   1.558 -0.3564  0.4863  1.5506
  266MOL0     H36681   4.381   6.632   1.589 -3.1043 -0.4551  3.0686
  266MOL0     H36682   4.293   6.725   1.307 -0.9195 -2.1740 -1.0041
  266MOL0     H36683   4.427   6.620   1.332  1.9365  1.8423 -0.2233
  266MOL0     H36684   4.401   6.921   1.390  0.7917  0.2409 -1.9520
  266MOL0     H36685   4.523   6.830   1.308 -1.0304  0.2370 -0.4873
  266MOL0     H36686   4.491   6.818   1.612 -1.5225 -1.8554 -1.1205
  266MOL0     H36687   4.607   6.918   1.526  2.4024 -1.4133  0.2149
  266MOL0     H36688   3.755   6.325   1.967 -0.3956 -1.5142  0.9801
  266MOL0     H36689   3.698   6.222   2.187  0.6681  0.1500  1.2148
  266MOL0     H36690   3.739   6.258   2.615  0.6317 -0.9176 -3.2346
  266MOL0     H36691   3.669   6.205   2.852  1.6599 -0.3491  0.9224
  266MOL0     H36692   4.194   5.685   3.844  0.5873 -0.5228  0.8459
  266MOL0     H36693   4.036   5.865   3.849  1.0970  0.6032  1.1930
  266MOL0     H36694   4.029   6.256   4.089  0.8724 -0.6938 -0.0824
  266MOL0     H36695   3.878   6.333   4.256 -0.1348  1.5577 -1.1042
  266MOL0     H36696   3.582   6.439   4.441 -0.7921 -0.0518 -0.9291
  266MOL0     H36697   3.754   6.391   4.399  1.6941  0.5511 -2.4681
  266MOL0     H36698   3.593   6.622   4.279 -0.0090 -0.8512 -0.2309
  266MOL0     H36699   3.752   6.582   4.245 -1.0848  1.0269  0.6014
  266MOL0     H36700   3.714   6.770   4.430  1.1957  1.1470  0.8007
  266MOL0     H36701   3.667   6.633   4.538  0.9189 -0.5791 -0.5298
  266MOL0     H36702   3.948   6.613   4.413 -0.0595  0.7057 -1.5776
  266MOL0     H36703   3.873   6.550   4.559 -0.0898  0.6658 -0.2840
  266MOL0     H36704   3.981   6.914   4.708 -1.9073  1.2451 -0.2686
  266MOL0     H36705   3.545   6.289   4.004 -1.8670 -2.6692  2.1070
  266MOL0     H36706   3.681   6.227   3.717  1.6430  1.2198  1.0797
  266MOL0     H36707   3.662   6.054   3.770 -1.0175 -0.2403 -0.2618
  266MOL0     H36708   3.544   6.169   3.810  0.5807 -0.0020  1.0857
  267MOL0     O36709  11.463   4.937   6.975  0.2865 -0.0132 -0.2562
  267MOL0     C36710  11.438   4.885   6.864  0.0428  0.4158  0.4426
  267MOL0     O36711  11.435   4.959   6.747  0.2063 -0.4078 -0.1213
  267MOL0     C36712  11.462   5.093   6.756  0.4733 -0.3956 -0.3950
  267MOL0     C36713  11.361   5.181   6.719 -0.1109 -0.0058 -0.1813
  267MOL0     C36714  11.396   5.314   6.714 -0.0261 -0.7039 -0.5605
  267MOL0     C36715  11.517   5.366   6.750 -0.1675 -0.0635  0.4131
  267MOL0     O36716  11.556   5.501   6.737  0.3447  0.4422  0.6738
  267MOL0     C36717  11.658   5.519   6.637  0.3781  0.0348  0.5288
  267MOL0     C36718  11.601   5.528   6.498 -0.3121 -0.5626  0.1038
  267MOL0     C36719  11.705   5.549   6.385  0.2613  0.7997 -0.4033
  267MOL0     C36720  11.646   5.521   6.244 -0.0685 -0.6134  0.6259
  267MOL0     C36721  11.754   5.498   6.143 -1.1708  0.2518 -0.3588
  267MOL0     C36722  11.838   5.621   6.129 -0.2185  0.1165 -0.3835
  267MOL0     C36723  11.952   5.607   6.037  0.1131 -0.2861 -0.1952
  267MOL0     C36724  12.037   5.724   6.034  0.2939 -0.5854  0.3755
  267MOL0     N36725  11.969   5.857   6.064 -0.1100  0.3277 -0.5948
  267MOL0     C36726  11.895   5.934   5.968 -0.9386 -0.1913 -0.3619
  267MOL0     C36727  11.838   6.045   6.037  0.3685  0.8383 -0.1383
  267MOL0     C36728  11.728   6.139   5.986 -0.6379 -0.8237 -0.0401
  267MOL0     C36729  11.793   6.261   5.920 -0.2058 -0.2152 -0.2449
  267MOL0     C36730  11.686   6.356   5.864 -0.2414 -1.6006  0.4429
  267MOL0     C36731  11.615   6.307   5.738 -1.3420 -0.2149 -0.8008
  267MOL0     O36732  11.712   6.267   5.635 -0.6044  0.2437 -0.9892
  267MOL0     C36733  11.721   6.347   5.529 -0.1044 -0.3247 -0.0044
  267MOL0     C36734  11.812   6.447   5.535  0.1269  0.4113 -0.4041
  267MOL0     C36735  11.821   6.532   5.427 -0.3011 -0.0935 -0.2632
  267MOL0     C36736  11.928   6.644   5.437 -0.4283 -0.2857  0.1416
  267MOL0     C36737  11.741   6.508   5.307 -0.2427  0.0743  0.4469
  267MOL0     C36738  11.737   6.589   5.187  0.1699  0.0943 -0.0185
  267MOL0     O36739  11.689   6.523   5.074  0.6745 -0.4361  0.5334
  267MOL0     C36740  11.658   6.594   4.964  0.1924  0.4118 -0.5183
  267MOL0     C36741  11.760   6.635   4.879 -0.3646 -0.2034 -0.1146
  267MOL0     C36742  11.724   6.726   4.776 -0.2324 -0.3900  0.0646
  267MOL0     C36743  11.586   6.747   4.744 -0.9093 -0.2889  0.8569
  267MOL0     O36744  11.564   6.828   4.635 -0.1369  0.4654  0.1456
  267MOL0     C36745  11.495   6.770   4.523  0.0527  0.1346 -0.6780
  267MOL0     C36746  11.548   6.822   4.393  0.3774 -0.1355 -0.6116
  267MOL0     C36747  11.615   6.718   4.303 -0.5380  0.2320 -0.1160
  267MOL0     C36748  11.644   6.768   4.168  0.4023  0.4699  0.1767
  267MOL0     C36749  11.699   6.661   4.080  0.0870 -0.0390 -0.3929
  267MOL0     C36750  11.845   6.635   4.133  0.6453 -0.2114  0.5977
  267MOL0     C36751  11.936   6.566   4.019 -0.4932 -0.3860  0.1661
  267MOL0     C36752  12.077   6.525   4.072 -0.2830  0.2144 -0.1573
  267MOL0    Cl36753  12.061   6.380   4.175 -0.3636  0.5412  0.3574
  267MOL0     C36754  11.485   6.684   4.819  0.2835 -0.5014  0.8150
  267MOL0     C36755  11.519   6.609   4.932 -0.0999 -0.0162 -0.3635
  267MOL0     O36756  11.773   6.709   5.182  0.5133 -0.2013 -0.5837
  267MOL0     C36757  11.667   6.386   5.291 -0.5539 -0.4722 -0.7845
  267MOL0     C36758  11.652   6.316   5.407  0.1971 -0.1854 -0.3521
  267MOL0     N36759  11.878   6.025   6.171  0.7267  0.5002  1.5069
  267MOL0     N36760  11.956   5.919   6.184 -0.0821 -0.2991 -0.2638
  267MOL0     C36761  11.618   5.269   6.798 -0.4172  0.5229 -0.4070
  267MOL0     C36762  11.586   5.139   6.785  0.3788  0.6325  0.6293
  267MOL0     C36763  11.399   4.743   6.866 -0.6981 -0.3175  0.0047
  267MOL0     C36764  11.437   4.662   6.760 -0.6210 -0.0471 -0.0762
  267MOL0     C36765  11.427   4.528   6.763 -0.2463 -0.6170 -0.1271
  267MOL0     C36766  11.369   4.469   6.878  1.1898  0.0637  0.4047
  267MOL0     O36767  11.354   4.329   6.876 -0.0451 -0.4705  0.3730
  267MOL0     C36768  11.232   4.266   6.838 -0.6826  0.2128 -0.9100
  267MOL0     C36769  11.204   4.150   6.941  1.4728  0.5082  0.6606
  267MOL0     C36770  11.205   4.189   7.096 -0.2239 -0.3582  0.7920
  267MOL0     C36771  11.059   4.236   7.136 -0.1349 -1.1747 -0.5206
  267MOL0     C36772  10.982   4.118   7.168 -0.3637 -0.3247 -0.0795
  267MOL0     C36773  10.921   4.016   7.168  0.0966  0.2168  0.1338
  267MOL0     C36774  11.322   4.544   6.982 -0.7987 -1.5407  0.8435
  267MOL0     C36775  11.335   4.685   6.973  0.7753  1.0648  0.4202
  267MOL0     C36776  11.251   4.754   7.084  0.5138 -0.7282  1.4854
  267MOL0     H36777  11.257   5.155   6.702  0.3828 -1.6649 -0.7929
  267MOL0     H36778  11.318   5.385   6.689  0.3398 -0.7643 -1.9253
  267MOL0     H36779  11.725   5.432   6.646 -1.2097 -1.3378 -0.3000
  267MOL0     H36780  11.714   5.611   6.655 -0.7395  1.1040 -1.1624
  267MOL0     H36781  11.538   5.439   6.486  0.0242 -1.1307  2.2055
  267MOL0     H36782  11.531   5.612   6.495  1.7767  1.2880  0.9539
  267MOL0     H36783  11.752   5.648   6.397  1.7032 -0.0710  1.7341
  267MOL0     H36784  11.779   5.470   6.402 -0.5299 -0.2698 -1.7521
  267MOL0     H36785  11.588   5.429   6.260 -2.5018  0.6482 -0.3903
  267MOL0     H36786  11.576   5.602   6.220  0.0188 -0.8616 -0.4916
  267MOL0     H36787  11.707   5.466   6.049 -1.7370 -0.8613  0.2769
  267MOL0     H36788  11.815   5.413   6.175 -1.3136  0.9887  2.0810
  267MOL0     H36789  11.771   5.701   6.095 -1.3166 -0.2239  0.9019
  267MOL0     H36790  11.879   5.639   6.229  0.1349  1.1853 -0.7071
  267MOL0     H36791  11.916   5.580   5.938  0.6748  0.0989 -0.5131
  267MOL0     H36792  12.012   5.518   6.059  1.3730  0.5412 -0.1261
  267MOL0     H36793  12.111   5.713   6.114 -0.2455 -1.3308  0.7866
  267MOL0     H36794  12.088   5.738   5.938  0.1877  0.3963  0.4534
  267MOL0     H36795  11.899   5.903   5.864  1.1401 -0.8651 -0.1247
  267MOL0     H36796  11.668   6.169   6.072 -0.6377  0.0354 -0.3251
  267MOL0     H36797  11.664   6.083   5.917 -3.8552 -1.7579  3.4004
  267MOL0     H36798  11.843   6.314   6.001 -0.5780 -1.3471  0.7675
  267MOL0     H36799  11.878   6.247   5.853 -0.3813  0.4165 -0.6079
  267MOL0     H36800  11.613   6.384   5.940 -0.9732  1.3589 -1.2152
  267MOL0     H36801  11.736   6.450   5.839 -3.8709  0.2983 -0.3735
  267MOL0     H36802  11.546   6.226   5.764 -2.0233  1.3618  2.9339
  267MOL0     H36803  11.561   6.394   5.700  0.0372  1.8095  1.5452
  267MOL0     H36804  11.879   6.456   5.620  0.2412 -0.2848 -0.4120
  267MOL0     H36805  11.885   6.744   5.446  2.3493  1.0741 -0.3329
  267MOL0     H36806  11.980   6.635   5.341 -2.2165  1.7109 -1.0944
  267MOL0     H36807  11.989   6.623   5.525  3.3721  2.7284 -1.4402
  267MOL0     H36808  11.863   6.623   4.909 -0.9946 -1.0695  1.8515
  267MOL0     H36809  11.795   6.780   4.713 -0.2130  2.3993  2.2872
  267MOL0     H36810  11.525   6.665   4.516  3.2646  0.8311  0.9755
  267MOL0     H36811  11.388   6.786   4.541  0.6329  3.7415  0.1859
  267MOL0     H36812  11.460   6.853   4.335  0.2878  0.9785  0.0851
  267MOL0     H36813  11.614   6.909   4.404  0.2943 -0.2331  0.7595
  267MOL0     H36814  11.558   6.625   4.305  0.5121 -0.4316  1.6895
  267MOL0     H36815  11.707   6.698   4.359 -1.8052  2.1162  2.9342
  267MOL0     H36816  11.715   6.851   4.166  1.5542 -0.4993 -1.4381
  267MOL0     H36817  11.547   6.802   4.133 -1.0249 -0.5836  2.8131
  267MOL0     H36818  11.644   6.566   4.084  0.8654 -0.4754  1.9764
  267MOL0     H36819  11.710   6.694   3.977 -3.7095  0.2539 -0.8381
  267MOL0     H36820  11.845   6.572   4.223 -1.3274 -0.9131  0.1403
  267MOL0     H36821  11.885   6.735   4.150  1.2611 -0.3657  0.1260
  267MOL0     H36822  11.963   6.650   3.954  1.5811  0.4112  1.9119
  267MOL0     H36823  11.880   6.486   3.969 -0.9003 -0.6042  0.9562
  267MOL0     H36824  12.116   6.611   4.127 -0.5987 -0.2966  0.8827
  267MOL0     H36825  12.140   6.502   3.986  1.6723  1.1038  0.9790
  267MOL0     H36826  11.383   6.710   4.790  0.6245 -1.1516 -1.1021
  267MOL0     H36827  11.438   6.572   4.994  0.9312 -1.7814  0.0101
  267MOL0     H36828  11.616   6.356   5.199 -0.4905 -0.5958 -0.7799
  267MOL0     H36829  11.581   6.234   5.411  1.1267 -0.9989  0.0598
  267MOL0     H36830  11.717   5.301   6.828 -0.7082  1.3870 -0.3418
  267MOL0     H36831  11.647   5.053   6.811 -0.3153 -1.0932 -2.7995
  267MOL0     H36832  11.492   4.692   6.671  0.4098 -0.4315  0.4165
  267MOL0     H36833  11.469   4.460   6.690 -1.0408 -0.6187 -0.6001
  267MOL0     H36834  11.149   4.337   6.843 -0.2151  0.7979 -1.2760
  267MOL0     H36835  11.247   4.233   6.735 -2.5916  3.3647 -2.3673
  267MOL0     H36836  11.281   4.073   6.933 -0.3318 -1.1952 -1.8397
  267MOL0     H36837  11.117   4.091   6.914  2.3849 -0.8945  0.7119
  267MOL0     H36838  11.233   4.102   7.156  1.9152  0.1987  0.6925
  267MOL0     H36839  11.269   4.272   7.126  0.0980  0.0972 -1.0326
  267MOL0     H36840  11.008   4.306   7.070 -1.2252  2.4458  3.6769
  267MOL0     H36841  11.072   4.286   7.232  0.6566 -1.5639 -0.4161
  267MOL0     H36842  10.879   3.917   7.169 -1.1950  0.7221 -1.4061
  267MOL0     H36843  11.268   4.489   7.058 -1.6616  2.2188  3.2353
  267MOL0     H36844  11.325   4.799   7.151  2.4452 -0.4074 -0.7192
  267MOL0     H36845  11.202   4.841   7.039 -1.7873 -2.8871 -0.4978
  267MOL0     H36846  11.170   4.705   7.138  0.3445 -0.5036  1.4409
  268MOL0     O36847   9.440   6.269   0.127  0.3423  0.3606 -0.0461
  268MOL0     C36848   9.426   6.168   0.201 -0.0880  0.2198 -0.5246
  268MOL0     O36849   9.404   6.174   0.334 -0.0007 -0.2112 -0.0482
  268MOL0     C36850   9.483   6.248   0.426 -0.4026  0.0258  0.0334
  268MOL0     C36851   9.594   6.322   0.396  0.9215 -0.3268 -0.6733
  268MOL0     C36852   9.658   6.396   0.500 -0.5367 -0.1460 -0.8455
  268MOL0     C36853   9.617   6.383   0.635 -0.8876 -0.4555 -0.4426
  268MOL0     O36854   9.695   6.443   0.735  0.0464 -0.3821 -0.0955
  268MOL0     C36855   9.662   6.417   0.874  1.4593 -0.1542 -0.3672
  268MOL0     C36856   9.745   6.493   0.970  0.0271  0.6841  0.6645
  268MOL0     C36857   9.883   6.434   0.960  0.0711  0.4737  1.0852
  268MOL0     C36858   9.993   6.516   1.030 -0.6556  0.6694  0.5767
  268MOL0     C36859   9.977   6.518   1.179  0.0358 -0.0464  1.7347
  268MOL0     C36860  10.122   6.536   1.243  0.8050 -0.9395 -0.1486
  268MOL0     C36861  10.111   6.595   1.389  0.3027  0.0217  0.5499
  268MOL0     C36862  10.230   6.556   1.466 -0.6065  0.3582 -0.1883
  268MOL0     N36863  10.325   6.663   1.466  0.3941  0.0187 -0.5873
  268MOL0     C36864  10.299   6.780   1.535  0.8671 -0.9260  0.2813
  268MOL0     C36865  10.422   6.844   1.530 -0.5191 -0.0845  0.2551
  268MOL0     C36866  10.468   6.963   1.614  0.5825 -0.6958  0.0582
  268MOL0     C36867  10.416   7.103   1.559 -0.5589 -0.8803  0.1562
  268MOL0     C36868  10.508   7.153   1.439 -0.7117 -0.1070 -0.6665
  268MOL0     C36869  10.477   7.298   1.389 -0.3843  0.2753  0.6594
  268MOL0     O36870  10.503   7.390   1.492  1.5006  0.6161 -0.1995
  268MOL0     C36871  10.566   7.504   1.454  0.2864 -1.0749 -0.4524
  268MOL0     C36872  10.698   7.495   1.405 -0.7090 -0.0284 -0.0134
  268MOL0     C36873  10.772   7.603   1.360  0.1820 -1.1237 -0.0143
  268MOL0     C36874  10.907   7.583   1.305  0.7908  0.3388 -0.1863
  268MOL0     C36875  10.720   7.736   1.390  0.3144 -0.3115 -0.1312
  268MOL0     C36876  10.778   7.868   1.336 -0.8746 -0.3990  0.1825
  268MOL0     O36877  10.736   7.982   1.400 -0.1932 -0.7055 -0.9580
  268MOL0     C36878  10.760   8.104   1.347  0.0796 -0.4041 -0.5382
  268MOL0     C36879  10.878   8.145   1.288 -0.2876 -0.1005 -0.2761
  268MOL0     C36880  10.903   8.276   1.238 -0.3453  0.0524 -0.9454
  268MOL0     C36881  10.792   8.370   1.233  0.1564  0.5482  0.5159
  268MOL0     O36882  10.791   8.492   1.175  0.5140 -0.3903 -0.6568
  268MOL0     C36883  10.900   8.577   1.205 -0.4317 -0.5705  0.3319
  268MOL0     C36884  11.006   8.576   1.097  0.2945 -0.3542 -0.4862
  268MOL0     C36885  10.970   8.656   0.971 -0.0695 -0.4467  0.0934
  268MOL0     C36886  11.080   8.680   0.865  0.2848 -1.0681 -1.0567
  268MOL0     C36887  11.054   8.798   0.782  0.1825 -1.8305  0.3587
  268MOL0     C36888  11.109   8.929   0.840  0.1607  0.6702 -0.7244
  268MOL0     C36889  11.131   9.043   0.737  0.3591  0.5295 -0.8867
  268MOL0     C36890  11.208   9.156   0.802  0.3736  0.3196 -0.2850
  268MOL0    Cl36891  11.121   9.292   0.873  0.4755  0.3207 -0.5057
  268MOL0     C36892  10.672   8.323   1.284 -0.2628  1.0796  0.2041
  268MOL0     C36893  10.655   8.198   1.346 -0.0156  0.4037  0.1829
  268MOL0     O36894  10.860   7.862   1.245  0.1812  0.1164  0.0679
  268MOL0     C36895  10.590   7.748   1.445 -0.2195  0.1817  1.0550
  268MOL0     C36896  10.510   7.634   1.480 -0.1902 -0.1726  0.0707
  268MOL0     N36897  10.518   6.769   1.473  0.8844  0.4653  0.2403
  268MOL0     N36898  10.459   6.663   1.436  0.3052  0.7146  0.1821
  268MOL0     C36899   9.511   6.296   0.666 -0.3991 -0.9200 -0.1452
  268MOL0     C36900   9.446   6.230   0.559  0.5996 -0.3360  0.5770
  268MOL0     C36901   9.458   6.039   0.138 -0.3714  0.4463  0.4999
  268MOL0     C36902   9.509   5.937   0.223 -0.7408  0.9299  0.3291
  268MOL0     C36903   9.555   5.815   0.178 -0.1665  0.0098  0.5399
  268MOL0     C36904   9.549   5.779   0.042  0.1895  0.2756 -0.0006
  268MOL0     O36905   9.602   5.652   0.011  0.9103 -0.1682  0.0882
  268MOL0     C36906   9.594   5.625  -0.125  0.2023  1.0644  0.1720
  268MOL0     C36907   9.664   5.493  -0.147  0.3315  0.2745 -0.7552
  268MOL0     C36908   9.813   5.506  -0.131 -0.3010  0.6383 -0.4725
  268MOL0     C36909   9.888   5.384  -0.182  0.0391 -0.4230  0.1235
  268MOL0     C36910   9.868   5.278  -0.083  0.0973 -0.0421  0.8373
  268MOL0     C36911   9.855   5.188  -0.009 -0.2380 -0.5844 -0.9854
  268MOL0     C36912   9.499   5.877  -0.044  0.6857  0.1712  0.7636
  268MOL0     C36913   9.440   5.999  -0.001  0.0985 -0.1781 -1.0293
  268MOL0     C36914   9.374   6.082  -0.114  1.1224  0.0583  0.0815
  268MOL0     H36915   9.631   6.324   0.294  0.0783 -0.9918 -1.0053
  268MOL0     H36916   9.735   6.468   0.476 -1.9069  1.6064 -0.2501
  268MOL0     H36917   9.665   6.309   0.889  1.1845  0.0198  1.0870
  268MOL0     H36918   9.562   6.451   0.902  2.3447  4.2818 -1.8182
  268MOL0     H36919   9.745   6.596   0.933 -0.4758 -0.3279 -2.3848
  268MOL0     H36920   9.700   6.497   1.070 -1.4680  0.9941  0.0008
  268MOL0     H36921   9.880   6.337   1.010 -0.0768 -0.6844 -1.0494
  268MOL0     H36922   9.923   6.427   0.858  1.3579  0.0145  1.6036
  268MOL0     H36923  10.082   6.459   1.005 -1.4809 -1.0447  1.3889
  268MOL0     H36924  10.019   6.616   0.994  2.8760 -0.6526 -1.0196
  268MOL0     H36925   9.942   6.424   1.221  0.2543 -0.0127  1.9962
  268MOL0     H36926   9.914   6.603   1.208 -3.8867 -0.7805 -3.1685
  268MOL0     H36927  10.183   6.446   1.229  1.3003 -0.7900  0.9798
  268MOL0     H36928  10.168   6.615   1.183 -4.1888  1.4635 -1.3652
  268MOL0     H36929  10.017   6.561   1.433 -1.4882  0.7944 -2.3644
  268MOL0     H36930  10.100   6.703   1.378  1.4496  0.1340  0.4468
  268MOL0     H36931  10.206   6.531   1.569  1.9801 -1.2324  0.1016
  268MOL0     H36932  10.277   6.467   1.423 -0.4529 -1.3947  3.2846
  268MOL0     H36933  10.203   6.805   1.578  1.2841 -0.5707  1.0340
  268MOL0     H36934  10.575   6.966   1.637  1.4433  1.0782 -3.4224
  268MOL0     H36935  10.426   6.943   1.713  1.9491 -1.3625  0.5300
  268MOL0     H36936  10.313   7.097   1.523 -0.3198  1.6828 -1.1548
  268MOL0     H36937  10.409   7.178   1.637  1.1444  2.2229 -2.4400
  268MOL0     H36938  10.606   7.175   1.481 -1.3795  3.3170 -0.6307
  268MOL0     H36939  10.515   7.071   1.367  3.7991 -0.8571  0.3070
  268MOL0     H36940  10.537   7.315   1.299 -0.7097 -3.2172 -0.3590
  268MOL0     H36941  10.371   7.307   1.366 -0.9905 -2.1923  2.1822
  268MOL0     H36942  10.741   7.396   1.403  0.0738  0.2307  1.9344
  268MOL0     H36943  10.978   7.663   1.326  1.4040 -0.6767  1.8559
  268MOL0     H36944  10.906   7.564   1.197 -1.6302  1.1830 -0.3840
  268MOL0     H36945  10.948   7.494   1.352 -3.5994 -2.8667 -1.7577
  268MOL0     H36946  10.959   8.074   1.279  0.3372  0.4937  0.5407
  268MOL0     H36947  11.001   8.307   1.201  0.4959 -0.0678  1.0768
  268MOL0     H36948  10.868   8.681   1.218 -0.3311 -0.2083 -1.9261
  268MOL0     H36949  10.948   8.531   1.292 -1.7689 -1.8423  0.4449
  268MOL0     H36950  11.083   8.630   1.153 -0.4169  1.7564 -1.4783
  268MOL0     H36951  11.039   8.475   1.068  0.0573 -0.0016 -2.0960
  268MOL0     H36952  10.935   8.756   1.000 -0.5245 -0.6491  0.2562
  268MOL0     H36953  10.884   8.601   0.931 -1.7990  1.3699  1.1111
  268MOL0     H36954  11.062   8.596   0.797 -2.4418 -0.6217 -1.0047
  268MOL0     H36955  11.182   8.678   0.905  0.1393  1.3217 -0.3991
  268MOL0     H36956  11.096   8.766   0.686  0.3333  0.8484 -0.5721
  268MOL0     H36957  10.948   8.813   0.761  0.0331 -0.2083  2.0073
  268MOL0     H36958  11.207   8.908   0.884 -0.1589 -0.9372 -0.7356
  268MOL0     H36959  11.036   8.971   0.909 -0.3955 -0.4363 -0.6293
  268MOL0     H36960  11.033   9.087   0.717  0.6404  1.6195  0.0119
  268MOL0     H36961  11.181   9.014   0.644  0.1918  0.8973 -1.0948
  268MOL0     H36962  11.276   9.194   0.725  1.9976 -2.3086 -0.2613
  268MOL0     H36963  11.276   9.121   0.880 -0.1627 -0.6746 -0.2562
  268MOL0     H36964  10.590   8.392   1.267 -0.9288  0.4204  0.7461
  268MOL0     H36965  10.561   8.175   1.396  1.1246 -2.6281  1.1860
  268MOL0     H36966  10.539   7.841   1.470 -1.5651 -0.3856  0.5102
  268MOL0     H36967  10.404   7.647   1.503 -0.4316  0.2935 -1.2325
  268MOL0     H36968   9.471   6.285   0.766 -1.7636 -1.2230 -0.6906
  268MOL0     H36969   9.363   6.163   0.582  1.3112 -1.2137  0.6390
  268MOL0     H36970   9.515   5.958   0.329 -1.2460  1.0284  0.3400
  268MOL0     H36971   9.598   5.745   0.249  1.2129  3.4858  3.4441
  268MOL0     H36972   9.495   5.599  -0.163  1.7775 -0.3620 -3.3510
  268MOL0     H36973   9.634   5.714  -0.174 -2.5374  1.5731 -1.3264
  268MOL0     H36974   9.659   5.456  -0.250  0.0982  4.4040 -2.4122
  268MOL0     H36975   9.623   5.418  -0.079 -0.7015 -0.5594 -2.2340
  268MOL0     H36976   9.849   5.583  -0.200  3.7019 -0.3180  0.3178
  268MOL0     H36977   9.845   5.537  -0.031 -2.2980  1.2575  0.0135
  268MOL0     H36978   9.996   5.402  -0.172 -0.4306  2.0197  1.6845
  268MOL0     H36979   9.865   5.355  -0.285 -2.3705  2.6200 -0.3034
  268MOL0     H36980   9.844   5.109   0.063 -1.2280  1.2576  0.9770
  268MOL0     H36981   9.467   5.832  -0.138  0.7049  0.3259  0.6837
  268MOL0     H36982   9.279   6.127  -0.081  2.3662  0.6754  3.1307
  268MOL0     H36983   9.434   6.159  -0.163  0.0931 -1.1659 -3.3705
  268MOL0     H36984   9.354   6.017  -0.199  0.9156 -4.3153  3.1722
  269MOL0     O36985   1.177   1.562   4.443  1.0423  0.2646  0.2808
  269MOL0     C36986   1.061   1.602   4.452 -0.4991  0.2338 -0.0601
  269MOL0     O36987   1.024   1.725   4.407 -0.0486 -0.2770  1.1098
  269MOL0     C36988   1.105   1.795   4.317  0.3354  1.0229  0.3191
  269MOL0     C36989   1.229   1.861   4.355  0.8502  0.0537  0.1664
  269MOL0     C36990   1.306   1.912   4.249 -1.0501 -0.7594 -0.2902
  269MOL0     C36991   1.259   1.916   4.116 -0.9258 -0.4119 -0.6753
  269MOL0     O36992   1.337   1.967   4.015  0.1666 -0.7256 -0.4564
  269MOL0     C36993   1.417   2.089   4.031 -0.2867  0.6094 -0.9632
  269MOL0     C36994   1.469   2.129   3.886 -0.1602 -0.5610 -0.1695
  269MOL0     C36995   1.551   2.255   3.874 -0.4414  0.1492  0.1787
  269MOL0     C36996   1.695   2.237   3.937 -0.5715 -0.2104 -0.3191
  269MOL0     C36997   1.799   2.349   3.932 -0.7876 -0.3536  0.1330
  269MOL0     C36998   1.754   2.475   4.002 -0.0104 -0.5126 -0.5418
  269MOL0     C36999   1.868   2.576   4.001  0.9126  0.4523 -0.3841
  269MOL0     C37000   1.829   2.688   4.091  0.2062  0.2686 -0.0480
  269MOL0     N37001   1.931   2.796   4.094 -0.2045 -0.3629  0.3354
  269MOL0     C37002   1.976   2.858   3.981  0.3438  0.3014  0.1534
  269MOL0     C37003   2.080   2.938   4.014  0.1002  0.0271  0.0461
  269MOL0     C37004   2.164   3.027   3.925 -0.1175 -0.5996 -1.1226
  269MOL0     C37005   2.311   2.982   3.911 -1.2411  0.5176  0.1467
  269MOL0     C37006   2.406   3.083   3.841  0.2810 -0.3770  0.2468
  269MOL0     C37007   2.482   3.182   3.936 -0.2795 -0.3292  0.0770
  269MOL0     O37008   2.592   3.259   3.871  0.0463  0.2565 -0.0770
  269MOL0     C37009   2.698   3.189   3.819  0.1763  1.0811 -0.1300
  269MOL0     C37010   2.787   3.123   3.908  0.3686  0.0276  1.9355
  269MOL0     C37011   2.892   3.052   3.854 -0.4522 -0.4674 -0.3054
  269MOL0     C37012   2.979   2.978   3.953 -0.0127  0.2017 -0.3878
  269MOL0     C37013   2.923   3.058   3.718  0.3365 -1.0908  0.2836
  269MOL0     C37014   3.051   3.019   3.661 -0.3774 -0.1791  0.1497
  269MOL0     O37015   3.085   3.089   3.550 -0.7658 -0.2756  0.4147
  269MOL0     C37016   3.208   3.080   3.491  0.1744 -0.5877  0.7924
  269MOL0     C37017   3.206   3.089   3.350  0.9843  0.2723 -0.2443
  269MOL0     C37018   3.318   3.085   3.277 -0.3146  0.1385  0.1639
  269MOL0     C37019   3.440   3.066   3.347 -0.9580  0.0918  0.1898
  269MOL0     O37020   3.545   3.049   3.263 -0.4478  0.0326 -0.3401
  269MOL0     C37021   3.670   3.004   3.323  0.0596 -1.0946 -0.2249
  269MOL0     C37022   3.767   3.009   3.218 -0.4831 -0.1197  0.1375
  269MOL0     C37023   3.911   2.975   3.259 -0.1770  0.0161  0.0521
  269MOL0     C37024   3.925   2.821   3.272  0.4497 -0.5357  0.5792
  269MOL0     C37025   3.972   2.760   3.136 -0.1838 -0.8901  0.5289
  269MOL0     C37026   3.961   2.607   3.131  1.4871  0.2865 -0.2464
  269MOL0     C37027   4.038   2.545   3.244 -0.9839  0.1435 -0.4094
  269MOL0     C37028   4.186   2.531   3.207 -0.4167  0.6250 -0.4630
  269MOL0    Cl37029   4.281   2.450   3.336  0.2875 -0.1136  0.1137
  269MOL0     C37030   3.444   3.053   3.484  0.4989  0.0079 -0.4736
  269MOL0     C37031   3.328   3.068   3.557  0.0958 -0.1225 -0.7546
  269MOL0     O37032   3.124   2.934   3.720  0.4947 -0.4335 -0.9136
  269MOL0     C37033   2.826   3.120   3.633  1.0041  0.6104  0.7650
  269MOL0     C37034   2.715   3.182   3.681  0.0446  0.0028 -0.7658
  269MOL0     N37035   2.100   2.916   4.149  0.4510  0.1194 -0.0472
  269MOL0     N37036   2.012   2.830   4.198 -0.2507  0.7685  0.5884
  269MOL0     C37037   1.137   1.860   4.086  0.8283  0.2778  0.2822
  269MOL0     C37038   1.063   1.789   4.185 -0.0142 -1.4588 -0.7787
  269MOL0     C37039   0.979   1.511   4.535 -0.0351 -0.0562 -0.2715
  269MOL0     C37040   1.042   1.426   4.631 -0.0086 -0.4838  0.2809
  269MOL0     C37041   0.966   1.331   4.703 -0.3265  1.3204  0.2982
  269MOL0     C37042   0.830   1.315   4.692 -0.3445 -0.2370 -0.4373
  269MOL0     O37043   0.754   1.205   4.743  0.5148 -0.0906  0.1215
  269MOL0     C37044   0.825   1.109   4.822  0.0061  0.5965  0.2311
  269MOL0     C37045   0.733   1.007   4.873  0.8314  0.3010  0.2021
  269MOL0     C37046   0.616   1.061   4.960 -0.5202  0.2713 -0.6690
  269MOL0     C37047   0.659   1.152   5.076  0.1529 -0.1421 -0.6918
  269MOL0     C37048   0.553   1.191   5.168 -0.1038  0.6040  0.1134
  269MOL0     C37049   0.459   1.213   5.237  0.2583 -0.1198  0.6221
  269MOL0     C37050   0.766   1.389   4.590 -0.1445 -0.2763 -0.7303
  269MOL0     C37051   0.836   1.489   4.516  0.1561  0.3684  0.2134
  269MOL0     C37052   0.761   1.568   4.416 -0.7638 -0.7130 -0.6225
  269MOL0     H37053   1.248   1.839   4.460  0.4130 -0.6414  0.1053
  269MOL0     H37054   1.401   1.961   4.263 -1.3613  0.0422 -0.8892
  269MOL0     H37055   1.505   2.072   4.094 -1.3481 -0.1845  0.3728
  269MOL0     H37056   1.358   2.172   4.072 -0.2145  0.6299 -0.8992
  269MOL0     H37057   1.519   2.041   3.846 -0.6261 -2.2161  2.6275
  269MOL0     H37058   1.374   2.146   3.834  0.4310  0.5791 -0.9085
  269MOL0     H37059   1.556   2.271   3.766  1.8631 -1.0999  0.0323
  269MOL0     H37060   1.500   2.336   3.928 -1.2056 -0.3490  0.2086
  269MOL0     H37061   1.685   2.227   4.046  1.9718  0.5754  0.0413
  269MOL0     H37062   1.741   2.143   3.907  1.9550  0.8850 -0.0944
  269MOL0     H37063   1.821   2.382   3.830  0.2090  0.5304  0.6115
  269MOL0     H37064   1.880   2.294   3.980 -1.7807 -1.6929  0.3249
  269MOL0     H37065   1.672   2.516   3.943  3.2003  4.7219 -2.0710
  269MOL0     H37066   1.728   2.427   4.097  2.9338 -0.0068  0.6287
  269MOL0     H37067   1.887   2.609   3.898 -2.8649 -1.5045 -1.8958
  269MOL0     H37068   1.961   2.538   4.045  1.0902  2.7892  1.3999
  269MOL0     H37069   1.741   2.737   4.047 -1.8208 -1.6653  1.5629
  269MOL0     H37070   1.818   2.651   4.193  2.3635 -2.5288 -0.7104
  269MOL0     H37071   1.941   2.839   3.880  0.7088  1.5400 -0.2242
  269MOL0     H37072   2.169   3.125   3.973 -1.8213 -1.6061  1.2824
  269MOL0     H37073   2.125   3.040   3.823 -0.4831  3.5884 -0.6486
  269MOL0     H37074   2.351   2.965   4.011 -0.8615 -0.4890 -0.1706
  269MOL0     H37075   2.318   2.885   3.862  0.6730 -0.5912  2.4122
  269MOL0     H37076   2.472   3.022   3.779 -1.4459 -1.6028 -0.4800
  269MOL0     H37077   2.349   3.151   3.777  1.4078  0.5103  0.1456
  269MOL0     H37078   2.409   3.252   3.977 -0.1152 -0.3205  0.3576
  269MOL0     H37079   2.527   3.132   4.022  0.8231 -0.6619 -0.6769
  269MOL0     H37080   2.773   3.114   4.015  1.8252  1.2526  2.2521
  269MOL0     H37081   2.986   2.873   3.923 -0.0983  0.7043 -2.3250
  269MOL0     H37082   2.940   2.979   4.055  0.6967 -1.4491 -0.0767
  269MOL0     H37083   3.081   3.013   3.968  0.4933 -0.1386 -2.6629
  269MOL0     H37084   3.107   3.112   3.311  1.1207  0.4209 -0.5102
  269MOL0     H37085   3.323   3.105   3.171  2.1418 -1.5246 -0.1378
  269MOL0     H37086   3.697   3.078   3.399 -0.7714  0.7260 -1.6347
  269MOL0     H37087   3.655   2.903   3.362  0.8026 -0.6812  1.2312
  269MOL0     H37088   3.731   2.944   3.137 -0.7661  0.1197  0.0733
  269MOL0     H37089   3.762   3.107   3.170 -0.6918  0.7248  1.8277
  269MOL0     H37090   3.916   3.024   3.357  0.3283 -0.2144  0.1459
  269MOL0     H37091   3.981   3.023   3.190 -0.5078  2.6223  1.4041
  269MOL0     H37092   3.826   2.777   3.286 -0.4689  1.0379 -0.6453
  269MOL0     H37093   3.980   2.808   3.365 -1.5663  0.7323  2.0444
  269MOL0     H37094   3.908   2.802   3.058 -0.5857 -0.3630  1.1278
  269MOL0     H37095   4.072   2.793   3.109 -0.7868  0.4761 -0.1529
  269MOL0     H37096   3.994   2.563   3.037  1.6249 -0.0346 -0.0500
  269MOL0     H37097   3.857   2.578   3.145  0.5278  3.9437  1.4227
  269MOL0     H37098   3.994   2.446   3.260 -2.1137  0.2136 -2.6206
  269MOL0     H37099   4.037   2.595   3.341 -1.0749 -2.5713  1.0963
  269MOL0     H37100   4.230   2.629   3.189 -3.0669  1.5137 -2.8661
  269MOL0     H37101   4.189   2.475   3.113  2.2205 -0.5865  0.2657
  269MOL0     H37102   3.534   3.050   3.545 -0.9229  0.5827  1.7906
  269MOL0     H37103   3.334   3.069   3.665  3.5198 -0.2078 -0.8279
  269MOL0     H37104   2.833   3.133   3.525 -2.3927  2.4633  0.6283
  269MOL0     H37105   2.642   3.235   3.620 -0.2066 -0.5986 -0.9997
  269MOL0     H37106   1.131   1.842   3.980  1.7806 -3.0147  0.6663
  269MOL0     H37107   0.981   1.723   4.162 -0.8117 -0.5401 -0.6739
  269MOL0     H37108   1.149   1.430   4.649 -0.0804 -1.5680  1.0979
  269MOL0     H37109   1.020   1.265   4.770 -2.9774 -0.4906  0.8043
  269MOL0     H37110   0.900   1.054   4.763 -1.0458 -0.4290 -0.2005
  269MOL0     H37111   0.864   1.165   4.907 -1.5156  1.4557  0.3955
  269MOL0     H37112   0.787   0.923   4.917 -0.1442 -1.7174 -2.2137
  269MOL0     H37113   0.686   0.965   4.784 -0.3177  1.2475  0.3366
  269MOL0     H37114   0.549   1.117   4.895 -0.7877  0.3677 -0.3152
  269MOL0     H37115   0.557   0.974   4.992  0.6727 -1.3429 -2.5989
  269MOL0     H37116   0.689   1.249   5.037 -0.8369  0.2642 -0.4768
  269MOL0     H37117   0.732   1.105   5.143  0.7921  2.2658  0.3950
  269MOL0     H37118   0.387   1.238   5.313 -0.3304  1.5547 -0.4159
  269MOL0     H37119   0.670   1.364   4.545  1.3247  0.6256 -4.7558
  269MOL0     H37120   0.777   1.675   4.431  2.4636 -1.0589 -1.0439
  269MOL0     H37121   0.805   1.546   4.318  0.9035 -0.7418  0.1183
  269MOL0     H37122   0.653   1.550   4.411 -1.8936  3.7206  1.8468
  270MOL0     O37123   1.659  10.567   4.037  0.1482  0.1946  0.6235
  270MOL0     C37124   1.557  10.524   4.085 -0.7049  0.6677 -0.4909
  270MOL0     O37125   1.485  10.593   4.187 -0.3238  0.4907  0.9267
  270MOL0     C37126   1.513  10.725   4.195  0.3081  0.3725 -0.1163
  270MOL0     C37127   1.620  10.768   4.277 -0.6413 -0.2715 -1.1700
  270MOL0     C37128   1.645  10.901   4.298  0.2708  0.8056 -0.1458
  270MOL0     C37129   1.564  10.999   4.239  0.1794  0.4135  0.1080
  270MOL0     O37130   1.567  11.136   4.271  0.5986  0.8655 -0.0020
  270MOL0     C37131   1.677  11.166   4.349 -0.3360 -0.1688 -0.8695
  270MOL0     C37132   1.677  11.309   4.392  0.0255 -0.3151  0.1588
  270MOL0     C37133   1.558  11.351   4.482  0.0640  0.9552  0.1749
  270MOL0     C37134   1.566  11.506   4.510 -0.3028 -0.1765 -0.3215
  270MOL0     C37135   1.455  11.563   4.597  0.5218 -0.2701 -0.5268
  270MOL0     C37136   1.451  11.718   4.611  0.4026 -1.0852  0.8989
  270MOL0     C37137   1.359  11.782   4.712  0.4139  0.9422 -1.1184
  270MOL0     C37138   1.202  11.745   4.686 -0.3767 -1.1924 -0.5002
  270MOL0     N37139   1.128  11.788   4.804  0.2149 -0.3697  0.1228
  270MOL0     C37140   1.072  11.912   4.814  0.0069  0.0593 -0.7448
  270MOL0     C37141   1.019  11.919   4.942 -0.7160  0.5659  0.0775
  270MOL0     C37142   0.950  12.030   5.017 -0.6425 -0.3104  1.0263
  270MOL0     C37143   1.037  12.151   5.011  0.0376  0.6900  0.2282
  270MOL0     C37144   0.980  12.279   5.067 -0.6866  0.7125  1.0035
  270MOL0     C37145   1.071  12.404   5.051  0.4913  0.0330  0.2983
  270MOL0     O37146   1.083  12.434   4.914 -0.4844 -0.1980  0.3825
  270MOL0     C37147   1.171  12.532   4.878 -0.4649  0.1109 -0.4218
  270MOL0     C37148   1.212  12.545   4.739 -0.4799 -0.5309 -0.0601
  270MOL0     C37149   1.296  12.649   4.703  0.0325  0.3716  0.0427
  270MOL0     C37150   1.332  12.648   4.555  0.0174  0.3176  0.4373
  270MOL0     C37151   1.366  12.730   4.799 -0.0277  0.1079  0.3671
  270MOL0     C37152   1.463  12.844   4.768  0.1683  0.2942  0.5367
  270MOL0     O37153   1.538  12.890   4.870  0.3046 -0.3463 -0.1437
  270MOL0     C37154   1.629  12.993   4.859  0.9828  0.1189 -0.3379
  270MOL0     C37155   1.625  13.101   4.945  1.1851 -0.2426  0.5823
  270MOL0     C37156   1.733  13.197   4.942 -0.2599 -0.0506 -0.0099
  270MOL0     C37157   1.833  13.189   4.837  0.6822  0.9012 -0.3734
  270MOL0     O37158   1.934  13.283   4.816 -0.0105 -0.1322 -0.2173
  270MOL0     C37159   2.047  13.262   4.904  0.4837 -1.2376 -0.2826
  270MOL0     C37160   2.105  13.393   4.964  0.2683  0.2507 -0.9624
  270MOL0     C37161   2.153  13.497   4.859  0.2262  0.2537 -0.3039
  270MOL0     C37162   2.121  13.632   4.915 -0.0643 -0.5079  0.7923
  270MOL0     C37163   2.159  13.749   4.818  0.4039  0.0571 -0.2380
  270MOL0     C37164   2.303  13.751   4.757  0.5355 -0.8382  1.2508
  270MOL0     C37165   2.338  13.886   4.683 -0.0968 -0.7631  0.4024
  270MOL0     C37166   2.378  13.989   4.782 -1.3734 -0.1978 -0.3645
  270MOL0    Cl37167   2.441  14.136   4.694 -0.1345 -0.1272  0.2577
  270MOL0     C37168   1.821  13.089   4.744  0.7301  0.6653 -0.2013
  270MOL0     C37169   1.726  12.985   4.767 -0.1405 -0.3038  0.6702
  270MOL0     O37170   1.460  12.898   4.655 -0.1157  1.0632 -0.1553
  270MOL0     C37171   1.322  12.721   4.927 -0.4408  0.3557 -0.4846
  270MOL0     C37172   1.237  12.615   4.970 -0.5579  0.0789 -0.5959
  270MOL0     N37173   1.049  11.800   5.006 -0.3149  0.0537 -0.3545
  270MOL0     N37174   1.121  11.727   4.922 -0.5458 -1.3246 -0.0086
  270MOL0     C37175   1.453  10.961   4.162 -0.9229  0.4562  0.8585
  270MOL0     C37176   1.436  10.825   4.132  0.1084  0.1611  0.1764
  270MOL0     C37177   1.517  10.390   4.035 -0.8886  0.5224 -0.3460
  270MOL0     C37178   1.381  10.361   4.066  0.8907 -0.3685  0.6401
  270MOL0     C37179   1.333  10.233   4.024  1.0117  0.0787  1.8235
  270MOL0     C37180   1.407  10.135   3.964 -0.1666 -0.1252 -0.4747
  270MOL0     O37181   1.350  10.010   3.938 -0.6305  0.4321 -0.3163
  270MOL0     C37182   1.344   9.970   3.804 -0.1043 -0.6024  0.1493
  270MOL0     C37183   1.258  10.064   3.722  0.0764 -0.5346 -0.0705
  270MOL0     C37184   1.231  10.027   3.576 -0.8610 -0.0703 -0.5043
  270MOL0     C37185   1.359   9.990   3.490  0.6426 -0.2037 -0.1649
  270MOL0     C37186   1.440  10.108   3.464 -0.0626  0.9448 -1.3600
  270MOL0     C37187   1.495  10.215   3.466  0.1348  0.0070  0.5208
  270MOL0     C37188   1.530  10.176   3.918 -0.5136 -0.1074  1.2355
  270MOL0     C37189   1.593  10.295   3.968  0.4600  0.0053  1.5030
  270MOL0     C37190   1.745  10.312   3.931 -0.7871 -0.4139  0.6284
  270MOL0     H37191   1.686  10.688   4.308 -0.3028 -0.2783 -1.8946
  270MOL0     H37192   1.726  10.913   4.369  0.4780 -4.0864  0.7818
  270MOL0     H37193   1.778  11.152   4.308  1.1845  1.3298  1.9897
  270MOL0     H37194   1.671  11.112   4.444 -0.7967  0.7217 -0.3779
  270MOL0     H37195   1.767  11.317   4.453 -1.1409  1.6515  1.7459
  270MOL0     H37196   1.674  11.364   4.297  1.0490 -0.6326 -0.0713
  270MOL0     H37197   1.459  11.338   4.439 -0.0723 -0.3344  0.8223
  270MOL0     H37198   1.566  11.298   4.577  2.7183  0.4206 -0.2694
  270MOL0     H37199   1.664  11.534   4.549  0.8812 -0.2084 -3.0728
  270MOL0     H37200   1.563  11.555   4.412  2.6977 -1.3219 -1.0965
  270MOL0     H37201   1.466  11.509   4.692  2.4415 -1.5347 -1.3910
  270MOL0     H37202   1.357  11.546   4.551 -0.0859  1.8636 -0.1256
  270MOL0     H37203   1.553  11.752   4.629  1.7524 -3.4344 -1.6134
  270MOL0     H37204   1.423  11.759   4.513  2.5320 -0.5353  0.4705
  270MOL0     H37205   1.378  11.890   4.718  0.9536  0.7846  0.4864
  270MOL0     H37206   1.387  11.742   4.810  4.0472 -0.0594 -2.4220
  270MOL0     H37207   1.158  11.792   4.598 -1.6156  0.1910  0.7909
  270MOL0     H37208   1.192  11.637   4.678 -1.0910 -1.3141  1.4204
  270MOL0     H37209   1.047  11.993   4.746  1.3907  3.0168  1.9708
  270MOL0     H37210   0.937  11.997   5.121  0.3924 -0.0203  1.2576
  270MOL0     H37211   0.849  12.062   4.986  0.3399 -0.2655 -2.5812
  270MOL0     H37212   1.128  12.129   5.068 -1.1871  0.9276  2.3828
  270MOL0     H37213   1.071  12.148   4.907  2.1476 -2.7058  0.8489
  270MOL0     H37214   0.884  12.292   5.016  0.1008  0.0968 -0.7205
  270MOL0     H37215   0.961  12.266   5.174 -1.2871 -2.5954  0.6309
  270MOL0     H37216   1.028  12.484   5.111  0.6487  0.3300  0.0149
  270MOL0     H37217   1.174  12.391   5.087 -0.2743 -1.0160  2.2357
  270MOL0     H37218   1.180  12.480   4.658 -0.0877 -0.1930 -0.4830
  270MOL0     H37219   1.283  12.729   4.500 -0.5335  0.1680  0.6985
  270MOL0     H37220   1.298  12.557   4.504 -0.5742  0.3996  0.6771
  270MOL0     H37221   1.441  12.646   4.550  0.0002  0.5074 -0.1154
  270MOL0     H37222   1.543  13.119   5.013  0.3320  1.5924 -0.8549
  270MOL0     H37223   1.736  13.275   5.018 -5.3326  0.1929  0.2668
  270MOL0     H37224   2.029  13.182   4.976 -0.9576 -0.2727  0.4813
  270MOL0     H37225   2.127  13.218   4.844 -0.0531 -0.4408 -1.6332
  270MOL0     H37226   2.032  13.436   5.033 -0.0876 -1.4430 -0.2179
  270MOL0     H37227   2.184  13.357   5.030  0.1634  0.9353 -0.4655
  270MOL0     H37228   2.083  13.475   4.779 -0.7504  1.9833  0.0300
  270MOL0     H37229   2.259  13.479   4.838 -0.0295  0.6492 -2.0396
  270MOL0     H37230   2.170  13.655   5.010  0.1591  3.3221 -0.0946
  270MOL0     H37231   2.013  13.637   4.929 -0.6126 -1.4260 -2.4048
  270MOL0     H37232   2.098  13.738   4.728 -1.0364 -0.2986  0.7338
  270MOL0     H37233   2.132  13.846   4.859  2.2426  0.9865 -1.1404
  270MOL0     H37234   2.304  13.669   4.684  1.6689  0.0673  0.2127
  270MOL0     H37235   2.380  13.724   4.829  1.6806  0.5926  0.6051
  270MOL0     H37236   2.252  13.923   4.626  1.5114 -0.5649 -2.0414
  270MOL0     H37237   2.418  13.871   4.610 -0.6294  0.3381 -0.4480
  270MOL0     H37238   2.459  13.946   4.841 -3.2189 -1.9633  1.0446
  270MOL0     H37239   2.299  14.009   4.855 -0.6871  0.6909  0.1502
  270MOL0     H37240   1.887  13.087   4.658  1.6914  0.2644  0.5241
  270MOL0     H37241   1.741  12.899   4.702 -2.5970 -1.1390  1.1207
  270MOL0     H37242   1.339  12.799   5.001  0.6952 -0.2906 -0.0418
  270MOL0     H37243   1.205  12.618   5.074 -1.0478  1.1777 -0.7576
  270MOL0     H37244   1.378  11.024   4.115 -0.0527 -0.3791 -1.8569
  270MOL0     H37245   1.340  10.810   4.084 -0.3019 -2.2996  1.5616
  270MOL0     H37246   1.313  10.432   4.111 -0.9555 -1.5329 -0.1626
  270MOL0     H37247   1.228  10.213   4.043  0.3380 -1.9321 -2.7594
  270MOL0     H37248   1.448   9.968   3.768  0.5525  2.0632  1.6386
  270MOL0     H37249   1.307   9.868   3.793  1.0355 -1.5045  3.4902
  270MOL0     H37250   1.300  10.165   3.723 -2.8178  0.7699 -0.4858
  270MOL0     H37251   1.157  10.071   3.762  0.5226 -0.4943  1.0740
  270MOL0     H37252   1.158   9.946   3.567  1.0643 -1.7461 -2.0648
  270MOL0     H37253   1.179  10.117   3.542 -0.6538  0.1972 -0.1258
  270MOL0     H37254   1.329   9.954   3.392 -0.8770  0.5037  0.0197
  270MOL0     H37255   1.414   9.912   3.544 -0.1908  0.3771  1.6262
  270MOL0     H37256   1.529  10.317   3.464 -3.2264  1.3009  1.5280
  270MOL0     H37257   1.596  10.101   3.875  0.8493  0.4557  2.2525
  270MOL0     H37258   1.755  10.401   3.867 -0.4009  0.7454  2.2395
  270MOL0     H37259   1.804  10.325   4.022 -0.8444 -2.6736  1.0422
  270MOL0     H37260   1.785  10.225   3.878  0.3321  0.2570  0.3073
  271MOL0     O37261  10.464   2.762   1.674 -0.3906  0.8129  0.8279
  271MOL0     C37262  10.500   2.858   1.602 -1.1319  0.1238  0.2187
  271MOL0     O37263  10.454   2.990   1.617 -0.3897 -0.0102 -0.2964
  271MOL0     C37264  10.362   3.017   1.712  0.3562  0.6984  0.6642
  271MOL0     C37265  10.234   2.961   1.700 -0.7079  0.0961  0.2679
  271MOL0     C37266  10.144   2.976   1.807  0.3497 -0.2212  0.0537
  271MOL0     C37267  10.171   3.064   1.916 -0.2612 -0.2771 -0.7689
  271MOL0     O37268  10.101   3.076   2.030  0.4812 -0.0849  0.0409
  271MOL0     C37269   9.969   3.018   2.028 -0.3377  0.5694  0.8749
  271MOL0     C37270   9.897   3.072   2.138  0.5646 -0.3407 -0.1236
  271MOL0     C37271   9.750   3.014   2.145 -0.3728  0.4735  0.3066
  271MOL0     C37272   9.653   3.100   2.233 -0.1129  0.8635 -0.1865
  271MOL0     C37273   9.548   3.006   2.289  0.4617  0.3625 -1.0321
  271MOL0     C37274   9.454   3.077   2.391  0.1492 -0.3667  0.0594
  271MOL0     C37275   9.358   2.988   2.457 -0.8330 -0.7728  0.3652
  271MOL0     C37276   9.286   3.045   2.580 -0.4294  0.3965 -0.2530
  271MOL0     N37277   9.187   3.149   2.536 -0.0370 -0.4311 -0.2630
  271MOL0     C37278   9.203   3.284   2.527  0.1135  0.3259 -0.0635
  271MOL0     C37279   9.074   3.325   2.539  0.3475 -0.9854 -0.0925
  271MOL0     C37280   9.044   3.476   2.541 -0.0859 -0.4254  0.3646
  271MOL0     C37281   9.039   3.534   2.684 -0.3853 -0.4686  0.4824
  271MOL0     C37282   9.033   3.688   2.678  0.0662 -1.1961  0.7104
  271MOL0     C37283   8.899   3.742   2.615 -0.6201 -0.5371  0.9646
  271MOL0     O37284   8.788   3.667   2.668  0.1565  0.1120 -0.5338
  271MOL0     C37285   8.672   3.665   2.591 -1.4252 -0.0126  0.0252
  271MOL0     C37286   8.634   3.771   2.512  0.3407  0.6225  0.9393
  271MOL0     C37287   8.519   3.762   2.427  0.3730  0.2332  0.0274
  271MOL0     C37288   8.474   3.893   2.363 -0.7230 -0.1007 -0.2304
  271MOL0     C37289   8.449   3.641   2.422  0.7627  0.3675  0.9612
  271MOL0     C37290   8.328   3.617   2.334 -0.4409 -0.0301 -0.5724
  271MOL0     O37291   8.247   3.513   2.370 -0.0512  0.3574 -0.1827
  271MOL0     C37292   8.136   3.485   2.291  0.2918 -0.4954  0.4036
  271MOL0     C37293   8.124   3.497   2.149 -0.3577 -0.2325 -0.7799
  271MOL0     C37294   8.008   3.470   2.078  0.0495  0.3464  0.5307
  271MOL0     C37295   7.889   3.445   2.153 -0.9595 -0.9331  0.1331
  271MOL0     O37296   7.770   3.422   2.083 -0.2535  0.2630  0.0821
  271MOL0     C37297   7.645   3.444   2.134  0.3282  0.0644 -0.3898
  271MOL0     C37298   7.603   3.598   2.151  0.4878  0.3539 -0.1895
  271MOL0     C37299   7.459   3.623   2.163  0.0723  0.8896 -1.7549
  271MOL0     C37300   7.389   3.642   2.024  1.1595  0.8047  0.0280
  271MOL0     C37301   7.427   3.777   1.967 -0.7128 -0.6342  0.4484
  271MOL0     C37302   7.360   3.813   1.827 -0.9196 -0.4732 -0.9856
  271MOL0     C37303   7.375   3.962   1.803 -0.5870  0.3689  0.5532
  271MOL0     C37304   7.307   3.993   1.676 -0.3396  0.1723  0.4566
  271MOL0    Cl37305   7.276   4.170   1.670 -0.1529  0.0335 -0.4395
  271MOL0     C37306   7.898   3.434   2.289  0.6854  0.4976  1.1912
  271MOL0     C37307   8.021   3.447   2.354  0.3663 -1.1448 -0.7741
  271MOL0     O37308   8.311   3.689   2.234  0.3951 -0.1730  0.1355
  271MOL0     C37309   8.485   3.535   2.509 -0.5845  0.9289 -0.3590
  271MOL0     C37310   8.594   3.551   2.596 -0.1320 -0.4306 -0.2370
  271MOL0     N37311   8.988   3.220   2.542 -0.0478  0.6658  0.5879
  271MOL0     N37312   9.055   3.113   2.528 -0.8370  0.0760 -0.0332
  271MOL0     C37313  10.300   3.121   1.907  0.5093 -0.8203  0.2291
  271MOL0     C37314  10.395   3.099   1.816  0.3199  0.5268  1.0155
  271MOL0     C37315  10.610   2.823   1.507  0.2330 -0.1175 -0.2153
  271MOL0     C37316  10.681   2.930   1.459  0.0087  0.4303  0.5740
  271MOL0     C37317  10.786   2.909   1.372 -0.8697 -0.3740  0.1270
  271MOL0     C37318  10.826   2.788   1.321 -0.4284  1.0710 -1.1122
  271MOL0     O37319  10.918   2.761   1.226 -0.4166 -1.0973  0.0009
  271MOL0     C37320  10.998   2.875   1.183 -0.0609  1.1955 -0.6853
  271MOL0     C37321  11.111   2.825   1.077 -0.5419  0.3751  0.3414
  271MOL0     C37322  11.059   2.751   0.957 -0.2655 -0.1789  0.3932
  271MOL0     C37323  11.162   2.702   0.861 -0.0798 -0.9858 -0.0649
  271MOL0     C37324  11.215   2.826   0.797  0.1395 -0.4771 -0.6311
  271MOL0     C37325  11.277   2.923   0.756 -0.0804 -0.8317 -0.1020
  271MOL0     C37326  10.750   2.675   1.372 -0.2359 -0.3195 -1.3977
  271MOL0     C37327  10.643   2.695   1.459  0.0323 -1.2648  0.2185
  271MOL0     C37328  10.564   2.562   1.495 -0.7434 -0.2892  0.3239
  271MOL0     H37329  10.212   2.901   1.612  0.1297  0.2623 -0.0643
  271MOL0     H37330  10.053   2.918   1.813 -1.5232  1.8360 -4.3618
  271MOL0     H37331   9.980   2.910   2.025  0.1527  0.5466  2.6521
  271MOL0     H37332   9.916   3.055   1.939 -1.0016 -2.0784  0.0830
  271MOL0     H37333   9.945   3.054   2.235  1.7387  1.3759 -0.3292
  271MOL0     H37334   9.889   3.181   2.134  0.6386 -0.3179  0.2765
  271MOL0     H37335   9.701   2.996   2.049 -1.2260 -0.3196  0.8792
  271MOL0     H37336   9.763   2.917   2.193  4.5088  0.3670 -0.7831
  271MOL0     H37337   9.707   3.134   2.322  4.4486  0.8064 -2.6760
  271MOL0     H37338   9.608   3.184   2.179 -3.0980  0.8999  2.0993
  271MOL0     H37339   9.591   2.926   2.351  0.1102  2.0995  1.6009
  271MOL0     H37340   9.480   2.966   2.213  1.2991  1.1181 -2.2026
  271MOL0     H37341   9.532   3.102   2.463 -0.0435  0.5696 -0.0521
  271MOL0     H37342   9.404   3.159   2.339  0.7794 -0.4334 -0.6715
  271MOL0     H37343   9.403   2.900   2.505  2.1566 -0.7130 -2.0083
  271MOL0     H37344   9.297   2.962   2.370 -1.1272 -2.1576  0.9628
  271MOL0     H37345   9.214   2.973   2.623 -0.3025  0.7227  0.5259
  271MOL0     H37346   9.355   3.087   2.653  2.3187 -3.0827 -0.5788
  271MOL0     H37347   9.299   3.333   2.527  0.8040 -0.9407 -1.4084
  271MOL0     H37348   8.946   3.482   2.494 -0.2500 -1.5094  0.5294
  271MOL0     H37349   9.124   3.531   2.491 -0.0119 -1.1495 -0.3285
  271MOL0     H37350   8.949   3.493   2.731 -1.3420 -1.3642 -1.9493
  271MOL0     H37351   9.129   3.511   2.740 -0.1448 -0.5242  0.0804
  271MOL0     H37352   9.049   3.732   2.777  0.9175 -0.6823  0.3526
  271MOL0     H37353   9.114   3.707   2.607  0.2188 -0.4809  1.0674
  271MOL0     H37354   8.878   3.845   2.643  0.5969 -0.0169  0.0484
  271MOL0     H37355   8.908   3.740   2.506  1.2685 -0.5976  1.0898
  271MOL0     H37356   8.700   3.856   2.514  0.0955  0.8171  0.8456
  271MOL0     H37357   8.366   3.893   2.349 -0.7010 -2.0284 -0.7653
  271MOL0     H37358   8.519   3.900   2.264  0.0531 -0.6688  0.0684
  271MOL0     H37359   8.506   3.977   2.425  3.6088 -2.0675  0.6357
  271MOL0     H37360   8.211   3.532   2.094 -1.2356  1.9422 -0.8924
  271MOL0     H37361   8.000   3.484   1.970 -1.8842  1.1341  0.7309
  271MOL0     H37362   7.588   3.394   2.054 -2.7873 -0.6789  2.0787
  271MOL0     H37363   7.633   3.380   2.222  1.5849 -1.1948 -1.0840
  271MOL0     H37364   7.644   3.638   2.245  0.5480  1.4061 -0.6521
  271MOL0     H37365   7.650   3.652   2.068 -1.5647  2.8282  0.1085
  271MOL0     H37366   7.449   3.710   2.228  0.6602 -0.2199 -0.1228
  271MOL0     H37367   7.410   3.537   2.210  2.4439 -0.7668 -2.1592
  271MOL0     H37368   7.280   3.635   2.034  1.4169 -2.6765  1.8125
  271MOL0     H37369   7.407   3.558   1.956 -0.1817  1.4772 -1.2248
  271MOL0     H37370   7.389   3.853   2.035 -4.0434 -1.9606  0.2428
  271MOL0     H37371   7.532   3.789   1.938 -1.0159 -1.6504 -1.2403
  271MOL0     H37372   7.259   3.772   1.826 -0.2637 -2.1546 -1.8782
  271MOL0     H37373   7.413   3.752   1.753 -3.3124 -2.1199 -1.4592
  271MOL0     H37374   7.478   3.998   1.805 -0.0960 -0.9124 -0.2470
  271MOL0     H37375   7.317   4.018   1.877  0.1909  2.1195 -0.0994
  271MOL0     H37376   7.208   3.947   1.675 -0.6653  0.7725  1.8938
  271MOL0     H37377   7.353   3.955   1.585  0.8005  1.1711  0.5856
  271MOL0     H37378   7.811   3.412   2.350 -1.4036 -1.9204 -2.3365
  271MOL0     H37379   8.018   3.446   2.462 -2.7206  1.3796 -0.6986
  271MOL0     H37380   8.434   3.439   2.504 -0.6148  0.8017  1.5967
  271MOL0     H37381   8.631   3.458   2.637 -0.1453 -0.0849  0.5702
  271MOL0     H37382  10.311   3.189   1.991  2.2437 -1.3940  0.4942
  271MOL0     H37383  10.485   3.159   1.808  0.0676  0.7255 -0.5216
  271MOL0     H37384  10.657   3.035   1.477 -0.3144  0.5729 -0.5881
  271MOL0     H37385  10.849   2.990   1.337 -3.7431  0.4768 -3.7897
  271MOL0     H37386  10.927   2.946   1.138 -1.3504 -1.3914 -3.0982
  271MOL0     H37387  11.051   2.928   1.263  1.7701  1.4145 -1.9818
  271MOL0     H37388  11.183   2.773   1.141  1.7498  1.0788 -1.5104
  271MOL0     H37389  11.158   2.917   1.040 -0.5073  0.1288 -0.2440
  271MOL0     H37390  11.014   2.659   0.996  2.5073 -1.6743  0.3200
  271MOL0     H37391  10.978   2.816   0.923  1.1961  2.2930  1.3916
  271MOL0     H37392  11.119   2.637   0.785  1.4146 -0.9675 -0.9676
  271MOL0     H37393  11.243   2.644   0.907  2.5744  2.9049  0.6725
  271MOL0     H37394  11.339   3.005   0.722  0.0428  0.2002  2.4162
  271MOL0     H37395  10.776   2.572   1.349 -0.7523 -1.6569  3.0327
  271MOL0     H37396  10.611   2.528   1.587  1.3696  2.6622  0.4847
  271MOL0     H37397  10.456   2.567   1.513 -1.0517 -0.2180 -1.3208
  271MOL0     H37398  10.582   2.487   1.417 -1.7694 -0.7512  0.5207
  272MOL0     O37399   8.596   3.276   2.871 -0.0292  0.4543 -0.2268
  272MOL0     C37400   8.564   3.172   2.920 -0.5079  0.5840 -0.2490
  272MOL0     O37401   8.432   3.127   2.930  0.8869 -0.3093  0.7398
  272MOL0     C37402   8.324   3.209   2.907 -0.2990  0.8229  0.3338
  272MOL0     C37403   8.310   3.280   2.785  0.6910  0.6934  0.5164
  272MOL0     C37404   8.203   3.368   2.767 -1.1292  0.3260 -0.5812
  272MOL0     C37405   8.097   3.369   2.865 -0.8456 -0.0863 -0.2367
  272MOL0     O37406   7.995   3.460   2.868 -0.4285  0.3243  0.3642
  272MOL0     C37407   7.956   3.521   2.754 -0.6690  0.5028  0.5938
  272MOL0     C37408   7.816   3.574   2.769 -0.8187  0.0525 -0.5374
  272MOL0     C37409   7.783   3.686   2.665 -0.6586  0.5448  0.2723
  272MOL0     C37410   7.639   3.715   2.649  0.2579  0.1054 -0.3402
  272MOL0     C37411   7.603   3.795   2.520 -0.0104 -1.1066  0.2287
  272MOL0     C37412   7.643   3.943   2.552 -0.2735  0.7930  0.4349
  272MOL0     C37413   7.575   4.038   2.458 -0.3815  0.3041  0.5764
  272MOL0     C37414   7.561   3.979   2.302 -0.6558  0.4491  0.2637
  272MOL0     N37415   7.512   4.083   2.211  0.0338  0.2969 -0.2344
  272MOL0     C37416   7.585   4.189   2.170 -0.3682 -0.1820  0.2759
  272MOL0     C37417   7.509   4.254   2.071  0.0721  0.9182  0.6015
  272MOL0     C37418   7.566   4.360   1.988  0.3135 -0.2655 -0.9997
  272MOL0     C37419   7.501   4.493   1.995  0.2611 -0.1959  0.1665
  272MOL0     C37420   7.460   4.531   1.855 -1.0904  0.1498  0.0843
  272MOL0     C37421   7.574   4.564   1.761 -0.1386 -0.5031 -0.4326
  272MOL0     O37422   7.642   4.671   1.823  0.7000 -0.2807  0.4872
  272MOL0     C37423   7.750   4.731   1.771  0.0028 -0.8954 -0.0775
  272MOL0     C37424   7.800   4.823   1.848  0.1701 -0.3437  0.4033
  272MOL0     C37425   7.911   4.900   1.819  0.1259 -0.0576  0.0649
  272MOL0     C37426   7.951   5.008   1.917  0.3559 -0.2533  0.9875
  272MOL0     C37427   7.973   4.869   1.699 -0.0392 -0.5800 -0.3476
  272MOL0     C37428   8.084   4.938   1.639 -0.1913 -0.5029 -0.5733
  272MOL0     O37429   8.164   5.004   1.731 -0.1160 -0.3951 -0.1638
  272MOL0     C37430   8.251   5.107   1.694 -1.1667 -0.0809 -0.1124
  272MOL0     C37431   8.232   5.190   1.573  0.2039  0.3873 -0.2000
  272MOL0     C37432   8.335   5.272   1.527  0.6332 -0.9847  0.0232
  272MOL0     C37433   8.461   5.281   1.588 -0.6737 -0.1595 -0.5001
  272MOL0     O37434   8.561   5.363   1.548 -0.1286  0.4279  0.2421
  272MOL0     C37435   8.560   5.407   1.413  0.0629 -0.1184 -0.1536
  272MOL0     C37436   8.706   5.458   1.387  0.4002 -0.5096 -0.1757
  272MOL0     C37437   8.737   5.506   1.237 -0.2809 -0.0567 -0.4949
  272MOL0     C37438   8.690   5.648   1.230  0.1671  0.0324 -1.2474
  272MOL0     C37439   8.717   5.711   1.098 -0.0154 -0.9588  0.1662
  272MOL0     C37440   8.858   5.773   1.097 -0.2807 -0.3237  0.0243
  272MOL0     C37441   8.888   5.839   0.964  0.8949 -0.4573  0.6286
  272MOL0     C37442   8.892   5.763   0.833  1.0524 -0.6286 -0.4665
  272MOL0    Cl37443   9.035   5.659   0.835 -0.0233 -0.1806  0.4402
  272MOL0     C37444   8.484   5.200   1.700  0.6180  0.7684 -0.6752
  272MOL0     C37445   8.382   5.109   1.748 -0.4162  1.0824 -0.0940
  272MOL0     O37446   8.095   4.944   1.514 -0.5172  0.3747  0.0772
  272MOL0     C37447   7.920   4.778   1.610  0.6160 -0.2694 -0.6250
  272MOL0     C37448   7.807   4.709   1.643 -0.4511 -0.2757 -0.1133
  272MOL0     N37449   7.393   4.177   2.054 -0.6121 -0.0510 -0.1233
  272MOL0     N37450   7.389   4.080   2.149 -0.2882 -0.5911 -0.0571
  272MOL0     C37451   8.100   3.290   2.977 -0.4999  0.5084 -0.4575
  272MOL0     C37452   8.220   3.215   3.003 -0.9042  0.6759  0.0879
  272MOL0     C37453   8.665   3.060   2.941 -0.0635  0.5331  0.1877
  272MOL0     C37454   8.768   3.056   2.851  0.6067  0.3013  0.1053
  272MOL0     C37455   8.869   2.952   2.858 -1.9168 -0.5471  0.0565
  272MOL0     C37456   8.859   2.847   2.942  0.7108  0.6459 -0.5337
  272MOL0     O37457   8.950   2.745   2.929  0.5856  0.5755  0.1908
  272MOL0     C37458   8.956   2.619   2.994 -0.3388  0.8838 -0.0121
  272MOL0     C37459   9.060   2.635   3.103 -0.7824  0.2739 -0.1980
  272MOL0     C37460   9.037   2.741   3.215 -0.7614 -0.1329  0.3780
  272MOL0     C37461   9.168   2.742   3.300  0.3399 -0.3858 -0.8252
  272MOL0     C37462   9.173   2.841   3.404 -0.0885  0.3524  0.1592
  272MOL0     C37463   9.147   2.901   3.503 -0.2257 -0.5438 -0.8384
  272MOL0     C37464   8.751   2.844   3.038 -0.5294 -0.2110 -1.0235
  272MOL0     C37465   8.647   2.947   3.029 -0.0141  0.6497 -0.5970
  272MOL0     C37466   8.531   2.922   3.122  0.1914  0.6677  0.8349
  272MOL0     H37467   8.397   3.295   2.722 -1.1971  0.7527 -2.2493
  272MOL0     H37468   8.218   3.436   2.685 -1.4651  0.6278 -0.3910
  272MOL0     H37469   7.945   3.451   2.671 -1.4952  1.6872 -0.3462
  272MOL0     H37470   8.029   3.597   2.724 -1.0691  0.9831  0.8105
  272MOL0     H37471   7.751   3.486   2.761 -0.6113 -0.1579  0.0424
  272MOL0     H37472   7.794   3.617   2.867  0.4481  2.6959 -1.3127
  272MOL0     H37473   7.843   3.773   2.691  0.6637 -0.2293 -0.0795
  272MOL0     H37474   7.815   3.646   2.568  1.7740 -0.2212  1.3050
  272MOL0     H37475   7.600   3.614   2.640  1.0582 -0.3594  1.0683
  272MOL0     H37476   7.598   3.768   2.737 -3.5037 -1.0774 -1.1775
  272MOL0     H37477   7.496   3.772   2.519 -0.3556  0.4003  0.0602
  272MOL0     H37478   7.650   3.764   2.426  0.6453  0.9261 -0.1552
  272MOL0     H37479   7.625   3.965   2.657 -4.0226 -0.1734  0.1287
  272MOL0     H37480   7.751   3.958   2.544  0.5461 -3.4671  1.2031
  272MOL0     H37481   7.629   4.133   2.453  1.0539 -0.4918 -3.7673
  272MOL0     H37482   7.475   4.060   2.497 -1.8901 -2.9928 -1.0251
  272MOL0     H37483   7.657   3.949   2.258 -0.8304 -0.3397  0.4133
  272MOL0     H37484   7.489   3.897   2.307  1.1238 -1.1591  1.4192
  272MOL0     H37485   7.684   4.219   2.202  0.4375 -0.4993 -1.7360
  272MOL0     H37486   7.570   4.316   1.888  1.1500 -0.1591 -1.0225
  272MOL0     H37487   7.667   4.377   2.026 -0.3357  0.7296  0.3873
  272MOL0     H37488   7.408   4.472   2.049 -0.5923  2.6979  0.0018
  272MOL0     H37489   7.558   4.575   2.039  0.9035 -0.9872  0.8600
  272MOL0     H37490   7.402   4.450   1.809 -0.5040  0.0664 -0.5181
  272MOL0     H37491   7.382   4.607   1.867 -1.3975 -0.4950  3.2038
  272MOL0     H37492   7.640   4.480   1.738  1.9841  0.5135  1.6191
  272MOL0     H37493   7.532   4.595   1.665 -1.1758  1.1094  0.4914
  272MOL0     H37494   7.738   4.849   1.933 -1.6259  2.7648 -1.6372
  272MOL0     H37495   7.874   5.017   1.994 -1.9963  1.0805 -1.3573
  272MOL0     H37496   7.962   5.106   1.870  1.3253 -0.3389  1.0195
  272MOL0     H37497   8.041   4.976   1.970  0.8283 -0.2041  0.2331
  272MOL0     H37498   8.132   5.203   1.534 -0.9466 -0.4041  2.2408
  272MOL0     H37499   8.310   5.324   1.435  1.6702  0.5774  0.5889
  272MOL0     H37500   8.535   5.326   1.345 -1.0543 -0.5066  0.6804
  272MOL0     H37501   8.479   5.478   1.394 -1.3949 -1.5753  0.4072
  272MOL0     H37502   8.737   5.531   1.462  0.5755 -0.4847 -0.2704
  272MOL0     H37503   8.773   5.377   1.417  1.2027  0.6075  1.1935
  272MOL0     H37504   8.694   5.446   1.157  0.9883  1.1898 -2.1804
  272MOL0     H37505   8.846   5.507   1.231 -0.0740  2.2618  1.9021
  272MOL0     H37506   8.728   5.707   1.314  0.4313 -0.1670 -1.2261
  272MOL0     H37507   8.581   5.658   1.228  0.2348  0.7477 -1.4075
  272MOL0     H37508   8.693   5.638   1.020 -1.4261  1.6957 -2.0692
  272MOL0     H37509   8.631   5.778   1.092 -1.9314 -3.2293  0.8793
  272MOL0     H37510   8.947   5.711   1.109  0.6537  0.7275 -1.1311
  272MOL0     H37511   8.871   5.855   1.168 -0.2794  0.0528 -0.4035
  272MOL0     H37512   8.978   5.899   0.972  1.2465 -0.8173 -0.5736
  272MOL0     H37513   8.810   5.914   0.945  2.1664  1.0405  1.1276
  272MOL0     H37514   8.896   5.830   0.747  0.1539  2.6432  1.8161
  272MOL0     H37515   8.806   5.697   0.823  1.2184 -1.1782  1.3069
  272MOL0     H37516   8.581   5.203   1.748  0.7068  1.2265 -0.8824
  272MOL0     H37517   8.407   5.032   1.821  1.7305  0.1768 -1.6988
  272MOL0     H37518   7.975   4.754   1.520  0.3996  0.3842 -0.9364
  272MOL0     H37519   7.767   4.631   1.580 -1.6464 -0.6600  1.0730
  272MOL0     H37520   8.028   3.311   3.056  2.4177  3.4621  1.6597
  272MOL0     H37521   8.240   3.167   3.098  2.5502 -1.4436 -1.5477
  272MOL0     H37522   8.781   3.134   2.776 -0.5412  0.3155 -0.0934
  272MOL0     H37523   8.945   2.968   2.783 -2.8948 -3.0013 -1.5908
  272MOL0     H37524   8.855   2.604   3.034  0.0544  3.8963  2.5207
  272MOL0     H37525   8.994   2.541   2.927  2.4827  2.1080  0.0331
  272MOL0     H37526   9.146   2.669   3.045 -1.9134  1.1962 -1.3803
  272MOL0     H37527   9.071   2.534   3.145 -1.8617 -0.2803 -1.1864
  272MOL0     H37528   9.045   2.840   3.168  0.8679  0.8405  2.5228
  272MOL0     H37529   8.940   2.729   3.265 -1.6920  0.3790 -1.2394
  272MOL0     H37530   9.247   2.768   3.229 -1.1062  1.3172 -1.8969
  272MOL0     H37531   9.183   2.640   3.337 -0.6444 -0.2527 -0.0137
  272MOL0     H37532   9.129   2.960   3.591  0.3272 -4.0448  1.8842
  272MOL0     H37533   8.735   2.770   3.115  1.0362 -4.6956 -4.6098
  272MOL0     H37534   8.466   3.003   3.156  0.0092  0.1829  1.6707
  272MOL0     H37535   8.481   2.849   3.059  1.6295  1.1001 -0.8733
  272MOL0     H37536   8.564   2.856   3.203 -0.2071  0.9459  1.2297
  273MOL0     O37537   7.372   8.869   7.471 -0.4557 -0.1249 -0.8254
  273MOL0     C37538   7.272   8.938   7.472  0.0416 -0.3902 -0.0985
  273MOL0     O37539   7.157   8.917   7.545  0.3390  0.0740 -0.0532
  273MOL0     C37540   7.131   8.803   7.609  0.0301  1.1122 -1.2409
  273MOL0     C37541   7.191   8.676   7.583 -0.3914  0.1753  0.2660
  273MOL0     C37542   7.166   8.571   7.672 -0.3981  0.3606  0.4961
  273MOL0     C37543   7.087   8.592   7.782 -0.5735 -0.7973  0.8577
  273MOL0     O37544   7.093   8.484   7.870  0.5100  0.1478  0.3021
  273MOL0     C37545   7.137   8.507   8.008 -0.7768 -0.1712  0.2991
  273MOL0     C37546   7.145   8.376   8.089 -0.8102  0.3112 -0.1268
  273MOL0     C37547   7.021   8.291   8.060 -0.0493 -0.5480  0.8442
  273MOL0     C37548   7.006   8.162   8.133 -0.7491  0.3086  0.4944
  273MOL0     C37549   6.943   8.176   8.272 -0.5370  0.0773  1.0251
  273MOL0     C37550   6.874   8.050   8.309  0.6284  0.1517  0.1782
  273MOL0     C37551   6.817   8.026   8.442  0.1655  0.2121  0.2622
  273MOL0     C37552   6.725   8.144   8.486  1.0343 -0.3065 -0.1564
  273MOL0     N37553   6.681   8.137   8.631  0.2538 -0.7589 -0.2405
  273MOL0     C37554   6.754   8.190   8.735 -0.8522 -0.6734  0.4785
  273MOL0     C37555   6.687   8.155   8.845  0.6000 -0.7530 -0.4923
  273MOL0     C37556   6.718   8.184   8.982 -1.2067  0.1430  0.8310
  273MOL0     C37557   6.806   8.312   9.003  0.7422 -0.4566  0.7300
  273MOL0     C37558   6.879   8.336   9.134 -0.3127  0.4196 -0.9538
  273MOL0     C37559   6.928   8.486   9.153 -0.1127 -0.1761 -0.0174
  273MOL0     O37560   6.818   8.576   9.163  0.0557  0.0329  0.4949
  273MOL0     C37561   6.835   8.708   9.184  0.7477 -0.4007  0.4483
  273MOL0     C37562   6.946   8.784   9.217 -0.8706  0.6672  0.4066
  273MOL0     C37563   6.941   8.924   9.227 -1.0581  0.2020 -0.4627
  273MOL0     C37564   7.079   8.985   9.237  0.3900 -0.4103  0.3368
  273MOL0     C37565   6.824   8.992   9.219 -0.3549  0.3059 -0.3542
  273MOL0     C37566   6.811   9.134   9.244  0.1754  0.6308 -0.1626
  273MOL0     O37567   6.696   9.184   9.199 -0.1795  0.5120 -0.1852
  273MOL0     C37568   6.683   9.319   9.198 -0.1857 -0.4898 -0.0377
  273MOL0     C37569   6.588   9.377   9.285 -0.1031 -0.0536 -0.4476
  273MOL0     C37570   6.580   9.514   9.294 -1.5278  0.0097 -0.8161
  273MOL0     C37571   6.667   9.598   9.220 -0.6912  0.3754 -0.9392
  273MOL0     O37572   6.642   9.731   9.235 -0.3640 -0.0654 -0.2018
  273MOL0     C37573   6.745   9.820   9.189 -0.3681 -0.8471 -0.2130
  273MOL0     C37574   6.710   9.968   9.206 -0.1832 -1.2437 -0.3554
  273MOL0     C37575   6.574  10.024   9.173  0.0521  0.0507  0.4647
  273MOL0     C37576   6.566  10.089   9.032  0.5986  0.3329 -0.1718
  273MOL0     C37577   6.414  10.122   9.010  0.3139  0.1868  0.6877
  273MOL0     C37578   6.384  10.184   8.870  0.4095  0.2065 -0.4042
  273MOL0     C37579   6.478  10.304   8.844  0.1490 -0.9164  1.2603
  273MOL0     C37580   6.415  10.387   8.727  0.6456  0.1508  0.0442
  273MOL0    Cl37581   6.251  10.434   8.775  0.4697 -0.0678  0.3054
  273MOL0     C37582   6.777   9.542   9.151 -0.4516 -1.0133 -0.6535
  273MOL0     C37583   6.781   9.400   9.137  0.6440 -0.4749 -0.0157
  273MOL0     O37584   6.902   9.198   9.296  0.8201 -0.0046 -0.2014
  273MOL0     C37585   6.706   8.916   9.185 -0.1768 -0.1372 -0.9462
  273MOL0     C37586   6.717   8.778   9.169  0.3885  0.2819  0.0365
  273MOL0     N37587   6.565   8.089   8.808 -0.2135  0.0161 -1.4192
  273MOL0     N37588   6.566   8.089   8.686  0.3059  0.2406 -0.5335
  273MOL0     C37589   7.020   8.714   7.806 -0.0856  0.4935 -0.9882
  273MOL0     C37590   7.043   8.815   7.718 -0.2744  0.4470 -0.3645
  273MOL0     C37591   7.274   9.064   7.391  0.2568 -0.4671 -0.1406
  273MOL0     C37592   7.153   9.141   7.381  0.8641  0.3716 -0.6891
  273MOL0     C37593   7.159   9.259   7.308  0.3966 -0.1526  0.7232
  273MOL0     C37594   7.279   9.301   7.238  0.3872  0.1032 -0.3171
  273MOL0     O37595   7.288   9.407   7.160  0.6755 -0.4086  0.4647
  273MOL0     C37596   7.187   9.500   7.155 -0.1165  0.3794  0.6042
  273MOL0     C37597   7.217   9.633   7.094  0.4762 -0.3316  0.0107
  273MOL0     C37598   7.229   9.633   6.938  0.0455 -0.3009  0.2313
  273MOL0     C37599   7.294   9.753   6.868 -0.1811 -0.0178 -0.1203
  273MOL0     C37600   7.222   9.877   6.899 -0.4437 -0.1676 -0.6547
  273MOL0     C37601   7.178   9.980   6.947  0.5938  0.3500 -0.6384
  273MOL0     C37602   7.389   9.219   7.237 -0.0316 -0.9841 -1.0016
  273MOL0     C37603   7.398   9.103   7.317  0.2292  0.2291 -0.2982
  273MOL0     C37604   7.525   9.022   7.313  0.2569 -0.5941 -0.5945
  273MOL0     H37605   7.252   8.657   7.495 -2.8528  1.3852 -1.8350
  273MOL0     H37606   7.209   8.475   7.646  2.3263  1.7043 -0.4345
  273MOL0     H37607   7.056   8.564   8.055 -0.2800  0.8224 -0.0193
  273MOL0     H37608   7.227   8.569   8.002 -0.2108 -1.0191 -0.1715
  273MOL0     H37609   7.240   8.327   8.066 -0.0672  1.2042  0.9415
  273MOL0     H37610   7.139   8.390   8.198  0.4657  0.0922 -0.0057
  273MOL0     H37611   6.934   8.353   8.084  3.6214  5.0018  1.6659
  273MOL0     H37612   7.015   8.267   7.953 -1.9434 -1.5463  1.1312
  273MOL0     H37613   6.944   8.104   8.065 -0.8954 -0.6157  1.3876
  273MOL0     H37614   7.095   8.101   8.149 -0.0077  1.0864 -0.5633
  273MOL0     H37615   6.860   8.247   8.275  0.3230  1.4434 -2.2546
  273MOL0     H37616   7.019   8.203   8.347  0.8972 -4.6139  1.5626
  273MOL0     H37617   6.795   8.042   8.234 -1.2694  1.0022  1.9791
  273MOL0     H37618   6.947   7.970   8.293 -0.0554 -0.1710 -1.5718
  273MOL0     H37619   6.896   8.020   8.518 -0.4980  0.6987  1.0082
  273MOL0     H37620   6.755   7.936   8.443 -1.8243  1.5127 -0.3576
  273MOL0     H37621   6.781   8.238   8.482  0.1963  0.1554 -1.7941
  273MOL0     H37622   6.645   8.150   8.412 -0.3500 -1.4938  1.1904
  273MOL0     H37623   6.848   8.244   8.729 -0.6017 -0.6639  3.1395
  273MOL0     H37624   6.782   8.101   9.013  0.7513  1.3118  0.1073
  273MOL0     H37625   6.635   8.193   9.053 -2.8896 -1.0624 -0.8786
  273MOL0     H37626   6.886   8.319   8.929  0.2414  1.3933  0.3142
  273MOL0     H37627   6.739   8.397   8.985  2.5685  1.0969  0.9356
  273MOL0     H37628   6.818   8.308   9.221  1.7851  1.9276  1.1140
  273MOL0     H37629   6.958   8.261   9.134  0.9221  1.6420  0.9254
  273MOL0     H37630   6.996   8.499   9.238 -1.2783  3.0850  0.5539
  273MOL0     H37631   6.983   8.514   9.062  1.2982  0.7018  1.0702
  273MOL0     H37632   7.044   8.739   9.226  0.2641  2.5975 -1.3046
  273MOL0     H37633   7.084   9.094   9.225 -3.4462  0.2016  2.4569
  273MOL0     H37634   7.144   8.929   9.169 -1.5075 -0.3036 -1.6927
  273MOL0     H37635   7.117   8.966   9.338  3.2439  1.6340 -0.2178
  273MOL0     H37636   6.507   9.332   9.340 -1.2644  1.0456 -1.2048
  273MOL0     H37637   6.500   9.559   9.351 -0.0681 -0.7094  1.9576
  273MOL0     H37638   6.839   9.806   9.244 -0.0834  0.3022 -0.3832
  273MOL0     H37639   6.774   9.816   9.084  0.1522  1.5917 -0.2179
  273MOL0     H37640   6.702   9.976   9.315  2.7209 -2.0779 -0.0162
  273MOL0     H37641   6.787  10.044   9.190 -2.8299  2.4555  2.4518
  273MOL0     H37642   6.545  10.090   9.255  2.8035 -1.3503  2.7340
  273MOL0     H37643   6.507   9.937   9.173 -1.4944  1.1430  2.7586
  273MOL0     H37644   6.585  10.015   8.954 -2.0128  1.3967 -1.9874
  273MOL0     H37645   6.620  10.183   9.020  1.8700 -0.1886  1.2032
  273MOL0     H37646   6.362  10.026   9.017  4.0667 -2.0835  0.3845
  273MOL0     H37647   6.366  10.183   9.087 -0.4548 -0.1267  0.4646
  273MOL0     H37648   6.279  10.215   8.876 -0.7648 -3.4892  0.4834
  273MOL0     H37649   6.394  10.113   8.788  1.5710  3.1455 -3.0215
  273MOL0     H37650   6.573  10.265   8.808 -0.4798 -1.2005 -0.1929
  273MOL0     H37651   6.496  10.366   8.932 -2.2782 -0.4846  1.5203
  273MOL0     H37652   6.399  10.326   8.638 -0.0162  0.8334 -0.3073
  273MOL0     H37653   6.464  10.480   8.697 -0.8228  1.0013  0.1946
  273MOL0     H37654   6.847   9.600   9.092 -2.2681 -0.6056 -2.5509
  273MOL0     H37655   6.864   9.353   9.086 -0.2302 -2.1130  0.0331
  273MOL0     H37656   6.612   8.963   9.158 -0.0061  3.1035  3.1357
  273MOL0     H37657   6.632   8.717   9.141 -1.3897  3.0462 -0.9767
  273MOL0     H37658   6.973   8.731   7.902  3.0773  1.8907  0.4561
  273MOL0     H37659   6.994   8.910   7.736 -2.3769  0.0526 -3.2791
  273MOL0     H37660   7.062   9.107   7.429  2.8254 -2.2788  1.4960
  273MOL0     H37661   7.061   9.303   7.299  0.1599 -1.1832 -3.4726
  273MOL0     H37662   7.101   9.460   7.100  3.4106 -2.1658 -3.6524
  273MOL0     H37663   7.158   9.521   7.259 -4.1165  0.6912 -0.4243
  273MOL0     H37664   7.312   9.672   7.134  0.1326 -1.2422  1.8234
  273MOL0     H37665   7.150   9.710   7.134  0.3361  0.3768 -1.5133
  273MOL0     H37666   7.280   9.539   6.913 -1.7928 -1.5021  0.8082
  273MOL0     H37667   7.131   9.636   6.891  0.8088 -1.2821 -1.5120
  273MOL0     H37668   7.275   9.738   6.762  1.4983 -0.8248 -0.3211
  273MOL0     H37669   7.400   9.767   6.889 -0.3314  0.9314  0.0582
  273MOL0     H37670   7.122  10.052   7.003 -1.9284 -2.0459  0.1800
  273MOL0     H37671   7.475   9.249   7.178 -1.3885  0.5439 -2.3299
  273MOL0     H37672   7.551   9.002   7.417 -1.0795  4.6885  1.0885
  273MOL0     H37673   7.513   8.922   7.271 -0.3969 -0.2003 -1.3673
  273MOL0     H37674   7.599   9.080   7.256 -2.2739  0.9413 -2.5288
  274MOL0     O37675   1.719   7.434   3.741  0.1807 -0.1426 -0.0004
  274MOL0     C37676   1.821   7.366   3.741 -0.2902 -0.9339 -0.1322
  274MOL0     O37677   1.936   7.399   3.684  0.7568  0.6624 -0.6725
  274MOL0     C37678   1.945   7.508   3.606  1.1376 -0.5268  0.1492
  274MOL0     C37679   1.908   7.641   3.651  0.4572 -0.9664  0.3257
  274MOL0     C37680   1.935   7.749   3.573 -0.5066 -1.3957 -0.1621
  274MOL0     C37681   1.999   7.742   3.448 -0.1607 -0.3272 -0.0862
  274MOL0     O37682   2.022   7.859   3.381 -0.0122 -0.0978 -0.2329
  274MOL0     C37683   2.132   7.848   3.285  0.0852  0.2175 -0.1187
  274MOL0     C37684   2.173   7.986   3.228  0.4968  0.3570 -0.0257
  274MOL0     C37685   2.070   8.025   3.114  0.2676  0.1228 -1.0155
  274MOL0     C37686   2.124   8.150   3.045 -0.6174  0.3365 -0.2166
  274MOL0     C37687   2.020   8.170   2.932 -0.6605 -0.4615  0.7419
  274MOL0     C37688   2.058   8.286   2.838  0.1112 -0.4157 -0.1550
  274MOL0     C37689   1.933   8.328   2.756 -0.6642  0.7036 -0.1155
  274MOL0     C37690   1.976   8.452   2.665 -0.2327  0.8427 -0.2059
  274MOL0     N37691   2.060   8.400   2.554  0.6451  0.0021  0.1994
  274MOL0     C37692   2.163   8.474   2.505 -0.4851 -0.5265  0.1221
  274MOL0     C37693   2.185   8.448   2.374  0.2375 -0.0896 -0.1193
  274MOL0     C37694   2.290   8.504   2.282  0.4903 -0.6279  0.0823
  274MOL0     C37695   2.225   8.601   2.184 -0.3128 -0.0971 -0.1373
  274MOL0     C37696   2.184   8.538   2.049 -0.8825 -0.5800  0.2988
  274MOL0     C37697   2.036   8.558   2.029  1.2109 -0.2789 -0.4657
  274MOL0     O37698   1.992   8.515   1.901 -0.4274 -0.5117  0.5335
  274MOL0     C37699   2.004   8.385   1.853 -0.1349  0.1494 -0.2157
  274MOL0     C37700   2.027   8.265   1.925 -0.3001 -1.1947  0.2208
  274MOL0     C37701   2.033   8.140   1.873 -0.2119  0.8474  1.0711
  274MOL0     C37702   2.039   8.017   1.959 -0.0294 -0.1179  0.4602
  274MOL0     C37703   2.034   8.128   1.731  0.2634  0.1626  0.6738
  274MOL0     C37704   2.069   8.005   1.652  0.4372  0.2478  0.6720
  274MOL0     O37705   2.089   8.019   1.515  0.2966  0.3158 -0.0936
  274MOL0     C37706   2.091   7.899   1.445  0.9530 -0.4452 -0.6243
  274MOL0     C37707   1.964   7.834   1.407 -0.0703  0.1664  0.2426
  274MOL0     C37708   1.965   7.720   1.320 -0.1797  0.4350 -0.0263
  274MOL0     C37709   2.081   7.670   1.263  0.2288  0.9684  0.2344
  274MOL0     O37710   2.083   7.565   1.181 -0.5330  0.1738 -0.4127
  274MOL0     C37711   2.166   7.575   1.060 -0.6553  0.9377 -0.3773
  274MOL0     C37712   2.080   7.649   0.964  0.4451 -0.2323  0.3771
  274MOL0     C37713   1.979   7.568   0.893 -0.0318 -0.1091 -0.5915
  274MOL0     C37714   1.900   7.464   0.980 -0.1390 -0.3377  0.2429
  274MOL0     C37715   1.801   7.383   0.894 -0.5944 -0.1399  0.3323
  274MOL0     C37716   1.727   7.297   0.991  0.2980  0.2823 -0.4990
  274MOL0     C37717   1.639   7.185   0.929 -0.4788 -0.2630  0.8021
  274MOL0     C37718   1.634   7.063   1.025 -1.0912 -0.3217  0.0969
  274MOL0    Cl37719   1.790   6.975   1.010  0.1459 -0.0358 -0.4120
  274MOL0     C37720   2.198   7.746   1.293 -0.2880  0.6580 -0.3870
  274MOL0     C37721   2.204   7.856   1.378 -0.5429 -0.1843  0.0612
  274MOL0     O37722   2.076   7.895   1.713 -0.0833  0.6978  0.0106
  274MOL0     C37723   2.013   8.243   1.651  0.5754  0.7226 -0.1265
  274MOL0     C37724   1.992   8.365   1.716  0.5266 -0.9371  0.0394
  274MOL0     N37725   2.085   8.363   2.345  0.1759  0.3940 -0.7321
  274MOL0     N37726   2.015   8.329   2.447 -0.4982 -0.4948  0.6467
  274MOL0     C37727   2.024   7.610   3.397  0.2580 -0.8589 -0.6129
  274MOL0     C37728   1.995   7.495   3.476 -0.4317  0.2619  0.0721
  274MOL0     C37729   1.810   7.226   3.783  0.8280  0.7811  0.3557
  274MOL0     C37730   1.920   7.136   3.762 -0.2530  0.0740 -0.7091
  274MOL0     C37731   1.919   7.000   3.807  0.7171  0.1082  0.2135
  274MOL0     C37732   1.806   6.946   3.865  1.3923  1.6164 -0.0790
  274MOL0     O37733   1.802   6.810   3.894  0.2087 -0.2018 -0.8102
  274MOL0     C37734   1.679   6.736   3.893 -0.4001  0.3936 -1.1539
  274MOL0     C37735   1.648   6.692   4.039  0.0106  0.5676 -0.0420
  274MOL0     C37736   1.765   6.598   4.085  0.8149 -0.2019  0.0727
  274MOL0     C37737   1.740   6.522   4.218 -0.0706  0.5959 -0.3652
  274MOL0     C37738   1.851   6.425   4.249  0.3643 -0.7480 -0.4983
  274MOL0     C37739   1.940   6.344   4.283  0.6611 -0.7483 -0.3101
  274MOL0     C37740   1.692   7.036   3.887  0.5136  0.1680  0.2385
  274MOL0     C37741   1.695   7.175   3.844  0.3262  1.5042  0.2228
  274MOL0     C37742   1.560   7.244   3.855  0.0612 -0.8214  0.0569
  274MOL0     H37743   1.869   7.653   3.751 -1.0594 -3.6328  0.1507
  274MOL0     H37744   1.908   7.849   3.605  1.9013 -0.6955 -0.1503
  274MOL0     H37745   2.104   7.793   3.195  1.1097  0.2316 -0.4559
  274MOL0     H37746   2.219   7.801   3.333 -1.6017 -1.8252  1.1381
  274MOL0     H37747   2.166   8.058   3.309 -1.6592 -0.0823  0.2403
  274MOL0     H37748   2.275   7.997   3.191  1.1639  1.2791  1.9584
  274MOL0     H37749   2.066   7.939   3.047 -1.2919 -1.4814  0.9965
  274MOL0     H37750   1.965   8.030   3.146  0.6608 -2.1316  0.9095
  274MOL0     H37751   2.139   8.241   3.103  1.9624 -0.2174  0.0963
  274MOL0     H37752   2.222   8.131   3.000  1.0995  1.1436  2.9010
  274MOL0     H37753   1.931   8.202   2.986 -1.1800 -3.8584  2.1382
  274MOL0     H37754   2.005   8.080   2.872 -0.6412  1.2170 -1.9293
  274MOL0     H37755   2.089   8.366   2.905 -0.3033 -0.2732 -0.1289
  274MOL0     H37756   2.148   8.259   2.783  0.2018 -2.7820  0.9949
  274MOL0     H37757   1.862   8.372   2.827 -0.9808 -0.4311  0.2797
  274MOL0     H37758   1.886   8.246   2.702  1.3698 -2.3409  2.3723
  274MOL0     H37759   1.882   8.497   2.633 -1.1142 -1.0458 -0.3976
  274MOL0     H37760   2.038   8.519   2.726  1.6450  0.7449 -1.9148
  274MOL0     H37761   2.227   8.548   2.553  0.2567 -1.5698  0.7907
  274MOL0     H37762   2.343   8.424   2.228 -0.1981 -0.6523 -0.5694
  274MOL0     H37763   2.356   8.569   2.340 -0.6324  1.1440 -0.5526
  274MOL0     H37764   2.133   8.642   2.229  0.5435  0.3649  1.2388
  274MOL0     H37765   2.295   8.683   2.168 -0.8153  1.1689  3.3492
  274MOL0     H37766   2.238   8.589   1.969  0.1616 -1.3302  0.5043
  274MOL0     H37767   2.214   8.433   2.051  0.4743 -0.2421  3.2560
  274MOL0     H37768   1.966   8.517   2.102  0.6665  0.2480 -0.6803
  274MOL0     H37769   2.021   8.667   2.030  4.1296  0.2725 -2.9889
  274MOL0     H37770   2.042   8.275   2.033 -2.6068 -1.4985  0.6212
  274MOL0     H37771   2.140   7.975   1.958  0.3438  0.7095  1.4008
  274MOL0     H37772   1.961   7.950   1.922 -1.1165 -0.7562  3.5938
  274MOL0     H37773   2.013   8.036   2.064  0.6276  0.4360  0.5327
  274MOL0     H37774   1.877   7.871   1.460  0.6103  2.4674 -0.1278
  274MOL0     H37775   1.867   7.677   1.300  0.9948 -2.6850  0.3795
  274MOL0     H37776   2.268   7.602   1.089 -1.2644 -1.1585  5.0190
  274MOL0     H37777   2.179   7.476   1.016  1.1808  1.3063 -0.7453
  274MOL0     H37778   2.030   7.726   1.023  4.5278 -0.2681  4.4788
  274MOL0     H37779   2.146   7.710   0.901 -2.1585  2.7984  0.3585
  274MOL0     H37780   2.016   7.517   0.804  0.3872 -0.6778 -0.0978
  274MOL0     H37781   1.915   7.643   0.845  2.7029 -0.0810 -4.7312
  274MOL0     H37782   1.853   7.510   1.067 -2.7094 -5.2250  1.8050
  274MOL0     H37783   1.976   7.393   1.013  2.9484  2.1027 -1.0390
  274MOL0     H37784   1.733   7.449   0.839  0.1668 -0.1591 -0.6715
  274MOL0     H37785   1.848   7.313   0.824  1.6508  0.9966  0.5831
  274MOL0     H37786   1.651   7.356   1.043  1.9861  0.7863  1.5607
  274MOL0     H37787   1.802   7.255   1.060  0.3485  0.5661 -0.3776
  274MOL0     H37788   1.677   7.156   0.831 -1.3185  1.9440 -0.2399
  274MOL0     H37789   1.543   7.232   0.906  1.7076  3.0597 -2.8390
  274MOL0     H37790   1.555   6.995   0.992  0.9768 -2.2228 -1.3234
  274MOL0     H37791   1.614   7.093   1.128 -2.5488 -0.4916 -0.1220
  274MOL0     H37792   2.300   7.730   1.259 -1.6040 -0.2336 -4.5382
  274MOL0     H37793   2.293   7.916   1.398 -1.6203  1.8523 -0.8791
  274MOL0     H37794   2.001   8.226   1.544  0.9138  0.9048 -0.1955
  274MOL0     H37795   1.968   8.465   1.681 -1.5333 -0.8568  1.4940
  274MOL0     H37796   2.043   7.589   3.292 -1.2624  0.7288 -1.2659
  274MOL0     H37797   2.010   7.395   3.437  2.1383 -0.0192  1.5756
  274MOL0     H37798   2.014   7.169   3.717  0.4633  2.0281  1.9361
  274MOL0     H37799   2.001   6.935   3.778  0.7629 -1.8173  3.9719
  274MOL0     H37800   1.597   6.800   3.858 -3.1103 -1.7175  0.8603
  274MOL0     H37801   1.686   6.640   3.841 -0.7710 -1.9174  2.6527
  274MOL0     H37802   1.562   6.625   4.050  1.0955 -0.4821  3.2149
  274MOL0     H37803   1.641   6.779   4.104  2.5324  0.3777  0.6064
  274MOL0     H37804   1.774   6.515   4.014  2.8768 -0.7652  0.9204
  274MOL0     H37805   1.854   6.660   4.085  0.8177 -0.1826 -1.1073
  274MOL0     H37806   1.645   6.468   4.213  0.1317  0.0502  1.1572
  274MOL0     H37807   1.734   6.588   4.305 -1.1708 -0.1668  0.1667
  274MOL0     H37808   2.018   6.273   4.299  2.6216  1.3130 -0.1809
  274MOL0     H37809   1.608   6.982   3.929  2.8125 -2.7696  1.4732
  274MOL0     H37810   1.520   7.297   3.769  0.2096 -1.4965 -0.4395
  274MOL0     H37811   1.485   7.172   3.889  1.1896 -2.2009 -0.2705
  274MOL0     H37812   1.566   7.321   3.933 -1.9968  0.2560 -0.7713
  275MOL0     O37813  11.297  11.505   4.581  0.8130 -0.3631 -0.1590
  275MOL0     C37814  11.277  11.495   4.704  1.0215  0.5939  0.3601
  275MOL0     O37815  11.368  11.441   4.789  0.1549 -0.3126 -1.0268
  275MOL0     C37816  11.481  11.387   4.745  0.6787  0.2578 -0.0928
  275MOL0     C37817  11.576  11.463   4.675 -1.1093 -0.0119 -0.9141
  275MOL0     C37818  11.690  11.396   4.625  0.7241  0.1904 -0.5106
  275MOL0     C37819  11.722  11.273   4.657 -0.5724 -0.0252 -0.0052
  275MOL0     O37820  11.840  11.226   4.601 -0.3735 -0.4616 -0.4273
  275MOL0     C37821  11.927  11.150   4.679 -0.3064 -0.4249  0.0652
  275MOL0     C37822  12.030  11.082   4.585 -0.2268 -0.5726 -0.3256
  275MOL0     C37823  12.130  11.000   4.674  0.5701  0.1473 -0.8711
  275MOL0     C37824  12.241  10.929   4.583  0.4933 -0.6672 -0.3152
  275MOL0     C37825  12.322  10.818   4.663 -0.2170  0.1773 -0.5447
  275MOL0     C37826  12.387  10.866   4.798  0.1738 -0.6384  0.0137
  275MOL0     C37827  12.438  10.745   4.880  0.5727  0.5493  0.7855
  275MOL0     C37828  12.506  10.795   5.004  0.7023  0.3935 -0.0248
  275MOL0     N37829  12.404  10.859   5.091 -0.8520  0.1567 -0.6113
  275MOL0     C37830  12.407  10.995   5.118 -0.6960 -0.6818  0.0018
  275MOL0     C37831  12.286  11.010   5.185 -0.4980 -0.1029 -0.2480
  275MOL0     C37832  12.230  11.145   5.217  0.9888 -0.5052  0.1500
  275MOL0     C37833  12.108  11.179   5.134 -0.1694 -1.0409 -0.2717
  275MOL0     C37834  11.993  11.076   5.107 -0.3552 -0.1808 -0.3760
  275MOL0     C37835  11.899  11.085   5.221  0.0562 -0.8853  0.2318
  275MOL0     O37836  11.797  10.999   5.196  0.4184  0.5381 -0.4415
  275MOL0     C37837  11.676  11.039   5.226  0.4349 -0.2089 -0.1931
  275MOL0     C37838  11.621  10.981   5.334 -0.9166 -0.8678 -0.2709
  275MOL0     C37839  11.501  11.009   5.390 -0.0917  0.9285  0.0233
  275MOL0     C37840  11.450  10.914   5.495  0.3214  0.2820 -0.1748
  275MOL0     C37841  11.419  11.101   5.326 -0.6093 -0.3842  0.4058
  275MOL0     C37842  11.284  11.130   5.365 -0.3996 -0.6047  0.2587
  275MOL0     O37843  11.256  11.128   5.497 -0.5138  0.0070  0.2026
  275MOL0     C37844  11.133  11.132   5.547  1.1515  0.1667  0.2013
  275MOL0     C37845  11.091  11.204   5.660 -1.3688  0.3872 -0.2078
  275MOL0     C37846  10.962  11.193   5.718 -0.1585  0.5166  0.3841
  275MOL0     C37847  10.869  11.110   5.661 -0.1137  0.2196 -0.0339
  275MOL0     O37848  10.742  11.093   5.715 -0.0722  0.3113  0.5202
  275MOL0     C37849  10.732  11.099   5.857 -0.3210 -0.0522  0.2090
  275MOL0     C37850  10.590  11.087   5.907  0.1669 -0.1903  0.5820
  275MOL0     C37851  10.591  11.078   6.061 -0.6397 -0.4288  0.0588
  275MOL0     C37852  10.452  11.059   6.116 -0.0157  0.5112 -0.3029
  275MOL0     C37853  10.425  11.112   6.265 -0.2824 -0.2240 -0.4661
  275MOL0     C37854  10.302  11.062   6.335 -0.4102  0.1206 -0.7933
  275MOL0     C37855  10.316  10.909   6.366 -0.0849  0.2388  0.4984
  275MOL0     C37856  10.256  10.875   6.500 -0.2004  0.4211  0.1505
  275MOL0    Cl37857  10.073  10.901   6.492  0.7165 -0.0552 -0.3962
  275MOL0     C37858  10.907  11.032   5.549  0.4633  0.8576 -0.2225
  275MOL0     C37859  11.042  11.039   5.495  0.3285 -0.3427  0.4907
  275MOL0     O37860  11.207  11.141   5.264  0.3682  0.0584  0.0809
  275MOL0     C37861  11.471  11.168   5.212 -0.4565  0.4113  0.0419
  275MOL0     C37862  11.600  11.140   5.164 -0.3768 -0.3143 -0.7685
  275MOL0     N37863  12.230  10.886   5.207 -0.8859 -0.0057 -1.0420
  275MOL0     N37864  12.296  10.796   5.149  0.8568  0.0129 -0.5587
  275MOL0     C37865  11.631  11.195   4.735  0.8522  0.2114  0.8935
  275MOL0     C37866  11.514  11.254   4.783  0.0862 -0.1099  0.2431
  275MOL0     C37867  11.150  11.552   4.747 -0.5873  0.3347  0.7528
  275MOL0     C37868  11.090  11.654   4.662 -0.1815 -0.8015 -1.1070
  275MOL0     C37869  10.977  11.726   4.718 -0.0218  0.4412  1.0408
  275MOL0     C37870  10.927  11.693   4.844  0.0523  0.4649 -0.2272
  275MOL0     O37871  10.812  11.760   4.877 -0.1498 -0.2882  0.1631
  275MOL0     C37872  10.719  11.727   4.982 -0.2979  0.7751  0.5048
  275MOL0     C37873  10.627  11.843   5.004 -0.6578  0.6285  0.2448
  275MOL0     C37874  10.513  11.853   4.899 -0.3441 -0.5335  0.1321
  275MOL0     C37875  10.486  11.997   4.861 -0.4373 -0.2005 -1.0274
  275MOL0     C37876  10.442  12.091   4.972  0.4070 -0.6885 -0.3327
  275MOL0     C37877  10.420  12.165   5.064  0.5981  0.0467 -0.8170
  275MOL0     C37878  10.983  11.594   4.912 -0.4336 -0.3344  0.5675
  275MOL0     C37879  11.093  11.517   4.866  0.8032  0.6543  0.0643
  275MOL0     C37880  11.138  11.402   4.956 -0.2741  0.2043  0.7988
  275MOL0     H37881  11.547  11.566   4.656 -1.4574 -0.5306 -3.5775
  275MOL0     H37882  11.751  11.464   4.566  0.2976 -0.5246 -1.8005
  275MOL0     H37883  11.876  11.070   4.734  0.1654  0.2055  1.4434
  275MOL0     H37884  11.981  11.208   4.754 -0.0544 -0.4536 -0.0913
  275MOL0     H37885  11.971  11.016   4.521  0.0982 -1.4767  0.2907
  275MOL0     H37886  12.087  11.152   4.523  0.1240 -1.0619 -0.5619
  275MOL0     H37887  12.185  11.057   4.750  1.4229  0.4249 -1.6643
  275MOL0     H37888  12.073  10.921   4.722  3.4902 -0.8065  1.3204
  275MOL0     H37889  12.202  10.875   4.496 -1.3848 -0.1407  0.1527
  275MOL0     H37890  12.301  11.007   4.535 -1.3458  2.8414  2.5713
  275MOL0     H37891  12.402  10.776   4.601  0.3670  1.5804 -0.7848
  275MOL0     H37892  12.245  10.744   4.687 -0.8789  1.1231  0.3442
  275MOL0     H37893  12.469  10.937   4.790  1.1551 -1.7119  0.2046
  275MOL0     H37894  12.309  10.913   4.859  0.9411 -0.9650  1.3085
  275MOL0     H37895  12.522  10.702   4.825 -0.4995  0.9822 -1.2826
  275MOL0     H37896  12.360  10.669   4.887  1.6140 -0.9147 -2.0422
  275MOL0     H37897  12.544  10.715   5.069 -0.8017 -0.5886 -0.3220
  275MOL0     H37898  12.584  10.869   4.986  1.0076 -0.6792 -3.9069
  275MOL0     H37899  12.475  11.075   5.090 -0.5714  0.1186  2.3650
  275MOL0     H37900  12.305  11.219   5.190 -0.5367  0.1493 -2.6394
  275MOL0     H37901  12.204  11.155   5.323  1.2252 -2.7891  0.4850
  275MOL0     H37902  12.063  11.267   5.181  0.0244 -1.6062  1.0132
  275MOL0     H37903  12.151  11.198   5.036  2.1350 -5.6446 -0.4163
  275MOL0     H37904  11.942  11.101   5.013 -0.8570 -0.5368 -0.2081
  275MOL0     H37905  12.021  10.971   5.092  0.7998  0.4443 -3.2962
  275MOL0     H37906  11.932  11.049   5.319 -1.2773 -0.0198  1.0335
  275MOL0     H37907  11.864  11.188   5.232 -0.4097 -0.8546 -1.2910
  275MOL0     H37908  11.674  10.901   5.386  0.7126  2.0842  3.0449
  275MOL0     H37909  11.505  10.819   5.495  4.2900  2.3228 -2.5601
  275MOL0     H37910  11.347  10.878   5.484  0.5387  0.1495 -2.1285
  275MOL0     H37911  11.464  10.952   5.597 -0.1115  0.9931 -0.3779
  275MOL0     H37912  11.153  11.278   5.711  0.1403 -0.4703 -0.7119
  275MOL0     H37913  10.949  11.265   5.798 -4.3713  2.1294 -1.5048
  275MOL0     H37914  10.796  11.019   5.897 -1.0473 -0.7033  0.0997
  275MOL0     H37915  10.776  11.190   5.898  2.6881 -2.3555  2.6569
  275MOL0     H37916  10.534  11.171   5.864  2.2061  0.2547 -1.4072
  275MOL0     H37917  10.540  10.999   5.865 -0.0911 -0.5509  1.6310
  275MOL0     H37918  10.640  11.166   6.105 -2.8634  1.1657 -0.5058
  275MOL0     H37919  10.648  10.988   6.085  0.3256  0.4737  1.3179
  275MOL0     H37920  10.426  10.953   6.108 -0.5372  0.3099  2.9492
  275MOL0     H37921  10.386  11.109   6.045  2.3285  1.8249 -1.6900
  275MOL0     H37922  10.503  11.087   6.336 -0.0392  5.6986  1.9308
  275MOL0     H37923  10.416  11.221   6.266  0.9570 -0.1129  0.5746
  275MOL0     H37924  10.218  11.074   6.267  0.3739 -0.0477 -1.8151
  275MOL0     H37925  10.280  11.116   6.428  0.3895  1.8571 -1.5592
  275MOL0     H37926  10.421  10.883   6.350 -0.5818 -0.2971 -2.5030
  275MOL0     H37927  10.256  10.847   6.299  2.1328 -3.5957  1.7320
  275MOL0     H37928  10.299  10.930   6.584 -0.3729  0.3352  0.2980
  275MOL0     H37929  10.255  10.768   6.523 -0.7281  0.5557  0.7692
  275MOL0     H37930  10.835  10.961   5.510  1.6988  0.6235 -2.2149
  275MOL0     H37931  11.074  10.972   5.416 -2.3709  0.6931 -1.6513
  275MOL0     H37932  11.418  11.249   5.163  1.7146  1.9361  0.0566
  275MOL0     H37933  11.633  11.205   5.083  0.7872  0.6195  0.4188
  275MOL0     H37934  11.656  11.091   4.752 -0.5823 -0.6533 -1.7198
  275MOL0     H37935  11.443  11.198   4.844 -3.4924 -0.0353 -3.3840
  275MOL0     H37936  11.129  11.661   4.562 -0.2309 -3.8169 -1.4327
  275MOL0     H37937  10.910  11.792   4.665  0.0127  0.3270  0.8517
  275MOL0     H37938  10.676  11.631   4.953  3.9686 -0.2787 -3.2923
  275MOL0     H37939  10.770  11.706   5.076  0.0526  1.7599  0.5471
  275MOL0     H37940  10.675  11.939   5.020 -0.2017  0.8811 -2.2793
  275MOL0     H37941  10.569  11.819   5.094 -0.7486 -2.2722 -0.4627
  275MOL0     H37942  10.545  11.803   4.807 -0.1811 -0.7155  0.2866
  275MOL0     H37943  10.424  11.803   4.939  0.6131 -2.6495 -0.2675
  275MOL0     H37944  10.399  11.993   4.794 -1.3781  1.0362  0.0659
  275MOL0     H37945  10.577  12.043   4.822  0.3223  0.6017  1.4999
  275MOL0     H37946  10.387  12.218   5.150  3.3998  0.7769 -0.0888
  275MOL0     H37947  10.927  11.581   5.004 -2.2213  0.0426 -0.4213
  275MOL0     H37948  11.235  11.426   5.000  1.9035 -3.3188 -1.6565
  275MOL0     H37949  11.061  11.386   5.033 -1.9949 -1.6940 -1.2085
  275MOL0     H37950  11.145  11.303   4.911  3.5702 -0.7482  3.0463
  276MOL0     O37951   6.631   6.576   3.353 -0.3064  0.1142  0.5673
  276MOL0     C37952   6.670   6.574   3.469  0.4525 -0.2995  0.1756
  276MOL0     O37953   6.648   6.477   3.556  0.2054 -0.4038  0.6483
  276MOL0     C37954   6.569   6.376   3.526  1.0798  0.0368 -0.6238
  276MOL0     C37955   6.459   6.364   3.438 -0.2862 -0.0514 -0.4129
  276MOL0     C37956   6.379   6.257   3.426 -0.8440  1.0196  0.4984
  276MOL0     C37957   6.405   6.148   3.506  0.7001 -0.3081 -0.8215
  276MOL0     O37958   6.322   6.040   3.506  0.5176 -0.0743  0.0806
  276MOL0     C37959   6.304   5.943   3.615  0.4008  0.3688  0.2919
  276MOL0     C37960   6.156   5.898   3.615 -0.9399 -0.2220  0.0286
  276MOL0     C37961   6.082   5.881   3.483 -0.7852 -0.0519  0.7744
  276MOL0     C37962   5.944   5.814   3.506 -0.1299  0.0749  0.2771
  276MOL0     C37963   5.830   5.906   3.460  0.9407 -0.1302  0.2374
  276MOL0     C37964   5.708   5.819   3.441 -0.0015 -0.1932 -0.2367
  276MOL0     C37965   5.635   5.770   3.563  0.1713 -0.0797  0.6847
  276MOL0     C37966   5.599   5.871   3.660  0.0604  0.2220 -1.2056
  276MOL0     N37967   5.479   5.829   3.740 -0.2954  1.0641  0.1487
  276MOL0     C37968   5.351   5.815   3.697  0.0509 -0.0741  0.1914
  276MOL0     C37969   5.275   5.803   3.808 -0.4799 -0.3514  0.5559
  276MOL0     C37970   5.124   5.801   3.811  0.2699  0.1265 -0.8926
  276MOL0     C37971   5.062   5.931   3.850 -0.0407 -0.3229 -0.8080
  276MOL0     C37972   4.911   5.930   3.844  0.6365 -0.2050  0.7014
  276MOL0     C37973   4.864   6.071   3.862  0.4287  0.4899  1.0235
  276MOL0     O37974   4.722   6.086   3.841  0.4732  0.1761  0.0483
  276MOL0     C37975   4.695   6.209   3.788 -0.4328 -0.0773 -0.3216
  276MOL0     C37976   4.701   6.317   3.878  0.7319  0.9989 -0.1383
  276MOL0     C37977   4.686   6.450   3.839  0.3773 -0.6417 -0.4089
  276MOL0     C37978   4.690   6.562   3.949  0.2616  0.7944  0.0978
  276MOL0     C37979   4.684   6.475   3.695 -0.4022  0.9346 -0.4028
  276MOL0     C37980   4.668   6.611   3.630  0.9045 -0.0771  0.8479
  276MOL0     O37981   4.613   6.705   3.712  0.5237 -0.5183 -0.2722
  276MOL0     C37982   4.569   6.826   3.664  1.1385  0.2418 -0.0640
  276MOL0     C37983   4.436   6.871   3.695 -0.0997  0.1338  0.8296
  276MOL0     C37984   4.383   6.992   3.653  0.1736 -0.4170 -0.5092
  276MOL0     C37985   4.459   7.069   3.562  0.6676 -0.0598  0.5898
  276MOL0     O37986   4.406   7.189   3.514 -0.7354  0.2814  0.4133
  276MOL0     C37987   4.421   7.231   3.380  0.6152 -0.5517  0.0262
  276MOL0     C37988   4.338   7.354   3.336 -0.8832 -0.6326  1.2644
  276MOL0     C37989   4.377   7.476   3.413 -0.7834 -0.7082 -1.4868
  276MOL0     C37990   4.293   7.608   3.378 -0.1012 -0.0977 -0.0231
  276MOL0     C37991   4.306   7.721   3.494  1.0422  0.6315 -0.0850
  276MOL0     C37992   4.200   7.833   3.461 -0.0097  0.4085 -0.2225
  276MOL0     C37993   4.245   7.966   3.526  0.4313 -0.3150  0.1876
  276MOL0     C37994   4.144   8.071   3.474  0.7367  0.8413 -0.2674
  276MOL0    Cl37995   3.982   8.022   3.529  0.8407 -0.1910 -0.0198
  276MOL0     C37996   4.589   7.023   3.526  0.4432 -0.0316 -0.8777
  276MOL0     C37997   4.642   6.905   3.579 -0.2516  0.3737 -1.0794
  276MOL0     O37998   4.703   6.618   3.513  0.0002  0.4936 -0.3240
  276MOL0     C37999   4.663   6.361   3.615 -0.3256 -0.8047  0.1555
  276MOL0     C38000   4.667   6.232   3.652 -0.3453  0.6568 -0.1631
  276MOL0     N38001   5.350   5.809   3.917  0.1603 -0.7629 -0.7132
  276MOL0     N38002   5.472   5.809   3.875 -1.1303 -0.0420 -0.3858
  276MOL0     C38003   6.524   6.147   3.591  0.4436  1.0389 -0.0827
  276MOL0     C38004   6.604   6.263   3.598 -0.0785 -0.1688  0.8391
  276MOL0     C38005   6.753   6.690   3.511 -0.1983 -0.6004  0.2790
  276MOL0     C38006   6.885   6.678   3.541  0.6465  0.1504  0.3167
  276MOL0     C38007   6.969   6.776   3.598 -0.2033  0.8798  0.5626
  276MOL0     C38008   6.910   6.903   3.600 -0.5410 -0.7985 -0.8807
  276MOL0     O38009   6.974   7.012   3.657  0.1507 -0.0770 -0.1589
  276MOL0     C38010   7.116   7.020   3.667  0.5989 -0.3800 -0.5463
  276MOL0     C38011   7.172   6.953   3.799  0.0569  0.0242  0.5606
  276MOL0     C38012   7.334   6.945   3.823  0.3917  0.2596 -0.7726
  276MOL0     C38013   7.355   6.933   3.983 -0.1529 -0.5341  0.7815
  276MOL0     C38014   7.337   6.798   4.030  0.3263  0.7744 -1.0232
  276MOL0     C38015   7.319   6.692   4.082 -0.1909  0.1619  1.3224
  276MOL0     C38016   6.777   6.930   3.568 -0.7268 -0.1750 -0.0704
  276MOL0     C38017   6.699   6.819   3.521 -0.1672 -0.1759  0.0839
  276MOL0     C38018   6.554   6.846   3.476  0.1357  0.4748  0.5412
  276MOL0     H38019   6.432   6.440   3.365 -1.7858 -0.4875 -0.3485
  276MOL0     H38020   6.296   6.268   3.356 -0.0107  2.1688 -0.3457
  276MOL0     H38021   6.333   5.984   3.712  3.8369 -0.0980 -0.4072
  276MOL0     H38022   6.379   5.869   3.585  0.2089 -0.2771  1.3745
  276MOL0     H38023   6.137   5.807   3.672 -2.0971  0.6354  1.0610
  276MOL0     H38024   6.097   5.977   3.663 -0.8265 -0.1516  0.0533
  276MOL0     H38025   6.074   5.984   3.448  1.9118 -0.7632 -2.4877
  276MOL0     H38026   6.134   5.824   3.406 -0.4451  0.3017  0.7340
  276MOL0     H38027   5.964   5.727   3.444 -0.5861  1.0258 -1.2457
  276MOL0     H38028   5.921   5.786   3.609 -0.5914 -0.6794 -0.0295
  276MOL0     H38029   5.851   5.953   3.364 -3.8524 -1.9473 -2.0423
  276MOL0     H38030   5.813   5.989   3.529  2.1045  0.3126  0.0100
  276MOL0     H38031   5.639   5.873   3.376 -1.6483 -1.3363  0.4678
  276MOL0     H38032   5.732   5.727   3.386  1.1433  0.9846 -1.7711
  276MOL0     H38033   5.692   5.691   3.613  1.0008  0.7745  1.1119
  276MOL0     H38034   5.540   5.736   3.519 -0.3554  0.6333  1.2466
  276MOL0     H38035   5.676   5.896   3.734 -0.3506 -0.4801 -0.5271
  276MOL0     H38036   5.582   5.966   3.608  2.8543  1.3876 -0.2092
  276MOL0     H38037   5.313   5.814   3.595 -1.7137 -2.5037  0.7620
  276MOL0     H38038   5.094   5.722   3.880  2.3444 -2.8725 -3.1612
  276MOL0     H38039   5.098   5.769   3.710  1.5406 -1.2438 -0.8203
  276MOL0     H38040   5.097   5.965   3.948  1.9917  0.4048 -1.7185
  276MOL0     H38041   5.107   6.000   3.777 -2.7935  1.0787 -1.3062
  276MOL0     H38042   4.886   5.898   3.742  4.2878  2.8153 -1.4429
  276MOL0     H38043   4.873   5.857   3.916  3.3762 -2.2293  0.2635
  276MOL0     H38044   4.895   6.117   3.956  0.5205  3.4654 -0.3610
  276MOL0     H38045   4.915   6.133   3.787 -0.0282 -1.2422 -0.8180
  276MOL0     H38046   4.705   6.290   3.983 -0.6289  1.6701  0.1000
  276MOL0     H38047   4.701   6.517   4.048 -0.3237  2.5813  1.0217
  276MOL0     H38048   4.597   6.620   3.948  0.3009  0.9269 -2.6412
  276MOL0     H38049   4.776   6.628   3.939  0.0921  0.7879 -1.5467
  276MOL0     H38050   4.383   6.798   3.756  0.1074 -1.7421 -1.1152
  276MOL0     H38051   4.286   7.013   3.697 -0.7264 -2.9307 -1.1443
  276MOL0     H38052   4.525   7.253   3.354  0.7531 -1.4794 -0.2318
  276MOL0     H38053   4.383   7.153   3.314  1.0263 -0.5708 -0.1904
  276MOL0     H38054   4.367   7.378   3.233 -2.7954  1.6819  1.1730
  276MOL0     H38055   4.231   7.332   3.336 -1.7067  2.5952 -1.3853
  276MOL0     H38056   4.485   7.496   3.409 -0.4849 -1.5598  0.6849
  276MOL0     H38057   4.359   7.470   3.521  5.4118  3.0109  0.2379
  276MOL0     H38058   4.187   7.588   3.360  0.6858 -5.2356 -0.2832
  276MOL0     H38059   4.339   7.645   3.286 -0.3380 -1.2089 -0.6021
  276MOL0     H38060   4.272   7.679   3.589 -1.3231  3.0757  0.2557
  276MOL0     H38061   4.411   7.753   3.498  2.5509 -3.5399 -1.2346
  276MOL0     H38062   4.099   7.796   3.478  0.3289  0.8043  3.3406
  276MOL0     H38063   4.229   7.843   3.356  4.2125  0.3290  0.7668
  276MOL0     H38064   4.340   8.007   3.492 -0.4365  1.3561 -0.3498
  276MOL0     H38065   4.244   7.966   3.636 -0.1848 -0.6080  0.1845
  276MOL0     H38066   4.150   8.080   3.365  2.0942 -0.4277 -0.3194
  276MOL0     H38067   4.179   8.159   3.528 -0.6348  1.6527 -0.6595
  276MOL0     H38068   4.661   7.077   3.466  0.8073 -1.0887 -1.4337
  276MOL0     H38069   4.743   6.867   3.567  0.7277  2.0432  1.1280
  276MOL0     H38070   4.653   6.380   3.508 -2.1160  1.3143  0.6266
  276MOL0     H38071   4.660   6.142   3.591 -0.3890  0.9764 -0.6304
  276MOL0     H38072   6.555   6.056   3.640  1.1712  0.0894 -2.1582
  276MOL0     H38073   6.681   6.278   3.673  0.1345 -1.4888  0.8971
  276MOL0     H38074   6.913   6.574   3.528 -1.0030 -0.3203  0.3080
  276MOL0     H38075   7.070   6.749   3.627  0.4578  1.1162 -1.3552
  276MOL0     H38076   7.150   6.961   3.581  0.6893  0.8785 -1.3936
  276MOL0     H38077   7.164   7.118   3.673 -1.5029  0.8053 -1.8846
  276MOL0     H38078   7.144   6.847   3.794 -1.4608  0.4510 -1.5579
  276MOL0     H38079   7.118   7.001   3.882 -1.7711 -0.1334 -0.4915
  276MOL0     H38080   7.357   6.851   3.773  1.7133 -0.7027  1.4983
  276MOL0     H38081   7.387   7.031   3.781  0.8067  0.1956 -0.3839
  276MOL0     H38082   7.295   7.010   4.032  1.0761  1.0110 -0.0433
  276MOL0     H38083   7.459   6.963   4.002 -0.4503  4.7185 -3.4902
  276MOL0     H38084   7.329   6.598   4.133  1.2575  1.0268  2.7444
  276MOL0     H38085   6.741   7.032   3.573 -0.5164 -0.1670  2.5968
  276MOL0     H38086   6.503   6.922   3.537  1.7887  2.9099 -0.9722
  276MOL0     H38087   6.565   6.870   3.370 -1.3017  0.8375  0.4468
  276MOL0     H38088   6.492   6.756   3.484  0.5957  0.2182  1.3880
  277MOL0     O38089   6.487   6.172   7.117  0.3519 -0.0173  0.1357
  277MOL0     C38090   6.593   6.156   7.062 -1.4326 -0.3679  0.2147
  277MOL0     O38091   6.698   6.243   7.064 -0.2911  0.2022 -0.5316
  277MOL0     C38092   6.691   6.356   7.139  0.2890 -0.7993 -0.4583
  277MOL0     C38093   6.788   6.372   7.243  0.5947  0.1921 -0.6161
  277MOL0     C38094   6.783   6.492   7.323  0.5981  0.2881 -0.7988
  277MOL0     C38095   6.683   6.583   7.292 -1.1997  0.1168  0.9338
  277MOL0     O38096   6.693   6.697   7.365 -0.0294 -0.1854 -0.1456
  277MOL0     C38097   6.562   6.739   7.431  0.0798  0.4846 -0.0743
  277MOL0     C38098   6.591   6.849   7.527 -0.0234  0.3554  0.3300
  277MOL0     C38099   6.651   6.970   7.459 -0.1116  1.4326 -0.0730
  277MOL0     C38100   6.670   7.081   7.565  0.5754 -0.4550  0.1424
  277MOL0     C38101   6.727   7.209   7.501 -0.5757  0.0763  0.6215
  277MOL0     C38102   6.649   7.262   7.378 -0.3430 -0.0557  0.4175
  277MOL0     C38103   6.715   7.396   7.328  0.2023  0.3208 -0.7637
  277MOL0     C38104   6.712   7.512   7.425  0.2453  0.1759 -1.0006
  277MOL0     N38105   6.782   7.629   7.367  0.8380 -0.4055 -0.8844
  277MOL0     C38106   6.820   7.650   7.234  0.7786 -0.4266  0.8420
  277MOL0     C38107   6.886   7.767   7.228  0.2075  0.6018 -0.3205
  277MOL0     C38108   6.960   7.824   7.105 -0.7527  0.4134  0.5966
  277MOL0     C38109   7.078   7.727   7.089  0.3365 -0.2999 -0.2484
  277MOL0     C38110   7.098   7.691   6.949  0.3475 -0.6156  0.5914
  277MOL0     C38111   7.213   7.595   6.951 -0.4718  0.9670 -0.8762
  277MOL0     O38112   7.327   7.650   7.030  0.1150  0.5372  0.6679
  277MOL0     C38113   7.403   7.570   7.107 -0.7885  0.6213 -0.1649
  277MOL0     C38114   7.436   7.601   7.241  0.0818 -0.8484  0.0272
  277MOL0     C38115   7.503   7.521   7.329 -0.5106  0.7063 -1.0446
  277MOL0     C38116   7.535   7.563   7.477  0.6321 -1.2575 -0.4940
  277MOL0     C38117   7.545   7.393   7.283  0.1162  0.0857 -0.7106
  277MOL0     C38118   7.614   7.297   7.370 -0.0299  0.3961  0.4891
  277MOL0     O38119   7.593   7.285   7.507  0.6587 -0.2875 -0.5440
  277MOL0     C38120   7.642   7.170   7.568 -0.0113 -1.1840 -0.1120
  277MOL0     C38121   7.562   7.056   7.564 -0.9463  0.2754  0.7924
  277MOL0     C38122   7.616   6.940   7.623  0.0131  0.3655 -0.0045
  277MOL0     C38123   7.735   6.934   7.699 -0.3938 -0.0624  0.6125
  277MOL0     O38124   7.780   6.815   7.752 -0.5670  0.0474 -0.3725
  277MOL0     C38125   7.887   6.811   7.848  0.3297 -0.1344  0.2238
  277MOL0     C38126   7.898   6.662   7.873  0.5005  0.6973 -0.0825
  277MOL0     C38127   7.977   6.623   8.004 -0.0390 -0.2815  0.0113
  277MOL0     C38128   8.005   6.472   8.010  0.3981  1.4658 -0.9543
  277MOL0     C38129   8.104   6.427   8.107  0.0329 -0.1824 -0.4351
  277MOL0     C38130   8.072   6.452   8.256  0.7436  0.1539  0.0973
  277MOL0     C38131   8.168   6.362   8.343  0.3139 -0.3238 -0.6650
  277MOL0     C38132   8.155   6.383   8.500  0.3228  0.3489  0.1933
  277MOL0    Cl38133   8.010   6.297   8.568  0.2330  0.3735  0.1700
  277MOL0     C38134   7.812   7.055   7.690 -0.2560  0.9260  0.6140
  277MOL0     C38135   7.762   7.174   7.638 -0.3857  0.4266 -0.1734
  277MOL0     O38136   7.693   7.227   7.304 -0.2604  0.2390  0.2050
  277MOL0     C38137   7.519   7.359   7.146 -0.8622 -0.1970  0.6418
  277MOL0     C38138   7.446   7.446   7.061 -0.3763 -0.2513  0.0109
  277MOL0     N38139   6.887   7.815   7.356  0.4099  0.6490  0.4095
  277MOL0     N38140   6.814   7.736   7.434 -0.8503  0.3948  0.1271
  277MOL0     C38141   6.583   6.569   7.192  0.2800 -0.1662  0.0637
  277MOL0     C38142   6.588   6.449   7.119  0.3371 -0.6569 -1.0852
  277MOL0     C38143   6.615   6.030   6.987 -0.7994  0.4352  0.1646
  277MOL0     C38144   6.752   6.001   6.949  0.5782 -0.0348 -0.8811
  277MOL0     C38145   6.792   5.891   6.872 -0.8110  0.0581  0.1225
  277MOL0     C38146   6.689   5.811   6.819  0.5534  0.2222 -0.0047
  277MOL0     O38147   6.701   5.701   6.733 -0.1270 -0.4833  0.7202
  277MOL0     C38148   6.832   5.654   6.723 -0.6344  0.1919 -0.1014
  277MOL0     C38149   6.850   5.545   6.623  0.2648 -0.3811 -0.9183
  277MOL0     C38150   6.830   5.405   6.692 -1.3457 -0.0348  0.2177
  277MOL0     C38151   6.917   5.310   6.617  0.8064  0.0115 -0.9845
  277MOL0     C38152   6.873   5.291   6.477 -0.0521  0.0587 -0.6471
  277MOL0     C38153   6.833   5.283   6.363 -0.5282  0.2077 -0.2320
  277MOL0     C38154   6.557   5.837   6.854 -0.7993 -0.7354  0.1740
  277MOL0     C38155   6.519   5.940   6.943 -0.0873  0.0752  0.4611
  277MOL0     C38156   6.368   5.943   6.975 -0.1939  0.0871  0.5983
  277MOL0     H38157   6.858   6.291   7.263 -0.0629 -0.7563 -2.0545
  277MOL0     H38158   6.856   6.520   7.398  0.2528  0.2706 -0.4545
  277MOL0     H38159   6.501   6.661   7.476  1.3369 -1.0913 -0.9821
  277MOL0     H38160   6.487   6.786   7.367 -0.7093  3.2750  2.6395
  277MOL0     H38161   6.491   6.875   7.562 -0.7010 -2.4734  0.7369
  277MOL0     H38162   6.666   6.810   7.597  0.0698 -1.3039 -0.6389
  277MOL0     H38163   6.750   6.939   7.424 -0.9244  0.1324 -1.2874
  277MOL0     H38164   6.588   7.006   7.377  1.8419  1.7844 -1.4856
  277MOL0     H38165   6.570   7.110   7.598 -0.1121 -0.2782 -1.9363
  277MOL0     H38166   6.743   7.045   7.638  1.3590  0.5424 -0.1143
  277MOL0     H38167   6.826   7.182   7.463  1.4825  2.0736  4.0629
  277MOL0     H38168   6.745   7.278   7.584  1.1820 -1.5199  1.6458
  277MOL0     H38169   6.649   7.185   7.300  0.8223 -1.7352  1.9777
  277MOL0     H38170   6.549   7.290   7.414  0.7213  0.6878  3.0865
  277MOL0     H38171   6.669   7.414   7.230 -1.0073 -2.5610 -0.8143
  277MOL0     H38172   6.821   7.371   7.326  0.8887  2.6720  1.2361
  277MOL0     H38173   6.609   7.539   7.452  0.3906  0.5131 -0.7835
  277MOL0     H38174   6.757   7.480   7.519  0.6707  2.8119 -0.2424
  277MOL0     H38175   6.821   7.574   7.157  1.7776 -0.0928  0.5073
  277MOL0     H38176   7.004   7.920   7.131  0.9562 -0.1166 -0.2198
  277MOL0     H38177   6.896   7.833   7.017  0.6334  1.0263 -0.3951
  277MOL0     H38178   7.166   7.788   7.113 -0.2820  0.4072  0.2720
  277MOL0     H38179   7.080   7.635   7.148  1.8527 -0.6186 -0.7516
  277MOL0     H38180   7.014   7.634   6.907  0.3693 -0.8448  0.8528
  277MOL0     H38181   7.117   7.774   6.881 -1.0871 -1.3861 -0.8284
  277MOL0     H38182   7.176   7.504   6.998 -0.1618  1.5236  0.5167
  277MOL0     H38183   7.244   7.568   6.850 -2.7280 -0.8196 -1.1631
  277MOL0     H38184   7.405   7.700   7.270  1.0915 -0.2609 -0.8421
  277MOL0     H38185   7.487   7.498   7.550  1.0542 -1.5873 -0.5031
  277MOL0     H38186   7.497   7.663   7.499  2.7969 -0.7648  1.4605
  277MOL0     H38187   7.644   7.563   7.489  0.5986 -2.1109 -0.1303
  277MOL0     H38188   7.471   7.062   7.507 -0.0906 -3.1198 -1.1497
  277MOL0     H38189   7.547   6.856   7.620 -1.5259  1.5881 -0.2439
  277MOL0     H38190   7.974   6.856   7.799 -1.3286 -0.7712 -3.6866
  277MOL0     H38191   7.858   6.866   7.938  0.4488  1.8629 -0.8817
  277MOL0     H38192   7.797   6.623   7.881 -0.0145  1.6314 -1.6212
  277MOL0     H38193   7.946   6.618   7.785 -1.4733  0.7919 -1.2484
  277MOL0     H38194   7.930   6.662   8.096  0.8778 -0.6405  0.6477
  277MOL0     H38195   8.069   6.682   8.002 -0.0601 -0.2039  0.8381
  277MOL0     H38196   8.034   6.433   7.911  2.2668 -0.6091  0.3070
  277MOL0     H38197   7.910   6.423   8.031  0.8501  0.8917 -0.1654
  277MOL0     H38198   8.125   6.323   8.079 -0.3191  0.0569 -1.6368
  277MOL0     H38199   8.200   6.478   8.095  0.1710  0.0904  1.5591
  277MOL0     H38200   7.966   6.431   8.267  1.0437 -1.2186  0.5759
  277MOL0     H38201   8.093   6.558   8.273 -0.5789  0.3687  0.4484
  277MOL0     H38202   8.273   6.368   8.312  1.3960 -1.4316  2.3997
  277MOL0     H38203   8.153   6.254   8.340 -0.6514 -0.2971  1.4542
  277MOL0     H38204   8.141   6.490   8.517 -0.4902  0.9970 -3.6550
  277MOL0     H38205   8.242   6.350   8.557  0.2021  2.9685  2.0808
  277MOL0     H38206   7.909   7.052   7.739 -0.4408 -4.4942  1.1625
  277MOL0     H38207   7.814   7.269   7.641  1.2718 -0.3965 -1.3016
  277MOL0     H38208   7.546   7.264   7.101  0.2546  0.9252 -1.2031
  277MOL0     H38209   7.409   7.421   6.962 -1.7459 -1.4281  0.7767
  277MOL0     H38210   6.507   6.643   7.169 -0.8030 -0.6276  1.9571
  277MOL0     H38211   6.512   6.443   7.041 -0.2391  1.3055 -0.7310
  277MOL0     H38212   6.829   6.056   7.003  0.0819 -0.0540 -0.1308
  277MOL0     H38213   6.899   5.879   6.859 -0.4085  3.3876 -0.6784
  277MOL0     H38214   6.896   5.736   6.688  0.0196  0.3011  1.2995
  277MOL0     H38215   6.863   5.621   6.822 -3.0867 -3.6648 -0.4340
  277MOL0     H38216   6.955   5.551   6.595  1.4226 -0.4669  2.8347
  277MOL0     H38217   6.790   5.554   6.532 -1.7278 -1.0871  0.2455
  277MOL0     H38218   6.856   5.417   6.797 -0.7187  2.2890 -0.1419
  277MOL0     H38219   6.726   5.371   6.690 -1.0576 -0.9393 -1.6013
  277MOL0     H38220   6.917   5.217   6.674 -0.7542  1.3818  1.4163
  277MOL0     H38221   7.023   5.338   6.619  0.5384  1.1181 -1.4271
  277MOL0     H38222   6.795   5.261   6.265 -1.0805  1.2510 -0.2724
  277MOL0     H38223   6.484   5.763   6.821 -1.4260  0.1709 -0.5240
  277MOL0     H38224   6.357   5.899   7.075  2.6081  1.5311  1.6627
  277MOL0     H38225   6.339   6.048   6.968  2.6747  1.0356  1.1627
  277MOL0     H38226   6.310   5.893   6.898 -2.0967  3.0690 -0.0309
  278MOL0     O38227   2.961   9.576   4.299  0.1289 -0.5677 -0.5168
  278MOL0     C38228   2.939   9.696   4.273  0.8982  0.5193  1.1260
  278MOL0     O38229   2.816   9.750   4.239  0.7413 -0.0284  0.5809
  278MOL0     C38230   2.703   9.673   4.250 -1.5861  0.3832 -0.1326
  278MOL0     C38231   2.688   9.536   4.220  0.1141  0.1218 -0.4497
  278MOL0     C38232   2.558   9.485   4.251  0.0143  0.2519 -1.0071
  278MOL0     C38233   2.456   9.553   4.311 -0.0612 -0.1543  0.0929
  278MOL0     O38234   2.327   9.508   4.327  0.2342  0.8461  0.1620
  278MOL0     C38235   2.274   9.397   4.250  0.1327  0.5571 -0.4823
  278MOL0     C38236   2.118   9.409   4.245  0.7375  0.3136  0.5065
  278MOL0     C38237   2.068   9.548   4.190 -0.3678  0.4164  1.1348
  278MOL0     C38238   1.927   9.542   4.133 -0.7185 -0.1515 -1.0189
  278MOL0     C38239   1.898   9.683   4.082 -0.3440 -0.4964  1.0911
  278MOL0     C38240   1.748   9.693   4.072  0.6195  0.7335 -0.4566
  278MOL0     C38241   1.692   9.809   4.000 -0.3823 -0.1617 -0.3228
  278MOL0     C38242   1.695   9.785   3.849 -0.2391  0.3114  0.2579
  278MOL0     N38243   1.599   9.694   3.789  0.2011 -0.3115 -0.4343
  278MOL0     C38244   1.604   9.655   3.657 -0.3069  0.7469  0.2272
  278MOL0     C38245   1.497   9.561   3.650 -0.6714  0.1952  0.8192
  278MOL0     C38246   1.447   9.496   3.529 -0.2777 -0.1682  0.1428
  278MOL0     C38247   1.301   9.542   3.510  1.0814 -0.1591  1.0694
  278MOL0     C38248   1.233   9.456   3.396 -0.1553  0.9812 -0.9729
  278MOL0     C38249   1.288   9.478   3.252  0.0999  0.7093  0.2471
  278MOL0     O38250   1.283   9.610   3.201  0.2127 -0.7337 -0.0421
  278MOL0     C38251   1.316   9.652   3.073  0.2803 -0.2699  0.3536
  278MOL0     C38252   1.318   9.789   3.045 -0.2559 -0.0188  0.4210
  278MOL0     C38253   1.331   9.840   2.921 -0.0113 -0.6802  1.0132
  278MOL0     C38254   1.323   9.989   2.894 -0.8122  0.7743  1.5697
  278MOL0     C38255   1.369   9.750   2.807  0.1548 -0.0303  0.5872
  278MOL0     C38256   1.398   9.792   2.657 -1.1613 -0.2706 -0.4921
  278MOL0     O38257   1.421   9.696   2.555 -1.3412  0.4396 -0.4329
  278MOL0     C38258   1.421   9.736   2.426 -0.6580  0.1664  0.1514
  278MOL0     C38259   1.313   9.769   2.353  1.0900 -1.1064  0.3065
  278MOL0     C38260   1.319   9.782   2.217 -0.2786  0.2153  1.4508
  278MOL0     C38261   1.437   9.767   2.143  0.7136  0.4836 -0.6042
  278MOL0     O38262   1.426   9.746   2.010 -0.5270 -0.5644  0.0843
  278MOL0     C38263   1.541   9.715   1.934  0.6728 -0.0153  0.4109
  278MOL0     C38264   1.499   9.698   1.786 -0.2445  1.1044 -1.0531
  278MOL0     C38265   1.446   9.837   1.727 -0.3571  0.2733  0.2963
  278MOL0     C38266   1.581   9.910   1.713  0.4530 -0.0546  0.3185
  278MOL0     C38267   1.572  10.048   1.646 -0.3938 -0.7672  0.2714
  278MOL0     C38268   1.479  10.049   1.520 -0.5871 -0.7405  0.3276
  278MOL0     C38269   1.470  10.204   1.487 -0.6409  0.2702 -0.0548
  278MOL0     C38270   1.399  10.227   1.354  0.5291  0.1189  0.0918
  278MOL0    Cl38271   1.236  10.195   1.357 -0.4211 -0.0444 -0.0528
  278MOL0     C38272   1.557   9.751   2.210 -0.0796  0.3597  0.4413
  278MOL0     C38273   1.547   9.739   2.357 -0.3971 -0.4903  0.1415
  278MOL0     O38274   1.395   9.910   2.635 -0.2568  0.0778  0.8444
  278MOL0     C38275   1.367   9.612   2.832 -0.2628 -0.1317 -0.0507
  278MOL0     C38276   1.337   9.568   2.966  0.5171 -0.6064  0.4029
  278MOL0     N38277   1.437   9.548   3.777  0.0163 -0.2853  0.2949
  278MOL0     N38278   1.500   9.633   3.853 -0.2735  0.4260  0.7293
  278MOL0     C38279   2.487   9.688   4.355  0.6508  0.3057 -0.3540
  278MOL0     C38280   2.605   9.742   4.326 -0.9778  0.0258  0.7119
  278MOL0     C38281   3.059   9.779   4.291  0.1732  0.1990 -0.8915
  278MOL0     C38282   3.193   9.732   4.276  0.2703 -0.0208  0.4308
  278MOL0     C38283   3.304   9.818   4.301  0.7367 -0.4110  0.0128
  278MOL0     C38284   3.289   9.952   4.329  0.4623 -0.5672 -0.4381
  278MOL0     O38285   3.396  10.029   4.350  0.2922  0.0442 -0.2792
  278MOL0     C38286   3.430  10.045   4.486  0.2440  0.1284  0.2889
  278MOL0     C38287   3.566  10.116   4.487 -0.2880 -0.1816 -0.3886
  278MOL0     C38288   3.605  10.213   4.369  0.2475 -0.2907 -0.5296
  278MOL0     C38289   3.715  10.303   4.426 -0.2890 -0.6063  0.0400
  278MOL0     C38290   3.746  10.410   4.327  0.2677 -0.6439 -0.0932
  278MOL0     C38291   3.775  10.506   4.262 -0.3407  0.0874  0.5398
  278MOL0     C38292   3.160   9.999   4.332  0.2500 -0.3596 -0.2585
  278MOL0     C38293   3.048   9.918   4.325 -0.0625  0.2687 -0.1035
  278MOL0     C38294   2.918   9.981   4.374 -0.3675 -0.1310  0.1053
  278MOL0     H38295   2.771   9.484   4.174 -0.0443 -1.2159  0.7080
  278MOL0     H38296   2.537   9.384   4.219  1.6961 -0.4771  0.0722
  278MOL0     H38297   2.291   9.305   4.307 -2.0376 -0.3364 -1.1692
  278MOL0     H38298   2.313   9.410   4.148 -2.7290 -2.7643 -2.2207
  278MOL0     H38299   2.092   9.333   4.171  1.7505 -0.1808  0.6373
  278MOL0     H38300   2.069   9.384   4.339  0.6701 -1.5308  0.0278
  278MOL0     H38301   2.072   9.630   4.263  1.6288  1.5323 -0.1368
  278MOL0     H38302   2.142   9.585   4.119  0.9767 -1.4074  1.5027
  278MOL0     H38303   1.929   9.461   4.059  1.8751  1.4478 -2.8848
  278MOL0     H38304   1.863   9.512   4.216 -0.0852 -1.3751 -0.9487
  278MOL0     H38305   1.953   9.724   3.997  2.2034  1.0963  3.3234
  278MOL0     H38306   1.942   9.767   4.136  3.4299 -0.8672 -1.0225
  278MOL0     H38307   1.700   9.604   4.030 -1.1791  0.8848  1.1624
  278MOL0     H38308   1.705   9.698   4.172 -1.8789  0.8458 -1.4389
  278MOL0     H38309   1.746   9.903   4.017 -1.4906  0.0069  2.9375
  278MOL0     H38310   1.590   9.826   4.034  0.2229  1.3228  0.8805
  278MOL0     H38311   1.683   9.881   3.798 -0.9221 -1.0058 -2.2467
  278MOL0     H38312   1.791   9.745   3.813 -1.4940 -0.4817 -2.5201
  278MOL0     H38313   1.679   9.671   3.581  0.9623 -1.6876  0.8594
  278MOL0     H38314   1.457   9.390   3.553 -0.5481  0.3515  2.9312
  278MOL0     H38315   1.500   9.535   3.442 -0.4224  0.0494  0.1521
  278MOL0     H38316   1.250   9.522   3.605 -2.9292 -0.6192 -0.9931
  278MOL0     H38317   1.285   9.646   3.481 -1.2866 -0.8433 -0.2821
  278MOL0     H38318   1.254   9.351   3.417  2.5752  1.6963  0.5075
  278MOL0     H38319   1.125   9.468   3.388 -0.5058 -2.0608 -1.7000
  278MOL0     H38320   1.389   9.439   3.236 -0.2358  0.5225 -1.7389
  278MOL0     H38321   1.220   9.430   3.181  0.5345 -1.4749  1.1984
  278MOL0     H38322   1.302   9.858   3.127 -1.2972 -1.1492  1.2203
  278MOL0     H38323   1.420  10.029   2.862  0.5372 -1.4524  2.6046
  278MOL0     H38324   1.296  10.035   2.990 -1.0780  0.2014  1.7713
  278MOL0     H38325   1.236  10.014   2.833 -0.2577  2.7282  1.4934
  278MOL0     H38326   1.216   9.779   2.401  0.8005 -2.4953  0.0639
  278MOL0     H38327   1.229   9.803   2.160  1.7574  2.1081 -1.3393
  278MOL0     H38328   1.615   9.794   1.948 -0.1487  0.2083  5.4628
  278MOL0     H38329   1.581   9.617   1.964 -3.2346 -1.7432  0.6160
  278MOL0     H38330   1.573   9.651   1.721 -2.1862  0.0863 -2.6630
  278MOL0     H38331   1.416   9.627   1.791  1.3677 -0.8627 -0.9432
  278MOL0     H38332   1.385   9.891   1.800  0.0275  0.6210  0.3653
  278MOL0     H38333   1.395   9.816   1.633  1.4215 -2.6320 -0.1321
  278MOL0     H38334   1.652   9.850   1.657 -3.5940 -1.5029 -3.9430
  278MOL0     H38335   1.622   9.928   1.813 -2.1994  1.7318  1.1961
  278MOL0     H38336   1.531  10.114   1.723 -1.2029 -1.8670  0.8154
  278MOL0     H38337   1.667  10.094   1.618 -0.5418 -0.2578  0.6029
  278MOL0     H38338   1.378  10.009   1.538  0.0569 -2.7957 -0.3324
  278MOL0     H38339   1.530   9.992   1.442  1.3557  4.2242 -2.4504
  278MOL0     H38340   1.574  10.235   1.474  0.3632 -2.5952  0.4012
  278MOL0     H38341   1.407  10.255   1.560  0.0737 -0.2033  0.9099
  278MOL0     H38342   1.441  10.167   1.272  0.8757  0.4764 -0.0010
  278MOL0     H38343   1.411  10.333   1.328  0.9571  0.4291  1.4948
  278MOL0     H38344   1.653   9.745   2.160 -1.1496  1.6237 -1.9276
  278MOL0     H38345   1.639   9.736   2.415  2.0359  1.4015 -3.2514
  278MOL0     H38346   1.376   9.536   2.755 -0.7686 -2.1096  1.7363
  278MOL0     H38347   1.326   9.460   2.976 -2.0612 -0.8805 -3.3639
  278MOL0     H38348   2.405   9.746   4.396  0.6049 -0.1103  0.1549
  278MOL0     H38349   2.631   9.839   4.367 -0.6873  0.7827 -1.1575
  278MOL0     H38350   3.222   9.633   4.241 -1.5841  0.7195 -3.7275
  278MOL0     H38351   3.404   9.776   4.291  0.8705 -0.3299  0.9491
  278MOL0     H38352   3.346  10.098   4.532 -2.0117 -3.5668  0.8858
  278MOL0     H38353   3.443   9.953   4.544 -0.7545  0.2835  0.7760
  278MOL0     H38354   3.635  10.032   4.487 -1.3918 -1.1328 -1.5241
  278MOL0     H38355   3.577  10.161   4.586  0.0715 -1.8875  0.3891
  278MOL0     H38356   3.640  10.153   4.284 -2.7121 -0.4519 -1.7458
  278MOL0     H38357   3.523  10.280   4.343 -0.4132 -0.5286  0.8498
  278MOL0     H38358   3.812  10.255   4.444  0.5348  0.7732 -0.5760
  278MOL0     H38359   3.690  10.357   4.518  4.0262  1.8663  0.0254
  278MOL0     H38360   3.794  10.600   4.215  1.4856 -0.9432 -0.9610
  278MOL0     H38361   3.173  10.104   4.353  3.9197 -0.6771 -0.2394
  278MOL0     H38362   2.926  10.076   4.426 -1.8410  0.4517 -0.6842
  278MOL0     H38363   2.846   9.986   4.292  0.8571 -1.3392 -1.1113
  278MOL0     H38364   2.896   9.918   4.461  0.5762 -1.8623 -0.8425
  279MOL0     O38365   3.362  11.318   1.156 -0.2438  0.3390  0.0677
  279MOL0     C38366   3.263  11.287   1.225  0.1131  0.4118  1.4963
  279MOL0     O38367   3.209  11.374   1.319  0.3040  0.3386 -0.1010
  279MOL0     C38368   3.285  11.488   1.346 -0.3218  0.2838 -0.4856
  279MOL0     C38369   3.305  11.591   1.266  0.2598  0.2720  0.0615
  279MOL0     C38370   3.371  11.712   1.305  0.0681  0.1398  0.1836
  279MOL0     C38371   3.414  11.718   1.437  0.0111  0.4184 -0.1720
  279MOL0     O38372   3.475  11.829   1.492  0.1254 -0.1344 -0.0208
  279MOL0     C38373   3.591  11.878   1.419  0.5177 -0.9060 -0.1880
  279MOL0     C38374   3.725  11.833   1.486  1.2991  0.2524 -0.3389
  279MOL0     C38375   3.743  11.893   1.618  0.8223  0.3500  0.3261
  279MOL0     C38376   3.890  11.878   1.677 -0.3963 -0.4733  0.4097
  279MOL0     C38377   4.012  11.943   1.599 -0.8686 -0.0919 -0.3548
  279MOL0     C38378   4.138  11.951   1.697  0.4723  0.6419 -0.1262
  279MOL0     C38379   4.236  12.056   1.652 -0.6019 -0.9927  0.3695
  279MOL0     C38380   4.306  12.013   1.530 -0.1716  0.0710 -0.1289
  279MOL0     N38381   4.395  11.900   1.544 -0.3576  0.6454  0.0413
  279MOL0     C38382   4.464  11.861   1.654 -0.1298  0.3017  0.3599
  279MOL0     C38383   4.562  11.776   1.612  0.9776 -0.7864  0.1238
  279MOL0     C38384   4.672  11.717   1.684 -0.6517 -0.4056  0.2098
  279MOL0     C38385   4.645  11.687   1.836 -0.4829 -0.0947  0.2634
  279MOL0     C38386   4.583  11.547   1.857 -0.1137  0.1820  0.1106
  279MOL0     C38387   4.559  11.540   2.003  0.5730  0.0918 -1.4604
  279MOL0     O38388   4.542  11.401   2.038 -0.5791  0.2933 -0.4253
  279MOL0     C38389   4.527  11.371   2.170  0.3324 -0.3415  0.3316
  279MOL0     C38390   4.560  11.240   2.202 -0.3784  0.0032  0.3624
  279MOL0     C38391   4.547  11.195   2.332 -0.1866 -0.6496 -0.6667
  279MOL0     C38392   4.582  11.041   2.358  0.0342  0.1590  0.0454
  279MOL0     C38393   4.503  11.282   2.432 -0.3615  1.0102  0.0804
  279MOL0     C38394   4.486  11.258   2.580 -0.8895 -0.7527 -0.5747
  279MOL0     O38395   4.381  11.317   2.645  1.0202  0.4354  0.4013
  279MOL0     C38396   4.375  11.301   2.779 -0.7507 -0.4031  0.2486
  279MOL0     C38397   4.283  11.214   2.848 -0.0808 -0.1479  0.0285
  279MOL0     C38398   4.288  11.216   2.988  0.1483  0.3749  0.0911
  279MOL0     C38399   4.370  11.298   3.065  0.1266  0.3460  0.4340
  279MOL0     O38400   4.388  11.298   3.194 -0.1687  0.1179 -0.2351
  279MOL0     C38401   4.390  11.170   3.259  0.4166  0.6104 -1.4734
  279MOL0     C38402   4.521  11.099   3.208  0.0199  0.1513 -0.2534
  279MOL0     C38403   4.520  10.954   3.256 -0.0308  0.0884  0.5361
  279MOL0     C38404   4.439  10.867   3.155 -0.0781  0.3537 -0.4483
  279MOL0     C38405   4.383  10.739   3.218  0.2058 -0.0871 -0.2201
  279MOL0     C38406   4.267  10.763   3.309  0.1746 -0.1385 -0.0665
  279MOL0     C38407   4.132  10.808   3.241 -0.3575 -0.4851  1.5983
  279MOL0     C38408   4.046  10.858   3.345  1.6112 -0.0520 -0.1130
  279MOL0    Cl38409   4.091  11.017   3.418 -0.0152 -0.3369  0.4974
  279MOL0     C38410   4.449  11.385   2.997 -0.4792  0.5847 -0.6001
  279MOL0     C38411   4.449  11.388   2.859 -0.3207 -0.0332  0.2805
  279MOL0     O38412   4.562  11.171   2.631  0.7324  0.4395  0.4387
  279MOL0     C38413   4.473  11.411   2.400 -0.3852  0.1480  0.4477
  279MOL0     C38414   4.474  11.459   2.268 -0.9396 -1.4651 -0.0552
  279MOL0     N38415   4.555  11.769   1.480  0.1257  0.4078  0.3180
  279MOL0     N38416   4.456  11.843   1.436  0.3886 -0.1418 -0.1444
  279MOL0     C38417   3.395  11.614   1.524  0.0656  0.1750 -0.0573
  279MOL0     C38418   3.333  11.498   1.484 -0.6892 -0.5746  0.6470
  279MOL0     C38419   3.205  11.138   1.222 -0.3602  0.3507  0.7262
  279MOL0     C38420   3.121  11.095   1.326 -0.1643  1.3568 -0.6809
  279MOL0     C38421   3.049  10.974   1.324 -0.7041 -0.0295  0.0824
  279MOL0     C38422   3.071  10.878   1.228  0.1841  0.0753  0.6315
  279MOL0     O38423   2.991  10.765   1.227 -0.0537 -0.2374 -0.1885
  279MOL0     C38424   3.037  10.647   1.152 -0.0737 -0.4189 -0.0398
  279MOL0     C38425   2.927  10.552   1.162 -0.3868  0.6951  0.4351
  279MOL0     C38426   2.793  10.574   1.082 -0.0833  0.1036  0.0970
  279MOL0     C38427   2.674  10.485   1.119  0.3320 -0.0437 -0.6095
  279MOL0     C38428   2.582  10.471   1.004 -0.0178 -0.6204  0.8466
  279MOL0     C38429   2.509  10.464   0.906 -0.0204 -0.0616 -0.0216
  279MOL0     C38430   3.156  10.912   1.116 -0.0972 -0.0468 -0.5556
  279MOL0     C38431   3.225  11.043   1.111 -0.4613  0.1675 -0.5509
  279MOL0     C38432   3.318  11.069   0.997 -0.0652  0.1499 -0.3019
  279MOL0     H38433   3.263  11.585   1.166 -0.2204  1.1694  0.1922
  279MOL0     H38434   3.367  11.798   1.239  0.2588  1.7553  2.1942
  279MOL0     H38435   3.593  11.987   1.412 -2.1672 -0.7982 -0.2444
  279MOL0     H38436   3.583  11.852   1.313 -3.3506  2.3496 -0.9200
  279MOL0     H38437   3.716  11.727   1.513 -1.0763  0.2963 -0.7484
  279MOL0     H38438   3.814  11.846   1.423  2.5113 -1.1575  0.9832
  279MOL0     H38439   3.724  11.998   1.595  3.1616  0.4310 -1.5318
  279MOL0     H38440   3.677  11.842   1.689  2.1138 -4.6357 -1.6090
  279MOL0     H38441   3.879  11.925   1.775 -2.9888  0.5256 -0.2708
  279MOL0     H38442   3.904  11.769   1.683  2.1102 -0.1042  2.7121
  279MOL0     H38443   3.974  12.043   1.575 -1.2597  0.2744  1.5703
  279MOL0     H38444   4.032  11.891   1.505  0.9581  0.9949 -0.6062
  279MOL0     H38445   4.122  11.969   1.804 -0.5513 -2.4329  0.3464
  279MOL0     H38446   4.191  11.855   1.698  1.2651  1.0466 -1.4358
  279MOL0     H38447   4.310  12.061   1.732  0.3871 -0.6792 -0.5340
  279MOL0     H38448   4.190  12.153   1.635  2.1874  0.3478 -0.0176
  279MOL0     H38449   4.236  11.994   1.448  0.7649  1.5302 -1.3311
  279MOL0     H38450   4.364  12.095   1.487  2.4516 -2.3114 -1.4829
  279MOL0     H38451   4.429  11.896   1.751 -2.0529  3.1351 -1.2241
  279MOL0     H38452   4.749  11.791   1.663 -2.5006  1.5559 -0.0495
  279MOL0     H38453   4.699  11.616   1.651  0.0281  0.1828 -1.1243
  279MOL0     H38454   4.746  11.686   1.878  0.2083 -0.2845 -1.3495
  279MOL0     H38455   4.582  11.762   1.884 -2.6347 -0.9642 -1.0634
  279MOL0     H38456   4.487  11.528   1.809  0.3118 -1.0618 -0.2986
  279MOL0     H38457   4.636  11.455   1.830  0.0188 -1.3698  4.7345
  279MOL0     H38458   4.651  11.568   2.055 -0.1935 -0.2016  0.1138
  279MOL0     H38459   4.476  11.603   2.038 -1.9246 -3.0968 -1.2290
  279MOL0     H38460   4.595  11.169   2.128 -3.3120  2.8269 -4.2074
  279MOL0     H38461   4.537  10.983   2.277 -0.2834  0.0708  0.2812
  279MOL0     H38462   4.529  11.010   2.449 -0.0096  1.1589  0.3718
  279MOL0     H38463   4.690  11.023   2.361 -0.0864 -0.7759 -0.6718
  279MOL0     H38464   4.227  11.135   2.798 -1.7635  1.7697 -1.2612
  279MOL0     H38465   4.218  11.152   3.041  1.4368 -0.6548  0.6081
  279MOL0     H38466   4.408  11.195   3.365  2.9248 -2.0809 -1.1610
  279MOL0     H38467   4.300  11.111   3.241  0.3350  1.4645 -4.3879
  279MOL0     H38468   4.531  11.095   3.099  1.4153 -0.9576 -0.1109
  279MOL0     H38469   4.610  11.151   3.243  1.3441  2.7346 -6.1970
  279MOL0     H38470   4.473  10.950   3.355 -1.5921 -3.3274 -0.1982
  279MOL0     H38471   4.620  10.910   3.263 -0.8377 -1.9332  0.1907
  279MOL0     H38472   4.504  10.836   3.073 -0.9872  1.4769 -1.6180
  279MOL0     H38473   4.361  10.934   3.118 -2.0761 -1.5876 -0.0016
  279MOL0     H38474   4.359  10.673   3.134 -2.1168  0.3662  0.0171
  279MOL0     H38475   4.460  10.687   3.275 -1.0342 -0.4599  1.1707
  279MOL0     H38476   4.297  10.838   3.382 -0.5177 -1.2954  1.4543
  279MOL0     H38477   4.256  10.670   3.366  1.8180  0.0537  0.6300
  279MOL0     H38478   4.094  10.719   3.190  0.4572 -1.1457  2.0948
  279MOL0     H38479   4.139  10.888   3.168  2.7612 -2.0626 -0.0514
  279MOL0     H38480   4.032  10.786   3.426 -1.8272  0.7085  0.1226
  279MOL0     H38481   3.948  10.884   3.305  1.0885  0.0382  1.1808
  279MOL0     H38482   4.506  11.457   3.056  1.3326  1.5872 -3.3892
  279MOL0     H38483   4.510  11.468   2.819 -0.7218 -2.0215 -5.1138
  279MOL0     H38484   4.441  11.476   2.480 -1.2253 -0.0008  0.2437
  279MOL0     H38485   4.435  11.560   2.253  0.0706 -1.2016 -1.0740
  279MOL0     H38486   3.442  11.633   1.620  1.4397 -0.2149 -0.6322
  279MOL0     H38487   3.307  11.428   1.562 -1.5977 -2.8746 -1.5826
  279MOL0     H38488   3.125  11.158   1.414  2.3311  1.3029 -0.6825
  279MOL0     H38489   2.988  10.940   1.408 -0.3223  3.3944  1.9237
  279MOL0     H38490   3.042  10.664   1.044 -4.1300 -2.2119 -0.6886
  279MOL0     H38491   3.130  10.609   1.194 -0.6135  1.0085  2.6865
  279MOL0     H38492   2.901  10.554   1.268 -0.0834  0.2821  0.5233
  279MOL0     H38493   2.956  10.451   1.129  0.1402  0.7682  0.6671
  279MOL0     H38494   2.762  10.679   1.095 -2.6892 -0.6063  0.1779
  279MOL0     H38495   2.810  10.578   0.974  0.6790  2.2212  0.2492
  279MOL0     H38496   2.615  10.526   1.201  2.2936 -0.9038  1.3557
  279MOL0     H38497   2.710  10.387   1.153 -0.6981 -0.0248  0.6186
  279MOL0     H38498   2.435  10.468   0.829  0.7934  5.8916 -0.9501
  279MOL0     H38499   3.157  10.858   1.022 -0.2067  1.4541 -1.4500
  279MOL0     H38500   3.413  11.103   1.039  1.2045 -4.7157  1.4356
  279MOL0     H38501   3.331  10.975   0.943  1.0686  1.0791 -1.7320
  279MOL0     H38502   3.281  11.145   0.928 -0.7933  0.8283  0.8086
  280MOL0     O38503   8.288   8.262   2.117 -0.0436  0.3846  0.2579
  280MOL0     C38504   8.259   8.224   2.234  0.3342  0.1172  0.7067
  280MOL0     O38505   8.199   8.103   2.262  0.8272 -0.1742  0.0552
  280MOL0     C38506   8.123   8.048   2.156 -0.2311 -0.8022 -0.1934
  280MOL0     C38507   8.022   8.125   2.100 -0.0198  0.7002  0.5743
  280MOL0     C38508   7.941   8.057   1.997  1.3357  0.4584  0.3050
  280MOL0     C38509   7.961   7.924   1.970  0.1440  0.4090  0.2407
  280MOL0     O38510   7.889   7.866   1.864 -0.2415 -0.2349 -0.5016
  280MOL0     C38511   7.783   7.765   1.895 -0.5396  0.1344 -0.6040
  280MOL0     C38512   7.720   7.709   1.769 -0.5903  0.2468  0.2410
  280MOL0     C38513   7.629   7.585   1.797  1.0205  0.0496  0.4217
  280MOL0     C38514   7.544   7.563   1.674 -0.3580  0.1183 -0.6039
  280MOL0     C38515   7.457   7.433   1.700 -0.4381 -0.0423 -0.2265
  280MOL0     C38516   7.382   7.380   1.581  0.4785 -0.0840 -0.3888
  280MOL0     C38517   7.316   7.248   1.612  0.4486 -0.0209  0.0717
  280MOL0     C38518   7.227   7.178   1.502 -0.3369 -0.7995 -0.6547
  280MOL0     N38519   7.311   7.097   1.406 -0.6176 -0.3565  0.0465
  280MOL0     C38520   7.328   7.144   1.272 -0.3339  0.3149  0.1374
  280MOL0     C38521   7.356   7.034   1.206  0.0452 -0.6080  0.9092
  280MOL0     C38522   7.351   7.026   1.059 -0.2486 -0.3243 -0.7417
  280MOL0     C38523   7.361   6.887   0.994 -0.7208  1.2142 -0.4329
  280MOL0     C38524   7.231   6.799   0.987 -1.0654  0.0034  0.2930
  280MOL0     C38525   7.256   6.668   0.904 -0.4621  0.0372  0.0881
  280MOL0     O38526   7.366   6.592   0.959  0.1701 -0.1187  0.4917
  280MOL0     C38527   7.489   6.584   0.895  0.6213 -0.1627 -0.0284
  280MOL0     C38528   7.519   6.643   0.771  0.1108  0.4904 -0.0009
  280MOL0     C38529   7.650   6.635   0.726 -0.4719  0.3594  0.9799
  280MOL0     C38530   7.669   6.694   0.592 -0.0784  0.4626 -0.2230
  280MOL0     C38531   7.761   6.584   0.798  0.1443 -0.0633 -0.9821
  280MOL0     C38532   7.903   6.586   0.760 -0.1403 -0.6504  0.3788
  280MOL0     O38533   7.992   6.511   0.824  0.1167  0.0527 -0.2110
  280MOL0     C38534   8.119   6.474   0.777  0.3109 -0.7464  0.6689
  280MOL0     C38535   8.156   6.364   0.856  0.0734  0.5979 -0.1305
  280MOL0     C38536   8.278   6.292   0.822  0.6356  0.3873 -0.0954
  280MOL0     C38537   8.351   6.340   0.715  0.9687 -0.2491  0.6668
  280MOL0     O38538   8.471   6.301   0.674  0.7720 -0.6630 -0.1447
  280MOL0     C38539   8.521   6.182   0.736  0.8740  0.7808 -0.0929
  280MOL0     C38540   8.643   6.156   0.652  0.5099 -0.0767  0.3899
  280MOL0     C38541   8.756   6.242   0.674  0.0371 -0.4639 -0.9144
  280MOL0     C38542   8.891   6.184   0.607  0.3554  0.7754  0.2125
  280MOL0     C38543   9.001   6.277   0.607  0.2926  0.1970  1.2249
  280MOL0     C38544   9.071   6.300   0.745  0.7321 -0.8340  0.3113
  280MOL0     C38545   9.107   6.161   0.802 -0.4173 -0.2283  0.1037
  280MOL0     C38546   9.222   6.173   0.907 -0.3379  0.5314 -0.2420
  280MOL0    Cl38547   9.255   6.327   0.988  0.3822 -0.1264  0.2946
  280MOL0     C38548   8.305   6.445   0.632  0.0773  0.3834  0.3038
  280MOL0     C38549   8.187   6.519   0.663 -0.0865  0.1638 -0.7945
  280MOL0     O38550   7.938   6.672   0.687  0.1835 -0.6332  0.4227
  280MOL0     C38551   7.725   6.532   0.929 -0.8401  0.8249 -0.0285
  280MOL0     C38552   7.588   6.522   0.976 -0.9809  0.5570 -0.1892
  280MOL0     N38553   7.354   6.931   1.297 -0.5471  0.4302 -0.1259
  280MOL0     N38554   7.328   6.960   1.414 -0.5151 -0.3983 -0.6558
  280MOL0     C38555   8.065   7.851   2.032 -0.2633  0.1087  0.3898
  280MOL0     C38556   8.150   7.915   2.122 -0.1613 -0.5151  1.0853
  280MOL0     C38557   8.299   8.309   2.350 -0.9366 -0.3261 -1.1010
  280MOL0     C38558   8.287   8.450   2.327 -1.0027  0.6706  0.7245
  280MOL0     C38559   8.333   8.531   2.431  0.6262  0.5019  0.2818
  280MOL0     C38560   8.402   8.486   2.546 -0.5313 -0.1836 -0.2257
  280MOL0     O38561   8.433   8.587   2.635 -0.4631  0.3781  0.0462
  280MOL0     C38562   8.527   8.554   2.729 -0.5997  0.1362  0.2609
  280MOL0     C38563   8.565   8.687   2.803 -0.1847 -0.0214 -0.1361
  280MOL0     C38564   8.657   8.655   2.914 -0.6246  0.4085 -0.2515
  280MOL0     C38565   8.710   8.778   2.987 -0.2955 -0.5729 -0.6311
  280MOL0     C38566   8.812   8.743   3.089 -0.0133  0.4678 -0.3230
  280MOL0     C38567   8.913   8.732   3.152 -0.9235  0.6071 -0.2570
  280MOL0     C38568   8.405   8.346   2.566  1.1916  1.4545 -0.3426
  280MOL0     C38569   8.361   8.258   2.476  0.4782 -0.5717 -0.7043
  280MOL0     C38570   8.351   8.108   2.510 -0.1295 -0.9385  0.4503
  280MOL0     H38571   7.995   8.226   2.130 -3.0555 -0.2726  1.4534
  280MOL0     H38572   7.864   8.115   1.948 -0.7744 -0.7631  2.0141
  280MOL0     H38573   7.699   7.817   1.943  0.4362  2.7104 -1.4884
  280MOL0     H38574   7.819   7.677   1.949 -3.2688 -0.6688  0.0614
  280MOL0     H38575   7.665   7.785   1.713  0.5210  0.2384 -0.8965
  280MOL0     H38576   7.796   7.669   1.701 -0.3392  3.5699 -1.6220
  280MOL0     H38577   7.682   7.491   1.811 -1.8683 -1.4238  2.4474
  280MOL0     H38578   7.559   7.617   1.874 -0.3800 -1.3345 -0.2313
  280MOL0     H38579   7.484   7.650   1.646 -1.0249 -0.4777 -1.0681
  280MOL0     H38580   7.616   7.542   1.594  2.0445 -2.1359  1.9114
  280MOL0     H38581   7.385   7.448   1.781  0.0280  2.0748 -0.1502
  280MOL0     H38582   7.525   7.359   1.744  0.6073  0.4377 -1.0015
  280MOL0     H38583   7.305   7.454   1.557 -1.1264 -1.4056  0.4312
  280MOL0     H38584   7.444   7.378   1.491  1.8477  1.6972  0.4642
  280MOL0     H38585   7.246   7.253   1.696 -1.5660 -1.5430 -1.4080
  280MOL0     H38586   7.397   7.184   1.647  0.3864  1.1104  2.4781
  280MOL0     H38587   7.160   7.120   1.565 -1.3055  0.1813 -0.7526
  280MOL0     H38588   7.169   7.251   1.445 -1.3732 -1.6228 -0.6938
  280MOL0     H38589   7.325   7.241   1.223  0.4314 -0.2528 -1.0688
  280MOL0     H38590   7.434   7.088   1.024  0.7998 -0.9647  0.5143
  280MOL0     H38591   7.263   7.083   1.027  1.5540  2.5484 -0.9160
  280MOL0     H38592   7.388   6.912   0.891 -0.7102  0.9985 -0.4827
  280MOL0     H38593   7.430   6.830   1.057 -1.2591  2.3329  1.2483
  280MOL0     H38594   7.210   6.773   1.091 -3.8768 -1.8704 -0.6470
  280MOL0     H38595   7.146   6.844   0.935 -1.2582 -2.9156 -2.2254
  280MOL0     H38596   7.172   6.599   0.918 -1.2615  0.9728 -0.0056
  280MOL0     H38597   7.252   6.694   0.798  0.5886  1.2810  0.3358
  280MOL0     H38598   7.451   6.705   0.714 -1.8713 -1.2335  0.3696
  280MOL0     H38599   7.688   6.802   0.597 -1.5459  0.7003  0.9986
  280MOL0     H38600   7.574   6.679   0.540 -0.0021 -3.9852  0.5638
  280MOL0     H38601   7.731   6.626   0.533 -0.4744 -2.5738  2.5559
  280MOL0     H38602   8.093   6.337   0.940  2.0581  1.2595  1.6615
  280MOL0     H38603   8.311   6.212   0.887  1.0547  1.1984  0.7023
  280MOL0     H38604   8.543   6.206   0.841  1.6438  2.9264 -0.6790
  280MOL0     H38605   8.452   6.098   0.726  1.2441  0.0621  2.6407
  280MOL0     H38606   8.673   6.052   0.670  0.1288 -0.1124  0.8484
  280MOL0     H38607   8.619   6.162   0.546  4.4708 -0.2743 -0.6780
  280MOL0     H38608   8.777   6.249   0.781 -0.7226 -3.7331 -0.4586
  280MOL0     H38609   8.735   6.337   0.623  2.8728  0.5250 -0.4472
  280MOL0     H38610   8.863   6.154   0.505 -0.5335  1.1917  0.3179
  280MOL0     H38611   8.915   6.091   0.660 -0.9320  1.0631  1.3614
  280MOL0     H38612   9.085   6.253   0.541  1.4007  0.3260  2.5358
  280MOL0     H38613   8.964   6.375   0.578 -2.0188 -1.0760 -0.4624
  280MOL0     H38614   9.015   6.361   0.817  0.0519 -1.1377  0.0521
  280MOL0     H38615   9.162   6.359   0.730 -0.0430  0.9641  2.1164
  280MOL0     H38616   9.140   6.102   0.716  0.6948 -0.6056  0.7749
  280MOL0     H38617   9.016   6.114   0.842 -1.7803  0.5002 -1.9467
  280MOL0     H38618   9.318   6.137   0.869  0.2842 -0.3850  2.0719
  280MOL0     H38619   9.197   6.104   0.988 -1.0667  0.3564 -0.6055
  280MOL0     H38620   8.371   6.481   0.553  2.5494 -0.2678  1.9535
  280MOL0     H38621   8.165   6.605   0.601 -1.1156 -0.1629 -0.8915
  280MOL0     H38622   7.803   6.497   0.997 -0.6128 -0.0894 -0.7436
  280MOL0     H38623   7.573   6.475   1.073 -3.3924  0.3606 -0.5850
  280MOL0     H38624   8.076   7.744   2.017  0.1601  0.3027 -0.7734
  280MOL0     H38625   8.232   7.850   2.148 -0.6724 -2.4503 -1.7237
  280MOL0     H38626   8.243   8.502   2.242  0.7499  0.5120 -0.3237
  280MOL0     H38627   8.322   8.639   2.427  0.8357  0.5076 -2.6824
  280MOL0     H38628   8.490   8.488   2.808  0.9658 -0.4509  0.5343
  280MOL0     H38629   8.616   8.520   2.676  0.6762  0.1787  2.2427
  280MOL0     H38630   8.473   8.730   2.844 -0.3508 -1.5081  1.1752
  280MOL0     H38631   8.610   8.756   2.732 -3.7400 -0.1815 -2.8720
  280MOL0     H38632   8.605   8.598   2.991  2.3572 -2.0731  0.1365
  280MOL0     H38633   8.734   8.587   2.875 -0.6954 -0.6808  1.4466
  280MOL0     H38634   8.631   8.842   3.026  1.7608  0.7802  1.5782
  280MOL0     H38635   8.764   8.835   2.911  0.3663 -0.6922 -0.2612
  280MOL0     H38636   8.996   8.702   3.212 -1.5263 -0.8686 -0.1100
  280MOL0     H38637   8.447   8.312   2.660 -0.4467  3.5169  1.2337
  280MOL0     H38638   8.394   8.077   2.606  0.9755  1.3261  0.7434
  280MOL0     H38639   8.243   8.098   2.529 -0.9179  4.1022  0.0649
  280MOL0     H38640   8.388   8.038   2.435  3.4523 -1.1203  2.1766
  281MOL0     O38641   6.582   9.453   4.818  0.7194 -0.1848 -0.8445
  281MOL0     C38642   6.646   9.547   4.869  1.0916 -0.2694 -0.5555
  281MOL0     O38643   6.779   9.571   4.844 -0.0399 -0.2701 -0.0084
  281MOL0     C38644   6.844   9.507   4.746  0.0955 -0.2220 -0.2107
  281MOL0     C38645   6.814   9.515   4.602 -0.7132  0.2002  0.6243
  281MOL0     C38646   6.875   9.432   4.522  0.7210 -0.0762  0.0421
  281MOL0     C38647   6.971   9.344   4.571 -0.1728 -0.1143 -0.1010
  281MOL0     O38648   7.045   9.266   4.478 -0.6466 -0.5048  0.6156
  281MOL0     C38649   6.984   9.231   4.354  0.5741  0.3647  0.1886
  281MOL0     C38650   7.035   9.097   4.307  0.0251  0.3514  0.1967
  281MOL0     C38651   6.984   8.968   4.394  0.0309  0.5663 -0.1537
  281MOL0     C38652   6.919   8.982   4.534  0.0867 -0.3071  0.0651
  281MOL0     C38653   6.904   8.852   4.610  0.4133 -0.1573 -0.3467
  281MOL0     C38654   6.799   8.769   4.545  0.4970  0.1328  0.3749
  281MOL0     C38655   6.653   8.813   4.567  0.4890 -0.6709 -0.1281
  281MOL0     C38656   6.566   8.776   4.444  0.7464 -0.5187 -0.8304
  281MOL0     N38657   6.433   8.832   4.452 -0.0461  0.1419  0.0636
  281MOL0     C38658   6.384   8.933   4.388 -0.4347  0.1603  0.1242
  281MOL0     C38659   6.252   8.943   4.400 -0.8446 -0.4740 -0.0343
  281MOL0     C38660   6.158   9.044   4.345  0.1340  0.2017  0.5428
  281MOL0     C38661   6.025   9.046   4.423  0.3263 -0.5974 -0.4029
  281MOL0     C38662   5.923   8.952   4.367 -0.2904 -0.0818 -0.9221
  281MOL0     C38663   5.812   8.953   4.467 -0.3753 -0.6248 -0.8914
  281MOL0     O38664   5.695   8.884   4.403 -0.1496  0.2641  0.2624
  281MOL0     C38665   5.690   8.750   4.391  0.9095  0.1719  0.1690
  281MOL0     C38666   5.792   8.654   4.404  0.7409 -0.2077  0.3578
  281MOL0     C38667   5.763   8.518   4.399  0.8104  0.2232  0.2174
  281MOL0     C38668   5.879   8.429   4.407 -0.4085 -0.9059 -0.2347
  281MOL0     C38669   5.631   8.475   4.370  1.0160  0.4981  0.5601
  281MOL0     C38670   5.594   8.334   4.343  0.0966  0.3469 -0.4699
  281MOL0     O38671   5.475   8.290   4.400 -0.0117  0.2890 -0.7366
  281MOL0     C38672   5.441   8.160   4.391  0.0156  0.1152 -1.1829
  281MOL0     C38673   5.536   8.054   4.401 -0.4519  0.4384 -0.5489
  281MOL0     C38674   5.489   7.919   4.408 -0.2655 -0.9034 -0.8355
  281MOL0     C38675   5.350   7.892   4.397  0.0170  0.7455 -0.5103
  281MOL0     O38676   5.332   7.757   4.375  0.1106 -0.3227  0.4310
  281MOL0     C38677   5.221   7.723   4.298  0.4567 -0.2072 -0.0893
  281MOL0     C38678   5.238   7.581   4.246  0.0594 -0.4487  0.3994
  281MOL0     C38679   5.124   7.517   4.162 -1.1617  0.0882  0.5125
  281MOL0     C38680   5.174   7.380   4.107 -0.2501  0.1025  0.0805
  281MOL0     C38681   5.126   7.255   4.197  0.2301 -0.1347  0.1960
  281MOL0     C38682   5.140   7.259   4.354 -0.6009 -0.0272  1.2333
  281MOL0     C38683   5.290   7.259   4.393 -0.7403 -0.7408  0.1559
  281MOL0     C38684   5.299   7.309   4.532  0.1567 -0.1086 -0.6336
  281MOL0    Cl38685   5.237   7.174   4.632 -0.0919  0.2288  0.0484
  281MOL0     C38686   5.260   7.997   4.413 -0.4193  0.2130  0.1180
  281MOL0     C38687   5.304   8.129   4.407 -0.2271  0.6945  0.3084
  281MOL0     O38688   5.668   8.274   4.261  0.2423 -0.5112 -1.6146
  281MOL0     C38689   5.523   8.572   4.365  0.0470  0.3503  0.0418
  281MOL0     C38690   5.560   8.703   4.370 -0.6446  0.9608  0.2665
  281MOL0     N38691   6.222   8.844   4.496 -0.1268  0.0927  0.4758
  281MOL0     N38692   6.326   8.783   4.524  0.0194  0.5407 -1.3480
  281MOL0     C38693   7.015   9.328   4.699 -0.0137 -0.3308  0.3155
  281MOL0     C38694   6.943   9.413   4.790 -0.9594 -0.4475  0.1951
  281MOL0     C38695   6.580   9.632   4.966 -0.9553 -0.3968  1.1011
  281MOL0     C38696   6.650   9.744   5.001  0.3442 -0.9070 -0.3778
  281MOL0     C38697   6.599   9.821   5.106  0.8432  0.0415 -0.0414
  281MOL0     C38698   6.488   9.787   5.181 -0.4078  0.1650  0.1077
  281MOL0     O38699   6.439   9.864   5.283 -0.3014  0.1859 -0.6436
  281MOL0     C38700   6.493   9.820   5.415 -0.6167  0.6638  1.0399
  281MOL0     C38701   6.471   9.927   5.514  0.3458  0.0470 -0.2704
  281MOL0     C38702   6.334   9.936   5.587 -0.0259 -0.3321 -0.3102
  281MOL0     C38703   6.325   9.859   5.721  0.5326 -0.2934 -0.0332
  281MOL0     C38704   6.360   9.716   5.708  0.3179  0.4531  0.4020
  281MOL0     C38705   6.370   9.598   5.687  0.7220 -0.0314 -0.5164
  281MOL0     C38706   6.412   9.687   5.128  0.6409  0.1147 -0.6740
  281MOL0     C38707   6.459   9.605   5.035  0.4334  0.5197  0.3263
  281MOL0     C38708   6.367   9.496   4.986 -0.1007 -0.1527 -0.2511
  281MOL0     H38709   6.740   9.578   4.555 -1.2607  0.0403  1.2529
  281MOL0     H38710   6.841   9.426   4.419 -1.4803  2.0833  0.5511
  281MOL0     H38711   7.000   9.313   4.284  2.5642 -1.0019 -1.0511
  281MOL0     H38712   6.876   9.231   4.376  1.0021  2.8849  2.9136
  281MOL0     H38713   7.004   9.084   4.203  0.4528  4.4103 -0.5826
  281MOL0     H38714   7.144   9.111   4.308 -0.2376  2.8673  1.9585
  281MOL0     H38715   6.911   8.920   4.328 -0.8352  1.4219  0.1410
  281MOL0     H38716   7.068   8.900   4.405  0.6478  0.6915 -3.3318
  281MOL0     H38717   6.982   9.051   4.592 -0.8423  0.7515 -0.1338
  281MOL0     H38718   6.829   9.044   4.521  2.4984  3.1506 -1.5442
  281MOL0     H38719   6.866   8.876   4.710  2.0745  2.1401 -0.1853
  281MOL0     H38720   6.998   8.797   4.618  0.7223  0.3494 -0.4491
  281MOL0     H38721   6.810   8.763   4.436  1.2559  3.9439  0.1142
  281MOL0     H38722   6.804   8.670   4.592 -3.1124 -0.2290  0.2127
  281MOL0     H38723   6.652   8.922   4.574  0.7340 -0.6264 -0.7083
  281MOL0     H38724   6.614   8.773   4.661 -0.3794  1.8773  0.6644
  281MOL0     H38725   6.615   8.805   4.350  0.6192  0.1693 -0.6866
  281MOL0     H38726   6.561   8.666   4.446  1.9508 -0.5815 -0.3458
  281MOL0     H38727   6.455   8.995   4.334 -0.0098 -0.5569 -0.1571
  281MOL0     H38728   6.133   9.014   4.243  0.0605 -0.5871  0.7849
  281MOL0     H38729   6.202   9.144   4.341  0.5420 -0.0091 -0.9380
  281MOL0     H38730   6.043   9.015   4.527  0.8262 -1.5121 -0.7591
  281MOL0     H38731   5.990   9.148   4.441 -2.1548 -1.5019  0.4035
  281MOL0     H38732   5.887   8.985   4.269  2.5903  3.3554 -1.0512
  281MOL0     H38733   5.976   8.856   4.366 -1.0279 -0.5273  0.3877
  281MOL0     H38734   5.853   8.891   4.547  2.3518  1.1344 -0.8048
  281MOL0     H38735   5.796   9.056   4.498  0.4469 -0.4042 -1.1671
  281MOL0     H38736   5.886   8.696   4.437  0.7135  1.0236 -1.0544
  281MOL0     H38737   5.879   8.375   4.313 -1.4383  0.5435 -1.1127
  281MOL0     H38738   5.887   8.369   4.498 -0.1487  2.8154  2.4681
  281MOL0     H38739   5.967   8.493   4.404  0.8584 -2.6504 -2.2878
  281MOL0     H38740   5.641   8.081   4.403 -0.6446  1.1319  0.6066
  281MOL0     H38741   5.556   7.834   4.414  0.3271 -0.4037 -0.0800
  281MOL0     H38742   5.132   7.730   4.361 -0.3390  4.4879 -1.3370
  281MOL0     H38743   5.197   7.792   4.217 -0.9742 -0.9014 -0.2788
  281MOL0     H38744   5.328   7.587   4.183  0.5837 -2.4699  0.8956
  281MOL0     H38745   5.269   7.526   4.335  2.3420 -1.7434 -1.0645
  281MOL0     H38746   5.090   7.584   4.082 -3.3591  0.1194  1.3968
  281MOL0     H38747   5.031   7.515   4.220  0.3424  1.4896  3.1647
  281MOL0     H38748   5.281   7.374   4.086 -0.5182 -1.9141 -0.9024
  281MOL0     H38749   5.138   7.379   4.004  1.3685  0.1173 -0.5115
  281MOL0     H38750   5.021   7.263   4.167  0.7430  0.6633 -1.5455
  281MOL0     H38751   5.171   7.166   4.152  3.4187  2.4135 -2.1103
  281MOL0     H38752   5.091   7.170   4.395 -2.0698  0.4456  0.5697
  281MOL0     H38753   5.093   7.353   4.383 -0.7491  0.8603 -1.5756
  281MOL0     H38754   5.346   7.323   4.324 -1.1141 -1.1437 -0.5383
  281MOL0     H38755   5.332   7.158   4.385  0.3576 -0.3263  0.5236
  281MOL0     H38756   5.245   7.402   4.549 -1.6556 -0.8185 -2.2169
  281MOL0     H38757   5.406   7.323   4.553  0.4186 -1.6108 -0.8192
  281MOL0     H38758   5.155   7.967   4.406  0.0617 -1.0819 -2.8518
  281MOL0     H38759   5.240   8.215   4.428  0.8155  1.2148  1.4579
  281MOL0     H38760   5.421   8.537   4.347  0.9203 -2.8643  0.6560
  281MOL0     H38761   5.487   8.777   4.340  1.7336  2.3582 -2.5905
  281MOL0     H38762   7.093   9.257   4.721 -0.0604  0.4677  3.7376
  281MOL0     H38763   6.961   9.413   4.897 -1.0801  0.6683  0.2271
  281MOL0     H38764   6.744   9.778   4.960 -0.6330  2.3950 -0.1912
  281MOL0     H38765   6.654   9.909   5.137 -0.3433  0.9827 -0.5174
  281MOL0     H38766   6.434   9.731   5.440 -2.2472  0.9056 -1.6319
  281MOL0     H38767   6.602   9.815   5.403 -0.7068  2.2620 -0.9635
  281MOL0     H38768   6.490  10.025   5.470  0.6313  0.1414  0.0597
  281MOL0     H38769   6.544   9.921   5.595  0.8852  4.1571 -0.2593
  281MOL0     H38770   6.311  10.038   5.620 -1.4085 -1.8154  4.0456
  281MOL0     H38771   6.255   9.902   5.520  0.6957 -5.0001  0.8232
  281MOL0     H38772   6.222   9.869   5.758  1.0952  3.0238  0.9177
  281MOL0     H38773   6.392   9.908   5.792 -0.7136  0.0992  0.9108
  281MOL0     H38774   6.380   9.495   5.658 -0.0737 -1.0064  2.3540
  281MOL0     H38775   6.317   9.664   5.176 -0.5549  3.2326 -1.3222
  281MOL0     H38776   6.274   9.497   5.044  1.2459  1.4399  2.0530
  281MOL0     H38777   6.337   9.522   4.885  0.0688  1.9690  0.1981
  281MOL0     H38778   6.421   9.401   4.989 -0.1242 -0.1934 -1.0059
  282MOL0     O38779   0.508   1.489   8.634  0.0624 -0.3054 -0.2887
  282MOL0     C38780   0.406   1.537   8.683 -1.1358  0.4911  0.2249
  282MOL0     O38781   0.346   1.660   8.640  0.5623  0.8445  0.2777
  282MOL0     C38782   0.415   1.743   8.557  0.0651 -0.1505  0.4019
  282MOL0     C38783   0.553   1.747   8.523  1.3384  0.5331  0.6873
  282MOL0     C38784   0.606   1.862   8.446 -0.8533  1.3498  0.1324
  282MOL0     C38785   0.527   1.977   8.422  1.1185 -0.9669 -1.0201
  282MOL0     O38786   0.590   2.079   8.357  0.6035 -0.1760  0.3824
  282MOL0     C38787   0.524   2.196   8.325  0.0172 -0.4112 -1.5171
  282MOL0     C38788   0.494   2.279   8.446  0.0159 -0.0240 -1.3575
  282MOL0     C38789   0.498   2.433   8.430 -0.4330 -1.5384 -0.5620
  282MOL0     C38790   0.470   2.488   8.571 -0.1317  0.3024  1.0170
  282MOL0     C38791   0.580   2.445   8.674  0.3300  0.0286 -1.0268
  282MOL0     C38792   0.592   2.558   8.779  0.2793  0.1685  0.4226
  282MOL0     C38793   0.696   2.536   8.887 -0.1340 -0.0495  0.1816
  282MOL0     C38794   0.738   2.664   8.958  0.3910 -0.0695  0.1282
  282MOL0     N38795   0.837   2.635   9.063 -0.7554  0.0869 -0.2932
  282MOL0     C38796   0.967   2.594   9.039  0.0288 -0.5812 -0.1005
  282MOL0     C38797   1.008   2.559   9.162  0.5540 -0.2443 -0.5574
  282MOL0     C38798   1.148   2.505   9.183 -0.5076  0.3589 -0.6948
  282MOL0     C38799   1.230   2.565   9.302  0.0730 -0.0361 -0.8221
  282MOL0     C38800   1.156   2.538   9.435  0.7008  0.2634 -0.4103
  282MOL0     C38801   1.210   2.419   9.504  0.3911  0.0179 -0.9564
  282MOL0     O38802   1.195   2.433   9.649  0.1474  0.3967  0.3275
  282MOL0     C38803   1.224   2.323   9.718  0.0673 -0.0447  0.1810
  282MOL0     C38804   1.182   2.329   9.849  0.7191  1.0941  0.1483
  282MOL0     C38805   1.215   2.226   9.947  0.1026 -1.2388 -0.0408
  282MOL0     C38806   1.158   2.249  10.087 -0.0942 -1.0121  1.2253
  282MOL0     C38807   1.293   2.115   9.904  0.4901 -0.0173  0.4286
  282MOL0     C38808   1.329   2.009   9.998  0.0703 -0.3305 -0.3221
  282MOL0     O38809   1.347   1.888   9.945  0.5483  0.3933 -0.0938
  282MOL0     C38810   1.426   1.807  10.013 -0.4679  0.2822 -0.0510
  282MOL0     C38811   1.565   1.823   9.986  0.6455  0.1427 -0.0070
  282MOL0     C38812   1.656   1.720  10.018 -0.9312 -0.9037  0.0070
  282MOL0     C38813   1.614   1.614  10.103 -1.0187  0.9687  0.1465
  282MOL0     O38814   1.699   1.517  10.129  0.2371 -0.6862  0.4752
  282MOL0     C38815   1.830   1.501  10.069 -0.9117 -1.2962 -0.0548
  282MOL0     C38816   1.879   1.357  10.088 -0.5184 -0.3584  0.7117
  282MOL0     C38817   1.881   1.317  10.234  0.4001  0.0335 -1.0137
  282MOL0     C38818   1.959   1.189  10.266 -0.2720 -0.4305  0.5346
  282MOL0     C38819   1.947   1.155  10.415 -0.2338 -0.3881  0.0314
  282MOL0     C38820   2.011   1.248  10.530 -0.5308 -0.9013  0.1820
  282MOL0     C38821   2.166   1.268  10.503 -0.8144  0.4693 -0.5387
  282MOL0     C38822   2.222   1.331  10.640  0.4145 -0.1033 -0.4441
  282MOL0    Cl38823   2.276   1.204  10.749  0.2682  0.1092 -0.4064
  282MOL0     C38824   1.480   1.602  10.134 -0.4738  0.2255  0.4456
  282MOL0     C38825   1.386   1.697  10.091  0.1414 -0.0555 -0.6836
  282MOL0     O38826   1.359   2.041  10.113 -0.2714  0.4400 -0.3391
  282MOL0     C38827   1.337   2.107   9.768 -0.2493  0.6255 -0.5356
  282MOL0     C38828   1.310   2.213   9.682 -0.2074 -0.9871 -1.0698
  282MOL0     N38829   0.906   2.582   9.254  0.5022 -0.4049  0.0700
  282MOL0     N38830   0.803   2.636   9.196 -0.2132  0.1760 -0.2055
  282MOL0     C38831   0.393   1.963   8.450 -0.1930 -0.2550 -0.4122
  282MOL0     C38832   0.337   1.850   8.516 -0.8838  0.5840 -0.1838
  282MOL0     C38833   0.347   1.480   8.808  0.1381  0.8480  0.4045
  282MOL0     C38834   0.237   1.550   8.851 -0.0664 -0.0627  0.6512
  282MOL0     C38835   0.184   1.501   8.972  1.1153  0.2268 -0.2420
  282MOL0     C38836   0.224   1.390   9.038 -0.0649  1.2360 -0.5882
  282MOL0     O38837   0.150   1.344   9.146  0.2558  0.1443  0.5886
  282MOL0     C38838   0.028   1.404   9.194 -0.0512  0.4337 -1.0220
  282MOL0     C38839  -0.001   1.361   9.345 -0.3074  0.0578  0.2920
  282MOL0     C38840   0.081   1.442   9.443 -0.8670  0.8550 -0.1599
  282MOL0     C38841   0.227   1.389   9.462 -0.1919 -0.2362  0.0255
  282MOL0     C38842   0.239   1.249   9.483 -0.6268 -0.4359  0.5809
  282MOL0     C38843   0.265   1.133   9.511 -0.3227  0.0794  0.0397
  282MOL0     C38844   0.319   1.309   8.985  0.0115  1.0319  0.4430
  282MOL0     C38845   0.377   1.354   8.865 -0.7119  0.1291 -1.1984
  282MOL0     C38846   0.496   1.275   8.821 -0.2137 -0.0576  0.2074
  282MOL0     H38847   0.627   1.677   8.561 -0.4325 -1.6582  0.2941
  282MOL0     H38848   0.711   1.865   8.416 -1.0897  1.3483 -0.7213
  282MOL0     H38849   0.429   2.176   8.274  0.1393 -1.3033 -1.4089
  282MOL0     H38850   0.587   2.260   8.263  1.3289  1.3218  1.3811
  282MOL0     H38851   0.398   2.246   8.489 -0.4373  1.3056 -1.2889
  282MOL0     H38852   0.570   2.248   8.519 -0.8539  2.0340  0.5505
  282MOL0     H38853   0.588   2.472   8.381 -0.2965 -0.2519  0.6633
  282MOL0     H38854   0.413   2.461   8.367 -1.0385 -2.5549 -0.2220
  282MOL0     H38855   0.474   2.597   8.561  0.7262  0.3356  1.6423
  282MOL0     H38856   0.368   2.468   8.607 -0.7866  2.0621  0.2851
  282MOL0     H38857   0.680   2.434   8.630  0.7727 -1.1647  0.1825
  282MOL0     H38858   0.570   2.348   8.724  4.0944 -1.2858 -2.4429
  282MOL0     H38859   0.616   2.653   8.731 -1.2611  0.4936  0.2394
  282MOL0     H38860   0.495   2.572   8.827 -0.6828 -1.7543 -0.8078
  282MOL0     H38861   0.791   2.505   8.843  2.1653  2.3055  2.9735
  282MOL0     H38862   0.667   2.458   8.958  2.2065 -0.8901  0.3026
  282MOL0     H38863   0.791   2.728   8.887 -0.3708 -1.4860 -1.7956
  282MOL0     H38864   0.655   2.719   9.005  1.0464  0.9528  0.1225
  282MOL0     H38865   1.014   2.592   8.941 -1.9167 -3.4635 -1.0802
  282MOL0     H38866   1.210   2.523   9.095 -0.5355  6.4344  0.1397
  282MOL0     H38867   1.130   2.397   9.196  2.5374 -0.3787 -1.8520
  282MOL0     H38868   1.332   2.525   9.300  0.0917  0.0029 -0.6342
  282MOL0     H38869   1.250   2.672   9.291  2.2925 -0.1087  1.6266
  282MOL0     H38870   1.163   2.626   9.500  2.3408 -0.8769  1.0458
  282MOL0     H38871   1.047   2.528   9.431  0.9053 -2.5635 -1.1497
  282MOL0     H38872   1.155   2.331   9.468 -0.8464 -0.7245  2.3434
  282MOL0     H38873   1.316   2.418   9.481  0.0241  1.7524 -3.0441
  282MOL0     H38874   1.137   2.422   9.881  1.1687  1.0831  0.8313
  282MOL0     H38875   1.086   2.170  10.108 -0.4631 -1.4275 -1.3871
  282MOL0     H38876   1.097   2.340  10.092 -0.9492 -1.2659 -2.1825
  282MOL0     H38877   1.242   2.254  10.157  2.6049 -0.4609 -1.8542
  282MOL0     H38878   1.608   1.896   9.917  1.3489 -0.3923 -0.1495
  282MOL0     H38879   1.759   1.720   9.983 -1.9310  0.3587 -3.2294
  282MOL0     H38880   1.808   1.516   9.963  2.1629 -2.1452 -0.9119
  282MOL0     H38881   1.900   1.579  10.101  2.8105 -2.6510 -4.0101
  282MOL0     H38882   1.820   1.287  10.028 -1.0780  0.8661 -0.1784
  282MOL0     H38883   1.983   1.358  10.056 -0.4045  2.3333  0.9957
  282MOL0     H38884   1.776   1.306  10.264  0.0739  0.1352 -2.0699
  282MOL0     H38885   1.917   1.400  10.295 -1.4977 -0.8413  1.4727
  282MOL0     H38886   2.066   1.211  10.252  0.1033 -1.8558  0.9682
  282MOL0     H38887   1.939   1.103  10.202  0.3185  0.6935 -1.2500
  282MOL0     H38888   1.844   1.141  10.447  0.0741  0.5043  1.5548
  282MOL0     H38889   1.991   1.056  10.426 -1.8745 -1.1031  0.3543
  282MOL0     H38890   1.984   1.214  10.630 -2.0881 -2.2823 -0.6411
  282MOL0     H38891   1.962   1.345  10.516  1.2095  0.4384  2.7550
  282MOL0     H38892   2.207   1.327  10.420  0.9092  0.5692  0.3586
  282MOL0     H38893   2.203   1.166  10.487 -2.3345 -0.3566  0.9322
  282MOL0     H38894   2.145   1.387  10.694  0.3120 -0.7799  0.1130
  282MOL0     H38895   2.307   1.395  10.612  0.9839 -1.1813 -1.3042
  282MOL0     H38896   1.448   1.507  10.175 -1.7467  0.0311 -0.9194
  282MOL0     H38897   1.279   1.683  10.095  0.1361 -0.1647 -1.1252
  282MOL0     H38898   1.402   2.029   9.728  0.1263 -0.5451  2.1423
  282MOL0     H38899   1.348   2.207   9.580 -2.3577  0.9127 -2.0863
  282MOL0     H38900   0.316   2.040   8.441  1.1364  1.4338  1.7071
  282MOL0     H38901   0.231   1.834   8.532 -0.4673 -0.1541  2.3448
  282MOL0     H38902   0.201   1.636   8.796 -0.6579 -1.8243 -1.9209
  282MOL0     H38903   0.109   1.560   9.023  0.6091 -0.8613  0.3072
  282MOL0     H38904   0.023   1.513   9.208 -0.2725 -0.0292  4.9522
  282MOL0     H38905  -0.051   1.369   9.128 -0.3018  0.0446 -0.5152
  282MOL0     H38906   0.015   1.253   9.343 -0.0875  0.0742 -2.8821
  282MOL0     H38907  -0.105   1.383   9.371 -0.0203 -0.4948  2.0392
  282MOL0     H38908   0.085   1.550   9.425  1.1282  0.7268 -0.6520
  282MOL0     H38909   0.029   1.441   9.540 -0.7548 -0.8681 -0.1012
  282MOL0     H38910   0.274   1.450   9.540  1.8891  1.0740 -2.1407
  282MOL0     H38911   0.278   1.407   9.367 -0.0714 -3.2867 -0.5978
  282MOL0     H38912   0.269   1.031   9.545 -2.5941  0.2255  0.8716
  282MOL0     H38913   0.333   1.214   9.035  3.8594 -0.2657 -2.6511
  282MOL0     H38914   0.585   1.312   8.874 -0.7643  1.1601  0.3061
  282MOL0     H38915   0.489   1.170   8.852  1.3244  0.1619  1.4216
  282MOL0     H38916   0.512   1.276   8.713  1.2272 -0.5767  0.3839
  283MOL0     O38917   2.440   8.299   4.073 -0.1564 -0.0503 -0.1657
  283MOL0     C38918   2.432   8.369   4.179 -0.4935 -0.0734 -0.0267
  283MOL0     O38919   2.427   8.500   4.184 -0.2493 -0.0455  0.4278
  283MOL0     C38920   2.394   8.577   4.070 -0.0243 -0.1586 -0.6290
  283MOL0     C38921   2.445   8.711   4.061 -0.0581 -0.3466  0.0238
  283MOL0     C38922   2.421   8.787   3.947  0.3549 -0.4908  0.2454
  283MOL0     C38923   2.347   8.737   3.833 -0.3733  0.1447  0.0460
  283MOL0     O38924   2.351   8.818   3.723  0.2357  0.3922  0.3674
  283MOL0     C38925   2.284   8.776   3.606  0.1189 -0.0637  0.2721
  283MOL0     C38926   2.267   8.904   3.509  0.5114  0.2700  0.0549
  283MOL0     C38927   2.228   8.846   3.372  0.0261  0.1474 -0.4779
  283MOL0     C38928   2.195   8.956   3.270  0.0141 -0.3928  1.2110
  283MOL0     C38929   2.204   8.901   3.123  0.1305  0.9163 -0.8691
  283MOL0     C38930   2.170   9.011   3.022  0.3558  0.0469 -0.4616
  283MOL0     C38931   2.215   8.972   2.883  0.0045  0.0524  0.8710
  283MOL0     C38932   2.109   8.901   2.811 -0.3680  0.1736 -0.7786
  283MOL0     N38933   2.116   8.899   2.665  0.6453  0.1464  0.2464
  283MOL0     C38934   2.079   9.004   2.586  1.2102 -0.1305  0.0664
  283MOL0     C38935   2.141   8.972   2.470 -0.2476  0.4909  0.2640
  283MOL0     C38936   2.129   9.051   2.344 -1.0016 -0.0746  0.0648
  283MOL0     C38937   2.234   9.020   2.243 -0.4067 -0.0355  0.5850
  283MOL0     C38938   2.218   9.108   2.115  0.2451  0.8213 -0.1798
  283MOL0     C38939   2.336   9.088   2.013  0.7976 -0.8913 -0.0977
  283MOL0     O38940   2.284   9.134   1.886 -1.0239 -0.2222 -0.3258
  283MOL0     C38941   2.277   9.038   1.795 -0.7780  0.2228  1.8208
  283MOL0     C38942   2.346   9.081   1.679  0.5680  0.2249 -0.7116
  283MOL0     C38943   2.337   9.003   1.559 -0.3919  0.3375 -0.8453
  283MOL0     C38944   2.428   9.048   1.449 -0.3371 -0.2151 -1.2594
  283MOL0     C38945   2.261   8.885   1.561 -0.0690 -0.0934  0.8251
  283MOL0     C38946   2.234   8.799   1.444  0.4300  0.8278  0.0170
  283MOL0     O38947   2.169   8.685   1.465 -0.3526  0.5959 -0.2455
  283MOL0     C38948   2.163   8.586   1.367 -0.0251 -0.6246 -0.3617
  283MOL0     C38949   2.126   8.604   1.232 -0.1581  0.2741  0.6250
  283MOL0     C38950   2.136   8.494   1.138  0.0322  0.1164  0.1299
  283MOL0     C38951   2.172   8.361   1.185  0.3105 -0.3332 -0.7417
  283MOL0     O38952   2.169   8.255   1.109 -0.4134 -0.5584 -0.0951
  283MOL0     C38953   2.221   8.261   0.975  0.4007  0.1923  0.2724
  283MOL0     C38954   2.289   8.127   0.954 -0.7343 -0.0447  0.1288
  283MOL0     C38955   2.190   8.015   0.908 -0.0614 -0.9685 -0.1312
  283MOL0     C38956   2.140   8.024   0.759 -1.1419  0.8062  0.1081
  283MOL0     C38957   2.063   7.891   0.721 -0.6004  0.8016 -0.4122
  283MOL0     C38958   2.008   7.901   0.579 -0.1603  0.3603  0.2702
  283MOL0     C38959   1.956   7.765   0.533  0.4319 -0.0961 -0.2331
  283MOL0     C38960   1.928   7.773   0.391  0.7038 -0.4772 -0.7293
  283MOL0    Cl38961   1.760   7.837   0.360  0.0313  0.1659 -0.0169
  283MOL0     C38962   2.183   8.342   1.322 -0.3145 -0.0540  0.5868
  283MOL0     C38963   2.182   8.450   1.414 -0.5188 -0.1549 -0.1105
  283MOL0     O38964   2.272   8.832   1.334  0.3365 -0.9548 -0.4104
  283MOL0     C38965   2.180   8.851   1.677 -0.8630  1.0296 -0.4451
  283MOL0     C38966   2.194   8.930   1.792 -0.7130  0.1728  0.6542
  283MOL0     N38967   2.196   8.849   2.468 -0.7859  0.1437 -0.6868
  283MOL0     N38968   2.179   8.801   2.595  0.7027 -0.6392  0.1145
  283MOL0     C38969   2.288   8.611   3.847  0.9395 -0.5296  0.2374
  283MOL0     C38970   2.317   8.533   3.960 -0.2807  0.1951 -0.2870
  283MOL0     C38971   2.407   8.290   4.301 -0.5051  0.3185  0.6177
  283MOL0     C38972   2.450   8.155   4.305 -0.2187 -0.2121  0.4324
  283MOL0     C38973   2.434   8.068   4.411 -0.4398 -0.0377 -0.6962
  283MOL0     C38974   2.376   8.114   4.531 -0.2011 -0.1644 -0.3523
  283MOL0     O38975   2.367   8.053   4.652  0.3010 -0.2102  0.5449
  283MOL0     C38976   2.390   7.916   4.658 -1.1463 -0.2953  0.4528
  283MOL0     C38977   2.391   7.875   4.811 -0.1125 -0.8013 -0.6835
  283MOL0     C38978   2.378   7.726   4.817  0.2711 -0.1494  0.1099
  283MOL0     C38979   2.378   7.668   4.952  0.0922 -0.1043 -0.6352
  283MOL0     C38980   2.258   7.583   4.984  0.3550 -0.5445 -0.6991
  283MOL0     C38981   2.150   7.526   4.998 -0.5338  0.1140 -0.3862
  283MOL0     C38982   2.343   8.254   4.532 -0.8889  0.2508  0.0290
  283MOL0     C38983   2.351   8.338   4.418 -0.4140  0.7623  0.1048
  283MOL0     C38984   2.321   8.481   4.444  0.0006  0.7671 -0.5660
  283MOL0     H38985   2.488   8.755   4.150 -0.6281 -1.9658  1.1515
  283MOL0     H38986   2.480   8.878   3.945 -0.9452  0.3802  0.1979
  283MOL0     H38987   2.185   8.730   3.608  0.6102 -1.2407 -0.8990
  283MOL0     H38988   2.354   8.713   3.549 -1.7695  1.7777 -4.6263
  283MOL0     H38989   2.184   8.958   3.557 -0.5429 -2.0637  1.0355
  283MOL0     H38990   2.352   8.971   3.493 -0.7387  1.4523 -2.1478
  283MOL0     H38991   2.322   8.797   3.343  0.6901  1.2985 -0.3487
  283MOL0     H38992   2.148   8.772   3.371 -0.5677  0.7778 -0.6079
  283MOL0     H38993   2.090   8.983   3.289  1.0493  2.7568  3.1321
  283MOL0     H38994   2.268   9.036   3.286  2.0578 -1.5391 -1.5689
  283MOL0     H38995   2.141   8.812   3.115  1.3428 -0.2592  1.4118
  283MOL0     H38996   2.309   8.871   3.115  0.4756  1.6471  0.6296
  283MOL0     H38997   2.062   9.030   3.019  0.3396  0.6914  2.0215
  283MOL0     H38998   2.213   9.107   3.049  1.1049 -0.2597 -0.5246
  283MOL0     H38999   2.310   8.918   2.887  0.2929  0.3054 -1.2931
  283MOL0     H39000   2.237   9.063   2.826  2.8010 -0.4009  1.0753
  283MOL0     H39001   2.097   8.802   2.856 -1.9205  1.2312  1.3550
  283MOL0     H39002   2.015   8.955   2.826 -1.5801 -2.1698  0.7009
  283MOL0     H39003   2.018   9.087   2.619  1.0254 -0.9519  1.8975
  283MOL0     H39004   2.144   9.157   2.365 -0.0929 -0.3810  1.1194
  283MOL0     H39005   2.030   9.064   2.299  0.8800  4.9523 -3.6211
  283MOL0     H39006   2.337   9.026   2.280 -0.1147 -2.3349  0.2831
  283MOL0     H39007   2.220   8.914   2.220 -0.1368 -0.1774  1.0689
  283MOL0     H39008   2.121   9.088   2.069  0.1075 -3.0806  1.3972
  283MOL0     H39009   2.223   9.213   2.145  0.4650  1.2326 -1.5721
  283MOL0     H39010   2.425   9.144   2.041  1.1549 -0.7372 -1.4867
  283MOL0     H39011   2.373   8.986   2.000  2.7493 -0.3094  0.6057
  283MOL0     H39012   2.394   9.178   1.674  0.9983 -0.0362 -2.1064
  283MOL0     H39013   2.509   9.104   1.497 -2.6586  2.2681  0.0228
  283MOL0     H39014   2.382   9.108   1.370  2.5684 -0.5265 -3.3807
  283MOL0     H39015   2.475   8.956   1.415 -0.0650  0.0743 -1.6792
  283MOL0     H39016   2.108   8.706   1.200  1.3991  1.5262  3.4439
  283MOL0     H39017   2.103   8.500   1.034  1.6654 -2.6221 -0.6418
  283MOL0     H39018   2.130   8.274   0.916 -0.6588 -1.4113  1.4800
  283MOL0     H39019   2.293   8.341   0.955 -0.0537  0.5444  0.0081
  283MOL0     H39020   2.363   8.146   0.877  2.3574 -0.5387  2.7744
  283MOL0     H39021   2.351   8.103   1.041 -3.6354 -1.2528  2.0261
  283MOL0     H39022   2.100   8.013   0.971 -0.5590 -2.4016 -0.8350
  283MOL0     H39023   2.251   7.925   0.916  0.3324 -1.2746 -4.3549
  283MOL0     H39024   2.229   8.031   0.696 -1.5507  0.3716 -0.5353
  283MOL0     H39025   2.079   8.115   0.763 -0.9182  0.9281  0.9099
  283MOL0     H39026   2.143   7.817   0.727  0.5904  2.0738 -0.0983
  283MOL0     H39027   1.978   7.865   0.785  0.6977  1.3897  1.6368
  283MOL0     H39028   2.092   7.927   0.513 -1.3525  0.6460 -1.1768
  283MOL0     H39029   1.942   7.986   0.562  1.7050  1.4745 -2.0969
  283MOL0     H39030   1.863   7.733   0.580  0.2263  1.2598  0.3323
  283MOL0     H39031   2.032   7.686   0.539 -0.9042 -1.5407 -1.3621
  283MOL0     H39032   1.934   7.673   0.347  0.4204 -1.5415  1.4986
  283MOL0     H39033   2.004   7.827   0.335 -0.4059  0.8022 -1.0436
  283MOL0     H39034   2.206   8.240   1.351  0.0532  0.0419  0.6408
  283MOL0     H39035   2.193   8.423   1.518  0.4384  1.5721  0.2756
  283MOL0     H39036   2.115   8.765   1.684 -2.3045  2.1985  1.6085
  283MOL0     H39037   2.158   8.889   1.886 -0.4660 -2.7238 -0.4020
  283MOL0     H39038   2.234   8.565   3.765  0.4232  0.1967  0.1612
  283MOL0     H39039   2.277   8.433   3.946 -0.8702  0.7631 -3.4442
  283MOL0     H39040   2.491   8.114   4.212 -2.1724  0.3279 -0.7231
  283MOL0     H39041   2.472   7.968   4.395 -0.6956 -0.2884  0.1899
  283MOL0     H39042   2.321   7.866   4.589 -0.9687 -1.0033  0.7750
  283MOL0     H39043   2.492   7.904   4.621 -1.2624 -0.4506  0.1764
  283MOL0     H39044   2.311   7.919   4.871  0.3764 -2.2444  1.0936
  283MOL0     H39045   2.482   7.905   4.863  0.5121 -1.1653 -1.5444
  283MOL0     H39046   2.292   7.706   4.752  0.3596 -2.0558  0.4987
  283MOL0     H39047   2.465   7.687   4.764 -0.3354  1.2143 -2.0242
  283MOL0     H39048   2.369   7.747   5.028  1.0941 -0.8014  0.2491
  283MOL0     H39049   2.470   7.613   4.975  0.0414 -0.7211 -1.8270
  283MOL0     H39050   2.059   7.472   5.012 -0.8730  0.4521 -1.2331
  283MOL0     H39051   2.287   8.292   4.617  0.0791 -2.6530  2.1438
  283MOL0     H39052   2.274   8.519   4.353 -0.9539 -2.0094 -1.3268
  283MOL0     H39053   2.249   8.491   4.525 -1.2286  0.3776 -1.5901
  283MOL0     H39054   2.411   8.541   4.464  0.1994  0.6420 -1.0715
  284MOL0     O39055   5.594   5.376  11.035 -0.3546 -0.1924 -0.6756
  284MOL0     C39056   5.579   5.293  10.946 -0.4447  0.6786 -0.4981
  284MOL0     O39057   5.512   5.311  10.827 -0.6494 -0.4926  1.0895
  284MOL0     C39058   5.447   5.431  10.819  0.3372  0.8680 -0.5976
  284MOL0     C39059   5.487   5.550  10.765 -1.1851  0.6867  1.0064
  284MOL0     C39060   5.409   5.663  10.764  0.7677 -0.1768 -0.6775
  284MOL0     C39061   5.283   5.664  10.825 -0.8151  0.2559  0.5052
  284MOL0     O39062   5.216   5.788  10.861  0.2111  0.8727  0.7033
  284MOL0     C39063   5.275   5.916  10.834  0.1192  0.2574 -0.4543
  284MOL0     C39064   5.196   6.032  10.893 -0.1051  0.6332 -1.3148
  284MOL0     C39065   5.194   6.011  11.045 -0.4894  0.2255 -0.2015
  284MOL0     C39066   5.092   6.093  11.118 -1.0565  0.3580  0.2578
  284MOL0     C39067   5.106   6.243  11.103  0.3425 -0.3657 -0.3331
  284MOL0     C39068   5.004   6.313  11.189 -0.3091 -0.4974  0.0432
  284MOL0     C39069   5.043   6.462  11.219  0.6204 -0.6095 -0.4286
  284MOL0     C39070   5.027   6.546  11.097  0.4279 -0.0156  0.1858
  284MOL0     N39071   4.964   6.679  11.116 -0.1803 -0.7612  0.3459
  284MOL0     C39072   4.833   6.704  11.079 -0.0553 -0.5106 -0.3555
  284MOL0     C39073   4.833   6.840  11.080  0.2892  0.3749  0.5150
  284MOL0     C39074   4.707   6.929  11.044  0.4637  0.5372 -0.3655
  284MOL0     C39075   4.750   7.071  11.050  0.3514  0.2831 -1.1678
  284MOL0     C39076   4.649   7.173  11.101  0.5059 -0.0827  0.5189
  284MOL0     C39077   4.517   7.162  11.038 -0.4583 -0.2620  0.3406
  284MOL0     O39078   4.426   7.270  11.071  0.2209  0.8061 -0.4336
  284MOL0     C39079   4.329   7.297  10.975  0.7955  0.6837 -0.0842
  284MOL0     C39080   4.292   7.222  10.868 -0.1939  0.3569  0.5640
  284MOL0     C39081   4.197   7.260  10.769  0.7734 -0.3949  0.3226
  284MOL0     C39082   4.158   7.163  10.666  0.4318  0.7213 -0.1487
  284MOL0     C39083   4.127   7.391  10.791  0.2802  0.4392  0.1184
  284MOL0     C39084   4.014   7.445  10.700  0.1413  0.4956  0.1380
  284MOL0     O39085   4.043   7.450  10.568 -0.1238  0.6311  0.3319
  284MOL0     C39086   3.947   7.474  10.480  0.7522  0.0205  0.5617
  284MOL0     C39087   3.807   7.426  10.486 -0.5217  0.1513 -0.4892
  284MOL0     C39088   3.712   7.461  10.392 -0.6066  0.0282 -0.9975
  284MOL0     C39089   3.755   7.518  10.278  0.7542 -0.2669  0.9520
  284MOL0     O39090   3.665   7.542  10.172 -0.6776 -1.0328 -0.0854
  284MOL0     C39091   3.668   7.454  10.058 -0.3094 -0.0880 -0.1226
  284MOL0     C39092   3.523   7.430  10.007  0.1060 -0.5671 -0.5875
  284MOL0     C39093   3.451   7.339  10.102  0.3693 -0.4685 -0.1915
  284MOL0     C39094   3.307   7.317  10.045 -0.5190  0.0747 -0.4040
  284MOL0     C39095   3.201   7.302  10.148 -0.3142 -0.3846  0.4633
  284MOL0     C39096   3.054   7.288  10.096 -0.3454 -0.5503 -0.4793
  284MOL0     C39097   2.943   7.265  10.198  0.6745  0.6233 -0.8121
  284MOL0     C39098   2.818   7.348  10.176 -0.0983 -0.7261 -0.1405
  284MOL0    Cl39099   2.719   7.290  10.023 -0.0328 -0.1172  0.1640
  284MOL0     C39100   3.885   7.551  10.264  0.8987 -0.5642 -0.4942
  284MOL0     C39101   3.985   7.535  10.361 -1.4914  1.5226  0.5828
  284MOL0     O39102   3.906   7.481  10.747 -0.5241  0.2397 -0.5804
  284MOL0     C39103   4.167   7.471  10.899 -1.5271  0.8207 -1.1348
  284MOL0     C39104   4.263   7.419  10.991 -0.3732 -0.8866  0.4986
  284MOL0     N39105   4.960   6.885  11.111 -0.2164  0.2639  0.2493
  284MOL0     N39106   5.041   6.790  11.125  0.4980 -0.9645 -0.0756
  284MOL0     C39107   5.240   5.538  10.882  0.4649  0.0983 -0.5868
  284MOL0     C39108   5.319   5.421  10.886  0.7434  0.0838  0.2791
  284MOL0     C39109   5.649   5.160  10.957  0.1852 -0.3805 -0.8656
  284MOL0     C39110   5.613   5.063  10.866  0.0778 -0.1165  0.2867
  284MOL0     C39111   5.682   4.942  10.866  0.2355  0.2546 -0.1952
  284MOL0     C39112   5.771   4.905  10.964  0.4862  0.2349 -0.3423
  284MOL0     O39113   5.809   4.775  10.943 -0.6549  0.4774  0.5180
  284MOL0     C39114   5.911   4.715  11.024  0.0838  0.1175 -0.2820
  284MOL0     C39115   5.931   4.586  10.942 -0.7214 -0.1010  0.6519
  284MOL0     C39116   6.045   4.604  10.836 -0.3029  0.4350 -0.2757
  284MOL0     C39117   6.080   4.472  10.762 -0.3951  0.3084  0.5317
  284MOL0     C39118   6.003   4.448  10.644  0.1611  0.3109  0.4808
  284MOL0     C39119   5.930   4.439  10.546 -0.2133  0.3606 -0.8998
  284MOL0     C39120   5.804   5.002  11.067  0.2795  0.0984  0.0797
  284MOL0     C39121   5.739   5.126  11.068  0.0362 -0.0087  0.5480
  284MOL0     C39122   5.792   5.213  11.177  0.1062  0.5913  0.0344
  284MOL0     H39123   5.585   5.561  10.720  0.1146 -0.3294  3.4556
  284MOL0     H39124   5.459   5.750  10.723  0.3753  0.4913  0.2030
  284MOL0     H39125   5.289   5.935  10.727  1.2095 -0.8448 -0.5247
  284MOL0     H39126   5.381   5.908  10.861  0.3004  0.6204 -1.0493
  284MOL0     H39127   5.241   6.129  10.870  3.1593 -0.2774  0.4905
  284MOL0     H39128   5.093   6.035  10.856  0.6427  0.1037 -3.5944
  284MOL0     H39129   5.165   5.909  11.071 -1.4715  0.2028 -1.2726
  284MOL0     H39130   5.300   6.009  11.072 -0.3733  0.1759 -0.6397
  284MOL0     H39131   4.990   6.065  11.087 -1.6675  1.1640  1.4861
  284MOL0     H39132   5.100   6.077  11.225 -1.3944 -0.6123  0.1512
  284MOL0     H39133   5.091   6.264  10.996 -0.2936  0.5616 -0.0756
  284MOL0     H39134   5.204   6.286  11.125 -0.7797  2.7040 -0.8210
  284MOL0     H39135   4.902   6.297  11.152  0.3486 -1.4080 -1.4717
  284MOL0     H39136   5.008   6.253  11.280 -0.1935 -2.9612 -1.4896
  284MOL0     H39137   5.142   6.483  11.260 -0.4883  1.8969  1.2107
  284MOL0     H39138   4.970   6.495  11.294 -0.4553 -0.7127 -1.3923
  284MOL0     H39139   5.128   6.544  11.055  0.7668 -2.0081  0.9691
  284MOL0     H39140   4.948   6.504  11.034 -2.3326  3.7937  0.7637
  284MOL0     H39141   4.746   6.643  11.053 -0.3910 -0.0775 -0.2654
  284MOL0     H39142   4.622   6.904  11.108  0.2148  0.7656 -0.6040
  284MOL0     H39143   4.679   6.910  10.940 -1.0317  1.1519 -0.1152
  284MOL0     H39144   4.841   7.093  11.106 -1.9904 -1.1689  3.7688
  284MOL0     H39145   4.767   7.103  10.947 -2.5758  3.5373 -0.8012
  284MOL0     H39146   4.634   7.175  11.209 -2.8530  0.9917  0.1436
  284MOL0     H39147   4.694   7.262  11.057  2.3973 -1.8673 -1.4500
  284MOL0     H39148   4.523   7.163  10.928 -0.9246  1.1280  0.3025
  284MOL0     H39149   4.471   7.068  11.069 -0.9064 -0.3324 -0.4939
  284MOL0     H39150   4.337   7.124  10.849 -0.5498  0.4283 -0.7993
  284MOL0     H39151   4.057   7.125  10.686 -0.7006  0.9388 -4.4142
  284MOL0     H39152   4.221   7.075  10.654 -1.8491 -1.0769  0.2449
  284MOL0     H39153   4.167   7.208  10.566  2.6727  0.0083 -0.3152
  284MOL0     H39154   3.772   7.372  10.573 -0.5236 -1.5874 -1.5136
  284MOL0     H39155   3.610   7.432  10.415  0.0648 -1.4929  0.2093
  284MOL0     H39156   3.712   7.513   9.978 -4.0032 -0.1741 -2.4303
  284MOL0     H39157   3.734   7.368  10.074 -1.0082 -0.5000  0.6514
  284MOL0     H39158   3.478   7.527  10.029  1.6849  0.7060 -2.5813
  284MOL0     H39159   3.531   7.409   9.900  0.0371 -1.7576 -0.3773
  284MOL0     H39160   3.466   7.381  10.202  0.6215 -0.6637 -0.1463
  284MOL0     H39161   3.502   7.243  10.093 -0.4073 -0.7802 -1.6506
  284MOL0     H39162   3.316   7.229   9.981  1.0181  0.5082 -0.8512
  284MOL0     H39163   3.289   7.396   9.971 -0.5844  1.7638  1.3490
  284MOL0     H39164   3.213   7.209  10.202 -0.4551 -1.6148 -1.5188
  284MOL0     H39165   3.214   7.391  10.210 -1.1664 -0.6225  0.9998
  284MOL0     H39166   3.066   7.203  10.028  0.2587 -0.4620 -0.4911
  284MOL0     H39167   3.025   7.375  10.036  0.3248  0.2273  0.2885
  284MOL0     H39168   2.976   7.292  10.299 -1.2918  3.1159 -0.7299
  284MOL0     H39169   2.922   7.158  10.186  0.6551  0.8119 -2.9193
  284MOL0     H39170   2.855   7.451  10.169  2.2352 -1.6088 -4.4396
  284MOL0     H39171   2.745   7.341  10.257 -1.9161 -2.1723 -1.7854
  284MOL0     H39172   3.900   7.604  10.171  0.9114 -0.0936 -0.2247
  284MOL0     H39173   4.088   7.562  10.340 -1.3478 -1.5853 -4.3696
  284MOL0     H39174   4.125   7.569  10.917 -0.7601  1.5936 -3.2247
  284MOL0     H39175   4.296   7.478  11.075 -1.0612  3.1501 -1.8225
  284MOL0     H39176   5.158   5.551  10.953  2.2071  2.0383  1.2019
  284MOL0     H39177   5.274   5.327  10.914 -3.5213  1.2531 -1.7886
  284MOL0     H39178   5.545   5.072  10.782  1.4323 -0.9708 -0.9450
  284MOL0     H39179   5.660   4.865  10.794 -0.3024 -3.5569  3.6576
  284MOL0     H39180   6.004   4.771  11.034  0.9375 -1.4317  0.8140
  284MOL0     H39181   5.867   4.683  11.119  0.3950  1.2276  0.2448
  284MOL0     H39182   5.840   4.558  10.889 -0.2191 -1.6511  0.5560
  284MOL0     H39183   5.954   4.497  11.001 -1.4336 -0.2379  0.7345
  284MOL0     H39184   6.010   4.680  10.766  1.4101 -0.5380 -2.3207
  284MOL0     H39185   6.137   4.644  10.881 -0.4411 -0.0132  0.4089
  284MOL0     H39186   6.101   4.390  10.832 -0.0994 -1.0153 -1.0589
  284MOL0     H39187   6.180   4.482  10.719  0.5575  0.0846  2.5879
  284MOL0     H39188   5.886   4.440  10.448 -0.2570  1.1019 -0.8777
  284MOL0     H39189   5.889   4.980  11.130  2.1148  0.2991 -2.2128
  284MOL0     H39190   5.831   5.303  11.129  2.5183 -0.4714 -0.1163
  284MOL0     H39191   5.710   5.233  11.248  0.5608 -1.2979  1.1664
  284MOL0     H39192   5.877   5.173  11.233 -0.6389  1.2318  1.6904
  285MOL0     O39193   4.848   1.915  10.222  0.1855  0.2197 -0.3059
  285MOL0     C39194   4.873   1.822  10.304  0.2351  0.7354  0.5254
  285MOL0     O39195   4.781   1.733  10.350  0.3139  0.3908  0.3367
  285MOL0     C39196   4.648   1.751  10.315  0.0078 -0.0494  0.2359
  285MOL0     C39197   4.573   1.861  10.345  0.3280 -0.2366 -0.7870
  285MOL0     C39198   4.435   1.870  10.310 -0.1848  0.3052  0.5974
  285MOL0     C39199   4.372   1.748  10.268 -0.5611  0.2330 -0.2358
  285MOL0     O39200   4.241   1.756  10.260  0.5392 -0.5650  1.1284
  285MOL0     C39201   4.161   1.796  10.376  0.5057  0.5999  0.2152
  285MOL0     C39202   4.019   1.807  10.321 -0.2826 -1.4780  1.9111
  285MOL0     C39203   3.922   1.909  10.404 -0.5602  0.0557 -0.5540
  285MOL0     C39204   3.785   1.879  10.392  0.6521  0.2213 -0.4834
  285MOL0     C39205   3.701   1.993  10.462 -0.6173  0.0233 -0.1248
  285MOL0     C39206   3.550   1.967  10.470  0.6351  0.1216  0.2485
  285MOL0     C39207   3.520   1.900  10.601 -0.3843  0.9150  0.2726
  285MOL0     C39208   3.527   1.995  10.721  0.8482  0.1348  0.1427
  285MOL0     N39209   3.452   1.951  10.842  0.0371 -0.2503  0.5702
  285MOL0     C39210   3.444   1.836  10.921 -0.0677  0.0445 -0.1340
  285MOL0     C39211   3.357   1.871  11.015 -0.8345 -0.0127  0.1620
  285MOL0     C39212   3.315   1.771  11.120 -0.4276  0.3601  1.5538
  285MOL0     C39213   3.356   1.832  11.256  0.0890  0.5148 -0.4366
  285MOL0     C39214   3.512   1.844  11.288  0.1634 -0.0062  0.4188
  285MOL0     C39215   3.544   1.930  11.414 -0.3930 -0.3925 -0.5811
  285MOL0     O39216   3.682   1.931  11.425 -0.5257 -0.6875 -0.0174
  285MOL0     C39217   3.740   2.006  11.525  0.2309  0.6330 -1.1747
  285MOL0     C39218   3.686   2.122  11.576  0.1334  0.5734 -0.2260
  285MOL0     C39219   3.760   2.210  11.668 -0.1061  0.9451  0.1171
  285MOL0     C39220   3.688   2.328  11.715 -0.6128 -0.1961  0.1494
  285MOL0     C39221   3.900   2.183  11.696  0.0301 -0.0820 -0.3194
  285MOL0     C39222   3.995   2.265  11.779 -0.1625 -0.3036 -0.0787
  285MOL0     O39223   4.124   2.219  11.797  0.2099  0.3199  0.4038
  285MOL0     C39224   4.222   2.307  11.826 -0.9289  0.3514  0.0390
  285MOL0     C39225   4.319   2.356  11.722  0.6188  0.5701 -0.3359
  285MOL0     C39226   4.428   2.441  11.756  0.2446 -0.5695 -0.6233
  285MOL0     C39227   4.428   2.498  11.889 -0.6002  0.3643 -0.0871
  285MOL0     O39228   4.517   2.593  11.918 -0.1117 -0.2615 -0.1339
  285MOL0     C39229   4.508   2.702  11.835  0.3519  0.0389 -0.4148
  285MOL0     C39230   4.589   2.816  11.883 -0.4413 -0.2760 -0.6494
  285MOL0     C39231   4.544   2.886  12.022 -0.1289 -0.6404 -0.0407
  285MOL0     C39232   4.598   2.805  12.139 -0.0005  0.0321 -1.1587
  285MOL0     C39233   4.558   2.865  12.273  0.4445 -0.0840 -0.8676
  285MOL0     C39234   4.609   3.009  12.306  0.4759 -0.2472  1.2231
  285MOL0     C39235   4.555   3.054  12.443 -0.0471 -0.4249  0.1662
  285MOL0     C39236   4.621   3.190  12.484 -0.0263 -0.1144  0.0805
  285MOL0    Cl39237   4.625   3.308  12.347 -0.0719 -0.0072  0.1209
  285MOL0     C39238   4.335   2.455  11.982  0.0608  0.3295 -0.1997
  285MOL0     C39239   4.228   2.370  11.949 -0.2881  1.0568 -0.2929
  285MOL0     O39240   3.961   2.380  11.796  0.2064 -0.1005 -0.6012
  285MOL0     C39241   3.952   2.067  11.640  0.1317  0.5253 -0.8533
  285MOL0     C39242   3.870   1.974  11.564 -0.8988 -0.1236 -0.2926
  285MOL0     N39243   3.295   1.995  10.988 -0.3067  0.0584 -1.2406
  285MOL0     N39244   3.373   2.041  10.894  0.7974 -1.2550  1.7428
  285MOL0     C39245   4.451   1.634  10.235 -0.0466 -0.4578 -0.0347
  285MOL0     C39246   4.595   1.644  10.249  1.4061 -0.6510  1.4270
  285MOL0     C39247   5.010   1.819  10.356 -0.0318 -0.1113  0.6214
  285MOL0     C39248   5.084   1.700  10.345  0.0422  0.7070  0.0472
  285MOL0     C39249   5.215   1.701  10.378 -0.0751  0.9830  0.0616
  285MOL0     C39250   5.274   1.806  10.439 -0.0113 -0.7228  1.2805
  285MOL0     O39251   5.402   1.790  10.479 -0.3693  0.2797 -0.0862
  285MOL0     C39252   5.488   1.904  10.515 -0.4786  0.3290  0.8273
  285MOL0     C39253   5.634   1.856  10.514  0.8221  0.4102  0.1870
  285MOL0     C39254   5.662   1.726  10.437 -0.0344 -0.4402  0.1542
  285MOL0     C39255   5.814   1.704  10.422  1.0158  0.2808  0.1046
  285MOL0     C39256   5.885   1.810  10.344  0.6068  0.7059  0.4839
  285MOL0     C39257   5.953   1.888  10.275  0.0994 -0.0700  0.2440
  285MOL0     C39258   5.207   1.934  10.440 -0.6422  0.5630  0.5285
  285MOL0     C39259   5.067   1.938  10.408 -0.1814 -0.6655 -0.5768
  285MOL0     C39260   4.986   2.065  10.418  0.1613  0.0407 -0.5197
  285MOL0     H39261   4.618   1.938  10.406  2.1517 -0.6768 -1.5320
  285MOL0     H39262   4.375   1.960  10.322 -0.8714  0.0165 -0.5592
  285MOL0     H39263   4.181   1.899  10.407 -1.7389  0.1025  4.0269
  285MOL0     H39264   4.164   1.731  10.464 -2.8176 -1.5507 -1.0912
  285MOL0     H39265   4.032   1.854  10.223 -0.0149 -0.9267  2.2071
  285MOL0     H39266   3.970   1.710  10.308 -0.7689 -1.0644  0.4044
  285MOL0     H39267   3.947   1.901  10.510 -1.9343  2.1673 -0.0092
  285MOL0     H39268   3.935   2.011  10.368 -0.2623 -0.0342 -0.7024
  285MOL0     H39269   3.757   1.873  10.287  0.1238  1.5231 -0.4365
  285MOL0     H39270   3.762   1.792  10.455 -1.1483  2.5125  2.2571
  285MOL0     H39271   3.719   2.083  10.403  0.3416  0.7893  1.2873
  285MOL0     H39272   3.739   2.013  10.562  0.3369  0.7103 -0.6096
  285MOL0     H39273   3.500   2.064  10.459  0.1244 -0.3352 -2.0809
  285MOL0     H39274   3.523   1.909  10.381 -1.2221  2.0082 -0.5172
  285MOL0     H39275   3.567   1.801  10.609 -1.2552  0.4585 -0.1399
  285MOL0     H39276   3.417   1.866  10.604 -0.6205  1.6761  1.0040
  285MOL0     H39277   3.628   2.009  10.759 -0.0687 -1.1911  3.4262
  285MOL0     H39278   3.486   2.089  10.684 -1.9028 -1.2552 -0.6539
  285MOL0     H39279   3.491   1.738  10.910 -1.9463 -0.6448 -3.9822
  285MOL0     H39280   3.379   1.684  11.106  1.1906  1.9699 -2.2387
  285MOL0     H39281   3.210   1.744  11.105  1.1091 -6.1297 -0.7692
  285MOL0     H39282   3.316   1.932  11.271  2.4367  1.5960 -1.0143
  285MOL0     H39283   3.307   1.755  11.317 -1.1027  0.8562 -0.9350
  285MOL0     H39284   3.559   1.747  11.304  2.4937  0.8516 -0.7689
  285MOL0     H39285   3.567   1.881  11.201  2.6346  1.2560  2.3803
  285MOL0     H39286   3.501   2.030  11.408  0.5980  0.3881  2.8921
  285MOL0     H39287   3.500   1.878  11.499  1.8468 -2.2249 -0.4213
  285MOL0     H39288   3.590   2.156  11.539 -1.2505 -3.4115 -0.7626
  285MOL0     H39289   3.580   2.315  11.710 -0.4856 -0.8739 -1.2927
  285MOL0     H39290   3.723   2.418  11.664  3.0067  1.7206  5.1558
  285MOL0     H39291   3.707   2.339  11.822 -0.8465 -4.5872  0.8455
  285MOL0     H39292   4.317   2.329  11.617  2.6754  3.0953 -1.1419
  285MOL0     H39293   4.501   2.469  11.681 -0.9876  2.3662 -0.8859
  285MOL0     H39294   4.543   2.677  11.734 -3.2478 -0.6305 -1.6363
  285MOL0     H39295   4.403   2.729  11.819 -0.1347 -2.2340 -1.5432
  285MOL0     H39296   4.697   2.802  11.884  0.1497  3.2053  1.6628
  285MOL0     H39297   4.563   2.901  11.819 -0.8782  1.1687  1.3321
  285MOL0     H39298   4.436   2.898  12.026 -0.4439 -2.5907 -1.2853
  285MOL0     H39299   4.581   2.989  12.015  1.4431 -1.2550 -1.4925
  285MOL0     H39300   4.707   2.810  12.134 -0.0060  1.2724 -0.4244
  285MOL0     H39301   4.564   2.701  12.142 -0.9471  0.3367 -1.0328
  285MOL0     H39302   4.449   2.859  12.279  0.5294 -4.9933  0.7130
  285MOL0     H39303   4.600   2.792  12.343  0.2519 -3.2000 -3.7454
  285MOL0     H39304   4.561   3.074  12.233 -1.8834 -1.7679  1.2892
  285MOL0     H39305   4.716   3.020  12.290  1.0766 -2.8800  2.8042
  285MOL0     H39306   4.570   2.983  12.525  0.4571  0.6519  1.0287
  285MOL0     H39307   4.449   3.078  12.435 -0.2781 -0.9389  1.4456
  285MOL0     H39308   4.719   3.166  12.524 -0.4514 -0.8543  0.7087
  285MOL0     H39309   4.559   3.245  12.556  1.5116  2.5708 -0.4872
  285MOL0     H39310   4.341   2.512  12.074  2.8876  0.1481 -0.1731
  285MOL0     H39311   4.142   2.349  12.012  0.9086 -0.3726  0.8993
  285MOL0     H39312   4.051   2.027  11.663 -0.3736 -0.5294 -0.4984
  285MOL0     H39313   3.912   1.879  11.533 -0.0610 -0.8369  2.6709
  285MOL0     H39314   4.398   1.545  10.203 -1.2103 -0.5069  1.8711
  285MOL0     H39315   4.660   1.558  10.247  1.5840 -0.4989  0.6036
  285MOL0     H39316   5.049   1.607  10.301  0.8922 -1.0964  2.8854
  285MOL0     H39317   5.261   1.606  10.355 -0.2156  1.3730 -2.0707
  285MOL0     H39318   5.499   1.969  10.427  0.0337  1.5718  1.7912
  285MOL0     H39319   5.442   1.961  10.596 -1.6569  4.3627 -2.2941
  285MOL0     H39320   5.649   1.831  10.619  1.3773  1.9913  0.5119
  285MOL0     H39321   5.704   1.936  10.487  1.1438  0.0390 -0.1048
  285MOL0     H39322   5.624   1.647  10.503  0.5755 -1.7357 -1.0000
  285MOL0     H39323   5.604   1.724  10.344  0.0332  1.3873  0.0351
  285MOL0     H39324   5.828   1.607  10.373 -0.2656  0.2690 -0.2756
  285MOL0     H39325   5.849   1.700  10.525  1.8127  0.2965 -0.1597
  285MOL0     H39326   6.018   1.959  10.227 -0.8531  1.4899  1.1596
  285MOL0     H39327   5.257   2.022  10.478 -0.0056  1.4786 -2.2153
  285MOL0     H39328   4.877   2.058  10.410  0.1879 -1.1765 -0.0572
  285MOL0     H39329   4.997   2.120  10.511 -0.3348 -2.1841  0.9396
  285MOL0     H39330   5.019   2.134  10.340 -0.7178  0.7145 -0.3087
  286MOL0     O39331   7.556   0.401   1.153 -0.2769  0.2550 -0.6998
  286MOL0     C39332   7.452   0.351   1.106  0.1457  0.5303 -1.5414
  286MOL0     O39333   7.435   0.314   0.981 -0.5568  0.7098  0.2214
  286MOL0     C39334   7.553   0.325   0.911 -0.1989 -0.8938 -1.3424
  286MOL0     C39335   7.587   0.443   0.842  0.3086 -0.3496  0.9699
  286MOL0     C39336   7.696   0.444   0.749 -0.3290  0.6090  0.4222
  286MOL0     C39337   7.781   0.332   0.738 -1.3915 -0.8071 -0.6943
  286MOL0     O39338   7.888   0.344   0.660 -0.6916  0.6370 -0.2052
  286MOL0     C39339   7.948   0.220   0.605  0.2215  0.1288 -0.1605
  286MOL0     C39340   8.054   0.266   0.505 -0.0086  0.1812 -1.1566
  286MOL0     C39341   8.113   0.157   0.412  0.4097 -0.5103  0.6119
  286MOL0     C39342   8.232   0.085   0.462 -0.0193  0.1987 -1.0014
  286MOL0     C39343   8.312  -0.005   0.363  0.9174 -0.1006  0.3113
  286MOL0     C39344   8.446  -0.055   0.414  0.9024  0.6677  0.2702
  286MOL0     C39345   8.499  -0.179   0.340  0.3104  0.6224  0.3839
  286MOL0     C39346   8.553  -0.135   0.207 -0.4110  0.2316  0.6269
  286MOL0     N39347   8.667  -0.032   0.191  0.0100  0.2393 -0.1208
  286MOL0     C39348   8.794  -0.049   0.231 -0.0837 -0.1423  0.2605
  286MOL0     C39349   8.859   0.063   0.189 -0.4819 -0.4573 -0.1744
  286MOL0     C39350   9.013   0.075   0.203  0.3907  0.4182  0.1828
  286MOL0     C39351   9.090   0.007   0.085 -0.7814  0.1871 -0.1768
  286MOL0     C39352   9.066   0.080  -0.046 -0.1098  0.0969  0.4894
  286MOL0     C39353   9.199   0.089  -0.131 -0.0427 -0.0157  0.5255
  286MOL0     O39354   9.266  -0.042  -0.139  0.0503 -0.0143 -0.0308
  286MOL0     C39355   9.379  -0.062  -0.206  0.6575  0.4384  0.3065
  286MOL0     C39356   9.426  -0.189  -0.219  0.1616  0.5853 -0.1664
  286MOL0     C39357   9.544  -0.226  -0.278 -0.3567 -0.5177 -0.5832
  286MOL0     C39358   9.572  -0.368  -0.292 -0.4894  0.8672 -0.0789
  286MOL0     C39359   9.627  -0.123  -0.338  0.6087 -0.2380  0.8065
  286MOL0     C39360   9.751  -0.136  -0.418 -0.5385  0.2553  0.4148
  286MOL0     O39361   9.742  -0.239  -0.511  0.8339 -0.1565  0.2676
  286MOL0     C39362   9.852  -0.306  -0.574  0.0193 -0.4516  0.7173
  286MOL0     C39363   9.991  -0.278  -0.561  0.9581  0.4188  0.6847
  286MOL0     C39364  10.077  -0.368  -0.622  0.4219  0.9461 -0.6703
  286MOL0     C39365  10.044  -0.477  -0.693 -0.5082 -0.2411 -0.7220
  286MOL0     O39366  10.125  -0.561  -0.760  0.1456  0.4085 -1.1606
  286MOL0     C39367  10.267  -0.558  -0.747  0.2322 -0.1487  0.2946
  286MOL0     C39368  10.323  -0.639  -0.858  0.3433 -0.3097  0.2963
  286MOL0     C39369  10.325  -0.788  -0.860 -0.3015  0.4351 -1.0956
  286MOL0     C39370  10.180  -0.847  -0.890 -0.0666  0.0520 -0.0107
  286MOL0     C39371  10.185  -0.995  -0.860 -0.8916  0.6495 -0.5747
  286MOL0     C39372  10.056  -1.070  -0.861  0.2316 -0.4789 -0.1543
  286MOL0     C39373   9.980  -1.069  -0.725  0.5917 -0.1488  0.2115
  286MOL0     C39374   9.870  -1.171  -0.724 -0.3264  0.6144 -0.6244
  286MOL0    Cl39375   9.750  -1.109  -0.835 -0.1621 -0.1487 -0.0487
  286MOL0     C39376   9.907  -0.503  -0.702  0.2143 -0.0333  0.0955
  286MOL0     C39377   9.811  -0.422  -0.650 -0.2762 -0.0989 -0.5566
  286MOL0     O39378   9.846  -0.056  -0.411  0.9801  1.0420  0.1576
  286MOL0     C39379   9.581   0.010  -0.324 -0.9689  0.0974 -0.2987
  286MOL0     C39380   9.462   0.042  -0.259  0.5776  0.1607 -0.2467
  286MOL0     N39381   8.773   0.149   0.120  0.8867  0.5189  0.5098
  286MOL0     N39382   8.661   0.088   0.119  0.3434 -0.0586  0.3214
  286MOL0     C39383   7.756   0.216   0.816 -0.8819 -0.9040 -0.0239
  286MOL0     C39384   7.642   0.218   0.892 -0.4713 -0.5469  0.6912
  286MOL0     C39385   7.339   0.332   1.201 -0.6147 -0.7183 -0.1646
  286MOL0     C39386   7.219   0.418   1.188 -0.5246  1.3037 -1.2033
  286MOL0     C39387   7.113   0.411   1.283  0.1727  0.6035  0.0891
  286MOL0     C39388   7.128   0.327   1.393  0.4282 -0.0681  0.6970
  286MOL0     O39389   7.043   0.312   1.501  0.0596  0.0308  0.3202
  286MOL0     C39390   6.912   0.370   1.497  0.1409 -0.3854  1.0684
  286MOL0     C39391   6.799   0.272   1.427 -0.2462 -1.0072 -0.1014
  286MOL0     C39392   6.658   0.333   1.428  0.0982  0.8640 -0.2185
  286MOL0     C39393   6.642   0.470   1.381 -0.5518  0.3898  0.3025
  286MOL0     C39394   6.657   0.477   1.236  0.3625  0.6946 -0.9543
  286MOL0     C39395   6.662   0.452   1.118 -0.1547  0.7352 -0.3420
  286MOL0     C39396   7.243   0.243   1.404  0.2657 -1.1827 -0.0261
  286MOL0     C39397   7.349   0.239   1.309 -0.3818  0.8091 -0.5137
  286MOL0     C39398   7.469   0.143   1.341 -0.7553  0.9352  0.3329
  286MOL0     H39399   7.529   0.534   0.831  0.5989 -0.2537  0.1300
  286MOL0     H39400   7.710   0.529   0.682 -2.1737  0.4078 -0.3077
  286MOL0     H39401   7.862   0.170   0.559  2.0707 -2.2299 -1.2032
  286MOL0     H39402   7.999   0.160   0.680  1.1602  2.0537  0.8369
  286MOL0     H39403   8.014   0.342   0.438 -0.8401  0.5818 -0.2149
  286MOL0     H39404   8.133   0.318   0.561 -0.6910 -0.6177  0.6260
  286MOL0     H39405   8.034   0.083   0.398 -0.0477 -0.2258  1.6356
  286MOL0     H39406   8.138   0.208   0.319  1.2850  0.5357  1.3937
  286MOL0     H39407   8.300   0.163   0.498  0.0175 -0.0658 -0.4801
  286MOL0     H39408   8.206   0.031   0.554  0.4989  3.9165  1.5780
  286MOL0     H39409   8.330   0.049   0.269  0.4159  1.3823  1.0377
  286MOL0     H39410   8.243  -0.087   0.340  2.8884 -1.7804  0.1902
  286MOL0     H39411   8.525   0.021   0.402  0.1772  1.3260 -0.4051
  286MOL0     H39412   8.436  -0.080   0.520 -0.2586  2.4273  0.6193
  286MOL0     H39413   8.422  -0.253   0.317 -1.1599  2.0422  0.5262
  286MOL0     H39414   8.569  -0.238   0.399 -0.7587 -1.6094 -0.4483
  286MOL0     H39415   8.598  -0.215   0.147 -1.5753  1.9070 -2.7394
  286MOL0     H39416   8.471  -0.112   0.139  0.1722 -3.7337 -1.7206
  286MOL0     H39417   8.825  -0.141   0.279 -0.1701 -1.0758 -1.4096
  286MOL0     H39418   9.043   0.033   0.299 -1.5075  0.7793  0.9903
  286MOL0     H39419   9.051   0.177   0.217  1.2321 -0.0870  1.7707
  286MOL0     H39420   9.190   0.025   0.126 -1.3951  3.4437  0.1723
  286MOL0     H39421   9.076  -0.100   0.072  0.7922 -0.0277 -0.3036
  286MOL0     H39422   8.983   0.026  -0.092 -0.6649 -0.5030  2.1473
  286MOL0     H39423   9.024   0.182  -0.042 -0.5143  0.0345 -1.2537
  286MOL0     H39424   9.181   0.132  -0.230 -1.7052  1.0440  1.2411
  286MOL0     H39425   9.267   0.156  -0.078  0.7462 -1.0445  0.8444
  286MOL0     H39426   9.373  -0.269  -0.168  1.0650  0.4486  0.6066
  286MOL0     H39427   9.491  -0.436  -0.264  2.5348 -2.2126  2.1321
  286MOL0     H39428   9.661  -0.390  -0.232  0.0487 -0.4306 -1.2932
  286MOL0     H39429   9.596  -0.396  -0.395  0.0115  2.6638 -0.4797
  286MOL0     H39430  10.032  -0.192  -0.508  1.1541  1.7318 -1.4963
  286MOL0     H39431  10.183  -0.352  -0.603  0.0988 -0.0870  2.7816
  286MOL0     H39432  10.305  -0.455  -0.757 -1.6863  0.3861 -3.1137
  286MOL0     H39433  10.303  -0.609  -0.657  1.8116  1.8541  0.8854
  286MOL0     H39434  10.281  -0.600  -0.951  2.3789  0.6685 -0.2865
  286MOL0     H39435  10.430  -0.617  -0.857  1.1783 -3.6082  2.3032
  286MOL0     H39436  10.366  -0.811  -0.762  0.0642  1.6896 -0.9460
  286MOL0     H39437  10.395  -0.830  -0.933  0.8127  2.5409 -1.3019
  286MOL0     H39438  10.170  -0.817  -0.994  2.7002  3.7712  0.6008
  286MOL0     H39439  10.096  -0.816  -0.827  0.6882  1.0624  0.5184
  286MOL0     H39440  10.256  -1.034  -0.934  3.4941 -0.3132  3.6557
  286MOL0     H39441  10.233  -1.012  -0.764  0.7435  1.0830 -1.2700
  286MOL0     H39442  10.086  -1.174  -0.878  2.6148  0.0843  0.2799
  286MOL0     H39443   9.996  -1.033  -0.945  0.4746  0.1312 -0.0630
  286MOL0     H39444   9.933  -0.974  -0.700 -0.4667 -0.9167  1.2817
  286MOL0     H39445  10.045  -1.106  -0.645  0.3291  0.0857  0.5340
  286MOL0     H39446   9.823  -1.175  -0.626  1.3888  2.2146  0.3416
  286MOL0     H39447   9.926  -1.263  -0.746  1.3309  0.7048  2.5413
  286MOL0     H39448   9.881  -0.598  -0.747  1.1751 -0.0775 -0.4104
  286MOL0     H39449   9.707  -0.448  -0.670  0.2638 -2.9334 -0.1014
  286MOL0     H39450   9.636   0.100  -0.351  0.8424  0.0110  2.5970
  286MOL0     H39451   9.443   0.148  -0.245 -1.4726 -0.0988 -0.8081
  286MOL0     H39452   7.806   0.120   0.805  1.0724 -0.1827  1.7521
  286MOL0     H39453   7.609   0.125   0.937 -1.1715 -0.2372  0.8236
  286MOL0     H39454   7.204   0.479   1.100 -1.5611  1.3938 -0.9744
  286MOL0     H39455   7.033   0.484   1.273  0.4555  0.9727  0.4833
  286MOL0     H39456   6.877   0.396   1.597 -2.8369 -0.5522  0.1588
  286MOL0     H39457   6.915   0.462   1.439  1.0690 -1.9735 -1.5805
  286MOL0     H39458   6.794   0.175   1.478 -1.0611 -0.4157  0.9695
  286MOL0     H39459   6.818   0.249   1.322 -2.9556 -0.0063 -0.8945
  286MOL0     H39460   6.586   0.260   1.390 -0.8822  1.7220 -0.0411
  286MOL0     H39461   6.626   0.347   1.531 -0.3065  4.4237 -0.6894
  286MOL0     H39462   6.709   0.542   1.428  0.4600 -1.8382  2.4594
  286MOL0     H39463   6.536   0.491   1.399 -0.5571 -1.1071  2.3571
  286MOL0     H39464   6.660   0.430   1.013  1.1182  1.4039 -0.5234
  286MOL0     H39465   7.245   0.177   1.491  0.6729  0.0088  0.8825
  286MOL0     H39466   7.460   0.051   1.282  2.5920  1.6569 -1.5506
  286MOL0     H39467   7.557   0.200   1.311 -0.6387  0.9550  0.7120
  286MOL0     H39468   7.472   0.121   1.448  3.4277 -0.5145  0.0910
  287MOL0     O39469   3.323  11.030   4.196  0.7783 -0.2111 -0.3111
  287MOL0     C39470   3.379  11.068   4.297 -0.4362  0.0277  0.0195
  287MOL0     O39471   3.414  11.203   4.329  0.0117  0.6285 -0.4324
  287MOL0     C39472   3.363  11.298   4.240  0.4646  0.3760  0.1581
  287MOL0     C39473   3.417  11.323   4.111  0.3152 -0.1520 -0.1260
  287MOL0     C39474   3.348  11.407   4.023 -0.3987  0.0402  1.5635
  287MOL0     C39475   3.230  11.472   4.060 -0.2117 -0.1487 -0.3343
  287MOL0     O39476   3.150  11.527   3.969 -0.1376 -0.5822  0.3208
  287MOL0     C39477   3.108  11.664   4.014  0.2578  0.6443 -0.5945
  287MOL0     C39478   3.057  11.726   3.887  0.2896  0.9266  0.3788
  287MOL0     C39479   3.016  11.872   3.918 -0.5310  0.0351  0.3414
  287MOL0     C39480   2.908  11.923   3.823  0.4456 -0.0156  0.7463
  287MOL0     C39481   2.860  12.067   3.859 -0.7459 -0.0944 -1.1474
  287MOL0     C39482   2.793  12.117   3.731 -0.7948  0.1544  1.1092
  287MOL0     C39483   2.668  12.049   3.683  0.6682  0.1077 -0.3326
  287MOL0     C39484   2.624  12.118   3.561  0.9384 -0.2365 -0.2346
  287MOL0     N39485   2.504  12.059   3.497 -0.4162  0.5745  0.3501
  287MOL0     C39486   2.510  11.955   3.402 -0.8452 -1.3969  0.1408
  287MOL0     C39487   2.380  11.937   3.378 -0.8964  0.7958 -0.0334
  287MOL0     C39488   2.333  11.826   3.285  0.2570  0.0044  0.5568
  287MOL0     C39489   2.310  11.697   3.355  0.2539  0.0788 -0.6166
  287MOL0     C39490   2.277  11.594   3.262  0.3736  0.0102  0.2726
  287MOL0     C39491   2.395  11.525   3.198 -0.6204 -0.2898  0.2320
  287MOL0     O39492   2.339  11.432   3.102 -0.3413  0.2751 -0.3927
  287MOL0     C39493   2.425  11.372   3.023 -1.0945  1.1023  0.5606
  287MOL0     C39494   2.521  11.431   2.936  0.3488 -0.1586  0.2610
  287MOL0     C39495   2.614  11.358   2.871 -0.2283  0.0904 -0.0554
  287MOL0     C39496   2.723  11.436   2.798 -0.4347 -0.5849  0.2861
  287MOL0     C39497   2.604  11.218   2.867  0.0461  0.2261  0.2146
  287MOL0     C39498   2.688  11.125   2.789 -0.6244 -1.2524  0.8671
  287MOL0     O39499   2.650  11.004   2.762  0.3520 -0.7103  1.1252
  287MOL0     C39500   2.738  10.917   2.708  0.7263 -1.0718  0.2844
  287MOL0     C39501   2.738  10.896   2.573 -0.7807 -0.4353  1.2832
  287MOL0     C39502   2.825  10.802   2.519 -0.9218  0.7313  0.5099
  287MOL0     C39503   2.925  10.737   2.594 -0.5146  0.0206 -0.7822
  287MOL0     O39504   3.013  10.653   2.529 -0.4842 -0.6625 -0.0911
  287MOL0     C39505   3.107  10.565   2.605 -0.3172 -0.4513  0.8301
  287MOL0     C39506   3.258  10.618   2.599  0.1342 -0.5755  0.2982
  287MOL0     C39507   3.377  10.537   2.651  0.2201  0.0711 -0.4693
  287MOL0     C39508   3.503  10.617   2.681 -0.3862 -0.0054 -0.1179
  287MOL0     C39509   3.643  10.551   2.695 -0.2894 -0.0107 -1.3790
  287MOL0     C39510   3.739  10.655   2.735 -0.4865  0.0368 -0.6571
  287MOL0     C39511   3.868  10.579   2.778 -0.7211  0.3687 -0.1179
  287MOL0     C39512   3.991  10.668   2.818 -0.5062 -0.0120 -0.5340
  287MOL0    Cl39513   3.952  10.795   2.945 -0.0362 -0.3663 -0.3881
  287MOL0     C39514   2.919  10.761   2.731 -0.3507  0.2378 -0.2677
  287MOL0     C39515   2.839  10.862   2.787 -0.3975 -0.0248  0.0296
  287MOL0     O39516   2.784  11.178   2.734 -0.2165 -0.1280 -0.1788
  287MOL0     C39517   2.508  11.155   2.944 -0.3035 -0.2359 -0.0196
  287MOL0     C39518   2.418  11.232   3.020  0.1776 -0.7130 -0.0097
  287MOL0     N39519   2.302  12.034   3.435  0.5089 -0.8793 -0.5567
  287MOL0     N39520   2.381  12.112   3.505  0.3679 -0.0028  0.4661
  287MOL0     C39521   3.184  11.446   4.187  0.0846  0.0210 -0.1691
  287MOL0     C39522   3.242  11.358   4.275 -0.1959 -0.6031 -1.3774
  287MOL0     C39523   3.442  10.956   4.387 -0.9541 -0.2741 -0.2782
  287MOL0     C39524   3.458  10.996   4.521 -0.4860  0.3645  0.2316
  287MOL0     C39525   3.494  10.915   4.621 -0.5249  0.7223 -0.4882
  287MOL0     C39526   3.515  10.777   4.587 -0.1116  0.0325 -0.6776
  287MOL0     O39527   3.562  10.678   4.674  0.6617 -0.0595 -0.4734
  287MOL0     C39528   3.554  10.712   4.813  0.0135  0.2417 -0.7256
  287MOL0     C39529   3.609  10.594   4.899 -0.0510 -1.7044  0.0293
  287MOL0     C39530   3.622  10.472   4.816 -0.0944  0.3552  0.5831
  287MOL0     C39531   3.683  10.364   4.907  0.3162 -0.9236 -1.0603
  287MOL0     C39532   3.705  10.236   4.848  0.5555  0.2851  0.0332
  287MOL0     C39533   3.717  10.127   4.794 -0.9085 -0.2226 -0.3196
  287MOL0     C39534   3.513  10.735   4.461  0.8220  0.3071  0.0207
  287MOL0     C39535   3.477  10.822   4.354  0.4376  0.0603 -1.2657
  287MOL0     C39536   3.475  10.766   4.214  0.6603  0.6712  0.7577
  287MOL0     H39537   3.512  11.290   4.070  0.4155  1.6000 -1.4388
  287MOL0     H39538   3.385  11.408   3.921 -0.6958 -1.1814  1.4264
  287MOL0     H39539   3.187  11.725   4.059  0.5457  0.5624 -0.9729
  287MOL0     H39540   3.025  11.655   4.083 -0.9317  1.4704 -1.8636
  287MOL0     H39541   3.114  11.715   3.794  1.5432 -1.6095  1.3523
  287MOL0     H39542   2.965  11.671   3.864  0.4155  0.2920  1.3578
  287MOL0     H39543   2.988  11.874   4.024  2.9208  1.1477  1.3730
  287MOL0     H39544   3.109  11.929   3.920  0.2146 -1.1533  0.4562
  287MOL0     H39545   2.936  11.916   3.718 -0.6713 -3.0043  0.5490
  287MOL0     H39546   2.818  11.861   3.831 -0.1688  1.0435  2.9790
  287MOL0     H39547   2.952  12.127   3.866  3.0675 -5.2967  0.0043
  287MOL0     H39548   2.791  12.083   3.942 -2.8258  1.5716 -3.0895
  287MOL0     H39549   2.760  12.220   3.750  0.2992  0.5950  0.6842
  287MOL0     H39550   2.866  12.115   3.650 -1.4660  0.5053  0.4858
  287MOL0     H39551   2.589  12.053   3.759 -0.7159  0.1998 -1.7231
  287MOL0     H39552   2.689  11.944   3.662  0.8713  0.2819 -1.0416
  287MOL0     H39553   2.600  12.221   3.590 -1.4311 -0.4429 -1.2274
  287MOL0     H39554   2.706  12.136   3.491 -1.3990 -1.8508 -3.6428
  287MOL0     H39555   2.601  11.903   3.375  0.7521  2.3088 -2.3982
  287MOL0     H39556   2.399  11.813   3.199 -1.5057  0.7935 -0.9749
  287MOL0     H39557   2.240  11.845   3.231  0.4016 -0.8865 -0.0361
  287MOL0     H39558   2.396  11.655   3.408  0.7559 -1.3083 -2.4371
  287MOL0     H39559   2.238  11.708   3.437 -0.2863 -1.1773 -0.8892
  287MOL0     H39560   2.223  11.515   3.316  1.7714 -0.7390  0.6202
  287MOL0     H39561   2.212  11.642   3.188  0.6302  2.3149  1.4772
  287MOL0     H39562   2.467  11.598   3.159 -1.4752  0.2762 -0.3238
  287MOL0     H39563   2.457  11.480   3.276  0.1304 -1.7647 -1.1632
  287MOL0     H39564   2.522  11.539   2.943 -0.6072  0.0053 -1.4494
  287MOL0     H39565   2.715  11.417   2.690  4.7252  1.8516 -0.8310
  287MOL0     H39566   2.825  11.408   2.823  0.4074  0.7552 -1.3835
  287MOL0     H39567   2.717  11.545   2.806 -1.6874 -0.7369  1.7270
  287MOL0     H39568   2.674  10.941   2.498 -2.6101 -2.2760  1.6526
  287MOL0     H39569   2.824  10.788   2.412  2.2093 -3.1463  0.7698
  287MOL0     H39570   3.070  10.544   2.706  0.6136 -0.5819  1.1500
  287MOL0     H39571   3.100  10.477   2.540 -1.7772  1.0513 -1.1646
  287MOL0     H39572   3.289  10.661   2.504  1.7010  3.1967  2.2712
  287MOL0     H39573   3.252  10.710   2.660  0.0569  1.1570 -2.1884
  287MOL0     H39574   3.394  10.468   2.568  0.2614  3.4067 -3.4907
  287MOL0     H39575   3.346  10.471   2.733  0.3286  0.6938  0.0872
  287MOL0     H39576   3.484  10.648   2.784 -1.6821 -1.4964  0.1194
  287MOL0     H39577   3.510  10.698   2.607  0.5809 -2.7922 -3.3030
  287MOL0     H39578   3.636  10.478   2.776  0.0650  2.3544  0.8997
  287MOL0     H39579   3.681  10.505   2.603 -1.2960  0.4692 -2.0571
  287MOL0     H39580   3.706  10.735   2.803  4.0405  1.2822  0.4223
  287MOL0     H39581   3.743  10.708   2.639 -0.5899 -1.0848 -1.2964
  287MOL0     H39582   3.911  10.532   2.689  3.1831  1.2891  1.0917
  287MOL0     H39583   3.841  10.508   2.856 -0.2920  1.1551  0.7604
  287MOL0     H39584   4.028  10.709   2.724 -0.2259  2.5316  0.6013
  287MOL0     H39585   4.072  10.615   2.868 -0.5776  0.1628 -0.2309
  287MOL0     H39586   2.994  10.712   2.791 -0.3103  1.5235  0.7767
  287MOL0     H39587   2.831  10.872   2.894  1.8780 -0.7413  0.3166
  287MOL0     H39588   2.496  11.048   2.927 -0.1337  0.1263 -2.8793
  287MOL0     H39589   2.342  11.187   3.083 -0.8454  1.6172  0.5304
  287MOL0     H39590   3.093  11.489   4.229  1.0673  0.6605  1.4082
  287MOL0     H39591   3.208  11.348   4.377  0.8410 -1.2122 -1.0839
  287MOL0     H39592   3.449  11.101   4.548  3.8814  1.7045 -2.4829
  287MOL0     H39593   3.502  10.950   4.723 -1.1192  0.7698 -0.4532
  287MOL0     H39594   3.599  10.808   4.841  0.4296  0.2344 -1.3251
  287MOL0     H39595   3.449  10.724   4.838  0.7854  4.3769  1.3446
  287MOL0     H39596   3.530  10.584   4.974  2.1377  0.3004  2.8101
  287MOL0     H39597   3.698  10.635   4.948  0.0511 -1.0598 -0.6670
  287MOL0     H39598   3.529  10.436   4.770 -0.7461  2.4221  0.1839
  287MOL0     H39599   3.683  10.488   4.727 -1.5328  1.5240 -0.2374
  287MOL0     H39600   3.619  10.346   4.994  0.9236 -1.1672 -0.6544
  287MOL0     H39601   3.785  10.394   4.935  0.3119 -0.6939 -1.2899
  287MOL0     H39602   3.732  10.033   4.745 -0.2438  0.5546 -1.6700
  287MOL0     H39603   3.537  10.630   4.451 -5.2172 -1.3860 -0.2353
  287MOL0     H39604   3.520  10.667   4.214 -0.8024 -0.0328 -0.4395
  287MOL0     H39605   3.368  10.759   4.188  0.8454 -2.0896  0.4672
  287MOL0     H39606   3.519  10.849   4.158 -0.5661  1.0326  0.2993
  288MOL0     O39607  10.827   0.698   0.910 -1.0726 -0.2964 -0.6182
  288MOL0     C39608  10.827   0.817   0.890  0.6766  0.1266  0.2105
  288MOL0     O39609  10.759   0.912   0.957  0.1937  0.0464 -0.2596
  288MOL0     C39610  10.717   0.896   1.088  0.0638  0.1388  0.6138
  288MOL0     C39611  10.597   0.831   1.112  0.1726 -0.0648 -0.1353
  288MOL0     C39612  10.537   0.849   1.243 -0.6057  0.3716  0.3832
  288MOL0     C39613  10.614   0.903   1.351  0.5167  0.0075 -0.1120
  288MOL0     O39614  10.558   0.899   1.473  0.3467 -0.3079 -0.0163
  288MOL0     C39615  10.579   1.006   1.558  0.4469 -0.8767  1.2189
  288MOL0     C39616  10.478   1.126   1.533  0.4681 -0.0186 -0.5457
  288MOL0     C39617  10.347   1.106   1.603  0.6477  0.0289 -0.3330
  288MOL0     C39618  10.263   1.240   1.599 -0.5187  0.0903  0.1003
  288MOL0     C39619  10.148   1.222   1.697 -0.4073 -0.3149 -0.0897
  288MOL0     C39620  10.187   1.219   1.844 -0.6933 -0.4221  0.0964
  288MOL0     C39621  10.097   1.298   1.949 -0.1033 -0.6649  0.2963
  288MOL0     C39622  10.120   1.240   2.090  0.3332 -0.8919  0.3082
  288MOL0     N39623  10.212   1.312   2.177 -0.0752 -0.4734  0.7894
  288MOL0     C39624  10.345   1.321   2.166 -0.2089 -0.4784  0.0102
  288MOL0     C39625  10.386   1.406   2.262  0.5015 -0.5597  0.0891
  288MOL0     C39626  10.532   1.438   2.294 -0.2220 -0.3160 -0.0207
  288MOL0     C39627  10.552   1.586   2.327  0.8193  0.2264  0.4855
  288MOL0     C39628  10.477   1.691   2.243 -0.8362  0.0708 -0.3953
  288MOL0     C39629  10.532   1.702   2.099 -0.0607  0.0747 -0.2150
  288MOL0     O39630  10.672   1.725   2.110 -0.1036  0.7176  0.5483
  288MOL0     C39631  10.756   1.735   2.003 -0.0351 -0.5905 -0.2312
  288MOL0     C39632  10.713   1.695   1.877  0.5530  0.1184 -1.2543
  288MOL0     C39633  10.788   1.720   1.758 -0.5006  0.5033 -0.0775
  288MOL0     C39634  10.711   1.685   1.641 -0.7570 -0.1284  0.9801
  288MOL0     C39635  10.919   1.772   1.764 -0.3657 -0.0914  0.3924
  288MOL0     C39636  11.006   1.802   1.647 -0.0680  0.7059  0.7410
  288MOL0     O39637  11.137   1.800   1.675  0.1980 -0.2940 -0.5823
  288MOL0     C39638  11.241   1.841   1.591  0.7453 -0.1901 -0.5575
  288MOL0     C39639  11.364   1.818   1.649 -0.3141 -0.6937 -0.7828
  288MOL0     C39640  11.477   1.836   1.574  0.1681 -0.0386  0.5969
  288MOL0     C39641  11.472   1.894   1.444  1.0231  0.0456 -0.8232
  288MOL0     O39642  11.596   1.923   1.398 -0.5507 -0.1032  0.4585
  288MOL0     C39643  11.607   1.976   1.265 -0.1734  0.3305  0.3693
  288MOL0     C39644  11.564   2.125   1.273 -0.3379  0.6314  0.1014
  288MOL0     C39645  11.672   2.227   1.316 -1.5500  0.6078  0.9630
  288MOL0     C39646  11.761   2.243   1.183 -0.2499  0.0794  0.0619
  288MOL0     C39647  11.912   2.245   1.203  0.3106 -0.9340 -0.4162
  288MOL0     C39648  11.998   2.290   1.083 -0.2719 -0.6031 -0.5753
  288MOL0     C39649  12.129   2.371   1.120 -0.0866  0.6452 -0.1237
  288MOL0     C39650  12.224   2.290   1.212 -0.2865  0.7097  0.7644
  288MOL0    Cl39651  12.258   2.119   1.159  0.3168 -0.2446 -0.3155
  288MOL0     C39652  11.350   1.921   1.389  0.3460 -0.2780 -0.2203
  288MOL0     C39653  11.233   1.883   1.459 -0.0588 -0.1165  0.8415
  288MOL0     O39654  10.955   1.838   1.536  0.3113 -0.2629 -0.7039
  288MOL0     C39655  10.972   1.793   1.895 -1.0734 -0.0383 -0.9779
  288MOL0     C39656  10.888   1.779   2.014 -1.0868 -0.1282  0.0691
  288MOL0     N39657  10.270   1.450   2.334 -0.5630 -0.5187  0.4161
  288MOL0     N39658  10.171   1.391   2.280  0.6327 -0.7701  0.2514
  288MOL0     C39659  10.748   0.956   1.324 -0.0198 -0.2994 -0.5203
  288MOL0     C39660  10.791   0.953   1.191 -0.0145 -0.1491  0.3531
  288MOL0     C39661  10.886   0.859   0.761  0.2824  0.1899 -0.3439
  288MOL0     C39662  10.802   0.935   0.680  0.7070 -0.4186 -0.5878
  288MOL0     C39663  10.848   0.971   0.556 -0.1779 -0.3494  0.4752
  288MOL0     C39664  10.977   0.941   0.505  0.5885 -1.1836  0.7607
  288MOL0     O39665  11.029   0.990   0.381 -0.0119 -0.8167 -0.0488
  288MOL0     C39666  10.935   1.042   0.280 -0.6002  0.3407  0.7196
  288MOL0     C39667  10.922   1.189   0.299 -0.0066  0.6196  1.2821
  288MOL0     C39668  10.854   1.259   0.176 -0.1055 -0.3672  0.3167
  288MOL0     C39669  10.693   1.268   0.177 -0.4783 -0.4452 -0.9949
  288MOL0     C39670  10.653   1.367   0.073 -0.4068  0.2981 -0.5337
  288MOL0     C39671  10.625   1.449  -0.012  0.3304 -0.0977 -0.4089
  288MOL0     C39672  11.063   0.867   0.597 -0.0792 -0.2934 -0.6521
  288MOL0     C39673  11.022   0.833   0.731 -0.0862  0.2823  0.1316
  288MOL0     C39674  11.115   0.757   0.822  0.4656  0.7146  0.0507
  288MOL0     H39675  10.548   0.778   1.030  1.1824 -0.5117 -0.4578
  288MOL0     H39676  10.436   0.813   1.259 -1.4770  2.4327 -0.2185
  288MOL0     H39677  10.680   1.046   1.555  0.5733 -0.9311 -3.9747
  288MOL0     H39678  10.573   0.954   1.654 -0.4006 -1.1876  1.0095
  288MOL0     H39679  10.518   1.224   1.564  0.4071 -0.3511  0.6065
  288MOL0     H39680  10.461   1.136   1.425 -2.5503 -0.5191 -0.1909
  288MOL0     H39681  10.293   1.025   1.552  1.3613 -1.7128  1.5094
  288MOL0     H39682  10.358   1.079   1.709  0.4299  1.6511  0.1234
  288MOL0     H39683  10.329   1.322   1.626  0.6421 -0.3691 -1.2407
  288MOL0     H39684  10.217   1.256   1.502 -0.5353  0.3193  0.1460
  288MOL0     H39685  10.082   1.139   1.669 -0.0868  0.4243 -3.3432
  288MOL0     H39686  10.096   1.317   1.688  0.1828 -0.1625 -2.5130
  288MOL0     H39687  10.185   1.111   1.862  0.3942 -0.1915  1.9331
  288MOL0     H39688  10.293   1.248   1.848 -1.0356  1.0273 -0.6989
  288MOL0     H39689   9.992   1.298   1.919 -0.1979  1.1638  0.4637
  288MOL0     H39690  10.131   1.402   1.957  0.4482 -0.7783 -0.4614
  288MOL0     H39691  10.024   1.239   2.141  0.5501  2.1707  0.9821
  288MOL0     H39692  10.152   1.136   2.077 -1.5930 -1.3698 -1.0126
  288MOL0     H39693  10.408   1.278   2.089 -2.2454 -1.5811 -1.1139
  288MOL0     H39694  10.595   1.408   2.210  0.3889  0.5931  0.1057
  288MOL0     H39695  10.555   1.372   2.378 -0.7740 -2.1946 -1.2805
  288MOL0     H39696  10.510   1.610   2.425  1.4438 -1.5583  1.2339
  288MOL0     H39697  10.659   1.608   2.320  0.7637  0.0037 -3.1764
  288MOL0     H39698  10.370   1.668   2.238 -1.2333  1.2458  1.7063
  288MOL0     H39699  10.476   1.787   2.295 -5.6537  0.5015 -0.9062
  288MOL0     H39700  10.536   1.609   2.042 -0.3705  0.2219 -0.4792
  288MOL0     H39701  10.480   1.784   2.049 -2.6864 -2.2712 -1.5996
  288MOL0     H39702  10.613   1.661   1.854  0.0571 -0.8873  1.9137
  288MOL0     H39703  10.776   1.674   1.555  0.9652  2.0203  1.9025
  288MOL0     H39704  10.644   1.771   1.628  0.0272  1.1602  4.2064
  288MOL0     H39705  10.656   1.591   1.653  0.9579 -1.2030  0.6585
  288MOL0     H39706  11.377   1.778   1.749 -0.3158 -2.1212 -1.3224
  288MOL0     H39707  11.575   1.825   1.620 -0.9885 -0.3594  3.1394
  288MOL0     H39708  11.714   1.966   1.244 -0.5330 -0.3417 -1.2889
  288MOL0     H39709  11.551   1.922   1.188 -1.2138 -0.5103  1.6539
  288MOL0     H39710  11.526   2.146   1.172  1.4340 -0.0178 -0.7441
  288MOL0     H39711  11.485   2.133   1.348 -1.4168 -2.8220 -0.5071
  288MOL0     H39712  11.732   2.198   1.403 -0.8036  1.2759  0.6801
  288MOL0     H39713  11.625   2.324   1.337 -1.6818  0.5614  0.8901
  288MOL0     H39714  11.747   2.342   1.138 -2.1437  0.2349  0.8713
  288MOL0     H39715  11.734   2.161   1.115  1.4172 -1.6645  1.3952
  288MOL0     H39716  11.932   2.324   1.276 -0.4526  1.5739 -2.7429
  288MOL0     H39717  11.945   2.145   1.232  2.6648 -0.0271  0.2759
  288MOL0     H39718  11.937   2.346   1.012 -1.7836 -0.1767  0.9641
  288MOL0     H39719  12.031   2.203   1.026  0.8461 -0.5051 -0.1123
  288MOL0     H39720  12.098   2.464   1.169 -0.8897 -0.8117  2.2983
  288MOL0     H39721  12.176   2.395   1.024 -1.3526  0.1155 -0.8991
  288MOL0     H39722  12.176   2.280   1.310  1.3054 -0.5157  1.4712
  288MOL0     H39723  12.323   2.332   1.229  0.8246 -1.1386 -0.7583
  288MOL0     H39724  11.333   1.962   1.289  1.9208  0.3411 -0.2671
  288MOL0     H39725  11.141   1.900   1.403  2.0922 -1.2411 -3.5338
  288MOL0     H39726  11.078   1.812   1.900 -1.5592  2.8695  0.9263
  288MOL0     H39727  10.926   1.800   2.114  0.2840 -1.1728 -0.2188
  288MOL0     H39728  10.812   1.001   1.399 -0.7635  1.8413 -1.0896
  288MOL0     H39729  10.879   1.001   1.149 -0.1793  1.6143  1.9030
  288MOL0     H39730  10.703   0.962   0.715  1.6504  0.0863  1.8911
  288MOL0     H39731  10.780   1.024   0.490  1.4744  1.9709  0.5497
  288MOL0     H39732  10.961   1.013   0.178 -4.1034 -1.6066  0.2061
  288MOL0     H39733  10.835   0.999   0.294 -1.0284  1.8303  2.8143
  288MOL0     H39734  11.025   1.222   0.308 -0.2701  1.6526  0.6177
  288MOL0     H39735  10.876   1.217   0.394  0.1645 -2.0907  2.2589
  288MOL0     H39736  10.890   1.362   0.168  1.8927 -1.0120  0.5328
  288MOL0     H39737  10.886   1.201   0.089  0.8962 -0.6350  0.8550
  288MOL0     H39738  10.651   1.301   0.273 -0.2980  1.1953 -1.4429
  288MOL0     H39739  10.655   1.166   0.171 -0.1714 -0.5725 -0.7619
  288MOL0     H39740  10.609   1.521  -0.089  0.2109  1.8075  1.3119
  288MOL0     H39741  11.166   0.851   0.566  0.3270  0.9044 -0.0308
  288MOL0     H39742  11.218   0.790   0.804 -0.3658  2.4825 -1.8623
  288MOL0     H39743  11.092   0.776   0.927  0.6410  0.3565  0.1522
  288MOL0     H39744  11.099   0.652   0.798 -3.8692  1.4460 -1.1251
  289MOL0     O39745   9.523   3.834   7.193  0.0887  0.8634 -0.3491
  289MOL0     C39746   9.617   3.905   7.205  0.0338  0.6656 -0.4640
  289MOL0     O39747   9.704   3.895   7.309  0.1924  0.0851 -0.2128
  289MOL0     C39748   9.670   3.816   7.412 -1.0263  0.2972 -0.5862
  289MOL0     C39749   9.572   3.851   7.503 -0.3011  0.8076 -0.1468
  289MOL0     C39750   9.541   3.765   7.611 -0.2776 -0.0025 -0.6278
  289MOL0     C39751   9.612   3.644   7.640 -0.0153  0.2434  0.1363
  289MOL0     O39752   9.581   3.558   7.747  0.2147  0.2718  0.0211
  289MOL0     C39753   9.665   3.440   7.771 -0.3424  0.1557 -0.2583
  289MOL0     C39754   9.632   3.316   7.688  0.8539  0.1423  0.8284
  289MOL0     C39755   9.511   3.253   7.758  0.2951  0.1231 -0.2493
  289MOL0     C39756   9.468   3.116   7.681 -0.0358 -0.8942 -0.0853
  289MOL0     C39757   9.382   3.026   7.776 -0.3754 -0.0214 -0.3132
  289MOL0     C39758   9.288   2.942   7.685  0.5632 -0.1134  0.5142
  289MOL0     C39759   9.236   2.815   7.743 -0.7541  0.1431 -0.4322
  289MOL0     C39760   9.133   2.761   7.646  0.1779  0.3946 -0.7623
  289MOL0     N39761   9.142   2.612   7.653  0.3415 -0.6608  0.2886
  289MOL0     C39762   9.259   2.527   7.664  0.8965 -0.2716 -0.0909
  289MOL0     C39763   9.207   2.409   7.709  1.2211  0.3909  0.6390
  289MOL0     C39764   9.280   2.286   7.733  0.5201 -0.2654 -0.2849
  289MOL0     C39765   9.378   2.276   7.852  0.6332  0.2299 -0.1206
  289MOL0     C39766   9.318   2.320   7.979  0.8134 -0.8137  0.3834
  289MOL0     C39767   9.211   2.230   8.039  0.4701  0.2784 -0.3827
  289MOL0     O39768   9.247   2.089   8.045 -0.3676 -0.0278  0.7109
  289MOL0     C39769   9.141   2.001   8.048  0.7501 -0.3581  0.0237
  289MOL0     C39770   9.063   1.993   8.163 -0.2322 -0.4837 -0.2862
  289MOL0     C39771   8.942   1.915   8.155 -0.0273 -0.3447 -0.6295
  289MOL0     C39772   8.848   1.928   8.274  0.2081 -0.3802 -0.3285
  289MOL0     C39773   8.914   1.824   8.044 -0.0419 -0.9947 -0.2730
  289MOL0     C39774   8.798   1.728   8.024  0.2370 -0.4235 -0.0261
  289MOL0     O39775   8.746   1.680   8.137 -0.5266  0.5825 -0.7001
  289MOL0     C39776   8.642   1.594   8.109  0.3531 -0.1959 -0.0133
  289MOL0     C39777   8.506   1.623   8.084 -0.1482 -0.0181  0.4398
  289MOL0     C39778   8.402   1.517   8.082 -0.9796  0.7547  0.1446
  289MOL0     C39779   8.445   1.381   8.111  0.2822 -0.4117 -0.6467
  289MOL0     O39780   8.360   1.276   8.125 -0.5232  0.9500  0.0667
  289MOL0     C39781   8.219   1.299   8.134  0.6419  1.2762  0.5157
  289MOL0     C39782   8.151   1.166   8.155 -0.0062  1.3337  0.5164
  289MOL0     C39783   8.212   1.046   8.091 -0.4769  0.3812 -0.3718
  289MOL0     C39784   8.134   0.916   8.122 -0.3435 -1.2303  0.0972
  289MOL0     C39785   8.159   0.801   8.021 -0.2149 -0.2572 -0.0060
  289MOL0     C39786   8.299   0.741   8.023 -0.5792 -0.3741  0.0242
  289MOL0     C39787   8.339   0.684   8.171 -0.2309  0.3398  0.9161
  289MOL0     C39788   8.437   0.572   8.183  0.1914  0.3031 -0.6327
  289MOL0    Cl39789   8.348   0.411   8.184 -0.0218  0.0645 -0.0873
  289MOL0     C39790   8.576   1.356   8.145  0.2263 -0.7166 -0.1188
  289MOL0     C39791   8.673   1.467   8.147  0.1391  0.6479  0.7012
  289MOL0     O39792   8.763   1.694   7.912 -1.0919 -0.0186  0.7225
  289MOL0     C39793   9.008   1.824   7.942  0.1070  0.4459 -0.0368
  289MOL0     C39794   9.108   1.921   7.942 -0.2689  0.2271  0.3973
  289MOL0     N39795   9.065   2.416   7.703  0.2351 -1.0371  0.6130
  289MOL0     N39796   9.032   2.539   7.673 -0.0442 -0.0259  0.4268
  289MOL0     C39797   9.715   3.616   7.549  1.6246  0.2791  0.1028
  289MOL0     C39798   9.744   3.700   7.443  0.3437 -0.2824 -0.1124
  289MOL0     C39799   9.636   4.006   7.092  0.3845  0.1410 -0.5740
  289MOL0     C39800   9.763   3.993   7.037 -0.1297 -0.2985 -0.4672
  289MOL0     C39801   9.804   4.075   6.927  0.2419 -0.5431 -0.6439
  289MOL0     C39802   9.711   4.171   6.877  1.0697  0.4297 -0.1608
  289MOL0     O39803   9.744   4.255   6.770 -0.5003 -0.5321 -0.6183
  289MOL0     C39804   9.793   4.378   6.816  0.1353 -0.5034  1.6575
  289MOL0     C39805   9.938   4.365   6.863  0.3673  0.2966 -0.5777
  289MOL0     C39806   9.988   4.511   6.878 -1.2539  0.4577  0.4617
  289MOL0     C39807  10.146   4.520   6.870  1.1057 -0.9264  0.0128
  289MOL0     C39808  10.217   4.455   6.979 -0.0980  0.6838  0.0877
  289MOL0     C39809  10.273   4.408   7.077 -0.3705  0.2903  0.4247
  289MOL0     C39810   9.576   4.166   6.923  0.5824 -0.0176 -0.9956
  289MOL0     C39811   9.539   4.082   7.033  1.0229 -0.9778  0.0333
  289MOL0     C39812   9.390   4.082   7.086  0.1178 -0.4810  0.9805
  289MOL0     H39813   9.514   3.943   7.500 -0.3687  1.0743  3.7734
  289MOL0     H39814   9.451   3.803   7.658 -1.8198 -2.2275 -1.6031
  289MOL0     H39815   9.671   3.421   7.879 -1.5052  1.8685  0.1456
  289MOL0     H39816   9.769   3.467   7.754 -0.5292  2.8735  2.1537
  289MOL0     H39817   9.617   3.336   7.582 -0.9448 -2.3295  0.5286
  289MOL0     H39818   9.717   3.248   7.679  1.8784  1.6588 -2.3459
  289MOL0     H39819   9.548   3.226   7.857  2.3869  2.5070 -0.2847
  289MOL0     H39820   9.430   3.327   7.761  0.9997  1.0481 -2.1530
  289MOL0     H39821   9.416   3.145   7.589  0.8225  0.0533 -0.2942
  289MOL0     H39822   9.558   3.065   7.645  0.1182 -0.5621 -0.1851
  289MOL0     H39823   9.333   3.099   7.840 -1.1025  0.4425 -1.3614
  289MOL0     H39824   9.458   2.971   7.831 -1.7693 -0.0152  1.7218
  289MOL0     H39825   9.198   2.997   7.655  0.3252 -0.7201  0.0807
  289MOL0     H39826   9.341   2.917   7.593 -3.0950  0.8796 -2.1200
  289MOL0     H39827   9.188   2.831   7.840 -0.0826  4.8060 -0.6465
  289MOL0     H39828   9.317   2.742   7.749 -1.2644 -0.5766 -1.8555
  289MOL0     H39829   9.029   2.781   7.673  0.0625 -1.2258  0.1444
  289MOL0     H39830   9.148   2.798   7.544  1.9385  0.5158 -0.4825
  289MOL0     H39831   9.364   2.552   7.650  0.7313 -0.2876 -1.5621
  289MOL0     H39832   9.339   2.265   7.643  1.4962  0.1594  0.2298
  289MOL0     H39833   9.199   2.214   7.742 -0.0281  0.0460 -2.3058
  289MOL0     H39834   9.421   2.176   7.851  1.5882  0.5922 -2.2313
  289MOL0     H39835   9.463   2.336   7.816 -1.1592  1.5438 -2.4585
  289MOL0     H39836   9.401   2.315   8.050 -0.6362  2.1434  2.5127
  289MOL0     H39837   9.283   2.423   7.989  2.8476  0.2395 -2.0870
  289MOL0     H39838   9.188   2.266   8.140 -0.4414  2.5915 -1.3358
  289MOL0     H39839   9.121   2.249   7.980  0.2027  0.8313  0.1849
  289MOL0     H39840   9.095   2.049   8.251  0.7925  0.0782 -1.0025
  289MOL0     H39841   8.824   1.824   8.299  1.4651 -0.1804  2.0734
  289MOL0     H39842   8.758   1.979   8.238 -1.0384 -2.1677  0.0969
  289MOL0     H39843   8.894   1.966   8.366  1.1102 -1.2664 -0.3962
  289MOL0     H39844   8.474   1.718   8.042  0.0903 -1.3200 -3.0815
  289MOL0     H39845   8.304   1.546   8.046 -1.4686  0.2882  1.0647
  289MOL0     H39846   8.185   1.373   8.206  0.5294  1.3699  0.3691
  289MOL0     H39847   8.188   1.335   8.035 -2.9533 -1.6867  0.3204
  289MOL0     H39848   8.119   1.153   8.259 -0.7399 -1.5540 -0.0085
  289MOL0     H39849   8.058   1.166   8.098 -0.3663 -1.6339  0.9447
  289MOL0     H39850   8.317   1.034   8.120  0.1118 -1.6385 -2.9652
  289MOL0     H39851   8.215   1.056   7.982 -2.8425 -2.7910 -0.8861
  289MOL0     H39852   8.026   0.932   8.110  0.0931  1.9564 -0.6954
  289MOL0     H39853   8.142   0.882   8.225 -1.5462  2.4259  1.5674
  289MOL0     H39854   8.081   0.732   8.055 -2.1082  2.5059  1.6057
  289MOL0     H39855   8.145   0.848   7.923  0.5845  3.0660  1.3310
  289MOL0     H39856   8.377   0.813   7.998 -2.1414  2.5513  2.9154
  289MOL0     H39857   8.317   0.669   7.942  1.4660  1.0097 -0.8428
  289MOL0     H39858   8.253   0.663   8.234 -0.6618  2.8553  1.2956
  289MOL0     H39859   8.379   0.775   8.217 -0.3629  1.9919 -2.0329
  289MOL0     H39860   8.497   0.586   8.274  0.6279  0.2089 -0.8996
  289MOL0     H39861   8.506   0.575   8.098  1.8031 -3.3490  0.3411
  289MOL0     H39862   8.612   1.270   8.201 -1.4488 -0.3354  1.6388
  289MOL0     H39863   8.772   1.446   8.186  0.8091 -0.3483 -1.3880
  289MOL0     H39864   9.003   1.777   7.845 -1.0228  2.8470 -1.2037
  289MOL0     H39865   9.182   1.921   7.863  1.8056 -0.7992  2.2426
  289MOL0     H39866   9.779   3.531   7.568  1.1095  0.1255  1.2406
  289MOL0     H39867   9.814   3.668   7.367  0.9085  2.3678 -0.7937
  289MOL0     H39868   9.833   3.920   7.076 -2.2097 -0.7718  2.6980
  289MOL0     H39869   9.903   4.060   6.886  1.3038 -0.6730  1.8122
  289MOL0     H39870   9.782   4.450   6.735 -0.4358 -1.3327  0.9752
  289MOL0     H39871   9.735   4.415   6.901 -0.4348  0.2928  0.9298
  289MOL0     H39872   9.999   4.307   6.793 -0.4490 -0.1057 -0.9734
  289MOL0     H39873   9.949   4.324   6.964 -1.3056  1.8847  0.2896
  289MOL0     H39874   9.955   4.573   6.794  3.2571  2.2531 -0.3094
  289MOL0     H39875   9.948   4.544   6.973 -1.6329 -2.7835  1.5531
  289MOL0     H39876  10.190   4.620   6.871  2.5865 -1.5053  2.3614
  289MOL0     H39877  10.176   4.475   6.775  2.9891  0.0417  0.0964
  289MOL0     H39878  10.323   4.351   7.152 -0.9820  1.0365  1.4163
  289MOL0     H39879   9.507   4.235   6.876 -2.4915 -2.6278 -0.6180
  289MOL0     H39880   9.349   4.182   7.067 -1.3480 -1.1429  0.5189
  289MOL0     H39881   9.342   4.003   7.027 -1.0830  0.1929  1.0246
  289MOL0     H39882   9.379   4.062   7.193 -2.2590  1.2155  1.1487
  290MOL0     O39883   7.268   3.154  10.782 -0.7617 -0.6771 -0.3684
  290MOL0     C39884   7.294   3.268  10.731  0.6783  1.0307 -0.5031
  290MOL0     O39885   7.295   3.293  10.598  0.2562  0.0746  0.5689
  290MOL0     C39886   7.312   3.193  10.506 -0.0830 -0.3291 -0.4979
  290MOL0     C39887   7.264   3.196  10.375  0.4691  0.0495  0.8420
  290MOL0     C39888   7.294   3.097  10.288 -1.2052 -0.3695  0.3810
  290MOL0     C39889   7.388   3.001  10.311  0.6546 -0.0766  0.7408
  290MOL0     O39890   7.410   2.905  10.218  0.1159 -0.3662  0.1776
  290MOL0     C39891   7.473   2.780  10.248  0.3315 -0.7411  0.6930
  290MOL0     C39892   7.458   2.692  10.119  0.8117  0.3036  0.0627
  290MOL0     C39893   7.542   2.563  10.111 -0.0989 -0.2992 -0.5036
  290MOL0     C39894   7.527   2.502   9.974 -0.6829  0.6315  0.7760
  290MOL0     C39895   7.598   2.360   9.969 -0.5180  0.0126  0.1453
  290MOL0     C39896   7.736   2.379   9.900  0.0250  0.0920  0.4467
  290MOL0     C39897   7.823   2.252   9.922 -0.3097  0.2763  0.0986
  290MOL0     C39898   7.861   2.219  10.069 -0.3716  1.0558 -0.5411
  290MOL0     N39899   7.903   2.344  10.132 -0.8503  1.3612  0.1898
  290MOL0     C39900   7.832   2.422  10.211  0.6966  0.8689  0.9642
  290MOL0     C39901   7.909   2.524  10.247 -0.0887 -0.6361 -0.4052
  290MOL0     C39902   7.873   2.655  10.319  0.8340  0.6566  1.0291
  290MOL0     C39903   7.755   2.643  10.423  0.3331  0.7091  1.1606
  290MOL0     C39904   7.736   2.754  10.525 -0.2899  0.3289 -0.0709
  290MOL0     C39905   7.784   2.889  10.493  0.8636  0.5672  0.6613
  290MOL0     O39906   7.758   2.954  10.615 -0.1369  0.0052 -0.1658
  290MOL0     C39907   7.786   3.089  10.620 -0.4927  0.5926 -0.2783
  290MOL0     C39908   7.854   3.166  10.525 -0.5394 -0.4258 -0.2087
  290MOL0     C39909   7.875   3.305  10.550 -1.0512 -0.1416 -0.6509
  290MOL0     C39910   7.937   3.388  10.435 -0.1758  0.5844 -0.0938
  290MOL0     C39911   7.845   3.365  10.673  0.1813 -0.4426  0.1554
  290MOL0     C39912   7.872   3.498  10.721  0.6507  0.4880  0.1334
  290MOL0     O39913   7.776   3.545  10.808 -0.2855  0.3706 -0.1396
  290MOL0     C39914   7.779   3.674  10.872 -0.7281  0.7729  0.3113
  290MOL0     C39915   7.871   3.778  10.843  0.0631  0.8108 -0.4310
  290MOL0     C39916   7.873   3.904  10.921 -0.6001  0.2633  0.6315
  290MOL0     C39917   7.779   3.916  11.030 -0.3454 -0.6616  0.5199
  290MOL0     O39918   7.791   4.032  11.098  0.1854 -0.1188  0.4152
  290MOL0     C39919   7.749   4.041  11.237 -0.6243  0.1225  0.4826
  290MOL0     C39920   7.846   4.104  11.322  0.2140  0.1562 -0.7825
  290MOL0     C39921   7.992   4.073  11.277 -0.8933 -0.1285 -0.1879
  290MOL0     C39922   8.092   4.143  11.376 -0.2971 -0.6943  0.1962
  290MOL0     C39923   8.241   4.105  11.352 -0.4688  1.2804 -0.0083
  290MOL0     C39924   8.302   4.212  11.248  0.3194 -0.8388  0.1582
  290MOL0     C39925   8.421   4.173  11.152  0.5999  0.4596 -0.8895
  290MOL0     C39926   8.360   4.092  11.029  0.3541 -0.8795 -0.0963
  290MOL0    Cl39927   8.243   4.201  10.944  0.3879 -0.6361  0.1470
  290MOL0     C39928   7.687   3.810  11.061 -0.3737  1.1115 -0.0627
  290MOL0     C39929   7.690   3.689  10.981 -0.5989 -0.6230  0.6341
  290MOL0     O39930   7.970   3.554  10.683 -0.3099  0.3989  0.1507
  290MOL0     C39931   7.776   3.276  10.765 -0.4452 -1.0910 -0.1055
  290MOL0     C39932   7.746   3.146  10.739 -0.5294 -0.9018  0.8217
  290MOL0     N39933   8.037   2.499  10.190  0.1268 -0.0248 -0.8405
  290MOL0     N39934   8.029   2.388  10.121  0.0707  0.4166 -0.1379
  290MOL0     C39935   7.451   2.996  10.438 -0.6197  0.7360 -0.6080
  290MOL0     C39936   7.402   3.084  10.535 -0.5193  0.2345  0.2623
  290MOL0     C39937   7.307   3.386  10.822 -0.3674  0.6671 -0.0417
  290MOL0     C39938   7.322   3.509  10.759 -0.2217 -1.3291 -0.7140
  290MOL0     C39939   7.324   3.624  10.837 -0.3108  0.9938  0.1788
  290MOL0     C39940   7.307   3.615  10.984 -1.1388  0.3098 -0.6386
  290MOL0     O39941   7.313   3.720  11.070  0.6315  0.7367 -0.0263
  290MOL0     C39942   7.262   3.852  11.029  0.3385 -0.4416 -0.0695
  290MOL0     C39943   7.113   3.852  11.012  0.3216 -0.2811 -0.1916
  290MOL0     C39944   7.035   3.810  11.137  0.4465  0.1105 -1.0147
  290MOL0     C39945   6.905   3.739  11.105  0.2481 -0.1743 -0.2818
  290MOL0     C39946   6.833   3.797  10.989 -0.4080 -0.0476  0.4892
  290MOL0     C39947   6.779   3.850  10.891  0.0607  0.0608 -0.6267
  290MOL0     C39948   7.296   3.496  11.046 -0.0194  0.6579 -0.0717
  290MOL0     C39949   7.297   3.377  10.970 -0.6674  0.8603  0.6838
  290MOL0     C39950   7.271   3.245  11.036  0.2542  0.1863 -0.3287
  290MOL0     H39951   7.199   3.271  10.331  0.5445  1.6581  3.2723
  290MOL0     H39952   7.267   3.111  10.184 -0.4830  1.3719  0.4050
  290MOL0     H39953   7.432   2.723  10.332  1.8950 -2.9821  0.0120
  290MOL0     H39954   7.577   2.810  10.263 -0.1468  2.7752 -1.7720
  290MOL0     H39955   7.352   2.664  10.113  1.0611 -0.4497 -1.3339
  290MOL0     H39956   7.473   2.749  10.026  1.7870  0.9208  0.5885
  290MOL0     H39957   7.647   2.592  10.123  0.5111 -2.3097 -0.6434
  290MOL0     H39958   7.507   2.495  10.189  0.0210  2.9445  2.6558
  290MOL0     H39959   7.424   2.467   9.963 -0.6762  0.6181  0.7566
  290MOL0     H39960   7.566   2.576   9.903 -0.7830 -0.1582 -0.1258
  290MOL0     H39961   7.536   2.301   9.901 -1.9294  1.3129  0.2694
  290MOL0     H39962   7.615   2.327  10.072 -0.2992 -1.4315 -0.3317
  290MOL0     H39963   7.730   2.401   9.793 -0.5505  2.2363  0.8737
  290MOL0     H39964   7.793   2.463   9.940 -0.6106  0.6325  0.2316
  290MOL0     H39965   7.919   2.264   9.871 -0.1340 -1.8222 -0.1393
  290MOL0     H39966   7.781   2.171   9.862  0.8355  0.9451 -1.6986
  290MOL0     H39967   7.776   2.179  10.125  0.4527  0.2827  0.1933
  290MOL0     H39968   7.951   2.156  10.071  0.1959  1.7987 -1.5030
  290MOL0     H39969   7.728   2.408  10.235 -0.4471  1.7112 -2.8363
  290MOL0     H39970   7.852   2.726  10.238  3.4046 -1.6855 -1.9903
  290MOL0     H39971   7.961   2.699  10.366  1.7551 -2.1440  2.1570
  290MOL0     H39972   7.661   2.635  10.367  0.6423  3.3260  0.1244
  290MOL0     H39973   7.759   2.542  10.465  2.8480  0.7484  1.1843
  290MOL0     H39974   7.630   2.761  10.550 -0.0231  2.0155  0.6716
  290MOL0     H39975   7.795   2.728  10.613  0.1928  0.7563 -0.2641
  290MOL0     H39976   7.893   2.889  10.480  0.9047  0.0026  0.9960
  290MOL0     H39977   7.720   2.917  10.408 -2.6152 -2.5120  1.9968
  290MOL0     H39978   7.892   3.128  10.430 -3.9051 -0.9514 -1.4990
  290MOL0     H39979   7.884   3.371  10.341 -0.6169 -0.4408  0.3254
  290MOL0     H39980   8.043   3.367  10.420 -0.4881 -1.0443 -0.1928
  290MOL0     H39981   7.938   3.496  10.449 -1.9014  0.5592  0.5238
  290MOL0     H39982   7.956   3.784  10.775 -0.4246  4.0038 -0.9380
  290MOL0     H39983   7.962   3.962  10.903  0.7230 -2.1949 -1.3959
  290MOL0     H39984   7.657   4.099  11.231  0.0093  1.2282  1.0637
  290MOL0     H39985   7.724   3.945  11.281 -0.6483 -0.1794 -0.1855
  290MOL0     H39986   7.840   4.212  11.311 -0.1288  0.3919  1.2372
  290MOL0     H39987   7.814   4.085  11.425 -3.3730  2.3041 -1.3293
  290MOL0     H39988   8.012   4.092  11.171 -0.8532  0.4421 -0.0807
  290MOL0     H39989   8.004   3.964  11.279 -1.2506 -0.2205 -1.8041
  290MOL0     H39990   8.064   4.111  11.477  0.8815  0.8296  1.0528
  290MOL0     H39991   8.074   4.251  11.384  1.1149 -0.4473  0.1634
  290MOL0     H39992   8.281   4.098  11.454  1.3534  0.3545 -0.7356
  290MOL0     H39993   8.251   4.012  11.297 -2.0533  1.6737 -1.0071
  290MOL0     H39994   8.336   4.296  11.310 -4.2026  0.3589  1.4615
  290MOL0     H39995   8.226   4.259  11.185 -1.5196 -1.2190  1.9729
  290MOL0     H39996   8.498   4.107  11.194  1.9674  2.5598  0.0922
  290MOL0     H39997   8.460   4.268  11.115 -2.1285  1.5575 -1.1558
  290MOL0     H39998   8.320   3.996  11.064  1.1410 -1.1911 -0.0163
  290MOL0     H39999   8.438   4.072  10.954 -0.3953 -2.3122 -0.5519
  290MOL0     H40000   7.605   3.831  11.129  0.4831 -0.0425  1.3882
  290MOL0     H40001   7.623   3.611  11.014  1.8159 -1.6246  3.7386
  290MOL0     H40002   7.767   3.299  10.870 -3.5959  3.6499 -1.1263
  290MOL0     H40003   7.703   3.074  10.808 -0.0855 -0.4647  1.5686
  290MOL0     H40004   7.538   2.935  10.461 -0.9294 -0.0462 -1.4530
  290MOL0     H40005   7.448   3.089  10.633  0.6941 -0.1492 -0.2643
  290MOL0     H40006   7.319   3.511  10.651 -1.5186 -1.2599 -0.6878
  290MOL0     H40007   7.325   3.718  10.783 -0.1865  1.5558  1.1435
  290MOL0     H40008   7.281   3.923  11.110  1.0799 -1.4624  0.6691
  290MOL0     H40009   7.310   3.892  10.938  2.1109 -0.6064  0.7407
  290MOL0     H40010   7.091   3.794  10.922  0.7046 -0.4778 -0.1596
  290MOL0     H40011   7.077   3.952  10.984 -0.1346 -0.4283 -0.1273
  290MOL0     H40012   7.100   3.741  11.191 -0.7013  1.4077  2.2230
  290MOL0     H40013   7.023   3.894  11.206 -1.7400 -1.2677  0.4138
  290MOL0     H40014   6.834   3.727  11.187 -0.3531  1.1686 -0.5704
  290MOL0     H40015   6.928   3.639  11.067 -1.7206 -0.3833 -1.0158
  290MOL0     H40016   6.727   3.883  10.803 -1.1849  2.1630  0.7961
  290MOL0     H40017   7.295   3.489  11.154  0.9463  0.9196 -0.0432
  290MOL0     H40018   7.360   3.184  11.020  0.2633 -0.7392  2.6191
  290MOL0     H40019   7.243   3.263  11.140 -2.7797 -0.1073 -1.0154
  290MOL0     H40020   7.181   3.201  10.994 -0.4177  0.5482  0.6855
  291MOL0     O40021   6.019   3.226   2.621 -0.7197  0.2795 -0.5878
  291MOL0     C40022   6.015   3.126   2.697  0.2394 -0.7381 -0.2693
  291MOL0     O40023   6.112   3.109   2.787  0.6938 -0.2146  0.4485
  291MOL0     C40024   6.230   3.175   2.779  0.3304 -0.3824 -0.1721
  291MOL0     C40025   6.265   3.240   2.901 -0.0313  0.3450 -0.3740
  291MOL0     C40026   6.380   3.308   2.906 -0.0073 -0.5878 -0.4600
  291MOL0     C40027   6.476   3.292   2.810 -0.0125 -0.0170  0.1172
  291MOL0     O40028   6.585   3.364   2.845 -0.7953 -0.2933 -0.1339
  291MOL0     C40029   6.684   3.364   2.737  0.3339 -0.0244 -0.4660
  291MOL0     C40030   6.802   3.450   2.765 -0.7983 -0.2038  0.6996
  291MOL0     C40031   6.882   3.403   2.887  0.5664  0.3079  0.6946
  291MOL0     C40032   6.942   3.259   2.884 -0.1918 -0.4155  1.1080
  291MOL0     C40033   7.052   3.231   2.780 -0.1211  0.0955 -0.0185
  291MOL0     C40034   7.111   3.084   2.818 -0.0917 -0.5687 -0.9012
  291MOL0     C40035   7.194   3.020   2.699 -0.2834 -1.2912 -1.1970
  291MOL0     C40036   7.123   2.914   2.618  0.3649  0.3675  0.1902
  291MOL0     N40037   7.001   2.973   2.562  0.3413 -0.3968 -0.5652
  291MOL0     C40038   6.993   3.026   2.435  0.0574  0.4367  0.7569
  291MOL0     C40039   6.863   3.075   2.435 -0.6015  0.0830 -0.4639
  291MOL0     C40040   6.802   3.129   2.311 -0.0691 -0.7803  0.7021
  291MOL0     C40041   6.866   3.269   2.283  0.4007  0.2939 -0.4796
  291MOL0     C40042   7.002   3.268   2.214 -0.0558 -0.5534 -0.0774
  291MOL0     C40043   7.025   3.387   2.126  0.2740  0.5744 -0.3742
  291MOL0     O40044   7.034   3.505   2.211  0.4471  0.0243  0.0603
  291MOL0     C40045   7.027   3.620   2.149 -0.3977  0.5903  0.3395
  291MOL0     C40046   7.017   3.744   2.222 -0.7363 -0.7035  0.3791
  291MOL0     C40047   7.011   3.873   2.154 -0.4141 -0.0256  0.4164
  291MOL0     C40048   7.030   3.992   2.249  0.8221  0.3258 -0.0241
  291MOL0     C40049   6.970   3.884   2.023  0.3185 -0.3901 -0.0785
  291MOL0     C40050   6.941   4.020   1.956  0.2641 -0.4075  0.6745
  291MOL0     O40051   6.926   4.143   2.024 -0.0419  0.2096  0.0297
  291MOL0     C40052   6.921   4.257   1.940  0.1914 -0.1351  0.3387
  291MOL0     C40053   6.813   4.309   1.881 -0.5410  0.1153  0.1707
  291MOL0     C40054   6.816   4.409   1.789  0.5920 -1.0271 -0.8963
  291MOL0     C40055   6.941   4.463   1.758 -0.7901 -0.2325 -0.7782
  291MOL0     O40056   6.928   4.551   1.662 -0.1823 -0.2813  0.2435
  291MOL0     C40057   7.043   4.632   1.629 -0.3868  0.3356  0.3831
  291MOL0     C40058   7.006   4.760   1.553  0.3836  1.2486  0.1540
  291MOL0     C40059   7.132   4.833   1.506 -0.2180  0.0790  0.1584
  291MOL0     C40060   7.200   4.900   1.628 -0.4215 -0.0547 -0.3648
  291MOL0     C40061   7.277   5.028   1.604  0.3583 -0.3873 -0.5631
  291MOL0     C40062   7.342   5.096   1.725  0.0500 -1.1995 -0.1743
  291MOL0     C40063   7.412   5.226   1.686  0.9927  0.0032 -0.1916
  291MOL0     C40064   7.454   5.297   1.802 -0.8345 -0.6889 -0.6944
  291MOL0    Cl40065   7.570   5.200   1.912  0.3421  0.1419  0.1491
  291MOL0     C40066   7.061   4.421   1.818  0.5773  0.3947  0.8928
  291MOL0     C40067   7.051   4.311   1.907 -0.0198 -0.2215 -0.4749
  291MOL0     O40068   6.950   4.014   1.832  0.4067  0.0438  0.2979
  291MOL0     C40069   6.987   3.767   1.951  0.2779 -0.1370 -0.0643
  291MOL0     C40070   7.015   3.641   2.010  0.1692 -1.2014 -0.0602
  291MOL0     N40071   6.799   3.056   2.559 -1.2275  0.5135 -0.4413
  291MOL0     N40072   6.890   3.008   2.632  0.5158  0.9180 -0.9833
  291MOL0     C40073   6.452   3.215   2.687  0.2444 -0.8642  1.2220
  291MOL0     C40074   6.320   3.162   2.670 -0.0117 -0.1182 -0.5510
  291MOL0     C40075   5.883   3.058   2.707  1.2757  0.4558  1.0740
  291MOL0     C40076   5.855   2.994   2.830 -0.3751  0.2254  0.9496
  291MOL0     C40077   5.743   2.928   2.851 -0.0087 -0.3311  0.1484
  291MOL0     C40078   5.642   2.937   2.757  0.0746  0.4875 -0.3279
  291MOL0     O40079   5.516   2.891   2.778 -0.4621  0.2761 -0.1338
  291MOL0     C40080   5.500   2.762   2.836  0.1141  0.3132 -0.0220
  291MOL0     C40081   5.355   2.718   2.849  0.0869  0.1021  0.5909
  291MOL0     C40082   5.277   2.698   2.717 -0.4596  0.8620 -0.0623
  291MOL0     C40083   5.150   2.639   2.747  0.5847 -0.0756  0.0441
  291MOL0     C40084   5.065   2.710   2.844  1.3232  0.5548  0.2077
  291MOL0     C40085   5.000   2.761   2.925  0.4668 -0.4046  0.1333
  291MOL0     C40086   5.671   2.991   2.636  0.1023 -0.7718 -0.3574
  291MOL0     C40087   5.790   3.047   2.607  0.0657  0.2598  0.8286
  291MOL0     C40088   5.821   3.079   2.461 -0.4971  0.2605 -0.0101
  291MOL0     H40089   6.204   3.245   2.990 -0.8631 -1.5263 -0.7881
  291MOL0     H40090   6.406   3.380   2.983  2.6077 -0.2147 -1.6164
  291MOL0     H40091   6.625   3.398   2.652 -3.3856 -0.1509  1.8418
  291MOL0     H40092   6.720   3.262   2.720  0.2372  0.0132 -0.9179
  291MOL0     H40093   6.865   3.440   2.675 -1.3957  3.8671 -0.3717
  291MOL0     H40094   6.756   3.549   2.775 -1.6259 -0.4948 -0.0734
  291MOL0     H40095   6.970   3.468   2.885 -0.2157  1.3938 -0.3163
  291MOL0     H40096   6.817   3.413   2.974  0.0927  0.7632  0.2982
  291MOL0     H40097   6.983   3.248   2.985 -1.3671  0.0228  1.6504
  291MOL0     H40098   6.857   3.191   2.876 -1.8853  1.5883  1.3357
  291MOL0     H40099   7.122   3.315   2.772  1.0417 -0.9059 -0.7862
  291MOL0     H40100   7.010   3.227   2.679 -2.7040  2.9685  0.7729
  291MOL0     H40101   7.180   3.088   2.903 -0.5243 -0.0635 -0.5628
  291MOL0     H40102   7.025   3.023   2.848 -0.2956  0.1122 -0.0458
  291MOL0     H40103   7.285   2.980   2.745 -0.4908  1.0649  1.5321
  291MOL0     H40104   7.215   3.104   2.632  2.6426 -1.5893 -0.7866
  291MOL0     H40105   7.190   2.868   2.544  0.8261  1.3615 -0.0284
  291MOL0     H40106   7.098   2.840   2.694 -0.4829 -0.2326 -0.6513
  291MOL0     H40107   7.068   3.025   2.357 -0.5935  2.4012  0.0558
  291MOL0     H40108   6.696   3.146   2.329 -0.2702  1.1581 -1.7363
  291MOL0     H40109   6.822   3.064   2.226 -1.0978 -0.2305  0.0274
  291MOL0     H40110   6.811   3.322   2.205  2.4222 -2.5247 -4.1295
  291MOL0     H40111   6.881   3.329   2.373 -0.0790 -0.2953  0.0002
  291MOL0     H40112   7.084   3.255   2.284 -1.5834 -4.9317  1.2785
  291MOL0     H40113   7.003   3.174   2.156  0.0023 -1.6098  1.5748
  291MOL0     H40114   7.116   3.369   2.068  2.0022 -0.0107  2.3633
  291MOL0     H40115   6.946   3.391   2.050 -1.0427  1.0902  0.9758
  291MOL0     H40116   7.028   3.743   2.330  0.3153 -0.8317  0.2818
  291MOL0     H40117   7.125   4.046   2.240  0.4421  0.7019 -2.0727
  291MOL0     H40118   7.039   3.950   2.350  1.0355 -1.1060 -0.6061
  291MOL0     H40119   6.938   4.050   2.257 -0.3806 -1.3984 -0.8436
  291MOL0     H40120   6.717   4.264   1.906 -2.8199  4.4330  0.3037
  291MOL0     H40121   6.724   4.454   1.750 -0.4937 -0.0790  2.4464
  291MOL0     H40122   7.100   4.667   1.715  2.2116  1.4998 -1.6585
  291MOL0     H40123   7.107   4.587   1.553 -2.0852  0.0000 -0.9171
  291MOL0     H40124   6.942   4.715   1.476  1.2871  2.6017 -1.4556
  291MOL0     H40125   6.940   4.825   1.610 -2.3458 -1.6555  0.5677
  291MOL0     H40126   7.106   4.913   1.435 -0.8695  0.6715  1.0256
  291MOL0     H40127   7.188   4.769   1.438 -0.4075 -1.0669  1.0435
  291MOL0     H40128   7.267   4.824   1.670  0.3391  0.6159 -0.3433
  291MOL0     H40129   7.123   4.905   1.706  0.1648 -0.8342  0.2831
  291MOL0     H40130   7.356   5.012   1.530 -0.5553 -1.8169 -1.2742
  291MOL0     H40131   7.203   5.098   1.566  0.3255 -0.2622 -0.2755
  291MOL0     H40132   7.417   5.029   1.769  2.5260  1.1829 -0.5006
  291MOL0     H40133   7.276   5.115   1.810  0.8743  1.5896 -0.0799
  291MOL0     H40134   7.330   5.281   1.638  0.6554  0.2492  0.6435
  291MOL0     H40135   7.486   5.199   1.610 -0.6523 -0.9102 -1.5364
  291MOL0     H40136   7.359   5.320   1.851  1.3772  2.2515  2.7020
  291MOL0     H40137   7.493   5.396   1.777 -1.5353  0.0313  0.9303
  291MOL0     H40138   7.157   4.450   1.776  0.3853 -0.2145 -0.0176
  291MOL0     H40139   7.132   4.268   1.966  0.6581  1.4558 -0.1436
  291MOL0     H40140   6.966   3.761   1.845 -1.8749  0.5973  0.2709
  291MOL0     H40141   7.018   3.561   1.938 -0.4324 -1.6102  0.3581
  291MOL0     H40142   6.532   3.211   2.613 -0.5085 -0.0210  0.3322
  291MOL0     H40143   6.285   3.110   2.581 -0.5725 -0.8092  0.0628
  291MOL0     H40144   5.930   3.009   2.907  2.2890 -0.0072 -1.4809
  291MOL0     H40145   5.725   2.881   2.947 -3.2916 -1.5166 -0.9192
  291MOL0     H40146   5.553   2.688   2.775 -0.7524  0.1925 -0.6339
  291MOL0     H40147   5.550   2.765   2.933 -1.7953 -2.7546  1.1832
  291MOL0     H40148   5.319   2.805   2.905  1.0847 -0.3516  2.0189
  291MOL0     H40149   5.352   2.630   2.913  2.5074  1.6867  3.1123
  291MOL0     H40150   5.260   2.790   2.660  0.2197 -0.2627 -2.2090
  291MOL0     H40151   5.328   2.635   2.643 -1.6243  2.0839 -2.0045
  291MOL0     H40152   5.170   2.538   2.785  4.0202  0.9567  1.3504
  291MOL0     H40153   5.090   2.647   2.656  0.5947  2.6801  0.1909
  291MOL0     H40154   4.947   2.802   3.008  2.6626  2.1405  0.4383
  291MOL0     H40155   5.601   2.992   2.553 -1.4757 -1.7457  0.9118
  291MOL0     H40156   5.736   3.043   2.402 -0.3694 -2.7540  1.4160
  291MOL0     H40157   5.836   3.187   2.455 -0.5307  0.3839  1.7060
  291MOL0     H40158   5.907   3.023   2.422 -0.4061 -0.7457  1.5288
  292MOL0     O40159   9.590   9.571   0.510  0.9125  0.2323  0.6347
  292MOL0     C40160   9.535   9.595   0.402  0.2011  0.1463  0.0150
  292MOL0     O40161   9.406   9.642   0.385 -0.1334  0.8989 -0.1980
  292MOL0     C40162   9.314   9.650   0.487 -0.0973 -0.5416 -0.5345
  292MOL0     C40163   9.306   9.551   0.584  1.0769  0.1501 -0.3916
  292MOL0     C40164   9.187   9.545   0.665  0.5067  0.4434  1.4764
  292MOL0     C40165   9.085   9.649   0.666 -0.2265 -0.2595 -0.1582
  292MOL0     O40166   8.982   9.662   0.759  0.1357 -0.0898 -0.0492
  292MOL0     C40167   8.952   9.544   0.839 -0.6670 -0.4895 -0.1904
  292MOL0     C40168   8.805   9.572   0.892  0.3069 -0.1072  0.3280
  292MOL0     C40169   8.755   9.452   0.957  0.2903  0.1611  0.0160
  292MOL0     C40170   8.596   9.462   0.991 -0.2245  0.3006 -1.0924
  292MOL0     C40171   8.590   9.508   1.135 -0.6659  0.3684  0.7045
  292MOL0     C40172   8.570   9.392   1.241  0.3789  0.1521 -0.3559
  292MOL0     C40173   8.602   9.436   1.382  0.0432  0.2369  0.7749
  292MOL0     C40174   8.493   9.511   1.457  0.0149  1.0524  0.5821
  292MOL0     N40175   8.552   9.567   1.581 -0.2911 -0.3679 -0.0299
  292MOL0     C40176   8.509   9.680   1.650  0.0712 -1.0186 -0.9088
  292MOL0     C40177   8.581   9.682   1.770  1.1347  1.1716 -0.3222
  292MOL0     C40178   8.603   9.789   1.872 -1.3245 -0.1588 -0.4654
  292MOL0     C40179   8.478   9.823   1.951  0.3928  0.2543  0.4245
  292MOL0     C40180   8.387   9.920   1.880 -0.1406 -0.2409 -0.0424
  292MOL0     C40181   8.258   9.970   1.948 -0.1207  0.5555 -1.2144
  292MOL0     O40182   8.162   9.862   1.965 -0.5125 -0.2769  0.6640
  292MOL0     C40183   8.096   9.842   1.840  0.5893  0.4794  0.2839
  292MOL0     C40184   8.131   9.739   1.764 -0.1067 -1.2406 -0.5227
  292MOL0     C40185   8.077   9.728   1.633  0.1606 -0.7689  0.1404
  292MOL0     C40186   8.121   9.608   1.554 -0.2093 -0.6475  0.0528
  292MOL0     C40187   7.989   9.827   1.587  0.7337 -0.2150 -0.3655
  292MOL0     C40188   7.910   9.819   1.455 -0.5086 -0.3153  0.7381
  292MOL0     O40189   7.788   9.901   1.449  0.0870  0.2383 -0.8951
  292MOL0     C40190   7.725   9.936   1.331 -0.1572  1.4256 -0.5310
  292MOL0     C40191   7.653  10.053   1.349  0.0285 -0.3773 -0.0041
  292MOL0     C40192   7.579  10.110   1.245  0.5796 -0.0669 -0.9713
  292MOL0     C40193   7.554  10.036   1.126  0.5057 -1.3078  0.3514
  292MOL0     O40194   7.463  10.063   1.028 -0.3138  0.5162 -0.2654
  292MOL0     C40195   7.354  10.150   1.063 -0.8554 -0.1913 -0.1917
  292MOL0     C40196   7.256  10.166   0.958  0.2924 -0.6227  0.9321
  292MOL0     C40197   7.146  10.265   0.993 -0.5761 -0.5466  0.2304
  292MOL0     C40198   7.031  10.195   1.070  0.3490 -0.4593  0.0551
  292MOL0     C40199   6.947  10.293   1.155 -0.6494 -0.4278 -0.2909
  292MOL0     C40200   6.801  10.236   1.153 -0.4577  0.0002  0.3885
  292MOL0     C40201   6.702  10.320   1.231  0.0498 -0.9820  0.4917
  292MOL0     C40202   6.640  10.424   1.140 -0.5089  1.0251 -0.2328
  292MOL0    Cl40203   6.528  10.506   1.241  0.5820 -0.0084 -0.2805
  292MOL0     C40204   7.629   9.916   1.109 -0.3563  0.6227 -0.1096
  292MOL0     C40205   7.713   9.865   1.208 -0.0276 -1.0478 -0.1770
  292MOL0     O40206   7.961   9.757   1.364 -0.0823  0.3844  0.1268
  292MOL0     C40207   7.950   9.926   1.674  0.4474  0.0639 -0.2985
  292MOL0     C40208   8.008   9.940   1.797  0.0463 -0.2566  0.5060
  292MOL0     N40209   8.647   9.568   1.776  0.2341  0.4641  0.2955
  292MOL0     N40210   8.637   9.504   1.668 -0.0520 -0.1928  1.2312
  292MOL0     C40211   9.098   9.745   0.566 -0.8255 -0.4852 -0.2180
  292MOL0     C40212   9.208   9.743   0.479  0.8161  0.3870  0.3412
  292MOL0     C40213   9.597   9.570   0.265 -0.5268 -0.6306 -0.1248
  292MOL0     C40214   9.508   9.555   0.149 -0.4004  0.1095 -0.7940
  292MOL0     C40215   9.555   9.519   0.023 -0.3508  0.2406 -0.6363
  292MOL0     C40216   9.695   9.502   0.010  0.0362  0.5131 -0.5056
  292MOL0     O40217   9.754   9.467  -0.110  0.3121 -0.1368 -0.0534
  292MOL0     C40218   9.681   9.395  -0.209  0.2724  0.3834 -0.4428
  292MOL0     C40219   9.765   9.312  -0.308  0.0740  0.5866 -0.2873
  292MOL0     C40220   9.842   9.203  -0.228  0.0277 -0.4089 -0.0753
  292MOL0     C40221   9.928   9.123  -0.318 -0.1183 -0.0920 -0.3330
  292MOL0     C40222   9.861   9.048  -0.427 -0.0899 -0.4507  0.1128
  292MOL0     C40223   9.800   8.971  -0.509 -0.1343 -0.4760 -0.3127
  292MOL0     C40224   9.779   9.538   0.118 -0.1305 -1.1401  0.6843
  292MOL0     C40225   9.735   9.565   0.245 -0.0269 -0.0685 -0.5102
  292MOL0     C40226   9.832   9.614   0.351 -0.5814  0.0816 -0.3062
  292MOL0     H40227   9.373   9.467   0.598  0.1682 -0.7640 -1.2812
  292MOL0     H40228   9.174   9.458   0.729 -2.5127 -1.1557 -0.9812
  292MOL0     H40229   9.018   9.551   0.927 -1.8372  0.7313  0.6273
  292MOL0     H40230   8.971   9.456   0.777  1.5065  0.8744 -1.6026
  292MOL0     H40231   8.807   9.655   0.964  0.0486  2.1778 -2.1335
  292MOL0     H40232   8.729   9.596   0.816 -1.6213 -0.8622  1.9310
  292MOL0     H40233   8.758   9.376   0.879  1.3650 -1.4003  1.4964
  292MOL0     H40234   8.817   9.409   1.036 -0.9461 -1.4842  0.1234
  292MOL0     H40235   8.540   9.542   0.941 -0.9662 -0.0317 -0.8088
  292MOL0     H40236   8.542   9.367   0.985  0.2815 -0.0440 -0.2915
  292MOL0     H40237   8.500   9.570   1.144 -0.0705  1.2242  0.8347
  292MOL0     H40238   8.668   9.578   1.164  1.0703 -1.1281 -0.1207
  292MOL0     H40239   8.468   9.353   1.230  1.0919 -1.6346 -1.0358
  292MOL0     H40240   8.629   9.301   1.222 -2.4592 -2.3039  1.5475
  292MOL0     H40241   8.690   9.500   1.368  0.9345 -1.5860 -3.4796
  292MOL0     H40242   8.636   9.343   1.429 -0.7000 -0.3378  0.1899
  292MOL0     H40243   8.440   9.578   1.389 -0.8682  0.0611  0.2737
  292MOL0     H40244   8.421   9.433   1.482 -1.3856  1.8673 -0.7904
  292MOL0     H40245   8.445   9.760   1.615 -2.4718 -0.4872  4.0383
  292MOL0     H40246   8.647   9.876   1.821 -2.2681  1.5171  1.4366
  292MOL0     H40247   8.679   9.760   1.944 -0.1075  2.1377 -0.7040
  292MOL0     H40248   8.421   9.731   1.967  2.1381 -1.1244 -0.8594
  292MOL0     H40249   8.502   9.866   2.049 -1.8620 -2.2626  2.2268
  292MOL0     H40250   8.445  10.009   1.854 -3.3370  2.2556  0.6393
  292MOL0     H40251   8.354   9.877   1.785  0.5845  1.0364 -0.9068
  292MOL0     H40252   8.277  10.011   2.048  0.6931 -1.8344 -0.3134
  292MOL0     H40253   8.216  10.051   1.888 -3.0228  2.2986  2.7306
  292MOL0     H40254   8.195   9.663   1.809 -0.0209 -0.3646  0.8918
  292MOL0     H40255   8.161   9.637   1.456  0.8583  3.9850  1.6393
  292MOL0     H40256   8.032   9.547   1.536 -1.3406  1.1934 -0.8839
  292MOL0     H40257   8.194   9.545   1.605 -1.0545 -1.2542  0.5409
  292MOL0     H40258   7.671  10.105   1.442 -1.2233 -1.0454  0.6333
  292MOL0     H40259   7.521  10.198   1.266 -5.9096 -4.0532  0.7073
  292MOL0     H40260   7.301  10.119   1.154 -0.6577 -1.3751 -0.4615
  292MOL0     H40261   7.398  10.249   1.079  0.5744 -0.9533  0.9277
  292MOL0     H40262   7.295  10.199   0.862  0.1893  1.0073  1.4286
  292MOL0     H40263   7.217  10.066   0.935 -2.9837  0.7748 -0.2151
  292MOL0     H40264   7.091  10.308   0.909 -4.3295 -1.3505  2.0473
  292MOL0     H40265   7.193  10.338   1.060 -1.3963  0.7328 -0.5393
  292MOL0     H40266   7.072  10.116   1.134 -2.8537 -2.1528  0.2352
  292MOL0     H40267   6.974  10.150   0.988 -1.1881 -1.0747  1.3935
  292MOL0     H40268   6.976  10.302   1.260 -3.1543 -1.2493  0.5494
  292MOL0     H40269   6.952  10.387   1.099 -0.0977 -1.0602 -1.3289
  292MOL0     H40270   6.807  10.134   1.192 -0.0824 -0.7887 -1.5893
  292MOL0     H40271   6.766  10.214   1.051  3.4784  1.3736 -1.4657
  292MOL0     H40272   6.747  10.364   1.320 -2.8999 -0.3830  1.8246
  292MOL0     H40273   6.622  10.257   1.273 -1.5959  1.6796  1.6113
  292MOL0     H40274   6.589  10.378   1.054 -0.8925  0.1144  0.4753
  292MOL0     H40275   6.717  10.489   1.096 -1.6566  1.5992 -1.4610
  292MOL0     H40276   7.600   9.839   1.039  0.1576 -2.0261  2.4267
  292MOL0     H40277   7.763   9.770   1.191  2.0698 -0.4037  2.0079
  292MOL0     H40278   7.871   9.999   1.657 -1.2314 -0.8287  2.9443
  292MOL0     H40279   7.980  10.024   1.860 -1.5054 -0.6722  0.4155
  292MOL0     H40280   9.020   9.813   0.535 -1.9662 -2.4656 -1.9865
  292MOL0     H40281   9.214   9.817   0.400 -3.2327  2.3041  1.5847
  292MOL0     H40282   9.404   9.576   0.166  0.5976  3.0901  2.7689
  292MOL0     H40283   9.496   9.502  -0.066 -1.9529 -1.9529  0.7561
  292MOL0     H40284   9.620   9.321  -0.157  1.4732 -0.2554  0.0863
  292MOL0     H40285   9.613   9.455  -0.271  0.0013  0.9624  0.3867
  292MOL0     H40286   9.851   9.365  -0.349  0.5763 -0.0470 -0.0793
  292MOL0     H40287   9.701   9.269  -0.386 -1.8898  0.3140  1.3835
  292MOL0     H40288   9.915   9.243  -0.157 -1.6690  0.1414  1.4155
  292MOL0     H40289   9.776   9.142  -0.166 -2.1672  1.6676 -0.2198
  292MOL0     H40290   9.972   9.043  -0.257 -0.1548  0.3403  0.2643
  292MOL0     H40291  10.008   9.184  -0.361  0.3520 -1.1611 -1.0418
  292MOL0     H40292   9.761   8.893  -0.571  1.1772 -1.1386 -0.3355
  292MOL0     H40293   9.884   9.532   0.090  0.1064  1.6097  0.6873
  292MOL0     H40294   9.822   9.549   0.438  2.0228  1.0915  0.8497
  292MOL0     H40295   9.934   9.592   0.318 -1.2971  0.8444 -3.4084
  292MOL0     H40296   9.822   9.722   0.364  0.3075  0.7477 -3.9942
  293MOL0     O40297  10.777   3.871  11.532 -0.0059  0.0616 -0.0548
  293MOL0     C40298  10.708   3.802  11.610  1.7415  0.1556 -0.2740
  293MOL0     O40299  10.624   3.705  11.570 -0.5585  0.9912  0.4627
  293MOL0     C40300  10.568   3.616  11.658 -0.0319  0.5150 -1.5086
  293MOL0     C40301  10.620   3.492  11.691 -0.6088 -0.4285  0.0723
  293MOL0     C40302  10.546   3.386  11.755 -0.4634 -0.3222 -0.3961
  293MOL0     C40303  10.421   3.414  11.799  0.6743 -0.2244 -0.1075
  293MOL0     O40304  10.346   3.314  11.852 -0.3868  1.6498 -0.6100
  293MOL0     C40305  10.257   3.239  11.769 -0.2995  0.0195  0.1896
  293MOL0     C40306  10.201   3.124  11.854  0.2551 -0.4723  0.4143
  293MOL0     C40307  10.107   3.027  11.776  0.2320 -0.2428 -0.5449
  293MOL0     C40308  10.066   2.913  11.875  0.1831 -0.5825  1.2654
  293MOL0     C40309   9.981   2.804  11.792  0.1297  0.3806  0.5871
  293MOL0     C40310  10.057   2.724  11.688  0.5589  1.1071 -0.2459
  293MOL0     C40311   9.959   2.625  11.610 -0.4872 -0.4058  0.0774
  293MOL0     C40312   9.950   2.666  11.460 -0.3562 -0.2641  0.1382
  293MOL0     N40313   9.873   2.560  11.388 -0.5690  0.5080 -0.3419
  293MOL0     C40314   9.741   2.524  11.426 -0.0623 -0.0925 -0.2308
  293MOL0     C40315   9.715   2.411  11.353 -0.4333  0.2966  0.1344
  293MOL0     C40316   9.598   2.321  11.380 -0.3528 -0.2271 -0.3246
  293MOL0     C40317   9.630   2.172  11.340  0.0665  0.6080 -0.5647
  293MOL0     C40318   9.521   2.080  11.385  0.2897 -0.1839 -0.4427
  293MOL0     C40319   9.395   2.079  11.294  1.1001 -1.4847 -0.2217
  293MOL0     O40320   9.321   2.205  11.302 -0.6448  0.4293 -0.0019
  293MOL0     C40321   9.232   2.224  11.192  0.0843 -0.4217  0.4134
  293MOL0     C40322   9.168   2.346  11.182  0.1679  0.0085 -0.6148
  293MOL0     C40323   9.078   2.377  11.084 -0.2241 -0.3485  0.7306
  293MOL0     C40324   9.023   2.517  11.093 -0.1533  0.1354 -0.0028
  293MOL0     C40325   9.051   2.280  10.983  0.6556 -0.1222  0.0176
  293MOL0     C40326   8.951   2.293  10.876  0.9134 -0.0199 -0.5912
  293MOL0     O40327   8.849   2.376  10.899 -0.3585  0.0480  0.4807
  293MOL0     C40328   8.746   2.388  10.806 -0.1024 -0.3760 -0.0171
  293MOL0     C40329   8.622   2.332  10.834 -1.0935 -0.9880  0.4440
  293MOL0     C40330   8.527   2.333  10.740  0.1816  0.3948  0.1817
  293MOL0     C40331   8.548   2.386  10.603 -0.1883 -0.0797 -0.3670
  293MOL0     O40332   8.460   2.385  10.502  0.3342  0.3932 -0.0012
  293MOL0     C40333   8.324   2.398  10.526 -0.1801  0.6954 -0.0471
  293MOL0     C40334   8.258   2.328  10.407  0.6375  0.5951  0.2532
  293MOL0     C40335   8.296   2.176  10.406  0.1386  0.6053  0.8625
  293MOL0     C40336   8.226   2.103  10.284 -0.0063 -1.2288 -1.0643
  293MOL0     C40337   8.282   1.965  10.292 -0.4711  0.9963 -0.1516
  293MOL0     C40338   8.216   1.878  10.181  0.1087 -0.0139 -0.7921
  293MOL0     C40339   8.080   1.834  10.235 -0.4636  0.6684  0.5304
  293MOL0     C40340   7.983   1.787  10.115  0.4090  0.2177 -0.0871
  293MOL0    Cl40341   7.861   1.917  10.090  0.5252 -0.4758 -0.1675
  293MOL0     C40342   8.674   2.441  10.573 -0.3688  0.3542 -0.3049
  293MOL0     C40343   8.773   2.444  10.677 -0.1133 -0.2957  0.0519
  293MOL0     O40344   8.960   2.222  10.779 -0.1086  0.1591 -0.1686
  293MOL0     C40345   9.120   2.163  10.980 -0.4088  1.8395 -0.1237
  293MOL0     C40346   9.208   2.131  11.083  0.9526  0.5101  0.6822
  293MOL0     N40347   9.831   2.381  11.279  0.1353 -1.0096  0.3328
  293MOL0     N40348   9.925   2.472  11.301  0.3153  0.9817  0.3620
  293MOL0     C40349  10.370   3.545  11.786 -0.3291 -0.0083  0.2878
  293MOL0     C40350  10.443   3.634  11.705  0.5361 -1.7832  0.0274
  293MOL0     C40351  10.716   3.842  11.752  0.3654  0.6547  0.7274
  293MOL0     C40352  10.817   3.786  11.833 -0.6331  0.4928  0.3688
  293MOL0     C40353  10.828   3.820  11.962 -0.3241  0.2885 -1.1383
  293MOL0     C40354  10.751   3.927  12.021 -0.0705 -0.2861 -0.5130
  293MOL0     O40355  10.748   3.962  12.156  0.8682 -0.0357 -0.2428
  293MOL0     C40356  10.840   3.922  12.251 -0.1077  1.0602  0.7864
  293MOL0     C40357  10.869   4.014  12.356  0.2938  0.7365 -0.4096
  293MOL0     C40358  10.746   4.054  12.433  0.2922 -0.3661 -0.7827
  293MOL0     C40359  10.789   4.158  12.536  0.2339  0.5116  0.2989
  293MOL0     C40360  10.671   4.208  12.603  1.0533  0.1732  1.0783
  293MOL0     C40361  10.569   4.248  12.661  0.2635 -0.3046  0.5941
  293MOL0     C40362  10.663   3.991  11.941  0.2229 -0.5505 -0.1957
  293MOL0     C40363  10.644   3.948  11.808 -0.3464  0.2547 -1.1383
  293MOL0     C40364  10.539   4.020  11.731  0.0300 -0.0191 -1.0092
  293MOL0     H40365  10.716   3.473  11.642 -0.9758  0.1257 -0.8931
  293MOL0     H40366  10.588   3.288  11.774  1.0899  0.5789  1.1355
  293MOL0     H40367  10.318   3.186  11.695 -3.2831 -0.8119 -1.8777
  293MOL0     H40368  10.183   3.294  11.710 -0.2448  0.8776  0.9115
  293MOL0     H40369  10.286   3.069  11.895  2.8164  1.8017 -1.4505
  293MOL0     H40370  10.149   3.168  11.939 -1.7035  1.7068 -1.7740
  293MOL0     H40371  10.020   3.081  11.739  0.1073 -0.2650 -0.2852
  293MOL0     H40372  10.156   2.976  11.692 -1.0725 -1.2056 -0.7470
  293MOL0     H40373  10.152   2.866  11.924 -0.0355 -0.5112  1.7294
  293MOL0     H40374  10.006   2.955  11.956  0.6833  1.2998  0.7123
  293MOL0     H40375   9.888   2.842  11.750  0.0810 -0.9385 -0.5594
  293MOL0     H40376   9.931   2.739  11.865  0.9115 -0.3488  0.4963
  293MOL0     H40377  10.105   2.795  11.621  3.3818 -0.4179 -0.0011
  293MOL0     H40378  10.135   2.666  11.737 -1.3687 -1.3764  0.1110
  293MOL0     H40379   9.860   2.635  11.656 -1.5416 -1.3180 -1.8686
  293MOL0     H40380   9.993   2.522  11.613 -1.4819 -0.7909 -1.0875
  293MOL0     H40381   9.900   2.762  11.449  0.3255 -0.2376 -4.0276
  293MOL0     H40382  10.048   2.669  11.413  1.1214 -1.8439  2.8006
  293MOL0     H40383   9.671   2.566  11.497 -1.4690  0.7838 -2.0537
  293MOL0     H40384   9.527   2.375  11.316  1.8080  3.2856 -0.0321
  293MOL0     H40385   9.582   2.334  11.487  3.5494  0.8375  0.2851
  293MOL0     H40386   9.638   2.146  11.234 -1.9943 -3.0504 -0.0040
  293MOL0     H40387   9.723   2.146  11.392 -1.1456  1.2435  2.0675
  293MOL0     H40388   9.562   1.980  11.376  2.0432  0.1052  2.8760
  293MOL0     H40389   9.491   2.106  11.487 -0.4149  1.4809 -1.0246
  293MOL0     H40390   9.431   2.043  11.198  0.1144 -1.6246 -0.5535
  293MOL0     H40391   9.330   2.007  11.345 -0.0239  1.5349  3.0504
  293MOL0     H40392   9.179   2.414  11.266  4.4995  0.7374 -1.5310
  293MOL0     H40393   9.103   2.583  11.058  0.6538 -1.2727 -0.9156
  293MOL0     H40394   9.003   2.536  11.198 -1.2216 -2.5987  0.3702
  293MOL0     H40395   8.924   2.537  11.049 -1.2416 -0.3103  2.1296
  293MOL0     H40396   8.602   2.295  10.934 -1.4696  0.3365  0.8866
  293MOL0     H40397   8.427   2.302  10.771 -1.5044  2.5171 -2.5596
  293MOL0     H40398   8.309   2.361  10.628  0.1841  1.1929  0.1954
  293MOL0     H40399   8.294   2.503  10.517 -0.3689  0.6932  0.5045
  293MOL0     H40400   8.149   2.336  10.409  0.5580  0.9133 -2.2780
  293MOL0     H40401   8.299   2.373  10.316  2.4844  0.0784  0.7951
  293MOL0     H40402   8.264   2.122  10.496  0.1206 -2.7147 -1.0077
  293MOL0     H40403   8.405   2.180  10.395 -0.0445  2.7766 -0.8742
  293MOL0     H40404   8.249   2.148  10.187 -0.7772  2.6242  0.3627
  293MOL0     H40405   8.118   2.109  10.300  0.2501 -1.7043  1.1284
  293MOL0     H40406   8.391   1.975  10.282 -0.3915  0.6715  0.3754
  293MOL0     H40407   8.264   1.918  10.389  0.0179  1.3557  0.1148
  293MOL0     H40408   8.275   1.788  10.162 -2.7425 -1.9394 -1.1969
  293MOL0     H40409   8.204   1.943  10.094  1.8000 -0.6301 -1.5224
  293MOL0     H40410   8.025   1.913  10.287 -1.6231 -0.1051  0.5266
  293MOL0     H40411   8.110   1.756  10.306  1.0013 -1.4277 -2.2052
  293MOL0     H40412   7.929   1.698  10.147 -0.1555  0.5267 -0.1581
  293MOL0     H40413   8.030   1.769  10.018 -1.0721 -4.1715 -0.1774
  293MOL0     H40414   8.709   2.483  10.479 -0.9514  0.5537 -0.4350
  293MOL0     H40415   8.870   2.489  10.659 -0.1925 -0.8174 -1.8696
  293MOL0     H40416   9.105   2.079  10.913 -0.7189 -1.7842  4.0128
  293MOL0     H40417   9.255   2.035  11.066  0.7318  0.9100 -3.2542
  293MOL0     H40418  10.271   3.567  11.825 -0.0257 -2.5953  2.8400
  293MOL0     H40419  10.402   3.730  11.674  2.0974 -0.7900  0.9216
  293MOL0     H40420  10.876   3.702  11.799 -2.7615 -1.3252  0.9376
  293MOL0     H40421  10.893   3.759  12.023  1.1897  2.5599 -0.3298
  293MOL0     H40422  10.813   3.821  12.283 -0.1815  0.5115 -0.8825
  293MOL0     H40423  10.935   3.910  12.200  0.7900  0.0103  2.6220
  293MOL0     H40424  10.932   4.096  12.318  0.1589  0.9244 -0.2331
  293MOL0     H40425  10.943   3.959  12.416 -0.1377 -1.2849 -1.6678
  293MOL0     H40426  10.676   4.101  12.362 -2.4683 -0.2833  1.7836
  293MOL0     H40427  10.694   3.966  12.472  2.1364 -0.2278  2.2645
  293MOL0     H40428  10.851   4.237  12.492  0.4168  1.8573  2.7614
  293MOL0     H40429  10.852   4.108  12.610 -0.5876 -0.7231  0.1895
  293MOL0     H40430  10.486   4.282  12.720 -0.0966 -0.0830 -0.0292
  293MOL0     H40431  10.600   4.075  11.968 -2.7510 -2.1832 -1.5314
  293MOL0     H40432  10.593   4.102  11.682  1.9764 -0.5923  0.0824
  293MOL0     H40433  10.510   3.954  11.648 -1.0296  0.8283 -1.3441
  293MOL0     H40434  10.450   4.054  11.785  0.5388  3.0366 -1.8757
  294MOL0     O40435   0.963   0.874   9.949  0.7832 -0.3186 -0.1323
  294MOL0     C40436   0.959   0.826  10.060 -0.0705  0.1663  0.1999
  294MOL0     O40437   0.954   0.898  10.177 -0.0287  0.8952 -1.1166
  294MOL0     C40438   1.030   1.009  10.195  0.7893 -0.7076  0.8098
  294MOL0     C40439   1.122   1.060  10.097  0.1806 -0.0707 -0.8145
  294MOL0     C40440   1.194   1.181  10.109  0.4411  0.2621 -0.0186
  294MOL0     C40441   1.171   1.252  10.224 -0.2809 -0.3307 -0.2066
  294MOL0     O40442   1.243   1.364  10.239 -0.8837  0.1506  0.3787
  294MOL0     C40443   1.293   1.388  10.376  0.9431  1.0902 -0.0111
  294MOL0     C40444   1.427   1.319  10.392 -0.3484  0.3639 -1.5512
  294MOL0     C40445   1.465   1.318  10.538  0.2397  0.4154 -0.0607
  294MOL0     C40446   1.566   1.208  10.562 -0.4667  0.8649  0.2524
  294MOL0     C40447   1.622   1.202  10.706 -0.4114 -0.1619 -0.2176
  294MOL0     C40448   1.694   1.333  10.736 -0.0498  0.3376  0.3368
  294MOL0     C40449   1.778   1.331  10.872 -0.9109 -0.0693  0.2414
  294MOL0     C40450   1.847   1.472  10.879  0.1167  0.1613 -0.1795
  294MOL0     N40451   1.929   1.508  10.998 -0.3747 -0.4402  0.3175
  294MOL0     C40452   1.881   1.552  11.119  0.3530  0.3546 -0.3823
  294MOL0     C40453   1.993   1.590  11.187  0.1067  1.2964  1.1735
  294MOL0     C40454   1.996   1.659  11.316  0.6246 -0.6450  0.1088
  294MOL0     C40455   2.020   1.574  11.440 -0.0664 -0.0145  0.1561
  294MOL0     C40456   2.039   1.660  11.570 -0.6417  0.1554  0.1069
  294MOL0     C40457   2.065   1.567  11.688  0.1010 -0.2212  0.1919
  294MOL0     O40458   2.085   1.661  11.794  0.3030  0.3281 -0.2660
  294MOL0     C40459   1.988   1.667  11.902 -0.4978  0.5882 -0.8281
  294MOL0     C40460   2.020   1.731  12.027  0.3309 -0.0533  0.2983
  294MOL0     C40461   1.917   1.744  12.122 -0.4688 -0.0116 -0.3865
  294MOL0     C40462   1.963   1.819  12.244 -0.3082  0.6432 -0.6752
  294MOL0     C40463   1.784   1.701  12.102 -0.9745  0.4465  0.1327
  294MOL0     C40464   1.673   1.712  12.188 -0.0497 -0.1603 -0.8926
  294MOL0     O40465   1.543   1.703  12.142 -0.7191 -0.1156  0.2413
  294MOL0     C40466   1.443   1.729  12.235  0.0499  0.3341 -0.4934
  294MOL0     C40467   1.324   1.654  12.218 -1.0696 -0.6033  0.3888
  294MOL0     C40468   1.221   1.670  12.314 -1.0101 -0.3786  0.0189
  294MOL0     C40469   1.221   1.771  12.411 -0.8088 -0.6012 -0.3135
  294MOL0     O40470   1.108   1.777  12.487  0.0280  0.2212  0.0897
  294MOL0     C40471   1.108   1.833  12.614  0.4649  1.3010 -0.1010
  294MOL0     C40472   0.958   1.842  12.650 -0.2124 -0.1782  0.4281
  294MOL0     C40473   0.939   1.876  12.793 -0.0754 -0.0101 -0.0518
  294MOL0     C40474   0.975   1.775  12.900  0.6472 -0.0567 -0.2878
  294MOL0     C40475   0.994   1.833  13.046  0.8641 -0.7781 -0.1185
  294MOL0     C40476   0.876   1.852  13.141 -0.2423 -0.2707  0.3674
  294MOL0     C40477   0.936   1.876  13.286 -0.0324 -0.1529  0.2859
  294MOL0     C40478   0.824   1.920  13.386 -0.0630 -0.5833  0.0137
  294MOL0    Cl40479   0.679   1.816  13.386  0.2722 -0.6374 -0.2544
  294MOL0     C40480   1.339   1.846  12.415  0.4242 -0.2341 -0.9635
  294MOL0     C40481   1.450   1.824  12.335 -0.4072 -0.6858 -0.0879
  294MOL0     O40482   1.702   1.710  12.307 -0.3843 -0.6761  0.5046
  294MOL0     C40483   1.757   1.640  11.980  0.7214 -0.7845  0.1857
  294MOL0     C40484   1.858   1.621  11.886  0.4328  0.0707  0.5261
  294MOL0     N40485   2.100   1.573  11.106 -0.0175 -0.2526 -0.1359
  294MOL0     N40486   2.065   1.536  10.992  1.0985  0.1773  1.1652
  294MOL0     C40487   1.080   1.215  10.319 -0.9344 -0.3737  0.6586
  294MOL0     C40488   1.002   1.094  10.305 -0.6045  0.2428 -0.6062
  294MOL0     C40489   0.952   0.681  10.086  0.2947 -0.4696 -0.1896
  294MOL0     C40490   0.935   0.627  10.217  0.3116 -0.2039  0.4497
  294MOL0     C40491   0.913   0.485  10.240  0.2462  0.1487  0.5261
  294MOL0     C40492   0.908   0.396  10.127 -0.0619 -0.1401 -0.4392
  294MOL0     O40493   0.911   0.261  10.157 -0.5508  0.4558  0.3315
  294MOL0     C40494   0.941   0.161  10.051  0.1962  0.0410  0.6042
  294MOL0     C40495   0.810   0.118   9.973  0.0179 -0.1689  0.5073
  294MOL0     C40496   0.826   0.026   9.855 -1.0291 -0.1853 -0.2120
  294MOL0     C40497   0.695  -0.020   9.791  0.7212  0.1153  0.3036
  294MOL0     C40498   0.700  -0.140   9.703  0.0309  1.1274 -0.7989
  294MOL0     C40499   0.688  -0.234   9.625  0.9496 -1.1425  0.8553
  294MOL0     C40500   0.928   0.449  10.003  0.2413 -0.2217  0.0049
  294MOL0     C40501   0.950   0.582   9.981 -0.2114  0.1046 -0.1343
  294MOL0     C40502   0.997   0.611   9.839  0.0345 -0.5971 -0.0708
  294MOL0     H40503   1.130   1.006  10.003 -1.2259  1.1309 -1.6795
  294MOL0     H40504   1.269   1.211  10.037  0.0596 -1.0325 -1.0013
  294MOL0     H40505   1.232   1.373  10.465  0.9452 -1.5406 -0.3861
  294MOL0     H40506   1.308   1.496  10.378  3.3006  0.8113  0.2144
  294MOL0     H40507   1.413   1.214  10.365  0.1960 -0.1387  0.0076
  294MOL0     H40508   1.491   1.380  10.327 -1.3086  3.0810 -0.0828
  294MOL0     H40509   1.505   1.417  10.561  0.9611  0.4103 -1.2161
  294MOL0     H40510   1.375   1.296  10.596  0.3064 -0.1691 -0.1756
  294MOL0     H40511   1.514   1.113  10.543 -1.5792  1.1262  1.7750
  294MOL0     H40512   1.648   1.225  10.493  2.2474  3.8386  3.8062
  294MOL0     H40513   1.694   1.122  10.723  0.5857  0.8038  0.2365
  294MOL0     H40514   1.551   1.179  10.786 -2.2303 -1.4556 -2.0928
  294MOL0     H40515   1.757   1.356  10.650 -0.9039  1.4050 -0.0319
  294MOL0     H40516   1.625   1.418  10.729  0.7509  0.9674 -0.1830
  294MOL0     H40517   1.854   1.252  10.878  0.2554  0.9174 -0.8419
  294MOL0     H40518   1.712   1.314  10.957 -0.2191  1.0137  1.0169
  294MOL0     H40519   1.909   1.480  10.789 -0.0945  1.8115 -0.2193
  294MOL0     H40520   1.774   1.554  10.881 -0.2932 -0.0716 -2.7079
  294MOL0     H40521   1.786   1.553  11.171  0.2524  1.4960 -0.5660
  294MOL0     H40522   1.903   1.713  11.339  0.3047 -1.3101  0.3798
  294MOL0     H40523   2.067   1.743  11.317  2.3318 -2.0505  0.2937
  294MOL0     H40524   1.942   1.498  11.453 -0.4847  0.4978  0.7321
  294MOL0     H40525   2.115   1.528  11.410 -0.1986  0.7407 -1.4943
  294MOL0     H40526   2.123   1.730  11.566 -0.8845  0.4114 -3.2589
  294MOL0     H40527   1.943   1.710  11.592 -2.1947 -0.7640 -3.7500
  294MOL0     H40528   1.987   1.492  11.705 -0.9052  1.0864  1.6929
  294MOL0     H40529   2.149   1.499  11.669 -0.8182 -1.0274 -1.1026
  294MOL0     H40530   2.117   1.778  12.041  1.0835 -2.2230  3.3528
  294MOL0     H40531   1.957   1.748  12.328  2.2794  1.1190 -0.0043
  294MOL0     H40532   1.902   1.908  12.262 -0.3153  0.2565  1.6220
  294MOL0     H40533   2.066   1.852  12.232  0.7341 -2.5020 -1.4569
  294MOL0     H40534   1.332   1.576  12.142  1.5064  2.3014 -2.6154
  294MOL0     H40535   1.136   1.604  12.300 -2.3675  1.5344 -1.3687
  294MOL0     H40536   1.176   1.771  12.673  2.9061  1.8968 -2.1250
  294MOL0     H40537   1.149   1.934  12.618  0.6818  1.1999  2.5683
  294MOL0     H40538   0.911   1.924  12.595  1.3036 -0.0195 -0.6739
  294MOL0     H40539   0.903   1.751  12.625  0.0304 -0.0741 -0.5201
  294MOL0     H40540   0.835   1.908  12.803  1.1173  3.6682  2.2287
  294MOL0     H40541   1.001   1.960  12.823 -0.4479  0.2749 -0.0771
  294MOL0     H40542   1.075   1.738  12.873  0.2242  0.0023 -2.1237
  294MOL0     H40543   0.906   1.691  12.890  0.8029 -0.1002 -1.1504
  294MOL0     H40544   1.063   1.764  13.095 -0.4825 -4.0534 -2.4799
  294MOL0     H40545   1.038   1.933  13.044 -2.2455  0.7404  0.9319
  294MOL0     H40546   0.820   1.759  13.142 -0.7328 -0.0949  4.0671
  294MOL0     H40547   0.824   1.944  13.112  1.0144  2.4318  5.4054
  294MOL0     H40548   1.012   1.954  13.279  1.6667 -1.8485 -2.9345
  294MOL0     H40549   1.003   1.797  13.324  0.8997  0.3125 -0.3469
  294MOL0     H40550   0.786   2.018  13.355  0.4043  0.7348  3.2526
  294MOL0     H40551   0.857   1.935  13.489 -1.2749 -0.2626  0.3650
  294MOL0     H40552   1.361   1.921  12.489  0.3172 -2.8559  1.9174
  294MOL0     H40553   1.531   1.891  12.363  0.0817 -0.8642 -1.0200
  294MOL0     H40554   1.656   1.612  11.952  0.8164  1.1700 -2.4244
  294MOL0     H40555   1.817   1.581  11.793 -2.5403  0.6173  1.4853
  294MOL0     H40556   1.069   1.291  10.395  1.2211 -1.0944  1.7708
  294MOL0     H40557   0.927   1.072  10.380 -1.4770  1.6777 -1.0147
  294MOL0     H40558   0.930   0.685  10.308  1.3812 -0.3723  0.6232
  294MOL0     H40559   0.916   0.446  10.342  0.0796 -0.6096  0.2469
  294MOL0     H40560   1.026   0.195   9.991  1.0854  0.3370  1.9754
  294MOL0     H40561   0.964   0.066  10.100 -3.0259 -1.5558 -0.6776
  294MOL0     H40562   0.767   0.211   9.934  0.5842 -0.4236 -0.7707
  294MOL0     H40563   0.753   0.065  10.049  0.7617 -0.7178  0.6892
  294MOL0     H40564   0.895   0.073   9.785  0.7671 -2.0601  0.1982
  294MOL0     H40565   0.879  -0.064   9.887  0.1606 -0.0949 -1.8344
  294MOL0     H40566   0.666   0.063   9.726  0.6811  0.8247  1.2123
  294MOL0     H40567   0.617  -0.025   9.867 -1.4507  1.1969 -1.7372
  294MOL0     H40568   0.682  -0.319   9.559  0.1225 -0.6343  0.2542
  294MOL0     H40569   0.928   0.381   9.919 -0.0239 -1.9059  1.3146
  294MOL0     H40570   0.911   0.644   9.780  1.0724  0.6272 -0.9703
  294MOL0     H40571   1.074   0.689   9.835  0.8050 -1.3155 -3.6819
  294MOL0     H40572   1.028   0.516   9.793  1.4576 -0.1728 -0.0277
  295MOL0     O40573   3.436   5.383   9.922  0.1565  0.4322  0.3969
  295MOL0     C40574   3.379   5.440  10.015  0.1252  0.4862 -0.5184
  295MOL0     O40575   3.439   5.506  10.114 -0.1417  0.3634  0.3166
  295MOL0     C40576   3.574   5.523  10.108  1.2415 -0.3060 -1.1832
  295MOL0     C40577   3.631   5.652  10.089  0.5932 -0.7542  0.6679
  295MOL0     C40578   3.768   5.659  10.065  0.1739  0.8170 -0.4457
  295MOL0     C40579   3.843   5.541  10.056 -0.3904 -0.0414 -0.2418
  295MOL0     O40580   3.974   5.564  10.036  0.6382  0.3664 -0.2941
  295MOL0     C40581   4.077   5.462  10.053 -0.3559 -0.5495 -0.0405
  295MOL0     C40582   4.207   5.522   9.995 -0.7253 -0.3368  0.0733
  295MOL0     C40583   4.328   5.427  10.022  0.1008  0.5428  0.1716
  295MOL0     C40584   4.468   5.491  10.023  0.1599 -0.4981  0.3135
  295MOL0     C40585   4.568   5.376  10.034 -0.3587 -0.4428  0.1865
  295MOL0     C40586   4.715   5.419  10.057  0.5657  0.2565  0.0518
  295MOL0     C40587   4.799   5.286  10.092 -0.5442 -0.4955 -0.9055
  295MOL0     C40588   4.765   5.206  10.216 -0.0849  0.2607  0.4685
  295MOL0     N40589   4.760   5.273  10.344  0.3215  0.2175  0.1627
  295MOL0     C40590   4.848   5.255  10.449 -0.0798  0.1654  0.1452
  295MOL0     C40591   4.837   5.367  10.527  0.2718 -0.2432 -0.1206
  295MOL0     C40592   4.921   5.416  10.636  0.3119  0.1222  0.0543
  295MOL0     C40593   4.858   5.404  10.775 -0.1407 -0.4142  0.0339
  295MOL0     C40594   4.836   5.259  10.812  0.6691 -1.0259 -0.2093
  295MOL0     C40595   4.761   5.254  10.944  0.7116  0.3121 -0.7596
  295MOL0     O40596   4.756   5.123  10.985 -0.4658  0.2363 -0.1997
  295MOL0     C40597   4.719   5.096  11.118 -0.6668  0.4342  0.8622
  295MOL0     C40598   4.700   5.189  11.219 -0.0659 -0.5715 -0.9684
  295MOL0     C40599   4.655   5.157  11.347 -0.7291 -0.3235 -0.3909
  295MOL0     C40600   4.610   5.261  11.447  0.4583 -0.1267 -0.6475
  295MOL0     C40601   4.650   5.021  11.383  0.0911 -0.0778 -0.1558
  295MOL0     C40602   4.602   4.968  11.511 -0.6013 -0.1021 -0.7913
  295MOL0     O40603   4.664   5.017  11.632  0.3007 -0.9296 -0.1116
  295MOL0     C40604   4.615   4.956  11.746 -0.2252 -0.4227  0.1382
  295MOL0     C40605   4.537   5.024  11.830 -0.4527  0.1106 -0.2132
  295MOL0     C40606   4.528   4.990  11.963  0.1525 -0.6538 -0.6389
  295MOL0     C40607   4.588   4.868  12.005 -0.4494  0.3740 -0.5093
  295MOL0     O40608   4.578   4.812  12.126  0.3691  0.1477 -0.5615
  295MOL0     C40609   4.437   4.796  12.159 -0.2675  0.4810  1.4012
  295MOL0     C40610   4.425   4.720  12.295  0.0328 -0.2630  0.1437
  295MOL0     C40611   4.445   4.566  12.279  0.6201 -0.8989  1.3223
  295MOL0     C40612   4.432   4.491  12.411 -0.0028 -1.1988 -1.0818
  295MOL0     C40613   4.300   4.433  12.452 -0.2353 -0.2666  0.7616
  295MOL0     C40614   4.267   4.310  12.358 -0.6514 -0.4048  0.2196
  295MOL0     C40615   4.127   4.240  12.387 -0.0725 -1.1751 -0.8750
  295MOL0     C40616   4.103   4.134  12.289  0.3698 -0.0814 -0.3697
  295MOL0    Cl40617   4.219   4.012  12.327 -0.4148  0.2932  0.3522
  295MOL0     C40618   4.672   4.800  11.918  0.3315 -0.3901  0.4904
  295MOL0     C40619   4.687   4.836  11.783  1.1185  0.6260 -1.0832
  295MOL0     O40620   4.520   4.875  11.509 -0.6368 -0.1011 -0.2536
  295MOL0     C40621   4.675   4.930  11.279 -0.4981 -0.1661 -0.4094
  295MOL0     C40622   4.718   4.965  11.151 -1.4843 -0.6215 -0.5187
  295MOL0     N40623   4.737   5.437  10.465 -0.0166 -0.7597  0.2089
  295MOL0     N40624   4.686   5.379  10.363 -0.5666  0.1142 -0.0392
  295MOL0     C40625   3.789   5.419  10.094 -0.2069  0.4346 -0.0205
  295MOL0     C40626   3.653   5.417  10.139 -0.2536 -0.5844  0.0639
  295MOL0     C40627   3.230   5.437  10.035 -0.1101 -0.7531  0.4238
  295MOL0     C40628   3.184   5.464  10.161  0.0903 -0.1829 -0.6796
  295MOL0     C40629   3.053   5.440  10.191 -0.2095 -0.2512  0.5461
  295MOL0     C40630   2.960   5.390  10.090 -0.1766 -0.9208 -0.0237
  295MOL0     O40631   2.832   5.359  10.136 -1.2281  0.1621 -0.2785
  295MOL0     C40632   2.735   5.436  10.076  0.1502 -0.4192  0.5895
  295MOL0     C40633   2.608   5.444  10.167  0.6960 -0.5695 -0.7403
  295MOL0     C40634   2.632   5.479  10.321  0.4570  0.3750  0.7034
  295MOL0     C40635   2.644   5.620  10.366 -0.0584 -0.2662  0.9460
  295MOL0     C40636   2.782   5.671  10.331  0.2001 -0.0578 -0.5888
  295MOL0     C40637   2.883   5.729  10.326 -0.3336 -0.2881 -0.3049
  295MOL0     C40638   3.013   5.347   9.970 -0.8732 -0.3256 -0.5122
  295MOL0     C40639   3.140   5.384   9.935 -0.5908 -1.0280 -0.3307
  295MOL0     C40640   3.178   5.368   9.796  0.4300  0.0577  0.4689
  295MOL0     H40641   3.585   5.750  10.082  0.7704 -0.7250 -0.1490
  295MOL0     H40642   3.827   5.749  10.055  0.6571  0.5515 -0.0115
  295MOL0     H40643   4.060   5.364  10.007 -1.2208 -0.4656  0.0666
  295MOL0     H40644   4.092   5.445  10.160  2.6722 -2.0443 -0.6193
  295MOL0     H40645   4.193   5.538   9.888  0.6633  0.8374  0.0417
  295MOL0     H40646   4.230   5.620  10.038 -1.3888 -1.0149  2.0856
  295MOL0     H40647   4.316   5.370  10.115 -1.1324  0.0186 -0.2919
  295MOL0     H40648   4.331   5.349   9.945  2.4334  1.0500 -0.3376
  295MOL0     H40649   4.483   5.528   9.921 -0.9178 -1.0972 -0.0789
  295MOL0     H40650   4.492   5.571  10.093  4.1476 -0.6005 -0.6694
  295MOL0     H40651   4.555   5.320   9.941  5.5442  0.6842 -1.7164
  295MOL0     H40652   4.524   5.321  10.118 -3.3795  1.3639 -0.0242
  295MOL0     H40653   4.767   5.449   9.965  3.3680 -1.6629  0.8866
  295MOL0     H40654   4.720   5.482  10.146  1.8038 -1.5485  1.3360
  295MOL0     H40655   4.901   5.317  10.114 -1.3939  1.7495  0.2042
  295MOL0     H40656   4.796   5.223  10.003 -3.2478 -5.2658  2.0819
  295MOL0     H40657   4.672   5.151  10.201 -0.1197  0.5561 -0.4559
  295MOL0     H40658   4.839   5.126  10.218  2.3250  2.1216 -2.9844
  295MOL0     H40659   4.927   5.182  10.462  0.1306  0.4943  0.7277
  295MOL0     H40660   4.937   5.524  10.630 -0.2448  0.2695  1.0517
  295MOL0     H40661   5.018   5.364  10.641  1.2955  1.8701 -0.0136
  295MOL0     H40662   4.915   5.467  10.845 -1.9592  2.2086 -0.6945
  295MOL0     H40663   4.758   5.448  10.782  0.0352 -0.2005  1.7805
  295MOL0     H40664   4.776   5.204  10.739  0.0573 -1.2082  0.4177
  295MOL0     H40665   4.933   5.210  10.823  0.1473 -2.5969 -2.0323
  295MOL0     H40666   4.820   5.310  11.018 -2.8911 -0.9801  3.5595
  295MOL0     H40667   4.660   5.296  10.934 -0.0665 -1.3194 -0.1617
  295MOL0     H40668   4.722   5.293  11.198  1.9963 -0.6464  0.5227
  295MOL0     H40669   4.684   5.275  11.526 -1.3638 -2.4128  1.6128
  295MOL0     H40670   4.514   5.229  11.488 -0.2944 -1.4361 -3.1869
  295MOL0     H40671   4.600   5.357  11.395 -1.2283  1.7469  2.7907
  295MOL0     H40672   4.478   5.106  11.788 -0.6358  1.6998  2.8936
  295MOL0     H40673   4.465   5.052  12.027  1.2333  0.6977 -0.8391
  295MOL0     H40674   4.382   4.891  12.165 -2.2838 -0.2359 -2.5875
  295MOL0     H40675   4.392   4.737  12.079  1.2960 -1.8418  2.1305
  295MOL0     H40676   4.499   4.749  12.370 -3.9975  3.3931  3.2268
  295MOL0     H40677   4.326   4.725  12.342  0.9519 -3.3080  2.8020
  295MOL0     H40678   4.548   4.559  12.242  1.1615  1.2262  2.2391
  295MOL0     H40679   4.381   4.539  12.195  1.4700  1.2937 -0.1259
  295MOL0     H40680   4.470   4.549  12.496  1.2450 -4.5636  0.8282
  295MOL0     H40681   4.504   4.410  12.393 -0.0931 -1.4431 -0.3637
  295MOL0     H40682   4.305   4.403  12.557 -1.6036 -1.0079  0.6479
  295MOL0     H40683   4.215   4.498  12.429 -0.7161 -2.3481 -4.8757
  295MOL0     H40684   4.350   4.239  12.370 -0.8888 -0.8548 -0.6596
  295MOL0     H40685   4.267   4.345  12.254 -0.4147  0.9230  0.6482
  295MOL0     H40686   4.050   4.317  12.380  2.8335  2.0707  0.3950
  295MOL0     H40687   4.125   4.205  12.491 -0.5090  0.1064 -0.4430
  295MOL0     H40688   4.131   4.158  12.186  2.2389  0.1995  0.1610
  295MOL0     H40689   4.005   4.088  12.291  1.4995 -2.6578  1.6381
  295MOL0     H40690   4.726   4.713  11.954  0.5826 -0.8071 -0.8143
  295MOL0     H40691   4.754   4.774  11.724  0.9444  1.4565 -2.1800
  295MOL0     H40692   4.659   4.825  11.298 -1.8945  0.0783 -0.0580
  295MOL0     H40693   4.738   4.874  11.094  1.0598 -1.1933  1.1449
  295MOL0     H40694   3.853   5.332  10.093 -1.5774 -0.7220 -3.8313
  295MOL0     H40695   3.604   5.321  10.153 -0.1826 -0.6101  0.1353
  295MOL0     H40696   3.262   5.481  10.236  0.2879 -0.7514 -0.7425
  295MOL0     H40697   3.020   5.472  10.289 -0.0471  1.4719  0.0870
  295MOL0     H40698   2.773   5.537  10.059  1.3907 -1.1121 -1.0374
  295MOL0     H40699   2.714   5.384   9.982 -2.1878  1.6012 -0.1041
  295MOL0     H40700   2.559   5.348  10.149  0.7090 -0.7932  0.3738
  295MOL0     H40701   2.540   5.518  10.123 -0.9354 -1.5046  0.1373
  295MOL0     H40702   2.552   5.437  10.383 -0.4027  2.6175  1.2190
  295MOL0     H40703   2.727   5.429  10.344 -0.2701 -1.3132  0.1530
  295MOL0     H40704   2.627   5.633  10.473  1.3260  1.1414  1.0378
  295MOL0     H40705   2.560   5.671  10.317  1.4887  3.0639  1.4994
  295MOL0     H40706   2.978   5.779  10.333 -1.3490  1.7086 -0.1298
  295MOL0     H40707   2.941   5.302   9.902 -2.2432 -1.9438  1.8789
  295MOL0     H40708   3.246   5.444   9.756  0.8509 -0.4859  0.1326
  295MOL0     H40709   3.231   5.273   9.784 -0.2584 -0.5430  2.0074
  295MOL0     H40710   3.091   5.361   9.730  0.1461  0.7399  0.7682
  296MOL0     O40711   1.162   4.123   8.740  0.4698  0.2663 -0.1107
  296MOL0     C40712   1.144   4.191   8.839 -1.0645 -1.1809 -1.4227
  296MOL0     O40713   1.082   4.151   8.944 -0.0916  0.5079 -0.3247
  296MOL0     C40714   1.012   4.035   8.928 -0.2213 -0.2502  0.5352
  296MOL0     C40715   0.913   4.004   8.834  0.1428 -0.0297  1.0500
  296MOL0     C40716   0.848   3.880   8.827 -0.6022 -0.1763 -0.3851
  296MOL0     C40717   0.866   3.801   8.942  0.0689  0.2440 -0.3600
  296MOL0     O40718   0.794   3.683   8.949  0.1235  0.7475 -0.3458
  296MOL0     C40719   0.750   3.642   9.077 -0.9664  0.5703 -0.6065
  296MOL0     C40720   0.646   3.541   9.063 -0.2901  0.2327 -0.0637
  296MOL0     C40721   0.510   3.607   9.040 -1.1579 -0.4150 -0.1704
  296MOL0     C40722   0.401   3.512   9.077 -0.1717 -0.3196  1.2960
  296MOL0     C40723   0.270   3.584   9.048 -0.1349 -0.5278 -0.0599
  296MOL0     C40724   0.165   3.510   9.123  0.6148  0.0474 -0.3244
  296MOL0     C40725   0.026   3.562   9.084 -0.6127 -0.0254 -1.2460
  296MOL0     C40726   0.002   3.703   9.136  0.4953 -0.2241 -0.0295
  296MOL0     N40727  -0.001   3.707   9.280  0.5726  0.3164  0.4241
  296MOL0     C40728   0.090   3.767   9.354 -0.5343  1.0867  0.2095
  296MOL0     C40729   0.057   3.727   9.478  0.1920 -0.2162  0.3680
  296MOL0     C40730   0.155   3.748   9.597  0.0009  0.5567 -0.0427
  296MOL0     C40731   0.123   3.643   9.703 -0.0507 -0.5213  0.0892
  296MOL0     C40732   0.214   3.661   9.817 -0.7720  0.9088 -0.0875
  296MOL0     C40733   0.217   3.541   9.913  0.1134  0.6368 -1.2644
  296MOL0     O40734   0.311   3.576  10.010  0.2005  0.0313 -0.6442
  296MOL0     C40735   0.300   3.519  10.136  0.2786 -1.3678  0.1146
  296MOL0     C40736   0.415   3.554  10.214  0.0073 -1.2034 -0.0142
  296MOL0     C40737   0.437   3.489  10.338  1.0016 -0.3025 -0.2527
  296MOL0     C40738   0.555   3.539  10.432  0.0791  0.0706  0.0573
  296MOL0     C40739   0.335   3.397  10.388 -0.2073  0.4569 -0.4016
  296MOL0     C40740   0.347   3.323  10.515  0.6945 -0.6058  0.1847
  296MOL0     O40741   0.322   3.192  10.497 -0.1433 -0.2767  0.6316
  296MOL0     C40742   0.285   3.110  10.592  0.6121 -0.4426  0.7461
  296MOL0     C40743   0.163   3.048  10.570  0.2874 -0.6256 -0.1314
  296MOL0     C40744   0.124   2.946  10.656  0.0131  0.7898 -0.2918
  296MOL0     C40745   0.210   2.910  10.764 -0.5944 -0.6513 -0.3488
  296MOL0     O40746   0.163   2.819  10.848  0.0915  0.0885  1.5358
  296MOL0     C40747   0.190   2.811  10.987 -0.3186  0.2263 -0.1416
  296MOL0     C40748   0.083   2.733  11.048 -0.6696 -0.1355 -0.1465
  296MOL0     C40749   0.100   2.732  11.195 -0.5712  0.0877 -0.7615
  296MOL0     C40750   0.006   2.631  11.248  0.6416  0.3470  0.5401
  296MOL0     C40751  -0.139   2.685  11.263 -0.1095  0.3174 -0.4208
  296MOL0     C40752  -0.234   2.565  11.315 -0.1196  0.9336  0.1437
  296MOL0     C40753  -0.375   2.612  11.348 -0.4483  0.4285  0.0718
  296MOL0     C40754  -0.463   2.688  11.245  0.6540 -0.4401  0.6203
  296MOL0    Cl40755  -0.393   2.850  11.221 -0.2396 -0.3225 -0.0922
  296MOL0     C40756   0.328   2.985  10.790 -0.8833 -0.2493  0.8979
  296MOL0     C40757   0.369   3.084  10.707  0.4614 -0.3879 -0.3049
  296MOL0     O40758   0.394   3.375  10.625  0.2178 -0.2072  0.1723
  296MOL0     C40759   0.226   3.368  10.309  0.4646 -0.7282  0.0691
  296MOL0     C40760   0.213   3.425  10.180  1.3540  0.1913 -0.4857
  296MOL0     N40761  -0.064   3.670   9.471  0.7339  0.3495  0.0828
  296MOL0     N40762  -0.111   3.655   9.348 -0.2234  0.5311 -0.4451
  296MOL0     C40763   0.956   3.837   9.038 -0.0889  0.2303 -1.0113
  296MOL0     C40764   1.041   3.945   9.023  0.7658  0.2873 -0.1793
  296MOL0     C40765   1.205   4.330   8.839 -1.1184 -0.3594  0.7558
  296MOL0     C40766   1.252   4.392   8.951  0.5171 -0.0774  0.2984
  296MOL0     C40767   1.327   4.512   8.941  0.8830  0.2249 -0.1644
  296MOL0     C40768   1.345   4.572   8.819 -0.2646 -0.6231  0.0112
  296MOL0     O40769   1.421   4.687   8.811 -0.1862 -0.1343 -0.2119
  296MOL0     C40770   1.549   4.669   8.749  0.2017  0.2326 -0.4011
  296MOL0     C40771   1.549   4.773   8.638 -0.4002  0.1300  0.2741
  296MOL0     C40772   1.561   4.922   8.682 -0.2096 -0.6992  0.1161
  296MOL0     C40773   1.712   4.953   8.718  0.2738 -0.4988 -0.5500
  296MOL0     C40774   1.728   5.106   8.713  0.0718  0.0719  0.0841
  296MOL0     C40775   1.743   5.228   8.717 -0.3325  0.9511 -0.6138
  296MOL0     C40776   1.292   4.511   8.711  0.2948 -0.4163  0.2608
  296MOL0     C40777   1.211   4.401   8.719  0.6557  0.2003  0.6094
  296MOL0     C40778   1.153   4.360   8.587  0.8937 -0.2695 -0.3554
  296MOL0     H40779   0.898   4.077   8.754  0.6971  1.3523  2.1520
  296MOL0     H40780   0.779   3.866   8.745 -0.5209 -1.3942 -0.2582
  296MOL0     H40781   0.722   3.727   9.140  0.9215 -0.9598  2.5505
  296MOL0     H40782   0.827   3.585   9.129 -1.4625  1.8711  1.6972
  296MOL0     H40783   0.663   3.473   8.979 -0.3708 -1.1874  1.0222
  296MOL0     H40784   0.647   3.484   9.157  0.0296 -0.6047 -0.5657
  296MOL0     H40785   0.502   3.703   9.092 -1.6227 -0.1303 -0.7687
  296MOL0     H40786   0.506   3.621   8.932  2.4534 -0.5718 -0.4456
  296MOL0     H40787   0.406   3.425   9.011  1.3001  1.2388 -0.7715
  296MOL0     H40788   0.405   3.486   9.183  1.1777  0.7315  1.5310
  296MOL0     H40789   0.247   3.585   8.941 -1.1731  3.6305  0.0134
  296MOL0     H40790   0.274   3.691   9.072  2.0409 -0.4505 -0.5986
  296MOL0     H40791   0.180   3.405   9.095  0.1661 -0.1423  0.1255
  296MOL0     H40792   0.187   3.527   9.228  1.4602 -1.1112 -0.3014
  296MOL0     H40793  -0.053   3.498   9.123 -0.9327  1.2889  0.3573
  296MOL0     H40794   0.008   3.551   8.976  0.1796 -1.6750 -1.2383
  296MOL0     H40795   0.067   3.780   9.095  1.6275 -0.2108  1.6628
  296MOL0     H40796  -0.093   3.743   9.101  1.2391  1.4696 -0.1791
  296MOL0     H40797   0.173   3.829   9.321 -1.9978  2.4293 -1.1664
  296MOL0     H40798   0.147   3.854   9.621  0.5996  0.1311  2.2730
  296MOL0     H40799   0.255   3.738   9.555 -0.9384 -2.4142 -1.9420
  296MOL0     H40800   0.017   3.645   9.731 -0.1320  2.2267 -0.1275
  296MOL0     H40801   0.147   3.547   9.658 -2.3339 -0.4470 -1.4663
  296MOL0     H40802   0.315   3.681   9.781 -0.5869  1.3102  0.6343
  296MOL0     H40803   0.176   3.758   9.852 -3.1208  1.2128 -3.0899
  296MOL0     H40804   0.116   3.530   9.954 -0.5555  4.0634 -1.6668
  296MOL0     H40805   0.244   3.448   9.862 -0.5209  0.7046 -1.7431
  296MOL0     H40806   0.485   3.631  10.183 -0.5192 -1.7018 -2.6595
  296MOL0     H40807   0.587   3.457  10.497 -2.0244 -1.5766 -0.8424
  296MOL0     H40808   0.509   3.600  10.510 -1.7117  2.4765 -2.6602
  296MOL0     H40809   0.634   3.588  10.376  1.0283  0.6241  1.8015
  296MOL0     H40810   0.104   3.066  10.482 -0.9700 -3.3902  0.0450
  296MOL0     H40811   0.035   2.884  10.654 -0.7538  1.8886 -0.9659
  296MOL0     H40812   0.289   2.776  11.020 -0.3369  0.7518  0.5037
  296MOL0     H40813   0.195   2.916  11.017  4.2814  0.2163 -0.1679
  296MOL0     H40814  -0.010   2.781  11.016 -1.0371 -1.2189 -0.7383
  296MOL0     H40815   0.089   2.632  11.006  0.0498  0.7406 -2.2942
  296MOL0     H40816   0.085   2.831  11.238 -2.2367 -1.4346  2.5689
  296MOL0     H40817   0.200   2.704  11.230 -1.0215 -2.5735 -1.3963
  296MOL0     H40818   0.030   2.599  11.350 -0.3269  2.1239  1.3632
  296MOL0     H40819  -0.005   2.543  11.183  1.5205 -0.9264  2.0372
  296MOL0     H40820  -0.142   2.772  11.330  1.7765  0.2715 -0.2307
  296MOL0     H40821  -0.180   2.718  11.167  0.1569  2.6531  0.2097
  296MOL0     H40822  -0.194   2.514  11.403  1.1758 -1.1276 -1.5444
  296MOL0     H40823  -0.243   2.494  11.232 -1.5246  0.8759  0.3263
  296MOL0     H40824  -0.360   2.665  11.443  1.2757  0.4855 -0.2052
  296MOL0     H40825  -0.428   2.518  11.368 -0.7679  0.6304  0.1899
  296MOL0     H40826  -0.570   2.687  11.269  0.5558 -1.8541  0.2152
  296MOL0     H40827  -0.458   2.633  11.150 -0.8782  0.2528  0.1004
  296MOL0     H40828   0.387   2.957  10.877 -1.3947 -3.1189  0.4423
  296MOL0     H40829   0.455   3.148  10.726 -1.4585  2.3207 -0.1586
  296MOL0     H40830   0.166   3.281  10.331  0.0650 -0.4389  0.1501
  296MOL0     H40831   0.133   3.383  10.119  0.7131  0.1864  0.3477
  296MOL0     H40832   0.962   3.770   9.123  1.8550  0.9277 -0.5336
  296MOL0     H40833   1.113   3.971   9.100  1.3273  2.3850 -1.3166
  296MOL0     H40834   1.241   4.336   9.044 -1.5890  0.5466  0.4638
  296MOL0     H40835   1.360   4.553   9.036  4.0831 -2.7979  0.2290
  296MOL0     H40836   1.630   4.696   8.817  0.2162  2.2114 -1.1265
  296MOL0     H40837   1.568   4.570   8.706  5.1727  1.0790 -0.6800
  296MOL0     H40838   1.463   4.770   8.572  1.7713  0.9572 -2.8490
  296MOL0     H40839   1.625   4.749   8.563  0.0473 -0.8072  1.0070
  296MOL0     H40840   1.535   4.992   8.602 -1.3419 -0.0115  1.0449
  296MOL0     H40841   1.493   4.930   8.767 -0.5323 -3.9735  0.2841
  296MOL0     H40842   1.765   4.910   8.633 -1.2784 -0.6450 -1.4840
  296MOL0     H40843   1.736   4.912   8.817  0.6176  2.4101  0.6935
  296MOL0     H40844   1.756   5.334   8.726 -2.0477  1.0516  1.7999
  296MOL0     H40845   1.294   4.568   8.619  0.7088 -0.2026  0.3999
  296MOL0     H40846   1.220   4.296   8.530  2.7087  2.7005 -1.7777
  296MOL0     H40847   1.057   4.313   8.611  2.6695 -1.8232  5.3890
  296MOL0     H40848   1.145   4.449   8.524 -1.0413  0.3579  0.7026
  297MOL0     O40849   8.844   2.499   4.814  0.0029  0.4723 -0.1132
  297MOL0     C40850   8.894   2.431   4.909  0.5282 -1.0409  0.2125
  297MOL0     O40851   8.828   2.386   5.018  0.3162 -0.0481 -0.0537
  297MOL0     C40852   8.710   2.446   5.044 -0.8093  0.4709 -0.1292
  297MOL0     C40853   8.703   2.554   5.140  0.0289 -0.5079  0.8082
  297MOL0     C40854   8.577   2.616   5.179 -1.5750 -0.2460 -0.4495
  297MOL0     C40855   8.460   2.577   5.115  0.5354 -0.2601  0.8448
  297MOL0     O40856   8.343   2.641   5.139 -0.7848 -0.5754  0.6425
  297MOL0     C40857   8.217   2.583   5.121 -0.8730 -0.4988  0.0256
  297MOL0     C40858   8.101   2.678   5.153  0.2391  0.7231 -0.0080
  297MOL0     C40859   8.077   2.798   5.061  0.3029 -0.1680 -0.0731
  297MOL0     C40860   8.143   2.920   5.125  0.5559 -0.2002 -0.0437
  297MOL0     C40861   8.094   3.051   5.056 -0.3441 -0.1053 -0.4690
  297MOL0     C40862   8.164   3.183   5.106  1.1696 -0.7916 -1.1709
  297MOL0     C40863   8.320   3.203   5.063 -0.4114  0.0721 -0.2104
  297MOL0     C40864   8.378   3.328   5.130 -0.6452 -0.1971  0.3010
  297MOL0     N40865   8.296   3.445   5.134 -0.1991  0.8896 -0.0440
  297MOL0     C40866   8.267   3.522   5.027  0.0227 -0.7828  0.9303
  297MOL0     C40867   8.187   3.623   5.076 -0.1980 -0.7297  0.8167
  297MOL0     C40868   8.111   3.726   4.990  0.3430 -0.8396  1.0193
  297MOL0     C40869   8.222   3.824   4.927 -0.0485 -0.0980  0.6045
  297MOL0     C40870   8.181   3.874   4.784 -0.2704 -0.1964 -0.2194
  297MOL0     C40871   8.286   3.977   4.746  0.6916 -1.5948  0.4323
  297MOL0     O40872   8.269   4.018   4.607 -0.2136 -0.1581 -0.3191
  297MOL0     C40873   8.183   4.119   4.572  0.0531  0.7258  0.9517
  297MOL0     C40874   8.191   4.157   4.440 -0.2159 -0.2971  0.9540
  297MOL0     C40875   8.103   4.247   4.385  0.5249 -0.4962  0.0142
  297MOL0     C40876   8.136   4.304   4.249  0.9280 -0.1194 -0.2225
  297MOL0     C40877   7.996   4.296   4.472  0.1707 -0.5026 -0.8936
  297MOL0     C40878   7.906   4.412   4.435  0.9639 -0.1412 -0.8401
  297MOL0     O40879   7.938   4.485   4.319 -0.7804 -0.3405 -0.7465
  297MOL0     C40880   7.852   4.572   4.269 -0.2193  0.1815 -0.6926
  297MOL0     C40881   7.910   4.687   4.208  0.3956  0.9212  0.6879
  297MOL0     C40882   7.830   4.772   4.129  0.0962  0.7937  0.5572
  297MOL0     C40883   7.687   4.748   4.115  0.8752 -0.1145 -0.1301
  297MOL0     O40884   7.606   4.828   4.038  0.5566  0.8159  0.6656
  297MOL0     C40885   7.483   4.890   4.085  1.4287 -0.0022 -0.1518
  297MOL0     C40886   7.428   4.985   3.970  0.0063 -0.3957 -0.8271
  297MOL0     C40887   7.520   5.107   3.961  0.0955 -0.6307 -0.2752
  297MOL0     C40888   7.495   5.225   4.042 -0.1439 -0.1980  0.4603
  297MOL0     C40889   7.616   5.314   4.030 -0.1713 -0.0820  0.4764
  297MOL0     C40890   7.613   5.440   4.123 -1.0918 -0.4428 -0.4599
  297MOL0     C40891   7.753   5.509   4.131  0.7058  0.4140  0.5366
  297MOL0     C40892   7.761   5.649   4.186 -0.1857 -0.0977  0.0763
  297MOL0    Cl40893   7.677   5.767   4.077 -0.0862 -0.3975  0.0541
  297MOL0     C40894   7.628   4.640   4.182  0.4682 -1.0346  0.0628
  297MOL0     C40895   7.715   4.554   4.249  0.2595 -0.9947 -0.7623
  297MOL0     O40896   7.807   4.435   4.509  0.4175  0.2450 -1.0924
  297MOL0     C40897   7.985   4.248   4.605 -0.6972  0.2010  1.1121
  297MOL0     C40898   8.080   4.160   4.653  0.6473 -0.5238  0.7574
  297MOL0     N40899   8.182   3.602   5.214 -0.8989 -0.1338 -0.6211
  297MOL0     N40900   8.235   3.488   5.245  0.5298  0.7705 -0.2560
  297MOL0     C40901   8.472   2.473   5.019  0.5981 -0.5291 -0.0333
  297MOL0     C40902   8.590   2.411   4.976  0.2982  0.2968  0.5887
  297MOL0     C40903   9.045   2.402   4.907  0.1077 -0.2150  0.4377
  297MOL0     C40904   9.109   2.398   5.033 -0.4720 -0.6651  0.4099
  297MOL0     C40905   9.249   2.365   5.048 -0.4916 -0.1300  0.6055
  297MOL0     C40906   9.314   2.318   4.935  0.4077 -0.8577 -1.5309
  297MOL0     O40907   9.438   2.252   4.956 -0.3935 -0.4392  0.5155
  297MOL0     C40908   9.492   2.158   4.856 -0.6559  1.1493 -0.0975
  297MOL0     C40909   9.539   2.029   4.927 -0.0199  0.0457 -0.9905
  297MOL0     C40910   9.667   2.069   5.017 -0.3575  0.6565 -0.3964
  297MOL0     C40911   9.740   1.948   5.070  0.2986  0.5788 -0.2311
  297MOL0     C40912   9.773   1.844   4.973 -0.3717 -0.0189 -0.7708
  297MOL0     C40913   9.795   1.772   4.879  0.8643 -0.3316 -0.1172
  297MOL0     C40914   9.249   2.319   4.807  0.0768 -0.5144  0.3296
  297MOL0     C40915   9.127   2.376   4.791 -0.2981 -0.3017 -0.6418
  297MOL0     C40916   9.073   2.389   4.651 -0.7963 -0.7379  1.0774
  297MOL0     H40917   8.795   2.587   5.188  0.3430 -0.2574  0.0443
  297MOL0     H40918   8.579   2.703   5.244  1.6471 -2.3064  2.5745
  297MOL0     H40919   8.202   2.505   5.195  3.9213 -0.1256  1.7078
  297MOL0     H40920   8.198   2.542   5.021  3.8203 -0.5228 -1.1139
  297MOL0     H40921   8.014   2.612   5.142  0.8824 -0.0382 -0.6447
  297MOL0     H40922   8.091   2.705   5.258 -0.7540  1.4493 -0.2700
  297MOL0     H40923   8.129   2.801   4.965  1.1501  2.1688  0.3944
  297MOL0     H40924   7.971   2.815   5.046  0.3929  1.7700  1.1371
  297MOL0     H40925   8.110   2.926   5.229 -1.2769 -0.9770 -0.5391
  297MOL0     H40926   8.250   2.907   5.108  0.5511  1.8121 -2.2380
  297MOL0     H40927   7.988   3.065   5.075 -0.6224 -2.4190 -0.0522
  297MOL0     H40928   8.119   3.047   4.949 -2.9601 -1.5163 -1.1251
  297MOL0     H40929   8.098   3.263   5.072 -0.8605 -1.6752  0.5435
  297MOL0     H40930   8.164   3.190   5.215  0.4425 -0.7224 -1.1732
  297MOL0     H40931   8.338   3.206   4.955 -1.0814 -1.8982 -0.4137
  297MOL0     H40932   8.374   3.116   5.100 -0.1301  0.2002 -0.3174
  297MOL0     H40933   8.413   3.299   5.229  0.4614  1.6176  0.4949
  297MOL0     H40934   8.470   3.355   5.076 -0.9606 -1.8712 -1.1399
  297MOL0     H40935   8.301   3.514   4.924 -1.8325 -1.5178  0.3257
  297MOL0     H40936   8.033   3.784   5.041 -0.0577  2.2396 -2.5974
  297MOL0     H40937   8.051   3.670   4.918 -1.2335 -0.9264  2.3573
  297MOL0     H40938   8.230   3.915   4.987 -1.7877 -0.0954  0.8856
  297MOL0     H40939   8.321   3.777   4.927  0.9081  1.8183 -0.2120
  297MOL0     H40940   8.187   3.791   4.712 -0.4808 -2.9318  2.7141
  297MOL0     H40941   8.077   3.906   4.778 -0.5079  0.2439  3.8135
  297MOL0     H40942   8.283   4.071   4.802 -1.4310 -0.7671 -0.9387
  297MOL0     H40943   8.384   3.936   4.771  0.9093 -0.6938  1.1267
  297MOL0     H40944   8.255   4.103   4.371 -1.1726 -0.3651  0.1015
  297MOL0     H40945   8.200   4.392   4.264  2.0420 -0.6620 -1.6020
  297MOL0     H40946   8.044   4.324   4.194  0.1125  2.0309  1.7450
  297MOL0     H40947   8.194   4.227   4.198 -1.4411 -2.7169  0.7582
  297MOL0     H40948   8.016   4.709   4.210  0.2153  1.8413  0.4796
  297MOL0     H40949   7.865   4.853   4.066 -0.7352  1.7625  1.3028
  297MOL0     H40950   7.409   4.810   4.076  1.1197  0.4384 -1.9147
  297MOL0     H40951   7.472   4.929   4.186 -0.3353  2.4332 -1.1750
  297MOL0     H40952   7.442   4.933   3.874  0.0902 -0.1544 -0.9469
  297MOL0     H40953   7.323   5.008   3.990  0.8687  3.1080  0.5162
  297MOL0     H40954   7.511   5.135   3.855  2.2050 -2.4973 -1.0447
  297MOL0     H40955   7.622   5.074   3.984  1.4467  2.3767 -1.4715
  297MOL0     H40956   7.471   5.192   4.144 -0.3253 -0.4973  0.3200
  297MOL0     H40957   7.413   5.282   3.999 -1.2328  0.1864  2.8535
  297MOL0     H40958   7.714   5.267   4.046  0.7636  0.1360 -3.4715
  297MOL0     H40959   7.632   5.350   3.928  2.8002  0.2542  0.9657
  297MOL0     H40960   7.592   5.415   4.227  0.8569  0.5424  0.2136
  297MOL0     H40961   7.533   5.502   4.081 -0.2142  0.2005 -1.2142
  297MOL0     H40962   7.794   5.514   4.029 -3.3767  1.2641 -1.2814
  297MOL0     H40963   7.826   5.446   4.182  1.0477  1.6346  1.5922
  297MOL0     H40964   7.861   5.690   4.203 -0.8617  2.1914 -1.0984
  297MOL0     H40965   7.711   5.651   4.283  0.5356  2.0792  0.4714
  297MOL0     H40966   7.524   4.611   4.186  0.5431 -1.1621  2.1818
  297MOL0     H40967   7.682   4.454   4.276 -1.7122 -0.7992 -2.2354
  297MOL0     H40968   7.900   4.275   4.666 -1.3520  2.2901 -0.6143
  297MOL0     H40969   8.065   4.133   4.757  2.3180 -1.3051  0.8344
  297MOL0     H40970   8.373   2.453   4.979 -0.5848  1.5867  1.6639
  297MOL0     H40971   8.584   2.337   4.897 -1.1145 -0.5124  1.3961
  297MOL0     H40972   9.056   2.410   5.127 -0.1458 -2.3039  0.8424
  297MOL0     H40973   9.294   2.350   5.146  1.4144 -1.1702 -0.3772
  297MOL0     H40974   9.415   2.129   4.784 -0.6717 -1.9928  1.0228
  297MOL0     H40975   9.580   2.197   4.803 -0.1558  3.0822  1.9720
  297MOL0     H40976   9.568   1.952   4.855 -1.2414 -2.3994  0.9466
  297MOL0     H40977   9.460   1.986   4.990  0.7400  1.0002  0.7096
  297MOL0     H40978   9.734   2.127   4.953  1.0111 -0.2874  0.1241
  297MOL0     H40979   9.631   2.140   5.092 -0.3808  1.7064 -1.3645
  297MOL0     H40980   9.686   1.907   5.156 -3.9883 -0.3927 -3.0595
  297MOL0     H40981   9.836   1.980   5.113 -0.9222  1.1511  2.2687
  297MOL0     H40982   9.816   1.698   4.804 -1.6505  0.2501 -1.4936
  297MOL0     H40983   9.310   2.286   4.724  1.5274 -0.2188  1.2521
  297MOL0     H40984   9.117   2.323   4.576 -0.2503  0.0285  0.7052
  297MOL0     H40985   8.967   2.367   4.639 -1.3159  1.8071  0.3488
  297MOL0     H40986   9.087   2.490   4.612  1.6467 -2.0592 -1.8285
  298MOL0     O40987   3.330   1.790   6.903 -0.0641  0.2360  0.0753
  298MOL0     C40988   3.378   1.875   6.835  0.4490 -0.0160 -0.2036
  298MOL0     O40989   3.504   1.909   6.843 -0.3579 -0.3907 -0.6419
  298MOL0     C40990   3.592   1.852   6.930  0.4064  1.3465  0.0629
  298MOL0     C40991   3.569   1.827   7.065  0.1616 -1.3821 -0.0228
  298MOL0     C40992   3.670   1.765   7.135 -0.1166 -0.4812  0.2484
  298MOL0     C40993   3.795   1.723   7.079  0.5968 -0.7645 -0.2869
  298MOL0     O40994   3.880   1.651   7.154  0.2153  0.0666  0.4827
  298MOL0     C40995   4.008   1.703   7.154 -0.0532 -0.3315 -0.0873
  298MOL0     C40996   4.063   1.729   7.295  0.7103 -0.2934  0.3617
  298MOL0     C40997   4.004   1.843   7.362  0.9369 -0.7523 -0.1518
  298MOL0     C40998   4.075   1.884   7.495  1.5109  0.4788 -0.1139
  298MOL0     C40999   4.025   2.030   7.540  0.1547 -0.2413  1.3000
  298MOL0     C41000   4.084   2.097   7.656  0.4501 -0.9400 -0.4726
  298MOL0     C41001   4.089   2.007   7.783 -0.1775 -0.7677 -0.3256
  298MOL0     C41002   4.152   2.083   7.896  1.3229  0.4594 -0.2459
  298MOL0     N41003   4.082   2.186   7.959  0.1356 -0.1907 -0.3520
  298MOL0     C41004   3.946   2.174   7.992 -0.0218  1.1230  0.1119
  298MOL0     C41005   3.908   2.289   8.034 -0.2533 -0.5641  0.3937
  298MOL0     C41006   3.757   2.312   8.056  0.1680 -0.5143  0.1701
  298MOL0     C41007   3.727   2.448   8.122 -0.0778 -0.4515 -0.2392
  298MOL0     C41008   3.603   2.504   8.055 -0.2860  0.0791 -0.5096
  298MOL0     C41009   3.557   2.639   8.115  0.0303 -0.6211 -0.5697
  298MOL0     O41010   3.665   2.738   8.129 -0.0864  0.1063  0.4532
  298MOL0     C41011   3.656   2.826   8.239  0.3242 -0.6454 -0.0648
  298MOL0     C41012   3.539   2.910   8.247 -0.4132  0.5592 -0.5818
  298MOL0     C41013   3.520   2.995   8.360  0.4939  0.4640  0.7216
  298MOL0     C41014   3.390   3.073   8.356 -0.0082  0.7700  0.2751
  298MOL0     C41015   3.625   3.001   8.459  0.2473 -0.2767  0.4803
  298MOL0     C41016   3.625   3.094   8.576 -0.5315 -0.4908 -0.0735
  298MOL0     O41017   3.753   3.141   8.614 -0.0673 -0.0973 -0.0425
  298MOL0     C41018   3.779   3.197   8.729 -0.2894 -0.2026 -0.4336
  298MOL0     C41019   3.705   3.188   8.846  0.2288 -0.0618  0.0326
  298MOL0     C41020   3.760   3.242   8.969  0.1239 -0.4294 -1.0758
  298MOL0     C41021   3.873   3.326   8.970 -0.1717 -0.2209 -0.1936
  298MOL0     O41022   3.918   3.395   9.080 -0.0627  0.7130 -0.1192
  298MOL0     C41023   3.941   3.330   9.206 -0.2068  0.0967  0.1336
  298MOL0     C41024   4.034   3.418   9.294 -0.7041  0.3209  0.0528
  298MOL0     C41025   4.085   3.338   9.420  0.0024 -0.0474  0.3781
  298MOL0     C41026   4.154   3.433   9.513  0.2778  0.6399 -0.0640
  298MOL0     C41027   4.228   3.372   9.628  0.1132  0.4629  1.0758
  298MOL0     C41028   4.306   3.246   9.599 -0.1906  0.5588 -0.0934
  298MOL0     C41029   4.412   3.275   9.492 -0.0392 -0.0119 -0.0749
  298MOL0     C41030   4.509   3.157   9.493  0.0346 -0.9231  0.6556
  298MOL0    Cl41031   4.445   2.990   9.493  0.1177 -0.1406  0.1633
  298MOL0     C41032   3.950   3.331   8.859  0.8071 -0.3652 -0.0092
  298MOL0     C41033   3.900   3.266   8.740  0.6523 -0.6365 -0.7456
  298MOL0     O41034   3.523   3.127   8.624  0.5642  0.1857 -0.0388
  298MOL0     C41035   3.737   2.928   8.441 -0.0698  1.3462  0.0179
  298MOL0     C41036   3.756   2.845   8.330  0.0322 -0.4392 -1.2599
  298MOL0     N41037   4.017   2.379   8.029 -0.0059 -0.2271  0.7025
  298MOL0     N41038   4.125   2.316   7.992  0.7367 -0.1453  0.0045
  298MOL0     C41039   3.817   1.739   6.944  0.0653 -0.2490  0.4437
  298MOL0     C41040   3.719   1.813   6.878  0.1866 -0.5052  0.1313
  298MOL0     C41041   3.304   1.941   6.722  0.2053  0.2958  0.4085
  298MOL0     C41042   3.202   1.864   6.665  0.0034 -0.0748  0.4926
  298MOL0     C41043   3.137   1.911   6.551 -0.3422 -0.8136  0.0520
  298MOL0     C41044   3.180   2.030   6.481  0.1526  0.2265  0.3322
  298MOL0     O41045   3.121   2.074   6.364  0.2213 -0.2542  0.6074
  298MOL0     C41046   3.052   1.974   6.279  0.0334 -0.7693 -0.7855
  298MOL0     C41047   3.149   1.871   6.206 -0.5906 -0.2188 -0.2377
  298MOL0     C41048   3.254   1.926   6.120  0.2908  0.4675  0.0504
  298MOL0     C41049   3.355   2.019   6.186 -0.3628 -0.2018 -0.8877
  298MOL0     C41050   3.476   2.032   6.103  0.6052  0.5488  0.3042
  298MOL0     C41051   3.577   2.046   6.040  0.9135  0.4612 -0.8945
  298MOL0     C41052   3.284   2.095   6.529 -0.4699 -1.3879  0.1520
  298MOL0     C41053   3.350   2.050   6.647 -0.3970  0.2912  0.6234
  298MOL0     C41054   3.467   2.138   6.672 -0.2611 -0.6836 -0.1750
  298MOL0     H41055   3.472   1.851   7.107 -0.6755 -0.8112 -2.1688
  298MOL0     H41056   3.661   1.744   7.241  1.2817 -0.1596  0.4510
  298MOL0     H41057   4.023   1.797   7.099 -0.0667 -0.7238 -0.7701
  298MOL0     H41058   4.071   1.628   7.107  2.5927  0.2491  2.2693
  298MOL0     H41059   4.048   1.636   7.351 -2.2155  0.2244  0.5783
  298MOL0     H41060   4.170   1.748   7.283  0.4353 -0.2337 -2.6068
  298MOL0     H41061   3.995   1.927   7.293  1.1648  0.4604  1.2516
  298MOL0     H41062   3.903   1.815   7.395  0.4915 -0.7685 -1.4952
  298MOL0     H41063   4.049   1.803   7.564  0.2705  1.0136  0.0951
  298MOL0     H41064   4.182   1.901   7.485  2.0930 -0.6554  3.0931
  298MOL0     H41065   3.918   2.036   7.564  0.1635 -2.1788  1.9736
  298MOL0     H41066   4.057   2.087   7.452  1.4036  0.8782  2.4281
  298MOL0     H41067   4.181   2.130   7.618 -0.9734  0.6228 -2.9789
  298MOL0     H41068   4.032   2.192   7.673  1.3416 -0.7160  1.1837
  298MOL0     H41069   4.146   1.919   7.752  0.3877 -0.3691 -0.4344
  298MOL0     H41070   3.987   1.982   7.816  0.0857 -2.3626 -0.6182
  298MOL0     H41071   4.174   2.008   7.972 -4.0900  0.0601  1.3874
  298MOL0     H41072   4.244   2.139   7.878  1.7183  0.0696  0.5274
  298MOL0     H41073   3.882   2.087   7.990  1.7912 -0.3136  0.9920
  298MOL0     H41074   3.717   2.235   8.122  1.5797  1.0790  3.0817
  298MOL0     H41075   3.698   2.304   7.964 -0.4889 -0.3680  0.5696
  298MOL0     H41076   3.700   2.434   8.227 -0.7589  0.9913 -0.1894
  298MOL0     H41077   3.814   2.512   8.107 -0.2771 -0.4229 -1.3913
  298MOL0     H41078   3.613   2.516   7.946  0.0898  2.7110 -0.2577
  298MOL0     H41079   3.530   2.427   8.079 -0.1377 -0.0813 -0.5710
  298MOL0     H41080   3.490   2.689   8.044  0.8752  0.1268 -0.8673
  298MOL0     H41081   3.500   2.637   8.208 -0.1297  2.0043 -0.5467
  298MOL0     H41082   3.462   2.900   8.171 -0.0738  1.7639 -1.0977
  298MOL0     H41083   3.304   3.030   8.409 -0.4278 -0.9206 -1.6548
  298MOL0     H41084   3.358   3.101   8.255  0.0865  3.0919  0.8388
  298MOL0     H41085   3.408   3.169   8.406  3.5517  0.6411 -0.4757
  298MOL0     H41086   3.604   3.148   8.849  0.2408 -0.0498  2.2693
  298MOL0     H41087   3.706   3.223   9.061  1.0232 -1.1747 -0.6816
  298MOL0     H41088   3.845   3.306   9.252  0.1450 -1.9619 -0.1249
  298MOL0     H41089   3.997   3.237   9.191  3.5003  1.6006  2.9706
  298MOL0     H41090   4.120   3.447   9.233 -2.7023  1.6633 -2.3438
  298MOL0     H41091   3.984   3.510   9.327 -0.2042 -0.4516  3.3401
  298MOL0     H41092   4.154   3.257   9.395  0.5427 -0.0906  1.9185
  298MOL0     H41093   3.997   3.288   9.462 -1.1175 -2.1839 -3.9235
  298MOL0     H41094   4.084   3.504   9.558 -1.2891 -0.4968 -0.5954
  298MOL0     H41095   4.226   3.491   9.455 -0.4912 -0.9281 -2.7704
  298MOL0     H41096   4.293   3.450   9.670 -1.1471  2.3035 -0.2474
  298MOL0     H41097   4.152   3.334   9.697 -0.9843 -0.2315 -0.4706
  298MOL0     H41098   4.238   3.166   9.569 -1.2564  1.3753  0.0652
  298MOL0     H41099   4.359   3.224   9.692 -2.4361 -1.6613  0.7694
  298MOL0     H41100   4.463   3.366   9.521  1.5952 -1.5419  2.1773
  298MOL0     H41101   4.367   3.289   9.393  1.3071 -0.3111 -0.7549
  298MOL0     H41102   4.570   3.176   9.582  0.6061  2.9632 -0.3847
  298MOL0     H41103   4.577   3.166   9.408  0.6280 -0.9105  1.1292
  298MOL0     H41104   4.033   3.399   8.842 -1.2680  1.4475 -4.7857
  298MOL0     H41105   3.968   3.269   8.656  3.5119  3.0744  1.3791
  298MOL0     H41106   3.804   2.929   8.527 -3.5755 -1.7052  3.1785
  298MOL0     H41107   3.847   2.786   8.329  2.0674  2.4972 -2.2353
  298MOL0     H41108   3.904   1.701   6.892  1.5136 -2.1052  3.8530
  298MOL0     H41109   3.745   1.843   6.777  0.2097  0.9834  0.5543
  298MOL0     H41110   3.159   1.785   6.725 -0.8756  1.6390  2.2391
  298MOL0     H41111   3.047   1.857   6.526  0.8594 -1.9957 -2.0352
  298MOL0     H41112   2.980   1.921   6.343  0.5164 -0.2976  0.1729
  298MOL0     H41113   2.998   2.022   6.197 -0.7011  1.8043  1.0800
  298MOL0     H41114   3.085   1.805   6.146 -0.0657 -2.1567  1.2393
  298MOL0     H41115   3.196   1.812   6.284 -0.3746  2.8370  2.1106
  298MOL0     H41116   3.306   1.840   6.075  0.4237  0.6205 -0.0887
  298MOL0     H41117   3.211   1.990   6.043  0.6335  0.2123 -0.3662
  298MOL0     H41118   3.386   1.994   6.288  0.1984 -0.3642 -1.0954
  298MOL0     H41119   3.299   2.114   6.191 -2.8777 -1.5739 -1.2895
  298MOL0     H41120   3.655   2.036   5.967 -0.9814 -0.7903 -2.8644
  298MOL0     H41121   3.316   2.188   6.484 -0.6255 -1.8292 -0.9089
  298MOL0     H41122   3.472   2.163   6.779 -0.5024  1.5120 -0.6335
  298MOL0     H41123   3.565   2.100   6.642 -1.0063 -1.7731 -1.3042
  298MOL0     H41124   3.462   2.235   6.622 -0.0134 -0.4523  0.2373
  299MOL0     O41125   2.097   1.451   3.851 -0.7087  0.4665  0.0979
  299MOL0     C41126   2.063   1.492   3.958  0.3603 -1.0506 -0.1206
  299MOL0     O41127   1.939   1.483   3.997  0.6574 -0.0452 -0.0369
  299MOL0     C41128   1.852   1.408   3.921 -0.3498  0.0708  0.8598
  299MOL0     C41129   1.773   1.470   3.823 -0.1089  0.1355 -0.3003
  299MOL0     C41130   1.676   1.392   3.757 -0.6416  1.2630 -0.0440
  299MOL0     C41131   1.660   1.257   3.793 -0.0609  0.0929 -0.7433
  299MOL0     O41132   1.541   1.197   3.746 -0.1311  0.2332  0.8220
  299MOL0     C41133   1.471   1.095   3.824  1.0627 -0.3571 -0.1987
  299MOL0     C41134   1.331   1.089   3.766 -0.3373  0.3717 -0.1532
  299MOL0     C41135   1.344   1.062   3.617  0.6201  0.1063  0.6120
  299MOL0     C41136   1.202   1.030   3.554 -0.2878  0.4477 -0.1406
  299MOL0     C41137   1.191   1.091   3.410  0.3578  0.4893 -0.0208
  299MOL0     C41138   1.070   1.040   3.342  0.6477 -0.3260  1.1790
  299MOL0     C41139   1.034   1.113   3.217 -0.7537 -0.4218  0.6367
  299MOL0     C41140   1.067   1.035   3.096  0.0800  0.4449  0.3727
  299MOL0     N41141   1.029   1.092   2.969 -0.4417  0.5186 -0.1760
  299MOL0     C41142   1.007   1.228   2.940  0.3298  0.0185  0.2244
  299MOL0     C41143   0.987   1.227   2.806  0.3012  0.1428  0.3025
  299MOL0     C41144   0.965   1.346   2.719  0.2418 -0.0724 -0.2327
  299MOL0     C41145   0.973   1.308   2.575 -0.5600  0.3780  0.1031
  299MOL0     C41146   0.835   1.266   2.510 -0.5116  0.6886 -0.4292
  299MOL0     C41147   0.854   1.162   2.405  1.6725  0.3835 -0.0823
  299MOL0     O41148   0.719   1.135   2.355 -0.4414 -0.3863  0.7650
  299MOL0     C41149   0.700   1.018   2.276  0.6404  0.6541 -0.3111
  299MOL0     C41150   0.567   0.993   2.233 -0.4154 -0.7151  0.8173
  299MOL0     C41151   0.532   0.884   2.153 -0.2829 -0.2153  0.3875
  299MOL0     C41152   0.389   0.889   2.103 -0.0102  1.1267 -0.3475
  299MOL0     C41153   0.631   0.778   2.126  0.0547 -0.1423 -0.2740
  299MOL0     C41154   0.601   0.646   2.063  0.6012 -0.4818  0.4503
  299MOL0     O41155   0.678   0.547   2.089 -0.7460  0.0013 -0.5020
  299MOL0     C41156   0.647   0.421   2.051  0.5900  0.2067  0.1088
  299MOL0     C41157   0.614   0.331   2.152 -1.0947  0.5333  0.5279
  299MOL0     C41158   0.584   0.198   2.114 -0.3764 -0.7076 -0.3352
  299MOL0     C41159   0.581   0.148   1.979 -0.3101  0.5860  0.1585
  299MOL0     O41160   0.556   0.015   1.955  0.6012  0.3973  0.0552
  299MOL0     C41161   0.547  -0.026   1.817  0.5579  0.8063 -0.2713
  299MOL0     C41162   0.536  -0.182   1.805  0.4115  0.4897 -0.4922
  299MOL0     C41163   0.681  -0.251   1.791 -0.0640 -0.4099 -0.1412
  299MOL0     C41164   0.696  -0.403   1.793  0.0205  0.2335 -0.1896
  299MOL0     C41165   0.837  -0.453   1.775  0.0207  0.8105  0.4537
  299MOL0     C41166   0.834  -0.601   1.785 -0.6763  0.7646 -0.9868
  299MOL0     C41167   0.975  -0.659   1.759 -0.1479 -0.5898 -0.2711
  299MOL0     C41168   0.972  -0.802   1.719 -0.4766  0.8043 -0.9855
  299MOL0    Cl41169   1.130  -0.897   1.723 -0.3078  0.1500  0.6846
  299MOL0     C41170   0.616   0.243   1.882  1.8476 -0.2867 -0.4530
  299MOL0     C41171   0.648   0.373   1.917  0.1234 -0.3617 -0.6738
  299MOL0     O41172   0.498   0.636   1.993 -0.2309 -0.2022  0.6275
  299MOL0     C41173   0.759   0.803   2.169 -1.0236  0.0525 -0.3453
  299MOL0     C41174   0.795   0.924   2.235  0.2450 -0.0482 -0.8535
  299MOL0     N41175   0.996   1.096   2.764  0.5580  0.5274 -0.0852
  299MOL0     N41176   1.020   1.016   2.852  0.0684  0.3592  0.0466
  299MOL0     C41177   1.741   1.199   3.879  0.1666 -0.4208  0.7296
  299MOL0     C41178   1.842   1.266   3.943 -0.1509 -0.1658 -0.1599
  299MOL0     C41179   2.155   1.553   4.058 -0.7095 -0.2232 -0.5342
  299MOL0     C41180   2.105   1.566   4.193 -0.8578  1.0739  0.6365
  299MOL0     C41181   2.169   1.649   4.288 -0.4021  0.2942 -0.3369
  299MOL0     C41182   2.285   1.713   4.253  0.4995  0.2207 -0.2845
  299MOL0     O41183   2.350   1.791   4.344  0.4896  0.1696 -0.4197
  299MOL0     C41184   2.484   1.833   4.331  0.7323  0.0225  0.2276
  299MOL0     C41185   2.543   1.857   4.462  0.0912  0.0577 -0.4529
  299MOL0     C41186   2.672   1.765   4.477 -0.0671 -0.5337  0.4198
  299MOL0     C41187   2.707   1.757   4.620 -0.1860 -0.5644 -0.5178
  299MOL0     C41188   2.827   1.676   4.638 -0.7651 -0.4462 -1.3017
  299MOL0     C41189   2.913   1.590   4.636 -0.1904 -0.3345  0.2426
  299MOL0     C41190   2.335   1.696   4.118  0.2858  0.0253 -0.3886
  299MOL0     C41191   2.279   1.605   4.029  0.1978 -0.9193  0.6489
  299MOL0     C41192   2.337   1.620   3.886  0.3593 -0.1393  0.1840
  299MOL0     H41193   1.789   1.575   3.797  1.3090  0.3813  1.3744
  299MOL0     H41194   1.599   1.430   3.690 -0.1315  2.8769  0.2609
  299MOL0     H41195   1.459   1.121   3.929 -0.3592 -0.4568 -0.3209
  299MOL0     H41196   1.520   0.998   3.814  2.0101  0.2636 -2.2543
  299MOL0     H41197   1.272   1.014   3.819  0.1045 -0.4926 -0.8641
  299MOL0     H41198   1.297   1.192   3.783  0.6905  0.5007  1.2271
  299MOL0     H41199   1.386   1.152   3.571 -0.8232 -0.0680 -1.1590
  299MOL0     H41200   1.410   0.979   3.590  1.8280  0.5279  2.1203
  299MOL0     H41201   1.185   0.923   3.541  3.0955 -0.2840  0.6463
  299MOL0     H41202   1.123   1.082   3.609 -0.8951  2.4370 -2.6712
  299MOL0     H41203   1.281   1.055   3.359  0.2341 -0.0630  0.1373
  299MOL0     H41204   1.188   1.200   3.412 -2.6668  0.4829  1.9515
  299MOL0     H41205   1.073   0.934   3.315 -2.0813 -0.0111 -0.7313
  299MOL0     H41206   0.981   1.041   3.405 -1.8305  0.9829 -2.0496
  299MOL0     H41207   1.070   1.217   3.221 -2.5060  0.2004  4.3504
  299MOL0     H41208   0.925   1.113   3.213 -0.7636 -0.7846  0.9047
  299MOL0     H41209   1.173   1.009   3.099  0.0397  0.3315  2.2381
  299MOL0     H41210   1.015   0.939   3.104  1.6788 -0.4643  0.2320
  299MOL0     H41211   1.006   1.317   3.001  0.4073  0.6874 -0.7251
  299MOL0     H41212   1.050   1.410   2.745 -0.6070  0.4663  1.3448
  299MOL0     H41213   0.871   1.400   2.734 -0.0192 -0.4775 -0.3956
  299MOL0     H41214   1.010   1.387   2.508 -3.1054  1.1807 -0.4656
  299MOL0     H41215   1.047   1.227   2.577 -0.6736 -0.0160 -3.8035
  299MOL0     H41216   0.767   1.233   2.589 -0.4381  1.6029  0.0255
  299MOL0     H41217   0.778   1.353   2.476  0.1405  0.7436 -1.4267
  299MOL0     H41218   0.916   1.198   2.323  3.0301  0.4458  0.9439
  299MOL0     H41219   0.892   1.073   2.454 -1.0968  0.1849  1.9811
  299MOL0     H41220   0.504   1.076   2.263  0.6157 -0.3924  2.1561
  299MOL0     H41221   0.326   0.961   2.154  0.4160 -0.3797  2.5527
  299MOL0     H41222   0.350   0.791   2.134  1.4754  0.2558 -1.0877
  299MOL0     H41223   0.377   0.886   1.994  0.2014 -2.8208 -0.4379
  299MOL0     H41224   0.628   0.371   2.252  0.9486 -1.9601  1.3543
  299MOL0     H41225   0.566   0.123   2.190 -1.5917  1.0603  1.2048
  299MOL0     H41226   0.462   0.020   1.766  0.4246 -1.0355 -1.8338
  299MOL0     H41227   0.647   0.001   1.780  2.7433 -2.8561  2.3173
  299MOL0     H41228   0.496  -0.227   1.896  1.0061 -2.5863 -1.6079
  299MOL0     H41229   0.474  -0.211   1.720 -1.4970  0.6607  0.7743
  299MOL0     H41230   0.754  -0.227   1.868 -0.1194  1.7053 -0.6795
  299MOL0     H41231   0.724  -0.207   1.701 -0.3025  0.4176  0.1383
  299MOL0     H41232   0.631  -0.452   1.720 -0.2376 -2.7459  1.8426
  299MOL0     H41233   0.671  -0.442   1.892 -0.4879 -2.3922 -1.2651
  299MOL0     H41234   0.864  -0.437   1.670 -0.2403 -3.1277 -0.3669
  299MOL0     H41235   0.904  -0.412   1.851  3.1422 -1.6752 -0.7279
  299MOL0     H41236   0.768  -0.653   1.715  1.4796 -2.4049 -0.8409
  299MOL0     H41237   0.808  -0.634   1.886 -2.1943  1.7964 -0.9881
  299MOL0     H41238   1.042  -0.652   1.846 -1.2495  0.0969  0.5418
  299MOL0     H41239   1.027  -0.609   1.676  1.7906 -0.4853  0.9304
  299MOL0     H41240   0.930  -0.803   1.618  4.1164  0.0660 -3.1406
  299MOL0     H41241   0.909  -0.849   1.796  0.9385  2.8533  1.5748
  299MOL0     H41242   0.598   0.213   1.779  1.3193 -0.6969 -0.2467
  299MOL0     H41243   0.680   0.437   1.835  1.1874  1.0944  0.8392
  299MOL0     H41244   0.837   0.728   2.157 -0.3638  0.5770  0.5793
  299MOL0     H41245   0.898   0.924   2.269  0.1269  1.3155 -0.4023
  299MOL0     H41246   1.727   1.094   3.904 -1.8458  0.0061  1.6305
  299MOL0     H41247   1.886   1.202   4.019 -0.9627 -1.2876 -0.6020
  299MOL0     H41248   2.012   1.520   4.225 -2.4748  3.0936 -0.8622
  299MOL0     H41249   2.124   1.674   4.384 -3.3215  1.9105 -1.9569
  299MOL0     H41250   2.538   1.767   4.262 -4.3242 -0.9862 -3.4027
  299MOL0     H41251   2.473   1.926   4.275  0.4578 -0.0629  0.1383
  299MOL0     H41252   2.476   1.829   4.544  1.1574 -0.7033  0.1896
  299MOL0     H41253   2.573   1.962   4.467 -1.8677  0.6385  0.1031
  299MOL0     H41254   2.644   1.666   4.438 -0.6932 -0.9821  1.9402
  299MOL0     H41255   2.756   1.809   4.423 -0.0206 -0.0465  0.8824
  299MOL0     H41256   2.631   1.723   4.690  2.2324 -1.8919  1.6523
  299MOL0     H41257   2.744   1.855   4.650  2.1984 -1.5301 -0.0523
  299MOL0     H41258   2.976   1.503   4.625 -1.1785 -1.0814  0.3367
  299MOL0     H41259   2.422   1.754   4.089  1.1242 -0.9196  0.1723
  299MOL0     H41260   2.279   1.691   3.826  0.7550 -0.1661 -0.2381
  299MOL0     H41261   2.444   1.641   3.887  0.6360 -1.2399  2.9681
  299MOL0     H41262   2.324   1.526   3.832 -1.4929 -0.1767  0.6013
  300MOL0     O41263   2.172  11.501   6.548 -1.1367  0.3045 -0.9565
  300MOL0     C41264   2.275  11.436   6.574 -0.8201 -0.0113  0.4811
  300MOL0     O41265   2.302  11.308   6.529 -0.0986  0.2848  0.4823
  300MOL0     C41266   2.212  11.223   6.487 -0.0203 -0.6915  0.5840
  300MOL0     C41267   2.108  11.202   6.569 -0.0489  0.3113 -0.2104
  300MOL0     C41268   2.003  11.110   6.532 -0.2581 -0.8248 -0.3833
  300MOL0     C41269   2.015  11.039   6.413  0.1298 -0.1002  0.6672
  300MOL0     O41270   1.912  10.958   6.370  0.7374  0.2387 -0.0276
  300MOL0     C41271   1.849  10.989   6.248 -0.3597 -0.1559 -0.1051
  300MOL0     C41272   1.703  11.028   6.276  0.4904  0.0651 -0.5180
  300MOL0     C41273   1.620  11.067   6.148 -0.1955 -0.2245  0.1282
  300MOL0     C41274   1.480  11.100   6.199  0.5726  0.2525  0.3491
  300MOL0     C41275   1.381  11.111   6.090  0.9657  0.8673  0.3154
  300MOL0     C41276   1.238  11.139   6.147 -0.8279 -0.3957 -0.5835
  300MOL0     C41277   1.136  11.156   6.026  0.4661  0.2025  0.3089
  300MOL0     C41278   1.003  11.161   6.087 -0.9854  0.8891 -0.1356
  300MOL0     N41279   0.982  11.295   6.140  0.1375  0.3435  0.0304
  300MOL0     C41280   0.916  11.325   6.258 -0.0243  0.5810 -0.0427
  300MOL0     C41281   0.890  11.454   6.232  0.0893 -0.8565  0.1304
  300MOL0     C41282   0.814  11.553   6.314 -0.5847  0.6129  1.1767
  300MOL0     C41283   0.698  11.625   6.242  1.1309  0.0569 -0.5014
  300MOL0     C41284   0.608  11.712   6.342 -0.0170 -0.4153 -0.5269
  300MOL0     C41285   0.469  11.729   6.284  0.0041 -0.4702  0.4868
  300MOL0     O41286   0.360  11.759   6.375 -0.0858 -0.0746  0.2824
  300MOL0     C41287   0.291  11.653   6.431 -0.3348  0.3271  0.4763
  300MOL0     C41288   0.195  11.576   6.359 -0.8292 -0.3982  0.4451
  300MOL0     C41289   0.157  11.447   6.410 -0.1618 -0.4743 -0.5231
  300MOL0     C41290   0.069  11.379   6.318  0.9859 -0.0248  0.4243
  300MOL0     C41291   0.184  11.416   6.546 -0.1539  1.1612 -0.7673
  300MOL0     C41292   0.133  11.298   6.620  0.6648 -0.3720 -0.3134
  300MOL0     O41293   0.169  11.281   6.751  0.5940 -0.7399  0.0440
  300MOL0     C41294   0.098  11.199   6.839 -0.9062 -0.0732  0.8943
  300MOL0     C41295   0.176  11.149   6.943 -0.3159 -0.1553  0.8574
  300MOL0     C41296   0.119  11.077   7.051  0.0162 -0.5932  0.1994
  300MOL0     C41297  -0.008  11.025   7.040  0.1732  0.0683 -0.3313
  300MOL0     O41298  -0.040  10.950   7.142  0.0312  0.4780  0.6424
  300MOL0     C41299  -0.155  10.864   7.140 -0.0539  0.5383  0.0658
  300MOL0     C41300  -0.136  10.759   7.255  0.2649 -0.4633 -1.5280
  300MOL0     C41301  -0.030  10.643   7.234  0.5921  0.1165  0.3173
  300MOL0     C41302  -0.049  10.528   7.336  0.0734  0.1221  1.1543
  300MOL0     C41303   0.087  10.455   7.335  0.7401 -0.0248 -0.1591
  300MOL0     C41304   0.097  10.365   7.209  0.3300 -0.3802 -1.1130
  300MOL0     C41305   0.207  10.255   7.223 -0.3631 -1.0941  0.0620
  300MOL0     C41306   0.204  10.162   7.097  0.6500  0.4067 -0.8125
  300MOL0    Cl41307   0.365  10.076   7.088  0.1105  0.0279 -0.4222
  300MOL0     C41308  -0.081  11.066   6.926  0.5555 -0.3755  0.2110
  300MOL0     C41309  -0.033  11.161   6.829 -0.3934  0.3985 -0.3000
  300MOL0     O41310   0.056  11.225   6.556  0.2253  0.3731 -1.3950
  300MOL0     C41311   0.260  11.514   6.618 -0.6014 -0.4195 -0.5472
  300MOL0     C41312   0.317  11.623   6.560  0.3276 -0.4960 -0.2143
  300MOL0     N41313   0.935  11.501   6.107 -0.4815  0.4413 -0.2894
  300MOL0     N41314   0.991  11.400   6.052  0.0898  0.5956  0.2007
  300MOL0     C41315   2.127  11.062   6.323 -0.2332  0.2303 -0.3684
  300MOL0     C41316   2.215  11.158   6.362 -0.4617 -0.1818 -0.3007
  300MOL0     C41317   2.386  11.532   6.612  0.3791 -0.9857 -0.3607
  300MOL0     C41318   2.354  11.672   6.629  0.2910 -0.0042  0.1416
  300MOL0     C41319   2.449  11.775   6.642 -0.3456 -0.6722 -0.2082
  300MOL0     C41320   2.583  11.734   6.631  0.4601 -0.7075  1.1133
  300MOL0     O41321   2.701  11.814   6.631  0.0149 -0.3796  0.2878
  300MOL0     C41322   2.702  11.938   6.554 -0.3911 -0.5667  0.4904
  300MOL0     C41323   2.694  12.067   6.646  0.3742  0.1900  0.9030
  300MOL0     C41324   2.831  12.076   6.725  0.0177  0.3777 -0.2454
  300MOL0     C41325   2.815  12.173   6.842  0.6885 -1.1017 -0.1292
  300MOL0     C41326   2.795  12.311   6.791 -0.2429 -0.0999  0.1647
  300MOL0     C41327   2.765  12.424   6.762  0.2432 -0.8943  0.8496
  300MOL0     C41328   2.618  11.596   6.625  0.0135  0.4398  0.7056
  300MOL0     C41329   2.519  11.491   6.627  0.7362 -0.2992 -0.2084
  300MOL0     C41330   2.563  11.351   6.621 -0.2597 -0.7371  0.3710
  300MOL0     H41331   2.101  11.263   6.659  1.1929  0.2871 -0.0871
  300MOL0     H41332   1.909  11.099   6.585 -0.2883  1.2563  0.0913
  300MOL0     H41333   1.841  10.904   6.179 -0.4914 -0.4633  0.2886
  300MOL0     H41334   1.894  11.077   6.201 -1.3362 -0.7531 -2.2932
  300MOL0     H41335   1.654  10.942   6.322 -1.2867  0.8350 -0.8941
  300MOL0     H41336   1.705  11.111   6.346 -0.6925  0.8553 -1.3842
  300MOL0     H41337   1.659  11.156   6.098  1.6549 -0.8615  0.3639
  300MOL0     H41338   1.619  10.983   6.078  0.9794  0.1667 -0.3879
  300MOL0     H41339   1.442  11.018   6.261 -3.4259  3.6628  2.9929
  300MOL0     H41340   1.472  11.196   6.250  0.0450 -0.0887  0.9196
  300MOL0     H41341   1.366  11.020   6.031 -4.6775  0.5514  1.6773
  300MOL0     H41342   1.408  11.194   6.023  1.7844  1.1051  0.9300
  300MOL0     H41343   1.217  11.055   6.214  0.1602 -0.5405 -0.4498
  300MOL0     H41344   1.244  11.234   6.201  0.8553 -1.1217  0.5581
  300MOL0     H41345   1.143  11.068   5.961 -0.7976  2.3407 -2.9788
  300MOL0     H41346   1.148  11.241   5.958 -1.1399  2.1988  2.3543
  300MOL0     H41347   0.920  11.139   6.018 -0.5000  0.9879 -0.7630
  300MOL0     H41348   0.994  11.084   6.164  0.5722  0.5434 -0.2752
  300MOL0     H41349   0.907  11.258   6.344  3.5815  1.2384  1.0289
  300MOL0     H41350   0.889  11.624   6.347  1.1104 -0.5272 -0.0499
  300MOL0     H41351   0.765  11.508   6.401  0.5982 -1.2111  0.9616
  300MOL0     H41352   0.739  11.695   6.168 -2.3717  1.3141 -1.4363
  300MOL0     H41353   0.645  11.556   6.176 -0.0915 -1.1506  1.6427
  300MOL0     H41354   0.597  11.654   6.434 -1.0056 -0.2191 -0.5123
  300MOL0     H41355   0.667  11.802   6.364  0.3040 -0.7657  0.0790
  300MOL0     H41356   0.482  11.812   6.214 -0.9353 -0.9728 -0.3206
  300MOL0     H41357   0.449  11.653   6.207  1.2333  0.1548 -0.4945
  300MOL0     H41358   0.172  11.599   6.256  2.3574 -0.5422 -0.3807
  300MOL0     H41359   0.095  11.273   6.315 -1.4526 -0.6761  0.3529
  300MOL0     H41360   0.087  11.415   6.216  3.5548 -2.5632 -0.1524
  300MOL0     H41361  -0.034  11.391   6.353  0.9401  0.0832  0.2546
  300MOL0     H41362   0.278  11.184   6.954 -0.8620  1.2509  1.7642
  300MOL0     H41363   0.171  11.058   7.144  1.7638  0.5201 -0.5133
  300MOL0     H41364  -0.249  10.918   7.153 -1.1833 -0.8230 -1.8462
  300MOL0     H41365  -0.164  10.809   7.046  1.2054  0.2663  0.0811
  300MOL0     H41366  -0.102  10.810   7.345  0.4969 -1.0436 -1.2777
  300MOL0     H41367  -0.239  10.726   7.273 -0.4053  2.2410  0.1433
  300MOL0     H41368   0.071  10.684   7.219  0.1389  1.0999 -0.1620
  300MOL0     H41369  -0.044  10.594   7.137 -3.8536 -0.5524  1.1003
  300MOL0     H41370  -0.128  10.464   7.295 -1.3709  3.5359 -1.9937
  300MOL0     H41371  -0.075  10.556   7.438 -1.2518  0.2458  0.7985
  300MOL0     H41372   0.174  10.521   7.345 -0.4061  1.9491 -2.2246
  300MOL0     H41373   0.084  10.385   7.419 -0.6093  0.0564 -0.1262
  300MOL0     H41374   0.129  10.431   7.127  3.1119  3.7494  2.7789
  300MOL0     H41375   0.003  10.310   7.195 -1.1365  1.6089  0.2004
  300MOL0     H41376   0.209  10.195   7.315 -0.3668 -0.7868  0.2649
  300MOL0     H41377   0.302  10.309   7.225 -1.1387  0.6255 -3.0182
  300MOL0     H41378   0.173  10.214   7.006  0.0426  2.5339  0.5291
  300MOL0     H41379   0.129  10.085   7.119  0.6782  0.8808  1.1608
  300MOL0     H41380  -0.187  11.043   6.924  0.2399  0.0451  3.9511
  300MOL0     H41381  -0.099  11.185   6.746  0.1282  0.6084 -0.6566
  300MOL0     H41382   0.287  11.502   6.723  3.1330  0.0668 -1.2850
  300MOL0     H41383   0.386  11.681   6.621 -1.4987 -0.0997  1.6006
  300MOL0     H41384   2.132  11.019   6.223  0.3163 -3.6949  1.1791
  300MOL0     H41385   2.304  11.174   6.302  1.2484 -5.0559  0.4972
  300MOL0     H41386   2.251  11.703   6.615  0.7122  1.0826 -0.6667
  300MOL0     H41387   2.438  11.881   6.661  3.0821 -0.1251 -0.6306
  300MOL0     H41388   2.797  11.940   6.501 -0.4608 -0.8178  0.3541
  300MOL0     H41389   2.627  11.931   6.475  1.8575  1.9340 -2.0616
  300MOL0     H41390   2.602  12.064   6.705 -1.8039  1.3304 -2.1464
  300MOL0     H41391   2.689  12.159   6.588 -0.7651  1.5803  3.0662
  300MOL0     H41392   2.857  11.985   6.779  0.4491  1.0672  0.7389
  300MOL0     H41393   2.912  12.111   6.660 -0.2855  0.6515 -0.4785
  300MOL0     H41394   2.892  12.165   6.918 -0.9416 -3.8945  1.3890
  300MOL0     H41395   2.719  12.150   6.889  0.7482 -0.4650  0.3251
  300MOL0     H41396   2.734  12.522   6.732 -2.9691 -1.0945  3.0533
  300MOL0     H41397   2.721  11.564   6.638 -0.1603 -1.2985 -1.6421
  300MOL0     H41398   2.665  11.343   6.660  0.4254 -1.3957 -1.4670
  300MOL0     H41399   2.497  11.277   6.668 -0.1209 -0.7292  0.5863
  300MOL0     H41400   2.562  11.317   6.517 -2.7318 -1.2658  0.4997
  301MOL0     O41401   2.575   4.401   2.471  0.5989 -0.4295 -0.0926
  301MOL0     C41402   2.693   4.411   2.435 -0.5186 -0.2662 -0.0625
  301MOL0     O41403   2.785   4.476   2.501 -1.0029 -0.7430  0.8611
  301MOL0     C41404   2.753   4.535   2.619 -0.0498  0.0538 -0.4933
  301MOL0     C41405   2.721   4.672   2.629 -0.1809  0.2647  0.9659
  301MOL0     C41406   2.700   4.717   2.757 -0.0376 -0.7197 -0.4113
  301MOL0     C41407   2.717   4.649   2.871 -1.1372  0.2721 -0.4593
  301MOL0     O41408   2.722   4.708   2.998 -0.2870  0.5214  0.5166
  301MOL0     C41409   2.607   4.780   3.028  0.4438  0.4499  0.4562
  301MOL0     C41410   2.569   4.754   3.175  0.8018  0.4109  0.1853
  301MOL0     C41411   2.533   4.601   3.184 -0.5960  0.4798 -0.0552
  301MOL0     C41412   2.482   4.559   3.332  0.8398  0.1662  0.4824
  301MOL0     C41413   2.407   4.428   3.327  0.1048  0.4115  0.3236
  301MOL0     C41414   2.280   4.424   3.254  0.0899 -0.4650  0.0289
  301MOL0     C41415   2.214   4.288   3.251 -0.9151  0.5857 -0.3131
  301MOL0     C41416   2.268   4.172   3.163  0.0444 -1.3143 -0.0201
  301MOL0     N41417   2.203   4.054   3.224 -0.3230  0.1075  0.3738
  301MOL0     C41418   2.072   4.013   3.215 -0.1369 -0.0761 -0.1342
  301MOL0     C41419   2.064   3.896   3.285  0.3146 -0.7025 -0.1324
  301MOL0     C41420   1.945   3.817   3.299  0.4681  1.2595  0.0973
  301MOL0     C41421   1.914   3.733   3.172  0.3401 -0.0062 -0.1652
  301MOL0     C41422   2.032   3.650   3.114  0.7484  0.3589  0.6871
  301MOL0     C41423   2.095   3.554   3.221 -0.2776  0.0364  0.1335
  301MOL0     O41424   2.022   3.438   3.229  0.2778 -0.1847 -0.0030
  301MOL0     C41425   2.083   3.320   3.188  0.3382  0.9981  0.5501
  301MOL0     C41426   2.133   3.308   3.061 -0.1081 -0.3322  0.5644
  301MOL0     C41427   2.178   3.187   3.016 -0.7340  0.8054  0.1097
  301MOL0     C41428   2.218   3.186   2.874  0.1704  0.2587 -0.2205
  301MOL0     C41429   2.164   3.067   3.087  0.0098 -0.8340  0.2055
  301MOL0     C41430   2.211   2.938   3.036  0.1554 -0.4327 -0.5152
  301MOL0     O41431   2.342   2.923   3.013 -0.4947  0.0137 -0.6623
  301MOL0     C41432   2.391   2.795   2.989 -0.5439 -0.0008 -0.2850
  301MOL0     C41433   2.413   2.704   3.097  0.0076 -0.0290  0.0266
  301MOL0     C41434   2.443   2.574   3.077  0.9402 -0.4088  0.5084
  301MOL0     C41435   2.449   2.519   2.947 -0.7481 -0.5732 -0.3882
  301MOL0     O41436   2.488   2.389   2.940  0.1677  0.0345  0.2352
  301MOL0     C41437   2.630   2.379   2.894  0.3646 -1.1086  0.8271
  301MOL0     C41438   2.669   2.239   2.909  0.2244  0.7061  0.6121
  301MOL0     C41439   2.798   2.223   2.837 -0.1885 -0.5387 -0.5764
  301MOL0     C41440   2.823   2.066   2.843  0.0138 -0.4791 -0.0563
  301MOL0     C41441   2.927   2.034   2.738 -0.5874  0.2954  0.3000
  301MOL0     C41442   3.068   2.092   2.748 -0.7563  0.9722  0.3058
  301MOL0     C41443   3.164   2.003   2.658  0.6147 -0.3348 -0.3341
  301MOL0     C41444   3.306   2.042   2.663 -0.6293  0.1619 -0.5411
  301MOL0    Cl41445   3.403   1.960   2.536 -0.4308 -0.0067  0.0631
  301MOL0     C41446   2.409   2.601   2.838  0.7904 -0.0247  1.3564
  301MOL0     C41447   2.382   2.739   2.861  0.6119 -0.1710 -0.0435
  301MOL0     O41448   2.124   2.852   3.033  0.6466 -0.1091  0.0861
  301MOL0     C41449   2.119   3.079   3.222  0.9744 -0.2065 -0.5016
  301MOL0     C41450   2.070   3.208   3.272  0.0162 -0.6246 -0.2421
  301MOL0     N41451   2.186   3.866   3.337  0.0731 -0.2043 -0.4610
  301MOL0     N41452   2.265   3.956   3.295 -0.3290  0.0335  0.0599
  301MOL0     C41453   2.754   4.512   2.857 -0.3311 -0.2096  0.0685
  301MOL0     C41454   2.775   4.459   2.736  0.1931  0.2080  0.7431
  301MOL0     C41455   2.733   4.333   2.320 -0.6660  0.7722 -0.4253
  301MOL0     C41456   2.666   4.209   2.300 -0.1548 -0.0684  0.7183
  301MOL0     C41457   2.697   4.128   2.192 -0.6720 -0.0139 -0.2120
  301MOL0     C41458   2.780   4.167   2.095 -0.7950  0.3668  0.2924
  301MOL0     O41459   2.811   4.093   1.982 -0.1191  0.3607 -0.0283
  301MOL0     C41460   2.870   3.970   2.023  0.1468 -0.0177 -0.6469
  301MOL0     C41461   2.772   3.864   1.972 -0.5670 -0.4546  0.6432
  301MOL0     C41462   2.791   3.844   1.820 -0.4104 -0.1247 -0.4277
  301MOL0     C41463   2.878   3.716   1.790  0.9394  0.6568  0.0809
  301MOL0     C41464   3.018   3.745   1.805 -0.1943  0.3649 -0.0489
  301MOL0     C41465   3.137   3.767   1.811 -0.3038  0.9313  0.6157
  301MOL0     C41466   2.851   4.287   2.109  0.2171  0.4954 -0.4229
  301MOL0     C41467   2.832   4.371   2.227  0.5069  0.0769  1.0033
  301MOL0     C41468   2.908   4.492   2.239  0.9044 -0.4426 -0.6335
  301MOL0     H41469   2.723   4.736   2.541 -0.4876 -2.6055 -1.2626
  301MOL0     H41470   2.681   4.824   2.764  0.1342 -0.5003 -2.6232
  301MOL0     H41471   2.515   4.747   2.978  0.1707  1.6005  0.1758
  301MOL0     H41472   2.619   4.888   3.016 -0.9882  0.6686  0.7502
  301MOL0     H41473   2.655   4.782   3.237  0.8232  3.5510 -1.0976
  301MOL0     H41474   2.482   4.815   3.201  1.6633  2.1424 -0.7864
  301MOL0     H41475   2.457   4.574   3.110 -2.0461 -3.4223  2.5371
  301MOL0     H41476   2.620   4.539   3.164  0.8895  2.1007  1.0503
  301MOL0     H41477   2.569   4.555   3.398  1.9606 -2.0150 -0.9886
  301MOL0     H41478   2.405   4.629   3.367  2.1283  1.0605  1.6173
  301MOL0     H41479   2.389   4.390   3.428  1.4528  0.6714  0.6906
  301MOL0     H41480   2.457   4.352   3.266 -0.4222  2.8469 -3.4720
  301MOL0     H41481   2.213   4.495   3.303 -0.7523 -2.2906  1.6785
  301MOL0     H41482   2.284   4.456   3.150  2.8282 -0.8880 -0.0671
  301MOL0     H41483   2.117   4.318   3.210 -0.6544  0.9111 -0.7084
  301MOL0     H41484   2.213   4.257   3.356  2.9609 -1.1281 -0.6121
  301MOL0     H41485   2.256   4.178   3.054 -0.0135  1.4773  0.0696
  301MOL0     H41486   2.374   4.166   3.187  0.8826  0.5438 -2.7399
  301MOL0     H41487   1.990   4.070   3.173 -1.3237 -0.6792  1.2809
  301MOL0     H41488   1.865   3.886   3.327  0.7384  1.5066  0.2754
  301MOL0     H41489   1.968   3.743   3.376  3.0227  2.2135  0.3534
  301MOL0     H41490   1.823   3.674   3.188 -0.6777  1.9082  1.5518
  301MOL0     H41491   1.878   3.793   3.088  0.3597  0.0575 -0.1277
  301MOL0     H41492   1.995   3.588   3.032  0.1438  1.4765  0.0835
  301MOL0     H41493   2.116   3.713   3.082 -0.2204  0.9643 -0.7800
  301MOL0     H41494   2.198   3.534   3.191 -0.9005 -2.7607 -0.3568
  301MOL0     H41495   2.107   3.599   3.320  1.0226  3.4890 -1.4275
  301MOL0     H41496   2.151   3.397   3.003 -3.2044 -0.8517 -1.4061
  301MOL0     H41497   2.238   3.084   2.839  0.7574 -0.3526  1.7388
  301MOL0     H41498   2.301   3.256   2.854 -2.0216  2.8750 -0.7472
  301MOL0     H41499   2.141   3.215   2.803 -1.6092  1.6416  2.1483
  301MOL0     H41500   2.418   2.753   3.194 -2.5884 -0.4965  0.4744
  301MOL0     H41501   2.470   2.512   3.162 -4.2627 -1.7220  1.5522
  301MOL0     H41502   2.636   2.424   2.794 -1.2522  1.8788  1.9356
  301MOL0     H41503   2.695   2.444   2.954 -0.3595 -1.8129  2.4374
  301MOL0     H41504   2.669   2.206   3.013 -0.2399  1.2436  0.7854
  301MOL0     H41505   2.595   2.178   2.856  0.2745 -1.3189  2.7005
  301MOL0     H41506   2.872   2.285   2.888 -1.3869  0.6449 -0.2367
  301MOL0     H41507   2.783   2.255   2.733 -1.9077  0.2124 -0.1268
  301MOL0     H41508   2.733   2.005   2.832  0.5853 -1.4888  0.7350
  301MOL0     H41509   2.880   2.041   2.933  4.7069  0.6583 -2.4224
  301MOL0     H41510   2.938   1.928   2.764 -2.5598  0.1797  0.7812
  301MOL0     H41511   2.884   2.061   2.641 -1.1206  3.2010  1.2632
  301MOL0     H41512   3.102   2.081   2.852  1.2812  0.9648 -0.3139
  301MOL0     H41513   3.085   2.196   2.719  3.7604  0.3007 -0.1116
  301MOL0     H41514   3.134   2.015   2.554  1.7439 -0.8570 -0.7409
  301MOL0     H41515   3.146   1.898   2.683 -1.0804  0.2201  0.9890
  301MOL0     H41516   3.336   2.020   2.765 -0.4387  0.2395 -0.5801
  301MOL0     H41517   3.320   2.149   2.649  0.0042  0.0825 -0.5343
  301MOL0     H41518   2.414   2.557   2.739  1.6889 -2.3023  2.3430
  301MOL0     H41519   2.344   2.808   2.786 -2.0181 -1.3088  0.1039
  301MOL0     H41520   2.127   2.993   3.288  1.4496 -0.3036 -0.6784
  301MOL0     H41521   2.027   3.219   3.371  1.1199 -1.0599  0.2985
  301MOL0     H41522   2.764   4.468   2.956  2.4232 -1.5675 -0.7296
  301MOL0     H41523   2.828   4.369   2.704 -2.5292 -0.6756 -1.7204
  301MOL0     H41524   2.593   4.169   2.370 -0.4243 -1.0955 -0.1259
  301MOL0     H41525   2.638   4.038   2.178 -1.9561  0.8268 -0.3473
  301MOL0     H41526   2.967   3.947   1.978 -0.8040 -1.4809 -2.0435
  301MOL0     H41527   2.871   3.959   2.131 -2.5228  3.4961 -0.0615
  301MOL0     H41528   2.672   3.906   1.985 -1.1498 -2.1981  2.1437
  301MOL0     H41529   2.770   3.767   2.022 -2.0522 -2.0137 -2.1600
  301MOL0     H41530   2.690   3.823   1.784 -2.0778  0.1742  3.4931
  301MOL0     H41531   2.825   3.937   1.775  1.6945  0.3739  1.9742
  301MOL0     H41532   2.868   3.678   1.688 -2.1582  1.1390  0.1041
  301MOL0     H41533   2.846   3.633   1.853 -0.7584  1.0264 -0.2322
  301MOL0     H41534   3.241   3.789   1.804 -0.3457  1.0476  0.3337
  301MOL0     H41535   2.902   4.333   2.024 -0.4843 -2.3279 -2.5226
  301MOL0     H41536   2.832   4.569   2.254 -1.1598 -2.8758  2.8625
  301MOL0     H41537   2.955   4.489   2.337 -0.5216 -0.9281  0.0607
  301MOL0     H41538   2.990   4.509   2.169  0.9494  1.4389 -0.1678
  302MOL0     O41539   5.382   7.142  10.523 -0.3436  0.6808 -0.3130
  302MOL0     C41540   5.308   7.114  10.431 -0.0299  0.4211  0.0673
  302MOL0     O41541   5.320   7.011  10.350  0.4990 -0.7554  0.2682
  302MOL0     C41542   5.394   6.912  10.382  0.5055 -0.3036  1.3407
  302MOL0     C41543   5.529   6.901  10.332 -0.3545  0.7543 -0.0738
  302MOL0     C41544   5.606   6.791  10.363 -0.6285  0.5251 -0.4081
  302MOL0     C41545   5.553   6.684  10.428  0.3001 -0.5218  0.6410
  302MOL0     O41546   5.626   6.569  10.444  0.5715  0.0063 -0.1124
  302MOL0     C41547   5.748   6.567  10.516  0.0271 -0.4568 -0.4765
  302MOL0     C41548   5.729   6.535  10.658 -0.6076 -0.0881  0.4849
  302MOL0     C41549   5.865   6.508  10.722 -1.0749 -0.4088 -0.7508
  302MOL0     C41550   5.847   6.444  10.868  0.2361 -0.1636 -0.9585
  302MOL0     C41551   5.960   6.348  10.908  0.1049  0.0455  0.3009
  302MOL0     C41552   6.092   6.402  10.976 -0.5168  0.0649 -0.5245
  302MOL0     C41553   6.178   6.454  10.861  0.1346  1.2232 -0.5146
  302MOL0     C41554   6.316   6.493  10.892  0.1186  0.5450 -0.1749
  302MOL0     N41555   6.393   6.517  10.772 -0.4462  0.2661  0.0724
  302MOL0     C41556   6.421   6.643  10.723 -0.1179 -0.1997 -0.6631
  302MOL0     C41557   6.497   6.629  10.612  0.0213  0.1886  0.1491
  302MOL0     C41558   6.516   6.754  10.533  0.1183 -0.4826  0.3176
  302MOL0     C41559   6.500   6.741  10.380 -0.1203 -0.7793  0.9593
  302MOL0     C41560   6.614   6.833  10.317  0.2051  1.1045 -0.4058
  302MOL0     C41561   6.598   6.841  10.166  0.5863  0.0177  0.5163
  302MOL0     O41562   6.671   6.739  10.103  0.0709  0.1382 -0.1231
  302MOL0     C41563   6.600   6.631  10.057 -0.1067 -0.3495 -1.0881
  302MOL0     C41564   6.680   6.534   9.987 -0.1925 -0.1000 -0.7140
  302MOL0     C41565   6.625   6.415   9.935  0.6472 -0.1128 -0.7502
  302MOL0     C41566   6.728   6.312   9.888  0.3566  0.0254  0.1409
  302MOL0     C41567   6.484   6.397   9.945  0.7028  1.2606 -0.6551
  302MOL0     C41568   6.418   6.271   9.895 -0.9849 -0.0625  1.2112
  302MOL0     O41569   6.285   6.288   9.880 -0.3016  0.5499  0.2220
  302MOL0     C41570   6.200   6.191   9.855 -0.2821 -0.5927 -0.7732
  302MOL0     C41571   6.096   6.172   9.944 -0.8380 -0.0899 -0.3108
  302MOL0     C41572   5.996   6.073   9.928 -0.2991 -1.1345  0.0937
  302MOL0     C41573   6.007   5.994   9.818  0.8853  0.6059 -0.5699
  302MOL0     O41574   5.911   5.903   9.790 -0.3594  0.4077 -0.0018
  302MOL0     C41575   5.845   5.911   9.661 -0.8615 -0.5578  0.3360
  302MOL0     C41576   5.876   5.779   9.597  0.2541 -0.1563  0.5011
  302MOL0     C41577   5.784   5.760   9.475 -0.8386 -0.4755  0.1386
  302MOL0     C41578   5.829   5.860   9.361 -0.5650  0.6660 -0.9872
  302MOL0     C41579   5.781   5.807   9.230 -0.0346  0.5809  0.9338
  302MOL0     C41580   5.626   5.815   9.214  0.0852 -0.1385  0.0179
  302MOL0     C41581   5.581   5.789   9.074  0.0994  0.5116 -0.1472
  302MOL0     C41582   5.424   5.764   9.061  0.1665  0.6009 -1.1063
  302MOL0    Cl41583   5.391   5.699   8.898 -0.2656  0.3464 -0.3458
  302MOL0     C41584   6.114   6.004   9.727  0.5844  0.3258 -0.0339
  302MOL0     C41585   6.210   6.103   9.747 -0.0712  0.4241 -0.1413
  302MOL0     O41586   6.488   6.176   9.855 -0.0445 -0.6033 -0.1484
  302MOL0     C41587   6.407   6.500  10.010 -0.0826  1.1029 -0.3083
  302MOL0     C41588   6.461   6.618  10.062 -0.3597 -0.8147 -0.5106
  302MOL0     N41589   6.517   6.489  10.596  0.0973 -0.0885 -0.2147
  302MOL0     N41590   6.466   6.428  10.696  0.0281 -0.2219 -0.7931
  302MOL0     C41591   5.420   6.692  10.476  0.7009 -0.1381 -0.5117
  302MOL0     C41592   5.348   6.813  10.460  0.4307  0.2037 -0.6079
  302MOL0     C41593   5.198   7.215  10.405  0.3559  0.2310 -0.5416
  302MOL0     C41594   5.187   7.327  10.488  0.8314 -0.3098 -0.2587
  302MOL0     C41595   5.084   7.420  10.480 -0.6538 -0.6988  0.7340
  302MOL0     C41596   4.984   7.394  10.385  0.1048  0.0516 -1.2441
  302MOL0     O41597   4.870   7.459  10.356 -0.1602 -0.5446  0.4537
  302MOL0     C41598   4.812   7.547  10.447  0.2342  0.4020 -0.1285
  302MOL0     C41599   4.654   7.548  10.431  0.6096 -0.3217  1.2533
  302MOL0     C41600   4.589   7.413  10.455  0.0328 -0.1283 -0.4133
  302MOL0     C41601   4.440   7.424  10.413  0.0716  0.5936  0.2656
  302MOL0     C41602   4.363   7.533  10.480 -0.4664 -0.3985 -0.2344
  302MOL0     C41603   4.310   7.625  10.532  1.0763  0.1726  0.4782
  302MOL0     C41604   4.995   7.297  10.296  0.0452  0.7504  0.3217
  302MOL0     C41605   5.094   7.204  10.306  0.2658  0.5955  1.2846
  302MOL0     C41606   5.099   7.101  10.194 -0.9183 -0.9115 -0.1608
  302MOL0     H41607   5.568   6.976  10.264  1.6181 -0.4594 -0.3642
  302MOL0     H41608   5.708   6.770  10.333 -0.7051 -1.9501  0.8079
  302MOL0     H41609   5.809   6.658  10.518  1.3743 -1.3362 -0.4164
  302MOL0     H41610   5.820   6.499  10.472  1.7031  1.9977 -1.7881
  302MOL0     H41611   5.667   6.612  10.703  0.3272  0.3926  0.9804
  302MOL0     H41612   5.663   6.449  10.673 -2.9925  1.6901  0.6042
  302MOL0     H41613   5.927   6.445  10.658  0.6582  0.1075  0.3417
  302MOL0     H41614   5.922   6.600  10.735 -2.5774  0.1334  3.6293
  302MOL0     H41615   5.818   6.519  10.943 -1.8802 -2.3478  0.5440
  302MOL0     H41616   5.759   6.381  10.856 -1.4460  1.8374  0.1424
  302MOL0     H41617   5.978   6.282  10.823 -0.0031  0.1049  0.2324
  302MOL0     H41618   5.906   6.287  10.982 -2.1752  0.8039 -0.6581
  302MOL0     H41619   6.063   6.495  11.026 -4.3847 -1.9602  1.5480
  302MOL0     H41620   6.147   6.336  11.044  0.9418  0.8981 -0.8532
  302MOL0     H41621   6.133   6.549  10.829  0.6037  1.3135 -0.9161
  302MOL0     H41622   6.187   6.385  10.776  0.4659  0.9789 -0.2842
  302MOL0     H41623   6.311   6.590  10.942 -1.2286 -0.3394  1.5511
  302MOL0     H41624   6.379   6.416  10.939  0.1032 -1.0549 -2.5549
  302MOL0     H41625   6.381   6.739  10.752  0.0729 -0.0562 -0.8685
  302MOL0     H41626   6.620   6.783  10.550  0.2455 -0.6480 -0.1459
  302MOL0     H41627   6.456   6.839  10.566 -0.5864  0.4406 -2.9597
  302MOL0     H41628   6.514   6.637  10.351  2.9882  0.2004 -1.7551
  302MOL0     H41629   6.398   6.770  10.352  0.1078 -1.0068 -0.1800
  302MOL0     H41630   6.603   6.936  10.353 -1.0199  0.4213  1.3698
  302MOL0     H41631   6.715   6.795  10.336  0.8661  1.8099 -2.2686
  302MOL0     H41632   6.495   6.844  10.131 -0.0530 -0.5564  2.2588
  302MOL0     H41633   6.637   6.939  10.137 -1.1513  0.2540 -1.2588
  302MOL0     H41634   6.786   6.561   9.988 -0.0389  0.3234  5.0864
  302MOL0     H41635   6.701   6.262   9.795  0.9985  0.7623 -0.4573
  302MOL0     H41636   6.763   6.240   9.963 -1.6378 -0.0302  1.0705
  302MOL0     H41637   6.816   6.371   9.858  2.7474 -1.6696  3.2040
  302MOL0     H41638   6.083   6.242  10.025 -0.7297 -0.9198  0.4435
  302MOL0     H41639   5.911   6.065   9.995  1.0033 -0.6973  1.9019
  302MOL0     H41640   5.736   5.922   9.659 -0.8379 -0.1383 -1.8681
  302MOL0     H41641   5.890   5.986   9.594 -0.4529 -1.6397 -0.6338
  302MOL0     H41642   5.981   5.793   9.573 -0.1168  1.9731 -0.1247
  302MOL0     H41643   5.842   5.698   9.662 -2.1294  0.0848 -0.3430
  302MOL0     H41644   5.678   5.769   9.499 -0.1192  0.6069  3.3469
  302MOL0     H41645   5.795   5.661   9.430 -1.1969  0.2691 -1.7166
  302MOL0     H41646   5.937   5.857   9.351 -0.6288 -1.0174 -1.5506
  302MOL0     H41647   5.791   5.957   9.396  0.2856 -0.2527  2.9916
  302MOL0     H41648   5.827   5.876   9.158 -0.8862 -1.6974 -1.9972
  302MOL0     H41649   5.818   5.708   9.204  0.1364  0.7245  0.6215
  302MOL0     H41650   5.585   5.910   9.248  2.3133  0.8639  0.1100
  302MOL0     H41651   5.585   5.735   9.277 -0.0161  0.4315  0.6864
  302MOL0     H41652   5.620   5.693   9.039  2.3466  1.1485  0.4370
  302MOL0     H41653   5.622   5.859   9.000  1.7072 -0.8100 -0.5651
  302MOL0     H41654   5.381   5.861   9.085  1.5376  0.5985  1.7697
  302MOL0     H41655   5.398   5.680   9.126  3.2938  1.6828  1.7770
  302MOL0     H41656   6.128   5.936   9.643 -1.5367 -0.9475  0.5570
  302MOL0     H41657   6.299   6.103   9.685 -0.7294  1.2636 -1.1263
  302MOL0     H41658   6.301   6.482  10.025 -0.1135  0.9094 -0.7315
  302MOL0     H41659   6.392   6.692  10.099 -0.1847  0.1861 -2.1145
  302MOL0     H41660   5.374   6.600  10.510 -1.2317  1.6662  2.1977
  302MOL0     H41661   5.246   6.810  10.497  1.0243 -3.2353  1.1635
  302MOL0     H41662   5.263   7.348  10.563  3.6918 -2.8515 -2.1819
  302MOL0     H41663   5.075   7.506  10.546  1.5964  1.7371 -1.8336
  302MOL0     H41664   4.836   7.523  10.551  0.7481 -1.0388 -0.5567
  302MOL0     H41665   4.855   7.648  10.437 -1.1399  1.7664  5.0012
  302MOL0     H41666   4.636   7.566  10.324  2.3367  2.2508  1.3166
  302MOL0     H41667   4.619   7.641  10.477 -1.2195 -0.8129  0.9637
  302MOL0     H41668   4.642   7.333  10.401  3.8173  0.9749  1.3576
  302MOL0     H41669   4.594   7.385  10.560 -2.1521 -0.5960 -0.3744
  302MOL0     H41670   4.398   7.327  10.443  0.0106 -0.3806 -2.6457
  302MOL0     H41671   4.435   7.440  10.305  1.3177 -1.9646 -0.2636
  302MOL0     H41672   4.253   7.694  10.590  1.0083  1.9711 -1.5813
  302MOL0     H41673   4.915   7.286  10.223  1.0349  0.2689 -0.7199
  302MOL0     H41674   5.201   7.106  10.154 -1.2705  1.2125 -0.9598
  302MOL0     H41675   5.068   7.005  10.235  0.7447 -1.1496  0.6021
  302MOL0     H41676   5.024   7.122  10.117 -2.0108 -1.1778  0.8099
  303MOL0     O41677  11.275  11.179   3.458 -0.2403 -0.4016  0.1303
  303MOL0     C41678  11.193  11.118   3.535 -0.4425 -0.3947  0.0988
  303MOL0     O41679  11.103  11.032   3.485 -0.3107  0.3920  0.0110
  303MOL0     C41680  11.100  11.026   3.349 -0.8855  0.8339  0.2091
  303MOL0     C41681  11.171  10.928   3.273 -0.1271  0.7425  0.0254
  303MOL0     C41682  11.184  10.922   3.138 -0.4858 -0.7408 -1.0504
  303MOL0     C41683  11.110  11.003   3.061 -0.2733 -0.5149  0.2380
  303MOL0     O41684  11.131  10.996   2.927 -0.2885  0.3249 -0.2897
  303MOL0     C41685  11.067  11.088   2.838 -0.4985 -0.3990 -0.1754
  303MOL0     C41686  11.078  11.055   2.693 -0.2472  0.4265  0.5165
  303MOL0     C41687  11.057  11.172   2.586  0.2686  0.2819  0.2975
  303MOL0     C41688  11.024  11.133   2.448 -0.7133  0.2043  0.0039
  303MOL0     C41689  11.035  11.250   2.352 -0.2060  0.7417 -0.1502
  303MOL0     C41690  10.961  11.376   2.396  0.3218 -0.3041 -0.2964
  303MOL0     C41691  10.953  11.480   2.287  0.1429 -0.4515 -0.3004
  303MOL0     C41692  10.928  11.618   2.359  0.1090  0.5995  0.3891
  303MOL0     N41693  10.913  11.720   2.263 -0.4423  0.1246  0.3386
  303MOL0     C41694  11.017  11.786   2.212 -0.6173 -0.1508  0.7525
  303MOL0     C41695  10.975  11.884   2.134  0.0669 -0.7989 -0.5364
  303MOL0     C41696  11.067  11.973   2.056  0.8810 -0.4846 -0.9450
  303MOL0     C41697  11.139  11.896   1.945  0.0061 -0.6090 -0.0557
  303MOL0     C41698  11.221  11.997   1.865  0.9014  0.3206  0.8864
  303MOL0     C41699  11.277  11.931   1.740  0.4247  1.0073 -0.1361
  303MOL0     O41700  11.371  12.030   1.688  0.0692 -0.3322 -0.1379
  303MOL0     C41701  11.353  12.070   1.554 -0.4370  0.9461 -0.3565
  303MOL0     C41702  11.243  12.090   1.473  0.6091 -0.2610  0.2194
  303MOL0     C41703  11.251  12.153   1.345  0.3140  0.5211 -0.5391
  303MOL0     C41704  11.124  12.153   1.261  0.3228 -0.8358  0.3117
  303MOL0     C41705  11.386  12.196   1.302 -0.1944 -1.0730 -0.2478
  303MOL0     C41706  11.410  12.272   1.177  0.2415 -0.6179  0.1937
  303MOL0     O41707  11.541  12.276   1.135 -0.0483  0.1000  0.0923
  303MOL0     C41708  11.585  12.353   1.030 -0.7723  0.6695 -0.1914
  303MOL0     C41709  11.710  12.411   1.037 -0.0280 -0.9021  0.3526
  303MOL0     C41710  11.763  12.485   0.927  0.7790 -0.0598 -1.1269
  303MOL0     C41711  11.676  12.500   0.818 -1.1291  0.3487 -0.6949
  303MOL0     O41712  11.714  12.571   0.702 -0.5909 -0.2964 -0.3630
  303MOL0     C41713  11.838  12.646   0.683 -0.3122 -0.2481 -0.5436
  303MOL0     C41714  11.839  12.713   0.545  0.4646 -0.3929 -0.2915
  303MOL0     C41715  11.973  12.762   0.507  0.0187 -0.1997 -0.3242
  303MOL0     C41716  11.972  12.821   0.367  0.5283 -0.0540 -0.4553
  303MOL0     C41717  12.118  12.866   0.336 -0.5267 -0.6493  0.4844
  303MOL0     C41718  12.103  12.945   0.211 -0.1302 -0.5164  0.4389
  303MOL0     C41719  12.034  12.868   0.089  1.0904  0.6055  0.3982
  303MOL0     C41720  12.088  12.916  -0.045  0.0851 -0.2872  0.8007
  303MOL0    Cl41721  12.050  13.089  -0.071  0.0894  0.3757  0.1510
  303MOL0     C41722  11.551  12.445   0.809  0.9257 -0.8552  0.9705
  303MOL0     C41723  11.507  12.359   0.907 -0.1332 -0.2607  0.0881
  303MOL0     O41724  11.317  12.333   1.128  0.0105  0.3176  0.5254
  303MOL0     C41725  11.496  12.168   1.386 -0.1605  0.6094 -0.6081
  303MOL0     C41726  11.481  12.103   1.499 -0.7593 -0.0689 -0.6994
  303MOL0     N41727  10.841  11.884   2.134 -0.4921 -1.4839  0.4924
  303MOL0     N41728  10.800  11.789   2.219 -0.7693 -0.1346  0.0723
  303MOL0     C41729  11.039  11.105   3.126 -0.1973  0.3378 -0.1676
  303MOL0     C41730  11.030  11.121   3.270 -0.1857  0.5447  0.0522
  303MOL0     C41731  11.223  11.130   3.677  0.6544 -0.5868 -0.4368
  303MOL0     C41732  11.139  11.067   3.774  1.3248 -0.6587 -0.2704
  303MOL0     C41733  11.173  11.064   3.910  0.3462  0.3144  0.0330
  303MOL0     C41734  11.289  11.121   3.961  0.8341 -0.6725  0.1020
  303MOL0     O41735  11.328  11.116   4.094 -0.3408  0.1983  0.4555
  303MOL0     C41736  11.226  11.092   4.191  0.8977 -0.1006 -1.5042
  303MOL0     C41737  11.269  11.125   4.334 -0.1285  0.1506  0.7266
  303MOL0     C41738  11.170  11.080   4.448  0.3612 -0.5994  0.2704
  303MOL0     C41739  11.224  11.113   4.586 -0.1551  0.8824 -0.2398
  303MOL0     C41740  11.113  11.093   4.683 -0.3815 -1.0992 -0.3655
  303MOL0     C41741  11.018  11.066   4.756 -0.1224  0.4387  0.1287
  303MOL0     C41742  11.370  11.173   3.871 -0.6104  0.1554 -1.0570
  303MOL0     C41743  11.338  11.192   3.735  0.1323  0.7950  0.5289
  303MOL0     C41744  11.451  11.266   3.667 -0.2311  0.1741 -0.0777
  303MOL0     H41745  11.235  10.857   3.324 -1.4643  0.4442  1.3650
  303MOL0     H41746  11.266  10.863   3.098  0.9232  1.0347 -0.9081
  303MOL0     H41747  11.101  11.190   2.853 -2.6468  0.1337  1.6680
  303MOL0     H41748  10.960  11.086   2.862 -0.1162 -1.5870  1.6689
  303MOL0     H41749  11.169  10.999   2.668 -1.3124 -2.0821  1.8558
  303MOL0     H41750  11.003  10.977   2.675 -0.9116  1.1052  0.2953
  303MOL0     H41751  10.982  11.243   2.622 -0.2133  1.1389 -2.2215
  303MOL0     H41752  11.150  11.230   2.580  0.5627 -0.0605  1.3194
  303MOL0     H41753  11.089  11.051   2.418 -0.9472  0.7161 -2.0737
  303MOL0     H41754  10.920  11.099   2.454 -1.3512  2.2309  1.8138
  303MOL0     H41755  11.012  11.219   2.249  1.2965  0.2554 -0.3569
  303MOL0     H41756  11.141  11.278   2.349 -0.6859  2.8697  1.1495
  303MOL0     H41757  10.861  11.351   2.433 -0.3103 -0.2432 -1.9181
  303MOL0     H41758  11.011  11.428   2.479 -1.2750  0.5456  0.1828
  303MOL0     H41759  10.875  11.453   2.216 -0.6634 -0.8656  0.7270
  303MOL0     H41760  11.046  11.488   2.230  1.5193  3.3900  2.0914
  303MOL0     H41761  10.827  11.617   2.402 -0.8434 -2.1812 -1.6754
  303MOL0     H41762  10.999  11.633   2.441 -1.5003 -1.4856  2.3087
  303MOL0     H41763  11.123  11.764   2.224 -0.3791  1.4114  1.8947
  303MOL0     H41764  11.124  12.034   2.126 -3.8741  2.5893  0.7444
  303MOL0     H41765  11.001  12.046   2.009  1.4559  1.4045  1.0391
  303MOL0     H41766  11.201  11.831   2.006 -0.1399  1.6323  2.6572
  303MOL0     H41767  11.060  11.846   1.888  0.2899  2.1426 -3.2201
  303MOL0     H41768  11.154  12.071   1.822  0.6393 -0.6121 -0.3730
  303MOL0     H41769  11.300  12.039   1.928  0.2878  4.9868 -1.0928
  303MOL0     H41770  11.336  11.842   1.761  2.2608  1.4701 -2.8654
  303MOL0     H41771  11.192  11.909   1.676  1.8343 -3.4586 -0.7712
  303MOL0     H41772  11.150  12.049   1.512  2.9208 -3.6948  2.6549
  303MOL0     H41773  11.134  12.080   1.180 -3.0282 -0.3826 -0.6491
  303MOL0     H41774  11.103  12.243   1.202  1.6976 -2.4030 -2.8568
  303MOL0     H41775  11.032  12.124   1.313  0.3846  3.0071  2.9271
  303MOL0     H41776  11.755  12.413   1.136 -2.7801  0.9074  1.6888
  303MOL0     H41777  11.865  12.524   0.923  0.1590  1.6289 -1.0072
  303MOL0     H41778  11.867  12.707   0.769  0.1808 -3.2613  1.5881
  303MOL0     H41779  11.918  12.571   0.687  1.2795  1.3037 -1.5613
  303MOL0     H41780  11.788  12.648   0.473  0.6636 -1.3572  0.4196
  303MOL0     H41781  11.778  12.803   0.552  1.2629  0.3270 -1.9382
  303MOL0     H41782  12.034  12.673   0.492  1.9979  1.2170 -1.1464
  303MOL0     H41783  12.017  12.825   0.584 -0.5684 -1.6400  1.2467
  303MOL0     H41784  11.909  12.910   0.358 -3.7131 -2.5398  1.5574
  303MOL0     H41785  11.935  12.750   0.292 -0.1980  2.3632 -2.5221
  303MOL0     H41786  12.149  12.934   0.416 -1.6189  0.1819  0.2347
  303MOL0     H41787  12.183  12.779   0.334 -0.7918 -0.8403  0.0941
  303MOL0     H41788  12.207  12.957   0.179 -0.5643 -2.7808 -2.1850
  303MOL0     H41789  12.070  13.049   0.217  3.5242  0.9773 -1.5604
  303MOL0     H41790  11.929  12.897   0.090  1.0808  0.6494 -0.6524
  303MOL0     H41791  12.052  12.760   0.103 -1.6532  0.2921  2.1899
  303MOL0     H41792  12.047  12.849  -0.120  0.9479 -2.2601  2.0198
  303MOL0     H41793  12.196  12.905  -0.061 -0.1011  0.0177 -0.8114
  303MOL0     H41794  11.489  12.467   0.723 -1.0535 -3.0554  1.7142
  303MOL0     H41795  11.408  12.315   0.892 -0.7069  1.7196 -2.8776
  303MOL0     H41796  11.597  12.197   1.361  1.5933 -1.9061  2.7905
  303MOL0     H41797  11.564  12.096   1.569 -1.7713  3.3518  1.0703
  303MOL0     H41798  10.967  11.171   3.078  0.1136  0.7168 -0.1167
  303MOL0     H41799  10.983  11.202   3.324  1.9047  0.8721  1.4862
  303MOL0     H41800  11.040  11.029   3.753 -0.5004  3.2991  0.1891
  303MOL0     H41801  11.111  11.005   3.977 -0.9270  3.3275  1.6947
  303MOL0     H41802  11.138  11.155   4.176 -0.2276 -1.2986 -0.2315
  303MOL0     H41803  11.195  10.988   4.202  1.4122 -0.0316  1.2613
  303MOL0     H41804  11.310  11.224   4.358 -0.4681  0.8224 -1.2507
  303MOL0     H41805  11.363  11.070   4.342  0.1461  0.5236  0.1536
  303MOL0     H41806  11.078  11.137   4.430 -0.6032 -1.8663  1.0638
  303MOL0     H41807  11.157  10.973   4.436 -1.5937 -0.3837  0.1861
  303MOL0     H41808  11.265  11.214   4.593  2.6990  0.2490 -4.2326
  303MOL0     H41809  11.306  11.043   4.601 -0.6836  0.1605 -0.6844
  303MOL0     H41810  10.935  11.036   4.817 -0.9296 -0.3492 -1.2895
  303MOL0     H41811  11.463  11.214   3.908 -0.6882 -1.8341  1.6580
  303MOL0     H41812  11.515  11.326   3.733  2.7810 -0.9685 -1.7865
  303MOL0     H41813  11.520  11.208   3.606  1.2082  1.2225  0.4893
  303MOL0     H41814  11.405  11.341   3.601 -0.9078  0.1342  0.3385
  304MOL0     O41815   3.383   9.214   6.985  0.1829 -0.7810 -1.4764
  304MOL0     C41816   3.263   9.195   6.976 -0.7772  0.2637  0.6285
  304MOL0     O41817   3.195   9.202   6.856 -0.2940 -0.9809 -0.1732
  304MOL0     C41818   3.246   9.197   6.739  0.0116 -0.1130  0.5270
  304MOL0     C41819   3.218   9.082   6.662  0.6251  0.1914 -1.0116
  304MOL0     C41820   3.257   9.074   6.532  0.0138  0.5614 -0.2012
  304MOL0     C41821   3.325   9.175   6.466  0.4000 -0.4040  0.4422
  304MOL0     O41822   3.366   9.165   6.334 -0.2863  0.2859 -0.4513
  304MOL0     C41823   3.506   9.156   6.314 -0.1042  0.0756  0.2033
  304MOL0     C41824   3.525   9.160   6.159 -0.1072 -0.8555 -0.0803
  304MOL0     C41825   3.456   9.273   6.078 -0.5850  0.2187  0.2158
  304MOL0     C41826   3.511   9.276   5.935  0.2316  0.2268 -0.3149
  304MOL0     C41827   3.409   9.332   5.831  0.1825  0.2876  0.0327
  304MOL0     C41828   3.340   9.471   5.849 -0.9374 -0.7371 -0.0900
  304MOL0     C41829   3.247   9.500   5.718 -0.8305 -0.2961 -0.0707
  304MOL0     C41830   3.109   9.439   5.726 -0.2212 -0.7847  0.8105
  304MOL0     N41831   3.098   9.328   5.635 -0.3694 -0.5092  0.6816
  304MOL0     C41832   2.974   9.280   5.605  0.2662 -0.1409  0.7378
  304MOL0     C41833   2.989   9.155   5.554  0.3496  0.1072 -0.0837
  304MOL0     C41834   2.879   9.058   5.519 -0.1063  1.3344  0.5442
  304MOL0     C41835   2.769   9.116   5.435  0.6115  0.1436  0.1723
  304MOL0     C41836   2.674   9.005   5.397 -0.4257  0.0511  0.5177
  304MOL0     C41837   2.558   9.065   5.320  0.5158  0.0119 -0.0151
  304MOL0     O41838   2.589   9.124   5.196 -0.4461 -0.2007 -0.4336
  304MOL0     C41839   2.656   9.049   5.102  0.4565 -0.3991 -0.7761
  304MOL0     C41840   2.625   8.915   5.085  0.4597 -0.2053  0.6355
  304MOL0     C41841   2.682   8.841   4.974 -0.2960  0.0907 -0.3257
  304MOL0     C41842   2.696   8.691   4.981  0.3834 -0.2459  0.0614
  304MOL0     C41843   2.731   8.916   4.865 -0.0133 -0.0993 -0.1194
  304MOL0     C41844   2.789   8.858   4.742  0.0418  0.0906 -1.1003
  304MOL0     O41845   2.902   8.915   4.684 -0.8541  1.3478 -0.2663
  304MOL0     C41846   2.977   8.851   4.584 -0.1179  0.0718 -0.5352
  304MOL0     C41847   3.002   8.713   4.585  0.2110 -0.9811  0.0002
  304MOL0     C41848   3.098   8.660   4.494  0.2570 -0.5922  1.0791
  304MOL0     C41849   3.168   8.742   4.412 -0.5421 -0.1247  1.5502
  304MOL0     O41850   3.238   8.673   4.319  0.6221  0.5951  0.3733
  304MOL0     C41851   3.221   8.730   4.194 -0.1969 -0.1712  0.7291
  304MOL0     C41852   3.259   8.630   4.081  0.3383 -0.7294 -0.2068
  304MOL0     C41853   3.223   8.691   3.947  0.2436  1.1657 -0.4034
  304MOL0     C41854   3.327   8.650   3.845  0.2928 -0.1675  0.6832
  304MOL0     C41855   3.322   8.743   3.720  0.1325  0.4801 -0.2437
  304MOL0     C41856   3.404   8.700   3.600 -0.8482  0.4350  0.8087
  304MOL0     C41857   3.355   8.572   3.516 -0.2376 -0.9348  0.1946
  304MOL0     C41858   3.446   8.524   3.403 -0.5691 -0.5465  0.3464
  304MOL0    Cl41859   3.599   8.490   3.471  0.1341 -0.4169 -0.0163
  304MOL0     C41860   3.150   8.884   4.427  0.3071  0.0760 -0.9024
  304MOL0     C41861   3.048   8.935   4.502 -0.2091  0.7395  1.1394
  304MOL0     O41862   2.724   8.767   4.685 -0.0592 -0.0519  0.1506
  304MOL0     C41863   2.748   9.053   4.881 -1.1002  0.2893 -0.9002
  304MOL0     C41864   2.716   9.122   5.000  0.1725  0.7698 -0.3257
  304MOL0     N41865   3.129   9.130   5.562  0.3650  0.3036  0.1120
  304MOL0     N41866   3.192   9.239   5.593  0.3792  0.5509 -0.3566
  304MOL0     C41867   3.349   9.291   6.543 -0.5046 -0.3368 -0.5088
  304MOL0     C41868   3.311   9.302   6.675 -0.1839  0.2565  0.6066
  304MOL0     C41869   3.187   9.180   7.105  0.0062 -0.0219 -0.2326
  304MOL0     C41870   3.053   9.221   7.096 -0.7099  0.3179  0.3280
  304MOL0     C41871   2.964   9.188   7.199 -0.4017  0.3235 -0.4543
  304MOL0     C41872   3.022   9.134   7.317  0.1791 -0.6729  0.3882
  304MOL0     O41873   2.936   9.096   7.411  0.7091 -0.1809  0.5030
  304MOL0     C41874   2.947   9.166   7.536  0.6154 -0.1092 -0.0813
  304MOL0     C41875   2.899   9.073   7.646 -0.5400 -0.0402  0.5020
  304MOL0     C41876   2.960   9.118   7.781 -0.6637 -0.2847  0.2241
  304MOL0     C41877   2.956   8.989   7.874 -0.0820 -0.2960  1.3805
  304MOL0     C41878   3.019   9.005   8.003  0.3736  0.5892 -0.0223
  304MOL0     C41879   3.068   9.024   8.109 -0.0106 -0.7598 -0.5806
  304MOL0     C41880   3.155   9.093   7.321  0.6394  0.6123 -0.0188
  304MOL0     C41881   3.242   9.119   7.221  0.2748  0.1534 -0.3331
  304MOL0     C41882   3.384   9.070   7.234  0.1778 -0.6591  0.3507
  304MOL0     H41883   3.154   9.006   6.705 -0.8613  0.5188 -2.5335
  304MOL0     H41884   3.223   8.986   6.477 -1.9658  2.0008 -1.4113
  304MOL0     H41885   3.533   9.061   6.362  1.0132 -0.6635 -1.7408
  304MOL0     H41886   3.559   9.240   6.360 -0.6323 -1.2003  3.4254
  304MOL0     H41887   3.629   9.177   6.130 -0.3501  1.8768  0.3223
  304MOL0     H41888   3.490   9.060   6.131 -4.9202 -0.5053  3.4907
  304MOL0     H41889   3.349   9.254   6.084 -1.3161  3.5395 -0.5187
  304MOL0     H41890   3.469   9.374   6.119 -1.4694  1.5475 -2.5731
  304MOL0     H41891   3.599   9.341   5.928  0.1716  0.1249 -2.8124
  304MOL0     H41892   3.555   9.180   5.905 -0.7821 -1.5167  3.2362
  304MOL0     H41893   3.327   9.261   5.821  0.2287  0.2863 -0.3550
  304MOL0     H41894   3.468   9.341   5.739  0.6260  1.4710  0.4099
  304MOL0     H41895   3.280   9.477   5.940 -1.0413  1.6926 -0.2698
  304MOL0     H41896   3.417   9.549   5.858 -2.1849  0.4476  0.7042
  304MOL0     H41897   3.305   9.490   5.625 -1.5719 -1.3314 -0.4375
  304MOL0     H41898   3.231   9.608   5.726 -0.9433 -0.1872 -1.4475
  304MOL0     H41899   3.081   9.407   5.827 -4.5414 -1.9216 -0.5389
  304MOL0     H41900   3.047   9.525   5.700  0.0929 -0.3121  1.5611
  304MOL0     H41901   2.885   9.339   5.622  1.2245  1.0889  1.6230
  304MOL0     H41902   2.832   9.017   5.609 -0.3789 -1.1598 -0.6310
  304MOL0     H41903   2.930   8.970   5.477  0.8843  2.0364  0.2484
  304MOL0     H41904   2.720   9.203   5.479 -1.5957  0.3459 -2.4195
  304MOL0     H41905   2.809   9.145   5.337 -0.3468  0.3301 -0.1828
  304MOL0     H41906   2.721   8.932   5.330 -1.4374 -0.0761 -0.0577
  304MOL0     H41907   2.644   8.949   5.487  0.0149 -1.1232 -0.0425
  304MOL0     H41908   2.484   8.987   5.299 -0.6167  0.7162  1.2130
  304MOL0     H41909   2.500   9.127   5.388  0.5007  0.0593 -0.0705
  304MOL0     H41910   2.557   8.860   5.150  1.9558 -1.8957  0.8559
  304MOL0     H41911   2.665   8.659   5.081  3.7189  1.6827  1.8735
  304MOL0     H41912   2.802   8.670   4.969  0.3011 -1.4194  1.1791
  304MOL0     H41913   2.640   8.649   4.897 -1.9893  6.3165 -2.3090
  304MOL0     H41914   2.953   8.647   4.656  3.3267 -2.7744  0.6823
  304MOL0     H41915   3.104   8.552   4.480  1.0375 -0.3570 -0.8058
  304MOL0     H41916   3.114   8.751   4.192 -0.0103  1.1541 -3.0140
  304MOL0     H41917   3.263   8.831   4.191 -0.7766  0.0563  0.1857
  304MOL0     H41918   3.365   8.605   4.096  0.7623 -0.1358 -1.9915
  304MOL0     H41919   3.197   8.540   4.084 -0.2166 -0.5277 -2.7994
  304MOL0     H41920   3.229   8.799   3.967  1.1983  0.6968  2.2288
  304MOL0     H41921   3.119   8.671   3.921  1.0188 -2.0278 -1.5485
  304MOL0     H41922   3.289   8.549   3.827  2.3379 -1.2707  2.0944
  304MOL0     H41923   3.432   8.635   3.872 -0.0490 -2.5377  0.9149
  304MOL0     H41924   3.223   8.766   3.680  0.4587  0.5445 -1.0391
  304MOL0     H41925   3.367   8.837   3.753  0.6678  0.1385  0.0165
  304MOL0     H41926   3.507   8.684   3.632 -1.1483  0.3072  1.7664
  304MOL0     H41927   3.404   8.785   3.531 -1.5203  0.6524  1.0645
  304MOL0     H41928   3.262   8.604   3.467  1.1942  1.2001 -1.2687
  304MOL0     H41929   3.327   8.496   3.590  1.0936 -0.6520  1.0131
  304MOL0     H41930   3.450   8.602   3.326  1.9210  1.0659  1.9558
  304MOL0     H41931   3.384   8.443   3.362 -1.4987  0.7829 -0.9787
  304MOL0     H41932   3.204   8.957   4.369 -0.0492  1.1024  0.0059
  304MOL0     H41933   3.032   9.042   4.515  1.5480  1.4539 -1.7452
  304MOL0     H41934   2.778   9.122   4.803  2.0104  1.2381  0.9220
  304MOL0     H41935   2.716   9.229   5.021 -2.1026  0.9795 -1.0673
  304MOL0     H41936   3.411   9.371   6.504 -1.9506  0.4696 -1.2142
  304MOL0     H41937   3.336   9.389   6.735  2.5658  0.2820 -0.4137
  304MOL0     H41938   3.020   9.277   7.008 -1.1908  1.1099  0.9935
  304MOL0     H41939   2.858   9.214   7.204 -0.0653  2.3575 -2.4683
  304MOL0     H41940   3.050   9.196   7.557 -0.5370  3.4552  1.1912
  304MOL0     H41941   2.896   9.262   7.525  0.3052 -0.3277 -0.5685
  304MOL0     H41942   2.930   8.975   7.610  1.1499  1.1256 -1.4207
  304MOL0     H41943   2.790   9.081   7.635 -0.3292 -0.5928 -2.9097
  304MOL0     H41944   3.060   9.158   7.763 -0.6874  0.2493  1.2216
  304MOL0     H41945   2.886   9.190   7.816 -1.8116 -1.0118 -0.6211
  304MOL0     H41946   3.002   8.911   7.812  0.0254  0.6631  0.2072
  304MOL0     H41947   2.850   8.964   7.883  0.1642 -2.3933 -0.6244
  304MOL0     H41948   3.098   9.040   8.211  1.2463 -1.8308 -0.7537
  304MOL0     H41949   3.177   9.047   7.417  0.5359 -0.0199 -0.2940
  304MOL0     H41950   3.438   9.161   7.263  0.7605 -1.5197  2.0806
  304MOL0     H41951   3.389   8.999   7.316 -1.2691 -0.1436  0.9177
  304MOL0     H41952   3.430   9.031   7.142  2.8617 -5.4194  3.3483
  305MOL0     O41953   9.812   8.482   0.777  0.5577  0.1701 -0.5384
  305MOL0     C41954   9.777   8.504   0.665 -1.1416 -0.5755  0.3557
  305MOL0     O41955   9.656   8.554   0.632  0.3392 -0.2754 -1.1351
  305MOL0     C41956   9.555   8.556   0.721  0.4786 -0.1166 -0.9583
  305MOL0     C41957   9.545   8.659   0.816 -0.2951  0.1951  0.3990
  305MOL0     C41958   9.447   8.653   0.920  1.1794 -0.1693 -0.2285
  305MOL0     C41959   9.352   8.549   0.934 -0.9240 -0.7573  0.7429
  305MOL0     O41960   9.262   8.543   1.033 -0.1049  0.2659  0.2251
  305MOL0     C41961   9.325   8.513   1.156 -0.5138  1.4544  0.0748
  305MOL0     C41962   9.230   8.518   1.273 -0.5119 -0.0782 -0.3712
  305MOL0     C41963   9.274   8.429   1.386 -0.2492  0.7286  0.0764
  305MOL0     C41964   9.390   8.487   1.460  0.6480 -0.5390 -0.0480
  305MOL0     C41965   9.441   8.386   1.568  0.2065  0.3245  0.1794
  305MOL0     C41966   9.548   8.462   1.642 -0.3459  0.5326  0.3983
  305MOL0     C41967   9.580   8.372   1.769 -0.5567 -0.5111  0.1267
  305MOL0     C41968   9.717   8.393   1.828  0.1870 -0.4981  0.2179
  305MOL0     N41969   9.817   8.334   1.744 -0.2802 -0.4463  0.6561
  305MOL0     C41970   9.894   8.401   1.651  0.0555 -0.3506 -0.1748
  305MOL0     C41971   9.983   8.309   1.607  0.2903  0.0585 -0.0840
  305MOL0     C41972  10.084   8.329   1.501  0.5631  0.0501  0.4638
  305MOL0     C41973  10.153   8.472   1.503  0.1656 -0.2952 -0.6650
  305MOL0     C41974  10.285   8.468   1.430 -0.2671 -0.6615  0.2186
  305MOL0     C41975  10.268   8.424   1.283  0.0495  0.5346  0.2713
  305MOL0     O41976  10.368   8.479   1.200 -0.3061 -0.3929 -0.1762
  305MOL0     C41977  10.373   8.606   1.160  0.6630 -0.7322  0.0354
  305MOL0     C41978  10.264   8.697   1.182 -0.2343 -0.0094  0.4771
  305MOL0     C41979  10.265   8.830   1.131  0.6720 -0.2814 -0.9878
  305MOL0     C41980  10.150   8.917   1.181 -0.6256  0.6696 -0.6340
  305MOL0     C41981  10.370   8.873   1.057 -0.0979  1.4822 -0.4981
  305MOL0     C41982  10.400   9.007   0.991  0.1738  0.0183 -0.5461
  305MOL0     O41983  10.523   9.031   0.939 -0.4650  0.3618 -0.4382
  305MOL0     C41984  10.555   9.117   0.838  0.3087 -0.2564  0.4889
  305MOL0     C41985  10.470   9.195   0.753  0.0975 -0.4880 -0.2752
  305MOL0     C41986  10.513   9.286   0.661 -0.1568 -0.5964  0.1347
  305MOL0     C41987  10.654   9.317   0.647  0.0892 -1.0104  0.7044
  305MOL0     O41988  10.713   9.412   0.562 -0.1016  0.1423 -0.0255
  305MOL0     C41989  10.656   9.457   0.441 -0.7299  0.1238 -0.0250
  305MOL0     C41990  10.622   9.352   0.341 -0.0934 -0.0017 -0.5909
  305MOL0     C41991  10.746   9.281   0.300 -0.1149 -0.8811 -0.3382
  305MOL0     C41992  10.720   9.159   0.206 -0.3392 -0.5098 -0.1731
  305MOL0     C41993  10.838   9.054   0.198  0.2037  0.0102 -0.3968
  305MOL0     C41994  10.781   8.933   0.120  1.1657 -0.9482  0.1315
  305MOL0     C41995  10.897   8.849   0.066  0.5207 -0.5683  0.3327
  305MOL0     C41996  10.841   8.715   0.012  0.0929 -0.1507  0.6241
  305MOL0    Cl41997  10.973   8.615  -0.057 -0.1686 -0.2781  0.0744
  305MOL0     C41998  10.732   9.253   0.737 -0.4519  0.1268 -0.6771
  305MOL0     C41999  10.687   9.154   0.831  0.3304 -0.6625 -0.3654
  305MOL0     O42000  10.309   9.096   0.992  1.0902  0.4082 -0.3007
  305MOL0     C42001  10.480   8.784   1.049  0.2298 -0.1007  1.2259
  305MOL0     C42002  10.479   8.649   1.093 -0.4715 -0.3481  0.2293
  305MOL0     N42003   9.966   8.192   1.674  0.3811 -0.0462  0.0976
  305MOL0     N42004   9.861   8.203   1.754  0.6481 -1.0259  0.4997
  305MOL0     C42005   9.354   8.451   0.828  0.8622 -0.5897  0.9124
  305MOL0     C42006   9.449   8.459   0.722  0.1545  0.7513 -0.0438
  305MOL0     C42007   9.887   8.507   0.561  0.0991  0.0700  0.6462
  305MOL0     C42008   9.987   8.412   0.577 -0.3549 -0.9937 -0.2925
  305MOL0     C42009  10.099   8.413   0.487  0.0156 -1.1386 -0.0239
  305MOL0     C42010  10.108   8.494   0.377  0.3781  0.3157 -0.0554
  305MOL0     O42011  10.212   8.519   0.290  0.2770  0.5970  0.3698
  305MOL0     C42012  10.325   8.440   0.309 -0.6687  0.3991 -0.2547
  305MOL0     C42013  10.323   8.287   0.265  0.3941 -0.2104  0.1311
  305MOL0     C42014  10.450   8.223   0.331  0.1742  0.5037 -0.8772
  305MOL0     C42015  10.573   8.227   0.244 -0.5286  1.1539 -1.0156
  305MOL0     C42016  10.673   8.128   0.288 -0.2302 -0.6436  0.2226
  305MOL0     C42017  10.756   8.037   0.308 -0.4617 -0.1458 -0.2189
  305MOL0     C42018  10.014   8.590   0.371  0.1633  0.2824  0.2993
  305MOL0     C42019   9.908   8.605   0.460  0.3647  0.1825  0.6912
  305MOL0     C42020   9.812   8.727   0.438  0.6450 -0.3457 -0.4910
  305MOL0     H42021   9.603   8.751   0.823 -3.3664  2.7006 -3.0805
  305MOL0     H42022   9.452   8.733   0.993  1.0982  1.8867 -2.3395
  305MOL0     H42023   9.402   8.582   1.191 -0.7583  0.4896  2.8252
  305MOL0     H42024   9.363   8.412   1.144 -2.0256  0.5882  1.8897
  305MOL0     H42025   9.206   8.619   1.309  0.5464  0.6829 -1.7118
  305MOL0     H42026   9.142   8.463   1.239 -1.3808  0.5492  0.7876
  305MOL0     H42027   9.196   8.434   1.463 -1.4770  1.7704 -1.1829
  305MOL0     H42028   9.283   8.328   1.346 -2.3052  1.5877 -2.8309
  305MOL0     H42029   9.471   8.526   1.397 -1.6920  2.1707 -1.6110
  305MOL0     H42030   9.350   8.568   1.521  0.8076 -1.3183  1.1428
  305MOL0     H42031   9.487   8.300   1.519 -0.4798 -0.1611  0.3672
  305MOL0     H42032   9.362   8.351   1.635 -1.1972 -0.2178 -1.6940
  305MOL0     H42033   9.636   8.468   1.577 -1.9640 -0.4643 -2.0604
  305MOL0     H42034   9.514   8.562   1.671  0.2307  1.0308 -0.5668
  305MOL0     H42035   9.574   8.264   1.753  1.5549 -0.3793 -2.1481
  305MOL0     H42036   9.510   8.404   1.847  0.5040  1.7338  0.2281
  305MOL0     H42037   9.729   8.502   1.837 -2.9462 -0.0719  0.4744
  305MOL0     H42038   9.709   8.356   1.931 -2.5499  1.4139  0.8174
  305MOL0     H42039   9.876   8.505   1.625  1.3685  0.0426  0.4052
  305MOL0     H42040  10.028   8.318   1.408 -1.8755 -0.0544  1.8498
  305MOL0     H42041  10.160   8.251   1.505  1.2172  0.6957  1.0061
  305MOL0     H42042  10.089   8.548   1.459  2.4906  2.0537 -0.2729
  305MOL0     H42043  10.162   8.502   1.608 -0.9993  0.7922 -0.8531
  305MOL0     H42044  10.336   8.565   1.434 -0.1149 -0.7692  1.4810
  305MOL0     H42045  10.361   8.406   1.479  0.6524 -0.2707 -0.6706
  305MOL0     H42046  10.272   8.315   1.275 -4.0402  0.2559 -0.2388
  305MOL0     H42047  10.170   8.453   1.243  0.3171  0.8946 -0.1349
  305MOL0     H42048  10.177   8.665   1.238 -0.4942 -2.4860 -1.1520
  305MOL0     H42049  10.186   8.948   1.280  1.9050 -2.5238 -0.3721
  305MOL0     H42050  10.054   8.866   1.198 -0.6953  0.2017 -2.2830
  305MOL0     H42051  10.128   9.002   1.117 -1.6155  0.9217  0.0205
  305MOL0     H42052  10.362   9.181   0.750  0.0797 -0.5102  0.2720
  305MOL0     H42053  10.437   9.342   0.607 -1.8359 -1.9646  0.9604
  305MOL0     H42054  10.569   9.522   0.456  1.3656  3.4396 -1.0154
  305MOL0     H42055  10.723   9.529   0.393 -1.2451  0.1809 -0.6647
  305MOL0     H42056  10.555   9.283   0.393 -0.4691  3.3657  3.9598
  305MOL0     H42057  10.573   9.390   0.251  0.3480 -1.5117 -1.5169
  305MOL0     H42058  10.807   9.248   0.384  1.2372  4.5099  1.2378
  305MOL0     H42059  10.811   9.349   0.244  0.2570 -0.5263  0.5222
  305MOL0     H42060  10.679   9.182   0.107  3.1153  0.0018 -1.6679
  305MOL0     H42061  10.636   9.106   0.251 -0.9993 -0.1260 -0.9197
  305MOL0     H42062  10.922   9.097   0.143  0.1838  0.2002 -0.2783
  305MOL0     H42063  10.868   9.033   0.301 -3.0067 -1.2091  0.4329
  305MOL0     H42064  10.706   8.962   0.046 -0.2030  2.1066  2.5040
  305MOL0     H42065  10.721   8.867   0.184 -2.5642  0.9396 -1.1390
  305MOL0     H42066  10.970   8.821   0.143  1.5643 -2.4791 -1.2606
  305MOL0     H42067  10.946   8.908  -0.012 -3.7078  1.2046 -1.2718
  305MOL0     H42068  10.785   8.739  -0.079  2.1372 -2.1489 -1.3032
  305MOL0     H42069  10.790   8.659   0.090 -1.1965  2.2840  1.6353
  305MOL0     H42070  10.839   9.274   0.740 -0.2771 -0.4318 -2.2178
  305MOL0     H42071  10.751   9.130   0.915  1.7077  2.7564 -0.2715
  305MOL0     H42072  10.562   8.811   0.983 -0.2547 -2.6854 -0.5582
  305MOL0     H42073  10.560   8.581   1.068 -0.3381 -0.0526 -0.1584
  305MOL0     H42074   9.268   8.384   0.824  0.3288  0.1302 -0.3736
  305MOL0     H42075   9.448   8.387   0.640 -0.2030  1.8796 -1.0509
  305MOL0     H42076   9.986   8.342   0.659  0.3273  0.6984  1.2339
  305MOL0     H42077  10.181   8.342   0.496  1.6290 -0.1059 -4.2244
  305MOL0     H42078  10.415   8.473   0.256  0.5126 -3.4780 -0.9653
  305MOL0     H42079  10.341   8.449   0.417 -4.2616 -0.1631  0.4410
  305MOL0     H42080  10.333   8.283   0.157 -0.0061  2.2987 -0.0602
  305MOL0     H42081  10.233   8.233   0.296  0.0930 -0.9134 -1.8872
  305MOL0     H42082  10.476   8.269   0.427 -1.4577 -0.2408 -0.0546
  305MOL0     H42083  10.426   8.119   0.353 -3.5462  1.4755  0.3340
  305MOL0     H42084  10.621   8.325   0.241  3.0657 -0.4283 -0.7583
  305MOL0     H42085  10.544   8.191   0.144 -2.8916 -1.0098  0.3323
  305MOL0     H42086  10.827   7.964   0.341 -2.4921 -0.7456  3.4158
  305MOL0     H42087  10.027   8.661   0.290 -2.3652 -1.3348 -1.6667
  305MOL0     H42088   9.845   8.777   0.346  1.1901 -0.0057 -0.1147
  305MOL0     H42089   9.712   8.690   0.412  1.0655 -0.3210 -2.3203
  305MOL0     H42090   9.807   8.796   0.523  0.3200 -3.2164  1.9709
  306MOL0     O42091   9.579   8.857   0.140  0.4366  0.3016  0.6485
  306MOL0     C42092   9.460   8.885   0.139  0.0348 -0.0857  0.8727
  306MOL0     O42093   9.366   8.832   0.232  0.0466 -0.5857 -0.9235
  306MOL0     C42094   9.372   8.708   0.274 -0.4314 -0.3535  0.5164
  306MOL0     C42095   9.250   8.662   0.335 -1.1181 -0.6706  0.2743
  306MOL0     C42096   9.226   8.524   0.373 -0.1632  0.1847  0.4440
  306MOL0     C42097   9.332   8.436   0.345 -0.2309 -0.5392  0.1389
  306MOL0     O42098   9.327   8.298   0.361 -0.3140 -0.3465 -0.5967
  306MOL0     C42099   9.219   8.229   0.420 -0.7972 -0.8063  0.2391
  306MOL0     C42100   9.273   8.094   0.441 -0.6779  0.9102  0.5074
  306MOL0     C42101   9.331   8.025   0.318  0.8026  1.0635 -0.6800
  306MOL0     C42102   9.303   7.877   0.315  0.7123 -0.3747 -0.4149
  306MOL0     C42103   9.382   7.805   0.207  0.3751  0.3504  0.3825
  306MOL0     C42104   9.350   7.654   0.196 -0.1679 -0.2122 -0.5108
  306MOL0     C42105   9.349   7.570   0.327  0.8186  0.0484 -0.6267
  306MOL0     C42106   9.337   7.420   0.294  0.0191 -0.2245 -0.8926
  306MOL0     N42107   9.349   7.336   0.421 -0.4729 -0.1008  0.1523
  306MOL0     C42108   9.456   7.322   0.505  0.0819 -0.5946  0.4047
  306MOL0     C42109   9.430   7.234   0.600 -0.1178 -0.4816  0.4267
  306MOL0     C42110   9.497   7.187   0.729  0.7778 -0.7874 -0.9508
  306MOL0     C42111   9.505   7.292   0.841  0.6011  0.5499 -0.2968
  306MOL0     C42112   9.370   7.334   0.901  0.5866 -0.4066  0.1092
  306MOL0     C42113   9.333   7.261   1.034  0.1774  0.1256  0.1157
  306MOL0     O42114   9.288   7.128   1.008  0.1754  0.0005  0.4767
  306MOL0     C42115   9.269   7.042   1.110  0.2102  0.4742  0.6877
  306MOL0     C42116   9.218   6.923   1.076 -0.5587  0.2843  0.2820
  306MOL0     C42117   9.181   6.825   1.171  0.4723 -0.7561 -0.6995
  306MOL0     C42118   9.115   6.698   1.105  1.6285  0.3832 -0.2786
  306MOL0     C42119   9.203   6.856   1.314  0.5181 -0.1048  0.1199
  306MOL0     C42120   9.161   6.776   1.426 -0.2639  0.3570  0.1254
  306MOL0     O42121   9.196   6.819   1.550  0.3643 -0.1730  0.3846
  306MOL0     C42122   9.192   6.723   1.652  0.0428  0.1985  0.7594
  306MOL0     C42123   9.087   6.709   1.738 -0.7098 -0.4879  0.8586
  306MOL0     C42124   9.083   6.615   1.836  0.0418  0.6072 -0.0272
  306MOL0     C42125   9.195   6.532   1.854  1.4106  0.3990  0.1381
  306MOL0     O42126   9.184   6.434   1.954  0.4605 -0.2453 -0.4815
  306MOL0     C42127   9.108   6.320   1.919  0.2133  0.1472  0.2263
  306MOL0     C42128   9.193   6.192   1.946 -0.0013  0.0187 -0.0364
  306MOL0     C42129   9.230   6.166   2.096 -0.0354  0.0465 -0.8940
  306MOL0     C42130   9.110   6.130   2.186  0.5676  0.5743 -0.9399
  306MOL0     C42131   9.142   6.100   2.328  0.6042  0.5094 -0.9588
  306MOL0     C42132   9.154   6.227   2.411 -0.4094  0.4255 -0.2799
  306MOL0     C42133   9.225   6.199   2.542 -0.1694  0.2140  0.0848
  306MOL0     C42134   9.225   6.326   2.630  0.9033 -0.2122 -0.4268
  306MOL0    Cl42135   9.269   6.297   2.798 -0.2334 -0.2394  0.2595
  306MOL0     C42136   9.311   6.555   1.775 -0.8826 -0.1272  1.2151
  306MOL0     C42137   9.313   6.650   1.666 -0.3862  1.1483 -0.8787
  306MOL0     O42138   9.092   6.672   1.404 -0.3861  0.2486 -0.2630
  306MOL0     C42139   9.272   6.971   1.343  0.2399  1.0646  0.0935
  306MOL0     C42140   9.290   7.065   1.241 -0.4920  0.2908 -0.4117
  306MOL0     N42141   9.299   7.190   0.573 -0.4502  0.9726 -0.6794
  306MOL0     N42142   9.254   7.249   0.467  0.1715 -0.5052 -0.9180
  306MOL0     C42143   9.448   8.485   0.284 -0.3113 -0.1460 -0.1053
  306MOL0     C42144   9.473   8.610   0.248  0.5503 -0.6099 -0.8979
  306MOL0     C42145   9.401   8.989   0.048  0.2519  0.8520 -0.2900
  306MOL0     C42146   9.290   9.063   0.084  0.0171 -0.3830  0.0995
  306MOL0     C42147   9.230   9.145  -0.006  0.7932 -0.4171  0.5043
  306MOL0     C42148   9.272   9.169  -0.134  0.1873 -0.6799  0.4198
  306MOL0     O42149   9.208   9.268  -0.214 -0.0671  0.4909 -0.3801
  306MOL0     C42150   9.278   9.323  -0.324  0.7554 -0.1561 -0.6557
  306MOL0     C42151   9.184   9.430  -0.362 -0.4846 -0.3236 -0.3074
  306MOL0     C42152   9.062   9.374  -0.435  0.1146  0.7464  0.6174
  306MOL0     C42153   8.979   9.497  -0.482  0.0925 -0.3165 -0.8421
  306MOL0     C42154   8.842   9.450  -0.505  0.7214 -0.8491  0.1891
  306MOL0     C42155   8.732   9.398  -0.527  0.5094 -0.0697 -1.9921
  306MOL0     C42156   9.390   9.100  -0.174  0.8418  0.8748 -0.1845
  306MOL0     C42157   9.448   9.005  -0.088 -0.0033 -1.1640 -0.2882
  306MOL0     C42158   9.569   8.932  -0.146  0.2102 -0.2803  0.6788
  306MOL0     H42159   9.175   8.738   0.353 -2.0198 -1.2394 -0.9275
  306MOL0     H42160   9.132   8.495   0.417  0.7356 -0.4522  2.0166
  306MOL0     H42161   9.142   8.242   0.343  1.4413  2.3009 -1.7526
  306MOL0     H42162   9.189   8.287   0.508  0.8799  0.2374  0.1692
  306MOL0     H42163   9.358   8.090   0.510  2.8783 -2.9058 -3.4704
  306MOL0     H42164   9.190   8.031   0.475 -3.7760  2.2790 -3.7209
  306MOL0     H42165   9.288   8.079   0.232  1.0703 -0.7207 -2.0107
  306MOL0     H42166   9.438   8.041   0.309  0.3077  4.5228 -1.9689
  306MOL0     H42167   9.327   7.857   0.419  1.4242  1.4275 -0.1984
  306MOL0     H42168   9.198   7.848   0.306  0.7153 -0.1749 -1.2138
  306MOL0     H42169   9.490   7.800   0.223  0.2593 -2.4148  0.8497
  306MOL0     H42170   9.375   7.853   0.110  3.0369 -1.9340 -1.0923
  306MOL0     H42171   9.246   7.643   0.165 -0.2542  1.3151 -0.8320
  306MOL0     H42172   9.416   7.623   0.114  0.7811 -0.0202  0.1690
  306MOL0     H42173   9.275   7.598   0.402  0.1335 -0.0748 -1.2491
  306MOL0     H42174   9.449   7.586   0.369  1.3848 -1.2199 -1.4247
  306MOL0     H42175   9.241   7.392   0.249 -0.3286 -1.4278  0.4932
  306MOL0     H42176   9.418   7.402   0.223  2.1438  1.1581  1.0538
  306MOL0     H42177   9.547   7.381   0.505 -0.1913 -0.0752 -2.0976
  306MOL0     H42178   9.599   7.160   0.700  1.7445  1.4232  0.1259
  306MOL0     H42179   9.442   7.104   0.775 -1.0306  1.3282  0.9869
  306MOL0     H42180   9.572   7.261   0.922 -0.3744 -1.3080 -0.1477
  306MOL0     H42181   9.538   7.384   0.792  1.9002 -0.5750 -1.6182
  306MOL0     H42182   9.371   7.442   0.917  0.7568  0.1537 -3.1204
  306MOL0     H42183   9.296   7.316   0.823  1.5792  0.7336 -1.1430
  306MOL0     H42184   9.422   7.261   1.098 -0.0214 -0.5243  0.3917
  306MOL0     H42185   9.262   7.313   1.098 -0.3568 -0.6540  0.1595
  306MOL0     H42186   9.206   6.910   0.969 -1.4215 -2.8108  0.6507
  306MOL0     H42187   9.081   6.721   1.004  0.7013 -0.0303 -0.0650
  306MOL0     H42188   9.024   6.682   1.162  0.7292  1.0576 -1.4646
  306MOL0     H42189   9.169   6.602   1.105 -3.1593 -2.6096  0.2063
  306MOL0     H42190   9.007   6.782   1.737  0.4149  0.8314  2.4589
  306MOL0     H42191   8.998   6.601   1.902  0.9499 -0.8162  0.8817
  306MOL0     H42192   9.009   6.322   1.967 -1.0141 -0.3064 -2.1493
  306MOL0     H42193   9.080   6.313   1.814 -2.4035 -1.8325  0.9320
  306MOL0     H42194   9.140   6.112   1.894  0.3945  0.8886 -1.8609
  306MOL0     H42195   9.282   6.217   1.888  0.0678 -1.4917 -0.6137
  306MOL0     H42196   9.276   6.259   2.131 -1.0018 -0.0282  0.6825
  306MOL0     H42197   9.307   6.088   2.101 -0.4479 -0.3084  0.2011
  306MOL0     H42198   9.073   6.034   2.148  0.9466 -0.1930  0.5785
  306MOL0     H42199   9.032   6.204   2.165 -1.3773 -1.1195 -0.0230
  306MOL0     H42200   9.060   6.046   2.374  1.0572 -1.2709 -2.1540
  306MOL0     H42201   9.230   6.034   2.327  1.4951  1.5973 -3.0060
  306MOL0     H42202   9.047   6.246   2.429 -0.5526  0.9302 -1.5543
  306MOL0     H42203   9.213   6.305   2.363 -0.2955 -0.5908 -1.8376
  306MOL0     H42204   9.324   6.155   2.528 -0.1080  0.7945 -1.5828
  306MOL0     H42205   9.157   6.126   2.587  2.3843 -2.0999  0.4438
  306MOL0     H42206   9.124   6.368   2.636  1.4503  0.9099  2.2399
  306MOL0     H42207   9.279   6.413   2.591 -3.4144  2.9248 -0.0998
  306MOL0     H42208   9.408   6.517   1.807  0.9667  2.7078 -0.5310
  306MOL0     H42209   9.403   6.681   1.615 -1.0215  1.3332 -1.9030
  306MOL0     H42210   9.282   7.002   1.447 -0.5004 -0.1834  0.5528
  306MOL0     H42211   9.311   7.167   1.271  3.6918 -0.3367 -0.6763
  306MOL0     H42212   9.528   8.414   0.267 -2.1872 -2.8834  1.5944
  306MOL0     H42213   9.563   8.631   0.192  1.0797 -1.9509 -0.5763
  306MOL0     H42214   9.238   9.049   0.178 -1.5309 -1.8194 -0.9134
  306MOL0     H42215   9.147   9.203   0.034  2.8429  0.9525  3.0549
  306MOL0     H42216   9.375   9.365  -0.297  0.3361 -0.2791  1.1724
  306MOL0     H42217   9.287   9.267  -0.418 -0.3677  0.1784 -0.9777
  306MOL0     H42218   9.242   9.497  -0.426 -1.5709 -0.9823 -2.0649
  306MOL0     H42219   9.161   9.485  -0.271  1.7452  2.9288 -1.5110
  306MOL0     H42220   9.090   9.322  -0.527  3.8432 -0.0757  2.0507
  306MOL0     H42221   9.009   9.301  -0.374  1.3290 -1.1847 -0.5386
  306MOL0     H42222   9.022   9.540  -0.573  0.4973 -0.9685 -0.9637
  306MOL0     H42223   8.978   9.582  -0.413 -3.1423 -3.1745  3.1506
  306MOL0     H42224   8.638   9.357  -0.558  0.8880 -1.2054 -1.6788
  306MOL0     H42225   9.420   9.096  -0.278  1.4988 -2.9674  0.0015
  306MOL0     H42226   9.568   8.831  -0.106 -2.0702  0.5470  3.0094
  306MOL0     H42227   9.552   8.924  -0.254 -2.0460 -0.4160  0.9939
  306MOL0     H42228   9.669   8.972  -0.125  0.6470 -0.2366 -1.2756
  307MOL0     O42229   4.519  10.744  10.265  0.1502 -0.3170  0.1930
  307MOL0     C42230   4.452  10.819  10.337  0.8042 -0.1142  0.1040
  307MOL0     O42231   4.482  10.846  10.467  0.3644 -0.2571  0.0824
  307MOL0     C42232   4.580  10.774  10.526 -0.0639 -0.4560  0.3486
  307MOL0     C42233   4.713  10.789  10.484  0.1673  0.0247 -0.7410
  307MOL0     C42234   4.811  10.716  10.539 -0.1619 -0.5734  0.3350
  307MOL0     C42235   4.787  10.621  10.636 -0.4685 -0.4340 -0.1804
  307MOL0     O42236   4.899  10.551  10.663  0.0658 -0.0351 -0.6607
  307MOL0     C42237   4.893  10.423  10.724 -0.0602 -0.2344 -0.3218
  307MOL0     C42238   5.026  10.378  10.775 -0.1164  0.2663 -0.3971
  307MOL0     C42239   5.038  10.261  10.878  0.1747 -0.4581  0.1519
  307MOL0     C42240   5.006  10.117  10.827  0.1519 -0.1130  0.0016
  307MOL0     C42241   5.119  10.065  10.726 -0.6942 -0.8545  0.3321
  307MOL0     C42242   5.070   9.950  10.645 -0.1090 -0.2406  0.6069
  307MOL0     C42243   5.148   9.908  10.522  0.9562 -0.1673  0.4625
  307MOL0     C42244   5.287   9.867  10.561 -0.0789 -0.2511  0.0396
  307MOL0     N42245   5.286   9.761  10.668 -0.2818 -0.3282 -1.1724
  307MOL0     C42246   5.231   9.635  10.659 -0.5565  0.4220 -0.3982
  307MOL0     C42247   5.278   9.567  10.763 -1.7210  0.2970  0.0015
  307MOL0     C42248   5.238   9.429  10.824 -0.1614 -1.2383  0.1094
  307MOL0     C42249   5.322   9.316  10.767  0.6690 -0.3254 -0.1357
  307MOL0     C42250   5.288   9.259  10.625 -0.2932 -0.2230  0.6482
  307MOL0     C42251   5.374   9.141  10.594 -0.2764  0.5118 -0.5600
  307MOL0     O42252   5.328   9.085  10.468  0.5012  0.2019 -0.1479
  307MOL0     C42253   5.351   8.955  10.442  0.2446  0.4711  0.6221
  307MOL0     C42254   5.269   8.879  10.361  0.2079 -0.0862 -0.5375
  307MOL0     C42255   5.289   8.748  10.336  0.3651  0.7377  0.5369
  307MOL0     C42256   5.184   8.681  10.249 -0.5317  0.5869  0.1780
  307MOL0     C42257   5.411   8.680  10.379  0.3726 -0.4774  0.0165
  307MOL0     C42258   5.451   8.537  10.349  0.1738 -0.1206 -0.2157
  307MOL0     O42259   5.575   8.494  10.384 -0.8921 -0.4197  0.5297
  307MOL0     C42260   5.606   8.363  10.348  0.6462 -0.1696  0.1623
  307MOL0     C42261   5.687   8.308  10.447  0.9575  0.0883  0.2441
  307MOL0     C42262   5.721   8.172  10.444 -0.0875  0.0544  0.4886
  307MOL0     C42263   5.675   8.087  10.343 -0.0111 -0.8598 -0.5794
  307MOL0     O42264   5.715   7.956  10.343  0.1910  0.2112 -1.0165
  307MOL0     C42265   5.610   7.856  10.311 -0.2443 -0.3753 -0.2221
  307MOL0     C42266   5.645   7.794  10.175 -0.3315  0.7780 -0.6135
  307MOL0     C42267   5.538   7.679  10.135 -0.1851  0.3568  0.4686
  307MOL0     C42268   5.560   7.548  10.209  0.3130 -0.3903 -0.2628
  307MOL0     C42269   5.430   7.471  10.213  0.9044  0.1149  0.7036
  307MOL0     C42270   5.390   7.392  10.090 -0.8882 -0.8637  0.3263
  307MOL0     C42271   5.450   7.258  10.094 -1.2375 -0.0130  0.7231
  307MOL0     C42272   5.442   7.196   9.949 -0.1415  1.1906  0.3392
  307MOL0    Cl42273   5.281   7.188   9.880 -0.1958  0.0513  0.2576
  307MOL0     C42274   5.604   8.150  10.237 -0.2848 -0.1949 -0.0811
  307MOL0     C42275   5.558   8.277  10.247 -0.9966  0.0747  0.2730
  307MOL0     O42276   5.363   8.458  10.311  0.0446  0.5457 -0.0770
  307MOL0     C42277   5.495   8.761  10.461 -0.4964  0.2601  0.4658
  307MOL0     C42278   5.466   8.892  10.503  0.6507  0.8411  0.7637
  307MOL0     N42279   5.359   9.653  10.837  0.8044  0.1208 -0.0229
  307MOL0     N42280   5.351   9.772  10.788 -0.8089 -0.7058  0.4057
  307MOL0     C42281   4.656  10.595  10.682  0.1086  0.4127 -0.4205
  307MOL0     C42282   4.551  10.676  10.623  0.6509  0.3215 -0.3568
  307MOL0     C42283   4.337  10.901  10.285  0.8428  0.5869  0.2152
  307MOL0     C42284   4.321  10.904  10.146  0.2879  0.6283  0.1438
  307MOL0     C42285   4.211  10.957  10.076  0.0991  0.5164  0.2709
  307MOL0     C42286   4.128  11.037  10.157  0.4669 -0.0560 -0.1003
  307MOL0     O42287   4.030  11.111  10.100  0.2849  0.1229 -0.1032
  307MOL0     C42288   4.003  11.112   9.958  0.4888  0.3802 -0.6541
  307MOL0     C42289   3.885  11.202   9.939  0.6740  0.2009  0.1146
  307MOL0     C42290   3.924  11.355   9.940  0.1423 -0.3454  0.2551
  307MOL0     C42291   3.912  11.419   9.803 -0.4959 -0.2804 -0.0690
  307MOL0     C42292   4.043  11.461   9.755  0.5404  0.3302  0.0607
  307MOL0     C42293   4.139  11.500   9.693  0.1478 -0.3862 -0.3848
  307MOL0     C42294   4.134  11.048  10.293  0.9488 -0.3119  0.4353
  307MOL0     C42295   4.241  10.977  10.359 -0.0728 -0.5217 -1.2085
  307MOL0     C42296   4.223  10.972  10.508 -0.5616 -0.2047  0.8993
  307MOL0     H42297   4.738  10.853  10.401 -0.1214  0.1769 -0.7125
  307MOL0     H42298   4.907  10.727  10.490 -0.7876  0.9989 -0.6119
  307MOL0     H42299   4.837  10.345  10.669 -1.8783  1.5808 -1.1827
  307MOL0     H42300   4.841  10.443  10.818  1.0134 -0.3425  0.3084
  307MOL0     H42301   5.088  10.359  10.687 -0.0731  1.2136 -0.5792
  307MOL0     H42302   5.069  10.462  10.830 -1.6331 -0.0722  1.4062
  307MOL0     H42303   5.137  10.253  10.923 -0.8154 -1.3238  2.3133
  307MOL0     H42304   4.960  10.280  10.952 -0.8295 -3.3817 -0.0256
  307MOL0     H42305   4.997  10.048  10.911  1.0973  0.2110  0.3810
  307MOL0     H42306   4.909  10.108  10.778  1.8531  0.1807 -3.8513
  307MOL0     H42307   5.209  10.039  10.783  0.6560  0.3753 -1.1647
  307MOL0     H42308   5.159  10.139  10.656 -1.2616  0.1644  1.0492
  307MOL0     H42309   5.058   9.863  10.711 -2.6841  0.1141  0.7236
  307MOL0     H42310   4.968   9.972  10.611 -0.5926 -1.1609  1.4225
  307MOL0     H42311   5.150   9.999  10.461 -1.2698  1.2164  2.2997
  307MOL0     H42312   5.099   9.825  10.470 -2.4852 -1.3864  4.9326
  307MOL0     H42313   5.339   9.823  10.475  0.4002 -2.7970  1.5410
  307MOL0     H42314   5.348   9.949  10.598  3.3718 -2.4034 -0.4164
  307MOL0     H42315   5.175   9.600  10.573  1.6434 -0.2704 -1.6273
  307MOL0     H42316   5.130   9.422  10.813 -0.6237  0.5857  2.5362
  307MOL0     H42317   5.243   9.442  10.932  3.6320 -1.8761  0.1699
  307MOL0     H42318   5.427   9.348  10.760  1.0334 -1.6355 -1.1037
  307MOL0     H42319   5.322   9.229  10.833  0.7783  1.0719  1.8150
  307MOL0     H42320   5.184   9.228  10.609  0.1857 -0.4325 -2.8907
  307MOL0     H42321   5.317   9.342  10.559  0.1705 -0.0973  1.0035
  307MOL0     H42322   5.481   9.163  10.593 -0.3132  0.6944 -0.4936
  307MOL0     H42323   5.355   9.065  10.671 -0.1574  0.2827 -0.7552
  307MOL0     H42324   5.180   8.930  10.326 -1.5547 -0.8792  2.3977
  307MOL0     H42325   5.235   8.651  10.157 -2.4191 -1.1810 -0.3723
  307MOL0     H42326   5.103   8.746  10.214 -1.0036 -0.6967 -1.2458
  307MOL0     H42327   5.132   8.594  10.292 -0.3000  0.8260  0.9514
  307MOL0     H42328   5.722   8.379  10.521  3.1974  3.6232 -3.7626
  307MOL0     H42329   5.771   8.138  10.535  0.9514 -1.9451 -0.7579
  307MOL0     H42330   5.612   7.780  10.390 -3.7331  0.7746  1.1606
  307MOL0     H42331   5.510   7.899  10.313  0.3806  1.1759  3.0276
  307MOL0     H42332   5.658   7.864  10.091 -1.3692  4.3834  2.0007
  307MOL0     H42333   5.742   7.744  10.185  0.0599  1.3347 -1.4431
  307MOL0     H42334   5.562   7.662  10.029  2.8934 -0.2527  1.1839
  307MOL0     H42335   5.437   7.721  10.129  1.1016  3.5997 -3.7981
  307MOL0     H42336   5.592   7.571  10.312  2.7139 -2.1848 -0.5103
  307MOL0     H42337   5.638   7.479  10.175 -2.5912 -4.3652  0.4598
  307MOL0     H42338   5.433   7.402  10.297  1.8395 -0.6334  0.0783
  307MOL0     H42339   5.347   7.542  10.228  1.8872  0.9818  2.3784
  307MOL0     H42340   5.417   7.443   9.997 -0.8237 -3.9835 -1.5030
  307MOL0     H42341   5.281   7.386  10.096 -0.8987  0.5397  2.9530
  307MOL0     H42342   5.399   7.187  10.160  0.9342  0.2499  2.8245
  307MOL0     H42343   5.554   7.261  10.129 -0.9301  1.6380 -0.2207
  307MOL0     H42344   5.492   7.100   9.957 -0.1669  1.0886 -0.6228
  307MOL0     H42345   5.501   7.252   9.876  1.2244  1.0849  1.3319
  307MOL0     H42346   5.581   8.091  10.149  1.5532  0.8685 -1.3376
  307MOL0     H42347   5.502   8.312  10.161  0.2752 -1.4629 -1.2672
  307MOL0     H42348   5.589   8.714  10.488  0.0915  0.2440 -1.4607
  307MOL0     H42349   5.531   8.955  10.563 -1.0847  1.6932  1.8022
  307MOL0     H42350   4.640  10.525  10.763  1.7846  4.0423  3.4013
  307MOL0     H42351   4.444  10.673  10.641  0.3026 -1.6258 -2.3305
  307MOL0     H42352   4.396  10.861  10.081 -0.7779  3.6847 -3.4120
  307MOL0     H42353   4.208  10.956   9.967 -2.9010  0.6497  0.2766
  307MOL0     H42354   4.092  11.151   9.908  0.1809 -1.0508 -2.4265
  307MOL0     H42355   3.975  11.013   9.920  0.0346 -0.8436  2.5336
  307MOL0     H42356   3.814  11.178  10.019  0.6063 -1.7374 -0.4769
  307MOL0     H42357   3.836  11.173   9.846 -0.4959 -0.5707  0.9492
  307MOL0     H42358   3.864  11.411  10.012  0.0198 -1.0860  0.7337
  307MOL0     H42359   4.025  11.377   9.977  0.7624 -1.6696 -0.5700
  307MOL0     H42360   3.858  11.510   9.831 -0.8825 -0.2952 -0.7378
  307MOL0     H42361   3.852  11.361   9.731 -0.7180  0.8444 -0.8211
  307MOL0     H42362   4.227  11.548   9.656 -1.4542  2.0715 -1.3301
  307MOL0     H42363   4.052  11.092  10.350 -0.9872 -0.3355 -2.1654
  307MOL0     H42364   4.252  11.069  10.549 -1.7857  0.7261 -0.3484
  307MOL0     H42365   4.118  10.956  10.535 -0.5962 -0.4566  0.6231
  307MOL0     H42366   4.279  10.891  10.557  1.5852 -0.1842 -1.3290
  308MOL0     O42367   9.731   3.257   5.567  0.5794 -0.1830  0.0476
  308MOL0     C42368   9.714   3.159   5.633  1.0005 -0.9368 -0.7949
  308MOL0     O42369   9.646   3.152   5.754 -0.0535 -0.1135  0.4903
  308MOL0     C42370   9.624   3.256   5.837  1.0951 -0.3162 -0.7885
  308MOL0     C42371   9.665   3.389   5.834  0.3486 -0.7164 -0.3995
  308MOL0     C42372   9.617   3.486   5.919 -0.3962 -0.1489  0.3011
  308MOL0     C42373   9.525   3.453   6.024 -0.6353 -0.1463 -0.1052
  308MOL0     O42374   9.488   3.548   6.112  0.0979 -0.1244 -0.6483
  308MOL0     C42375   9.459   3.682   6.070 -0.7464  0.6464 -0.2883
  308MOL0     C42376   9.360   3.722   6.173  0.8645 -0.3382 -0.9090
  308MOL0     C42377   9.312   3.863   6.145 -0.2351  0.6630  0.1158
  308MOL0     C42378   9.395   3.971   6.219 -0.5165  0.2997 -0.3012
  308MOL0     C42379   9.325   4.100   6.242  0.3823 -0.7401  0.3763
  308MOL0     C42380   9.287   4.174   6.111 -0.9723 -0.0974 -0.1733
  308MOL0     C42381   9.190   4.298   6.121  0.0247 -0.0353  0.2863
  308MOL0     C42382   9.239   4.398   6.227 -0.2544  0.4678  0.0979
  308MOL0     N42383   9.359   4.480   6.193  0.6949 -0.3071  0.1822
  308MOL0     C42384   9.348   4.617   6.194  0.6858 -0.3278  0.3445
  308MOL0     C42385   9.476   4.653   6.145  0.3558  1.6180  0.4037
  308MOL0     C42386   9.508   4.786   6.101 -0.1024  1.1447  0.1422
  308MOL0     C42387   9.592   4.790   5.973  0.2065 -1.2283 -0.4463
  308MOL0     C42388   9.609   4.936   5.921  0.6529  0.4435  0.0962
  308MOL0     C42389   9.484   4.975   5.844 -0.1534  0.5335 -0.0838
  308MOL0     O42390   9.469   4.880   5.731 -0.6565  0.4953 -0.6723
  308MOL0     C42391   9.386   4.898   5.629 -0.1821 -0.0422  0.0234
  308MOL0     C42392   9.306   5.011   5.625  0.4428  0.4297  0.1184
  308MOL0     C42393   9.220   5.030   5.507 -0.3129  0.4068 -0.2225
  308MOL0     C42394   9.137   5.159   5.516  0.2292 -0.4455 -0.5063
  308MOL0     C42395   9.215   4.930   5.409 -0.7380 -0.1403  0.0731
  308MOL0     C42396   9.125   4.934   5.290 -0.8234  0.2556  0.2154
  308MOL0     O42397   9.096   5.054   5.236  0.4908  0.2143  0.7607
  308MOL0     C42398   8.991   5.058   5.140 -0.4094  0.8410 -0.0432
  308MOL0     C42399   8.865   5.126   5.163  0.1398 -0.0343 -0.4854
  308MOL0     C42400   8.780   5.142   5.057  0.4983 -0.6504 -0.7002
  308MOL0     C42401   8.809   5.106   4.926  0.4473  0.1332  0.1601
  308MOL0     O42402   8.727   5.120   4.808  0.0443 -0.1818  0.1296
  308MOL0     C42403   8.597   5.168   4.837 -0.4744 -0.2706  0.4755
  308MOL0     C42404   8.514   5.157   4.708  0.0310  0.5994  0.2786
  308MOL0     C42405   8.556   5.269   4.612  0.5659 -0.6257 -0.1979
  308MOL0     C42406   8.456   5.294   4.500  0.0665  0.9338 -0.1216
  308MOL0     C42407   8.491   5.411   4.409  0.2783 -0.2492  0.3971
  308MOL0     C42408   8.590   5.389   4.291 -0.8199 -0.2246 -0.0918
  308MOL0     C42409   8.635   5.523   4.244  0.3390 -0.1925 -0.3356
  308MOL0     C42410   8.663   5.517   4.096 -0.8031  1.0905  0.6416
  308MOL0    Cl42411   8.668   5.688   4.047  0.2098  0.3693 -0.5021
  308MOL0     C42412   8.934   5.047   4.915  0.8619  0.0640  0.4794
  308MOL0     C42413   9.028   5.030   5.012 -0.4255  0.1288  1.1212
  308MOL0     O42414   9.096   4.829   5.239 -0.0427 -0.0014 -0.0300
  308MOL0     C42415   9.299   4.818   5.421  0.8708 -0.5582  0.1063
  308MOL0     C42416   9.391   4.810   5.528 -0.5086  0.4417  1.5672
  308MOL0     N42417   9.545   4.535   6.107 -0.1634  1.7662  0.1138
  308MOL0     N42418   9.478   4.432   6.141 -0.1156  0.2528 -0.1736
  308MOL0     C42419   9.493   3.321   6.046  0.7768  0.5191 -0.0354
  308MOL0     C42420   9.548   3.228   5.954 -0.2035 -0.2337  0.0170
  308MOL0     C42421   9.754   3.037   5.568 -0.2562 -0.3201 -0.0083
  308MOL0     C42422   9.687   2.915   5.610  0.2200 -0.3369 -0.3299
  308MOL0     C42423   9.716   2.793   5.538 -0.9724 -0.5858 -0.0814
  308MOL0     C42424   9.820   2.787   5.452  0.6843  0.2855  0.7827
  308MOL0     O42425   9.837   2.668   5.390  0.2052  0.2266 -0.0529
  308MOL0     C42426   9.925   2.653   5.274 -0.2039  0.0899 -0.2220
  308MOL0     C42427   9.908   2.511   5.220  0.2937 -0.2736 -0.3379
  308MOL0     C42428  10.005   2.476   5.112  0.8111  0.2943  1.6380
  308MOL0     C42429   9.964   2.337   5.048 -0.5328  0.0965 -0.1615
  308MOL0     C42430  10.013   2.228   5.138 -0.1540  0.0467  0.5982
  308MOL0     C42431  10.035   2.138   5.215 -0.7812 -0.5757 -0.3926
  308MOL0     C42432   9.892   2.902   5.423 -0.1221  0.4123  1.0411
  308MOL0     C42433   9.868   3.026   5.480  0.1817  0.7701  1.5199
  308MOL0     C42434   9.965   3.128   5.426  0.2048  0.1089 -0.6023
  308MOL0     H42435   9.744   3.409   5.762  0.4870 -0.8399 -0.2817
  308MOL0     H42436   9.651   3.589   5.921 -0.9219  0.0379 -0.1985
  308MOL0     H42437   9.406   3.668   5.975 -2.2076 -0.5121  0.6470
  308MOL0     H42438   9.546   3.748   6.068 -0.2395  0.0075 -0.0025
  308MOL0     H42439   9.277   3.654   6.155  1.8308 -2.7774  2.6600
  308MOL0     H42440   9.403   3.720   6.274  1.1095 -0.5683 -1.0173
  308MOL0     H42441   9.339   3.900   6.046 -0.7257  0.3897 -0.1240
  308MOL0     H42442   9.208   3.886   6.173  0.0102  0.3461  1.3663
  308MOL0     H42443   9.423   3.938   6.319  0.0075  2.4097  0.3059
  308MOL0     H42444   9.490   3.995   6.171 -1.3423 -0.2523 -2.3209
  308MOL0     H42445   9.402   4.159   6.291  0.6966 -0.4250 -0.4874
  308MOL0     H42446   9.235   4.085   6.304 -0.8691  2.1591 -0.5818
  308MOL0     H42447   9.383   4.212   6.075 -1.1122 -1.6274 -2.3296
  308MOL0     H42448   9.236   4.105   6.043 -0.7641  0.3285 -0.7704
  308MOL0     H42449   9.089   4.264   6.147 -1.5239  2.1143 -2.4710
  308MOL0     H42450   9.182   4.347   6.024 -1.3000  2.3934  1.5497
  308MOL0     H42451   9.152   4.461   6.244 -1.6473 -0.9487 -1.5039
  308MOL0     H42452   9.258   4.339   6.318  1.4287  1.5895  0.5346
  308MOL0     H42453   9.270   4.688   6.221 -1.2374 -1.3612 -2.1227
  308MOL0     H42454   9.578   4.824   6.176  3.1471 -3.4176 -0.1815
  308MOL0     H42455   9.420   4.851   6.094 -0.8186  0.1409 -0.6404
  308MOL0     H42456   9.694   4.751   5.982  0.7576 -0.1591 -1.6799
  308MOL0     H42457   9.551   4.723   5.896 -0.4082  0.0427 -1.2703
  308MOL0     H42458   9.619   5.003   6.007  2.3564  0.7932 -0.3280
  308MOL0     H42459   9.699   4.939   5.858  0.2155 -1.3695 -0.6896
  308MOL0     H42460   9.403   4.963   5.916  2.2842 -1.0608  2.6372
  308MOL0     H42461   9.499   5.080   5.818  0.7940  0.7168  1.1272
  308MOL0     H42462   9.291   5.083   5.705  0.5867 -1.2201  1.7035
  308MOL0     H42463   9.035   5.159   5.477 -2.1908  0.7013  4.8442
  308MOL0     H42464   9.184   5.238   5.458 -1.3140  1.1391  0.3142
  308MOL0     H42465   9.125   5.205   5.615 -2.5815  0.5881 -1.2468
  308MOL0     H42466   8.847   5.153   5.266 -4.2131 -1.0457 -0.7984
  308MOL0     H42467   8.684   5.191   5.071 -0.0728 -1.5618 -1.3278
  308MOL0     H42468   8.548   5.110   4.915  1.1104 -2.0485  0.2295
  308MOL0     H42469   8.599   5.272   4.872 -1.6861  0.0364 -0.2770
  308MOL0     H42470   8.535   5.060   4.663 -1.1188  0.3425  0.2658
  308MOL0     H42471   8.406   5.163   4.725 -0.0981 -1.1843  0.2213
  308MOL0     H42472   8.658   5.247   4.579  0.7195 -0.3811  0.1094
  308MOL0     H42473   8.551   5.364   4.665  0.3733 -0.1981 -0.9634
  308MOL0     H42474   8.367   5.321   4.556 -0.0745 -1.2836  0.8234
  308MOL0     H42475   8.433   5.204   4.442 -0.0113 -0.6967  2.2996
  308MOL0     H42476   8.402   5.434   4.351  0.3161 -1.3593 -0.1118
  308MOL0     H42477   8.512   5.502   4.467 -1.1459 -0.3381  1.1052
  308MOL0     H42478   8.544   5.327   4.213 -1.0997  1.9857 -1.7877
  308MOL0     H42479   8.673   5.329   4.330 -0.6690  0.8504  1.3236
  308MOL0     H42480   8.720   5.560   4.303  0.3522 -0.6171 -0.0855
  308MOL0     H42481   8.564   5.600   4.274  2.6993  1.0185  2.7105
  308MOL0     H42482   8.594   5.459   4.034  1.9548 -0.1373 -1.4756
  308MOL0     H42483   8.762   5.481   4.068 -1.0937 -0.8700  1.9369
  308MOL0     H42484   8.951   5.014   4.813 -2.6953  0.6024 -0.4537
  308MOL0     H42485   9.123   4.985   4.984  0.2523  2.0646  0.0609
  308MOL0     H42486   9.302   4.739   5.346 -2.5540  0.2302 -1.0149
  308MOL0     H42487   9.464   4.731   5.541 -1.0771 -0.2224  0.8162
  308MOL0     H42488   9.441   3.293   6.137  0.5217  3.4946  0.8564
  308MOL0     H42489   9.538   3.123   5.977  3.1760 -0.2789  1.8218
  308MOL0     H42490   9.610   2.914   5.686  2.3818 -0.2015  2.0304
  308MOL0     H42491   9.668   2.703   5.576 -0.1593 -0.6094  0.9373
  308MOL0     H42492   9.888   2.734   5.210 -0.7702 -0.5625 -0.7397
  308MOL0     H42493  10.033   2.658   5.294 -0.5933 -2.0930  3.0275
  308MOL0     H42494   9.805   2.515   5.182  1.3461  0.1580 -3.3943
  308MOL0     H42495   9.918   2.437   5.300 -0.1016  1.0236  0.9638
  308MOL0     H42496  10.015   2.552   5.035  0.4728  1.4251  2.6842
  308MOL0     H42497  10.109   2.467   5.145  1.8796  0.9569 -1.2595
  308MOL0     H42498  10.016   2.324   4.953  0.2629 -0.3513  0.3228
  308MOL0     H42499   9.856   2.333   5.032 -0.3396 -1.9296 -1.3322
  308MOL0     H42500  10.054   2.048   5.271 -0.8248  0.9111  2.1330
  308MOL0     H42501   9.973   2.881   5.354 -1.4904  2.9691 -1.5793
  308MOL0     H42502  10.048   3.152   5.493  0.6305  2.6139 -1.9027
  308MOL0     H42503  10.008   3.083   5.336  0.7396 -2.2510  0.7413
  308MOL0     H42504   9.913   3.222   5.404 -3.7379 -1.5934  0.5315
  309MOL0     O42505   5.561   0.784   8.472  0.4016  0.3907  0.7100
  309MOL0     C42506   5.591   0.840   8.577 -0.0148  0.6879  0.0761
  309MOL0     O42507   5.583   0.971   8.597  0.3243  0.2531  0.4318
  309MOL0     C42508   5.574   1.051   8.487  0.0373 -0.4832 -0.9348
  309MOL0     C42509   5.647   1.033   8.368  0.3472  1.7164 -0.1230
  309MOL0     C42510   5.642   1.121   8.263  0.2634 -0.3315 -0.3590
  309MOL0     C42511   5.570   1.235   8.277  0.3285  0.0875 -0.3685
  309MOL0     O42512   5.553   1.317   8.170 -0.0957 -0.9291  0.2520
  309MOL0     C42513   5.622   1.443   8.197 -0.1337  0.1545  0.2174
  309MOL0     C42514   5.703   1.473   8.078 -1.2152 -0.5104  0.6149
  309MOL0     C42515   5.620   1.505   7.951 -0.8892  0.2790 -0.0949
  309MOL0     C42516   5.715   1.563   7.832  0.0545 -0.3419  0.0225
  309MOL0     C42517   5.647   1.675   7.758  1.1914 -0.2885 -0.9687
  309MOL0     C42518   5.742   1.742   7.652 -0.1359  0.2992 -0.3737
  309MOL0     C42519   5.671   1.853   7.577  0.4098  0.1200 -0.0455
  309MOL0     C42520   5.723   1.860   7.429  0.5621 -0.1182 -0.7131
  309MOL0     N42521   5.860   1.916   7.431  0.1985  0.2205 -0.0531
  309MOL0     C42522   5.982   1.862   7.407  0.1633  0.7494 -0.6385
  309MOL0     C42523   6.073   1.965   7.400 -0.1742 -0.1019  0.3452
  309MOL0     C42524   6.229   1.949   7.397  0.1117  0.8999  0.5198
  309MOL0     C42525   6.308   1.922   7.534  0.1447 -0.1612 -0.1725
  309MOL0     C42526   6.425   1.818   7.529  0.6606  0.3673 -0.5215
  309MOL0     C42527   6.468   1.788   7.673  0.6942  0.0178  0.1729
  309MOL0     O42528   6.373   1.704   7.740  0.1977 -0.9380  0.0526
  309MOL0     C42529   6.363   1.725   7.880 -0.1756  0.3066 -0.2108
  309MOL0     C42530   6.236   1.696   7.925 -0.5448  0.8503  0.6517
  309MOL0     C42531   6.200   1.688   8.053  0.4503 -0.2105  0.1377
  309MOL0     C42532   6.058   1.646   8.098 -0.0064 -0.1794  0.9095
  309MOL0     C42533   6.302   1.727   8.150 -0.4216  0.1674 -0.2674
  309MOL0     C42534   6.272   1.745   8.292 -0.1326  0.1481  0.2187
  309MOL0     O42535   6.167   1.837   8.318 -0.0552  0.6606 -0.1116
  309MOL0     C42536   6.119   1.848   8.445  0.2605  0.6500  0.7033
  309MOL0     C42537   6.179   1.940   8.531 -0.0640  0.0165 -0.9363
  309MOL0     C42538   6.144   1.948   8.666  0.3855 -1.5896  0.4394
  309MOL0     C42539   6.050   1.864   8.721  0.6512 -0.2068  0.5183
  309MOL0     O42540   6.040   1.871   8.853 -0.3569 -0.5345  0.5033
  309MOL0     C42541   5.918   1.818   8.906 -0.0797 -0.1826 -0.0415
  309MOL0     C42542   5.875   1.886   9.038  0.5740  0.1861  0.2961
  309MOL0     C42543   5.724   1.870   9.064  0.2498  0.6966 -0.5170
  309MOL0     C42544   5.693   1.742   9.148 -0.7577 -0.7401 -0.5667
  309MOL0     C42545   5.553   1.695   9.176  0.3104 -0.8822 -0.0155
  309MOL0     C42546   5.551   1.582   9.269 -0.9492 -0.3484  0.3925
  309MOL0     C42547   5.404   1.524   9.284  0.9321 -0.5271 -0.1381
  309MOL0     C42548   5.388   1.383   9.356 -0.4931 -0.3380  0.0677
  309MOL0    Cl42549   5.240   1.327   9.294  0.0322  0.1259  0.0390
  309MOL0     C42550   5.987   1.770   8.633  0.4146  0.1551 -0.5939
  309MOL0     C42551   6.027   1.755   8.494  0.4656 -0.4046 -0.0540
  309MOL0     O42552   6.352   1.707   8.379  0.2069  0.0438  0.0100
  309MOL0     C42553   6.434   1.758   8.102 -0.0862  0.6238  0.4042
  309MOL0     C42554   6.469   1.742   7.964  0.2762  0.0364 -0.0779
  309MOL0     N42555   6.002   2.074   7.421 -0.0485  0.6165 -0.0692
  309MOL0     N42556   5.879   2.051   7.430 -0.3587  0.1691 -0.3042
  309MOL0     C42557   5.500   1.263   8.398  1.0045 -0.0305 -1.6973
  309MOL0     C42558   5.507   1.173   8.509 -0.2875 -0.2329  0.0644
  309MOL0     C42559   5.622   0.751   8.690  0.4291  0.0560  0.3648
  309MOL0     C42560   5.688   0.818   8.802 -0.3836  1.0111 -0.6902
  309MOL0     C42561   5.738   0.756   8.921  0.4682 -0.4962  0.6715
  309MOL0     C42562   5.707   0.620   8.925 -0.1759 -0.1016 -0.3106
  309MOL0     O42563   5.740   0.528   9.034  0.2761 -0.7739  0.6265
  309MOL0     C42564   5.824   0.581   9.137 -0.2165 -0.5049 -0.9453
  309MOL0     C42565   5.861   0.468   9.229 -0.2160 -0.1655  0.9536
  309MOL0     C42566   5.984   0.514   9.312 -0.3394 -0.8337  1.1913
  309MOL0     C42567   6.023   0.394   9.406  0.1123  0.4288  0.3843
  309MOL0     C42568   6.075   0.279   9.331  0.6880  1.0664 -1.1322
  309MOL0     C42569   6.134   0.188   9.267  0.6710 -0.3703  0.1962
  309MOL0     C42570   5.643   0.556   8.818  0.3826  0.1532  0.0876
  309MOL0     C42571   5.608   0.611   8.698  0.3459 -0.1606 -0.2910
  309MOL0     C42572   5.550   0.521   8.592 -0.0134 -0.0719  0.1761
  309MOL0     H42573   5.705   0.941   8.366  1.1729  2.2170 -2.6548
  309MOL0     H42574   5.694   1.099   8.171 -0.1977  3.8837 -1.8401
  309MOL0     H42575   5.683   1.456   8.287 -3.4473  3.4828  2.3164
  309MOL0     H42576   5.561   1.532   8.217 -0.0308  0.3767 -0.4523
  309MOL0     H42577   5.766   1.561   8.091 -0.6496 -0.4204 -2.0632
  309MOL0     H42578   5.771   1.389   8.057 -0.6214  0.0824  0.1207
  309MOL0     H42579   5.569   1.416   7.915  1.1895 -1.2433  0.5418
  309MOL0     H42580   5.545   1.582   7.973  0.1000  2.5279 -3.6957
  309MOL0     H42581   5.812   1.593   7.873  0.3330  0.9200 -1.4612
  309MOL0     H42582   5.748   1.484   7.763  3.3277 -0.3786  1.4411
  309MOL0     H42583   5.609   1.755   7.822 -0.1963 -1.5400 -0.1865
  309MOL0     H42584   5.556   1.635   7.714 -0.1135 -0.1836  1.4523
  309MOL0     H42585   5.828   1.790   7.701  0.0332 -0.2252 -0.1581
  309MOL0     H42586   5.797   1.676   7.584 -0.6994  0.6577 -1.1931
  309MOL0     H42587   5.690   1.946   7.630 -1.7902  0.8131 -0.3502
  309MOL0     H42588   5.562   1.837   7.581  0.2003  1.3329 -0.4962
  309MOL0     H42589   5.722   1.760   7.385  0.8320 -1.6949  2.5442
  309MOL0     H42590   5.657   1.926   7.372 -0.7920 -0.8724 -0.0830
  309MOL0     H42591   6.006   1.756   7.407  0.9098  0.9129 -0.2195
  309MOL0     H42592   6.271   2.030   7.337 -0.9251 -1.0391 -3.1638
  309MOL0     H42593   6.248   1.855   7.343 -1.1836  0.6675  0.4326
  309MOL0     H42594   6.343   2.019   7.572  2.8664 -0.0491 -2.5969
  309MOL0     H42595   6.236   1.889   7.610 -0.4372  0.3800 -0.4799
  309MOL0     H42596   6.385   1.737   7.468 -1.1130  0.2444  0.7037
  309MOL0     H42597   6.510   1.844   7.467 -1.1038  1.4573 -2.6146
  309MOL0     H42598   6.559   1.727   7.669  0.9348  0.4431 -2.4014
  309MOL0     H42599   6.486   1.885   7.718 -2.2510  0.8455 -0.2263
  309MOL0     H42600   6.165   1.667   7.848  0.8297 -0.9756  0.0060
  309MOL0     H42601   6.017   1.720   8.167  0.5038  0.0578  0.9575
  309MOL0     H42602   6.060   1.544   8.139 -0.5095 -0.5960 -0.0642
  309MOL0     H42603   5.991   1.642   8.011  0.5510  1.5860  0.3683
  309MOL0     H42604   6.253   2.006   8.487  1.6862 -0.0956  1.6289
  309MOL0     H42605   6.193   2.019   8.732  1.9486 -1.9482 -0.3014
  309MOL0     H42606   5.843   1.843   8.830 -0.0451 -0.4906 -0.1798
  309MOL0     H42607   5.922   1.710   8.921 -2.6198 -0.0532  2.3091
  309MOL0     H42608   5.928   1.839   9.121  0.4372  0.3594  0.4814
  309MOL0     H42609   5.890   1.994   9.028  2.1512  0.1746  2.0917
  309MOL0     H42610   5.684   1.868   8.963  1.6250 -1.1063 -1.0739
  309MOL0     H42611   5.681   1.957   9.115  0.6784  1.1676 -0.9578
  309MOL0     H42612   5.755   1.756   9.237  2.2624 -0.3812 -2.5657
  309MOL0     H42613   5.747   1.653   9.114  3.0324 -1.0220  4.8557
  309MOL0     H42614   5.489   1.776   9.211 -1.4547  0.3314 -5.1206
  309MOL0     H42615   5.524   1.654   9.079  1.7222 -1.5102 -0.2005
  309MOL0     H42616   5.596   1.627   9.358 -1.2470  0.9217 -0.0911
  309MOL0     H42617   5.620   1.507   9.228 -0.1445  1.4017 -1.6571
  309MOL0     H42618   5.357   1.514   9.186 -0.4030  1.6804  0.2013
  309MOL0     H42619   5.351   1.598   9.345 -0.8208  0.0728 -2.2804
  309MOL0     H42620   5.381   1.399   9.464 -0.6949  0.7263 -0.0895
  309MOL0     H42621   5.455   1.300   9.331 -0.7341 -1.1105  1.8203
  309MOL0     H42622   5.923   1.692   8.676  2.6559 -0.7534  1.3472
  309MOL0     H42623   6.002   1.679   8.421  0.8070  2.8464 -3.9477
  309MOL0     H42624   6.508   1.805   8.166 -1.7598 -1.0401  3.8814
  309MOL0     H42625   6.570   1.763   7.931 -0.4235  1.0036 -1.6851
  309MOL0     H42626   5.449   1.359   8.398  0.1356 -0.4648 -0.9126
  309MOL0     H42627   5.471   1.215   8.603  2.0605  0.7768  0.5797
  309MOL0     H42628   5.689   0.926   8.809 -0.4032  0.9017  1.7834
  309MOL0     H42629   5.771   0.812   9.008 -0.6755  1.3242 -0.0039
  309MOL0     H42630   5.909   0.618   9.078  0.6425 -1.0354 -0.0743
  309MOL0     H42631   5.784   0.658   9.204 -0.3638 -0.7601 -0.7401
  309MOL0     H42632   5.902   0.391   9.163 -0.1953  2.4361 -2.2700
  309MOL0     H42633   5.777   0.427   9.286 -0.1009  0.0180  1.2620
  309MOL0     H42634   6.071   0.533   9.249 -1.4366 -0.9444 -0.4100
  309MOL0     H42635   5.967   0.601   9.376  0.8185  1.7347 -1.7529
  309MOL0     H42636   5.941   0.353   9.466 -1.6772  0.0126 -2.1757
  309MOL0     H42637   6.104   0.438   9.465 -1.2615  1.3316  1.6653
  309MOL0     H42638   6.168   0.109   9.203 -2.0113 -1.7151  0.2723
  309MOL0     H42639   5.618   0.451   8.834  1.6779 -0.0184  1.2392
  309MOL0     H42640   5.448   0.560   8.583  1.0138  3.1416  1.0015
  309MOL0     H42641   5.609   0.535   8.500 -0.0325 -1.6692 -0.1021
  309MOL0     H42642   5.555   0.413   8.608 -0.5198 -0.5614 -2.4224
  310MOL0     O42643  10.265   9.896   5.067  0.0605 -0.1412  0.3184
  310MOL0     C42644  10.234   9.832   4.968 -0.6881  0.3594  0.0886
  310MOL0     O42645  10.229   9.695   4.967  0.1605 -0.1016  0.4592
  310MOL0     C42646  10.265   9.627   5.079  0.3300  0.4334 -0.3194
  310MOL0     C42647  10.181   9.608   5.184 -0.3951 -0.2666  0.4499
  310MOL0     C42648  10.233   9.563   5.305 -0.2668  0.4401  0.2638
  310MOL0     C42649  10.359   9.494   5.315  0.5999 -0.3731 -0.1486
  310MOL0     O42650  10.408   9.435   5.421 -0.5708  0.4345  0.1430
  310MOL0     C42651  10.401   9.492   5.551 -0.3456  0.6436  0.3814
  310MOL0     C42652  10.500   9.604   5.568 -1.0417 -0.6259  1.2285
  310MOL0     C42653  10.639   9.539   5.564 -0.0751 -0.0617  0.5211
  310MOL0     C42654  10.748   9.626   5.530  0.0689  0.7939 -0.1745
  310MOL0     C42655  10.862   9.533   5.491  0.0311  0.0458  0.3300
  310MOL0     C42656  10.990   9.604   5.447  0.6658 -0.4523 -0.4916
  310MOL0     C42657  10.963   9.640   5.301 -0.3705  0.6455 -0.0623
  310MOL0     C42658  11.068   9.735   5.244 -0.7452 -0.3900  0.5809
  310MOL0     N42659  11.198   9.669   5.202 -0.2789  0.3169  0.5069
  310MOL0     C42660  11.310   9.674   5.282  0.8289 -0.1096 -0.1834
  310MOL0     C42661  11.395   9.586   5.227  1.0706  0.6609  0.0226
  310MOL0     C42662  11.527   9.539   5.281  0.2697  0.7250  0.1982
  310MOL0     C42663  11.558   9.385   5.268 -0.1185 -0.0971 -0.5988
  310MOL0     C42664  11.685   9.340   5.325  0.1366 -1.1466  0.3912
  310MOL0     C42665  11.730   9.209   5.258  0.2448  0.2316  0.5283
  310MOL0     O42666  11.638   9.109   5.287 -0.5126  0.4221 -0.0989
  310MOL0     C42667  11.629   8.990   5.231 -0.2716  0.2029  0.0417
  310MOL0     C42668  11.632   8.979   5.087  0.2695 -0.2204 -0.3574
  310MOL0     C42669  11.614   8.858   5.021  0.5449 -0.3562  0.7591
  310MOL0     C42670  11.599   8.870   4.865 -0.9066 -0.1366  0.0343
  310MOL0     C42671  11.611   8.731   5.096 -0.6081 -0.3971 -0.1263
  310MOL0     C42672  11.602   8.596   5.037 -0.0958  0.1976 -0.2962
  310MOL0     O42673  11.655   8.578   4.918  0.0821  0.7279  0.0969
  310MOL0     C42674  11.665   8.451   4.871 -0.4639 -0.3896  0.5933
  310MOL0     C42675  11.562   8.404   4.790  0.3473 -0.3443 -0.1574
  310MOL0     C42676  11.568   8.271   4.747  0.9828 -0.4109  0.1628
  310MOL0     C42677  11.675   8.190   4.755  0.1939  0.0438  0.6054
  310MOL0     O42678  11.670   8.067   4.687 -0.5016 -0.7876 -0.4543
  310MOL0     C42679  11.800   8.016   4.646  0.3108 -0.3434 -0.4709
  310MOL0     C42680  11.774   7.886   4.572  0.0954 -0.0846  0.0299
  310MOL0     C42681  11.730   7.776   4.673  0.9079 -0.4456 -0.5694
  310MOL0     C42682  11.694   7.652   4.584  0.5100 -0.0834  0.2294
  310MOL0     C42683  11.705   7.520   4.674  0.0377 -0.4132 -0.4003
  310MOL0     C42684  11.726   7.385   4.590  0.0174 -0.1056  0.2246
  310MOL0     C42685  11.705   7.260   4.669 -0.1919 -0.0611  0.1596
  310MOL0     C42686  11.820   7.214   4.769  0.1194  0.4305 -1.1474
  310MOL0    Cl42687  11.963   7.148   4.689 -0.3331 -0.2427 -0.0446
  310MOL0     C42688  11.786   8.248   4.823 -0.8556 -0.4402 -0.4573
  310MOL0     C42689  11.785   8.378   4.882  0.4127  0.3749  0.9626
  310MOL0     O42690  11.538   8.508   5.093  0.7758 -0.0331  0.3445
  310MOL0     C42691  11.589   8.748   5.234  0.5805 -0.2704  0.3847
  310MOL0     C42692  11.602   8.874   5.303  0.4121 -0.6773  0.0704
  310MOL0     N42693  11.346   9.554   5.105 -0.3397  0.5343 -0.0626
  310MOL0     N42694  11.224   9.590   5.092 -0.1102 -0.2550  0.3703
  310MOL0     C42695  10.439   9.504   5.193  0.3116  0.9008  0.2156
  310MOL0     C42696  10.388   9.569   5.081 -0.5057 -0.3922 -0.0715
  310MOL0     C42697  10.162   9.901   4.853  0.4615  0.2828  0.3940
  310MOL0     C42698  10.192   9.853   4.724 -0.2275  0.7369 -0.0245
  310MOL0     C42699  10.157   9.914   4.608  0.7113  0.9382  0.0675
  310MOL0     C42700  10.070  10.026   4.621  0.8987 -1.1580  0.5524
  310MOL0     O42701  10.007  10.080   4.508 -0.3304 -0.2049 -0.3233
  310MOL0     C42702  10.018  10.223   4.503  0.0076  0.5774  0.1899
  310MOL0     C42703  10.023  10.270   4.357  0.1249  0.0959 -0.1673
  310MOL0     C42704  10.138  10.212   4.262  0.0802  0.6416  0.1037
  310MOL0     C42705  10.165  10.061   4.265 -0.3503 -0.2088 -1.0592
  310MOL0     C42706  10.237  10.026   4.145  0.0251 -0.9657  0.3994
  310MOL0     C42707  10.302  10.026   4.041  0.1726 -0.6080 -0.3723
  310MOL0     C42708  10.026  10.070   4.754 -0.4633  0.2599  0.9746
  310MOL0     C42709  10.068  10.001   4.864  0.0728  0.1069  0.2882
  310MOL0     C42710  10.010  10.037   4.996 -0.0203 -0.0017  0.1494
  310MOL0     H42711  10.086   9.660   5.183 -0.0706  0.3911 -1.9088
  310MOL0     H42712  10.171   9.555   5.394 -1.6142 -2.1847 -0.8237
  310MOL0     H42713  10.429   9.413   5.622  1.2280 -0.2075 -1.1051
  310MOL0     H42714  10.299   9.524   5.574  0.6777  3.2845  1.6609
  310MOL0     H42715  10.503   9.667   5.478  1.5534 -4.1162 -1.3922
  310MOL0     H42716  10.485   9.667   5.656 -0.0339 -1.9364  2.3696
  310MOL0     H42717  10.666   9.488   5.658 -1.6269 -0.4534  0.7911
  310MOL0     H42718  10.627   9.463   5.486  0.9576 -0.6831  0.9367
  310MOL0     H42719  10.717   9.706   5.462 -0.0513  4.9769  4.2363
  310MOL0     H42720  10.773   9.680   5.622 -0.4665  0.7454 -0.0026
  310MOL0     H42721  10.833   9.465   5.411  0.0940  1.2142 -0.7042
  310MOL0     H42722  10.886   9.462   5.571 -0.0602 -0.9695 -0.5269
  310MOL0     H42723  11.015   9.687   5.515  3.9405 -2.1263  0.5538
  310MOL0     H42724  11.077   9.538   5.442 -0.0533 -1.3744 -0.9064
  310MOL0     H42725  10.858   9.670   5.294 -1.1272 -0.7781  3.2422
  310MOL0     H42726  10.962   9.556   5.231 -3.7531 -1.3543  2.1334
  310MOL0     H42727  11.025   9.776   5.152 -2.0426 -0.2198  1.2383
  310MOL0     H42728  11.081   9.802   5.329 -0.3871 -2.0122  1.8589
  310MOL0     H42729  11.323   9.714   5.382  2.7180 -1.0052 -0.0255
  310MOL0     H42730  11.539   9.569   5.385 -4.2238  1.3947  0.7263
  310MOL0     H42731  11.596   9.588   5.212 -0.7446 -0.1608 -1.5252
  310MOL0     H42732  11.484   9.333   5.329 -0.0333  1.5819  1.0320
  310MOL0     H42733  11.558   9.360   5.162 -0.1733 -0.1900 -0.5767
  310MOL0     H42734  11.767   9.406   5.298 -0.0466 -1.2178 -0.3524
  310MOL0     H42735  11.676   9.315   5.432  0.2420 -0.7177  0.5007
  310MOL0     H42736  11.750   9.223   5.151  1.0626  1.4466  0.8265
  310MOL0     H42737  11.827   9.188   5.303  0.1724 -0.3731  0.4162
  310MOL0     H42738  11.640   9.062   5.017 -1.6945 -1.8536 -2.7010
  310MOL0     H42739  11.694   8.878   4.811  1.5238 -4.3228  3.1324
  310MOL0     H42740  11.544   8.960   4.836 -0.5576  0.3417  0.8361
  310MOL0     H42741  11.547   8.783   4.825 -0.0892 -1.5134  1.8288
  310MOL0     H42742  11.481   8.473   4.767 -0.4004 -0.8121  1.0009
  310MOL0     H42743  11.474   8.243   4.700  0.2832  0.0409  1.2385
  310MOL0     H42744  11.838   8.091   4.576 -1.6710  2.7917  1.5247
  310MOL0     H42745  11.866   8.013   4.733  0.4743  2.7082 -0.3794
  310MOL0     H42746  11.714   7.903   4.482  1.5947 -0.4526 -1.0799
  310MOL0     H42747  11.870   7.857   4.528 -0.7808 -1.3195 -1.1786
  310MOL0     H42748  11.643   7.805   4.732 -0.0535 -2.3048 -0.9911
  310MOL0     H42749  11.809   7.758   4.747 -0.5100  0.6276  1.2957
  310MOL0     H42750  11.768   7.640   4.504 -0.6050  0.5280 -0.9412
  310MOL0     H42751  11.601   7.665   4.528 -0.4214  0.4458  1.8363
  310MOL0     H42752  11.796   7.529   4.733  0.6671  1.7050 -1.6105
  310MOL0     H42753  11.612   7.501   4.730  1.4016 -0.2989  2.0331
  310MOL0     H42754  11.825   7.392   4.542 -0.4429  1.8632 -0.5758
  310MOL0     H42755  11.653   7.377   4.509  1.5125  0.6535 -1.2901
  310MOL0     H42756  11.671   7.189   4.593 -0.8607 -0.1212  0.5163
  310MOL0     H42757  11.616   7.286   4.725  0.0296  2.1210 -0.4003
  310MOL0     H42758  11.795   7.125   4.828  4.4154  0.7175  1.5836
  310MOL0     H42759  11.848   7.291   4.842  2.2122 -2.4011  1.2923
  310MOL0     H42760  11.868   8.182   4.849 -1.7772 -1.2190  0.5983
  310MOL0     H42761  11.874   8.411   4.935  1.6220 -0.9723 -0.1500
  310MOL0     H42762  11.577   8.656   5.290 -6.2655 -1.8589 -2.6736
  310MOL0     H42763  11.615   8.876   5.411 -1.6298 -0.1643  0.3512
  310MOL0     H42764  10.534   9.452   5.191 -0.9368 -1.5403 -2.4014
  310MOL0     H42765  10.444   9.577   4.989 -2.2897  0.8840 -1.1162
  310MOL0     H42766  10.257   9.766   4.714  0.4099  1.4738 -3.4683
  310MOL0     H42767  10.182   9.872   4.511 -0.3140 -1.2038  0.6764
  310MOL0     H42768   9.924  10.259   4.546 -1.6493 -0.6059 -2.1982
  310MOL0     H42769  10.102  10.257   4.564  0.4621 -1.3788  0.7104
  310MOL0     H42770  10.024  10.379   4.359 -0.0149  0.0935  0.8954
  310MOL0     H42771   9.931  10.232   4.313 -0.0321  1.8351 -1.4182
  310MOL0     H42772  10.105  10.227   4.159  2.3274 -1.1353 -0.9644
  310MOL0     H42773  10.233  10.261   4.284  0.1250  0.7846 -0.4059
  310MOL0     H42774  10.069  10.010   4.257 -0.4802  0.3698 -4.7948
  310MOL0     H42775  10.229  10.031   4.349 -1.2903 -3.7089 -1.4395
  310MOL0     H42776  10.348  10.027   3.944  0.9198  1.3225 -0.0341
  310MOL0     H42777   9.950  10.147   4.754  1.7930  2.6307  0.4846
  310MOL0     H42778  10.075  10.113   5.042  0.2447  2.1598 -3.4220
  310MOL0     H42779   9.909  10.081   4.991 -0.2381 -0.4286  0.7291
  310MOL0     H42780  10.003   9.949   5.060 -0.1324 -1.3408 -1.6446
  311MOL0     O42781  11.168   2.097   4.248 -0.1220  0.0093 -0.1510
  311MOL0     C42782  11.084   2.109   4.332 -1.2628  0.5254 -0.4233
  311MOL0     O42783  11.081   2.210   4.420  0.4547  1.3775  0.4879
  311MOL0     C42784  11.145   2.324   4.376 -0.2859 -0.4741  0.7580
  311MOL0     C42785  11.256   2.379   4.438  0.1102  0.2381  0.9025
  311MOL0     C42786  11.317   2.500   4.397  0.3142  0.0673  0.4319
  311MOL0     C42787  11.262   2.579   4.298 -0.0985  0.3652 -0.7007
  311MOL0     O42788  11.339   2.687   4.267  0.4926 -0.0796  0.0945
  311MOL0     C42789  11.299   2.760   4.154  0.3370 -0.2469 -0.8322
  311MOL0     C42790  11.398   2.877   4.118  0.9588 -0.3104 -0.1183
  311MOL0     C42791  11.341   2.959   3.997  0.1387  0.2601 -0.0973
  311MOL0     C42792  11.257   3.070   4.047 -0.2956 -1.4240  0.3586
  311MOL0     C42793  11.149   3.120   3.945 -0.5072  0.1340 -0.4146
  311MOL0     C42794  11.095   3.249   4.006  0.4735  0.6386  0.1157
  311MOL0     C42795  11.179   3.384   3.978  0.1394  0.0984 -0.0615
  311MOL0     C42796  11.108   3.507   4.031  0.1098  0.0630 -0.2799
  311MOL0     N42797  11.164   3.628   3.971  0.3754  0.2308  0.1009
  311MOL0     C42798  11.258   3.720   4.015 -0.6119 -0.6904 -0.1330
  311MOL0     C42799  11.263   3.814   3.923  0.2660 -0.7466  0.6664
  311MOL0     C42800  11.339   3.951   3.925 -0.7768  0.7157 -0.2513
  311MOL0     C42801  11.285   4.042   4.030  0.0345  0.5370  0.1362
  311MOL0     C42802  11.140   4.093   4.004 -0.5010 -0.1831 -0.2054
  311MOL0     C42803  11.121   4.215   4.085  0.2107 -0.4622  0.4555
  311MOL0     O42804  10.977   4.242   4.076 -0.7244 -0.9063  0.3821
  311MOL0     C42805  10.926   4.354   4.132 -0.2811  0.0878 -0.1940
  311MOL0     C42806  10.794   4.380   4.091 -0.2172  0.1513 -0.8489
  311MOL0     C42807  10.728   4.493   4.143  0.2770 -0.0871  0.0976
  311MOL0     C42808  10.590   4.525   4.085 -0.1243 -0.0600 -0.4871
  311MOL0     C42809  10.789   4.572   4.239  0.4774 -0.1252 -0.8694
  311MOL0     C42810  10.732   4.706   4.299  0.5611 -0.1366 -0.7062
  311MOL0     O42811  10.596   4.718   4.288  0.0368  0.3814 -0.7561
  311MOL0     C42812  10.513   4.830   4.314 -0.3887  0.3651 -0.2675
  311MOL0     C42813  10.373   4.818   4.316  0.3785 -0.1117  0.1517
  311MOL0     C42814  10.286   4.934   4.337  0.4401 -0.6984 -0.4839
  311MOL0     C42815  10.349   5.059   4.378 -0.3663  0.3300 -0.6076
  311MOL0     O42816  10.265   5.167   4.407  0.8234  0.3974 -0.9208
  311MOL0     C42817  10.311   5.280   4.479 -0.4398  0.4740  0.9693
  311MOL0     C42818  10.266   5.399   4.393 -0.0492  0.3950  1.0114
  311MOL0     C42819  10.315   5.525   4.449 -0.5701 -0.1699 -0.4508
  311MOL0     C42820  10.202   5.623   4.460  0.5268  0.9072 -0.2646
  311MOL0     C42821  10.228   5.760   4.519  0.2994  0.2574 -0.8426
  311MOL0     C42822  10.221   5.777   4.674 -0.7000  0.0070 -0.2004
  311MOL0     C42823  10.338   5.705   4.756 -0.4506  0.2675  0.2392
  311MOL0     C42824  10.353   5.770   4.894 -0.4686  0.8803 -0.4203
  311MOL0    Cl42825  10.469   5.674   4.995  0.0224 -0.7619 -0.3845
  311MOL0     C42826  10.491   5.065   4.386 -0.0302 -0.0896  0.2400
  311MOL0     C42827  10.573   4.954   4.350  0.2516 -0.1879  0.5018
  311MOL0     O42828  10.813   4.794   4.333 -0.3326  0.9369  0.3360
  311MOL0     C42829  10.923   4.538   4.280  0.0757  0.2114 -0.2804
  311MOL0     C42830  10.988   4.429   4.227 -0.4343 -0.0473 -0.8761
  311MOL0     N42831  11.193   3.782   3.812  0.2264 -0.9326 -0.3860
  311MOL0     N42832  11.134   3.670   3.841 -0.1055 -0.0166  0.0017
  311MOL0     C42833  11.155   2.523   4.230 -0.1599  0.3407 -0.2157
  311MOL0     C42834  11.096   2.398   4.263 -0.5573  0.3907  0.6155
  311MOL0     C42835  10.990   2.000   4.353  0.0190  0.2544  0.1666
  311MOL0     C42836  10.852   2.034   4.340  0.0737  0.7104 -0.1802
  311MOL0     C42837  10.755   1.930   4.320 -0.1401  0.0864  0.1109
  311MOL0     C42838  10.793   1.794   4.308 -0.0257  0.8154 -0.8566
  311MOL0     O42839  10.681   1.705   4.300  0.2956  0.4275  0.1836
  311MOL0     C42840  10.698   1.561   4.298 -0.0693  0.0739 -0.7759
  311MOL0     C42841  10.561   1.492   4.354  0.6906  0.5692  0.2397
  311MOL0     C42842  10.435   1.495   4.265  0.6931 -0.3433  0.1366
  311MOL0     C42843  10.308   1.444   4.329 -0.3293 -0.4058 -0.3257
  311MOL0     C42844  10.303   1.295   4.333  0.5494 -0.2406 -0.7722
  311MOL0     C42845  10.290   1.181   4.338  0.3551 -0.1052 -1.0605
  311MOL0     C42846  10.932   1.763   4.330 -0.7553  0.1346 -0.7406
  311MOL0     C42847  11.027   1.867   4.355 -0.0921 -0.0968 -0.1497
  311MOL0     C42848  11.165   1.829   4.405 -0.8361  0.1652 -0.3393
  311MOL0     H42849  11.289   2.335   4.532  1.3589 -3.0346 -0.9090
  311MOL0     H42850  11.406   2.535   4.448  0.7746 -2.6982  1.6910
  311MOL0     H42851  11.200   2.804   4.163 -0.6083 -2.1596 -1.3072
  311MOL0     H42852  11.299   2.690   4.070 -1.2956 -2.2591  0.7142
  311MOL0     H42853  11.392   2.940   4.207 -0.5636 -1.1516  0.4307
  311MOL0     H42854  11.494   2.826   4.105  1.3066  0.2465  0.2164
  311MOL0     H42855  11.419   3.012   3.943 -1.5636  0.6010 -2.3463
  311MOL0     H42856  11.303   2.887   3.924  0.0130  0.9913 -0.7628
  311MOL0     H42857  11.202   3.030   4.132 -1.0614 -0.9122  0.1158
  311MOL0     H42858  11.328   3.151   4.066  1.4324 -2.3636 -1.5592
  311MOL0     H42859  11.063   3.053   3.947 -0.8798  0.5542  2.8478
  311MOL0     H42860  11.195   3.138   3.847 -1.7953  1.5681 -0.7770
  311MOL0     H42861  10.993   3.263   3.969  0.1970  2.0735  1.2768
  311MOL0     H42862  11.090   3.241   4.115 -2.0329  1.0671  0.0914
  311MOL0     H42863  11.187   3.395   3.870 -0.8223 -1.3211 -0.2980
  311MOL0     H42864  11.278   3.385   4.024  0.1012 -1.8422  0.1393
  311MOL0     H42865  11.009   3.506   3.986  0.4757 -2.6835 -1.2146
  311MOL0     H42866  11.100   3.522   4.139  0.1357  1.8018 -0.4968
  311MOL0     H42867  11.324   3.712   4.101 -0.1555 -2.4718 -0.6101
  311MOL0     H42868  11.341   3.981   3.820  2.9807 -5.6727 -2.5205
  311MOL0     H42869  11.445   3.931   3.940 -1.2502 -1.3533  0.6993
  311MOL0     H42870  11.281   3.990   4.126 -0.3550  0.1979 -0.0571
  311MOL0     H42871  11.357   4.124   4.030 -1.6042  2.0505 -0.7481
  311MOL0     H42872  11.139   4.121   3.898  1.8039  1.7137  0.1883
  311MOL0     H42873  11.070   4.013   4.026  0.5043 -0.7567  1.0326
  311MOL0     H42874  11.154   4.199   4.188  1.5167 -0.0003  0.1269
  311MOL0     H42875  11.174   4.299   4.038 -2.3648  0.4692 -0.9397
  311MOL0     H42876  10.740   4.320   4.019  2.2412 -0.9231 -1.9147
  311MOL0     H42877  10.578   4.467   3.993  0.8268 -1.1365  0.0415
  311MOL0     H42878  10.595   4.632   4.060 -0.9016  0.1820  0.3462
  311MOL0     H42879  10.502   4.518   4.150  0.4586 -2.7489  0.1195
  311MOL0     H42880  10.327   4.725   4.284 -0.0672  0.2886 -0.3855
  311MOL0     H42881  10.178   4.932   4.325  0.5676  0.0716 -1.9309
  311MOL0     H42882  10.262   5.288   4.576 -0.0947 -1.7152  1.3847
  311MOL0     H42883  10.419   5.279   4.501 -0.1513 -1.5120 -0.2740
  311MOL0     H42884  10.303   5.395   4.290  1.5472 -2.6959  1.5800
  311MOL0     H42885  10.158   5.398   4.376  0.1208 -1.6218 -0.2943
  311MOL0     H42886  10.378   5.563   4.368 -1.4861 -0.3865 -1.2796
  311MOL0     H42887  10.372   5.505   4.541  1.1796 -1.5020 -1.7683
  311MOL0     H42888  10.124   5.567   4.513  1.1441 -0.4932 -0.7962
  311MOL0     H42889  10.176   5.642   4.356  1.5784 -0.4481 -0.7976
  311MOL0     H42890  10.326   5.793   4.485  2.1116 -2.0054  1.7131
  311MOL0     H42891  10.159   5.833   4.476  0.8710  0.9383 -0.6357
  311MOL0     H42892  10.126   5.730   4.701 -0.0335 -0.8142  0.8185
  311MOL0     H42893  10.228   5.885   4.690 -1.8351  1.1710 -5.6579
  311MOL0     H42894  10.438   5.715   4.714  0.3596 -0.3727  1.8875
  311MOL0     H42895  10.310   5.599   4.760  1.3859 -0.4112 -2.5784
  311MOL0     H42896  10.255   5.788   4.938  0.2302  2.7371  0.5177
  311MOL0     H42897  10.399   5.868   4.873  1.3451  0.9313  3.0520
  311MOL0     H42898  10.546   5.153   4.416 -1.1432  0.9119 -0.5423
  311MOL0     H42899  10.679   4.975   4.341  0.1797  1.3520  2.5325
  311MOL0     H42900  10.972   4.586   4.364 -0.7628  0.2320  0.2119
  311MOL0     H42901  11.093   4.409   4.248 -0.2298  1.7871  0.0245
  311MOL0     H42902  11.104   2.583   4.155 -0.0455  1.9090  0.8895
  311MOL0     H42903  11.017   2.355   4.202  0.3815  0.9984 -1.0934
  311MOL0     H42904  10.829   2.139   4.355  1.7886  0.9676  0.8252
  311MOL0     H42905  10.652   1.953   4.296 -0.5674 -2.5539 -0.9655
  311MOL0     H42906  10.710   1.531   4.193  0.7231  1.5973 -1.1534
  311MOL0     H42907  10.792   1.536   4.347 -0.8168 -1.0554  0.1242
  311MOL0     H42908  10.534   1.556   4.439 -1.3256  1.5151 -1.0501
  311MOL0     H42909  10.595   1.396   4.393  0.7042  0.9974  1.3217
  311MOL0     H42910  10.424   1.603   4.251 -1.3329 -0.3129  1.6264
  311MOL0     H42911  10.442   1.447   4.167 -1.6228  1.4223 -0.9908
  311MOL0     H42912  10.234   1.482   4.258  3.4878 -0.5465 -4.8793
  311MOL0     H42913  10.298   1.504   4.419 -1.6519  0.5022 -1.0459
  311MOL0     H42914  10.261   1.078   4.347 -1.5755  0.2676 -2.4887
  311MOL0     H42915  10.969   1.661   4.327  0.2483  0.4350  0.6230
  311MOL0     H42916  11.185   1.879   4.500 -1.1310 -1.2349  0.4859
  311MOL0     H42917  11.172   1.721   4.422  0.8879  0.6121  2.3890
  311MOL0     H42918  11.243   1.863   4.337 -0.8192  0.2788 -0.2618
  312MOL0     O42919  10.384   5.864   9.348  0.1290  0.0189 -0.8379
  312MOL0     C42920  10.346   5.942   9.263  0.5335  0.6028 -0.2862
  312MOL0     O42921  10.232   6.011   9.261  0.7878 -0.3384 -0.4939
  312MOL0     C42922  10.163   5.997   9.381 -0.7333 -0.6323  0.5839
  312MOL0     C42923  10.188   6.101   9.472 -0.4198  0.6965 -0.2427
  312MOL0     C42924  10.107   6.108   9.581  0.9006 -0.6636 -0.3993
  312MOL0     C42925   9.997   6.016   9.604 -0.6297  0.0220  0.0688
  312MOL0     O42926   9.926   6.030   9.725 -0.3870  0.4206  0.5228
  312MOL0     C42927   9.805   5.962   9.738 -0.7001  0.1113 -0.6942
  312MOL0     C42928   9.771   5.963   9.895  1.1239  0.1247 -0.0868
  312MOL0     C42929   9.873   5.869   9.974  0.0510 -0.7312 -0.2939
  312MOL0     C42930   9.809   5.852  10.113  0.2007  0.9094  0.0708
  312MOL0     C42931   9.889   5.774  10.217 -0.3214  0.7629  0.0170
  312MOL0     C42932   9.821   5.642  10.255 -0.3092 -0.1325 -0.2572
  312MOL0     C42933   9.770   5.561  10.136  0.0334  0.6982  0.5451
  312MOL0     C42934   9.884   5.488  10.061 -0.9576  0.5961 -0.8352
  312MOL0     N42935   9.828   5.403   9.952 -0.1938  0.2693 -0.0641
  312MOL0     C42936   9.698   5.382   9.912  0.8188 -0.7534 -0.2643
  312MOL0     C42937   9.705   5.316   9.796  0.7382 -0.0938 -0.1895
  312MOL0     C42938   9.589   5.272   9.718  0.8864 -0.0476  0.1253
  312MOL0     C42939   9.595   5.129   9.657 -0.2333  0.1766 -0.8596
  312MOL0     C42940   9.474   5.093   9.571 -0.0772  0.0654  0.2224
  312MOL0     C42941   9.489   4.948   9.521 -0.6871  0.0549 -0.1693
  312MOL0     O42942   9.399   4.919   9.419  0.3641  0.0701  0.4797
  312MOL0     C42943   9.394   5.011   9.313  0.0261  0.3612 -0.1536
  312MOL0     C42944   9.278   5.085   9.292  0.7137  0.0245 -0.5632
  312MOL0     C42945   9.261   5.178   9.189 -1.2332  1.1115 -1.0401
  312MOL0     C42946   9.131   5.254   9.171 -0.3124 -0.1528  0.7662
  312MOL0     C42947   9.385   5.210   9.113  0.3661 -0.5597  0.4665
  312MOL0     C42948   9.390   5.313   9.007  1.0466 -0.2865 -0.2214
  312MOL0     O42949   9.461   5.297   8.889  0.5071  0.3617 -0.3004
  312MOL0     C42950   9.453   5.388   8.787  0.3029  0.0574  0.2950
  312MOL0     C42951   9.326   5.450   8.759 -0.6065  0.5962  0.3710
  312MOL0     C42952   9.316   5.555   8.665  0.4097  1.0360 -0.7881
  312MOL0     C42953   9.428   5.597   8.594 -0.4770  0.0074 -0.4539
  312MOL0     O42954   9.420   5.702   8.509 -1.0581  0.1714 -0.0310
  312MOL0     C42955   9.374   5.663   8.380 -0.4780 -0.3145  0.3882
  312MOL0     C42956   9.475   5.595   8.292  0.0698 -0.4617  0.5007
  312MOL0     C42957   9.401   5.501   8.190  0.7202 -0.5484  0.3715
  312MOL0     C42958   9.324   5.580   8.087  0.4611 -0.3290  0.5542
  312MOL0     C42959   9.229   5.497   7.994 -0.4313 -0.4202 -0.1180
  312MOL0     C42960   9.105   5.464   8.066  0.1743 -0.2055 -0.3671
  312MOL0     C42961   9.026   5.353   7.995  0.0722 -0.2040  0.9825
  312MOL0     C42962   8.964   5.384   7.855  0.2270  0.0097 -0.2600
  312MOL0    Cl42963   8.801   5.469   7.877  0.1922  0.0790 -0.2911
  312MOL0     C42964   9.552   5.532   8.615  0.1762  0.4352  0.6389
  312MOL0     C42965   9.568   5.425   8.716 -1.0003 -1.2584  0.4321
  312MOL0     O42966   9.344   5.420   9.042  0.5715  0.3680  0.0089
  312MOL0     C42967   9.499   5.135   9.136 -0.5027 -0.1808  0.0865
  312MOL0     C42968   9.501   5.044   9.239  0.0173 -0.0107  0.1112
  312MOL0     N42969   9.837   5.302   9.765 -0.3578 -0.6963  0.5534
  312MOL0     N42970   9.909   5.354   9.861  0.2312 -0.2300 -1.1226
  312MOL0     C42971   9.966   5.920   9.506  0.4854 -0.0363 -0.2199
  312MOL0     C42972  10.054   5.908   9.392  0.3522 -0.0514 -0.4215
  312MOL0     C42973  10.422   5.936   9.131 -0.1238  0.7666 -0.2669
  312MOL0     C42974  10.349   5.923   9.018  0.8978  0.2515 -0.5590
  312MOL0     C42975  10.414   5.925   8.895  0.1341 -0.1390  0.4613
  312MOL0     C42976  10.555   5.936   8.885 -0.3540  0.6561 -0.2508
  312MOL0     O42977  10.627   5.930   8.772 -1.4043 -0.2208 -0.1503
  312MOL0     C42978  10.557   5.908   8.647 -0.3113 -1.2691 -0.3995
  312MOL0     C42979  10.525   6.043   8.573 -0.8776 -0.0658 -0.6802
  312MOL0     C42980  10.538   6.030   8.428  1.3345  0.1135  0.4211
  312MOL0     C42981  10.431   5.939   8.361  0.2583  0.0872  0.6692
  312MOL0     C42982  10.289   5.968   8.401 -1.2430  0.4564  0.0667
  312MOL0     C42983  10.176   5.981   8.444 -0.7191 -0.0947  0.2566
  312MOL0     C42984  10.628   5.921   9.003  0.5438 -0.3029  0.7211
  312MOL0     C42985  10.567   5.931   9.122  0.7528  0.3929  0.0713
  312MOL0     C42986  10.647   5.905   9.243 -1.1044 -0.2107 -0.5904
  312MOL0     H42987  10.272   6.167   9.454 -0.0853  1.1605  2.4982
  312MOL0     H42988  10.120   6.195   9.645  0.0008 -0.3118 -0.6796
  312MOL0     H42989   9.812   5.856   9.715 -0.4549 -0.6095  2.3019
  312MOL0     H42990   9.728   6.007   9.674 -1.6837 -2.6600 -1.5797
  312MOL0     H42991   9.766   6.070   9.920  0.7684 -0.2058  1.3883
  312MOL0     H42992   9.670   5.927   9.917 -0.3143  2.5402 -2.1693
  312MOL0     H42993   9.892   5.772   9.929 -1.4577 -0.4170 -1.6973
  312MOL0     H42994   9.965   5.928   9.968 -0.7079  0.4026 -1.1982
  312MOL0     H42995   9.785   5.947  10.162 -4.1123 -0.0862  0.3620
  312MOL0     H42996   9.705   5.823  10.096 -0.4603  3.1483 -0.1227
  312MOL0     H42997   9.910   5.827  10.310  0.8196 -3.0056  2.1385
  312MOL0     H42998   9.987   5.753  10.174  0.5653  1.8594  1.4078
  312MOL0     H42999   9.887   5.578  10.313  0.5646  0.8846 -0.1052
  312MOL0     H43000   9.731   5.665  10.314  0.2131  1.9559 -0.1854
  312MOL0     H43001   9.706   5.611  10.062 -0.3939 -0.7251 -0.0764
  312MOL0     H43002   9.721   5.471  10.174 -1.0110  1.1171  0.2304
  312MOL0     H43003   9.952   5.565  10.024  0.1109  0.2555  0.3422
  312MOL0     H43004   9.951   5.432  10.127 -1.1744  1.2541 -0.0459
  312MOL0     H43005   9.610   5.404   9.972  0.9168  1.7612 -0.9262
  312MOL0     H43006   9.582   5.342   9.635  0.8476  0.6326  0.6913
  312MOL0     H43007   9.504   5.294   9.784  0.2885  0.8802 -0.9049
  312MOL0     H43008   9.683   5.140   9.593 -1.3967  1.9111 -2.2886
  312MOL0     H43009   9.610   5.051   9.732  0.3146  0.2814 -0.8604
  312MOL0     H43010   9.396   5.091   9.647  0.9604 -3.4582  1.4067
  312MOL0     H43011   9.467   5.170   9.494  1.6977 -1.4239 -1.5609
  312MOL0     H43012   9.588   4.933   9.477  1.5713  1.0777  3.9920
  312MOL0     H43013   9.479   4.872   9.600  2.3988 -0.1061  0.1861
  312MOL0     H43014   9.190   5.060   9.351  0.2062  0.7126 -1.0027
  312MOL0     H43015   9.142   5.351   9.221 -1.4062 -0.5322  1.7829
  312MOL0     H43016   9.041   5.196   9.190 -2.6946  1.9584 -2.7934
  312MOL0     H43017   9.128   5.277   9.064  1.8359  2.5291  1.1679
  312MOL0     H43018   9.237   5.424   8.815 -1.6636  1.3489 -0.8910
  312MOL0     H43019   9.217   5.600   8.657  0.0718  0.2103 -1.4638
  312MOL0     H43020   9.279   5.614   8.403 -3.0279  3.6702 -0.5981
  312MOL0     H43021   9.333   5.753   8.333  0.9117 -0.8914 -2.1352
  312MOL0     H43022   9.544   5.667   8.248  0.1504  2.0035  4.2498
  312MOL0     H43023   9.538   5.525   8.347 -0.7077  0.8782  3.2693
  312MOL0     H43024   9.336   5.442   8.255  1.8415 -2.3421 -0.0778
  312MOL0     H43025   9.471   5.442   8.131  1.0818 -0.7518  0.9929
  312MOL0     H43026   9.393   5.626   8.015 -1.9518  1.6587 -0.6667
  312MOL0     H43027   9.264   5.661   8.130  0.5422  0.0315  0.0029
  312MOL0     H43028   9.190   5.556   7.910 -3.4476 -1.6067  0.3344
  312MOL0     H43029   9.277   5.408   7.952 -0.9031 -0.3676 -0.7903
  312MOL0     H43030   9.041   5.553   8.068  0.8885  0.2947  0.5580
  312MOL0     H43031   9.121   5.425   8.166 -2.7244 -3.8987 -1.1251
  312MOL0     H43032   8.944   5.324   8.061 -0.5732 -0.2689  0.1809
  312MOL0     H43033   9.100   5.273   7.986  0.0861 -0.6518  4.2121
  312MOL0     H43034   8.942   5.297   7.793 -1.0430  0.4769 -0.4887
  312MOL0     H43035   9.033   5.454   7.806  1.5600 -1.5399 -0.7048
  312MOL0     H43036   9.641   5.559   8.558 -0.2307  0.9990  0.2640
  312MOL0     H43037   9.650   5.356   8.735  0.9096  0.6229 -0.5789
  312MOL0     H43038   9.572   5.152   9.058  1.0251  1.4618  1.7805
  312MOL0     H43039   9.588   4.983   9.261 -0.6654 -0.3948  1.8649
  312MOL0     H43040   9.885   5.848   9.511  0.5664 -0.0684  0.9154
  312MOL0     H43041  10.029   5.851   9.303  2.1596  1.5437 -2.0350
  312MOL0     H43042  10.241   5.914   9.025  1.0576 -0.2319  2.6813
  312MOL0     H43043  10.360   5.917   8.802  2.5438  1.8213 -1.2364
  312MOL0     H43044  10.627   5.847   8.589  0.5735 -2.1150  1.4469
  312MOL0     H43045  10.470   5.844   8.658 -0.1647 -1.2467  1.1053
  312MOL0     H43046  10.588   6.128   8.599 -3.3393  1.1600  1.7461
  312MOL0     H43047  10.433   6.072   8.623  1.4349  2.3233  2.6064
  312MOL0     H43048  10.532   6.133   8.393  1.4219  0.4864  1.4775
  312MOL0     H43049  10.640   6.003   8.402  0.2916 -1.5370 -2.4550
  312MOL0     H43050  10.457   5.833   8.368  0.4621  0.1636  1.0937
  312MOL0     H43051  10.443   5.967   8.256  2.0459 -0.7761  0.6050
  312MOL0     H43052  10.080   6.003   8.487 -0.1223  1.2010  0.9628
  312MOL0     H43053  10.736   5.913   8.996  0.4069 -2.2567  0.3096
  312MOL0     H43054  10.618   5.983   9.313 -2.4286  0.5439 -1.9217
  312MOL0     H43055  10.640   5.804   9.286  0.2516 -0.1654 -0.2118
  312MOL0     H43056  10.756   5.911   9.233 -0.9414 -0.6378  0.7135
  313MOL0     O43057   0.389   1.296   4.315  0.1529  0.1711 -0.1696
  313MOL0     C43058   0.417   1.372   4.227 -0.7761  0.1161  0.8755
  313MOL0     O43059   0.368   1.505   4.214  0.7789  0.6762 -0.2787
  313MOL0     C43060   0.277   1.556   4.294  0.4807  0.8244 -0.3116
  313MOL0     C43061   0.160   1.496   4.329  0.8205  0.0299 -0.4058
  313MOL0     C43062   0.054   1.562   4.396  0.8720 -0.4401  0.8775
  313MOL0     C43063   0.080   1.689   4.445 -0.3519 -0.3708 -0.8710
  313MOL0     O43064  -0.005   1.761   4.524 -1.0865  0.0283  0.7713
  313MOL0     C43065  -0.105   1.695   4.600  0.4470  0.6293  0.2988
  313MOL0     C43066  -0.137   1.778   4.721  0.1713 -0.4243  0.9278
  313MOL0     C43067  -0.128   1.932   4.705  0.5368  0.4260  0.0255
  313MOL0     C43068  -0.206   1.997   4.824  0.0198 -0.5329  0.3963
  313MOL0     C43069  -0.188   2.149   4.842  0.5465  0.4249  1.0933
  313MOL0     C43070  -0.295   2.227   4.916 -1.0916  0.2790  0.6419
  313MOL0     C43071  -0.255   2.374   4.903  0.1535 -0.0930 -0.5710
  313MOL0     C43072  -0.356   2.471   4.957 -0.4022  0.0284 -0.1024
  313MOL0     N43073  -0.382   2.460   5.101 -0.1080 -0.0609  0.6672
  313MOL0     C43074  -0.497   2.435   5.172 -0.2989 -0.2393 -0.7297
  313MOL0     C43075  -0.465   2.374   5.287 -0.6668  0.5182  0.0846
  313MOL0     C43076  -0.559   2.331   5.391  0.1341 -0.0793  0.2702
  313MOL0     C43077  -0.522   2.201   5.458 -1.1250  0.2654  0.5671
  313MOL0     C43078  -0.538   2.081   5.358  0.5327 -1.3606 -0.3131
  313MOL0     C43079  -0.506   1.940   5.416  0.2283 -0.5137 -0.8168
  313MOL0     O43080  -0.628   1.904   5.470 -0.7661 -0.2151 -0.3382
  313MOL0     C43081  -0.634   1.814   5.570 -0.5104 -0.0965 -0.2288
  313MOL0     C43082  -0.749   1.818   5.653  0.3607  0.3251 -0.6320
  313MOL0     C43083  -0.746   1.740   5.778  0.7950  0.2636  0.8895
  313MOL0     C43084  -0.880   1.747   5.860 -0.9185  0.3021  0.0547
  313MOL0     C43085  -0.633   1.658   5.821 -0.1616  0.1189 -0.2193
  313MOL0     C43086  -0.626   1.575   5.941  0.0149  0.2521 -0.8079
  313MOL0     O43087  -0.690   1.619   6.059 -0.8432  0.4436  0.4237
  313MOL0     C43088  -0.739   1.542   6.164  0.4133 -0.2987 -0.8580
  313MOL0     C43089  -0.742   1.400   6.163  0.4835  0.3165  0.5601
  313MOL0     C43090  -0.810   1.331   6.268  0.6003  0.0789 -0.4338
  313MOL0     C43091  -0.871   1.405   6.370 -0.0728 -0.0674 -0.2086
  313MOL0     O43092  -0.931   1.337   6.468 -0.0899 -0.2577 -0.5106
  313MOL0     C43093  -1.071   1.357   6.481 -0.0728  0.4520 -0.2134
  313MOL0     C43094  -1.128   1.227   6.528 -1.2662  0.8009  0.2054
  313MOL0     C43095  -1.273   1.235   6.577  0.3669 -0.0909 -0.7565
  313MOL0     C43096  -1.327   1.097   6.596  0.0042 -0.1987 -0.1334
  313MOL0     C43097  -1.484   1.099   6.624  1.7174  0.8884  0.1829
  313MOL0     C43098  -1.546   0.953   6.619  1.5194  0.1756  0.2765
  313MOL0     C43099  -1.698   0.964   6.598  0.2116  0.0312 -0.4543
  313MOL0     C43100  -1.773   0.832   6.602  0.5368  1.0281  0.8214
  313MOL0    Cl43101  -1.941   0.854   6.566  0.0697  0.2604 -0.0766
  313MOL0     C43102  -0.854   1.540   6.376  1.0517  0.3708  0.0457
  313MOL0     C43103  -0.800   1.614   6.274 -0.9013 -0.2293 -0.4277
  313MOL0     O43104  -0.572   1.465   5.927 -0.3230 -0.1653  1.2879
  313MOL0     C43105  -0.530   1.650   5.719 -0.1654  0.5170 -0.1893
  313MOL0     C43106  -0.534   1.730   5.608 -1.2798  0.9663  0.0178
  313MOL0     N43107  -0.328   2.364   5.292 -0.0599  0.3429  0.6633
  313MOL0     N43108  -0.277   2.427   5.185  0.3072  0.9339 -0.7912
  313MOL0     C43109   0.202   1.746   4.425 -0.6060 -0.0991  0.3707
  313MOL0     C43110   0.305   1.677   4.355 -0.2801  0.6601 -0.1934
  313MOL0     C43111   0.513   1.328   4.126 -0.8365  0.3428  0.5722
  313MOL0     C43112   0.609   1.232   4.169 -0.5330 -0.8720  0.5307
  313MOL0     C43113   0.711   1.181   4.089  0.9430  0.5512  0.6546
  313MOL0     C43114   0.727   1.239   3.956  0.1563 -0.4827  0.5045
  313MOL0     O43115   0.819   1.194   3.865  0.2027  0.3968 -0.0046
  313MOL0     C43116   0.911   1.082   3.885  0.1673 -0.5330 -0.0883
  313MOL0     C43117   0.837   0.948   3.857  0.2600  0.1019  0.2173
  313MOL0     C43118   0.794   0.935   3.709  0.1496 -0.9171  0.3752
  313MOL0     C43119   0.689   0.821   3.692 -0.3802  0.4760 -0.2450
  313MOL0     C43120   0.747   0.687   3.718  0.6911 -0.1709  0.5591
  313MOL0     C43121   0.799   0.588   3.751  0.3471 -0.5453 -0.8481
  313MOL0     C43122   0.633   1.329   3.907  0.5657  0.1437 -0.3796
  313MOL0     C43123   0.520   1.364   3.985 -0.1236  1.5847  0.4017
  313MOL0     C43124   0.410   1.449   3.920 -0.0036 -0.2076 -1.0104
  313MOL0     H43125   0.153   1.400   4.280 -0.8880  0.7464 -1.6493
  313MOL0     H43126  -0.039   1.509   4.413  0.1403  0.7193  0.5549
  313MOL0     H43127  -0.072   1.597   4.637  2.2027  0.2793 -1.9565
  313MOL0     H43128  -0.189   1.680   4.531  2.1436  0.7006 -1.9052
  313MOL0     H43129  -0.237   1.736   4.740 -0.3193  0.0670 -0.4023
  313MOL0     H43130  -0.072   1.744   4.802  0.1482  0.5894  1.3833
  313MOL0     H43131  -0.022   1.958   4.702  0.3608  1.0967 -0.5611
  313MOL0     H43132  -0.190   1.954   4.618 -4.3344 -1.3542  2.5966
  313MOL0     H43133  -0.312   1.976   4.808  0.1741 -0.9539 -0.1309
  313MOL0     H43134  -0.176   1.948   4.917 -1.0872 -0.5339  0.7694
  313MOL0     H43135  -0.189   2.184   4.738  1.2842 -1.3117  0.4675
  313MOL0     H43136  -0.086   2.173   4.871  0.4740  0.9495  0.9442
  313MOL0     H43137  -0.395   2.217   4.872 -1.9052  1.2471  2.1854
  313MOL0     H43138  -0.295   2.188   5.018 -3.1439 -1.8778 -0.0962
  313MOL0     H43139  -0.230   2.388   4.797 -1.4205 -2.9727 -1.4066
  313MOL0     H43140  -0.163   2.386   4.962 -0.1851 -1.9199  0.3935
  313MOL0     H43141  -0.319   2.572   4.935 -1.3755  1.0817  2.6454
  313MOL0     H43142  -0.447   2.448   4.901 -0.1294 -1.3924  0.0061
  313MOL0     H43143  -0.599   2.451   5.139 -0.3283  1.8544  0.1990
  313MOL0     H43144  -0.663   2.329   5.358 -0.3773  0.5655  1.7435
  313MOL0     H43145  -0.545   2.407   5.468  2.0039  1.2736 -1.3093
  313MOL0     H43146  -0.424   2.219   5.503 -1.7126  0.2426  1.9070
  313MOL0     H43147  -0.583   2.178   5.546 -2.3336  1.7495  0.1489
  313MOL0     H43148  -0.637   2.081   5.312 -0.0290  0.3350  0.8135
  313MOL0     H43149  -0.463   2.095   5.279  2.3274  0.2548  1.5885
  313MOL0     H43150  -0.474   1.871   5.337  0.1787 -2.0867  0.4838
  313MOL0     H43151  -0.441   1.945   5.503 -1.1116 -1.9466  0.3400
  313MOL0     H43152  -0.833   1.887   5.645 -0.1979 -0.4200 -1.3513
  313MOL0     H43153  -0.944   1.659   5.848 -1.7364  0.2966  3.4669
  313MOL0     H43154  -0.943   1.832   5.833  1.3656  1.7693 -0.9579
  313MOL0     H43155  -0.859   1.754   5.967  1.0651  1.7836 -0.3693
  313MOL0     H43156  -0.697   1.337   6.087  0.5820  0.8707  0.1552
  313MOL0     H43157  -0.809   1.222   6.276  3.6577  0.0092 -0.7700
  313MOL0     H43158  -1.088   1.437   6.553 -0.6338  1.3722 -1.3334
  313MOL0     H43159  -1.117   1.389   6.387 -0.5264 -1.3396 -0.6496
  313MOL0     H43160  -1.121   1.152   6.448  1.5894 -0.1745  1.2666
  313MOL0     H43161  -1.065   1.192   6.610 -3.3094 -2.9578  0.3939
  313MOL0     H43162  -1.344   1.293   6.517 -0.0521 -0.1487 -0.3277
  313MOL0     H43163  -1.272   1.275   6.678 -2.4684  0.8031 -0.9939
  313MOL0     H43164  -1.290   1.064   6.694 -2.9775  1.0938  1.5638
  313MOL0     H43165  -1.299   1.038   6.509 -1.9049  1.4537 -1.9637
  313MOL0     H43166  -1.502   1.129   6.728  1.6736 -2.3318  1.2085
  313MOL0     H43167  -1.537   1.161   6.552 -0.5976 -0.1061  0.9322
  313MOL0     H43168  -1.526   0.912   6.719 -0.8337 -3.5281 -0.5764
  313MOL0     H43169  -1.503   0.886   6.543  1.1750  3.5787 -3.2156
  313MOL0     H43170  -1.719   1.002   6.497  0.9457 -1.7964 -1.3350
  313MOL0     H43171  -1.745   1.035   6.667 -0.9841  2.4628 -3.5090
  313MOL0     H43172  -1.774   0.791   6.704 -2.0563 -1.8109 -0.1980
  313MOL0     H43173  -1.740   0.759   6.529 -1.8339 -0.7707  1.4192
  313MOL0     H43174  -0.887   1.587   6.468 -0.2247  1.5764 -0.9864
  313MOL0     H43175  -0.783   1.719   6.297 -1.1372 -0.7925  2.7163
  313MOL0     H43176  -0.449   1.581   5.738  1.2533  2.4870  1.3821
  313MOL0     H43177  -0.452   1.718   5.538 -1.9515  0.8262 -0.7670
  313MOL0     H43178   0.225   1.848   4.455  1.3717 -0.0672 -1.0366
  313MOL0     H43179   0.408   1.710   4.344 -0.9327  3.4886  1.1257
  313MOL0     H43180   0.594   1.207   4.273 -1.5056  0.4355  0.7287
  313MOL0     H43181   0.783   1.110   4.127 -1.1789 -2.1775 -0.0233
  313MOL0     H43182   1.001   1.100   3.826 -0.3046  1.9794 -0.1621
  313MOL0     H43183   0.933   1.076   3.992 -1.3865  0.3068  0.3182
  313MOL0     H43184   0.751   0.929   3.921  0.0642 -1.4132 -0.4569
  313MOL0     H43185   0.909   0.868   3.879 -0.1145  0.5719  3.6327
  313MOL0     H43186   0.751   1.032   3.681 -0.2124 -0.9605  0.7688
  313MOL0     H43187   0.879   0.913   3.645  1.7515 -1.7911  2.6882
  313MOL0     H43188   0.661   0.821   3.586  0.8433  1.7379 -0.6065
  313MOL0     H43189   0.597   0.830   3.749  0.3764  2.2075  0.7675
  313MOL0     H43190   0.850   0.500   3.786  0.9564 -0.4535 -1.4692
  313MOL0     H43191   0.637   1.378   3.811  0.5992  0.3603 -0.2685
  313MOL0     H43192   0.404   1.431   3.812 -0.6394  0.6857 -1.1316
  313MOL0     H43193   0.309   1.430   3.955 -0.3136  0.3658 -1.5793
  313MOL0     H43194   0.431   1.554   3.941 -0.0789 -0.6964  1.8796
  314MOL0     O43195   7.788   9.898   0.614 -0.6303 -0.2905  0.0277
  314MOL0     C43196   7.889   9.972   0.608 -0.3715 -0.2995 -0.1354
  314MOL0     O43197   7.925  10.034   0.502  0.2310 -0.1092  0.5369
  314MOL0     C43198   7.842  10.028   0.390  0.1368 -0.8405  0.2886
  314MOL0     C43199   7.852   9.914   0.308  0.8209  0.2545  0.0255
  314MOL0     C43200   7.787   9.922   0.178  0.1034  0.2367 -0.8036
  314MOL0     C43201   7.718  10.030   0.130 -0.0035  0.4577  0.5005
  314MOL0     O43202   7.674  10.017   0.002 -0.4406  0.4871 -0.3476
  314MOL0     C43203   7.647  10.139  -0.074 -0.3447 -0.1922 -0.6001
  314MOL0     C43204   7.651  10.105  -0.218 -0.0483  0.2066 -0.4184
  314MOL0     C43205   7.691  10.227  -0.304  0.4349  0.2286  0.1079
  314MOL0     C43206   7.677  10.191  -0.456 -0.0853  0.0961 -0.2535
  314MOL0     C43207   7.726  10.314  -0.537  0.2093  0.1235 -0.0580
  314MOL0     C43208   7.877  10.341  -0.532  0.2184  0.2821 -0.1616
  314MOL0     C43209   7.953  10.218  -0.588 -0.2705  0.7477 -0.0746
  314MOL0     C43210   8.094  10.257  -0.632 -0.5880  0.1639 -0.2498
  314MOL0     N43211   8.173  10.314  -0.527 -0.1157 -0.0063 -1.4593
  314MOL0     C43212   8.215  10.261  -0.408  0.4294 -0.5473  0.4004
  314MOL0     C43213   8.278  10.359  -0.339  0.1608  1.0532 -0.4000
  314MOL0     C43214   8.323  10.339  -0.196 -0.2099  0.0706 -0.7195
  314MOL0     C43215   8.447  10.238  -0.193  0.9393  0.1694  0.4369
  314MOL0     C43216   8.514  10.225  -0.053 -0.6654 -0.5200 -0.9265
  314MOL0     C43217   8.662  10.167  -0.063  0.0213 -0.2097  0.4070
  314MOL0     O43218   8.677  10.079  -0.170 -0.5845  0.1221  0.0721
  314MOL0     C43219   8.613   9.956  -0.175 -0.7295 -0.8477  0.2410
  314MOL0     C43220   8.596   9.903  -0.300 -0.1404 -0.1363 -0.2676
  314MOL0     C43221   8.525   9.780  -0.317 -1.8119  0.1531 -0.1584
  314MOL0     C43222   8.520   9.731  -0.465 -0.0009  0.1953  0.6311
  314MOL0     C43223   8.478   9.710  -0.204 -0.1363 -0.1135 -0.0682
  314MOL0     C43224   8.408   9.574  -0.209  0.7673  1.0055  0.2144
  314MOL0     O43225   8.398   9.512  -0.320  0.6085 -0.4605 -0.4087
  314MOL0     C43226   8.325   9.399  -0.334 -0.7618  0.8444 -0.1334
  314MOL0     C43227   8.389   9.274  -0.343 -0.1206 -1.1636  0.3243
  314MOL0     C43228   8.311   9.159  -0.358 -0.1603  0.5580 -0.3572
  314MOL0     C43229   8.174   9.160  -0.349  0.2015 -0.2398  0.2935
  314MOL0     O43230   8.091   9.049  -0.345 -0.5206 -0.3358  0.6536
  314MOL0     C43231   8.152   8.929  -0.309  0.2909  0.7339 -1.0516
  314MOL0     C43232   8.050   8.810  -0.307 -0.1166 -0.3706 -0.5513
  314MOL0     C43233   7.920   8.843  -0.220  0.0029 -0.2428 -0.7955
  314MOL0     C43234   7.803   8.766  -0.288  0.0954  0.1073 -0.1138
  314MOL0     C43235   7.673   8.770  -0.202  0.2557  0.1409 -0.1029
  314MOL0     C43236   7.569   8.685  -0.276  0.1186 -0.0389 -0.0917
  314MOL0     C43237   7.444   8.670  -0.187  0.1421  0.8753 -0.0099
  314MOL0     C43238   7.333   8.592  -0.254 -0.0003 -0.1153 -1.3744
  314MOL0    Cl43239   7.192   8.573  -0.152  0.0656  0.2416  0.1559
  314MOL0     C43240   8.105   9.284  -0.334  0.1078 -0.2295 -0.1017
  314MOL0     C43241   8.180   9.400  -0.322  0.3596  0.4054  1.1392
  314MOL0     O43242   8.363   9.525  -0.105  0.1307 -0.1632  0.0100
  314MOL0     C43243   8.497   9.773  -0.073  0.1671  0.4467  0.2445
  314MOL0     C43244   8.550   9.894  -0.061  0.6252  0.4450  0.2378
  314MOL0     N43245   8.263  10.477  -0.416  1.1042 -0.4707 -0.7482
  314MOL0     N43246   8.189  10.450  -0.516  0.0419  0.2554 -0.3680
  314MOL0     C43247   7.709  10.141   0.214 -0.4228  0.0033 -0.5243
  314MOL0     C43248   7.781  10.149   0.337 -1.2011 -0.5423 -0.7199
  314MOL0     C43249   7.976   9.992   0.736  0.1818  0.3973  0.7997
  314MOL0     C43250   7.926   9.940   0.856  0.2359 -0.5175 -0.5226
  314MOL0     C43251   7.990   9.955   0.981 -0.6728 -0.3470  0.4284
  314MOL0     C43252   8.118  10.025   0.980  0.4906  0.3721  0.2417
  314MOL0     O43253   8.188  10.061   1.090  0.0464 -0.2517 -0.3334
  314MOL0     C43254   8.150  10.014   1.222  0.6917  0.4185 -0.1195
  314MOL0     C43255   8.231  10.064   1.335 -0.0559 -0.8995 -0.1579
  314MOL0     C43256   8.375  10.027   1.312 -0.3094 -0.0183  0.2400
  314MOL0     C43257   8.467  10.111   1.404 -0.7041  0.5446  0.3755
  314MOL0     C43258   8.418  10.144   1.536 -1.1539 -0.0368  0.5535
  314MOL0     C43259   8.376  10.201   1.632 -0.2169  0.1661  0.2595
  314MOL0     C43260   8.179  10.064   0.861  0.1882 -0.3008 -0.5521
  314MOL0     C43261   8.109  10.048   0.740  0.6079  0.2599 -0.3316
  314MOL0     C43262   8.189  10.098   0.612  0.3505  1.5108 -0.1791
  314MOL0     H43263   7.907   9.830   0.350  2.2688  0.8217 -0.6644
  314MOL0     H43264   7.766   9.833   0.120 -1.8421 -1.8781  2.8180
  314MOL0     H43265   7.736  10.199  -0.050 -0.0707 -1.4041  1.7315
  314MOL0     H43266   7.558  10.198  -0.050 -0.5317  0.3137 -2.3751
  314MOL0     H43267   7.726  10.028  -0.239 -0.1252  0.2183 -0.7376
  314MOL0     H43268   7.554  10.069  -0.252 -0.4318  2.3362 -1.7120
  314MOL0     H43269   7.642  10.323  -0.285  0.8879  0.7441 -1.1740
  314MOL0     H43270   7.794  10.249  -0.275  0.8097 -2.9354  1.5880
  314MOL0     H43271   7.730  10.097  -0.479  0.6497  0.6098 -0.7070
  314MOL0     H43272   7.572  10.175  -0.479 -0.1674 -2.3224  1.3951
  314MOL0     H43273   7.683  10.398  -0.482  1.9441  1.6491 -0.9277
  314MOL0     H43274   7.684  10.316  -0.638  2.2656  1.3171 -0.9401
  314MOL0     H43275   7.894  10.435  -0.585 -1.0826  0.5914 -0.0847
  314MOL0     H43276   7.916  10.360  -0.432  3.4194 -0.5616 -1.1279
  314MOL0     H43277   7.898  10.179  -0.674 -1.0834 -0.2873  0.8858
  314MOL0     H43278   7.962  10.138  -0.515  0.2789  1.5156  0.7264
  314MOL0     H43279   8.152  10.182  -0.688  0.9448 -0.1245  1.6248
  314MOL0     H43280   8.081  10.339  -0.704  0.7271 -0.4790 -1.2757
  314MOL0     H43281   8.223  10.158  -0.375  1.7477 -0.8921 -0.8715
  314MOL0     H43282   8.230  10.302  -0.151 -1.1429  2.5527 -0.4316
  314MOL0     H43283   8.355  10.429  -0.143 -2.2546 -1.3665  3.4123
  314MOL0     H43284   8.409  10.140  -0.221 -0.7023  0.9914 -0.3464
  314MOL0     H43285   8.527  10.271  -0.261  0.1334  1.9969  0.3212
  314MOL0     H43286   8.519  10.325  -0.008  2.3870 -1.2452  0.6371
  314MOL0     H43287   8.452  10.161   0.010 -1.4475 -0.1843 -1.3433
  314MOL0     H43288   8.744  10.239  -0.073  1.8781 -2.3678 -0.6058
  314MOL0     H43289   8.697  10.117   0.027 -2.1361 -3.0452 -0.1885
  314MOL0     H43290   8.636   9.962  -0.381  2.0430 -0.8090  0.2408
  314MOL0     H43291   8.415   9.730  -0.496  0.4850 -0.2693 -1.1137
  314MOL0     H43292   8.552   9.628  -0.482 -1.2618 -0.3273  1.2487
  314MOL0     H43293   8.578   9.801  -0.526  1.2366 -0.3322  1.1693
  314MOL0     H43294   8.498   9.273  -0.341  0.0866  3.0072  0.8588
  314MOL0     H43295   8.368   9.068  -0.373  1.5809  1.0702  2.3038
  314MOL0     H43296   8.232   8.896  -0.376  1.2919 -0.2537  0.5937
  314MOL0     H43297   8.188   8.938  -0.206  0.1650 -1.6955 -0.7410
  314MOL0     H43298   8.022   8.790  -0.411  3.7383  0.2171 -1.8629
  314MOL0     H43299   8.096   8.729  -0.251  0.3001 -0.2736 -0.7503
  314MOL0     H43300   7.906   8.951  -0.209 -0.1672 -0.5564  4.6468
  314MOL0     H43301   7.941   8.797  -0.123  2.2216 -0.4024 -1.2968
  314MOL0     H43302   7.824   8.659  -0.299  2.0754  0.3113  1.1201
  314MOL0     H43303   7.780   8.799  -0.390 -1.1114 -3.7463 -1.2637
  314MOL0     H43304   7.686   8.712  -0.110 -1.2194 -2.9588 -1.6975
  314MOL0     H43305   7.650   8.876  -0.186  1.0325  0.3176 -0.0892
  314MOL0     H43306   7.607   8.587  -0.307  0.9378  0.9375 -2.4838
  314MOL0     H43307   7.553   8.744  -0.367 -1.5043 -0.0734  0.1515
  314MOL0     H43308   7.399   8.768  -0.171 -0.1143  0.7690 -0.0784
  314MOL0     H43309   7.464   8.622  -0.091 -2.5436 -1.3314 -0.4271
  314MOL0     H43310   7.371   8.491  -0.273 -2.8899 -1.6243  0.2097
  314MOL0     H43311   7.286   8.647  -0.336 -2.2649 -0.1608 -0.1892
  314MOL0     H43312   7.997   9.294  -0.345  0.4129  0.6676 -2.9093
  314MOL0     H43313   8.142   9.501  -0.305 -2.8103 -0.7132  1.4140
  314MOL0     H43314   8.461   9.724   0.017  0.5566 -0.4689 -0.0828
  314MOL0     H43315   8.545   9.946   0.034  0.4063  2.3065 -0.7379
  314MOL0     H43316   7.655  10.228   0.177 -0.3747  0.7514  1.0739
  314MOL0     H43317   7.781  10.237   0.402 -0.1000  1.2250 -2.9800
  314MOL0     H43318   7.832   9.885   0.855  0.6927 -1.4510  1.4331
  314MOL0     H43319   7.950   9.918   1.075  3.1098 -1.3086  1.8419
  314MOL0     H43320   8.043  10.027   1.241  0.9269 -2.1040  4.3024
  314MOL0     H43321   8.163   9.906   1.233 -1.1703  0.1833  0.0223
  314MOL0     H43322   8.198  10.032   1.434 -3.7464  1.6690 -0.3595
  314MOL0     H43323   8.224  10.173   1.334 -2.4191 -0.9852  0.3327
  314MOL0     H43324   8.385   9.924   1.347  0.0291  0.3325  1.2071
  314MOL0     H43325   8.421  10.025   1.212 -0.3821 -3.4454  0.1900
  314MOL0     H43326   8.511  10.203   1.365 -1.4750 -0.2416 -2.5899
  314MOL0     H43327   8.544  10.036   1.423 -1.0235  0.0714 -0.1830
  314MOL0     H43328   8.335  10.250   1.718 -0.2818  4.8358 -2.1483
  314MOL0     H43329   8.276  10.114   0.863 -1.3300  2.9084  1.4590
  314MOL0     H43330   8.153  10.198   0.586 -2.3357  1.2507  2.0444
  314MOL0     H43331   8.292  10.107   0.646  0.4279 -0.5025  0.2877
  314MOL0     H43332   8.178  10.035   0.523 -1.1072  2.0941 -0.4482
  315MOL0     O43333   3.842   5.796   5.152 -0.1603 -0.2158  0.7140
  315MOL0     C43334   3.915   5.879   5.213 -0.5698  0.1126 -0.2542
  315MOL0     O43335   4.048   5.860   5.244  0.5744 -0.3697  0.3077
  315MOL0     C43336   4.119   5.777   5.166  0.3544 -0.5753  0.1704
  315MOL0     C43337   4.092   5.640   5.167 -0.6358 -0.1386 -0.2373
  315MOL0     C43338   4.168   5.553   5.092  0.6167 -0.1983 -0.6230
  315MOL0     C43339   4.288   5.597   5.033  0.2262  0.8599  1.4603
  315MOL0     O43340   4.372   5.508   4.968  0.3768 -0.7028  0.2285
  315MOL0     C43341   4.392   5.372   5.016 -0.0338  0.2832 -0.3435
  315MOL0     C43342   4.311   5.260   4.947  0.0250  0.5994 -0.3645
  315MOL0     C43343   4.329   5.261   4.799 -0.2900 -0.0410 -0.2563
  315MOL0     C43344   4.268   5.141   4.732 -0.1430 -0.5496  0.4732
  315MOL0     C43345   4.302   5.137   4.584 -0.4487 -0.5195 -0.0840
  315MOL0     C43346   4.448   5.104   4.553 -0.3776  0.7224  0.6974
  315MOL0     C43347   4.477   5.081   4.408  0.4392 -0.3606 -0.2936
  315MOL0     C43348   4.620   5.046   4.377  0.9005  1.0231 -0.6001
  315MOL0     N43349   4.677   5.151   4.301 -0.5575  0.1890 -0.0603
  315MOL0     C43350   4.720   5.267   4.356 -0.1407 -1.7378  0.2077
  315MOL0     C43351   4.789   5.326   4.253 -0.1524 -0.2871  0.0035
  315MOL0     C43352   4.862   5.456   4.257  0.0217  0.3876  0.4713
  315MOL0     C43353   4.781   5.575   4.251  0.5720 -0.2603  0.4629
  315MOL0     C43354   4.763   5.617   4.102  0.7444 -0.1587  0.6091
  315MOL0     C43355   4.664   5.740   4.097  0.7735 -0.5840 -0.3634
  315MOL0     O43356   4.710   5.856   4.181 -0.8010  0.6862  0.1639
  315MOL0     C43357   4.634   5.966   4.190  0.2030 -0.0638  0.3933
  315MOL0     C43358   4.494   5.961   4.205 -0.3966 -1.0749  0.0264
  315MOL0     C43359   4.417   6.080   4.223  0.7252  0.5738  0.4648
  315MOL0     C43360   4.269   6.061   4.221  0.0090  0.7177 -0.0374
  315MOL0     C43361   4.477   6.203   4.218  0.7778  0.1091 -0.9401
  315MOL0     C43362   4.409   6.333   4.198  0.5380  0.6055  0.4457
  315MOL0     O43363   4.278   6.330   4.175  0.1883 -0.5954 -0.1636
  315MOL0     C43364   4.220   6.435   4.125  0.6892  0.2867  0.0076
  315MOL0     C43365   4.139   6.519   4.208  0.5556  0.8136 -0.2652
  315MOL0     C43366   4.046   6.622   4.147 -0.2587  0.2696 -0.4005
  315MOL0     C43367   4.058   6.647   4.011 -0.7411  0.4544 -0.0650
  315MOL0     O43368   3.979   6.744   3.963  0.2842 -0.0900 -0.2194
  315MOL0     C43369   3.860   6.690   3.892  0.0383 -0.5304 -0.6956
  315MOL0     C43370   3.759   6.793   3.860 -0.4907 -0.1904  0.0341
  315MOL0     C43371   3.650   6.804   3.966  0.1455  0.5149  0.3354
  315MOL0     C43372   3.713   6.881   4.077 -0.1389 -0.1426 -1.2247
  315MOL0     C43373   3.603   6.910   4.173 -0.1273  0.8381  0.8484
  315MOL0     C43374   3.639   7.008   4.283  0.1362  0.0632 -0.6886
  315MOL0     C43375   3.521   7.006   4.384 -0.0853 -0.4330 -0.1709
  315MOL0     C43376   3.546   7.116   4.485 -0.1094  0.6542  0.1630
  315MOL0    Cl43377   3.669   7.053   4.604 -0.3411  0.4679  0.2100
  315MOL0     C43378   4.149   6.576   3.937 -0.1940  0.3656 -0.3183
  315MOL0     C43379   4.230   6.470   3.989  0.3112  0.0340 -0.8468
  315MOL0     O43380   4.479   6.434   4.190  0.1009 -0.1219  1.5385
  315MOL0     C43381   4.620   6.211   4.217 -0.3212  0.5176  0.2035
  315MOL0     C43382   4.699   6.089   4.198  0.2726 -0.1254 -1.1215
  315MOL0     N43383   4.781   5.243   4.142  0.7061 -0.4064  0.3008
  315MOL0     N43384   4.714   5.135   4.172  0.7434  0.5041  0.3684
  315MOL0     C43385   4.312   5.728   5.034  0.2312  0.3626  0.0813
  315MOL0     C43386   4.241   5.811   5.109  0.3607 -0.2277 -0.1314
  315MOL0     C43387   3.849   6.001   5.284 -0.1529  0.0919  0.4046
  315MOL0     C43388   3.908   6.052   5.399  0.0372  0.2349  0.4070
  315MOL0     C43389   3.841   6.146   5.479  1.0121  0.1993  0.7192
  315MOL0     C43390   3.713   6.194   5.450  0.0844 -0.2915  0.6247
  315MOL0     O43391   3.667   6.293   5.533  0.1895 -0.3770 -0.0345
  315MOL0     C43392   3.535   6.343   5.532 -0.1447  0.0833  0.7227
  315MOL0     C43393   3.533   6.495   5.506  0.4187  0.9572 -0.0893
  315MOL0     C43394   3.628   6.565   5.605  0.3719 -0.6253  0.4138
  315MOL0     C43395   3.585   6.714   5.624 -0.6625  0.3360 -0.5896
  315MOL0     C43396   3.580   6.792   5.509  0.9972 -0.2056 -0.3542
  315MOL0     C43397   3.585   6.855   5.407 -0.4019  0.3207 -0.6984
  315MOL0     C43398   3.655   6.142   5.340  0.0898  0.0556 -0.1678
  315MOL0     C43399   3.721   6.050   5.251 -0.2879 -0.4826 -0.4066
  315MOL0     C43400   3.652   6.017   5.134  0.4497  0.2772  0.2175
  315MOL0     H43401   4.017   5.601   5.236 -0.6724  2.2349  1.1858
  315MOL0     H43402   4.142   5.448   5.097 -1.5036  0.3285  1.4327
  315MOL0     H43403   4.378   5.368   5.125  3.7045 -2.0293  0.2286
  315MOL0     H43404   4.495   5.349   4.987  0.2190  1.2521 -0.2705
  315MOL0     H43405   4.338   5.162   4.987  1.0134  2.0982  2.9786
  315MOL0     H43406   4.203   5.266   4.963  0.4371  0.4029  3.1466
  315MOL0     H43407   4.275   5.347   4.757  1.0290  1.6926  1.4529
  315MOL0     H43408   4.436   5.280   4.783 -0.2176  1.4171  1.6323
  315MOL0     H43409   4.303   5.049   4.779  0.1264 -0.2446  0.8849
  315MOL0     H43410   4.161   5.150   4.751  0.4699  4.8778  3.7299
  315MOL0     H43411   4.275   5.230   4.533  2.3825  1.1832  1.2753
  315MOL0     H43412   4.238   5.059   4.542 -1.9396  0.7080 -0.2020
  315MOL0     H43413   4.515   5.187   4.578 -0.1018  0.8820 -0.4896
  315MOL0     H43414   4.480   5.021   4.617 -4.5854 -2.4842 -0.8744
  315MOL0     H43415   4.451   5.160   4.337  2.3156  1.1031  0.5595
  315MOL0     H43416   4.410   5.001   4.376 -0.8441 -0.0085  1.3643
  315MOL0     H43417   4.677   5.030   4.469 -0.6630 -2.8754 -0.0825
  315MOL0     H43418   4.617   4.952   4.322 -3.3019 -1.2570  2.8418
  315MOL0     H43419   4.713   5.302   4.458 -0.9080 -0.2033 -0.3338
  315MOL0     H43420   4.934   5.447   4.175  0.3198 -0.9658  0.8638
  315MOL0     H43421   4.919   5.456   4.351 -0.6830  1.1651  0.9153
  315MOL0     H43422   4.686   5.552   4.300  0.9706 -1.0257  0.8861
  315MOL0     H43423   4.824   5.660   4.304 -0.8320 -0.1886  1.5381
  315MOL0     H43424   4.859   5.647   4.060  1.1179 -2.0870 -0.0133
  315MOL0     H43425   4.720   5.537   4.041 -0.1164  0.7248  0.0196
  315MOL0     H43426   4.654   5.789   4.000 -4.6186  3.6879  1.8244
  315MOL0     H43427   4.563   5.714   4.129  0.4909 -0.2223 -0.9479
  315MOL0     H43428   4.443   5.866   4.203 -5.3025  1.2754 -0.1347
  315MOL0     H43429   4.229   6.062   4.119 -1.7052  3.6231  0.5347
  315MOL0     H43430   4.212   6.132   4.282 -2.3193  0.2500 -1.5091
  315MOL0     H43431   4.261   5.960   4.262 -0.3738  0.5694 -0.4628
  315MOL0     H43432   4.145   6.491   4.313  1.0163  1.7550 -0.0271
  315MOL0     H43433   3.965   6.665   4.205 -2.2411 -3.3359 -0.2349
  315MOL0     H43434   3.906   6.662   3.797  1.4877 -1.3483  0.2088
  315MOL0     H43435   3.826   6.601   3.945 -0.4975  1.0854  1.8279
  315MOL0     H43436   3.817   6.882   3.834 -1.7654  0.9903  1.0737
  315MOL0     H43437   3.699   6.764   3.773  2.4602  2.9721 -3.4123
  315MOL0     H43438   3.625   6.704   4.000 -0.9529 -0.2486 -2.4430
  315MOL0     H43439   3.565   6.855   3.920  0.4558 -0.2229 -1.1397
  315MOL0     H43440   3.756   6.976   4.044 -1.3677  1.2714  1.0122
  315MOL0     H43441   3.790   6.819   4.125 -3.7012 -3.2811  0.9575
  315MOL0     H43442   3.522   6.954   4.114 -1.2084 -0.2523  1.4593
  315MOL0     H43443   3.548   6.820   4.201 -0.8850  0.0797 -2.6493
  315MOL0     H43444   3.665   7.106   4.244  0.5203  0.5468  0.7292
  315MOL0     H43445   3.732   6.976   4.332  2.9328  5.8234 -1.3903
  315MOL0     H43446   3.519   6.919   4.450 -0.3407 -0.2086  0.1198
  315MOL0     H43447   3.429   7.023   4.327 -0.1788  1.9546  0.5535
  315MOL0     H43448   3.457   7.145   4.540 -0.2783  3.6728 -1.5131
  315MOL0     H43449   3.574   7.213   4.442  0.9989  0.4339  0.3450
  315MOL0     H43450   4.174   6.616   3.839  0.5104 -0.0428 -0.3129
  315MOL0     H43451   4.302   6.424   3.922 -2.1608 -1.6856 -2.5175
  315MOL0     H43452   4.675   6.305   4.216 -0.5040  0.6382 -1.5948
  315MOL0     H43453   4.807   6.082   4.207  0.0298 -3.2016  1.5359
  315MOL0     H43454   4.405   5.766   4.991  1.2965 -3.6099 -1.5139
  315MOL0     H43455   4.263   5.917   5.114  1.2603 -0.4345  0.5111
  315MOL0     H43456   4.008   6.024   5.433 -0.7721  0.9236  3.6384
  315MOL0     H43457   3.879   6.189   5.571 -2.5698  3.2694  1.0238
  315MOL0     H43458   3.481   6.296   5.449 -0.5144  2.7161 -0.6380
  315MOL0     H43459   3.482   6.311   5.622  0.2476 -3.0788 -0.0602
  315MOL0     H43460   3.431   6.534   5.517 -0.1661 -0.0161 -1.6223
  315MOL0     H43461   3.574   6.506   5.405  1.1819 -0.6655  0.0117
  315MOL0     H43462   3.609   6.513   5.699 -2.7382 -0.8841 -0.2422
  315MOL0     H43463   3.734   6.545   5.588  0.4822 -0.2747  0.6892
  315MOL0     H43464   3.658   6.743   5.700 -0.1458 -1.6467 -0.2827
  315MOL0     H43465   3.483   6.724   5.661  0.1677 -0.6872  2.2142
  315MOL0     H43466   3.582   6.906   5.312 -0.9907  1.1681 -0.2423
  315MOL0     H43467   3.558   6.176   5.307  0.2120  0.5085 -0.0841
  315MOL0     H43468   3.599   5.926   5.164  2.1824 -0.8355 -0.0095
  315MOL0     H43469   3.581   6.093   5.099 -2.2578 -0.9840  2.5310
  315MOL0     H43470   3.721   5.987   5.056 -0.7752 -2.8068  0.1732
  316MOL0     O43471   1.189   9.624   0.617  0.9196  0.2358 -0.2184
  316MOL0     C43472   1.196   9.507   0.574 -0.2538 -0.1704 -0.5961
  316MOL0     O43473   1.103   9.404   0.611 -0.1065 -0.1569  0.7870
  316MOL0     C43474   0.987   9.423   0.685  0.2316 -0.4206 -1.2609
  316MOL0     C43475   0.916   9.544   0.708 -0.4754 -0.1643  0.0049
  316MOL0     C43476   0.803   9.565   0.778 -0.2423  0.5863 -0.3000
  316MOL0     C43477   0.749   9.454   0.839  0.2165  0.3392  0.7546
  316MOL0     O43478   0.633   9.440   0.908 -0.0990  0.0846 -0.6612
  316MOL0     C43479   0.525   9.377   0.833  0.0152 -0.4321  0.5532
  316MOL0     C43480   0.477   9.455   0.709 -0.0670 -0.5357  0.0092
  316MOL0     C43481   0.435   9.598   0.744  0.1967  0.7202  1.6739
  316MOL0     C43482   0.448   9.710   0.631 -0.3784 -0.2266  0.0295
  316MOL0     C43483   0.579   9.720   0.551  0.2690  0.3075 -0.5759
  316MOL0     C43484   0.546   9.777   0.415  0.6834 -0.0976  0.0574
  316MOL0     C43485   0.454   9.701   0.313 -0.3490  0.1085  0.2910
  316MOL0     C43486   0.499   9.551   0.288 -0.4488 -0.1950  1.0063
  316MOL0     N43487   0.636   9.548   0.240 -0.6762  0.6676  0.0151
  316MOL0     C43488   0.750   9.510   0.316 -0.4385 -0.1438  0.4476
  316MOL0     C43489   0.856   9.516   0.227  0.6376  0.2728 -0.1142
  316MOL0     C43490   1.008   9.515   0.256  0.2392 -0.2289 -0.1727
  316MOL0     C43491   1.080   9.582   0.147  1.4272 -0.1659  0.4730
  316MOL0     C43492   1.215   9.635   0.192 -0.3685  0.7590 -0.5766
  316MOL0     C43493   1.299   9.703   0.094 -1.2274 -0.3845  0.3429
  316MOL0     O43494   1.425   9.731   0.149 -0.9825 -0.4392  0.4842
  316MOL0     C43495   1.534   9.722   0.066 -0.4050  0.0818  0.7499
  316MOL0     C43496   1.614   9.609   0.068 -0.4450 -0.0483 -0.7426
  316MOL0     C43497   1.741   9.607  -0.004  0.0559  0.2405 -0.0919
  316MOL0     C43498   1.815   9.479   0.016 -0.4815 -0.9095 -0.8484
  316MOL0     C43499   1.771   9.707  -0.097 -0.1808  0.4633 -0.1881
  316MOL0     C43500   1.910   9.715  -0.176 -0.1628 -0.7412  0.1397
  316MOL0     O43501   2.012   9.633  -0.128  0.1267  0.1940 -0.5048
  316MOL0     C43502   2.135   9.625  -0.181  0.9437  0.2556  0.1225
  316MOL0     C43503   2.172   9.610  -0.316  0.2048  0.8056  0.0428
  316MOL0     C43504   2.307   9.606  -0.351  0.4414  0.7963 -0.2853
  316MOL0     C43505   2.405   9.634  -0.255  0.0279 -0.8058 -0.3325
  316MOL0     O43506   2.537   9.641  -0.292  0.2261 -0.3885  0.0793
  316MOL0     C43507   2.599   9.773  -0.297 -1.0869 -0.4203  0.0191
  316MOL0     C43508   2.569   9.829  -0.438 -0.3614 -0.0182  0.1575
  316MOL0     C43509   2.573   9.982  -0.444 -0.1159 -0.1868  1.2902
  316MOL0     C43510   2.716  10.040  -0.445 -0.9028 -0.1286 -0.2453
  316MOL0     C43511   2.731  10.184  -0.489 -0.3012  0.3758  0.9744
  316MOL0     C43512   2.871  10.214  -0.550 -0.1734 -0.1358  0.2149
  316MOL0     C43513   2.910  10.354  -0.567  0.6252  0.2974  0.5833
  316MOL0     C43514   3.042  10.347  -0.643  0.8803  0.1596 -1.1517
  316MOL0    Cl43515   3.107  10.500  -0.677  0.1436 -0.3690  0.2259
  316MOL0     C43516   2.378   9.651  -0.119  0.1025 -0.6105 -1.6221
  316MOL0     C43517   2.239   9.646  -0.090  0.2579  0.4625  0.2955
  316MOL0     O43518   1.924   9.790  -0.273  0.0215 -0.6172 -0.1000
  316MOL0     C43519   1.679   9.818  -0.105  0.0726  0.3396 -0.3155
  316MOL0     C43520   1.561   9.824  -0.030  0.1634  0.0905  0.1848
  316MOL0     N43521   0.807   9.569   0.102  0.3126 -0.0104 -0.3951
  316MOL0     N43522   0.677   9.594   0.116  0.3837 -0.1506 -0.1113
  316MOL0     C43523   0.815   9.328   0.823 -0.4312 -0.6211  0.2563
  316MOL0     C43524   0.937   9.322   0.755 -0.0317 -0.5668 -1.2122
  316MOL0     C43525   1.311   9.457   0.490 -0.0545 -0.6646  0.7409
  316MOL0     C43526   1.279   9.349   0.407  0.1838  0.6969 -0.5932
  316MOL0     C43527   1.390   9.300   0.330  0.3171  1.0161 -0.9545
  316MOL0     C43528   1.520   9.341   0.347  0.4374  0.1703 -0.3612
  316MOL0     O43529   1.626   9.280   0.293 -0.5915  0.5057  0.2896
  316MOL0     C43530   1.613   9.149   0.224 -0.9422 -0.0281 -0.3790
  316MOL0     C43531   1.754   9.097   0.207  0.3333 -0.3572 -0.1460
  316MOL0     C43532   1.814   9.077   0.341 -0.0861 -0.4661 -0.3130
  316MOL0     C43533   1.946   8.988   0.338  0.4926  0.4395 -0.5493
  316MOL0     C43534   1.921   8.846   0.325 -0.5052 -0.9474  0.1738
  316MOL0     C43535   1.890   8.730   0.310  0.2165 -0.3481 -0.0568
  316MOL0     C43536   1.539   9.465   0.402 -0.5850  0.3285  0.2787
  316MOL0     C43537   1.439   9.523   0.469 -1.0638  0.3146 -0.2737
  316MOL0     C43538   1.476   9.662   0.530  0.7308 -0.0651  0.0351
  316MOL0     H43539   0.958   9.629   0.655  0.9540 -0.0320  1.2853
  316MOL0     H43540   0.751   9.659   0.788  1.4604  1.4901  0.3987
  316MOL0     H43541   0.436   9.371   0.897 -0.7497  0.6919 -0.3661
  316MOL0     H43542   0.548   9.272   0.812 -0.0218 -0.1883 -0.7988
  316MOL0     H43543   0.559   9.453   0.637 -1.8608  1.0277 -2.2251
  316MOL0     H43544   0.395   9.409   0.654 -0.5056  1.7996 -1.4587
  316MOL0     H43545   0.328   9.604   0.763 -0.5291 -1.7138 -0.9608
  316MOL0     H43546   0.486   9.638   0.832  4.3570  1.2079 -0.6780
  316MOL0     H43547   0.358   9.694   0.572 -1.8485  0.0158  2.0920
  316MOL0     H43548   0.446   9.811   0.673 -0.5679 -0.6001  0.9618
  316MOL0     H43549   0.632   9.625   0.536 -1.2597 -0.8940  1.1838
  316MOL0     H43550   0.645   9.787   0.607 -1.2941  2.4255 -1.1356
  316MOL0     H43551   0.506   9.876   0.438  3.6544  1.2242 -0.0171
  316MOL0     H43552   0.643   9.785   0.366  0.2851  1.2475 -0.5779
  316MOL0     H43553   0.451   9.760   0.221  4.3857 -1.5464 -1.2493
  316MOL0     H43554   0.352   9.696   0.351  0.0094  0.4758  1.3296
  316MOL0     H43555   0.475   9.496   0.380 -2.2363 -2.6060 -0.7441
  316MOL0     H43556   0.438   9.499   0.213  3.3008  0.8292 -3.1545
  316MOL0     H43557   0.763   9.474   0.418  1.4936  3.9461  1.8677
  316MOL0     H43558   1.036   9.414   0.287 -1.1947  0.2262  3.0704
  316MOL0     H43559   1.030   9.571   0.348 -0.7273 -1.6184  0.9407
  316MOL0     H43560   1.073   9.513   0.063 -1.7366  1.0312 -0.3926
  316MOL0     H43561   1.025   9.671   0.114  2.4185  0.2655 -0.0699
  316MOL0     H43562   1.202   9.703   0.277 -0.5341 -0.1316  0.1306
  316MOL0     H43563   1.272   9.552   0.233 -1.8008 -0.1404 -0.3103
  316MOL0     H43564   1.309   9.647   0.001 -2.0776 -1.0905  0.6662
  316MOL0     H43565   1.241   9.794   0.076  1.5891  1.7331  1.1464
  316MOL0     H43566   1.592   9.529   0.138 -1.1977  0.8896  0.1276
  316MOL0     H43567   1.885   9.462  -0.066  3.1242 -0.8218  1.9583
  316MOL0     H43568   1.746   9.396   0.034 -1.3264 -0.1354 -0.3419
  316MOL0     H43569   1.880   9.474   0.104  0.3874 -4.3924 -1.5735
  316MOL0     H43570   2.105   9.615  -0.402 -1.3065  0.2034  1.1438
  316MOL0     H43571   2.350   9.590  -0.450 -0.0017 -0.3936 -0.3016
  316MOL0     H43572   2.560   9.844  -0.223  1.5784  0.6246  0.5445
  316MOL0     H43573   2.708   9.768  -0.287 -0.7059  1.6253 -2.1540
  316MOL0     H43574   2.644   9.788  -0.507  2.3905  1.9097  1.8006
  316MOL0     H43575   2.472   9.795  -0.476 -1.5987  1.9674  1.3695
  316MOL0     H43576   2.509  10.027  -0.367 -1.5467  0.1410 -0.0288
  316MOL0     H43577   2.519  10.011  -0.535  0.3870  1.6903  1.5481
  316MOL0     H43578   2.781   9.971  -0.499  0.0349 -1.3579  2.2628
  316MOL0     H43579   2.755  10.045  -0.342 -0.2711  2.0761 -0.5438
  316MOL0     H43580   2.659  10.202  -0.569  2.5524  0.4699 -1.7526
  316MOL0     H43581   2.708  10.250  -0.405 -1.4382  3.0215 -1.2680
  316MOL0     H43582   2.887  10.166  -0.647  2.9871  0.0124  0.5446
  316MOL0     H43583   2.938  10.162  -0.480 -0.4867 -0.3828  0.3352
  316MOL0     H43584   2.924  10.407  -0.472 -0.1219 -1.1058  1.5090
  316MOL0     H43585   2.840  10.405  -0.633  0.0614 -1.3831 -0.1717
  316MOL0     H43586   3.036  10.289  -0.736  2.0470 -2.2679  0.1866
  316MOL0     H43587   3.114  10.291  -0.584  1.2497  0.0213 -1.7185
  316MOL0     H43588   2.447   9.674  -0.040 -0.8866  1.2382 -1.2342
  316MOL0     H43589   2.215   9.665   0.014  2.9095 -0.7681  1.2172
  316MOL0     H43590   1.690   9.896  -0.179 -0.3167 -0.7728 -1.5987
  316MOL0     H43591   1.503   9.915  -0.037  0.1557  0.0374 -0.4607
  316MOL0     H43592   0.773   9.242   0.875 -2.5608 -0.2156 -0.6581
  316MOL0     H43593   0.999   9.233   0.763  3.1386  1.6095  0.3395
  316MOL0     H43594   1.182   9.302   0.409  0.4723 -0.0617 -2.2098
  316MOL0     H43595   1.355   9.222   0.263 -2.6569 -0.4731  2.0183
  316MOL0     H43596   1.554   9.071   0.274 -1.8253  1.0112  0.2506
  316MOL0     H43597   1.563   9.178   0.131 -1.7029 -0.9163 -0.2577
  316MOL0     H43598   1.813   9.175   0.157 -1.6162  1.1961 -0.1402
  316MOL0     H43599   1.757   9.007   0.146  3.2017  0.1838 -0.9713
  316MOL0     H43600   1.836   9.174   0.387 -4.0271 -0.3934  1.8257
  316MOL0     H43601   1.745   9.027   0.410  0.4835  1.2192  1.5746
  316MOL0     H43602   1.990   9.002   0.438 -1.2758  1.5815  0.1056
  316MOL0     H43603   2.015   9.013   0.257 -0.6192 -1.3652 -2.1412
  316MOL0     H43604   1.879   8.627   0.285  1.7389 -0.3344 -0.8742
  316MOL0     H43605   1.630   9.522   0.393 -1.1697  1.2655  0.1935
  316MOL0     H43606   1.547   9.707   0.459  0.5772 -1.3226 -0.9626
  316MOL0     H43607   1.387   9.724   0.536  0.7003  0.6179 -4.1446
  316MOL0     H43608   1.529   9.641   0.623 -0.0095 -0.9879  0.2691
  317MOL0     O43609   5.494   2.702   7.889 -0.3036 -0.3701 -0.3120
  317MOL0     C43610   5.522   2.751   7.999 -0.3627  0.3182  0.3677
  317MOL0     O43611   5.508   2.684   8.115 -0.2668  0.5889 -0.1908
  317MOL0     C43612   5.469   2.554   8.099  0.9032  0.6995  0.6235
  317MOL0     C43613   5.342   2.514   8.063 -0.5641 -0.5852 -0.2606
  317MOL0     C43614   5.302   2.382   8.082  0.1629 -0.3685 -0.0196
  317MOL0     C43615   5.387   2.279   8.115 -0.5833  0.2836  0.3014
  317MOL0     O43616   5.338   2.155   8.129  0.9068  0.4877 -0.3041
  317MOL0     C43617   5.409   2.067   8.212 -0.2487  0.0116 -0.4083
  317MOL0     C43618   5.325   1.961   8.277 -0.5880 -0.0269 -0.8868
  317MOL0     C43619   5.297   1.839   8.183 -0.7648 -0.2431 -0.1923
  317MOL0     C43620   5.216   1.736   8.261 -0.9930 -0.6616 -0.6800
  317MOL0     C43621   5.163   1.621   8.173 -0.7995 -0.4672 -0.0185
  317MOL0     C43622   5.049   1.541   8.233 -0.7455  0.1533 -0.9706
  317MOL0     C43623   5.092   1.438   8.337  0.0327  1.6058  0.2427
  317MOL0     C43624   5.117   1.513   8.474  0.0557 -0.1277  0.0082
  317MOL0     N43625   5.055   1.425   8.575 -0.4914  0.3592 -0.2913
  317MOL0     C43626   5.098   1.297   8.608  0.9997 -0.0773 -0.2712
  317MOL0     C43627   5.003   1.256   8.700 -0.3220  0.2189 -0.0015
  317MOL0     C43628   5.013   1.117   8.757  0.0332  0.1290 -0.3262
  317MOL0     C43629   4.939   1.096   8.893  0.6823 -1.0275 -0.1060
  317MOL0     C43630   5.005   1.197   8.995 -0.3092  0.8618  0.0078
  317MOL0     C43631   4.969   1.164   9.139  0.4268 -0.8667  0.3355
  317MOL0     O43632   5.057   1.062   9.188 -0.0861  0.1931 -0.0285
  317MOL0     C43633   5.026   0.988   9.301  0.3455  0.3236  0.3014
  317MOL0     C43634   4.966   1.048   9.409  0.6427  0.1111  0.1428
  317MOL0     C43635   4.933   0.977   9.527  0.6783 -0.5622 -0.8703
  317MOL0     C43636   4.854   1.063   9.627  0.2011 -0.0564 -0.7863
  317MOL0     C43637   4.956   0.841   9.540 -0.2074  0.1378  0.1276
  317MOL0     C43638   4.933   0.756   9.651 -0.4891  0.6889 -0.6122
  317MOL0     O43639   4.979   0.628   9.654  0.5312 -0.1657  0.4694
  317MOL0     C43640   4.948   0.544   9.758  0.6753 -0.0099  0.1880
  317MOL0     C43641   4.902   0.418   9.733  0.7815  0.2213  0.2200
  317MOL0     C43642   4.899   0.318   9.833  0.4554  0.9339 -0.6428
  317MOL0     C43643   4.912   0.350   9.972 -1.2245 -0.1826  0.2714
  317MOL0     O43644   4.909   0.245  10.058 -0.1352  0.6513  0.1237
  317MOL0     C43645   5.019   0.216  10.144 -0.9938  0.0849 -0.5687
  317MOL0     C43646   4.982   0.131  10.266  0.0293 -0.0528 -0.1309
  317MOL0     C43647   5.100   0.079  10.346 -0.8021 -0.2379 -0.1458
  317MOL0     C43648   5.051  -0.005  10.470  0.4670 -0.0133 -0.6502
  317MOL0     C43649   5.149  -0.090  10.562 -0.4236  0.1223 -0.8284
  317MOL0     C43650   5.199  -0.008  10.685 -0.3138 -0.4536  0.4649
  317MOL0     C43651   5.322  -0.070  10.734 -1.3464  0.0318 -0.2384
  317MOL0     C43652   5.357  -0.030  10.877  0.0781  0.5156 -0.4635
  317MOL0    Cl43653   5.325   0.144  10.921 -0.3722  0.2888 -0.2622
  317MOL0     C43654   4.948   0.482   9.995 -0.3688  0.4010 -0.1688
  317MOL0     C43655   4.962   0.581   9.894 -0.0605 -0.1300  0.0346
  317MOL0     O43656   4.868   0.812   9.740 -0.8023  0.4970 -0.4248
  317MOL0     C43657   5.021   0.788   9.433  0.1892  0.2109 -0.3693
  317MOL0     C43658   5.054   0.850   9.313 -0.2635  0.2070 -0.1191
  317MOL0     N43659   4.904   1.348   8.707  0.3905  0.0288 -0.0670
  317MOL0     N43660   4.937   1.448   8.635  0.4861  0.1070 -0.6471
  317MOL0     C43661   5.523   2.317   8.129 -0.5338  0.5521 -0.2737
  317MOL0     C43662   5.562   2.456   8.130  0.0947  0.1897 -0.4881
  317MOL0     C43663   5.566   2.887   7.995  0.0745 -1.0523 -0.2988
  317MOL0     C43664   5.547   2.962   8.110 -0.0267 -0.7254  0.5161
  317MOL0     C43665   5.586   3.097   8.124  0.3621  0.2011  0.6443
  317MOL0     C43666   5.652   3.162   8.021 -0.0124 -0.0282 -0.1033
  317MOL0     O43667   5.700   3.293   8.020  0.2848 -0.4476 -0.8169
  317MOL0     C43668   5.728   3.349   8.148 -0.6780  0.1073  0.6695
  317MOL0     C43669   5.873   3.411   8.158  0.2055 -0.0070  0.0514
  317MOL0     C43670   5.999   3.318   8.151  0.4462  0.5553 -0.1057
  317MOL0     C43671   6.131   3.409   8.133  0.3495  1.0457  0.1407
  317MOL0     C43672   6.263   3.341   8.137 -0.6437  0.1298 -0.6345
  317MOL0     C43673   6.358   3.259   8.146 -0.5812 -0.0053  0.3375
  317MOL0     C43674   5.683   3.089   7.908 -0.5935  0.1860  0.3648
  317MOL0     C43675   5.641   2.956   7.892  0.3781 -0.3105 -0.5946
  317MOL0     C43676   5.697   2.887   7.773 -0.1614 -1.3541  0.1523
  317MOL0     H43677   5.261   2.581   8.035  0.5837  0.2074 -1.8014
  317MOL0     H43678   5.195   2.362   8.075  0.2182 -1.4163  1.7696
  317MOL0     H43679   5.461   2.116   8.295  1.3495 -0.6161 -0.9911
  317MOL0     H43680   5.492   2.020   8.157  1.4952  1.0165  1.2555
  317MOL0     H43681   5.384   1.933   8.365  0.4636 -0.4607 -1.7055
  317MOL0     H43682   5.230   2.003   8.311  1.9749  4.5693  1.6014
  317MOL0     H43683   5.238   1.887   8.104 -2.2958 -0.9359  0.4920
  317MOL0     H43684   5.387   1.794   8.140  0.1942  1.0638  0.3652
  317MOL0     H43685   5.270   1.699   8.349 -1.7646 -1.2540 -0.4428
  317MOL0     H43686   5.128   1.787   8.301 -0.2397 -2.2441  3.5587
  317MOL0     H43687   5.249   1.557   8.150  2.3805  3.3796  0.2132
  317MOL0     H43688   5.127   1.670   8.082  3.6737 -1.2205 -2.4970
  317MOL0     H43689   4.975   1.614   8.267  3.1319  4.2084 -0.3000
  317MOL0     H43690   5.001   1.492   8.147  1.6524  2.3490 -3.7812
  317MOL0     H43691   5.180   1.386   8.299 -1.5286 -0.5500 -0.5878
  317MOL0     H43692   5.014   1.364   8.359  0.2237  1.9988  2.5178
  317MOL0     H43693   5.223   1.535   8.490  1.3134 -4.4871 -1.0652
  317MOL0     H43694   5.070   1.612   8.473  1.8062  0.7443  0.3700
  317MOL0     H43695   5.196   1.260   8.582  1.8216  0.7169  1.4978
  317MOL0     H43696   5.119   1.090   8.765 -0.2583 -1.5137 -1.5974
  317MOL0     H43697   4.976   1.042   8.686  0.2383 -0.3431  0.0621
  317MOL0     H43698   4.836   1.124   8.871  1.1743  0.3030 -0.8044
  317MOL0     H43699   4.946   0.990   8.919  1.3841 -0.8854  0.2909
  317MOL0     H43700   5.114   1.203   8.995 -0.0941 -1.4475  1.7580
  317MOL0     H43701   4.968   1.297   8.972 -1.4148  0.2010 -1.2257
  317MOL0     H43702   4.996   1.252   9.197  3.3749 -0.0757 -2.0094
  317MOL0     H43703   4.860   1.158   9.150 -0.0811  0.0734 -3.0834
  317MOL0     H43704   4.938   1.152   9.394 -2.8140 -0.3713  2.1660
  317MOL0     H43705   4.900   1.065   9.726 -1.5039  3.3622  0.0982
  317MOL0     H43706   4.757   1.016   9.642  0.3118  0.2054  1.0089
  317MOL0     H43707   4.844   1.164   9.586  0.2910 -0.0454 -0.7822
  317MOL0     H43708   4.891   0.362   9.640  0.5927 -0.2373  0.5134
  317MOL0     H43709   4.864   0.215   9.821 -2.2780  1.6636  0.3146
  317MOL0     H43710   5.096   0.168  10.082 -0.2751  0.6373 -0.1258
  317MOL0     H43711   5.081   0.299  10.180 -1.0654  0.4965 -1.3712
  317MOL0     H43712   4.920   0.193  10.332 -2.2555  0.6697 -2.7731
  317MOL0     H43713   4.920   0.052  10.222  1.0661 -0.7551 -0.3598
  317MOL0     H43714   5.157   0.167  10.378 -0.0935 -0.3495 -1.0640
  317MOL0     H43715   5.174   0.030  10.282  0.1085  1.0629 -0.1388
  317MOL0     H43716   4.983  -0.075  10.420 -1.2582  0.1387  1.3430
  317MOL0     H43717   4.985   0.057  10.532  2.3058 -0.3018  1.7211
  317MOL0     H43718   5.097  -0.173  10.610  2.2665  0.9016  4.0807
  317MOL0     H43719   5.237  -0.114  10.502  1.6809  0.1970  2.0413
  317MOL0     H43720   5.122  -0.006  10.762 -3.3423  3.0991 -2.2312
  317MOL0     H43721   5.221   0.092  10.646 -3.9546  1.6349  3.1627
  317MOL0     H43722   5.406  -0.050  10.666  0.4201 -1.7567  1.3025
  317MOL0     H43723   5.305  -0.178  10.734 -2.0030  0.1098 -1.4581
  317MOL0     H43724   5.464  -0.054  10.876 -0.3882 -2.0999  1.2160
  317MOL0     H43725   5.318  -0.097  10.954  0.2409 -2.1903 -2.5870
  317MOL0     H43726   4.968   0.534  10.088 -0.4896  5.3806 -2.5840
  317MOL0     H43727   4.986   0.681   9.929 -1.0022  1.1535 -2.7024
  317MOL0     H43728   5.032   0.680   9.436 -2.8272 -0.2828 -2.4074
  317MOL0     H43729   5.088   0.794   9.227  0.5955 -1.2972  1.1608
  317MOL0     H43730   5.600   2.244   8.153 -0.4365 -0.1875 -2.6567
  317MOL0     H43731   5.668   2.463   8.148 -0.0409 -2.1649  1.8279
  317MOL0     H43732   5.493   2.926   8.197  0.1732 -0.0567  0.9256
  317MOL0     H43733   5.550   3.144   8.215  0.1323  0.0521  0.6320
  317MOL0     H43734   5.651   3.427   8.152  0.5103  1.6532 -2.7227
  317MOL0     H43735   5.716   3.282   8.234  2.5359 -1.6569 -0.1162
  317MOL0     H43736   5.865   3.453   8.258  2.1090  1.6460 -0.4225
  317MOL0     H43737   5.873   3.486   8.078 -1.9287 -2.5368 -2.5275
  317MOL0     H43738   5.999   3.268   8.249 -4.1397  1.7457  0.7303
  317MOL0     H43739   5.984   3.250   8.067  0.1766  3.6928 -2.7752
  317MOL0     H43740   6.129   3.477   8.218  1.8823  2.0932 -0.6056
  317MOL0     H43741   6.122   3.466   8.040 -1.5588  3.9108  1.9514
  317MOL0     H43742   6.426   3.180   8.170  0.6562  1.9554  4.1441
  317MOL0     H43743   5.734   3.147   7.832 -0.8137 -1.4575 -1.0859
  317MOL0     H43744   5.645   2.881   7.677  1.1437 -3.4729 -0.4879
  317MOL0     H43745   5.795   2.923   7.742  0.8535 -4.6110 -0.8174
  317MOL0     H43746   5.719   2.785   7.806  0.0725 -0.2548  3.8220
  318MOL0     O43747   7.095   3.438   3.267 -0.3047 -0.0016 -0.5440
  318MOL0     C43748   7.211   3.411   3.292  0.2596 -0.2700 -0.0849
  318MOL0     O43749   7.315   3.457   3.221 -0.1447 -0.0316  0.7301
  318MOL0     C43750   7.287   3.545   3.118 -0.6851 -0.1557  0.5102
  318MOL0     C43751   7.230   3.508   2.995 -0.0508 -0.3310 -0.8683
  318MOL0     C43752   7.231   3.586   2.881  0.3593  0.2123  0.3326
  318MOL0     C43753   7.269   3.720   2.892 -0.2953  0.4127 -0.5038
  318MOL0     O43754   7.257   3.785   2.772 -0.7061 -0.3715 -0.5187
  318MOL0     C43755   7.289   3.918   2.754  0.2174 -0.1607  0.2208
  318MOL0     C43756   7.251   3.946   2.609  0.5850 -0.4599 -0.5473
  318MOL0     C43757   7.226   4.096   2.588 -0.2949 -0.7230  0.5102
  318MOL0     C43758   7.088   4.154   2.636  0.1809 -0.1587  0.8109
  318MOL0     C43759   7.101   4.306   2.637  0.2706 -0.9310 -0.1319
  318MOL0     C43760   6.993   4.378   2.717 -0.4145  0.0481 -0.1914
  318MOL0     C43761   6.848   4.364   2.662  0.4938  0.5075 -0.5061
  318MOL0     C43762   6.754   4.451   2.753  0.3877 -0.5713 -0.5712
  318MOL0     N43763   6.770   4.594   2.703  0.2066 -0.3689  0.0096
  318MOL0     C43764   6.693   4.660   2.612 -0.3232 -0.1942 -0.4482
  318MOL0     C43765   6.726   4.794   2.612 -0.6545 -0.5779 -0.6933
  318MOL0     C43766   6.672   4.910   2.538  0.0837 -0.1659  0.2947
  318MOL0     C43767   6.629   4.862   2.402 -0.1454 -0.5408  0.8727
  318MOL0     C43768   6.566   4.973   2.316  0.1483 -0.1000  0.0365
  318MOL0     C43769   6.440   5.042   2.366  0.3414  0.1398 -0.1732
  318MOL0     O43770   6.408   5.137   2.271  0.0584 -0.6817  0.1971
  318MOL0     C43771   6.408   5.266   2.324 -0.6009  0.2347 -0.0080
  318MOL0     C43772   6.496   5.367   2.272 -0.0300  0.6295 -0.1372
  318MOL0     C43773   6.498   5.492   2.336 -0.7197  0.5597 -0.1619
  318MOL0     C43774   6.590   5.591   2.271  0.1612  0.1834  0.1457
  318MOL0     C43775   6.409   5.523   2.444 -0.3061  0.3411 -0.0589
  318MOL0     C43776   6.417   5.654   2.509 -0.1884  0.6414 -0.7768
  318MOL0     O43777   6.539   5.712   2.517 -0.1698  0.7758 -0.0060
  318MOL0     C43778   6.558   5.838   2.553  0.2445 -0.2971 -0.2184
  318MOL0     C43779   6.672   5.873   2.626 -0.1620 -0.1112  0.4845
  318MOL0     C43780   6.704   6.009   2.654  0.0906  0.3883 -0.1420
  318MOL0     C43781   6.622   6.111   2.595 -0.0746 -0.0399 -0.0475
  318MOL0     O43782   6.636   6.248   2.616 -0.0988  0.2154 -0.8675
  318MOL0     C43783   6.772   6.296   2.636 -0.5016  0.0883  0.2683
  318MOL0     C43784   6.775   6.451   2.629 -0.5934  0.9060 -0.3978
  318MOL0     C43785   6.733   6.495   2.771  0.0226  0.0266  0.7966
  318MOL0     C43786   6.728   6.648   2.797 -0.3877 -0.1841  0.4487
  318MOL0     C43787   6.730   6.693   2.943 -0.0962  0.6901 -0.1524
  318MOL0     C43788   6.850   6.637   3.014  0.3460  0.7422 -0.4638
  318MOL0     C43789   6.858   6.711   3.148 -0.2365 -0.2679  0.0804
  318MOL0     C43790   6.939   6.836   3.155  0.3034 -0.8160  0.1653
  318MOL0    Cl43791   7.117   6.800   3.134  0.1719 -0.0208 -0.0243
  318MOL0     C43792   6.512   6.080   2.519 -0.2536 -0.2149 -0.1704
  318MOL0     C43793   6.487   5.942   2.487 -0.5341 -0.1511 -0.0559
  318MOL0     O43794   6.314   5.704   2.556  0.0604 -0.4185  0.3222
  318MOL0     C43795   6.330   5.420   2.490  0.2301 -0.0050 -0.6542
  318MOL0     C43796   6.322   5.292   2.435 -0.3704  0.5589 -0.2953
  318MOL0     N43797   6.822   4.815   2.708  0.0264  0.2703 -0.0607
  318MOL0     N43798   6.839   4.693   2.766 -0.2916 -0.5069 -0.9246
  318MOL0     C43799   7.305   3.774   3.019  0.3825  0.8522 -0.0721
  318MOL0     C43800   7.323   3.683   3.131  0.2146 -1.1616  0.1410
  318MOL0     C43801   7.241   3.310   3.398 -1.0157  0.4472  0.8869
  318MOL0     C43802   7.365   3.251   3.381 -0.8558 -0.4714 -0.5194
  318MOL0     C43803   7.400   3.141   3.453  0.2677  0.0495 -1.2594
  318MOL0     C43804   7.315   3.088   3.552  0.4112  0.6636  0.0203
  318MOL0     O43805   7.337   2.965   3.606 -0.3925  0.0395 -0.4608
  318MOL0     C43806   7.215   2.890   3.652  1.2711  0.4834 -0.3058
  318MOL0     C43807   7.101   2.866   3.542  0.2349  0.0973 -0.6747
  318MOL0     C43808   6.958   2.834   3.611  0.0737 -0.6206 -0.5574
  318MOL0     C43809   6.937   2.681   3.634  0.4122 -0.8147 -0.4713
  318MOL0     C43810   7.047   2.628   3.718  0.0869  0.1359 -0.6974
  318MOL0     C43811   7.145   2.603   3.787  0.3355 -0.0191 -0.2695
  318MOL0     C43812   7.201   3.164   3.581  0.7249 -0.2413  0.2386
  318MOL0     C43813   7.164   3.273   3.506  0.8291  0.7301  0.3241
  318MOL0     C43814   7.031   3.343   3.546 -0.1765  0.0958 -0.2539
  318MOL0     H43815   7.188   3.408   2.990 -1.9458  0.3983 -0.4671
  318MOL0     H43816   7.187   3.565   2.784  2.0282  2.9060 -1.1447
  318MOL0     H43817   7.397   3.935   2.761 -0.0347  2.2693 -0.8103
  318MOL0     H43818   7.238   3.986   2.823  3.5065  2.8031  0.0388
  318MOL0     H43819   7.317   3.902   2.534  2.5460 -0.3974  1.0650
  318MOL0     H43820   7.161   3.886   2.594  0.1322  0.3083 -0.9702
  318MOL0     H43821   7.308   4.158   2.623 -0.2464 -0.0669 -0.7042
  318MOL0     H43822   7.234   4.112   2.480  0.4256  2.0392  0.9059
  318MOL0     H43823   7.012   4.119   2.566  0.7964 -0.5907  0.3469
  318MOL0     H43824   7.060   4.125   2.738 -3.2837 -1.0299 -0.2383
  318MOL0     H43825   7.092   4.353   2.539  0.2173  2.8504  1.5036
  318MOL0     H43826   7.198   4.339   2.677  0.0762 -2.8536  2.1190
  318MOL0     H43827   6.995   4.338   2.819  2.3269 -2.8433 -1.2216
  318MOL0     H43828   7.017   4.485   2.715 -0.2928  0.0452  0.7137
  318MOL0     H43829   6.821   4.260   2.677 -2.0190  0.9741 -1.3308
  318MOL0     H43830   6.838   4.369   2.553  3.0245 -3.1358 -1.0978
  318MOL0     H43831   6.650   4.418   2.746  0.9102 -2.0295 -1.9566
  318MOL0     H43832   6.789   4.462   2.856  0.2982  2.2566 -0.7743
  318MOL0     H43833   6.629   4.620   2.534  2.7587 -0.5838 -2.9650
  318MOL0     H43834   6.748   4.988   2.529  0.5445 -0.3800  1.9464
  318MOL0     H43835   6.579   4.952   2.579  0.8284  2.0628 -0.1644
  318MOL0     H43836   6.721   4.831   2.352 -0.4531 -0.6957  0.3996
  318MOL0     H43837   6.552   4.785   2.409 -0.7206 -0.0673 -0.0177
  318MOL0     H43838   6.636   5.056   2.306 -1.3342  1.3645  1.1145
  318MOL0     H43839   6.543   4.932   2.217  0.7663  2.1862 -1.1134
  318MOL0     H43840   6.354   4.975   2.377  0.4328 -0.1853 -1.2306
  318MOL0     H43841   6.466   5.076   2.466 -0.0064  1.5235 -0.5321
  318MOL0     H43842   6.567   5.357   2.191  0.6166  2.0305  0.2356
  318MOL0     H43843   6.547   5.691   2.261  0.5522  0.2190 -1.3467
  318MOL0     H43844   6.633   5.563   2.175  3.9645 -1.4860  2.1249
  318MOL0     H43845   6.676   5.599   2.338 -1.5284 -0.9034  2.5777
  318MOL0     H43846   6.732   5.793   2.667  0.9001 -0.7892 -2.2300
  318MOL0     H43847   6.793   6.027   2.714 -1.0075  1.5615  1.2199
  318MOL0     H43848   6.809   6.246   2.726 -1.6088 -5.4380 -1.9060
  318MOL0     H43849   6.834   6.259   2.553  0.9296  0.4079  1.1455
  318MOL0     H43850   6.880   6.482   2.626 -0.4699  0.6946  0.9421
  318MOL0     H43851   6.713   6.492   2.549  3.1076  2.5496 -2.6320
  318MOL0     H43852   6.806   6.448   2.837  0.9498 -0.2845 -0.4032
  318MOL0     H43853   6.639   6.443   2.789 -1.0392  2.2745  2.1054
  318MOL0     H43854   6.642   6.691   2.744 -1.1125 -0.6750  1.2023
  318MOL0     H43855   6.813   6.695   2.747 -0.7431 -0.0504 -0.0389
  318MOL0     H43856   6.715   6.801   2.949  0.5311  0.6974  1.6259
  318MOL0     H43857   6.646   6.651   3.000  1.5659 -0.2990  1.6740
  318MOL0     H43858   6.935   6.665   2.951  0.3183 -1.5439 -1.6264
  318MOL0     H43859   6.848   6.528   3.013 -0.6143  0.7467 -2.1570
  318MOL0     H43860   6.896   6.651   3.231 -2.3647 -0.1908  1.1999
  318MOL0     H43861   6.755   6.735   3.178 -0.5625  0.0251 -1.2225
  318MOL0     H43862   6.919   6.871   3.257 -1.7041 -2.7164  0.4752
  318MOL0     H43863   6.891   6.904   3.083 -4.0075 -0.3061  3.1645
  318MOL0     H43864   6.453   6.161   2.480  3.4774  2.5753 -0.5777
  318MOL0     H43865   6.411   5.919   2.413  0.2486  1.6853 -1.5178
  318MOL0     H43866   6.261   5.435   2.574  0.2850  1.0303 -0.7786
  318MOL0     H43867   6.243   5.224   2.464  0.7433 -0.0610  1.4228
  318MOL0     H43868   7.330   3.880   3.025  0.9565  0.7456 -0.4425
  318MOL0     H43869   7.369   3.739   3.212  2.0022  4.3857 -4.0746
  318MOL0     H43870   7.438   3.290   3.311 -1.5859  1.4092 -0.2719
  318MOL0     H43871   7.499   3.103   3.429  0.1273 -0.3613 -1.1900
  318MOL0     H43872   7.266   2.808   3.702 -1.0125  0.2873  1.8746
  318MOL0     H43873   7.174   2.946   3.736 -0.7627  1.4470 -1.8617
  318MOL0     H43874   7.125   2.777   3.483  0.1120  0.6315 -1.5546
  318MOL0     H43875   7.090   2.947   3.470  0.5504  0.5405 -0.2302
  318MOL0     H43876   6.936   2.898   3.696 -0.5155  0.0656 -1.2089
  318MOL0     H43877   6.891   2.873   3.534 -1.8378 -0.1419  1.2815
  318MOL0     H43878   6.943   2.631   3.537 -1.0409 -0.4764 -0.7689
  318MOL0     H43879   6.841   2.668   3.684  1.3553 -1.7089  1.1771
  318MOL0     H43880   7.240   2.582   3.832  1.1475 -0.5394 -2.1593
  318MOL0     H43881   7.138   3.145   3.667  2.0698 -2.2273  0.8485
  318MOL0     H43882   7.000   3.330   3.650  1.3831  0.6177  0.3107
  318MOL0     H43883   7.045   3.451   3.532 -2.3211  0.4193 -0.3116
  318MOL0     H43884   6.950   3.312   3.479  0.8911 -3.7051 -0.0213
  319MOL0     O43885   8.300   9.706   9.793 -0.4470 -0.0718  0.1073
  319MOL0     C43886   8.212   9.787   9.782 -0.4506 -0.2760  0.5480
  319MOL0     O43887   8.238   9.921   9.745  0.4489  0.2670  0.0630
  319MOL0     C43888   8.370   9.960   9.729 -0.1348  0.3262 -0.6516
  319MOL0     C43889   8.448   9.945   9.610  0.1241  0.0460  0.2038
  319MOL0     C43890   8.578  10.010   9.608  0.9521 -0.6864  0.5818
  319MOL0     C43891   8.637  10.068   9.716 -0.1249 -0.0464  0.0611
  319MOL0     O43892   8.763  10.131   9.718 -0.2272  0.6825  0.4993
  319MOL0     C43893   8.861  10.115   9.613 -0.1058 -0.4363  0.2617
  319MOL0     C43894   8.910  10.256   9.583  0.9194  1.5824  0.1356
  319MOL0     C43895   8.828  10.297   9.457 -0.6145 -0.5734 -0.4669
  319MOL0     C43896   8.889  10.435   9.410 -0.8121 -0.4226 -0.7041
  319MOL0     C43897   8.814  10.495   9.292 -0.0733  0.8883  0.2296
  319MOL0     C43898   8.879  10.615   9.237  0.0965 -0.3179 -0.8048
  319MOL0     C43899   8.784  10.676   9.128  0.1686 -0.6678 -0.4433
  319MOL0     C43900   8.857  10.780   9.040 -0.1999  0.0057 -0.6414
  319MOL0     N43901   8.748  10.868   8.992  1.3181  0.6422 -0.4993
  319MOL0     C43902   8.764  11.002   8.980 -0.0726  0.0188  0.2334
  319MOL0     C43903   8.662  11.035   8.896 -0.9011  0.2674 -0.7658
  319MOL0     C43904   8.636  11.172   8.859  0.2847 -0.1989  0.0958
  319MOL0     C43905   8.498  11.225   8.911 -0.1514  0.4946 -0.5077
  319MOL0     C43906   8.499  11.372   8.862  0.3538 -0.3891  0.2451
  319MOL0     C43907   8.375  11.450   8.885  0.7551 -0.0594 -0.2401
  319MOL0     O43908   8.269  11.402   8.808  0.1048 -0.0024 -0.2318
  319MOL0     C43909   8.147  11.461   8.825  0.0883  0.6909 -0.1511
  319MOL0     C43910   8.112  11.586   8.891  0.3368  1.0366  0.0292
  319MOL0     C43911   7.986  11.645   8.892  0.4747  0.2649 -0.9170
  319MOL0     C43912   7.983  11.785   8.964 -0.0761  0.3072 -1.0985
  319MOL0     C43913   7.875  11.576   8.834  0.5952  0.3889 -0.9933
  319MOL0     C43914   7.734  11.612   8.844 -0.1788 -0.7478  0.1232
  319MOL0     O43915   7.641  11.517   8.827  0.5023 -0.3490  0.1599
  319MOL0     C43916   7.509  11.558   8.821 -0.0715 -0.1188 -0.2428
  319MOL0     C43917   7.421  11.566   8.934 -0.2714 -0.0941 -0.5193
  319MOL0     C43918   7.292  11.619   8.915  0.0729 -0.3931  0.3554
  319MOL0     C43919   7.249  11.645   8.788  0.1506  0.7534  0.6024
  319MOL0     O43920   7.118  11.694   8.760  0.0022  0.4689 -0.2435
  319MOL0     C43921   7.093  11.820   8.829 -0.6938  0.8799  0.0139
  319MOL0     C43922   6.988  11.912   8.756  0.4222  0.7991 -0.0730
  319MOL0     C43923   6.997  11.931   8.604  0.1999  0.1452 -0.1831
  319MOL0     C43924   6.939  11.821   8.515 -0.9182 -0.5598 -0.1038
  319MOL0     C43925   6.888  11.859   8.380  0.3280 -0.5378  0.0742
  319MOL0     C43926   6.989  11.886   8.275  0.5242  0.8150  0.8243
  319MOL0     C43927   6.924  11.909   8.141  0.6942  0.3402 -0.0739
  319MOL0     C43928   7.034  11.889   8.022  0.2367 -0.9282  0.2786
  319MOL0    Cl43929   7.069  11.714   7.996 -0.3213 -0.2067 -0.1764
  319MOL0     C43930   7.334  11.618   8.676  0.0486  0.5955  0.1604
  319MOL0     C43931   7.460  11.578   8.696 -0.3484  0.2943 -0.3951
  319MOL0     O43932   7.714  11.729   8.872  0.2052 -0.4150 -0.1501
  319MOL0     C43933   7.910  11.458   8.770  0.5843  0.6850  0.6515
  319MOL0     C43934   8.036  11.405   8.759 -0.2914 -0.3700  0.2712
  319MOL0     N43935   8.581  10.933   8.865  0.6712  0.1505 -0.3597
  319MOL0     N43936   8.634  10.825   8.921 -0.2515 -0.8681  0.9249
  319MOL0     C43937   8.557  10.077   9.836  0.6458  0.6014 -0.3110
  319MOL0     C43938   8.425  10.030   9.833 -0.4221  0.0555  0.0027
  319MOL0     C43939   8.082   9.750   9.839 -0.0268  0.8071  0.0401
  319MOL0     C43940   8.001   9.851   9.883  0.2733  0.1918 -1.2729
  319MOL0     C43941   7.884   9.828   9.956 -0.1718  0.2917 -0.1756
  319MOL0     C43942   7.830   9.703   9.981  0.4393  0.5440 -0.0213
  319MOL0     O43943   7.701   9.670  10.011  0.7701 -0.7290  0.3497
  319MOL0     C43944   7.628   9.772  10.091 -0.6039  0.2309  0.0021
  319MOL0     C43945   7.510   9.689  10.147  0.0393 -1.0113 -0.5887
  319MOL0     C43946   7.430   9.597  10.044  0.1120 -0.0004 -0.2674
  319MOL0     C43947   7.371   9.481  10.113 -0.0283 -0.6422  0.5042
  319MOL0     C43948   7.313   9.388  10.020  0.1468  0.6746  0.2790
  319MOL0     C43949   7.281   9.303   9.934 -0.1616  0.1506 -0.0117
  319MOL0     C43950   7.900   9.601   9.922 -0.0522 -0.2421  0.5821
  319MOL0     C43951   8.032   9.617   9.863  0.2663  0.7775 -0.1781
  319MOL0     C43952   8.109   9.491   9.830 -1.3999  0.0437  0.0615
  319MOL0     H43953   8.398   9.919   9.517  0.9045  0.4615 -0.3427
  319MOL0     H43954   8.637  10.004   9.517 -0.4263 -0.6204 -0.3605
  319MOL0     H43955   8.815  10.063   9.528 -2.2320 -1.0422  1.6916
  319MOL0     H43956   8.954  10.071   9.648  1.3532  0.6489 -2.0372
  319MOL0     H43957   8.894  10.319   9.671  0.5439 -0.2412  1.4336
  319MOL0     H43958   9.018  10.250   9.568  0.6220  0.8497 -2.1563
  319MOL0     H43959   8.840  10.219   9.381  4.3380 -3.9030  3.0882
  319MOL0     H43960   8.726  10.321   9.488  0.6213  4.4158  0.6226
  319MOL0     H43961   8.889  10.494   9.503  2.8014 -3.1080  1.2605
  319MOL0     H43962   8.993  10.421   9.379 -0.7847  1.4848 -1.6520
  319MOL0     H43963   8.712  10.521   9.321 -0.6218 -1.2406  0.3729
  319MOL0     H43964   8.832  10.425   9.209  0.5460  1.8076 -0.4407
  319MOL0     H43965   8.886  10.688   9.319  0.3412 -0.4509 -0.7089
  319MOL0     H43966   8.978  10.598   9.196  0.8910 -2.6515  1.8064
  319MOL0     H43967   8.695  10.716   9.177 -2.1993 -1.5252 -3.7035
  319MOL0     H43968   8.749  10.595   9.063 -0.2684 -1.7590  1.0926
  319MOL0     H43969   8.928  10.840   9.097  0.0595 -0.6317 -0.2825
  319MOL0     H43970   8.905  10.728   8.957 -0.9018  2.0546 -2.4132
  319MOL0     H43971   8.829  11.081   9.018  0.8870  0.2145 -1.7279
  319MOL0     H43972   8.644  11.183   8.751 -1.6235  3.7446  0.1661
  319MOL0     H43973   8.719  11.222   8.910 -0.7809  0.2405  1.4631
  319MOL0     H43974   8.410  11.175   8.869 -0.6620  0.0208  1.0914
  319MOL0     H43975   8.487  11.221   9.019 -5.0199  1.5555 -0.7638
  319MOL0     H43976   8.585  11.420   8.910  0.2700 -0.6349  0.6471
  319MOL0     H43977   8.513  11.381   8.754  0.9420  0.3448  0.3724
  319MOL0     H43978   8.366  11.446   8.994  1.7664  1.5834 -0.0786
  319MOL0     H43979   8.379  11.556   8.861 -1.2844 -0.3173 -2.1096
  319MOL0     H43980   8.193  11.638   8.940  1.9126 -0.6097 -0.7348
  319MOL0     H43981   7.917  11.788   9.051  1.8211  0.8857  0.3929
  319MOL0     H43982   7.947  11.864   8.897 -1.8018  0.4666 -0.0442
  319MOL0     H43983   8.073  11.817   9.018 -0.6515 -0.6201  0.4869
  319MOL0     H43984   7.464  11.545   9.031  0.8097  1.6222 -0.5840
  319MOL0     H43985   7.222  11.612   8.997  2.4804  0.0808  2.5925
  319MOL0     H43986   7.075  11.811   8.936  0.0296  1.4323  0.1992
  319MOL0     H43987   7.182  11.884   8.834 -2.6306  3.6515  1.8488
  319MOL0     H43988   6.892  11.879   8.795  1.9796 -1.9617  1.7543
  319MOL0     H43989   6.998  12.013   8.798 -2.8201  1.2872 -0.1997
  319MOL0     H43990   7.103  11.937   8.578  0.1692 -0.2610 -0.4048
  319MOL0     H43991   6.948  12.024   8.575  2.5254  0.6336 -3.0193
  319MOL0     H43992   6.860  11.764   8.566  0.3939  1.3549  4.6644
  319MOL0     H43993   7.014  11.743   8.498 -0.0349  0.9168 -4.0288
  319MOL0     H43994   6.824  11.776   8.347 -0.0918  0.4229 -1.6166
  319MOL0     H43995   6.825  11.947   8.391  0.4873 -0.6862  3.0629
  319MOL0     H43996   7.046  11.793   8.269 -0.6242  0.0805  1.0073
  319MOL0     H43997   7.062  11.963   8.302  0.0133  1.3681  0.6284
  319MOL0     H43998   6.878  12.007   8.129  1.4450  0.5647 -1.1675
  319MOL0     H43999   6.845  11.836   8.121  0.5292  0.4414  0.2016
  319MOL0     H44000   7.124  11.949   8.039 -1.4604  2.0564 -0.3774
  319MOL0     H44001   6.985  11.939   7.938 -3.8644  2.1860  4.0069
  319MOL0     H44002   7.298  11.625   8.573  1.5961 -3.6626 -0.8761
  319MOL0     H44003   7.511  11.541   8.608 -2.0239 -1.8284 -0.5483
  319MOL0     H44004   7.837  11.392   8.725  1.7551 -0.2604  0.0741
  319MOL0     H44005   8.041  11.313   8.702  0.6975  0.5810 -1.2421
  319MOL0     H44006   8.590  10.122   9.930  3.1986 -1.0942 -0.2702
  319MOL0     H44007   8.358  10.027   9.918  1.4161 -2.4127  1.5005
  319MOL0     H44008   8.021   9.956   9.862 -1.7644  0.8437 -0.1242
  319MOL0     H44009   7.833   9.915   9.997  0.5110  0.2464  0.8024
  319MOL0     H44010   7.697   9.793  10.174  0.3569  1.9992 -1.1947
  319MOL0     H44011   7.598   9.867  10.046 -1.8500 -0.2128 -0.1352
  319MOL0     H44012   7.436   9.754  10.193  2.0642  0.3002  0.9984
  319MOL0     H44013   7.541   9.621  10.227 -4.9593 -1.5403  1.2216
  319MOL0     H44014   7.358   9.657   9.986  0.5601  0.9391  0.1360
  319MOL0     H44015   7.502   9.546   9.980  1.1256  0.4470  0.5032
  319MOL0     H44016   7.298   9.522  10.183 -0.1213 -0.4378  0.2865
  319MOL0     H44017   7.446   9.445  10.185 -0.6323 -0.6498  1.1416
  319MOL0     H44018   7.249   9.226   9.867  0.1529 -1.5142  1.6566
  319MOL0     H44019   7.851   9.505   9.939  0.4802 -0.8743 -1.1979
  319MOL0     H44020   8.047   9.402   9.813 -1.7383  0.1995  0.4717
  319MOL0     H44021   8.180   9.504   9.748  2.0901 -2.2488  2.4755
  319MOL0     H44022   8.169   9.463   9.917 -0.2972 -0.8957 -0.9658
  320MOL0     O44023   8.909   2.094   5.674  0.8181  0.3532 -0.0680
  320MOL0     C44024   8.845   2.065   5.772 -0.5961 -0.3078  0.2413
  320MOL0     O44025   8.846   2.144   5.884 -0.0117 -0.0656  0.1304
  320MOL0     C44026   8.921   2.250   5.899 -1.3229  0.9838  0.4415
  320MOL0     C44027   9.058   2.237   5.924 -0.3678 -0.3734  0.4952
  320MOL0     C44028   9.131   2.349   5.938  0.4573 -0.1406  0.7807
  320MOL0     C44029   9.075   2.477   5.917  0.8727 -0.1616 -0.5775
  320MOL0     O44030   9.166   2.576   5.906  0.2304 -0.1744  0.6337
  320MOL0     C44031   9.121   2.688   5.821  0.4777 -0.7829  0.9957
  320MOL0     C44032   9.227   2.784   5.774 -1.0445 -0.0221 -0.1937
  320MOL0     C44033   9.175   2.904   5.705  0.0252 -0.0915 -0.7902
  320MOL0     C44034   9.278   2.981   5.627  1.3647  0.2013  0.8732
  320MOL0     C44035   9.220   3.109   5.547 -0.5677 -0.3809  1.2427
  320MOL0     C44036   9.186   3.234   5.627  0.3072 -0.2289  0.9845
  320MOL0     C44037   9.318   3.284   5.690  0.7421 -0.0136  0.2929
  320MOL0     C44038   9.314   3.435   5.719  0.6440  0.1986 -0.8363
  320MOL0     N44039   9.336   3.508   5.600 -0.7204 -0.8214  0.0708
  320MOL0     C44040   9.421   3.479   5.498  0.2499 -0.1882  0.3462
  320MOL0     C44041   9.403   3.581   5.404  1.1577  0.3315  0.2920
  320MOL0     C44042   9.473   3.608   5.274  0.1662 -0.6601 -0.1362
  320MOL0     C44043   9.371   3.604   5.160  0.3126  0.1676  0.6338
  320MOL0     C44044   9.289   3.475   5.150  0.5832  1.0576  1.2660
  320MOL0     C44045   9.160   3.499   5.060 -0.6954  1.3838 -0.1454
  320MOL0     O44046   9.084   3.377   5.065  0.5507  0.0453  0.5794
  320MOL0     C44047   9.117   3.264   4.997  0.6678 -0.4268 -0.0976
  320MOL0     C44048   9.044   3.151   5.032 -0.2034  0.0327  0.0825
  320MOL0     C44049   9.063   3.025   4.969 -0.2387  1.0424  0.2439
  320MOL0     C44050   8.962   2.920   5.011  0.0004  0.4269 -0.5112
  320MOL0     C44051   9.168   3.012   4.867 -0.4076 -0.3175 -0.0037
  320MOL0     C44052   9.175   2.895   4.776  0.3492  0.2163  0.1703
  320MOL0     O44053   9.266   2.904   4.671  0.3484 -0.4334  0.1606
  320MOL0     C44054   9.297   2.788   4.610  0.5042 -0.1544  0.3206
  320MOL0     C44055   9.378   2.714   4.689  0.0473 -0.2622 -0.1380
  320MOL0     C44056   9.418   2.585   4.646 -0.4587  0.4529 -1.0390
  320MOL0     C44057   9.394   2.537   4.524 -0.0294 -0.5092 -1.3031
  320MOL0     O44058   9.440   2.413   4.493 -0.7804 -0.6505  0.1583
  320MOL0     C44059   9.383   2.336   4.381 -0.3471 -0.2914 -0.1353
  320MOL0     C44060   9.461   2.207   4.365 -0.4001  0.0719 -0.4384
  320MOL0     C44061   9.474   2.136   4.504  0.8835  0.9623  0.3697
  320MOL0     C44062   9.534   2.000   4.515  0.1020  0.1886 -1.1288
  320MOL0     C44063   9.693   2.008   4.515  0.3815 -0.5208 -0.3920
  320MOL0     C44064   9.747   1.861   4.539  0.0255 -0.4314 -0.2824
  320MOL0     C44065   9.733   1.785   4.415  0.0053  0.5574 -0.5119
  320MOL0     C44066   9.822   1.667   4.418  0.0201  0.8235 -0.9031
  320MOL0    Cl44067   9.967   1.699   4.319  0.3274  0.0100 -0.1055
  320MOL0     C44068   9.306   2.614   4.442  0.5403  0.6783 -0.1598
  320MOL0     C44069   9.257   2.741   4.485  0.3457  0.7883 -0.5603
  320MOL0     O44070   9.090   2.804   4.789 -0.4771 -0.3414  0.0682
  320MOL0     C44071   9.250   3.126   4.843  0.4475 -0.0503  0.1942
  320MOL0     C44072   9.223   3.252   4.907  0.4166  0.0516 -0.1404
  320MOL0     N44073   9.300   3.669   5.446 -0.8748  0.7027 -0.0740
  320MOL0     N44074   9.265   3.614   5.559  0.2343  0.1558  0.5432
  320MOL0     C44075   8.941   2.484   5.891  1.3211  0.0032  0.4251
  320MOL0     C44076   8.863   2.372   5.883  0.1609  0.0746 -0.1885
  320MOL0     C44077   8.789   1.925   5.785  0.1963  0.5506 -0.1593
  320MOL0     C44078   8.847   1.831   5.700  0.8603  0.0167 -0.2708
  320MOL0     C44079   8.786   1.702   5.683 -0.2714 -0.5806 -0.5856
  320MOL0     C44080   8.673   1.677   5.766  0.6300  0.5328 -0.2601
  320MOL0     O44081   8.639   1.542   5.758  0.1405 -0.4933 -0.7336
  320MOL0     C44082   8.515   1.500   5.817 -0.5545  0.4626  0.0968
  320MOL0     C44083   8.478   1.370   5.768  0.0951  0.9605 -0.1573
  320MOL0     C44084   8.573   1.250   5.778 -1.6334  0.1528 -1.0947
  320MOL0     C44085   8.598   1.205   5.919  0.1795  0.1400 -0.3406
  320MOL0     C44086   8.688   1.087   5.921  1.2246  0.0412  0.2475
  320MOL0     C44087   8.752   0.982   5.904  0.2908 -0.5328  0.0144
  320MOL0     C44088   8.617   1.770   5.849  0.6746  0.5878  0.2200
  320MOL0     C44089   8.675   1.895   5.863  0.6224 -0.4225 -0.1267
  320MOL0     C44090   8.623   1.990   5.970 -0.2286  0.3188  0.2397
  320MOL0     H44091   9.099   2.140   5.949 -1.4987 -0.9784  0.0575
  320MOL0     H44092   9.237   2.337   5.961  0.5793  1.8137  1.3995
  320MOL0     H44093   9.041   2.747   5.868  0.6606  1.7360 -1.6491
  320MOL0     H44094   9.075   2.645   5.731 -1.5241 -1.1020  2.1038
  320MOL0     H44095   9.291   2.816   5.857 -1.5084 -1.1361  0.6169
  320MOL0     H44096   9.287   2.721   5.707  1.7929  1.8801  0.3694
  320MOL0     H44097   9.092   2.870   5.642 -1.7305  0.2297  1.2452
  320MOL0     H44098   9.135   2.964   5.787  2.5215 -0.7106  0.9821
  320MOL0     H44099   9.358   3.014   5.694  1.6702  0.9735  0.1574
  320MOL0     H44100   9.327   2.915   5.555  0.8282  1.4071 -0.6808
  320MOL0     H44101   9.136   3.094   5.480 -0.1792 -0.5936  0.7974
  320MOL0     H44102   9.298   3.138   5.476 -2.3829  3.4647  0.5795
  320MOL0     H44103   9.155   3.315   5.560 -0.7055 -1.0155  0.4713
  320MOL0     H44104   9.111   3.209   5.704 -1.7329 -0.7143 -1.0641
  320MOL0     H44105   9.404   3.249   5.633 -0.1574 -2.1508  0.1686
  320MOL0     H44106   9.327   3.231   5.785 -1.1766  1.6536  1.5011
  320MOL0     H44107   9.217   3.463   5.761  1.3800  1.0575  0.3523
  320MOL0     H44108   9.393   3.468   5.787 -0.4999 -0.7266  1.0369
  320MOL0     H44109   9.488   3.394   5.495 -0.0225 -0.5322  2.5250
  320MOL0     H44110   9.556   3.538   5.263  0.5239 -0.5123  1.4097
  320MOL0     H44111   9.525   3.704   5.284  1.2125 -1.0289 -1.6879
  320MOL0     H44112   9.301   3.687   5.166  0.1705  0.2225 -1.1851
  320MOL0     H44113   9.425   3.623   5.067 -1.9103  3.3247 -0.1962
  320MOL0     H44114   9.355   3.397   5.112 -0.2170  1.3712 -0.8812
  320MOL0     H44115   9.263   3.432   5.247  0.1143 -2.2758 -0.2124
  320MOL0     H44116   9.098   3.576   5.106 -1.7065 -0.8042  2.4147
  320MOL0     H44117   9.175   3.530   4.956  0.4804 -0.0861 -0.4608
  320MOL0     H44118   8.964   3.166   5.104  0.1076  1.3256  0.1843
  320MOL0     H44119   8.912   2.949   5.104  1.4852  3.1074 -0.4503
  320MOL0     H44120   9.021   2.832   5.037 -0.7316 -0.4844 -1.8349
  320MOL0     H44121   8.890   2.906   4.930 -1.6446  2.6709  0.4510
  320MOL0     H44122   9.424   2.740   4.784  1.2202 -0.8971 -0.5093
  320MOL0     H44123   9.464   2.516   4.716 -1.1230  0.9114 -0.1224
  320MOL0     H44124   9.278   2.306   4.385 -1.0680  2.0009  0.0288
  320MOL0     H44125   9.411   2.390   4.290  1.6830 -1.0607 -0.0216
  320MOL0     H44126   9.420   2.146   4.284  1.8619 -1.8761 -0.2376
  320MOL0     H44127   9.567   2.225   4.344 -0.1097 -0.1570  0.7570
  320MOL0     H44128   9.369   2.131   4.537  0.5066 -7.7344  0.2054
  320MOL0     H44129   9.528   2.199   4.575 -2.8422  2.2798  2.3035
  320MOL0     H44130   9.514   1.942   4.425  2.2094 -2.5990  0.0629
  320MOL0     H44131   9.495   1.938   4.595  1.5728 -2.7145 -2.5220
  320MOL0     H44132   9.725   2.056   4.422 -0.6250 -1.6011 -1.3313
  320MOL0     H44133   9.723   2.078   4.593  1.5805 -1.5949  0.1481
  320MOL0     H44134   9.686   1.821   4.621 -0.3285  1.2024  0.3102
  320MOL0     H44135   9.853   1.860   4.566  0.5670 -2.2792 -2.2115
  320MOL0     H44136   9.754   1.857   4.335 -0.9359 -0.2545 -1.5293
  320MOL0     H44137   9.633   1.741   4.410  0.5494 -0.8413  0.3366
  320MOL0     H44138   9.768   1.579   4.381  0.5813 -0.4849  1.2547
  320MOL0     H44139   9.863   1.640   4.515 -1.3345 -2.6012 -1.1447
  320MOL0     H44140   9.273   2.581   4.344 -1.2001  2.6064 -0.3016
  320MOL0     H44141   9.188   2.807   4.434 -0.4574 -0.1988 -0.7973
  320MOL0     H44142   9.338   3.126   4.779  0.8355  1.7271  0.6438
  320MOL0     H44143   9.278   3.335   4.865 -1.0099  0.8327 -0.5541
  320MOL0     H44144   8.890   2.575   5.862  1.8971 -0.4678 -2.3500
  320MOL0     H44145   8.757   2.380   5.860 -0.4253 -0.9593  1.9383
  320MOL0     H44146   8.928   1.862   5.634  2.1339  0.4595  1.4443
  320MOL0     H44147   8.825   1.629   5.613 -1.4309 -0.0185 -1.8596
  320MOL0     H44148   8.526   1.493   5.926  0.1082  0.1485  0.0181
  320MOL0     H44149   8.430   1.564   5.793 -1.2949 -0.6164 -0.2320
  320MOL0     H44150   8.450   1.378   5.663  4.9096 -3.1867 -2.2238
  320MOL0     H44151   8.387   1.346   5.824  0.0239 -0.8696 -0.9577
  320MOL0     H44152   8.537   1.168   5.715 -2.4724 -0.0668 -0.3364
  320MOL0     H44153   8.672   1.273   5.736 -1.0770 -1.4392 -0.7077
  320MOL0     H44154   8.508   1.174   5.972  0.8634  0.1868  0.8986
  320MOL0     H44155   8.647   1.287   5.974 -0.9552  0.4712  0.1912
  320MOL0     H44156   8.790   0.888   5.870  0.6764 -0.3267 -0.1274
  320MOL0     H44157   8.529   1.748   5.909  1.0360  0.3932  0.6849
  320MOL0     H44158   8.696   1.973   6.049 -0.6548 -2.3262  0.1487
  320MOL0     H44159   8.623   2.093   5.932 -1.2545 -0.0096 -0.7287
  320MOL0     H44160   8.522   1.967   6.004 -0.9142  0.1682 -1.7426
  321MOL0     O44161   0.155   5.296   5.417 -0.2627 -0.1262 -0.2585
  321MOL0     C44162   0.133   5.411   5.370 -0.0177 -0.2842 -0.1663
  321MOL0     O44163   0.018   5.479   5.381  0.1523  0.1505 -0.0431
  321MOL0     C44164  -0.098   5.427   5.433 -1.3787 -1.0154 -0.3938
  321MOL0     C44165  -0.139   5.299   5.395  0.5721  0.1225 -0.3474
  321MOL0     C44166  -0.252   5.246   5.458  0.1149 -0.2393 -0.1554
  321MOL0     C44167  -0.328   5.321   5.548 -0.4077  0.7278 -0.3967
  321MOL0     O44168  -0.427   5.248   5.612  0.1664  0.4337  1.1513
  321MOL0     C44169  -0.437   5.266   5.751 -0.2712  0.3425  0.6617
  321MOL0     C44170  -0.519   5.145   5.809 -0.3236  0.2785  0.4120
  321MOL0     C44171  -0.533   5.150   5.961 -0.5294  0.4372 -0.2279
  321MOL0     C44172  -0.591   5.270   6.019 -0.5190  0.2081 -0.4664
  321MOL0     C44173  -0.633   5.255   6.163 -1.0973  0.4159  0.2172
  321MOL0     C44174  -0.707   5.380   6.211  0.5421 -0.0134 -0.1848
  321MOL0     C44175  -0.744   5.395   6.359 -1.1022  0.8494  0.6057
  321MOL0     C44176  -0.823   5.524   6.397 -0.7281 -0.0971  0.1595
  321MOL0     N44177  -0.881   5.525   6.531  0.6192  0.1245 -0.2771
  321MOL0     C44178  -0.954   5.422   6.590 -0.5077  0.3824 -0.4216
  321MOL0     C44179  -0.981   5.473   6.720  0.7944  0.0460 -0.1882
  321MOL0     C44180  -1.055   5.406   6.829 -1.0286 -0.2186 -0.8644
  321MOL0     C44181  -1.178   5.480   6.846 -0.5413  0.3481  0.3068
  321MOL0     C44182  -1.273   5.402   6.934 -0.3962 -0.3331  0.2824
  321MOL0     C44183  -1.386   5.489   6.971 -0.7250 -0.9109  0.3246
  321MOL0     O44184  -1.489   5.404   7.002 -0.0868  0.4667 -0.0044
  321MOL0     C44185  -1.598   5.465   7.065  0.3064 -0.0199  0.0494
  321MOL0     C44186  -1.648   5.384   7.170 -0.2503 -0.2852 -0.5396
  321MOL0     C44187  -1.768   5.412   7.232 -0.0660 -0.8508  0.7596
  321MOL0     C44188  -1.813   5.306   7.328  0.0408 -0.2691 -0.1532
  321MOL0     C44189  -1.842   5.527   7.188  0.0396  0.3377 -0.4918
  321MOL0     C44190  -1.964   5.574   7.255  0.4499  0.2808  0.4688
  321MOL0     O44191  -1.984   5.521   7.374  0.1957  0.4200 -0.0951
  321MOL0     C44192  -2.052   5.604   7.469  0.2683  0.8714 -0.3450
  321MOL0     C44193  -2.199   5.597   7.464  0.6755 -0.9125  0.0287
  321MOL0     C44194  -2.266   5.654   7.575  0.8311  0.4584  0.2086
  321MOL0     C44195  -2.205   5.744   7.662  0.6957 -0.6167 -0.2116
  321MOL0     O44196  -2.279   5.804   7.754  0.1330  0.5682  0.1539
  321MOL0     C44197  -2.386   5.887   7.708 -0.1415 -0.5931  0.0420
  321MOL0     C44198  -2.460   5.943   7.830  0.3584  0.1364  0.8019
  321MOL0     C44199  -2.388   6.052   7.912 -0.2343 -0.2252 -0.8683
  321MOL0     C44200  -2.452   6.187   7.904 -0.9381  0.1559 -0.0955
  321MOL0     C44201  -2.464   6.243   7.762 -0.1904 -0.0925 -0.9318
  321MOL0     C44202  -2.587   6.340   7.775 -0.0217  0.5853 -0.0620
  321MOL0     C44203  -2.609   6.419   7.644 -0.7471  0.6634 -1.2464
  321MOL0     C44204  -2.742   6.496   7.668 -0.2238 -0.6105 -0.0270
  321MOL0    Cl44205  -2.720   6.629   7.779  0.5163 -0.7251  0.1449
  321MOL0     C44206  -2.066   5.763   7.656 -0.5804 -1.3760  0.0666
  321MOL0     C44207  -1.993   5.685   7.567  0.2094 -0.0966  0.6180
  321MOL0     O44208  -2.039   5.660   7.209  0.8057  0.0790  0.1932
  321MOL0     C44209  -1.791   5.610   7.080  0.5316  0.4926  0.0294
  321MOL0     C44210  -1.674   5.570   7.017 -0.2447 -0.1800  0.6558
  321MOL0     N44211  -0.924   5.598   6.727 -0.0429 -0.0438  0.1552
  321MOL0     N44212  -0.857   5.630   6.619  0.4493  0.3590 -0.3274
  321MOL0     C44213  -0.285   5.453   5.583  0.1776  0.0702  0.5950
  321MOL0     C44214  -0.174   5.502   5.523 -0.7479  0.0277  0.7798
  321MOL0     C44215   0.251   5.477   5.300 -1.0054  0.1092  1.1898
  321MOL0     C44216   0.220   5.579   5.214 -0.7077  0.4444  0.7366
  321MOL0     C44217   0.312   5.635   5.132  0.2903 -0.1533 -0.8927
  321MOL0     C44218   0.449   5.609   5.146 -0.2973  1.1734  0.5880
  321MOL0     O44219   0.525   5.680   5.053 -0.0018 -0.0571 -0.7378
  321MOL0     C44220   0.672   5.669   5.044  0.3227 -0.2545  0.1017
  321MOL0     C44221   0.701   5.534   4.980 -0.6298 -1.0668  1.1911
  321MOL0     C44222   0.851   5.516   4.961  0.1515  0.8345 -0.1995
  321MOL0     C44223   0.869   5.425   4.835 -1.6635 -0.3583 -0.5137
  321MOL0     C44224   0.840   5.502   4.714 -0.1644  0.1303  0.2547
  321MOL0     C44225   0.831   5.561   4.616  0.6187  0.2836  0.4809
  321MOL0     C44226   0.486   5.504   5.232  0.4858  0.0689  0.4016
  321MOL0     C44227   0.393   5.437   5.309  1.1778 -0.6098 -0.2679
  321MOL0     C44228   0.431   5.314   5.383 -0.8889  0.4671 -0.0287
  321MOL0     H44229  -0.078   5.237   5.331  0.2885 -1.6511  1.0170
  321MOL0     H44230  -0.287   5.146   5.437 -2.8257  0.5443  0.5205
  321MOL0     H44231  -0.489   5.360   5.770  1.9958  1.1007  4.1636
  321MOL0     H44232  -0.340   5.258   5.801 -1.4066 -2.4751  2.7220
  321MOL0     H44233  -0.618   5.134   5.763 -0.2804 -4.2460  1.0116
  321MOL0     H44234  -0.465   5.057   5.775  0.0022  1.4796 -2.4610
  321MOL0     H44235  -0.601   5.065   5.973  0.3932 -0.6150 -1.9806
  321MOL0     H44236  -0.435   5.144   6.010 -0.7823  4.2891  1.0426
  321MOL0     H44237  -0.524   5.357   6.017  0.3101 -0.3410  1.2073
  321MOL0     H44238  -0.677   5.298   5.957 -3.4382  1.7319  3.7472
  321MOL0     H44239  -0.550   5.221   6.225 -0.5168 -0.4706 -1.0085
  321MOL0     H44240  -0.696   5.167   6.176 -0.0269 -0.5080 -0.6647
  321MOL0     H44241  -0.649   5.469   6.182 -1.5287  1.0189 -1.3938
  321MOL0     H44242  -0.798   5.389   6.151  1.9326  0.7254 -2.2808
  321MOL0     H44243  -0.657   5.396   6.424  0.4320 -0.0094 -1.3197
  321MOL0     H44244  -0.806   5.308   6.383 -2.6152  1.8978  0.6540
  321MOL0     H44245  -0.760   5.612   6.388 -0.8107 -0.1559 -1.1502
  321MOL0     H44246  -0.897   5.551   6.321 -2.2698  0.4577  1.7921
  321MOL0     H44247  -0.996   5.333   6.544 -1.9305  1.5846 -1.5566
  321MOL0     H44248  -1.002   5.405   6.924 -1.0713  0.2545 -0.8319
  321MOL0     H44249  -1.078   5.304   6.797  0.8551 -0.9466 -0.0239
  321MOL0     H44250  -1.160   5.581   6.885 -2.0734 -0.5486  3.7256
  321MOL0     H44251  -1.233   5.487   6.752 -0.0277  1.7938  0.0982
  321MOL0     H44252  -1.310   5.308   6.892 -1.3874 -0.4319  1.3212
  321MOL0     H44253  -1.221   5.367   7.024 -0.2572  0.9464  0.7180
  321MOL0     H44254  -1.367   5.528   7.072 -4.1460 -2.6531  1.8539
  321MOL0     H44255  -1.412   5.569   6.901  1.2038  0.4007  1.0475
  321MOL0     H44256  -1.590   5.302   7.211 -3.0217 -2.1667 -0.0802
  321MOL0     H44257  -1.922   5.290   7.330 -0.0278  0.2168  0.1043
  321MOL0     H44258  -1.780   5.347   7.424 -1.3261  0.3509  0.0876
  321MOL0     H44259  -1.763   5.210   7.317 -1.1273 -0.6504 -3.2993
  321MOL0     H44260  -2.262   5.541   7.396 -1.1844 -0.9592  1.7053
  321MOL0     H44261  -2.374   5.663   7.585  0.6543 -2.0369  1.0401
  321MOL0     H44262  -2.340   5.958   7.639 -0.1260 -1.3308 -0.7214
  321MOL0     H44263  -2.455   5.825   7.650  0.0311 -2.1594  1.4371
  321MOL0     H44264  -2.550   5.995   7.798 -0.7753 -0.4519  2.8865
  321MOL0     H44265  -2.487   5.862   7.898 -1.2060 -0.4494 -0.4715
  321MOL0     H44266  -2.280   6.043   7.894 -0.5007 -0.5747 -2.4534
  321MOL0     H44267  -2.399   6.018   8.015 -2.9885 -1.5904 -1.5267
  321MOL0     H44268  -2.402   6.255   7.973 -2.4345 -0.5744  1.7912
  321MOL0     H44269  -2.551   6.166   7.946 -2.8139  0.0217 -4.0751
  321MOL0     H44270  -2.369   6.295   7.745 -0.2137  0.1832 -0.2440
  321MOL0     H44271  -2.457   6.161   7.689  1.5031 -1.2600  0.4564
  321MOL0     H44272  -2.573   6.411   7.858  1.2303  0.8244 -0.4621
  321MOL0     H44273  -2.677   6.283   7.802  1.3718 -1.4452  0.5293
  321MOL0     H44274  -2.624   6.337   7.574 -0.7403 -3.1023  2.7344
  321MOL0     H44275  -2.526   6.486   7.618 -0.1004  0.4418  0.1356
  321MOL0     H44276  -2.832   6.435   7.681 -2.0546  1.7524 -0.7551
  321MOL0     H44277  -2.766   6.545   7.573 -0.2875 -2.1809 -0.8513
  321MOL0     H44278  -2.021   5.837   7.721  0.2993 -1.5568 -0.3140
  321MOL0     H44279  -1.884   5.682   7.573  0.3225 -0.7966 -1.1299
  321MOL0     H44280  -1.838   5.697   7.037 -0.7729  0.0223  0.4731
  321MOL0     H44281  -1.642   5.621   6.927 -2.7049 -0.8607 -0.6864
  321MOL0     H44282  -0.338   5.515   5.655  0.8315  2.7009 -1.0240
  321MOL0     H44283  -0.137   5.599   5.554 -0.1533 -0.3691  1.3382
  321MOL0     H44284   0.117   5.610   5.201 -1.1594 -1.4483 -0.7053
  321MOL0     H44285   0.279   5.725   5.082  0.3771  1.5549  1.9354
  321MOL0     H44286   0.712   5.751   4.985  1.0963  0.8620  2.0999
  321MOL0     H44287   0.730   5.668   5.137  1.0545 -1.6331 -0.3412
  321MOL0     H44288   0.662   5.543   4.878  4.4800  1.1436 -0.9217
  321MOL0     H44289   0.648   5.454   5.033  1.5249 -1.5675  2.7244
  321MOL0     H44290   0.908   5.609   4.956 -2.6696  2.6450 -0.8752
  321MOL0     H44291   0.885   5.458   5.047  4.6296  1.9711 -0.9895
  321MOL0     H44292   0.808   5.334   4.841 -2.1012  0.0369  2.0565
  321MOL0     H44293   0.974   5.397   4.829 -0.9818  2.2458 -2.6092
  321MOL0     H44294   0.812   5.626   4.532 -1.5382  3.1904  3.0143
  321MOL0     H44295   0.593   5.491   5.240  0.6135  0.3120 -0.7805
  321MOL0     H44296   0.374   5.298   5.475 -2.4733 -0.0041 -1.0533
  321MOL0     H44297   0.414   5.223   5.324  3.4835  0.1694 -1.1997
  321MOL0     H44298   0.539   5.304   5.401 -0.6575  2.5604 -0.0200
  322MOL0     O44299   3.695   4.335   0.816  0.5647 -0.0295 -0.2667
  322MOL0     C44300   3.693   4.245   0.897 -0.2965  0.3253 -0.5490
  322MOL0     O44301   3.789   4.217   0.989  0.2635 -0.5648 -0.2204
  322MOL0     C44302   3.869   4.319   1.049  0.6060  0.0746 -0.4289
  322MOL0     C44303   3.873   4.462   1.019 -0.1641  0.3812  0.4308
  322MOL0     C44304   3.959   4.543   1.100  0.2932  0.6296  0.6045
  322MOL0     C44305   4.047   4.486   1.194 -0.8978  0.3945  0.3161
  322MOL0     O44306   4.130   4.570   1.255 -1.0073 -0.1233  0.1336
  322MOL0     C44307   4.240   4.511   1.339 -0.1163 -1.1261  0.1059
  322MOL0     C44308   4.320   4.637   1.377 -0.6303 -0.3468 -0.2290
  322MOL0     C44309   4.389   4.704   1.256  0.1506  0.4676 -0.7915
  322MOL0     C44310   4.491   4.816   1.289  0.7672 -0.0489 -0.4227
  322MOL0     C44311   4.524   4.891   1.160 -0.6406 -0.0108  1.4692
  322MOL0     C44312   4.632   4.994   1.167  0.2826 -0.4249  0.3469
  322MOL0     C44313   4.677   5.057   1.029  0.2432 -0.2019  0.0332
  322MOL0     C44314   4.584   5.158   0.972 -0.3766  1.0161 -0.0497
  322MOL0     N44315   4.446   5.119   0.938  0.3243 -0.4608  0.0852
  322MOL0     C44316   4.340   5.148   1.024  0.0984 -1.2384 -0.3711
  322MOL0     C44317   4.240   5.092   0.967  0.8053  0.3243  0.4566
  322MOL0     C44318   4.099   5.106   1.029  0.0157  1.1368 -0.0745
  322MOL0     C44319   4.068   5.004   1.143  0.5886  1.2399 -0.1637
  322MOL0     C44320   3.919   4.951   1.164  0.0596  0.8966 -0.1203
  322MOL0     C44321   3.856   5.020   1.293 -0.3563  0.3233  0.1335
  322MOL0     O44322   3.877   5.155   1.311 -0.0800  0.3134  0.5179
  322MOL0     C44323   3.796   5.243   1.244  1.4488 -0.0639 -1.2648
  322MOL0     C44324   3.831   5.374   1.247  0.3121  0.7278 -0.5816
  322MOL0     C44325   3.756   5.474   1.196 -0.0636  0.4102  0.4102
  322MOL0     C44326   3.808   5.615   1.213 -0.4972  0.3341 -0.1966
  322MOL0     C44327   3.633   5.440   1.125 -0.0036 -0.1698 -0.4904
  322MOL0     C44328   3.540   5.532   1.056 -0.6835 -0.0205  0.5639
  322MOL0     O44329   3.530   5.657   1.115  0.3103  0.3190 -0.0541
  322MOL0     C44330   3.500   5.774   1.042 -0.1859 -0.3756  0.0502
  322MOL0     C44331   3.418   5.871   1.111  0.1720 -0.1034  0.9497
  322MOL0     C44332   3.403   5.999   1.060 -0.4466  0.5519  0.6366
  322MOL0     C44333   3.469   6.032   0.940  0.4684 -0.5823  0.1736
  322MOL0     O44334   3.466   6.165   0.898 -0.5937 -0.2379  0.3043
  322MOL0     C44335   3.487   6.194   0.754  0.7162 -0.2839 -0.3792
  322MOL0     C44336   3.438   6.332   0.713  0.4454 -0.0277  0.3640
  322MOL0     C44337   3.487   6.447   0.809 -0.3117 -0.1841  0.5703
  322MOL0     C44338   3.622   6.500   0.768 -0.4017  1.0596 -0.0880
  322MOL0     C44339   3.609   6.615   0.664 -0.0499 -0.5891  0.6079
  322MOL0     C44340   3.740   6.645   0.582 -0.3430 -0.9120  0.2353
  322MOL0     C44341   3.855   6.709   0.658 -0.6070 -0.1289 -0.4144
  322MOL0     C44342   3.985   6.690   0.577  0.1009 -0.3978  0.2107
  322MOL0    Cl44343   3.988   6.747   0.407 -0.1546 -0.6094 -0.7975
  322MOL0     C44344   3.537   5.940   0.870  0.2632 -0.8666 -0.2678
  322MOL0     C44345   3.549   5.817   0.918 -0.2960  0.9580 -0.4563
  322MOL0     O44346   3.495   5.498   0.948  0.0654 -0.3703 -0.3457
  322MOL0     C44347   3.611   5.300   1.104  0.3015  0.2497  0.1571
  322MOL0     C44348   3.686   5.203   1.169  0.4955  0.2509 -0.1311
  322MOL0     N44349   4.281   5.044   0.841  0.6426 -0.1369 -0.3097
  322MOL0     N44350   4.410   5.052   0.831 -0.2100 -0.4726  0.0004
  322MOL0     C44351   4.051   4.350   1.214 -1.1950  0.1589 -0.6054
  322MOL0     C44352   3.957   4.270   1.148 -0.3421  0.3412  0.4551
  322MOL0     C44353   3.575   4.156   0.901  0.1348 -0.0622  1.0102
  322MOL0     C44354   3.577   4.037   0.981  0.5125  0.7628 -0.5050
  322MOL0     C44355   3.491   3.929   0.955  0.2884  0.4081 -0.8932
  322MOL0     C44356   3.382   3.949   0.873 -0.2901 -0.5493  1.4808
  322MOL0     O44357   3.298   3.844   0.862  0.0715  0.3031  0.5267
  322MOL0     C44358   3.167   3.868   0.812  0.0236  0.6231  0.5957
  322MOL0     C44359   3.084   3.748   0.854  0.2278  0.2196 -0.5299
  322MOL0     C44360   3.039   3.733   1.009  0.3740  0.2177 -0.2440
  322MOL0     C44361   2.895   3.789   1.043 -0.6889 -0.4895 -0.0778
  322MOL0     C44362   2.776   3.728   0.981 -0.1176 -0.3262 -0.5100
  322MOL0     C44363   2.683   3.674   0.930  0.7521  0.7054 -0.4537
  322MOL0     C44364   3.363   4.080   0.805 -0.6088 -0.5398 -0.3668
  322MOL0     C44365   3.459   4.175   0.817  0.2614  0.6393  1.4720
  322MOL0     C44366   3.435   4.298   0.734 -0.8756  1.0452  1.5046
  322MOL0     H44367   3.808   4.507   0.944  0.5090  0.5669 -0.0631
  322MOL0     H44368   3.955   4.650   1.087  1.1769  0.4233 -1.8717
  322MOL0     H44369   4.305   4.447   1.278  1.7517 -1.3562  2.2078
  322MOL0     H44370   4.198   4.453   1.422  1.8704 -1.0476  1.2261
  322MOL0     H44371   4.263   4.702   1.443 -1.6677 -2.7173  1.3452
  322MOL0     H44372   4.399   4.603   1.445  0.1824  0.0765 -0.9352
  322MOL0     H44373   4.446   4.633   1.195 -0.9125 -2.0030  0.9170
  322MOL0     H44374   4.309   4.740   1.192  1.1564  1.5619 -1.4764
  322MOL0     H44375   4.446   4.880   1.365  1.3690  0.0777 -0.1667
  322MOL0     H44376   4.577   4.762   1.330 -0.1939 -1.1792  0.1932
  322MOL0     H44377   4.440   4.945   1.115  0.8203  1.5844  0.5505
  322MOL0     H44378   4.568   4.818   1.092 -0.4084  3.5862 -2.6756
  322MOL0     H44379   4.594   5.070   1.235  0.7935  2.7029 -2.5851
  322MOL0     H44380   4.716   4.949   1.219  2.8644  3.0458 -0.4456
  322MOL0     H44381   4.680   4.975   0.957 -1.4260  0.6766 -1.1101
  322MOL0     H44382   4.777   5.098   1.046  0.4291 -1.1518  1.4640
  322MOL0     H44383   4.569   5.228   1.054 -0.0488  0.5572  0.4123
  322MOL0     H44384   4.635   5.217   0.895  0.4941  2.9778  1.9230
  322MOL0     H44385   4.342   5.194   1.122 -0.9178  0.5179 -1.1399
  322MOL0     H44386   4.027   5.092   0.948 -0.0756  1.4469 -0.0493
  322MOL0     H44387   4.088   5.209   1.063 -3.0535  0.4844  1.2539
  322MOL0     H44388   4.118   4.909   1.121  0.3345  1.3274 -1.1565
  322MOL0     H44389   4.116   5.030   1.238  0.5809  0.5291  0.0411
  322MOL0     H44390   3.853   4.970   1.079  0.5148  2.0158 -0.2412
  322MOL0     H44391   3.923   4.844   1.187 -0.6330  0.7281 -0.7391
  322MOL0     H44392   3.752   4.988   1.305 -0.5925  1.2975  0.8329
  322MOL0     H44393   3.902   4.974   1.382 -1.4817 -1.0358  0.0449
  322MOL0     H44394   3.924   5.384   1.301  0.6035  3.3620 -1.4045
  322MOL0     H44395   3.736   5.678   1.266 -1.7893 -1.4107  0.2202
  322MOL0     H44396   3.819   5.648   1.110 -0.3944  0.8748 -0.0162
  322MOL0     H44397   3.903   5.599   1.266 -0.9634  0.3972  0.6713
  322MOL0     H44398   3.375   5.851   1.209 -0.8552  2.1537  1.0152
  322MOL0     H44399   3.342   6.073   1.110  0.5905  1.2053  0.9646
  322MOL0     H44400   3.596   6.186   0.745  0.7939  1.2378 -1.1935
  322MOL0     H44401   3.434   6.125   0.689 -2.6880  2.0282 -0.3286
  322MOL0     H44402   3.470   6.350   0.610 -0.9979 -1.2441 -0.3426
  322MOL0     H44403   3.328   6.331   0.711  0.4365 -1.0134 -2.0569
  322MOL0     H44404   3.490   6.420   0.915  3.7737 -0.9215  0.4162
  322MOL0     H44405   3.419   6.529   0.785  0.6036 -0.0174 -1.6506
  322MOL0     H44406   3.688   6.420   0.733 -0.7919  0.3864  0.7018
  322MOL0     H44407   3.682   6.548   0.846 -0.0372  1.1123 -0.3957
  322MOL0     H44408   3.540   6.589   0.584  2.4435 -1.1780 -1.5054
  322MOL0     H44409   3.575   6.701   0.724 -0.2868 -0.7693  0.7340
  322MOL0     H44410   3.713   6.705   0.494 -0.3524 -0.7775  0.3289
  322MOL0     H44411   3.775   6.550   0.542 -3.4282 -2.4025  0.7344
  322MOL0     H44412   3.871   6.649   0.748  2.9758  1.3936  0.1249
  322MOL0     H44413   3.840   6.809   0.699  1.6092  1.1514 -2.4621
  322MOL0     H44414   4.009   6.583   0.569 -0.4274 -0.4964 -0.1303
  322MOL0     H44415   4.071   6.728   0.634  0.7395 -0.7833 -0.4783
  322MOL0     H44416   3.578   5.971   0.775 -0.3809 -1.5528 -0.7804
  322MOL0     H44417   3.599   5.737   0.866 -3.0065 -2.5764  1.8961
  322MOL0     H44418   3.524   5.264   1.051  0.2956  0.8205 -0.2261
  322MOL0     H44419   3.648   5.103   1.155 -1.2976  0.5011  2.3915
  322MOL0     H44420   4.115   4.294   1.282 -2.7899  1.0142  1.7562
  322MOL0     H44421   3.940   4.170   1.187 -0.3789 -0.0005 -0.4134
  322MOL0     H44422   3.651   4.021   1.059  0.3118  2.4558  0.0773
  322MOL0     H44423   3.514   3.831   0.998 -1.5002  0.2150 -0.2644
  322MOL0     H44424   3.135   3.967   0.844 -3.5231  0.4452 -1.8378
  322MOL0     H44425   3.175   3.874   0.703  2.7082 -1.6100  0.5503
  322MOL0     H44426   3.139   3.659   0.826 -0.2133 -1.2439  2.7662
  322MOL0     H44427   2.992   3.730   0.798 -0.2267 -2.9094  0.9809
  322MOL0     H44428   3.045   3.630   1.046 -0.6422  0.3476  0.3410
  322MOL0     H44429   3.111   3.790   1.069  0.5341 -0.8884  0.6523
  322MOL0     H44430   2.897   3.893   1.009  1.3045  0.1775  1.8176
  322MOL0     H44431   2.876   3.784   1.150 -2.3752  2.6128 -0.1268
  322MOL0     H44432   2.623   3.600   0.881 -1.9427  2.2226  0.3640
  322MOL0     H44433   3.284   4.089   0.731  0.4741 -0.3472 -1.5485
  322MOL0     H44434   3.443   4.389   0.795  0.8557 -1.1447  4.8009
  322MOL0     H44435   3.510   4.302   0.655  0.9293 -0.2506  3.0712
  322MOL0     H44436   3.338   4.294   0.683  1.1481 -0.9433 -2.6557
  323MOL0     O44437  10.750   9.305   5.212  0.7308 -0.0572 -0.1904
  323MOL0     C44438  10.784   9.200   5.163  0.0143  1.1762 -0.4577
  323MOL0     O44439  10.761   9.159   5.032 -0.3668  0.5227 -0.5552
  323MOL0     C44440  10.683   9.232   4.952 -0.6522  0.7411 -0.0946
  323MOL0     C44441  10.550   9.187   4.933 -0.1143  0.0593  0.7837
  323MOL0     C44442  10.458   9.263   4.864 -0.2342 -0.3527 -0.3337
  323MOL0     C44443  10.498   9.384   4.801 -1.1618 -0.2879  0.2899
  323MOL0     O44444  10.416   9.462   4.719  0.3373 -0.1879  0.1041
  323MOL0     C44445  10.271   9.453   4.741  0.4057 -0.8976  0.3468
  323MOL0     C44446  10.205   9.502   4.608  0.3652 -0.6279 -0.4862
  323MOL0     C44447  10.243   9.411   4.497 -1.0090  0.2852 -0.1416
  323MOL0     C44448  10.161   9.448   4.372 -0.2503 -0.2006  1.0862
  323MOL0     C44449  10.222   9.365   4.251  0.6385 -0.0882  1.0341
  323MOL0     C44450  10.153   9.402   4.122  0.3125  0.3994  0.1724
  323MOL0     C44451  10.234   9.346   4.012 -0.2515  1.3201 -0.1497
  323MOL0     C44452  10.168   9.395   3.874  1.3549  0.8118 -0.0452
  323MOL0     N44453  10.254   9.382   3.760 -0.5237  0.1582  0.3751
  323MOL0     C44454  10.341   9.276   3.742  0.1200 -0.2348 -0.8461
  323MOL0     C44455  10.424   9.315   3.643  0.5754  0.4022 -1.4442
  323MOL0     C44456  10.527   9.228   3.583  0.3315 -0.4155 -0.7060
  323MOL0     C44457  10.667   9.288   3.571  0.4673  0.7052  0.1614
  323MOL0     C44458  10.768   9.176   3.518  0.1502  0.1686  0.6805
  323MOL0     C44459  10.825   9.094   3.641  0.3418  0.2749 -0.6406
  323MOL0     O44460  10.932   9.157   3.712 -0.4681 -0.4580 -0.0367
  323MOL0     C44461  11.061   9.119   3.682  0.5417 -0.3876  0.4094
  323MOL0     C44462  11.120   9.085   3.558  0.7720 -0.7138 -0.0302
  323MOL0     C44463  11.249   9.053   3.537  0.3826  0.6942 -0.0830
  323MOL0     C44464  11.287   9.017   3.397 -0.9854  0.2075 -0.0887
  323MOL0     C44465  11.328   9.036   3.651  0.1595 -0.7447  0.0880
  323MOL0     C44466  11.475   9.013   3.643 -1.3019  0.6734  0.7726
  323MOL0     O44467  11.529   8.930   3.741  0.8905 -0.4307  0.0089
  323MOL0     C44468  11.667   8.913   3.726 -0.4456 -0.6388  0.5002
  323MOL0     C44469  11.721   8.785   3.761  0.3793 -0.4142  0.6484
  323MOL0     C44470  11.855   8.756   3.761  0.2376  0.1629 -0.7662
  323MOL0     C44471  11.948   8.848   3.720  0.5974  0.0289  0.3303
  323MOL0     O44472  12.086   8.821   3.710  0.3554 -0.4844 -0.6228
  323MOL0     C44473  12.144   8.695   3.744 -0.0258 -0.5628 -0.2737
  323MOL0     C44474  12.142   8.695   3.893 -0.4375 -0.6447 -0.7971
  323MOL0     C44475  12.288   8.704   3.945 -0.5726 -0.4543  0.2993
  323MOL0     C44476  12.287   8.677   4.093  0.8714  0.2933 -0.0090
  323MOL0     C44477  12.421   8.694   4.163  1.1718  0.1438  0.0334
  323MOL0     C44478  12.523   8.589   4.127  0.3043 -1.5193  0.1306
  323MOL0     C44479  12.643   8.572   4.218  0.1395 -0.5463  0.3989
  323MOL0     C44480  12.728   8.464   4.171  1.2367  0.0229  0.4497
  323MOL0    Cl44481  12.651   8.317   4.236  0.0239  0.0127 -0.3379
  323MOL0     C44482  11.904   8.982   3.702 -1.1302 -0.2736  0.4397
  323MOL0     C44483  11.772   9.012   3.719 -0.4224 -0.1579 -0.2126
  323MOL0     O44484  11.542   9.052   3.546  0.0552 -0.5259  0.7126
  323MOL0     C44485  11.267   9.054   3.772  0.2073  0.1328 -0.5894
  323MOL0     C44486  11.145   9.101   3.792 -0.0037 -0.7360  0.2712
  323MOL0     N44487  10.388   9.445   3.604 -0.3170  0.1235  0.4751
  323MOL0     N44488  10.301   9.486   3.683  0.6909  0.5260 -0.3605
  323MOL0     C44489  10.628   9.427   4.823  0.2866  0.6509  1.0501
  323MOL0     C44490  10.717   9.354   4.898 -0.5385 -0.6679  0.6217
  323MOL0     C44491  10.834   9.093   5.257 -0.1636 -0.9376  0.3219
  323MOL0     C44492  10.881   8.984   5.191  0.9233  0.3824  0.4113
  323MOL0     C44493  10.933   8.870   5.261 -0.1208 -0.5100 -0.4746
  323MOL0     C44494  10.943   8.875   5.402 -0.4169  0.4399  0.4976
  323MOL0     O44495  10.998   8.772   5.471 -0.5431  0.9284 -0.1920
  323MOL0     C44496  10.906   8.714   5.568  0.1146  0.8105 -0.6893
  323MOL0     C44497  10.964   8.585   5.630 -0.1733 -0.2624 -0.3966
  323MOL0     C44498  11.069   8.612   5.733 -0.5249 -0.9235 -0.0538
  323MOL0     C44499  11.103   8.502   5.828  0.3811  0.4135  0.0484
  323MOL0     C44500  11.230   8.521   5.897 -0.8222 -0.1392 -0.1858
  323MOL0     C44501  11.334   8.561   5.946 -0.4996 -0.6607  0.0263
  323MOL0     C44502  10.888   8.986   5.473  0.0245 -0.6731  0.0227
  323MOL0     C44503  10.829   9.092   5.398  0.2281 -0.8602 -0.7825
  323MOL0     C44504  10.763   9.191   5.494  0.0061 -0.4805  0.6058
  323MOL0     H44505  10.523   9.098   4.988  3.1111 -0.4009  1.8467
  323MOL0     H44506  10.357   9.225   4.860  0.0966 -1.6665  2.1980
  323MOL0     H44507  10.241   9.515   4.826 -0.0522  1.7520 -1.6274
  323MOL0     H44508  10.226   9.354   4.756 -2.6169  0.3129  0.0903
  323MOL0     H44509  10.099   9.499   4.632  0.5429 -1.3980  0.2780
  323MOL0     H44510  10.232   9.601   4.569  3.0072 -1.7743 -1.8597
  323MOL0     H44511  10.347   9.414   4.463 -0.9566 -3.8935 -0.8676
  323MOL0     H44512  10.214   9.309   4.524  0.2527 -0.1298 -0.2659
  323MOL0     H44513  10.055   9.422   4.377 -0.8621  1.9104  0.1279
  323MOL0     H44514  10.177   9.555   4.353  0.6750 -0.7382 -1.6325
  323MOL0     H44515  10.197   9.260   4.270  1.8658 -0.7478 -0.7551
  323MOL0     H44516  10.331   9.370   4.248  0.5917  1.1779  0.5621
  323MOL0     H44517  10.050   9.367   4.116  0.5205 -0.1613 -0.2843
  323MOL0     H44518  10.153   9.511   4.113  0.5266  0.5841  2.1273
  323MOL0     H44519  10.240   9.237   4.010  4.8136  1.3654 -1.4720
  323MOL0     H44520  10.336   9.385   4.022  1.4044 -1.8679 -2.5554
  323MOL0     H44521  10.079   9.336   3.856  3.6057 -2.9627  0.1709
  323MOL0     H44522  10.148   9.503   3.881 -2.9971  0.3011 -1.9366
  323MOL0     H44523  10.339   9.178   3.788 -1.2685 -2.0425 -4.3137
  323MOL0     H44524  10.483   9.192   3.490  1.9347  1.1845 -2.1532
  323MOL0     H44525  10.542   9.139   3.645 -1.1751  2.1420  3.8746
  323MOL0     H44526  10.661   9.363   3.492 -0.5709 -0.5836 -1.0526
  323MOL0     H44527  10.706   9.318   3.668 -1.8905 -3.2391  2.6094
  323MOL0     H44528  10.718   9.110   3.447  0.3336  0.3430  0.3877
  323MOL0     H44529  10.859   9.214   3.471  0.7418 -1.0953  0.7523
  323MOL0     H44530  10.743   9.095   3.713  2.1599 -2.2275  1.7185
  323MOL0     H44531  10.853   8.991   3.618  3.5393 -0.2220  3.9818
  323MOL0     H44532  11.057   9.104   3.471 -0.0511 -1.5412  0.3733
  323MOL0     H44533  11.366   8.942   3.399 -2.4758 -1.4101  0.3487
  323MOL0     H44534  11.321   9.105   3.341  2.7725 -0.6912  0.5329
  323MOL0     H44535  11.195   8.970   3.359  0.7291 -3.9161  0.3770
  323MOL0     H44536  11.653   8.704   3.788 -1.8113  2.4359  4.6927
  323MOL0     H44537  11.897   8.658   3.783  2.4671  1.1494 -0.3491
  323MOL0     H44538  12.098   8.605   3.702 -4.1898  0.3040  1.8389
  323MOL0     H44539  12.248   8.699   3.710 -0.4630 -4.7110 -2.6550
  323MOL0     H44540  12.070   8.762   3.941  0.0770 -1.6859  1.5575
  323MOL0     H44541  12.112   8.596   3.930  1.2091 -0.6708  0.5705
  323MOL0     H44542  12.340   8.797   3.920 -0.0965 -0.9932 -0.7534
  323MOL0     H44543  12.349   8.623   3.904  0.9393 -0.4409  2.3262
  323MOL0     H44544  12.248   8.577   4.116  0.6525  0.9386  2.7525
  323MOL0     H44545  12.212   8.741   4.138 -2.2158 -3.7321  1.1637
  323MOL0     H44546  12.455   8.794   4.136 -2.1932  0.7320 -2.6990
  323MOL0     H44547  12.412   8.691   4.272  0.9315 -2.3078  0.0040
  323MOL0     H44548  12.565   8.586   4.027  1.2080 -4.0500  0.5091
  323MOL0     H44549  12.470   8.493   4.123 -0.3133 -1.2076 -4.8514
  323MOL0     H44550  12.613   8.551   4.321  2.5319  1.9911  1.7397
  323MOL0     H44551  12.697   8.667   4.207 -0.2257  0.2021  3.9569
  323MOL0     H44552  12.830   8.474   4.210  1.0423  0.2655  0.8966
  323MOL0     H44553  12.739   8.453   4.063 -2.5297 -0.3966 -0.0393
  323MOL0     H44554  11.975   9.058   3.671  0.5830 -1.0543  2.1729
  323MOL0     H44555  11.745   9.115   3.699  3.3565  1.0584  0.1667
  323MOL0     H44556  11.324   9.036   3.863 -2.4452  0.7659  1.3418
  323MOL0     H44557  11.109   9.106   3.894  1.0719 -1.4349  0.6982
  323MOL0     H44558  10.654   9.524   4.782  1.8202 -0.2006 -0.0598
  323MOL0     H44559  10.820   9.387   4.909 -1.2080  1.4976  0.8908
  323MOL0     H44560  10.885   8.976   5.083  2.3228  2.3337  0.2690
  323MOL0     H44561  10.971   8.785   5.206  2.0385 -0.9832  1.5687
  323MOL0     H44562  10.877   8.789   5.642 -1.7365  0.5788 -1.1192
  323MOL0     H44563  10.814   8.677   5.520 -1.7442 -0.3278  3.2817
  323MOL0     H44564  10.982   8.526   5.539 -4.9960  0.3709 -2.0579
  323MOL0     H44565  10.883   8.536   5.684 -1.5444  0.1293 -2.0151
  323MOL0     H44566  11.159   8.636   5.676 -1.0633 -0.5760 -0.7679
  323MOL0     H44567  11.044   8.696   5.798 -1.4776  0.1556 -1.7432
  323MOL0     H44568  11.104   8.405   5.777 -0.6072 -0.5971  1.8161
  323MOL0     H44569  11.018   8.498   5.897  1.4523 -1.7196  1.3703
  323MOL0     H44570  11.421   8.589   6.002 -0.7775 -1.8331  1.0954
  323MOL0     H44571  10.913   8.991   5.578  1.3106  1.0611 -0.3100
  323MOL0     H44572  10.684   9.144   5.553 -0.9911  1.3850  0.8434
  323MOL0     H44573  10.831   9.235   5.567 -0.0414 -0.2630  0.5184
  323MOL0     H44574  10.708   9.267   5.438 -0.9693 -1.3469  0.3567
  324MOL0     O44575   0.003  10.913   6.111  0.1153  0.2904 -0.0897
  324MOL0     C44576  -0.011  11.004   6.040 -0.4816  0.0964  1.4976
  324MOL0     O44577   0.031  11.008   5.908  0.8101 -0.0103  0.0860
  324MOL0     C44578   0.157  10.981   5.867 -0.4077  0.0309 -0.3093
  324MOL0     C44579   0.264  10.942   5.958  0.3729  0.2031  0.3546
  324MOL0     C44580   0.390  10.922   5.904 -0.6688  0.1517  0.4543
  324MOL0     C44581   0.420  10.938   5.769 -0.3567 -0.1942  0.3785
  324MOL0     O44582   0.546  10.910   5.722 -0.5146 -0.0547  0.6638
  324MOL0     C44583   0.578  10.925   5.583 -0.2289  0.6328  0.3412
  324MOL0     C44584   0.731  10.920   5.567 -0.9786  0.3203 -0.5912
  324MOL0     C44585   0.813  11.028   5.633 -0.1822 -0.3818 -0.9946
  324MOL0     C44586   0.964  11.038   5.594 -0.0266  0.5690  0.3552
  324MOL0     C44587   1.043  11.110   5.700 -0.5123 -0.1519  0.3037
  324MOL0     C44588   1.196  11.122   5.669  0.8143 -0.6476 -0.3949
  324MOL0     C44589   1.264  10.986   5.669 -0.3153 -0.4161  0.7179
  324MOL0     C44590   1.416  10.996   5.651 -0.5615 -0.0500 -0.8106
  324MOL0     N44591   1.473  10.925   5.539  0.2515 -0.1357 -0.1951
  324MOL0     C44592   1.444  10.790   5.505  0.3294 -0.4048 -0.3064
  324MOL0     C44593   1.513  10.775   5.388 -0.9265 -0.0470  0.6577
  324MOL0     C44594   1.489  10.653   5.306 -0.0037 -0.2070  0.0455
  324MOL0     C44595   1.598  10.541   5.320 -0.2592  0.6770 -0.4385
  324MOL0     C44596   1.563  10.418   5.251 -0.5556 -0.3158 -0.2140
  324MOL0     C44597   1.451  10.345   5.323 -0.0515  0.2674 -0.4538
  324MOL0     O44598   1.465  10.207   5.284  0.3611  0.9257 -0.4027
  324MOL0     C44599   1.360  10.118   5.296  0.3312 -0.2628 -0.4145
  324MOL0     C44600   1.269  10.131   5.400 -0.2552  0.0971 -0.1576
  324MOL0     C44601   1.155  10.044   5.391  0.5560 -0.7598  0.3663
  324MOL0     C44602   1.041  10.077   5.500  0.1895  1.9130  0.0514
  324MOL0     C44603   1.145   9.938   5.299  0.1615 -0.9206 -0.0124
  324MOL0     C44604   1.023   9.854   5.290 -0.5169 -0.3173 -0.5863
  324MOL0     O44605   1.052   9.726   5.307 -0.2380  1.1175 -0.5506
  324MOL0     C44606   0.965   9.628   5.261  0.4159 -0.1017 -0.2606
  324MOL0     C44607   0.874   9.640   5.159  0.1544 -0.0494 -0.6643
  324MOL0     C44608   0.809   9.524   5.113 -0.7706  0.0251  0.6566
  324MOL0     C44609   0.844   9.400   5.156 -0.2464  0.2578  0.5795
  324MOL0     O44610   0.794   9.292   5.100  0.4823  0.8555 -0.2802
  324MOL0     C44611   0.753   9.183   5.190  0.0095  0.3426 -0.3967
  324MOL0     C44612   0.649   9.094   5.128 -0.5870  0.1249  0.2846
  324MOL0     C44613   0.721   8.979   5.049 -0.0688  0.5098  0.8039
  324MOL0     C44614   0.636   8.925   4.938  0.7630  0.1001  0.4147
  324MOL0     C44615   0.584   8.778   4.967 -0.4869  0.3555  0.6062
  324MOL0     C44616   0.555   8.757   5.117  0.0978 -0.0637  0.3743
  324MOL0     C44617   0.476   8.636   5.144  0.1762 -0.5633 -0.7117
  324MOL0     C44618   0.427   8.659   5.296 -0.2135 -0.3808  0.3672
  324MOL0    Cl44619   0.318   8.518   5.341 -1.0575 -0.7130  0.0385
  324MOL0     C44620   0.934   9.390   5.260 -0.2704  0.9462  0.2516
  324MOL0     C44621   0.998   9.503   5.311  0.2778 -0.1145 -0.2289
  324MOL0     O44622   0.910   9.906   5.294 -0.5319 -0.1077 -0.4357
  324MOL0     C44623   1.252   9.912   5.215  0.8826  0.0629  0.5860
  324MOL0     C44624   1.358  10.005   5.217 -0.2884  0.7242  0.5324
  324MOL0     N44625   1.584  10.888   5.366  0.0847 -0.1909  0.1973
  324MOL0     N44626   1.560  10.982   5.452  0.6339  0.8808 -0.1878
  324MOL0     C44627   0.315  10.979   5.677  0.3685 -0.1554  0.1747
  324MOL0     C44628   0.189  11.001   5.728  0.5775 -0.0666  1.0025
  324MOL0     C44629  -0.108  11.115   6.078 -1.0980 -1.2558 -0.2115
  324MOL0     C44630  -0.161  11.207   5.974 -0.0848 -0.1470 -0.3085
  324MOL0     C44631  -0.253  11.309   5.999 -0.2059  0.1955  0.2807
  324MOL0     C44632  -0.296  11.318   6.128  0.3259 -0.4152 -1.0137
  324MOL0     O44633  -0.377  11.423   6.154  0.3784  0.1167  0.3372
  324MOL0     C44634  -0.430  11.457   6.287 -0.2147 -0.1628 -0.2073
  324MOL0     C44635  -0.502  11.590   6.282 -0.6839 -0.5892  0.4198
  324MOL0     C44636  -0.636  11.584   6.201 -0.5162 -0.1604  1.0172
  324MOL0     C44637  -0.691  11.728   6.188  0.8906  0.5271  0.1061
  324MOL0     C44638  -0.770  11.757   6.316 -0.7469 -0.1350 -0.1613
  324MOL0     C44639  -0.842  11.787   6.409  0.2195  0.0551 -0.9377
  324MOL0     C44640  -0.254  11.239   6.230 -0.1415 -0.1733 -0.3209
  324MOL0     C44641  -0.158  11.134   6.209  1.1597  0.0805 -0.7117
  324MOL0     C44642  -0.138  11.043   6.324 -0.6230  0.4211  0.3493
  324MOL0     H44643   0.250  10.934   6.065 -1.7179  1.2696  0.2053
  324MOL0     H44644   0.470  10.880   5.964  0.7013  0.7270 -0.9051
  324MOL0     H44645   0.539  11.022   5.552 -0.5887  0.5832  0.6328
  324MOL0     H44646   0.544  10.840   5.523  1.4630 -0.0785  0.3267
  324MOL0     H44647   0.772  10.821   5.592 -0.9602  0.2146 -1.0341
  324MOL0     H44648   0.752  10.924   5.460  0.5686  1.5471 -0.2771
  324MOL0     H44649   0.765  11.122   5.604 -0.3732 -0.2952 -0.4199
  324MOL0     H44650   0.805  11.005   5.740 -1.2379 -0.6139 -1.1128
  324MOL0     H44651   1.000  10.937   5.576 -0.1875  0.5239  0.2766
  324MOL0     H44652   0.971  11.082   5.494 -1.2138  1.8747  0.8011
  324MOL0     H44653   1.027  11.061   5.797  2.2546  2.0403  2.0271
  324MOL0     H44654   1.003  11.211   5.712 -0.8079 -0.5230  3.0417
  324MOL0     H44655   1.218  11.176   5.576  1.8568 -2.4062 -1.2222
  324MOL0     H44656   1.234  11.175   5.756 -0.8570 -0.1165  0.0611
  324MOL0     H44657   1.236  10.938   5.575 -0.6862  0.8457  0.1554
  324MOL0     H44658   1.229  10.931   5.756 -3.2078 -3.5004 -2.1189
  324MOL0     H44659   1.456  11.098   5.654  2.8945 -1.1751 -2.4398
  324MOL0     H44660   1.463  10.965   5.744 -4.3434 -2.3286  0.5640
  324MOL0     H44661   1.372  10.720   5.546 -0.1205  0.2276 -0.0078
  324MOL0     H44662   1.496  10.695   5.205  1.6483 -0.5311 -0.0092
  324MOL0     H44663   1.386  10.627   5.329  0.3138 -1.2160  0.3741
  324MOL0     H44664   1.694  10.579   5.283  0.7488  0.1278  1.4606
  324MOL0     H44665   1.609  10.521   5.427  1.1152  0.7130 -0.5532
  324MOL0     H44666   1.534  10.448   5.149 -1.7239 -0.2837  0.1082
  324MOL0     H44667   1.650  10.355   5.234 -0.1775  0.4103 -1.0923
  324MOL0     H44668   1.462  10.335   5.431  2.1777  1.6769 -0.4906
  324MOL0     H44669   1.356  10.396   5.302  0.1526  1.1736  0.7230
  324MOL0     H44670   1.278  10.192   5.489 -1.7679 -0.0615  0.1340
  324MOL0     H44671   0.979   9.987   5.504  5.2420 -2.0471  0.6292
  324MOL0     H44672   0.981  10.168   5.500 -2.8893  0.0498  1.1388
  324MOL0     H44673   1.101  10.076   5.591  2.9181 -0.3955 -1.5832
  324MOL0     H44674   0.845   9.738   5.122 -1.2300 -1.4763 -3.5932
  324MOL0     H44675   0.742   9.523   5.028 -1.0499 -1.8681  0.8670
  324MOL0     H44676   0.839   9.124   5.221 -1.1550 -1.3013 -0.1636
  324MOL0     H44677   0.706   9.239   5.272 -1.6193 -0.2700 -0.8654
  324MOL0     H44678   0.592   9.035   5.199 -2.6376 -1.7068 -2.6732
  324MOL0     H44679   0.576   9.145   5.065  0.0785  0.9569  0.1675
  324MOL0     H44680   0.752   8.901   5.119  2.1041 -1.9739 -2.6390
  324MOL0     H44681   0.817   9.014   5.010 -0.4147  1.5625  0.8656
  324MOL0     H44682   0.712   8.927   4.860  1.6069 -1.9962  1.1266
  324MOL0     H44683   0.553   8.989   4.908  0.0480 -0.1769  1.7241
  324MOL0     H44684   0.512   8.743   4.893 -2.4249  0.3145  2.4247
  324MOL0     H44685   0.667   8.706   4.958 -2.2552 -1.8519  1.0150
  324MOL0     H44686   0.481   8.833   5.145 -4.1576 -2.9598 -1.7851
  324MOL0     H44687   0.645   8.753   5.179 -0.4628  0.7142  1.2631
  324MOL0     H44688   0.544   8.551   5.143  1.3599  0.3015  1.1591
  324MOL0     H44689   0.396   8.634   5.069  0.0709  1.2558 -0.7023
  324MOL0     H44690   0.376   8.755   5.309  0.4916  0.1671 -0.8256
  324MOL0     H44691   0.515   8.653   5.360 -0.9955 -0.0991  1.5222
  324MOL0     H44692   0.968   9.291   5.289  4.4288  1.7247 -1.6818
  324MOL0     H44693   1.077   9.505   5.386  0.9498  2.8195 -0.8807
  324MOL0     H44694   1.249   9.825   5.150  1.2288  0.0239  0.6210
  324MOL0     H44695   1.432   9.975   5.143  0.5878  2.7297  0.5070
  324MOL0     H44696   0.334  11.014   5.576 -1.1070 -0.1503 -0.1319
  324MOL0     H44697   0.110  11.048   5.669  0.2511 -0.2883  1.2576
  324MOL0     H44698  -0.132  11.180   5.873 -1.0785 -2.1552 -0.1001
  324MOL0     H44699  -0.281  11.391   5.933 -1.2543  0.8697  1.5186
  324MOL0     H44700  -0.498  11.378   6.321  1.8479 -2.6771 -1.5616
  324MOL0     H44701  -0.346  11.467   6.356 -0.2167  3.1212 -0.5305
  324MOL0     H44702  -0.437  11.662   6.232 -0.2445 -3.0238 -2.8010
  324MOL0     H44703  -0.528  11.621   6.384 -5.4907  0.5124 -0.8425
  324MOL0     H44704  -0.612  11.546   6.101 -0.8220  2.0149  0.0656
  324MOL0     H44705  -0.706  11.512   6.245 -0.3906 -0.5795  0.5439
  324MOL0     H44706  -0.760  11.744   6.105  1.2906  1.0583 -0.1240
  324MOL0     H44707  -0.613  11.799   6.161 -0.0879  1.4237 -0.4451
  324MOL0     H44708  -0.899  11.794   6.499 -0.1592  0.7071 -1.2287
  324MOL0     H44709  -0.301  11.249   6.328 -2.8873  1.3304 -1.6779
  324MOL0     H44710  -0.196  10.953   6.302  0.3458 -0.7758  2.3629
  324MOL0     H44711  -0.032  11.035   6.352  0.5142  0.5532 -3.4292
  324MOL0     H44712  -0.194  11.084   6.409 -1.8503  0.9804 -0.7021
  325MOL0     O44713   8.489   5.624   3.511 -0.4889 -0.5360  0.2981
  325MOL0     C44714   8.439   5.511   3.541 -0.7015  0.4130  1.0790
  325MOL0     O44715   8.508   5.404   3.597  0.3123 -0.8849 -0.4128
  325MOL0     C44716   8.635   5.444   3.621  0.3183  0.6169  2.0249
  325MOL0     C44717   8.725   5.408   3.525  0.3535 -0.4683 -0.8044
  325MOL0     C44718   8.860   5.428   3.546  0.0745 -0.1386 -0.9431
  325MOL0     C44719   8.905   5.493   3.664 -0.3822  0.5240 -0.3898
  325MOL0     O44720   9.027   5.561   3.668 -0.2046 -0.9262 -0.2819
  325MOL0     C44721   9.082   5.619   3.547 -0.1645  0.7617  0.0156
  325MOL0     C44722   9.020   5.742   3.495  0.5665 -0.7389 -0.4689
  325MOL0     C44723   8.922   5.716   3.377  0.0006 -1.1460  0.4442
  325MOL0     C44724   8.830   5.834   3.361 -0.0613 -0.5044  1.3231
  325MOL0     C44725   8.756   5.831   3.220  0.5052 -0.0633 -0.9095
  325MOL0     C44726   8.631   5.744   3.217 -0.1473 -0.7517  0.6313
  325MOL0     C44727   8.559   5.742   3.087 -0.1979 -0.5061  0.2272
  325MOL0     C44728   8.626   5.648   2.992  0.4980  1.5805  1.2283
  325MOL0     N44729   8.521   5.604   2.890  0.1551  0.0063 -0.4861
  325MOL0     C44730   8.436   5.678   2.814 -0.1469  0.2768  0.1353
  325MOL0     C44731   8.368   5.580   2.739  0.1111 -0.2876 -0.4397
  325MOL0     C44732   8.258   5.592   2.640  0.5009 -0.2367 -0.3092
  325MOL0     C44733   8.281   5.678   2.508 -0.7685  0.3011 -0.2285
  325MOL0     C44734   8.361   5.605   2.396 -0.0927 -0.3885 -0.3538
  325MOL0     C44735   8.331   5.666   2.261 -0.4481 -0.1239 -0.5111
  325MOL0     O44736   8.356   5.805   2.283  0.1088  0.7212  0.0198
  325MOL0     C44737   8.312   5.880   2.180  0.1026 -0.3863  0.3337
  325MOL0     C44738   8.396   5.906   2.078 -0.0506 -0.1630  0.2041
  325MOL0     C44739   8.349   5.979   1.966 -0.6163 -0.6904 -0.3465
  325MOL0     C44740   8.443   6.033   1.871 -0.1227  0.4089 -0.0833
  325MOL0     C44741   8.215   6.013   1.951  0.3501  0.6187  1.6639
  325MOL0     C44742   8.150   6.068   1.823  0.4822 -0.5697  0.8818
  325MOL0     O44743   8.208   6.168   1.765  0.1351 -0.2706 -0.1145
  325MOL0     C44744   8.128   6.235   1.676 -1.1106  0.1125 -0.1656
  325MOL0     C44745   8.135   6.205   1.540 -0.0680  0.1376 -0.0686
  325MOL0     C44746   8.052   6.273   1.451 -0.3556  0.7203 -0.2220
  325MOL0     C44747   7.968   6.377   1.495  0.2769 -0.3280  0.0794
  325MOL0     O44748   7.881   6.428   1.403  0.6718  0.0291 -0.1717
  325MOL0     C44749   7.821   6.555   1.426  0.3358 -0.3229 -1.0783
  325MOL0     C44750   7.782   6.613   1.297  0.3081 -0.5354 -0.2780
  325MOL0     C44751   7.749   6.761   1.314 -0.3148  0.3487  0.1739
  325MOL0     C44752   7.680   6.826   1.186 -0.1783  0.0514 -0.2959
  325MOL0     C44753   7.776   6.889   1.087 -0.1689 -0.4946  0.8568
  325MOL0     C44754   7.700   6.970   0.975 -0.0124  1.5608  0.0681
  325MOL0     C44755   7.802   7.009   0.861  0.6202  0.1681 -0.8049
  325MOL0     C44756   7.720   7.077   0.750 -1.2014 -0.7421  0.2990
  325MOL0    Cl44757   7.695   7.242   0.801 -0.2919  0.1169 -0.6378
  325MOL0     C44758   7.971   6.416   1.629 -0.2632  0.3536  0.3419
  325MOL0     C44759   8.045   6.339   1.722  0.8005 -0.1313 -0.0552
  325MOL0     O44760   8.034   6.031   1.794 -0.1637  0.7966  0.5949
  325MOL0     C44761   8.127   5.988   2.055  0.8309  0.2527 -0.0045
  325MOL0     C44762   8.173   5.924   2.169 -0.9078  0.4036 -0.9446
  325MOL0     N44763   8.433   5.458   2.763 -0.5000 -0.1891  0.4979
  325MOL0     N44764   8.522   5.474   2.854  0.4018  0.8124 -0.1810
  325MOL0     C44765   8.817   5.514   3.769  0.3414  0.6283 -0.1473
  325MOL0     C44766   8.685   5.494   3.742 -0.4615  0.3629  0.4996
  325MOL0     C44767   8.294   5.492   3.546 -0.8406 -0.0564 -0.6527
  325MOL0     C44768   8.239   5.379   3.503 -1.4295  0.0656 -1.0316
  325MOL0     C44769   8.101   5.364   3.494  0.4123 -0.3867  0.1625
  325MOL0     C44770   8.016   5.458   3.523  0.8791 -0.2636 -0.5883
  325MOL0     O44771   7.882   5.433   3.511  0.1275 -1.0164 -0.0861
  325MOL0     C44772   7.821   5.383   3.629 -0.1936 -0.0192  0.2377
  325MOL0     C44773   7.685   5.308   3.601 -0.0067  0.6109  0.5827
  325MOL0     C44774   7.676   5.186   3.515  0.3347  0.4513  0.1960
  325MOL0     C44775   7.795   5.092   3.538  0.7752 -0.7406 -0.0723
  325MOL0     C44776   7.785   5.041   3.678  0.2504  0.1245  0.1579
  325MOL0     C44777   7.777   5.002   3.791  0.2239 -0.2393  0.0324
  325MOL0     C44778   8.061   5.583   3.575 -0.4210 -0.4103 -0.7115
  325MOL0     C44779   8.205   5.598   3.588  0.1380 -1.0028 -0.8552
  325MOL0     C44780   8.251   5.728   3.661 -0.2733  0.2247  0.1229
  325MOL0     H44781   8.691   5.364   3.431  1.1078 -1.1555 -0.7674
  325MOL0     H44782   8.942   5.409   3.479  2.5056 -2.5697  2.3930
  325MOL0     H44783   9.107   5.541   3.473  1.2076  0.5779  0.6435
  325MOL0     H44784   9.178   5.650   3.589 -0.1668 -1.7443  2.1450
  325MOL0     H44785   8.967   5.799   3.571  0.1211  0.0283 -1.3279
  325MOL0     H44786   9.089   5.822   3.466 -1.5665  1.5797  0.4146
  325MOL0     H44787   8.989   5.700   3.292  1.2789  0.7618  1.0289
  325MOL0     H44788   8.855   5.631   3.389 -0.5269 -0.7258  0.5571
  325MOL0     H44789   8.762   5.852   3.445 -2.3604  0.4001 -0.6402
  325MOL0     H44790   8.890   5.925   3.354  1.5057 -1.5605  0.1905
  325MOL0     H44791   8.822   5.805   3.136  1.7533 -0.8551  0.2667
  325MOL0     H44792   8.731   5.933   3.189  0.0135  0.7038  1.7133
  325MOL0     H44793   8.660   5.643   3.248  0.7472 -0.5872  0.3622
  325MOL0     H44794   8.562   5.786   3.291  2.4861  0.6383  2.4963
  325MOL0     H44795   8.545   5.846   3.058 -2.3188 -1.1229 -1.2203
  325MOL0     H44796   8.453   5.724   3.104 -0.2926  0.8625  1.2322
  325MOL0     H44797   8.708   5.699   2.942 -1.3515  0.6878 -3.2093
  325MOL0     H44798   8.663   5.556   3.038  0.1876 -0.3103 -2.0478
  325MOL0     H44799   8.426   5.786   2.807  0.3469  0.3453  0.4656
  325MOL0     H44800   8.185   5.652   2.695  1.7248  0.1078  0.9756
  325MOL0     H44801   8.214   5.494   2.621  0.9515 -0.3618 -0.7490
  325MOL0     H44802   8.180   5.705   2.474 -1.4607  1.4666  2.4891
  325MOL0     H44803   8.335   5.769   2.536 -0.0960 -0.0654 -0.3133
  325MOL0     H44804   8.468   5.617   2.413 -0.5907  2.5894  1.3389
  325MOL0     H44805   8.331   5.500   2.391  1.4046 -0.7977 -2.3685
  325MOL0     H44806   8.395   5.622   2.185 -0.7460 -1.7249  0.1218
  325MOL0     H44807   8.225   5.642   2.245 -0.2253 -1.3828 -0.2318
  325MOL0     H44808   8.502   5.886   2.088  0.2765  0.2414 -1.9476
  325MOL0     H44809   8.546   6.020   1.906 -0.3681  0.2496  0.5979
  325MOL0     H44810   8.439   6.141   1.856 -0.0668  0.3470 -0.5365
  325MOL0     H44811   8.441   5.982   1.774  1.2167  1.3363 -0.6297
  325MOL0     H44812   8.199   6.124   1.506  0.3575  0.6395 -0.4678
  325MOL0     H44813   8.044   6.243   1.347 -1.2666  1.1154 -0.2760
  325MOL0     H44814   7.723   6.528   1.468  0.5517 -0.1027 -0.4222
  325MOL0     H44815   7.883   6.620   1.488  1.3697  1.5703 -3.8683
  325MOL0     H44816   7.866   6.596   1.229  1.2259  0.0679  0.6851
  325MOL0     H44817   7.688   6.572   1.258 -1.2646  2.7846 -0.2997
  325MOL0     H44818   7.845   6.814   1.319 -1.1346  1.9418 -0.4316
  325MOL0     H44819   7.705   6.783   1.412  1.6340 -0.0328  1.1959
  325MOL0     H44820   7.610   6.905   1.215  1.4567  1.9799 -1.3689
  325MOL0     H44821   7.617   6.752   1.135 -0.0415 -1.1981  1.2864
  325MOL0     H44822   7.847   6.959   1.131  1.2132  0.7628 -2.9759
  325MOL0     H44823   7.833   6.810   1.037 -0.9043  0.0522 -0.8953
  325MOL0     H44824   7.644   7.055   1.015 -1.8126  1.6250 -2.3706
  325MOL0     H44825   7.629   6.895   0.938  3.8904 -2.0622 -0.8560
  325MOL0     H44826   7.853   6.916   0.834  1.4991  0.8221 -1.4957
  325MOL0     H44827   7.883   7.071   0.900  0.6380 -0.2417 -0.1867
  325MOL0     H44828   7.627   7.019   0.749 -1.4603 -0.3305  0.2729
  325MOL0     H44829   7.771   7.091   0.654 -3.6504  1.0515 -0.8392
  325MOL0     H44830   7.900   6.491   1.661 -1.1421  1.2417 -3.2682
  325MOL0     H44831   8.044   6.350   1.830  1.7291  1.6862 -0.1859
  325MOL0     H44832   8.019   5.987   2.044  0.7377 -1.7142  0.7772
  325MOL0     H44833   8.111   5.895   2.253 -0.8026 -1.5573 -1.4944
  325MOL0     H44834   8.848   5.573   3.854  0.2813  0.8442 -0.2751
  325MOL0     H44835   8.620   5.528   3.822 -1.7706  1.0262 -0.7798
  325MOL0     H44836   8.304   5.298   3.470 -2.3047 -1.4175  0.6762
  325MOL0     H44837   8.066   5.268   3.455  0.6684 -0.4883  0.1857
  325MOL0     H44838   7.899   5.317   3.669  1.8085  0.7418 -2.1452
  325MOL0     H44839   7.791   5.462   3.698  0.1636  0.1516  0.2017
  325MOL0     H44840   7.624   5.392   3.569  1.8981  2.2956  1.2054
  325MOL0     H44841   7.653   5.280   3.702 -1.8175  0.0808 -0.0897
  325MOL0     H44842   7.583   5.136   3.542  0.1693 -0.1678 -1.4142
  325MOL0     H44843   7.662   5.212   3.410 -1.3210 -3.2310 -0.6409
  325MOL0     H44844   7.886   5.149   3.516 -0.7339  0.5614 -3.7026
  325MOL0     H44845   7.795   5.010   3.466 -0.7758 -3.7471  3.0664
  325MOL0     H44846   7.778   4.945   3.882 -1.7818 -0.9794 -0.3518
  325MOL0     H44847   7.993   5.662   3.602 -0.4729 -0.5196 -0.5247
  325MOL0     H44848   8.353   5.718   3.700 -1.4515 -1.0306  3.1941
  325MOL0     H44849   8.225   5.827   3.622 -1.2401 -0.3657 -0.7996
  325MOL0     H44850   8.201   5.718   3.757  1.0451 -1.6756  0.6675
  326MOL0     O44851   1.479   5.509   8.760  0.0921  0.5536  0.0524
  326MOL0     C44852   1.390   5.571   8.813  0.6714 -0.2548 -0.2560
  326MOL0     O44853   1.384   5.703   8.841  0.2601  0.1163 -0.3369
  326MOL0     C44854   1.490   5.770   8.787 -0.0755 -0.4023  0.7145
  326MOL0     C44855   1.612   5.790   8.865  0.6354  0.6649  0.6312
  326MOL0     C44856   1.723   5.869   8.815  0.1308  0.0326 -0.0362
  326MOL0     C44857   1.705   5.928   8.685 -0.8886  0.9294  0.5839
  326MOL0     O44858   1.800   6.005   8.619  0.2498 -0.4138 -0.2054
  326MOL0     C44859   1.940   6.015   8.672  0.3881 -0.6586 -0.7551
  326MOL0     C44860   1.964   6.134   8.763 -0.4491  0.8207  0.0961
  326MOL0     C44861   2.105   6.131   8.806 -0.5925  0.3961  0.4437
  326MOL0     C44862   2.119   6.236   8.913 -0.1615 -0.2231  0.3146
  326MOL0     C44863   2.264   6.238   8.971  0.0358 -0.6014 -0.6315
  326MOL0     C44864   2.284   6.134   9.086 -0.9177 -0.2245  0.0511
  326MOL0     C44865   2.434   6.112   9.129  0.1221 -0.5110 -0.3762
  326MOL0     C44866   2.486   6.235   9.208  0.1534 -0.2112 -0.3910
  326MOL0     N44867   2.632   6.230   9.227  0.0662  0.3398 -0.6441
  326MOL0     C44868   2.715   6.122   9.226 -0.8365 -0.2724 -0.3247
  326MOL0     C44869   2.847   6.176   9.223  0.4926  0.0459  0.0658
  326MOL0     C44870   2.987   6.117   9.240 -0.2613  0.4454  0.7813
  326MOL0     C44871   3.065   6.178   9.355 -0.8167  0.7183 -0.4307
  326MOL0     C44872   3.226   6.172   9.333 -0.1542  0.1812  0.2237
  326MOL0     C44873   3.284   6.245   9.449 -0.2267 -0.1844 -0.7966
  326MOL0     O44874   3.425   6.268   9.422 -0.4190 -0.3862  0.3124
  326MOL0     C44875   3.506   6.328   9.511  0.4416 -0.1491  0.1218
  326MOL0     C44876   3.638   6.311   9.482 -0.1538 -0.2605  0.4263
  326MOL0     C44877   3.743   6.376   9.548 -0.2259 -0.3322  0.0581
  326MOL0     C44878   3.888   6.327   9.520  0.6940  0.3323 -0.6941
  326MOL0     C44879   3.709   6.475   9.633 -0.1153 -0.8096 -0.2607
  326MOL0     C44880   3.814   6.558   9.700 -0.2871 -0.0753 -0.0563
  326MOL0     O44881   3.773   6.594   9.828 -0.2689 -0.0642 -0.4388
  326MOL0     C44882   3.851   6.682   9.911 -0.7486 -0.1001 -0.5911
  326MOL0     C44883   3.870   6.655  10.049  0.7682  0.3747  0.2760
  326MOL0     C44884   3.940   6.748  10.136 -0.1534  1.1256 -0.8551
  326MOL0     C44885   3.995   6.862  10.089  0.4810 -0.1521  0.0074
  326MOL0     O44886   4.064   6.943  10.179  0.4528 -1.1850 -0.3699
  326MOL0     C44887   4.183   7.005  10.134  0.3221  0.5907 -0.3105
  326MOL0     C44888   4.276   7.022  10.257 -0.6452  0.4675 -0.7947
  326MOL0     C44889   4.389   7.128  10.239  0.4188 -0.0600 -1.1062
  326MOL0     C44890   4.485   7.099  10.127  0.0195  0.7783  0.4612
  326MOL0     C44891   4.585   7.217  10.115 -0.8482 -0.7270 -0.3623
  326MOL0     C44892   4.662   7.211   9.981  0.2840 -0.2342 -0.0898
  326MOL0     C44893   4.740   7.334   9.953 -0.8592  0.1375 -0.1644
  326MOL0     C44894   4.857   7.303   9.857  0.5823  0.5374  0.7149
  326MOL0    Cl44895   4.909   7.453   9.777  0.1884 -0.0031 -0.8310
  326MOL0     C44896   3.979   6.891   9.951 -0.1840  0.9194 -0.4669
  326MOL0     C44897   3.910   6.802   9.867  0.3997 -0.3439  0.6974
  326MOL0     O44898   3.915   6.610   9.639  0.6131  0.5905  0.0836
  326MOL0     C44899   3.568   6.491   9.664  0.0655  0.8647 -1.2969
  326MOL0     C44900   3.467   6.417   9.611  0.2993  0.2239  0.2988
  326MOL0     N44901   2.833   6.307   9.187 -0.2269  0.3566  0.2915
  326MOL0     N44902   2.706   6.337   9.189 -1.1836  0.1206 -0.3403
  326MOL0     C44903   1.589   5.906   8.613  0.1677 -0.6996 -0.3166
  326MOL0     C44904   1.491   5.827   8.662  0.5499 -0.4919 -1.2605
  326MOL0     C44905   1.264   5.485   8.835 -0.1994  0.4434  0.5041
  326MOL0     C44906   1.137   5.559   8.851 -0.4068  0.0675 -0.3423
  326MOL0     C44907   1.022   5.480   8.853 -0.1136 -0.9295 -0.5549
  326MOL0     C44908   1.018   5.341   8.867 -0.2692 -0.5067  0.3380
  326MOL0     O44909   0.892   5.289   8.885 -0.3076 -0.4343 -0.4765
  326MOL0     C44910   0.872   5.167   8.962  0.1225 -0.5135 -0.8593
  326MOL0     C44911   0.907   5.190   9.111  0.5114 -0.0907 -0.3743
  326MOL0     C44912   0.803   5.294   9.161  0.0494 -0.0083  0.2102
  326MOL0     C44913   0.817   5.328   9.308  0.0482 -0.6985 -0.3307
  326MOL0     C44914   0.784   5.214   9.397  0.4696 -0.0855 -0.2983
  326MOL0     C44915   0.779   5.117   9.465  0.0316 -0.1486 -0.8451
  326MOL0     C44916   1.136   5.275   8.873  0.4773  0.4490  0.2442
  326MOL0     C44917   1.261   5.340   8.861  0.6347 -0.6908 -0.2088
  326MOL0     C44918   1.382   5.258   8.860 -0.4557 -0.0282 -0.7422
  326MOL0     H44919   1.618   5.747   8.964 -1.5315  1.6773  1.2727
  326MOL0     H44920   1.798   5.886   8.891 -1.0642 -0.6254  1.3526
  326MOL0     H44921   2.003   6.035   8.585 -3.9515  2.5504 -3.5848
  326MOL0     H44922   1.968   5.918   8.715 -1.7577 -0.7090  0.6630
  326MOL0     H44923   1.946   6.230   8.714 -2.1423  0.3816 -0.2025
  326MOL0     H44924   1.906   6.124   8.855 -2.2109  0.9307 -0.9530
  326MOL0     H44925   2.149   6.040   8.848  2.0930 -0.3401 -3.3748
  326MOL0     H44926   2.174   6.150   8.723  0.6039  2.0380  1.7491
  326MOL0     H44927   2.094   6.336   8.878 -1.5576 -0.7743 -0.3612
  326MOL0     H44928   2.055   6.223   9.001 -0.4829  3.8151  0.8657
  326MOL0     H44929   2.281   6.335   9.018  0.2088 -1.2219  0.6168
  326MOL0     H44930   2.335   6.213   8.891  2.1026 -1.7242  1.4380
  326MOL0     H44931   2.226   6.164   9.173  0.0795  1.4701  0.1782
  326MOL0     H44932   2.243   6.039   9.049  0.5904 -0.6268 -0.6487
  326MOL0     H44933   2.503   6.083   9.049  0.8083 -0.0408  0.0346
  326MOL0     H44934   2.440   6.043   9.213  2.8130 -0.2579 -0.2669
  326MOL0     H44935   2.457   6.329   9.161  1.6518  1.1434  1.2419
  326MOL0     H44936   2.434   6.223   9.303  1.1845 -5.0361 -0.1565
  326MOL0     H44937   2.698   6.020   9.259  2.8100  0.2688  4.2503
  326MOL0     H44938   3.050   6.139   9.153 -0.0389  0.0210  0.8345
  326MOL0     H44939   2.983   6.008   9.238  0.5687  0.4238  0.2532
  326MOL0     H44940   3.031   6.282   9.360 -3.4806 -0.1005  0.3879
  326MOL0     H44941   3.038   6.127   9.448 -0.9026 -0.8853 -1.2962
  326MOL0     H44942   3.255   6.066   9.335  0.5838  0.3696 -0.0371
  326MOL0     H44943   3.256   6.214   9.236 -1.2930 -1.5437 -0.9572
  326MOL0     H44944   3.224   6.333   9.476 -1.1630 -1.6781  2.6103
  326MOL0     H44945   3.283   6.184   9.540  1.0804 -0.5675 -1.0178
  326MOL0     H44946   3.673   6.254   9.397  3.7069  1.2921  0.7909
  326MOL0     H44947   3.940   6.297   9.612 -2.0000 -4.1063 -0.3263
  326MOL0     H44948   3.940   6.407   9.467 -0.6019  2.9668  1.7137
  326MOL0     H44949   3.885   6.240   9.454 -0.6725 -1.5971  1.7296
  326MOL0     H44950   3.823   6.570  10.096 -1.9233  1.9360  0.6241
  326MOL0     H44951   3.965   6.731  10.240  1.2827 -0.9976 -1.4907
  326MOL0     H44952   4.246   6.943  10.069 -0.0115  0.3929 -0.4502
  326MOL0     H44953   4.160   7.099  10.083 -1.5041  0.3626  0.0120
  326MOL0     H44954   4.207   7.056  10.335 -0.2077  4.8402 -2.0138
  326MOL0     H44955   4.311   6.928  10.299 -1.9707  1.3836  2.7835
  326MOL0     H44956   4.441   7.122  10.335 -1.1657 -2.2371 -0.2756
  326MOL0     H44957   4.339   7.224  10.223 -0.4828  0.0364  1.7223
  326MOL0     H44958   4.422   7.088  10.039 -2.0033 -3.0266  2.1502
  326MOL0     H44959   4.532   7.000  10.130 -1.7322 -0.1393 -0.7296
  326MOL0     H44960   4.546   7.318  10.131  3.3609  0.8481  1.3191
  326MOL0     H44961   4.660   7.204  10.194 -1.1292  1.1802  0.2732
  326MOL0     H44962   4.597   7.167   9.903  2.0015 -1.2800 -0.9990
  326MOL0     H44963   4.727   7.124   9.996  1.3231 -0.0819 -2.9599
  326MOL0     H44964   4.769   7.375  10.050  0.6217 -0.2917 -0.3853
  326MOL0     H44965   4.675   7.399   9.894  1.5692  2.7851 -0.1557
  326MOL0     H44966   4.830   7.226   9.783  1.2279 -1.8228  2.8163
  326MOL0     H44967   4.946   7.261   9.905  0.6965 -2.1824 -1.5968
  326MOL0     H44968   4.023   6.980   9.908  0.2725 -0.0247 -2.0521
  326MOL0     H44969   3.896   6.829   9.763 -1.1114  2.9540  1.6176
  326MOL0     H44970   3.538   6.559   9.743 -0.9556  0.6144 -1.4530
  326MOL0     H44971   3.365   6.425   9.648  0.6200 -1.3252  1.6530
  326MOL0     H44972   1.579   5.956   8.517  2.0124  1.5483  0.5449
  326MOL0     H44973   1.400   5.813   8.603 -0.5844 -1.7770  0.6855
  326MOL0     H44974   1.125   5.667   8.846 -1.6396 -0.0843 -1.1930
  326MOL0     H44975   0.930   5.537   8.854  0.0599 -0.6540 -0.0505
  326MOL0     H44976   0.774   5.123   8.942 -1.7082  2.0415  1.6589
  326MOL0     H44977   0.947   5.095   8.928 -0.1469 -1.2888  0.1380
  326MOL0     H44978   1.009   5.229   9.115 -0.7666  3.8011 -1.6907
  326MOL0     H44979   0.914   5.093   9.161  5.0473 -0.1457 -0.7107
  326MOL0     H44980   0.826   5.384   9.103  0.8890 -0.2017  0.2185
  326MOL0     H44981   0.697   5.269   9.150 -0.0694 -0.6448  2.3971
  326MOL0     H44982   0.755   5.416   9.328  0.2935 -1.2359  3.5113
  326MOL0     H44983   0.921   5.350   9.335 -0.5894 -1.6697  3.4871
  326MOL0     H44984   0.771   5.044   9.542  1.1947 -0.9955 -1.5037
  326MOL0     H44985   1.142   5.168   8.887 -1.1273 -0.3943 -4.0385
  326MOL0     H44986   1.411   5.220   8.762 -1.8233  0.3607 -1.3142
  326MOL0     H44987   1.464   5.319   8.898 -1.2310  0.1438  0.7513
  326MOL0     H44988   1.356   5.189   8.941 -0.9975 -0.6910 -1.4613
  327MOL0     O44989   2.691  11.262   3.947 -0.2904  0.9541  0.2496
  327MOL0     C44990   2.575  11.288   3.973 -0.9648 -0.1797  0.6823
  327MOL0     O44991   2.539  11.352   4.072  0.3509 -0.5654  0.1347
  327MOL0     C44992   2.614  11.368   4.193 -0.2833 -0.2294 -1.1923
  327MOL0     C44993   2.558  11.441   4.296 -0.1525  0.1287  1.4003
  327MOL0     C44994   2.620  11.460   4.415 -0.3807  0.8520 -0.7693
  327MOL0     C44995   2.753  11.403   4.443  0.7058  0.7875  0.2185
  327MOL0     O44996   2.816  11.431   4.565 -0.0246  0.0017 -0.8109
  327MOL0     C44997   2.818  11.573   4.598  0.5640  0.2734  0.3693
  327MOL0     C44998   2.885  11.666   4.486 -0.2137 -0.2572 -0.3064
  327MOL0     C44999   3.037  11.657   4.501  0.1887 -0.6805  0.7393
  327MOL0     C45000   3.094  11.757   4.396 -0.4940  0.2315 -0.2266
  327MOL0     C45001   3.251  11.752   4.402  0.0577 -0.0864 -1.1975
  327MOL0     C45002   3.306  11.880   4.332  0.3596 -0.6496  0.8479
  327MOL0     C45003   3.465  11.874   4.338  0.2789 -0.0315 -0.0953
  327MOL0     C45004   3.522  11.949   4.218  0.5942 -0.7901 -0.4360
  327MOL0     N45005   3.471  12.090   4.216 -0.3273 -0.4349 -0.5921
  327MOL0     C45006   3.497  12.182   4.312  0.0839  0.0468 -0.2558
  327MOL0     C45007   3.427  12.287   4.265 -0.2238  0.2294 -0.0099
  327MOL0     C45008   3.421  12.415   4.330 -0.8383  0.0339  0.2130
  327MOL0     C45009   3.467  12.528   4.245 -0.1030  0.8137  0.5191
  327MOL0     C45010   3.429  12.668   4.283 -0.0989  0.4055  1.3555
  327MOL0     C45011   3.274  12.699   4.289  0.3420 -0.4874  0.7107
  327MOL0     O45012   3.263  12.841   4.314  1.0680  0.3286  0.2143
  327MOL0     C45013   3.160  12.910   4.257  0.0472  0.5735 -0.3060
  327MOL0     C45014   3.051  12.850   4.196 -0.4584  0.4555 -0.4715
  327MOL0     C45015   2.945  12.934   4.151  0.6353 -0.2624 -0.8825
  327MOL0     C45016   2.835  12.861   4.087  0.0608  0.0328 -0.2811
  327MOL0     C45017   2.950  13.079   4.171 -0.1484 -0.3227 -0.1560
  327MOL0     C45018   2.853  13.180   4.123  0.3447 -0.3631  0.7375
  327MOL0     O45019   2.896  13.310   4.119 -0.2424 -0.4838  0.3044
  327MOL0     C45020   2.825  13.422   4.092 -0.0445  0.0026 -0.8440
  327MOL0     C45021   2.722  13.426   3.994  0.8528  0.6525  0.9125
  327MOL0     C45022   2.643  13.539   3.966 -0.6317 -0.1330  0.5396
  327MOL0     C45023   2.665  13.657   4.039  0.7203  0.3559 -0.3860
  327MOL0     O45024   2.596  13.777   4.035 -0.7417  0.0713  0.5004
  327MOL0     C45025   2.474  13.781   3.962  0.6468 -0.2095 -0.6246
  327MOL0     C45026   2.435  13.925   3.961 -0.5019 -1.1992 -0.5273
  327MOL0     C45027   2.339  13.953   3.841 -0.3632 -0.2049  0.5461
  327MOL0     C45028   2.280  14.093   3.877 -0.3766  0.3302 -0.0908
  327MOL0     C45029   2.183  14.141   3.763  0.1277  0.5933  0.5648
  327MOL0     C45030   2.270  14.181   3.641  0.0754 -0.5121  0.3967
  327MOL0     C45031   2.176  14.261   3.538  1.0465  0.2128  0.6347
  327MOL0     C45032   2.233  14.298   3.409 -0.0627 -0.8764 -0.3459
  327MOL0    Cl45033   2.353  14.433   3.449 -0.0600  0.0643 -0.0535
  327MOL0     C45034   2.773  13.653   4.137  0.8207 -0.4557  0.5039
  327MOL0     C45035   2.853  13.535   4.164  0.2242 -1.4780 -0.0927
  327MOL0     O45036   2.737  13.151   4.108 -1.1754 -0.2448  0.2129
  327MOL0     C45037   3.060  13.130   4.236 -1.3826 -0.1636 -0.6180
  327MOL0     C45038   3.168  13.043   4.267 -0.0081 -1.1342  0.6584
  327MOL0     N45039   3.359  12.257   4.147 -0.4891 -0.6152 -0.2833
  327MOL0     N45040   3.390  12.140   4.118 -0.2376 -0.4102  0.2354
  327MOL0     C45041   2.817  11.332   4.344 -0.1011 -0.1589  0.9424
  327MOL0     C45042   2.745  11.312   4.218 -1.1042  0.2199 -0.2017
  327MOL0     C45043   2.484  11.254   3.870  0.1264  0.4061 -0.2461
  327MOL0     C45044   2.373  11.339   3.856  0.1967 -0.9888  0.6213
  327MOL0     C45045   2.278  11.309   3.755 -0.2806  0.2644 -0.7760
  327MOL0     C45046   2.313  11.205   3.665  0.2940  0.1704 -0.1442
  327MOL0     O45047   2.233  11.173   3.561 -0.1182  0.0270  0.2258
  327MOL0     C45048   2.150  11.278   3.513 -0.3608 -0.3904 -0.1730
  327MOL0     C45049   2.078  11.218   3.390  0.4854  0.7327  0.0456
  327MOL0     C45050   1.980  11.318   3.325  0.0356  0.0532 -0.0809
  327MOL0     C45051   1.898  11.250   3.216  0.0889  0.7750  0.7780
  327MOL0     C45052   1.780  11.326   3.172 -0.2944  0.1229  0.0750
  327MOL0     C45053   1.679  11.382   3.143 -0.8969 -0.0100  0.2563
  327MOL0     C45054   2.412  11.114   3.694  0.4090 -0.9351  0.0097
  327MOL0     C45055   2.499  11.133   3.798 -0.0197  0.4169 -0.4372
  327MOL0     C45056   2.608  11.022   3.828  0.2568 -0.3184  1.0394
  327MOL0     H45057   2.463  11.482   4.263  0.0329 -1.6007 -1.6866
  327MOL0     H45058   2.574  11.509   4.500  0.0564 -1.1481  0.6898
  327MOL0     H45059   2.870  11.584   4.693  1.4795  3.0917 -0.3374
  327MOL0     H45060   2.715  11.608   4.610 -0.7251 -2.3985 -1.7129
  327MOL0     H45061   2.864  11.627   4.385  1.1046  0.2332 -0.7868
  327MOL0     H45062   2.851  11.769   4.496 -5.0492 -1.6200 -0.3812
  327MOL0     H45063   3.064  11.698   4.599 -2.3685  1.8015  0.5495
  327MOL0     H45064   3.070  11.553   4.488 -0.9032 -1.1252  1.3537
  327MOL0     H45065   3.053  11.730   4.298 -3.1470  1.8715  0.3363
  327MOL0     H45066   3.058  11.858   4.416  1.0436  0.9371 -0.8105
  327MOL0     H45067   3.292  11.662   4.358  1.0118  0.3729 -1.2694
  327MOL0     H45068   3.273  11.753   4.509 -1.4210 -2.9943 -0.7870
  327MOL0     H45069   3.268  11.892   4.230  1.1860  1.9773  0.7859
  327MOL0     H45070   3.284  11.976   4.379  1.0332  0.8752 -1.7956
  327MOL0     H45071   3.503  11.772   4.334 -4.7702 -2.1471 -2.2709
  327MOL0     H45072   3.494  11.916   4.435 -3.2098 -0.0245  1.0739
  327MOL0     H45073   3.631  11.951   4.221  0.7448 -2.8749 -2.2032
  327MOL0     H45074   3.499  11.896   4.125  1.0383  0.0456 -1.0243
  327MOL0     H45075   3.549  12.175   4.407 -1.7416  3.0687  1.1123
  327MOL0     H45076   3.481  12.411   4.421 -0.1589  0.3998 -0.2113
  327MOL0     H45077   3.321  12.443   4.364 -0.1495  2.2434  0.6248
  327MOL0     H45078   3.576  12.538   4.246 -0.1032  1.9292 -2.2149
  327MOL0     H45079   3.450  12.513   4.138  1.6579 -0.5140  0.3804
  327MOL0     H45080   3.468  12.675   4.385  1.0199 -2.7043  1.2260
  327MOL0     H45081   3.492  12.735   4.224  2.5964 -0.4134  3.0894
  327MOL0     H45082   3.241  12.668   4.189  1.4275  1.0007 -0.1495
  327MOL0     H45083   3.230  12.632   4.364 -0.2041  1.1222  1.8689
  327MOL0     H45084   3.034  12.743   4.198 -1.6516  0.6388  0.3656
  327MOL0     H45085   2.854  12.883   3.982 -1.7131  0.9702 -0.4474
  327MOL0     H45086   2.730  12.887   4.105 -0.2485 -0.1652 -1.7225
  327MOL0     H45087   2.839  12.759   4.126  1.6740  1.4812  4.0079
  327MOL0     H45088   2.691  13.335   3.944  1.8421  0.8288 -0.0546
  327MOL0     H45089   2.558  13.529   3.900 -1.7728  1.3502  1.7031
  327MOL0     H45090   2.477  13.742   3.860  0.0737 -0.4133 -0.5661
  327MOL0     H45091   2.396  13.723   4.013 -0.7767  1.2030 -1.1253
  327MOL0     H45092   2.391  13.941   4.060  0.9860 -2.0770  0.3277
  327MOL0     H45093   2.528  13.981   3.943 -1.3504 -0.4991 -3.1600
  327MOL0     H45094   2.267  13.871   3.839  2.3517 -2.8366  2.6842
  327MOL0     H45095   2.394  13.960   3.747  0.2776  2.0305  1.0101
  327MOL0     H45096   2.353  14.158   3.926 -0.5211 -1.1607  2.2368
  327MOL0     H45097   2.210  14.072   3.958  1.3435 -0.7154  1.1980
  327MOL0     H45098   2.123  14.060   3.719 -0.5562  3.5542 -4.7723
  327MOL0     H45099   2.114  14.220   3.794 -2.8516 -1.2691 -0.7659
  327MOL0     H45100   2.309  14.100   3.579  0.8229  0.1002  0.0426
  327MOL0     H45101   2.344  14.255   3.674  0.5784 -0.7799 -0.1131
  327MOL0     H45102   2.123  14.344   3.585 -2.2331 -1.4708  0.2071
  327MOL0     H45103   2.096  14.188   3.519 -0.6132  1.4545  2.4338
  327MOL0     H45104   2.151  14.342   3.353 -0.4278 -1.0229  0.0689
  327MOL0     H45105   2.279  14.218   3.351  1.3673 -1.1484  1.0850
  327MOL0     H45106   2.788  13.750   4.183 -4.4409  1.0902 -0.3464
  327MOL0     H45107   2.936  13.546   4.234  1.8075 -0.9495 -1.9663
  327MOL0     H45108   3.080  13.233   4.265  0.9044 -1.7679  4.5925
  327MOL0     H45109   3.246  13.104   4.313 -1.7890  0.5397  1.6029
  327MOL0     H45110   2.913  11.290   4.370 -1.3319 -2.5380  1.9876
  327MOL0     H45111   2.803  11.256   4.145 -1.4655 -0.4791  0.0363
  327MOL0     H45112   2.365  11.430   3.915  1.2463 -0.6683  0.2860
  327MOL0     H45113   2.196  11.380   3.743  0.7182  1.4976 -0.4222
  327MOL0     H45114   2.077  11.319   3.583 -0.9704 -0.2286 -0.8889
  327MOL0     H45115   2.209  11.361   3.471  1.4387 -0.5830  1.7738
  327MOL0     H45116   2.016  11.138   3.430  0.2135  0.7140 -0.4043
  327MOL0     H45117   2.148  11.186   3.313 -2.1083  2.1215 -3.1464
  327MOL0     H45118   1.918  11.367   3.401  3.9063 -0.0843  3.5647
  327MOL0     H45119   2.040  11.398   3.281  1.9884 -2.0141 -1.3995
  327MOL0     H45120   1.863  11.154   3.257  1.0575  0.4507  0.8594
  327MOL0     H45121   1.960  11.234   3.128  0.8839 -0.2172  1.4832
  327MOL0     H45122   1.597  11.435   3.098 -0.8892 -1.5507 -1.7372
  327MOL0     H45123   2.438  11.035   3.624 -2.9398 -0.7077 -1.6866
  327MOL0     H45124   2.610  11.002   3.935 -0.1610 -0.9403  0.9383
  327MOL0     H45125   2.572  10.931   3.778  0.6329 -1.5885  2.9932
  327MOL0     H45126   2.703  11.060   3.791 -1.3486 -0.1018 -3.4800
  328MOL0     O45127   6.862   2.768   7.722 -0.2883  0.9548 -0.0116
  328MOL0     C45128   6.788   2.717   7.812 -0.1764  0.1876  0.4748
  328MOL0     O45129   6.655   2.726   7.807  0.0727  0.6778 -0.2419
  328MOL0     C45130   6.584   2.796   7.716 -0.1877 -0.5717  0.6401
  328MOL0     C45131   6.528   2.731   7.603  0.3227  0.0093 -0.0050
  328MOL0     C45132   6.468   2.797   7.499  0.1773  0.0157  0.3446
  328MOL0     C45133   6.442   2.933   7.505 -0.6241  0.1226  0.8111
  328MOL0     O45134   6.372   2.988   7.407  1.4393  1.0632  0.4414
  328MOL0     C45135   6.359   3.129   7.382  0.5882  0.0599  0.6342
  328MOL0     C45136   6.306   3.159   7.242 -0.8099 -0.5307 -0.5529
  328MOL0     C45137   6.272   3.309   7.235  0.3065  1.5526  1.2243
  328MOL0     C45138   6.384   3.413   7.234  0.6440 -0.2569  0.1425
  328MOL0     C45139   6.328   3.560   7.243  0.1138 -0.2268  0.8470
  328MOL0     C45140   6.318   3.604   7.383  0.2584  0.6703  0.4150
  328MOL0     C45141   6.288   3.752   7.403 -0.0844  0.3845  0.2621
  328MOL0     C45142   6.152   3.807   7.351  1.2017  0.5056  0.2164
  328MOL0     N45143   6.040   3.721   7.391  0.3429 -0.2358  1.2253
  328MOL0     C45144   5.950   3.737   7.493 -0.1745 -0.1065  0.7272
  328MOL0     C45145   5.879   3.620   7.510 -0.8393 -0.0243 -0.8773
  328MOL0     C45146   5.767   3.583   7.612  0.3561  0.5287  0.7814
  328MOL0     C45147   5.726   3.444   7.598  0.0448  0.1392  0.1902
  328MOL0     C45148   5.613   3.412   7.699  0.0004  0.8908 -0.0326
  328MOL0     C45149   5.550   3.278   7.662 -0.2939  0.5633  0.7313
  328MOL0     O45150   5.435   3.271   7.751 -0.5806  0.8106 -0.4123
  328MOL0     C45151   5.379   3.146   7.761 -0.0730 -1.2539  0.4562
  328MOL0     C45152   5.316   3.112   7.883 -0.5159 -0.5411  0.7927
  328MOL0     C45153   5.262   2.984   7.898 -0.1129  0.4417 -0.4894
  328MOL0     C45154   5.202   2.955   8.036 -0.8907  0.6853  0.3008
  328MOL0     C45155   5.248   2.894   7.795 -0.0049  0.4001  0.7145
  328MOL0     C45156   5.176   2.761   7.799  0.3918  0.0203  0.0689
  328MOL0     O45157   5.198   2.685   7.685 -0.8547 -0.6066 -0.6487
  328MOL0     C45158   5.154   2.555   7.677 -0.2869 -0.4076  0.0919
  328MOL0     C45159   5.019   2.535   7.638  0.5931  0.3856 -0.1649
  328MOL0     C45160   4.973   2.400   7.628  0.7531  1.5820  0.4795
  328MOL0     C45161   5.052   2.290   7.673 -0.0437  0.1433  0.4173
  328MOL0     O45162   5.004   2.161   7.654 -0.2510 -0.1407 -0.4804
  328MOL0     C45163   5.081   2.046   7.693 -0.2958 -0.3172  0.2353
  328MOL0     C45164   5.072   2.009   7.843 -0.7825  0.9788 -0.1395
  328MOL0     C45165   4.944   2.027   7.914  0.6701 -0.7129 -0.3373
  328MOL0     C45166   4.970   2.013   8.062 -0.4491  0.3722  0.0277
  328MOL0     C45167   4.846   2.019   8.147  0.2654  0.4669  0.1154
  328MOL0     C45168   4.759   2.133   8.099  0.6326 -0.7757 -0.2170
  328MOL0     C45169   4.630   2.165   8.174  0.1526 -0.6709 -0.1655
  328MOL0     C45170   4.519   2.069   8.173  0.2641  0.2472 -0.3558
  328MOL0    Cl45171   4.459   2.071   8.000 -0.2978 -0.3279 -0.5301
  328MOL0     C45172   5.186   2.317   7.719  0.1237  0.9365  0.3431
  328MOL0     C45173   5.232   2.445   7.715  0.1856  0.2032 -1.2107
  328MOL0     O45174   5.114   2.718   7.897  0.2391  0.1623  0.0748
  328MOL0     C45175   5.306   2.937   7.674 -0.0091  0.1208 -1.5712
  328MOL0     C45176   5.376   3.061   7.658  0.0890  0.7058 -0.0138
  328MOL0     N45177   5.919   3.531   7.406 -0.2612 -0.4409 -0.4856
  328MOL0     N45178   6.015   3.593   7.345  1.0526  0.3966 -0.8340
  328MOL0     C45179   6.484   2.997   7.621 -1.0547  0.5438 -1.2138
  328MOL0     C45180   6.555   2.932   7.724 -0.5465  0.1192 -0.2256
  328MOL0     C45181   6.850   2.634   7.916  0.4004  1.4838 -0.0878
  328MOL0     C45182   6.787   2.630   8.041  0.6188  0.0075  0.3928
  328MOL0     C45183   6.834   2.561   8.150 -0.3764 -0.5905  0.2363
  328MOL0     C45184   6.960   2.503   8.133  0.2339  0.5413 -0.4803
  328MOL0     O45185   7.025   2.441   8.233 -0.7137  0.1984  0.4081
  328MOL0     C45186   6.951   2.414   8.355  0.2624  0.6713 -0.1115
  328MOL0     C45187   7.039   2.308   8.434 -0.0475  0.4468 -0.1924
  328MOL0     C45188   6.965   2.262   8.559 -0.1173 -0.2081 -0.0554
  328MOL0     C45189   7.059   2.181   8.655  0.9091  0.4351  0.1263
  328MOL0     C45190   7.154   2.272   8.714 -0.0760  0.1366 -0.6546
  328MOL0     C45191   7.231   2.354   8.757  0.0968 -0.0229 -0.6333
  328MOL0     C45192   7.023   2.504   8.010 -0.2026  0.1781 -0.4843
  328MOL0     C45193   6.969   2.560   7.895  0.1352  0.5374 -0.3048
  328MOL0     C45194   7.059   2.552   7.764  0.8752 -0.2008 -0.1412
  328MOL0     H45195   6.537   2.626   7.580  0.9274 -0.5499  2.5184
  328MOL0     H45196   6.409   2.758   7.416  0.9566 -0.4860  0.0187
  328MOL0     H45197   6.450   3.188   7.393  0.4707  0.6824 -1.3341
  328MOL0     H45198   6.290   3.158   7.462 -1.4883  1.4555 -1.5139
  328MOL0     H45199   6.382   3.137   7.167 -1.2124 -1.4557 -0.6976
  328MOL0     H45200   6.214   3.109   7.212 -1.4556  0.1972  0.1563
  328MOL0     H45201   6.201   3.316   7.152 -2.4868 -1.0642  3.1793
  328MOL0     H45202   6.207   3.337   7.318 -2.1726  1.2494 -0.4945
  328MOL0     H45203   6.458   3.402   7.313 -1.6338  0.9571  2.5957
  328MOL0     H45204   6.439   3.409   7.139  1.3317  0.5788  0.4899
  328MOL0     H45205   6.236   3.574   7.185  2.1117  0.3764 -2.4347
  328MOL0     H45206   6.406   3.623   7.200  1.2724 -2.5973 -0.7661
  328MOL0     H45207   6.250   3.537   7.437  0.5111  0.3143  0.2988
  328MOL0     H45208   6.414   3.591   7.433  0.2500 -1.0531  0.0538
  328MOL0     H45209   6.364   3.805   7.346 -1.0521 -1.1253 -2.5855
  328MOL0     H45210   6.294   3.778   7.509 -0.0549  2.0538 -0.1193
  328MOL0     H45211   6.136   3.909   7.387 -0.6737  0.1098  0.5912
  328MOL0     H45212   6.156   3.811   7.242  2.9149  1.1278  0.2642
  328MOL0     H45213   5.939   3.827   7.552  2.2243  3.3459 -3.5008
  328MOL0     H45214   5.676   3.638   7.586 -0.7357 -1.1081  0.9958
  328MOL0     H45215   5.798   3.604   7.715 -1.0405  0.4918  1.2200
  328MOL0     H45216   5.690   3.431   7.495  0.6482  2.1269 -0.3119
  328MOL0     H45217   5.811   3.376   7.612  0.3939  0.8490  1.6460
  328MOL0     H45218   5.656   3.409   7.800  1.0588  3.6419 -0.3108
  328MOL0     H45219   5.544   3.496   7.703 -1.2481  0.0275 -1.9530
  328MOL0     H45220   5.518   3.281   7.558  0.7184 -1.8003  0.2910
  328MOL0     H45221   5.618   3.192   7.669 -0.8603  0.1170  0.7995
  328MOL0     H45222   5.307   3.185   7.963  0.4665  1.4114 -0.7763
  328MOL0     H45223   5.262   2.880   8.090 -0.2144 -0.0470 -1.3861
  328MOL0     H45224   5.101   2.921   8.012 -0.8203  1.1619 -0.7174
  328MOL0     H45225   5.186   3.041   8.101  1.8076  1.4493  0.0888
  328MOL0     H45226   4.954   2.616   7.605  0.6350  0.4205 -0.1606
  328MOL0     H45227   4.881   2.375   7.575 -0.4077 -0.0004  3.0655
  328MOL0     H45228   5.050   1.954   7.642  2.6360 -1.8272  0.9789
  328MOL0     H45229   5.178   2.059   7.645  0.6958  1.9686  2.6435
  328MOL0     H45230   5.096   1.903   7.853  0.4338  1.4647  2.8860
  328MOL0     H45231   5.156   2.061   7.889 -0.0372 -0.1846 -0.1393
  328MOL0     H45232   4.873   1.954   7.874 -1.3505  0.7479  0.4043
  328MOL0     H45233   4.917   2.131   7.894 -0.1139 -0.6456  0.9576
  328MOL0     H45234   5.042   2.089   8.092  3.5249 -2.8913 -0.3459
  328MOL0     H45235   5.012   1.914   8.086 -1.4061  0.4680  2.4292
  328MOL0     H45236   4.789   1.932   8.114 -2.3708  2.4580 -0.9159
  328MOL0     H45237   4.867   2.023   8.255  1.1163 -1.0890  0.0383
  328MOL0     H45238   4.745   2.109   7.993  1.4191 -3.7166  0.2372
  328MOL0     H45239   4.819   2.224   8.102  1.8058 -1.4477 -1.7644
  328MOL0     H45240   4.586   2.252   8.126  0.6268 -0.0842  0.4472
  328MOL0     H45241   4.652   2.192   8.277  0.2941  1.3589 -0.6888
  328MOL0     H45242   4.442   2.088   8.248  1.5830 -2.0251  1.7028
  328MOL0     H45243   4.560   1.972   8.201 -1.5787 -0.6461 -0.5844
  328MOL0     H45244   5.241   2.236   7.767 -0.4177  0.0888 -0.4343
  328MOL0     H45245   5.330   2.478   7.748 -0.2918  0.3462  0.0935
  328MOL0     H45246   5.297   2.865   7.593  0.6608  0.1215 -1.6513
  328MOL0     H45247   5.417   3.085   7.561  1.1214 -2.4503 -0.4922
  328MOL0     H45248   6.460   3.101   7.641  0.2085  0.5039  0.7975
  328MOL0     H45249   6.593   2.984   7.812  1.2316 -0.1902 -0.7706
  328MOL0     H45250   6.685   2.667   8.047  0.4247 -0.6855  1.6222
  328MOL0     H45251   6.774   2.577   8.239  0.2661  2.8245  0.1876
  328MOL0     H45252   6.934   2.499   8.421 -2.3507  0.2034 -0.0630
  328MOL0     H45253   6.854   2.367   8.336 -0.8143  3.1484 -1.1763
  328MOL0     H45254   7.133   2.355   8.465  0.4492 -1.0625  0.6985
  328MOL0     H45255   7.069   2.224   8.370  0.8323 -0.8598  1.8209
  328MOL0     H45256   6.933   2.355   8.605  1.8948 -0.9841  3.2019
  328MOL0     H45257   6.876   2.207   8.527 -0.7176  1.8111 -2.1647
  328MOL0     H45258   7.102   2.097   8.600 -0.0311  0.6630 -1.0129
  328MOL0     H45259   7.005   2.132   8.736  1.4520 -2.1191 -0.9703
  328MOL0     H45260   7.296   2.412   8.818 -1.8215  1.1367  0.4101
  328MOL0     H45261   7.121   2.461   7.996 -0.4764  0.3326 -3.4703
  328MOL0     H45262   7.128   2.636   7.760  0.2825  0.2494 -1.1856
  328MOL0     H45263   7.121   2.462   7.773  0.4471 -0.4520  0.3655
  328MOL0     H45264   7.000   2.565   7.674  0.6327  2.3458  0.3058
  329MOL0     O45265   0.849   7.349   7.531  0.0402 -0.3228  0.8149
  329MOL0     C45266   0.837   7.413   7.636  0.6146 -0.3776 -0.4045
  329MOL0     O45267   0.926   7.416   7.737 -0.8260 -0.2320 -0.6320
  329MOL0     C45268   1.049   7.358   7.721 -0.7831 -0.1044  0.4833
  329MOL0     C45269   1.130   7.405   7.613  0.0958 -0.1300  1.3944
  329MOL0     C45270   1.255   7.353   7.607 -0.7321  0.7187 -0.4735
  329MOL0     C45271   1.298   7.251   7.700 -0.2103 -0.3614 -0.2181
  329MOL0     O45272   1.417   7.197   7.676  0.2911  0.0192 -0.1556
  329MOL0     C45273   1.431   7.062   7.626  0.1831 -0.9473 -0.0973
  329MOL0     C45274   1.572   7.020   7.654 -0.0456 -0.5995 -0.7738
  329MOL0     C45275   1.594   6.887   7.575 -0.6731  0.0940  0.7143
  329MOL0     C45276   1.724   6.811   7.620 -0.3344  0.3713  0.0492
  329MOL0     C45277   1.750   6.688   7.537 -0.8490  0.8133  0.1834
  329MOL0     C45278   1.836   6.582   7.616  0.6887 -0.6251 -0.1301
  329MOL0     C45279   1.865   6.462   7.531 -0.1880  0.4671  0.1247
  329MOL0     C45280   1.978   6.384   7.594  0.1810  0.2886 -0.3255
  329MOL0     N45281   1.929   6.285   7.685  0.0469  0.0258  0.4991
  329MOL0     C45282   1.849   6.180   7.653 -0.3378  0.5508  0.3180
  329MOL0     C45283   1.818   6.115   7.772 -0.6611 -0.3558  0.9225
  329MOL0     C45284   1.730   5.984   7.773  0.7815  0.4911  0.6627
  329MOL0     C45285   1.742   5.917   7.913 -0.2561 -0.6366  1.5879
  329MOL0     C45286   1.660   5.786   7.899 -0.7092 -0.7465 -0.8530
  329MOL0     C45287   1.703   5.676   7.797 -0.6451  0.5036  0.5380
  329MOL0     O45288   1.624   5.562   7.794  0.9641 -1.3176  0.4190
  329MOL0     C45289   1.638   5.459   7.708 -0.7199  0.2720  0.2455
  329MOL0     C45290   1.535   5.363   7.723  0.0993 -0.3074  0.2276
  329MOL0     C45291   1.553   5.236   7.665 -0.4870  0.3609  0.9283
  329MOL0     C45292   1.462   5.123   7.695 -0.7638 -0.1357  0.0735
  329MOL0     C45293   1.668   5.218   7.576  0.1627 -0.2500 -0.2103
  329MOL0     C45294   1.690   5.098   7.491 -0.6607 -0.1196  0.6331
  329MOL0     O45295   1.782   5.112   7.386 -0.0102  0.5437 -0.1802
  329MOL0     C45296   1.814   4.995   7.325  0.4450  0.1856  0.7568
  329MOL0     C45297   1.787   4.943   7.203  1.5359 -0.1177  0.4830
  329MOL0     C45298   1.830   4.821   7.153 -1.0598  0.4650  0.8929
  329MOL0     C45299   1.913   4.747   7.223  0.5862  0.5940 -0.6408
  329MOL0     O45300   1.948   4.620   7.183  0.1205 -0.5275  0.5839
  329MOL0     C45301   1.930   4.557   7.048 -0.1361  0.6939  0.0348
  329MOL0     C45302   1.937   4.400   7.048 -0.9469 -0.4607 -0.5808
  329MOL0     C45303   2.072   4.332   7.097  0.5130 -0.4341  0.4987
  329MOL0     C45304   2.195   4.394   7.036 -0.3444 -0.5563  1.2415
  329MOL0     C45305   2.211   4.373   6.880  0.2422  1.0260 -0.4162
  329MOL0     C45306   2.324   4.446   6.809 -0.9438 -0.0974 -0.0414
  329MOL0     C45307   2.318   4.408   6.658 -0.0118 -0.5926  0.6286
  329MOL0     C45308   2.416   4.487   6.570  0.0184 -0.3483 -0.4479
  329MOL0    Cl45309   2.590   4.462   6.634  0.0634  0.1009  0.0591
  329MOL0     C45310   1.960   4.799   7.345 -0.2811  0.0237  0.8805
  329MOL0     C45311   1.913   4.919   7.393 -0.7393  0.1337 -0.0938
  329MOL0     O45312   1.627   4.992   7.514 -0.4837 -0.0177  0.7068
  329MOL0     C45313   1.761   5.325   7.557  0.9441  0.6125  0.2679
  329MOL0     C45314   1.746   5.442   7.621  0.5094 -0.5150  0.1438
  329MOL0     N45315   1.888   6.182   7.873  0.1836 -0.2788 -0.1853
  329MOL0     N45316   1.962   6.270   7.820  0.1770  0.7654  0.2173
  329MOL0     C45317   1.217   7.217   7.811  0.0001  0.3358  0.9774
  329MOL0     C45318   1.096   7.271   7.818  1.0234  0.2296 -0.1838
  329MOL0     C45319   0.714   7.496   7.648  0.0204  0.7439  0.8961
  329MOL0     C45320   0.601   7.452   7.571  0.3476  0.7784 -0.4770
  329MOL0     C45321   0.471   7.499   7.569 -0.1383 -1.5465  1.0182
  329MOL0     C45322   0.445   7.609   7.660 -0.2944 -0.7065 -0.1547
  329MOL0     O45323   0.318   7.673   7.671 -0.4802  0.9503  0.0637
  329MOL0     C45324   0.220   7.617   7.579 -0.0007  0.2020 -0.3180
  329MOL0     C45325   0.085   7.680   7.603 -0.3642  0.3047 -1.0063
  329MOL0     C45326   0.023   7.601   7.724  0.4431  0.1556  0.6569
  329MOL0     C45327  -0.115   7.648   7.757 -0.5541  0.2253 -0.6733
  329MOL0     C45328  -0.186   7.560   7.852  0.4650  1.0179 -0.4783
  329MOL0     C45329  -0.230   7.501   7.950 -0.7522  0.0659  0.4023
  329MOL0     C45330   0.553   7.663   7.730  0.4158  0.1833 -0.4807
  329MOL0     C45331   0.687   7.611   7.724  1.3034 -0.3725  0.6707
  329MOL0     C45332   0.776   7.673   7.823  0.5015 -0.1673  0.7293
  329MOL0     H45333   1.081   7.473   7.544  0.4701 -1.0202  0.2097
  329MOL0     H45334   1.335   7.370   7.536  0.8500 -1.9185  0.5048
  329MOL0     H45335   1.411   7.063   7.518 -2.0563  0.0951  0.2911
  329MOL0     H45336   1.375   6.979   7.670 -2.3270 -0.7346 -2.6601
  329MOL0     H45337   1.651   7.091   7.628  0.0167 -1.5170 -3.4480
  329MOL0     H45338   1.579   7.000   7.761  0.8744 -1.2489 -0.9415
  329MOL0     H45339   1.507   6.821   7.587 -2.2703  2.0218  0.3161
  329MOL0     H45340   1.595   6.904   7.467 -0.5069 -0.9486  0.5353
  329MOL0     H45341   1.815   6.870   7.630  0.0111  0.0427 -1.0184
  329MOL0     H45342   1.696   6.793   7.724 -0.1387  0.8644  0.1918
  329MOL0     H45343   1.800   6.705   7.442  0.4079  0.3358  0.7366
  329MOL0     H45344   1.656   6.635   7.519 -0.7944  1.1904 -1.3087
  329MOL0     H45345   1.927   6.635   7.644 -0.7366  1.4848  0.7227
  329MOL0     H45346   1.779   6.567   7.708  0.9063 -0.8145 -0.0250
  329MOL0     H45347   1.907   6.501   7.438 -1.6593  2.6667  0.3021
  329MOL0     H45348   1.784   6.396   7.501  0.4231  0.7355 -2.3982
  329MOL0     H45349   2.048   6.337   7.524 -2.4291 -1.8726 -1.6427
  329MOL0     H45350   2.039   6.442   7.665 -1.3785  0.8133  0.6343
  329MOL0     H45351   1.794   6.163   7.561 -1.1658 -3.2174  1.3327
  329MOL0     H45352   1.777   5.915   7.702 -0.0490 -1.1232  1.6262
  329MOL0     H45353   1.629   5.994   7.732  0.5292  0.2941  1.2273
  329MOL0     H45354   1.844   5.907   7.952 -0.1216 -1.4569  1.0638
  329MOL0     H45355   1.684   5.981   7.980 -0.4962  0.3532  0.4758
  329MOL0     H45356   1.660   5.739   7.998  1.4904  1.7996  0.4809
  329MOL0     H45357   1.561   5.823   7.872  0.2846  2.0974 -0.9016
  329MOL0     H45358   1.701   5.723   7.698  1.5243 -0.0158  0.2127
  329MOL0     H45359   1.804   5.639   7.816 -1.5075 -1.6722  1.2007
  329MOL0     H45360   1.455   5.381   7.794  1.1116  1.1550  1.0575
  329MOL0     H45361   1.519   5.033   7.722 -0.5723 -0.2273 -0.6125
  329MOL0     H45362   1.405   5.113   7.602  1.4454  3.2646 -1.8341
  329MOL0     H45363   1.395   5.129   7.781  2.0117 -1.3934  2.5106
  329MOL0     H45364   1.707   4.993   7.149 -0.4814 -3.8919 -0.3428
  329MOL0     H45365   1.806   4.794   7.050 -3.7978  2.2074  0.9702
  329MOL0     H45366   1.827   4.572   7.012 -1.5546 -0.5089  3.1590
  329MOL0     H45367   1.999   4.602   6.977  1.5016  0.1299  1.2156
  329MOL0     H45368   1.847   4.366   7.102 -0.8902  1.5980  0.9112
  329MOL0     H45369   1.920   4.379   6.942  1.4661  5.4482 -2.4902
  329MOL0     H45370   2.074   4.224   7.081 -0.1061 -0.0602 -2.6227
  329MOL0     H45371   2.085   4.355   7.204  1.2049  0.4734  0.2314
  329MOL0     H45372   2.279   4.360   7.098 -0.2966  1.7672  2.5985
  329MOL0     H45373   2.191   4.503   7.037 -1.0888 -0.3437 -3.2593
  329MOL0     H45374   2.216   4.265   6.865 -0.3689  0.6514  1.7383
  329MOL0     H45375   2.111   4.410   6.852 -0.1519  1.4354  1.4045
  329MOL0     H45376   2.419   4.412   6.849 -0.7843 -1.4891 -1.5201
  329MOL0     H45377   2.317   4.555   6.811 -1.0567 -0.0946 -0.4338
  329MOL0     H45378   2.218   4.436   6.624  1.4821  2.2769 -1.8698
  329MOL0     H45379   2.324   4.299   6.646 -0.3146 -0.4648 -0.9399
  329MOL0     H45380   2.398   4.594   6.577 -0.7505 -0.3810 -1.6686
  329MOL0     H45381   2.408   4.471   6.462  1.9286 -1.2028 -0.4936
  329MOL0     H45382   2.022   4.736   7.408  2.2346  0.5627 -0.8797
  329MOL0     H45383   1.928   4.951   7.496 -3.1406  0.1982  0.3036
  329MOL0     H45384   1.841   5.311   7.485 -1.1814  0.6706 -2.2590
  329MOL0     H45385   1.826   5.513   7.601 -1.8669  1.9648 -1.2261
  329MOL0     H45386   1.262   7.167   7.897  0.0368  2.0116  1.9797
  329MOL0     H45387   1.036   7.241   7.903 -0.7100 -2.3953 -2.1964
  329MOL0     H45388   0.606   7.362   7.510  1.8456 -0.5024  1.4065
  329MOL0     H45389   0.398   7.467   7.495 -1.4937  0.1062  1.5644
  329MOL0     H45390   0.247   7.651   7.478 -0.1055  4.6011  0.9449
  329MOL0     H45391   0.213   7.508   7.579  2.7581 -0.0535  0.6791
  329MOL0     H45392   0.010   7.658   7.527 -1.1501  0.5490 -0.3260
  329MOL0     H45393   0.099   7.787   7.619  0.4384 -0.0512  0.9624
  329MOL0     H45394  -0.001   7.501   7.686  0.4386  0.1766  0.6036
  329MOL0     H45395   0.082   7.584   7.815 -2.1514  2.5894  2.9942
  329MOL0     H45396  -0.170   7.646   7.663  0.4964 -0.6564 -1.3022
  329MOL0     H45397  -0.113   7.750   7.795 -0.9679 -0.0204  0.0245
  329MOL0     H45398  -0.278   7.449   8.030  0.0205 -1.9684 -0.3833
  329MOL0     H45399   0.517   7.750   7.782 -2.0865 -0.0923 -1.5807
  329MOL0     H45400   0.720   7.688   7.916  2.0772  1.8380  1.4370
  329MOL0     H45401   0.857   7.608   7.859  0.2820 -0.2184  1.1455
  329MOL0     H45402   0.810   7.764   7.773  3.2337 -1.7459 -0.5269
  330MOL0     O45403   8.095   9.586   2.909  0.1630 -0.6775 -0.2376
  330MOL0     C45404   8.083   9.638   3.020 -0.2976 -0.1575  0.6423
  330MOL0     O45405   8.054   9.765   3.031 -0.4588 -0.7472  0.0730
  330MOL0     C45406   8.016   9.838   2.918 -0.3818  0.2102 -0.7195
  330MOL0     C45407   8.101   9.941   2.869 -0.0290  0.5216  0.4443
  330MOL0     C45408   8.055  10.016   2.759  0.7300 -0.2159  0.3939
  330MOL0     C45409   7.931   9.985   2.690  0.8139 -0.1221  0.9761
  330MOL0     O45410   7.900  10.062   2.579 -0.1764  0.1972 -0.1773
  330MOL0     C45411   7.756  10.079   2.552 -0.6050 -0.8022 -0.1979
  330MOL0     C45412   7.732  10.183   2.438 -0.3405  0.2652 -0.8540
  330MOL0     C45413   7.591  10.193   2.400 -0.6281 -0.6651 -0.3727
  330MOL0     C45414   7.578  10.305   2.286 -0.5691 -0.4907  0.6913
  330MOL0     C45415   7.433  10.313   2.236  0.2844  0.0355  0.0693
  330MOL0     C45416   7.342  10.361   2.346 -0.2893 -0.0139  0.3727
  330MOL0     C45417   7.213  10.441   2.301 -0.1549 -0.7135 -0.3062
  330MOL0     C45418   7.084  10.416   2.385  0.4103  0.0848 -0.1702
  330MOL0     N45419   7.101  10.459   2.523 -0.4523 -0.9413  0.3408
  330MOL0     C45420   7.136  10.382   2.630  0.4597  0.0444 -0.0704
  330MOL0     C45421   7.155  10.473   2.730 -0.3258  0.0975  0.7231
  330MOL0     C45422   7.214  10.445   2.862  0.5860  1.1130  0.0730
  330MOL0     C45423   7.358  10.495   2.873  0.0567  0.2512 -0.4929
  330MOL0     C45424   7.429  10.490   3.006 -0.8858 -0.1532 -0.3261
  330MOL0     C45425   7.574  10.554   2.996  0.8128 -0.3983 -0.8035
  330MOL0     O45426   7.655  10.458   2.937 -0.7909  0.4552 -0.0274
  330MOL0     C45427   7.791  10.480   2.923  0.3761 -1.0165  1.1708
  330MOL0     C45428   7.856  10.596   2.961 -1.1237  0.8281 -1.0387
  330MOL0     C45429   7.997  10.620   2.949  0.2535 -0.2734  0.0061
  330MOL0     C45430   8.059  10.758   2.977  0.1928 -0.7035 -0.4966
  330MOL0     C45431   8.081  10.515   2.896  0.6160  0.4946 -0.0528
  330MOL0     C45432   8.230  10.514   2.870 -0.0578 -0.5148 -0.1842
  330MOL0     O45433   8.279  10.389   2.833  0.1425 -0.4187  0.0755
  330MOL0     C45434   8.407  10.353   2.878  0.0378  0.0966  0.9496
  330MOL0     C45435   8.527  10.387   2.816 -0.1396 -0.4912 -0.4496
  330MOL0     C45436   8.648  10.327   2.855  0.1022  0.2137  1.1017
  330MOL0     C45437   8.659  10.243   2.971  0.8645 -0.6882  0.3634
  330MOL0     O45438   8.769  10.169   2.968 -0.4897 -0.2296 -0.9129
  330MOL0     C45439   8.812  10.097   3.086 -0.6069  0.0035 -0.4486
  330MOL0     C45440   8.786   9.945   3.075 -0.2326  0.0161  1.2115
  330MOL0     C45441   8.647   9.897   3.105  1.1747 -0.7533 -0.6893
  330MOL0     C45442   8.632   9.748   3.102 -1.0694  0.0955 -0.2671
  330MOL0     C45443   8.492   9.717   3.144 -0.3212  0.0180 -0.1741
  330MOL0     C45444   8.480   9.568   3.191 -0.7930  0.1000  0.6217
  330MOL0     C45445   8.494   9.473   3.066 -0.2016 -0.6301 -0.5735
  330MOL0     C45446   8.468   9.334   3.109  0.1147  0.2426  0.0737
  330MOL0    Cl45447   8.475   9.217   2.961 -0.7891  0.4862  0.2921
  330MOL0     C45448   8.534  10.230   3.042 -1.3015  0.0034  0.6954
  330MOL0     C45449   8.413  10.277   2.993 -0.3654  0.3628 -0.2187
  330MOL0     O45450   8.292  10.616   2.894 -0.1075  0.0279 -0.1074
  330MOL0     C45451   8.013  10.397   2.855  0.2444  0.1613 -0.2907
  330MOL0     C45452   7.876  10.379   2.869  0.3838  0.0138  0.9427
  330MOL0     N45453   7.144  10.597   2.686 -0.5037 -0.2248  0.3167
  330MOL0     N45454   7.113  10.596   2.565  0.3451 -0.3420  0.1969
  330MOL0     C45455   7.860   9.876   2.737  0.1856 -0.2322 -0.2131
  330MOL0     C45456   7.896   9.805   2.851  0.4477  0.1887 -0.1416
  330MOL0     C45457   8.107   9.554   3.139 -0.0944 -0.8732 -0.0289
  330MOL0     C45458   8.119   9.626   3.263  0.8481 -0.8610 -0.6769
  330MOL0     C45459   8.142   9.552   3.384 -0.1133  1.1387 -0.3033
  330MOL0     C45460   8.168   9.407   3.374  0.0548  0.6385  0.3932
  330MOL0     O45461   8.178   9.321   3.485 -1.5731  0.4160 -0.1003
  330MOL0     C45462   8.272   9.355   3.589  0.7070  0.2551 -1.1653
  330MOL0     C45463   8.410   9.320   3.549  0.4872  0.2213 -0.3955
  330MOL0     C45464   8.417   9.172   3.511  0.4371  0.1860 -0.0790
  330MOL0     C45465   8.553   9.122   3.478 -0.0858 -0.0772  0.1552
  330MOL0     C45466   8.634   9.103   3.601 -0.2442  1.5143 -0.1037
  330MOL0     C45467   8.681   9.098   3.715  0.4688 -0.3059  0.2828
  330MOL0     C45468   8.142   9.345   3.255  0.4452  0.2884  0.0417
  330MOL0     C45469   8.107   9.415   3.138  0.8874  0.1823 -0.0824
  330MOL0     C45470   8.100   9.329   3.020  0.4051 -0.6165  0.4138
  330MOL0     H45471   8.197   9.959   2.916  1.6928  1.7011 -3.1773
  330MOL0     H45472   8.119  10.100   2.736  2.1399 -1.2667  0.3477
  330MOL0     H45473   7.715  10.117   2.646  1.0076 -2.5695  1.3007
  330MOL0     H45474   7.696   9.994   2.518 -2.2131  0.4231 -0.5677
  330MOL0     H45475   7.769  10.277   2.477 -0.4530 -0.6753  1.6899
  330MOL0     H45476   7.785  10.150   2.348 -0.0702 -1.2537 -0.1839
  330MOL0     H45477   7.563  10.100   2.349 -1.7283 -0.9949  0.7803
  330MOL0     H45478   7.524  10.212   2.485 -2.3190 -1.6150 -1.4363
  330MOL0     H45479   7.611  10.404   2.317 -1.0279 -0.8312  2.3519
  330MOL0     H45480   7.633  10.277   2.195  1.0103  4.4448 -0.1614
  330MOL0     H45481   7.403  10.212   2.206 -0.1780 -0.2227  1.3489
  330MOL0     H45482   7.439  10.378   2.148 -0.3612 -2.0128 -1.5453
  330MOL0     H45483   7.312  10.269   2.397 -1.6933  0.6768  0.8417
  330MOL0     H45484   7.399  10.416   2.422 -2.4940  0.0515  2.0963
  330MOL0     H45485   7.197  10.415   2.196  1.1691 -0.5548 -0.5665
  330MOL0     H45486   7.243  10.546   2.300 -0.0191 -0.6213  3.1327
  330MOL0     H45487   6.999  10.463   2.334  0.0180 -1.0819 -0.6347
  330MOL0     H45488   7.063  10.310   2.400  0.7713  0.4709  4.1288
  330MOL0     H45489   7.144  10.274   2.631 -1.0678 -0.1132 -0.9588
  330MOL0     H45490   7.208  10.337   2.877  2.8169  1.1284  1.5575
  330MOL0     H45491   7.168  10.500   2.945  1.1202  0.8853  0.5310
  330MOL0     H45492   7.411  10.445   2.791 -0.9687 -0.2959 -0.8417
  330MOL0     H45493   7.367  10.599   2.843 -2.7430 -0.2013 -3.4283
  330MOL0     H45494   7.368  10.532   3.087 -1.3896  0.5572 -1.0517
  330MOL0     H45495   7.454  10.387   3.031  1.9320 -0.1195 -2.5182
  330MOL0     H45496   7.568  10.645   2.935 -4.7714  0.6517  0.7207
  330MOL0     H45497   7.609  10.582   3.096  1.5143  0.7644 -1.3466
  330MOL0     H45498   7.803  10.676   3.014  3.1070  2.0326  1.8751
  330MOL0     H45499   8.127  10.792   2.898  1.6522 -0.5500  0.7706
  330MOL0     H45500   8.132  10.751   3.058  1.1528  1.1012 -1.1441
  330MOL0     H45501   7.998  10.844   3.007 -0.0297 -0.9172 -0.3292
  330MOL0     H45502   8.522  10.454   2.731  2.2455  0.3148 -0.0319
  330MOL0     H45503   8.724  10.337   2.778 -0.0377  0.6990  1.0170
  330MOL0     H45504   8.919  10.121   3.091 -1.0209  2.0873 -0.3961
  330MOL0     H45505   8.783  10.141   3.182  1.5391  0.1410  0.1824
  330MOL0     H45506   8.808   9.906   2.975 -1.1361  1.0384  0.5876
  330MOL0     H45507   8.860   9.892   3.136  1.3383 -1.4377 -1.7536
  330MOL0     H45508   8.580   9.945   3.034 -2.0743 -0.8973  1.9892
  330MOL0     H45509   8.616   9.923   3.207  0.0990 -2.4799 -0.5291
  330MOL0     H45510   8.705   9.695   3.165  1.0643 -0.7679 -3.2695
  330MOL0     H45511   8.648   9.713   3.000  0.0370 -1.4364  0.3909
  330MOL0     H45512   8.462   9.757   3.241 -0.9859  0.5885 -0.6076
  330MOL0     H45513   8.421   9.736   3.064  1.5028  0.6390 -1.7290
  330MOL0     H45514   8.384   9.555   3.241 -2.1907  3.0209 -1.0333
  330MOL0     H45515   8.553   9.545   3.270  1.0674  1.2995 -0.6618
  330MOL0     H45516   8.594   9.478   3.020 -0.0894  3.8775 -0.2636
  330MOL0     H45517   8.428   9.509   2.987 -1.4941 -0.7551  0.4213
  330MOL0     H45518   8.365   9.328   3.148  0.0315 -2.5050 -0.3935
  330MOL0     H45519   8.532   9.293   3.186  1.4403  4.2279  1.3607
  330MOL0     H45520   8.538  10.183   3.141  0.3956  3.1558  2.2718
  330MOL0     H45521   8.325  10.247   3.050 -0.5192  0.0773 -0.5986
  330MOL0     H45522   8.064  10.306   2.825  0.7105  0.4897 -0.5024
  330MOL0     H45523   7.833  10.296   2.815 -2.3373  0.6633  1.9598
  330MOL0     H45524   7.774   9.841   2.682  0.2850  0.6730 -0.9545
  330MOL0     H45525   7.816   9.743   2.891  2.5428 -0.8911  2.7073
  330MOL0     H45526   8.117   9.734   3.265  0.2708 -0.8621 -1.0471
  330MOL0     H45527   8.155   9.599   3.481  0.1468  0.2803  0.0877
  330MOL0     H45528   8.265   9.464   3.598 -0.3696  0.1179 -0.1219
  330MOL0     H45529   8.256   9.303   3.684  2.3235  1.2990 -0.2556
  330MOL0     H45530   8.486   9.329   3.628 -0.6155  1.0699  0.6063
  330MOL0     H45531   8.450   9.380   3.468  1.4393  0.6847  0.3916
  330MOL0     H45532   8.371   9.119   3.595 -3.5362  4.0232  0.5484
  330MOL0     H45533   8.358   9.149   3.422  0.6809  0.6767 -0.3737
  330MOL0     H45534   8.609   9.200   3.424 -1.6159  3.1051  2.7942
  330MOL0     H45535   8.543   9.030   3.420 -1.8457  0.3076 -0.2089
  330MOL0     H45536   8.699   9.075   3.818 -0.7170 -2.9902 -0.0175
  330MOL0     H45537   8.155   9.237   3.245  0.9296  0.3180  0.3026
  330MOL0     H45538   8.015   9.354   2.955 -0.7194  2.6190  2.8895
  330MOL0     H45539   8.195   9.344   2.968  0.8820 -0.1338  1.4135
  330MOL0     H45540   8.094   9.221   3.038  2.9906 -0.9767 -0.4433
  331MOL0     O45541   7.992   1.845   2.131 -0.5191  0.3310  0.1201
  331MOL0     C45542   8.045   1.961   2.134  0.8427  0.1613 -0.4726
  331MOL0     O45543   7.986   2.071   2.089 -0.3065 -0.1225  0.5057
  331MOL0     C45544   7.856   2.067   2.047  0.3526  0.1114 -1.0774
  331MOL0     C45545   7.751   2.053   2.139  0.2782  0.0553  0.6208
  331MOL0     C45546   7.623   2.033   2.096  1.2810  0.1878  0.2195
  331MOL0     C45547   7.586   2.043   1.965  0.2404 -0.1180  0.5012
  331MOL0     O45548   7.446   2.016   1.937 -0.5308 -1.0771 -0.2477
  331MOL0     C45549   7.395   2.055   1.810  0.5228 -0.9856 -0.7220
  331MOL0     C45550   7.241   2.070   1.800  0.0516 -0.3428 -0.6121
  331MOL0     C45551   7.197   2.106   1.661  0.5198 -0.2943 -0.6327
  331MOL0     C45552   7.054   2.066   1.636 -0.2452 -0.0962  0.1924
  331MOL0     C45553   7.005   2.080   1.486  0.7862 -0.2671 -0.2801
  331MOL0     C45554   6.977   2.232   1.454 -0.2252 -0.1353 -0.1387
  331MOL0     C45555   6.902   2.269   1.333  0.2516 -0.2194  0.9555
  331MOL0     C45556   6.979   2.240   1.205 -0.0772  1.0287  0.9567
  331MOL0     N45557   6.904   2.263   1.079 -0.2529 -0.1058  0.0592
  331MOL0     C45558   6.800   2.350   1.067  0.1179 -0.2140 -0.0967
  331MOL0     C45559   6.747   2.346   0.945 -0.5753  0.0243 -0.5552
  331MOL0     C45560   6.613   2.422   0.923 -0.0593 -1.5003  0.3373
  331MOL0     C45561   6.638   2.567   0.864 -0.4274  0.7073  0.0702
  331MOL0     C45562   6.592   2.566   0.714  0.5538 -0.4868  0.2097
  331MOL0     C45563   6.625   2.700   0.642 -0.3159  0.4496 -0.5513
  331MOL0     O45564   6.766   2.705   0.608 -0.4812 -0.1485  0.7746
  331MOL0     C45565   6.827   2.828   0.579 -0.2846  0.1043  0.1344
  331MOL0     C45566   6.769   2.926   0.501 -0.7962 -0.4702  0.0171
  331MOL0     C45567   6.836   3.045   0.472  0.1502 -0.3976  1.3405
  331MOL0     C45568   6.759   3.162   0.405 -0.3891  0.3452 -0.2376
  331MOL0     C45569   6.971   3.059   0.506 -0.2996  0.6822  0.4542
  331MOL0     C45570   7.052   3.179   0.477  0.5659 -1.3014 -1.0069
  331MOL0     O45571   7.104   3.242   0.582  0.0404  0.6075  0.3925
  331MOL0     C45572   7.217   3.316   0.566 -0.1059  0.0755 -0.5422
  331MOL0     C45573   7.223   3.431   0.490  0.2163 -0.3071  0.4182
  331MOL0     C45574   7.321   3.529   0.509 -0.7441  1.0084  0.5763
  331MOL0     C45575   7.430   3.505   0.598  0.2465  0.8136  0.2761
  331MOL0     O45576   7.546   3.575   0.595  0.2757  0.6035 -0.5112
  331MOL0     C45577   7.527   3.708   0.630  0.5908 -0.0318  0.3989
  331MOL0     C45578   7.514   3.720   0.786 -0.0609 -0.7721  0.1427
  331MOL0     C45579   7.634   3.665   0.869  0.4162 -0.0338 -0.6609
  331MOL0     C45580   7.762   3.743   0.829 -0.2559 -0.3456  0.2993
  331MOL0     C45581   7.893   3.682   0.899  0.1667 -0.3743 -0.5083
  331MOL0     C45582   8.019   3.753   0.866 -0.4493 -0.0930  0.9167
  331MOL0     C45583   8.148   3.687   0.940  0.5366  0.2073  0.4158
  331MOL0     C45584   8.269   3.716   0.866 -0.5129 -0.7418  0.0394
  331MOL0    Cl45585   8.312   3.891   0.856 -0.1767  0.2890  0.3851
  331MOL0     C45586   7.429   3.386   0.668  0.1675  0.1448 -0.3049
  331MOL0     C45587   7.321   3.284   0.656 -0.0005 -0.9143 -0.3351
  331MOL0     O45588   7.064   3.206   0.358  0.2378 -0.0490  0.2893
  331MOL0     C45589   7.038   2.953   0.586 -0.8764 -0.2735  0.4977
  331MOL0     C45590   6.961   2.848   0.613 -0.1127 -0.3057 -0.1866
  331MOL0     N45591   6.809   2.245   0.882  0.2272  0.0564  0.1786
  331MOL0     N45592   6.913   2.199   0.953  0.6653 -0.3776 -0.2725
  331MOL0     C45593   7.691   2.049   1.869  1.0312 -0.1044 -0.4092
  331MOL0     C45594   7.823   2.070   1.909 -0.9712  0.5367  0.6817
  331MOL0     C45595   8.173   1.987   2.201 -0.0539  0.0410  0.7487
  331MOL0     C45596   8.265   1.883   2.191  0.7524 -0.7066 -0.0922
  331MOL0     C45597   8.398   1.887   2.233 -0.0060  0.2871 -0.7622
  331MOL0     C45598   8.440   1.992   2.312  0.0617 -0.5024 -1.3401
  331MOL0     O45599   8.564   1.997   2.375 -0.2747 -0.7058  0.1542
  331MOL0     C45600   8.604   1.892   2.463 -0.2123 -1.2111  0.4236
  331MOL0     C45601   8.755   1.896   2.468 -0.0790 -0.5556  0.4835
  331MOL0     C45602   8.810   2.037   2.503 -0.0174  0.0013 -0.4437
  331MOL0     C45603   8.966   2.026   2.484  0.5410 -1.0432 -0.5383
  331MOL0     C45604   9.016   2.026   2.344 -0.1209 -0.4044  0.4045
  331MOL0     C45605   9.069   2.035   2.227  0.1788 -0.5139 -0.2694
  331MOL0     C45606   8.357   2.105   2.315 -0.9248  0.3513 -0.2954
  331MOL0     C45607   8.228   2.107   2.258  0.3820 -0.9342 -0.4177
  331MOL0     C45608   8.139   2.229   2.269  0.1802  0.1776  0.2868
  331MOL0     H45609   7.764   2.067   2.245 -2.2495  1.4082  0.8121
  331MOL0     H45610   7.541   2.008   2.162 -1.1732  2.2691 -1.8310
  331MOL0     H45611   7.421   1.975   1.740 -2.4370 -2.7045 -0.0576
  331MOL0     H45612   7.438   2.153   1.787 -2.0408  0.1249 -1.1176
  331MOL0     H45613   7.192   1.975   1.826  1.0433 -0.6690  0.0869
  331MOL0     H45614   7.214   2.137   1.882  0.9960 -1.6822  0.8375
  331MOL0     H45615   7.202   2.213   1.640 -3.6205  0.1275 -0.3125
  331MOL0     H45616   7.268   2.055   1.594  3.8643  0.8405  1.7956
  331MOL0     H45617   7.029   1.964   1.666  1.2264 -0.7751 -0.7773
  331MOL0     H45618   6.983   2.131   1.689 -1.7083 -1.5259  0.0811
  331MOL0     H45619   6.909   2.026   1.491  0.1087  1.0073  2.7450
  331MOL0     H45620   7.075   2.030   1.419  2.6879  0.6210  0.9640
  331MOL0     H45621   6.924   2.272   1.541  1.0998  2.8183 -0.5680
  331MOL0     H45622   7.075   2.281   1.454  0.5315 -1.5622 -1.0917
  331MOL0     H45623   6.885   2.377   1.331  2.2879  0.2104  2.7268
  331MOL0     H45624   6.806   2.217   1.331  0.0685  0.1361 -0.6611
  331MOL0     H45625   7.070   2.297   1.221  2.3510 -2.3648  0.3860
  331MOL0     H45626   7.006   2.134   1.206 -0.0834  0.9961 -0.2534
  331MOL0     H45627   6.758   2.409   1.148 -0.3972 -1.7451  0.8152
  331MOL0     H45628   6.565   2.426   1.021 -2.3362  0.4772 -0.7405
  331MOL0     H45629   6.560   2.360   0.851 -1.9226 -0.0551  0.3955
  331MOL0     H45630   6.588   2.642   0.925 -1.4019  0.5610 -0.5341
  331MOL0     H45631   6.746   2.580   0.875 -0.3309 -1.6898  3.0795
  331MOL0     H45632   6.631   2.484   0.653 -1.5838  0.0869 -2.1170
  331MOL0     H45633   6.484   2.547   0.712  0.5408 -0.3539 -0.7060
  331MOL0     H45634   6.566   2.721   0.552 -0.0727  1.8850 -0.3987
  331MOL0     H45635   6.602   2.774   0.719  0.8970  2.4561 -2.0237
  331MOL0     H45636   6.664   2.918   0.474 -0.7212  1.5769 -1.1558
  331MOL0     H45637   6.655   3.137   0.387  0.2337 -0.5104 -3.1878
  331MOL0     H45638   6.808   3.191   0.311 -0.4021  0.3739 -0.2354
  331MOL0     H45639   6.747   3.245   0.476 -0.9627  2.3438 -2.5058
  331MOL0     H45640   7.149   3.455   0.415  1.0191 -1.5836 -0.8457
  331MOL0     H45641   7.324   3.617   0.446  1.5735  2.0185  1.9728
  331MOL0     H45642   7.610   3.766   0.589 -0.2288  3.5650  3.2838
  331MOL0     H45643   7.433   3.749   0.589 -0.4670 -0.0162  2.6710
  331MOL0     H45644   7.504   3.827   0.807  1.5627 -0.0644 -2.2364
  331MOL0     H45645   7.419   3.672   0.811 -0.9048 -1.0656 -3.1964
  331MOL0     H45646   7.652   3.557   0.863  0.1396 -0.0966 -0.4327
  331MOL0     H45647   7.617   3.701   0.971 -0.5439 -0.9617 -0.4748
  331MOL0     H45648   7.763   3.851   0.845  1.3631 -0.2248 -0.4418
  331MOL0     H45649   7.778   3.735   0.721 -3.9525 -1.7817 -0.2854
  331MOL0     H45650   7.883   3.700   1.006  1.0755  1.5045 -0.6849
  331MOL0     H45651   7.910   3.574   0.897 -1.7827 -0.6964 -0.9668
  331MOL0     H45652   8.004   3.861   0.854  0.4088 -0.1663 -1.4427
  331MOL0     H45653   8.027   3.737   0.758 -0.8920  2.7035  0.3838
  331MOL0     H45654   8.142   3.579   0.956  0.9359  0.2700  1.0285
  331MOL0     H45655   8.147   3.727   1.042 -0.4048  3.0376 -0.5852
  331MOL0     H45656   8.255   3.676   0.765 -1.4293  1.3838 -0.7202
  331MOL0     H45657   8.352   3.670   0.920  1.0832  1.6827 -0.2065
  331MOL0     H45658   7.505   3.353   0.738 -0.9758 -1.3783  0.2642
  331MOL0     H45659   7.325   3.197   0.721 -0.5144 -1.1149 -0.5662
  331MOL0     H45660   7.144   2.952   0.611 -0.8026 -2.1717  0.2506
  331MOL0     H45661   7.019   2.764   0.649  0.3929  0.0800 -0.0928
  331MOL0     H45662   7.656   2.068   1.768 -0.0150  3.2509  0.4514
  331MOL0     H45663   7.901   2.091   1.837  0.4274  1.4765  2.3878
  331MOL0     H45664   8.232   1.793   2.140 -1.0752 -0.4866  0.5942
  331MOL0     H45665   8.468   1.808   2.210  1.0267  1.1329 -0.6038
  331MOL0     H45666   8.563   1.917   2.562 -0.6424 -0.4489  0.0620
  331MOL0     H45667   8.568   1.794   2.431 -0.7636 -0.9485  0.2382
  331MOL0     H45668   8.793   1.860   2.372 -0.4227 -1.6505  0.7394
  331MOL0     H45669   8.793   1.830   2.547  1.9451  0.7913  0.7087
  331MOL0     H45670   8.779   2.112   2.429  1.5024 -0.8447 -2.0223
  331MOL0     H45671   8.778   2.077   2.599  0.7801  2.8054 -1.2518
  331MOL0     H45672   8.994   1.932   2.532  2.5962 -0.0180  0.3830
  331MOL0     H45673   9.009   2.110   2.539  0.4145 -1.8821  0.8872
  331MOL0     H45674   9.118   2.034   2.132 -0.5721 -1.3902 -0.6711
  331MOL0     H45675   8.391   2.200   2.354  3.1622 -0.7799 -0.7120
  331MOL0     H45676   8.049   2.209   2.329 -0.6317  0.2850 -0.8599
  331MOL0     H45677   8.189   2.314   2.316  0.3541 -1.2788  2.9211
  331MOL0     H45678   8.102   2.260   2.171 -0.4784 -3.0836 -0.6097
  332MOL0     O45679   1.098   5.145   5.874  0.4029 -0.8493 -0.3067
  332MOL0     C45680   0.978   5.145   5.841 -0.5025  0.0000 -0.3431
  332MOL0     O45681   0.923   5.203   5.733  0.6937 -0.1233  0.2715
  332MOL0     C45682   1.009   5.226   5.626  0.3552 -0.3499 -0.8366
  332MOL0     C45683   0.969   5.335   5.544 -0.3995  0.2330 -0.1881
  332MOL0     C45684   1.044   5.373   5.438 -0.9667 -1.0227  0.6728
  332MOL0     C45685   1.167   5.312   5.408 -0.1625 -0.2719 -0.9532
  332MOL0     O45686   1.239   5.363   5.298 -0.2621  0.3525 -0.0804
  332MOL0     C45687   1.269   5.277   5.187  0.0494  0.2610 -0.6571
  332MOL0     C45688   1.277   5.366   5.061  0.5266  0.2697  0.1859
  332MOL0     C45689   1.295   5.298   4.925 -0.6240 -0.3328 -0.3795
  332MOL0     C45690   1.277   5.392   4.802 -0.0907  0.2144  0.6696
  332MOL0     C45691   1.226   5.322   4.675  1.0914  0.1652 -0.6197
  332MOL0     C45692   1.253   5.394   4.538 -0.1972 -0.0402 -0.6417
  332MOL0     C45693   1.201   5.542   4.543  0.5299 -0.3466  0.4788
  332MOL0     C45694   1.213   5.620   4.412 -0.2141 -0.6019  0.1594
  332MOL0     N45695   1.349   5.667   4.373 -0.6228 -0.4307 -0.4822
  332MOL0     C45696   1.430   5.758   4.436  0.3890 -0.3280  0.1641
  332MOL0     C45697   1.542   5.775   4.370  0.5045 -0.5476 -0.0220
  332MOL0     C45698   1.670   5.829   4.408 -0.5911  0.8206 -0.0621
  332MOL0     C45699   1.710   5.780   4.555  0.4484  0.4072  0.7198
  332MOL0     C45700   1.759   5.633   4.543 -0.0731  0.0998  0.7925
  332MOL0     C45701   1.815   5.573   4.672  0.2299 -0.1800  0.3307
  332MOL0     O45702   1.712   5.553   4.766  0.7493  0.0458 -0.6084
  332MOL0     C45703   1.737   5.480   4.880 -0.0199  0.2585 -0.3347
  332MOL0     C45704   1.835   5.386   4.894 -0.0512 -0.2342  1.0364
  332MOL0     C45705   1.830   5.299   5.001  0.5098  0.0312 -0.4152
  332MOL0     C45706   1.920   5.175   5.003  0.4195 -0.0101 -0.4471
  332MOL0     C45707   1.742   5.319   5.108 -0.7507  0.1965 -0.4331
  332MOL0     C45708   1.758   5.260   5.248 -0.2736 -0.0543  0.6364
  332MOL0     O45709   1.647   5.259   5.337 -0.0402 -0.1453 -0.2310
  332MOL0     C45710   1.654   5.218   5.473  0.0244 -0.5950  0.5546
  332MOL0     C45711   1.745   5.129   5.519 -0.1680  1.2733  0.2185
  332MOL0     C45712   1.742   5.082   5.643 -0.4722 -0.3707 -0.5814
  332MOL0     C45713   1.646   5.116   5.732  0.3886 -0.1359  0.4443
  332MOL0     O45714   1.634   5.066   5.858 -0.1492  0.8076  0.0733
  332MOL0     C45715   1.525   4.969   5.881  0.0331  0.5853 -0.9193
  332MOL0     C45716   1.546   4.847   5.780  0.3455  0.2144 -0.6668
  332MOL0     C45717   1.458   4.721   5.807  0.5740  0.0967 -1.0209
  332MOL0     C45718   1.454   4.669   5.942  0.4062  0.3908 -0.6627
  332MOL0     C45719   1.409   4.524   5.946 -0.4141 -0.1832 -0.4277
  332MOL0     C45720   1.273   4.497   5.889 -0.0883  1.0076  0.4020
  332MOL0     C45721   1.210   4.357   5.883  0.0202 -0.5673 -0.0152
  332MOL0     C45722   1.205   4.306   6.026  0.0079  0.2592  0.0805
  332MOL0    Cl45723   1.096   4.412   6.123  0.0226  0.2301  0.0575
  332MOL0     C45724   1.559   5.217   5.692 -0.1317 -0.2311 -0.5303
  332MOL0     C45725   1.560   5.267   5.563  0.5342  0.8842 -0.4929
  332MOL0     O45726   1.878   5.230   5.270 -0.8932 -0.0851 -0.6087
  332MOL0     C45727   1.642   5.412   5.093  0.9548  0.6031  0.7922
  332MOL0     C45728   1.633   5.485   4.975  0.4137 -0.1377 -0.4266
  332MOL0     N45729   1.526   5.697   4.258 -0.2064  0.0456  0.6111
  332MOL0     N45730   1.412   5.633   4.256 -0.7603 -0.0438 -0.7236
  332MOL0     C45731   1.213   5.209   5.492 -0.0933  0.3956 -0.1898
  332MOL0     C45732   1.124   5.153   5.594 -0.0874  0.6922  0.2153
  332MOL0     C45733   0.901   5.049   5.910 -0.2181  0.7025  0.7059
  332MOL0     C45734   0.810   4.969   5.839  0.4503 -0.6108  0.5325
  332MOL0     C45735   0.718   4.877   5.895 -0.2697  0.1443  0.8124
  332MOL0     C45736   0.720   4.864   6.033  0.9675  0.6188  0.6694
  332MOL0     O45737   0.625   4.773   6.087 -0.4708 -0.1895 -0.1378
  332MOL0     C45738   0.630   4.751   6.229  0.1916  0.2212 -0.1112
  332MOL0     C45739   0.747   4.671   6.268 -0.0416  0.1224 -0.3855
  332MOL0     C45740   0.803   4.715   6.404  0.4575  0.2471 -0.3211
  332MOL0     C45741   0.934   4.642   6.427  0.6848  0.6040  0.0429
  332MOL0     C45742   0.973   4.603   6.562 -0.2726  0.4086  0.5870
  332MOL0     C45743   1.015   4.581   6.671 -0.4600 -0.6310  0.4902
  332MOL0     C45744   0.823   4.927   6.105  0.7340 -0.0818 -0.3838
  332MOL0     C45745   0.917   5.018   6.047  0.6013  0.1026 -0.6866
  332MOL0     C45746   1.016   5.078   6.144 -0.0426  0.3612  0.2841
  332MOL0     H45747   0.873   5.383   5.560 -0.7138  0.1106 -1.5848
  332MOL0     H45748   1.006   5.455   5.378  1.1692  0.7759  1.6259
  332MOL0     H45749   1.194   5.198   5.170  0.0084 -1.0689  4.1250
  332MOL0     H45750   1.363   5.227   5.214  0.4930  0.3250 -2.0030
  332MOL0     H45751   1.195   5.438   5.063 -1.5368 -1.9673  1.0761
  332MOL0     H45752   1.365   5.429   5.075  0.1039  0.7483  0.7492
  332MOL0     H45753   1.400   5.269   4.925 -0.1899  1.1402  0.7445
  332MOL0     H45754   1.240   5.204   4.921  2.2523 -2.4643  3.5019
  332MOL0     H45755   1.204   5.467   4.834 -1.3937  0.3049 -2.2455
  332MOL0     H45756   1.374   5.440   4.785  0.6394 -0.6676  2.1529
  332MOL0     H45757   1.118   5.305   4.684  0.3905  3.4420 -1.2374
  332MOL0     H45758   1.272   5.224   4.666  4.8781  1.7235 -0.1300
  332MOL0     H45759   1.362   5.389   4.524  0.1840  0.8846  1.5858
  332MOL0     H45760   1.205   5.330   4.464 -1.6248  2.7091 -2.2196
  332MOL0     H45761   1.249   5.597   4.625 -1.1198  2.4240 -0.2798
  332MOL0     H45762   1.093   5.540   4.560 -0.5115 -0.5954 -4.5385
  332MOL0     H45763   1.177   5.551   4.335  1.9882 -2.4735  0.7145
  332MOL0     H45764   1.148   5.708   4.416  2.6246  1.6262  0.1390
  332MOL0     H45765   1.417   5.801   4.535 -0.4358  1.1415 -0.5469
  332MOL0     H45766   1.663   5.938   4.403 -0.3418  0.9419  1.6212
  332MOL0     H45767   1.751   5.791   4.345 -1.1404  0.7684 -0.7430
  332MOL0     H45768   1.799   5.840   4.576 -1.3217  2.5586  2.6837
  332MOL0     H45769   1.628   5.793   4.626 -1.7696  3.7787 -2.0972
  332MOL0     H45770   1.679   5.574   4.496  0.1763  0.7964 -0.5765
  332MOL0     H45771   1.833   5.621   4.464 -1.8791  0.5668 -1.0757
  332MOL0     H45772   1.869   5.479   4.655  1.1496 -0.6465  4.6343
  332MOL0     H45773   1.878   5.649   4.717 -1.5005  0.1830  2.3320
  332MOL0     H45774   1.918   5.380   4.825 -0.2691  1.8340  0.5052
  332MOL0     H45775   1.957   5.158   4.902  1.6878 -1.8081  0.2823
  332MOL0     H45776   1.846   5.098   5.027 -0.5495  0.4748 -1.7623
  332MOL0     H45777   2.003   5.166   5.074 -1.7676  2.0463  2.6410
  332MOL0     H45778   1.827   5.100   5.455  0.6067  3.0797  0.3595
  332MOL0     H45779   1.818   5.011   5.674  0.2704  0.5703 -0.2005
  332MOL0     H45780   1.549   4.929   5.980 -3.4872 -1.9354 -0.9225
  332MOL0     H45781   1.424   5.011   5.882  0.3271  1.3800 -2.1511
  332MOL0     H45782   1.536   4.861   5.672 -4.3304  2.2496 -0.2249
  332MOL0     H45783   1.648   4.811   5.793  0.1394 -1.9008 -3.6249
  332MOL0     H45784   1.487   4.642   5.738  1.1713 -1.5358  0.9903
  332MOL0     H45785   1.354   4.746   5.786  0.0806 -2.2709 -1.6010
  332MOL0     H45786   1.391   4.735   6.003 -2.8237 -0.8464 -2.4106
  332MOL0     H45787   1.558   4.672   5.976  1.2955 -1.9689 -2.8382
  332MOL0     H45788   1.481   4.458   5.897  0.8986  0.0938  1.0495
  332MOL0     H45789   1.430   4.484   6.045 -0.7295  5.0585  2.1098
  332MOL0     H45790   1.273   4.531   5.785  1.0950 -0.1620 -0.0149
  332MOL0     H45791   1.208   4.566   5.944 -2.2136 -1.0669  0.6424
  332MOL0     H45792   1.272   4.297   5.816 -0.4450 -0.8685 -0.1847
  332MOL0     H45793   1.110   4.375   5.841 -0.3100  0.2412  1.0917
  332MOL0     H45794   1.300   4.309   6.079 -1.0414  2.3347  1.9894
  332MOL0     H45795   1.162   4.206   6.029 -3.9253  1.7584 -0.7354
  332MOL0     H45796   1.478   5.255   5.753 -0.9745 -0.5841 -1.3994
  332MOL0     H45797   1.482   5.336   5.532  1.5811  1.7364 -1.3269
  332MOL0     H45798   1.563   5.434   5.165 -0.9589  1.8823 -1.5405
  332MOL0     H45799   1.570   5.571   4.954  0.9956  0.6314  0.8443
  332MOL0     H45800   1.301   5.148   5.477 -1.5571 -1.2922 -2.5763
  332MOL0     H45801   1.158   5.062   5.642 -0.8571  2.0928  3.7600
  332MOL0     H45802   0.814   4.988   5.732  1.8284  1.8926  0.9600
  332MOL0     H45803   0.652   4.814   5.836  2.2995 -1.4891 -0.4621
  332MOL0     H45804   0.632   4.839   6.294  4.0309 -0.0329  0.3294
  332MOL0     H45805   0.536   4.703   6.261 -0.3968  2.2228  1.3855
  332MOL0     H45806   0.813   4.659   6.182  1.0024 -0.6926  0.4973
  332MOL0     H45807   0.716   4.566   6.278  3.7927 -1.1947 -0.6942
  332MOL0     H45808   0.804   4.824   6.412  0.9951  0.1468  1.4534
  332MOL0     H45809   0.739   4.675   6.483  0.1739  0.5509 -0.3989
  332MOL0     H45810   1.022   4.699   6.397  1.6499 -0.0555  1.5482
  332MOL0     H45811   0.935   4.543   6.381 -3.7797 -0.1680  1.1168
  332MOL0     H45812   1.065   4.561   6.764  4.1416 -0.2094 -1.6323
  332MOL0     H45813   0.846   4.899   6.207  2.8105  0.8639 -0.5252
  332MOL0     H45814   1.072   5.157   6.092 -2.1651  0.8531 -1.3762
  332MOL0     H45815   0.967   5.120   6.232 -0.4824  1.8669 -0.6304
  332MOL0     H45816   1.094   5.009   6.178 -1.4325 -2.0353 -1.1606
  333MOL0     O45817   7.352   0.288   7.734 -0.1599 -0.1578  0.2742
  333MOL0     C45818   7.414   0.366   7.804 -0.9815  1.0660  0.0037
  333MOL0     O45819   7.371   0.485   7.847  0.3715  0.3585  0.0319
  333MOL0     C45820   7.253   0.545   7.812  0.3418  1.4339  0.2489
  333MOL0     C45821   7.249   0.674   7.841  0.6423 -0.7188  0.5825
  333MOL0     C45822   7.134   0.750   7.798 -0.8291 -0.4860  0.1856
  333MOL0     C45823   7.037   0.702   7.714  0.2642  0.6681  0.0751
  333MOL0     O45824   6.967   0.778   7.619 -0.2874 -0.5129  0.3630
  333MOL0     C45825   6.887   0.884   7.670 -1.3764  0.4421 -0.0476
  333MOL0     C45826   6.914   1.015   7.594 -0.7052  0.1376 -0.0298
  333MOL0     C45827   7.044   1.086   7.639  0.8889 -0.1350  0.2748
  333MOL0     C45828   7.162   1.063   7.542 -0.6247  0.0864  0.4944
  333MOL0     C45829   7.299   1.107   7.598  0.3254 -0.6867 -0.8039
  333MOL0     C45830   7.403   1.123   7.494 -0.7946  0.6044  0.0486
  333MOL0     C45831   7.542   1.140   7.556 -0.3908  0.6072 -0.0078
  333MOL0     C45832   7.658   1.118   7.459  0.1216  0.2075  0.9359
  333MOL0     N45833   7.788   1.090   7.518 -0.0270 -0.2566 -0.2853
  333MOL0     C45834   7.885   1.182   7.547  0.4890  1.1018  0.0252
  333MOL0     C45835   7.980   1.108   7.610  0.2806 -0.4515 -0.6527
  333MOL0     C45836   8.114   1.169   7.656  0.2293 -0.2203  0.3341
  333MOL0     C45837   8.212   1.209   7.554 -0.3794 -0.0740  0.4693
  333MOL0     C45838   8.339   1.292   7.599 -0.2507 -0.0028  0.3830
  333MOL0     C45839   8.401   1.235   7.724 -0.7922  0.6252  0.4478
  333MOL0     O45840   8.440   1.096   7.692 -0.2872  0.8094 -0.7266
  333MOL0     C45841   8.510   1.024   7.786 -0.9024  0.2563 -0.2150
  333MOL0     C45842   8.529   0.889   7.753 -0.8578 -0.2206 -0.1604
  333MOL0     C45843   8.614   0.806   7.835  0.1571 -0.5280  0.2870
  333MOL0     C45844   8.630   0.661   7.802 -0.1538 -0.4453  0.4298
  333MOL0     C45845   8.667   0.856   7.958 -0.4037 -0.8288  0.2693
  333MOL0     C45846   8.744   0.783   8.062  0.4511 -0.4554  0.8530
  333MOL0     O45847   8.871   0.733   8.042  0.4709 -0.0422  0.3049
  333MOL0     C45848   8.938   0.770   7.933 -0.4963  0.7350 -0.4829
  333MOL0     C45849   8.976   0.680   7.834 -0.1529  0.3867 -0.8797
  333MOL0     C45850   9.052   0.723   7.726  0.8277 -0.3679 -0.8554
  333MOL0     C45851   9.095   0.860   7.707  1.3429  0.7361  0.3581
  333MOL0     O45852   9.144   0.912   7.592  0.1019 -0.3480  0.2895
  333MOL0     C45853   9.165   0.833   7.475  0.0596 -0.1246  0.8180
  333MOL0     C45854   9.230   0.925   7.370  0.2607  0.2017  0.0133
  333MOL0     C45855   9.372   0.958   7.429 -0.0760 -0.0646  0.7432
  333MOL0     C45856   9.433   1.088   7.373  0.0262 -0.3528  0.3740
  333MOL0     C45857   9.363   1.218   7.403 -0.4688  0.0258  0.5800
  333MOL0     C45858   9.409   1.322   7.284 -0.3988 -0.1802 -0.0931
  333MOL0     C45859   9.350   1.469   7.303  0.3502 -0.0240  0.2086
  333MOL0     C45860   9.358   1.545   7.169 -0.5700 -0.6698 -0.2890
  333MOL0    Cl45861   9.381   1.718   7.202  0.1785 -0.5420  0.0727
  333MOL0     C45862   9.059   0.945   7.812  0.1649 -0.7200  0.6241
  333MOL0     C45863   8.990   0.901   7.924  1.0253  0.6190 -1.0917
  333MOL0     O45864   8.684   0.780   8.171  0.0604  0.5951 -0.2505
  333MOL0     C45865   8.646   1.000   7.984  0.6178 -0.1011  0.3314
  333MOL0     C45866   8.575   1.076   7.894  1.3876  0.1951  0.0985
  333MOL0     N45867   7.942   0.971   7.620  0.2718 -0.1709 -0.0342
  333MOL0     N45868   7.821   0.965   7.579  1.1812 -0.2579 -0.1926
  333MOL0     C45869   7.046   0.565   7.691 -0.8919 -0.1257 -0.1325
  333MOL0     C45870   7.154   0.488   7.738  1.2017 -0.3240 -0.3156
  333MOL0     C45871   7.555   0.326   7.849 -0.9173  1.0825  1.1714
  333MOL0     C45872   7.615   0.411   7.941 -0.2988 -0.4551 -0.3237
  333MOL0     C45873   7.748   0.398   7.968 -0.1754  0.1093 -0.0092
  333MOL0     C45874   7.813   0.286   7.937 -0.2360 -0.4108  0.1951
  333MOL0     O45875   7.945   0.282   7.979  0.2743 -0.2051  0.1698
  333MOL0     C45876   7.987   0.152   8.043 -0.7423  0.0252  0.7550
  333MOL0     C45877   8.072   0.181   8.167 -0.6210 -1.0104 -1.0194
  333MOL0     C45878   7.995   0.260   8.276 -0.1550 -0.1104  0.4288
  333MOL0     C45879   7.906   0.176   8.362 -0.8514 -0.8337 -0.2774
  333MOL0     C45880   7.848   0.266   8.460  0.0386  0.3651 -0.0611
  333MOL0     C45881   7.814   0.327   8.555  0.2045 -0.4770 -0.1095
  333MOL0     C45882   7.753   0.195   7.854  0.1182 -0.5103 -0.1396
  333MOL0     C45883   7.625   0.212   7.804 -0.5902 -0.2556  0.2264
  333MOL0     C45884   7.580   0.114   7.701  0.6464  0.4706 -0.0414
  333MOL0     H45885   7.336   0.719   7.889  2.2265  0.0226 -2.6788
  333MOL0     H45886   7.124   0.857   7.784 -4.0997 -1.0207 -3.1227
  333MOL0     H45887   6.898   0.905   7.777  1.1052  2.9913 -0.6634
  333MOL0     H45888   6.783   0.858   7.654 -0.7922 -3.5256  1.4211
  333MOL0     H45889   6.905   0.995   7.487  0.4605 -1.4847  0.1465
  333MOL0     H45890   6.832   1.081   7.624 -2.0409 -0.8406 -1.4024
  333MOL0     H45891   7.035   1.195   7.644  4.2692  0.2737 -0.0829
  333MOL0     H45892   7.070   1.059   7.742 -1.9485 -1.1980  0.7878
  333MOL0     H45893   7.186   0.958   7.523  2.6119  1.1999 -2.7170
  333MOL0     H45894   7.150   1.105   7.442 -0.9793 -2.7038 -0.7525
  333MOL0     H45895   7.343   1.043   7.675 -1.7858 -0.4275  0.7263
  333MOL0     H45896   7.288   1.195   7.663  2.1847 -0.0248 -1.3343
  333MOL0     H45897   7.406   1.026   7.443 -3.5045 -1.7474  3.7766
  333MOL0     H45898   7.380   1.209   7.431 -0.5533 -0.9341 -2.2596
  333MOL0     H45899   7.552   1.073   7.642 -0.3109 -1.3620 -1.4583
  333MOL0     H45900   7.548   1.244   7.587 -1.5116  0.2508  1.4873
  333MOL0     H45901   7.646   1.031   7.394  0.2127 -0.4322  1.7599
  333MOL0     H45902   7.675   1.206   7.397  0.7718  1.1391  2.3896
  333MOL0     H45903   7.911   1.286   7.531 -0.7891  1.4562  0.0721
  333MOL0     H45904   8.172   1.115   7.732 -1.5882 -0.3775  1.6759
  333MOL0     H45905   8.077   1.257   7.710  0.2012  0.1499 -0.2753
  333MOL0     H45906   8.259   1.115   7.523 -0.8625 -1.6680  4.1179
  333MOL0     H45907   8.159   1.254   7.470  2.6612 -1.5538 -2.4804
  333MOL0     H45908   8.418   1.295   7.524  0.9066  2.7271  1.6118
  333MOL0     H45909   8.314   1.393   7.633  2.4467  0.2254  1.9042
  333MOL0     H45910   8.487   1.293   7.756 -2.2505  2.1969  1.7400
  333MOL0     H45911   8.325   1.234   7.804 -2.1733 -0.4488 -0.8149
  333MOL0     H45912   8.514   0.850   7.653  0.7954  1.0266 -0.9586
  333MOL0     H45913   8.551   0.634   7.732  0.8998  0.4067 -1.1436
  333MOL0     H45914   8.612   0.599   7.890  0.0244  3.7974  3.7466
  333MOL0     H45915   8.727   0.650   7.752  0.6288  1.1950  1.5154
  333MOL0     H45916   8.956   0.574   7.845 -0.4419  0.5671  0.4539
  333MOL0     H45917   9.075   0.655   7.643 -2.8876 -1.0033 -1.5444
  333MOL0     H45918   9.234   0.750   7.496 -1.3341 -1.3310  0.7919
  333MOL0     H45919   9.070   0.797   7.435  0.7142 -1.5996  0.5360
  333MOL0     H45920   9.246   0.865   7.279  0.0502  0.1081  0.0382
  333MOL0     H45921   9.160   1.007   7.357  0.1236  0.4024  1.7686
  333MOL0     H45922   9.435   0.876   7.393 -0.7493  0.8447 -2.8855
  333MOL0     H45923   9.368   0.950   7.538 -0.9738 -0.8171  0.6731
  333MOL0     H45924   9.439   1.075   7.264  0.5886 -0.2123  0.3859
  333MOL0     H45925   9.536   1.111   7.403  0.3225  0.7270 -1.3037
  333MOL0     H45926   9.254   1.214   7.406 -0.4333 -0.8107  1.4885
  333MOL0     H45927   9.388   1.265   7.499 -1.2013  3.0404 -0.6037
  333MOL0     H45928   9.370   1.291   7.187  2.3404  0.2639 -1.4359
  333MOL0     H45929   9.517   1.339   7.279 -0.4629  1.2519  1.9547
  333MOL0     H45930   9.397   1.531   7.379  0.6053  0.6993 -0.5164
  333MOL0     H45931   9.251   1.477   7.350  0.9583  0.5070  1.4204
  333MOL0     H45932   9.258   1.532   7.128 -2.0098 -2.6170  3.3543
  333MOL0     H45933   9.420   1.493   7.095 -0.9782  1.1881 -2.0317
  333MOL0     H45934   9.099   1.046   7.798 -2.0868  0.0381 -0.8753
  333MOL0     H45935   8.953   0.959   8.007 -2.0387 -1.1774 -1.0699
  333MOL0     H45936   8.694   1.043   8.071 -0.4602  3.0102 -0.4520
  333MOL0     H45937   8.573   1.184   7.911  4.6349  0.0943  1.7356
  333MOL0     H45938   6.975   0.513   7.626  0.4132 -1.4988 -0.5106
  333MOL0     H45939   7.146   0.382   7.720 -1.3953 -0.0181 -1.3117
  333MOL0     H45940   7.580   0.508   7.974  2.6572  0.3111  0.8321
  333MOL0     H45941   7.784   0.483   8.026  3.1452 -0.9997 -0.2896
  333MOL0     H45942   7.902   0.087   8.064 -1.5456  0.9706  0.4636
  333MOL0     H45943   8.058   0.098   7.980 -1.9587  0.1114 -0.7317
  333MOL0     H45944   8.154   0.242   8.128 -0.1152 -1.3542 -0.4984
  333MOL0     H45945   8.107   0.085   8.205 -0.3834 -0.6528 -0.3331
  333MOL0     H45946   8.066   0.312   8.342 -0.1526 -1.2174  1.3403
  333MOL0     H45947   7.936   0.338   8.227 -1.0367  1.0652  3.1350
  333MOL0     H45948   7.981   0.116   8.414  1.3338  1.3569 -0.7047
  333MOL0     H45949   7.830   0.117   8.310 -2.7470  1.0377  0.2003
  333MOL0     H45950   7.790   0.380   8.644  2.2709 -1.7351  1.2841
  333MOL0     H45951   7.817   0.109   7.838 -0.6676 -0.6957 -2.7210
  333MOL0     H45952   7.552   0.171   7.612 -1.3434 -1.4686 -0.7343
  333MOL0     H45953   7.655   0.039   7.674 -1.9632 -3.4934  2.5805
  333MOL0     H45954   7.501   0.055   7.748  0.9193  0.3875  0.3206
  334MOL0     O45955   3.580  10.278   8.479 -0.2375 -0.1328  0.1241
  334MOL0     C45956   3.665  10.353   8.525  0.1343 -0.3491  0.0144
  334MOL0     O45957   3.649  10.489   8.552  0.2203  0.3485  0.1589
  334MOL0     C45958   3.530  10.543   8.524 -0.2417  0.9154  0.2636
  334MOL0     C45959   3.411  10.526   8.604 -0.9295  0.4583 -1.1152
  334MOL0     C45960   3.293  10.582   8.566 -1.0350  0.0035  0.2940
  334MOL0     C45961   3.287  10.665   8.455  0.6971 -0.8568  0.3889
  334MOL0     O45962   3.173  10.738   8.425 -0.3069 -0.3598 -0.0631
  334MOL0     C45963   3.075  10.772   8.532 -0.0054  0.2245  0.6431
  334MOL0     C45964   3.034  10.907   8.489  0.0287 -0.1740  0.4437
  334MOL0     C45965   2.911  10.971   8.562 -0.1396 -0.0032 -0.0620
  334MOL0     C45966   2.841  11.085   8.477  0.5083  0.5785  0.7113
  334MOL0     C45967   2.707  11.140   8.534  0.4584  0.4352 -0.3428
  334MOL0     C45968   2.734  11.226   8.654 -0.8137  0.2727 -0.4395
  334MOL0     C45969   2.813  11.358   8.615 -0.0893 -0.6443 -0.7318
  334MOL0     C45970   2.746  11.440   8.503 -0.7165  0.1068  0.6257
  334MOL0     N45971   2.799  11.582   8.483 -0.0960  0.9456 -0.2626
  334MOL0     C45972   2.786  11.656   8.368  0.1436  0.9514 -0.1529
  334MOL0     C45973   2.837  11.781   8.388 -0.4298  0.0121 -0.3839
  334MOL0     C45974   2.846  11.882   8.281 -0.3748  0.3319 -0.5255
  334MOL0     C45975   2.725  11.914   8.199 -0.4699  0.4571  0.6356
  334MOL0     C45976   2.614  11.999   8.264  0.1701 -0.1706 -0.4978
  334MOL0     C45977   2.569  11.948   8.398 -0.5116 -0.0282  0.2396
  334MOL0     O45978   2.448  12.009   8.443 -0.2788  0.2769  0.7894
  334MOL0     C45979   2.474  12.072   8.563  0.7642 -0.4782 -0.3140
  334MOL0     C45980   2.405  12.031   8.667  0.7252  0.0248 -0.9710
  334MOL0     C45981   2.418  12.102   8.795  0.6884  0.6022  0.4725
  334MOL0     C45982   2.335  12.042   8.905  0.4197 -0.7669 -0.5814
  334MOL0     C45983   2.502  12.211   8.817 -0.3024 -0.0521  0.6984
  334MOL0     C45984   2.531  12.270   8.944 -0.3398 -0.2205  0.6615
  334MOL0     O45985   2.646  12.338   8.945 -0.4362 -0.3358 -0.6348
  334MOL0     C45986   2.667  12.426   9.044 -0.2579 -0.1124 -1.2448
  334MOL0     C45987   2.648  12.558   9.013  0.4380  1.4344 -1.1215
  334MOL0     C45988   2.675  12.661   9.110  0.2062  0.4517 -0.6883
  334MOL0     C45989   2.738  12.634   9.226  0.1373 -0.0303  0.4000
  334MOL0     O45990   2.772  12.744   9.300 -0.0069 -0.0398  0.4797
  334MOL0     C45991   2.838  12.727   9.422  0.5392  0.1625  0.3564
  334MOL0     C45992   2.837  12.861   9.483  0.2896  0.1700  0.1113
  334MOL0     C45993   2.943  12.851   9.594 -0.5718 -0.3020  0.0032
  334MOL0     C45994   2.928  12.966   9.702 -0.0776  0.6412  0.3458
  334MOL0     C45995   2.997  12.933   9.827 -0.7408  0.1106  0.6872
  334MOL0     C45996   2.954  13.031   9.936  0.2499  0.2093  0.4017
  334MOL0     C45997   3.036  13.009  10.062  0.2666  0.1293 -0.4995
  334MOL0     C45998   3.031  13.129  10.160  0.6009 -0.5853  0.1163
  334MOL0    Cl45999   2.867  13.151  10.200 -0.2609 -0.3795  0.7333
  334MOL0     C46000   2.747  12.500   9.262 -0.0968 -0.2683 -0.3181
  334MOL0     C46001   2.716  12.392   9.173 -0.5753  0.0330 -0.0209
  334MOL0     O46002   2.458  12.273   9.044 -0.5318 -0.3011  0.5754
  334MOL0     C46003   2.575  12.253   8.701 -0.1822  0.3835 -0.1062
  334MOL0     C46004   2.566  12.184   8.580  0.0192  0.3456 -0.3947
  334MOL0     N46005   2.879  11.785   8.517 -0.5271 -0.1360  0.2092
  334MOL0     N46006   2.851  11.671   8.575 -0.1832  0.1860 -0.3479
  334MOL0     C46007   3.400  10.683   8.375  0.7242  0.9332 -0.8741
  334MOL0     C46008   3.527  10.625   8.413  0.1929  0.6319  0.2056
  334MOL0     C46009   3.785  10.279   8.565  0.4267  0.4790  0.4730
  334MOL0     C46010   3.851  10.330   8.674 -0.1877  0.6482 -0.2882
  334MOL0     C46011   3.957  10.256   8.726 -0.6628 -0.4109 -0.3522
  334MOL0     C46012   4.019  10.158   8.657 -1.2284 -0.5223 -1.0730
  334MOL0     O46013   4.136  10.103   8.703  0.5320 -0.8318 -0.1054
  334MOL0     C46014   4.239  10.063   8.608 -0.4580  0.9495  0.5938
  334MOL0     C46015   4.379  10.095   8.660  0.3302  0.3449  0.7981
  334MOL0     C46016   4.493  10.070   8.558  0.4407 -0.5687 -0.6489
  334MOL0     C46017   4.622  10.126   8.607  0.8716 -0.0339  0.1837
  334MOL0     C46018   4.679  10.048   8.721  0.3144 -0.6392 -0.5273
  334MOL0     C46019   4.712   9.981   8.819  0.0904  0.7541  0.5798
  334MOL0     C46020   3.943  10.089   8.563 -0.1109 -1.1499  0.5748
  334MOL0     C46021   3.830  10.158   8.505  0.2991 -0.5488 -0.1298
  334MOL0     C46022   3.772  10.092   8.382 -0.2743 -0.3235 -0.9047
  334MOL0     H46023   3.423  10.474   8.699  0.8907  1.8750 -0.5062
  334MOL0     H46024   3.206  10.575   8.631 -0.4425  2.3463  1.4607
  334MOL0     H46025   3.115  10.771   8.634 -2.2027  4.5322  1.8054
  334MOL0     H46026   2.988  10.706   8.527  1.3087 -1.4899 -1.7830
  334MOL0     H46027   3.115  10.974   8.521 -0.4963 -0.8468  3.5442
  334MOL0     H46028   3.027  10.909   8.380  3.3025 -1.4038  0.1149
  334MOL0     H46029   2.843  10.890   8.588  0.2654 -0.1223  0.6324
  334MOL0     H46030   2.951  11.021   8.651  0.9828 -1.0324  0.0342
  334MOL0     H46031   2.890  11.181   8.460 -1.0895  1.7346  2.2331
  334MOL0     H46032   2.819  11.029   8.386 -1.4215  0.1087  1.3957
  334MOL0     H46033   2.638  11.060   8.563 -0.6483  2.3414  2.6451
  334MOL0     H46034   2.655  11.198   8.457 -0.9465 -1.4414 -0.8985
  334MOL0     H46035   2.640  11.234   8.710 -0.5958  0.6665 -0.1262
  334MOL0     H46036   2.790  11.163   8.725 -0.5818  1.6474  0.6358
  334MOL0     H46037   2.918  11.335   8.591 -0.8059 -0.7021 -4.3664
  334MOL0     H46038   2.808  11.431   8.696 -0.8112 -0.3986 -0.9970
  334MOL0     H46039   2.749  11.387   8.407  3.1126  2.4225 -0.7842
  334MOL0     H46040   2.641  11.451   8.529 -0.8871  2.1699 -0.7359
  334MOL0     H46041   2.732  11.621   8.280 -0.0771 -1.2003  0.7822
  334MOL0     H46042   2.918  11.844   8.209 -0.4013 -1.1380  0.1955
  334MOL0     H46043   2.871  11.976   8.332  0.2613 -0.8976  1.5510
  334MOL0     H46044   2.772  11.966   8.115 -1.4771  1.0291  0.4060
  334MOL0     H46045   2.683  11.817   8.171 -0.8077 -0.8118  4.7680
  334MOL0     H46046   2.653  12.101   8.277 -0.6801  0.0408  0.5528
  334MOL0     H46047   2.529  12.016   8.197 -1.0009 -2.0012  0.4493
  334MOL0     H46048   2.546  11.841   8.394  1.5076 -0.4895  0.0082
  334MOL0     H46049   2.650  11.946   8.472 -1.2115 -3.8908  1.1545
  334MOL0     H46050   2.344  11.941   8.662 -0.3445  0.6401  0.3976
  334MOL0     H46051   2.272  12.125   8.937  0.4182 -0.0430 -2.3376
  334MOL0     H46052   2.406  12.010   8.982  2.8041 -1.3559 -2.8393
  334MOL0     H46053   2.274  11.956   8.874 -1.0602  0.2179 -0.5026
  334MOL0     H46054   2.609  12.581   8.915  0.4573 -1.6393 -1.9684
  334MOL0     H46055   2.670  12.767   9.090  1.7060  0.4751 -1.0744
  334MOL0     H46056   2.788  12.665   9.496  2.0364  0.3329  1.5550
  334MOL0     H46057   2.939  12.693   9.400  0.2588  0.2280 -1.2065
  334MOL0     H46058   2.844  12.946   9.415  0.3528  1.2773  1.4809
  334MOL0     H46059   2.744  12.865   9.540  1.1517 -0.2298  1.5935
  334MOL0     H46060   3.048  12.852   9.565 -0.4269 -1.4490  0.4367
  334MOL0     H46061   2.927  12.755   9.645  3.0602 -0.3884  1.2461
  334MOL0     H46062   2.822  12.984   9.723  0.6602  1.5493  4.1184
  334MOL0     H46063   2.960  13.056   9.649 -2.0872 -0.0599 -2.2233
  334MOL0     H46064   2.976  12.830   9.855  2.2248 -0.5060  0.9649
  334MOL0     H46065   3.104  12.939   9.803 -1.0885  0.7310 -0.8160
  334MOL0     H46066   2.847  13.025   9.961  0.3001 -1.9120  0.2601
  334MOL0     H46067   2.979  13.133   9.904 -3.3453  0.5179 -2.1496
  334MOL0     H46068   3.138  12.991  10.027  0.6002  0.9858  0.0202
  334MOL0     H46069   3.002  12.924  10.122 -2.5296  0.8504 -0.9580
  334MOL0     H46070   3.073  13.214  10.105  0.2120  0.2392  1.0717
  334MOL0     H46071   3.084  13.083  10.244  0.7037 -3.2755 -1.3006
  334MOL0     H46072   2.763  12.470   9.366 -1.4805 -0.1782 -0.0583
  334MOL0     H46073   2.726  12.292   9.214 -1.4070  0.0751  0.3077
  334MOL0     H46074   2.635  12.343   8.690 -1.9654  1.3892 -2.6630
  334MOL0     H46075   2.617  12.213   8.490  1.5634 -1.5232 -0.1980
  334MOL0     H46076   3.406  10.759   8.298  2.9217  2.5923  0.8012
  334MOL0     H46077   3.617  10.652   8.358  1.1618  0.1764  1.5223
  334MOL0     H46078   3.818  10.419   8.727  1.2646 -1.0760  3.8938
  334MOL0     H46079   3.990  10.301   8.819  0.0717 -0.2223 -0.6942
  334MOL0     H46080   4.236   9.953   8.612 -1.3489  0.9982  2.6025
  334MOL0     H46081   4.224  10.103   8.508 -0.3427 -0.4367  0.0007
  334MOL0     H46082   4.391  10.040   8.754  1.4107 -0.9115 -0.0429
  334MOL0     H46083   4.383  10.202   8.681 -1.7135  0.4457  0.8895
  334MOL0     H46084   4.511   9.962   8.548 -0.5179 -0.9836  1.5602
  334MOL0     H46085   4.456  10.118   8.467  1.3741  3.7529  0.9985
  334MOL0     H46086   4.610  10.233   8.630  1.4823  0.4667 -1.6681
  334MOL0     H46087   4.696  10.125   8.527  2.4552 -1.1721  1.5879
  334MOL0     H46088   4.746   9.924   8.903  1.5026  1.0578  0.2372
  334MOL0     H46089   3.976   9.996   8.518  1.5206  0.0592 -0.8749
  334MOL0     H46090   3.704  10.010   8.408 -1.7737  0.7625 -1.2817
  334MOL0     H46091   3.718  10.168   8.325 -0.1134  0.9427  0.5781
  334MOL0     H46092   3.860  10.046   8.334  1.4118  0.3696  1.3354
  335MOL0     O46093   7.897   5.587  10.056  0.4733 -0.1158 -0.8358
  335MOL0     C46094   7.825   5.571  10.154 -0.8560 -0.8326  0.7307
  335MOL0     O46095   7.692   5.548  10.142 -0.1354 -0.4174  0.1183
  335MOL0     C46096   7.624   5.486  10.242  0.5867 -0.0559 -0.1884
  335MOL0     C46097   7.668   5.388  10.331  0.2308  0.5353 -0.4926
  335MOL0     C46098   7.588   5.328  10.430  0.5160 -0.2986 -0.5231
  335MOL0     C46099   7.453   5.376  10.443 -0.1354 -0.0800 -0.2935
  335MOL0     O46100   7.363   5.339  10.535  0.1020  0.1704  0.5975
  335MOL0     C46101   7.402   5.265  10.657  0.0996  0.0245  0.3387
  335MOL0     C46102   7.290   5.180  10.714  0.2776  0.5792  1.3447
  335MOL0     C46103   7.255   5.055  10.619  0.2217 -0.2423  0.1586
  335MOL0     C46104   7.197   4.938  10.706  0.2001  1.2209 -0.1692
  335MOL0     C46105   7.114   4.847  10.611 -0.0884 -0.1624  0.7754
  335MOL0     C46106   7.057   4.729  10.686  0.4850  0.0040  0.4513
  335MOL0     C46107   6.974   4.633  10.597 -0.2553 -0.9079  0.0177
  335MOL0     C46108   6.938   4.516  10.682  0.8046 -0.1953 -0.1692
  335MOL0     N46109   6.828   4.439  10.626 -0.5365  0.6688 -0.8620
  335MOL0     C46110   6.827   4.392  10.493 -0.2705 -0.6501  0.5855
  335MOL0     C46111   6.705   4.345  10.469 -0.1047  0.8026 -0.4409
  335MOL0     C46112   6.649   4.274  10.351  0.1993 -0.8308 -0.8661
  335MOL0     C46113   6.531   4.348  10.286  0.3793 -0.6878  0.5570
  335MOL0     C46114   6.398   4.285  10.346 -0.3322  0.3790  1.0693
  335MOL0     C46115   6.281   4.373  10.312 -0.2435  0.4920  0.2267
  335MOL0     O46116   6.261   4.398  10.171 -0.8394  0.5255  0.4248
  335MOL0     C46117   6.273   4.298  10.074 -0.5435 -0.8473 -0.0754
  335MOL0     C46118   6.330   4.327   9.951 -0.9851 -0.0221  0.5494
  335MOL0     C46119   6.340   4.227   9.849  0.3082 -0.3035 -0.2010
  335MOL0     C46120   6.416   4.270   9.724 -0.4489  0.4934 -0.4369
  335MOL0     C46121   6.285   4.097   9.875  1.0179  0.0649  0.5429
  335MOL0     C46122   6.292   3.981   9.784 -0.0614 -0.2510 -0.0233
  335MOL0     O46123   6.370   3.990   9.676 -0.7733  0.0141 -0.0985
  335MOL0     C46124   6.358   3.889   9.585 -0.7082 -0.4017  0.1835
  335MOL0     C46125   6.438   3.771   9.577  1.0404 -0.2677 -0.4534
  335MOL0     C46126   6.414   3.690   9.463 -0.1838  1.0366  0.6302
  335MOL0     C46127   6.307   3.699   9.375 -0.7290 -0.6354 -0.2436
  335MOL0     O46128   6.288   3.606   9.288  0.2073 -0.1156 -0.2920
  335MOL0     C46129   6.175   3.601   9.201  0.7587  0.1561  0.1212
  335MOL0     C46130   6.193   3.484   9.099  1.0530 -0.4084 -0.0271
  335MOL0     C46131   6.080   3.469   8.994 -0.1807 -0.2884 -0.3216
  335MOL0     C46132   6.093   3.333   8.919 -0.5575 -0.0557  0.3248
  335MOL0     C46133   5.976   3.330   8.818  0.1617  0.7440 -0.2917
  335MOL0     C46134   5.945   3.180   8.787  0.0903 -0.2318  0.1160
  335MOL0     C46135   5.871   3.158   8.653  0.1946  0.3388  0.2445
  335MOL0     C46136   5.737   3.211   8.667 -0.3664 -0.1026  0.2640
  335MOL0    Cl46137   5.641   3.181   8.514 -0.5948  0.2163 -0.4229
  335MOL0     C46138   6.238   3.826   9.383 -0.6892 -0.0494  0.3673
  335MOL0     C46139   6.259   3.914   9.495 -0.1812 -0.1486  0.4224
  335MOL0     O46140   6.214   3.885   9.799  0.1407  0.1709  0.2184
  335MOL0     C46141   6.228   4.068   9.997  0.8437  0.1861 -0.5392
  335MOL0     C46142   6.229   4.167  10.096  0.5246 -0.4713  0.0156
  335MOL0     N46143   6.633   4.356  10.591  0.4434 -0.4035 -0.0830
  335MOL0     N46144   6.711   4.400  10.683  0.2621 -0.4405  0.2126
  335MOL0     C46145   7.406   5.468  10.348  0.1261  0.7453  0.7339
  335MOL0     C46146   7.488   5.520  10.244 -0.2185 -1.1140  0.1745
  335MOL0     C46147   7.907   5.575  10.278 -0.0099 -0.7642 -1.3566
  335MOL0     C46148   7.852   5.671  10.372 -0.7819 -1.3422  0.8669
  335MOL0     C46149   7.902   5.675  10.502 -0.1669  0.5881  0.0618
  335MOL0     C46150   8.000   5.594  10.551  0.1783  0.0072 -0.0096
  335MOL0     O46151   8.044   5.574  10.681 -0.2104 -0.1539  0.3680
  335MOL0     C46152   7.984   5.648  10.783 -0.2392  0.0019 -0.0060
  335MOL0     C46153   8.053   5.596  10.910  0.0457 -0.8770  0.0411
  335MOL0     C46154   8.208   5.589  10.910 -0.1099  0.1892 -1.3683
  335MOL0     C46155   8.261   5.531  11.043  0.6500 -0.3511 -0.2995
  335MOL0     C46156   8.218   5.386  11.056 -0.8689  0.1571  0.5340
  335MOL0     C46157   8.201   5.265  11.070 -0.2198 -0.4989 -0.5443
  335MOL0     C46158   8.053   5.505  10.457 -0.8181  0.6167 -0.1582
  335MOL0     C46159   8.022   5.500  10.315  0.6860 -0.8114 -0.0525
  335MOL0     C46160   8.081   5.395  10.216 -0.2936 -0.2227 -0.3202
  335MOL0     H46161   7.772   5.359  10.345  0.0052  0.9982  3.2253
  335MOL0     H46162   7.621   5.244  10.490 -0.3388 -0.7070 -0.6092
  335MOL0     H46163   7.433   5.351  10.716  3.5254  2.4745 -4.3307
  335MOL0     H46164   7.487   5.197  10.642  0.9675  1.4546 -1.7957
  335MOL0     H46165   7.307   5.153  10.818 -0.2607 -0.5527  1.1461
  335MOL0     H46166   7.204   5.247  10.718 -0.9179 -0.9188  1.4001
  335MOL0     H46167   7.178   5.086  10.548  0.5348  1.6163  0.5593
  335MOL0     H46168   7.348   5.023  10.571  0.3951  0.2015  0.1960
  335MOL0     H46169   7.278   4.880  10.751  2.0030 -0.5167 -4.9236
  335MOL0     H46170   7.131   4.971  10.786  1.5299  2.1783  0.5744
  335MOL0     H46171   7.176   4.816  10.526 -0.5726 -0.2304  0.4446
  335MOL0     H46172   7.029   4.901  10.569  0.4029  0.6163  0.7586
  335MOL0     H46173   7.142   4.672  10.724  1.4492 -0.1671 -1.7794
  335MOL0     H46174   6.994   4.767  10.767 -0.3104 -0.6830  0.1754
  335MOL0     H46175   7.033   4.601  10.510  3.0280 -0.0225  1.7452
  335MOL0     H46176   6.883   4.679  10.558  0.3346  0.2358 -0.0618
  335MOL0     H46177   7.023   4.449  10.692  0.3100 -0.9673 -0.9651
  335MOL0     H46178   6.904   4.553  10.780 -1.8413  0.4631 -1.2472
  335MOL0     H46179   6.912   4.391  10.425 -0.2817 -0.0800  0.5600
  335MOL0     H46180   6.615   4.173  10.375  1.1653 -1.6854 -2.9184
  335MOL0     H46181   6.741   4.250  10.298  0.3503 -2.0103 -0.1033
  335MOL0     H46182   6.542   4.455  10.305 -2.2907  0.1358 -1.9102
  335MOL0     H46183   6.519   4.333  10.179  0.1833  0.2378  0.4400
  335MOL0     H46184   6.380   4.185  10.307  0.9698  1.4224 -2.5833
  335MOL0     H46185   6.410   4.268  10.454  3.1580 -0.7283  0.6299
  335MOL0     H46186   6.189   4.321  10.339 -1.4710  1.8392 -1.1402
  335MOL0     H46187   6.287   4.474  10.353 -0.0093  1.0708 -1.1753
  335MOL0     H46188   6.359   4.431   9.940 -0.6384  0.0570  2.0282
  335MOL0     H46189   6.511   4.216   9.719 -0.4286  0.4622  0.2252
  335MOL0     H46190   6.440   4.376   9.732  1.8073  0.1290 -1.6604
  335MOL0     H46191   6.351   4.246   9.639 -2.3570  0.2998  0.9942
  335MOL0     H46192   6.518   3.730   9.637  0.9667 -0.3710 -0.4268
  335MOL0     H46193   6.477   3.603   9.456 -3.3487 -1.4069  0.4932
  335MOL0     H46194   6.090   3.584   9.267  1.4627 -0.4970  0.8698
  335MOL0     H46195   6.158   3.692   9.143  0.2661 -1.1895 -1.9718
  335MOL0     H46196   6.286   3.503   9.046  1.8152  1.8962  1.9334
  335MOL0     H46197   6.191   3.391   9.156  1.0326  0.9218  2.2878
  335MOL0     H46198   6.081   3.552   8.923  0.6758  0.4182  0.4936
  335MOL0     H46199   5.985   3.468   9.048  0.2647 -1.6244  0.4943
  335MOL0     H46200   6.103   3.249   8.988 -3.2715 -0.9295 -0.2365
  335MOL0     H46201   6.183   3.317   8.858 -0.8887  2.1527 -0.8552
  335MOL0     H46202   5.884   3.375   8.858 -1.1585 -0.0481 -2.2748
  335MOL0     H46203   6.010   3.378   8.726  0.7348 -0.8589 -0.9484
  335MOL0     H46204   5.891   3.124   8.863  0.0036  0.6537  0.7178
  335MOL0     H46205   6.044   3.132   8.787  0.0652 -0.3451  1.7468
  335MOL0     H46206   5.856   3.052   8.630  0.0625  0.3599  0.2333
  335MOL0     H46207   5.909   3.213   8.568  0.4881  1.4413  1.0679
  335MOL0     H46208   5.743   3.317   8.691 -0.9582  0.1145 -0.4940
  335MOL0     H46209   5.683   3.162   8.748 -3.1150  2.6286  0.2511
  335MOL0     H46210   6.160   3.833   9.308  1.4994 -0.3469 -2.0876
  335MOL0     H46211   6.198   4.004   9.498 -2.1709 -1.3383 -1.1774
  335MOL0     H46212   6.191   3.970  10.024 -0.6464 -0.2485 -3.6407
  335MOL0     H46213   6.200   4.142  10.198  0.6296 -0.7708 -0.0255
  335MOL0     H46214   7.300   5.487  10.353  0.0770  1.7188 -2.2233
  335MOL0     H46215   7.447   5.597  10.180  0.0757 -0.8917  0.2558
  335MOL0     H46216   7.772   5.739  10.346  2.7425  2.5889 -0.8750
  335MOL0     H46217   7.855   5.759  10.553 -0.6777 -0.0341  0.6386
  335MOL0     H46218   8.014   5.752  10.769  2.0123 -0.4948  0.7105
  335MOL0     H46219   7.875   5.654  10.778 -0.4455 -2.1487  1.0056
  335MOL0     H46220   8.012   5.499  10.938  2.3314 -1.5798  1.1877
  335MOL0     H46221   8.005   5.657  10.988  0.4142 -1.1679  0.5048
  335MOL0     H46222   8.241   5.519  10.833 -4.5520  0.0818 -3.4955
  335MOL0     H46223   8.252   5.688  10.897  0.4551  0.1244 -0.1087
  335MOL0     H46224   8.221   5.587  11.128  2.4586 -0.0496  0.3992
  335MOL0     H46225   8.370   5.537  11.053  0.3331  2.5391  3.6051
  335MOL0     H46226   8.205   5.159  11.082 -1.9965 -0.7791 -1.9716
  335MOL0     H46227   8.118   5.434  10.507 -0.6052  1.4681  0.8138
  335MOL0     H46228   8.076   5.443  10.118  1.2865  0.0675 -0.2767
  335MOL0     H46229   8.183   5.387  10.252 -0.3538  0.0139 -0.0984
  335MOL0     H46230   8.024   5.301  10.213  0.1032 -0.4472 -1.1627
  336MOL0     O46231   8.339   1.945   9.441  0.1755 -0.1939 -0.2370
  336MOL0     C46232   8.435   1.872   9.408 -0.9152 -0.4989  0.4435
  336MOL0     O46233   8.562   1.916   9.404  0.3376 -0.1915  0.4616
  336MOL0     C46234   8.585   2.050   9.415  0.0199 -0.6699  0.1849
  336MOL0     C46235   8.618   2.106   9.539 -0.3255 -0.4311  0.6491
  336MOL0     C46236   8.631   2.245   9.543 -0.9402  0.5282  0.1797
  336MOL0     C46237   8.618   2.328   9.436  1.2452  0.5891  0.0106
  336MOL0     O46238   8.617   2.466   9.430  0.1001 -0.3721 -0.9057
  336MOL0     C46239   8.541   2.524   9.539 -0.3845  0.9101  0.6489
  336MOL0     C46240   8.492   2.661   9.508  0.1462  0.2369  1.2480
  336MOL0     C46241   8.408   2.661   9.374 -1.1915  0.9533  0.1306
  336MOL0     C46242   8.342   2.794   9.338  0.2899 -0.5243 -0.4439
  336MOL0     C46243   8.200   2.791   9.281 -0.6967  0.8382  0.2849
  336MOL0     C46244   8.196   2.744   9.138 -0.0696 -0.3984  0.1622
  336MOL0     C46245   8.302   2.796   9.037  0.5514 -0.7148  0.1583
  336MOL0     C46246   8.259   2.814   8.888  0.2541 -0.1186  0.4242
  336MOL0     N46247   8.209   2.688   8.819 -0.7813 -0.4613  0.0275
  336MOL0     C46248   8.276   2.563   8.810 -0.2697 -0.8530  0.4402
  336MOL0     C46249   8.195   2.487   8.738  0.0359 -0.4777  0.3653
  336MOL0     C46250   8.210   2.345   8.677 -0.2041 -0.1306 -0.1304
  336MOL0     C46251   8.305   2.341   8.553  0.2611 -1.2249  0.4154
  336MOL0     C46252   8.447   2.386   8.581 -0.4099 -0.3710  0.4809
  336MOL0     C46253   8.538   2.371   8.468 -0.1283  0.3121  0.1503
  336MOL0     O46254   8.593   2.234   8.480  0.4629 -0.1463  1.1001
  336MOL0     C46255   8.521   2.133   8.423 -0.0530  0.3298 -0.4217
  336MOL0     C46256   8.485   2.019   8.490 -0.2890 -1.1405  0.3931
  336MOL0     C46257   8.422   1.910   8.433 -0.1709 -0.7842 -0.3663
  336MOL0     C46258   8.414   1.781   8.517 -0.3120  0.2917 -0.4953
  336MOL0     C46259   8.373   1.919   8.302 -0.1620  0.0147 -0.7932
  336MOL0     C46260   8.277   1.817   8.245  0.3530 -0.4778 -0.1706
  336MOL0     O46261   8.223   1.864   8.128 -0.5642  0.0535  0.0205
  336MOL0     C46262   8.135   1.781   8.063  0.2164 -0.2998 -0.3451
  336MOL0     C46263   8.016   1.741   8.132  0.0653 -0.0234  0.1536
  336MOL0     C46264   7.932   1.643   8.070 -0.4063  0.9471 -0.0002
  336MOL0     C46265   7.966   1.601   7.939  0.0535 -1.2781 -0.2377
  336MOL0     O46266   7.906   1.505   7.871  0.1351  0.0006 -0.2759
  336MOL0     C46267   7.766   1.494   7.879  0.1263 -0.2045  0.1467
  336MOL0     C46268   7.724   1.437   7.744 -0.2885  0.8583  0.7066
  336MOL0     C46269   7.762   1.528   7.640 -0.0346 -0.2973  0.1687
  336MOL0     C46270   7.680   1.504   7.516 -0.4276 -0.4649 -0.0204
  336MOL0     C46271   7.740   1.567   7.393 -0.3470  0.3801  0.6602
  336MOL0     C46272   7.802   1.713   7.409  0.2248 -0.0620 -0.5369
  336MOL0     C46273   7.699   1.818   7.436  0.3139  0.1402  0.1351
  336MOL0     C46274   7.745   1.965   7.409  0.2180 -0.2050 -0.7565
  336MOL0    Cl46275   7.636   2.083   7.490 -0.0725 -0.0110 -0.2902
  336MOL0     C46276   8.076   1.652   7.875 -0.0224  0.0771 -1.0793
  336MOL0     C46277   8.164   1.741   7.934 -0.0356  0.2620  0.0609
  336MOL0     O46278   8.258   1.700   8.286 -0.2063  0.1901 -0.5245
  336MOL0     C46279   8.404   2.041   8.232 -0.0938  0.2446 -0.4053
  336MOL0     C46280   8.478   2.139   8.294  0.6685  0.3702 -0.7579
  336MOL0     N46281   8.078   2.560   8.708 -0.4845  1.0302 -0.0250
  336MOL0     N46282   8.082   2.666   8.770  0.2743  0.6314 -1.1043
  336MOL0     C46283   8.608   2.263   9.307  0.8132 -1.4338  0.1540
  336MOL0     C46284   8.587   2.122   9.297  0.2911 -0.3404  0.0085
  336MOL0     C46285   8.399   1.735   9.365 -0.2592  0.5900  0.5031
  336MOL0     C46286   8.497   1.641   9.334  0.1288 -0.0215 -0.0693
  336MOL0     C46287   8.474   1.507   9.289 -0.4015 -0.5356  0.3919
  336MOL0     C46288   8.344   1.461   9.285 -0.0515 -0.6300 -0.3639
  336MOL0     O46289   8.312   1.329   9.270 -0.6254  0.0828 -0.4638
  336MOL0     C46290   8.402   1.225   9.233 -0.5449 -0.1210  0.1233
  336MOL0     C46291   8.469   1.127   9.334 -0.3803 -1.2525 -0.4526
  336MOL0     C46292   8.375   1.119   9.449  0.3209 -0.3322 -0.1044
  336MOL0     C46293   8.387   0.977   9.501  0.1547 -0.7756 -0.0363
  336MOL0     C46294   8.515   0.981   9.576 -0.1198  0.1986 -0.0760
  336MOL0     C46295   8.612   0.972   9.637 -0.8267  1.0766 -0.6560
  336MOL0     C46296   8.247   1.553   9.299 -0.0580 -0.0107 -0.1035
  336MOL0     C46297   8.268   1.690   9.337  0.3462 -0.5519  0.4330
  336MOL0     C46298   8.142   1.775   9.342 -0.3451 -0.0731 -0.3941
  336MOL0     H46299   8.628   2.049   9.630  0.6244  0.1297  0.9137
  336MOL0     H46300   8.652   2.303   9.632  3.1334  0.1938 -0.3674
  336MOL0     H46301   8.613   2.523   9.621  3.7486 -2.0134 -2.5760
  336MOL0     H46302   8.456   2.462   9.571 -1.0432  0.7039 -1.3689
  336MOL0     H46303   8.433   2.683   9.598  0.4892  0.7175  1.3557
  336MOL0     H46304   8.576   2.729   9.493 -0.5237  0.9069  0.3856
  336MOL0     H46305   8.474   2.627   9.294 -0.6078 -0.0633  1.0143
  336MOL0     H46306   8.341   2.576   9.390 -0.4611  0.3966  0.3301
  336MOL0     H46307   8.345   2.858   9.426  0.8378 -1.6960  0.4263
  336MOL0     H46308   8.403   2.849   9.266 -1.1281 -1.0183 -2.0857
  336MOL0     H46309   8.157   2.891   9.277  0.7406  1.4487 -0.9521
  336MOL0     H46310   8.144   2.726   9.349  0.0534 -2.7271 -2.2372
  336MOL0     H46311   8.224   2.639   9.147  2.4004  0.1736 -0.0546
  336MOL0     H46312   8.096   2.756   9.095 -0.0860 -0.0844  0.2814
  336MOL0     H46313   8.396   2.743   9.053  0.6614 -0.9326 -1.1109
  336MOL0     H46314   8.331   2.897   9.069 -1.7458 -0.7113  2.5268
  336MOL0     H46315   8.174   2.881   8.872  2.6874  2.7267 -1.8504
  336MOL0     H46316   8.350   2.857   8.845  0.2583  1.7787  2.1878
  336MOL0     H46317   8.378   2.541   8.840 -0.2920 -1.3413  0.1573
  336MOL0     H46318   8.110   2.316   8.646 -0.6873 -0.2866  1.4892
  336MOL0     H46319   8.254   2.283   8.756 -3.2720 -0.7153  1.2375
  336MOL0     H46320   8.301   2.234   8.530  0.0870 -1.4162  1.2902
  336MOL0     H46321   8.266   2.396   8.467  0.5936 -3.5366 -1.3408
  336MOL0     H46322   8.458   2.491   8.610  1.4868 -1.3409  3.8095
  336MOL0     H46323   8.488   2.329   8.665  0.2445  0.0219  0.4319
  336MOL0     H46324   8.488   2.384   8.371  2.4131 -0.0654 -1.3023
  336MOL0     H46325   8.624   2.439   8.467 -0.3635  0.6210  0.8415
  336MOL0     H46326   8.540   1.997   8.581  0.6932 -3.3800 -0.6707
  336MOL0     H46327   8.311   1.744   8.524 -0.9324  1.7295 -1.5500
  336MOL0     H46328   8.458   1.792   8.617  0.4419  0.6703 -0.8607
  336MOL0     H46329   8.469   1.700   8.469 -0.1641 -1.2048  2.0176
  336MOL0     H46330   7.988   1.774   8.232 -0.5731  0.1646 -0.0766
  336MOL0     H46331   7.848   1.603   8.124  0.5674 -1.2012  0.0450
  336MOL0     H46332   7.746   1.420   7.957 -0.4213 -1.2100 -0.9126
  336MOL0     H46333   7.725   1.592   7.907  1.0920  0.3036 -0.1592
  336MOL0     H46334   7.773   1.342   7.721  0.0425  1.0668  0.5390
  336MOL0     H46335   7.616   1.427   7.741 -0.4252  2.3227 -0.2617
  336MOL0     H46336   7.871   1.529   7.627  0.8032  0.4675  5.1247
  336MOL0     H46337   7.733   1.630   7.669  1.3186  0.7427 -1.8848
  336MOL0     H46338   7.577   1.538   7.509 -1.0147 -2.1961 -0.2088
  336MOL0     H46339   7.673   1.399   7.488  2.5947 -0.9203  0.5449
  336MOL0     H46340   7.821   1.496   7.380 -0.5251  0.1210  0.9508
  336MOL0     H46341   7.673   1.563   7.307 -0.0816  2.4426  0.2890
  336MOL0     H46342   7.857   1.745   7.320  1.7268  1.6696  0.9046
  336MOL0     H46343   7.882   1.712   7.484  1.6078 -1.7487 -1.9491
  336MOL0     H46344   7.657   1.801   7.535 -3.4636 -0.5377 -1.4031
  336MOL0     H46345   7.621   1.799   7.361 -1.2728  0.9731  1.5122
  336MOL0     H46346   7.739   1.990   7.303  0.9101 -1.1176 -1.0199
  336MOL0     H46347   7.846   1.981   7.446  0.8575  2.9587 -3.4207
  336MOL0     H46348   8.098   1.615   7.775  1.8165  0.5397 -0.8847
  336MOL0     H46349   8.254   1.771   7.882 -0.4371  2.6774  0.6556
  336MOL0     H46350   8.373   2.049   8.128  2.2940 -0.5404 -1.2398
  336MOL0     H46351   8.508   2.227   8.238  1.1523  2.3802  2.3788
  336MOL0     H46352   8.596   2.332   9.225  1.0520 -1.5112  0.0515
  336MOL0     H46353   8.574   2.091   9.194 -0.3363 -0.6946  0.1890
  336MOL0     H46354   8.597   1.681   9.330 -0.0581  0.3488 -1.7334
  336MOL0     H46355   8.555   1.439   9.264 -0.4199  0.4929 -3.0847
  336MOL0     H46356   8.355   1.162   9.158 -0.3667 -1.8656  1.4266
  336MOL0     H46357   8.488   1.271   9.182 -1.2823 -1.3121 -2.3355
  336MOL0     H46358   8.573   1.154   9.359 -0.6891 -1.6298  1.3387
  336MOL0     H46359   8.487   1.031   9.285  2.5809 -1.7141  1.2865
  336MOL0     H46360   8.398   1.206   9.511  0.6523 -0.5485  0.0778
  336MOL0     H46361   8.279   1.126   9.398  0.3347 -6.2853 -1.6610
  336MOL0     H46362   8.380   0.906   9.418  0.1608  1.6276 -2.2132
  336MOL0     H46363   8.318   0.958   9.584 -0.7547 -0.8578 -0.8001
  336MOL0     H46364   8.691   0.947   9.706 -0.0849  3.2834 -0.6329
  336MOL0     H46365   8.147   1.528   9.264  0.0566  1.2678 -1.4097
  336MOL0     H46366   8.124   1.834   9.432 -0.1927 -0.0395 -0.3846
  336MOL0     H46367   8.135   1.838   9.253 -1.8262  0.2666 -0.0642
  336MOL0     H46368   8.052   1.712   9.336 -2.1495  2.2977  0.4327
  337MOL0     O46369   8.814   6.211   3.728 -0.0077 -0.2181  0.2117
  337MOL0     C46370   8.717   6.276   3.688  0.2819 -0.5744  0.5480
  337MOL0     O46371   8.722   6.404   3.636 -0.2799  0.0079 -0.0015
  337MOL0     C46372   8.848   6.455   3.640 -0.4600 -0.7347 -0.0006
  337MOL0     C46373   8.939   6.465   3.540  0.2746  0.6204  0.6426
  337MOL0     C46374   9.078   6.488   3.564 -0.0751 -0.3942  0.1579
  337MOL0     C46375   9.124   6.528   3.692  1.2769 -0.4912  1.0666
  337MOL0     O46376   9.260   6.549   3.711 -0.0249 -0.1811 -0.3587
  337MOL0     C46377   9.308   6.664   3.787  0.0374 -0.5153  0.7808
  337MOL0     C46378   9.441   6.619   3.843  0.5812 -0.8371  0.1532
  337MOL0     C46379   9.514   6.740   3.902  0.7240 -0.5051 -0.5204
  337MOL0     C46380   9.668   6.708   3.908  0.1691  0.1038 -0.3214
  337MOL0     C46381   9.732   6.731   4.048  0.1700 -0.1994  0.3261
  337MOL0     C46382   9.756   6.870   4.080  0.6663  0.5806 -0.1839
  337MOL0     C46383   9.900   6.914   4.036 -0.0682  0.8484 -0.0143
  337MOL0     C46384   9.923   7.058   4.016  0.7078 -0.2506  0.2560
  337MOL0     N46385   9.857   7.107   3.892  1.1465  0.6521  0.0248
  337MOL0     C46386   9.735   7.173   3.895 -0.1442  0.8853  0.3884
  337MOL0     C46387   9.700   7.185   3.765 -0.8210 -0.5491 -0.4179
  337MOL0     C46388   9.567   7.233   3.705 -0.2369  0.7688  0.3100
  337MOL0     C46389   9.480   7.115   3.665 -0.4650 -0.2029 -0.2933
  337MOL0     C46390   9.364   7.174   3.589 -0.6411  1.0596  0.1691
  337MOL0     C46391   9.262   7.068   3.538 -0.0214 -0.1627  0.1924
  337MOL0     O46392   9.132   7.119   3.529  0.1652 -0.0708  0.0178
  337MOL0     C46393   9.029   7.031   3.478 -0.4713 -0.9740  0.2419
  337MOL0     C46394   8.927   7.096   3.411  0.3193 -0.3768 -0.4846
  337MOL0     C46395   8.811   7.022   3.375 -0.3317  0.1586 -0.1195
  337MOL0     C46396   8.691   7.101   3.318  0.1082 -0.5399 -1.0531
  337MOL0     C46397   8.808   6.883   3.382 -0.4122 -0.0999 -0.6117
  337MOL0     C46398   8.695   6.803   3.340 -0.0445  0.6247 -0.2233
  337MOL0     O46399   8.647   6.714   3.437  0.1638 -0.1183  0.4068
  337MOL0     C46400   8.524   6.655   3.406  0.0731 -0.0651 -0.3707
  337MOL0     C46401   8.510   6.545   3.317 -0.4228  0.2981 -0.4087
  337MOL0     C46402   8.384   6.488   3.302 -0.4555  0.3054 -0.3209
  337MOL0     C46403   8.272   6.536   3.367 -0.0439  0.1692 -0.0274
  337MOL0     O46404   8.145   6.488   3.362 -0.2237  0.3664  0.5142
  337MOL0     C46405   8.087   6.445   3.237 -1.5144 -0.2052 -0.6246
  337MOL0     C46406   8.031   6.553   3.148 -0.7631 -1.0209  0.2451
  337MOL0     C46407   7.914   6.636   3.206 -0.0697  0.2541  0.4605
  337MOL0     C46408   7.849   6.712   3.100  0.1101  0.6749  0.7125
  337MOL0     C46409   7.725   6.806   3.137  0.3080 -0.0380  0.1138
  337MOL0     C46410   7.610   6.742   3.206  0.4107  0.5672 -1.2650
  337MOL0     C46411   7.495   6.841   3.217  0.4556 -0.3318  1.5590
  337MOL0     C46412   7.391   6.800   3.314  0.0329 -0.6089  0.0908
  337MOL0    Cl46413   7.469   6.816   3.477  0.5507 -0.4393 -0.2066
  337MOL0     C46414   8.284   6.638   3.461  0.0626 -0.1552  0.0883
  337MOL0     C46415   8.409   6.699   3.477  0.2733 -0.9828  0.0155
  337MOL0     O46416   8.648   6.824   3.226  0.6352 -0.5179  0.7897
  337MOL0     C46417   8.925   6.819   3.447  0.5111 -0.3938  1.0287
  337MOL0     C46418   9.028   6.896   3.499 -1.3851  0.8655  0.2653
  337MOL0     N46419   9.805   7.141   3.686  0.9136  0.1412 -0.1337
  337MOL0     N46420   9.896   7.089   3.760  0.6216  0.2472  0.1686
  337MOL0     C46421   9.033   6.527   3.802  0.2489 -0.2493 -0.4123
  337MOL0     C46422   8.893   6.494   3.769 -0.1121 -0.3113 -0.5424
  337MOL0     C46423   8.577   6.209   3.701 -0.1361  0.7076  0.6293
  337MOL0     C46424   8.456   6.293   3.700  0.2243 -0.0212  0.4325
  337MOL0     C46425   8.325   6.244   3.710  0.0758  0.8458 -0.1693
  337MOL0     C46426   8.310   6.102   3.717  0.1813 -0.2394  0.4134
  337MOL0     O46427   8.184   6.041   3.735 -0.1502  0.4824  0.2498
  337MOL0     C46428   8.057   6.104   3.756  0.8591 -0.4375  1.1573
  337MOL0     C46429   8.001   6.122   3.613 -0.7687  0.2463 -0.1802
  337MOL0     C46430   7.903   6.242   3.616 -0.0738 -0.5001 -0.6055
  337MOL0     C46431   7.969   6.376   3.636  0.6639  0.2170  0.4924
  337MOL0     C46432   7.872   6.488   3.654  0.0064 -0.7752  0.6192
  337MOL0     C46433   7.784   6.577   3.654  0.1403  0.5840 -0.0772
  337MOL0     C46434   8.424   6.016   3.716 -0.2028  0.7229 -0.6454
  337MOL0     C46435   8.556   6.066   3.707 -0.7373  0.0552 -2.1979
  337MOL0     C46436   8.660   5.963   3.681  0.5125 -0.3484  0.4833
  337MOL0     H46437   8.912   6.437   3.438 -2.9614  1.6174  1.1103
  337MOL0     H46438   9.142   6.483   3.477 -1.1889  3.9314 -1.1586
  337MOL0     H46439   9.242   6.682   3.873 -1.0744 -0.2875 -0.0930
  337MOL0     H46440   9.315   6.747   3.716 -0.7957 -0.7632  0.3918
  337MOL0     H46441   9.431   6.544   3.922 -1.2546  0.9660  1.7495
  337MOL0     H46442   9.501   6.574   3.763  3.0694  0.5692  1.1054
  337MOL0     H46443   9.497   6.832   3.844 -0.2305  1.7321  2.9898
  337MOL0     H46444   9.485   6.761   4.005 -0.4275 -1.3984 -0.6449
  337MOL0     H46445   9.678   6.601   3.889  0.0649 -0.0111  0.2468
  337MOL0     H46446   9.719   6.759   3.826  0.5578 -0.3335 -0.3575
  337MOL0     H46447   9.823   6.675   4.071  0.2074 -0.1838  0.2145
  337MOL0     H46448   9.665   6.690   4.124  1.0560  0.4446  1.4802
  337MOL0     H46449   9.671   6.921   4.035 -0.3106 -1.6976 -1.1098
  337MOL0     H46450   9.746   6.896   4.186  0.2814  1.5158 -0.4436
  337MOL0     H46451   9.925   6.872   3.938  1.1925  1.9093 -0.1689
  337MOL0     H46452   9.974   6.871   4.105  2.3260 -2.7350 -4.2896
  337MOL0     H46453   9.892   7.121   4.100 -0.2052  0.0648 -0.3029
  337MOL0     H46454  10.031   7.068   4.013  0.8774  1.0413  4.3044
  337MOL0     H46455   9.698   7.232   3.979 -1.7662  0.4682  0.0029
  337MOL0     H46456   9.585   7.290   3.613  2.9354 -0.0428  0.3033
  337MOL0     H46457   9.496   7.288   3.768 -1.9547  0.5669 -1.3431
  337MOL0     H46458   9.525   7.034   3.608 -0.4788  0.6865 -1.5948
  337MOL0     H46459   9.455   7.074   3.764  1.5852 -1.4376 -0.2156
  337MOL0     H46460   9.312   7.231   3.667 -0.5142  0.2568  0.8627
  337MOL0     H46461   9.410   7.228   3.506  0.9788 -2.2407 -1.2904
  337MOL0     H46462   9.298   7.022   3.445  1.2715  0.2622  0.4587
  337MOL0     H46463   9.258   6.996   3.620  0.9367 -0.0002  0.3888
  337MOL0     H46464   8.930   7.199   3.378  1.4614 -1.2732 -3.5306
  337MOL0     H46465   8.712   7.208   3.332  1.9788 -0.9993  0.0019
  337MOL0     H46466   8.605   7.078   3.380 -2.3709  0.4594 -3.8814
  337MOL0     H46467   8.676   7.064   3.216 -2.6672 -2.2480 -0.1130
  337MOL0     H46468   8.600   6.518   3.262 -0.0474 -1.4025  0.9753
  337MOL0     H46469   8.385   6.404   3.233  1.6843 -1.0051  1.1915
  337MOL0     H46470   8.151   6.382   3.175 -0.9119 -0.6859  0.4540
  337MOL0     H46471   8.003   6.380   3.263 -1.2406 -0.5731 -0.6503
  337MOL0     H46472   8.106   6.630   3.130 -1.6273 -0.2286 -0.0415
  337MOL0     H46473   8.009   6.506   3.052 -0.0055  2.4461 -1.7777
  337MOL0     H46474   7.947   6.703   3.285 -0.1547  0.6575  0.1572
  337MOL0     H46475   7.837   6.565   3.238  0.1295 -0.9851 -1.6410
  337MOL0     H46476   7.805   6.638   3.033 -0.6609  2.1602 -0.4816
  337MOL0     H46477   7.923   6.769   3.044  0.5983 -1.0352 -0.4524
  337MOL0     H46478   7.771   6.886   3.196 -1.4759  0.3987  0.9871
  337MOL0     H46479   7.685   6.857   3.049 -0.1220 -1.1353 -0.3424
  337MOL0     H46480   7.648   6.715   3.305 -0.4654 -1.4363 -1.4080
  337MOL0     H46481   7.578   6.654   3.150  0.3257  1.2945 -2.3840
  337MOL0     H46482   7.438   6.845   3.124 -0.0749 -2.5473  1.7427
  337MOL0     H46483   7.542   6.939   3.229  3.0909 -1.3991  0.7065
  337MOL0     H46484   7.356   6.697   3.302 -3.0382  0.4116 -0.4812
  337MOL0     H46485   7.304   6.865   3.302  1.3136  1.0861 -0.5257
  337MOL0     H46486   8.210   6.671   3.533  1.5647 -0.5284  1.8725
  337MOL0     H46487   8.409   6.785   3.543 -0.5004  0.3127 -1.6108
  337MOL0     H46488   8.917   6.712   3.468  1.0029 -0.7433 -0.4240
  337MOL0     H46489   9.117   6.842   3.531 -1.6064  0.7833  0.7527
  337MOL0     H46490   9.061   6.542   3.906  0.5864 -3.2139  0.0160
  337MOL0     H46491   8.832   6.491   3.859 -1.4755  0.4647 -1.4103
  337MOL0     H46492   8.461   6.401   3.689 -2.4082  0.0717 -0.7979
  337MOL0     H46493   8.242   6.314   3.710  0.0340  0.8460  1.5016
  337MOL0     H46494   7.999   6.038   3.820 -0.4486  1.8836  2.5235
  337MOL0     H46495   8.059   6.197   3.814  1.3145  0.4416 -0.2140
  337MOL0     H46496   7.952   6.032   3.577 -2.0481  0.4229  0.9961
  337MOL0     H46497   8.083   6.152   3.546  0.8440 -0.8336  1.2233
  337MOL0     H46498   7.880   6.244   3.509  2.0526  1.0014 -1.1150
  337MOL0     H46499   7.799   6.237   3.648 -1.2713  4.3314 -2.7533
  337MOL0     H46500   8.024   6.393   3.543 -2.4019 -2.3754 -2.0134
  337MOL0     H46501   8.037   6.385   3.721  2.6523  0.9982 -1.1093
  337MOL0     H46502   7.704   6.647   3.670 -0.3326 -0.5035  3.0514
  337MOL0     H46503   8.421   5.908   3.724  0.0414  0.7949  0.5631
  337MOL0     H46504   8.704   5.940   3.778 -1.4774 -2.6861  0.9345
  337MOL0     H46505   8.611   5.871   3.650  0.2625 -0.2775  0.6699
  337MOL0     H46506   8.743   5.992   3.615 -0.2724  2.1461  0.5142
  338MOL0     O46507   8.571   6.916   6.313  0.2482  0.2603  0.1283
  338MOL0     C46508   8.616   6.799   6.291 -0.6623  0.4464  0.0226
  338MOL0     O46509   8.672   6.759   6.170  0.1607 -0.3373 -0.0410
  338MOL0     C46510   8.673   6.842   6.060  0.4694  0.3513 -0.3692
  338MOL0     C46511   8.778   6.935   6.036  0.5140  0.7450  0.0349
  338MOL0     C46512   8.779   7.013   5.925 -0.5334  0.3048 -0.1473
  338MOL0     C46513   8.671   6.999   5.834 -0.7296  0.8143  0.4049
  338MOL0     O46514   8.686   7.058   5.717  0.4297 -0.4940  0.4895
  338MOL0     C46515   8.809   7.061   5.642 -0.4658  0.0710 -0.0227
  338MOL0     C46516   8.785   7.083   5.488 -0.3722  0.5790 -0.6371
  338MOL0     C46517   8.742   7.228   5.472  0.5163 -0.0844  0.1535
  338MOL0     C46518   8.642   7.256   5.355  0.7276  0.5547 -0.0375
  338MOL0     C46519   8.602   7.414   5.348 -0.7375 -0.0657 -0.1842
  338MOL0     C46520   8.718   7.515   5.307  0.3741 -0.1136 -0.0194
  338MOL0     C46521   8.655   7.657   5.284 -0.3468 -0.0191 -0.3741
  338MOL0     C46522   8.522   7.682   5.201  0.9650  0.0582  0.4999
  338MOL0     N46523   8.496   7.821   5.167  0.5203  0.1751 -0.8708
  338MOL0     C46524   8.579   7.915   5.102  0.6267  0.3888  0.7600
  338MOL0     C46525   8.504   8.019   5.077 -0.1916  0.1657  0.1538
  338MOL0     C46526   8.533   8.156   5.024 -0.5010  0.5821  0.5436
  338MOL0     C46527   8.529   8.160   4.866  0.0460  0.5048 -0.3319
  338MOL0     C46528   8.585   8.291   4.810  0.5382  0.4838  0.3458
  338MOL0     C46529   8.497   8.410   4.806 -0.2383  0.2483  0.9357
  338MOL0     O46530   8.569   8.515   4.733  0.2035 -0.1288  0.0056
  338MOL0     C46531   8.555   8.519   4.600 -0.6144  0.2000 -0.0940
  338MOL0     C46532   8.651   8.460   4.518 -0.8224 -0.9787  0.3857
  338MOL0     C46533   8.654   8.478   4.381  0.4277  0.4076  0.5459
  338MOL0     C46534   8.772   8.428   4.310 -0.3406 -0.5955  0.2246
  338MOL0     C46535   8.538   8.547   4.325 -0.2620 -0.0380  0.3588
  338MOL0     C46536   8.513   8.555   4.178 -0.6580 -0.5263  0.0675
  338MOL0     O46537   8.620   8.576   4.090  0.5957 -0.3320  0.3612
  338MOL0     C46538   8.599   8.569   3.957 -0.4964  0.6589  0.0368
  338MOL0     C46539   8.648   8.670   3.881 -0.1355 -0.8906  0.8747
  338MOL0     C46540   8.618   8.674   3.745 -0.3818 -0.8309 -0.4649
  338MOL0     C46541   8.530   8.576   3.688  0.0136 -0.5399  1.3771
  338MOL0     O46542   8.498   8.578   3.549 -0.8854  0.0719  0.0024
  338MOL0     C46543   8.473   8.708   3.494 -0.2685  0.4097  0.1313
  338MOL0     C46544   8.391   8.712   3.354 -0.8242  0.4802  0.2530
  338MOL0     C46545   8.441   8.601   3.264  0.1733 -0.5956  0.2159
  338MOL0     C46546   8.377   8.571   3.131 -0.8590  0.6197 -0.6109
  338MOL0     C46547   8.229   8.523   3.139  0.1577 -0.4632 -0.2673
  338MOL0     C46548   8.189   8.473   2.999 -1.1014 -0.5895 -0.4302
  338MOL0     C46549   8.187   8.312   2.998  0.6555 -0.4139 -0.2873
  338MOL0     C46550   8.143   8.256   2.870  0.8430 -0.0182  0.3796
  338MOL0    Cl46551   8.161   8.077   2.875  0.1564  0.1322 -0.1478
  338MOL0     C46552   8.489   8.462   3.762  0.0522 -0.8632  0.8680
  338MOL0     C46553   8.521   8.466   3.899  0.3288  0.7719 -0.0902
  338MOL0     O46554   8.390   8.547   4.148 -0.0893 -0.8346  0.4575
  338MOL0     C46555   8.443   8.603   4.410 -0.3109  0.9257 -0.0009
  338MOL0     C46556   8.462   8.597   4.550 -0.4866 -0.8890  0.4041
  338MOL0     N46557   8.383   8.002   5.134  0.5179 -0.3767  0.9177
  338MOL0     N46558   8.378   7.884   5.191 -0.0015  0.0138 -0.4510
  338MOL0     C46559   8.560   6.915   5.854 -0.1402  0.5636  0.2828
  338MOL0     C46560   8.554   6.847   5.976  0.2962  0.7536 -0.1213
  338MOL0     C46561   8.616   6.710   6.409 -0.3324 -0.3057  0.3180
  338MOL0     C46562   8.588   6.765   6.533 -0.0233 -0.4308 -0.9540
  338MOL0     C46563   8.600   6.695   6.651  0.3874 -0.4594  0.8493
  338MOL0     C46564   8.662   6.567   6.649  0.5462 -0.1441  0.4966
  338MOL0     O46565   8.673   6.490   6.759 -0.8172  0.0224 -0.8822
  338MOL0     C46566   8.696   6.557   6.888 -0.7292  0.9959  0.0429
  338MOL0     C46567   8.836   6.642   6.890 -0.0252  1.4595 -0.2914
  338MOL0     C46568   8.951   6.547   6.851 -0.7754  0.1893 -0.7836
  338MOL0     C46569   9.073   6.625   6.803  0.4513  0.1361  0.1076
  338MOL0     C46570   9.038   6.681   6.676  0.3664  0.3164 -0.0147
  338MOL0     C46571   9.028   6.753   6.580  0.3532 -0.6584  0.8081
  338MOL0     C46572   8.691   6.514   6.530  0.2252 -0.5196  0.0468
  338MOL0     C46573   8.666   6.577   6.409  0.0232 -0.0015  0.8443
  338MOL0     C46574   8.692   6.510   6.280 -0.3864 -0.4272 -0.7492
  338MOL0     H46575   8.864   6.953   6.100  1.4730  0.1084 -1.0206
  338MOL0     H46576   8.860   7.085   5.919 -2.2608  2.2756 -1.0252
  338MOL0     H46577   8.863   6.966   5.652  1.3448  1.1412  0.8426
  338MOL0     H46578   8.869   7.138   5.691 -1.7759  0.0796  1.6605
  338MOL0     H46579   8.874   7.052   5.432 -0.4165 -0.7199 -0.0235
  338MOL0     H46580   8.709   7.006   5.473  1.2552 -1.1343 -0.4975
  338MOL0     H46581   8.704   7.285   5.557 -1.4635  3.8714 -3.0364
  338MOL0     H46582   8.836   7.278   5.447 -1.5096  3.6505 -0.6334
  338MOL0     H46583   8.690   7.222   5.262 -0.3773 -3.5618  0.6812
  338MOL0     H46584   8.549   7.199   5.367  0.8247  0.3559 -0.2152
  338MOL0     H46585   8.563   7.430   5.449 -2.2169 -0.3772 -0.6773
  338MOL0     H46586   8.510   7.424   5.290 -1.1624 -1.0267  0.2928
  338MOL0     H46587   8.784   7.535   5.391 -1.5387  1.7850  1.1544
  338MOL0     H46588   8.763   7.484   5.213 -1.1497  0.0745 -0.8494
  338MOL0     H46589   8.733   7.700   5.220  1.2031 -0.6695  1.0116
  338MOL0     H46590   8.650   7.726   5.368 -0.1927  0.7466 -0.9852
  338MOL0     H46591   8.535   7.643   5.100 -1.7206  0.1309  0.0581
  338MOL0     H46592   8.440   7.637   5.258  1.0817 -2.5340 -1.2368
  338MOL0     H46593   8.681   7.907   5.063  0.1055  2.8914 -1.4010
  338MOL0     H46594   8.635   8.183   5.053 -0.6177  2.6120 -0.6968
  338MOL0     H46595   8.459   8.221   5.071  0.2838  2.4367 -0.6376
  338MOL0     H46596   8.593   8.079   4.831 -1.7995 -1.8628  1.4502
  338MOL0     H46597   8.433   8.138   4.817  0.4919 -3.1389  0.1370
  338MOL0     H46598   8.676   8.319   4.864  0.3905 -0.6123  1.2057
  338MOL0     H46599   8.621   8.278   4.708  0.4429  1.6639  0.1435
  338MOL0     H46600   8.409   8.387   4.744  2.8212 -1.0587 -3.3356
  338MOL0     H46601   8.470   8.447   4.905  0.2151  3.3389 -0.0051
  338MOL0     H46602   8.729   8.395   4.555 -0.5846 -1.7373 -1.3611
  338MOL0     H46603   8.845   8.509   4.314  0.8241 -1.5688 -0.5616
  338MOL0     H46604   8.758   8.393   4.207  1.7985  1.5459 -0.9003
  338MOL0     H46605   8.812   8.345   4.369 -0.9822  0.9288  2.9443
  338MOL0     H46606   8.718   8.737   3.930  1.0544  0.1746 -2.0668
  338MOL0     H46607   8.677   8.737   3.679  1.8169 -4.1199 -1.8620
  338MOL0     H46608   8.419   8.768   3.568 -1.9453  1.3052 -1.7045
  338MOL0     H46609   8.572   8.750   3.474 -1.3042  1.1789 -4.5716
  338MOL0     H46610   8.285   8.696   3.374 -1.1071 -2.6120 -2.7160
  338MOL0     H46611   8.397   8.808   3.303 -1.5686 -0.3476 -1.4952
  338MOL0     H46612   8.433   8.510   3.324 -2.2308  0.1233  1.1036
  338MOL0     H46613   8.546   8.618   3.240 -0.1511 -0.4538 -1.1846
  338MOL0     H46614   8.429   8.484   3.091 -2.2965 -0.5414 -0.0522
  338MOL0     H46615   8.380   8.659   3.066  1.5716  0.6026 -0.6213
  338MOL0     H46616   8.222   8.445   3.215 -1.6927 -0.7087 -0.6428
  338MOL0     H46617   8.169   8.609   3.169  1.6275 -0.0693  1.7725
  338MOL0     H46618   8.267   8.508   2.931  0.8302 -0.5480  1.6963
  338MOL0     H46619   8.091   8.518   2.976 -0.1747  2.3216  0.8319
  338MOL0     H46620   8.119   8.270   3.072 -0.6988  0.0428 -1.2410
  338MOL0     H46621   8.287   8.274   3.021  1.7305  2.8245  0.9265
  338MOL0     H46622   8.216   8.294   2.798  0.3875  0.4329  0.1427
  338MOL0     H46623   8.042   8.282   2.838  0.0691 -1.8645  1.1621
  338MOL0     H46624   8.460   8.371   3.710  1.6490 -1.0058  0.1639
  338MOL0     H46625   8.501   8.384   3.967  1.4637  0.0943 -0.5476
  338MOL0     H46626   8.355   8.657   4.376 -0.6874  0.7111  0.5989
  338MOL0     H46627   8.384   8.643   4.611 -2.4266 -0.0821 -2.4527
  338MOL0     H46628   8.477   6.909   5.784 -1.3574 -3.0431  1.7992
  338MOL0     H46629   8.464   6.788   5.986  0.8205 -0.4220 -1.8739
  338MOL0     H46630   8.542   6.863   6.540  0.3314 -0.3098 -0.2048
  338MOL0     H46631   8.569   6.732   6.748  0.1418 -0.1328  0.6464
  338MOL0     H46632   8.606   6.608   6.924 -2.0627 -1.6612  0.7323
  338MOL0     H46633   8.711   6.470   6.953  2.6948  1.6448  0.2933
  338MOL0     H46634   8.833   6.672   6.995 -2.5546  1.2449 -0.2491
  338MOL0     H46635   8.833   6.728   6.824 -1.5689  1.8564  0.2610
  338MOL0     H46636   8.972   6.490   6.942  1.0749  0.7835 -0.7946
  338MOL0     H46637   8.917   6.482   6.770 -4.8306  0.9681  0.0534
  338MOL0     H46638   9.162   6.561   6.802 -0.5098 -1.2207 -0.3368
  338MOL0     H46639   9.093   6.705   6.875 -3.0164  0.2051  1.1462
  338MOL0     H46640   9.028   6.809   6.489  1.2471  0.6853  1.5909
  338MOL0     H46641   8.737   6.416   6.538  1.6853  0.1651  0.3429
  338MOL0     H46642   8.697   6.402   6.296  0.5892 -0.2297  0.3595
  338MOL0     H46643   8.617   6.539   6.205  2.3392 -1.5375 -4.1931
  338MOL0     H46644   8.784   6.544   6.233 -0.5558  1.7074  0.3312
  339MOL0     O46645  10.915   0.316   8.963 -0.7588  0.9778 -0.7136
  339MOL0     C46646  10.922   0.427   8.924 -1.3707 -0.5791 -0.5420
  339MOL0     O46647  10.855   0.478   8.822 -0.0064  0.7635  0.0312
  339MOL0     C46648  10.775   0.393   8.755  0.1938 -0.1546 -0.2816
  339MOL0     C46649  10.835   0.312   8.664  0.7124  0.8896  0.3566
  339MOL0     C46650  10.757   0.206   8.611  0.2422 -0.4023 -0.4726
  339MOL0     C46651  10.617   0.190   8.643 -0.6272 -0.1979 -0.1700
  339MOL0     O46652  10.546   0.090   8.582 -0.3160 -0.1318 -1.0503
  339MOL0     C46653  10.595  -0.034   8.527  0.3661 -0.2032  0.2842
  339MOL0     C46654  10.511  -0.150   8.595 -0.1145  0.1057  0.3918
  339MOL0     C46655  10.529  -0.293   8.535  0.3319  0.5699  0.8136
  339MOL0     C46656  10.428  -0.395   8.578  0.7491  0.1112 -0.6798
  339MOL0     C46657  10.417  -0.516   8.487 -0.6870 -0.1119  1.1395
  339MOL0     C46658  10.297  -0.611   8.508  0.9566  0.2069  0.1023
  339MOL0     C46659  10.269  -0.702   8.389 -0.3222  0.1580 -0.2744
  339MOL0     C46660  10.148  -0.788   8.419  0.2765  0.5653  0.6340
  339MOL0     N46661  10.090  -0.859   8.303  0.6848  0.2663 -0.5059
  339MOL0     C46662  10.008  -0.806   8.205  0.8565  0.3305 -0.2292
  339MOL0     C46663  10.001  -0.900   8.104 -0.8794 -0.2450 -0.8904
  339MOL0     C46664   9.929  -0.898   7.974 -0.0877  0.6408 -0.4583
  339MOL0     C46665  10.025  -0.859   7.861 -1.1516  0.7854 -0.1016
  339MOL0     C46666  10.068  -0.712   7.890  0.0879 -0.3288  0.2823
  339MOL0     C46667  10.140  -0.668   7.756  1.5229 -0.5724 -0.1992
  339MOL0     O46668  10.205  -0.547   7.781 -0.0916  0.5462  0.3194
  339MOL0     C46669  10.309  -0.534   7.875  0.0761 -0.1352  0.9678
  339MOL0     C46670  10.374  -0.409   7.901  0.6612 -0.5098 -0.0455
  339MOL0     C46671  10.479  -0.394   7.987 -0.5636  0.3997  0.0954
  339MOL0     C46672  10.524  -0.248   8.009  0.5729  0.4684 -0.1022
  339MOL0     C46673  10.544  -0.513   8.035  0.8300 -0.3540  0.0023
  339MOL0     C46674  10.652  -0.514   8.133 -0.1324  0.4838 -0.7603
  339MOL0     O46675  10.646  -0.595   8.237 -0.2418  0.2761 -0.7081
  339MOL0     C46676  10.735  -0.587   8.349 -0.5769 -0.5583  1.1835
  339MOL0     C46677  10.787  -0.703   8.408 -0.6450  0.5314  0.1144
  339MOL0     C46678  10.875  -0.696   8.516  0.1151 -0.1095 -0.1134
  339MOL0     C46679  10.935  -0.578   8.555 -0.6499  0.2600  0.6834
  339MOL0     O46680  11.039  -0.588   8.636  1.2953 -0.6262  0.4092
  339MOL0     C46681  11.091  -0.470   8.701 -0.0567  0.9380  0.4735
  339MOL0     C46682  10.981  -0.401   8.787  0.4061  0.2139  0.0299
  339MOL0     C46683  11.017  -0.260   8.838  0.7979 -0.2649  0.1495
  339MOL0     C46684  10.912  -0.208   8.944  0.4506 -0.6862 -0.3587
  339MOL0     C46685  10.962  -0.072   8.999  0.2157  0.5582  0.0286
  339MOL0     C46686  10.880  -0.015   9.117 -1.5267  0.8361  0.1129
  339MOL0     C46687  10.899  -0.109   9.231  0.0985 -0.3299 -0.2656
  339MOL0     C46688  10.854  -0.038   9.351  0.5294  0.3781 -0.3455
  339MOL0    Cl46689  10.976   0.071   9.417 -0.1378  0.2542 -0.0588
  339MOL0     C46690  10.898  -0.457   8.490 -0.3176 -0.7722 -0.3442
  339MOL0     C46691  10.804  -0.466   8.393 -0.2596 -0.2715  1.1032
  339MOL0     O46692  10.740  -0.433   8.110  0.4790  0.0523  0.2231
  339MOL0     C46693  10.482  -0.636   8.012 -0.9654 -0.0440 -0.3014
  339MOL0     C46694  10.371  -0.650   7.931  0.0075 -0.5804  0.0959
  339MOL0     N46695  10.070  -1.008   8.152 -0.2140  0.0515  0.6263
  339MOL0     N46696  10.127  -0.983   8.260 -0.6926  0.3817  0.1981
  339MOL0     C46697  10.559   0.295   8.721  0.2607 -0.5334  0.2274
  339MOL0     C46698  10.635   0.387   8.784  0.1970 -0.1899  0.3403
  339MOL0     C46699  11.025   0.510   8.998  0.5884  0.0440 -0.8658
  339MOL0     C46700  10.995   0.646   8.993  0.0314 -0.1219 -0.1759
  339MOL0     C46701  11.077   0.741   9.045 -0.0775  0.5652  0.8635
  339MOL0     C46702  11.185   0.702   9.123 -1.0888  0.4931  0.4910
  339MOL0     O46703  11.262   0.800   9.188 -1.2510  0.4152  0.3306
  339MOL0     C46704  11.377   0.760   9.271  0.2779 -1.4002 -0.2769
  339MOL0     C46705  11.421   0.873   9.365  0.3145 -0.7871 -0.6551
  339MOL0     C46706  11.477   1.016   9.315 -0.3370  1.0103 -0.0592
  339MOL0     C46707  11.584   0.992   9.197  0.3229 -0.4396  0.2323
  339MOL0     C46708  11.702   0.914   9.247  0.6322  0.0062 -1.0777
  339MOL0     C46709  11.810   0.862   9.259  1.0686  0.1399  0.1457
  339MOL0     C46710  11.212   0.565   9.130  0.1215 -0.1610  0.5817
  339MOL0     C46711  11.134   0.468   9.070 -0.3042  0.7978  0.2470
  339MOL0     C46712  11.180   0.324   9.096  0.5750 -1.1395  1.0254
  339MOL0     H46713  10.942   0.311   8.643  0.9533 -1.8047  1.3402
  339MOL0     H46714  10.825   0.137   8.562 -2.2916 -2.4615 -1.3093
  339MOL0     H46715  10.702  -0.054   8.536  0.1780 -0.4096  2.5928
  339MOL0     H46716  10.570  -0.039   8.420 -2.0048  1.0007  0.7194
  339MOL0     H46717  10.552  -0.141   8.697  0.0897  3.2847  0.1206
  339MOL0     H46718  10.408  -0.116   8.585  0.2534  1.4918  1.0334
  339MOL0     H46719  10.519  -0.281   8.427  0.5704 -1.6070  0.5031
  339MOL0     H46720  10.630  -0.320   8.568  1.2066  1.4168 -1.0635
  339MOL0     H46721  10.444  -0.432   8.680  0.8683 -1.9588 -1.3961
  339MOL0     H46722  10.331  -0.344   8.580 -0.6103 -2.3106  0.3291
  339MOL0     H46723  10.510  -0.573   8.487 -0.4569  0.2428  0.2709
  339MOL0     H46724  10.419  -0.480   8.383  2.4475  1.3736  1.6087
  339MOL0     H46725  10.315  -0.672   8.597 -2.8858  1.2124  1.7828
  339MOL0     H46726  10.210  -0.547   8.527  0.6092  0.5187 -2.2820
  339MOL0     H46727  10.358  -0.764   8.379 -0.7006 -0.2135 -1.4292
  339MOL0     H46728  10.257  -0.629   8.308  0.5774  0.9168  0.2493
  339MOL0     H46729  10.176  -0.863   8.494  2.9299  1.4051  0.6211
  339MOL0     H46730  10.070  -0.723   8.460 -0.8320  0.7138 -1.5780
  339MOL0     H46731   9.946  -0.717   8.202 -0.0534 -0.3171 -2.4800
  339MOL0     H46732   9.846  -0.827   7.982 -0.6596 -0.0417 -0.1775
  339MOL0     H46733   9.890  -1.000   7.965 -2.6800  0.9864  3.9230
  339MOL0     H46734  10.113  -0.924   7.871 -0.9019  1.4162  2.3581
  339MOL0     H46735   9.972  -0.879   7.767 -2.6080  1.1048  0.6222
  339MOL0     H46736   9.979  -0.652   7.915 -1.5865 -1.9768 -1.4029
  339MOL0     H46737  10.132  -0.707   7.978 -0.1015 -1.1554  0.4721
  339MOL0     H46738  10.212  -0.742   7.720  0.4322 -1.2235 -1.1099
  339MOL0     H46739  10.065  -0.663   7.677 -1.1410 -4.8798  1.6477
  339MOL0     H46740  10.324  -0.326   7.852 -0.5391 -2.0595 -1.5734
  339MOL0     H46741  10.630  -0.223   8.017  0.5048  0.6319  0.3179
  339MOL0     H46742  10.500  -0.223   8.113  0.6463 -0.0433  0.0379
  339MOL0     H46743  10.482  -0.176   7.938  1.4920  2.3453  1.1715
  339MOL0     H46744  10.755  -0.802   8.380 -0.6747  0.6167 -0.1539
  339MOL0     H46745  10.917  -0.780   8.570  0.9514 -0.6362 -1.5037
  339MOL0     H46746  11.180  -0.494   8.760 -0.3145 -1.2988  0.0412
  339MOL0     H46747  11.117  -0.400   8.621  0.6183 -0.2767 -0.4005
  339MOL0     H46748  10.886  -0.389   8.734 -2.4258 -1.6421  4.2166
  339MOL0     H46749  10.942  -0.466   8.866 -0.5475  1.2720  0.4593
  339MOL0     H46750  11.023  -0.179   8.765 -1.8333 -1.2411 -1.2601
  339MOL0     H46751  11.116  -0.268   8.884 -0.3204 -4.6784  2.3580
  339MOL0     H46752  10.907  -0.292   9.014 -0.0203  1.8409  2.9035
  339MOL0     H46753  10.811  -0.207   8.901  0.5741 -2.6079 -0.7434
  339MOL0     H46754  11.067  -0.086   9.028  0.5775  0.4586 -1.2571
  339MOL0     H46755  10.966   0.003   8.920  1.8253 -1.1566 -1.6193
  339MOL0     H46756  10.773  -0.008   9.095 -1.4779 -0.0799 -0.4571
  339MOL0     H46757  10.923   0.083   9.137 -0.3560  1.1636 -3.3224
  339MOL0     H46758  10.995  -0.161   9.228  0.8051  0.7224  1.7819
  339MOL0     H46759  10.831  -0.193   9.219 -0.9669  0.6588 -1.3505
  339MOL0     H46760  10.840  -0.113   9.429  2.4338 -1.1469 -1.3894
  339MOL0     H46761  10.760   0.011   9.323  0.2736  0.3300  0.3819
  339MOL0     H46762  10.951  -0.364   8.506 -2.4266  0.2069  1.4704
  339MOL0     H46763  10.768  -0.380   8.337  3.5474  0.1978 -0.9166
  339MOL0     H46764  10.533  -0.724   8.052 -2.3692  0.2254  2.2721
  339MOL0     H46765  10.344  -0.754   7.916  1.5397 -0.9887  0.0451
  339MOL0     H46766  10.451   0.294   8.733  0.0710  3.4336  0.3772
  339MOL0     H46767  10.589   0.460   8.851 -1.9294 -0.2745 -0.9217
  339MOL0     H46768  10.912   0.681   8.933  1.0063  0.7531 -1.0510
  339MOL0     H46769  11.054   0.845   9.024 -5.0280 -0.3786  0.3248
  339MOL0     H46770  11.359   0.670   9.330  2.0554 -2.5480 -1.3655
  339MOL0     H46771  11.461   0.731   9.206 -0.3166  0.5827 -2.0476
  339MOL0     H46772  11.499   0.834   9.430  0.7696 -2.4522 -2.1182
  339MOL0     H46773  11.329   0.886   9.423  0.6567  0.8108 -0.4289
  339MOL0     H46774  11.387   1.072   9.288 -0.5990  0.4566 -0.3435
  339MOL0     H46775  11.532   1.055   9.402  0.0541 -1.8833  1.1028
  339MOL0     H46776  11.623   1.088   9.161  1.6306 -1.9280 -2.5864
  339MOL0     H46777  11.531   0.942   9.116 -1.0806  2.8892 -1.1093
  339MOL0     H46778  11.906   0.815   9.253  0.0018 -2.0240 -2.2569
  339MOL0     H46779  11.303   0.537   9.184  2.4156  0.0567 -2.8148
  339MOL0     H46780  11.264   0.314   9.165  1.5147  1.3992  0.3848
  339MOL0     H46781  11.094   0.275   9.141 -1.6944 -0.7016 -2.4789
  339MOL0     H46782  11.204   0.273   9.002 -1.0549 -1.1338  0.5822
  340MOL0     O46783   9.675   7.749   8.928  0.2357  0.0615 -1.3494
  340MOL0     C46784   9.722   7.789   9.032  0.1417  0.6069  0.0521
  340MOL0     O46785   9.783   7.700   9.134 -0.1450  0.2079  0.1499
  340MOL0     C46786   9.797   7.567   9.101 -0.4104 -0.1130 -0.2359
  340MOL0     C46787   9.928   7.523   9.071 -0.1038 -0.9904  0.9261
  340MOL0     C46788   9.953   7.389   9.043 -0.0567  0.4229  0.3923
  340MOL0     C46789   9.860   7.292   9.054  0.7395  0.0766  0.1066
  340MOL0     O46790   9.882   7.156   9.027 -0.0595 -0.0929  0.1595
  340MOL0     C46791  10.003   7.091   9.071  0.8258 -0.0302  0.5900
  340MOL0     C46792   9.980   6.941   9.054 -0.4862 -0.2709  0.3739
  340MOL0     C46793  10.116   6.860   9.048 -0.4950 -0.3805 -0.2323
  340MOL0     C46794  10.084   6.708   9.063 -0.1796 -0.8443  0.3039
  340MOL0     C46795  10.208   6.630   9.071 -0.2097  0.4362 -0.7116
  340MOL0     C46796  10.187   6.482   9.020  0.6946 -1.2516  0.5113
  340MOL0     C46797  10.083   6.399   9.118 -0.0722  0.6860  0.2763
  340MOL0     C46798  10.085   6.246   9.070 -1.0837 -0.6607 -0.0757
  340MOL0     N46799  10.028   6.231   8.944 -0.2380 -0.0249  0.4680
  340MOL0     C46800   9.893   6.270   8.906 -0.3205 -0.8539  0.9228
  340MOL0     C46801   9.889   6.213   8.787 -0.4532  0.4883  0.0659
  340MOL0     C46802   9.758   6.207   8.705  1.0683 -0.9248 -0.2619
  340MOL0     C46803   9.759   6.078   8.620 -0.0105 -0.9717  0.0778
  340MOL0     C46804   9.621   6.044   8.564  0.5526  0.1756  0.0500
  340MOL0     C46805   9.519   5.988   8.659 -0.1002 -1.1229  0.7622
  340MOL0     O46806   9.470   6.081   8.755  0.1460 -0.6287  0.0564
  340MOL0     C46807   9.385   6.042   8.849  0.2656  0.5224 -0.7178
  340MOL0     C46808   9.374   5.909   8.895  0.7605 -0.3445 -0.3783
  340MOL0     C46809   9.303   5.881   9.010  0.5304 -0.5665 -0.2866
  340MOL0     C46810   9.317   5.740   9.055  0.1277  0.1853 -0.1158
  340MOL0     C46811   9.226   5.985   9.072 -0.2358  0.8910 -0.8369
  340MOL0     C46812   9.132   5.960   9.184  0.0320  0.5080 -0.4153
  340MOL0     O46813   9.156   5.856   9.268  0.4095 -0.0937 -0.9834
  340MOL0     C46814   9.041   5.800   9.338  0.4853  0.1890 -0.1374
  340MOL0     C46815   8.989   5.667   9.323 -1.0718 -1.0533  0.3685
  340MOL0     C46816   8.879   5.629   9.395  0.2834 -0.3974  0.3368
  340MOL0     C46817   8.807   5.712   9.485  0.0068 -0.5916  0.5690
  340MOL0     O46818   8.697   5.656   9.541  0.2596  0.8694  0.4545
  340MOL0     C46819   8.656   5.716   9.666  0.0141 -1.1326  0.1658
  340MOL0     C46820   8.533   5.654   9.722  0.0590  0.8851  0.3826
  340MOL0     C46821   8.394   5.715   9.689  0.0448 -0.8473 -0.2840
  340MOL0     C46822   8.289   5.638   9.769  0.3431 -0.4746  0.5577
  340MOL0     C46823   8.152   5.715   9.799  0.4003  0.4502 -0.7676
  340MOL0     C46824   8.167   5.831   9.910  0.2770  0.0615  0.5430
  340MOL0     C46825   8.029   5.879   9.960  0.4252  0.7631  0.0505
  340MOL0     C46826   8.033   5.958  10.096  0.0999 -0.2854  0.2013
  340MOL0    Cl46827   7.863   6.010  10.136  0.3159  0.0545  0.3743
  340MOL0     C46828   8.870   5.835   9.521 -0.1309 -0.6709  1.1482
  340MOL0     C46829   8.987   5.879   9.443  0.6622 -0.7733  0.6226
  340MOL0     O46830   9.031   6.029   9.192  0.8136  0.8208  0.1476
  340MOL0     C46831   9.237   6.114   9.026  0.5583 -0.9097  0.3995
  340MOL0     C46832   9.335   6.142   8.927 -0.8741 -0.4111 -1.4282
  340MOL0     N46833  10.004   6.137   8.750 -0.2955 -0.0207  0.0675
  340MOL0     N46834  10.083   6.149   8.850 -0.4044 -0.3376 -0.5431
  340MOL0     C46835   9.723   7.331   9.089 -0.7806 -1.2822 -0.1691
  340MOL0     C46836   9.696   7.471   9.123 -0.1286  0.0998  0.5072
  340MOL0     C46837   9.710   7.935   9.069  0.4543 -0.1478 -0.8292
  340MOL0     C46838   9.804   7.993   9.155 -0.7478 -0.0617  0.3894
  340MOL0     C46839   9.818   8.131   9.181  0.1068  0.9941 -0.0321
  340MOL0     C46840   9.723   8.218   9.133 -0.1673 -0.1305  0.8166
  340MOL0     O46841   9.727   8.359   9.149 -0.0082 -0.1510  0.7717
  340MOL0     C46842   9.761   8.417   9.273 -0.3065  0.3809  0.4572
  340MOL0     C46843   9.634   8.424   9.364  0.4626  0.0834 -0.6633
  340MOL0     C46844   9.530   8.505   9.293 -0.3179 -0.2208 -0.5034
  340MOL0     C46845   9.386   8.483   9.366 -0.7372 -0.8242  0.5411
  340MOL0     C46846   9.386   8.476   9.510 -0.4130 -0.6270 -0.3608
  340MOL0     C46847   9.381   8.445   9.630  0.6566  0.4412  0.9858
  340MOL0     C46848   9.623   8.166   9.051 -0.8243 -0.5632  0.5512
  340MOL0     C46849   9.610   8.024   9.020  0.5255  0.4354 -0.9918
  340MOL0     C46850   9.485   7.979   8.931  0.4133 -0.4549 -0.0274
  340MOL0     H46851  10.009   7.595   9.071 -0.7225 -0.2645  1.9100
  340MOL0     H46852  10.047   7.352   9.004 -0.5194 -1.4427  0.9491
  340MOL0     H46853  10.028   7.113   9.175  3.0446 -1.4833  0.4233
  340MOL0     H46854  10.094   7.129   9.025 -0.7407  0.2998 -2.4955
  340MOL0     H46855   9.924   6.915   9.145  0.3584 -0.3595  0.8786
  340MOL0     H46856   9.910   6.917   8.974  0.4254 -0.9320 -0.2464
  340MOL0     H46857  10.173   6.880   8.957 -0.6441 -0.2726 -0.3021
  340MOL0     H46858  10.178   6.890   9.133  1.4672  2.0649 -2.3935
  340MOL0     H46859  10.018   6.688   9.148 -1.8385  0.9511 -0.4869
  340MOL0     H46860  10.027   6.665   8.981  0.7151 -2.3983  0.4600
  340MOL0     H46861  10.247   6.625   9.173 -0.2684 -0.8702 -0.7380
  340MOL0     H46862  10.282   6.685   9.012 -1.5558 -0.3942 -3.3144
  340MOL0     H46863  10.151   6.474   8.917 -0.8734 -0.0608  0.9191
  340MOL0     H46864  10.284   6.434   9.014  1.1438 -0.2196 -3.2200
  340MOL0     H46865   9.982   6.439   9.125 -1.5257 -2.3935 -1.2502
  340MOL0     H46866  10.115   6.407   9.222 -0.8974  0.7124  0.5321
  340MOL0     H46867  10.180   6.193   9.079 -0.5774  0.2173 -0.0764
  340MOL0     H46868  10.026   6.200   9.150 -1.2657  0.6523  0.5738
  340MOL0     H46869   9.825   6.329   8.965 -0.3470  1.1432 -0.9989
  340MOL0     H46870   9.756   6.294   8.639  1.0610 -1.2834 -0.7395
  340MOL0     H46871   9.672   6.209   8.773  2.3906  2.2451  1.5716
  340MOL0     H46872   9.820   6.091   8.531  1.5384 -0.6877  1.1413
  340MOL0     H46873   9.816   5.998   8.669  3.0222  1.0540  0.1250
  340MOL0     H46874   9.569   6.125   8.511 -3.9550 -1.6168  1.3055
  340MOL0     H46875   9.642   5.956   8.502  0.3308  0.3225 -0.2373
  340MOL0     H46876   9.434   5.941   8.608 -0.5931  1.5242 -1.1109
  340MOL0     H46877   9.578   5.904   8.696  0.3344 -1.1363  0.0658
  340MOL0     H46878   9.421   5.825   8.843 -2.1296 -1.6365 -1.0901
  340MOL0     H46879   9.327   5.729   9.164  3.6387  0.4741 -0.2902
  340MOL0     H46880   9.413   5.698   9.023  1.6001 -0.3090  4.1994
  340MOL0     H46881   9.234   5.678   9.020 -1.6459  0.6794  2.8186
  340MOL0     H46882   9.040   5.597   9.258  0.1186  0.3262 -0.2082
  340MOL0     H46883   8.838   5.531   9.370 -1.8289  0.4203  0.3907
  340MOL0     H46884   8.735   5.700   9.740 -2.0756  0.0698  2.8011
  340MOL0     H46885   8.649   5.824   9.658 -0.6609 -0.9555  2.4843
  340MOL0     H46886   8.533   5.553   9.679  3.6539  2.4766 -4.1458
  340MOL0     H46887   8.537   5.640   9.831 -1.7523  1.6121  0.5784
  340MOL0     H46888   8.374   5.708   9.582  3.6828  0.7824 -1.2237
  340MOL0     H46889   8.410   5.820   9.713  0.4164 -0.2734 -2.7505
  340MOL0     H46890   8.331   5.627   9.869 -0.1765  2.6222  1.2373
  340MOL0     H46891   8.278   5.539   9.724  2.2140 -1.1114  1.4154
  340MOL0     H46892   8.122   5.771   9.710 -1.0521 -0.5184 -0.9375
  340MOL0     H46893   8.066   5.654   9.827  0.4864  1.2632  1.4375
  340MOL0     H46894   8.217   5.915   9.860  0.5039  1.6388  3.2012
  340MOL0     H46895   8.215   5.798  10.003  1.1878 -1.8879 -0.5473
  340MOL0     H46896   7.954   5.799   9.968 -0.0463  1.3724  2.2810
  340MOL0     H46897   7.990   5.948   9.885 -4.7540  1.1402  2.6501
  340MOL0     H46898   8.095   6.048  10.100 -1.7118  0.9945  0.6021
  340MOL0     H46899   8.059   5.883  10.171 -2.4364 -1.8336 -0.3687
  340MOL0     H46900   8.815   5.906   9.582 -0.3109  1.3385 -1.1954
  340MOL0     H46901   9.018   5.983   9.453 -0.3493 -0.1613 -1.9385
  340MOL0     H46902   9.182   6.201   9.060  1.9110  1.5520 -3.0504
  340MOL0     H46903   9.339   6.245   8.893 -2.7121 -0.6986 -2.6865
  340MOL0     H46904   9.637   7.268   9.110 -1.5962  0.5894  2.7032
  340MOL0     H46905   9.598   7.498   9.161 -0.4150 -0.7064  0.3544
  340MOL0     H46906   9.886   7.928   9.184 -0.6875  0.3776  1.2123
  340MOL0     H46907   9.905   8.175   9.228  0.1718  0.6339  0.1894
  340MOL0     H46908   9.838   8.361   9.327 -2.6539 -0.3119  3.3918
  340MOL0     H46909   9.792   8.519   9.248 -3.3916  1.0602 -1.0747
  340MOL0     H46910   9.670   8.480   9.451  1.6680  3.6483 -3.2170
  340MOL0     H46911   9.594   8.324   9.384 -2.6857  0.9553 -2.0359
  340MOL0     H46912   9.548   8.613   9.289 -3.0207  0.3564  0.6852
  340MOL0     H46913   9.513   8.485   9.187 -0.6232 -1.3469 -0.2516
  340MOL0     H46914   9.334   8.392   9.333  1.0713 -1.6322 -0.2035
  340MOL0     H46915   9.326   8.568   9.334 -1.7746 -1.6977  0.0779
  340MOL0     H46916   9.360   8.427   9.733 -1.3344  3.0021  1.1198
  340MOL0     H46917   9.556   8.245   9.018  0.5848  1.3148  1.9506
  340MOL0     H46918   9.420   8.067   8.923  1.8736  0.8068  1.2697
  340MOL0     H46919   9.510   7.956   8.827  0.9889  1.5230 -0.3675
  340MOL0     H46920   9.438   7.898   8.987 -0.5824 -0.0658 -0.2754
  341MOL0     O46921   2.811   5.625   2.910  0.2754 -0.2008 -0.1937
  341MOL0     C46922   2.770   5.711   2.835 -0.4742  0.5638  0.1697
  341MOL0     O46923   2.811   5.727   2.703  0.7061 -0.4987 -0.1924
  341MOL0     C46924   2.903   5.642   2.657  0.5527  0.2237 -0.0840
  341MOL0     C46925   2.879   5.505   2.657  0.5323  0.2041 -0.3679
  341MOL0     C46926   2.979   5.410   2.614 -0.1732 -1.5248  0.4152
  341MOL0     C46927   3.097   5.466   2.565 -0.1760  0.3822  0.4428
  341MOL0     O46928   3.194   5.393   2.498 -0.5378 -0.0893  0.0717
  341MOL0     C46929   3.185   5.250   2.510 -0.2574 -0.9681 -0.3410
  341MOL0     C46930   3.310   5.185   2.465  0.7584  0.3101 -0.5734
  341MOL0     C46931   3.282   5.044   2.424  0.2792  0.7437  0.3554
  341MOL0     C46932   3.380   4.997   2.319 -0.0963  0.0905  0.7350
  341MOL0     C46933   3.361   4.848   2.298 -0.1147 -1.0373  0.7295
  341MOL0     C46934   3.470   4.804   2.197 -0.6103  1.2097 -0.2581
  341MOL0     C46935   3.458   4.653   2.149  0.3851 -1.0682 -0.9785
  341MOL0     C46936   3.347   4.640   2.045 -0.4111  0.3006 -0.0794
  341MOL0     N46937   3.342   4.501   1.993 -0.7050  0.1549 -0.1520
  341MOL0     C46938   3.233   4.431   1.971 -0.3347 -0.0812  0.1170
  341MOL0     C46939   3.268   4.321   1.896  0.4696  0.3498  0.2407
  341MOL0     C46940   3.180   4.211   1.853 -0.9679 -0.0289 -0.2530
  341MOL0     C46941   3.136   4.244   1.704 -0.2485  0.2963  1.2656
  341MOL0     C46942   3.075   4.128   1.624  0.2251  0.9055  0.5661
  341MOL0     C46943   3.028   4.182   1.488 -0.7889  0.1657 -0.3923
  341MOL0     O46944   2.949   4.096   1.401  0.0916 -0.8398 -0.4162
  341MOL0     C46945   2.988   3.965   1.391 -0.0574 -0.5743  0.2345
  341MOL0     C46946   3.114   3.925   1.353  0.6900  0.3410  0.7308
  341MOL0     C46947   3.149   3.785   1.359  0.4755 -1.5567  0.2481
  341MOL0     C46948   3.290   3.759   1.322 -0.2245  0.7061  0.0784
  341MOL0     C46949   3.047   3.688   1.399 -0.5330 -0.5681 -0.3034
  341MOL0     C46950   3.079   3.547   1.412 -0.5018 -0.6089  0.2516
  341MOL0     O46951   3.193   3.490   1.356 -0.0714  0.0619 -0.2664
  341MOL0     C46952   3.193   3.357   1.332  0.7171  1.0843 -0.3623
  341MOL0     C46953   3.311   3.283   1.352  0.4856 -0.1123 -0.6440
  341MOL0     C46954   3.337   3.155   1.300  0.4267 -0.1600  0.3600
  341MOL0     C46955   3.229   3.087   1.233  0.0218 -0.0711 -0.2177
  341MOL0     O46956   3.231   2.958   1.172 -0.0026  0.1031 -0.9768
  341MOL0     C46957   3.360   2.887   1.183  0.1728  0.5601  0.5246
  341MOL0     C46958   3.339   2.748   1.117 -0.1639  0.4150 -0.6120
  341MOL0     C46959   3.480   2.670   1.113 -0.3707 -0.2312  0.4420
  341MOL0     C46960   3.439   2.525   1.117  0.2016  1.0756 -1.4897
  341MOL0     C46961   3.561   2.433   1.083 -0.0722 -0.7865  0.1024
  341MOL0     C46962   3.635   2.383   1.206  0.1894  0.1901 -0.9892
  341MOL0     C46963   3.747   2.274   1.172  0.3531 -0.5785 -0.2643
  341MOL0     C46964   3.841   2.305   1.052  0.6287  0.3699  0.1559
  341MOL0    Cl46965   3.956   2.438   1.060  0.2070 -0.0673  0.4030
  341MOL0     C46966   3.107   3.153   1.207  0.2290  0.5396  0.6787
  341MOL0     C46967   3.093   3.287   1.249 -0.7071 -0.3964  0.7545
  341MOL0     O46968   2.996   3.480   1.467  0.2045  0.5372  0.1189
  341MOL0     C46969   2.916   3.737   1.429 -0.7558  0.6970 -0.3097
  341MOL0     C46970   2.891   3.872   1.428  0.4239 -0.8752 -0.6568
  341MOL0     N46971   3.403   4.329   1.862 -0.5118 -0.3817 -0.0772
  341MOL0     N46972   3.443   4.438   1.917  0.0695 -0.4311  0.2205
  341MOL0     C46973   3.127   5.602   2.577  0.8600  0.5327  0.2274
  341MOL0     C46974   3.031   5.692   2.629 -0.1846  1.0594  0.1582
  341MOL0     C46975   2.680   5.814   2.879  0.2309 -0.4051 -0.1421
  341MOL0     C46976   2.718   5.899   2.988 -0.2665  0.5048 -0.2300
  341MOL0     C46977   2.639   6.010   3.012 -0.4640 -0.6055  0.2903
  341MOL0     C46978   2.524   6.037   2.935  0.8645  0.7510  1.0872
  341MOL0     O46979   2.446   6.149   2.938  0.1828  0.4300 -0.1502
  341MOL0     C46980   2.490   6.258   2.853 -0.0201 -0.6047 -0.2748
  341MOL0     C46981   2.423   6.386   2.889  0.0078 -0.6046 -0.2245
  341MOL0     C46982   2.453   6.436   3.034  0.8304 -0.1450 -0.6389
  341MOL0     C46983   2.557   6.364   3.123 -0.2315 -0.8111  0.0745
  341MOL0     C46984   2.592   6.463   3.231 -0.6223  1.1076 -0.0798
  341MOL0     C46985   2.601   6.558   3.311  0.0449 -0.6133  0.0081
  341MOL0     C46986   2.479   5.942   2.839 -0.2268  1.0021  0.4379
  341MOL0     C46987   2.552   5.827   2.818 -0.1456 -0.6073 -1.0222
  341MOL0     C46988   2.490   5.726   2.727  0.1676 -0.0366  0.4779
  341MOL0     H46989   2.782   5.472   2.693  0.1760  1.6490  0.0405
  341MOL0     H46990   2.948   5.306   2.608 -3.9149 -0.6252  1.9593
  341MOL0     H46991   3.112   5.225   2.433  0.0236 -0.7522 -0.6814
  341MOL0     H46992   3.169   5.217   2.613  3.3016 -1.1567  0.2742
  341MOL0     H46993   3.336   5.250   2.381  1.6270  1.5865  0.6354
  341MOL0     H46994   3.387   5.187   2.543 -0.9698 -2.8598  1.4051
  341MOL0     H46995   3.273   4.981   2.513 -0.5053  2.0054  1.2063
  341MOL0     H46996   3.189   5.046   2.367 -0.0494  2.0327  0.8891
  341MOL0     H46997   3.356   5.042   2.222  1.3260 -0.1128  0.2659
  341MOL0     H46998   3.483   5.025   2.344 -0.1145 -0.2467  1.1918
  341MOL0     H46999   3.260   4.821   2.268  0.1707 -1.1140 -0.2098
  341MOL0     H47000   3.379   4.807   2.398 -2.2885 -0.9792  1.1893
  341MOL0     H47001   3.476   4.867   2.108 -0.0157  0.7374 -0.5600
  341MOL0     H47002   3.568   4.807   2.245 -0.7814 -1.7933  0.4676
  341MOL0     H47003   3.429   4.594   2.237 -2.7047 -1.2585 -1.9863
  341MOL0     H47004   3.554   4.623   2.105 -0.0056 -1.5971 -1.4932
  341MOL0     H47005   3.248   4.674   2.076 -0.4040 -1.7899  2.6371
  341MOL0     H47006   3.378   4.712   1.970  4.1281 -1.8036 -0.5520
  341MOL0     H47007   3.134   4.460   2.004  0.7654  4.8572 -0.0614
  341MOL0     H47008   3.097   4.201   1.923 -1.2996 -1.7181 -0.8317
  341MOL0     H47009   3.237   4.117   1.851 -2.2387 -0.8245  0.2832
  341MOL0     H47010   3.066   4.327   1.707 -1.5834 -0.6513 -0.9261
  341MOL0     H47011   3.227   4.267   1.648  0.5848  1.0424  2.8715
  341MOL0     H47012   3.155   4.056   1.604  0.9100  1.9934 -0.7268
  341MOL0     H47013   2.995   4.088   1.687  2.5961 -0.1075  3.1429
  341MOL0     H47014   2.976   4.278   1.491 -2.0642 -0.4752 -1.0459
  341MOL0     H47015   3.120   4.203   1.433 -0.7188 -1.6401 -1.0513
  341MOL0     H47016   3.185   4.003   1.327  0.0219  0.8194  0.3367
  341MOL0     H47017   3.334   3.843   1.267 -3.5745  1.9180 -0.9840
  341MOL0     H47018   3.300   3.676   1.251 -4.9691  1.1679 -1.4668
  341MOL0     H47019   3.354   3.739   1.408 -1.9571 -0.0050  1.2501
  341MOL0     H47020   3.395   3.328   1.405 -0.1740 -0.6990  0.9826
  341MOL0     H47021   3.438   3.118   1.310  0.5447  0.0355 -0.0918
  341MOL0     H47022   3.438   2.939   1.126  0.0876 -1.2737 -1.3888
  341MOL0     H47023   3.395   2.888   1.286 -1.0354  2.8949  0.9669
  341MOL0     H47024   3.263   2.697   1.178 -0.8482  2.2415  0.1438
  341MOL0     H47025   3.309   2.739   1.013 -0.1517 -1.9886 -0.4686
  341MOL0     H47026   3.539   2.690   1.203  0.6653 -3.2900  0.5584
  341MOL0     H47027   3.529   2.679   1.016 -0.9369 -1.7280 -0.0123
  341MOL0     H47028   3.356   2.512   1.047 -1.3126  1.8983  0.0959
  341MOL0     H47029   3.398   2.502   1.215 -1.2113  0.9753 -2.0843
  341MOL0     H47030   3.520   2.347   1.029 -0.2790 -0.5214 -0.1676
  341MOL0     H47031   3.628   2.484   1.013 -0.2987 -0.6494 -0.0175
  341MOL0     H47032   3.561   2.338   1.273  2.0141 -0.2090  0.8376
  341MOL0     H47033   3.672   2.471   1.258 -3.5985  1.7513 -0.6503
  341MOL0     H47034   3.701   2.179   1.144  0.9339 -1.7498  2.3487
  341MOL0     H47035   3.801   2.246   1.263 -0.1945 -1.1217 -0.1009
  341MOL0     H47036   3.781   2.327   0.964  1.9559  0.8553 -0.6477
  341MOL0     H47037   3.892   2.213   1.022 -0.9319 -0.3756 -0.3619
  341MOL0     H47038   3.018   3.106   1.168  1.9844 -1.6773 -0.9624
  341MOL0     H47039   3.002   3.343   1.230 -0.4198  0.1738  1.0222
  341MOL0     H47040   2.849   3.669   1.481  0.3997  2.0968  3.3347
  341MOL0     H47041   2.791   3.909   1.447  0.1879  0.4451 -3.8663
  341MOL0     H47042   3.230   5.626   2.552  0.4938  0.5975 -1.3494
  341MOL0     H47043   3.053   5.797   2.643  1.2873  0.6281  1.4003
  341MOL0     H47044   2.807   5.876   3.044  0.3012  2.6894 -0.1536
  341MOL0     H47045   2.673   6.085   3.083 -1.6833  0.0241  0.2319
  341MOL0     H47046   2.597   6.274   2.867 -0.3532  2.0388 -0.3320
  341MOL0     H47047   2.461   6.236   2.749 -1.5335 -3.9983  0.7294
  341MOL0     H47048   2.315   6.383   2.875 -0.2402  1.1896  1.0007
  341MOL0     H47049   2.470   6.462   2.825  1.9488  0.0070  1.7825
  341MOL0     H47050   2.479   6.540   3.012 -0.0910 -0.0810 -1.5045
  341MOL0     H47051   2.361   6.434   3.093 -0.8242  4.4810 -2.5997
  341MOL0     H47052   2.654   6.337   3.080 -0.6648 -1.3602 -0.5792
  341MOL0     H47053   2.512   6.270   3.156 -0.0271 -0.7025  0.6675
  341MOL0     H47054   2.594   6.639   3.381 -0.6883  0.7040 -1.5022
  341MOL0     H47055   2.387   5.952   2.783  0.5865  1.2737 -0.8943
  341MOL0     H47056   2.463   5.639   2.788 -0.4645 -1.5919 -1.8719
  341MOL0     H47057   2.399   5.747   2.671 -0.2336  1.7873  1.7277
  341MOL0     H47058   2.567   5.697   2.655 -1.3468  1.3660 -1.8614
  342MOL0     O47059  10.212   1.046  11.154  0.7513 -0.6931 -0.1002
  342MOL0     C47060  10.144   0.943  11.166  1.2497  0.2771 -0.6778
  342MOL0     O47061  10.172   0.816  11.128  0.4584  0.0368  1.2255
  342MOL0     C47062  10.293   0.795  11.078 -0.7249 -0.3920 -0.4887
  342MOL0     C47063  10.355   0.671  11.115  0.3868  0.4244  0.6304
  342MOL0     C47064  10.474   0.634  11.047  0.2762 -0.1958 -0.7965
  342MOL0     C47065  10.530   0.718  10.956 -0.6982 -1.0916 -0.0865
  342MOL0     O47066  10.644   0.657  10.902  0.2313 -0.4110  0.2998
  342MOL0     C47067  10.722   0.728  10.814  0.2089  0.0343  0.1945
  342MOL0     C47068  10.856   0.664  10.821  0.4971 -0.1138 -0.4073
  342MOL0     C47069  10.974   0.723  10.743 -0.1559  0.1879  0.6618
  342MOL0     C47070  11.094   0.631  10.709  0.1813 -0.1048  1.0178
  342MOL0     C47071  11.204   0.696  10.627 -0.2031 -0.1967 -0.9514
  342MOL0     C47072  11.159   0.714  10.484 -0.5459 -0.0553 -0.3807
  342MOL0     C47073  11.140   0.584  10.410  0.0290 -0.3328  0.8084
  342MOL0     C47074  11.259   0.481  10.416 -0.1130  0.7047 -0.0396
  342MOL0     N47075  11.217   0.356  10.343 -0.9620 -0.2720  0.5251
  342MOL0     C47076  11.256   0.230  10.382  0.3940 -0.8761  0.7904
  342MOL0     C47077  11.201   0.152  10.287  0.1592 -0.0235  0.0709
  342MOL0     C47078  11.223  -0.005  10.272 -0.3504 -0.5242  0.4410
  342MOL0     C47079  11.083  -0.073  10.239 -0.0642 -0.3692 -0.3945
  342MOL0     C47080  11.022  -0.047  10.100  0.2371  0.5498  0.0936
  342MOL0     C47081  10.904  -0.142  10.091 -0.1875  0.2974  0.2545
  342MOL0     O47082  10.949  -0.282  10.105 -0.3768  0.1494  0.8391
  342MOL0     C47083  10.985  -0.343   9.985 -0.1362 -0.1670  0.2393
  342MOL0     C47084  11.018  -0.485   9.984  1.2909 -0.8942 -0.4268
  342MOL0     C47085  11.058  -0.561   9.872 -0.6308  0.3369  0.6077
  342MOL0     C47086  11.087  -0.717   9.881 -0.1323  0.4993 -0.5717
  342MOL0     C47087  11.060  -0.487   9.749 -0.4909 -0.0383 -0.5510
  342MOL0     C47088  11.093  -0.547   9.613 -0.2463  0.7176 -0.2441
  342MOL0     O47089  11.069  -0.467   9.510  0.5622 -0.8580  0.0469
  342MOL0     C47090  11.120  -0.497   9.384  0.8100 -0.0886 -0.5822
  342MOL0     C47091  11.257  -0.516   9.356 -0.4184  0.6004  0.0437
  342MOL0     C47092  11.289  -0.565   9.230  0.2844  0.5168 -0.1528
  342MOL0     C47093  11.193  -0.590   9.123  0.4360  0.2594 -0.8211
  342MOL0     O47094  11.235  -0.613   8.996  0.0113  0.4691 -0.1312
  342MOL0     C47095  11.324  -0.728   8.987  0.0701  0.0412  0.2084
  342MOL0     C47096  11.360  -0.750   8.835  0.0726  0.8983 -0.8108
  342MOL0     C47097  11.432  -0.628   8.776 -0.4659  1.5540  0.8596
  342MOL0     C47098  11.436  -0.642   8.621 -0.0780 -0.6289  0.2041
  342MOL0     C47099  11.492  -0.524   8.533  0.7991 -0.8055 -0.2173
  342MOL0     C47100  11.389  -0.400   8.530 -0.4143 -0.8113  0.4511
  342MOL0     C47101  11.415  -0.299   8.415  0.0591  0.3091  0.2375
  342MOL0     C47102  11.569  -0.249   8.413  0.8276  0.6355  0.1951
  342MOL0    Cl47103  11.564  -0.110   8.313  0.2122 -0.4342  0.0030
  342MOL0     C47104  11.061  -0.564   9.154 -0.0533 -0.1862 -0.8091
  342MOL0     C47105  11.027  -0.521   9.279  0.6687 -0.5529  0.4202
  342MOL0     O47106  11.145  -0.657   9.599  0.4785  0.3126 -0.2577
  342MOL0     C47107  11.027  -0.349   9.743  0.9114 -0.5107  0.2020
  342MOL0     C47108  10.995  -0.277   9.866  0.4143 -0.0556  0.6386
  342MOL0     N47109  11.138   0.233  10.186  0.9458 -0.3827 -0.2225
  342MOL0     N47110  11.154   0.354  10.222 -0.4025 -0.3609 -0.1741
  342MOL0     C47111  10.473   0.834  10.912  0.5582  0.3835  0.9514
  342MOL0     C47112  10.345   0.863  10.970 -0.5825  0.8698  0.0103
  342MOL0     C47113  10.026   0.949  11.247 -1.1528 -0.0970 -0.1412
  342MOL0     C47114  10.002   0.845  11.342  0.3147 -0.4895  0.4955
  342MOL0     C47115   9.898   0.855  11.430  0.3615  0.2309  0.9506
  342MOL0     C47116   9.801   0.947  11.410 -0.9237 -0.0830 -0.6078
  342MOL0     O47117   9.688   0.970  11.485 -0.4080 -1.1777 -0.8178
  342MOL0     C47118   9.645   0.883  11.593 -0.2004  1.1493 -1.1175
  342MOL0     C47119   9.595   0.739  11.543  0.4131  0.0243 -0.3826
  342MOL0     C47120   9.492   0.682  11.640 -0.5992 -0.1815 -0.4594
  342MOL0     C47121   9.351   0.692  11.575  0.6442  0.4770 -0.4396
  342MOL0     C47122   9.262   0.590  11.626 -0.0819 -0.5494  0.4233
  342MOL0     C47123   9.184   0.518  11.680  0.4211  0.2813 -0.4338
  342MOL0     C47124   9.824   1.049  11.322 -0.3568 -0.6013  0.2449
  342MOL0     C47125   9.931   1.056  11.240  1.5486 -0.4592  0.0164
  342MOL0     C47126   9.925   1.163  11.132 -0.0110  0.4473  1.0651
  342MOL0     H47127  10.316   0.622  11.204 -0.1579  0.2111  0.2765
  342MOL0     H47128  10.520   0.539  11.073  1.9532  0.8034  0.1178
  342MOL0     H47129  10.754   0.825  10.855  0.4338  0.3807 -0.7620
  342MOL0     H47130  10.676   0.738  10.715 -2.9848 -1.6347  1.3897
  342MOL0     H47131  10.873   0.638  10.926 -4.1793 -2.0993  0.1023
  342MOL0     H47132  10.854   0.561  10.786  4.9665 -0.0997 -1.2994
  342MOL0     H47133  10.925   0.758  10.652 -0.9779  0.9048  1.3593
  342MOL0     H47134  11.010   0.810  10.799 -0.0817  1.3598 -1.1324
  342MOL0     H47135  11.124   0.605  10.811  0.8581  0.5295  0.9810
  342MOL0     H47136  11.067   0.537  10.658 -2.1264  0.3562  1.2771
  342MOL0     H47137  11.296   0.636  10.630 -1.1772 -1.7467 -0.6439
  342MOL0     H47138  11.224   0.787  10.684 -4.1595 -0.5144  1.2906
  342MOL0     H47139  11.073   0.782  10.479  1.0751  1.9872 -2.0072
  342MOL0     H47140  11.231   0.775  10.430  0.0683  0.3579  0.8514
  342MOL0     H47141  11.130   0.605  10.304  1.4006 -0.2716  0.6723
  342MOL0     H47142  11.047   0.530  10.429 -0.2819 -1.1835 -2.4804
  342MOL0     H47143  11.342   0.515  10.353 -1.2750  0.0294 -2.0148
  342MOL0     H47144  11.297   0.470  10.518 -0.6222  1.3999  0.2332
  342MOL0     H47145  11.308   0.205  10.474  0.8631 -0.7526  0.5607
  342MOL0     H47146  11.273  -0.038  10.363  0.7878  1.2007  0.4992
  342MOL0     H47147  11.288  -0.024  10.185 -1.1786  2.0535 -0.8682
  342MOL0     H47148  11.089  -0.182  10.248  0.9977 -0.2643  0.2727
  342MOL0     H47149  11.016  -0.037  10.319 -0.8515  1.7448 -1.9240
  342MOL0     H47150  10.991   0.057  10.082 -0.2912  0.5802  1.1053
  342MOL0     H47151  11.097  -0.073  10.024 -1.8849 -1.5060 -1.4551
  342MOL0     H47152  10.826  -0.114  10.162 -0.7548 -0.9819  0.1610
  342MOL0     H47153  10.852  -0.113  10.000  1.0452  1.9442  0.0275
  342MOL0     H47154  11.023  -0.533  10.081  1.6106 -2.7134 -1.2984
  342MOL0     H47155  11.180  -0.749   9.834  2.5886  0.1608  4.3711
  342MOL0     H47156  11.010  -0.779   9.833  0.5278 -0.7023 -0.1383
  342MOL0     H47157  11.093  -0.757   9.982  2.5566 -0.5139 -1.0422
  342MOL0     H47158  11.326  -0.503   9.439  0.0061  3.0713 -0.6121
  342MOL0     H47159  11.395  -0.577   9.209  0.1783  0.9884 -1.0152
  342MOL0     H47160  11.414  -0.705   9.044 -1.4070  4.0368  1.2611
  342MOL0     H47161  11.267  -0.819   9.011  1.0019 -1.4760 -2.7246
  342MOL0     H47162  11.415  -0.843   8.819 -0.4019  0.1746  1.3721
  342MOL0     H47163  11.266  -0.766   8.782  1.1370 -1.4719 -2.0862
  342MOL0     H47164  11.530  -0.639   8.823  0.7711 -0.6381 -1.9393
  342MOL0     H47165  11.394  -0.530   8.806  2.3340  2.3714  2.1331
  342MOL0     H47166  11.339  -0.663   8.575  0.1800 -1.1155 -0.1175
  342MOL0     H47167  11.491  -0.735   8.606  0.2460 -0.1561 -1.8008
  342MOL0     H47168  11.591  -0.496   8.569  0.4829 -1.3211  1.1245
  342MOL0     H47169  11.488  -0.571   8.434 -3.5762 -0.2849 -0.5148
  342MOL0     H47170  11.387  -0.337   8.620  1.1064  3.6587 -2.3199
  342MOL0     H47171  11.287  -0.438   8.529 -0.0331 -1.8652 -0.1034
  342MOL0     H47172  11.350  -0.211   8.425  0.7410  0.9928 -1.1318
  342MOL0     H47173  11.393  -0.334   8.314  0.1896  1.8095 -0.3355
  342MOL0     H47174  11.645  -0.308   8.361  2.4581  0.6669  2.4092
  342MOL0     H47175  11.610  -0.237   8.514  1.5116 -1.7632  0.2649
  342MOL0     H47176  10.993  -0.580   9.071 -1.7434  2.5537 -0.0675
  342MOL0     H47177  10.921  -0.506   9.301  1.1399  0.4897  2.1398
  342MOL0     H47178  11.025  -0.290   9.652 -1.0783  0.5228  0.8561
  342MOL0     H47179  10.979  -0.171   9.850  3.9273  0.6178  0.8993
  342MOL0     H47180  10.499   0.892  10.825 -0.3494  0.4090  0.6856
  342MOL0     H47181  10.295   0.951  10.932  1.7807  1.3382 -2.3716
  342MOL0     H47182  10.064   0.756  11.357 -0.8997 -1.3898  0.3093
  342MOL0     H47183   9.879   0.777  11.503 -1.2422 -2.4613 -2.0640
  342MOL0     H47184   9.719   0.873  11.673 -2.8438  1.1642  1.5132
  342MOL0     H47185   9.554   0.924  11.639 -0.6905 -0.2127 -0.8307
  342MOL0     H47186   9.681   0.671  11.541  0.3747 -0.1156  1.2753
  342MOL0     H47187   9.558   0.748  11.440  2.2330  0.8649 -0.9951
  342MOL0     H47188   9.513   0.575  11.649 -2.0466 -0.5295 -0.9165
  342MOL0     H47189   9.494   0.731  11.738 -0.3583 -2.4851  0.7595
  342MOL0     H47190   9.373   0.668  11.471  1.5856 -0.8173  0.0305
  342MOL0     H47191   9.305   0.791  11.580 -1.1923 -0.2196 -2.4421
  342MOL0     H47192   9.126   0.442  11.727  1.2293  0.9294  1.7239
  342MOL0     H47193   9.754   1.132  11.319  2.8948  2.5228  2.3991
  342MOL0     H47194   9.974   1.116  11.046 -1.1465 -2.0423  1.6738
  342MOL0     H47195   9.819   1.176  11.106  0.0046 -0.7199  0.3205
  342MOL0     H47196   9.984   1.253  11.147  0.6698 -0.0742  1.5806
  343MOL0     O47197   1.602   3.790   2.085 -0.0835  0.5868  0.1590
  343MOL0     C47198   1.703   3.780   2.159  1.0371  0.7513  0.3695
  343MOL0     O47199   1.745   3.891   2.238  0.1605  0.6354 -0.2334
  343MOL0     C47200   1.722   4.012   2.192 -0.1067 -0.9865  0.6321
  343MOL0     C47201   1.657   4.101   2.275  0.4704  0.8878 -0.5090
  343MOL0     C47202   1.613   4.225   2.235  0.0239 -0.1791 -0.4828
  343MOL0     C47203   1.643   4.263   2.105 -0.8737 -0.1674 -0.5800
  343MOL0     O47204   1.600   4.389   2.059  0.6487  0.4455  0.2976
  343MOL0     C47205   1.486   4.381   1.984 -0.0683  0.1914 -0.3071
  343MOL0     C47206   1.364   4.438   2.056  0.3805 -0.1426 -0.0040
  343MOL0     C47207   1.382   4.560   2.124  0.4703  0.1517 -0.5985
  343MOL0     C47208   1.244   4.619   2.188 -0.5429 -0.6931 -0.7901
  343MOL0     C47209   1.303   4.713   2.293 -0.5409  0.8987  0.2969
  343MOL0     C47210   1.193   4.776   2.373  0.0060  0.4844  0.0403
  343MOL0     C47211   1.063   4.824   2.299  0.4008  0.5445  0.0211
  343MOL0     C47212   1.093   4.941   2.210 -1.0859  0.3450 -0.0949
  343MOL0     N47213   1.099   5.071   2.269  0.8683 -0.2182  0.1073
  343MOL0     C47214   0.999   5.173   2.263 -0.5110  0.2709 -0.7451
  343MOL0     C47215   1.062   5.272   2.319 -0.3797 -0.9190  0.0073
  343MOL0     C47216   1.002   5.407   2.326  0.5920  0.0927  0.8937
  343MOL0     C47217   0.918   5.461   2.207 -0.3532  0.3523 -0.2508
  343MOL0     C47218   0.823   5.586   2.237  0.2160 -0.3137 -0.3259
  343MOL0     C47219   0.734   5.621   2.132 -0.3728  0.4809  0.6210
  343MOL0     O47220   0.624   5.532   2.124  0.2281  0.7367 -0.7835
  343MOL0     C47221   0.517   5.578   2.054 -0.6344  0.5833  0.6937
  343MOL0     C47222   0.533   5.654   1.931  0.1420  1.0344 -0.2275
  343MOL0     C47223   0.418   5.690   1.852 -0.3376  0.3468 -0.7823
  343MOL0     C47224   0.456   5.776   1.728  0.0676 -0.5591 -0.1995
  343MOL0     C47225   0.292   5.658   1.894  0.1433  0.4300  0.2616
  343MOL0     C47226   0.169   5.715   1.837 -0.2044 -0.1544 -0.9669
  343MOL0     O47227   0.056   5.679   1.910 -0.0448  0.5794 -0.7118
  343MOL0     C47228  -0.048   5.753   1.882  0.4480  0.9838 -0.4698
  343MOL0     C47229  -0.061   5.881   1.940 -0.3143 -0.0945 -0.1776
  343MOL0     C47230  -0.185   5.936   1.933  0.7709 -0.2498 -0.4043
  343MOL0     C47231  -0.295   5.889   1.863 -0.2438  0.2409  0.7675
  343MOL0     O47232  -0.419   5.952   1.851  0.1743 -0.3323  0.0680
  343MOL0     C47233  -0.434   6.080   1.913  0.5387 -0.5758  0.6080
  343MOL0     C47234  -0.539   6.182   1.846 -0.3666 -0.1140  0.7240
  343MOL0     C47235  -0.560   6.301   1.945  0.2357 -0.8269 -0.1542
  343MOL0     C47236  -0.648   6.411   1.886 -0.3775  0.1201 -0.5951
  343MOL0     C47237  -0.663   6.529   1.981  0.2189  0.1310 -0.1086
  343MOL0     C47238  -0.538   6.614   1.982 -0.2459  0.6583  0.3952
  343MOL0     C47239  -0.561   6.751   2.048  0.4671  0.7591 -0.5542
  343MOL0     C47240  -0.431   6.832   2.053 -0.6447  0.1733 -0.1665
  343MOL0    Cl47241  -0.371   6.855   1.881 -0.2650 -0.1233 -0.3491
  343MOL0     C47242  -0.283   5.757   1.814 -0.0189  0.3547  0.5056
  343MOL0     C47243  -0.165   5.683   1.829 -0.2596  0.4626 -0.1314
  343MOL0     O47244   0.168   5.792   1.742 -0.5042  0.4834 -0.4197
  343MOL0     C47245   0.276   5.574   2.005  0.0236  0.0164 -0.2062
  343MOL0     C47246   0.388   5.535   2.082 -0.0923  0.1919  0.8608
  343MOL0     N47247   1.182   5.231   2.372  0.2620 -0.2575  0.8678
  343MOL0     N47248   1.203   5.111   2.346  0.8593 -0.7197  0.6396
  343MOL0     C47249   1.706   4.177   2.009  0.8147 -0.1040 -0.6789
  343MOL0     C47250   1.751   4.052   2.056  0.3198 -0.5938  0.8214
  343MOL0     C47251   1.759   3.644   2.181  0.0926 -0.6115 -0.0366
  343MOL0     C47252   1.818   3.623   2.312  0.1085 -0.4643  0.0798
  343MOL0     C47253   1.886   3.511   2.334  0.9226 -0.2536  0.1508
  343MOL0     C47254   1.884   3.406   2.243  0.1466 -0.2819  0.7635
  343MOL0     O47255   1.939   3.280   2.257  0.0989 -0.0584 -0.2448
  343MOL0     C47256   2.006   3.247   2.383 -0.5641 -0.7504 -0.0174
  343MOL0     C47257   2.126   3.154   2.362  0.3669  0.5216  0.6780
  343MOL0     C47258   2.150   3.064   2.489 -0.0573 -0.0953  0.3841
  343MOL0     C47259   2.272   2.975   2.473 -0.1801  0.3694  0.6882
  343MOL0     C47260   2.241   2.852   2.395 -0.0830  0.4408 -0.1904
  343MOL0     C47261   2.214   2.763   2.316 -0.4073 -0.7085  0.7346
  343MOL0     C47262   1.823   3.416   2.119  1.1440 -0.2874  0.6574
  343MOL0     C47263   1.775   3.542   2.076  0.2107 -0.2339 -0.3726
  343MOL0     C47264   1.701   3.557   1.939 -0.7535  0.2543 -0.4124
  343MOL0     H47265   1.636   4.080   2.380  0.6505  2.8225 -0.0507
  343MOL0     H47266   1.545   4.279   2.301 -0.9773 -0.4478 -1.2597
  343MOL0     H47267   1.456   4.280   1.955 -0.2368 -0.3743  1.6928
  343MOL0     H47268   1.506   4.444   1.897  0.7956  0.1685 -0.1298
  343MOL0     H47269   1.284   4.449   1.982  1.1941  1.0985 -0.7279
  343MOL0     H47270   1.336   4.362   2.129  2.1128  1.4464  2.4475
  343MOL0     H47271   1.453   4.541   2.205  0.5947 -0.2774 -0.8078
  343MOL0     H47272   1.432   4.634   2.062  2.5923 -0.6553  0.0701
  343MOL0     H47273   1.174   4.676   2.125 -1.1242 -0.7034 -0.1590
  343MOL0     H47274   1.187   4.536   2.230 -0.4225 -0.6161 -0.4754
  343MOL0     H47275   1.370   4.782   2.241  2.5348 -0.9710  1.4934
  343MOL0     H47276   1.366   4.666   2.369 -2.4896 -1.4033  0.6000
  343MOL0     H47277   1.164   4.689   2.434 -2.4689  0.0963 -1.5460
  343MOL0     H47278   1.232   4.858   2.434 -0.7249  1.5957 -0.9353
  343MOL0     H47279   0.994   4.860   2.375 -0.5835 -1.5221  0.1722
  343MOL0     H47280   1.009   4.748   2.242 -0.0298 -0.7882  2.1013
  343MOL0     H47281   1.188   4.921   2.159  0.0139 -1.4005  2.4376
  343MOL0     H47282   1.024   4.941   2.125 -2.9147 -0.3465  1.3196
  343MOL0     H47283   0.904   5.182   2.213  0.0273  1.6446 -1.5596
  343MOL0     H47284   1.084   5.472   2.357  1.7564 -0.3543 -1.1048
  343MOL0     H47285   0.927   5.405   2.407 -4.5231  0.3431 -3.3045
  343MOL0     H47286   0.992   5.480   2.129 -0.4753 -2.2773 -1.1078
  343MOL0     H47287   0.850   5.387   2.163  0.5296 -0.0755 -0.9386
  343MOL0     H47288   0.759   5.561   2.322  2.3006 -1.8812  0.9004
  343MOL0     H47289   0.883   5.674   2.262 -2.3788  1.0216  1.5644
  343MOL0     H47290   0.709   5.727   2.133 -1.6778  0.2191 -0.5674
  343MOL0     H47291   0.784   5.603   2.037  0.3591  0.7974  0.9416
  343MOL0     H47292   0.637   5.673   1.904  1.5578 -3.2274  1.3373
  343MOL0     H47293   0.380   5.774   1.650 -0.9134  1.1428  0.6394
  343MOL0     H47294   0.554   5.753   1.686  0.3518  1.3842 -0.7273
  343MOL0     H47295   0.457   5.880   1.764 -0.9887 -1.5415  3.0047
  343MOL0     H47296   0.023   5.928   1.990  0.8085  0.1524 -2.1772
  343MOL0     H47297  -0.185   6.039   1.966  0.2122 -0.8274  1.5394
  343MOL0     H47298  -0.468   6.068   2.016 -3.5207 -0.2735 -0.5265
  343MOL0     H47299  -0.345   6.143   1.927 -1.3244  2.0997  1.1592
  343MOL0     H47300  -0.482   6.212   1.758 -1.7748 -0.7255 -0.4360
  343MOL0     H47301  -0.640   6.145   1.822  0.0376 -0.8291  0.1058
  343MOL0     H47302  -0.459   6.330   1.975 -0.8804  2.7783  0.5621
  343MOL0     H47303  -0.602   6.255   2.035  2.4857 -4.7619 -0.8813
  343MOL0     H47304  -0.749   6.373   1.865 -0.4677  1.2890 -2.5231
  343MOL0     H47305  -0.606   6.452   1.793 -2.0620  0.9157 -1.0600
  343MOL0     H47306  -0.744   6.588   1.938 -0.2562  0.4321  1.1524
  343MOL0     H47307  -0.689   6.503   2.084  1.4072 -2.6726 -0.4329
  343MOL0     H47308  -0.520   6.625   1.874 -1.8968 -1.2458 -0.1373
  343MOL0     H47309  -0.448   6.560   2.015  0.5043  1.4536 -0.2795
  343MOL0     H47310  -0.587   6.731   2.153 -2.2499 -1.1552 -1.4704
  343MOL0     H47311  -0.637   6.816   2.005 -0.4380  2.4331  3.1255
  343MOL0     H47312  -0.359   6.803   2.131 -3.2613  3.5075  3.9719
  343MOL0     H47313  -0.452   6.933   2.090  0.8423  0.6852 -0.6360
  343MOL0     H47314  -0.370   5.721   1.761 -0.2746  1.1781  0.3512
  343MOL0     H47315  -0.157   5.581   1.792 -2.2704 -0.3687  1.5149
  343MOL0     H47316   0.180   5.527   2.023  0.4644 -1.0808 -0.6199
  343MOL0     H47317   0.383   5.472   2.171  0.9036  0.3361  1.0285
  343MOL0     H47318   1.710   4.223   1.911  2.3872  4.3651  1.1878
  343MOL0     H47319   1.800   3.992   1.981 -0.6003 -1.3983  0.8385
  343MOL0     H47320   1.824   3.702   2.386  4.6011 -0.8143  0.3639
  343MOL0     H47321   1.918   3.507   2.438 -2.5008  2.9967  1.5863
  343MOL0     H47322   2.053   3.332   2.433 -0.7165 -1.2724  1.0278
  343MOL0     H47323   1.947   3.211   2.467  0.5882  0.3771  1.3221
  343MOL0     H47324   2.210   3.219   2.334 -0.1238  0.3506 -1.3396
  343MOL0     H47325   2.094   3.084   2.285 -1.9639 -0.1512  2.1464
  343MOL0     H47326   2.173   3.121   2.579 -1.9371  1.9153 -0.3058
  343MOL0     H47327   2.055   3.016   2.512 -1.2514  2.1539  0.4527
  343MOL0     H47328   2.316   2.948   2.570  0.2633 -2.1762 -0.1191
  343MOL0     H47329   2.355   3.025   2.422  0.1933 -1.5677 -0.7531
  343MOL0     H47330   2.202   2.679   2.250  0.3737  0.9572 -1.6837
  343MOL0     H47331   1.820   3.328   2.057  1.1814  1.1042 -1.4003
  343MOL0     H47332   1.704   3.660   1.901  0.0832  0.3147 -0.2062
  343MOL0     H47333   1.751   3.496   1.863 -0.8118  3.3576 -3.1947
  343MOL0     H47334   1.605   3.505   1.945  0.0400 -1.3968 -1.1813
  344MOL0     O47335   2.481   6.739   7.304  0.0773 -0.0954  0.5185
  344MOL0     C47336   2.481   6.854   7.338 -0.4739 -0.0496  0.0853
  344MOL0     O47337   2.588   6.923   7.388  0.1449 -0.2317  0.0229
  344MOL0     C47338   2.721   6.885   7.360  0.2996  0.1372 -0.6206
  344MOL0     C47339   2.794   6.820   7.458  0.5811 -0.4157 -0.5980
  344MOL0     C47340   2.923   6.777   7.434 -0.0203 -0.5593 -0.2471
  344MOL0     C47341   2.983   6.814   7.309  0.4465 -0.2963 -0.4534
  344MOL0     O47342   3.116   6.785   7.276 -0.6283  1.0882 -0.4043
  344MOL0     C47343   3.210   6.766   7.387  0.7092 -0.2750  0.0562
  344MOL0     C47344   3.350   6.747   7.324  0.9556 -0.2473 -0.7544
  344MOL0     C47345   3.380   6.844   7.206  0.4107  0.0589 -0.2285
  344MOL0     C47346   3.395   6.993   7.246  1.5015  0.3382 -0.3576
  344MOL0     C47347   3.432   7.065   7.121 -0.2262  0.4882  0.1866
  344MOL0     C47348   3.464   7.207   7.163  0.0406  0.0546  1.0343
  344MOL0     C47349   3.345   7.299   7.146 -0.0920  0.7731  0.7459
  344MOL0     C47350   3.383   7.444   7.176  0.0659  0.2296  1.1458
  344MOL0     N47351   3.288   7.534   7.102  0.0538 -0.5566  0.5253
  344MOL0     C47352   3.165   7.577   7.137 -0.3796 -0.1239  0.1766
  344MOL0     C47353   3.144   7.678   7.047  0.2880  0.2739 -0.3645
  344MOL0     C47354   3.036   7.777   7.037 -0.1131  0.4044 -0.6530
  344MOL0     C47355   2.946   7.749   6.922  0.3630 -0.0489 -0.7431
  344MOL0     C47356   2.856   7.628   6.935 -0.1626  0.0856  0.1449
  344MOL0     C47357   2.767   7.610   6.802 -0.0510  0.6085 -0.7329
  344MOL0     O47358   2.843   7.594   6.689 -1.1424 -0.2193 -0.3507
  344MOL0     C47359   2.781   7.570   6.567 -0.1667  0.0911 -0.2089
  344MOL0     C47360   2.645   7.572   6.557  0.0067  1.1738 -0.4256
  344MOL0     C47361   2.577   7.539   6.434 -0.4305  0.2468 -0.3747
  344MOL0     C47362   2.424   7.530   6.442  0.0635 -0.2648 -0.1117
  344MOL0     C47363   2.651   7.519   6.314 -0.5327  0.5114  0.5373
  344MOL0     C47364   2.597   7.472   6.185  0.0338 -0.1503  0.4759
  344MOL0     O47365   2.692   7.465   6.080 -0.6353  0.6446 -0.5745
  344MOL0     C47366   2.674   7.413   5.954  0.2183  0.2631  0.1259
  344MOL0     C47367   2.746   7.473   5.855 -0.3268  0.0090 -0.3513
  344MOL0     C47368   2.743   7.421   5.725 -0.5053 -0.6541  0.7376
  344MOL0     C47369   2.660   7.310   5.683 -0.4849 -1.0813 -0.0256
  344MOL0     O47370   2.656   7.245   5.559  0.3325 -0.1046 -0.0425
  344MOL0     C47371   2.754   7.290   5.476 -1.2676  0.6026  0.0982
  344MOL0     C47372   2.778   7.201   5.356 -0.7048 -0.3445 -0.8334
  344MOL0     C47373   2.922   7.236   5.310 -0.0271  0.0014  0.8068
  344MOL0     C47374   3.037   7.184   5.393  0.3846  0.2303 -0.1234
  344MOL0     C47375   3.128   7.291   5.450 -0.8464 -0.1531 -0.9547
  344MOL0     C47376   3.235   7.251   5.557 -0.0612  0.9891  0.1972
  344MOL0     C47377   3.342   7.157   5.503 -0.1776  0.5260  0.3089
  344MOL0     C47378   3.473   7.156   5.575 -0.2819 -0.6653 -1.3740
  344MOL0    Cl47379   3.469   7.081   5.736 -0.0646 -0.2853  0.1488
  344MOL0     C47380   2.587   7.256   5.794 -0.7442  0.2441 -0.1051
  344MOL0     C47381   2.597   7.301   5.926 -0.2597 -0.3787 -0.3713
  344MOL0     O47382   2.485   7.416   6.169  0.1843 -0.5215  0.6700
  344MOL0     C47383   2.791   7.533   6.325 -0.1151 -0.4425  0.1634
  344MOL0     C47384   2.854   7.556   6.447 -0.7566 -0.1861 -0.2096
  344MOL0     N47385   3.262   7.694   6.967  0.6960 -0.3945 -0.1735
  344MOL0     N47386   3.340   7.603   6.998 -0.3187  0.7911 -0.1719
  344MOL0     C47387   2.905   6.874   7.215  0.3028 -0.1769  0.0699
  344MOL0     C47388   2.768   6.899   7.238 -1.0363 -0.1907  0.3279
  344MOL0     C47389   2.344   6.916   7.362  0.3883  0.1552 -0.6967
  344MOL0     C47390   2.233   6.834   7.348  1.2443  0.2957 -0.5372
  344MOL0     C47391   2.106   6.891   7.377  0.0412 -0.5628  0.0563
  344MOL0     C47392   2.084   7.022   7.413  0.0533  0.1451  0.5687
  344MOL0     O47393   1.960   7.084   7.412 -0.5378  0.4290  0.2290
  344MOL0     C47394   1.872   7.080   7.299 -0.6959  0.6935  0.3658
  344MOL0     C47395   1.745   7.170   7.320  0.1235 -0.8468 -0.3892
  344MOL0     C47396   1.798   7.305   7.376  0.7221 -0.4800 -0.2955
  344MOL0     C47397   1.688   7.404   7.416 -0.0535 -0.3824 -0.2188
  344MOL0     C47398   1.637   7.471   7.296 -0.4731  0.4463 -0.2633
  344MOL0     C47399   1.585   7.505   7.191 -0.1940 -0.6765  0.4724
  344MOL0     C47400   2.190   7.105   7.423  0.9307  0.1837 -0.0749
  344MOL0     C47401   2.315   7.055   7.400 -0.8977  0.4485  0.0449
  344MOL0     C47402   2.424   7.151   7.420  0.1680 -0.0669 -0.2394
  344MOL0     H47403   2.758   6.798   7.558  1.4487 -1.8610 -0.5804
  344MOL0     H47404   2.986   6.734   7.511 -0.1491  1.6734  1.1626
  344MOL0     H47405   3.199   6.677   7.449 -0.3862 -1.2612 -1.4707
  344MOL0     H47406   3.212   6.858   7.445  5.8416  0.1314 -0.2787
  344MOL0     H47407   3.426   6.758   7.402  1.5279 -4.1277 -0.5680
  344MOL0     H47408   3.375   6.646   7.291  5.5594 -0.7034  3.0543
  344MOL0     H47409   3.479   6.814   7.170  1.6467 -3.0559  4.7540
  344MOL0     H47410   3.306   6.825   7.128  0.3211 -2.2151  0.3495
  344MOL0     H47411   3.292   7.024   7.261  0.9415 -0.6243 -2.0446
  344MOL0     H47412   3.458   7.008   7.335 -0.0526  0.5901  0.7490
  344MOL0     H47413   3.360   7.054   7.040  0.2885  1.1262 -0.3675
  344MOL0     H47414   3.530   7.027   7.090  0.7962 -0.2788  3.8278
  344MOL0     H47415   3.482   7.208   7.271 -0.9855 -3.6039  1.3542
  344MOL0     H47416   3.548   7.249   7.106 -0.1754  1.1762  1.4973
  344MOL0     H47417   3.262   7.270   7.210 -0.3864  2.2668  1.0631
  344MOL0     H47418   3.327   7.288   7.038  1.0475  4.2594  0.0875
  344MOL0     H47419   3.376   7.462   7.284 -1.8153  2.4783  0.7238
  344MOL0     H47420   3.481   7.467   7.133  0.7387 -0.0571  2.4869
  344MOL0     H47421   3.105   7.543   7.221 -1.1583 -2.0093 -1.0812
  344MOL0     H47422   3.087   7.873   7.024  0.1530  0.4938  0.8862
  344MOL0     H47423   2.979   7.767   7.129 -1.8504  0.6777 -1.6586
  344MOL0     H47424   2.886   7.840   6.908  2.6797  1.3564 -2.1475
  344MOL0     H47425   3.010   7.733   6.834  1.1471 -1.9193  0.1101
  344MOL0     H47426   2.918   7.538   6.942  3.8392  2.5011 -0.6576
  344MOL0     H47427   2.790   7.629   7.022  2.3816  2.3400  2.2507
  344MOL0     H47428   2.710   7.517   6.807  2.8078 -1.3558 -1.9052
  344MOL0     H47429   2.692   7.688   6.789 -0.1437  0.2545 -2.5217
  344MOL0     H47430   2.580   7.587   6.642  0.2060  0.6372 -0.1746
  344MOL0     H47431   2.373   7.549   6.347 -1.1788 -2.8296 -0.0408
  344MOL0     H47432   2.398   7.611   6.511  2.7296  1.9053 -1.4417
  344MOL0     H47433   2.414   7.429   6.484  1.5623 -0.3174  0.2022
  344MOL0     H47434   2.825   7.543   5.880  2.4424 -3.4108  1.4730
  344MOL0     H47435   2.801   7.475   5.651 -1.6859  1.3754  1.2017
  344MOL0     H47436   2.734   7.393   5.448 -2.7190  0.6461  1.1583
  344MOL0     H47437   2.846   7.279   5.535 -1.8493 -2.9969  0.6119
  344MOL0     H47438   2.767   7.099   5.394  0.2689 -0.4223 -0.7306
  344MOL0     H47439   2.702   7.207   5.278  0.7838  0.4972 -2.2682
  344MOL0     H47440   2.918   7.344   5.296 -1.6589  0.1225  1.9244
  344MOL0     H47441   2.934   7.194   5.209 -0.8433 -0.0217  0.7130
  344MOL0     H47442   3.101   7.126   5.326  0.9114  1.0952 -0.3753
  344MOL0     H47443   2.995   7.123   5.474  0.6413  1.0512  0.6438
  344MOL0     H47444   3.193   7.334   5.373 -1.6113  1.0972 -0.9197
  344MOL0     H47445   3.060   7.372   5.478  1.8893  2.3522 -0.9631
  344MOL0     H47446   3.194   7.191   5.639 -1.8074 -0.0726 -1.3583
  344MOL0     H47447   3.278   7.342   5.599 -3.4756  1.9718  1.9082
  344MOL0     H47448   3.364   7.194   5.403  0.8277 -1.3639 -0.2244
  344MOL0     H47449   3.315   7.052   5.487 -0.4000  0.7227 -0.6758
  344MOL0     H47450   3.513   7.258   5.583  0.0212 -0.9492  2.9780
  344MOL0     H47451   3.546   7.108   5.510  1.2354 -0.2872 -0.0308
  344MOL0     H47452   2.513   7.179   5.777 -0.7684  0.3525 -0.4897
  344MOL0     H47453   2.564   7.252   6.018  3.9267 -0.2655  1.4247
  344MOL0     H47454   2.866   7.532   6.246  3.9024  4.0638  3.3049
  344MOL0     H47455   2.962   7.551   6.453 -0.6049  2.3925  0.4819
  344MOL0     H47456   2.955   6.900   7.123  1.0859 -0.1708  0.4858
  344MOL0     H47457   2.710   6.936   7.154 -0.3676 -2.8675 -1.4367
  344MOL0     H47458   2.239   6.734   7.307  0.5386  0.3511 -0.8012
  344MOL0     H47459   2.016   6.829   7.374  0.3321 -0.9843 -0.0194
  344MOL0     H47460   1.937   7.108   7.216  1.9232  1.2059  2.4527
  344MOL0     H47461   1.836   6.979   7.281  2.2367 -0.1580 -1.2615
  344MOL0     H47462   1.670   7.124   7.385 -2.3652  1.2859 -1.6165
  344MOL0     H47463   1.696   7.185   7.224  0.1931  0.6744 -0.2082
  344MOL0     H47464   1.837   7.283   7.476 -1.9400  0.0827  0.9710
  344MOL0     H47465   1.867   7.344   7.301 -1.9904  1.1028 -2.1464
  344MOL0     H47466   1.717   7.476   7.493  0.5165 -2.2261  1.3721
  344MOL0     H47467   1.607   7.343   7.456 -0.2802 -1.3736 -2.0846
  344MOL0     H47468   1.542   7.508   7.093  2.0850 -0.5380 -0.5856
  344MOL0     H47469   2.172   7.211   7.438 -1.0075 -0.0932 -0.1620
  344MOL0     H47470   2.395   7.251   7.451 -0.5921 -0.7231  1.2615
  344MOL0     H47471   2.483   7.102   7.498 -1.2282  1.7682  2.0871
  344MOL0     H47472   2.483   7.141   7.329 -1.2943 -3.5897 -0.9885
  345MOL0     O47473   2.769   4.754   5.660 -0.9100 -0.3925  0.0163
  345MOL0     C47474   2.817   4.869   5.647  0.1852 -0.1839  0.5277
  345MOL0     O47475   2.820   4.972   5.737  0.1075 -0.5601 -0.6251
  345MOL0     C47476   2.756   4.963   5.862 -0.5852 -0.5791 -1.5044
  345MOL0     C47477   2.720   4.842   5.931  0.0605  0.3181  0.7216
  345MOL0     C47478   2.690   4.853   6.069 -0.0495  0.3182 -0.4580
  345MOL0     C47479   2.703   4.972   6.147 -0.5149 -1.3851 -0.9131
  345MOL0     O47480   2.682   4.988   6.280 -0.1116  0.6101 -0.3800
  345MOL0     C47481   2.605   4.886   6.351  0.1525 -1.2330  0.1328
  345MOL0     C47482   2.583   4.939   6.493 -0.5505  0.1589 -0.7366
  345MOL0     C47483   2.718   4.946   6.570  0.4160 -0.1477 -0.0678
  345MOL0     C47484   2.712   5.004   6.711  0.1245  1.0628 -0.3118
  345MOL0     C47485   2.848   4.996   6.783 -0.0052  0.2534 -0.2031
  345MOL0     C47486   2.928   5.126   6.774 -1.0117  0.4715  0.0101
  345MOL0     C47487   3.022   5.147   6.895 -0.3919 -0.1004 -0.0876
  345MOL0     C47488   3.113   5.268   6.879 -0.4146  0.5083  0.7619
  345MOL0     N47489   3.206   5.269   6.997  0.2607 -0.7427 -0.1394
  345MOL0     C47490   3.178   5.261   7.131 -0.7265  0.3095  0.4563
  345MOL0     C47491   3.306   5.262   7.185 -0.5347  0.1663 -0.1548
  345MOL0     C47492   3.347   5.236   7.333 -0.1445  0.2153  0.3905
  345MOL0     C47493   3.288   5.097   7.376 -0.0013 -0.2342 -0.5948
  345MOL0     C47494   3.209   5.093   7.505  1.0242 -0.1563  0.9347
  345MOL0     C47495   3.077   5.172   7.491 -0.4455 -0.5439 -0.3101
  345MOL0     O47496   3.094   5.296   7.551  0.6705  0.4133  0.0683
  345MOL0     C47497   2.983   5.366   7.602 -0.2778  0.6067 -0.0365
  345MOL0     C47498   2.847   5.331   7.599 -1.3580  0.4755 -0.4335
  345MOL0     C47499   2.749   5.408   7.661 -1.1321 -0.1349 -0.4881
  345MOL0     C47500   2.610   5.358   7.641 -0.0691 -0.2890 -0.2881
  345MOL0     C47501   2.783   5.518   7.729  0.3716 -1.0446  0.3594
  345MOL0     C47502   2.677   5.615   7.776  1.1189  0.7527  0.4699
  345MOL0     O47503   2.708   5.686   7.888  0.3267 -0.3620  1.1304
  345MOL0     C47504   2.618   5.774   7.935  0.8192  1.0228  0.1661
  345MOL0     C47505   2.569   5.879   7.866 -0.2595 -0.2839 -0.4601
  345MOL0     C47506   2.491   5.979   7.928 -0.2990  0.1651 -0.2683
  345MOL0     C47507   2.460   5.972   8.062  0.2210  0.6451 -0.6514
  345MOL0     O47508   2.409   6.086   8.114  0.5092  0.4768  0.7358
  345MOL0     C47509   2.378   6.083   8.253 -0.5511 -0.5592 -1.3490
  345MOL0     C47510   2.285   6.192   8.268  0.0337 -0.3998  0.4642
  345MOL0     C47511   2.163   6.171   8.173  0.4504  0.2328  1.0005
  345MOL0     C47512   2.096   6.029   8.161  0.3997 -0.0303  0.3245
  345MOL0     C47513   2.054   5.960   8.299 -0.3138 -1.0087  0.8509
  345MOL0     C47514   1.958   5.847   8.259 -0.4697  0.6805 -0.5622
  345MOL0     C47515   1.890   5.795   8.385  0.4517  0.2774  0.2865
  345MOL0     C47516   1.973   5.734   8.494 -0.1037  0.2741  0.3857
  345MOL0    Cl47517   1.876   5.647   8.608  0.4027  0.3159 -0.1035
  345MOL0     C47518   2.503   5.859   8.133  1.0287  0.4301  0.5953
  345MOL0     C47519   2.575   5.755   8.069 -1.1229 -0.0899  0.1963
  345MOL0     O47520   2.568   5.617   7.720  0.0160  0.0564  0.0412
  345MOL0     C47521   2.911   5.554   7.741  0.6712  0.2289 -0.0354
  345MOL0     C47522   3.013   5.479   7.681  0.0622  0.3732 -0.3166
  345MOL0     N47523   3.402   5.283   7.090  0.4031 -0.6803  0.1050
  345MOL0     N47524   3.341   5.285   6.977  0.6798 -0.2822  0.5986
  345MOL0     C47525   2.728   5.088   6.077 -0.6864 -0.1961  0.2719
  345MOL0     C47526   2.750   5.084   5.936  0.0441  0.5638 -0.1484
  345MOL0     C47527   2.912   4.893   5.534  0.3424 -0.4667  0.5025
  345MOL0     C47528   3.029   4.974   5.557 -0.1160 -0.9782  0.0472
  345MOL0     C47529   3.119   4.985   5.449 -0.2923 -0.3147  0.2478
  345MOL0     C47530   3.104   4.918   5.328  0.1059 -0.3462 -0.0150
  345MOL0     O47531   3.197   4.914   5.233 -0.0786 -0.6100  0.1756
  345MOL0     C47532   3.282   5.025   5.219 -0.3104 -1.0116  0.0466
  345MOL0     C47533   3.338   5.023   5.080 -0.2162  0.6353  0.0985
  345MOL0     C47534   3.404   5.157   5.036 -0.3125 -0.0379  0.5132
  345MOL0     C47535   3.294   5.247   4.985  0.3088  0.3787  1.1000
  345MOL0     C47536   3.371   5.332   4.892 -0.0269  0.3385  0.2866
  345MOL0     C47537   3.445   5.398   4.827 -0.3776  0.5718 -0.5813
  345MOL0     C47538   2.993   4.841   5.310 -0.5563 -0.0075 -0.0666
  345MOL0     C47539   2.899   4.826   5.410  1.4735 -0.0695  0.4092
  345MOL0     C47540   2.776   4.745   5.368  1.4093  0.5114 -0.6363
  345MOL0     H47541   2.729   4.753   5.869 -1.5471  1.0192 -0.6181
  345MOL0     H47542   2.657   4.762   6.119 -0.4035 -0.4613 -2.0340
  345MOL0     H47543   2.666   4.796   6.353  0.2088 -1.3508 -2.7460
  345MOL0     H47544   2.508   4.864   6.305  1.7715 -2.7134 -2.8986
  345MOL0     H47545   2.545   5.042   6.488  1.2073  0.8254 -1.3029
  345MOL0     H47546   2.517   4.870   6.546 -0.2058 -2.4074 -3.3900
  345MOL0     H47547   2.751   4.843   6.589 -0.6798  0.0552  3.8012
  345MOL0     H47548   2.794   4.994   6.508 -1.3461 -0.1161 -2.3316
  345MOL0     H47549   2.675   5.106   6.709  1.7669  1.7320  0.9180
  345MOL0     H47550   2.640   4.956   6.778  1.6854  0.7345  1.2326
  345MOL0     H47551   2.917   4.925   6.738 -0.6879 -0.7988  0.3650
  345MOL0     H47552   2.826   4.965   6.886 -0.1431 -1.2688 -0.6727
  345MOL0     H47553   2.977   5.130   6.677 -1.5129  1.3520 -0.2190
  345MOL0     H47554   2.873   5.221   6.768 -0.9399  0.5333  0.2812
  345MOL0     H47555   3.100   5.071   6.906 -0.0756  0.4475  1.6681
  345MOL0     H47556   2.956   5.153   6.981 -2.1670  0.1553 -1.4045
  345MOL0     H47557   3.163   5.263   6.782 -1.2283 -0.8794  0.3785
  345MOL0     H47558   3.062   5.363   6.864  1.6255  1.3199 -1.7879
  345MOL0     H47559   3.090   5.252   7.194  1.0813 -2.4222  2.8246
  345MOL0     H47560   3.321   5.323   7.394 -2.8019  1.6005 -2.4460
  345MOL0     H47561   3.456   5.234   7.344 -0.3807 -1.7440  3.6021
  345MOL0     H47562   3.222   5.039   7.312 -3.4999 -2.6469  4.5188
  345MOL0     H47563   3.367   5.023   7.397  0.3327 -0.1774 -1.6024
  345MOL0     H47564   3.190   4.986   7.520 -0.0747  0.3319  3.5651
  345MOL0     H47565   3.266   5.128   7.591  1.4184 -0.2392  0.7100
  345MOL0     H47566   3.031   5.177   7.392 -1.0335 -2.6855 -0.1840
  345MOL0     H47567   3.006   5.122   7.557  0.1562 -2.0099 -0.7496
  345MOL0     H47568   2.823   5.240   7.545  5.2705  0.9187 -5.4051
  345MOL0     H47569   2.611   5.250   7.626  1.8324 -0.3641  0.1407
  345MOL0     H47570   2.572   5.408   7.551  2.2395  1.1127 -0.5930
  345MOL0     H47571   2.541   5.378   7.723  0.0047  2.2833 -0.7418
  345MOL0     H47572   2.600   5.891   7.762 -1.7459 -1.3747 -1.0695
  345MOL0     H47573   2.469   6.064   7.864  3.4698  0.9824 -0.7748
  345MOL0     H47574   2.326   5.989   8.274  0.4872 -0.5713  1.5296
  345MOL0     H47575   2.464   6.087   8.320 -1.2883 -1.8269 -0.2891
  345MOL0     H47576   2.238   6.182   8.366  1.7954 -0.1517  1.3690
  345MOL0     H47577   2.327   6.293   8.263 -1.0505  0.0075 -1.3260
  345MOL0     H47578   2.184   6.205   8.072  1.0788  0.7512  1.3017
  345MOL0     H47579   2.081   6.232   8.210 -0.9052  0.0170 -1.4809
  345MOL0     H47580   2.145   5.959   8.092  0.6609  0.3186  0.1500
  345MOL0     H47581   2.006   6.045   8.101  0.4879  1.9472  0.6418
  345MOL0     H47582   2.140   5.921   8.354 -1.2919 -2.1618  1.5896
  345MOL0     H47583   2.005   6.041   8.354  0.3163 -0.4429  0.5999
  345MOL0     H47584   2.009   5.772   8.197  1.8269  0.4259  1.4916
  345MOL0     H47585   1.873   5.875   8.195  0.6116  4.7210 -0.4939
  345MOL0     H47586   1.828   5.718   8.339  1.3691 -0.0314 -0.4780
  345MOL0     H47587   1.829   5.870   8.436 -0.1507  2.0474 -2.7366
  345MOL0     H47588   2.040   5.809   8.537  1.6143 -1.1001  0.1908
  345MOL0     H47589   2.037   5.662   8.442 -1.7775  0.0525 -1.4864
  345MOL0     H47590   2.500   5.845   8.241  3.5107 -0.8492  0.5873
  345MOL0     H47591   2.612   5.684   8.142 -0.6471  0.0132  0.0573
  345MOL0     H47592   2.942   5.653   7.774  0.6584  0.2528 -0.0954
  345MOL0     H47593   3.114   5.520   7.681  1.4872 -2.8061  0.7464
  345MOL0     H47594   2.728   5.186   6.123  1.6134  0.9811 -1.9954
  345MOL0     H47595   2.770   5.167   5.869  2.4618 -0.0475 -0.2565
  345MOL0     H47596   3.061   5.018   5.651 -0.2956  0.4568 -0.5298
  345MOL0     H47597   3.212   5.038   5.465 -0.7727  1.0943 -1.3504
  345MOL0     H47598   3.239   5.125   5.231 -0.1767 -1.0776  1.1728
  345MOL0     H47599   3.364   5.011   5.290 -0.6488 -0.5539  0.5337
  345MOL0     H47600   3.257   4.995   5.013 -0.7938 -2.4487  1.8759
  345MOL0     H47601   3.415   4.945   5.081  0.5336  1.3504  1.0743
  345MOL0     H47602   3.468   5.201   5.114  1.8416 -0.4756 -0.9098
  345MOL0     H47603   3.467   5.136   4.949 -0.3945  2.0481 -0.0966
  345MOL0     H47604   3.245   5.300   5.068  0.5790 -0.9688  2.1576
  345MOL0     H47605   3.218   5.199   4.924 -0.0237  0.8191  1.1673
  345MOL0     H47606   3.510   5.450   4.760  0.7475 -1.4673 -1.1632
  345MOL0     H47607   2.990   4.782   5.218 -2.1186  0.0776 -0.1069
  345MOL0     H47608   2.795   4.641   5.397  0.4834  1.2429  3.0492
  345MOL0     H47609   2.681   4.770   5.416  1.5685 -2.7975  1.6965
  345MOL0     H47610   2.767   4.759   5.259  1.1574 -0.3293 -0.7354
  346MOL0     O47611   4.934   5.614   6.885  0.7420  0.5352 -0.7943
  346MOL0     C47612   5.022   5.659   6.953  0.0523 -0.1428 -0.0319
  346MOL0     O47613   5.019   5.674   7.085 -0.5442  0.3695 -0.0121
  346MOL0     C47614   4.900   5.678   7.149 -0.2362 -1.0170 -0.8092
  346MOL0     C47615   4.789   5.767   7.122 -0.1578  0.4742  0.6259
  346MOL0     C47616   4.668   5.758   7.197  0.2553  0.0814 -0.7083
  346MOL0     C47617   4.644   5.647   7.282  0.0845 -1.0445 -0.2506
  346MOL0     O47618   4.536   5.634   7.361  0.1519 -0.8508 -1.0509
  346MOL0     C47619   4.418   5.657   7.297 -0.5063  0.7221  0.1313
  346MOL0     C47620   4.287   5.617   7.376  0.3299 -0.1554 -0.9426
  346MOL0     C47621   4.270   5.463   7.410  0.3670  0.2625  0.0299
  346MOL0     C47622   4.215   5.390   7.290  0.4792 -0.0613  0.6594
  346MOL0     C47623   4.235   5.238   7.287  0.2639 -0.1870  0.7870
  346MOL0     C47624   4.208   5.154   7.412 -0.3601 -0.3236  0.4690
  346MOL0     C47625   4.215   5.007   7.378  0.3395 -0.0728 -0.0267
  346MOL0     C47626   4.213   4.908   7.501 -0.1409 -1.5860 -0.7026
  346MOL0     N47627   4.196   4.764   7.472  0.3790 -0.5502  0.5026
  346MOL0     C47628   4.117   4.710   7.371 -0.6292  0.9674 -0.9104
  346MOL0     C47629   4.141   4.574   7.378  0.6376 -0.8319 -0.3503
  346MOL0     C47630   4.080   4.471   7.290  0.1242 -0.6997  0.1439
  346MOL0     C47631   3.995   4.366   7.365 -0.9730  0.4335 -0.1471
  346MOL0     C47632   4.075   4.247   7.408 -0.0487  0.3677  0.1232
  346MOL0     C47633   4.008   4.162   7.521  0.3042  0.1448  0.5884
  346MOL0     O47634   3.911   4.088   7.452  0.0415  0.4009 -0.3258
  346MOL0     C47635   3.864   3.984   7.524  0.4766 -0.1233  0.5046
  346MOL0     C47636   3.885   3.964   7.658  0.0673  0.1580 -0.5179
  346MOL0     C47637   3.854   3.841   7.730 -0.0930 -0.2153  0.1641
  346MOL0     C47638   3.908   3.824   7.868  0.3551 -0.4648  0.8215
  346MOL0     C47639   3.792   3.737   7.658 -0.5346  0.5195 -0.4985
  346MOL0     C47640   3.742   3.616   7.727  0.2163  0.8677  0.7624
  346MOL0     O47641   3.658   3.550   7.650  0.2494 -0.0653  0.0385
  346MOL0     C47642   3.597   3.429   7.680 -0.8025  0.1545  0.2011
  346MOL0     C47643   3.485   3.397   7.607  1.2810  0.4732  0.1910
  346MOL0     C47644   3.424   3.269   7.623 -0.0845 -0.6133 -0.5665
  346MOL0     C47645   3.494   3.174   7.696  0.1057  0.1882 -0.1123
  346MOL0     O47646   3.429   3.050   7.695 -0.4009  0.1588 -0.0381
  346MOL0     C47647   3.505   2.930   7.686  0.3003  0.5588 -0.8890
  346MOL0     C47648   3.442   2.810   7.755  0.6149 -0.0393 -0.4940
  346MOL0     C47649   3.305   2.756   7.695 -0.0628 -0.7089  0.3250
  346MOL0     C47650   3.264   2.624   7.762 -0.4390 -0.2560  0.5936
  346MOL0     C47651   3.117   2.572   7.734 -0.6530 -1.1155  0.3234
  346MOL0     C47652   3.020   2.629   7.837  0.4308 -0.7626  0.6066
  346MOL0     C47653   2.875   2.610   7.790  0.2140  0.0940 -1.3005
  346MOL0     C47654   2.806   2.514   7.887 -0.9846  0.5402  0.6980
  346MOL0    Cl47655   2.891   2.349   7.887 -0.2055 -0.4361  0.1648
  346MOL0     C47656   3.603   3.201   7.766 -0.5963 -0.4295  0.0267
  346MOL0     C47657   3.661   3.334   7.763  0.9572  0.9017 -0.5647
  346MOL0     O47658   3.754   3.591   7.844  0.8513 -0.5804  0.0204
  346MOL0     C47659   3.783   3.758   7.518 -0.0478 -0.2115 -0.2257
  346MOL0     C47660   3.813   3.882   7.453  0.0918 -0.3244  0.3827
  346MOL0     N47661   4.238   4.558   7.479  0.7183 -0.3465 -0.3459
  346MOL0     N47662   4.264   4.667   7.530 -0.2028 -0.2068 -0.3255
  346MOL0     C47663   4.751   5.557   7.305 -1.2427  0.7306  0.3673
  346MOL0     C47664   4.872   5.574   7.231  0.0015 -0.0032  0.1904
  346MOL0     C47665   5.154   5.700   6.885  2.0445  0.5996  0.5523
  346MOL0     C47666   5.134   5.724   6.746 -0.6129  0.5237 -0.2877
  346MOL0     C47667   5.243   5.758   6.670  0.3950  0.2103  0.1324
  346MOL0     C47668   5.372   5.766   6.723  0.5957 -0.2360  0.5411
  346MOL0     O47669   5.477   5.799   6.637  0.7515 -0.1731  0.7151
  346MOL0     C47670   5.605   5.814   6.698 -0.3293 -0.6742  1.0471
  346MOL0     C47671   5.714   5.821   6.583 -0.4479 -0.1771 -0.8902
  346MOL0     C47672   5.711   5.962   6.517  0.2150  0.7881  0.4959
  346MOL0     C47673   5.767   5.950   6.376 -0.2405 -0.8404  0.3425
  346MOL0     C47674   5.909   5.911   6.363 -0.1483  0.5378  0.0831
  346MOL0     C47675   6.021   5.862   6.361 -0.3881  0.2674 -0.2843
  346MOL0     C47676   5.383   5.755   6.868 -1.1928  0.3991 -0.0019
  346MOL0     C47677   5.273   5.727   6.949 -0.7315  0.6920  1.0823
  346MOL0     C47678   5.293   5.722   7.096  0.5175 -0.2098 -0.8060
  346MOL0     H47679   4.810   5.843   7.047  1.0961 -1.1801 -0.7642
  346MOL0     H47680   4.590   5.834   7.194  2.9372  3.0823  0.0710
  346MOL0     H47681   4.423   5.587   7.213 -1.1805 -2.0375  2.2310
  346MOL0     H47682   4.410   5.763   7.270 -0.4540  0.1864 -2.2086
  346MOL0     H47683   4.298   5.668   7.472  0.8737 -0.6349 -0.7450
  346MOL0     H47684   4.202   5.648   7.314  0.9666 -1.0338 -2.3142
  346MOL0     H47685   4.357   5.408   7.446  0.9825  0.7657 -0.6490
  346MOL0     H47686   4.187   5.458   7.481 -0.1668 -1.3096 -0.6512
  346MOL0     H47687   4.108   5.411   7.287  0.9397  2.7295  0.6205
  346MOL0     H47688   4.256   5.420   7.193 -2.1993 -0.2983 -0.6489
  346MOL0     H47689   4.344   5.224   7.281  0.0004 -3.5868  1.5397
  346MOL0     H47690   4.188   5.187   7.203  1.3701  0.7120 -0.4104
  346MOL0     H47691   4.275   5.189   7.491 -0.1224 -0.3512  0.2786
  346MOL0     H47692   4.104   5.181   7.430 -0.6479 -1.0600 -0.0227
  346MOL0     H47693   4.302   4.988   7.314  0.1151 -1.4779  0.0529
  346MOL0     H47694   4.128   4.982   7.317  0.1656  0.0920  0.1543
  346MOL0     H47695   4.310   4.920   7.552 -1.9519 -0.4562  2.8077
  346MOL0     H47696   4.135   4.950   7.565  0.5556  0.6289 -1.1931
  346MOL0     H47697   4.059   4.762   7.296 -0.0763  1.4063 -1.0400
  346MOL0     H47698   4.164   4.426   7.235  1.0656 -2.6023  2.8910
  346MOL0     H47699   4.008   4.528   7.231 -0.6725  0.1359  1.8403
  346MOL0     H47700   3.954   4.421   7.450 -1.0733  1.6404 -0.9412
  346MOL0     H47701   3.911   4.335   7.303 -1.3010  1.8271 -0.4262
  346MOL0     H47702   4.102   4.183   7.323  0.4053 -2.6921  2.3561
  346MOL0     H47703   4.169   4.289   7.444  0.0468  1.1854 -1.0519
  346MOL0     H47704   4.084   4.092   7.557 -1.0196 -1.5735  0.2270
  346MOL0     H47705   3.977   4.228   7.602  0.1862  0.2498  0.4575
  346MOL0     H47706   3.950   4.029   7.716  1.9281 -1.6473 -0.4491
  346MOL0     H47707   3.990   3.896   7.877  0.2820  0.2516 -2.6682
  346MOL0     H47708   3.947   3.723   7.884 -1.5517 -1.3883 -0.0344
  346MOL0     H47709   3.835   3.844   7.946  1.6303 -0.7981  2.1580
  346MOL0     H47710   3.427   3.473   7.556 -1.8244 -0.0675  2.6067
  346MOL0     H47711   3.329   3.243   7.577 -1.0430 -1.7623  1.8898
  346MOL0     H47712   3.525   2.912   7.580 -0.7553  2.0451 -1.3715
  346MOL0     H47713   3.598   2.951   7.740 -0.7793  2.9871  0.1808
  346MOL0     H47714   3.510   2.725   7.745  0.2333 -0.6073  1.1986
  346MOL0     H47715   3.430   2.835   7.861 -3.1116  2.3679 -1.2860
  346MOL0     H47716   3.294   2.751   7.586 -0.1835  4.7715 -0.1806
  346MOL0     H47717   3.223   2.828   7.704  0.0137 -0.1989 -2.1588
  346MOL0     H47718   3.265   2.645   7.870 -1.6203 -1.7550  0.9348
  346MOL0     H47719   3.340   2.547   7.751  0.4503  0.2598  2.6871
  346MOL0     H47720   3.085   2.586   7.630  1.4821  3.4382  0.0552
  346MOL0     H47721   3.113   2.464   7.750  3.2002 -1.1093  2.5751
  346MOL0     H47722   3.037   2.737   7.830  3.8433 -1.1276  1.4749
  346MOL0     H47723   3.030   2.599   7.942  2.9450 -0.5991  0.4763
  346MOL0     H47724   2.857   2.594   7.684  0.0123  2.8935 -1.7619
  346MOL0     H47725   2.808   2.694   7.808 -0.2070 -0.1575 -1.6859
  346MOL0     H47726   2.706   2.499   7.845 -1.3778 -0.6043  1.9625
  346MOL0     H47727   2.812   2.560   7.986 -0.4997  0.6619  0.6171
  346MOL0     H47728   3.651   3.138   7.840 -2.6787  1.4083  3.1962
  346MOL0     H47729   3.746   3.357   7.825  2.2291  0.6343 -2.1350
  346MOL0     H47730   3.743   3.685   7.448  2.0527  1.3411 -3.2717
  346MOL0     H47731   3.797   3.885   7.346 -3.7849  0.8741  0.8271
  346MOL0     H47732   4.732   5.466   7.361 -0.1986 -1.8084 -3.0750
  346MOL0     H47733   4.956   5.506   7.238  0.3700  0.3146 -0.8761
  346MOL0     H47734   5.045   5.699   6.689 -1.2196 -0.2692  0.9626
  346MOL0     H47735   5.224   5.767   6.564 -1.2832  0.5570  0.4361
  346MOL0     H47736   5.615   5.904   6.759  2.6697  1.0242 -1.6460
  346MOL0     H47737   5.623   5.734   6.770 -0.2196  0.1777  1.9867
  346MOL0     H47738   5.700   5.734   6.518 -3.8115  0.4946 -1.2112
  346MOL0     H47739   5.814   5.809   6.626 -0.5818 -0.3851 -0.6317
  346MOL0     H47740   5.607   5.995   6.506 -0.0653 -0.0258  0.5756
  346MOL0     H47741   5.771   6.035   6.572  3.8435 -1.8136  0.3507
  346MOL0     H47742   5.768   6.048   6.328  1.1199 -0.1817  1.6433
  346MOL0     H47743   5.700   5.886   6.318  0.2359  0.5963 -1.8972
  346MOL0     H47744   6.121   5.826   6.346 -0.5441 -1.4564  2.1693
  346MOL0     H47745   5.474   5.758   6.927  0.1566  0.3796 -1.9750
  346MOL0     H47746   5.229   5.793   7.150  3.2070  1.5950  0.2472
  346MOL0     H47747   5.275   5.618   7.122 -0.2744  0.5837  2.1622
  346MOL0     H47748   5.396   5.741   7.128 -0.6622  2.7252  1.7839
  347MOL0     O47749   3.560   3.190  11.249  0.1235  0.4145  0.2096
  347MOL0     C47750   3.535   3.139  11.358 -0.6136  0.4775  0.1076
  347MOL0     O47751   3.565   3.004  11.388 -0.1091  0.1271  0.3370
  347MOL0     C47752   3.612   2.924  11.293  0.3446  0.3245  0.8638
  347MOL0     C47753   3.691   2.820  11.331 -0.2095 -0.4801  0.2314
  347MOL0     C47754   3.743   2.732  11.240 -0.4436  0.7941  0.3951
  347MOL0     C47755   3.729   2.754  11.106  0.4530  0.4529  0.7352
  347MOL0     O47756   3.782   2.652  11.035 -0.9598 -0.0473  0.7108
  347MOL0     C47757   3.747   2.645  10.902  0.1377 -0.1155 -0.3113
  347MOL0     C47758   3.867   2.566  10.831  0.3791  0.9380 -0.1168
  347MOL0     C47759   3.828   2.545  10.682 -0.0634 -0.4755 -0.7661
  347MOL0     C47760   3.923   2.446  10.601 -0.1043 -0.6092  0.0406
  347MOL0     C47761   3.873   2.431  10.462 -0.8531  0.3292 -0.2024
  347MOL0     C47762   3.971   2.344  10.380 -0.8383 -0.1796  0.1158
  347MOL0     C47763   3.950   2.389  10.230  0.2135 -0.3952  0.1512
  347MOL0     C47764   4.045   2.331  10.128 -0.4336  0.5499 -0.5103
  347MOL0     N47765   4.175   2.381  10.163 -0.5470 -0.5994  0.1030
  347MOL0     C47766   4.264   2.322  10.254  0.2793 -0.1246 -0.0229
  347MOL0     C47767   4.381   2.386  10.249  0.3636  0.0615  0.1571
  347MOL0     C47768   4.503   2.363  10.338 -0.1716 -0.9314  0.2271
  347MOL0     C47769   4.462   2.403  10.482  0.8149  0.0837 -0.3996
  347MOL0     C47770   4.576   2.415  10.585 -0.6193 -0.8188 -0.5846
  347MOL0     C47771   4.659   2.294  10.621  0.2703  0.6634  0.5694
  347MOL0     O47772   4.724   2.303  10.748 -1.2578  0.9211  0.1704
  347MOL0     C47773   4.862   2.331  10.761  0.0729  0.1488  0.4453
  347MOL0     C47774   4.928   2.264  10.864  0.1354  0.0957  0.2625
  347MOL0     C47775   5.069   2.258  10.895 -0.4009  0.7106 -0.3069
  347MOL0     C47776   5.113   2.176  11.010 -0.8032  0.1442  0.3568
  347MOL0     C47777   5.145   2.316  10.790 -0.2887  0.2444 -0.3707
  347MOL0     C47778   5.292   2.303  10.784 -0.2074 -0.0711  0.3084
  347MOL0     O47779   5.361   2.259  10.895  0.7143 -0.0540 -0.0490
  347MOL0     C47780   5.497   2.279  10.899  0.1361  0.5779 -0.1429
  347MOL0     C47781   5.587   2.206  10.814  0.1371  0.6357 -0.2225
  347MOL0     C47782   5.723   2.238  10.805  0.0621  0.1198  0.0383
  347MOL0     C47783   5.776   2.338  10.886  1.0794 -0.5210 -0.2682
  347MOL0     O47784   5.909   2.371  10.879 -1.3704  0.0588 -0.1726
  347MOL0     C47785   5.958   2.497  10.945  0.2197  0.6260 -0.7685
  347MOL0     C47786   6.113   2.499  10.935 -1.1837  0.2140 -0.5611
  347MOL0     C47787   6.151   2.542  10.790  0.3146 -0.1173  0.9152
  347MOL0     C47788   6.299   2.579  10.763  0.9885  1.0515 -0.2729
  347MOL0     C47789   6.354   2.712  10.828  0.1651 -0.9606  0.3616
  347MOL0     C47790   6.517   2.725  10.812  0.1513  0.8374 -0.3180
  347MOL0     C47791   6.599   2.622  10.882  0.1478  0.7135  0.4466
  347MOL0     C47792   6.571   2.608  11.033 -1.0350 -0.3219 -0.4785
  347MOL0    Cl47793   6.650   2.753  11.119 -0.3107  0.0488 -0.0322
  347MOL0     C47794   5.680   2.402  10.969 -0.6852 -0.5471  0.9366
  347MOL0     C47795   5.547   2.372  10.982  0.8022  0.0520 -0.0725
  347MOL0     O47796   5.345   2.343  10.681  0.1416  0.5794 -0.0300
  347MOL0     C47797   5.083   2.371  10.675 -0.2313  0.0245 -0.2535
  347MOL0     C47798   4.946   2.372  10.660 -0.4276 -0.8482 -0.0720
  347MOL0     N47799   4.359   2.486  10.155 -0.4639 -0.0843 -0.6030
  347MOL0     N47800   4.240   2.478  10.106 -0.1266 -0.7564 -0.1779
  347MOL0     C47801   3.639   2.850  11.062 -0.2206 -0.0519  0.1575
  347MOL0     C47802   3.575   2.929  11.150  0.1962  0.1934  0.0587
  347MOL0     C47803   3.483   3.220  11.467 -0.4718  0.2908  0.1936
  347MOL0     C47804   3.368   3.308  11.442 -0.0155  0.0566 -0.3558
  347MOL0     C47805   3.307   3.381  11.543 -0.4924 -0.4456  0.6849
  347MOL0     C47806   3.352   3.369  11.672 -0.3294  0.1979  0.0920
  347MOL0     O47807   3.300   3.450  11.775  0.6815 -0.2118 -0.4482
  347MOL0     C47808   3.195   3.541  11.743  0.5123  0.5031 -0.3711
  347MOL0     C47809   3.160   3.623  11.865 -0.1245 -0.1251 -0.6137
  347MOL0     C47810   3.073   3.744  11.824  0.7495  0.1391 -0.3037
  347MOL0     C47811   2.975   3.782  11.929  0.6374  0.8982 -0.1216
  347MOL0     C47812   2.835   3.748  11.891  0.2830  0.3004  0.8443
  347MOL0     C47813   2.717   3.737  11.859  0.4144 -0.5716 -0.5887
  347MOL0     C47814   3.464   3.283  11.697 -0.8327 -0.4772 -0.3688
  347MOL0     C47815   3.525   3.208  11.599 -0.1709 -0.3249  0.7883
  347MOL0     C47816   3.644   3.127  11.651 -0.2992  0.5919  0.2714
  347MOL0     H47817   3.701   2.794  11.436  3.0439 -1.9836 -0.3327
  347MOL0     H47818   3.801   2.649  11.279  0.9393  0.9124 -1.2985
  347MOL0     H47819   3.725   2.742  10.857 -1.0373 -0.6300 -0.8780
  347MOL0     H47820   3.654   2.590  10.888 -0.5698  1.3796 -1.9682
  347MOL0     H47821   3.959   2.626  10.830 -0.6106  2.5132 -0.3053
  347MOL0     H47822   3.876   2.470  10.882 -5.9005  0.3200  0.5801
  347MOL0     H47823   3.723   2.513  10.680 -0.6306  1.1606  0.6560
  347MOL0     H47824   3.824   2.647  10.642 -0.9189 -0.2485 -0.1314
  347MOL0     H47825   4.023   2.490  10.597  0.4248 -1.8342 -0.3817
  347MOL0     H47826   3.931   2.352  10.655 -0.0004 -0.9007 -0.4726
  347MOL0     H47827   3.859   2.532  10.422 -1.2512  0.8991  1.3195
  347MOL0     H47828   3.779   2.376  10.471 -0.9845 -0.7281 -5.2556
  347MOL0     H47829   4.074   2.364  10.410 -0.4442  0.9780 -1.8409
  347MOL0     H47830   3.938   2.241  10.397 -1.3016  0.3321  2.8449
  347MOL0     H47831   3.968   2.496  10.231 -0.7640 -0.1970 -1.4032
  347MOL0     H47832   3.847   2.366  10.202  0.5587 -1.4597 -0.3190
  347MOL0     H47833   4.048   2.221  10.132 -1.6996  0.4807 -0.8774
  347MOL0     H47834   4.009   2.366  10.031 -0.9988  1.8427  0.1463
  347MOL0     H47835   4.237   2.232  10.308 -1.6173 -0.4931 -1.4784
  347MOL0     H47836   4.582   2.435  10.316 -2.0719  1.0655 -0.4064
  347MOL0     H47837   4.552   2.266  10.333  1.0847 -0.2550 -2.1845
  347MOL0     H47838   4.415   2.501  10.485 -0.5593 -0.4408 -2.5898
  347MOL0     H47839   4.387   2.333  10.519  1.1818 -0.3471 -0.4595
  347MOL0     H47840   4.637   2.500  10.552 -0.8367 -0.5073 -0.1977
  347MOL0     H47841   4.533   2.455  10.677 -0.0218 -2.4305  0.4357
  347MOL0     H47842   4.595   2.207  10.636  1.0290  0.2242  1.3329
  347MOL0     H47843   4.730   2.270  10.541  1.0446  1.4525  0.9973
  347MOL0     H47844   4.866   2.220  10.942 -2.1842  1.8893 -0.4663
  347MOL0     H47845   5.176   2.231  11.080  0.0022 -2.3139  1.6791
  347MOL0     H47846   5.172   2.092  10.972 -1.6384 -0.0251 -0.6231
  347MOL0     H47847   5.028   2.135  11.066 -1.9704  2.7605  0.6438
  347MOL0     H47848   5.560   2.128  10.743  3.3049  0.2965 -1.2202
  347MOL0     H47849   5.779   2.180  10.733 -1.1155 -1.4547  0.3307
  347MOL0     H47850   5.925   2.585  10.889  0.0770 -0.0536 -1.7862
  347MOL0     H47851   5.934   2.501  11.051  0.5683  2.3333 -0.7178
  347MOL0     H47852   6.169   2.565  11.001  2.0573 -1.0445 -1.8743
  347MOL0     H47853   6.162   2.403  10.957  2.1207  2.2385  1.7115
  347MOL0     H47854   6.089   2.627  10.762 -1.2249 -0.6119  2.5889
  347MOL0     H47855   6.122   2.461  10.722 -1.7607  2.3817 -1.3859
  347MOL0     H47856   6.308   2.589  10.654 -2.7966  0.8383 -0.7087
  347MOL0     H47857   6.357   2.496  10.804  2.2596  2.6421  1.3614
  347MOL0     H47858   6.309   2.796  10.776 -1.7978 -0.7533  2.2414
  347MOL0     H47859   6.329   2.709  10.935 -2.6658 -0.1824 -0.1993
  347MOL0     H47860   6.554   2.824  10.840  3.4835 -0.8604  1.9423
  347MOL0     H47861   6.543   2.705  10.707 -1.0913 -1.8574 -0.1850
  347MOL0     H47862   6.707   2.640  10.874 -0.0367  1.9257  0.4038
  347MOL0     H47863   6.588   2.534  10.818  3.8523  0.0135  0.5917
  347MOL0     H47864   6.625   2.521  11.069  1.9967 -0.5623 -4.7989
  347MOL0     H47865   6.466   2.600  11.064 -0.2001 -1.2024  2.4107
  347MOL0     H47866   5.720   2.483  11.029  2.1545 -1.3033  0.2246
  347MOL0     H47867   5.492   2.424  11.059  1.7616 -0.3658  0.9252
  347MOL0     H47868   5.146   2.407  10.595  1.7418  2.9567  2.4025
  347MOL0     H47869   4.902   2.408  10.567 -1.5073  1.9665  1.4056
  347MOL0     H47870   3.611   2.859  10.957  0.4017  0.8475  0.0593
  347MOL0     H47871   3.492   2.992  11.121  1.1252  1.6885  0.5448
  347MOL0     H47872   3.339   3.333  11.341  0.1724  0.4815 -0.3085
  347MOL0     H47873   3.232   3.450  11.505 -0.8654 -0.7275  0.9095
  347MOL0     H47874   3.224   3.610  11.663  0.1011  2.4738  1.1130
  347MOL0     H47875   3.103   3.494  11.708 -0.4185  2.5290 -0.7308
  347MOL0     H47876   3.253   3.660  11.909  1.1216 -2.6784 -0.9231
  347MOL0     H47877   3.096   3.562  11.930  0.0783  0.5376  0.2305
  347MOL0     H47878   3.137   3.829  11.797  2.3454 -1.0308 -0.3911
  347MOL0     H47879   3.037   3.716  11.724 -0.1060  1.4527 -0.3915
  347MOL0     H47880   2.987   3.886  11.962 -0.8136  0.2839  2.6563
  347MOL0     H47881   2.992   3.736  12.027 -0.1427  3.7128  1.4803
  347MOL0     H47882   2.610   3.732  11.850  0.4122  0.1595 -1.0411
  347MOL0     H47883   3.495   3.277  11.801  0.7711  0.0840 -0.7708
  347MOL0     H47884   3.648   3.127  11.760  0.6156  2.0844  0.2623
  347MOL0     H47885   3.623   3.025  11.618 -2.5876  1.1554 -0.2005
  347MOL0     H47886   3.742   3.152  11.610 -0.2949  3.7971  1.9546
  348MOL0     O47887   0.764   1.108   6.542 -0.3135 -0.1179 -0.0268
  348MOL0     C47888   0.682   1.200   6.556 -0.1239  0.2311  0.3155
  348MOL0     O47889   0.711   1.333   6.575  0.2377  0.3896 -0.4868
  348MOL0     C47890   0.841   1.362   6.597 -0.5780  0.2629 -0.2441
  348MOL0     C47891   0.900   1.352   6.723 -0.3805  0.4631  0.7369
  348MOL0     C47892   1.026   1.405   6.741  1.7855 -0.1056 -1.0457
  348MOL0     C47893   1.098   1.461   6.641  0.1506 -0.7751 -0.5309
  348MOL0     O47894   1.219   1.525   6.664  0.6593 -0.2306 -0.0163
  348MOL0     C47895   1.285   1.505   6.793 -0.4046 -0.6587 -0.0822
  348MOL0     C47896   1.260   1.629   6.884  0.3429 -0.3643 -0.5148
  348MOL0     C47897   1.322   1.767   6.849  0.8698  0.4337  0.2878
  348MOL0     C47898   1.235   1.877   6.914 -0.0529 -1.6622 -0.0930
  348MOL0     C47899   1.312   2.014   6.913  0.1439 -0.2121 -0.2084
  348MOL0     C47900   1.464   2.030   6.949 -0.8474  0.3763  0.2400
  348MOL0     C47901   1.523   2.167   6.959 -0.9164 -0.1648  0.3633
  348MOL0     C47902   1.652   2.162   7.050 -0.2697  0.5658 -0.5726
  348MOL0     N47903   1.667   2.296   7.122 -0.3520 -1.2675 -0.7273
  348MOL0     C47904   1.738   2.406   7.078  0.9451 -0.0388  0.6472
  348MOL0     C47905   1.680   2.514   7.140  0.5323 -0.0707  0.6432
  348MOL0     C47906   1.733   2.647   7.113 -0.9934  0.3121  0.4005
  348MOL0     C47907   1.742   2.729   7.244 -0.0917  0.2715 -0.3544
  348MOL0     C47908   1.832   2.678   7.359  0.7674 -0.1436 -0.3027
  348MOL0     C47909   1.973   2.686   7.322 -0.0038  1.1762  1.2832
  348MOL0     O47910   2.017   2.569   7.246  0.2651 -0.7324  0.5438
  348MOL0     C47911   2.133   2.576   7.170  0.5190  0.7288 -0.2606
  348MOL0     C47912   2.234   2.674   7.186 -0.5038  0.4137  0.0486
  348MOL0     C47913   2.349   2.675   7.101 -0.3932  1.0172  0.1186
  348MOL0     C47914   2.447   2.789   7.107 -0.2057 -0.3933 -0.1746
  348MOL0     C47915   2.368   2.568   6.998  0.7014  0.1160 -0.6573
  348MOL0     C47916   2.474   2.551   6.905  0.0304  0.1146 -0.2857
  348MOL0     O47917   2.477   2.638   6.803 -0.3095  0.6896 -0.2663
  348MOL0     C47918   2.586   2.640   6.726 -0.2425  0.7172 -0.0048
  348MOL0     C47919   2.685   2.725   6.775  0.7729  0.7233 -0.0406
  348MOL0     C47920   2.782   2.771   6.686  0.6360  0.3177 -1.3079
  348MOL0     C47921   2.780   2.733   6.554 -0.9951 -0.6792 -0.1029
  348MOL0     O47922   2.898   2.760   6.483 -0.1224 -0.3972 -0.0388
  348MOL0     C47923   2.919   2.698   6.355  0.4102 -0.0851  0.5287
  348MOL0     C47924   3.038   2.762   6.281 -0.6611 -0.5149 -0.4253
  348MOL0     C47925   3.039   2.735   6.128 -0.3224  0.0884  0.2396
  348MOL0     C47926   3.058   2.579   6.106  0.8348 -0.4438  0.2363
  348MOL0     C47927   3.056   2.524   5.955  0.6916 -0.5715  0.2742
  348MOL0     C47928   3.173   2.573   5.866 -0.8651  0.2067 -0.0502
  348MOL0     C47929   3.307   2.509   5.898  0.6103  0.3487  0.3372
  348MOL0     C47930   3.414   2.561   5.804 -0.0852  0.2950 -1.6484
  348MOL0    Cl47931   3.553   2.469   5.864 -0.2679 -0.0773 -0.0304
  348MOL0     C47932   2.694   2.634   6.508 -0.3810 -0.5339 -0.1543
  348MOL0     C47933   2.588   2.591   6.592 -0.3329 -1.0384 -0.5072
  348MOL0     O47934   2.539   2.445   6.916 -0.2386 -0.5658 -0.0159
  348MOL0     C47935   2.274   2.464   7.001 -0.8850  0.3291 -0.0718
  348MOL0     C47936   2.163   2.467   7.084 -0.0817 -0.6181 -0.0035
  348MOL0     N47937   1.568   2.470   7.217 -0.0683  0.3215  0.1894
  348MOL0     N47938   1.571   2.337   7.206  0.4573 -0.8823  0.7868
  348MOL0     C47939   1.050   1.455   6.513  0.8264 -0.0911 -0.3282
  348MOL0     C47940   0.921   1.403   6.492  0.7495 -0.4983 -0.8346
  348MOL0     C47941   0.534   1.172   6.528  0.3013 -0.4617  0.7970
  348MOL0     C47942   0.447   1.280   6.509  0.4136 -0.5584  0.0074
  348MOL0     C47943   0.306   1.264   6.488 -0.4491  0.4629  1.4142
  348MOL0     C47944   0.245   1.136   6.486 -0.8124 -0.4219  0.1509
  348MOL0     O47945   0.113   1.126   6.466 -0.0587 -0.7709  0.9293
  348MOL0     C47946   0.038   1.003   6.466  0.4941  0.7595  0.3975
  348MOL0     C47947  -0.109   1.044   6.480  0.1622  0.1043  0.4017
  348MOL0     C47948  -0.148   1.071   6.628  0.1621 -0.3524 -0.3726
  348MOL0     C47949  -0.296   1.108   6.645  1.1366 -1.0678  0.2705
  348MOL0     C47950  -0.389   0.997   6.605  0.7460 -0.0157  0.0524
  348MOL0     C47951  -0.466   0.901   6.590  0.6532 -1.1600 -0.7102
  348MOL0     C47952   0.335   1.037   6.499 -0.4287 -0.6003  0.7709
  348MOL0     C47953   0.475   1.044   6.511  0.2595  0.3127  0.4337
  348MOL0     C47954   0.553   0.915   6.520 -0.0799 -0.0600  0.0146
  348MOL0     H47955   0.841   1.304   6.800  0.6249 -0.8482  0.7277
  348MOL0     H47956   1.057   1.414   6.844  3.8695 -0.0195 -1.6305
  348MOL0     H47957   1.390   1.505   6.763 -1.0721  0.9312 -2.7288
  348MOL0     H47958   1.260   1.411   6.844 -1.6232  0.2365  1.0380
  348MOL0     H47959   1.151   1.636   6.876  0.3888 -0.2694 -1.1146
  348MOL0     H47960   1.291   1.617   6.988  0.3873  3.1274  0.0033
  348MOL0     H47961   1.428   1.770   6.878  1.3747 -0.7147 -1.2822
  348MOL0     H47962   1.311   1.779   6.741  1.7969  0.5619  0.2026
  348MOL0     H47963   1.137   1.889   6.866  0.2280  1.3747 -0.0541
  348MOL0     H47964   1.231   1.838   7.016 -0.4870 -2.0577 -0.2555
  348MOL0     H47965   1.238   2.078   6.961  0.1571  0.2972 -0.8570
  348MOL0     H47966   1.308   2.042   6.807 -1.1981 -1.5625 -0.5613
  348MOL0     H47967   1.482   1.967   7.037  0.6818 -1.2635 -1.1745
  348MOL0     H47968   1.517   1.977   6.869  0.4196  1.4663  0.3185
  348MOL0     H47969   1.454   2.241   7.001  0.5945  1.0244  0.8354
  348MOL0     H47970   1.550   2.205   6.860  1.0033 -1.3276  0.3968
  348MOL0     H47971   1.647   2.082   7.125 -1.3560  2.3150  1.3366
  348MOL0     H47972   1.742   2.144   6.991 -0.3125 -1.7849 -0.0077
  348MOL0     H47973   1.819   2.417   7.007 -0.0849 -1.7077 -0.8901
  348MOL0     H47974   1.657   2.690   7.047 -0.9813 -1.0842 -0.5769
  348MOL0     H47975   1.828   2.660   7.062 -1.0579 -0.8704 -0.0600
  348MOL0     H47976   1.770   2.834   7.227  0.2452 -0.3826 -5.2935
  348MOL0     H47977   1.639   2.729   7.280 -1.4542 -0.9816 -3.8462
  348MOL0     H47978   1.813   2.745   7.443 -3.7175 -0.1362 -1.0948
  348MOL0     H47979   1.796   2.581   7.393 -1.2535  0.3829 -0.8036
  348MOL0     H47980   1.985   2.777   7.263 -1.6172 -0.0634 -1.0891
  348MOL0     H47981   2.023   2.695   7.419 -0.8148 -0.4032  1.8815
  348MOL0     H47982   2.242   2.748   7.265 -0.2061  0.2312  0.1926
  348MOL0     H47983   2.550   2.758   7.089  0.3129  0.8103  0.6251
  348MOL0     H47984   2.450   2.823   7.210 -1.8582  2.2382 -0.8863
  348MOL0     H47985   2.429   2.872   7.037 -3.2089  0.5751  1.5458
  348MOL0     H47986   2.666   2.765   6.874 -0.3439 -0.6933  0.3530
  348MOL0     H47987   2.854   2.840   6.728 -0.4626  0.1956  0.9685
  348MOL0     H47988   2.915   2.589   6.360  1.3578 -0.2674 -1.6547
  348MOL0     H47989   2.840   2.731   6.286  1.1217  1.1066  0.2567
  348MOL0     H47990   3.038   2.869   6.302  2.8196 -0.4111 -0.4372
  348MOL0     H47991   3.134   2.728   6.321  0.0808  0.4780 -1.3146
  348MOL0     H47992   3.131   2.775   6.086 -0.9778  1.3643 -0.0405
  348MOL0     H47993   2.945   2.765   6.080 -0.5139 -1.3431 -0.3410
  348MOL0     H47994   2.973   2.535   6.157  1.3353 -0.6942  0.8704
  348MOL0     H47995   3.144   2.536   6.158 -0.4002 -2.6104  0.6188
  348MOL0     H47996   3.075   2.417   5.963  7.4530  0.2078  0.9385
  348MOL0     H47997   2.960   2.555   5.913 -0.2605 -3.0175  0.4906
  348MOL0     H47998   3.188   2.681   5.874  5.0593 -0.1183 -1.9905
  348MOL0     H47999   3.146   2.546   5.764  1.1814 -0.6575 -0.4278
  348MOL0     H48000   3.287   2.401   5.896 -1.5146  0.6896  0.5809
  348MOL0     H48001   3.340   2.522   6.001  0.6987 -0.6168  0.4442
  348MOL0     H48002   3.436   2.665   5.831 -2.0942 -0.2065  2.9221
  348MOL0     H48003   3.395   2.544   5.698 -3.0404 -0.9174 -1.0203
  348MOL0     H48004   2.695   2.609   6.403  0.1159 -0.3831 -0.1905
  348MOL0     H48005   2.516   2.523   6.546 -2.8400  1.9130 -1.2808
  348MOL0     H48006   2.294   2.371   6.949 -2.8284 -0.4152  0.4183
  348MOL0     H48007   2.095   2.383   7.078  1.5669 -2.0708  0.6771
  348MOL0     H48008   1.114   1.504   6.440  0.0964  1.8458  0.2669
  348MOL0     H48009   0.876   1.385   6.396 -4.0450 -4.2400  1.6877
  348MOL0     H48010   0.481   1.383   6.498 -1.4626 -0.1777 -6.9738
  348MOL0     H48011   0.233   1.344   6.488  0.2716  1.1568  0.3135
  348MOL0     H48012   0.053   0.941   6.377  2.5369 -1.9208  2.4129
  348MOL0     H48013   0.074   0.952   6.556  0.8432  0.1591 -0.0755
  348MOL0     H48014  -0.164   0.960   6.439  1.2166 -0.2874 -0.2534
  348MOL0     H48015  -0.134   1.137   6.429 -1.4509  1.2583  3.0930
  348MOL0     H48016  -0.127   0.991   6.699 -0.3440  0.8859  1.2254
  348MOL0     H48017  -0.086   1.152   6.666  0.1282 -0.1924 -0.6498
  348MOL0     H48018  -0.326   1.185   6.574 -1.2360 -1.6039  0.6269
  348MOL0     H48019  -0.328   1.130   6.747 -2.5374 -1.2522 -0.6939
  348MOL0     H48020  -0.524   0.812   6.574 -0.5911 -0.4507 -0.2897
  348MOL0     H48021   0.289   0.939   6.497 -2.5206  0.2390  2.9187
  348MOL0     H48022   0.488   0.828   6.532 -0.0139  0.1319  2.0249
  348MOL0     H48023   0.630   0.903   6.443  2.0592  0.3333  2.0044
  348MOL0     H48024   0.609   0.915   6.613 -0.4676  6.4056  0.7202
  349MOL0     O48025   6.226   2.898   8.255 -1.0656 -0.1504  0.1155
  349MOL0     C48026   6.278   2.872   8.147  0.4440 -0.8108 -0.1713
  349MOL0     O48027   6.384   2.783   8.129 -0.1643 -0.5507 -0.2533
  349MOL0     C48028   6.447   2.747   8.242  0.1455  0.7235 -0.0042
  349MOL0     C48029   6.391   2.657   8.327  0.1816  0.0004  0.2266
  349MOL0     C48030   6.461   2.615   8.441  0.2604 -0.0872 -0.4113
  349MOL0     C48031   6.586   2.668   8.472  0.6354 -0.3739 -0.8544
  349MOL0     O48032   6.664   2.620   8.574 -0.8912 -0.6238 -0.0920
  349MOL0     C48033   6.681   2.696   8.696  0.5380  0.2679  0.6906
  349MOL0     C48034   6.820   2.736   8.735  0.1837 -0.4668  0.2417
  349MOL0     C48035   6.814   2.893   8.762  0.4255  0.0725 -0.3490
  349MOL0     C48036   6.935   2.976   8.793 -0.3325  0.6468  0.2589
  349MOL0     C48037   6.897   3.112   8.842  0.4741  0.5351 -0.2244
  349MOL0     C48038   6.817   3.112   8.973 -0.6102  0.3956  0.9340
  349MOL0     C48039   6.766   3.251   9.019 -0.1338  0.7376  0.0297
  349MOL0     C48040   6.637   3.239   9.108  0.5775 -1.1511 -0.4430
  349MOL0     N48041   6.618   3.371   9.168 -0.6805 -0.1971 -1.0864
  349MOL0     C48042   6.581   3.488   9.103  0.7015  0.5642 -0.6169
  349MOL0     C48043   6.627   3.586   9.180  0.0722  0.1930  0.1915
  349MOL0     C48044   6.639   3.728   9.132 -0.2367  1.0849  0.4084
  349MOL0     C48045   6.683   3.824   9.244 -0.0575  0.1962  0.3715
  349MOL0     C48046   6.712   3.954   9.181 -0.0094 -0.5469 -0.5455
  349MOL0     C48047   6.784   4.063   9.267 -0.4074 -0.2068  0.1637
  349MOL0     O48048   6.924   4.047   9.286 -0.6619  0.1884 -0.9809
  349MOL0     C48049   6.974   3.991   9.405 -0.0409  0.1569  0.1071
  349MOL0     C48050   6.912   3.968   9.527  0.1762 -0.4222  0.7090
  349MOL0     C48051   6.989   3.934   9.641  0.6843  0.4545 -0.2576
  349MOL0     C48052   6.902   3.918   9.761 -0.4017  0.1613  0.0335
  349MOL0     C48053   7.127   3.913   9.644 -0.1934 -0.0066 -0.1213
  349MOL0     C48054   7.215   3.862   9.753  0.3588 -0.4762  0.3066
  349MOL0     O48055   7.354   3.889   9.747  0.3203  0.3202 -0.0162
  349MOL0     C48056   7.433   3.838   9.846  0.3779 -0.3748 -0.7020
  349MOL0     C48057   7.437   3.894   9.968  0.7962  0.1368 -1.3155
  349MOL0     C48058   7.524   3.854  10.071 -0.3339  0.2244 -0.3965
  349MOL0     C48059   7.617   3.757  10.038 -0.4237 -0.0720 -1.2408
  349MOL0     O48060   7.703   3.699  10.138  0.1980  0.0936  0.0326
  349MOL0     C48061   7.804   3.801  10.178  0.7266 -0.2631 -0.0317
  349MOL0     C48062   7.833   3.790  10.330  0.5385 -0.2274  0.5706
  349MOL0     C48063   7.896   3.930  10.374  0.0341 -0.4771 -0.3178
  349MOL0     C48064   7.926   3.936  10.526  0.1739  0.7711  0.6574
  349MOL0     C48065   7.992   4.052  10.591  0.1462  0.7751  1.0210
  349MOL0     C48066   8.147   4.066  10.557  0.6794  0.3900 -0.8965
  349MOL0     C48067   8.227   3.948  10.617 -0.0827  0.3947 -0.5918
  349MOL0     C48068   8.364   3.927  10.550 -1.1699 -1.1005 -0.0826
  349MOL0    Cl48069   8.433   4.088  10.527 -0.4663  0.2269 -0.5452
  349MOL0     C48070   7.600   3.684   9.915  0.1711  0.4307 -0.1494
  349MOL0     C48071   7.516   3.735   9.816 -0.2951 -1.0308 -0.2957
  349MOL0     O48072   7.163   3.797   9.846  0.6072  0.2437 -0.1549
  349MOL0     C48073   7.187   3.931   9.523  0.7053  0.0185  0.1699
  349MOL0     C48074   7.115   3.973   9.412  1.0661 -1.7060 -0.5617
  349MOL0     N48075   6.677   3.538   9.297 -0.4456  0.7795 -0.5762
  349MOL0     N48076   6.670   3.413   9.290  0.3375 -0.2970  1.1709
  349MOL0     C48077   6.643   2.756   8.384 -0.0512 -0.4222 -0.0322
  349MOL0     C48078   6.572   2.799   8.273 -1.0483  0.9018  0.5480
  349MOL0     C48079   6.211   2.893   8.017  0.2201 -1.2830 -0.1532
  349MOL0     C48080   6.159   3.023   7.999  0.1199 -0.7236 -0.0578
  349MOL0     C48081   6.107   3.063   7.873  0.1597  0.4082 -0.3781
  349MOL0     C48082   6.106   2.978   7.765  0.3893 -0.3487 -1.0295
  349MOL0     O48083   6.080   3.041   7.641 -0.8088  0.4660  0.3089
  349MOL0     C48084   6.056   2.943   7.536  1.4712 -0.2634 -0.5469
  349MOL0     C48085   5.990   3.013   7.421 -1.5733  0.7807 -0.2771
  349MOL0     C48086   5.882   3.118   7.453 -0.5895  0.0819  0.4635
  349MOL0     C48087   5.786   3.143   7.336  0.7502  0.0256  0.4269
  349MOL0     C48088   5.850   3.147   7.206 -0.4500 -0.1537  0.7649
  349MOL0     C48089   5.910   3.126   7.098 -0.1990  0.5618  0.3534
  349MOL0     C48090   6.159   2.850   7.786 -0.6525  0.5242  0.4239
  349MOL0     C48091   6.205   2.801   7.912 -0.5045  0.4039 -0.0806
  349MOL0     C48092   6.249   2.659   7.927 -0.4632 -0.0758  0.4571
  349MOL0     H48093   6.301   2.603   8.302  0.2762  0.5124 -1.3613
  349MOL0     H48094   6.420   2.530   8.496 -0.6414 -1.8772 -3.5911
  349MOL0     H48095   6.633   2.639   8.775 -2.0816  0.6159 -0.5378
  349MOL0     H48096   6.606   2.774   8.681 -0.6416 -1.3573 -3.0614
  349MOL0     H48097   6.868   2.674   8.810  1.6499 -0.3962 -0.5905
  349MOL0     H48098   6.885   2.738   8.647 -2.1322  1.1475 -1.5685
  349MOL0     H48099   6.765   2.942   8.677  0.8262 -2.0441 -1.8682
  349MOL0     H48100   6.746   2.894   8.848 -0.7353  3.3260 -1.1681
  349MOL0     H48101   6.993   2.920   8.868 -2.5109 -0.7564  1.0172
  349MOL0     H48102   7.007   2.991   8.712  0.6189  3.8464  1.5598
  349MOL0     H48103   6.845   3.168   8.764  1.5593  2.0714  0.0988
  349MOL0     H48104   6.992   3.165   8.853  0.4867  0.4654 -0.0020
  349MOL0     H48105   6.723   3.059   8.953 -1.3548  2.7252 -2.7840
  349MOL0     H48106   6.881   3.072   9.052  1.4245  1.0445 -0.2930
  349MOL0     H48107   6.733   3.313   8.935  0.8848  2.1296  0.6215
  349MOL0     H48108   6.844   3.303   9.076 -1.0071  0.4785  1.5189
  349MOL0     H48109   6.555   3.207   9.042 -0.5286  1.7571 -0.6699
  349MOL0     H48110   6.656   3.165   9.185 -2.4363 -0.8695  0.7110
  349MOL0     H48111   6.528   3.490   9.009 -3.1123  2.1901  1.3323
  349MOL0     H48112   6.543   3.761   9.091 -2.3950 -1.5615  2.8784
  349MOL0     H48113   6.702   3.722   9.043 -3.0578  0.1184 -1.6734
  349MOL0     H48114   6.599   3.835   9.314 -1.9894 -3.4383 -1.0875
  349MOL0     H48115   6.777   3.786   9.285  0.0357  0.6998  0.6322
  349MOL0     H48116   6.784   3.933   9.101  0.8862 -2.0608  0.5870
  349MOL0     H48117   6.622   4.003   9.144  0.8690 -1.4926 -4.4206
  349MOL0     H48118   6.786   4.155   9.208  1.1871  1.1663  2.2073
  349MOL0     H48119   6.739   4.072   9.367 -0.8793  1.3484 -0.1633
  349MOL0     H48120   6.804   3.980   9.533 -0.1061 -1.7725 -1.0105
  349MOL0     H48121   6.943   3.980   9.841  0.5170  0.6549 -0.7946
  349MOL0     H48122   6.898   3.812   9.789 -3.0770 -0.1451 -1.1656
  349MOL0     H48123   6.796   3.943   9.745 -0.6020 -1.9030 -2.6280
  349MOL0     H48124   7.365   3.971   9.994 -0.0848 -1.1869  0.3598
  349MOL0     H48125   7.516   3.882  10.175  1.8146 -3.7323  1.0399
  349MOL0     H48126   7.900   3.788  10.127  2.4024 -1.3329  3.1181
  349MOL0     H48127   7.763   3.900  10.156 -0.3407 -0.8477 -0.7389
  349MOL0     H48128   7.749   3.773  10.398  1.2998 -1.4432  1.2582
  349MOL0     H48129   7.901   3.704  10.324 -1.0424 -1.4621 -3.0241
  349MOL0     H48130   7.835   4.017  10.350  0.3764  0.5095  2.0892
  349MOL0     H48131   7.992   3.948  10.324  0.4002  0.1964  0.5822
  349MOL0     H48132   7.965   3.836  10.549 -1.5027  0.5389  2.8754
  349MOL0     H48133   7.826   3.935  10.569  0.1268  0.8896  0.5517
  349MOL0     H48134   7.941   4.143  10.557 -0.8412 -0.1902 -0.1550
  349MOL0     H48135   7.987   4.049  10.700  1.6879 -1.6844  1.1150
  349MOL0     H48136   8.176   4.161  10.604 -2.3695  0.4352  1.2189
  349MOL0     H48137   8.167   4.095  10.453 -0.1136 -1.1237 -1.4930
  349MOL0     H48138   8.177   3.851  10.607  1.0600 -0.4772  1.5838
  349MOL0     H48139   8.237   3.971  10.723  1.0190 -1.5660 -0.2365
  349MOL0     H48140   8.369   3.874  10.454  0.6954 -2.1243  0.5221
  349MOL0     H48141   8.436   3.870  10.610 -0.9729  1.1190  1.9295
  349MOL0     H48142   7.660   3.598   9.887 -3.0360 -1.9969 -0.1824
  349MOL0     H48143   7.509   3.685   9.720 -0.0406 -0.5265 -0.5821
  349MOL0     H48144   7.294   3.916   9.512  1.2213  3.0602  0.3850
  349MOL0     H48145   7.181   3.988   9.326  2.0137  0.8077  0.5117
  349MOL0     H48146   6.735   2.810   8.403  1.5269 -2.2119 -2.1156
  349MOL0     H48147   6.624   2.878   8.219  1.2755 -0.5719  0.4800
  349MOL0     H48148   6.171   3.100   8.075  2.9609 -0.3726 -0.7531
  349MOL0     H48149   6.088   3.168   7.856  0.8812  1.1614  2.7686
  349MOL0     H48150   6.143   2.885   7.503  0.0509 -0.9404 -3.3560
  349MOL0     H48151   5.982   2.873   7.576  2.2341  0.9640  3.4848
  349MOL0     H48152   5.939   2.933   7.366 -1.0393  1.9396 -2.5929
  349MOL0     H48153   6.065   3.058   7.356 -1.3584  0.2800 -0.3872
  349MOL0     H48154   5.821   3.097   7.542 -2.5231  3.1160  0.0016
  349MOL0     H48155   5.924   3.215   7.481  0.3989  0.3648 -1.8501
  349MOL0     H48156   5.730   3.236   7.343  3.4319  1.6992  1.3147
  349MOL0     H48157   5.721   3.055   7.329  1.4054 -0.4317 -0.1872
  349MOL0     H48158   5.969   3.103   7.012  0.5891 -0.0436  1.0400
  349MOL0     H48159   6.174   2.776   7.707  3.7918 -1.4285  2.7328
  349MOL0     H48160   6.196   2.587   7.864  1.7207 -0.1808 -1.3805
  349MOL0     H48161   6.353   2.640   7.898 -0.0093  2.8247 -0.1538
  349MOL0     H48162   6.228   2.638   8.032 -0.9889  2.5754  0.9600
  350MOL0     O48163  11.415   3.776  10.550 -0.2740  0.0916  0.7398
  350MOL0     C48164  11.503   3.695  10.581 -0.9348 -0.4009  0.0542
  350MOL0     O48165  11.631   3.723  10.569 -0.3699  0.1244  0.0677
  350MOL0     C48166  11.684   3.799  10.466 -0.1483  0.3473 -0.2876
  350MOL0     C48167  11.761   3.907  10.508  0.4616  0.7310  0.8358
  350MOL0     C48168  11.816   3.991  10.410 -0.2612  0.2907  0.1467
  350MOL0     C48169  11.822   3.948  10.272  0.3083  0.3178 -0.3545
  350MOL0     O48170  11.909   4.015  10.190 -0.3764  1.0023 -0.5373
  350MOL0     C48171  11.839   4.118  10.104  0.0898 -0.8439 -0.2930
  350MOL0     C48172  11.932   4.236  10.060  0.0237 -0.2886  0.8013
  350MOL0     C48173  12.041   4.190   9.966 -0.2225  0.3820 -0.8468
  350MOL0     C48174  11.999   4.167   9.818 -0.2400  0.1804 -0.2666
  350MOL0     C48175  12.105   4.158   9.710 -0.8660  0.4675 -0.1722
  350MOL0     C48176  12.053   4.107   9.578 -0.3963  0.6268 -0.4143
  350MOL0     C48177  12.147   4.084   9.456 -0.8795  0.4852 -0.0807
  350MOL0     C48178  12.221   4.211   9.414 -0.0955  0.4700 -1.0674
  350MOL0     N48179  12.122   4.322   9.375 -0.2417 -1.3141  0.5933
  350MOL0     C48180  12.032   4.300   9.273 -0.0203 -0.2225 -0.0999
  350MOL0     C48181  12.001   4.413   9.216 -0.2835  0.3202  0.0042
  350MOL0     C48182  11.920   4.427   9.094  0.6047 -0.3426  0.5525
  350MOL0     C48183  11.998   4.372   8.983 -0.0153 -0.9741  0.2122
  350MOL0     C48184  12.088   4.482   8.921 -0.4114  0.6394  0.0497
  350MOL0     C48185  12.214   4.409   8.864 -0.9477 -0.6645  0.0630
  350MOL0     O48186  12.315   4.411   8.963 -0.9440  0.1167  0.6027
  350MOL0     C48187  12.389   4.526   8.974  0.1750 -0.9203  0.6418
  350MOL0     C48188  12.383   4.634   8.877 -0.0395  0.8866 -0.2224
  350MOL0     C48189  12.479   4.735   8.891 -1.1449  0.5003 -0.5357
  350MOL0     C48190  12.496   4.833   8.776  0.2089  0.5238 -0.6514
  350MOL0     C48191  12.575   4.736   8.997 -0.0979 -0.5230  0.2450
  350MOL0     C48192  12.695   4.828   9.000 -0.1433  0.3867 -0.0936
  350MOL0     O48193  12.791   4.802   9.096 -0.5270  0.0359  0.1712
  350MOL0     C48194  12.897   4.886   9.121 -0.5741 -0.3937  0.0488
  350MOL0     C48195  13.016   4.830   9.166  0.0541  0.0509  0.5957
  350MOL0     C48196  13.121   4.903   9.206  1.3295  0.4776 -0.1628
  350MOL0     C48197  13.106   5.049   9.192 -1.6491  0.0387  1.3825
  350MOL0     O48198  13.219   5.129   9.198 -0.7351 -0.5848 -0.6556
  350MOL0     C48199  13.274   5.160   9.071 -1.2107  1.0106 -0.0598
  350MOL0     C48200  13.384   5.276   9.081  0.3103  0.5293  0.1904
  350MOL0     C48201  13.304   5.408   9.106 -0.7784  0.0952  0.2631
  350MOL0     C48202  13.220   5.428   9.234 -0.0591  0.0081  0.0275
  350MOL0     C48203  13.171   5.572   9.230  0.0056 -0.5707 -0.1153
  350MOL0     C48204  13.124   5.608   9.372  0.9563  0.3866 -0.4193
  350MOL0     C48205  13.062   5.749   9.377  1.1061  0.2557 -0.2641
  350MOL0     C48206  13.024   5.780   9.525 -0.7565  1.0464 -0.1409
  350MOL0    Cl48207  13.153   5.756   9.639 -0.0325 -0.2092 -0.1173
  350MOL0     C48208  12.984   5.104   9.159 -0.1166 -0.6781 -0.5701
  350MOL0     C48209  12.872   5.024   9.128  0.1279  0.1609  0.7582
  350MOL0     O48210  12.696   4.919   8.925  0.3354  0.4431 -0.5214
  350MOL0     C48211  12.569   4.626   9.086 -1.4002  0.0901 -0.5158
  350MOL0     C48212  12.485   4.527   9.072  0.6899  0.8695  0.3850
  350MOL0     N48213  12.085   4.509   9.273  0.4455  0.2441  0.6007
  350MOL0     N48214  12.157   4.449   9.364  0.2979  0.1197  0.0072
  350MOL0     C48215  11.753   3.833  10.236  0.0802  0.1497 -0.3044
  350MOL0     C48216  11.684   3.755  10.335 -0.5311 -0.4013 -0.3903
  350MOL0     C48217  11.474   3.572  10.658  0.8382 -0.2632 -0.6068
  350MOL0     C48218  11.580   3.487  10.694  0.6387 -1.0206 -0.8375
  350MOL0     C48219  11.562   3.385  10.773 -0.0765 -0.2597 -0.3178
  350MOL0     C48220  11.437   3.344  10.820  0.0577  0.5247 -0.3810
  350MOL0     O48221  11.407   3.240  10.899  0.3220 -0.2614  0.1496
  350MOL0     C48222  11.494   3.134  10.931 -0.3536  0.3075 -0.8272
  350MOL0     C48223  11.565   3.153  11.066 -0.3050 -0.4807 -0.5259
  350MOL0     C48224  11.499   3.079  11.179  0.3602  0.2522  0.2488
  350MOL0     C48225  11.578   3.103  11.303  0.4258  0.1170 -0.0901
  350MOL0     C48226  11.527   3.034  11.419  0.4297 -0.2842 -0.1886
  350MOL0     C48227  11.473   2.979  11.514  0.5664 -1.0003  0.2532
  350MOL0     C48228  11.326   3.411  10.774 -0.4819 -0.6049 -0.5610
  350MOL0     C48229  11.343   3.530  10.698  0.0655 -0.2853 -0.5574
  350MOL0     C48230  11.209   3.597  10.658 -0.5856 -0.1618 -0.4350
  350MOL0     H48231  11.766   3.938  10.612  0.2840  2.2983  0.3924
  350MOL0     H48232  11.877   4.075  10.441 -0.6165  0.4575  0.3991
  350MOL0     H48233  11.764   4.164  10.169  0.7295  2.2091 -1.5418
  350MOL0     H48234  11.798   4.067  10.016 -0.6143 -0.4626 -0.1953
  350MOL0     H48235  11.881   4.316  10.006  1.3407  0.9315  1.3075
  350MOL0     H48236  11.981   4.280  10.148  0.1881 -0.0427  0.5884
  350MOL0     H48237  12.123   4.262   9.966  0.1801  0.1420  3.2939
  350MOL0     H48238  12.089   4.100  10.006  1.3019  2.6039  2.7918
  350MOL0     H48239  11.928   4.084   9.810 -0.0220  0.0489 -0.8328
  350MOL0     H48240  11.937   4.255   9.796  1.6089  0.8081 -3.5492
  350MOL0     H48241  12.192   4.097   9.733 -0.7574  1.6267  2.8408
  350MOL0     H48242  12.148   4.257   9.691  5.4817 -2.1468 -1.8671
  350MOL0     H48243  11.996   4.015   9.594  0.4817 -0.3491 -2.4713
  350MOL0     H48244  11.985   4.177   9.528 -1.3561 -0.0124 -0.0536
  350MOL0     H48245  12.096   4.044   9.368 -1.4462  1.8620 -0.3969
  350MOL0     H48246  12.221   4.010   9.489 -0.3716  1.8167  1.9253
  350MOL0     H48247  12.280   4.232   9.503  0.4910 -3.6838 -0.2849
  350MOL0     H48248  12.283   4.191   9.326 -0.7387  0.2114 -1.4765
  350MOL0     H48249  11.988   4.207   9.239 -0.8492  0.0906  0.1088
  350MOL0     H48250  11.897   4.533   9.079 -0.2832 -0.5447  0.4489
  350MOL0     H48251  11.825   4.381   9.119  0.3517 -1.3438 -1.9481
  350MOL0     H48252  12.057   4.283   9.008 -2.8935 -2.8037  1.0386
  350MOL0     H48253  11.925   4.337   8.909 -2.0835  1.1611  1.1176
  350MOL0     H48254  12.037   4.526   8.835 -3.0970  2.2680  2.3411
  350MOL0     H48255  12.118   4.555   8.996 -3.6309  1.8439  0.3103
  350MOL0     H48256  12.182   4.308   8.840 -1.5043 -0.4781 -0.0046
  350MOL0     H48257  12.229   4.451   8.764 -1.3871 -0.1754  0.1935
  350MOL0     H48258  12.313   4.629   8.794 -0.1079 -1.9653 -0.1093
  350MOL0     H48259  12.591   4.816   8.723  1.3825  1.7505  0.9772
  350MOL0     H48260  12.489   4.938   8.805 -2.1057 -0.5402  3.3023
  350MOL0     H48261  12.420   4.800   8.704 -0.1365  3.6390 -1.8301
  350MOL0     H48262  13.024   4.721   9.167 -1.1896 -0.0693 -0.2978
  350MOL0     H48263  13.215   4.873   9.251  0.9410  0.1521  0.4527
  350MOL0     H48264  13.309   5.064   9.032  0.0218  1.1065  0.7466
  350MOL0     H48265  13.189   5.194   9.012 -2.5066 -0.1184  1.0692
  350MOL0     H48266  13.449   5.243   9.163 -2.6826  1.3531  3.1186
  350MOL0     H48267  13.440   5.273   8.987 -2.0453 -0.9409 -1.2826
  350MOL0     H48268  13.243   5.417   9.015 -0.3766 -1.9811 -0.2643
  350MOL0     H48269  13.385   5.481   9.096 -0.9769  0.0076 -4.4543
  350MOL0     H48270  13.278   5.405   9.323 -1.1557 -0.4314  0.6467
  350MOL0     H48271  13.136   5.357   9.232  0.1043 -0.1921  0.2103
  350MOL0     H48272  13.244   5.652   9.210 -1.9201  1.6567  1.2630
  350MOL0     H48273  13.093   5.580   9.154 -0.2457 -2.8248 -0.1555
  350MOL0     H48274  13.209   5.595   9.440 -0.2390 -0.1353  1.0338
  350MOL0     H48275  13.042   5.543   9.403  0.7615  0.7347 -0.1891
  350MOL0     H48276  12.973   5.756   9.312  0.8307 -0.9107 -0.0245
  350MOL0     H48277  13.135   5.823   9.342 -0.2550  1.0488 -1.5751
  350MOL0     H48278  12.937   5.716   9.545  0.4041  0.0644  2.0948
  350MOL0     H48279  12.984   5.882   9.525 -2.4154  0.4545  1.1712
  350MOL0     H48280  12.971   5.212   9.170 -0.1055 -0.5099 -2.0355
  350MOL0     H48281  12.773   5.064   9.107  0.1666  1.9829  3.4514
  350MOL0     H48282  12.636   4.604   9.168 -0.8915 -1.5961 -1.3384
  350MOL0     H48283  12.479   4.444   9.142 -0.8504  0.8241  0.2390
  350MOL0     H48284  11.742   3.801  10.133  1.0868  1.9896 -1.0359
  350MOL0     H48285  11.635   3.663  10.307  0.3172 -1.0967  0.3629
  350MOL0     H48286  11.686   3.501  10.675  0.8013 -0.2937  0.5015
  350MOL0     H48287  11.653   3.335  10.804 -1.1073 -1.6119  0.6257
  350MOL0     H48288  11.436   3.042  10.924 -2.2472  1.4770 -1.2147
  350MOL0     H48289  11.577   3.119  10.862  1.3561 -4.5490  1.7872
  350MOL0     H48290  11.540   3.257  11.089 -1.6177 -1.1911  1.5762
  350MOL0     H48291  11.669   3.121  11.055 -0.6214 -1.3134 -1.1621
  350MOL0     H48292  11.399   3.124  11.181  0.0496 -0.4206  0.2474
  350MOL0     H48293  11.493   2.972  11.157  0.9450  0.5204 -1.3148
  350MOL0     H48294  11.567   3.210  11.323 -1.4893  0.5016 -2.7041
  350MOL0     H48295  11.677   3.057  11.302 -1.1138 -3.5610  0.0692
  350MOL0     H48296  11.407   2.932  11.583  0.6657 -0.0550  1.0186
  350MOL0     H48297  11.226   3.376  10.797 -0.6045 -0.5526 -1.0142
  350MOL0     H48298  11.129   3.592  10.732 -0.9852 -0.0832 -0.8518
  350MOL0     H48299  11.223   3.704  10.639  0.4554 -0.1714  0.2044
  350MOL0     H48300  11.171   3.562  10.561 -0.8140  1.4709 -0.9675
  351MOL0     O48301   8.652   3.769   4.745  0.0354 -0.8242  0.2477
  351MOL0     C48302   8.650   3.784   4.868  1.1630 -1.2087  0.3182
  351MOL0     O48303   8.644   3.686   4.963  0.1433 -0.0838 -0.0743
  351MOL0     C48304   8.615   3.556   4.921  0.2067 -0.3942  0.5280
  351MOL0     C48305   8.695   3.454   4.974  0.2813 -1.0582 -0.4026
  351MOL0     C48306   8.694   3.323   4.930  0.3315  0.2194  0.2513
  351MOL0     C48307   8.605   3.290   4.831  0.2124 -0.8781  0.0800
  351MOL0     O48308   8.581   3.161   4.777  0.0447 -0.9504  0.0192
  351MOL0     C48309   8.667   3.063   4.812 -0.4360  1.0400  0.1228
  351MOL0     C48310   8.623   2.938   4.740  0.1808  0.9195 -0.3163
  351MOL0     C48311   8.483   2.883   4.787 -0.4172 -0.2312  0.8209
  351MOL0     C48312   8.430   2.757   4.706 -0.2460 -0.6232  0.3090
  351MOL0     C48313   8.284   2.725   4.743 -0.3144 -0.5813  0.1302
  351MOL0     C48314   8.255   2.589   4.675 -0.9186 -1.1807 -0.3373
  351MOL0     C48315   8.104   2.567   4.661  0.5763 -0.1799 -0.7710
  351MOL0     C48316   8.060   2.477   4.555  0.2514  0.2934 -0.4779
  351MOL0     N48317   8.092   2.526   4.424  0.3464  0.5458  0.4914
  351MOL0     C48318   8.196   2.497   4.345  0.1304 -0.1726 -0.2010
  351MOL0     C48319   8.193   2.590   4.243 -0.6061 -0.1403 -0.2856
  351MOL0     C48320   8.289   2.622   4.133  0.4788  0.9020 -0.5841
  351MOL0     C48321   8.394   2.517   4.119 -0.5096 -0.6302 -0.0772
  351MOL0     C48322   8.499   2.548   4.003  0.0643  0.6630  0.4165
  351MOL0     C48323   8.638   2.490   4.014  0.5489 -0.6714  0.1316
  351MOL0     O48324   8.706   2.535   3.894 -0.2466 -0.0373  0.0667
  351MOL0     C48325   8.803   2.454   3.839  0.0985  0.0748  0.4000
  351MOL0     C48326   8.896   2.524   3.761 -0.2299 -0.7472  0.7505
  351MOL0     C48327   8.985   2.450   3.682 -0.8657 -0.8302  0.1927
  351MOL0     C48328   9.084   2.540   3.600  0.7679 -0.1968  0.6375
  351MOL0     C48329   8.990   2.312   3.685  0.7931  0.1137 -0.0446
  351MOL0     C48330   9.093   2.234   3.601 -0.4213 -0.0202 -0.2529
  351MOL0     O48331   9.139   2.125   3.662  0.0501 -0.1490  0.1610
  351MOL0     C48332   9.264   2.075   3.631  0.0901  1.4154 -0.4901
  351MOL0     C48333   9.294   2.017   3.503  0.7736  0.5753 -0.1042
  351MOL0     C48334   9.418   1.954   3.477 -0.4955  0.0659 -0.5373
  351MOL0     C48335   9.517   1.951   3.575 -0.3591 -0.3340  0.3501
  351MOL0     O48336   9.656   1.914   3.548  0.6691  1.1558  0.5176
  351MOL0     C48337   9.672   1.791   3.483 -0.4787  0.7797  0.5376
  351MOL0     C48338   9.640   1.675   3.581 -0.1453 -0.4039 -0.1249
  351MOL0     C48339   9.663   1.524   3.540 -0.8822 -0.2274  0.1525
  351MOL0     C48340   9.572   1.427   3.616  0.2004  0.2145  0.8760
  351MOL0     C48341   9.541   1.293   3.566  0.6981  0.6339  1.2979
  351MOL0     C48342   9.426   1.228   3.648  0.2737  0.0889  0.1606
  351MOL0     C48343   9.394   1.099   3.565 -0.1359 -0.0025  0.1793
  351MOL0     C48344   9.258   1.034   3.608  0.1844  0.7124  0.7881
  351MOL0    Cl48345   9.241   0.880   3.505 -0.4007 -0.2350  0.2909
  351MOL0     C48346   9.493   2.007   3.700 -0.1373  0.2067 -0.0235
  351MOL0     C48347   9.370   2.068   3.725 -0.3100 -0.5874 -0.0047
  351MOL0     O48348   9.110   2.279   3.488 -0.2848 -0.3332  0.0506
  351MOL0     C48349   8.904   2.237   3.773  0.2015  0.0962  0.3893
  351MOL0     C48350   8.814   2.314   3.849 -0.0393  0.1893  0.1518
  351MOL0     N48351   8.082   2.673   4.276 -0.3561 -0.1982  0.1662
  351MOL0     N48352   8.011   2.619   4.368  0.3518 -0.6730 -0.0052
  351MOL0     C48353   8.539   3.391   4.766 -0.6782 -0.5123  0.4262
  351MOL0     C48354   8.534   3.519   4.810 -0.1613  0.4845 -0.1638
  351MOL0     C48355   8.646   3.928   4.915 -0.1417  0.6404  0.5305
  351MOL0     C48356   8.645   4.034   4.813 -1.1332  1.3009 -0.4461
  351MOL0     C48357   8.636   4.170   4.852  0.0080 -0.3738 -0.6312
  351MOL0     C48358   8.613   4.209   4.983  0.4106 -0.7004 -0.5429
  351MOL0     O48359   8.598   4.348   4.992  0.7365  0.3310  0.0057
  351MOL0     C48360   8.609   4.410   5.118  0.3095 -0.1462 -0.0207
  351MOL0     C48361   8.606   4.560   5.102  0.3987 -0.8307 -0.3688
  351MOL0     C48362   8.742   4.620   5.066  0.0584 -0.0623  0.1028
  351MOL0     C48363   8.737   4.760   4.995  0.4503  0.0795 -0.5692
  351MOL0     C48364   8.627   4.773   4.904  1.0760 -0.7795  0.8074
  351MOL0     C48365   8.536   4.755   4.827 -0.7226  0.5531  0.3077
  351MOL0     C48366   8.592   4.115   5.080  0.2417 -0.1066  0.3054
  351MOL0     C48367   8.610   3.969   5.044  0.1886  0.5099 -0.1768
  351MOL0     C48368   8.591   3.874   5.160  0.6276  0.2166  0.1071
  351MOL0     H48369   8.762   3.494   5.050 -1.3795  1.1097  0.0192
  351MOL0     H48370   8.744   3.246   4.988  0.1930  0.2938  0.4718
  351MOL0     H48371   8.663   3.045   4.920  2.2628  0.1613  0.1730
  351MOL0     H48372   8.769   3.093   4.786  0.2250  0.3371  1.7360
  351MOL0     H48373   8.612   2.960   4.633 -3.3017 -1.0751 -0.5186
  351MOL0     H48374   8.692   2.855   4.755  0.9238  1.4914 -0.5232
  351MOL0     H48375   8.487   2.870   4.896 -1.5509 -0.1311  0.8863
  351MOL0     H48376   8.414   2.964   4.765  1.1994  0.4593 -2.1529
  351MOL0     H48377   8.436   2.775   4.599 -0.3210  2.2605  0.7115
  351MOL0     H48378   8.495   2.675   4.740 -0.5816 -0.9900  0.0725
  351MOL0     H48379   8.215   2.805   4.715  2.1688  1.9481  0.7613
  351MOL0     H48380   8.270   2.728   4.851 -1.8762 -0.2147 -0.0562
  351MOL0     H48381   8.304   2.573   4.578  2.9560  0.5962  1.1287
  351MOL0     H48382   8.291   2.504   4.733 -3.1268  0.1784  3.3396
  351MOL0     H48383   8.048   2.659   4.643 -0.3408 -0.4100  0.7422
  351MOL0     H48384   8.058   2.529   4.752 -1.0880 -0.1736 -1.5674
  351MOL0     H48385   8.118   2.385   4.564  1.2120  1.0672  1.9590
  351MOL0     H48386   7.953   2.456   4.566  0.6745 -0.9995  1.6493
  351MOL0     H48387   8.272   2.421   4.358 -0.1221 -0.8325 -2.2918
  351MOL0     H48388   8.331   2.717   4.167  0.7930 -0.0613  1.9291
  351MOL0     H48389   8.237   2.640   4.039  2.1269  1.4424 -1.4473
  351MOL0     H48390   8.447   2.511   4.214 -0.0424 -1.3150 -0.3693
  351MOL0     H48391   8.357   2.417   4.095 -1.1501 -0.8725  1.7516
  351MOL0     H48392   8.474   2.520   3.900  0.8451  0.5415  0.2533
  351MOL0     H48393   8.513   2.656   4.008  2.0871  0.4775 -0.3412
  351MOL0     H48394   8.686   2.536   4.102  0.8676  2.6197 -1.6057
  351MOL0     H48395   8.621   2.384   4.030 -3.4377 -0.0220  1.2662
  351MOL0     H48396   8.880   2.630   3.742 -2.2872 -1.2572 -0.6354
  351MOL0     H48397   9.073   2.520   3.493  1.1314  1.3274  0.3029
  351MOL0     H48398   9.185   2.516   3.631  1.7744 -0.6854 -2.6403
  351MOL0     H48399   9.073   2.646   3.627 -4.4321  0.2747 -2.0331
  351MOL0     H48400   9.212   2.017   3.432 -1.5895  5.7835  2.0686
  351MOL0     H48401   9.427   1.912   3.377 -3.4263 -3.2703  0.4011
  351MOL0     H48402   9.613   1.775   3.392 -0.6352 -3.6127  1.1899
  351MOL0     H48403   9.774   1.772   3.447 -0.8818  0.0202 -0.2562
  351MOL0     H48404   9.708   1.683   3.666 -2.7708 -1.2674  2.1859
  351MOL0     H48405   9.538   1.700   3.613  0.3818  0.7303  0.7489
  351MOL0     H48406   9.766   1.490   3.557 -0.1730  2.3255  1.4346
  351MOL0     H48407   9.645   1.509   3.433  0.1396 -3.9279  0.3523
  351MOL0     H48408   9.478   1.475   3.643 -1.2984 -1.4376 -1.0661
  351MOL0     H48409   9.626   1.401   3.708  1.7836 -0.7577 -0.2634
  351MOL0     H48410   9.496   1.297   3.466  1.4529 -5.3230  0.3344
  351MOL0     H48411   9.629   1.229   3.555  0.8839  0.8564  1.4929
  351MOL0     H48412   9.340   1.295   3.644 -1.0593 -1.5933 -0.2748
  351MOL0     H48413   9.451   1.196   3.750  0.9681  1.5281  0.4689
  351MOL0     H48414   9.469   1.022   3.581  0.5518  0.8704  1.3636
  351MOL0     H48415   9.375   1.117   3.459  0.0332 -0.5719  0.0527
  351MOL0     H48416   9.171   1.099   3.595 -0.8300 -0.5140  1.3213
  351MOL0     H48417   9.250   1.004   3.713  0.2233  0.2164  0.6521
  351MOL0     H48418   9.573   2.021   3.772  0.5156  1.5022 -0.9550
  351MOL0     H48419   9.338   2.107   3.822 -2.4965 -0.4887 -0.7029
  351MOL0     H48420   8.914   2.129   3.782  0.8285 -0.1588 -2.3019
  351MOL0     H48421   8.748   2.259   3.916  0.7982 -1.8085 -0.5726
  351MOL0     H48422   8.495   3.372   4.669  0.6648  1.5219 -0.6586
  351MOL0     H48423   8.478   3.594   4.756 -0.0973  0.9347  0.3862
  351MOL0     H48424   8.640   4.008   4.708 -0.9554  1.0787 -0.3998
  351MOL0     H48425   8.637   4.245   4.774  0.3290 -2.1392 -2.3884
  351MOL0     H48426   8.519   4.372   5.168  0.7918  0.5870  1.4550
  351MOL0     H48427   8.702   4.371   5.160  1.7656  1.9923 -1.1027
  351MOL0     H48428   8.563   4.611   5.188  0.8687  1.5771 -1.4928
  351MOL0     H48429   8.535   4.581   5.022 -0.1292 -0.7396  0.1209
  351MOL0     H48430   8.805   4.629   5.154  0.1870 -0.7294  0.0801
  351MOL0     H48431   8.793   4.556   4.994 -0.2297  0.1195 -0.2698
  351MOL0     H48432   8.834   4.790   4.953  0.6809 -0.8803 -0.7419
  351MOL0     H48433   8.725   4.833   5.076  2.9742  0.4224 -0.4112
  351MOL0     H48434   8.456   4.747   4.756 -0.3757  0.9526 -0.1409
  351MOL0     H48435   8.564   4.145   5.180  1.1418 -0.0116  0.5379
  351MOL0     H48436   8.685   3.819   5.173 -0.0873 -1.6390 -1.9212
  351MOL0     H48437   8.567   3.924   5.254 -0.8223  0.9089 -0.5988
  351MOL0     H48438   8.506   3.806   5.144  1.2587 -1.1697  2.1856
  352MOL0     O48439  11.107   3.529   2.772 -0.4961 -0.0474  0.0901
  352MOL0     C48440  11.088   3.454   2.677  0.5920 -0.2024  0.4977
  352MOL0     O48441  11.177   3.349   2.639 -0.2371  0.4467  0.1556
  352MOL0     C48442  11.295   3.333   2.693 -0.7377  0.4918  0.0037
  352MOL0     C48443  11.399   3.428   2.670  0.6920 -0.1934 -0.4597
  352MOL0     C48444  11.525   3.403   2.717  0.6975 -0.5144 -0.1328
  352MOL0     C48445  11.559   3.280   2.794  0.4511  0.1773 -0.2751
  352MOL0     O48446  11.675   3.256   2.867  0.1805 -0.3699 -0.4497
  352MOL0     C48447  11.799   3.301   2.818 -0.2360 -0.3349  0.8719
  352MOL0     C48448  11.906   3.183   2.807  0.5280 -0.0363 -1.0289
  352MOL0     C48449  12.043   3.233   2.771  0.6407 -0.0268  0.3483
  352MOL0     C48450  12.148   3.127   2.783 -0.2264  0.1612  0.2499
  352MOL0     C48451  12.280   3.170   2.721  0.1068 -0.7140 -0.6185
  352MOL0     C48452  12.340   3.308   2.779  0.1234  0.3487  0.0020
  352MOL0     C48453  12.420   3.301   2.904  0.6364  0.9523 -0.8847
  352MOL0     C48454  12.347   3.232   3.022 -1.0068 -0.3211  0.3199
  352MOL0     N48455  12.226   3.298   3.063  1.1899 -0.1105  0.3574
  352MOL0     C48456  12.212   3.436   3.032  0.8180  0.3742  0.1030
  352MOL0     C48457  12.085   3.474   3.083  0.2013  1.0342 -0.6801
  352MOL0     C48458  12.027   3.606   3.073  0.0313  0.0420 -0.3369
  352MOL0     C48459  11.879   3.609   3.080  1.5597 -0.0316 -0.3186
  352MOL0     C48460  11.829   3.756   3.086  0.4712  0.4744  0.9434
  352MOL0     C48461  11.687   3.777   3.026  0.3546  0.0088  0.4808
  352MOL0     O48462  11.665   3.916   3.035  0.1505  0.2402 -0.2659
  352MOL0     C48463  11.553   3.964   2.978 -0.7623  0.2374  0.2192
  352MOL0     C48464  11.463   3.888   2.896 -0.6942 -0.9556 -0.2432
  352MOL0     C48465  11.350   3.945   2.837  0.9750 -0.1633  0.2087
  352MOL0     C48466  11.264   3.848   2.750 -0.6399  0.2341  1.5668
  352MOL0     C48467  11.327   4.081   2.857  0.8152 -0.4870  0.3959
  352MOL0     C48468  11.207   4.156   2.795  0.6331  0.7941  0.5070
  352MOL0     O48469  11.215   4.286   2.766 -0.8255  0.5211  0.0509
  352MOL0     C48470  11.098   4.340   2.713  0.0924  0.3512  0.0341
  352MOL0     C48471  11.006   4.391   2.809 -0.0140  0.3338  0.7053
  352MOL0     C48472  10.879   4.440   2.763 -0.1332  0.4058  0.6978
  352MOL0     C48473  10.859   4.456   2.631  0.0672 -0.2114 -0.6031
  352MOL0     O48474  10.737   4.514   2.587 -0.3090 -0.5623 -0.0672
  352MOL0     C48475  10.733   4.661   2.578 -0.7178 -0.3297 -0.5489
  352MOL0     C48476  10.699   4.733   2.717 -0.3538  0.0113  0.0511
  352MOL0     C48477  10.724   4.879   2.721  0.5869 -0.1931  0.2135
  352MOL0     C48478  10.835   4.937   2.816 -0.1181  0.7842  1.1929
  352MOL0     C48479  10.963   4.852   2.796 -0.0219  0.3923 -0.1755
  352MOL0     C48480  11.095   4.925   2.851 -0.1476 -0.9509 -0.7278
  352MOL0     C48481  11.072   4.954   2.999  0.0781 -0.0395  0.2436
  352MOL0     C48482  11.207   4.968   3.073  0.9503  0.6653 -0.4676
  352MOL0    Cl48483  11.196   4.952   3.249  0.0519  0.4247  0.2222
  352MOL0     C48484  10.960   4.431   2.539  0.1732  0.0028 -0.4795
  352MOL0     C48485  11.077   4.367   2.585 -0.6465 -0.5430  0.8981
  352MOL0     O48486  11.106   4.085   2.784  0.0695  0.2103  0.3435
  352MOL0     C48487  11.412   4.157   2.943  0.2154 -0.1289 -0.0739
  352MOL0     C48488  11.514   4.093   3.003 -0.1945  0.2288 -0.1601
  352MOL0     N48489  12.031   3.366   3.143 -0.1534 -0.2667  0.2483
  352MOL0     N48490  12.116   3.258   3.132  0.0535  0.4370 -0.8268
  352MOL0     C48491  11.457   3.187   2.810  0.0987 -0.4489  0.0513
  352MOL0     C48492  11.331   3.219   2.757  0.5112 -0.0679  0.7343
  352MOL0     C48493  10.964   3.460   2.604  0.0928  0.2007 -0.2836
  352MOL0     C48494  10.876   3.348   2.620  0.0203  0.0651 -0.4382
  352MOL0     C48495  10.745   3.341   2.563 -0.1666  0.0812 -0.5074
  352MOL0     C48496  10.703   3.451   2.489  0.0872 -0.1493 -0.1352
  352MOL0     O48497  10.573   3.453   2.446 -0.6369 -0.3024 -0.0814
  352MOL0     C48498  10.487   3.569   2.460 -0.5839  0.6118 -0.1115
  352MOL0     C48499  10.345   3.517   2.428  0.1492  0.4144 -0.6838
  352MOL0     C48500  10.236   3.624   2.410 -0.3438 -0.0593  0.2237
  352MOL0     C48501  10.088   3.564   2.420  0.3269  0.6826 -0.1231
  352MOL0     C48502   9.997   3.642   2.338 -0.6509  0.0250 -0.6366
  352MOL0     C48503   9.927   3.729   2.284 -0.5740 -0.4462 -0.1163
  352MOL0     C48504  10.788   3.563   2.481  0.7438  0.7003  0.2424
  352MOL0     C48505  10.919   3.576   2.533 -0.9200 -0.5158 -0.1407
  352MOL0     C48506  10.997   3.698   2.508 -0.4028  0.1576 -0.8112
  352MOL0     H48507  11.372   3.521   2.622  1.2733 -0.3167 -1.0304
  352MOL0     H48508  11.592   3.488   2.709 -2.3975  1.9512 -2.7876
  352MOL0     H48509  11.838   3.386   2.875 -2.4992 -0.2716  2.4301
  352MOL0     H48510  11.780   3.338   2.717 -1.6687  0.8762  1.5589
  352MOL0     H48511  11.915   3.133   2.904  0.3075  1.5090 -0.1806
  352MOL0     H48512  11.865   3.121   2.727 -1.6369  0.5466 -0.4288
  352MOL0     H48513  12.030   3.263   2.667 -1.5625  0.1358  0.6258
  352MOL0     H48514  12.068   3.320   2.834 -1.4773  0.0749  1.1375
  352MOL0     H48515  12.158   3.111   2.891  0.6968  2.6629  0.5880
  352MOL0     H48516  12.116   3.030   2.745  0.2925 -1.0983  2.7960
  352MOL0     H48517  12.266   3.187   2.613  0.2526 -0.5390 -0.6100
  352MOL0     H48518  12.349   3.086   2.721 -0.1862 -0.9570 -0.3737
  352MOL0     H48519  12.414   3.345   2.707  0.5452 -1.8307 -0.7724
  352MOL0     H48520  12.264   3.386   2.790 -1.8824 -0.9392 -3.3229
  352MOL0     H48521  12.451   3.403   2.929  3.5395  0.4985 -2.2515
  352MOL0     H48522  12.515   3.249   2.887  0.0026 -0.4652 -0.2854
  352MOL0     H48523  12.332   3.125   3.008 -1.9158 -0.1040 -0.4116
  352MOL0     H48524  12.419   3.237   3.104 -1.5660  0.8059  0.7666
  352MOL0     H48525  12.286   3.509   3.000  0.5419  0.8143  0.4581
  352MOL0     H48526  12.065   3.646   2.978  3.7940 -1.8153  0.1671
  352MOL0     H48527  12.068   3.676   3.146  1.1239  0.4591 -1.2996
  352MOL0     H48528  11.836   3.550   2.998  2.9606 -1.7793  0.1380
  352MOL0     H48529  11.847   3.565   3.175 -0.9689  0.3578 -0.9186
  352MOL0     H48530  11.821   3.778   3.193 -3.5681  2.8953  0.3474
  352MOL0     H48531  11.896   3.828   3.036 -2.3182  1.7943 -1.1663
  352MOL0     H48532  11.679   3.735   2.926 -3.8094 -1.1507  1.1227
  352MOL0     H48533  11.608   3.725   3.082  0.5932  0.5416  1.3374
  352MOL0     H48534  11.479   3.788   2.857 -0.0376  0.7271 -4.9821
  352MOL0     H48535  11.238   3.881   2.648 -3.1750 -4.1764  0.5567
  352MOL0     H48536  11.168   3.834   2.801 -1.1754 -3.9584 -0.2290
  352MOL0     H48537  11.309   3.752   2.727 -1.9328 -0.4782  1.9319
  352MOL0     H48538  11.039   4.373   2.911 -0.4648 -0.5022  0.7219
  352MOL0     H48539  10.799   4.460   2.833 -0.3334 -1.1048  0.9372
  352MOL0     H48540  10.830   4.689   2.537 -0.7889  0.6341 -0.0888
  352MOL0     H48541  10.657   4.695   2.506  1.9708  2.3655 -2.3556
  352MOL0     H48542  10.593   4.715   2.736 -0.9004  1.1270 -1.6863
  352MOL0     H48543  10.756   4.689   2.799 -1.2386 -0.3392  0.4932
  352MOL0     H48544  10.633   4.933   2.748  1.1138 -0.2760  2.2948
  352MOL0     H48545  10.748   4.907   2.618 -0.6670  4.0454  0.8707
  352MOL0     H48546  10.794   4.929   2.918  0.6249 -1.9559  1.3407
  352MOL0     H48547  10.855   5.035   2.772  0.6466  0.3827  0.6370
  352MOL0     H48548  10.964   4.753   2.843 -1.3961 -1.0824 -2.9849
  352MOL0     H48549  10.971   4.832   2.689  2.0149  3.1835 -0.6508
  352MOL0     H48550  11.107   5.018   2.795  0.1513  1.6456  3.1967
  352MOL0     H48551  11.177   4.858   2.825  0.2555 -0.5151 -0.5990
  352MOL0     H48552  11.036   4.862   3.045  1.7390 -0.3680  0.9781
  352MOL0     H48553  11.013   5.041   3.031  1.5019 -0.0592  3.3482
  352MOL0     H48554  11.250   5.067   3.058  0.3488  0.6464 -2.6736
  352MOL0     H48555  11.272   4.886   3.041 -0.4528 -0.3811 -0.7799
  352MOL0     H48556  10.949   4.463   2.436  0.0854  1.2306 -0.1178
  352MOL0     H48557  11.146   4.346   2.505 -3.5956 -0.0157 -2.0015
  352MOL0     H48558  11.401   4.264   2.954  0.6410 -0.1055  0.1351
  352MOL0     H48559  11.592   4.140   3.062  1.5669 -1.6102 -0.8961
  352MOL0     H48560  11.478   3.108   2.880  1.0780  0.7935  1.2256
  352MOL0     H48561  11.246   3.154   2.779  1.0872 -1.8212 -1.8503
  352MOL0     H48562  10.908   3.256   2.669  1.7054  1.4080  1.1065
  352MOL0     H48563  10.675   3.261   2.584 -2.0664  1.5422 -1.0342
  352MOL0     H48564  10.488   3.624   2.555 -2.1841  1.4615 -0.5557
  352MOL0     H48565  10.519   3.644   2.388 -0.1506 -0.8684 -1.5395
  352MOL0     H48566  10.308   3.458   2.512 -3.9072  1.2866 -1.6461
  352MOL0     H48567  10.340   3.455   2.338  1.7508  0.5264 -0.8929
  352MOL0     H48568  10.243   3.708   2.479  1.0915  1.4892 -1.6920
  352MOL0     H48569  10.245   3.667   2.310 -4.0652 -3.2681 -1.7594
  352MOL0     H48570  10.062   3.564   2.526  2.7627 -0.2131  0.5391
  352MOL0     H48571  10.081   3.461   2.382 -2.9066  1.3050 -1.5263
  352MOL0     H48572   9.873   3.814   2.247 -1.0604 -0.4147  0.6419
  352MOL0     H48573  10.752   3.653   2.432 -1.9437 -1.1063 -1.3001
  352MOL0     H48574  10.934   3.783   2.478  2.2909  1.9747 -1.6685
  352MOL0     H48575  11.037   3.727   2.606 -0.5943 -0.9247 -0.4051
  352MOL0     H48576  11.070   3.687   2.427  1.2604  1.4335  0.4364
  353MOL0     O48577   5.645   5.575   0.506 -0.1539 -0.1597 -0.2072
  353MOL0     C48578   5.750   5.644   0.497  0.5164  0.6273  0.8858
  353MOL0     O48579   5.846   5.654   0.591  0.4774  0.9499 -0.2144
  353MOL0     C48580   5.817   5.616   0.721 -0.1305 -0.2970 -0.0556
  353MOL0     C48581   5.924   5.563   0.796  0.3329 -0.5096 -0.5320
  353MOL0     C48582   5.898   5.523   0.928  0.2499 -0.5891  0.5764
  353MOL0     C48583   5.776   5.546   0.992 -0.0776 -0.4074 -0.2071
  353MOL0     O48584   5.751   5.508   1.128  0.0510 -0.8267  0.9137
  353MOL0     C48585   5.850   5.485   1.221 -0.9239  0.2657 -0.2172
  353MOL0     C48586   5.783   5.427   1.344 -0.6769  0.6699  0.8474
  353MOL0     C48587   5.694   5.527   1.419  0.6993  0.4723  0.1675
  353MOL0     C48588   5.650   5.474   1.563 -0.6550  0.4232  0.0550
  353MOL0     C48589   5.557   5.573   1.647  0.0949  0.1341 -0.7688
  353MOL0     C48590   5.417   5.610   1.595  0.4998  0.1485 -0.1068
  353MOL0     C48591   5.333   5.486   1.614  0.9941 -0.2111  0.0569
  353MOL0     C48592   5.200   5.504   1.551 -0.6097 -0.2391  0.2208
  353MOL0     N48593   5.128   5.378   1.534  0.4392 -0.5600  0.0411
  353MOL0     C48594   5.145   5.296   1.430 -0.5699 -0.2006  0.6372
  353MOL0     C48595   5.035   5.223   1.417 -0.7919  0.0642 -1.1969
  353MOL0     C48596   5.016   5.117   1.314 -0.4417 -0.8013  0.4500
  353MOL0     C48597   5.078   4.985   1.353  0.4685  0.7140 -0.2528
  353MOL0     C48598   5.003   4.921   1.463  0.1940 -0.0532 -0.0042
  353MOL0     C48599   5.061   4.792   1.520 -0.4760  0.3746  1.2085
  353MOL0     O48600   5.080   4.702   1.411  0.6897 -0.2896 -0.0061
  353MOL0     C48601   4.982   4.602   1.398  0.2539 -0.5772  0.3718
  353MOL0     C48602   4.990   4.489   1.478 -0.6624  0.4517 -0.3823
  353MOL0     C48603   4.904   4.376   1.481 -0.3832 -0.7218  0.7303
  353MOL0     C48604   4.950   4.260   1.572 -0.4019 -0.5246  1.4854
  353MOL0     C48605   4.786   4.387   1.399  0.6589 -0.3507 -0.0253
  353MOL0     C48606   4.681   4.281   1.401 -1.1190  0.2886  0.0372
  353MOL0     O48607   4.563   4.311   1.338  0.0017 -0.1618 -0.1326
  353MOL0     C48608   4.470   4.214   1.325  0.2201 -0.4975 -0.7943
  353MOL0     C48609   4.448   4.142   1.210 -0.2408  0.0803 -0.2674
  353MOL0     C48610   4.335   4.054   1.212 -0.2940  0.7651 -0.2715
  353MOL0     C48611   4.256   4.035   1.331  0.3179 -0.4484 -0.2330
  353MOL0     O48612   4.143   3.953   1.328 -0.2453  0.3722 -0.3597
  353MOL0     C48613   4.105   3.887   1.207 -0.6407  0.0996  0.5638
  353MOL0     C48614   3.966   3.819   1.224  0.4277  0.0772  1.0634
  353MOL0     C48615   3.905   3.756   1.095 -1.3656 -0.5821 -0.4343
  353MOL0     C48616   3.778   3.672   1.126 -0.4670  0.0757  0.4435
  353MOL0     C48617   3.717   3.608   1.002 -0.0575  0.0369  0.7003
  353MOL0     C48618   3.613   3.513   1.055 -0.0889 -0.2864 -0.7847
  353MOL0     C48619   3.530   3.479   0.930 -0.0762 -0.8199 -0.7734
  353MOL0     C48620   3.434   3.375   0.976 -0.2055  0.1491 -0.4700
  353MOL0    Cl48621   3.316   3.323   0.860 -0.2588  0.4631  0.6963
  353MOL0     C48622   4.298   4.096   1.442  0.0414 -0.5444 -0.0616
  353MOL0     C48623   4.392   4.200   1.441  0.4487  0.4571 -0.6931
  353MOL0     O48624   4.698   4.175   1.462  0.3719  0.0362 -0.4229
  353MOL0     C48625   4.776   4.499   1.314 -0.8873 -0.3829  0.8162
  353MOL0     C48626   4.867   4.608   1.320  0.8092 -0.8504 -0.1392
  353MOL0     N48627   4.944   5.254   1.519  0.2878 -0.1285  0.2605
  353MOL0     N48628   4.998   5.349   1.584  0.3634  0.1860  0.6850
  353MOL0     C48629   5.670   5.601   0.915  0.5125 -0.3674 -0.7682
  353MOL0     C48630   5.690   5.640   0.782  0.1920  0.0422  0.0701
  353MOL0     C48631   5.789   5.717   0.373  0.1868  0.1537  0.2754
  353MOL0     C48632   5.925   5.733   0.334  0.3801  0.5134 -0.3870
  353MOL0     C48633   5.975   5.809   0.224 -0.6416 -0.5084  0.1274
  353MOL0     C48634   5.877   5.869   0.145 -0.1406 -0.6053 -0.8984
  353MOL0     O48635   5.899   5.940   0.027 -0.3470  0.0379  0.6325
  353MOL0     C48636   5.820   6.063   0.008 -0.0864  0.0960 -0.0163
  353MOL0     C48637   5.894   6.139  -0.103  0.5727  0.0716  0.3976
  353MOL0     C48638   5.815   6.268  -0.123 -0.3778 -0.2224  0.0941
  353MOL0     C48639   5.889   6.370  -0.216  1.6453 -1.0475  0.0343
  353MOL0     C48640   5.816   6.497  -0.191 -0.0964  1.3117  0.2683
  353MOL0     C48641   5.767   6.606  -0.158  0.1339  1.8898 -1.0428
  353MOL0     C48642   5.741   5.847   0.179 -0.0379 -0.6757  0.7345
  353MOL0     C48643   5.693   5.770   0.287 -0.1532 -0.5234  0.6124
  353MOL0     C48644   5.546   5.769   0.306 -0.1060  0.6083  0.0253
  353MOL0     H48645   6.021   5.552   0.748 -1.4043 -1.5243 -4.1568
  353MOL0     H48646   5.987   5.497   0.985  1.1309  0.7285 -0.1437
  353MOL0     H48647   5.896   5.581   1.243 -1.0785  0.1910  0.4412
  353MOL0     H48648   5.938   5.425   1.199 -0.9596  0.0646  0.1869
  353MOL0     H48649   5.716   5.346   1.311 -1.6739  2.7668 -2.8839
  353MOL0     H48650   5.865   5.379   1.397 -0.0134 -1.5775 -1.9253
  353MOL0     H48651   5.753   5.618   1.432  0.2296  0.7516  0.3733
  353MOL0     H48652   5.609   5.555   1.356 -0.1912  0.2437  1.2312
  353MOL0     H48653   5.611   5.372   1.557  0.9103 -0.1806 -0.2649
  353MOL0     H48654   5.740   5.466   1.624 -0.6534 -0.0278 -0.0012
  353MOL0     H48655   5.616   5.663   1.667 -2.3294  2.4745 -3.2854
  353MOL0     H48656   5.538   5.511   1.735 -0.7997  1.5389  0.0737
  353MOL0     H48657   5.378   5.687   1.662  0.6541  0.0760  0.0650
  353MOL0     H48658   5.418   5.636   1.489  2.0002  1.0838  0.1183
  353MOL0     H48659   5.319   5.477   1.722  0.0968  1.1241  0.0832
  353MOL0     H48660   5.377   5.395   1.573  0.3334 -0.7323  0.4986
  353MOL0     H48661   5.136   5.565   1.616 -0.3595  1.5838 -1.2014
  353MOL0     H48662   5.209   5.557   1.457  0.9111 -0.3267  0.2928
  353MOL0     H48663   5.236   5.289   1.371  1.5282 -0.4861  3.6722
  353MOL0     H48664   5.071   5.146   1.224  1.7693 -1.2128  1.5929
  353MOL0     H48665   4.910   5.102   1.293 -0.3097 -2.1715  0.6166
  353MOL0     H48666   5.072   4.924   1.262 -0.2796 -1.0042  0.8849
  353MOL0     H48667   5.184   4.982   1.378  0.5089 -0.3140 -0.5041
  353MOL0     H48668   4.986   4.988   1.548 -2.3594 -0.5532 -0.0388
  353MOL0     H48669   4.902   4.901   1.426  0.6972 -1.1190 -0.8516
  353MOL0     H48670   5.165   4.806   1.550 -0.0835 -2.2590  1.3611
  353MOL0     H48671   5.001   4.752   1.603  1.3471 -1.1341  1.8705
  353MOL0     H48672   5.078   4.484   1.542 -0.3676 -0.7145 -0.8599
  353MOL0     H48673   4.967   4.173   1.508  2.6988  1.8299 -1.2619
  353MOL0     H48674   4.880   4.239   1.653 -1.5378 -0.7600  0.4741
  353MOL0     H48675   5.042   4.291   1.624 -0.1016  0.2630  0.5195
  353MOL0     H48676   4.498   4.171   1.117  5.6725 -2.9551  1.4950
  353MOL0     H48677   4.306   4.019   1.114 -1.5185  0.0088  0.3398
  353MOL0     H48678   4.096   3.951   1.119 -0.2242 -4.5814 -3.3252
  353MOL0     H48679   4.179   3.815   1.171 -0.1731  2.3858 -3.5855
  353MOL0     H48680   3.974   3.744   1.303 -0.1971 -2.0764 -0.7932
  353MOL0     H48681   3.888   3.882   1.268 -1.9529 -0.5613 -1.9327
  353MOL0     H48682   3.989   3.698   1.053  0.7908  2.5236 -0.7318
  353MOL0     H48683   3.898   3.827   1.012  0.7103 -0.2277 -0.3581
  353MOL0     H48684   3.704   3.736   1.175  0.2540 -0.8020  2.7988
  353MOL0     H48685   3.795   3.596   1.203 -4.3822 -1.0602  0.4142
  353MOL0     H48686   3.687   3.693   0.940 -0.8553 -0.2931  0.6172
  353MOL0     H48687   3.785   3.555   0.936 -1.0231 -0.1926 -0.1467
  353MOL0     H48688   3.552   3.566   1.128 -0.3094  0.7100 -1.6686
  353MOL0     H48689   3.665   3.426   1.096  0.9859  1.3651  1.5906
  353MOL0     H48690   3.596   3.434   0.857 -1.1784 -1.9731 -1.0973
  353MOL0     H48691   3.474   3.563   0.887 -1.5112 -1.2273  0.2070
  353MOL0     H48692   3.388   3.403   1.071 -2.4887  3.0875 -2.2524
  353MOL0     H48693   3.486   3.281   0.997 -1.1859 -0.0968  0.9983
  353MOL0     H48694   4.225   4.096   1.523  0.6045  2.4226  0.5827
  353MOL0     H48695   4.411   4.260   1.530  0.1589  0.3317 -0.5449
  353MOL0     H48696   4.686   4.501   1.252  0.0194  1.6398 -0.5698
  353MOL0     H48697   4.861   4.693   1.253 -0.4102 -0.7816  0.0319
  353MOL0     H48698   5.571   5.594   0.960  1.0062 -2.7664  0.0928
  353MOL0     H48699   5.607   5.695   0.738 -0.9532  1.7600  3.8985
  353MOL0     H48700   6.002   5.681   0.391 -0.5502 -0.0699  0.3559
  353MOL0     H48701   6.081   5.829   0.211 -0.4199 -0.1678  2.0712
  353MOL0     H48702   5.717   6.045  -0.024  0.5056  1.4307 -3.0290
  353MOL0     H48703   5.799   6.118   0.101  0.5522  1.8615 -0.8770
  353MOL0     H48704   5.896   6.079  -0.194 -1.0405  1.2159 -0.4382
  353MOL0     H48705   5.997   6.170  -0.081  0.7944 -0.4869  0.1645
  353MOL0     H48706   5.721   6.237  -0.170 -0.4382 -1.9555  1.2983
  353MOL0     H48707   5.788   6.307  -0.024  1.0285  1.0182  0.0285
  353MOL0     H48708   5.887   6.353  -0.324  1.6892  1.9912 -0.5357
  353MOL0     H48709   5.991   6.389  -0.180  1.5455  0.3476 -0.3659
  353MOL0     H48710   5.728   6.704  -0.140 -0.2163  1.3304  1.7150
  353MOL0     H48711   5.667   5.883   0.108  0.9947  2.9330  1.2690
  353MOL0     H48712   5.515   5.857   0.249  2.0007  2.3693  1.4245
  353MOL0     H48713   5.494   5.686   0.258 -0.4985  1.2329 -0.6553
  353MOL0     H48714   5.510   5.788   0.407  1.2581  3.7382  0.0607
  354MOL0     O48715   6.202   8.413   6.762  0.2150  0.1865  0.0504
  354MOL0     C48716   6.168   8.424   6.647  0.0861 -0.6441  0.2348
  354MOL0     O48717   6.060   8.365   6.582  0.0177 -0.1961 -0.1202
  354MOL0     C48718   5.961   8.298   6.651  0.0543  0.3995 -0.2645
  354MOL0     C48719   5.926   8.330   6.782  0.0844 -0.5182 -0.1865
  354MOL0     C48720   5.830   8.258   6.857 -0.4725  0.7122  0.3868
  354MOL0     C48721   5.777   8.143   6.795 -0.3003 -0.1880 -0.0679
  354MOL0     O48722   5.713   8.061   6.882 -0.4436  0.2175  0.3487
  354MOL0     C48723   5.727   7.924   6.877  0.1997  0.1293 -0.3888
  354MOL0     C48724   5.606   7.868   6.955 -0.3164 -0.3051  0.6142
  354MOL0     C48725   5.581   7.928   7.105  0.5209 -0.3896  1.0397
  354MOL0     C48726   5.463   7.850   7.171 -0.2183 -1.1816  0.5527
  354MOL0     C48727   5.497   7.697   7.203  0.6570  0.5396 -0.2151
  354MOL0     C48728   5.446   7.607   7.093  0.2553  0.9833  0.2960
  354MOL0     C48729   5.298   7.600   7.054  0.3924 -0.0076 -0.0345
  354MOL0     C48730   5.256   7.469   7.002  0.2792 -0.2691  0.3747
  354MOL0     N48731   5.256   7.358   7.094  0.1040  0.0257  0.6320
  354MOL0     C48732   5.178   7.349   7.205  0.4412  0.3959 -0.5085
  354MOL0     C48733   5.217   7.233   7.279 -0.6423 -1.5342  0.8856
  354MOL0     C48734   5.172   7.179   7.407 -0.3982 -0.1786 -0.2112
  354MOL0     C48735   5.270   7.209   7.522 -0.3081  0.0006 -1.4343
  354MOL0     C48736   5.343   7.087   7.575 -0.3887  0.0515  0.2297
  354MOL0     C48737   5.460   7.047   7.492 -0.3010 -0.9102 -0.1067
  354MOL0     O48738   5.531   6.935   7.527 -0.0235 -0.9593  0.7053
  354MOL0     C48739   5.488   6.815   7.473 -0.2290 -0.6806 -0.0326
  354MOL0     C48740   5.364   6.788   7.417 -0.6699 -1.3313 -0.5362
  354MOL0     C48741   5.337   6.656   7.372 -0.4290  0.5000  0.1386
  354MOL0     C48742   5.212   6.643   7.289 -0.4061  0.2203 -0.4611
  354MOL0     C48743   5.425   6.544   7.389 -0.0634  0.0250  0.2619
  354MOL0     C48744   5.401   6.406   7.342  0.6202 -0.5698 -0.9591
  354MOL0     O48745   5.515   6.323   7.334  0.2376 -0.1542  0.2948
  354MOL0     C48746   5.499   6.191   7.335  0.8668 -0.5074  0.8488
  354MOL0     C48747   5.599   6.117   7.283  0.1681  0.1862  0.2701
  354MOL0     C48748   5.607   5.975   7.310 -0.0307  0.4008 -0.0942
  354MOL0     C48749   5.501   5.911   7.379  0.0653 -0.0004 -0.9591
  354MOL0     O48750   5.524   5.781   7.405 -0.2649  0.4243  0.1264
  354MOL0     C48751   5.416   5.705   7.469 -0.4600 -0.7594  0.4794
  354MOL0     C48752   5.472   5.567   7.468 -0.2881 -0.4963 -0.8233
  354MOL0     C48753   5.383   5.447   7.525  0.6621 -0.8524  0.3415
  354MOL0     C48754   5.260   5.426   7.437 -0.0655  0.5784  0.0831
  354MOL0     C48755   5.170   5.317   7.489 -0.1779 -0.1828  0.1276
  354MOL0     C48756   5.033   5.342   7.430  0.1611 -1.1569 -0.1903
  354MOL0     C48757   4.928   5.245   7.487  0.2283 -0.5931  0.0319
  354MOL0     C48758   4.897   5.267   7.639 -0.5050  0.8426 -0.0009
  354MOL0    Cl48759   4.794   5.409   7.663  0.1394 -0.2683 -0.0488
  354MOL0     C48760   5.404   5.994   7.444  0.5792  0.7381  1.0376
  354MOL0     C48761   5.407   6.135   7.424 -0.4543  0.2285  0.8146
  354MOL0     O48762   5.282   6.379   7.321  0.3772  0.2807 -0.5349
  354MOL0     C48763   5.555   6.577   7.432 -0.3326  0.3092 -0.7667
  354MOL0     C48764   5.585   6.710   7.488 -0.0152  0.1143  0.2974
  354MOL0     N48765   5.332   7.192   7.209  0.1773 -0.5986  0.2299
  354MOL0     N48766   5.352   7.258   7.104 -0.0776  0.2587 -0.0308
  354MOL0     C48767   5.803   8.121   6.656  0.7455  0.5240 -0.6994
  354MOL0     C48768   5.892   8.195   6.588 -0.1378  0.3261 -1.3286
  354MOL0     C48769   6.247   8.525   6.556 -0.3462  0.9227  0.0007
  354MOL0     C48770   6.200   8.562   6.428  0.3285  0.5127 -0.4533
  354MOL0     C48771   6.260   8.646   6.337  0.1882 -0.5939  0.1369
  354MOL0     C48772   6.384   8.697   6.370 -0.2622 -0.9640  0.1270
  354MOL0     O48773   6.457   8.779   6.297  0.2980 -0.6608 -0.0135
  354MOL0     C48774   6.398   8.856   6.184 -0.1825  0.6932  0.6708
  354MOL0     C48775   6.386   9.007   6.219  0.2493  0.5213  0.2783
  354MOL0     C48776   6.380   9.100   6.091  0.2913 -0.3166  0.0059
  354MOL0     C48777   6.235   9.115   6.036  0.0691 -0.1979 -0.5255
  354MOL0     C48778   6.235   9.181   5.909  0.2430 -0.8033 -0.7522
  354MOL0     C48779   6.218   9.244   5.803 -0.7185  0.3257 -0.3888
  354MOL0     C48780   6.433   8.676   6.498  0.0127 -0.8381 -0.0833
  354MOL0     C48781   6.377   8.577   6.585  0.1766  1.3014 -0.1595
  354MOL0     C48782   6.451   8.544   6.717 -0.0539 -0.5247  0.1526
  354MOL0     H48783   5.972   8.413   6.835  1.0603 -0.4980 -1.0409
  354MOL0     H48784   5.805   8.278   6.961 -1.6040  1.7435 -0.0641
  354MOL0     H48785   5.819   7.898   6.931  0.2696  0.0101 -0.5651
  354MOL0     H48786   5.722   7.884   6.775 -0.2860  0.2992 -0.4363
  354MOL0     H48787   5.516   7.871   6.893 -0.9042 -3.3318  1.1731
  354MOL0     H48788   5.644   7.766   6.968  2.1134  0.2654 -1.2176
  354MOL0     H48789   5.678   7.930   7.154  1.6532  1.4577 -1.0480
  354MOL0     H48790   5.545   8.030   7.088  2.6107  0.4589  1.4666
  354MOL0     H48791   5.439   7.897   7.267  0.9291  4.5124 -1.5360
  354MOL0     H48792   5.371   7.867   7.115  0.4237 -0.8301 -0.4404
  354MOL0     H48793   5.455   7.670   7.300 -0.1485  1.7950 -0.1887
  354MOL0     H48794   5.603   7.672   7.209  0.3672 -0.8399 -0.6018
  354MOL0     H48795   5.502   7.627   7.001 -1.0296  2.4946 -0.2046
  354MOL0     H48796   5.472   7.509   7.134  0.4059  0.4336 -1.0659
  354MOL0     H48797   5.275   7.674   6.977  0.4557 -0.7938 -0.8285
  354MOL0     H48798   5.239   7.623   7.144 -0.2490  1.0875 -0.7230
  354MOL0     H48799   5.160   7.473   6.950  2.3775 -2.6255 -4.3741
  354MOL0     H48800   5.315   7.438   6.915  0.4054  1.3817 -0.1724
  354MOL0     H48801   5.088   7.402   7.233 -0.4733 -0.8336 -1.0027
  354MOL0     H48802   5.155   7.072   7.394  2.1544 -0.5862 -0.6603
  354MOL0     H48803   5.075   7.224   7.430  0.9527  1.4449  2.9653
  354MOL0     H48804   5.327   7.294   7.484  1.4048  0.2788  1.4762
  354MOL0     H48805   5.205   7.236   7.606 -1.8812 -0.4517 -2.4473
  354MOL0     H48806   5.376   7.091   7.679  1.7254 -1.3526 -0.3173
  354MOL0     H48807   5.280   6.997   7.578  1.3656 -1.2313  0.3738
  354MOL0     H48808   5.424   7.052   7.389 -1.6444  2.1365  0.3921
  354MOL0     H48809   5.531   7.129   7.508 -1.0120 -0.7314  2.7792
  354MOL0     H48810   5.294   6.869   7.399  0.6768 -0.2762 -1.2527
  354MOL0     H48811   5.134   6.620   7.363 -1.5885  4.2099 -0.2396
  354MOL0     H48812   5.206   6.572   7.206  1.6476 -0.9552  0.3347
  354MOL0     H48813   5.184   6.736   7.239 -0.5886  1.7528  2.3166
  354MOL0     H48814   5.672   6.164   7.218 -1.1509  2.1037  0.1139
  354MOL0     H48815   5.686   5.913   7.269  2.3297  2.5779  0.9259
  354MOL0     H48816   5.395   5.741   7.570 -0.5359  0.4987  0.0294
  354MOL0     H48817   5.328   5.710   7.405  0.2268  0.3518 -0.4031
  354MOL0     H48818   5.504   5.538   7.367  0.9310  1.2239 -0.9783
  354MOL0     H48819   5.566   5.573   7.523 -0.7564 -3.1879  0.4672
  354MOL0     H48820   5.345   5.480   7.622  0.2791  0.7351 -0.3097
  354MOL0     H48821   5.441   5.356   7.539  0.1677 -1.0606  1.1316
  354MOL0     H48822   5.293   5.412   7.334  2.2656 -0.6898  0.9479
  354MOL0     H48823   5.194   5.513   7.450  0.6318  0.8727  2.0182
  354MOL0     H48824   5.210   5.225   7.447  1.3525  0.5771 -0.1553
  354MOL0     H48825   5.164   5.308   7.598  1.0338  0.4716  0.2659
  354MOL0     H48826   5.045   5.320   7.323  2.0178 -3.1783  0.3583
  354MOL0     H48827   4.996   5.442   7.451 -0.6316 -1.4322 -0.2480
  354MOL0     H48828   4.974   5.146   7.478  1.6325  0.2364 -4.4213
  354MOL0     H48829   4.831   5.249   7.438 -0.7769  0.0990  1.9870
  354MOL0     H48830   4.988   5.261   7.698  1.0163 -2.4168 -2.3326
  354MOL0     H48831   4.846   5.176   7.671  0.1657  0.8646  1.1770
  354MOL0     H48832   5.345   5.959   7.528 -0.6257 -1.6919 -0.6972
  354MOL0     H48833   5.343   6.202   7.481 -4.0231 -0.7018 -1.7592
  354MOL0     H48834   5.636   6.505   7.438  0.0082  0.7885  0.6185
  354MOL0     H48835   5.678   6.730   7.539  0.2408 -0.7029  0.1642
  354MOL0     H48836   5.751   8.031   6.625 -0.1323  0.1393  1.7201
  354MOL0     H48837   5.914   8.173   6.484 -0.3525  1.6740 -1.6818
  354MOL0     H48838   6.103   8.523   6.400 -0.2856  3.0098 -2.1044
  354MOL0     H48839   6.211   8.657   6.241  1.3213 -1.8085 -0.6204
  354MOL0     H48840   6.466   8.842   6.099 -0.1545 -0.9569  0.9303
  354MOL0     H48841   6.299   8.819   6.156 -1.8214  3.8246  1.8782
  354MOL0     H48842   6.477   9.031   6.274  0.0574 -0.9982  1.2850
  354MOL0     H48843   6.294   9.020   6.275 -1.5803 -1.2717 -2.1075
  354MOL0     H48844   6.424   9.193   6.127 -2.3327  0.8027  0.5654
  354MOL0     H48845   6.441   9.050   6.015 -2.0614 -0.6244 -1.7952
  354MOL0     H48846   6.179   9.178   6.106  1.1825 -1.2551  1.4021
  354MOL0     H48847   6.186   9.017   6.037 -2.0933  0.8249 -0.2026
  354MOL0     H48848   6.209   9.304   5.714 -2.2771  0.7628  0.0321
  354MOL0     H48849   6.525   8.732   6.507  0.9214 -1.8489 -2.3502
  354MOL0     H48850   6.409   8.589   6.808  0.6634  0.9382 -0.2175
  354MOL0     H48851   6.456   8.435   6.733  1.3273 -0.4789  0.1611
  354MOL0     H48852   6.557   8.565   6.704 -0.3041 -0.3462 -1.9323
  355MOL0     O48853   0.050   8.310  10.364  0.6698 -1.3399  0.6083
  355MOL0     C48854  -0.067   8.333  10.393 -1.2430  0.1853  0.4673
  355MOL0     O48855  -0.108   8.452  10.453 -0.8052  0.6949  0.0890
  355MOL0     C48856  -0.006   8.510  10.508 -0.5521  0.3824 -0.2127
  355MOL0     C48857   0.042   8.632  10.453  0.0499  0.1623 -0.6188
  355MOL0     C48858   0.143   8.714  10.519  0.7007  0.4309 -0.1429
  355MOL0     C48859   0.195   8.664  10.644 -0.0825  0.4611 -0.0908
  355MOL0     O48860   0.294   8.723  10.715 -0.6781 -0.1410 -0.4475
  355MOL0     C48861   0.418   8.744  10.640  0.0531  0.1713 -0.0040
  355MOL0     C48862   0.525   8.765  10.735 -0.3677  0.4769 -0.0404
  355MOL0     C48863   0.502   8.877  10.840 -0.6279  0.2159 -0.1814
  355MOL0     C48864   0.631   8.939  10.886 -0.6238  0.4077  0.0192
  355MOL0     C48865   0.739   8.838  10.938  0.9372  0.1761 -0.8100
  355MOL0     C48866   0.852   8.904  11.007 -0.4376 -0.5593 -0.4504
  355MOL0     C48867   0.924   9.004  10.902  0.2199  0.1165  0.1396
  355MOL0     C48868   1.060   9.053  10.956  0.0056  0.1367 -0.0543
  355MOL0     N48869   1.129   9.154  10.879 -0.2979 -0.3619 -0.3459
  355MOL0     C48870   1.182   9.146  10.752 -0.0686 -0.0324  0.5541
  355MOL0     C48871   1.211   9.270  10.720  0.2931  0.3858 -0.1060
  355MOL0     C48872   1.275   9.301  10.588 -0.3139  0.3131  0.1486
  355MOL0     C48873   1.182   9.353  10.487 -0.4063  0.0136  0.2475
  355MOL0     C48874   1.259   9.390  10.366  0.4773 -0.8018  0.7607
  355MOL0     C48875   1.173   9.466  10.261  0.7212 -0.1314  0.5443
  355MOL0     O48876   1.246   9.509  10.142  0.4002 -0.0771  0.4502
  355MOL0     C48877   1.177   9.522  10.021 -0.2817  0.1788 -0.7206
  355MOL0     C48878   1.215   9.445   9.908  0.1699  0.2796 -0.0127
  355MOL0     C48879   1.133   9.439   9.795  0.1929  0.0167  0.5291
  355MOL0     C48880   1.181   9.357   9.677  0.6892 -0.5480  0.0590
  355MOL0     C48881   1.003   9.497   9.811 -0.2724 -0.1669 -0.7090
  355MOL0     C48882   0.894   9.488   9.705  0.2857 -0.3745  1.4692
  355MOL0     O48883   0.767   9.443   9.739 -0.0974  0.5461  0.9172
  355MOL0     C48884   0.691   9.402   9.631  1.1917 -0.0193 -0.4449
  355MOL0     C48885   0.618   9.496   9.559  0.0051  0.7299  1.0072
  355MOL0     C48886   0.534   9.448   9.452  0.2934 -0.3508  0.1307
  355MOL0     C48887   0.508   9.308   9.439 -0.0281  0.1243 -0.0026
  355MOL0     O48888   0.411   9.255   9.359 -1.3400 -0.3036 -0.1083
  355MOL0     C48889   0.428   9.270   9.218 -0.8440  0.0087 -0.1693
  355MOL0     C48890   0.532   9.174   9.167 -0.2759  0.8062  0.8100
  355MOL0     C48891   0.472   9.028   9.165  0.5610 -0.6188 -0.5608
  355MOL0     C48892   0.543   8.942   9.066  0.3831 -0.0636  0.2655
  355MOL0     C48893   0.494   8.800   9.048 -0.2500  0.4703  0.6891
  355MOL0     C48894   0.609   8.708   8.986  0.4324 -0.0737  0.5597
  355MOL0     C48895   0.626   8.746   8.836  0.4474  0.2167 -0.9520
  355MOL0     C48896   0.699   8.634   8.758 -0.7038  0.6566  0.3766
  355MOL0    Cl48897   0.870   8.604   8.780  0.2130 -0.3150  0.5644
  355MOL0     C48898   0.574   9.228   9.527  0.1326  0.0703  0.8604
  355MOL0     C48899   0.678   9.266   9.614  0.6708 -1.2283  0.7837
  355MOL0     O48900   0.941   9.484   9.590 -0.6783  0.0406 -0.2156
  355MOL0     C48901   0.969   9.573   9.923  0.6610  0.2798  0.1789
  355MOL0     C48902   1.056   9.593  10.027 -0.0948  0.6701 -0.4199
  355MOL0     N48903   1.185   9.352  10.831  1.2283  0.1226  0.1853
  355MOL0     N48904   1.139   9.282  10.926 -0.2061  0.3231 -0.0441
  355MOL0     C48905   0.155   8.538  10.688  0.1182  0.2200  0.3475
  355MOL0     C48906   0.048   8.456  10.626  0.1637  0.5766  0.6262
  355MOL0     C48907  -0.172   8.246  10.342 -0.6535  0.9094  0.0269
  355MOL0     C48908  -0.287   8.226  10.425 -0.5622  0.0820  0.5821
  355MOL0     C48909  -0.390   8.151  10.367 -0.5692 -0.4110 -0.0082
  355MOL0     C48910  -0.384   8.086  10.247 -0.0938 -0.9404 -0.6507
  355MOL0     O48911  -0.481   8.009  10.183  0.4559 -1.0629  0.2029
  355MOL0     C48912  -0.584   7.947  10.259 -1.4198 -0.3789  1.0985
  355MOL0     C48913  -0.658   7.838  10.184 -0.2911  0.0094 -0.0234
  355MOL0     C48914  -0.739   7.744  10.285  0.9387 -0.6219  0.4636
  355MOL0     C48915  -0.647   7.628  10.335 -0.2792  0.3591  0.8743
  355MOL0     C48916  -0.717   7.544  10.425 -0.4164  0.3929  1.1127
  355MOL0     C48917  -0.774   7.489  10.515  0.0562  1.0915  0.1538
  355MOL0     C48918  -0.274   8.100  10.172 -0.9897 -0.1558 -0.1812
  355MOL0     C48919  -0.165   8.179  10.218 -0.9482 -0.2109  0.9051
  355MOL0     C48920  -0.050   8.197  10.116  0.1998  0.5910  0.6893
  355MOL0     H48921   0.004   8.669  10.359  2.2407 -1.0760 -2.0697
  355MOL0     H48922   0.174   8.813  10.489  0.9714  0.4261  0.1097
  355MOL0     H48923   0.415   8.832  10.575  0.9094  0.2039 -0.0134
  355MOL0     H48924   0.440   8.657  10.577 -1.9018 -0.4725  0.1335
  355MOL0     H48925   0.532   8.671  10.790 -1.0697 -0.2868 -1.2083
  355MOL0     H48926   0.618   8.775  10.678 -2.6709  2.2009 -3.9584
  355MOL0     H48927   0.443   8.962  10.804  0.0856  0.1605 -1.5242
  355MOL0     H48928   0.456   8.829  10.927  2.9238 -2.2985  0.5546
  355MOL0     H48929   0.665   9.001  10.803 -3.0864  1.6933 -0.0950
  355MOL0     H48930   0.593   9.009  10.961 -0.3523 -1.8438  2.4127
  355MOL0     H48931   0.775   8.779  10.853 -0.1797 -0.8564 -0.5905
  355MOL0     H48932   0.685   8.771  11.006 -2.2253  1.4543 -1.8681
  355MOL0     H48933   0.823   8.957  11.098  1.0951  0.1450 -0.3419
  355MOL0     H48934   0.930   8.831  11.029 -0.8922 -1.4695 -1.7641
  355MOL0     H48935   0.855   9.088  10.890 -1.4363 -1.1174  0.6955
  355MOL0     H48936   0.945   8.945  10.813  0.9828 -3.5207  2.4905
  355MOL0     H48937   1.042   9.099  11.054 -1.8065  1.9864 -1.1837
  355MOL0     H48938   1.121   8.963  10.970 -0.1519  0.4437  3.5940
  355MOL0     H48939   1.197   9.052  10.700 -1.8410 -1.1954  1.9926
  355MOL0     H48940   1.310   9.205  10.551 -1.7158 -0.5539  0.9683
  355MOL0     H48941   1.356   9.373  10.603 -0.1755  0.0884  0.4892
  355MOL0     H48942   1.106   9.279  10.463  0.7500 -0.5961 -1.7754
  355MOL0     H48943   1.133   9.437  10.538 -2.1453 -1.9252  1.9776
  355MOL0     H48944   1.350   9.449  10.383  0.1106  0.4392 -1.2089
  355MOL0     H48945   1.275   9.300  10.306 -0.5865 -0.6400  0.2219
  355MOL0     H48946   1.084   9.412  10.228  1.2541  1.1541 -3.6251
  355MOL0     H48947   1.128   9.553  10.311 -0.8580  0.9230 -2.4089
  355MOL0     H48948   1.306   9.390   9.926 -1.6417 -2.5118  1.3642
  355MOL0     H48949   1.252   9.285   9.717  0.7513 -0.5018  0.0327
  355MOL0     H48950   1.236   9.424   9.611  2.0945 -0.6675  1.0756
  355MOL0     H48951   1.100   9.300   9.630 -1.8601  0.4418  2.9173
  355MOL0     H48952   0.630   9.601   9.580  2.3705  0.2536  2.4335
  355MOL0     H48953   0.480   9.519   9.390  0.4479 -0.7154 -0.4187
  355MOL0     H48954   0.338   9.260   9.157  0.0428 -1.6008 -1.2777
  355MOL0     H48955   0.449   9.377   9.208 -5.3820  1.1943  0.6649
  355MOL0     H48956   0.556   9.194   9.062  1.5613 -2.0253  0.5872
  355MOL0     H48957   0.619   9.174   9.233 -0.4173 -3.8994  1.3071
  355MOL0     H48958   0.366   9.026   9.137  0.3653  1.6983 -0.2046
  355MOL0     H48959   0.461   8.986   9.265 -1.8495 -1.0035 -0.9360
  355MOL0     H48960   0.641   8.930   9.113 -0.2936 -0.7562  1.5426
  355MOL0     H48961   0.562   9.001   8.976 -1.3083 -0.3908 -0.3525
  355MOL0     H48962   0.482   8.758   9.149  0.8694 -1.2853  0.1506
  355MOL0     H48963   0.395   8.784   9.004  0.4409 -1.3646 -0.3244
  355MOL0     H48964   0.576   8.604   8.997 -0.4140  0.1657  0.3141
  355MOL0     H48965   0.705   8.723   9.037 -0.0311  1.5674  0.9918
  355MOL0     H48966   0.668   8.846   8.822 -0.2237  0.2681 -2.9566
  355MOL0     H48967   0.527   8.755   8.790  1.5330  0.5185 -3.3721
  355MOL0     H48968   0.685   8.650   8.651  1.4118 -2.3181 -0.4837
  355MOL0     H48969   0.659   8.535   8.782  0.2648  0.1019 -0.2017
  355MOL0     H48970   0.549   9.124   9.511  0.0251  0.5188 -2.7271
  355MOL0     H48971   0.733   9.198   9.678  4.1791  0.2214 -0.4663
  355MOL0     H48972   0.870   9.619   9.921  1.6896  2.6272  0.4127
  355MOL0     H48973   1.040   9.650  10.117  0.8597  1.1931 -0.5783
  355MOL0     H48974   0.208   8.500  10.775 -1.8905 -2.4277  0.5059
  355MOL0     H48975   0.018   8.360  10.667 -1.4142  0.8804  0.2518
  355MOL0     H48976  -0.293   8.282  10.518 -1.9045 -1.1680  1.2864
  355MOL0     H48977  -0.484   8.147  10.420 -2.0574  0.5611 -2.3724
  355MOL0     H48978  -0.530   7.895  10.339  1.0749 -1.9686 -1.4362
  355MOL0     H48979  -0.649   8.029  10.293 -0.4584  1.4741 -1.2299
  355MOL0     H48980  -0.580   7.786  10.127  0.7791  3.1543 -1.6213
  355MOL0     H48981  -0.729   7.889  10.119 -0.1334  0.0220 -0.1852
  355MOL0     H48982  -0.777   7.796  10.373  1.4911 -1.3433  1.1435
  355MOL0     H48983  -0.827   7.697  10.240  1.5317 -0.8484 -0.4987
  355MOL0     H48984  -0.554   7.671  10.374 -0.1744  0.3981  0.5890
  355MOL0     H48985  -0.597   7.576  10.253  3.2871  2.0979  1.7516
  355MOL0     H48986  -0.849   7.436  10.571 -2.3327  4.4096  0.3354
  355MOL0     H48987  -0.269   8.058  10.072  0.8235 -0.5282  0.0236
  355MOL0     H48988  -0.054   8.299  10.076  3.1273  0.7929  0.6805
  355MOL0     H48989   0.049   8.180  10.160 -0.2908  2.4020  2.6736
  355MOL0     H48990  -0.044   8.124  10.035  0.9169 -0.0514  1.3035
  356MOL0     O48991   7.218   7.079   6.162 -0.0116 -0.2165 -0.0218
  356MOL0     C48992   7.138   7.158   6.217 -0.3548 -0.2957 -0.5047
  356MOL0     O48993   7.173   7.272   6.277 -0.3309 -1.4164 -0.4046
  356MOL0     C48994   7.306   7.311   6.279 -0.0084 -0.7124 -0.1162
  356MOL0     C48995   7.373   7.342   6.164 -0.2651  0.1350 -0.6922
  356MOL0     C48996   7.510   7.390   6.158  0.0777  0.3310  0.1649
  356MOL0     C48997   7.585   7.369   6.274  0.5333  0.9127  0.7680
  356MOL0     O48998   7.723   7.373   6.261 -0.1971 -0.2712 -0.5672
  356MOL0     C48999   7.793   7.260   6.313 -0.4735 -0.5475  0.0108
  356MOL0     C49000   7.942   7.246   6.271  0.1873  0.2685 -0.0204
  356MOL0     C49001   8.040   7.366   6.302  0.3479 -0.8000  0.7345
  356MOL0     C49002   8.083   7.374   6.457  0.0961  0.8015  1.0095
  356MOL0     C49003   8.180   7.260   6.486 -0.6484  0.5202 -0.6824
  356MOL0     C49004   8.327   7.297   6.468 -0.2473 -1.0394 -0.8926
  356MOL0     C49005   8.416   7.176   6.497 -0.8004  0.2230 -0.2029
  356MOL0     C49006   8.552   7.215   6.551 -0.4427 -0.0666  0.4255
  356MOL0     N49007   8.641   7.262   6.432 -0.3869  0.0274  0.0353
  356MOL0     C49008   8.752   7.188   6.379 -0.2410  0.0702 -0.8557
  356MOL0     C49009   8.808   7.278   6.297  0.9223  0.1297  0.1329
  356MOL0     C49010   8.939   7.263   6.227 -0.4641  0.3936  0.8417
  356MOL0     C49011   8.944   7.342   6.097 -0.2744 -0.2402  0.0602
  356MOL0     C49012   9.063   7.313   6.003 -0.1485  0.7842 -0.1937
  356MOL0     C49013   9.062   7.381   5.862 -0.1790 -0.3036 -0.6571
  356MOL0     O49014   9.169   7.339   5.774  0.6790  0.2188  0.0358
  356MOL0     C49015   9.144   7.346   5.634  0.0132  0.7494 -0.3890
  356MOL0     C49016   9.136   7.475   5.575 -0.4543  0.4674  0.4111
  356MOL0     C49017   9.136   7.483   5.431 -0.2687 -0.2593 -0.1524
  356MOL0     C49018   9.144   7.621   5.363 -0.0204 -0.1833 -0.2641
  356MOL0     C49019   9.118   7.361   5.357 -0.3731  0.2406  0.3354
  356MOL0     C49020   9.085   7.356   5.212 -0.3704  0.6128  0.7904
  356MOL0     O49021   9.132   7.255   5.132 -0.3070  0.6049  0.9752
  356MOL0     C49022   9.052   7.224   5.023 -0.3496 -0.3099  0.8957
  356MOL0     C49023   8.933   7.147   5.040 -0.1063  0.1674  0.1070
  356MOL0     C49024   8.862   7.100   4.932  0.0244 -0.0399  0.0229
  356MOL0     C49025   8.901   7.127   4.805 -0.3502 -0.3718  0.6487
  356MOL0     O49026   8.839   7.071   4.698 -0.3406  1.1526  0.7196
  356MOL0     C49027   8.892   7.064   4.561  0.2991 -0.0373  0.7289
  356MOL0     C49028   8.839   7.187   4.480 -0.7683  0.3422  0.8400
  356MOL0     C49029   8.890   7.160   4.335  0.1774 -0.2189  0.0887
  356MOL0     C49030   8.796   7.069   4.255  0.1637  0.3186 -0.0664
  356MOL0     C49031   8.683   7.128   4.163 -0.3837 -0.1043 -1.1691
  356MOL0     C49032   8.593   7.233   4.231 -0.8823 -0.1617  0.3457
  356MOL0     C49033   8.481   7.275   4.142 -0.4555 -0.1467  0.2919
  356MOL0     C49034   8.412   7.400   4.197 -0.1882 -0.2853 -1.2244
  356MOL0    Cl49035   8.498   7.550   4.180 -0.1147  0.7928 -0.6225
  356MOL0     C49036   9.017   7.201   4.784  0.0684 -0.2384  0.3337
  356MOL0     C49037   9.089   7.251   4.894  0.3560 -0.2964 -0.5243
  356MOL0     O49038   8.998   7.437   5.162 -0.8290 -0.1705 -0.2115
  356MOL0     C49039   9.135   7.244   5.426 -0.2057 -0.2126  0.7281
  356MOL0     C49040   9.140   7.229   5.563  0.1034 -0.1495  0.9485
  356MOL0     N49041   8.734   7.391   6.285 -0.3048 -0.0052 -0.2090
  356MOL0     N49042   8.632   7.375   6.361 -0.6080  1.0803  0.1847
  356MOL0     C49043   7.522   7.329   6.394 -0.6155 -0.7399 -0.5506
  356MOL0     C49044   7.388   7.307   6.396  0.6502 -0.5334 -0.7220
  356MOL0     C49045   6.997   7.121   6.207  0.5702  0.5608 -0.5508
  356MOL0     C49046   6.906   7.224   6.186 -0.3112  0.3623 -0.0951
  356MOL0     C49047   6.768   7.203   6.177 -0.6320 -0.0585 -0.4525
  356MOL0     C49048   6.716   7.079   6.189  0.0926  0.8172  0.5001
  356MOL0     O49049   6.580   7.048   6.163  0.1588  0.4775 -0.3143
  356MOL0     C49050   6.534   7.089   6.025 -0.1144  0.6960  0.5626
  356MOL0     C49051   6.390   7.036   6.002 -0.7220 -0.0848 -0.7580
  356MOL0     C49052   6.388   6.882   6.007  0.3429  0.4958 -0.6988
  356MOL0     C49053   6.239   6.834   5.990 -0.5236  0.1890  0.2113
  356MOL0     C49054   6.238   6.702   5.934 -0.7961  0.1574  0.8556
  356MOL0     C49055   6.249   6.592   5.884  0.1746 -0.1971  0.3866
  356MOL0     C49056   6.809   6.968   6.197 -0.1324 -0.2079  0.9243
  356MOL0     C49057   6.948   6.992   6.210 -0.1214  0.7821  0.4736
  356MOL0     C49058   7.034   6.870   6.218  0.1565 -0.0232 -0.3602
  356MOL0     H49059   7.316   7.326   6.074 -0.3439 -3.4375 -0.1476
  356MOL0     H49060   7.554   7.406   6.060 -0.8718 -0.6449 -0.4338
  356MOL0     H49061   7.744   7.170   6.275 -1.8146  1.1196 -2.4904
  356MOL0     H49062   7.789   7.260   6.422  2.0004 -1.5027  0.1731
  356MOL0     H49063   7.982   7.162   6.329  0.4896  0.5361  0.1590
  356MOL0     H49064   7.956   7.227   6.164 -1.5472 -0.0042 -0.2289
  356MOL0     H49065   8.134   7.352   6.247  0.3189  0.1302  0.4343
  356MOL0     H49066   8.001   7.461   6.265 -0.7599 -0.4300  2.7248
  356MOL0     H49067   8.127   7.471   6.484  0.9264  0.2482  1.6870
  356MOL0     H49068   7.992   7.372   6.518  0.5333  2.9216  1.8265
  356MOL0     H49069   8.157   7.161   6.446 -2.1893 -0.3230  2.0058
  356MOL0     H49070   8.166   7.237   6.592 -1.1055 -1.5850 -1.1517
  356MOL0     H49071   8.357   7.324   6.366  0.9506  0.2557 -0.2411
  356MOL0     H49072   8.355   7.379   6.535 -2.0552 -0.0917 -1.2392
  356MOL0     H49073   8.430   7.112   6.410  3.9581 -0.9527  1.1756
  356MOL0     H49074   8.360   7.130   6.580 -2.5269  2.1299 -0.2235
  356MOL0     H49075   8.545   7.293   6.627 -0.1415  0.3849  0.0013
  356MOL0     H49076   8.610   7.132   6.591 -0.4012  1.8233  4.8256
  356MOL0     H49077   8.777   7.088   6.412 -0.9617  0.7423  1.9644
  356MOL0     H49078   8.953   7.157   6.203  2.4729  0.8564  0.1571
  356MOL0     H49079   9.022   7.288   6.293 -0.2153  0.1198  0.6398
  356MOL0     H49080   8.857   7.328   6.033  2.0589 -1.7382 -3.1292
  356MOL0     H49081   8.950   7.442   6.139 -0.3920 -0.7050  1.2130
  356MOL0     H49082   9.152   7.330   6.064 -0.0085  2.1433 -0.7501
  356MOL0     H49083   9.064   7.207   5.977  0.5129  0.9311 -0.7705
  356MOL0     H49084   8.962   7.362   5.822  0.7908 -3.8127 -1.7851
  356MOL0     H49085   9.067   7.489   5.879 -0.8530 -0.3044 -0.3908
  356MOL0     H49086   9.148   7.563   5.637  3.5904  2.2213 -2.4397
  356MOL0     H49087   9.222   7.624   5.286  1.3198 -1.7878  0.9398
  356MOL0     H49088   9.151   7.695   5.443  0.4623  0.8829 -1.2729
  356MOL0     H49089   9.051   7.650   5.314 -1.2218 -2.2115  0.6592
  356MOL0     H49090   8.895   7.132   5.140 -2.3393  1.2642 -0.5028
  356MOL0     H49091   8.778   7.038   4.964 -0.7484  2.6776  3.9887
  356MOL0     H49092   8.999   7.045   4.551 -0.0518 -1.3822 -0.6291
  356MOL0     H49093   8.857   6.971   4.518  3.3239 -0.4993 -1.0411
  356MOL0     H49094   8.730   7.192   4.484 -0.7620  3.7828 -0.2774
  356MOL0     H49095   8.882   7.276   4.525 -0.0881 -0.1318  1.1465
  356MOL0     H49096   8.989   7.116   4.352 -0.8211 -2.0604  1.7454
  356MOL0     H49097   8.895   7.252   4.277  0.3602 -0.1258  0.2496
  356MOL0     H49098   8.752   7.000   4.328 -0.2631 -0.3937 -0.9748
  356MOL0     H49099   8.857   7.013   4.183 -0.6329  2.0651 -2.2295
  356MOL0     H49100   8.728   7.179   4.077 -1.1736 -1.0055 -2.1458
  356MOL0     H49101   8.627   7.044   4.122 -0.1668 -1.4385  1.1014
  356MOL0     H49102   8.666   7.314   4.239 -2.0124  1.0430 -0.8994
  356MOL0     H49103   8.558   7.217   4.333 -1.6421  2.5894  0.5812
  356MOL0     H49104   8.403   7.198   4.136  0.3073 -0.8676 -1.0203
  356MOL0     H49105   8.508   7.298   4.038  0.9338 -2.5649  0.0368
  356MOL0     H49106   8.393   7.382   4.303 -0.6742 -0.1493 -1.2902
  356MOL0     H49107   8.311   7.411   4.158 -0.8416 -0.8038  0.2456
  356MOL0     H49108   9.060   7.205   4.685  0.0165 -0.2932  0.3089
  356MOL0     H49109   9.182   7.305   4.882  0.7018 -0.8429 -0.3365
  356MOL0     H49110   9.142   7.155   5.364  0.1834 -0.0144  0.4863
  356MOL0     H49111   9.157   7.125   5.589  2.2400 -0.3618 -0.9663
  356MOL0     H49112   7.578   7.318   6.486  0.0573 -2.9316 -1.1578
  356MOL0     H49113   7.338   7.285   6.490  0.8229  0.3271 -0.4192
  356MOL0     H49114   6.937   7.326   6.166 -0.2026  0.8335  2.1647
  356MOL0     H49115   6.714   7.293   6.152  0.8472  2.3686  3.9583
  356MOL0     H49116   6.539   7.198   6.013  4.6090  0.7022  0.7979
  356MOL0     H49117   6.602   7.038   5.955 -0.9678 -1.3014  1.1137
  356MOL0     H49118   6.354   7.066   5.904  0.3344 -1.7780 -1.7245
  356MOL0     H49119   6.331   7.072   6.086  1.8335  1.6525  0.4258
  356MOL0     H49120   6.445   6.850   5.919  1.9493 -1.0219  0.8037
  356MOL0     H49121   6.440   6.830   6.088 -1.7692  0.5550  0.7513
  356MOL0     H49122   6.187   6.906   5.926 -0.0067 -2.7107 -3.8792
  356MOL0     H49123   6.181   6.815   6.081 -2.5846 -1.2838 -1.3034
  356MOL0     H49124   6.268   6.495   5.843 -1.0913 -0.9429  1.5022
  356MOL0     H49125   6.764   6.869   6.194 -0.0298 -0.2390 -0.2846
  356MOL0     H49126   6.972   6.782   6.237  0.5684  0.0038  1.3293
  356MOL0     H49127   7.090   6.842   6.129  2.0704  0.6497  0.5480
  356MOL0     H49128   7.097   6.886   6.307 -0.8355  3.0791 -0.0816
  357MOL0     O49129   5.371   2.846   1.878 -0.3892 -0.7967  0.7249
  357MOL0     C49130   5.452   2.816   1.796  0.3664 -0.0250 -0.1806
  357MOL0     O49131   5.585   2.852   1.803  0.1840  0.2891  0.3183
  357MOL0     C49132   5.634   2.829   1.924 -0.6232 -0.0483  0.0551
  357MOL0     C49133   5.655   2.703   1.967 -1.3975 -0.4948 -0.0303
  357MOL0     C49134   5.720   2.666   2.086  0.0207  0.3823 -0.2402
  357MOL0     C49135   5.774   2.773   2.161  0.4484  0.0071 -0.3053
  357MOL0     O49136   5.821   2.753   2.287  0.3693  0.2298  0.6253
  357MOL0     C49137   5.747   2.651   2.359  0.0752 -0.6694  1.3204
  357MOL0     C49138   5.843   2.527   2.368  0.9775  0.4993  0.2268
  357MOL0     C49139   5.968   2.549   2.455  0.2374  0.1101 -0.6772
  357MOL0     C49140   6.072   2.435   2.460  0.3842  0.3640  0.5987
  357MOL0     C49141   6.006   2.300   2.511 -0.5657 -0.0407  0.8753
  357MOL0     C49142   6.120   2.196   2.500 -1.1390  0.6319  0.1050
  357MOL0     C49143   6.070   2.061   2.507 -0.3800 -0.1571 -0.0134
  357MOL0     C49144   6.168   1.949   2.443  0.4823 -0.5965 -0.4308
  357MOL0     N49145   6.093   1.819   2.442 -0.5178  0.2082 -0.1875
  357MOL0     C49146   6.146   1.688   2.425 -0.0388 -0.3652  0.8834
  357MOL0     C49147   6.040   1.605   2.447  1.3051  0.3998  0.8679
  357MOL0     C49148   6.049   1.455   2.441 -0.6009  0.1833  0.6914
  357MOL0     C49149   6.116   1.400   2.568 -0.0065 -0.1877 -0.2907
  357MOL0     C49150   6.115   1.251   2.571  1.0224  0.1274  0.0354
  357MOL0     C49151   6.155   1.195   2.700  0.1329  0.4369 -0.1912
  357MOL0     O49152   6.291   1.252   2.699  0.2354 -0.3177 -0.9638
  357MOL0     C49153   6.359   1.272   2.817  0.6292  1.0325  1.1225
  357MOL0     C49154   6.309   1.260   2.942  0.3455 -1.0864 -0.1887
  357MOL0     C49155   6.393   1.283   3.057  0.1615 -0.3325 -0.3549
  357MOL0     C49156   6.322   1.280   3.189  0.1885  0.1060 -0.2121
  357MOL0     C49157   6.519   1.331   3.042 -0.0560 -1.1574  0.6365
  357MOL0     C49158   6.620   1.361   3.147 -1.1582  0.4674 -0.1815
  357MOL0     O49159   6.709   1.458   3.134  0.2055 -1.0681 -0.3121
  357MOL0     C49160   6.806   1.468   3.233  0.1198 -0.2448 -0.1893
  357MOL0     C49161   6.778   1.516   3.363  0.1511 -0.3643  0.0156
  357MOL0     C49162   6.887   1.526   3.459  0.3504  0.7172  0.7134
  357MOL0     C49163   7.017   1.497   3.420 -0.1916 -0.5799 -0.3786
  357MOL0     O49164   7.131   1.534   3.487  0.1874  0.1745 -0.1299
  357MOL0     C49165   7.132   1.640   3.579 -0.2372  0.5833  0.1795
  357MOL0     C49166   7.278   1.661   3.614 -0.8276 -0.5048 -0.5749
  357MOL0     C49167   7.299   1.797   3.685 -0.4158  0.0091  0.4371
  357MOL0     C49168   7.445   1.847   3.684 -0.2272 -0.2434 -0.0680
  357MOL0     C49169   7.455   1.980   3.746 -0.2324  0.7790 -0.2713
  357MOL0     C49170   7.604   2.042   3.730  0.7663  1.1660  0.7353
  357MOL0     C49171   7.613   2.193   3.766 -0.1083  0.5621  0.0735
  357MOL0     C49172   7.509   2.272   3.690  1.1196 -0.3718  0.2412
  357MOL0    Cl49173   7.562   2.442   3.704  0.2405  0.0467 -0.3763
  357MOL0     C49174   7.036   1.440   3.293 -0.4359 -0.2312 -0.0189
  357MOL0     C49175   6.932   1.420   3.203 -0.9573  0.5060 -0.3851
  357MOL0     O49176   6.619   1.273   3.238  0.2664 -0.1344 -0.3002
  357MOL0     C49177   6.568   1.351   2.913  1.2572 -0.0529  0.1373
  357MOL0     C49178   6.493   1.308   2.801  0.0188  1.0885  0.3743
  357MOL0     N49179   5.935   1.674   2.490 -0.6895  0.3427  0.5997
  357MOL0     N49180   5.966   1.800   2.498 -0.9901 -0.2024  0.2472
  357MOL0     C49181   5.754   2.913   2.124 -0.7065 -0.0657 -0.0163
  357MOL0     C49182   5.681   2.936   2.005 -0.0487 -1.0385 -0.0640
  357MOL0     C49183   5.409   2.746   1.668  0.8080 -0.8047  1.1468
  357MOL0     C49184   5.361   2.618   1.680  1.7077  0.8393  0.3448
  357MOL0     C49185   5.331   2.543   1.567 -0.7073 -0.3210  0.1052
  357MOL0     C49186   5.359   2.588   1.440  0.3225  0.1300  0.1575
  357MOL0     O49187   5.329   2.497   1.340 -0.4978 -0.7291  0.2984
  357MOL0     C49188   5.248   2.551   1.230 -0.6303  0.2892 -0.3221
  357MOL0     C49189   5.143   2.448   1.184 -0.0927  0.8853  0.7142
  357MOL0     C49190   5.079   2.482   1.042  0.1553 -0.0263 -0.1716
  357MOL0     C49191   4.929   2.511   1.056 -0.7344  0.1910  0.1581
  357MOL0     C49192   4.879   2.599   0.951 -0.2051 -0.2277  0.4043
  357MOL0     C49193   4.854   2.660   0.849  0.0321  1.1408  0.8449
  357MOL0     C49194   5.405   2.718   1.424 -0.3665 -0.0159 -0.7851
  357MOL0     C49195   5.435   2.795   1.539  0.2511 -0.6310  0.7189
  357MOL0     C49196   5.492   2.938   1.520 -0.5939 -0.1396  0.1685
  357MOL0     H49197   5.632   2.620   1.901  4.5769 -3.0831  0.5025
  357MOL0     H49198   5.729   2.560   2.105  0.4670  0.3136 -0.8022
  357MOL0     H49199   5.650   2.628   2.314 -0.9290  2.5298  1.5785
  357MOL0     H49200   5.734   2.686   2.462  0.3463 -2.0080  1.8286
  357MOL0     H49201   5.782   2.446   2.409  1.8673 -2.0061 -2.9485
  357MOL0     H49202   5.869   2.482   2.271  0.3215 -0.5157  0.5016
  357MOL0     H49203   6.007   2.646   2.424 -0.5197  0.1865 -1.4262
  357MOL0     H49204   5.924   2.576   2.551  2.2196  0.1371  0.2678
  357MOL0     H49205   6.104   2.409   2.359 -2.4140 -0.7796 -0.1130
  357MOL0     H49206   6.159   2.468   2.516  0.5240  0.1299  0.5196
  357MOL0     H49207   5.923   2.261   2.451  0.5117 -0.0224 -0.6919
  357MOL0     H49208   5.976   2.311   2.616  1.0187 -1.4103  1.5323
  357MOL0     H49209   6.183   2.222   2.415 -0.6844  2.9416  1.0940
  357MOL0     H49210   6.187   2.215   2.584  2.0761  1.5560 -2.4783
  357MOL0     H49211   5.981   2.075   2.446 -0.8614  3.5195  1.3067
  357MOL0     H49212   6.022   2.034   2.601 -0.9181  0.8855  0.0237
  357MOL0     H49213   6.190   1.966   2.337 -2.9663  1.4352 -0.9595
  357MOL0     H49214   6.256   1.945   2.508 -0.7110  0.8195  1.3350
  357MOL0     H49215   6.246   1.658   2.394 -0.6157 -0.6809 -0.7545
  357MOL0     H49216   6.095   1.418   2.349 -3.0278  1.1878 -1.0071
  357MOL0     H49217   5.946   1.421   2.430  0.2256 -1.6092 -3.4719
  357MOL0     H49218   6.216   1.441   2.584 -0.7568  1.5645  0.1379
  357MOL0     H49219   6.056   1.435   2.653  2.9769  1.3024  1.3687
  357MOL0     H49220   6.013   1.217   2.549  1.6672 -1.7158 -0.2736
  357MOL0     H49221   6.192   1.214   2.502  2.1272 -2.7521  2.5470
  357MOL0     H49222   6.096   1.235   2.783  1.4491  0.6051  0.6998
  357MOL0     H49223   6.146   1.087   2.713 -0.2530  0.6125  1.2073
  357MOL0     H49224   6.207   1.226   2.957 -1.6098  1.7047 -4.8551
  357MOL0     H49225   6.265   1.187   3.204  0.1792  0.3860  1.7511
  357MOL0     H49226   6.243   1.356   3.184  2.6755  2.9662  1.1285
  357MOL0     H49227   6.385   1.284   3.278 -3.0300 -0.3207  2.2630
  357MOL0     H49228   6.685   1.567   3.386  0.0816 -0.4765 -0.0213
  357MOL0     H49229   6.863   1.580   3.550  1.7781  2.8805 -0.1053
  357MOL0     H49230   7.096   1.726   3.522 -0.5389  0.7156  0.5658
  357MOL0     H49231   7.077   1.611   3.669  4.1934 -0.2822  2.8729
  357MOL0     H49232   7.318   1.584   3.680  2.0161  2.7982  1.9624
  357MOL0     H49233   7.342   1.663   3.525  1.5692 -0.7754  1.0220
  357MOL0     H49234   7.269   1.784   3.790 -0.9625  2.4457  0.6391
  357MOL0     H49235   7.232   1.867   3.636  1.6582  1.8038  0.0154
  357MOL0     H49236   7.490   1.842   3.584 -0.2031  0.4542 -0.0946
  357MOL0     H49237   7.506   1.774   3.737 -2.2679 -2.6166 -0.8080
  357MOL0     H49238   7.387   2.043   3.689  0.1762  1.1093 -0.4053
  357MOL0     H49239   7.414   1.969   3.847 -4.0605 -3.6402 -1.9698
  357MOL0     H49240   7.640   2.020   3.629  0.3107 -0.4065  0.8788
  357MOL0     H49241   7.671   1.983   3.794  0.1461 -1.6867 -1.0621
  357MOL0     H49242   7.710   2.226   3.728 -1.4589  1.9305 -2.5044
  357MOL0     H49243   7.603   2.201   3.874 -1.0768 -1.0474  0.1394
  357MOL0     H49244   7.414   2.260   3.743 -0.5033  5.2331 -0.7600
  357MOL0     H49245   7.500   2.255   3.582  2.0335  3.6410 -0.6005
  357MOL0     H49246   7.134   1.420   3.252  0.3684  0.6491  1.3740
  357MOL0     H49247   6.955   1.378   3.106 -2.3292  0.0280 -0.5202
  357MOL0     H49248   6.662   1.402   2.892  0.9874  0.2188 -0.4483
  357MOL0     H49249   6.531   1.337   2.703 -0.8612  0.2878 -0.2296
  357MOL0     H49250   5.787   3.001   2.179 -3.9552  0.9669  0.5556
  357MOL0     H49251   5.679   3.039   1.969  0.4116 -0.8605  0.4129
  357MOL0     H49252   5.334   2.580   1.778  0.9109  0.2173 -0.1024
  357MOL0     H49253   5.298   2.442   1.590  0.0583 -0.1424  2.1790
  357MOL0     H49254   5.184   2.634   1.262 -1.5791 -0.3545 -0.5117
  357MOL0     H49255   5.317   2.575   1.148  2.8903  0.7353  2.5395
  357MOL0     H49256   5.065   2.441   1.261 -1.6555 -2.1937 -0.9232
  357MOL0     H49257   5.180   2.345   1.183 -0.3719  0.7867 -0.4240
  357MOL0     H49258   5.133   2.574   1.015  0.8741 -0.5420 -0.5085
  357MOL0     H49259   5.093   2.402   0.969 -1.6552  2.3538 -3.3936
  357MOL0     H49260   4.919   2.568   1.148 -0.7719 -3.1830  2.4287
  357MOL0     H49261   4.878   2.415   1.067  3.0624 -1.9882  0.5426
  357MOL0     H49262   4.832   2.711   0.757 -1.2061 -2.0173 -0.7546
  357MOL0     H49263   5.442   2.735   1.324  1.7855 -3.4267 -0.7071
  357MOL0     H49264   5.600   2.936   1.502 -0.3867  1.2478  1.1449
  357MOL0     H49265   5.451   2.975   1.426  2.1907  0.2746 -0.9654
  357MOL0     H49266   5.483   3.005   1.606  0.9472 -1.9668  1.8428
  358MOL0     O49267   4.568   2.369   9.332 -0.3285 -0.1438  0.0695
  358MOL0     C49268   4.657   2.452   9.365 -0.2199  0.5672  0.1157
  358MOL0     O49269   4.780   2.478   9.297  0.2454 -0.0291 -0.0294
  358MOL0     C49270   4.796   2.412   9.181  0.2865  0.9322 -0.5119
  358MOL0     C49271   4.851   2.491   9.081 -0.2751  0.8762 -0.1247
  358MOL0     C49272   4.861   2.434   8.953 -0.5694 -0.3867  0.5972
  358MOL0     C49273   4.822   2.305   8.923  0.4557  0.1091  0.6648
  358MOL0     O49274   4.815   2.240   8.794  0.5365  0.2733  0.3633
  358MOL0     C49275   4.758   2.316   8.688 -0.2156  0.0116  0.3311
  358MOL0     C49276   4.611   2.325   8.706  0.7379 -0.3935  0.9114
  358MOL0     C49277   4.550   2.470   8.710 -0.0414  0.0213  0.6326
  358MOL0     C49278   4.563   2.543   8.572  0.4102  0.1785 -0.9818
  358MOL0     C49279   4.508   2.680   8.601  0.4183  0.8979 -0.9877
  358MOL0     C49280   4.509   2.752   8.466  0.6792  0.7230 -0.7027
  358MOL0     C49281   4.635   2.819   8.444  0.3303  0.6025  0.4733
  358MOL0     C49282   4.626   2.878   8.296  0.4859 -0.2489  0.4112
  358MOL0     N49283   4.732   2.984   8.284  0.5452 -0.7081  0.8313
  358MOL0     C49284   4.711   3.117   8.242  0.1489  0.3361  0.4021
  358MOL0     C49285   4.829   3.182   8.235  0.2511 -0.1913 -0.0992
  358MOL0     C49286   4.850   3.334   8.215 -0.4842  0.2298 -0.4335
  358MOL0     C49287   4.782   3.374   8.090 -0.6212 -0.2603  0.0671
  358MOL0     C49288   4.835   3.304   7.961 -0.7664  0.0270  0.3774
  358MOL0     C49289   4.912   3.409   7.880 -0.4996  0.4530 -0.1945
  358MOL0     O49290   5.033   3.437   7.946 -0.4102  0.3690  0.3867
  358MOL0     C49291   5.110   3.532   7.880 -0.9819 -0.0469  0.5399
  358MOL0     C49292   5.245   3.551   7.926 -0.5410  1.5091  0.9942
  358MOL0     C49293   5.331   3.645   7.867 -0.9354 -0.2180 -0.3128
  358MOL0     C49294   5.462   3.668   7.930 -0.2873  0.1798 -0.2815
  358MOL0     C49295   5.296   3.725   7.757 -0.9177  0.5122 -0.2538
  358MOL0     C49296   5.380   3.824   7.684  0.3586 -0.3716  1.1912
  358MOL0     O49297   5.298   3.920   7.623  0.0235 -0.1066 -0.0719
  358MOL0     C49298   5.356   4.035   7.569  0.1950  0.0262 -0.1101
  358MOL0     C49299   5.358   4.149   7.650 -0.1403 -0.2906  0.3023
  358MOL0     C49300   5.396   4.271   7.588 -0.1948  0.6298  0.3141
  358MOL0     C49301   5.440   4.275   7.458 -0.6601 -0.1429  0.8335
  358MOL0     O49302   5.487   4.390   7.398 -0.0363 -0.2906 -0.0163
  358MOL0     C49303   5.628   4.377   7.351  1.5735  1.6658 -0.3901
  358MOL0     C49304   5.652   4.508   7.278  0.6707  0.1673  0.0263
  358MOL0     C49305   5.635   4.626   7.376 -0.4994 -0.8295  0.7734
  358MOL0     C49306   5.689   4.765   7.314 -0.0809  0.4022 -0.2513
  358MOL0     C49307   5.602   4.822   7.206 -0.1578  0.5134  0.2694
  358MOL0     C49308   5.646   4.965   7.173  0.3207 -0.1296 -0.1746
  358MOL0     C49309   5.696   4.983   7.026  0.3357 -0.7416 -0.1771
  358MOL0     C49310   5.576   5.000   6.941 -0.9256  0.1469 -0.5093
  358MOL0    Cl49311   5.635   5.059   6.784  0.5226 -0.4123  0.4607
  358MOL0     C49312   5.447   4.157   7.387  0.1262 -0.9718  0.1829
  358MOL0     C49313   5.402   4.038   7.442 -0.2461 -0.3852 -0.0235
  358MOL0     O49314   5.503   3.827   7.689  0.6569  0.0385  0.7664
  358MOL0     C49315   5.167   3.694   7.704 -0.6262  0.2191 -0.6197
  358MOL0     C49316   5.077   3.605   7.764 -0.2788  0.2329 -0.0107
  358MOL0     N49317   4.913   3.087   8.266  0.2280  0.2900  0.4703
  358MOL0     N49318   4.860   2.969   8.279  0.5631  0.0617 -0.1615
  358MOL0     C49319   4.799   2.224   9.031 -0.2861  0.1144 -0.5454
  358MOL0     C49320   4.797   2.275   9.164 -0.2797 -0.2996  0.1086
  358MOL0     C49321   4.633   2.532   9.487  0.0053 -0.4727 -0.8268
  358MOL0     C49322   4.569   2.480   9.607 -0.4151 -0.3354 -0.7755
  358MOL0     C49323   4.560   2.558   9.717 -0.3091 -0.1440 -0.3030
  358MOL0     C49324   4.596   2.690   9.723  0.5914  0.7392 -0.6655
  358MOL0     O49325   4.558   2.757   9.844 -0.1209  0.5440 -0.1248
  358MOL0     C49326   4.607   2.889   9.864  0.0988 -0.3370  0.2482
  358MOL0     C49327   4.536   2.966   9.984  1.2007 -0.2964 -0.4087
  358MOL0     C49328   4.500   3.111   9.956  0.0680 -0.4727  0.5220
  358MOL0     C49329   4.476   3.205  10.075 -0.1020  0.2023  0.0142
  358MOL0     C49330   4.415   3.331  10.019 -0.1390 -0.0495  0.8476
  358MOL0     C49331   4.355   3.419   9.962 -1.3395 -0.9562  0.8345
  358MOL0     C49332   4.656   2.741   9.610 -0.4133  0.1732 -0.7356
  358MOL0     C49333   4.671   2.671   9.485 -0.2544 -0.5122 -0.5372
  358MOL0     C49334   4.718   2.747   9.363 -0.1379  0.0553 -0.0412
  358MOL0     H49335   4.877   2.595   9.097 -2.4639  1.6252 -1.0539
  358MOL0     H49336   4.899   2.502   8.878  0.9315 -0.0420  1.6289
  358MOL0     H49337   4.780   2.265   8.594  1.3797  0.1459  0.5931
  358MOL0     H49338   4.800   2.416   8.676 -1.5180  0.6763  1.0934
  358MOL0     H49339   4.557   2.254   8.643  2.4851 -3.0139  2.1431
  358MOL0     H49340   4.584   2.286   8.805  0.0198 -0.7913  0.5644
  358MOL0     H49341   4.450   2.461   8.752 -0.6745 -0.8571 -0.9764
  358MOL0     H49342   4.601   2.526   8.788 -1.6723  0.5068  1.3914
  358MOL0     H49343   4.669   2.547   8.548  0.5866 -1.3814 -0.5743
  358MOL0     H49344   4.506   2.489   8.496 -0.2606  0.0689 -0.4212
  358MOL0     H49345   4.570   2.729   8.676  0.9942  0.1682 -0.9712
  358MOL0     H49346   4.405   2.661   8.634 -0.3668  2.3052 -2.4497
  358MOL0     H49347   4.497   2.682   8.383  0.0405 -0.5304  0.4161
  358MOL0     H49348   4.426   2.823   8.471 -0.0476  0.0040 -1.8805
  358MOL0     H49349   4.725   2.757   8.451 -1.1976 -1.9171 -1.0363
  358MOL0     H49350   4.646   2.896   8.521  1.2720 -0.8597  1.8707
  358MOL0     H49351   4.632   2.805   8.215 -2.4088  1.8562 -1.9606
  358MOL0     H49352   4.523   2.915   8.285 -0.6684 -1.6928  4.4975
  358MOL0     H49353   4.620   3.177   8.235  0.5872  0.8391 -2.1356
  358MOL0     H49354   4.957   3.357   8.212 -0.3508 -0.4511 -1.3313
  358MOL0     H49355   4.812   3.381   8.306  0.6308  0.2777  0.0249
  358MOL0     H49356   4.675   3.351   8.093 -0.6386 -0.1921 -0.0274
  358MOL0     H49357   4.791   3.483   8.087 -0.1627 -0.2280  1.7694
  358MOL0     H49358   4.900   3.217   7.973  0.8339 -0.1109 -5.7963
  358MOL0     H49359   4.758   3.264   7.895 -1.6079 -1.7517  2.3521
  358MOL0     H49360   4.933   3.367   7.781 -4.3766 -3.0583  0.1886
  358MOL0     H49361   4.855   3.502   7.869  2.4391  2.4308  0.2597
  358MOL0     H49362   5.285   3.502   8.013  2.5594  2.2799  0.1101
  358MOL0     H49363   5.465   3.622   8.029 -1.5518 -0.4669 -0.5197
  358MOL0     H49364   5.476   3.777   7.931  2.1992 -0.0812 -0.3309
  358MOL0     H49365   5.550   3.642   7.870  1.6485 -1.0678  2.8497
  358MOL0     H49366   5.333   4.139   7.755  0.2412 -2.1260  0.2554
  358MOL0     H49367   5.390   4.361   7.649 -1.9985  0.9101 -0.2230
  358MOL0     H49368   5.696   4.351   7.431 -0.7537 -0.5854  1.0097
  358MOL0     H49369   5.645   4.292   7.284  1.9656 -0.4884  2.2908
  358MOL0     H49370   5.749   4.515   7.227  0.4592  1.8962 -0.2043
  358MOL0     H49371   5.584   4.523   7.194 -0.1777 -0.1879  0.6427
  358MOL0     H49372   5.695   4.594   7.462  4.8884 -2.5417 -3.0972
  358MOL0     H49373   5.535   4.640   7.416 -0.5269  0.4610  0.3221
  358MOL0     H49374   5.794   4.757   7.286  1.6543  1.4635  4.8746
  358MOL0     H49375   5.686   4.829   7.403 -0.1528  0.6019 -0.3966
  358MOL0     H49376   5.598   4.754   7.121 -2.8043 -0.4764  1.0708
  358MOL0     H49377   5.498   4.818   7.241 -0.1001 -2.0045  0.3833
  358MOL0     H49378   5.740   4.993   7.222  0.2836  1.4170 -0.9326
  358MOL0     H49379   5.565   5.036   7.195  1.7858  2.4320 -2.4104
  358MOL0     H49380   5.763   4.900   7.001 -0.7543 -1.6771 -0.0742
  358MOL0     H49381   5.768   5.065   7.018  0.5910 -0.9472 -0.0209
  358MOL0     H49382   5.510   5.072   6.991 -0.7911  0.2747 -0.5141
  358MOL0     H49383   5.528   4.902   6.934 -0.7392  0.0652 -0.6622
  358MOL0     H49384   5.479   4.151   7.283  1.8280  0.6014  0.5468
  358MOL0     H49385   5.411   3.943   7.392 -1.0448 -0.6252  0.2833
  358MOL0     H49386   5.135   3.746   7.614  0.1038 -0.2778 -1.1757
  358MOL0     H49387   4.981   3.593   7.715  0.0411 -2.3881 -0.1630
  358MOL0     H49388   4.765   2.121   9.027 -0.2944  0.1481 -1.4398
  358MOL0     H49389   4.785   2.216   9.254 -0.6400  0.9166  0.8833
  358MOL0     H49390   4.532   2.378   9.607  1.4977 -1.1117 -2.6759
  358MOL0     H49391   4.519   2.517   9.809  3.8532  1.3137  2.4635
  358MOL0     H49392   4.713   2.889   9.891  0.0970 -1.4014  0.2781
  358MOL0     H49393   4.590   2.943   9.771  0.8450 -1.6984 -0.7080
  358MOL0     H49394   4.610   2.976  10.064  0.5778 -0.8132  0.2524
  358MOL0     H49395   4.453   2.910  10.030  0.9870  1.7518  1.9339
  358MOL0     H49396   4.574   3.164   9.897  1.1038 -1.3691  0.9776
  358MOL0     H49397   4.413   3.100   9.891 -0.0761 -1.6893  0.8910
  358MOL0     H49398   4.559   3.223  10.144 -1.5535 -1.1461  2.2359
  358MOL0     H49399   4.400   3.150  10.130  0.3097 -1.3472 -0.9104
  358MOL0     H49400   4.300   3.494   9.908  2.3274  0.8076 -0.8211
  358MOL0     H49401   4.686   2.845   9.615  3.9408 -0.9143  3.0466
  358MOL0     H49402   4.670   2.710   9.272  0.0508  0.5961 -0.3667
  358MOL0     H49403   4.697   2.853   9.379 -2.0432 -0.3875  0.6257
  358MOL0     H49404   4.825   2.724   9.359 -0.6083 -2.4522 -3.5539
  359MOL0     O49405   8.296   4.474   9.811  0.0504 -0.4259  0.4828
  359MOL0     C49406   8.304   4.553   9.724  0.3903  0.4026  0.7266
  359MOL0     O49407   8.416   4.579   9.641 -0.5616 -0.0035  0.3894
  359MOL0     C49408   8.520   4.498   9.653 -0.4757 -0.6306 -0.6376
  359MOL0     C49409   8.607   4.489   9.765  0.2632 -0.5275  0.5860
  359MOL0     C49410   8.724   4.411   9.754  0.9253 -0.3114  0.1412
  359MOL0     C49411   8.733   4.315   9.660 -0.1914 -0.0839  0.0480
  359MOL0     O49412   8.847   4.234   9.656  0.0883 -0.5145  0.3136
  359MOL0     C49413   8.928   4.269   9.549  0.0292 -0.6388 -0.6682
  359MOL0     C49414   9.051   4.181   9.526 -0.5540  0.1147 -0.2015
  359MOL0     C49415   9.009   4.039   9.474  0.0215 -0.1562  0.7417
  359MOL0     C49416   9.115   3.936   9.505  0.3352 -0.0394 -1.4430
  359MOL0     C49417   9.078   3.799   9.467  0.5042 -0.1252  0.6934
  359MOL0     C49418   9.198   3.707   9.481  0.0451 -0.5545 -0.4608
  359MOL0     C49419   9.150   3.555   9.461 -0.3232 -0.2879 -0.2122
  359MOL0     C49420   9.208   3.463   9.571  0.2025  0.8143  0.0662
  359MOL0     N49421   9.185   3.314   9.548 -0.6090  0.1601 -0.4000
  359MOL0     C49422   9.280   3.234   9.483  0.4986  0.6791 -0.2544
  359MOL0     C49423   9.220   3.109   9.487 -0.1098 -1.0107 -0.3948
  359MOL0     C49424   9.283   2.983   9.457 -0.1932  0.0735  0.3920
  359MOL0     C49425   9.221   2.921   9.328 -0.6153 -0.9205 -0.1344
  359MOL0     C49426   9.272   2.975   9.184  0.0600 -0.3231 -0.1706
  359MOL0     C49427   9.213   2.918   9.062  0.1088 -0.1932  0.2195
  359MOL0     O49428   9.280   2.787   9.032  0.3585  0.2621 -0.3850
  359MOL0     C49429   9.242   2.726   8.909  0.6566  0.2076 -0.3378
  359MOL0     C49430   9.306   2.606   8.888 -0.8317  0.5339  0.3780
  359MOL0     C49431   9.264   2.523   8.782  0.2493  0.2044 -0.0277
  359MOL0     C49432   9.334   2.384   8.779 -0.9336  0.4958  0.2006
  359MOL0     C49433   9.180   2.569   8.686 -0.1614 -0.1522  0.3468
  359MOL0     C49434   9.136   2.489   8.564 -1.2930  0.6190 -0.4959
  359MOL0     O49435   9.053   2.552   8.473  0.5836 -0.1494  0.6161
  359MOL0     C49436   8.997   2.475   8.373  1.2695  0.2858  0.5458
  359MOL0     C49437   9.027   2.528   8.242  0.5012 -0.0769 -0.7831
  359MOL0     C49438   8.985   2.474   8.119 -0.7750 -0.4465  0.5363
  359MOL0     C49439   8.886   2.375   8.123  0.0535 -0.9612 -0.4467
  359MOL0     O49440   8.849   2.330   8.004  0.2288 -0.1326 -0.1209
  359MOL0     C49441   8.757   2.228   7.999 -0.0522 -0.1599  0.1266
  359MOL0     C49442   8.724   2.188   7.855 -0.3200  0.3813  0.0701
  359MOL0     C49443   8.627   2.071   7.841 -0.2879  0.9238 -0.0248
  359MOL0     C49444   8.655   2.001   7.703  0.1757  0.4480  0.1123
  359MOL0     C49445   8.560   1.881   7.681 -0.4967  0.5436  0.5536
  359MOL0     C49446   8.606   1.794   7.564  0.2217  1.1651 -0.3961
  359MOL0     C49447   8.491   1.705   7.504 -0.0130 -0.5736 -0.2324
  359MOL0     C49448   8.523   1.661   7.358  0.0789  0.3157  0.8659
  359MOL0    Cl49449   8.398   1.532   7.308 -0.0291  0.4520 -0.3535
  359MOL0     C49450   8.838   2.330   8.251 -0.2643 -0.2700 -0.8294
  359MOL0     C49451   8.895   2.381   8.373 -0.2092 -0.6865 -0.3233
  359MOL0     O49452   9.189   2.375   8.550  0.6902 -0.3095  0.5380
  359MOL0     C49453   9.131   2.699   8.701  0.1835  0.3546  0.7351
  359MOL0     C49454   9.159   2.775   8.813  0.0515  0.8949 -0.3659
  359MOL0     N49455   9.097   3.126   9.545  0.4460  0.1973  0.0652
  359MOL0     N49456   9.068   3.254   9.561  0.1015 -0.3763 -0.1215
  359MOL0     C49457   8.641   4.314   9.556 -0.5988  0.3266 -1.0146
  359MOL0     C49458   8.538   4.410   9.547  0.0558  0.0315 -0.0212
  359MOL0     C49459   8.193   4.640   9.686  0.2870 -0.2368  1.3128
  359MOL0     C49460   8.179   4.682   9.558 -0.2419  0.1497  0.0825
  359MOL0     C49461   8.078   4.754   9.505  0.1992 -1.0051  0.3355
  359MOL0     C49462   7.975   4.802   9.582  0.8867  0.0729 -1.0772
  359MOL0     O49463   7.880   4.884   9.521 -0.5938 -0.2887  0.6539
  359MOL0     C49464   7.755   4.910   9.578 -0.2105 -0.9701  0.6097
  359MOL0     C49465   7.696   5.016   9.488 -0.4108  0.0074 -1.2767
  359MOL0     C49466   7.556   5.049   9.540  0.1318 -0.0042 -0.7963
  359MOL0     C49467   7.552   5.192   9.609  1.0816 -0.2599 -0.8244
  359MOL0     C49468   7.584   5.298   9.509  0.7638 -0.2436 -0.3255
  359MOL0     C49469   7.621   5.373   9.415  0.2186  0.0452 -0.3462
  359MOL0     C49470   7.971   4.761   9.717 -0.3918 -0.1104 -0.3689
  359MOL0     C49471   8.084   4.684   9.770  0.1180 -0.3486 -0.5750
  359MOL0     C49472   8.083   4.661   9.921  0.2713 -0.9505 -0.3815
  359MOL0     H49473   8.590   4.552   9.851 -2.2267 -0.5626  0.2063
  359MOL0     H49474   8.788   4.420   9.841 -1.7394  2.7069  2.0503
  359MOL0     H49475   8.982   4.364   9.562  0.9583 -1.4125  1.5933
  359MOL0     H49476   8.858   4.274   9.465 -3.1244 -0.5393  1.7948
  359MOL0     H49477   9.114   4.227   9.449  0.2045  0.4623  0.6055
  359MOL0     H49478   9.095   4.166   9.625  2.0983 -3.0485 -1.6763
  359MOL0     H49479   8.916   4.003   9.519 -0.1569 -1.2678 -0.4754
  359MOL0     H49480   8.988   4.040   9.367  1.0628 -5.7972  0.1892
  359MOL0     H49481   9.212   3.954   9.456  0.7728 -1.9041 -1.3127
  359MOL0     H49482   9.129   3.951   9.612 -2.5699 -0.1663 -0.9593
  359MOL0     H49483   9.047   3.799   9.362  0.1248  0.9803  0.7957
  359MOL0     H49484   8.992   3.759   9.521  1.7478  1.2414  3.9440
  359MOL0     H49485   9.283   3.719   9.413  2.1167  1.6845  2.3293
  359MOL0     H49486   9.247   3.724   9.577  1.7901 -2.0690 -1.0243
  359MOL0     H49487   9.197   3.523   9.367  1.0685  0.5157  0.1838
  359MOL0     H49488   9.044   3.526   9.466 -1.3857  3.2668  1.1567
  359MOL0     H49489   9.312   3.491   9.591  0.3504 -0.1055  0.6133
  359MOL0     H49490   9.154   3.489   9.663  0.1071 -3.0491  1.2617
  359MOL0     H49491   9.378   3.270   9.452  0.1356  1.9583  0.0416
  359MOL0     H49492   9.277   2.908   9.537  0.7381  0.0345  0.4394
  359MOL0     H49493   9.389   2.989   9.431 -0.3064 -1.9098 -0.7828
  359MOL0     H49494   9.248   2.815   9.327  2.8838 -0.1952  1.8145
  359MOL0     H49495   9.112   2.927   9.336 -0.8735 -2.2777 -1.9886
  359MOL0     H49496   9.235   3.078   9.180  1.1420  0.0546 -0.8245
  359MOL0     H49497   9.382   2.978   9.189  0.0844 -1.0442  3.9172
  359MOL0     H49498   9.104   2.916   9.058  0.1104 -2.1863  0.3731
  359MOL0     H49499   9.247   2.983   8.981  2.2707 -0.4224  0.8577
  359MOL0     H49500   9.372   2.575   8.969 -0.5493 -0.7905 -0.3317
  359MOL0     H49501   9.260   2.304   8.778  2.4361 -3.3343  5.0886
  359MOL0     H49502   9.392   2.356   8.868  0.0546  0.8023 -0.3267
  359MOL0     H49503   9.399   2.379   8.691 -2.1791  0.0727 -0.7150
  359MOL0     H49504   9.095   2.613   8.238 -0.1866  0.6372  1.4831
  359MOL0     H49505   9.032   2.499   8.025 -0.6792 -3.1198 -0.1937
  359MOL0     H49506   8.787   2.139   8.055  0.1553  0.9161  1.7607
  359MOL0     H49507   8.666   2.263   8.048  0.8885 -0.1573  1.9331
  359MOL0     H49508   8.687   2.276   7.802  0.5797  1.3932  1.0898
  359MOL0     H49509   8.822   2.165   7.812  0.0507 -1.2882  1.6978
  359MOL0     H49510   8.526   2.114   7.844  1.0343  4.3890 -0.6985
  359MOL0     H49511   8.651   1.993   7.913  0.4198 -0.9898 -2.2161
  359MOL0     H49512   8.757   1.960   7.701  1.1986  2.7274  1.3070
  359MOL0     H49513   8.652   2.071   7.620 -0.8568 -1.1804 -1.2840
  359MOL0     H49514   8.553   1.819   7.771 -1.5386  0.2094  0.2660
  359MOL0     H49515   8.460   1.916   7.654 -0.7296  0.2167  0.9717
  359MOL0     H49516   8.702   1.744   7.574  0.1360  0.7124 -1.6282
  359MOL0     H49517   8.644   1.858   7.484  2.0209  0.7374  0.0649
  359MOL0     H49518   8.396   1.760   7.507  0.9201  1.1422 -0.6818
  359MOL0     H49519   8.474   1.618   7.568 -2.3376 -1.1152 -1.4801
  359MOL0     H49520   8.625   1.621   7.354  0.8140  2.1110  0.7963
  359MOL0     H49521   8.508   1.741   7.285 -1.3777 -1.3051 -0.6958
  359MOL0     H49522   8.772   2.244   8.252 -0.5442 -0.1064 -2.1808
  359MOL0     H49523   8.864   2.329   8.463 -0.3707 -2.4438 -1.3479
  359MOL0     H49524   9.075   2.760   8.632  0.3015  2.7633  2.6441
  359MOL0     H49525   9.112   2.872   8.821 -2.7778 -0.2282 -1.7681
  359MOL0     H49526   8.652   4.237   9.480  0.5427  1.7915 -2.4035
  359MOL0     H49527   8.459   4.399   9.474 -0.6638 -2.0981  0.9983
  359MOL0     H49528   8.261   4.673   9.487 -0.1012  0.9514  0.1312
  359MOL0     H49529   8.085   4.792   9.403 -0.7774 -0.7896  0.3411
  359MOL0     H49530   7.693   4.820   9.580  0.3170 -1.4572  4.7770
  359MOL0     H49531   7.762   4.941   9.683 -1.5235 -1.3871  0.8412
  359MOL0     H49532   7.697   4.987   9.382 -1.6858  0.8956 -1.5558
  359MOL0     H49533   7.762   5.102   9.503 -2.9312  1.5827  2.2648
  359MOL0     H49534   7.487   5.056   9.456  0.2722  2.7030 -0.7827
  359MOL0     H49535   7.531   4.972   9.614 -1.3879 -0.0311 -1.3129
  359MOL0     H49536   7.616   5.218   9.694 -0.0819 -0.1087  0.0175
  359MOL0     H49537   7.449   5.204   9.643  0.9734 -0.3492 -1.1219
  359MOL0     H49538   7.653   5.451   9.349  0.7219 -1.3155 -1.7681
  359MOL0     H49539   7.887   4.786   9.781 -0.6662  1.7363 -1.3763
  359MOL0     H49540   8.182   4.679   9.963  0.7424 -2.1805 -0.9081
  359MOL0     H49541   8.020   4.735   9.972  1.3237  2.6068 -3.7758
  359MOL0     H49542   8.053   4.559   9.949 -0.5578 -0.6324 -0.0764
  360MOL0     O49543   7.429   1.455  10.101 -0.0777  0.7007  0.3462
  360MOL0     C49544   7.502   1.357  10.085 -0.1500  0.4149  0.5670
  360MOL0     O49545   7.610   1.313  10.165 -0.3533 -0.6276 -0.1616
  360MOL0     C49546   7.658   1.393  10.274  0.3929 -0.2142  0.3755
  360MOL0     C49547   7.687   1.529  10.250 -0.1465  1.0193 -0.2152
  360MOL0     C49548   7.725   1.607  10.364 -0.5559 -0.3339  0.7059
  360MOL0     C49549   7.742   1.552  10.492 -0.4377  0.5026  0.6537
  360MOL0     O49550   7.772   1.622  10.609  0.2258  0.7881 -0.2046
  360MOL0     C49551   7.813   1.753  10.595 -0.0484  0.3176 -0.4846
  360MOL0     C49552   7.857   1.807  10.724 -0.2703  0.2891  0.1221
  360MOL0     C49553   7.967   1.920  10.708  0.8038  0.3618  0.9202
  360MOL0     C49554   7.977   2.002  10.839  0.0587 -0.2592  1.2880
  360MOL0     C49555   8.079   2.123  10.808 -0.6423  0.1806 -0.5143
  360MOL0     C49556   8.071   2.214  10.939 -0.5476 -1.5778  0.1849
  360MOL0     C49557   8.185   2.326  10.948  0.5040  0.3667  0.5636
  360MOL0     C49558   8.185   2.397  11.087  0.3365 -0.5520 -0.6409
  360MOL0     N49559   8.303   2.482  11.112 -0.2768 -0.5477 -0.4468
  360MOL0     C49560   8.361   2.571  11.028 -0.2168 -0.2528 -0.7221
  360MOL0     C49561   8.492   2.590  11.063 -0.5271 -0.5466 -0.0869
  360MOL0     C49562   8.603   2.668  11.002  0.3453  0.4162 -0.4225
  360MOL0     C49563   8.547   2.789  10.926  0.6587 -0.0108 -0.4137
  360MOL0     C49564   8.655   2.891  10.898  0.3465 -0.0847  0.7545
  360MOL0     C49565   8.749   2.834  10.788  1.1666 -0.2959  0.9240
  360MOL0     O49566   8.800   2.945  10.714  0.5902 -0.0331  0.4099
  360MOL0     C49567   8.832   2.930  10.578  0.0205  0.5365  0.1361
  360MOL0     C49568   8.856   2.803  10.530  1.3653 -0.5784 -1.2275
  360MOL0     C49569   8.882   2.771  10.399 -0.3904 -0.6740  0.5466
  360MOL0     C49570   8.949   2.647  10.369  0.2588 -0.0209 -0.0078
  360MOL0     C49571   8.866   2.871  10.299  0.5281 -0.9844  0.4622
  360MOL0     C49572   8.893   2.858  10.153 -0.3139  0.4212 -0.2682
  360MOL0     O49573   8.909   2.730  10.103 -0.1225  0.0515 -0.6801
  360MOL0     C49574   8.939   2.718   9.969 -0.2997 -0.4753 -0.8964
  360MOL0     C49575   9.047   2.788   9.911  0.0557 -0.0472 -0.3063
  360MOL0     C49576   9.068   2.783   9.776 -0.1863  0.8361 -0.0385
  360MOL0     C49577   8.991   2.705   9.690 -0.2980 -0.2775  1.5302
  360MOL0     O49578   9.028   2.692   9.548 -0.3293 -0.5485 -0.7801
  360MOL0     C49579   8.951   2.610   9.466 -0.1571 -1.0602 -0.0778
  360MOL0     C49580   9.008   2.606   9.320 -0.0063 -0.1432 -0.1218
  360MOL0     C49581   8.923   2.518   9.225 -0.3462 -0.5822  0.1924
  360MOL0     C49582   8.974   2.520   9.080 -0.5701 -0.1728 -0.4665
  360MOL0     C49583   8.873   2.468   8.968 -0.1754  0.1707 -0.5470
  360MOL0     C49584   8.859   2.316   8.969  0.2929 -0.1105  1.0752
  360MOL0     C49585   8.788   2.272   8.828  0.4864  0.5909 -0.1348
  360MOL0     C49586   8.728   2.129   8.856 -0.2763  0.3275  0.5375
  360MOL0    Cl49587   8.578   2.125   8.949  0.0364 -0.0380  0.0291
  360MOL0     C49588   8.900   2.620   9.758 -0.2501  1.2148 -0.5859
  360MOL0     C49589   8.875   2.628   9.894 -0.4112 -0.1639  0.1950
  360MOL0     O49590   8.883   2.963  10.080 -0.5734  0.0678  0.1105
  360MOL0     C49591   8.832   2.998  10.348  0.6403  0.1365  0.1972
  360MOL0     C49592   8.817   3.035  10.480 -0.4922  1.0108  0.5535
  360MOL0     N49593   8.499   2.507  11.182 -0.4079 -0.4284  0.8290
  360MOL0     N49594   8.388   2.451  11.213  0.1215  1.7779  0.5903
  360MOL0     C49595   7.724   1.416  10.509 -0.0620  0.1988 -0.0030
  360MOL0     C49596   7.684   1.337  10.396 -0.5331  0.0492  0.2282
  360MOL0     C49597   7.475   1.282   9.962  0.2462  0.3144 -0.2903
  360MOL0     C49598   7.575   1.190   9.921 -0.9032  0.5488  0.3583
  360MOL0     C49599   7.574   1.116   9.798 -0.2377 -0.2525 -0.7647
  360MOL0     C49600   7.462   1.127   9.721  0.3984  0.0515 -0.2695
  360MOL0     O49601   7.452   1.053   9.604  0.2633  0.5984 -0.3588
  360MOL0     C49602   7.326   1.036   9.542 -0.3174 -0.1034  0.1519
  360MOL0     C49603   7.319   0.904   9.468 -0.7264  0.5272 -0.5728
  360MOL0     C49604   7.355   0.783   9.561 -0.0994 -0.0186  0.9871
  360MOL0     C49605   7.244   0.747   9.665 -0.2562 -0.1837  0.3208
  360MOL0     C49606   7.265   0.784   9.803 -0.2441 -0.8465  0.0105
  360MOL0     C49607   7.280   0.852   9.903  0.1538  0.2283  0.4796
  360MOL0     C49608   7.356   1.211   9.764 -1.1689 -0.6975  0.6126
  360MOL0     C49609   7.369   1.293   9.874 -0.0527  0.0747  0.1792
  360MOL0     C49610   7.245   1.393   9.889  0.6947  0.5394  0.5104
  360MOL0     H49611   7.675   1.572  10.151  0.4097  2.6172  0.3785
  360MOL0     H49612   7.731   1.713  10.341 -0.9970 -0.5492 -0.4520
  360MOL0     H49613   7.756   1.823  10.533  0.9138  0.2297 -1.4977
  360MOL0     H49614   7.903   1.743  10.533  0.7930 -1.4908  0.9243
  360MOL0     H49615   7.768   1.849  10.771  0.2252  1.1643  0.2941
  360MOL0     H49616   7.899   1.724  10.781  0.8031  0.4442 -0.4306
  360MOL0     H49617   8.061   1.873  10.675  0.1216 -0.0357 -0.5324
  360MOL0     H49618   7.939   1.989  10.629 -1.7819  1.8838  3.0030
  360MOL0     H49619   7.877   2.037  10.867  0.5084  0.1255  2.4476
  360MOL0     H49620   8.008   1.927  10.913  0.2562 -2.3242 -0.7738
  360MOL0     H49621   8.058   2.179  10.716  0.4735  1.1756 -0.1941
  360MOL0     H49622   8.181   2.086  10.797  0.2641  1.7687  1.7004
  360MOL0     H49623   7.965   2.237  10.942 -0.3530 -0.4345 -0.9041
  360MOL0     H49624   8.104   2.145  11.018  1.6545 -1.0177 -0.1677
  360MOL0     H49625   8.175   2.407  10.875  2.4716  0.3194  0.2041
  360MOL0     H49626   8.283   2.279  10.943 -0.6252 -2.3958  2.3465
  360MOL0     H49627   8.090   2.450  11.099  0.2009 -0.1621 -3.0124
  360MOL0     H49628   8.190   2.318  11.162  4.3095  0.5750  0.5177
  360MOL0     H49629   8.310   2.613  10.942  0.3388  4.4666  0.9586
  360MOL0     H49630   8.654   2.602  10.931  0.6785  0.6173 -0.3736
  360MOL0     H49631   8.678   2.693  11.078 -1.9167  2.2014  1.3790
  360MOL0     H49632   8.501   2.759  10.831  0.4949  0.2024 -0.4026
  360MOL0     H49633   8.475   2.843  10.988 -2.0948  1.4230 -4.4061
  360MOL0     H49634   8.621   2.986  10.854  1.1964 -0.6759 -1.2722
  360MOL0     H49635   8.715   2.909  10.988  3.2551  1.1044 -1.2830
  360MOL0     H49636   8.822   2.770  10.839 -1.0963 -2.8907  1.1606
  360MOL0     H49637   8.686   2.767  10.728 -1.1114  0.8524  1.9303
  360MOL0     H49638   8.872   2.718  10.595  0.4892 -1.9204 -2.6740
  360MOL0     H49639   9.039   2.675  10.313 -1.0596  0.4439 -1.9755
  360MOL0     H49640   8.890   2.590  10.296 -0.3338  1.5070 -0.7648
  360MOL0     H49641   8.983   2.589  10.456  4.4149  0.8651 -0.7952
  360MOL0     H49642   9.105   2.856   9.972 -0.8581  1.4705 -1.0580
  360MOL0     H49643   9.147   2.839   9.727  0.7254 -1.6251 -1.5840
  360MOL0     H49644   8.953   2.505   9.499 -0.3198 -1.2522 -0.6648
  360MOL0     H49645   8.847   2.644   9.469  0.6602  1.8869 -1.9508
  360MOL0     H49646   9.013   2.708   9.282 -2.5956  0.5397  1.1147
  360MOL0     H49647   9.108   2.564   9.308 -0.0660 -0.3931  0.2215
  360MOL0     H49648   8.825   2.566   9.220  0.3612  1.1031  1.5518
  360MOL0     H49649   8.918   2.417   9.266  2.2987 -1.3724 -1.1949
  360MOL0     H49650   9.077   2.485   9.076  0.2025  1.9764 -0.3459
  360MOL0     H49651   8.980   2.628   9.061 -0.4413 -0.1501 -0.2941
  360MOL0     H49652   8.774   2.513   8.977 -0.8860 -1.6702  1.9302
  360MOL0     H49653   8.926   2.487   8.874  0.0145  0.6558 -0.3480
  360MOL0     H49654   8.796   2.282   9.051 -2.3615  2.7461  0.4255
  360MOL0     H49655   8.956   2.266   8.975  1.2848  1.3069 -1.5519
  360MOL0     H49656   8.861   2.284   8.747 -1.3589 -3.4001 -2.7596
  360MOL0     H49657   8.707   2.340   8.799  0.2520 -0.5690 -2.4555
  360MOL0     H49658   8.802   2.065   8.905 -0.6376 -0.8565 -0.4267
  360MOL0     H49659   8.716   2.076   8.761  1.9953  2.2551 -0.9460
  360MOL0     H49660   8.840   2.548   9.703  1.3046 -1.6018  1.1507
  360MOL0     H49661   8.810   2.549   9.929 -1.3204  0.0326 -0.9807
  360MOL0     H49662   8.802   3.070  10.273  4.5192 -0.2956 -2.0696
  360MOL0     H49663   8.781   3.133  10.509  0.7117  1.9098 -0.8879
  360MOL0     H49664   7.735   1.368  10.606 -1.5149 -2.2016 -0.9282
  360MOL0     H49665   7.665   1.230  10.406  0.4140 -0.1434  0.0213
  360MOL0     H49666   7.663   1.183   9.983 -1.3245  0.0489  0.9196
  360MOL0     H49667   7.656   1.046   9.780 -0.3170 -0.1631 -1.4917
  360MOL0     H49668   7.243   1.036   9.613 -2.2205 -4.0408 -1.7763
  360MOL0     H49669   7.304   1.116   9.471 -0.2351 -0.0684  0.1653
  360MOL0     H49670   7.376   0.917   9.375 -2.0829  0.2609 -1.4630
  360MOL0     H49671   7.217   0.881   9.435 -1.8217  0.6816  2.4329
  360MOL0     H49672   7.371   0.692   9.502 -0.6702  0.6112 -0.1784
  360MOL0     H49673   7.458   0.793   9.596 -0.6621  0.8870  2.4511
  360MOL0     H49674   7.226   0.640   9.652 -1.9846  0.2838 -1.7323
  360MOL0     H49675   7.146   0.787   9.637  0.8023  2.3565  0.0120
  360MOL0     H49676   7.289   0.907   9.994  0.2701 -1.2586  1.3982
  360MOL0     H49677   7.263   1.219   9.709 -1.2349  0.8266  0.9076
  360MOL0     H49678   7.174   1.350   9.959  1.4295  0.2423  1.0876
  360MOL0     H49679   7.266   1.497   9.915  1.3882  0.7277 -0.7140
  360MOL0     H49680   7.200   1.408   9.791 -0.2919  1.2731  1.0499
  361MOL0     O49681   1.785   1.897   6.887  0.0032 -0.0678 -0.1526
  361MOL0     C49682   1.873   1.919   6.976 -0.5933 -0.5675  0.4852
  361MOL0     O49683   1.860   1.880   7.113 -0.2568  0.7152  0.3958
  361MOL0     C49684   1.745   1.845   7.175  0.1766  0.9615  1.5536
  361MOL0     C49685   1.745   1.875   7.311  0.0916  0.9502 -0.5056
  361MOL0     C49686   1.635   1.835   7.384  0.1916  0.7077 -0.7684
  361MOL0     C49687   1.520   1.778   7.334  0.2451  0.1011  0.8869
  361MOL0     O49688   1.419   1.745   7.423 -0.1674  0.3353 -0.0699
  361MOL0     C49689   1.294   1.715   7.371  0.3518 -0.1704  0.5305
  361MOL0     C49690   1.184   1.777   7.460 -0.2568 -0.0283 -0.2247
  361MOL0     C49691   1.152   1.920   7.412  1.0936 -0.0449 -0.0914
  361MOL0     C49692   1.114   2.013   7.526  0.0847  0.0944 -0.4047
  361MOL0     C49693   1.102   2.155   7.471 -0.9567  0.1273  0.8394
  361MOL0     C49694   1.036   2.239   7.574  0.1032  0.6970 -0.4503
  361MOL0     C49695   1.118   2.275   7.695  0.4777 -0.2172 -0.1687
  361MOL0     C49696   1.030   2.339   7.806 -0.6035  0.2831 -0.0218
  361MOL0     N49697   0.969   2.467   7.772  0.7596 -0.1726  0.5463
  361MOL0     C49698   0.990   2.576   7.852 -0.6802  0.9984  0.3400
  361MOL0     C49699   0.920   2.680   7.802  0.0933  0.4825  0.4491
  361MOL0     C49700   0.928   2.822   7.845  0.0103 -0.7964 -0.5647
  361MOL0     C49701   1.010   2.843   7.975  0.3931  0.5376  0.4038
  361MOL0     C49702   0.988   2.992   8.013  0.2496 -0.7860  0.5943
  361MOL0     C49703   1.080   3.031   8.131  0.9677  0.1604 -0.6459
  361MOL0     O49704   1.217   3.016   8.091 -1.0757  0.6988  0.7301
  361MOL0     C49705   1.311   3.085   8.157 -0.3797  0.5575 -0.9120
  361MOL0     C49706   1.449   3.061   8.116  0.4289 -0.3990 -0.3457
  361MOL0     C49707   1.563   3.099   8.196  0.5325  1.1935  0.4310
  361MOL0     C49708   1.701   3.066   8.154 -0.5350  0.3744  0.1083
  361MOL0     C49709   1.536   3.178   8.306  0.3229 -0.2099 -0.5554
  361MOL0     C49710   1.642   3.238   8.391  0.4933  0.3592 -0.0168
  361MOL0     O49711   1.626   3.360   8.432  0.3213 -0.0757 -0.6497
  361MOL0     C49712   1.719   3.447   8.489  0.1640  0.5427  0.9911
  361MOL0     C49713   1.858   3.427   8.491 -0.2572 -0.2832  0.0738
  361MOL0     C49714   1.943   3.513   8.566  0.4682  0.6060  0.5593
  361MOL0     C49715   1.884   3.625   8.626 -0.4927 -0.8006 -1.0056
  361MOL0     O49716   1.978   3.704   8.701  0.0595 -0.5999  0.5608
  361MOL0     C49717   1.955   3.850   8.708  0.4925 -0.7422 -0.6019
  361MOL0     C49718   2.068   3.908   8.781 -0.5593 -0.2436  0.0765
  361MOL0     C49719   2.067   4.060   8.802  0.1879  1.2772 -0.0413
  361MOL0     C49720   2.197   4.116   8.865 -0.1300 -0.1966 -0.0023
  361MOL0     C49721   2.189   4.263   8.891 -0.0091  0.5738  0.0859
  361MOL0     C49722   2.316   4.316   8.947  0.0469  0.2325  0.0822
  361MOL0     C49723   2.301   4.456   8.986 -0.8298  0.3422  0.1987
  361MOL0     C49724   2.179   4.494   9.077  0.3621 -0.6210 -0.2809
  361MOL0    Cl49725   2.163   4.395   9.225  0.3354 -0.5510  0.2269
  361MOL0     C49726   1.755   3.660   8.608  0.1369  0.8281 -0.2389
  361MOL0     C49727   1.666   3.562   8.547 -0.2066 -1.1564 -0.0656
  361MOL0     O49728   1.725   3.153   8.436 -0.0732  0.1612 -0.1362
  361MOL0     C49729   1.404   3.207   8.345  0.1124 -1.3966 -0.4212
  361MOL0     C49730   1.296   3.161   8.277  0.0781  0.2953 -0.9669
  361MOL0     N49731   0.874   2.629   7.678 -0.3192 -0.2777 -0.1838
  361MOL0     N49732   0.905   2.508   7.658 -0.2070 -0.1459 -0.1168
  361MOL0     C49733   1.528   1.740   7.193  0.0499 -0.4866 -0.0834
  361MOL0     C49734   1.639   1.775   7.120 -0.2798 -0.5225 -0.3708
  361MOL0     C49735   2.007   1.977   6.947 -0.2948 -0.4381  0.4056
  361MOL0     C49736   2.052   1.967   6.810  0.8299  0.2291 -0.4994
  361MOL0     C49737   2.182   2.008   6.767 -0.7642  0.0467 -0.0338
  361MOL0     C49738   2.264   2.080   6.856  0.2528 -0.0729  0.3111
  361MOL0     O49739   2.383   2.133   6.822 -0.0005 -0.3474 -0.5316
  361MOL0     C49740   2.428   2.123   6.683  0.1690 -0.2963  0.5074
  361MOL0     C49741   2.561   2.183   6.662 -0.6163  0.6525 -0.0616
  361MOL0     C49742   2.618   2.152   6.525 -0.7480 -0.8335 -0.4171
  361MOL0     C49743   2.762   2.208   6.507  1.3096 -0.0120  1.2479
  361MOL0     C49744   2.794   2.242   6.367  0.1298 -0.4909  0.5174
  361MOL0     C49745   2.826   2.294   6.260 -0.7417  0.2059 -0.4221
  361MOL0     C49746   2.221   2.083   6.993 -0.4620  0.2295 -0.3774
  361MOL0     C49747   2.100   2.036   7.037  0.3800 -0.5440  0.1790
  361MOL0     C49748   2.079   2.037   7.188  0.3260 -0.4106 -0.3049
  361MOL0     H49749   1.831   1.915   7.364 -1.0649  1.2572  1.2374
  361MOL0     H49750   1.632   1.868   7.488 -0.5697 -1.9051  0.1127
  361MOL0     H49751   1.282   1.607   7.363 -2.7021  0.1822 -1.2657
  361MOL0     H49752   1.279   1.748   7.268  0.1516  1.1057  0.9491
  361MOL0     H49753   1.094   1.718   7.442 -0.9744  1.1339 -0.5939
  361MOL0     H49754   1.205   1.780   7.567 -0.6259  2.4031 -0.1705
  361MOL0     H49755   1.238   1.954   7.354 -0.6318  3.6228 -0.8186
  361MOL0     H49756   1.068   1.923   7.341  0.4884  1.7308  0.6400
  361MOL0     H49757   1.017   1.991   7.572 -0.4821 -1.3203 -2.1850
  361MOL0     H49758   1.194   2.014   7.601  0.2124 -2.7676 -0.4067
  361MOL0     H49759   1.042   2.150   7.380 -1.1530  1.0834  0.9035
  361MOL0     H49760   1.199   2.198   7.442 -0.6044 -1.7376 -1.0395
  361MOL0     H49761   1.010   2.320   7.504  0.5591 -2.1631 -4.2396
  361MOL0     H49762   0.944   2.196   7.613 -1.1201  2.1995 -1.5248
  361MOL0     H49763   1.203   2.331   7.654  1.1695 -1.7143 -0.8475
  361MOL0     H49764   1.150   2.182   7.742  0.6354  0.5848  1.4041
  361MOL0     H49765   0.948   2.276   7.844 -0.2089 -0.6830 -0.7542
  361MOL0     H49766   1.095   2.366   7.889  0.0872  2.6462 -1.2483
  361MOL0     H49767   1.042   2.568   7.946  0.6288 -0.3279 -0.4507
  361MOL0     H49768   0.830   2.868   7.860  1.6228  2.1315  2.3652
  361MOL0     H49769   0.977   2.871   7.760  1.4206 -1.9467 -0.4543
  361MOL0     H49770   0.982   2.773   8.055  2.2951 -0.1490  0.5247
  361MOL0     H49771   1.114   2.819   7.955  0.4567  1.8836 -1.0556
  361MOL0     H49772   0.998   3.053   7.923 -1.6234 -2.8679 -1.1521
  361MOL0     H49773   0.883   3.009   8.042 -0.0269 -1.4404 -0.0114
  361MOL0     H49774   1.062   3.136   8.157  1.0588 -0.0322  0.2253
  361MOL0     H49775   1.053   2.957   8.207  0.4081  0.3421 -0.6663
  361MOL0     H49776   1.465   3.011   8.021 -1.1748  1.1752 -1.5134
  361MOL0     H49777   1.728   2.969   8.197  1.6604  2.1058  3.0206
  361MOL0     H49778   1.775   3.140   8.185  2.2233 -1.5555 -1.3742
  361MOL0     H49779   1.701   3.061   8.044 -0.5855  2.0606  0.0005
  361MOL0     H49780   1.901   3.343   8.437  0.6855  0.4365 -0.3096
  361MOL0     H49781   2.050   3.497   8.580  0.0359 -0.7093  3.1697
  361MOL0     H49782   1.935   3.894   8.609 -1.2166 -1.9943 -0.8581
  361MOL0     H49783   1.866   3.861   8.771  0.5026  0.9080 -0.8325
  361MOL0     H49784   2.087   3.861   8.878 -0.1210  0.7051  0.4581
  361MOL0     H49785   2.153   3.878   8.718 -1.4913 -0.8774 -0.9226
  361MOL0     H49786   1.984   4.066   8.874 -1.7495 -4.5748 -1.2193
  361MOL0     H49787   2.045   4.118   8.712  1.9099 -0.0174 -1.3661
  361MOL0     H49788   2.274   4.086   8.794  0.2866 -0.8408  0.6985
  361MOL0     H49789   2.219   4.056   8.954  0.0301  0.0027  0.0942
  361MOL0     H49790   2.156   4.319   8.802  3.9429  2.7326 -0.2493
  361MOL0     H49791   2.116   4.269   8.971 -0.4476  1.0473 -0.3411
  361MOL0     H49792   2.395   4.315   8.870  1.7602  1.8868  1.7290
  361MOL0     H49793   2.353   4.255   9.030  2.5875 -1.5198 -2.1406
  361MOL0     H49794   2.289   4.512   8.892  0.9720 -0.8917 -0.8441
  361MOL0     H49795   2.395   4.492   9.027  0.8036 -0.0833 -2.8652
  361MOL0     H49796   2.081   4.487   9.029 -0.3823 -3.3611  1.4137
  361MOL0     H49797   2.178   4.602   9.090 -2.2658 -0.2526 -2.4707
  361MOL0     H49798   1.712   3.745   8.659 -1.4286 -0.5129  0.7826
  361MOL0     H49799   1.559   3.580   8.550 -0.2520 -1.5743  1.0559
  361MOL0     H49800   1.391   3.270   8.432 -1.5884 -1.5429 -0.5267
  361MOL0     H49801   1.199   3.177   8.323  0.7322 -0.8878  0.9434
  361MOL0     H49802   1.456   1.700   7.123  2.9768 -0.6287 -3.2698
  361MOL0     H49803   1.639   1.750   7.015 -2.1055  0.1788 -0.5723
  361MOL0     H49804   1.981   1.923   6.741  1.3055 -2.3775  0.5464
  361MOL0     H49805   2.209   1.981   6.665 -1.4911  0.9409 -0.4792
  361MOL0     H49806   2.411   2.022   6.645 -1.5125  0.4671 -0.8881
  361MOL0     H49807   2.364   2.189   6.625  4.0371  1.2384 -2.5370
  361MOL0     H49808   2.615   2.123   6.735 -0.7366  1.0953  0.4014
  361MOL0     H49809   2.570   2.288   6.693  1.3025  0.4005  0.3434
  361MOL0     H49810   2.629   2.043   6.518 -5.0118 -1.4724  0.4032
  361MOL0     H49811   2.549   2.195   6.452 -1.6519  0.1630  0.9722
  361MOL0     H49812   2.831   2.135   6.551  0.1449 -0.3797  2.5563
  361MOL0     H49813   2.774   2.299   6.567  0.9486  0.7474  0.1894
  361MOL0     H49814   2.856   2.336   6.166  0.8281  0.9127  0.3598
  361MOL0     H49815   2.286   2.127   7.068  1.8708 -1.1721 -1.4593
  361MOL0     H49816   1.979   2.069   7.217  0.5100  1.4874 -1.5639
  361MOL0     H49817   2.105   1.940   7.230 -0.6325 -0.8433 -0.6856
  361MOL0     H49818   2.144   2.115   7.230 -0.6577  0.3949 -0.2374
  362MOL0     O49819   3.386   6.915  10.812  0.0875 -0.0331 -0.1741
  362MOL0     C49820   3.305   6.951  10.893 -0.1816 -0.0923 -0.5094
  362MOL0     O49821   3.327   6.945  11.034  0.3285 -0.5317 -0.0484
  362MOL0     C49822   3.442   6.905  11.082  0.0741  0.5232  0.3475
  362MOL0     C49823   3.444   6.800  11.169 -0.1122 -0.3332 -0.3133
  362MOL0     C49824   3.568   6.754  11.210 -0.1544 -0.9643 -0.4032
  362MOL0     C49825   3.690   6.812  11.172 -0.1534  0.5516 -0.2308
  362MOL0     O49826   3.800   6.737  11.215 -0.4338 -0.2140  0.0470
  362MOL0     C49827   3.925   6.811  11.227  0.6963  0.9740 -0.0920
  362MOL0     C49828   4.015   6.759  11.340 -0.4007  0.0964 -0.9611
  362MOL0     C49829   4.137   6.844  11.359  0.6935 -0.4918 -0.2211
  362MOL0     C49830   4.185   6.819  11.498 -0.3043  0.4000 -0.8115
  362MOL0     C49831   4.272   6.685  11.484  0.2482  1.1613  0.2735
  362MOL0     C49832   4.347   6.648  11.599 -0.2365  0.4681 -1.6632
  362MOL0     C49833   4.267   6.592  11.717 -0.0059  0.8654  0.0074
  362MOL0     C49834   4.162   6.480  11.675 -0.0145  0.2305  1.5007
  362MOL0     N49835   4.136   6.400  11.789  0.0988  0.6019 -0.2318
  362MOL0     C49836   4.205   6.293  11.821 -0.4279  0.6132 -0.4264
  362MOL0     C49837   4.152   6.253  11.946 -0.1140 -0.5427  1.1828
  362MOL0     C49838   4.213   6.139  12.016  0.6217 -0.8168 -1.5790
  362MOL0     C49839   4.114   6.019  12.014 -0.4342  0.8543  0.7332
  362MOL0     C49840   4.176   5.881  12.073 -0.3866  0.5852 -0.0193
  362MOL0     C49841   4.230   5.897  12.211 -1.0897 -0.1501 -0.8151
  362MOL0     O49842   4.143   5.975  12.290  0.5548  0.3579 -0.6221
  362MOL0     C49843   4.129   5.946  12.419 -0.5023 -0.5883 -0.0033
  362MOL0     C49844   4.234   5.937  12.501 -0.0819  0.4900 -0.3358
  362MOL0     C49845   4.220   5.928  12.638  0.4163  0.5065 -0.1620
  362MOL0     C49846   4.341   5.921  12.724 -0.7039  0.4051 -0.2209
  362MOL0     C49847   4.084   5.915  12.691 -0.6001 -0.5087  0.2792
  362MOL0     C49848   4.053   5.904  12.836  0.4356  0.1791 -0.6287
  362MOL0     O49849   3.926   5.941  12.866 -0.3884 -0.4324  0.1580
  362MOL0     C49850   3.889   5.972  12.999  1.2630  0.5290  0.2631
  362MOL0     C49851   3.972   6.021  13.098  0.2801  0.1571  0.3792
  362MOL0     C49852   3.922   6.044  13.230 -0.3301  0.1155 -0.1826
  362MOL0     C49853   3.793   6.029  13.260 -0.8601 -0.7756 -0.6744
  362MOL0     O49854   3.735   6.055  13.380  0.7828 -0.3660  0.0686
  362MOL0     C49855   3.796   5.968  13.482  0.1083  0.1241  0.6351
  362MOL0     C49856   3.677   5.888  13.535  0.1715  0.7718  0.1456
  362MOL0     C49857   3.720   5.766  13.625 -0.3691  0.5484 -0.0846
  362MOL0     C49858   3.717   5.628  13.570  0.1264  0.7121 -0.3957
  362MOL0     C49859   3.802   5.535  13.664 -0.8147 -0.2583  0.6969
  362MOL0     C49860   3.793   5.394  13.609 -0.3341 -0.7288 -0.0995
  362MOL0     C49861   3.889   5.294  13.681  0.1695  0.2673  0.3208
  362MOL0     C49862   3.866   5.154  13.612 -0.4039  0.1114  0.1364
  362MOL0    Cl49863   3.710   5.082  13.663 -0.0791 -0.1909 -0.2822
  362MOL0     C49864   3.708   5.995  13.162  0.2113 -0.5883  0.6250
  362MOL0     C49865   3.744   5.967  13.029 -1.1221  0.2804  1.1573
  362MOL0     O49866   4.132   5.862  12.917 -0.6364  0.4485 -0.0330
  362MOL0     C49867   3.978   5.919  12.594  0.1060 -0.4527  0.3648
  362MOL0     C49868   4.002   5.944  12.459 -0.4971 -0.6097  0.1927
  362MOL0     N49869   4.057   6.347  11.985 -0.2292  0.2110  0.3712
  362MOL0     N49870   4.050   6.433  11.887  0.4091 -0.0665  0.3454
  362MOL0     C49871   3.686   6.921  11.078 -0.3264 -0.3006  0.2952
  362MOL0     C49872   3.557   6.971  11.037  0.5332  0.1198 -0.6420
  362MOL0     C49873   3.171   6.990  10.843  0.8636 -0.1874 -0.4984
  362MOL0     C49874   3.072   6.989  10.941 -0.3943  0.3809  0.8266
  362MOL0     C49875   2.947   7.055  10.918 -0.2578  0.0381  0.0462
  362MOL0     C49876   2.915   7.117  10.803 -0.0944  0.1168  0.0828
  362MOL0     O49877   2.797   7.180  10.776  0.7113 -0.3641 -0.7644
  362MOL0     C49878   2.779   7.290  10.680  0.0027  0.4831 -0.2591
  362MOL0     C49879   2.680   7.245  10.572 -0.2018 -0.6011  0.3517
  362MOL0     C49880   2.549   7.163  10.627 -0.5603  0.9150  0.1242
  362MOL0     C49881   2.545   7.002  10.571 -0.0799  0.0246 -0.1905
  362MOL0     C49882   2.667   6.928  10.610 -0.1844  0.5116  0.2179
  362MOL0     C49883   2.772   6.870  10.645 -0.0560  0.6624  0.8835
  362MOL0     C49884   3.011   7.104  10.702 -1.0980 -0.0357  0.2942
  362MOL0     C49885   3.142   7.048  10.722 -0.4622  0.5322 -0.6100
  362MOL0     C49886   3.234   7.042  10.601 -1.0969 -1.1726  0.4443
  362MOL0     H49887   3.355   6.748  11.202  1.3699 -3.1059 -0.3035
  362MOL0     H49888   3.579   6.665  11.271 -0.3929 -0.1697  0.8307
  362MOL0     H49889   3.908   6.919  11.240  0.5051  0.9111  0.1963
  362MOL0     H49890   3.979   6.789  11.134 -1.3553 -2.9056 -0.5491
  362MOL0     H49891   3.952   6.747  11.429 -2.0118 -2.0414 -2.3068
  362MOL0     H49892   4.045   6.663  11.297  2.0506  0.5980 -0.5373
  362MOL0     H49893   4.206   6.817  11.278 -2.6657 -1.0036 -3.1826
  362MOL0     H49894   4.107   6.949  11.358  2.3892  0.0527  1.0799
  362MOL0     H49895   4.257   6.897  11.524 -0.0656 -0.4947  1.4362
  362MOL0     H49896   4.104   6.826  11.571  0.0259  1.8110 -0.5398
  362MOL0     H49897   4.349   6.701  11.408  1.0974  6.3117  1.8500
  362MOL0     H49898   4.216   6.596  11.455  0.7805  1.3873 -1.5680
  362MOL0     H49899   4.410   6.565  11.564  1.8776 -0.2023  2.9580
  362MOL0     H49900   4.417   6.724  11.634 -0.9204  0.5168 -0.3236
  362MOL0     H49901   4.228   6.671  11.782  2.1565  0.2315  2.2187
  362MOL0     H49902   4.345   6.545  11.778  0.6369  1.4993 -0.3117
  362MOL0     H49903   4.068   6.518  11.633  0.2167 -1.0058 -0.2651
  362MOL0     H49904   4.210   6.418  11.598 -1.0246 -1.0156  1.8417
  362MOL0     H49905   4.276   6.233  11.765  2.1443  1.8098  1.3429
  362MOL0     H49906   4.235   6.163  12.121 -1.0506  1.6102 -1.7050
  362MOL0     H49907   4.315   6.123  11.979  1.4283 -3.2489  1.2926
  362MOL0     H49908   4.015   6.040  12.056  0.0330  2.8108  0.9622
  362MOL0     H49909   4.095   6.001  11.908  1.1495 -2.8925  0.9362
  362MOL0     H49910   4.102   5.800  12.067  0.6793 -0.3086 -3.0170
  362MOL0     H49911   4.251   5.843  12.004 -1.4480 -1.5910 -0.0770
  362MOL0     H49912   4.234   5.794  12.247  0.4012 -0.6363 -2.2611
  362MOL0     H49913   4.333   5.932  12.199  0.2925 -3.7683 -0.8221
  362MOL0     H49914   4.336   5.945  12.464 -0.2042  3.5643 -0.3447
  362MOL0     H49915   4.372   5.817  12.739  3.4206  1.3705 -0.8793
  362MOL0     H49916   4.337   5.963  12.825 -1.9291 -2.3601  0.9856
  362MOL0     H49917   4.424   5.957  12.663  0.9213 -3.5922 -0.7050
  362MOL0     H49918   4.069   6.055  13.062  0.7414 -2.7844 -1.4869
  362MOL0     H49919   3.995   6.079  13.303 -1.8071 -0.1529  1.4774
  362MOL0     H49920   3.873   5.903  13.440 -0.4054  0.2267 -0.4823
  362MOL0     H49921   3.843   6.038  13.551 -0.3727  1.5236 -0.4274
  362MOL0     H49922   3.620   5.956  13.600  0.6000  2.3699 -1.0854
  362MOL0     H49923   3.608   5.864  13.453 -2.0656  0.4928  2.0164
  362MOL0     H49924   3.665   5.775  13.718 -2.3336  2.3270 -1.3169
  362MOL0     H49925   3.825   5.793  13.642 -1.0152  2.9427  0.5177
  362MOL0     H49926   3.761   5.621  13.470  1.3330  0.6523  0.1185
  362MOL0     H49927   3.615   5.589  13.579  1.1282 -2.0580  0.0030
  362MOL0     H49928   3.908   5.560  13.662 -0.5177 -1.4877 -1.1926
  362MOL0     H49929   3.763   5.545  13.766 -0.8516  2.0063  0.5096
  362MOL0     H49930   3.811   5.401  13.501 -1.4254  0.5828 -0.2098
  362MOL0     H49931   3.692   5.357  13.625  0.1570 -1.4344  1.6258
  362MOL0     H49932   3.861   5.268  13.783 -2.6539 -4.2493 -1.2802
  362MOL0     H49933   3.997   5.311  13.685  0.1987  1.3991 -2.4980
  362MOL0     H49934   3.945   5.082  13.632  1.0691  1.6703  0.1639
  362MOL0     H49935   3.868   5.166  13.504  0.2784  1.8937  0.3125
  362MOL0     H49936   3.605   6.003  13.196 -0.5276  0.0808 -1.5830
  362MOL0     H49937   3.669   5.920  12.966 -0.7254 -1.0614  1.6446
  362MOL0     H49938   3.876   5.910  12.630 -0.6224  0.2069 -1.4149
  362MOL0     H49939   3.916   5.965  12.396  1.2940 -0.3261 -2.3086
  362MOL0     H49940   3.776   6.965  11.036  0.0853 -1.0800  0.3255
  362MOL0     H49941   3.549   7.060  10.975  4.4018  0.7253 -0.4928
  362MOL0     H49942   3.070   6.940  11.038 -3.6622 -0.0641  0.6384
  362MOL0     H49943   2.861   7.057  10.984 -2.6013 -0.0551 -2.7885
  362MOL0     H49944   2.735   7.377  10.730  2.3038  0.8513  1.3392
  362MOL0     H49945   2.877   7.320  10.641  0.8793  1.0179  2.1195
  362MOL0     H49946   2.735   7.191  10.494 -0.4247  3.0959 -2.6160
  362MOL0     H49947   2.639   7.332  10.520 -0.1136 -0.3542  0.6974
  362MOL0     H49948   2.548   7.157  10.737  1.3457  0.5587  0.1508
  362MOL0     H49949   2.460   7.220  10.597  0.9727  3.9626  0.9388
  362MOL0     H49950   2.526   6.989  10.464  1.5509 -2.6129 -0.2529
  362MOL0     H49951   2.462   6.948  10.617  0.5279 -1.6649 -0.9612
  362MOL0     H49952   2.857   6.806  10.660 -1.2860 -1.7520 -1.5672
  362MOL0     H49953   2.998   7.141  10.601 -0.7633  0.8988  0.5842
  362MOL0     H49954   3.180   7.051  10.506 -0.5420 -3.8294 -0.2028
  362MOL0     H49955   3.303   7.126  10.615 -1.2117 -0.6458 -1.8183
  362MOL0     H49956   3.283   6.944  10.597  5.4310  1.5011  1.5206
  363MOL0     O49957   2.075   4.567   3.010  0.2762 -0.2902 -0.1346
  363MOL0     C49958   2.152   4.661   3.009  0.1717  0.5600 -0.3884
  363MOL0     O49959   2.169   4.750   3.109  0.4858  1.0584  0.1913
  363MOL0     C49960   2.082   4.785   3.205  0.1077  0.2020 -0.6192
  363MOL0     C49961   1.944   4.753   3.200  0.0349 -0.9894 -0.7580
  363MOL0     C49962   1.860   4.793   3.302 -0.3258  0.5218  0.0013
  363MOL0     C49963   1.912   4.838   3.425 -0.3517  0.0947  0.9769
  363MOL0     O49964   1.831   4.871   3.528 -0.2798 -0.9793 -0.2922
  363MOL0     C49965   1.719   4.795   3.567 -0.8127  1.1330  0.7269
  363MOL0     C49966   1.767   4.654   3.602 -0.3046 -0.3956 -0.3792
  363MOL0     C49967   1.647   4.581   3.676  0.0081  0.3040  0.0781
  363MOL0     C49968   1.678   4.542   3.821 -0.1531  0.0046  0.5319
  363MOL0     C49969   1.566   4.463   3.897  0.9568  0.0477 -0.5247
  363MOL0     C49970   1.619   4.409   4.025  0.0160  0.5217 -0.9246
  363MOL0     C49971   1.516   4.332   4.112 -0.3276 -0.8969  0.2433
  363MOL0     C49972   1.510   4.186   4.068 -0.4019 -0.3305 -0.0605
  363MOL0     N49973   1.420   4.098   4.143  0.1226  0.2219 -0.1064
  363MOL0     C49974   1.461   3.989   4.227  0.0044 -0.7815 -0.5495
  363MOL0     C49975   1.348   3.924   4.271 -0.7485  0.6974 -0.8960
  363MOL0     C49976   1.364   3.795   4.350  0.4806  0.3454 -0.1214
  363MOL0     C49977   1.326   3.678   4.260 -1.0704  0.1758  0.5461
  363MOL0     C49978   1.429   3.648   4.146  0.7471 -0.0944 -0.4120
  363MOL0     C49979   1.412   3.508   4.094  0.2777  0.0020  0.3958
  363MOL0     O49980   1.285   3.512   4.025  1.1196 -0.0807  0.1510
  363MOL0     C49981   1.230   3.389   3.993 -0.4765  0.0973 -1.1149
  363MOL0     C49982   1.277   3.266   4.044  0.3867  0.3755 -0.4473
  363MOL0     C49983   1.207   3.143   4.022  0.1613 -0.0002  0.3103
  363MOL0     C49984   1.257   3.022   4.098 -0.1350 -0.1531  0.5569
  363MOL0     C49985   1.085   3.142   3.951  0.3712 -0.8491  0.8024
  363MOL0     C49986   1.018   3.020   3.912 -0.4455 -0.2730  1.3379
  363MOL0     O49987   0.977   3.017   3.780  0.1763  0.5434 -0.8937
  363MOL0     C49988   0.913   2.907   3.734 -0.2711 -0.3491 -0.3402
  363MOL0     C49989   0.810   2.837   3.812 -0.1161  0.0806 -0.1523
  363MOL0     C49990   0.744   2.729   3.745  0.6805  0.1133 -0.2291
  363MOL0     C49991   0.763   2.701   3.615  0.1539 -0.0236  0.1392
  363MOL0     O49992   0.693   2.607   3.543 -0.6912 -0.9631  0.5253
  363MOL0     C49993   0.552   2.624   3.546  0.0898  0.5806 -0.1524
  363MOL0     C49994   0.485   2.506   3.484  0.2517 -0.7013  1.1241
  363MOL0     C49995   0.443   2.394   3.585 -0.7379  0.0558  1.0703
  363MOL0     C49996   0.359   2.293   3.505  0.3992 -0.3742  0.3161
  363MOL0     C49997   0.282   2.182   3.587  0.6917  0.2657 -1.5849
  363MOL0     C49998   0.219   2.069   3.504  0.1279 -0.1988 -0.2676
  363MOL0     C49999   0.096   2.122   3.421  0.1098  0.1479  0.1609
  363MOL0     C50000  -0.029   2.146   3.512  0.1967  0.3740  0.0046
  363MOL0    Cl50001  -0.130   1.998   3.532  0.4756 -0.3187  0.8799
  363MOL0     C50002   0.858   2.773   3.547  0.0917  0.8665 -0.4511
  363MOL0     C50003   0.925   2.879   3.600  0.3446 -0.1614 -0.1433
  363MOL0     O50004   1.006   2.929   3.990 -0.7993 -0.1248 -0.3578
  363MOL0     C50005   1.035   3.272   3.918  0.0090  0.1614  0.0315
  363MOL0     C50006   1.109   3.391   3.933 -0.5973 -0.0160  0.0301
  363MOL0     N50007   1.244   3.973   4.202 -0.6569 -0.0012 -0.3431
  363MOL0     N50008   1.286   4.068   4.122 -0.2684 -0.3387 -0.6694
  363MOL0     C50009   2.056   4.872   3.437 -0.1588 -0.3259  0.3260
  363MOL0     C50010   2.131   4.840   3.322 -0.4123 -0.5747 -0.4339
  363MOL0     C50011   2.227   4.697   2.889  0.3937 -0.4715 -0.0590
  363MOL0     C50012   2.248   4.830   2.867  0.9539 -1.0703  0.0268
  363MOL0     C50013   2.318   4.868   2.760 -0.8552  0.4436  0.3172
  363MOL0     C50014   2.382   4.780   2.671 -0.5235  0.2522  0.4201
  363MOL0     O50015   2.465   4.840   2.570 -0.4403 -0.6056  0.2241
  363MOL0     C50016   2.462   4.793   2.430  0.0912  1.1559 -0.0592
  363MOL0     C50017   2.398   4.905   2.336 -0.3798 -0.6753  0.3150
  363MOL0     C50018   2.277   4.979   2.391 -0.7790 -0.4114  0.0064
  363MOL0     C50019   2.219   5.072   2.302 -0.4863  0.0065  0.3093
  363MOL0     C50020   2.096   5.126   2.355 -0.2946  0.0335  0.2114
  363MOL0     C50021   2.002   5.178   2.407 -0.5531  0.2817 -0.7746
  363MOL0     C50022   2.365   4.644   2.691 -1.0445  0.0219  0.1347
  363MOL0     C50023   2.284   4.605   2.798 -0.1191 -0.1247 -0.9313
  363MOL0     C50024   2.306   4.465   2.841 -0.2641 -0.5418  0.0852
  363MOL0     H50025   1.906   4.707   3.109 -2.4540 -3.8786  1.5240
  363MOL0     H50026   1.754   4.776   3.291  0.0008 -0.8534 -1.6581
  363MOL0     H50027   1.655   4.788   3.479  1.9886  1.2278 -1.4563
  363MOL0     H50028   1.668   4.842   3.651 -0.8816  0.7588  0.8996
  363MOL0     H50029   1.788   4.602   3.508  1.5112  0.4133 -0.4698
  363MOL0     H50030   1.860   4.654   3.660 -2.1953 -3.4673  3.0981
  363MOL0     H50031   1.556   4.639   3.661 -0.4070 -0.8280 -2.3373
  363MOL0     H50032   1.628   4.489   3.619  0.9959 -0.5055  1.0088
  363MOL0     H50033   1.754   4.463   3.813 -0.9511 -0.6675 -0.6913
  363MOL0     H50034   1.709   4.627   3.883 -0.1616 -0.3953  1.0925
  363MOL0     H50035   1.523   4.383   3.835  0.2889 -1.4153  1.7098
  363MOL0     H50036   1.492   4.540   3.921 -0.3418 -0.8276 -1.5410
  363MOL0     H50037   1.707   4.344   4.017 -1.2434 -1.7129  1.7466
  363MOL0     H50038   1.655   4.490   4.089 -1.7857  1.2285 -0.7593
  363MOL0     H50039   1.420   4.384   4.104  0.3794  0.3515 -0.4911
  363MOL0     H50040   1.552   4.338   4.215  0.6186  1.1238 -0.1569
  363MOL0     H50041   1.468   4.194   3.968 -1.7566 -2.2826  0.3054
  363MOL0     H50042   1.610   4.141   4.067 -0.4770 -0.5531 -2.1976
  363MOL0     H50043   1.564   3.964   4.251  0.0149 -0.7575 -0.5703
  363MOL0     H50044   1.288   3.800   4.429  0.1776 -2.6730 -0.0862
  363MOL0     H50045   1.460   3.785   4.402  0.9205  1.6496 -0.6606
  363MOL0     H50046   1.328   3.597   4.334  1.3382 -0.4172 -0.0826
  363MOL0     H50047   1.225   3.683   4.218 -0.2494  3.0852 -1.3749
  363MOL0     H50048   1.416   3.720   4.065  2.1723 -0.2774 -0.8235
  363MOL0     H50049   1.533   3.666   4.174  0.6738  2.3989 -1.4323
  363MOL0     H50050   1.494   3.480   4.026  0.7944 -1.4581  1.5686
  363MOL0     H50051   1.415   3.436   4.176 -2.7716 -1.1426 -0.3918
  363MOL0     H50052   1.368   3.255   4.102 -0.7075 -2.6150  0.8716
  363MOL0     H50053   1.286   2.951   4.019 -0.8220  0.7266 -0.5091
  363MOL0     H50054   1.177   2.984   4.162  0.0389 -2.0785 -0.2824
  363MOL0     H50055   1.352   3.036   4.151  1.9173 -0.7445 -2.6962
  363MOL0     H50056   0.780   2.860   3.913  1.9572 -0.4656  0.6355
  363MOL0     H50057   0.667   2.675   3.801 -1.6634  1.9957 -1.4575
  363MOL0     H50058   0.501   2.640   3.641  2.4840  2.9921  0.8430
  363MOL0     H50059   0.535   2.711   3.482 -1.4572 -1.8812 -3.4441
  363MOL0     H50060   0.392   2.556   3.456 -1.5308 -1.1700  5.3936
  363MOL0     H50061   0.550   2.493   3.397 -0.5289  3.7756 -0.3966
  363MOL0     H50062   0.384   2.438   3.666  1.2371  0.9910  2.0644
  363MOL0     H50063   0.522   2.344   3.641 -2.5688 -2.7939  1.2911
  363MOL0     H50064   0.416   2.239   3.430  0.5223 -1.4739  1.1693
  363MOL0     H50065   0.283   2.345   3.447 -0.6315 -0.4003  1.5964
  363MOL0     H50066   0.347   2.124   3.652 -1.1836 -1.1081 -0.8437
  363MOL0     H50067   0.213   2.239   3.649  2.0798  0.9917 -0.6517
  363MOL0     H50068   0.200   1.977   3.560 -2.0130 -0.9637 -2.1040
  363MOL0     H50069   0.306   2.047   3.442  1.2675 -0.7481  1.4589
  363MOL0     H50070   0.079   2.046   3.345  0.8930  0.4719 -0.3616
  363MOL0     H50071   0.119   2.218   3.374  2.0107  0.1169  0.9397
  363MOL0     H50072  -0.097   2.219   3.467 -1.2785 -0.5589  0.6564
  363MOL0     H50073   0.002   2.189   3.607  3.3584  0.7468 -1.0595
  363MOL0     H50074   0.871   2.769   3.440  1.1458 -0.1005 -0.3066
  363MOL0     H50075   0.983   2.952   3.544 -0.2342 -0.1716 -0.7621
  363MOL0     H50076   0.940   3.286   3.866  0.0495 -2.5225 -0.9098
  363MOL0     H50077   1.064   3.487   3.908  1.5909  1.4268  1.2390
  363MOL0     H50078   2.095   4.930   3.520 -2.2327  3.0112 -0.8407
  363MOL0     H50079   2.233   4.878   3.323 -1.1062  1.5321  2.0958
  363MOL0     H50080   2.200   4.908   2.924 -0.0295  0.2971 -2.4890
  363MOL0     H50081   2.326   4.974   2.739 -1.2653  0.0954 -1.8267
  363MOL0     H50082   2.556   4.756   2.389  0.0817 -1.2767  1.8885
  363MOL0     H50083   2.392   4.708   2.426  2.3047 -0.9367  2.1955
  363MOL0     H50084   2.360   4.859   2.244 -1.4612  2.7997 -1.1373
  363MOL0     H50085   2.468   4.984   2.308 -0.9017  0.4113  1.9549
  363MOL0     H50086   2.195   4.906   2.401  0.6522 -2.1535 -0.4788
  363MOL0     H50087   2.299   5.029   2.486  1.2682  1.8445 -1.5246
  363MOL0     H50088   2.196   5.020   2.209 -2.0459  1.0103  0.0883
  363MOL0     H50089   2.286   5.155   2.278  1.1776 -0.9051  1.5849
  363MOL0     H50090   1.913   5.226   2.444 -0.2266  2.5718 -2.6656
  363MOL0     H50091   2.419   4.577   2.626 -1.7709 -1.0064  0.5746
  363MOL0     H50092   2.366   4.463   2.932 -2.0662  0.7080  1.3773
  363MOL0     H50093   2.210   4.415   2.859  0.0096 -2.4006 -2.9549
  363MOL0     H50094   2.361   4.398   2.775 -0.9828  0.8239 -1.9984
  364MOL0     O50095   2.176   5.057   6.652 -0.4792 -0.4819 -0.5231
  364MOL0     C50096   2.200   4.954   6.593 -0.2481 -0.1796 -0.2690
  364MOL0     O50097   2.212   4.832   6.655  0.6942 -0.3622  0.2689
  364MOL0     C50098   2.247   4.830   6.790  0.6561  0.6376  0.8752
  364MOL0     C50099   2.150   4.840   6.896 -0.5146  0.2276  0.0872
  364MOL0     C50100   2.195   4.841   7.033 -0.1423 -0.5034  0.1620
  364MOL0     C50101   2.325   4.811   7.070  0.4434  0.2934  0.4027
  364MOL0     O50102   2.366   4.809   7.201  0.4136  0.7085 -0.3252
  364MOL0     C50103   2.332   4.684   7.265  0.3611 -1.2363 -0.7301
  364MOL0     C50104   2.460   4.604   7.245  0.1954  0.5133  0.1634
  364MOL0     C50105   2.429   4.463   7.302  0.1554 -0.4287 -0.7378
  364MOL0     C50106   2.477   4.453   7.447  0.1152  0.7510 -0.3932
  364MOL0     C50107   2.499   4.318   7.510 -0.3246 -0.2938 -0.7792
  364MOL0     C50108   2.374   4.232   7.543 -0.4040  0.5295  1.2435
  364MOL0     C50109   2.429   4.084   7.586  0.1758 -0.1786  1.0103
  364MOL0     C50110   2.320   3.984   7.568 -0.0538  0.3046  0.3453
  364MOL0     N50111   2.371   3.855   7.610  0.7844  0.0646  0.9393
  364MOL0     C50112   2.345   3.796   7.740  0.0636 -0.1427  0.7783
  364MOL0     C50113   2.314   3.668   7.720 -0.7629 -0.1984 -0.4723
  364MOL0     C50114   2.301   3.571   7.838  0.3550  0.0089  0.9246
  364MOL0     C50115   2.423   3.474   7.822  0.0321  0.8502  0.1108
  364MOL0     C50116   2.419   3.364   7.934  0.5188 -1.1485 -0.1035
  364MOL0     C50117   2.536   3.270   7.924 -0.3818  0.7612  0.1282
  364MOL0     O50118   2.516   3.155   8.010 -0.3358 -0.6385 -0.8151
  364MOL0     C50119   2.585   3.148   8.129  0.1322 -0.4562  0.8991
  364MOL0     C50120   2.532   3.083   8.241  0.9888 -0.0389  0.5269
  364MOL0     C50121   2.599   3.047   8.354  0.1295  0.5077  0.5645
  364MOL0     C50122   2.536   2.948   8.449  0.0162 -0.1063 -0.4637
  364MOL0     C50123   2.722   3.109   8.381 -0.9350  0.4341  0.0861
  364MOL0     C50124   2.788   3.114   8.512 -0.5972 -0.4584 -0.6626
  364MOL0     O50125   2.697   3.107   8.622 -0.0867 -0.0948 -0.0105
  364MOL0     C50126   2.746   3.061   8.744  0.1193  0.0911  0.0777
  364MOL0     C50127   2.784   3.151   8.843 -0.5055  0.2488 -0.0038
  364MOL0     C50128   2.831   3.109   8.969 -0.1656  0.3555  0.2697
  364MOL0     C50129   2.846   2.972   8.988 -0.9818  0.2881 -0.7327
  364MOL0     O50130   2.900   2.919   9.100  0.0678  0.2300  0.3254
  364MOL0     C50131   2.885   2.970   9.231  0.1179  0.9356 -0.2789
  364MOL0     C50132   2.944   2.868   9.335 -0.2258 -0.5230  0.6887
  364MOL0     C50133   2.969   2.935   9.477  0.5864 -0.2729  0.2575
  364MOL0     C50134   3.044   2.830   9.566  0.0310  0.4886 -0.5090
  364MOL0     C50135   3.127   2.891   9.674  0.0877 -0.1865 -0.2220
  364MOL0     C50136   3.177   2.804   9.787  0.4193  0.6993 -0.1093
  364MOL0     C50137   3.268   2.692   9.737 -0.6971 -0.2856  0.1315
  364MOL0     C50138   3.289   2.569   9.829  0.4907 -0.1555  0.4467
  364MOL0    Cl50139   3.133   2.483   9.848  0.1144  0.4602 -0.0767
  364MOL0     C50140   2.824   2.881   8.879  0.9212 -0.2186  0.2339
  364MOL0     C50141   2.759   2.922   8.762 -0.4777  0.1164  0.3204
  364MOL0     O50142   2.914   3.115   8.524  0.0984 -0.5418  0.4578
  364MOL0     C50143   2.782   3.181   8.262 -0.7038  0.8854 -1.0811
  364MOL0     C50144   2.717   3.198   8.141 -0.4719  1.2592 -0.6701
  364MOL0     N50145   2.346   3.639   7.588 -0.3857  0.7402  0.3020
  364MOL0     N50146   2.362   3.749   7.520 -0.3625  0.5037  0.0492
  364MOL0     C50147   2.418   4.780   6.965 -0.5094  0.4440  0.4747
  364MOL0     C50148   2.374   4.793   6.830 -0.4786  0.7446  0.1620
  364MOL0     C50149   2.211   4.965   6.447 -0.3170  0.2615 -1.1085
  364MOL0     C50150   2.260   5.085   6.396  0.2720  0.0358  0.8150
  364MOL0     C50151   2.295   5.098   6.264 -0.5745  1.0118 -0.8633
  364MOL0     C50152   2.272   4.992   6.168 -0.2951  0.8975 -0.9875
  364MOL0     O50153   2.319   5.003   6.030  0.2737  0.2066 -0.6785
  364MOL0     C50154   2.376   5.128   5.985 -0.3567 -0.7510  0.6755
  364MOL0     C50155   2.410   5.133   5.838 -0.7386  0.4749 -0.1888
  364MOL0     C50156   2.288   5.154   5.758  1.0445 -0.2047  0.1985
  364MOL0     C50157   2.233   5.300   5.767  0.1807 -0.8905  0.5251
  364MOL0     C50158   2.114   5.311   5.683  0.5711  0.9787  0.7765
  364MOL0     C50159   2.023   5.325   5.605  1.0002  0.2613  0.8233
  364MOL0     C50160   2.224   4.872   6.218 -0.6803 -0.1732 -0.6125
  364MOL0     C50161   2.186   4.856   6.353 -0.1018 -0.8960  0.5301
  364MOL0     C50162   2.129   4.715   6.394 -0.3798 -0.6608  0.6999
  364MOL0     H50163   2.045   4.857   6.876 -0.0642 -1.2321 -4.5890
  364MOL0     H50164   2.134   4.866   7.119  0.4879 -0.2114  0.5282
  364MOL0     H50165   2.241   4.635   7.228 -0.1678 -1.2844  0.5842
  364MOL0     H50166   2.326   4.694   7.374 -1.8473 -0.6980 -0.8434
  364MOL0     H50167   2.488   4.605   7.139  0.2618  0.5339  0.1806
  364MOL0     H50168   2.554   4.647   7.280  0.3607  1.4887 -1.4031
  364MOL0     H50169   2.324   4.432   7.294 -0.7233  1.8652  0.9842
  364MOL0     H50170   2.490   4.394   7.242 -0.3019 -1.2529 -0.2660
  364MOL0     H50171   2.571   4.509   7.445  1.3850 -1.2669 -2.2522
  364MOL0     H50172   2.409   4.505   7.515  0.7411 -1.1887  1.8413
  364MOL0     H50173   2.541   4.335   7.610 -1.7764  0.5399 -0.2832
  364MOL0     H50174   2.577   4.264   7.455  3.1580  3.7347 -0.2822
  364MOL0     H50175   2.305   4.267   7.620 -0.0359 -0.4669  2.0490
  364MOL0     H50176   2.322   4.221   7.447  3.0990 -0.5354 -0.7297
  364MOL0     H50177   2.466   4.078   7.688  2.4289 -1.2710  0.2020
  364MOL0     H50178   2.511   4.059   7.518 -3.1860 -1.6790 -2.9858
  364MOL0     H50179   2.237   4.009   7.635  0.5486 -0.9655  1.6111
  364MOL0     H50180   2.289   3.966   7.464  1.3794 -2.1135  0.2625
  364MOL0     H50181   2.341   3.854   7.832  1.9477  0.3016  0.6264
  364MOL0     H50182   2.212   3.509   7.819  1.1568 -1.0112  0.3663
  364MOL0     H50183   2.305   3.616   7.937 -0.1214 -0.5650  1.2104
  364MOL0     H50184   2.428   3.430   7.722  2.6217  2.7342 -0.6933
  364MOL0     H50185   2.516   3.529   7.839  3.9460 -4.8195 -0.2116
  364MOL0     H50186   2.417   3.402   8.037  0.4473 -0.0815 -0.4861
  364MOL0     H50187   2.327   3.310   7.910 -0.1707 -0.3629  0.6875
  364MOL0     H50188   2.550   3.237   7.820  1.1822  4.1165 -0.8705
  364MOL0     H50189   2.623   3.330   7.950 -0.8087  0.8003  1.5585
  364MOL0     H50190   2.429   3.049   8.230  1.2888 -0.4880 -1.2352
  364MOL0     H50191   2.617   2.894   8.500 -1.2667 -0.4853  1.2250
  364MOL0     H50192   2.476   2.873   8.396 -1.5909  0.7179  0.1588
  364MOL0     H50193   2.468   3.001   8.515 -0.4864  1.2066 -1.9575
  364MOL0     H50194   2.768   3.258   8.834  0.8348  0.5210  0.5821
  364MOL0     H50195   2.856   3.187   9.040  0.1033  1.2859 -0.8116
  364MOL0     H50196   2.948   3.058   9.248 -0.3440  0.7953  2.8306
  364MOL0     H50197   2.781   3.001   9.249  0.1524  0.9271 -0.0569
  364MOL0     H50198   2.881   2.780   9.349 -0.7335 -0.7486 -2.4245
  364MOL0     H50199   3.044   2.835   9.305 -0.1725  0.3012 -0.0476
  364MOL0     H50200   2.869   2.955   9.518  1.0708 -0.1797  1.4100
  364MOL0     H50201   3.026   3.028   9.471 -0.4214  0.3323 -0.2998
  364MOL0     H50202   3.119   2.788   9.498  1.7145  2.0765  0.2833
  364MOL0     H50203   2.978   2.748   9.594  1.7861 -1.0771 -0.7456
  364MOL0     H50204   3.217   2.925   9.622  0.6752  2.0807  2.0966
  364MOL0     H50205   3.076   2.975   9.723 -1.1485 -0.5288 -0.8746
  364MOL0     H50206   3.087   2.769   9.836  0.5812 -0.5436 -0.6682
  364MOL0     H50207   3.242   2.853   9.860  1.9235 -0.7245 -0.4426
  364MOL0     H50208   3.362   2.734   9.702 -1.2664  1.0107  0.0923
  364MOL0     H50209   3.228   2.650   9.644 -2.0108  1.5351 -0.1945
  364MOL0     H50210   3.312   2.599   9.932 -0.3037 -0.2441  0.6598
  364MOL0     H50211   3.357   2.492   9.792  0.7470 -0.2169  1.0435
  364MOL0     H50212   2.844   2.774   8.877 -1.8093 -0.8111 -1.5438
  364MOL0     H50213   2.732   2.860   8.677 -2.8551  2.5050 -0.8207
  364MOL0     H50214   2.885   3.209   8.279 -0.9325  0.6234  1.0881
  364MOL0     H50215   2.781   3.252   8.072  2.2251  1.4329  1.7920
  364MOL0     H50216   2.520   4.748   6.983  0.4630  2.0520 -1.8435
  364MOL0     H50217   2.454   4.771   6.759  2.4581  1.5278  2.9777
  364MOL0     H50218   2.277   5.169   6.463  3.5440  0.0398  0.1028
  364MOL0     H50219   2.331   5.196   6.235  0.4909  0.4881 -1.3798
  364MOL0     H50220   2.308   5.212   5.999  1.1499  1.3031 -2.9977
  364MOL0     H50221   2.469   5.156   6.036 -0.2389 -2.0322  1.2116
  364MOL0     H50222   2.461   5.043   5.804 -2.2613 -0.2581 -0.6282
  364MOL0     H50223   2.488   5.206   5.812 -0.4659  0.3126  0.1603
  364MOL0     H50224   2.307   5.134   5.652 -0.5206  0.8987 -0.3242
  364MOL0     H50225   2.208   5.092   5.799  1.3994 -1.2118 -0.5851
  364MOL0     H50226   2.309   5.366   5.725 -1.3834  0.8841  0.3565
  364MOL0     H50227   2.217   5.337   5.869  1.0258  0.9538  0.0265
  364MOL0     H50228   1.953   5.363   5.534  2.3409  0.2990 -0.5372
  364MOL0     H50229   2.215   4.796   6.141  4.1241 -1.5974 -0.1051
  364MOL0     H50230   2.021   4.719   6.377  0.2197  0.9909 -4.3070
  364MOL0     H50231   2.165   4.642   6.321 -1.1422 -1.0297  0.6900
  364MOL0     H50232   2.169   4.678   6.489  0.7975 -0.6090  0.2355
  365MOL0     O50233   9.799   9.913   0.225 -0.4210 -0.1234 -0.7683
  365MOL0     C50234   9.705   9.972   0.173  1.3182  0.0421  0.0228
  365MOL0     O50235   9.694   9.990   0.045 -0.0398  0.8050  0.1507
  365MOL0     C50236   9.800   9.972  -0.043 -0.8598 -0.0492  0.4959
  365MOL0     C50237   9.767   9.907  -0.159 -0.0024  0.1306 -0.5034
  365MOL0     C50238   9.870   9.886  -0.257 -0.2755  0.2133 -0.6816
  365MOL0     C50239   9.993   9.945  -0.250 -0.1313  0.4891 -0.1761
  365MOL0     O50240  10.076   9.958  -0.356 -0.4840  0.6889  0.3080
  365MOL0     C50241  10.209   9.911  -0.346 -0.2435 -0.5121 -0.3980
  365MOL0     C50242  10.252   9.939  -0.477  0.0201  0.3349 -0.0835
  365MOL0     C50243  10.243   9.811  -0.560  0.2560 -0.7599 -0.1941
  365MOL0     C50244  10.342   9.810  -0.675 -0.2400 -0.8488 -0.0837
  365MOL0     C50245  10.320   9.679  -0.759 -1.0965 -0.4701 -0.4033
  365MOL0     C50246  10.410   9.655  -0.884  0.2028  0.4150 -0.0336
  365MOL0     C50247  10.464   9.779  -0.963  0.5458  0.1924  1.0682
  365MOL0     C50248  10.548   9.726  -1.086  0.7035 -0.0491 -0.2109
  365MOL0     N50249  10.464   9.645  -1.175 -0.6363  0.0079  0.8383
  365MOL0     C50250  10.340   9.671  -1.232 -0.2528  0.2906 -0.2246
  365MOL0     C50251  10.308   9.570  -1.319  0.7153  0.2875  0.1816
  365MOL0     C50252  10.194   9.569  -1.405 -0.3781 -0.1867  0.1723
  365MOL0     C50253  10.094   9.471  -1.336  0.0518 -0.2783 -0.1224
  365MOL0     C50254   9.961   9.476  -1.410 -0.5454 -1.0624 -0.8854
  365MOL0     C50255   9.857   9.391  -1.351  0.1842 -0.5616 -0.4497
  365MOL0     O50256   9.898   9.253  -1.335  0.0354  0.1136 -0.0424
  365MOL0     C50257   9.832   9.157  -1.260  0.2196  0.0271  0.7198
  365MOL0     C50258   9.706   9.177  -1.198 -0.4017  0.4291 -0.7266
  365MOL0     C50259   9.644   9.072  -1.123  0.1446 -0.3879 -1.0222
  365MOL0     C50260   9.502   9.093  -1.083 -0.3460 -0.2343 -0.4483
  365MOL0     C50261   9.709   8.949  -1.099 -0.4756  0.4793  0.4975
  365MOL0     C50262   9.649   8.840  -1.013 -0.3488  0.8188 -0.2206
  365MOL0     O50263   9.748   8.767  -0.961  1.0167  0.1395 -0.1304
  365MOL0     C50264   9.747   8.696  -0.841  0.1612 -0.5799  0.2506
  365MOL0     C50265   9.648   8.707  -0.734  0.7062  0.0020  0.6482
  365MOL0     C50266   9.660   8.638  -0.621  0.2384  1.2830 -0.2043
  365MOL0     C50267   9.759   8.544  -0.609  0.7223 -0.4389 -0.5513
  365MOL0     O50268   9.738   8.441  -0.521  0.9185  0.1904 -0.2172
  365MOL0     C50269   9.841   8.437  -0.423 -0.2125 -0.3027  0.2271
  365MOL0     C50270   9.836   8.567  -0.342  0.1346  0.6279 -0.5958
  365MOL0     C50271   9.916   8.547  -0.203  0.2605  0.3800  0.7008
  365MOL0     C50272   9.933   8.689  -0.141 -0.6163 -0.1433 -0.9264
  365MOL0     C50273  10.041   8.709  -0.033 -0.0875 -0.2568 -0.3225
  365MOL0     C50274  10.181   8.681  -0.087 -0.8877 -0.4725 -1.1347
  365MOL0     C50275  10.290   8.758  -0.020 -0.5239 -0.5926  0.0586
  365MOL0     C50276  10.426   8.746  -0.082 -0.2430  0.1992 -0.3257
  365MOL0    Cl50277  10.512   8.592  -0.069  0.1433  0.0979  0.0522
  365MOL0     C50278   9.863   8.538  -0.696 -0.7123  0.1228  0.1784
  365MOL0     C50279   9.855   8.615  -0.814 -0.3299 -0.9106  0.0452
  365MOL0     O50280   9.530   8.815  -1.006  0.2248  0.0503 -0.0071
  365MOL0     C50281   9.832   8.929  -1.160 -0.4271 -0.2873 -0.6065
  365MOL0     C50282   9.893   9.034  -1.228  0.0657 -0.3418  0.4762
  365MOL0     N50283  10.419   9.497  -1.330 -0.3558  0.0077  0.0367
  365MOL0     N50284  10.503   9.527  -1.234 -0.4244  0.3326 -0.0243
  365MOL0     C50285  10.030   9.999  -0.126  0.7532 -0.3711 -0.0504
  365MOL0     C50286   9.932  10.019  -0.028 -0.0631  0.6776  0.6203
  365MOL0     C50287   9.588   9.997   0.269  0.8725  0.5602  0.6500
  365MOL0     C50288   9.610   9.960   0.408 -0.4477 -0.4325  0.7263
  365MOL0     C50289   9.522   9.987   0.508  0.7070  0.3897 -0.1445
  365MOL0     C50290   9.400  10.056   0.479 -0.3260 -0.8489 -0.6029
  365MOL0     O50291   9.299  10.084   0.576  0.1974  0.4200 -0.1098
  365MOL0     C50292   9.331  10.056   0.715 -0.3915 -0.0095  0.3193
  365MOL0     C50293   9.197  10.047   0.788 -0.6391  0.1608 -0.6372
  365MOL0     C50294   9.141  10.191   0.813 -0.2979  1.2405  0.6334
  365MOL0     C50295   8.999  10.182   0.858  0.0546 -0.5612  0.0919
  365MOL0     C50296   8.967  10.321   0.889  0.6795  0.0134  0.3076
  365MOL0     C50297   8.924  10.434   0.905 -0.1620  0.0416 -0.1090
  365MOL0     C50298   9.371  10.083   0.344  0.0351  0.4469 -0.1692
  365MOL0     C50299   9.461  10.055   0.235 -0.3466 -0.5485  0.4190
  365MOL0     C50300   9.425  10.091   0.090 -0.1348  0.4008  0.7020
  365MOL0     H50301   9.673   9.853  -0.167  1.2180 -2.1174 -0.4175
  365MOL0     H50302   9.857   9.832  -0.350  0.3520 -1.4497  0.1663
  365MOL0     H50303  10.224   9.811  -0.303  2.1210  0.0192  0.1761
  365MOL0     H50304  10.260   9.976  -0.274  0.0520  0.5101 -1.5215
  365MOL0     H50305  10.190  10.015  -0.526 -0.1427  0.9039  1.0005
  365MOL0     H50306  10.355   9.973  -0.477  0.3100 -0.5029  0.6767
  365MOL0     H50307  10.276   9.727  -0.498  2.2829 -0.3682 -0.6766
  365MOL0     H50308  10.143   9.798  -0.603 -0.4129  1.7015  0.4307
  365MOL0     H50309  10.332   9.896  -0.742 -0.3772  0.3391  1.4099
  365MOL0     H50310  10.447   9.817  -0.643  0.1783  0.3972 -1.5708
  365MOL0     H50311  10.217   9.676  -0.797 -1.2099 -0.6403 -0.0883
  365MOL0     H50312  10.335   9.601  -0.684  0.4627 -0.1360 -0.3385
  365MOL0     H50313  10.498   9.599  -0.853  0.9466  0.7428 -1.4533
  365MOL0     H50314  10.349   9.589  -0.946 -0.5484  1.1485 -0.1055
  365MOL0     H50315  10.535   9.831  -0.898  0.0631 -0.1894  1.9168
  365MOL0     H50316  10.385   9.849  -0.990  0.4402 -0.1731  0.4019
  365MOL0     H50317  10.580   9.814  -1.142  1.7416 -1.5315 -2.0851
  365MOL0     H50318  10.640   9.677  -1.053  2.4895  1.6801 -2.2921
  365MOL0     H50319  10.281   9.759  -1.207 -2.0655 -1.3723  1.7546
  365MOL0     H50320  10.217   9.540  -1.508  3.0459  2.1085  0.1079
  365MOL0     H50321  10.155   9.669  -1.428 -2.5398 -1.4974 -2.3603
  365MOL0     H50322  10.127   9.368  -1.352 -3.0032 -1.1597 -1.4476
  365MOL0     H50323  10.083   9.479  -1.228  0.6621 -1.5289  0.0494
  365MOL0     H50324   9.932   9.582  -1.417  3.0755 -0.0758 -4.3017
  365MOL0     H50325   9.969   9.442  -1.513 -0.2471  1.8146 -1.9225
  365MOL0     H50326   9.820   9.443  -1.262 -0.7023 -3.5850  1.1195
  365MOL0     H50327   9.763   9.410  -1.404 -0.2630  5.0065  1.6676
  365MOL0     H50328   9.656   9.273  -1.206 -1.9899 -0.3941 -0.9822
  365MOL0     H50329   9.479   9.065  -0.979 -2.6466 -1.2280 -1.1483
  365MOL0     H50330   9.437   9.023  -1.136 -2.1735 -1.4756  3.0327
  365MOL0     H50331   9.464   9.196  -1.087  1.8177  0.7702  1.9894
  365MOL0     H50332   9.562   8.773  -0.749  1.3596  0.7469  0.0809
  365MOL0     H50333   9.579   8.623  -0.549  1.1263  0.4194  0.6493
  365MOL0     H50334   9.854   8.349  -0.359  3.9933 -1.2821 -1.6862
  365MOL0     H50335   9.940   8.442  -0.468 -0.4821 -0.9797 -0.4511
  365MOL0     H50336   9.871   8.653  -0.401 -2.0233  1.4153 -0.8040
  365MOL0     H50337   9.736   8.601  -0.315  0.7064  1.2097  0.8997
  365MOL0     H50338  10.018   8.516  -0.231  1.0194  3.0523  0.1702
  365MOL0     H50339   9.864   8.476  -0.139  1.1055 -2.0250 -1.1129
  365MOL0     H50340   9.836   8.720  -0.099  0.7615  1.1011  1.5561
  365MOL0     H50341   9.960   8.757  -0.223  2.8218 -1.3656 -0.9441
  365MOL0     H50342  10.039   8.811   0.008 -0.8935 -0.8953  1.3469
  365MOL0     H50343  10.028   8.644   0.054 -0.4947  0.6127  0.2809
  365MOL0     H50344  10.186   8.713  -0.191  2.0560  0.7003 -0.7011
  365MOL0     H50345  10.196   8.572  -0.087 -0.9082 -0.4762 -0.9364
  365MOL0     H50346  10.307   8.714   0.078  6.0740  0.3118 -0.2593
  365MOL0     H50347  10.273   8.866  -0.008  2.4081 -0.2008  1.4784
  365MOL0     H50348  10.493   8.809  -0.023 -2.0695  1.1905  0.7709
  365MOL0     H50349  10.430   8.768  -0.189  2.3843 -0.0600 -0.3459
  365MOL0     H50350   9.945   8.468  -0.690  1.3801  2.3224 -1.0181
  365MOL0     H50351   9.927   8.606  -0.896  1.8741  1.0093  1.6239
  365MOL0     H50352   9.884   8.834  -1.150 -0.0682  0.1499  3.0131
  365MOL0     H50353   9.993   9.005  -1.260 -0.5730 -2.1149 -0.0381
  365MOL0     H50354  10.133  10.031  -0.117  0.6885  0.4589 -1.8001
  365MOL0     H50355   9.963  10.045   0.073  1.6215 -2.4902  1.0290
  365MOL0     H50356   9.706   9.921   0.442 -0.1375 -0.2394  0.0844
  365MOL0     H50357   9.541   9.952   0.609  0.1571  2.8431  0.8955
  365MOL0     H50358   9.397   9.970   0.728  1.6796  1.1577 -1.6245
  365MOL0     H50359   9.400  10.134   0.747 -0.8077 -0.4551  2.4193
  365MOL0     H50360   9.206   9.995   0.884 -2.6296  2.1762  0.7122
  365MOL0     H50361   9.133   9.990   0.720  2.2457 -3.0134 -0.9713
  365MOL0     H50362   9.203  10.253   0.878  1.6663  1.2861 -1.1909
  365MOL0     H50363   9.133  10.261   0.730  0.8163  2.1351  1.2458
  365MOL0     H50364   8.985  10.124   0.949 -2.5238 -0.5528 -0.2188
  365MOL0     H50365   8.937  10.144   0.776 -0.2740 -2.5957  1.2252
  365MOL0     H50366   8.904  10.538   0.915 -0.9837  0.0734 -1.7689
  365MOL0     H50367   9.277  10.127   0.311  0.2662  2.4975  1.6803
  365MOL0     H50368   9.431   9.992   0.044 -3.6832 -1.2620  3.3688
  365MOL0     H50369   9.326  10.134   0.072 -1.0259 -2.3650 -1.6943
  365MOL0     H50370   9.492  10.170   0.055 -1.7289  0.5832 -2.2462
  366MOL0     O50371   7.200  10.792   1.336 -0.0219 -0.0230  0.3820
  366MOL0     C50372   7.152  10.903   1.375  0.3106 -0.4792 -1.0393
  366MOL0     O50373   7.203  11.026   1.341  0.3433  0.2735 -0.4790
  366MOL0     C50374   7.311  11.020   1.263 -0.6295  0.2502  1.0034
  366MOL0     C50375   7.302  11.086   1.139 -0.0666 -0.2164 -1.4168
  366MOL0     C50376   7.419  11.081   1.060  0.2981  0.0971  0.2384
  366MOL0     C50377   7.539  11.021   1.095 -0.5368 -1.2524  0.1958
  366MOL0     O50378   7.643  11.033   1.009  0.0815  0.4116 -0.1465
  366MOL0     C50379   7.610  10.999   0.875  0.0944  0.3518 -0.5417
  366MOL0     C50380   7.732  11.017   0.789  0.5405  0.7014 -0.2661
  366MOL0     C50381   7.859  10.932   0.817  0.5513 -0.1199  0.7471
  366MOL0     C50382   7.868  10.813   0.716 -0.3551 -0.7324 -1.0680
  366MOL0     C50383   7.990  10.724   0.773 -0.3924 -0.2160  0.1285
  366MOL0     C50384   8.054  10.628   0.672  0.8346 -0.2559 -0.3887
  366MOL0     C50385   8.158  10.532   0.723 -0.2623  0.3976  0.1880
  366MOL0     C50386   8.280  10.602   0.773  0.1444  0.1508 -0.2710
  366MOL0     N50387   8.401  10.508   0.775  0.7597  0.2708  0.4193
  366MOL0     C50388   8.396  10.385   0.838 -0.6417  0.4732  0.3311
  366MOL0     C50389   8.519  10.335   0.831 -0.2901 -0.5806  1.2818
  366MOL0     C50390   8.585  10.219   0.896 -0.3960 -0.5099  0.4255
  366MOL0     C50391   8.620  10.123   0.781 -0.2184 -0.0929 -0.1384
  366MOL0     C50392   8.662   9.988   0.839  0.4374  0.8295 -0.7636
  366MOL0     C50393   8.555   9.886   0.888  0.5856 -0.1857  0.8265
  366MOL0     O50394   8.484   9.835   0.771 -0.5350  0.2144  0.5978
  366MOL0     C50395   8.368   9.756   0.799 -0.4249 -0.1839 -0.2131
  366MOL0     C50396   8.318   9.721   0.930 -0.6481 -0.2915  0.1193
  366MOL0     C50397   8.185   9.677   0.945 -1.2504  0.5860  0.1308
  366MOL0     C50398   8.144   9.635   1.084  0.0916 -0.5007 -0.1317
  366MOL0     C50399   8.109   9.649   0.827 -1.1922  0.8082  0.2461
  366MOL0     C50400   7.977   9.583   0.831  0.3374 -0.4176  0.0037
  366MOL0     O50401   7.974   9.473   0.748 -0.0830  0.4111  0.4822
  366MOL0     C50402   7.863   9.407   0.709  0.6677 -1.3460  0.4757
  366MOL0     C50403   7.730   9.430   0.749  0.3388  0.4540 -0.3800
  366MOL0     C50404   7.619   9.368   0.696  0.1472  0.5818 -1.0485
  366MOL0     C50405   7.632   9.276   0.589 -0.7923 -0.1911  0.9154
  366MOL0     O50406   7.528   9.230   0.521 -0.0162 -0.2579 -1.0409
  366MOL0     C50407   7.532   9.130   0.418  0.0047 -0.2205  0.0051
  366MOL0     C50408   7.383   9.126   0.355  0.5424  0.0776 -1.2570
  366MOL0     C50409   7.273   9.080   0.445  0.4673 -0.2862 -0.0029
  366MOL0     C50410   7.141   9.071   0.367 -0.1166 -0.1703 -0.1753
  366MOL0     C50411   7.029   8.997   0.447 -0.4291  0.7996  0.9427
  366MOL0     C50412   6.890   9.022   0.395 -0.3629 -0.4651  0.7584
  366MOL0     C50413   6.878   9.028   0.243 -0.3819  0.8895 -0.1086
  366MOL0     C50414   6.734   9.046   0.193 -0.0915 -0.2863  0.2800
  366MOL0    Cl50415   6.611   8.916   0.208 -0.4264 -0.0417  0.2257
  366MOL0     C50416   7.767   9.243   0.555  1.1554 -0.6178 -0.3174
  366MOL0     C50417   7.870   9.310   0.610  0.0752 -0.0632 -1.2431
  366MOL0     O50418   7.887   9.608   0.914 -0.9789  0.0367 -0.0717
  366MOL0     C50419   8.164   9.662   0.701  0.5487  0.7529 -0.1887
  366MOL0     C50420   8.289   9.715   0.693 -0.5301  0.3336 -0.1990
  366MOL0     N50421   8.593  10.419   0.756  0.1656  0.2848  1.0887
  366MOL0     N50422   8.521  10.520   0.716 -0.4963  0.4971  0.4652
  366MOL0     C50423   7.547  10.957   1.215 -0.4710 -0.6910  0.2660
  366MOL0     C50424   7.435  10.960   1.302 -0.2347  0.1873 -0.2477
  366MOL0     C50425   7.039  10.897   1.470  0.1458 -1.0197  0.6694
  366MOL0     C50426   7.008  11.015   1.540  0.0097  0.0187 -0.6832
  366MOL0     C50427   6.890  11.021   1.617  1.0143 -0.1598  0.9591
  366MOL0     C50428   6.809  10.907   1.637  0.0961 -0.1169 -0.5646
  366MOL0     O50429   6.687  10.894   1.698  0.0776 -0.4839  0.5181
  366MOL0     C50430   6.603  11.012   1.725  0.2006  0.2954 -0.2171
  366MOL0     C50431   6.558  11.069   1.602 -0.7562 -0.5576 -0.4492
  366MOL0     C50432   6.488  11.206   1.597 -0.8797 -0.7882  0.2187
  366MOL0     C50433   6.580  11.327   1.591  0.0933 -0.4551 -0.1316
  366MOL0     C50434   6.512  11.462   1.571  0.5005  0.0759 -0.3974
  366MOL0     C50435   6.454  11.562   1.549 -0.7398  0.8376  0.1368
  366MOL0     C50436   6.849  10.790   1.577 -0.0017  0.2728  0.2090
  366MOL0     C50437   6.967  10.776   1.495 -0.2168  0.0202  0.3957
  366MOL0     C50438   6.973  10.640   1.428  0.0061  1.2646 -0.4923
  366MOL0     H50439   7.213  11.143   1.113 -0.6900 -0.1795  0.5755
  366MOL0     H50440   7.395  11.131   0.966  1.7783 -0.3628 -0.4130
  366MOL0     H50441   7.535  11.067   0.834 -2.5911 -0.8774  1.9450
  366MOL0     H50442   7.558  10.903   0.873 -0.0086  0.4081 -0.5693
  366MOL0     H50443   7.701  11.014   0.685 -2.1190  1.8490  0.4132
  366MOL0     H50444   7.772  11.117   0.809  2.0823  0.4644 -1.9521
  366MOL0     H50445   7.948  10.996   0.811  0.1065  0.7387  2.5635
  366MOL0     H50446   7.854  10.891   0.918  0.3450 -0.7857  0.4715
  366MOL0     H50447   7.772  10.760   0.714 -0.1986 -1.1575  0.8556
  366MOL0     H50448   7.894  10.854   0.618  0.8985  0.6914 -0.1930
  366MOL0     H50449   7.967  10.667   0.863  1.8602 -1.3041  0.0885
  366MOL0     H50450   8.073  10.783   0.812 -0.9299  0.0714  0.8555
  366MOL0     H50451   7.973  10.575   0.621 -0.6626  1.8944 -0.3908
  366MOL0     H50452   8.101  10.697   0.601 -1.1465  0.0475 -1.5000
  366MOL0     H50453   8.191  10.478   0.633  2.3382  1.5601  0.3544
  366MOL0     H50454   8.109  10.470   0.799 -2.2302 -1.8308 -2.6931
  366MOL0     H50455   8.288  10.687   0.705 -1.7793  0.2438 -0.4261
  366MOL0     H50456   8.252  10.637   0.872  1.5138  0.9909 -0.1574
  366MOL0     H50457   8.320  10.344   0.904  0.3886  0.2284  1.3907
  366MOL0     H50458   8.523  10.158   0.963 -1.0647  1.7474  1.9665
  366MOL0     H50459   8.677  10.247   0.947 -1.5280  0.8124  1.8251
  366MOL0     H50460   8.534  10.102   0.716 -1.2535 -1.9562  1.7094
  366MOL0     H50461   8.699  10.164   0.718  1.1347  2.3959  2.9342
  366MOL0     H50462   8.705   9.945   0.748 -0.2494  1.4777 -1.4111
  366MOL0     H50463   8.742   9.994   0.914  1.3574 -1.0079 -1.5239
  366MOL0     H50464   8.602   9.801   0.937  1.5433  1.3913  2.7641
  366MOL0     H50465   8.497   9.941   0.963  1.8983  1.2518  0.8468
  366MOL0     H50466   8.382   9.750   1.012 -0.8322  4.1876 -1.0763
  366MOL0     H50467   8.158   9.718   1.155 -1.8431 -0.9802  0.8691
  366MOL0     H50468   8.194   9.545   1.122  1.7877  0.0234 -0.9835
  366MOL0     H50469   8.037   9.618   1.096 -0.2265 -0.0332 -1.9718
  366MOL0     H50470   7.710   9.497   0.833  2.9064  0.6537  0.1406
  366MOL0     H50471   7.519   9.388   0.735  1.1288  0.8096  1.5471
  366MOL0     H50472   7.601   9.162   0.339  1.1103  0.3728  1.1892
  366MOL0     H50473   7.554   9.031   0.460  0.8965  0.1480  0.4306
  366MOL0     H50474   7.360   9.227   0.319 -0.7511  1.0000  1.7518
  366MOL0     H50475   7.388   9.047   0.280  2.7921  0.2449 -1.3442
  366MOL0     H50476   7.267   9.147   0.531 -0.2146 -0.2353 -0.0852
  366MOL0     H50477   7.306   8.988   0.493 -0.3487  0.4541  2.0745
  366MOL0     H50478   7.147   9.029   0.266 -0.9396  2.1331 -1.2539
  366MOL0     H50479   7.112   9.175   0.351 -2.2136 -0.6767  0.0153
  366MOL0     H50480   7.048   8.889   0.448 -1.2206  0.6587  0.8220
  366MOL0     H50481   7.022   9.037   0.549 -2.3979  0.9233  0.7817
  366MOL0     H50482   6.873   9.120   0.441  1.2099 -0.2142  0.8672
  366MOL0     H50483   6.824   8.945   0.436  1.1822 -2.4075 -0.2122
  366MOL0     H50484   6.936   8.940   0.211 -0.6879  0.5296  0.3252
  366MOL0     H50485   6.929   9.116   0.202  2.3906  0.6706  2.5160
  366MOL0     H50486   6.719   9.072   0.088  0.9795 -1.8807 -0.2999
  366MOL0     H50487   6.684   9.123   0.253 -3.1778 -0.6402 -1.6446
  366MOL0     H50488   7.780   9.188   0.462  2.1236  2.1007 -1.9288
  366MOL0     H50489   7.963   9.288   0.560 -0.3840  2.4054 -3.4051
  366MOL0     H50490   8.118   9.622   0.611  4.5822 -1.6653 -1.4221
  366MOL0     H50491   8.326   9.729   0.592  0.3192  0.6509  0.1427
  366MOL0     H50492   7.636  10.921   1.265  0.9349  2.8115  0.5967
  366MOL0     H50493   7.427  10.896   1.390 -0.1007  0.3813 -0.0948
  366MOL0     H50494   7.069  11.104   1.540  0.1587  0.0031 -3.4720
  366MOL0     H50495   6.860  11.109   1.674 -0.4080  0.0596 -0.0707
  366MOL0     H50496   6.519  10.976   1.785 -0.1100 -2.1394 -1.9676
  366MOL0     H50497   6.656  11.092   1.778 -0.4694  2.2321 -2.3411
  366MOL0     H50498   6.501  10.992   1.549  1.7094 -1.4978 -1.8996
  366MOL0     H50499   6.644  11.085   1.537 -0.4062  0.2084  0.1904
  366MOL0     H50500   6.428  11.207   1.505  1.3938  1.0510 -1.3686
  366MOL0     H50501   6.424  11.228   1.682 -0.7249 -0.9030  0.3655
  366MOL0     H50502   6.664  11.318   1.522  1.9673 -1.2735  2.1429
  366MOL0     H50503   6.625  11.337   1.690 -0.7216  2.1630  0.0687
  366MOL0     H50504   6.406  11.656   1.529 -1.2799  0.6367  0.4683
  366MOL0     H50505   6.789  10.702   1.600 -2.2003  1.9727  1.4302
  366MOL0     H50506   7.015  10.565   1.495  0.0901 -0.9386 -2.8814
  366MOL0     H50507   6.875  10.598   1.402  0.8550 -0.6381 -0.8144
  366MOL0     H50508   7.037  10.643   1.339  0.3120 -1.0183 -0.4064
  367MOL0     O50509  10.918   4.206   8.973  0.8935  0.2347 -0.5314
  367MOL0     C50510  10.964   4.301   9.038 -0.1754  0.3543  0.5954
  367MOL0     O50511  10.907   4.373   9.135 -0.1382 -0.4739  0.0128
  367MOL0     C50512  10.788   4.339   9.188  0.2725  0.0662 -0.4300
  367MOL0     C50513  10.766   4.257   9.298  0.1459 -0.7892 -0.7423
  367MOL0     C50514  10.644   4.235   9.353 -0.0704  0.1024 -0.8714
  367MOL0     C50515  10.527   4.277   9.291 -0.1449 -0.5472 -0.6281
  367MOL0     O50516  10.399   4.272   9.328  0.3776 -0.5650 -0.0002
  367MOL0     C50517  10.347   4.164   9.407 -0.5258  0.8290  0.3372
  367MOL0     C50518  10.284   4.059   9.321  0.1061 -0.4232  0.1629
  367MOL0     C50519  10.173   4.104   9.226  0.2305  0.9348  0.5362
  367MOL0     C50520  10.094   3.993   9.151  0.4054  0.0920  1.0481
  367MOL0     C50521   9.997   4.046   9.050 -0.6628 -0.5495 -0.2286
  367MOL0     C50522   9.932   3.925   8.979  0.6333  0.4600 -0.2444
  367MOL0     C50523   9.813   3.949   8.889 -0.2695  0.6388 -0.0957
  367MOL0     C50524   9.681   3.968   8.957  0.7215 -0.5504 -0.8823
  367MOL0     N50525   9.574   3.994   8.865 -0.1974  0.0733  0.6989
  367MOL0     C50526   9.519   4.119   8.834  0.7080  0.8425 -0.1053
  367MOL0     C50527   9.453   4.085   8.719 -0.7850 -0.3892 -0.6245
  367MOL0     C50528   9.396   4.180   8.627 -0.0975  0.5804  0.2018
  367MOL0     C50529   9.258   4.222   8.678 -0.9171 -0.7414 -0.6281
  367MOL0     C50530   9.278   4.342   8.767  0.2277  0.4944 -0.0653
  367MOL0     C50531   9.147   4.397   8.825 -0.1244 -0.7971  0.0023
  367MOL0     O50532   9.094   4.291   8.907  0.0141 -0.0869 -0.4086
  367MOL0     C50533   8.969   4.298   8.974  0.3974  0.3590  0.2047
  367MOL0     C50534   8.913   4.195   9.053 -0.2432 -0.1073  0.5068
  367MOL0     C50535   8.786   4.189   9.111 -0.4275  0.0643 -0.4359
  367MOL0     C50536   8.744   4.063   9.186  0.5982 -0.4983  0.5959
  367MOL0     C50537   8.705   4.290   9.075 -0.1769  1.0655  0.1859
  367MOL0     C50538   8.565   4.289   9.129  0.7083  0.2806  0.0394
  367MOL0     O50539   8.478   4.359   9.061 -0.2955 -0.9081  0.3755
  367MOL0     C50540   8.343   4.354   9.102  0.2697  0.0061  0.5305
  367MOL0     C50541   8.292   4.424   9.217 -1.2881 -0.7398  0.7210
  367MOL0     C50542   8.159   4.444   9.238 -0.4395  0.3994 -0.3595
  367MOL0     C50543   8.069   4.383   9.150  1.1326  0.6605 -0.2618
  367MOL0     O50544   7.936   4.398   9.171 -0.5165  0.4699  0.2534
  367MOL0     C50545   7.904   4.536   9.129 -0.1686  0.2384  0.2638
  367MOL0     C50546   7.752   4.542   9.102 -0.1185 -0.0341  0.0952
  367MOL0     C50547   7.688   4.673   9.055  0.2379  0.0389 -0.2969
  367MOL0     C50548   7.753   4.745   8.936 -0.1679  0.4095 -0.1668
  367MOL0     C50549   7.719   4.901   8.943 -0.9168 -0.2991  0.6532
  367MOL0     C50550   7.574   4.927   8.918 -0.3360 -0.1795  0.2943
  367MOL0     C50551   7.511   4.878   8.783 -0.1372 -1.0054 -0.5400
  367MOL0     C50552   7.362   4.905   8.777 -0.4262  0.7006  0.1561
  367MOL0    Cl50553   7.278   4.743   8.816 -0.0732  0.2075  0.3174
  367MOL0     C50554   8.109   4.301   9.050 -0.5078  0.0439  0.2562
  367MOL0     C50555   8.246   4.289   9.023 -0.2125 -0.3115 -0.2361
  367MOL0     O50556   8.544   4.242   9.240  0.2341 -0.0596 -0.4796
  367MOL0     C50557   8.752   4.389   8.998 -0.4154 -0.5765 -0.5961
  367MOL0     C50558   8.883   4.401   8.945  0.1743  0.0198  0.0644
  367MOL0     N50559   9.474   3.958   8.687 -0.4217  0.5092  0.1673
  367MOL0     N50560   9.540   3.896   8.769  0.1121 -0.5600 -0.0927
  367MOL0     C50561  10.541   4.359   9.176 -0.8149 -0.2642 -0.1399
  367MOL0     C50562  10.676   4.385   9.130 -0.4099 -1.2965 -0.5517
  367MOL0     C50563  11.100   4.342   8.994  0.6819 -0.3582  0.7786
  367MOL0     C50564  11.180   4.232   8.955  0.0491 -0.1163  0.2645
  367MOL0     C50565  11.305   4.263   8.903  0.4386 -0.5465  0.3549
  367MOL0     C50566  11.348   4.390   8.915 -0.4013 -0.9518  0.4277
  367MOL0     O50567  11.476   4.407   8.867 -0.4951  0.5244 -0.1495
  367MOL0     C50568  11.496   4.511   8.774  0.4078 -0.8235  0.2353
  367MOL0     C50569  11.602   4.485   8.657  0.2089 -0.0032 -0.2348
  367MOL0     C50570  11.727   4.435   8.733 -0.6603 -0.0331 -0.5472
  367MOL0     C50571  11.831   4.385   8.638 -0.0344 -0.3542  0.3912
  367MOL0     C50572  11.897   4.501   8.558 -0.1218 -0.2823  1.0392
  367MOL0     C50573  11.935   4.601   8.508  0.0995 -0.0406  0.3923
  367MOL0     C50574  11.276   4.497   8.960 -0.0139 -0.1861 -0.0380
  367MOL0     C50575  11.146   4.475   8.982 -0.5379 -0.2907 -0.6461
  367MOL0     C50576  11.068   4.600   9.012  0.1492 -0.0972 -0.4256
  367MOL0     H50577  10.849   4.208   9.348  1.2053  0.2584 -1.4113
  367MOL0     H50578  10.634   4.180   9.447  2.5324 -3.8241 -2.5968
  367MOL0     H50579  10.282   4.203   9.485 -0.5929 -0.7164  1.1024
  367MOL0     H50580  10.426   4.106   9.456 -0.2258 -0.7183 -1.7805
  367MOL0     H50581  10.359   4.003   9.265 -0.0974 -0.3008 -0.2322
  367MOL0     H50582  10.228   3.996   9.391  0.8389  0.5292  1.6571
  367MOL0     H50583  10.109   4.172   9.283  0.6123  1.8274 -0.0800
  367MOL0     H50584  10.219   4.158   9.142 -2.0708  2.3033  0.0787
  367MOL0     H50585  10.161   3.925   9.097  0.8194  1.1238  0.2315
  367MOL0     H50586  10.040   3.923   9.215  0.3146 -1.3185 -0.4919
  367MOL0     H50587  10.044   4.118   8.981 -0.6516 -0.7996 -0.4817
  367MOL0     H50588   9.930   4.099   9.118  3.2829  0.3452  3.3495
  367MOL0     H50589  10.002   3.877   8.911 -0.1007 -0.3278 -0.4574
  367MOL0     H50590   9.898   3.851   9.053 -2.3273  1.6064 -0.3577
  367MOL0     H50591   9.806   3.859   8.828  2.9275 -0.5525  1.0881
  367MOL0     H50592   9.831   4.028   8.816  0.4094 -0.0006 -0.6362
  367MOL0     H50593   9.671   3.876   9.015  3.3115 -0.2433  0.1849
  367MOL0     H50594   9.697   4.057   9.017  1.5172  0.3721 -2.3853
  367MOL0     H50595   9.524   4.221   8.872 -3.2831  1.4703 -0.8173
  367MOL0     H50596   9.389   4.127   8.532 -0.6238 -0.1779  0.6426
  367MOL0     H50597   9.464   4.265   8.628 -1.8289  2.0233  1.1702
  367MOL0     H50598   9.191   4.240   8.593  0.4398  1.6206 -1.2669
  367MOL0     H50599   9.210   4.144   8.738  2.5445 -2.6754 -0.0900
  367MOL0     H50600   9.347   4.316   8.848  1.2873  1.6416 -0.5597
  367MOL0     H50601   9.327   4.419   8.706 -0.4952  0.8811 -0.1695
  367MOL0     H50602   9.185   4.485   8.879  0.6116 -1.6043  0.8296
  367MOL0     H50603   9.079   4.420   8.743  1.3732 -0.1975 -1.1295
  367MOL0     H50604   8.972   4.106   9.071  0.7272  0.7605  1.7487
  367MOL0     H50605   8.668   4.017   9.122  1.8426 -2.5344  0.4944
  367MOL0     H50606   8.707   4.098   9.282 -1.8333  0.2776 -0.5496
  367MOL0     H50607   8.832   4.000   9.198 -0.2646 -2.4032 -2.1122
  367MOL0     H50608   8.366   4.481   9.271 -1.4940  0.1379  0.0897
  367MOL0     H50609   8.131   4.522   9.307 -1.4109  0.0503 -0.3511
  367MOL0     H50610   7.937   4.615   9.196  1.4618  1.2792 -1.6543
  367MOL0     H50611   7.954   4.551   9.032 -2.5408  1.9472 -0.7803
  367MOL0     H50612   7.732   4.466   9.025 -0.8064  0.9713 -0.7504
  367MOL0     H50613   7.717   4.508   9.200  1.6222  1.1560  1.1907
  367MOL0     H50614   7.670   4.743   9.136 -1.8948 -0.2720 -0.4399
  367MOL0     H50615   7.588   4.649   9.018  0.8546 -0.7611 -1.4923
  367MOL0     H50616   7.722   4.698   8.843 -1.8215  0.0295  0.5274
  367MOL0     H50617   7.860   4.722   8.941 -0.4029 -0.8210 -0.4169
  367MOL0     H50618   7.773   4.948   9.026  3.6115 -0.2543 -2.0094
  367MOL0     H50619   7.766   4.941   8.853 -4.8670  0.0326 -1.5286
  367MOL0     H50620   7.555   5.034   8.912 -0.2600 -0.2349 -1.1640
  367MOL0     H50621   7.520   4.888   9.005  1.3923 -0.2612  1.3874
  367MOL0     H50622   7.518   4.770   8.764 -1.0207 -1.0720 -0.5322
  367MOL0     H50623   7.555   4.932   8.698  0.4657 -0.0429  0.3658
  367MOL0     H50624   7.337   4.937   8.675 -2.0220  0.3502  0.4122
  367MOL0     H50625   7.332   4.993   8.834 -3.1918  1.1406 -1.7554
  367MOL0     H50626   8.040   4.247   8.986 -0.4852  3.9846 -3.5798
  367MOL0     H50627   8.284   4.237   8.936 -3.2897 -2.5494 -0.4082
  367MOL0     H50628   8.682   4.469   8.979 -0.5530  0.0714  2.1846
  367MOL0     H50629   8.921   4.480   8.881 -2.7818  2.1827  0.7538
  367MOL0     H50630  10.454   4.404   9.128 -2.8233 -2.4127  1.2676
  367MOL0     H50631  10.692   4.448   9.043  0.0437 -1.7429 -0.7910
  367MOL0     H50632  11.142   4.133   8.981  1.2854 -0.6952 -0.0501
  367MOL0     H50633  11.372   4.190   8.859  0.8300 -1.5037  2.4414
  367MOL0     H50634  11.403   4.528   8.720  1.2654  1.9398 -0.5452
  367MOL0     H50635  11.526   4.606   8.820  5.4925 -2.1274  0.2553
  367MOL0     H50636  11.629   4.576   8.603 -0.4868  1.5397  1.8770
  367MOL0     H50637  11.565   4.403   8.596 -3.5394  2.9367 -2.2745
  367MOL0     H50638  11.775   4.511   8.795  1.6155  0.0363 -2.2652
  367MOL0     H50639  11.707   4.353   8.803  0.0561  1.6188  1.7180
  367MOL0     H50640  11.787   4.315   8.566  0.1233 -0.0792  0.0263
  367MOL0     H50641  11.913   4.336   8.690  0.1219 -1.3406 -0.7299
  367MOL0     H50642  11.958   4.689   8.452 -0.8442  0.4461  0.7362
  367MOL0     H50643  11.324   4.594   8.972  1.3410 -0.8109 -0.2471
  367MOL0     H50644  10.961   4.584   9.003  0.4007 -1.9615 -0.3754
  367MOL0     H50645  11.096   4.647   9.107  0.4718 -0.9094 -0.1089
  367MOL0     H50646  11.076   4.676   8.933 -1.6511  2.6945  1.8688
  368MOL0     O50647   5.909   3.631   8.681  0.1213  0.1986 -0.5325
  368MOL0     C50648   5.809   3.690   8.632  0.6624  0.8899  0.1265
  368MOL0     O50649   5.691   3.725   8.705  0.0604 -0.1323  0.3950
  368MOL0     C50650   5.690   3.745   8.843  0.6679 -0.1091  0.2032
  368MOL0     C50651   5.689   3.637   8.935  1.1083 -0.4228  0.3417
  368MOL0     C50652   5.710   3.656   9.075  0.5052 -0.3992  0.2198
  368MOL0     C50653   5.728   3.780   9.131 -0.6622  0.0969  0.2966
  368MOL0     O50654   5.744   3.790   9.261 -0.1528  0.8334 -0.4042
  368MOL0     C50655   5.729   3.913   9.329  0.3719  0.3594 -0.9327
  368MOL0     C50656   5.722   3.894   9.489  0.2098 -0.3552  0.8696
  368MOL0     C50657   5.755   4.015   9.574 -0.5553 -0.0961  0.0746
  368MOL0     C50658   5.904   4.038   9.577  0.0878 -0.5250 -0.3353
  368MOL0     C50659   5.945   4.156   9.672 -0.0689 -0.4126  0.0758
  368MOL0     C50660   5.923   4.289   9.595 -0.0763  0.8106  0.5784
  368MOL0     C50661   5.959   4.401   9.695 -1.3413  0.2362 -0.1695
  368MOL0     C50662   5.847   4.438   9.791  0.0441 -0.3433  1.2453
  368MOL0     N50663   5.727   4.487   9.713 -0.4993 -0.6272  0.3198
  368MOL0     C50664   5.719   4.612   9.649  0.3661  0.8613 -0.2012
  368MOL0     C50665   5.588   4.613   9.605 -0.7321 -0.1562 -0.9900
  368MOL0     C50666   5.531   4.726   9.522  0.3892 -0.1121  0.5413
  368MOL0     C50667   5.508   4.856   9.592 -0.7628  0.5149 -1.3673
  368MOL0     C50668   5.376   4.854   9.669  0.5920  0.3934  0.0862
  368MOL0     C50669   5.339   4.990   9.723  0.4899  0.2995 -0.7673
  368MOL0     O50670   5.359   5.099   9.637 -0.2352  0.0450 -0.0275
  368MOL0     C50671   5.287   5.126   9.525  0.2466  0.5705  0.1477
  368MOL0     C50672   5.169   5.069   9.502  0.4633  0.5916  0.4987
  368MOL0     C50673   5.098   5.084   9.378  0.2227  0.4311  0.2020
  368MOL0     C50674   4.964   5.013   9.371 -0.2294  0.0448 -0.1797
  368MOL0     C50675   5.149   5.180   9.282 -0.4088  1.4741 -0.7011
  368MOL0     C50676   5.089   5.204   9.152 -0.0360 -0.4985  0.0307
  368MOL0     O50677   5.166   5.272   9.060 -1.2005 -0.2563  1.0868
  368MOL0     C50678   5.124   5.312   8.931  1.1318  0.0147  0.4677
  368MOL0     C50679   5.211   5.405   8.867  0.4482  0.2665  0.6163
  368MOL0     C50680   5.171   5.455   8.743  0.6837  0.1894  0.7816
  368MOL0     C50681   5.054   5.417   8.673 -0.4387  0.9089 -1.1117
  368MOL0     O50682   5.044   5.464   8.547  0.0708 -0.7481  0.3958
  368MOL0     C50683   4.935   5.414   8.463 -0.3299 -0.1637 -0.1887
  368MOL0     C50684   4.931   5.469   8.319  0.6837  0.3412 -0.9690
  368MOL0     C50685   5.050   5.421   8.233 -0.3242  1.2515  0.5854
  368MOL0     C50686   5.047   5.464   8.085  0.8066  0.1846 -0.5129
  368MOL0     C50687   5.148   5.388   8.003  0.4891  0.0028  1.2038
  368MOL0     C50688   5.296   5.427   8.021  0.5468  0.7032 -0.2144
  368MOL0     C50689   5.377   5.354   7.910 -0.4451  1.0506 -0.2899
  368MOL0     C50690   5.532   5.393   7.904  0.3828 -0.1224 -0.0480
  368MOL0    Cl50691   5.548   5.562   7.883  0.5609 -0.1633 -0.3670
  368MOL0     C50692   4.978   5.314   8.736 -0.2910 -1.0788 -0.2039
  368MOL0     C50693   5.004   5.275   8.869  0.0041  0.5100  1.3518
  368MOL0     O50694   4.979   5.155   9.127 -0.0943 -0.5288  0.6896
  368MOL0     C50695   5.280   5.236   9.316  0.5224  0.0181 -0.0191
  368MOL0     C50696   5.343   5.211   9.434  0.6556 -1.0005  0.3060
  368MOL0     N50697   5.526   4.494   9.635  0.1648 -0.4130 -0.7538
  368MOL0     N50698   5.610   4.424   9.701 -1.0869  0.6262 -0.2131
  368MOL0     C50699   5.736   3.889   9.037  0.2664 -0.2790 -0.4118
  368MOL0     C50700   5.727   3.870   8.894  0.5352  0.2218 -0.8356
  368MOL0     C50701   5.818   3.740   8.492  0.4776 -0.3398  0.6512
  368MOL0     C50702   5.701   3.744   8.414 -0.0876 -0.2446 -0.2360
  368MOL0     C50703   5.710   3.769   8.277  0.6159 -0.2000  0.1992
  368MOL0     C50704   5.822   3.808   8.214  0.6589 -0.2814  0.8053
  368MOL0     O50705   5.801   3.831   8.076 -0.3660 -0.3984  0.1003
  368MOL0     C50706   5.921   3.843   7.997  0.1039  0.7399  0.5676
  368MOL0     C50707   5.901   3.890   7.853 -0.8319 -0.5754  0.6366
  368MOL0     C50708   5.846   4.035   7.844 -0.2656  0.1028 -0.2537
  368MOL0     C50709   5.870   4.106   7.702  0.3253 -0.3355 -0.0505
  368MOL0     C50710   5.796   4.030   7.604  0.2808  0.0444  0.3878
  368MOL0     C50711   5.730   3.955   7.532 -0.4156 -0.3335 -0.7655
  368MOL0     C50712   5.940   3.811   8.290  0.9263  0.3452  0.5836
  368MOL0     C50713   5.940   3.767   8.427 -0.7048  0.2497  0.4701
  368MOL0     C50714   6.073   3.770   8.492 -0.7427 -0.0600  1.2173
  368MOL0     H50715   5.664   3.535   8.907  1.1796 -0.1885 -0.6078
  368MOL0     H50716   5.698   3.578   9.150  2.1748  0.7344  1.7398
  368MOL0     H50717   5.638   3.968   9.304 -2.3896 -2.2966  2.1722
  368MOL0     H50718   5.823   3.966   9.310  0.3840  1.8577  2.6355
  368MOL0     H50719   5.621   3.869   9.522  0.8876  0.0163  3.3951
  368MOL0     H50720   5.793   3.813   9.508 -0.3858 -1.1932 -0.3377
  368MOL0     H50721   5.704   4.108   9.547  1.5883  1.4552  1.0508
  368MOL0     H50722   5.729   3.990   9.678  0.6137 -1.5253  0.0529
  368MOL0     H50723   5.947   3.941   9.605  0.0480 -0.5049 -0.2080
  368MOL0     H50724   5.935   4.057   9.473 -3.4621 -3.1152 -2.0933
  368MOL0     H50725   6.044   4.146   9.717 -0.1409  2.0730  0.8914
  368MOL0     H50726   5.874   4.155   9.755  2.1064 -1.6932  2.0223
  368MOL0     H50727   5.987   4.296   9.506 -0.9830  0.9081 -0.0846
  368MOL0     H50728   5.816   4.294   9.573 -0.4625  0.8248  2.3368
  368MOL0     H50729   5.969   4.496   9.642 -0.8473 -0.4122 -1.2816
  368MOL0     H50730   6.057   4.391   9.743 -0.6360  4.1407 -0.4794
  368MOL0     H50731   5.806   4.354   9.849 -1.8375  1.8523  3.2890
  368MOL0     H50732   5.875   4.500   9.876 -4.9440  1.8000  1.6950
  368MOL0     H50733   5.788   4.696   9.655 -1.4235  2.3712  0.2965
  368MOL0     H50734   5.439   4.687   9.478  0.9335  0.9856 -1.6874
  368MOL0     H50735   5.596   4.737   9.435 -1.2158 -3.5206 -1.2640
  368MOL0     H50736   5.584   4.882   9.667 -1.2874  1.1893 -1.0599
  368MOL0     H50737   5.515   4.940   9.523  0.4202  0.7731 -0.9615
  368MOL0     H50738   5.290   4.826   9.607 -0.0804 -1.0840  1.6128
  368MOL0     H50739   5.386   4.765   9.731  0.8882 -1.3434 -2.3128
  368MOL0     H50740   5.234   4.995   9.754  1.2864  0.0679  2.2165
  368MOL0     H50741   5.403   5.014   9.808  0.8059 -1.4199 -0.4697
  368MOL0     H50742   5.134   5.001   9.579 -0.0119  0.7095  0.3894
  368MOL0     H50743   4.948   4.969   9.272  3.0000  2.3576 -1.9160
  368MOL0     H50744   4.888   5.090   9.384 -0.1896  0.4293 -1.9799
  368MOL0     H50745   4.960   4.934   9.447  1.1735 -2.1103 -2.1803
  368MOL0     H50746   5.295   5.454   8.917  0.7534  0.8956 -0.4827
  368MOL0     H50747   5.241   5.523   8.696 -0.0914  1.1642  1.0168
  368MOL0     H50748   4.947   5.306   8.456  1.5941  0.0448 -0.5083
  368MOL0     H50749   4.842   5.446   8.512 -0.9449  0.2192 -1.5639
  368MOL0     H50750   4.835   5.440   8.274  0.6313 -2.5940  0.7347
  368MOL0     H50751   4.936   5.578   8.326 -0.6280  0.3255  1.2228
  368MOL0     H50752   5.053   5.312   8.236 -1.4956  1.1826 -0.0673
  368MOL0     H50753   5.143   5.463   8.273  0.2391  1.6875 -1.0715
  368MOL0     H50754   5.068   5.571   8.082  0.1458  0.5474  2.9666
  368MOL0     H50755   4.950   5.439   8.042  1.0083  1.1865 -1.5820
  368MOL0     H50756   5.142   5.282   8.027 -0.0985 -0.7359 -1.8524
  368MOL0     H50757   5.120   5.403   7.898 -1.1659 -3.2811  1.0494
  368MOL0     H50758   5.313   5.399   8.126 -1.5614 -2.8561 -0.6523
  368MOL0     H50759   5.318   5.532   8.000  3.6987  0.0205 -0.9251
  368MOL0     H50760   5.325   5.388   7.821  1.2793  1.7841 -1.0634
  368MOL0     H50761   5.372   5.245   7.917  3.4492  0.7770  1.0796
  368MOL0     H50762   5.594   5.344   7.829 -0.7520  1.7726 -2.3232
  368MOL0     H50763   5.570   5.362   8.002  0.6306 -0.5367 -0.2726
  368MOL0     H50764   4.892   5.273   8.685 -2.1415  1.1152  0.9682
  368MOL0     H50765   4.951   5.189   8.907  0.0908 -0.1246  0.0638
  368MOL0     H50766   5.321   5.309   9.247 -2.1120  0.5685 -1.1207
  368MOL0     H50767   5.427   5.274   9.460 -0.0227  0.5199 -0.9979
  368MOL0     H50768   5.766   3.988   9.070  2.4719 -0.9077 -0.3675
  368MOL0     H50769   5.734   3.955   8.827 -0.5888 -0.8129 -2.3091
  368MOL0     H50770   5.610   3.722   8.468  0.3094  0.7100  0.8550
  368MOL0     H50771   5.612   3.770   8.230  1.1131  1.5659 -0.8947
  368MOL0     H50772   5.972   3.924   8.050 -0.4942  1.1671  0.5142
  368MOL0     H50773   5.968   3.745   8.003 -2.3353 -0.5467 -0.1327
  368MOL0     H50774   5.826   3.825   7.807 -1.4690  0.6687 -0.1076
  368MOL0     H50775   5.995   3.873   7.800 -1.2416  0.0896 -0.3247
  368MOL0     H50776   5.740   4.030   7.872 -0.1238 -0.4994  0.2048
  368MOL0     H50777   5.907   4.089   7.917  0.4071  2.3416 -2.3431
  368MOL0     H50778   5.976   4.116   7.678 -0.2805 -1.2321 -3.6180
  368MOL0     H50779   5.820   4.203   7.705 -0.5480 -0.7880  2.6205
  368MOL0     H50780   5.677   3.897   7.459 -0.4651 -3.1411  1.3281
  368MOL0     H50781   6.024   3.849   8.234 -1.7477  2.4324 -2.3967
  368MOL0     H50782   6.112   3.670   8.508  1.1653  0.0499 -1.8304
  368MOL0     H50783   6.158   3.819   8.442 -0.8478 -0.9589  0.1252
  368MOL0     H50784   6.062   3.818   8.589 -1.5478  0.2612  0.9766
  369MOL0     O50785   8.259   9.091   7.987 -0.1048  0.2139  1.0408
  369MOL0     C50786   8.156   9.145   8.024 -0.7232  0.4355  0.2058
  369MOL0     O50787   8.032   9.079   8.023 -0.4725  0.2912  0.7533
  369MOL0     C50788   8.030   8.940   8.017 -0.1587 -0.3940 -0.1501
  369MOL0     C50789   7.959   8.871   8.110  0.1885 -0.0043  0.5533
  369MOL0     C50790   7.941   8.737   8.089  0.0289  1.7637 -0.0598
  369MOL0     C50791   8.006   8.671   7.981  0.1778  0.3333  0.6389
  369MOL0     O50792   7.970   8.544   7.944  0.4968 -0.3581  0.4263
  369MOL0     C50793   8.042   8.461   7.853  0.6061 -0.0079 -0.0826
  369MOL0     C50794   8.043   8.314   7.909  0.1939 -0.0186  0.6466
  369MOL0     C50795   8.108   8.210   7.808 -0.5236  0.0498 -0.4240
  369MOL0     C50796   8.094   8.068   7.853  1.0509 -0.0652 -0.0204
  369MOL0     C50797   8.211   7.983   7.809 -0.0984 -0.1984  0.1529
  369MOL0     C50798   8.353   8.005   7.872  0.3431  0.7281  0.0744
  369MOL0     C50799   8.354   7.979   8.018  0.3619  0.0133 -0.2891
  369MOL0     C50800   8.497   7.982   8.086  0.5735 -0.9460 -0.2010
  369MOL0     N50801   8.468   8.039   8.219  1.2822 -0.1708  0.4564
  369MOL0     C50802   8.442   7.962   8.336 -0.1778 -0.2111  0.6195
  369MOL0     C50803   8.430   8.052   8.437  0.4416  0.6870 -0.9429
  369MOL0     C50804   8.382   8.032   8.577 -0.3357  0.2157 -0.3934
  369MOL0     C50805   8.479   8.058   8.685 -0.5128 -0.4999 -0.7988
  369MOL0     C50806   8.411   8.074   8.820 -0.2763 -0.0428 -0.4991
  369MOL0     C50807   8.416   7.945   8.897  0.0762 -0.1761  0.3109
  369MOL0     O50808   8.356   7.843   8.813 -0.2397  0.0161 -0.1669
  369MOL0     C50809   8.255   7.766   8.856 -0.3740  0.3609  0.6576
  369MOL0     C50810   8.206   7.686   8.760  0.3027  0.8692  0.6835
  369MOL0     C50811   8.092   7.600   8.794  0.2176 -0.0381 -0.6420
  369MOL0     C50812   8.035   7.514   8.680 -0.3618 -0.3336  0.1413
  369MOL0     C50813   8.026   7.612   8.921 -0.2073  0.7749  0.0888
  369MOL0     C50814   7.905   7.530   8.963  1.1474 -0.1493 -0.4753
  369MOL0     O50815   7.817   7.597   9.047 -0.1666  1.3574  0.7044
  369MOL0     C50816   7.782   7.529   9.162  0.2598 -0.5756  0.2671
  369MOL0     C50817   7.864   7.434   9.216  0.0093 -0.1297  0.2388
  369MOL0     C50818   7.843   7.382   9.341 -0.3449 -0.3928 -0.4505
  369MOL0     C50819   7.730   7.423   9.420  0.0384  0.6517 -0.4103
  369MOL0     O50820   7.723   7.358   9.540 -0.0432 -0.5292  0.2807
  369MOL0     C50821   7.587   7.337   9.600 -0.4565  1.2110 -0.5760
  369MOL0     C50822   7.607   7.385   9.740 -0.8138 -0.0127 -0.2427
  369MOL0     C50823   7.705   7.284   9.812  0.1722 -0.4682 -0.0923
  369MOL0     C50824   7.715   7.315   9.954 -0.4139  0.1844  0.4771
  369MOL0     C50825   7.594   7.294  10.038  0.4579 -0.5901 -0.0202
  369MOL0     C50826   7.542   7.146  10.045  0.4593  0.2975  0.1167
  369MOL0     C50827   7.454   7.098  10.162  0.0764  0.6242 -0.2591
  369MOL0     C50828   7.315   7.161  10.197 -0.2529 -0.6284  0.8864
  369MOL0    Cl50829   7.340   7.338  10.237  0.0023  0.3865 -0.2842
  369MOL0     C50830   7.647   7.520   9.366 -0.0947 -0.4410  0.3158
  369MOL0     C50831   7.667   7.566   9.233 -0.5703  0.3495  1.4515
  369MOL0     O50832   7.900   7.408   8.930  0.7886  0.0520  0.5621
  369MOL0     C50833   8.087   7.686   9.019 -0.3669  0.5534  0.4049
  369MOL0     C50834   8.198   7.763   8.988 -0.0933 -0.2009 -0.5830
  369MOL0     N50835   8.443   8.175   8.381  0.8081  0.0663 -1.4106
  369MOL0     N50836   8.453   8.164   8.253  0.0182 -0.0606  0.0245
  369MOL0     C50837   8.095   8.738   7.899  0.3440  0.0837  0.2127
  369MOL0     C50838   8.093   8.872   7.908 -0.4232  0.6215  1.2190
  369MOL0     C50839   8.169   9.290   8.069 -1.1325  0.6874 -0.0989
  369MOL0     C50840   8.249   9.372   7.993 -0.9838 -0.7940 -0.3446
  369MOL0     C50841   8.296   9.497   8.033 -0.0383  0.2565  0.2348
  369MOL0     C50842   8.250   9.543   8.152 -0.4691 -0.4792 -0.3686
  369MOL0     O50843   8.283   9.664   8.218  0.2156  0.7765 -0.0455
  369MOL0     C50844   8.399   9.731   8.175 -1.1418 -0.3225  0.5470
  369MOL0     C50845   8.527   9.650   8.183 -0.1427  0.5367  0.3113
  369MOL0     C50846   8.648   9.738   8.223 -0.7076  0.0785  0.2947
  369MOL0     C50847   8.775   9.654   8.246 -0.4033 -0.3662  0.6780
  369MOL0     C50848   8.764   9.543   8.344  0.5136 -0.3597 -0.1432
  369MOL0     C50849   8.762   9.463   8.433  0.5003  0.7300  0.3510
  369MOL0     C50850   8.159   9.471   8.234  0.3933  0.0179  0.8859
  369MOL0     C50851   8.119   9.347   8.194  0.7228  0.4258 -0.0460
  369MOL0     C50852   8.033   9.270   8.295 -0.2066  0.3134  0.2893
  369MOL0     H50853   7.925   8.921   8.201  1.1534  1.7502 -0.0029
  369MOL0     H50854   7.877   8.686   8.160 -2.2527  5.2138  0.6094
  369MOL0     H50855   8.149   8.485   7.852  0.0719  2.8128  0.6730
  369MOL0     H50856   8.001   8.478   7.753 -0.8556  3.6166  0.9907
  369MOL0     H50857   8.082   8.310   8.011 -0.5024 -1.4042  0.8881
  369MOL0     H50858   7.939   8.281   7.915  0.8255 -3.2464 -2.6327
  369MOL0     H50859   8.076   8.212   7.703 -2.9005 -0.7959  0.2203
  369MOL0     H50860   8.214   8.235   7.814 -0.4198 -0.2213 -1.0157
  369MOL0     H50861   8.095   8.077   7.962 -0.3687  0.8263 -0.0595
  369MOL0     H50862   8.003   8.027   7.810  2.6032 -0.3463 -3.3504
  369MOL0     H50863   8.225   7.999   7.702 -0.9930  1.8345  0.3036
  369MOL0     H50864   8.188   7.876   7.815 -0.0379 -0.1727  1.1248
  369MOL0     H50865   8.426   7.954   7.808  0.3184  3.5605 -2.3965
  369MOL0     H50866   8.379   8.111   7.865 -1.1036  1.0206 -1.3898
  369MOL0     H50867   8.301   7.890   8.054 -0.1808  1.0166  1.4937
  369MOL0     H50868   8.293   8.063   8.054 -0.5539 -1.0131  0.6310
  369MOL0     H50869   8.522   7.878   8.104 -0.5180 -1.0204  0.9899
  369MOL0     H50870   8.570   8.047   8.035 -0.0435 -0.5661 -0.6162
  369MOL0     H50871   8.427   7.854   8.331 -1.2717 -0.0221 -1.1437
  369MOL0     H50872   8.351   7.927   8.588 -2.4925  0.5118 -2.6142
  369MOL0     H50873   8.291   8.092   8.585 -0.8686 -0.6521  0.2862
  369MOL0     H50874   8.558   7.983   8.685 -1.8818 -2.0202  0.4733
  369MOL0     H50875   8.514   8.159   8.662 -1.3189 -0.3190 -1.2897
  369MOL0     H50876   8.478   8.139   8.878  2.1089  0.8626 -3.9443
  369MOL0     H50877   8.308   8.111   8.817  0.8831  4.4927  3.3160
  369MOL0     H50878   8.524   7.930   8.907  0.9341  3.0100 -2.2805
  369MOL0     H50879   8.373   7.956   8.997  0.9463 -1.9544  0.9216
  369MOL0     H50880   8.236   7.679   8.656 -1.6445 -1.3549  0.1770
  369MOL0     H50881   7.926   7.516   8.683 -0.3644  0.0549 -0.1873
  369MOL0     H50882   8.075   7.413   8.690 -2.0057 -1.0729 -0.3558
  369MOL0     H50883   8.066   7.552   8.582  1.0710 -2.5685 -0.3412
  369MOL0     H50884   7.955   7.400   9.168 -1.2712 -3.2247 -0.1991
  369MOL0     H50885   7.916   7.320   9.391  4.0995  3.0243 -2.0599
  369MOL0     H50886   7.502   7.377   9.544 -2.9189 -3.3065 -0.5435
  369MOL0     H50887   7.566   7.229   9.601  2.2392  0.3594 -5.0297
  369MOL0     H50888   7.640   7.489   9.737 -0.4134  0.0903  3.1192
  369MOL0     H50889   7.510   7.399   9.788 -1.9381  0.6045 -2.5849
  369MOL0     H50890   7.803   7.289   9.764 -0.6716 -0.5398 -1.9428
  369MOL0     H50891   7.671   7.181   9.796 -1.8443 -0.2167  2.0780
  369MOL0     H50892   7.766   7.411   9.965  0.8824 -0.2757 -1.1670
  369MOL0     H50893   7.779   7.230   9.982 -1.6291 -0.4976  1.3083
  369MOL0     H50894   7.624   7.315  10.141  1.4534 -0.6055 -0.2954
  369MOL0     H50895   7.509   7.356  10.006 -1.5770 -2.5546  1.2837
  369MOL0     H50896   7.637   7.093  10.055  1.5348  2.1856  0.4840
  369MOL0     H50897   7.496   7.119   9.949 -1.1333  3.9806 -0.3288
  369MOL0     H50898   7.516   7.098  10.253  0.8208 -0.9103 -0.7322
  369MOL0     H50899   7.423   6.994  10.147 -0.2840  0.3617  1.9031
  369MOL0     H50900   7.254   7.107  10.270 -1.4408 -1.2931 -0.5488
  369MOL0     H50901   7.253   7.167  10.108  1.1393 -0.7912 -0.1301
  369MOL0     H50902   7.561   7.548   9.424  0.1364  2.2542 -0.4889
  369MOL0     H50903   7.593   7.633   9.190  0.0225 -0.2314 -0.5948
  369MOL0     H50904   8.042   7.680   9.118 -4.9297  0.7797 -1.4115
  369MOL0     H50905   8.249   7.819   9.065 -2.4300  1.6494 -0.2580
  369MOL0     H50906   8.144   8.690   7.814 -1.2424 -0.7123 -0.2924
  369MOL0     H50907   8.149   8.925   7.831 -1.0929 -0.9166 -0.3851
  369MOL0     H50908   8.301   9.330   7.907  2.4970 -1.0417  1.6878
  369MOL0     H50909   8.367   9.553   7.973  0.0177  1.5048  1.4116
  369MOL0     H50910   8.372   9.766   8.074  0.7752  1.4784  0.5862
  369MOL0     H50911   8.425   9.823   8.228  4.1849 -3.3675  4.2045
  369MOL0     H50912   8.549   9.605   8.085 -0.2181  1.7905 -0.2941
  369MOL0     H50913   8.518   9.570   8.257  2.6640  2.0924  2.5096
  369MOL0     H50914   8.676   9.816   8.152  0.2528  2.5824  3.2203
  369MOL0     H50915   8.623   9.787   8.318 -0.1821 -1.9440  1.5469
  369MOL0     H50916   8.868   9.709   8.262  0.3999 -1.9991  1.9399
  369MOL0     H50917   8.799   9.606   8.150  0.2047 -0.6721  0.9745
  369MOL0     H50918   8.765   9.382   8.504 -2.9433 -0.3476 -0.5428
  369MOL0     H50919   8.128   9.497   8.335 -2.9540 -3.5866  1.0143
  369MOL0     H50920   8.062   9.164   8.296 -0.4069  0.2620  0.7263
  369MOL0     H50921   8.026   9.303   8.399 -0.9006  1.0529  0.0159
  369MOL0     H50922   7.931   9.270   8.257 -0.3410 -3.0028  0.3855
  370MOL0     O50923   0.324   8.604   0.996 -0.1847 -0.0996 -0.3187
  370MOL0     C50924   0.325   8.690   0.905 -0.0214  0.8462 -0.6233
  370MOL0     O50925   0.313   8.821   0.925  0.3169  0.0735 -0.3598
  370MOL0     C50926   0.288   8.871   1.049  0.1110  0.4009 -0.1381
  370MOL0     C50927   0.163   8.862   1.106  0.1175 -0.5423  0.6632
  370MOL0     C50928   0.147   8.908   1.241  0.4108  0.8930 -0.0805
  370MOL0     C50929   0.253   8.965   1.314 -0.1983 -0.2216  0.1461
  370MOL0     O50930   0.234   9.033   1.429  0.6895  0.4515  0.1013
  370MOL0     C50931   0.238   8.960   1.554  0.2345 -0.1502 -0.5287
  370MOL0     C50932   0.090   8.964   1.609  0.0242 -0.4004 -0.9081
  370MOL0     C50933   0.085   9.080   1.700 -0.6688  0.3487  0.6920
  370MOL0     C50934  -0.050   9.104   1.762  0.3438  0.6451  0.6781
  370MOL0     C50935  -0.089   9.251   1.791 -1.6349  0.6050  1.1169
  370MOL0     C50936  -0.033   9.295   1.918 -0.5423 -0.4629 -0.0353
  370MOL0     C50937  -0.106   9.429   1.958 -1.0627 -0.8409 -0.8158
  370MOL0     C50938  -0.104   9.532   1.846 -0.8288 -0.0917  0.7706
  370MOL0     N50939  -0.116   9.663   1.899  0.1164  0.7804  0.1639
  370MOL0     C50940  -0.011   9.755   1.913  0.3148 -0.5536  0.4501
  370MOL0     C50941  -0.057   9.883   1.930  0.4279  0.3742  0.0039
  370MOL0     C50942   0.035  10.003   1.940 -0.3778 -1.9330 -1.2749
  370MOL0     C50943   0.164   9.997   2.027 -0.4936 -0.2703  0.7844
  370MOL0     C50944   0.151  10.003   2.180 -0.2295  0.1760  0.3330
  370MOL0     C50945   0.098   9.871   2.240  0.4168  0.4496 -0.4754
  370MOL0     O50946   0.201   9.777   2.207  0.6739 -0.2560 -0.2113
  370MOL0     C50947   0.168   9.646   2.228 -0.1185 -0.5214 -0.0499
  370MOL0     C50948   0.053   9.594   2.282  0.4693  0.3178  0.4177
  370MOL0     C50949   0.035   9.451   2.307 -0.1025 -0.3767 -0.4913
  370MOL0     C50950  -0.084   9.408   2.381  0.3857 -0.9350  0.5040
  370MOL0     C50951   0.132   9.360   2.257 -0.7787 -0.2459  0.0002
  370MOL0     C50952   0.129   9.215   2.269 -0.0083 -0.8583 -0.1403
  370MOL0     O50953   0.020   9.154   2.311 -1.1071  0.9088 -0.7825
  370MOL0     C50954   0.004   9.013   2.307  0.0328 -0.2385  0.5665
  370MOL0     C50955  -0.070   8.943   2.399  0.0414 -0.6595 -0.7949
  370MOL0     C50956  -0.098   8.805   2.401  0.3780  0.2544 -0.1017
  370MOL0     C50957  -0.025   8.727   2.306  0.0327  0.4879 -1.1267
  370MOL0     O50958  -0.042   8.588   2.303  0.0691  0.2903  0.4086
  370MOL0     C50959  -0.043   8.528   2.174 -0.6707 -0.3207  0.5485
  370MOL0     C50960  -0.112   8.393   2.182 -0.5519  0.0054  0.1627
  370MOL0     C50961  -0.057   8.286   2.283  0.7091 -1.0046  0.0432
  370MOL0     C50962   0.068   8.213   2.230 -0.2072  0.5167 -0.5386
  370MOL0     C50963   0.111   8.104   2.328  0.3997  0.0846  0.4435
  370MOL0     C50964   0.242   8.040   2.277 -0.5330  0.0054 -0.4914
  370MOL0     C50965   0.290   7.924   2.357 -0.3987  0.2395 -0.3772
  370MOL0     C50966   0.431   7.883   2.337  0.3702 -0.3948  1.2038
  370MOL0    Cl50967   0.534   8.006   2.407  0.5847  0.1159 -0.3646
  370MOL0     C50968   0.051   8.796   2.208 -0.2851  0.0565  0.3105
  370MOL0     C50969   0.066   8.936   2.213  0.3807  0.3488 -0.3153
  370MOL0     O50970   0.232   9.166   2.240 -1.4301 -0.0928 -0.6639
  370MOL0     C50971   0.245   9.416   2.179 -0.2279 -0.7284  0.7465
  370MOL0     C50972   0.271   9.558   2.175  0.4717  0.5380 -0.0898
  370MOL0     N50973  -0.193   9.863   1.929  0.3464 -0.1752 -0.7427
  370MOL0     N50974  -0.229   9.742   1.913 -0.7719 -0.4307  0.4850
  370MOL0     C50975   0.378   8.956   1.257  0.2557  0.0521  0.6397
  370MOL0     C50976   0.396   8.910   1.128  0.8598 -0.2712  0.3370
  370MOL0     C50977   0.346   8.651   0.763  0.6796  0.8253  0.0044
  370MOL0     C50978   0.271   8.720   0.663 -0.6208  0.4525  0.4437
  370MOL0     C50979   0.275   8.689   0.534  0.3148  0.4170  0.1786
  370MOL0     C50980   0.361   8.582   0.492 -0.3340 -0.2604 -0.1817
  370MOL0     O50981   0.366   8.545   0.360  0.0363  0.5013 -0.5596
  370MOL0     C50982   0.333   8.643   0.261 -0.2704 -0.3848  0.7571
  370MOL0     C50983   0.418   8.617   0.124  0.0295 -0.3536 -0.2693
  370MOL0     C50984   0.558   8.668   0.132 -0.1989  0.0259  0.3009
  370MOL0     C50985   0.658   8.561   0.193  0.1561  0.4339 -0.0015
  370MOL0     C50986   0.788   8.620   0.221 -0.2646  0.5896 -0.2724
  370MOL0     C50987   0.898   8.668   0.230  0.3768 -0.1971  1.1564
  370MOL0     C50988   0.449   8.522   0.588 -0.4125  0.0620 -1.4768
  370MOL0     C50989   0.433   8.544   0.729 -0.0136 -0.2142 -0.1194
  370MOL0     C50990   0.512   8.472   0.835 -0.2252  0.5804 -0.1267
  370MOL0     H50991   0.085   8.823   1.041  0.9257 -0.6621 -0.2644
  370MOL0     H50992   0.049   8.906   1.287  0.7150  0.3110  0.5613
  370MOL0     H50993   0.319   9.004   1.612  1.9893 -0.8359 -2.3221
  370MOL0     H50994   0.261   8.853   1.547 -0.6057 -0.2762 -1.9589
  370MOL0     H50995   0.015   8.982   1.532 -0.1916  0.1655 -0.5659
  370MOL0     H50996   0.051   8.876   1.663 -1.9266 -1.2066 -3.4474
  370MOL0     H50997   0.158   9.068   1.780  0.3647  0.2114 -0.2357
  370MOL0     H50998   0.118   9.171   1.649 -0.1135  0.2172  0.8099
  370MOL0     H50999  -0.122   9.066   1.689  0.0541  2.9879 -0.3588
  370MOL0     H51000  -0.048   9.052   1.858  2.1359 -1.6446 -0.5078
  370MOL0     H51001  -0.196   9.245   1.810 -2.2073 -1.0223 -1.9747
  370MOL0     H51002  -0.055   9.318   1.712  1.1951 -1.8344  0.0887
  370MOL0     H51003  -0.047   9.214   1.991 -2.2147 -2.0403 -1.9868
  370MOL0     H51004   0.076   9.304   1.912 -0.2587  1.4045  4.0514
  370MOL0     H51005  -0.067   9.464   2.054  3.1259  1.7657 -3.1762
  370MOL0     H51006  -0.207   9.396   1.985 -0.6124  0.2246  2.6865
  370MOL0     H51007  -0.010   9.534   1.791  0.0090  4.1138  1.9986
  370MOL0     H51008  -0.189   9.497   1.787 -0.2208 -0.9869  0.4103
  370MOL0     H51009   0.095   9.736   1.920 -0.2173 -3.7548  2.1369
  370MOL0     H51010  -0.021  10.090   1.976  1.8964 -0.1521 -1.7425
  370MOL0     H51011   0.067  10.018   1.836  2.5606  2.3358 -0.0451
  370MOL0     H51012   0.213   9.910   1.983 -0.5340  1.3690 -2.8879
  370MOL0     H51013   0.237  10.077   2.010 -0.8847  0.9115  3.8936
  370MOL0     H51014   0.249  10.008   2.228 -0.3100 -1.6798  0.7786
  370MOL0     H51015   0.087  10.084   2.217  0.3691  0.2347  1.2788
  370MOL0     H51016   0.079   9.877   2.347 -0.0750  0.0126 -0.5362
  370MOL0     H51017   0.004   9.852   2.188  1.2675 -1.1265 -1.5281
  370MOL0     H51018  -0.024   9.661   2.318  1.1380  1.3909 -0.0738
  370MOL0     H51019  -0.147   9.498   2.383 -0.7777 -1.7409  1.5813
  370MOL0     H51020  -0.064   9.371   2.482  0.8066  0.5916  1.0086
  370MOL0     H51021  -0.154   9.339   2.332  0.0345  0.1368 -0.5531
  370MOL0     H51022  -0.119   8.996   2.480 -3.2617  0.9017 -3.5546
  370MOL0     H51023  -0.164   8.747   2.466  1.7230 -3.5007 -1.8092
  370MOL0     H51024  -0.091   8.592   2.099 -2.2174 -1.0395  0.8836
  370MOL0     H51025   0.060   8.511   2.140 -0.9436  0.3024 -0.6425
  370MOL0     H51026  -0.212   8.414   2.221  0.0845  1.6662  1.0261
  370MOL0     H51027  -0.113   8.356   2.080 -0.0710  0.9453 -0.1978
  370MOL0     H51028  -0.135   8.214   2.311 -2.1690  2.5986  2.0847
  370MOL0     H51029  -0.032   8.342   2.373 -0.3408 -0.9678  0.3274
  370MOL0     H51030   0.154   8.279   2.216 -0.3069  0.4111 -1.7014
  370MOL0     H51031   0.036   8.166   2.136  2.1281 -0.3232 -0.9745
  370MOL0     H51032   0.139   8.147   2.425  4.0009 -0.1732 -0.3466
  370MOL0     H51033   0.031   8.031   2.338  0.2667  0.2974  0.9920
  370MOL0     H51034   0.318   8.116   2.256 -1.8243  1.5588  0.1938
  370MOL0     H51035   0.218   7.997   2.179 -1.7693 -0.3746 -0.0494
  370MOL0     H51036   0.213   7.849   2.340 -0.9297  0.6781  0.0582
  370MOL0     H51037   0.293   7.955   2.462  1.9619 -0.9100 -0.0350
  370MOL0     H51038   0.444   7.866   2.230 -0.4802  0.0829  1.0139
  370MOL0     H51039   0.461   7.790   2.386  2.4232 -0.0985  0.5884
  370MOL0     H51040   0.096   8.752   2.120 -3.0207 -1.7042 -0.3144
  370MOL0     H51041   0.122   8.971   2.127 -2.7450 -0.7533 -3.0300
  370MOL0     H51042   0.324   9.357   2.134 -0.9909 -1.4187  0.2938
  370MOL0     H51043   0.370   9.590   2.142  2.2873 -1.5487  2.8374
  370MOL0     H51044   0.462   8.999   1.310  0.6160  0.0805  0.0574
  370MOL0     H51045   0.498   8.906   1.090  1.2322 -0.9182  1.3609
  370MOL0     H51046   0.215   8.805   0.701  0.9090  1.4468  0.5413
  370MOL0     H51047   0.208   8.742   0.468  0.2429 -0.4485 -0.4526
  370MOL0     H51048   0.227   8.633   0.234 -0.4092 -1.2744  1.6237
  370MOL0     H51049   0.346   8.746   0.295  1.6205 -1.0243  2.0982
  370MOL0     H51050   0.376   8.671   0.039 -1.1637  2.4915  1.9349
  370MOL0     H51051   0.411   8.510   0.103 -3.9745 -0.6598  1.6300
  370MOL0     H51052   0.588   8.695   0.030  2.3263 -5.9408 -0.9179
  370MOL0     H51053   0.567   8.755   0.198  2.1544 -0.6240  0.9049
  370MOL0     H51054   0.673   8.484   0.117  4.2017  1.0242 -0.0142
  370MOL0     H51055   0.613   8.521   0.284  2.0653  0.9388  1.2055
  370MOL0     H51056   0.997   8.705   0.210  0.0808  0.1645  0.3153
  370MOL0     H51057   0.521   8.443   0.567 -0.6623 -1.2770  1.9903
  370MOL0     H51058   0.555   8.532   0.916 -3.0754 -0.6828  2.5326
  370MOL0     H51059   0.447   8.393   0.873 -1.7004  2.3521  1.2030
  370MOL0     H51060   0.600   8.427   0.788  1.5578  3.2622  0.4315
  371MOL0     O51061  11.300   3.928   1.564  0.5924 -0.8590 -0.5017
  371MOL0     C51062  11.416   3.893   1.573 -0.0021 -0.7089 -0.5451
  371MOL0     O51063  11.455   3.779   1.648 -0.7848 -0.0507  0.2533
  371MOL0     C51064  11.380   3.672   1.662 -0.0091  0.4224  0.9016
  371MOL0     C51065  11.401   3.593   1.771  0.4293  0.4783  0.6680
  371MOL0     C51066  11.329   3.475   1.798 -0.7653  0.4470 -0.6867
  371MOL0     C51067  11.238   3.432   1.702  0.6021  0.0613  0.1546
  371MOL0     O51068  11.178   3.309   1.718  0.2999 -0.3423  0.1689
  371MOL0     C51069  11.152   3.244   1.592 -0.2226 -0.3470 -0.0511
  371MOL0     C51070  11.104   3.096   1.605 -0.7314 -0.3470 -0.0881
  371MOL0     C51071  11.020   3.072   1.726 -0.0036 -0.0702  0.1227
  371MOL0     C51072  10.949   2.939   1.731  0.3526 -0.5561 -0.5765
  371MOL0     C51073  10.901   2.905   1.871 -1.3412 -0.1676 -0.4512
  371MOL0     C51074  10.814   2.779   1.863  0.5650 -1.3524 -0.4011
  371MOL0     C51075  10.716   2.755   1.980 -0.2493  0.1932  0.0998
  371MOL0     C51076  10.642   2.628   1.951 -0.4562 -0.1743  0.5367
  371MOL0     N51077  10.527   2.598   2.032 -0.0504 -0.1847 -0.9690
  371MOL0     C51078  10.407   2.665   2.000  0.6395  0.1430 -0.3704
  371MOL0     C51079  10.324   2.634   2.104  0.1571 -0.4511  0.6783
  371MOL0     C51080  10.201   2.714   2.118 -0.0902  0.0283  0.6230
  371MOL0     C51081  10.119   2.651   2.232 -0.1530  0.3071 -0.0248
  371MOL0     C51082  10.157   2.703   2.376  0.0061 -0.2973  0.5623
  371MOL0     C51083  10.096   2.832   2.428  0.2926 -0.4821  0.2550
  371MOL0     O51084   9.965   2.798   2.468  0.3471  0.1081  0.0546
  371MOL0     C51085   9.891   2.894   2.526  0.8981  0.1062 -0.4948
  371MOL0     C51086   9.900   3.030   2.505  1.0386  0.4281  0.1256
  371MOL0     C51087   9.818   3.119   2.569  0.1625  0.7842 -0.4757
  371MOL0     C51088   9.832   3.264   2.529 -1.2854  0.7363  0.9200
  371MOL0     C51089   9.723   3.073   2.666 -0.4533  0.4410  0.2777
  371MOL0     C51090   9.626   3.165   2.737 -0.5602 -1.2020 -0.5714
  371MOL0     O51091   9.545   3.106   2.836 -0.1261  0.3163 -0.0432
  371MOL0     C51092   9.429   3.159   2.883 -0.7728 -0.2118  0.1571
  371MOL0     C51093   9.353   3.064   2.955  0.9761 -0.1846 -0.1068
  371MOL0     C51094   9.229   3.100   3.007  0.0150  0.8392  0.0298
  371MOL0     C51095   9.179   3.235   2.998 -0.0055 -0.0792  0.2251
  371MOL0     O51096   9.064   3.297   3.042 -0.1813 -0.1342 -0.6203
  371MOL0     C51097   8.985   3.222   3.124  0.1660  0.3537 -0.1321
  371MOL0     C51098   8.868   3.318   3.154 -0.6668  0.8409  0.2773
  371MOL0     C51099   8.774   3.259   3.257 -0.4029  1.0302 -0.4849
  371MOL0     C51100   8.664   3.356   3.297 -0.0433  0.2257 -0.2037
  371MOL0     C51101   8.550   3.282   3.364 -0.8892 -1.2891 -0.1805
  371MOL0     C51102   8.427   3.372   3.353  0.8049  0.0836  0.0185
  371MOL0     C51103   8.297   3.335   3.428  0.2129 -0.6576  0.0529
  371MOL0     C51104   8.196   3.454   3.444 -0.4395  0.4251 -0.4642
  371MOL0    Cl51105   8.046   3.378   3.516 -0.3347  0.1383  0.6242
  371MOL0     C51106   9.261   3.330   2.943  0.5171  0.0421  0.6801
  371MOL0     C51107   9.376   3.298   2.873  0.1646 -1.2503  0.6258
  371MOL0     O51108   9.625   3.284   2.704 -0.0653 -0.3418 -0.8140
  371MOL0     C51109   9.718   2.937   2.686 -0.0256 -0.5788  0.0325
  371MOL0     C51110   9.797   2.850   2.620 -0.4945  1.2893 -0.0595
  371MOL0     N51111  10.391   2.549   2.191 -0.9029  0.2962 -0.1090
  371MOL0     N51112  10.513   2.532   2.157 -0.6991 -0.5879 -0.3045
  371MOL0     C51113  11.210   3.522   1.597 -0.7806 -1.1824  0.4880
  371MOL0     C51114  11.274   3.646   1.585  1.5695 -0.4970 -0.1879
  371MOL0     C51115  11.522   3.963   1.498 -0.3747  0.7269  0.3209
  371MOL0     C51116  11.640   3.890   1.474 -0.1725  0.2450 -0.8507
  371MOL0     C51117  11.743   3.948   1.410 -1.3500  0.7712 -0.5447
  371MOL0     C51118  11.735   4.079   1.359  0.5631  0.4818  0.1263
  371MOL0     O51119  11.845   4.148   1.315 -0.1904  0.1688  0.4304
  371MOL0     C51120  11.966   4.077   1.316 -1.0830  0.5520 -0.3530
  371MOL0     C51121  12.064   4.174   1.261 -1.1580 -0.3311 -0.4085
  371MOL0     C51122  12.212   4.121   1.239  1.0742  0.7821 -0.7533
  371MOL0     C51123  12.271   4.057   1.366  0.4939  0.5101  0.1152
  371MOL0     C51124  12.418   4.024   1.338 -0.6163 -0.6250 -1.0937
  371MOL0     C51125  12.535   3.986   1.320  0.3317 -0.0727  0.7725
  371MOL0     C51126  11.618   4.150   1.383  0.7444  0.7100 -0.3196
  371MOL0     C51127  11.502   4.097   1.443 -0.0433  0.7943 -0.4912
  371MOL0     C51128  11.384   4.196   1.456 -0.7086  0.3986 -0.1053
  371MOL0     H51129  11.481   3.632   1.834 -0.3655 -1.2560  2.9213
  371MOL0     H51130  11.358   3.420   1.887 -0.3138 -0.1690 -1.2018
  371MOL0     H51131  11.243   3.233   1.533 -0.0396 -0.3630  0.2360
  371MOL0     H51132  11.076   3.287   1.526  2.3846 -0.4099 -3.3791
  371MOL0     H51133  11.047   3.076   1.514 -2.6034 -3.0046  1.5549
  371MOL0     H51134  11.187   3.025   1.606 -1.7774 -1.5905  0.9182
  371MOL0     H51135  11.092   3.075   1.808 -0.3265 -0.0671  0.4072
  371MOL0     H51136  10.943   3.148   1.741 -2.6262 -2.4221 -0.4167
  371MOL0     H51137  10.855   2.951   1.676  0.4514 -1.3260 -0.9306
  371MOL0     H51138  11.011   2.861   1.684  3.0347  1.4889 -0.6348
  371MOL0     H51139  10.855   2.988   1.924 -0.0022 -0.1186  0.6950
  371MOL0     H51140  10.987   2.879   1.934 -0.1056 -1.2646 -2.4850
  371MOL0     H51141  10.762   2.801   1.769  1.2033  3.6003  0.1210
  371MOL0     H51142  10.886   2.697   1.851 -0.1705 -1.8927 -1.1958
  371MOL0     H51143  10.647   2.839   1.988 -2.4654 -1.5690  0.3178
  371MOL0     H51144  10.769   2.752   2.075 -0.7374 -2.2621  0.3459
  371MOL0     H51145  10.620   2.617   1.844  0.8182 -0.4147  0.2801
  371MOL0     H51146  10.709   2.542   1.960 -5.0488 -4.0560  1.4731
  371MOL0     H51147  10.398   2.726   1.910  0.2469 -1.3045 -1.3403
  371MOL0     H51148  10.141   2.714   2.027  0.5369  2.0191  0.1702
  371MOL0     H51149  10.230   2.818   2.134  1.3422 -0.0737 -0.9895
  371MOL0     H51150  10.017   2.682   2.208  0.7137  1.6276 -2.3074
  371MOL0     H51151  10.118   2.542   2.241 -4.6055  0.2598  1.5206
  371MOL0     H51152  10.134   2.621   2.446  0.6314 -0.2598  0.8157
  371MOL0     H51153  10.266   2.706   2.378  0.0128 -0.6107  2.2148
  371MOL0     H51154  10.166   2.870   2.503  1.5729  1.9922 -2.0041
  371MOL0     H51155  10.097   2.908   2.349 -0.2012 -1.1738 -0.4295
  371MOL0     H51156   9.969   3.082   2.439 -2.0819 -2.0428 -5.7511
  371MOL0     H51157   9.925   3.278   2.473 -0.5656 -1.9240  1.3243
  371MOL0     H51158   9.830   3.330   2.616 -2.6902  1.9472  0.0135
  371MOL0     H51159   9.743   3.291   2.472 -1.7487 -1.8258  0.3001
  371MOL0     H51160   9.380   2.959   2.965 -4.7827 -1.9390  0.7926
  371MOL0     H51161   9.164   3.023   3.049  1.8251  0.4954  2.4282
  371MOL0     H51162   8.946   3.127   3.087 -1.8876  0.6577  1.0968
  371MOL0     H51163   9.037   3.189   3.214  1.5640  1.7893 -0.3629
  371MOL0     H51164   8.908   3.411   3.196  0.4398  1.1431 -1.3445
  371MOL0     H51165   8.809   3.350   3.067 -0.9327 -0.3652 -0.0038
  371MOL0     H51166   8.840   3.224   3.337 -0.9865 -0.4669 -0.6309
  371MOL0     H51167   8.727   3.171   3.212  2.7527 -0.4882 -1.1345
  371MOL0     H51168   8.622   3.381   3.199 -4.1865 -1.8046  0.8197
  371MOL0     H51169   8.691   3.441   3.360  2.2685 -2.2092  2.4166
  371MOL0     H51170   8.520   3.187   3.317 -0.2471 -1.3029 -0.5691
  371MOL0     H51171   8.577   3.266   3.469  2.0636 -3.4289 -1.1265
  371MOL0     H51172   8.401   3.383   3.247 -2.3707  1.4813  0.8282
  371MOL0     H51173   8.451   3.468   3.400 -0.2549 -1.3609  3.9212
  371MOL0     H51174   8.314   3.296   3.529 -1.3381  0.3181  0.7499
  371MOL0     H51175   8.248   3.255   3.372 -0.4720  1.6080 -2.8624
  371MOL0     H51176   8.181   3.508   3.351 -2.4302  0.8866  0.0867
  371MOL0     H51177   8.229   3.528   3.518 -2.6721  0.1690  0.8727
  371MOL0     H51178   9.230   3.433   2.934 -0.6582 -0.4324 -1.4051
  371MOL0     H51179   9.427   3.376   2.818 -1.9632  0.4764  0.9262
  371MOL0     H51180   9.655   2.889   2.760  1.2844 -2.4205  0.0027
  371MOL0     H51181   9.787   2.742   2.630  0.0869  0.7814 -3.6001
  371MOL0     H51182  11.135   3.501   1.521 -1.8451  0.5405  1.0067
  371MOL0     H51183  11.248   3.714   1.505 -0.4674 -0.3187  0.5725
  371MOL0     H51184  11.654   3.793   1.520  3.2838  0.5028 -1.0981
  371MOL0     H51185  11.836   3.893   1.393 -0.9340  0.5443  2.0629
  371MOL0     H51186  11.992   4.068   1.422 -1.5957  2.2129 -0.0479
  371MOL0     H51187  11.962   3.990   1.251  1.4307  0.2779 -0.2331
  371MOL0     H51188  12.076   4.256   1.332  2.3383 -0.6473 -0.4403
  371MOL0     H51189  12.033   4.220   1.167  2.3821  1.1935 -0.9819
  371MOL0     H51190  12.218   4.049   1.157  2.6320  0.1066 -0.0888
  371MOL0     H51191  12.281   4.201   1.212  1.6274  0.9446  0.9851
  371MOL0     H51192  12.220   3.971   1.411 -0.3799  0.7125 -0.4516
  371MOL0     H51193  12.265   4.126   1.451 -0.6137  1.0630 -0.3955
  371MOL0     H51194  12.640   3.981   1.302  0.9901  0.9655  3.8200
  371MOL0     H51195  11.618   4.256   1.361  2.8379  1.1153  1.3552
  371MOL0     H51196  11.302   4.171   1.389  0.1314 -1.0345 -0.6351
  371MOL0     H51197  11.335   4.181   1.553 -2.6711 -0.8495 -1.2290
  371MOL0     H51198  11.410   4.301   1.444  0.5567  0.0740 -0.3439
  372MOL0     O51199   4.990   4.216   2.707 -0.0361  0.0282 -0.1521
  372MOL0     C51200   5.073   4.175   2.791 -0.0723  1.2108  0.3975
  372MOL0     O51201   5.147   4.059   2.769 -0.3082  0.2503 -0.2528
  372MOL0     C51202   5.129   3.965   2.668 -0.4466  0.7837 -0.5849
  372MOL0     C51203   5.217   3.850   2.681  0.8960  0.1435  0.1236
  372MOL0     C51204   5.207   3.740   2.595  0.1398 -0.5570  0.2346
  372MOL0     C51205   5.129   3.752   2.483  0.2621 -0.2410  0.7065
  372MOL0     O51206   5.136   3.665   2.370 -0.9737 -0.6583 -0.6370
  372MOL0     C51207   5.131   3.524   2.399  0.2514 -0.5941  0.0933
  372MOL0     C51208   5.274   3.464   2.422 -0.9255 -0.9799 -0.0078
  372MOL0     C51209   5.330   3.373   2.306  0.2239  0.6110  1.2387
  372MOL0     C51210   5.371   3.434   2.169  0.3225 -0.4263 -0.8039
  372MOL0     C51211   5.437   3.324   2.086  0.0044  0.4124  0.8100
  372MOL0     C51212   5.445   3.371   1.940 -0.0716 -0.4865  0.0244
  372MOL0     C51213   5.514   3.279   1.843 -0.3973 -0.3300 -0.1865
  372MOL0     C51214   5.538   3.346   1.705 -0.2551 -0.0528  0.1552
  372MOL0     N51215   5.637   3.280   1.612  0.7140  0.6380 -0.8106
  372MOL0     C51216   5.755   3.225   1.650  0.1717  0.4214  0.2515
  372MOL0     C51217   5.784   3.162   1.531  0.4850 -0.3170  0.3820
  372MOL0     C51218   5.902   3.074   1.500  0.2048  0.1571  0.5493
  372MOL0     C51219   6.029   3.154   1.477 -0.0139  0.2029  0.1397
  372MOL0     C51220   6.159   3.067   1.457  0.7947  0.4056 -0.0877
  372MOL0     C51221   6.196   2.970   1.571  0.2924 -0.2218  0.4485
  372MOL0     O51222   6.331   2.936   1.575 -0.3024 -0.6079  0.2763
  372MOL0     C51223   6.364   2.806   1.554 -0.4696  0.8963 -0.1300
  372MOL0     C51224   6.300   2.684   1.603 -0.3462  0.4475  0.5290
  372MOL0     C51225   6.355   2.559   1.573  0.3981 -0.5762  0.1433
  372MOL0     C51226   6.271   2.445   1.623 -0.1327  0.9751  0.5290
  372MOL0     C51227   6.466   2.550   1.494 -0.5052 -0.2710 -0.4191
  372MOL0     C51228   6.518   2.416   1.443  0.0338  0.4790  0.2333
  372MOL0     O51229   6.500   2.304   1.523 -0.7501 -0.9782  0.5250
  372MOL0     C51230   6.543   2.172   1.482 -0.0778  0.5009 -0.4918
  372MOL0     C51231   6.580   2.072   1.581 -0.1237  0.2978  0.5113
  372MOL0     C51232   6.615   1.942   1.543 -1.1836 -0.3365 -0.9644
  372MOL0     C51233   6.608   1.899   1.404 -0.1671 -0.4284 -0.0818
  372MOL0     O51234   6.663   1.789   1.357 -0.3332 -1.1796  0.5548
  372MOL0     C51235   6.654   1.668   1.438  0.2410 -0.3960  0.5945
  372MOL0     C51236   6.521   1.599   1.418  0.5557  1.1316 -0.6628
  372MOL0     C51237   6.411   1.676   1.489 -0.2798  0.7033  1.2555
  372MOL0     C51238   6.294   1.576   1.496 -0.0265 -1.0274  0.2288
  372MOL0     C51239   6.171   1.628   1.572  0.7419 -0.5140  0.5985
  372MOL0     C51240   6.068   1.510   1.579  0.0037  0.3295  0.1073
  372MOL0     C51241   5.953   1.558   1.662 -0.0963 -0.1298  0.3459
  372MOL0     C51242   5.843   1.449   1.658  0.8527 -0.5288 -0.3164
  372MOL0    Cl51243   5.869   1.283   1.734  0.6684 -0.0890  0.2507
  372MOL0     C51244   6.564   2.004   1.314 -0.8346  0.3390 -0.2781
  372MOL0     C51245   6.536   2.132   1.348  0.5762  0.4823  0.6394
  372MOL0     O51246   6.573   2.416   1.339 -0.2225 -0.0737  0.1507
  372MOL0     C51247   6.542   2.668   1.451  0.7455  0.5161 -0.0185
  372MOL0     C51248   6.482   2.794   1.479 -0.6423 -0.2949  0.2277
  372MOL0     N51249   5.705   3.185   1.426 -0.6053  0.5222  0.1463
  372MOL0     N51250   5.613   3.248   1.487  0.2858 -0.8725 -0.2816
  372MOL0     C51251   5.053   3.864   2.461 -0.7960 -0.8005  0.4192
  372MOL0     C51252   5.048   3.966   2.560  0.2143 -1.0355  0.3849
  372MOL0     C51253   5.090   4.254   2.915 -0.9322  0.3500 -0.0006
  372MOL0     C51254   4.986   4.336   2.960 -0.9039 -1.2856  1.6168
  372MOL0     C51255   5.007   4.426   3.073 -0.2183  0.1543  0.0473
  372MOL0     C51256   5.133   4.445   3.137 -0.0822 -0.2669 -0.2243
  372MOL0     O51257   5.153   4.542   3.235  0.6162 -0.0762  0.6499
  372MOL0     C51258   5.292   4.577   3.273 -0.5032 -0.6123  0.8142
  372MOL0     C51259   5.288   4.673   3.392  0.2768 -0.0136  0.1295
  372MOL0     C51260   5.423   4.734   3.432  0.7158 -0.1826  0.6814
  372MOL0     C51261   5.398   4.849   3.535  0.5137 -0.4971 -0.0727
  372MOL0     C51262   5.367   4.791   3.670  0.4042  0.1547 -0.1724
  372MOL0     C51263   5.342   4.746   3.778 -0.2219  0.4221 -0.6375
  372MOL0     C51264   5.237   4.356   3.091  0.1534  0.4690 -0.4503
  372MOL0     C51265   5.215   4.266   2.988 -0.4063  1.5625  0.1959
  372MOL0     C51266   5.336   4.172   2.951  0.4628  0.7909 -0.9444
  372MOL0     H51267   5.297   3.850   2.754  2.2238 -3.3619 -1.0752
  372MOL0     H51268   5.269   3.652   2.613  2.7948  1.4515  1.6372
  372MOL0     H51269   5.075   3.473   2.320  0.6789  0.1985 -0.7357
  372MOL0     H51270   5.068   3.514   2.488  2.3385 -2.0341  1.4829
  372MOL0     H51271   5.344   3.543   2.453 -0.1934 -2.4181  2.3126
  372MOL0     H51272   5.269   3.397   2.509  0.0460 -0.9005  0.1203
  372MOL0     H51273   5.414   3.317   2.349  0.9679 -0.0014 -0.8532
  372MOL0     H51274   5.249   3.304   2.280 -1.0811  2.7615 -0.7200
  372MOL0     H51275   5.282   3.475   2.121 -0.2103  0.8159  1.1302
  372MOL0     H51276   5.447   3.512   2.180  1.0880 -1.2854  0.1391
  372MOL0     H51277   5.373   3.236   2.098  3.1888 -2.2131  0.2227
  372MOL0     H51278   5.536   3.305   2.128  0.3432  1.2637  0.4244
  372MOL0     H51279   5.347   3.398   1.899 -0.4028 -0.0303  1.0697
  372MOL0     H51280   5.489   3.471   1.946 -0.2724 -0.4174  0.4314
  372MOL0     H51281   5.447   3.193   1.833 -1.1275 -0.0970  2.0174
  372MOL0     H51282   5.611   3.244   1.881 -0.2468 -0.1289 -0.3870
  372MOL0     H51283   5.441   3.364   1.659 -1.3992 -2.1524  1.5686
  372MOL0     H51284   5.592   3.439   1.727  0.0342  0.1047 -1.1309
  372MOL0     H51285   5.793   3.230   1.751 -2.2656  0.0458  1.2441
  372MOL0     H51286   5.884   3.021   1.407 -1.2972  1.8648 -0.1968
  372MOL0     H51287   5.918   3.003   1.582 -2.4658  0.0943  1.1369
  372MOL0     H51288   6.021   3.219   1.389 -0.7042  1.4595  1.1014
  372MOL0     H51289   6.042   3.224   1.560  0.2558  2.7278 -1.8956
  372MOL0     H51290   6.156   3.009   1.364  2.0224 -5.0316  2.8801
  372MOL0     H51291   6.237   3.144   1.450  0.0649  1.4220  2.0950
  372MOL0     H51292   6.165   3.020   1.663  0.9632 -0.7592  0.9802
  372MOL0     H51293   6.134   2.882   1.554 -2.0608  1.6179 -1.1435
  372MOL0     H51294   6.220   2.683   1.677 -0.9030 -3.0745  0.0723
  372MOL0     H51295   6.334   2.365   1.662 -0.4383  0.1185 -0.6618
  372MOL0     H51296   6.215   2.408   1.537 -1.4827  0.0744  1.7610
  372MOL0     H51297   6.209   2.468   1.710  0.2126 -2.1793  1.7140
  372MOL0     H51298   6.591   2.110   1.682  1.4864  2.0962 -0.2894
  372MOL0     H51299   6.637   1.879   1.628 -2.0077 -0.3684 -0.7659
  372MOL0     H51300   6.724   1.595   1.398 -0.9874 -1.4842  0.3499
  372MOL0     H51301   6.679   1.686   1.543 -1.6386 -2.0568  1.4012
  372MOL0     H51302   6.501   1.591   1.311  0.0713 -1.6662 -0.4361
  372MOL0     H51303   6.530   1.499   1.461  0.3816  1.7618  0.8841
  372MOL0     H51304   6.387   1.756   1.419  0.0747 -0.5210 -0.3213
  372MOL0     H51305   6.435   1.708   1.590  1.7164  1.4369  0.5857
  372MOL0     H51306   6.333   1.493   1.556  6.1843  2.1337  1.3927
  372MOL0     H51307   6.259   1.549   1.396  1.1500 -0.5958 -0.3141
  372MOL0     H51308   6.201   1.664   1.671  0.6094  0.2805  0.3616
  372MOL0     H51309   6.134   1.722   1.529  2.2946 -0.5960 -1.0163
  372MOL0     H51310   6.119   1.425   1.625  1.3110  2.3343  2.5602
  372MOL0     H51311   6.021   1.474   1.487 -0.6464 -1.4633  1.0909
  372MOL0     H51312   5.915   1.649   1.615  1.0938  0.5154  0.6020
  372MOL0     H51313   5.985   1.579   1.764 -0.8085  1.7135  0.2218
  372MOL0     H51314   5.804   1.438   1.557  0.1994 -0.8228 -0.0362
  372MOL0     H51315   5.758   1.491   1.714  1.4824 -2.0632  1.9463
  372MOL0     H51316   6.570   1.984   1.207 -1.4299  2.9582 -0.8804
  372MOL0     H51317   6.509   2.197   1.266  0.6933  0.8132  0.8598
  372MOL0     H51318   6.627   2.672   1.384  0.9368 -0.2112  0.1682
  372MOL0     H51319   6.518   2.884   1.431 -0.4841  0.5053  1.7912
  372MOL0     H51320   4.996   3.862   2.369 -1.4485 -0.5583  0.8079
  372MOL0     H51321   4.980   4.048   2.537 -0.7084 -0.7239  3.7205
  372MOL0     H51322   4.889   4.334   2.912 -1.0245  0.4060  1.7248
  372MOL0     H51323   4.932   4.486   3.123  1.5492  0.9440  1.8645
  372MOL0     H51324   5.346   4.491   3.313 -1.0218 -2.1014 -1.5180
  372MOL0     H51325   5.334   4.646   3.199 -3.9697  0.2099 -0.5948
  372MOL0     H51326   5.257   4.618   3.481  0.2749  0.5129  0.4525
  372MOL0     H51327   5.220   4.754   3.363 -1.5092 -1.0405  1.2078
  372MOL0     H51328   5.492   4.669   3.487 -1.4337 -4.8597 -1.5459
  372MOL0     H51329   5.467   4.778   3.341 -1.3166  0.9392  0.1849
  372MOL0     H51330   5.309   4.904   3.502 -0.5696 -2.8502 -1.3700
  372MOL0     H51331   5.482   4.918   3.542 -0.1170  0.5110 -1.8860
  372MOL0     H51332   5.316   4.692   3.866  2.1730  0.7562  0.3500
  372MOL0     H51333   5.338   4.367   3.131 -0.4749  1.1781  1.0252
  372MOL0     H51334   5.318   4.067   2.977 -1.2931  1.0480 -1.0182
  372MOL0     H51335   5.350   4.182   2.843  1.3136 -1.0362 -1.0468
  372MOL0     H51336   5.427   4.208   2.999  0.3159 -1.0376  0.8324
  373MOL0     O51337   6.913   7.654   9.701  0.4944  0.0783  0.0722
  373MOL0     C51338   6.870   7.575   9.780  0.0639 -0.3930 -0.3552
  373MOL0     O51339   6.749   7.588   9.846  0.4294 -0.6063  0.0333
  373MOL0     C51340   6.689   7.711   9.844  0.0725 -0.2664 -0.4728
  373MOL0     C51341   6.649   7.768   9.955  0.4729  0.3642 -0.1235
  373MOL0     C51342   6.591   7.897   9.982  0.4020  0.3747  0.2275
  373MOL0     C51343   6.575   7.977   9.855 -0.2995  0.4344 -0.0874
  373MOL0     O51344   6.510   8.100   9.842  0.2370 -0.0281  0.3655
  373MOL0     C51345   6.388   8.119   9.908  0.8622  0.2287 -0.3193
  373MOL0     C51346   6.332   8.255   9.854 -1.1970 -0.0484 -0.5767
  373MOL0     C51347   6.197   8.295   9.917 -0.3100  0.4275  0.3100
  373MOL0     C51348   6.134   8.426   9.868  0.3003  0.8006 -0.2783
  373MOL0     C51349   5.980   8.416   9.861 -0.1930 -0.4505 -0.8809
  373MOL0     C51350   5.910   8.519   9.765 -0.9627  0.5380 -0.5041
  373MOL0     C51351   5.764   8.548   9.808 -0.1467 -0.1004 -0.4097
  373MOL0     C51352   5.666   8.588   9.699 -0.7269 -0.2144  0.3797
  373MOL0     N51353   5.538   8.628   9.753  0.5406 -1.0546 -0.0238
  373MOL0     C51354   5.484   8.749   9.738  0.3518  0.0668 -0.0446
  373MOL0     C51355   5.365   8.750   9.806  0.2840  0.3087 -1.0572
  373MOL0     C51356   5.254   8.856   9.815  0.4480  0.2908 -0.3058
  373MOL0     C51357   5.127   8.804   9.889 -0.8126  0.4048  0.5385
  373MOL0     C51358   5.012   8.905   9.867 -0.0263 -0.1067  0.2276
  373MOL0     C51359   5.028   9.038   9.942 -0.4379  0.4771  0.7703
  373MOL0     O51360   5.050   9.016  10.085 -0.5494  0.2722  0.3335
  373MOL0     C51361   5.032   9.136  10.147 -0.7052 -0.6905 -0.2276
  373MOL0     C51362   5.129   9.238  10.143  0.3189 -0.2968  1.8827
  373MOL0     C51363   5.113   9.365  10.198 -0.0626  0.1091  0.5637
  373MOL0     C51364   5.227   9.467  10.181  0.7582 -0.1604  0.9014
  373MOL0     C51365   4.995   9.387  10.276 -0.4692 -0.7425 -0.6162
  373MOL0     C51366   4.961   9.519  10.342 -0.2918  0.2179 -0.2631
  373MOL0     O51367   4.872   9.499  10.448  0.3574 -0.2260 -0.0260
  373MOL0     C51368   4.843   9.597  10.527 -0.6031 -0.9295 -0.1992
  373MOL0     C51369   4.877   9.587  10.663 -0.4137  0.2559 -0.0623
  373MOL0     C51370   4.826   9.672  10.762  0.3823  0.2465  0.9593
  373MOL0     C51371   4.727   9.771  10.727 -0.7569  0.0340 -0.2311
  373MOL0     O51372   4.678   9.842  10.831 -0.4020 -0.3841  0.1311
  373MOL0     C51373   4.612   9.972  10.800 -0.1391  0.5821 -0.5377
  373MOL0     C51374   4.462   9.961  10.773  0.8391  0.6273  0.4191
  373MOL0     C51375   4.374   9.911  10.890  0.5629 -0.8516 -0.1813
  373MOL0     C51376   4.223   9.900  10.859 -0.4154 -0.0535 -0.6679
  373MOL0     C51377   4.175   9.769  10.920  0.4695  0.6600  0.2529
  373MOL0     C51378   4.041   9.719  10.864  0.6477 -0.5690  0.0793
  373MOL0     C51379   3.987   9.595  10.922  0.3976 -0.4190  0.4166
  373MOL0     C51380   3.833   9.584  10.906  0.1894  0.2541 -0.5912
  373MOL0    Cl51381   3.789   9.593  10.735  0.2101  0.3087  0.0367
  373MOL0     C51382   4.697   9.780  10.590 -0.2183 -0.6238 -0.4391
  373MOL0     C51383   4.755   9.704  10.490 -0.0607 -0.3925  0.1899
  373MOL0     O51384   5.012   9.627  10.311 -0.0795  0.3442  0.3498
  373MOL0     C51385   4.907   9.276  10.300  0.8595 -0.3834 -0.4036
  373MOL0     C51386   4.925   9.157  10.234 -0.5380  0.7016  0.6281
  373MOL0     N51387   5.358   8.618   9.860  0.3347  0.1686 -0.3627
  373MOL0     N51388   5.452   8.543   9.810 -0.0117  0.0923  0.2106
  373MOL0     C51389   6.605   7.916   9.738 -1.0079 -0.2883  0.4582
  373MOL0     C51390   6.658   7.785   9.728  0.0011 -0.0646 -0.4486
  373MOL0     C51391   6.934   7.444   9.790 -0.0922  0.3352 -0.1611
  373MOL0     C51392   7.072   7.433   9.815  0.4236  0.4626  0.4264
  373MOL0     C51393   7.136   7.315   9.836  0.5994  0.2995 -0.2185
  373MOL0     C51394   7.062   7.197   9.832  0.3004 -0.1920  0.5148
  373MOL0     O51395   7.150   7.092   9.851 -0.3829  0.2804  0.2404
  373MOL0     C51396   7.139   6.994   9.756  0.4755  0.0238  0.5871
  373MOL0     C51397   7.274   6.924   9.726  0.2111  0.5848 -0.6475
  373MOL0     C51398   7.265   6.786   9.653  0.0731  0.6710 -0.0657
  373MOL0     C51399   7.407   6.724   9.626  0.2224 -0.4566 -0.7652
  373MOL0     C51400   7.416   6.592   9.680 -0.5635  0.1947  0.5766
  373MOL0     C51401   7.418   6.482   9.717 -0.0359 -0.1696  0.3578
  373MOL0     C51402   6.927   7.201   9.803  0.6166  0.7662 -0.0823
  373MOL0     C51403   6.865   7.325   9.779 -0.0587 -0.0927 -0.0449
  373MOL0     C51404   6.711   7.322   9.744 -0.5461  0.3391  0.2989
  373MOL0     H51405   6.673   7.722  10.050  1.2669  0.1892 -0.4007
  373MOL0     H51406   6.566   7.944  10.076 -2.7395  3.8098 -2.0486
  373MOL0     H51407   6.386   8.121  10.017 -3.6986 -2.6970 -0.0828
  373MOL0     H51408   6.315   8.041   9.886 -2.3501  1.5160  4.3125
  373MOL0     H51409   6.409   8.327   9.883  0.3891 -1.7970 -0.2652
  373MOL0     H51410   6.320   8.250   9.746 -2.5239 -3.0218 -0.3849
  373MOL0     H51411   6.129   8.212   9.898 -1.5269  1.3014  0.7549
  373MOL0     H51412   6.209   8.298  10.026 -0.3570  0.1005  0.3237
  373MOL0     H51413   6.172   8.512   9.925 -0.8011  2.3727 -1.8176
  373MOL0     H51414   6.164   8.435   9.764 -2.6338  2.7004 -1.0998
  373MOL0     H51415   5.945   8.430   9.964  2.6870 -2.0226  0.4417
  373MOL0     H51416   5.960   8.313   9.831  3.3021 -0.7579 -2.6666
  373MOL0     H51417   5.968   8.612   9.763 -0.7602  0.6170  2.9282
  373MOL0     H51418   5.914   8.480   9.663  1.5144 -0.4730 -0.0794
  373MOL0     H51419   5.755   8.624   9.886 -0.5590 -0.3692 -0.1841
  373MOL0     H51420   5.728   8.455   9.854  0.1812  0.8586  1.9253
  373MOL0     H51421   5.705   8.674   9.644 -1.5505  0.1929  0.4236
  373MOL0     H51422   5.664   8.502   9.632 -3.7666 -0.2099  0.3060
  373MOL0     H51423   5.521   8.835   9.684 -0.4142 -0.1035 -0.8498
  373MOL0     H51424   5.241   8.875   9.708  0.2455 -4.6258 -1.4001
  373MOL0     H51425   5.300   8.939   9.869 -2.0741 -0.5667  3.5561
  373MOL0     H51426   5.099   8.702   9.861 -1.2689 -0.0287  2.4316
  373MOL0     H51427   5.141   8.794   9.997  0.0049  4.9904  1.0670
  373MOL0     H51428   4.993   8.922   9.760 -1.9563 -0.6591  0.4390
  373MOL0     H51429   4.929   8.849   9.912 -0.9731  1.9740  1.1891
  373MOL0     H51430   5.112   9.093   9.899 -1.1790 -0.1386 -1.6272
  373MOL0     H51431   4.939   9.100   9.933 -0.9742 -0.1531  1.5616
  373MOL0     H51432   5.223   9.216  10.092 -1.2151  1.1070 -1.9213
  373MOL0     H51433   5.318   9.418  10.146  0.3761  0.2716 -0.7910
  373MOL0     H51434   5.263   9.509  10.275  2.7027 -3.1621  1.6364
  373MOL0     H51435   5.200   9.539  10.104 -2.2652 -2.5745 -0.5373
  373MOL0     H51436   4.940   9.513  10.711  1.1725  2.3594  1.2617
  373MOL0     H51437   4.855   9.653  10.865  1.6030  3.5623  1.3664
  373MOL0     H51438   4.632  10.041  10.882  0.6088 -1.4068  1.0630
  373MOL0     H51439   4.657  10.013  10.710 -2.4052  1.4467 -1.3654
  373MOL0     H51440   4.426  10.057  10.736  1.9448  0.3040 -1.6533
  373MOL0     H51441   4.448   9.896  10.685 -2.7881  1.0970  0.5030
  373MOL0     H51442   4.384   9.978  10.977  0.0015 -0.8235 -0.1314
  373MOL0     H51443   4.407   9.810  10.914 -2.5243 -2.4469 -2.0266
  373MOL0     H51444   4.202   9.895  10.752 -0.0249  2.4652 -0.9212
  373MOL0     H51445   4.165   9.985  10.896 -0.7779  0.9615 -3.3629
  373MOL0     H51446   4.243   9.691  10.884  2.3813  2.4561 -0.2666
  373MOL0     H51447   4.180   9.763  11.029 -1.5922 -0.2099  0.3351
  373MOL0     H51448   4.056   9.697  10.758 -0.0229  1.1007 -0.3991
  373MOL0     H51449   3.971   9.803  10.872  3.0509  1.3723  3.1474
  373MOL0     H51450   4.008   9.581  11.028 -0.8649  1.1181  0.9027
  373MOL0     H51451   4.038   9.508  10.878 -0.8446  0.1051 -2.3089
  373MOL0     H51452   3.791   9.667  10.964 -2.1755 -2.2598  1.6120
  373MOL0     H51453   3.783   9.502  10.959 -0.2787  1.3315  0.7170
  373MOL0     H51454   4.620   9.853  10.570 -0.2046 -0.2344  0.8257
  373MOL0     H51455   4.739   9.700  10.383 -1.1741  0.0335  0.3307
  373MOL0     H51456   4.814   9.281  10.355  1.0567 -0.9547 -0.0161
  373MOL0     H51457   4.853   9.078  10.256 -1.7430  0.8851 -2.1767
  373MOL0     H51458   6.599   7.980   9.650  2.4194  0.9257  0.9503
  373MOL0     H51459   6.668   7.743   9.629 -1.8118  0.4733 -0.9077
  373MOL0     H51460   7.140   7.517   9.807  1.9025 -0.7926 -1.3740
  373MOL0     H51461   7.241   7.308   9.862  0.6407  0.1017 -0.4373
  373MOL0     H51462   7.066   6.925   9.800 -0.5226  1.5339  1.3916
  373MOL0     H51463   7.091   7.039   9.668  1.0641  0.2562  0.3782
  373MOL0     H51464   7.309   6.920   9.829 -3.3490  0.3959  0.6846
  373MOL0     H51465   7.332   6.995   9.667 -0.2588  2.4161  0.9914
  373MOL0     H51466   7.206   6.721   9.717  3.0668 -1.4956  0.7581
  373MOL0     H51467   7.205   6.800   9.563 -2.8659  1.6974  1.9369
  373MOL0     H51468   7.489   6.777   9.677 -0.5644 -1.1250  1.2951
  373MOL0     H51469   7.423   6.737   9.519 -0.7748 -2.5602 -1.2225
  373MOL0     H51470   7.414   6.377   9.738  3.1313 -0.1009  1.8349
  373MOL0     H51471   6.868   7.110   9.809 -2.2369  2.2973 -2.4338
  373MOL0     H51472   6.662   7.369   9.829  0.7268  2.6747 -0.1829
  373MOL0     H51473   6.698   7.389   9.659 -0.5100  1.3213  1.0500
  373MOL0     H51474   6.675   7.219   9.731 -1.9205  0.9020 -0.5075
  374MOL0     O51475   5.060   1.351   3.075  0.0908  0.2268 -0.2618
  374MOL0     C51476   4.972   1.447   3.077  0.3297  0.3910 -0.0204
  374MOL0     O51477   4.937   1.521   2.970  0.6651  0.1516 -0.0258
  374MOL0     C51478   4.988   1.483   2.850  0.3518 -0.1637  0.1612
  374MOL0     C51479   4.943   1.374   2.770  0.6154  0.7352  0.4603
  374MOL0     C51480   4.978   1.383   2.631 -1.3524  0.3343  0.0703
  374MOL0     C51481   5.061   1.487   2.570 -0.3025 -0.2410 -0.5870
  374MOL0     O51482   5.087   1.486   2.435  0.5135  0.1771  0.5246
  374MOL0     C51483   4.989   1.456   2.331 -0.2179  0.0331  1.3787
  374MOL0     C51484   4.981   1.569   2.230  0.4351  0.9326 -0.0569
  374MOL0     C51485   5.087   1.570   2.131 -0.8453  0.1535  0.7356
  374MOL0     C51486   5.207   1.652   2.176 -0.1265 -0.2758  0.5686
  374MOL0     C51487   5.337   1.618   2.102  0.1930 -0.0959 -0.4916
  374MOL0     C51488   5.443   1.640   2.212 -0.8897 -0.5824 -0.6051
  374MOL0     C51489   5.580   1.661   2.140 -0.7138  0.2402 -0.1870
  374MOL0     C51490   5.695   1.651   2.238  0.3464 -0.3801 -0.4915
  374MOL0     N51491   5.814   1.611   2.173  0.2882  0.2244 -0.3952
  374MOL0     C51492   5.857   1.487   2.157 -0.3705  0.4007 -0.6980
  374MOL0     C51493   5.965   1.497   2.082  0.5056  0.4766 -0.1228
  374MOL0     C51494   6.057   1.391   2.020 -0.4149  0.6812 -0.5374
  374MOL0     C51495   6.213   1.425   2.038  0.0339 -0.1758 -0.0020
  374MOL0     C51496   6.307   1.317   1.990  0.5343 -0.4455  0.0728
  374MOL0     C51497   6.301   1.309   1.837  0.4909 -0.0875 -0.1795
  374MOL0     O51498   6.401   1.210   1.818 -0.3002 -0.2706  1.0117
  374MOL0     C51499   6.450   1.199   1.686  0.1260 -0.7795  0.0987
  374MOL0     C51500   6.359   1.198   1.579 -0.0419 -0.1450 -0.1881
  374MOL0     C51501   6.411   1.209   1.455  1.0491  0.6129  0.1868
  374MOL0     C51502   6.311   1.229   1.338 -0.0329 -0.6929 -0.0549
  374MOL0     C51503   6.541   1.220   1.432  0.6981  0.0281  0.3974
  374MOL0     C51504   6.607   1.256   1.301  0.5874  0.2711 -0.5185
  374MOL0     O51505   6.723   1.309   1.310 -0.1607  0.5765 -0.4592
  374MOL0     C51506   6.811   1.312   1.200 -0.3179 -1.4743  0.2855
  374MOL0     C51507   6.922   1.231   1.208  0.8143  1.1687 -0.1011
  374MOL0     C51508   7.024   1.244   1.113  0.3465 -0.5139 -0.0951
  374MOL0     C51509   7.003   1.309   0.993 -0.7822 -0.1157  0.6566
  374MOL0     O51510   7.096   1.291   0.900 -0.1236  0.2090 -0.4126
  374MOL0     C51511   7.047   1.273   0.768  0.3148  0.3138  0.0889
  374MOL0     C51512   7.155   1.201   0.675  0.2470  0.6950  0.1399
  374MOL0     C51513   7.275   1.278   0.645  0.4446 -0.1383  0.0657
  374MOL0     C51514   7.367   1.198   0.560  0.4087 -0.3727  0.3609
  374MOL0     C51515   7.496   1.269   0.529 -0.0263 -0.1250  0.3831
  374MOL0     C51516   7.610   1.181   0.496 -0.3772  0.1811  1.0442
  374MOL0     C51517   7.570   1.069   0.394  0.5779  0.3439 -0.3852
  374MOL0     C51518   7.504   1.113   0.269  0.3925  0.9607  0.5103
  374MOL0    Cl51519   7.629   1.142   0.156 -0.4719 -0.0016  0.2330
  374MOL0     C51520   6.889   1.389   0.985  0.0043  0.1325 -0.0158
  374MOL0     C51521   6.796   1.400   1.093 -0.3344  0.2898  0.3838
  374MOL0     O51522   6.550   1.231   1.192  1.2410  0.1916 -0.3973
  374MOL0     C51523   6.627   1.198   1.537  0.4663  1.2392 -0.5458
  374MOL0     C51524   6.583   1.191   1.668 -0.7635 -0.3959 -0.3640
  374MOL0     N51525   5.990   1.630   2.050 -0.0039  0.4221 -0.3262
  374MOL0     N51526   5.896   1.696   2.114 -0.2359  0.1323  0.0086
  374MOL0     C51527   5.115   1.575   2.662  0.2367 -0.3729  0.8740
  374MOL0     C51528   5.083   1.572   2.796  0.1839  0.8031 -0.5117
  374MOL0     C51529   4.902   1.476   3.206 -0.2773 -0.0989 -0.6713
  374MOL0     C51530   4.783   1.560   3.196  0.6215  0.0060 -0.0984
  374MOL0     C51531   4.692   1.571   3.304  0.3269  0.1598 -0.1157
  374MOL0     C51532   4.714   1.503   3.430  0.2594  0.9844  0.1457
  374MOL0     O51533   4.620   1.526   3.525 -0.1104 -0.7604 -0.5827
  374MOL0     C51534   4.592   1.415   3.616 -0.1362  0.6224 -0.4406
  374MOL0     C51535   4.547   1.287   3.534  0.3101  0.5726 -1.1712
  374MOL0     C51536   4.397   1.299   3.488  0.2844  0.1845  0.2807
  374MOL0     C51537   4.372   1.202   3.372  0.0126 -0.7558 -0.3675
  374MOL0     C51538   4.240   1.207   3.316 -0.1224  0.1854 -0.4116
  374MOL0     C51539   4.129   1.223   3.277 -0.3589 -0.1356  0.9416
  374MOL0     C51540   4.833   1.433   3.441 -0.7316 -0.8659 -0.6598
  374MOL0     C51541   4.930   1.421   3.335  0.6237 -0.5905 -0.3289
  374MOL0     C51542   5.058   1.348   3.367 -0.2205 -0.5262  1.1099
  374MOL0     H51543   4.877   1.295   2.804 -1.1812  0.2454 -3.6361
  374MOL0     H51544   4.959   1.299   2.566 -4.9670 -1.5667  3.1955
  374MOL0     H51545   4.892   1.441   2.380 -0.9233  1.8554  0.6330
  374MOL0     H51546   5.003   1.368   2.269  0.3137  0.7739  0.4284
  374MOL0     H51547   4.888   1.578   2.172  1.0392 -0.8289 -1.3451
  374MOL0     H51548   4.988   1.660   2.291  0.2393 -0.5822  2.3602
  374MOL0     H51549   5.124   1.470   2.108 -2.7421 -0.1780 -1.1933
  374MOL0     H51550   5.046   1.623   2.045 -3.2798  0.3709  1.9299
  374MOL0     H51551   5.195   1.757   2.150 -0.9299 -0.9704 -2.2478
  374MOL0     H51552   5.223   1.618   2.279  2.1961 -1.7886 -0.2074
  374MOL0     H51553   5.343   1.684   2.016  0.3503  2.5063  1.3874
  374MOL0     H51554   5.340   1.512   2.076 -0.6562 -0.1555 -0.3534
  374MOL0     H51555   5.432   1.731   2.272 -1.5064 -1.0801  0.0615
  374MOL0     H51556   5.453   1.552   2.277  2.4583  0.0138 -0.1346
  374MOL0     H51557   5.575   1.751   2.078 -0.7006  1.0703  0.9738
  374MOL0     H51558   5.599   1.575   2.075  1.3726 -2.1359  3.2458
  374MOL0     H51559   5.696   1.746   2.291  0.3045 -0.2115 -0.7966
  374MOL0     H51560   5.662   1.575   2.310 -2.9832  1.0443 -0.3666
  374MOL0     H51561   5.811   1.397   2.199  0.3545  0.0696 -0.6040
  374MOL0     H51562   6.025   1.379   1.916 -1.2713  1.3828 -0.3673
  374MOL0     H51563   6.051   1.294   2.069 -0.4667  0.5039 -0.8873
  374MOL0     H51564   6.236   1.522   1.993 -2.5328  0.5584  0.1336
  374MOL0     H51565   6.228   1.434   2.146  1.3487 -0.7657 -0.1142
  374MOL0     H51566   6.409   1.350   2.015 -0.4730  0.6829  3.3581
  374MOL0     H51567   6.284   1.225   2.043 -3.3678 -0.1011 -0.7354
  374MOL0     H51568   6.207   1.268   1.801 -0.1401 -1.8397  3.0303
  374MOL0     H51569   6.330   1.401   1.786 -0.7938  0.3047 -0.2276
  374MOL0     H51570   6.253   1.196   1.601 -0.0458  3.0848  0.5926
  374MOL0     H51571   6.212   1.247   1.380  0.7668  0.3816  1.4994
  374MOL0     H51572   6.302   1.145   1.269 -0.7287 -0.3301 -0.4189
  374MOL0     H51573   6.348   1.318   1.285  0.4123 -1.1283 -0.4944
  374MOL0     H51574   6.933   1.154   1.284 -0.7898 -0.0039 -0.9848
  374MOL0     H51575   7.112   1.182   1.119  0.8728  0.2552  0.2790
  374MOL0     H51576   6.955   1.215   0.777  1.8513 -2.3747 -0.2732
  374MOL0     H51577   7.023   1.371   0.727 -0.8232 -0.6921 -1.7804
  374MOL0     H51578   7.190   1.113   0.729 -1.5275 -0.6301 -0.7659
  374MOL0     H51579   7.126   1.166   0.575  0.0464  3.6213 -0.9155
  374MOL0     H51580   7.319   1.310   0.740  0.4518 -0.9162  0.3296
  374MOL0     H51581   7.254   1.372   0.593 -1.1933  1.7772  3.7592
  374MOL0     H51582   7.319   1.168   0.466  0.8341  1.0316 -0.3362
  374MOL0     H51583   7.399   1.112   0.619  0.1095  0.2076  1.3912
  374MOL0     H51584   7.477   1.340   0.448  0.1329 -1.3370 -0.7472
  374MOL0     H51585   7.528   1.324   0.617  0.9929 -1.5965  0.9766
  374MOL0     H51586   7.647   1.130   0.586 -0.3753  0.6209  1.2964
  374MOL0     H51587   7.699   1.237   0.464  0.2524 -1.1789  0.3097
  374MOL0     H51588   7.504   0.989   0.430 -1.2559  0.9504 -2.1744
  374MOL0     H51589   7.661   1.014   0.370  0.7387 -0.1588  1.2564
  374MOL0     H51590   7.435   1.198   0.269 -2.2823 -0.7719 -4.7621
  374MOL0     H51591   7.439   1.032   0.236  0.8155  0.6933  0.3164
  374MOL0     H51592   6.873   1.444   0.893  0.7387  0.8329  0.2617
  374MOL0     H51593   6.714   1.471   1.087 -0.2600  0.2606 -1.8315
  374MOL0     H51594   6.732   1.186   1.515 -0.0504 -0.1334 -2.5211
  374MOL0     H51595   6.647   1.191   1.756  1.2534  1.1267 -1.7513
  374MOL0     H51596   5.170   1.659   2.620 -0.6970 -0.2618 -0.1965
  374MOL0     H51597   5.120   1.664   2.841  2.7180  0.2073 -1.2250
  374MOL0     H51598   4.762   1.624   3.111 -0.1484  2.5322  1.8600
  374MOL0     H51599   4.604   1.634   3.298 -0.9606 -0.6961  4.9447
  374MOL0     H51600   4.689   1.388   3.658 -0.6735 -1.0337 -0.2031
  374MOL0     H51601   4.516   1.430   3.693 -0.7519 -3.5382  0.0035
  374MOL0     H51602   4.555   1.204   3.604  3.1354 -0.4649 -2.5707
  374MOL0     H51603   4.614   1.273   3.449  0.4906  1.9444 -1.2792
  374MOL0     H51604   4.332   1.286   3.574  0.4150  5.4617  1.4791
  374MOL0     H51605   4.380   1.401   3.453 -2.1204 -0.4687 -0.6107
  374MOL0     H51606   4.391   1.099   3.402 -1.7481 -1.5573 -1.8045
  374MOL0     H51607   4.444   1.219   3.290 -1.9744 -4.1522 -3.0848
  374MOL0     H51608   4.033   1.242   3.234  0.8975  3.0050 -0.7861
  374MOL0     H51609   4.848   1.386   3.538 -0.8585 -0.2918 -0.3542
  374MOL0     H51610   5.074   1.339   3.475 -1.6481 -2.2555  1.2324
  374MOL0     H51611   5.059   1.246   3.328 -2.3719 -0.0937 -0.2295
  374MOL0     H51612   5.136   1.409   3.321 -1.2479  1.5309  1.9189
  375MOL0     O51613   8.986   8.797  10.232 -0.0907  0.8350 -0.2623
  375MOL0     C51614   8.981   8.675  10.250 -0.3769 -0.2451 -1.1657
  375MOL0     O51615   9.088   8.590  10.247  0.1119 -0.4577  0.3236
  375MOL0     C51616   9.199   8.637  10.189  0.9337 -0.3787 -1.2332
  375MOL0     C51617   9.271   8.747  10.229  0.5953 -0.1268 -0.1933
  375MOL0     C51618   9.401   8.775  10.179  0.0105 -0.5748 -0.3302
  375MOL0     C51619   9.459   8.693  10.084  0.0514  0.1958 -0.4916
  375MOL0     O51620   9.587   8.704  10.033 -0.4169 -0.9321 -0.8344
  375MOL0     C51621   9.679   8.794  10.099  0.9326  0.3122  0.3566
  375MOL0     C51622   9.825   8.783  10.041  0.9669  0.1675 -0.7416
  375MOL0     C51623   9.835   8.844   9.901  0.8570  0.5588 -0.2673
  375MOL0     C51624   9.838   8.736   9.785 -0.5056 -0.0631 -0.4749
  375MOL0     C51625   9.958   8.734   9.691  0.4745  0.6990 -0.8974
  375MOL0     C51626   9.922   8.656   9.562 -0.8260 -0.0565  0.5005
  375MOL0     C51627  10.043   8.618   9.485  0.1754 -0.1346 -1.1310
  375MOL0     C51628  10.148   8.535   9.569  0.2931  0.0176  0.2121
  375MOL0     N51629  10.108   8.403   9.609 -0.9489  0.0708  0.3346
  375MOL0     C51630  10.055   8.358   9.732 -0.4566  1.2477 -0.1374
  375MOL0     C51631  10.057   8.215   9.713 -0.4205 -0.1155  1.1148
  375MOL0     C51632  10.011   8.104   9.808  0.1194 -0.1353  1.1573
  375MOL0     C51633   9.892   8.147   9.894 -1.3169  0.6159  0.2697
  375MOL0     C51634   9.808   8.022   9.928 -0.8109  0.0914 -0.4986
  375MOL0     C51635   9.692   8.063  10.025  0.8318 -0.0639 -0.1232
  375MOL0     O51636   9.583   8.123   9.952  0.0601 -0.1773  0.0565
  375MOL0     C51637   9.464   8.138  10.019  0.2841 -0.9968 -0.8130
  375MOL0     C51638   9.356   8.176   9.939  0.3657  0.1391 -0.3861
  375MOL0     C51639   9.229   8.198   9.993  0.7213  0.4421  0.9518
  375MOL0     C51640   9.122   8.241   9.891  0.1282 -0.0227  0.0530
  375MOL0     C51641   9.209   8.185  10.133 -0.7050 -0.3094 -0.1200
  375MOL0     C51642   9.077   8.201  10.201  0.4542 -0.5342 -1.0156
  375MOL0     O51643   9.067   8.188  10.337 -0.2129  0.1201 -0.7599
  375MOL0     C51644   8.956   8.135  10.391 -0.1170 -1.3884 -0.6136
  375MOL0     C51645   8.865   8.063  10.316  0.3281  0.0111  0.2138
  375MOL0     C51646   8.745   8.026  10.374  0.1033 -0.0909 -0.3934
  375MOL0     C51647   8.707   8.045  10.508  0.4599  0.1520 -0.2750
  375MOL0     O51648   8.579   8.022  10.562 -0.0495  0.2207  0.0311
  375MOL0     C51649   8.502   7.904  10.532  0.0217  0.0614  0.5547
  375MOL0     C51650   8.371   7.909  10.607 -0.0550 -0.7827  0.1345
  375MOL0     C51651   8.292   7.776  10.598  0.4709 -0.4024  0.4427
  375MOL0     C51652   8.228   7.743  10.732  0.4274  0.7258 -0.1681
  375MOL0     C51653   8.139   7.619  10.750  0.2962 -0.4931  0.7521
  375MOL0     C51654   8.028   7.644  10.854  0.2123 -0.3809  0.0874
  375MOL0     C51655   7.901   7.564  10.848 -0.4477  0.1156  0.3724
  375MOL0     C51656   7.784   7.603  10.934 -0.1446 -0.1074 -0.0796
  375MOL0    Cl51657   7.825   7.613  11.114  0.1816  0.3003 -0.1643
  375MOL0     C51658   8.807   8.112  10.579  1.1075  0.2935 -0.1175
  375MOL0     C51659   8.932   8.156  10.529 -0.7221  0.1976 -0.4266
  375MOL0     O51660   8.982   8.232  10.128 -0.2293  0.4195  0.0530
  375MOL0     C51661   9.321   8.158  10.217 -0.0559 -1.0898 -0.5605
  375MOL0     C51662   9.445   8.129  10.159  0.2374  0.2554  0.4485
  375MOL0     N51663  10.126   8.188   9.602 -0.3887 -0.2250 -0.7969
  375MOL0     N51664  10.146   8.296   9.532  0.0538 -0.5352  0.3437
  375MOL0     C51665   9.386   8.593  10.035 -0.2048  0.0973 -0.1307
  375MOL0     C51666   9.260   8.557  10.083 -0.6219 -0.7536 -0.3416
  375MOL0     C51667   8.847   8.622  10.279  0.4971  0.8141 -0.4583
  375MOL0     C51668   8.847   8.482  10.322 -0.3461 -0.3860  0.0014
  375MOL0     C51669   8.722   8.419  10.347 -0.7907 -0.0974 -0.0601
  375MOL0     C51670   8.604   8.486  10.327 -0.3639 -0.1116 -0.4639
  375MOL0     O51671   8.476   8.426  10.339  0.1742  0.3554  0.1139
  375MOL0     C51672   8.466   8.281  10.355  0.3177 -0.1134 -0.5941
  375MOL0     C51673   8.321   8.232  10.373 -1.0082  0.5189  0.1315
  375MOL0     C51674   8.255   8.308  10.498 -0.2928  0.3130  0.5919
  375MOL0     C51675   8.119   8.349  10.463  0.1247  1.1176 -0.0441
  375MOL0     C51676   8.112   8.483  10.416 -0.6302 -0.4948  0.3744
  375MOL0     C51677   8.099   8.594  10.355 -0.5917  0.5466 -0.3133
  375MOL0     C51678   8.603   8.618  10.280 -0.5262  0.7878 -0.7869
  375MOL0     C51679   8.724   8.688  10.257 -1.2150  1.2084 -0.0913
  375MOL0     C51680   8.713   8.825  10.196  0.1958  0.0242  0.8489
  375MOL0     H51681   9.230   8.809  10.308  0.5077 -2.0382  1.3480
  375MOL0     H51682   9.458   8.858  10.220 -1.7215 -0.5268  2.2332
  375MOL0     H51683   9.693   8.770  10.205  0.9090 -0.1098  0.2661
  375MOL0     H51684   9.637   8.895  10.092 -0.1747 -0.1076  0.7731
  375MOL0     H51685   9.887   8.843  10.108 -2.1322 -0.0196  2.5935
  375MOL0     H51686   9.862   8.680  10.040 -0.2779 -0.2973 -0.1846
  375MOL0     H51687   9.743   8.903   9.893  1.1346  0.8394 -1.6069
  375MOL0     H51688   9.919   8.913   9.889  1.0005  0.5332  0.5278
  375MOL0     H51689   9.824   8.639   9.833 -0.6675  1.6179  3.1793
  375MOL0     H51690   9.742   8.744   9.732 -3.6328 -3.3243  3.9658
  375MOL0     H51691  10.038   8.683   9.747  0.1472  0.4312 -0.6719
  375MOL0     H51692   9.997   8.834   9.668 -0.0440  0.7774 -1.4586
  375MOL0     H51693   9.852   8.573   9.574 -0.3769 -0.7104 -1.0996
  375MOL0     H51694   9.852   8.723   9.510 -0.4292 -2.4208 -3.4862
  375MOL0     H51695  10.105   8.707   9.469 -0.1493  0.2936 -0.0902
  375MOL0     H51696  10.013   8.570   9.392 -0.3452  0.3234 -1.1980
  375MOL0     H51697  10.237   8.524   9.507 -0.5348  2.2126 -1.4856
  375MOL0     H51698  10.187   8.582   9.660 -0.2292 -2.0373  1.5555
  375MOL0     H51699  10.019   8.415   9.817  1.4906 -0.2988  1.8614
  375MOL0     H51700  10.092   8.080   9.877  1.6790 -0.0303 -0.5700
  375MOL0     H51701   9.978   8.011   9.760  1.7426  0.6365 -1.6671
  375MOL0     H51702   9.932   8.198   9.983  1.0253  0.2120 -0.5109
  375MOL0     H51703   9.834   8.227   9.847 -1.0455  1.0310  0.6310
  375MOL0     H51704   9.770   7.979   9.835 -0.2597 -0.1538 -0.6089
  375MOL0     H51705   9.873   7.956   9.984  1.4760  3.1735  0.7477
  375MOL0     H51706   9.642   7.979  10.075  0.9584  0.4879  0.9570
  375MOL0     H51707   9.728   8.126  10.107 -1.6097 -1.5219  2.2163
  375MOL0     H51708   9.369   8.178   9.831  2.6127 -3.6753 -0.3631
  375MOL0     H51709   9.178   8.247   9.798  0.2589  1.8042  0.2199
  375MOL0     H51710   9.085   8.340   9.919 -0.0953 -0.5326  1.7164
  375MOL0     H51711   9.040   8.171   9.876  2.9158 -3.3850 -1.0482
  375MOL0     H51712   8.871   8.037  10.211 -1.7875 -0.7932  0.2419
  375MOL0     H51713   8.666   7.985  10.312 -0.3976 -1.4099  1.0412
  375MOL0     H51714   8.481   7.898  10.425 -1.5255  0.7197  0.8004
  375MOL0     H51715   8.564   7.815  10.550  0.9115  0.6308  0.3850
  375MOL0     H51716   8.384   7.927  10.714 -2.1414  0.1767  0.2803
  375MOL0     H51717   8.316   8.000  10.580  1.2997 -0.3089 -1.1063
  375MOL0     H51718   8.362   7.693  10.588  1.1477  0.0997  0.9518
  375MOL0     H51719   8.237   7.755  10.506  3.5808  0.1259 -1.6722
  375MOL0     H51720   8.166   7.828  10.762 -4.5370 -2.4093 -0.4637
  375MOL0     H51721   8.304   7.729  10.809  1.3613 -2.1682 -1.4992
  375MOL0     H51722   8.093   7.600  10.652  0.5528 -1.4699  0.8133
  375MOL0     H51723   8.190   7.525  10.773  1.5742 -0.5187 -1.7715
  375MOL0     H51724   7.997   7.746  10.830 -1.3114 -0.9568 -0.5201
  375MOL0     H51725   8.070   7.636  10.955 -0.4997  2.5707  0.7334
  375MOL0     H51726   7.921   7.458  10.866 -0.4669  0.0816  0.2003
  375MOL0     H51727   7.863   7.567  10.745 -0.2844 -2.2473  0.1876
  375MOL0     H51728   7.699   7.535  10.923 -0.7244  0.6644 -0.5314
  375MOL0     H51729   7.738   7.696  10.899  0.0075 -0.4713 -1.3223
  375MOL0     H51730   8.779   8.144  10.679  1.3378 -0.0545  0.0584
  375MOL0     H51731   9.006   8.204  10.592 -0.5582  1.5093 -1.5711
  375MOL0     H51732   9.303   8.160  10.324  3.0163  1.7472  0.0700
  375MOL0     H51733   9.531   8.100  10.219 -0.2383 -1.6712  0.2565
  375MOL0     H51734   9.430   8.533   9.956  1.8092 -0.3123  1.2390
  375MOL0     H51735   9.216   8.463  10.054  0.4574 -1.2272 -0.4968
  375MOL0     H51736   8.940   8.435  10.352 -0.5092 -0.7575 -0.0642
  375MOL0     H51737   8.725   8.315  10.376  0.3254 -0.7460 -2.2754
  375MOL0     H51738   8.518   8.221  10.280 -1.5906  0.5752 -2.5875
  375MOL0     H51739   8.512   8.264  10.452  3.6307 -2.9105 -2.4575
  375MOL0     H51740   8.317   8.122  10.374 -0.1417  0.4695 -0.2334
  375MOL0     H51741   8.259   8.262  10.288 -3.0002 -4.1139 -0.3654
  375MOL0     H51742   8.252   8.237  10.581  0.2217 -1.4829 -0.8324
  375MOL0     H51743   8.313   8.396  10.527  1.8158 -0.7591 -0.1086
  375MOL0     H51744   8.064   8.345  10.558  0.6048 -3.5019  0.2668
  375MOL0     H51745   8.076   8.274  10.396  2.0830  1.7444 -2.1218
  375MOL0     H51746   8.080   8.682  10.296 -0.2788  0.7832 -0.0687
  375MOL0     H51747   8.504   8.657  10.258 -0.6374  0.7574 -0.3318
  375MOL0     H51748   8.750   8.904  10.263 -0.4179  1.8468 -0.8548
  375MOL0     H51749   8.774   8.847  10.108 -0.9759  3.2839  0.7053
  375MOL0     H51750   8.616   8.867  10.167  1.4643  0.4714 -3.5030
  376MOL0     O51751  10.015   9.128   1.442  0.2175  1.3001 -0.0948
  376MOL0     C51752  10.084   9.191   1.519  0.9596 -0.4227  0.2742
  376MOL0     O51753  10.044   9.207   1.647  0.2731  0.5896 -0.4227
  376MOL0     C51754   9.933   9.144   1.696  0.2129 -0.4829  0.8746
  376MOL0     C51755   9.805   9.161   1.639  0.4109 -0.0508  0.4027
  376MOL0     C51756   9.696   9.093   1.691  1.3324 -0.0199  0.0883
  376MOL0     C51757   9.707   9.002   1.800 -0.9409  0.8670  0.3163
  376MOL0     O51758   9.606   8.941   1.867 -0.1050 -0.1481  0.0824
  376MOL0     C51759   9.503   8.901   1.791  0.4284  0.1745  0.3637
  376MOL0     C51760   9.415   8.831   1.900  0.0479 -0.4437  0.6954
  376MOL0     C51761   9.266   8.838   1.857  0.0539 -1.0485 -0.0365
  376MOL0     C51762   9.185   8.814   1.974  0.0288 -0.3075 -0.3252
  376MOL0     C51763   9.039   8.793   1.927  1.0961  0.5936 -0.1398
  376MOL0     C51764   8.945   8.801   2.038  0.6947 -0.1371  0.3501
  376MOL0     C51765   8.910   8.949   2.065 -0.8648  0.5565 -0.0037
  376MOL0     C51766   8.831   8.942   2.197  1.4987  0.1088  0.9765
  376MOL0     N51767   8.760   9.069   2.223  0.3997  0.0561  0.1090
  376MOL0     C51768   8.658   9.132   2.163  0.6423 -0.0152  0.1960
  376MOL0     C51769   8.635   9.251   2.226 -0.5316 -0.0136  0.2872
  376MOL0     C51770   8.533   9.353   2.196 -0.5267 -0.1348 -0.1572
  376MOL0     C51771   8.387   9.299   2.202 -0.4407 -0.5082 -0.9437
  376MOL0     C51772   8.290   9.397   2.140  0.1807 -0.3833 -0.0624
  376MOL0     C51773   8.151   9.343   2.173  0.3104 -1.3505  0.3055
  376MOL0     O51774   8.053   9.446   2.133 -0.5017  0.1479  0.4899
  376MOL0     C51775   8.004   9.455   2.008  0.4874 -0.1126  0.1742
  376MOL0     C51776   7.888   9.532   1.998 -1.0651  0.0062  0.1218
  376MOL0     C51777   7.823   9.545   1.876 -0.0057  0.2014 -0.4578
  376MOL0     C51778   7.698   9.639   1.873 -0.1188  0.1249  0.2343
  376MOL0     C51779   7.857   9.453   1.767  0.3621 -0.3028 -0.7289
  376MOL0     C51780   7.783   9.446   1.635  0.3017 -0.0556  0.0971
  376MOL0     O51781   7.704   9.548   1.599  0.3016  0.3939  0.4400
  376MOL0     C51782   7.651   9.543   1.467 -0.8408 -0.4583 -0.2907
  376MOL0     C51783   7.733   9.541   1.348  0.7195 -0.6876  0.2041
  376MOL0     C51784   7.671   9.539   1.218 -0.8511 -0.5108 -0.5727
  376MOL0     C51785   7.533   9.547   1.203 -0.1295  0.0444  0.1625
  376MOL0     O51786   7.473   9.537   1.079 -0.2399  0.1430 -0.4311
  376MOL0     C51787   7.363   9.633   1.050 -0.1412  0.6030  0.0968
  376MOL0     C51788   7.242   9.546   0.994 -0.2353 -0.2200 -0.1799
  376MOL0     C51789   7.139   9.489   1.095  0.7543  0.5787  0.7084
  376MOL0     C51790   7.011   9.453   1.015  0.2433 -0.2367  0.5287
  376MOL0     C51791   6.907   9.410   1.120 -0.4119 -0.0739  0.7884
  376MOL0     C51792   6.791   9.332   1.061 -0.4445  0.2215  0.2244
  376MOL0     C51793   6.678   9.296   1.165  1.0449  0.3686 -0.7394
  376MOL0     C51794   6.714   9.175   1.251 -0.6373 -0.4099 -0.0869
  376MOL0    Cl51795   6.840   9.219   1.385  0.4926  0.3633  0.5362
  376MOL0     C51796   7.455   9.555   1.322 -0.8428  0.2501  0.1007
  376MOL0     C51797   7.515   9.553   1.451 -0.1172  0.3122  0.9981
  376MOL0     O51798   7.810   9.346   1.567 -0.4473 -1.0996  0.7359
  376MOL0     C51799   7.971   9.375   1.785 -0.0630  0.8404 -0.5062
  376MOL0     C51800   8.043   9.376   1.905  0.7674  0.2154  0.7449
  376MOL0     N51801   8.723   9.258   2.332 -0.0558  0.8706 -0.1797
  376MOL0     N51802   8.795   9.158   2.322  0.4602 -0.3496  0.3497
  376MOL0     C51803   9.831   9.005   1.867 -0.1425 -0.8728 -0.4110
  376MOL0     C51804   9.941   9.079   1.818 -0.1732 -0.5268 -0.7429
  376MOL0     C51805  10.204   9.263   1.468 -0.0262 -0.0779  0.1231
  376MOL0     C51806  10.209   9.273   1.325  0.2848 -0.5090  0.1008
  376MOL0     C51807  10.322   9.313   1.258  0.7974  0.0962  0.4784
  376MOL0     C51808  10.420   9.379   1.338 -0.4832  0.4075 -0.5826
  376MOL0     O51809  10.537   9.423   1.291 -0.1199 -0.0266  0.9402
  376MOL0     C51810  10.577   9.362   1.173 -1.1958  0.1013  0.7173
  376MOL0     C51811  10.730   9.391   1.164  1.2609  0.1902  0.6656
  376MOL0     C51812  10.772   9.540   1.162 -0.0436 -0.1619  0.2748
  376MOL0     C51813  10.875   9.580   1.064 -0.2199 -0.2313 -0.2482
  376MOL0     C51814  10.911   9.716   1.077 -0.4447 -0.0388  0.7687
  376MOL0     C51815  10.919   9.836   1.073 -0.2906 -0.0364  0.4339
  376MOL0     C51816  10.414   9.383   1.479  0.3778  1.1285 -0.5885
  376MOL0     C51817  10.310   9.320   1.546  0.7313 -0.0615 -0.4477
  376MOL0     C51818  10.314   9.344   1.694 -0.3911  0.1862  0.1599
  376MOL0     H51819   9.781   9.227   1.556 -2.4446  0.1144  1.2459
  376MOL0     H51820   9.602   9.094   1.637  0.1636  3.0219  1.9167
  376MOL0     H51821   9.538   8.832   1.714 -2.2672  0.4653 -1.2346
  376MOL0     H51822   9.442   8.979   1.745  0.7312  0.0182 -0.3201
  376MOL0     H51823   9.444   8.727   1.918 -1.9870 -1.3612 -0.9166
  376MOL0     H51824   9.424   8.883   1.995  0.5427 -1.3078  1.1388
  376MOL0     H51825   9.244   8.933   1.806 -0.9662  0.2812  2.6807
  376MOL0     H51826   9.254   8.755   1.787  0.6628 -2.8808  1.9230
  376MOL0     H51827   9.227   8.726   2.023  1.6655  0.6990  0.1535
  376MOL0     H51828   9.201   8.899   2.042  0.8865 -1.3202  0.7724
  376MOL0     H51829   9.029   8.695   1.879 -2.9336  0.7540 -0.0011
  376MOL0     H51830   8.997   8.866   1.857 -1.2727 -1.6341 -1.2037
  376MOL0     H51831   8.850   8.749   2.023 -0.7872  1.9034  2.0285
  376MOL0     H51832   8.994   8.756   2.125  0.2780  2.7220  2.1804
  376MOL0     H51833   8.845   8.978   1.982 -1.5961 -1.3781 -0.1754
  376MOL0     H51834   8.993   9.018   2.080 -2.2514  1.9797  1.5178
  376MOL0     H51835   8.758   8.862   2.180 -0.4114  2.0236 -0.2214
  376MOL0     H51836   8.909   8.921   2.272  1.7988 -2.7361  0.0035
  376MOL0     H51837   8.596   9.086   2.086  2.2237 -2.1963  0.1309
  376MOL0     H51838   8.537   9.382   2.090 -2.7983  0.4656 -0.1231
  376MOL0     H51839   8.538   9.445   2.255  0.9156 -0.2293 -0.1121
  376MOL0     H51840   8.379   9.195   2.170 -3.0447 -1.7772  3.0626
  376MOL0     H51841   8.364   9.294   2.309 -1.7641  1.1833 -1.1064
  376MOL0     H51842   8.315   9.497   2.177  1.1285  0.7830 -3.4604
  376MOL0     H51843   8.311   9.391   2.033  0.2727  2.4988 -0.2765
  376MOL0     H51844   8.117   9.250   2.126  0.9731 -0.7605 -1.3943
  376MOL0     H51845   8.143   9.328   2.281  0.8326  1.1452  0.7580
  376MOL0     H51846   7.866   9.591   2.086  1.6329  1.7488 -0.2529
  376MOL0     H51847   7.687   9.695   1.967 -0.5222 -1.6785  1.3220
  376MOL0     H51848   7.613   9.571   1.865  0.0448 -0.1976  1.0941
  376MOL0     H51849   7.695   9.708   1.789  0.4875  0.4429  0.4611
  376MOL0     H51850   7.841   9.543   1.360  0.9658  0.0896 -1.7946
  376MOL0     H51851   7.719   9.538   1.120 -2.0356  2.8331 -1.2933
  376MOL0     H51852   7.339   9.698   1.135 -1.5347  1.1693 -0.6844
  376MOL0     H51853   7.405   9.685   0.963 -0.9273 -1.7981 -1.8282
  376MOL0     H51854   7.189   9.604   0.918 -1.0333 -0.4583  0.1756
  376MOL0     H51855   7.290   9.463   0.941 -0.1002 -0.2102 -0.0738
  376MOL0     H51856   7.135   9.566   1.173 -0.3661  0.1387  1.0936
  376MOL0     H51857   7.182   9.397   1.137 -0.8898 -0.0446  1.0959
  376MOL0     H51858   7.034   9.363   0.957 -1.6407 -0.2519 -0.2643
  376MOL0     H51859   6.984   9.535   0.948  1.2027 -0.6728 -0.4325
  376MOL0     H51860   6.954   9.340   1.191  0.8764 -2.7821 -2.4804
  376MOL0     H51861   6.860   9.492   1.175 -1.8556 -0.4292  0.1545
  376MOL0     H51862   6.831   9.237   1.026 -1.9858 -0.3488 -0.0430
  376MOL0     H51863   6.751   9.395   0.981 -1.4133 -2.6059 -1.6949
  376MOL0     H51864   6.591   9.260   1.110  1.5815 -0.3599 -1.1303
  376MOL0     H51865   6.660   9.382   1.231  0.6282  0.5218 -1.0501
  376MOL0     H51866   6.759   9.103   1.182 -0.5841  0.1075 -0.6045
  376MOL0     H51867   6.629   9.134   1.306 -2.2514  2.6594 -0.0588
  376MOL0     H51868   7.349   9.571   1.309 -1.3468 -3.2612 -0.9953
  376MOL0     H51869   7.439   9.550   1.529 -3.0069  5.4005 -1.0988
  376MOL0     H51870   7.991   9.294   1.716 -0.6474 -1.1338  1.5230
  376MOL0     H51871   8.128   9.308   1.909  0.2983 -0.6672 -1.9526
  376MOL0     H51872   9.833   8.968   1.969  1.2087  3.7072  1.4742
  376MOL0     H51873  10.033   9.070   1.875  0.5866  0.7720 -1.7008
  376MOL0     H51874  10.138   9.220   1.262 -3.3374  0.6339  2.8257
  376MOL0     H51875  10.331   9.311   1.150  1.2584 -0.0321  0.5157
  376MOL0     H51876  10.553   9.255   1.171  2.7029 -0.9519 -2.1344
  376MOL0     H51877  10.541   9.400   1.077  1.2121 -0.2362 -0.3963
  376MOL0     H51878  10.758   9.345   1.069 -0.1392  1.5901 -0.4965
  376MOL0     H51879  10.790   9.339   1.239  1.7552 -0.2057  0.0064
  376MOL0     H51880  10.686   9.604   1.141 -1.2367 -1.9415 -0.3958
  376MOL0     H51881  10.806   9.567   1.263  1.7386  0.1094 -0.3639
  376MOL0     H51882  10.841   9.557   0.962  3.2403 -1.2557 -1.2998
  376MOL0     H51883  10.961   9.516   1.085 -1.3604 -0.7590  3.5760
  376MOL0     H51884  10.943   9.940   1.063 -0.5963 -0.0195 -0.1418
  376MOL0     H51885  10.499   9.431   1.527  0.0876 -0.0032  1.1556
  376MOL0     H51886  10.420   9.351   1.721  0.1412  0.2916 -1.7949
  376MOL0     H51887  10.265   9.432   1.738 -0.1594  0.9464 -1.0553
  376MOL0     H51888  10.273   9.254   1.740 -1.5025  0.3013 -0.5839
  377MOL0     O51889   2.293   8.050   0.310 -0.1686  0.3151  0.8582
  377MOL0     C51890   2.344   7.980   0.399 -0.5175 -0.1083  0.1998
  377MOL0     O51891   2.362   7.840   0.395  0.4893 -0.3708 -0.3895
  377MOL0     C51892   2.358   7.773   0.276  0.1592  1.2184  0.2304
  377MOL0     C51893   2.445   7.805   0.168  0.3279 -0.1932 -0.5432
  377MOL0     C51894   2.439   7.731   0.047  0.2065 -0.1172 -0.2428
  377MOL0     C51895   2.344   7.621   0.030 -0.5127 -0.2176 -0.4429
  377MOL0     O51896   2.339   7.551  -0.086 -0.2169 -0.3321 -0.4928
  377MOL0     C51897   2.304   7.415  -0.096  0.2587 -0.6215 -0.3564
  377MOL0     C51898   2.402   7.349  -0.190 -0.0212  0.4889  0.1675
  377MOL0     C51899   2.357   7.349  -0.340 -0.8909  0.9598 -0.2381
  377MOL0     C51900   2.377   7.489  -0.413 -0.2552 -1.2737  0.0632
  377MOL0     C51901   2.369   7.474  -0.571  0.9932 -0.1189  0.3091
  377MOL0     C51902   2.335   7.612  -0.636 -0.2665 -0.3724 -0.0663
  377MOL0     C51903   2.364   7.599  -0.788  0.1571  0.2467 -0.6562
  377MOL0     C51904   2.419   7.712  -0.878 -0.0447  0.5530  0.6364
  377MOL0     N51905   2.450   7.637  -1.005  0.5205  0.2970 -0.2967
  377MOL0     C51906   2.360   7.559  -1.078  0.1713 -0.8648 -0.4681
  377MOL0     C51907   2.444   7.511  -1.175  0.2482 -0.0208 -0.8110
  377MOL0     C51908   2.408   7.415  -1.286  0.3961  0.7621 -0.2975
  377MOL0     C51909   2.441   7.274  -1.257 -0.3888  1.2758  0.6824
  377MOL0     C51910   2.391   7.178  -1.370  0.6682  0.0826  0.0985
  377MOL0     C51911   2.249   7.124  -1.331  0.6193 -0.5813 -0.5540
  377MOL0     O51912   2.153   7.226  -1.308 -0.7129 -0.0810 -0.2467
  377MOL0     C51913   2.095   7.240  -1.182 -0.0300  0.8082 -0.2272
  377MOL0     C51914   2.153   7.185  -1.064 -0.2095 -1.4638 -0.9066
  377MOL0     C51915   2.099   7.218  -0.940  0.7897 -1.1690 -0.0684
  377MOL0     C51916   2.164   7.146  -0.821  0.6636 -0.3104 -0.6235
  377MOL0     C51917   1.988   7.318  -0.934  0.0560 -0.3122 -0.1553
  377MOL0     C51918   1.937   7.378  -0.809  0.1101 -0.5123 -0.1625
  377MOL0     O51919   1.808   7.435  -0.814  0.2094 -0.3082 -0.1039
  377MOL0     C51920   1.732   7.460  -0.703 -0.3036  0.2600 -0.1434
  377MOL0     C51921   1.737   7.379  -0.588  0.2150 -0.4003  0.5975
  377MOL0     C51922   1.647   7.399  -0.482 -0.4391 -0.9571 -0.4822
  377MOL0     C51923   1.563   7.514  -0.480 -0.1369  0.3819  0.2081
  377MOL0     O51924   1.501   7.538  -0.364 -0.5204 -0.2412  0.0260
  377MOL0     C51925   1.572   7.557  -0.246 -0.2881  0.1898  0.3688
  377MOL0     C51926   1.487   7.618  -0.133 -0.1578 -0.3945  0.5313
  377MOL0     C51927   1.580   7.622  -0.016  0.1061  0.3788  0.5630
  377MOL0     C51928   1.521   7.684   0.108  0.1839  0.0465 -0.3092
  377MOL0     C51929   1.512   7.837   0.114  0.5755 -0.9978  0.2179
  377MOL0     C51930   1.428   7.878   0.241 -0.5662 -0.3624  0.4191
  377MOL0     C51931   1.453   8.026   0.259  0.7293 -0.2102 -0.0127
  377MOL0     C51932   1.407   8.075   0.397 -0.5542 -0.4080  0.0885
  377MOL0    Cl51933   1.457   7.960   0.519  0.2037 -0.1350  0.0273
  377MOL0     C51934   1.558   7.595  -0.594  0.5060  0.5115  0.2032
  377MOL0     C51935   1.640   7.571  -0.708 -0.1010  0.5877 -0.2580
  377MOL0     O51936   1.995   7.374  -0.704 -0.4600  0.4929  0.9066
  377MOL0     C51937   1.934   7.357  -1.051 -0.0344  0.0768  0.7838
  377MOL0     C51938   1.991   7.328  -1.177 -0.2680 -0.8184  0.5206
  377MOL0     N51939   2.572   7.563  -1.170  0.1051 -0.5684 -0.6791
  377MOL0     N51940   2.575   7.621  -1.054  0.1212 -0.0608  0.4086
  377MOL0     C51941   2.252   7.607   0.138 -0.2381 -0.3553 -0.8486
  377MOL0     C51942   2.261   7.669   0.259 -0.0710 -0.1841  0.1821
  377MOL0     C51943   2.413   8.057   0.504 -1.1868 -0.5638  0.0632
  377MOL0     C51944   2.529   8.001   0.565  0.2845 -0.3905  0.3285
  377MOL0     C51945   2.591   8.074   0.656 -0.6047 -0.3844  1.1119
  377MOL0     C51946   2.565   8.212   0.688 -0.2228  0.5075  0.1318
  377MOL0     O51947   2.633   8.284   0.776 -0.2820 -0.0932 -0.8539
  377MOL0     C51948   2.752   8.233   0.836 -0.4448 -0.0874 -0.5404
  377MOL0     C51949   2.730   8.148   0.955  0.8722 -0.5717 -0.2970
  377MOL0     C51950   2.647   8.228   1.060  1.2845 -1.1471  0.3403
  377MOL0     C51951   2.634   8.144   1.191 -0.0564 -0.6862 -0.0934
  377MOL0     C51952   2.579   8.015   1.173  0.4371  0.5455  0.5573
  377MOL0     C51953   2.540   7.903   1.167  0.4141  0.0388 -0.1255
  377MOL0     C51954   2.449   8.265   0.627  0.4797 -0.2349  0.7697
  377MOL0     C51955   2.371   8.195   0.540  0.2986  1.1653  0.8761
  377MOL0     C51956   2.265   8.262   0.472  0.2230  0.0114  0.1931
  377MOL0     H51957   2.527   7.876   0.160  3.0734 -2.9277  1.0447
  377MOL0     H51958   2.514   7.740  -0.030 -0.8508 -1.3519 -1.4651
  377MOL0     H51959   2.199   7.405  -0.126 -0.1089 -1.5844  1.1523
  377MOL0     H51960   2.322   7.372   0.003 -0.9079  2.0640  1.1225
  377MOL0     H51961   2.505   7.386  -0.186 -0.8079  3.5587 -3.0515
  377MOL0     H51962   2.403   7.242  -0.167  3.3494  0.6437  1.2931
  377MOL0     H51963   2.415   7.269  -0.386 -3.8149 -0.6273 -1.4450
  377MOL0     H51964   2.251   7.321  -0.335 -0.6881  0.3407  0.9826
  377MOL0     H51965   2.294   7.548  -0.375 -2.4495 -3.7501 -0.6013
  377MOL0     H51966   2.477   7.525  -0.386 -1.1683 -0.0777  2.0553
  377MOL0     H51967   2.289   7.405  -0.599 -1.2350  1.9480  1.2291
  377MOL0     H51968   2.464   7.425  -0.596  1.6772 -0.2351  2.8098
  377MOL0     H51969   2.232   7.638  -0.609 -0.1212  0.6624 -0.4751
  377MOL0     H51970   2.400   7.691  -0.597  1.0384 -1.3319 -0.2591
  377MOL0     H51971   2.267   7.580  -0.835  0.2938  0.1707 -0.9058
  377MOL0     H51972   2.418   7.506  -0.804  2.0203  0.4325  3.4249
  377MOL0     H51973   2.351   7.796  -0.890 -2.6692 -1.3982  1.0780
  377MOL0     H51974   2.505   7.745  -0.818  0.8529  1.9528 -1.3211
  377MOL0     H51975   2.253   7.548  -1.061  0.2520 -0.7720  0.1190
  377MOL0     H51976   2.471   7.441  -1.372  1.6008  2.2208  0.9734
  377MOL0     H51977   2.304   7.422  -1.318 -0.5952 -3.0580  1.4715
  377MOL0     H51978   2.548   7.257  -1.237 -0.5183  1.8584  1.9654
  377MOL0     H51979   2.397   7.225  -1.170 -1.6237  2.1732  0.5836
  377MOL0     H51980   2.401   7.214  -1.473  0.8211 -1.1552 -0.3333
  377MOL0     H51981   2.459   7.093  -1.362  0.9489  0.3878  1.1670
  377MOL0     H51982   2.206   7.067  -1.415 -0.6024  0.9262 -0.9980
  377MOL0     H51983   2.256   7.048  -1.252 -1.2667 -0.7599 -0.5116
  377MOL0     H51984   2.242   7.122  -1.065  0.9941  0.1819 -0.6990
  377MOL0     H51985   2.212   7.050  -0.840  2.5341 -0.1515  2.5675
  377MOL0     H51986   2.085   7.129  -0.747 -1.0497  0.9032 -2.0665
  377MOL0     H51987   2.248   7.209  -0.789  1.0032 -2.1082  2.4537
  377MOL0     H51988   1.791   7.285  -0.581 -0.7292 -0.9430  0.8791
  377MOL0     H51989   1.650   7.337  -0.393 -0.3545  3.0173  2.5707
  377MOL0     H51990   1.624   7.465  -0.217  2.9335  1.3225 -1.3886
  377MOL0     H51991   1.646   7.631  -0.276 -2.1734  3.1357  2.5063
  377MOL0     H51992   1.447   7.715  -0.167 -3.7643 -1.7077  0.5352
  377MOL0     H51993   1.395   7.562  -0.113  1.0006 -1.8091  2.1696
  377MOL0     H51994   1.670   7.678  -0.044  0.0393 -0.0615 -0.5607
  377MOL0     H51995   1.612   7.520   0.006  1.4898  0.6523 -0.0434
  377MOL0     H51996   1.589   7.673   0.192  0.5819  4.9107  0.3172
  377MOL0     H51997   1.425   7.635   0.127  0.0673  0.8985  1.4315
  377MOL0     H51998   1.614   7.878   0.117 -0.2106  1.1247 -0.3112
  377MOL0     H51999   1.461   7.884   0.029  0.3509  3.0853  2.3285
  377MOL0     H52000   1.472   7.818   0.321 -1.6376  0.6473  1.8155
  377MOL0     H52001   1.325   7.846   0.226  0.2464 -2.2772 -1.5883
  377MOL0     H52002   1.398   8.094   0.192 -1.4159 -0.8767  0.9674
  377MOL0     H52003   1.561   8.042   0.258  0.5193  1.4816 -1.5545
  377MOL0     H52004   1.298   8.075   0.407 -0.6774  2.0223 -0.8134
  377MOL0     H52005   1.436   8.177   0.421 -0.9048  0.4680 -2.8083
  377MOL0     H52006   1.490   7.679  -0.596 -1.2946 -0.6907  3.2478
  377MOL0     H52007   1.638   7.643  -0.789  2.4739  3.1457  1.7238
  377MOL0     H52008   1.860   7.436  -1.050  0.9856  1.1142 -0.9113
  377MOL0     H52009   1.959   7.374  -1.270 -0.4462  1.2761  1.5757
  377MOL0     H52010   2.169   7.537   0.129 -0.4702 -0.9024  3.5160
  377MOL0     H52011   2.199   7.647   0.345 -2.1523  1.6215 -0.7619
  377MOL0     H52012   2.561   7.901   0.538 -0.9875  0.0942 -3.6820
  377MOL0     H52013   2.682   8.034   0.700  1.1211  2.7762  0.6956
  377MOL0     H52014   2.802   8.165   0.768 -2.1038 -1.1170 -0.7902
  377MOL0     H52015   2.814   8.319   0.864 -0.1236 -0.4354 -0.1636
  377MOL0     H52016   2.816   8.112   1.013  0.0911 -0.7220  0.8035
  377MOL0     H52017   2.675   8.060   0.923 -1.8559  1.3501 -1.2317
  377MOL0     H52018   2.672   8.334   1.068  1.1064 -1.1195  0.5736
  377MOL0     H52019   2.541   8.241   1.035  1.6250  4.5253  0.4918
  377MOL0     H52020   2.562   8.197   1.255 -1.3189 -0.8652 -1.3170
  377MOL0     H52021   2.730   8.123   1.238  0.4937 -0.6676 -1.1797
  377MOL0     H52022   2.498   7.807   1.149 -1.9196  0.8129  0.8830
  377MOL0     H52023   2.422   8.369   0.641 -1.5601 -0.3338 -1.7082
  377MOL0     H52024   2.316   8.317   0.392  0.7831 -1.2049 -0.3134
  377MOL0     H52025   2.180   8.206   0.432  1.1696 -1.3092 -0.0413
  377MOL0     H52026   2.228   8.339   0.541 -2.4853  0.4893 -1.6800
  378MOL0     O52027  11.092   3.206   0.173  0.5209  0.5306  0.2745
  378MOL0     C52028  11.029   3.279   0.098  0.1220  0.2911 -0.3462
  378MOL0     O52029  11.006   3.409   0.113  0.5743  0.5738  0.6057
  378MOL0     C52030  11.034   3.471   0.233  0.0843  0.4353 -0.2097
  378MOL0     C52031  11.128   3.580   0.244 -0.2945 -0.0310  0.9429
  378MOL0     C52032  11.156   3.638   0.366 -0.1978 -0.1915 -0.8918
  378MOL0     C52033  11.093   3.598   0.483 -0.1584 -0.0212 -0.4715
  378MOL0     O52034  11.112   3.643   0.611 -0.8310  0.2534  0.7146
  378MOL0     C52035  11.231   3.734   0.622  0.1685  0.6143 -0.4989
  378MOL0     C52036  11.247   3.782   0.769 -0.2400  0.6047  0.5603
  378MOL0     C52037  11.371   3.871   0.789  0.2102  1.1258 -0.1467
  378MOL0     C52038  11.322   4.010   0.836  0.6575  0.1664 -0.4974
  378MOL0     C52039  11.440   4.095   0.852 -1.2199 -0.5025  0.3119
  378MOL0     C52040  11.390   4.234   0.895 -0.1035 -0.6938  0.9544
  378MOL0     C52041  11.316   4.235   1.031  0.0649  0.0846 -0.3912
  378MOL0     C52042  11.286   4.378   1.074  0.7063  0.3106 -0.9366
  378MOL0     N52043  11.174   4.384   1.162 -0.3541  0.2708 -0.2616
  378MOL0     C52044  11.188   4.423   1.293 -0.0680 -0.6594 -0.6050
  378MOL0     C52045  11.065   4.416   1.356  0.2788  0.5262  0.2736
  378MOL0     C52046  11.035   4.447   1.499  0.9624 -0.0141 -0.0566
  378MOL0     C52047  11.004   4.594   1.522 -0.7499 -1.1136  0.2248
  378MOL0     C52048  10.909   4.615   1.639 -0.0541 -0.4717 -0.0895
  378MOL0     C52049  10.859   4.754   1.679 -0.9844 -1.1665 -0.0188
  378MOL0     O52050  10.936   4.862   1.632  0.1933  0.3564 -0.6104
  378MOL0     C52051  11.069   4.877   1.670  0.1531 -0.2276 -0.4830
  378MOL0     C52052  11.143   4.956   1.588  0.9221  0.4296  0.5418
  378MOL0     C52053  11.283   4.975   1.598 -0.1346 -0.8806  0.7213
  378MOL0     C52054  11.346   5.070   1.494  0.6066  0.6460  0.0726
  378MOL0     C52055  11.345   4.910   1.705 -1.4270  0.5389 -0.6165
  378MOL0     C52056  11.488   4.918   1.745  1.3532 -0.7901  0.8390
  378MOL0     O52057  11.525   4.838   1.852 -0.3442 -0.1733 -0.3823
  378MOL0     C52058  11.664   4.834   1.866  0.4197 -0.8381  0.4435
  378MOL0     C52059  11.723   4.872   1.990 -0.1607  0.2551  0.2970
  378MOL0     C52060  11.855   4.832   2.010  0.0470  0.7413 -0.1235
  378MOL0     C52061  11.934   4.760   1.912  0.5030 -0.6164  0.1777
  378MOL0     O52062  12.059   4.728   1.937  0.1016  0.2057 -0.3370
  378MOL0     C52063  12.146   4.651   1.851 -0.6125 -1.2207  1.0701
  378MOL0     C52064  12.278   4.627   1.925  1.0897 -0.4795 -0.0812
  378MOL0     C52065  12.364   4.752   1.949  0.4766  0.5953  0.0239
  378MOL0     C52066  12.397   4.825   1.813 -0.3455 -0.3718 -0.1383
  378MOL0     C52067  12.507   4.935   1.854  0.6133 -0.2632 -0.3811
  378MOL0     C52068  12.553   5.027   1.733  0.2630  0.1237 -0.0802
  378MOL0     C52069  12.655   5.133   1.788 -1.4336 -0.3734 -0.2908
  378MOL0     C52070  12.591   5.271   1.776 -0.0999  0.3086  0.2847
  378MOL0    Cl52071  12.460   5.298   1.884  0.1522  0.2638  0.0236
  378MOL0     C52072  11.868   4.725   1.789 -1.0807  0.2348 -0.3615
  378MOL0     C52073  11.738   4.762   1.769 -0.5871  0.9471  0.9088
  378MOL0     O52074  11.568   4.981   1.673 -0.8613  0.6069 -0.5082
  378MOL0     C52075  11.265   4.823   1.789  0.5949 -1.1205 -0.2021
  378MOL0     C52076  11.130   4.807   1.774  0.4358 -1.2695 -0.9493
  378MOL0     N52077  10.977   4.371   1.261 -0.1696 -0.5221  0.4571
  378MOL0     N52078  11.044   4.353   1.150 -0.2676 -0.4098  0.4334
  378MOL0     C52079  10.991   3.507   0.473 -0.0540 -0.6861  0.2989
  378MOL0     C52080  10.961   3.450   0.355 -0.9095  0.7961 -0.0733
  378MOL0     C52081  10.985   3.217  -0.028  0.3795  0.2862 -0.7715
  378MOL0     C52082  10.859   3.158  -0.028  0.1064 -0.4314 -0.3439
  378MOL0     C52083  10.810   3.103  -0.147 -0.7802  0.6488 -0.5591
  378MOL0     C52084  10.891   3.091  -0.257  0.8444  0.0864  0.4061
  378MOL0     O52085  10.828   3.038  -0.372  0.0100 -0.3317  0.3690
  378MOL0     C52086  10.901   3.029  -0.501  0.1122 -0.0167 -0.9973
  378MOL0     C52087  10.898   3.176  -0.568 -1.3454 -0.5421 -0.6159
  378MOL0     C52088  10.784   3.168  -0.668 -0.3892 -0.2257  0.1728
  378MOL0     C52089  10.758   3.301  -0.750 -0.0089 -0.6179 -0.0884
  378MOL0     C52090  10.856   3.346  -0.848 -0.1289 -0.1581 -0.2155
  378MOL0     C52091  10.937   3.368  -0.932  0.4743 -0.1164 -0.1114
  378MOL0     C52092  11.019   3.152  -0.253  0.3418 -1.0454  0.4745
  378MOL0     C52093  11.072   3.210  -0.139  0.2556 -0.9667 -0.6099
  378MOL0     C52094  11.215   3.272  -0.135  0.9439 -1.3034  0.3837
  378MOL0     H52095  11.186   3.611   0.157  1.6542 -0.7573  1.9349
  378MOL0     H52096  11.235   3.712   0.364  1.1258 -1.5703 -1.3202
  378MOL0     H52097  11.200   3.816   0.557 -1.6930 -0.7485 -1.4173
  378MOL0     H52098  11.324   3.686   0.589 -1.6878 -3.7380 -0.0167
  378MOL0     H52099  11.160   3.837   0.806 -0.3305 -0.4229  1.9577
  378MOL0     H52100  11.254   3.699   0.840 -2.4692  0.8494  1.1333
  378MOL0     H52101  11.436   3.824   0.863 -1.5909  2.2769  2.2857
  378MOL0     H52102  11.430   3.884   0.698  0.3823  3.5748  0.2568
  378MOL0     H52103  11.267   4.062   0.757  1.3860  0.2366 -0.9691
  378MOL0     H52104  11.278   3.999   0.936  3.3957 -0.0424  0.7648
  378MOL0     H52105  11.489   4.106   0.755  0.9486 -1.2624  1.2783
  378MOL0     H52106  11.508   4.048   0.923  0.0267 -1.4396 -1.4305
  378MOL0     H52107  11.480   4.296   0.900 -0.2826 -0.3427 -0.0556
  378MOL0     H52108  11.337   4.284   0.813  1.5487 -0.3615  0.0420
  378MOL0     H52109  11.353   4.171   1.111 -0.8751 -0.8756 -0.7105
  378MOL0     H52110  11.219   4.189   1.012  0.3068  0.5451 -3.0932
  378MOL0     H52111  11.375   4.409   1.130 -0.0357  1.8580 -0.5732
  378MOL0     H52112  11.278   4.449   0.992  0.3512 -0.8789 -1.9526
  378MOL0     H52113  11.282   4.452   1.340 -0.1447  0.2594 -1.0000
  378MOL0     H52114  11.123   4.415   1.556  1.0243  4.1246  2.5906
  378MOL0     H52115  10.952   4.381   1.525 -0.3320  2.1659  1.6557
  378MOL0     H52116  11.089   4.658   1.546 -0.4435 -1.9890  1.5861
  378MOL0     H52117  10.957   4.630   1.430  1.0072  2.4132  0.5685
  378MOL0     H52118  10.821   4.550   1.630  0.5969 -1.6179  1.3841
  378MOL0     H52119  10.973   4.586   1.723  0.6315  0.7058 -0.1836
  378MOL0     H52120  10.754   4.760   1.648  0.0235  1.2679 -3.5738
  378MOL0     H52121  10.874   4.759   1.787 -0.3271 -2.2105 -0.0403
  378MOL0     H52122  11.082   5.007   1.514  2.4186  1.9491  0.2737
  378MOL0     H52123  11.274   5.134   1.442  1.6967 -0.3429 -2.8445
  378MOL0     H52124  11.390   5.002   1.420  0.6658 -0.4573  1.0948
  378MOL0     H52125  11.422   5.138   1.532  0.2457  2.3537 -2.0443
  378MOL0     H52126  11.660   4.919   2.065 -2.4971 -2.2704  0.0720
  378MOL0     H52127  11.904   4.863   2.102 -0.3767  3.1560 -0.6450
  378MOL0     H52128  12.103   4.555   1.821 -1.3905 -0.8035  0.8309
  378MOL0     H52129  12.162   4.710   1.760  0.7001 -1.7968  0.9064
  378MOL0     H52130  12.253   4.561   2.009 -0.8960 -1.7907 -1.6171
  378MOL0     H52131  12.340   4.569   1.857  2.6677  1.3333 -0.2708
  378MOL0     H52132  12.456   4.724   2.001  0.3324  1.6991  0.9036
  378MOL0     H52133  12.310   4.817   2.018 -1.2358  1.1590 -1.7618
  378MOL0     H52134  12.317   4.885   1.770 -1.0772  0.4116  2.1613
  378MOL0     H52135  12.416   4.746   1.740 -2.2489 -0.8461 -0.1713
  378MOL0     H52136  12.466   5.003   1.929  1.3430 -1.2180  0.9279
  378MOL0     H52137  12.600   4.887   1.884  0.1793 -1.4587 -0.8781
  378MOL0     H52138  12.461   5.072   1.695 -0.0977  0.2593  0.9486
  378MOL0     H52139  12.593   4.966   1.650  2.3093  0.4303  0.6220
  378MOL0     H52140  12.750   5.112   1.736 -0.6611  0.1517  0.8671
  378MOL0     H52141  12.691   5.113   1.889  1.7181  3.5562 -0.3711
  378MOL0     H52142  12.548   5.287   1.676 -1.2700  0.2174  0.7623
  378MOL0     H52143  12.668   5.347   1.792  1.3706 -1.3317  1.3407
  378MOL0     H52144  11.921   4.686   1.702 -0.8597 -0.2945  0.0066
  378MOL0     H52145  11.684   4.730   1.680 -1.6130 -2.6678  2.6201
  378MOL0     H52146  11.301   4.771   1.878  1.6306 -0.2248 -0.0829
  378MOL0     H52147  11.078   4.741   1.842 -0.1207  2.3532  2.5300
  378MOL0     H52148  10.945   3.468   0.564 -3.2449  0.8455 -0.5291
  378MOL0     H52149  10.880   3.379   0.364  0.2446 -0.4191  1.2349
  378MOL0     H52150  10.795   3.171   0.059  0.4348 -1.1132  0.0026
  378MOL0     H52151  10.715   3.053  -0.162 -0.7110  0.3970 -0.1912
  378MOL0     H52152  10.998   2.988  -0.469 -0.1369 -1.0409 -1.5265
  378MOL0     H52153  10.855   2.951  -0.562 -3.8631 -0.5982  2.3221
  378MOL0     H52154  10.995   3.186  -0.618 -0.2538 -3.5229  0.7057
  378MOL0     H52155  10.892   3.263  -0.501  1.0474 -0.7764 -0.0101
  378MOL0     H52156  10.803   3.104  -0.754 -1.4409 -2.5384  1.5615
  378MOL0     H52157  10.689   3.129  -0.631 -1.5649  0.1427 -2.2826
  378MOL0     H52158  10.754   3.379  -0.673  2.0481 -1.5196  1.0244
  378MOL0     H52159  10.661   3.309  -0.799  1.7547  0.1132 -3.9156
  378MOL0     H52160  11.013   3.373  -1.008 -0.8855 -0.4979 -1.5561
  378MOL0     H52161  11.077   3.149  -0.345 -1.3784  3.6659 -1.0816
  378MOL0     H52162  11.201   3.378  -0.110 -2.5090 -1.5869  0.1573
  378MOL0     H52163  11.286   3.213  -0.075  1.6940 -1.1043 -0.2911
  378MOL0     H52164  11.252   3.267  -0.237 -1.7620 -1.3054 -0.6788
  379MOL0     O52165   4.345   6.592   2.141  0.0292 -0.1685  0.1745
  379MOL0     C52166   4.422   6.562   2.223  0.4775  0.3241  0.5804
  379MOL0     O52167   4.547   6.605   2.230 -0.2013  0.1312  0.0680
  379MOL0     C52168   4.595   6.706   2.142  0.0615 -0.5900  0.2122
  379MOL0     C52169   4.575   6.847   2.172 -0.0985  0.2068  0.0982
  379MOL0     C52170   4.608   6.946   2.078  0.2619  0.2426  1.4381
  379MOL0     C52171   4.674   6.923   1.955  0.2404 -0.0508 -0.5441
  379MOL0     O52172   4.722   7.028   1.872  0.6084 -0.3089  0.2159
  379MOL0     C52173   4.801   7.005   1.750  0.7189  0.3100 -0.0793
  379MOL0     C52174   4.799   7.142   1.680  0.5980 -0.2477 -0.2410
  379MOL0     C52175   4.678   7.160   1.602 -0.5033  0.5195 -0.8542
  379MOL0     C52176   4.638   7.307   1.569 -0.6290 -1.1743 -0.2908
  379MOL0     C52177   4.492   7.308   1.530 -0.8305 -0.4060  0.2288
  379MOL0     C52178   4.457   7.457   1.486 -0.6837  1.1209  0.2958
  379MOL0     C52179   4.466   7.567   1.591  0.3942 -0.1832 -0.7251
  379MOL0     C52180   4.410   7.507   1.727 -0.6305 -1.0261  0.2959
  379MOL0     N52181   4.443   7.612   1.826  0.5608 -0.0457  0.2090
  379MOL0     C52182   4.363   7.708   1.880 -0.5362 -0.6091  0.0459
  379MOL0     C52183   4.459   7.777   1.962  0.0865  0.7050  0.5930
  379MOL0     C52184   4.425   7.881   2.063 -0.1410 -0.1412 -0.9219
  379MOL0     C52185   4.490   8.018   2.023 -0.3667  0.1761 -0.5018
  379MOL0     C52186   4.427   8.062   1.887 -0.8696  0.9525 -0.1547
  379MOL0     C52187   4.493   8.201   1.843 -0.3654 -0.4480 -0.8146
  379MOL0     O52188   4.553   8.265   1.952 -0.2171  1.1450 -0.4206
  379MOL0     C52189   4.597   8.393   1.936 -0.5887  0.2063 -0.0259
  379MOL0     C52190   4.622   8.455   1.809 -0.0721 -0.6391  0.8603
  379MOL0     C52191   4.685   8.578   1.803 -0.5033  0.2911 -0.3081
  379MOL0     C52192   4.710   8.632   1.656 -0.5894 -0.1737 -0.4366
  379MOL0     C52193   4.732   8.639   1.924 -0.3539  0.7628  0.1435
  379MOL0     C52194   4.805   8.769   1.931  0.4814  0.1427  0.2690
  379MOL0     O52195   4.830   8.823   2.066 -0.7312 -0.0663  1.0950
  379MOL0     C52196   4.879   8.951   2.055  0.6642 -0.1735 -0.1171
  379MOL0     C52197   4.793   9.059   2.061  0.6945 -0.8300 -0.4969
  379MOL0     C52198   4.850   9.188   2.021  0.4882  0.7885  0.1110
  379MOL0     C52199   4.989   9.211   1.991  1.6662  0.9910 -0.5053
  379MOL0     O52200   5.045   9.331   1.964 -0.1219 -0.0371  0.8746
  379MOL0     C52201   5.012   9.441   1.877 -0.2780 -0.0101  0.7221
  379MOL0     C52202   5.004   9.410   1.732 -0.0561  0.2056 -0.5099
  379MOL0     C52203   4.919   9.517   1.670  0.3925  0.9082  0.4596
  379MOL0     C52204   4.933   9.513   1.513  0.4875 -0.1695  0.2124
  379MOL0     C52205   4.832   9.615   1.464 -0.8341  0.0888  0.5112
  379MOL0     C52206   4.834   9.647   1.308  0.8255  0.0578 -0.2607
  379MOL0     C52207   4.814   9.515   1.228 -0.6960 -0.0595 -0.1826
  379MOL0     C52208   4.702   9.545   1.118 -0.4349 -0.2195 -0.1577
  379MOL0    Cl52209   4.754   9.679   1.006  0.1807 -0.2664  0.1859
  379MOL0     C52210   5.063   9.096   2.003  0.4449  0.6892  0.0163
  379MOL0     C52211   5.016   8.971   2.041  0.0093  0.0530  0.2858
  379MOL0     O52212   4.858   8.810   1.822  0.5631  0.6327 -0.5520
  379MOL0     C52213   4.716   8.576   2.052  0.1712  1.4452  0.0534
  379MOL0     C52214   4.642   8.455   2.059 -0.2561  0.0575  0.1278
  379MOL0     N52215   4.583   7.721   1.943  0.1806  0.6470  0.0392
  379MOL0     N52216   4.564   7.613   1.880  0.5835  0.1602 -0.1198
  379MOL0     C52217   4.692   6.786   1.921  0.5251  0.3696 -1.0422
  379MOL0     C52218   4.657   6.684   2.019  0.7749 -0.8061  0.4081
  379MOL0     C52219   4.366   6.474   2.331  0.7642  0.2931  0.3501
  379MOL0     C52220   4.274   6.525   2.424  0.3768  0.4574  0.4686
  379MOL0     C52221   4.233   6.443   2.525 -0.5103  0.6386  0.3912
  379MOL0     C52222   4.293   6.320   2.553 -0.1351  0.5109 -0.4783
  379MOL0     O52223   4.251   6.249   2.660 -0.4997 -0.3885 -0.1122
  379MOL0     C52224   4.268   6.105   2.673  0.1379  0.4176  0.6193
  379MOL0     C52225   4.167   6.056   2.763  0.6415  0.0276  0.4995
  379MOL0     C52226   4.200   5.916   2.821  0.0777  0.2381 -0.6648
  379MOL0     C52227   4.096   5.836   2.904 -0.1421  0.0991 -0.2995
  379MOL0     C52228   4.061   5.911   3.023  0.5391 -0.4073 -0.5366
  379MOL0     C52229   4.029   5.982   3.114 -0.2303  0.4549 -0.1299
  379MOL0     C52230   4.399   6.278   2.473 -0.4199  0.7975  0.5351
  379MOL0     C52231   4.436   6.347   2.355  0.0203 -1.2419  0.3158
  379MOL0     C52232   4.539   6.294   2.258 -0.3859  0.3979  0.3486
  379MOL0     H52233   4.521   6.873   2.263 -1.1490 -1.0054 -0.1411
  379MOL0     H52234   4.587   7.051   2.099  1.2401  1.5976 -3.2250
  379MOL0     H52235   4.764   6.922   1.688  0.2689  0.1726  0.3618
  379MOL0     H52236   4.899   6.970   1.781  1.5093  0.6872 -2.0156
  379MOL0     H52237   4.813   7.219   1.756  2.0834 -0.4774 -0.2469
  379MOL0     H52238   4.877   7.153   1.604 -0.8320 -0.0473 -1.7462
  379MOL0     H52239   4.695   7.117   1.502  2.0585  0.0695 -0.2930
  379MOL0     H52240   4.589   7.109   1.640  0.9857 -0.6322  1.2756
  379MOL0     H52241   4.650   7.374   1.654  1.1786  0.4025 -1.6751
  379MOL0     H52242   4.707   7.343   1.492 -0.6239  1.3576  0.7947
  379MOL0     H52243   4.427   7.261   1.604 -0.3291 -3.0819 -0.9106
  379MOL0     H52244   4.462   7.239   1.451 -3.2241  0.1244  0.5993
  379MOL0     H52245   4.518   7.490   1.401 -2.4444  3.0381 -0.2989
  379MOL0     H52246   4.354   7.465   1.450 -0.3879  0.2302 -0.8036
  379MOL0     H52247   4.407   7.654   1.562  0.8208 -0.0204 -1.1214
  379MOL0     H52248   4.566   7.607   1.613 -0.0021  0.4759 -0.0962
  379MOL0     H52249   4.305   7.479   1.717 -0.8122 -0.0245 -1.0444
  379MOL0     H52250   4.465   7.419   1.762  0.1922 -1.7549 -2.5608
  379MOL0     H52251   4.255   7.709   1.887 -0.7979 -3.9604 -1.4450
  379MOL0     H52252   4.465   7.858   2.162  0.9186 -0.7484 -1.4695
  379MOL0     H52253   4.319   7.892   2.084 -0.0436 -2.5441  1.3976
  379MOL0     H52254   4.481   8.091   2.104  1.0773 -0.1894  0.0203
  379MOL0     H52255   4.595   8.003   1.996 -0.4102 -0.0041 -0.5737
  379MOL0     H52256   4.463   7.984   1.819 -0.6336  0.4327  0.5571
  379MOL0     H52257   4.317   8.062   1.893 -0.7745  1.7371  4.0625
  379MOL0     H52258   4.573   8.182   1.771  2.9743  1.6853  1.9997
  379MOL0     H52259   4.424   8.271   1.797  0.9345  2.8318  1.8310
  379MOL0     H52260   4.602   8.405   1.714  2.1293 -0.3250  0.1734
  379MOL0     H52261   4.657   8.569   1.585 -0.8629 -2.1477  1.4051
  379MOL0     H52262   4.817   8.653   1.642 -0.5594  0.7271  0.9585
  379MOL0     H52263   4.672   8.735   1.655 -1.2128 -0.3196  1.8564
  379MOL0     H52264   4.687   9.052   2.085  0.8584 -0.7269  0.2993
  379MOL0     H52265   4.787   9.276   2.034 -0.0826  0.1074  2.5234
  379MOL0     H52266   4.919   9.485   1.915  0.1828 -0.2301  2.1599
  379MOL0     H52267   5.096   9.510   1.891  0.2484 -0.1557 -1.3275
  379MOL0     H52268   5.104   9.415   1.688 -0.0658  1.6008 -0.4442
  379MOL0     H52269   4.971   9.311   1.700 -1.4535  0.9104 -1.3377
  379MOL0     H52270   4.949   9.617   1.704  1.0334  0.9120 -0.0955
  379MOL0     H52271   4.816   9.503   1.703  0.2957  0.1247 -0.1460
  379MOL0     H52272   4.910   9.410   1.485 -1.2497  0.4697 -0.8817
  379MOL0     H52273   5.037   9.532   1.485  1.1177 -0.2817  2.2892
  379MOL0     H52274   4.733   9.590   1.504 -0.3559  0.5303  2.0003
  379MOL0     H52275   4.852   9.709   1.515 -2.3151 -0.7802  2.8491
  379MOL0     H52276   4.929   9.697   1.289  0.6945 -0.1558 -1.5486
  379MOL0     H52277   4.753   9.718   1.286  0.3486 -0.3956 -0.0066
  379MOL0     H52278   4.782   9.426   1.282  1.9740 -1.3467 -0.5552
  379MOL0     H52279   4.914   9.497   1.188  0.7787  2.0414  2.2236
  379MOL0     H52280   4.607   9.567   1.166 -1.2254 -3.6700  0.1325
  379MOL0     H52281   4.684   9.448   1.070 -3.2161 -0.3091  0.8922
  379MOL0     H52282   5.169   9.103   1.979  0.3941  3.5089  0.2428
  379MOL0     H52283   5.089   8.891   2.050 -0.6341 -0.4618  1.0388
  379MOL0     H52284   4.763   8.619   2.140 -0.9222  1.0584  0.8445
  379MOL0     H52285   4.633   8.407   2.156 -2.5193 -0.2735 -0.1790
  379MOL0     H52286   4.726   6.757   1.822 -3.8971 -2.8724 -1.9447
  379MOL0     H52287   4.665   6.583   1.979 -0.5456 -0.9006  0.3512
  379MOL0     H52288   4.225   6.621   2.411 -3.4794 -1.5006 -0.9202
  379MOL0     H52289   4.146   6.466   2.585 -0.2185 -1.8943  1.9433
  379MOL0     H52290   4.259   6.059   2.574  0.8671 -0.1393  0.8023
  379MOL0     H52291   4.373   6.090   2.702  1.3959  2.3117 -2.4092
  379MOL0     H52292   4.075   6.049   2.704  0.7854 -1.3715  0.4115
  379MOL0     H52293   4.161   6.131   2.843 -2.0252  1.2481 -0.7295
  379MOL0     H52294   4.213   5.857   2.730 -0.0136  0.4484 -0.8151
  379MOL0     H52295   4.296   5.926   2.873 -0.0863  1.1952 -0.5303
  379MOL0     H52296   4.136   5.743   2.944 -0.7468 -0.5744 -1.2146
  379MOL0     H52297   3.997   5.822   2.859 -1.1929 -1.5524  2.2861
  379MOL0     H52298   4.016   6.058   3.188 -0.6817  1.1197 -0.8726
  379MOL0     H52299   4.449   6.183   2.491 -0.4555  0.3945 -1.3121
  379MOL0     H52300   4.610   6.237   2.318  0.2078  0.3311 -0.3972
  379MOL0     H52301   4.503   6.231   2.176 -1.3990  1.2207  0.1369
  379MOL0     H52302   4.584   6.377   2.203 -1.1462 -0.7085 -2.0856
  380MOL0     O52303   6.762   1.565   5.819 -0.3654 -0.4658 -0.7441
  380MOL0     C52304   6.800   1.670   5.780  0.0894 -0.0441  0.8503
  380MOL0     O52305   6.894   1.748   5.833 -0.8326 -0.0222  0.2021
  380MOL0     C52306   6.959   1.725   5.954  0.2942  0.0448  0.5691
  380MOL0     C52307   7.038   1.831   6.001  0.1231  0.5645  0.9030
  380MOL0     C52308   7.129   1.810   6.111  0.0886  0.9857  0.8063
  380MOL0     C52309   7.133   1.688   6.178  0.6362  0.1776  0.1825
  380MOL0     O52310   7.209   1.675   6.294 -0.0437 -0.3472  0.1340
  380MOL0     C52311   7.213   1.554   6.366  0.4022 -0.6248  0.2091
  380MOL0     C52312   7.290   1.563   6.499  0.0480  0.2570 -0.5202
  380MOL0     C52313   7.443   1.546   6.487 -0.8226 -0.7184  0.3069
  380MOL0     C52314   7.509   1.579   6.621 -0.2628 -0.1067 -0.2016
  380MOL0     C52315   7.658   1.597   6.609  1.2414 -0.3214 -0.2927
  380MOL0     C52316   7.733   1.580   6.739 -0.3127 -0.0660 -0.4166
  380MOL0     C52317   7.665   1.665   6.857  0.0889 -0.7651 -0.2354
  380MOL0     C52318   7.673   1.820   6.840  0.5861 -0.1966 -0.2979
  380MOL0     N52319   7.571   1.885   6.930  0.0816  0.5937  0.1384
  380MOL0     C52320   7.499   1.998   6.906  0.9608 -1.2054  0.0338
  380MOL0     C52321   7.462   2.042   7.028 -0.3618 -0.5098 -0.2635
  380MOL0     C52322   7.408   2.179   7.060 -1.1119 -0.3943 -0.0797
  380MOL0     C52323   7.257   2.185   7.050  0.0613  0.1885  0.4269
  380MOL0     C52324   7.192   2.317   7.100  0.1708  0.0636 -0.0623
  380MOL0     C52325   7.254   2.434   7.023 -0.1029 -0.3947 -0.3379
  380MOL0     O52326   7.228   2.421   6.885  0.5337  0.0880  0.9950
  380MOL0     C52327   7.099   2.420   6.832  0.1192 -0.6611 -0.1001
  380MOL0     C52328   6.975   2.456   6.901 -0.0976 -0.6366 -0.5410
  380MOL0     C52329   6.853   2.436   6.841 -0.0812 -0.1916  0.5497
  380MOL0     C52330   6.732   2.483   6.919 -0.6492  0.0059  0.0558
  380MOL0     C52331   6.839   2.379   6.714 -0.5792 -0.1026  0.3526
  380MOL0     C52332   6.717   2.362   6.627 -0.4844  0.5735  0.6867
  380MOL0     O52333   6.728   2.294   6.509 -0.1372 -0.6207 -0.3219
  380MOL0     C52334   6.621   2.308   6.429 -0.7577 -0.3975 -0.5777
  380MOL0     C52335   6.618   2.409   6.329 -0.3883  1.3792  0.0118
  380MOL0     C52336   6.511   2.409   6.244 -0.1671  0.5105 -0.1204
  380MOL0     C52337   6.396   2.319   6.258  0.0719 -0.4327  0.0786
  380MOL0     O52338   6.303   2.321   6.166  0.5296  0.0514  0.1910
  380MOL0     C52339   6.185   2.239   6.170 -0.5411 -0.4385 -0.2130
  380MOL0     C52340   6.087   2.275   6.058 -1.4642 -0.2592 -0.2764
  380MOL0     C52341   6.132   2.235   5.916  0.2273  0.4258 -0.2989
  380MOL0     C52342   6.094   2.085   5.884  0.4287  0.9551  0.2406
  380MOL0     C52343   6.148   2.047   5.738  0.8188 -0.7671 -0.4427
  380MOL0     C52344   6.114   1.900   5.700  1.2790 -0.3113 -0.3383
  380MOL0     C52345   6.130   1.856   5.555 -0.7999 -0.5641  1.0708
  380MOL0     C52346   6.263   1.895   5.495 -1.2473  0.8514  0.4386
  380MOL0    Cl52347   6.276   1.854   5.330 -0.2241  0.5408  0.0561
  380MOL0     C52348   6.397   2.232   6.366  0.4050 -0.8209 -0.1006
  380MOL0     C52349   6.515   2.219   6.440 -0.3568 -0.4857  0.2103
  380MOL0     O52350   6.616   2.407   6.669  0.2315 -0.0558 -0.7109
  380MOL0     C52351   6.958   2.339   6.653  0.2065  0.9073  0.1494
  380MOL0     C52352   7.083   2.355   6.711 -0.5036 -0.9436  0.5951
  380MOL0     N52353   7.501   1.953   7.126 -0.0769  0.1499 -0.4104
  380MOL0     N52354   7.573   1.861   7.069  0.2791  0.2150  0.8875
  380MOL0     C52355   7.062   1.579   6.123 -0.0124 -0.7587  0.5835
  380MOL0     C52356   6.962   1.607   6.023  0.1863  0.1835 -0.8224
  380MOL0     C52357   6.758   1.702   5.649  0.4678  0.1050  0.2672
  380MOL0     C52358   6.793   1.626   5.543  0.3600  0.1838 -0.3118
  380MOL0     C52359   6.762   1.661   5.410  0.7798 -0.4387 -0.3334
  380MOL0     C52360   6.686   1.766   5.383  0.6046  0.4407 -0.0726
  380MOL0     O52361   6.665   1.816   5.255 -0.9254  0.0319 -0.0798
  380MOL0     C52362   6.647   1.736   5.139  0.2582  0.1552 -0.1817
  380MOL0     C52363   6.492   1.727   5.111 -0.6807 -0.2525 -0.1307
  380MOL0     C52364   6.469   1.676   4.974  0.1006 -0.4152  0.0601
  380MOL0     C52365   6.315   1.648   4.952  0.3174 -0.2014  0.5979
  380MOL0     C52366   6.293   1.643   4.805 -0.6820  1.3912  0.7280
  380MOL0     C52367   6.266   1.631   4.687 -0.1237 -0.4588  0.0842
  380MOL0     C52368   6.634   1.841   5.495  0.3323 -0.9167 -0.3032
  380MOL0     C52369   6.668   1.810   5.625  0.1424 -0.0083 -1.0186
  380MOL0     C52370   6.594   1.888   5.738  1.0538  0.6868  0.1040
  380MOL0     H52371   7.036   1.922   5.942  1.4795 -0.9793 -1.7206
  380MOL0     H52372   7.178   1.890   6.166  2.0254 -0.9308  2.0169
  380MOL0     H52373   7.244   1.474   6.298 -0.9257 -1.0171  0.0270
  380MOL0     H52374   7.111   1.520   6.387  0.7174 -3.3370 -2.0356
  380MOL0     H52375   7.274   1.662   6.543  1.3503 -1.0413  3.3005
  380MOL0     H52376   7.258   1.480   6.563  1.3087  0.0312 -0.1463
  380MOL0     H52377   7.456   1.443   6.454  1.5243 -0.8486  1.4970
  380MOL0     H52378   7.494   1.605   6.410 -1.0404 -1.1159 -0.1489
  380MOL0     H52379   7.480   1.675   6.665 -0.9784 -0.7816  0.8452
  380MOL0     H52380   7.488   1.497   6.691 -2.8098  0.8647  0.2866
  380MOL0     H52381   7.670   1.696   6.564 -0.3403  0.3818  0.7643
  380MOL0     H52382   7.701   1.525   6.538  1.1931  0.2586 -0.9171
  380MOL0     H52383   7.718   1.475   6.766 -1.9398  0.4825  0.9940
  380MOL0     H52384   7.837   1.611   6.727 -0.8571  2.9073  1.5030
  380MOL0     H52385   7.705   1.639   6.956 -0.2211 -0.4212 -0.0163
  380MOL0     H52386   7.558   1.643   6.864 -0.0334 -0.0152  0.4593
  380MOL0     H52387   7.767   1.865   6.874  0.3874 -0.1897  0.2473
  380MOL0     H52388   7.642   1.849   6.738  1.8916  0.0520 -0.6419
  380MOL0     H52389   7.483   2.052   6.813  1.0434 -2.8105 -0.9681
  380MOL0     H52390   7.461   2.252   6.999  0.0051 -0.8254  0.3499
  380MOL0     H52391   7.433   2.199   7.165 -1.4180 -3.1186  0.5963
  380MOL0     H52392   7.216   2.176   6.949 -3.3748  1.7712  1.4991
  380MOL0     H52393   7.215   2.105   7.113  0.2884  0.0019  0.3420
  380MOL0     H52394   7.084   2.304   7.085 -0.1054  0.9407  1.0992
  380MOL0     H52395   7.209   2.324   7.208  0.5460  1.8673 -0.2149
  380MOL0     H52396   7.208   2.525   7.063 -2.9713 -1.4772 -0.9294
  380MOL0     H52397   7.363   2.438   7.024 -0.0285  4.1588 -1.7116
  380MOL0     H52398   6.977   2.502   6.999  1.8362 -0.3154 -0.6875
  380MOL0     H52399   6.659   2.402   6.924 -0.2862 -0.3118  0.2956
  380MOL0     H52400   6.682   2.554   6.853 -1.6772 -0.8435 -0.1007
  380MOL0     H52401   6.741   2.525   7.019 -2.2319 -0.8227  0.5743
  380MOL0     H52402   6.703   2.469   6.298 -0.6739  1.0567 -1.4841
  380MOL0     H52403   6.511   2.459   6.148  2.3157 -2.6855 -2.0164
  380MOL0     H52404   6.216   2.135   6.160  3.5465  0.5838  0.0609
  380MOL0     H52405   6.131   2.260   6.263  1.3185  3.1224  0.2456
  380MOL0     H52406   5.997   2.222   6.091  0.3548 -3.1470  0.4023
  380MOL0     H52407   6.056   2.380   6.050  0.8078  0.5913  1.1814
  380MOL0     H52408   6.241   2.239   5.911  0.3632 -1.8172 -0.2652
  380MOL0     H52409   6.082   2.304   5.846 -0.7216  0.1598  0.1016
  380MOL0     H52410   5.985   2.074   5.886  0.3030  0.8820 -2.6366
  380MOL0     H52411   6.127   2.015   5.961 -1.9604  1.0378  1.4289
  380MOL0     H52412   6.117   2.118   5.661  1.6266  1.0249  0.8170
  380MOL0     H52413   6.256   2.061   5.732  0.7510 -0.1858 -0.3261
  380MOL0     H52414   6.007   1.895   5.722  0.3051  3.0731 -3.2595
  380MOL0     H52415   6.175   1.831   5.759  1.7793  1.4253  1.3130
  380MOL0     H52416   6.041   1.899   5.508 -1.3273 -0.1913  2.3666
  380MOL0     H52417   6.114   1.748   5.545 -3.4156 -0.2643  1.2651
  380MOL0     H52418   6.336   1.839   5.554 -1.4317  0.9068  0.7193
  380MOL0     H52419   6.284   2.003   5.501  2.8678  0.1165  2.9816
  380MOL0     H52420   6.317   2.169   6.402  1.4763 -1.1863  1.7867
  380MOL0     H52421   6.515   2.142   6.517  1.2457 -0.3505  0.3960
  380MOL0     H52422   6.950   2.288   6.558 -1.4379 -1.0203  1.2603
  380MOL0     H52423   7.174   2.347   6.652  0.0124  5.6079 -0.2874
  380MOL0     H52424   7.062   1.476   6.158 -2.6221 -1.0616 -0.0766
  380MOL0     H52425   6.902   1.523   5.989  2.2506 -1.2781 -1.1213
  380MOL0     H52426   6.836   1.531   5.572 -1.2520  0.7756  5.2416
  380MOL0     H52427   6.818   1.609   5.332  2.0610  1.1258 -0.5209
  380MOL0     H52428   6.696   1.762   5.045 -0.6971 -0.6349 -0.9214
  380MOL0     H52429   6.677   1.631   5.147 -0.5596 -0.2110 -1.7133
  380MOL0     H52430   6.468   1.833   5.113  2.2676  0.5203  2.2841
  380MOL0     H52431   6.439   1.661   5.180 -0.8355 -0.0885 -0.0940
  380MOL0     H52432   6.493   1.752   4.900 -2.1243  1.7245  1.3447
  380MOL0     H52433   6.527   1.583   4.966 -1.0552 -1.2599  1.0499
  380MOL0     H52434   6.260   1.738   4.981 -1.7034 -1.0061 -0.5524
  380MOL0     H52435   6.279   1.561   5.006 -1.5665  1.1093  1.5570
  380MOL0     H52436   6.255   1.636   4.581 -3.8169 -2.3168  0.2450
  380MOL0     H52437   6.567   1.925   5.483 -2.5149 -2.7967  1.3477
  380MOL0     H52438   6.575   1.993   5.712 -0.5404  0.6982  1.1804
  380MOL0     H52439   6.498   1.837   5.751  1.9281 -1.2878 -0.8658
  380MOL0     H52440   6.645   1.885   5.834 -0.2186  1.8512  0.8587
  381MOL0     O52441  10.293   9.492   2.561 -0.8050 -0.1067 -0.1304
  381MOL0     C52442  10.308   9.544   2.666  0.5928 -1.1020 -0.1425
  381MOL0     O52443  10.409   9.518   2.747  0.3714  0.3214  0.1540
  381MOL0     C52444  10.525   9.475   2.694 -0.7734 -0.2558 -0.4598
  381MOL0     C52445  10.612   9.413   2.792 -0.4885 -1.1302 -0.4664
  381MOL0     C52446  10.743   9.361   2.760  0.0674  0.3523 -0.4245
  381MOL0     C52447  10.791   9.386   2.628  0.4955  0.0961  0.2562
  381MOL0     O52448  10.919   9.348   2.595  0.2000 -0.0957  1.0526
  381MOL0     C52449  11.029   9.380   2.691  0.3051 -0.2978 -0.0526
  381MOL0     C52450  11.119   9.497   2.626 -0.3738 -0.0279  0.4364
  381MOL0     C52451  11.072   9.645   2.634  0.4671 -0.6233 -0.4943
  381MOL0     C52452  11.157   9.719   2.533  0.0814 -0.3802  0.0733
  381MOL0     C52453  11.091   9.729   2.397 -0.3525  0.4203 -0.0975
  381MOL0     C52454  11.172   9.780   2.280 -0.7608  0.2221  0.1902
  381MOL0     C52455  11.263   9.896   2.284 -0.3359  0.0628 -0.2609
  381MOL0     C52456  11.180  10.020   2.290 -0.0821 -0.2366  0.5741
  381MOL0     N52457  11.252  10.147   2.321  0.2103  0.2114 -0.0725
  381MOL0     C52458  11.205  10.256   2.382 -0.2624 -0.3126 -0.6365
  381MOL0     C52459  11.312  10.335   2.394 -1.5510 -0.2181  0.2112
  381MOL0     C52460  11.311  10.486   2.430  0.1921  0.0875 -0.0478
  381MOL0     C52461  11.395  10.511   2.550 -0.0943 -0.9823 -0.5141
  381MOL0     C52462  11.374  10.652   2.607 -0.4190 -0.2235 -0.1111
  381MOL0     C52463  11.246  10.668   2.694  0.4090  1.3425 -1.2388
  381MOL0     O52464  11.273  10.593   2.816  0.0280 -0.2692 -0.3409
  381MOL0     C52465  11.168  10.564   2.911  0.7525 -0.2728  0.5806
  381MOL0     C52466  11.040  10.642   2.920  0.2464  0.3617 -0.5355
  381MOL0     C52467  10.942  10.607   3.006  0.0893  0.6112 -1.1695
  381MOL0     C52468  10.832  10.703   3.026 -0.0693 -0.8362 -0.4738
  381MOL0     C52469  10.967  10.495   3.087  0.2704 -0.4396 -0.4836
  381MOL0     C52470  10.863  10.458   3.188 -0.6690 -0.3834 -0.3801
  381MOL0     O52471  10.813  10.556   3.268  0.0216  0.1846  0.5203
  381MOL0     C52472  10.722  10.517   3.365 -0.1816  0.0358  0.6199
  381MOL0     C52473  10.746  10.431   3.473  1.1289  0.6545  0.5038
  381MOL0     C52474  10.644  10.406   3.576 -0.8494 -0.4041  0.1926
  381MOL0     C52475  10.511  10.464   3.555 -0.2376  0.5201 -0.6908
  381MOL0     O52476  10.435  10.428   3.661 -0.4064 -0.2389  0.4937
  381MOL0     C52477  10.322  10.510   3.682  0.1089  0.5599  0.0457
  381MOL0     C52478  10.281  10.481   3.819 -0.0292 -0.0455 -0.4712
  381MOL0     C52479  10.152  10.552   3.857  1.0349 -0.1801  0.4343
  381MOL0     C52480  10.127  10.546   4.010 -1.2139 -0.7474  0.0436
  381MOL0     C52481  10.001  10.620   4.047  0.3321  0.4543 -0.4202
  381MOL0     C52482   9.996  10.657   4.186  0.7149  0.4650 -0.0982
  381MOL0     C52483   9.867  10.737   4.229  0.1259  0.1908  0.2336
  381MOL0     C52484   9.737  10.653   4.218 -0.2279  0.7916  0.4974
  381MOL0    Cl52485   9.736  10.514   4.340  0.2624  0.3025 -0.2920
  381MOL0     C52486  10.484  10.541   3.442 -0.7512 -0.6085  0.5574
  381MOL0     C52487  10.584  10.562   3.346  0.6118  0.8916 -0.4079
  381MOL0     O52488  10.837  10.343   3.192  0.5850  0.5907  0.0887
  381MOL0     C52489  11.090  10.423   3.088  0.5969  0.2352  0.3724
  381MOL0     C52490  11.192  10.462   3.004 -0.0618  0.0903  0.3014
  381MOL0     N52491  11.426  10.263   2.355 -0.1571  0.0685 -0.4375
  381MOL0     N52492  11.385  10.153   2.309 -0.1515  0.0987 -0.1083
  381MOL0     C52493  10.716   9.449   2.535 -0.2220  0.3909 -0.2507
  381MOL0     C52494  10.584   9.496   2.566 -0.3305 -0.0558 -0.8666
  381MOL0     C52495  10.189   9.625   2.715  0.0309  0.0319 -0.9638
  381MOL0     C52496  10.124   9.699   2.624 -1.0370  0.0260  0.3061
  381MOL0     C52497  10.017   9.786   2.653 -1.2503  0.4084 -0.4028
  381MOL0     C52498   9.974   9.794   2.783  0.1041  0.4766 -0.4488
  381MOL0     O52499   9.868   9.867   2.826  0.5770  0.5813 -0.3853
  381MOL0     C52500   9.774   9.927   2.724  0.4103 -0.1222 -0.0978
  381MOL0     C52501   9.694  10.037   2.794 -0.4719 -0.5242  0.6993
  381MOL0     C52502   9.617  10.137   2.700 -0.4752 -0.1071 -0.3093
  381MOL0     C52503   9.462  10.111   2.701 -0.1982  0.2618  0.4279
  381MOL0     C52504   9.409  10.171   2.579  0.7653  0.4579 -0.1109
  381MOL0     C52505   9.372  10.225   2.473 -0.2907 -0.3800  0.2395
  381MOL0     C52506  10.037   9.716   2.886  0.0030 -0.8641  0.3601
  381MOL0     C52507  10.139   9.631   2.850  0.1637 -0.8360  0.7742
  381MOL0     C52508  10.186   9.544   2.957 -0.7730 -0.1200  0.1069
  381MOL0     H52509  10.572   9.398   2.892 -0.8978  0.1117 -0.4195
  381MOL0     H52510  10.799   9.300   2.830  0.1660  0.6468 -0.2420
  381MOL0     H52511  11.092   9.291   2.702  1.3330 -0.0808 -3.1435
  381MOL0     H52512  10.987   9.402   2.790  2.7387 -2.7974  1.6891
  381MOL0     H52513  11.221   9.494   2.666 -0.0841 -1.8458 -0.3093
  381MOL0     H52514  11.117   9.473   2.520 -0.4423 -2.4085  0.9155
  381MOL0     H52515  10.969   9.675   2.612  0.0342 -1.2519  0.6083
  381MOL0     H52516  11.099   9.687   2.731 -1.2897  1.4083 -0.8100
  381MOL0     H52517  11.165   9.822   2.568  2.2572 -0.2074 -0.7880
  381MOL0     H52518  11.259   9.680   2.538  0.6548  1.2214  4.0165
  381MOL0     H52519  10.999   9.789   2.406 -1.7775 -1.6553 -0.1823
  381MOL0     H52520  11.054   9.630   2.370  0.0210  0.8467 -2.3911
  381MOL0     H52521  11.245   9.700   2.266 -1.5516 -0.1962 -1.8291
  381MOL0     H52522  11.101   9.788   2.197 -1.2741 -2.2019  0.3400
  381MOL0     H52523  11.318   9.909   2.190 -2.5889  1.6326 -1.4451
  381MOL0     H52524  11.323   9.885   2.375 -1.2633 -0.5661  0.2936
  381MOL0     H52525  11.131  10.036   2.193  1.0564  0.4764  0.0970
  381MOL0     H52526  11.100  10.010   2.364 -1.4366 -2.5833 -1.0431
  381MOL0     H52527  11.103  10.285   2.404 -0.5666 -1.0934 -0.9741
  381MOL0     H52528  11.206  10.506   2.452 -0.0597  0.3102 -1.3896
  381MOL0     H52529  11.341  10.559   2.354 -1.2041  1.2487  0.4823
  381MOL0     H52530  11.356  10.441   2.625 -0.6112 -0.3251 -0.1526
  381MOL0     H52531  11.502  10.502   2.533 -0.0770  0.8303 -1.6525
  381MOL0     H52532  11.461  10.680   2.667  0.5167 -3.7569  0.3655
  381MOL0     H52533  11.374  10.720   2.522 -0.9714 -0.8522 -0.6228
  381MOL0     H52534  11.241  10.773   2.724  1.7624  1.1741 -0.3420
  381MOL0     H52535  11.157  10.622   2.651  0.4603  1.1506 -1.1401
  381MOL0     H52536  11.004  10.709   2.841 -0.6812 -1.1135 -1.4148
  381MOL0     H52537  10.736  10.650   3.033 -0.8166  0.5747  0.7969
  381MOL0     H52538  10.830  10.787   2.955 -4.9239  1.4178  1.7737
  381MOL0     H52539  10.842  10.755   3.122 -1.7752 -0.8504 -0.2464
  381MOL0     H52540  10.841  10.379   3.476  0.9840 -0.1553 -3.4181
  381MOL0     H52541  10.653  10.334   3.657  1.4268 -2.2908 -1.5632
  381MOL0     H52542  10.338  10.617   3.667 -3.9305  1.3427  0.2651
  381MOL0     H52543  10.247  10.479   3.609  1.5074  0.9646 -1.6289
  381MOL0     H52544  10.275  10.380   3.859 -1.1232  0.3968  0.5468
  381MOL0     H52545  10.369  10.514   3.875  0.5236 -1.5489 -0.4169
  381MOL0     H52546  10.067  10.509   3.804 -0.5601  2.1548  0.9262
  381MOL0     H52547  10.143  10.654   3.817 -2.1205 -0.4775  0.1761
  381MOL0     H52548  10.215  10.593   4.055  0.1312 -1.5295 -1.6679
  381MOL0     H52549  10.115  10.448   4.057 -1.3761 -0.7835 -0.0678
  381MOL0     H52550   9.985  10.715   3.995  2.3769  0.6953 -0.6822
  381MOL0     H52551   9.920  10.552   4.019  0.5215  0.0451  0.0124
  381MOL0     H52552  10.081  10.725   4.192 -0.3480  1.8848 -0.8207
  381MOL0     H52553  10.020  10.574   4.255 -1.1286  0.5616  0.7175
  381MOL0     H52554   9.859  10.831   4.174 -1.9888 -0.2141 -0.2068
  381MOL0     H52555   9.875  10.767   4.334  0.6271  1.0056 -0.0288
  381MOL0     H52556   9.734  10.621   4.114 -1.2500  0.8551  0.4941
  381MOL0     H52557   9.647  10.713   4.234 -0.8930 -0.5109  1.8520
  381MOL0     H52558  10.390  10.586   3.414 -0.1705  1.0819  1.1760
  381MOL0     H52559  10.541  10.613   3.261 -0.2012 -0.3674 -0.7890
  381MOL0     H52560  11.119  10.341   3.153 -1.7483 -1.6625 -0.8237
  381MOL0     H52561  11.280  10.400   2.992  1.6078  2.1285  1.2755
  381MOL0     H52562  10.751   9.449   2.432 -3.2902 -1.1797 -1.4365
  381MOL0     H52563  10.522   9.551   2.496 -0.6262  1.4390  0.4935
  381MOL0     H52564  10.162   9.702   2.523  0.7020 -1.0984  0.8772
  381MOL0     H52565   9.976   9.827   2.561  0.8089 -1.0622 -2.0595
  381MOL0     H52566   9.827   9.969   2.638  0.0260 -1.3562 -0.9692
  381MOL0     H52567   9.704   9.853   2.685  2.2426 -2.1232  0.2372
  381MOL0     H52568   9.762  10.100   2.853  0.2857 -0.6462 -0.0357
  381MOL0     H52569   9.615   9.988   2.852 -1.4892 -0.9459 -0.9707
  381MOL0     H52570   9.629  10.241   2.733 -0.2537  0.8163 -3.0620
  381MOL0     H52571   9.644  10.144   2.594  1.1319 -0.5063  0.0324
  381MOL0     H52572   9.419  10.157   2.791 -1.8923 -1.3059  0.4841
  381MOL0     H52573   9.439  10.004   2.693  0.3387  0.1087  0.9215
  381MOL0     H52574   9.330  10.282   2.392  1.6310  3.2323  1.5810
  381MOL0     H52575   9.985   9.715   2.981 -2.3143  2.7256 -0.6671
  381MOL0     H52576  10.165   9.588   3.054 -0.9135  1.3822 -0.5745
  381MOL0     H52577  10.135   9.448   2.945 -0.2381 -0.3566 -0.3074
  381MOL0     H52578  10.293   9.523   2.962 -0.9663 -1.0540  0.6483
  382MOL0     O52579  10.982   6.741   2.843 -0.0688  0.4359 -0.2507
  382MOL0     C52580  10.921   6.808   2.922 -0.8587 -0.0945 -0.9672
  382MOL0     O52581  10.972   6.845   3.044  0.1646 -0.3163  0.0966
  382MOL0     C52582  11.059   6.746   3.097  0.4040  0.2137  0.0642
  382MOL0     C52583  11.037   6.603   3.096 -0.6240 -0.1905 -1.1833
  382MOL0     C52584  11.128   6.521   3.158 -0.6002  0.9425 -0.1697
  382MOL0     C52585  11.247   6.567   3.226  0.8447  0.3874 -0.3110
  382MOL0     O52586  11.343   6.483   3.272  0.4007 -0.0430  0.8626
  382MOL0     C52587  11.450   6.463   3.180 -0.2766 -0.2148  0.4338
  382MOL0     C52588  11.444   6.316   3.147  0.3151  0.6527 -0.3963
  382MOL0     C52589  11.564   6.261   3.072 -0.3874  0.3015 -1.0060
  382MOL0     C52590  11.691   6.256   3.145 -0.4108  0.3357  0.4533
  382MOL0     C52591  11.794   6.380   3.122  0.4341  0.1292  0.6629
  382MOL0     C52592  11.922   6.356   3.198 -0.2378 -0.5317 -1.2464
  382MOL0     C52593  12.033   6.464   3.170  0.9922  0.1308 -1.1149
  382MOL0     C52594  12.073   6.488   3.024  0.0110  1.2814  0.2306
  382MOL0     N52595  12.204   6.564   3.011 -0.1998 -0.0881  0.1103
  382MOL0     C52596  12.321   6.523   2.950 -0.0430  0.6595 -0.1296
  382MOL0     C52597  12.396   6.637   2.939  0.1962  0.3741  0.3328
  382MOL0     C52598  12.524   6.668   2.860  0.1607  0.3647  0.3396
  382MOL0     C52599  12.578   6.528   2.822 -0.8032  0.2652 -0.0493
  382MOL0     C52600  12.718   6.558   2.752 -0.0904 -0.5993 -0.0892
  382MOL0     C52601  12.794   6.432   2.713  0.2956 -0.2997  0.7408
  382MOL0     O52602  12.789   6.330   2.815 -0.4407 -0.1629 -0.1137
  382MOL0     C52603  12.844   6.209   2.791 -0.2412  0.7739 -0.0917
  382MOL0     C52604  12.901   6.125   2.893 -0.1375 -0.0968 -0.3273
  382MOL0     C52605  12.967   6.005   2.863  0.7345 -0.0405  0.1211
  382MOL0     C52606  13.030   5.936   2.981 -0.2837  0.5837 -0.7726
  382MOL0     C52607  12.962   5.949   2.734 -0.8038 -0.3655  0.8046
  382MOL0     C52608  12.972   5.801   2.706 -0.2817  0.2561  0.1026
  382MOL0     O52609  12.972   5.758   2.578  0.8355 -0.5864  0.1424
  382MOL0     C52610  13.031   5.638   2.548 -1.0218 -0.1920  0.4314
  382MOL0     C52611  13.164   5.595   2.578 -1.0456 -0.0659  0.1068
  382MOL0     C52612  13.222   5.467   2.546 -0.1140 -0.7287 -0.4857
  382MOL0     C52613  13.137   5.369   2.495  0.5527  0.4346  0.6434
  382MOL0     O52614  13.189   5.239   2.467 -0.0837  0.6912 -0.2751
  382MOL0     C52615  13.114   5.114   2.469 -1.2841  0.9888 -0.4498
  382MOL0     C52616  13.060   5.101   2.615  0.0689  0.2896  0.1641
  382MOL0     C52617  12.908   5.084   2.616  0.7652 -0.3893 -0.2928
  382MOL0     C52618  12.856   5.021   2.746  0.4107  0.5172  0.2252
  382MOL0     C52619  12.707   5.013   2.733 -0.4192  0.1440 -0.7515
  382MOL0     C52620  12.636   4.960   2.855 -0.0471  0.5629  0.1243
  382MOL0     C52621  12.635   5.063   2.974  0.1858 -0.5713  0.1685
  382MOL0     C52622  12.552   5.014   3.090  0.1836 -0.2570  0.3033
  382MOL0    Cl52623  12.651   4.885   3.172 -0.3533  0.1548  0.3532
  382MOL0     C52624  13.008   5.406   2.460 -1.0965  0.9542  0.2189
  382MOL0     C52625  12.961   5.533   2.494 -0.2663 -0.8050 -0.7723
  382MOL0     O52626  12.974   5.718   2.799 -0.2696 -0.4575 -0.4760
  382MOL0     C52627  12.916   6.031   2.634 -0.5726  0.1267  0.9671
  382MOL0     C52628  12.861   6.161   2.661 -0.0256  0.6776 -0.4329
  382MOL0     N52629  12.321   6.738   3.003  0.3037 -0.3443  0.3200
  382MOL0     N52630  12.216   6.687   3.048 -0.0047 -0.1556 -0.0706
  382MOL0     C52631  11.265   6.710   3.226 -0.3714 -0.3480  0.3997
  382MOL0     C52632  11.171   6.795   3.167 -0.7740 -0.0437  0.4096
  382MOL0     C52633  10.789   6.863   2.892  0.7967 -1.0542 -0.9945
  382MOL0     C52634  10.703   6.886   3.005 -0.5257  0.5359  0.4437
  382MOL0     C52635  10.579   6.931   2.990 -0.2223 -0.3791  0.1842
  382MOL0     C52636  10.522   6.938   2.856  0.0879  0.6861 -0.7659
  382MOL0     O52637  10.390   6.971   2.853  0.1833 -0.1070 -0.1890
  382MOL0     C52638  10.357   7.080   2.765 -0.3391  1.0082  0.1695
  382MOL0     C52639  10.229   7.137   2.804  0.5277 -0.0412 -0.2202
  382MOL0     C52640  10.120   7.024   2.807 -0.2328 -0.0751  0.2811
  382MOL0     C52641   9.980   7.076   2.738  0.0009 -0.0510 -0.7459
  382MOL0     C52642   9.989   7.088   2.592 -1.0087  0.6137 -0.2087
  382MOL0     C52643  10.001   7.093   2.473  1.0264 -0.4558  0.2339
  382MOL0     C52644  10.596   6.910   2.753  0.2179  0.1425  1.0964
  382MOL0     C52645  10.729   6.875   2.763  0.8905 -0.4250  0.0112
  382MOL0     C52646  10.810   6.845   2.634  0.4487 -0.0733  0.1739
  382MOL0     H52647  10.942   6.563   3.063 -1.1306 -1.2500  1.2803
  382MOL0     H52648  11.113   6.413   3.154  2.5173  0.3848  0.2061
  382MOL0     H52649  11.548   6.474   3.228  1.8559  1.9685 -3.8928
  382MOL0     H52650  11.442   6.518   3.087 -0.5840 -2.5012 -0.9727
  382MOL0     H52651  11.441   6.271   3.246 -0.8242 -0.0545 -0.7250
  382MOL0     H52652  11.352   6.289   3.094 -0.4541  0.8163  0.8050
  382MOL0     H52653  11.545   6.157   3.045 -1.5147 -0.5864  2.6756
  382MOL0     H52654  11.576   6.319   2.980 -2.2523  2.2240 -0.1249
  382MOL0     H52655  11.682   6.240   3.253 -3.3297  0.2397  0.2727
  382MOL0     H52656  11.742   6.169   3.102  0.7138  0.2092  1.9516
  382MOL0     H52657  11.749   6.475   3.155 -1.4596  1.1222 -3.9908
  382MOL0     H52658  11.820   6.399   3.017 -0.3646 -0.0903  0.4185
  382MOL0     H52659  11.914   6.365   3.307  0.5388 -1.1685 -1.1223
  382MOL0     H52660  11.964   6.255   3.190  2.7148  0.5034 -0.4699
  382MOL0     H52661  12.122   6.430   3.222  0.8108  1.2041 -0.0528
  382MOL0     H52662  12.017   6.565   3.208  1.4327  0.2309 -1.1929
  382MOL0     H52663  12.090   6.390   2.979  1.2290  1.0725  1.0878
  382MOL0     H52664  11.999   6.551   2.973  0.2742  1.5528  0.1801
  382MOL0     H52665  12.338   6.427   2.903 -0.6774  0.7106 -0.4801
  382MOL0     H52666  12.593   6.716   2.930 -2.5882  2.7637  1.6246
  382MOL0     H52667  12.510   6.733   2.774  3.6362  0.8361  0.0036
  382MOL0     H52668  12.604   6.472   2.912  1.0906  0.5801 -0.3546
  382MOL0     H52669  12.517   6.463   2.759  0.3196  0.0793 -0.9833
  382MOL0     H52670  12.709   6.626   2.667  0.5377 -1.4370 -0.8434
  382MOL0     H52671  12.785   6.609   2.822 -1.3863  2.4898 -0.9441
  382MOL0     H52672  12.738   6.411   2.622  0.2699  1.2123  0.3715
  382MOL0     H52673  12.898   6.453   2.684 -1.0291  1.6714 -3.3689
  382MOL0     H52674  12.905   6.162   2.995  0.0864  0.1633 -0.4324
  382MOL0     H52675  13.128   5.896   2.953 -0.4433 -0.6079  0.3029
  382MOL0     H52676  12.967   5.853   3.014  0.9377 -0.6646 -1.4492
  382MOL0     H52677  13.039   6.001   3.068  1.4956 -0.8970  0.2190
  382MOL0     H52678  13.221   5.667   2.636 -0.3760 -1.5806  1.4172
  382MOL0     H52679  13.325   5.442   2.572  0.1779  1.2812  0.4866
  382MOL0     H52680  13.042   5.095   2.389 -1.2937  0.5302 -0.3365
  382MOL0     H52681  13.186   5.032   2.459 -0.6291  1.0035  2.8966
  382MOL0     H52682  13.096   5.008   2.659 -0.2327 -0.3305 -0.8747
  382MOL0     H52683  13.084   5.184   2.682 -4.4148  1.9590  0.0371
  382MOL0     H52684  12.870   5.036   2.525 -3.4372  0.7905  0.5790
  382MOL0     H52685  12.866   5.184   2.607 -1.3327 -1.1691  0.1011
  382MOL0     H52686  12.864   5.079   2.838 -0.3729 -1.0336  1.3299
  382MOL0     H52687  12.911   4.928   2.763  2.6220  1.4579 -1.3312
  382MOL0     H52688  12.672   5.113   2.705  0.0381  0.0760 -1.6015
  382MOL0     H52689  12.694   4.945   2.648 -2.4494  0.2931 -0.6059
  382MOL0     H52690  12.674   4.861   2.882  0.4986  1.1957  1.7908
  382MOL0     H52691  12.532   4.937   2.829  0.1975  0.1059 -0.4762
  382MOL0     H52692  12.584   5.150   2.933 -2.0319 -2.2036 -0.8089
  382MOL0     H52693  12.735   5.102   2.993  0.4780 -0.5566 -1.3055
  382MOL0     H52694  12.460   4.969   3.052 -0.3990  2.5877 -1.9942
  382MOL0     H52695  12.527   5.092   3.162 -1.0961 -0.7739  0.4468
  382MOL0     H52696  12.937   5.331   2.428 -2.9799  2.9385 -0.5342
  382MOL0     H52697  12.856   5.557   2.499  0.0787  0.5127  1.6254
  382MOL0     H52698  12.898   6.003   2.531  2.7672  2.6091 -0.4820
  382MOL0     H52699  12.811   6.210   2.579 -1.4753 -1.5891 -0.9799
  382MOL0     H52700  11.355   6.745   3.275  1.7633 -3.9235 -0.6792
  382MOL0     H52701  11.201   6.900   3.172  2.2496 -0.2827 -4.9727
  382MOL0     H52702  10.732   6.861   3.107 -0.5568  1.7248  0.7606
  382MOL0     H52703  10.518   6.955   3.077 -1.8184  4.4426 -1.8939
  382MOL0     H52704  10.424   7.165   2.747  0.5169  0.3728  0.2814
  382MOL0     H52705  10.350   7.042   2.663  0.4406  0.4977  0.2949
  382MOL0     H52706  10.201   7.224   2.745  0.5356 -0.1688 -0.4119
  382MOL0     H52707  10.219   7.176   2.906 -2.6547  2.8577 -1.4535
  382MOL0     H52708  10.143   6.927   2.763 -0.9758 -0.0543 -0.1728
  382MOL0     H52709  10.083   7.004   2.908 -2.7030 -3.4469 -1.1015
  382MOL0     H52710   9.946   7.170   2.783 -0.4289 -0.0823 -1.0014
  382MOL0     H52711   9.899   7.006   2.761  1.3766 -1.4912 -0.1276
  382MOL0     H52712   9.996   7.088   2.366 -3.2005  0.8965  0.1716
  382MOL0     H52713  10.554   6.900   2.653  0.5955  2.2762  0.6747
  382MOL0     H52714  10.907   6.895   2.647  0.1697  1.0248 -1.6345
  382MOL0     H52715  10.829   6.739   2.615 -1.4178 -0.4720  0.3333
  382MOL0     H52716  10.763   6.879   2.542  0.6448  2.7502  1.0233
  383MOL0     O52717   9.485   6.994   8.854 -0.5074 -0.1205 -0.5983
  383MOL0     C52718   9.444   7.104   8.888 -0.0369 -0.4788  0.2056
  383MOL0     O52719   9.398   7.141   9.007 -0.7412  0.0105  1.0531
  383MOL0     C52720   9.387   7.038   9.100  0.0378  1.3421  0.3608
  383MOL0     C52721   9.500   6.972   9.151 -0.2038 -0.3680  0.2901
  383MOL0     C52722   9.486   6.883   9.254  0.6152  0.0914 -0.4234
  383MOL0     C52723   9.363   6.842   9.301 -0.5211 -1.5658 -0.0946
  383MOL0     O52724   9.376   6.753   9.398 -0.3793  0.3688 -0.0131
  383MOL0     C52725   9.266   6.710   9.478 -0.4407 -0.8834 -0.2782
  383MOL0     C52726   9.310   6.625   9.606  0.3735  0.0421  0.7595
  383MOL0     C52727   9.401   6.691   9.702 -0.5751 -0.0437 -0.6585
  383MOL0     C52728   9.367   6.692   9.855  0.2209 -1.0520  0.0979
  383MOL0     C52729   9.332   6.553   9.920 -0.0813  0.4905  0.2806
  383MOL0     C52730   9.457   6.454   9.896  0.1651  0.0488 -0.4085
  383MOL0     C52731   9.410   6.314   9.956  0.7820 -0.4039 -0.6098
  383MOL0     C52732   9.515   6.207   9.990 -0.3085 -0.1554 -0.1365
  383MOL0     N52733   9.460   6.096  10.063  0.4755 -0.9352 -0.8042
  383MOL0     C52734   9.454   6.094  10.199 -0.3152  0.0600 -0.5196
  383MOL0     C52735   9.397   5.978  10.231  0.9978  0.5493  0.1956
  383MOL0     C52736   9.350   5.920  10.363 -0.3980 -1.4562  0.8519
  383MOL0     C52737   9.475   5.881  10.453  0.3087 -0.1668 -0.2900
  383MOL0     C52738   9.529   5.993  10.554 -0.9538  0.6920 -0.6677
  383MOL0     C52739   9.597   5.918  10.667 -0.2583 -0.7294  1.1461
  383MOL0     O52740   9.716   5.855  10.630 -0.0247 -0.7126  0.0763
  383MOL0     C52741   9.789   5.831  10.743 -0.1652 -0.3862 -0.4663
  383MOL0     C52742   9.757   5.730  10.826 -0.6604 -0.3795 -0.8533
  383MOL0     C52743   9.837   5.697  10.940 -0.3875  0.1145 -0.3621
  383MOL0     C52744   9.800   5.576  11.018 -0.3996 -1.2834 -0.1486
  383MOL0     C52745   9.940   5.783  10.982  0.2971  0.0429  0.5367
  383MOL0     C52746  10.026   5.769  11.108 -0.0296 -0.8367  0.7407
  383MOL0     O52747  10.102   5.882  11.159  0.1588  0.4075 -0.3025
  383MOL0     C52748  10.205   5.848  11.252 -0.2803  0.4964  0.3341
  383MOL0     C52749  10.335   5.835  11.203  0.1608  0.9198 -0.1274
  383MOL0     C52750  10.435   5.791  11.297 -0.5281 -0.0117 -0.0344
  383MOL0     C52751  10.410   5.764  11.436  0.7114  0.4200  0.5040
  383MOL0     O52752  10.504   5.743  11.534  0.0312  1.2996  0.2167
  383MOL0     C52753  10.616   5.661  11.482 -0.1972  0.0287 -0.0924
  383MOL0     C52754  10.698   5.602  11.598  0.5172  0.6133 -0.3642
  383MOL0     C52755  10.820   5.515  11.554  0.9263  0.4297 -0.0225
  383MOL0     C52756  10.915   5.559  11.441  0.3784 -0.0417 -0.3808
  383MOL0     C52757  11.034   5.463  11.418 -0.3477 -0.1373  0.9659
  383MOL0     C52758  11.107   5.475  11.276  0.7320  0.6853  0.2021
  383MOL0     C52759  11.034   5.419  11.157  0.3034  0.2132  0.5596
  383MOL0     C52760  11.095   5.456  11.020 -0.2856 -0.1867 -0.2202
  383MOL0    Cl52761  11.259   5.383  11.029  0.2070 -0.2110 -0.0735
  383MOL0     C52762  10.275   5.774  11.468  0.5692  0.5264 -0.7557
  383MOL0     C52763  10.175   5.816  11.385  0.7664  0.3051 -0.2208
  383MOL0     O52764  10.039   5.652  11.144 -0.4650 -0.5649  0.0792
  383MOL0     C52765   9.971   5.895  10.893  0.7162 -0.1137 -0.1823
  383MOL0     C52766   9.900   5.914  10.772 -0.1877 -0.6858 -0.0379
  383MOL0     N52767   9.383   5.901  10.111  0.1192 -0.4095 -1.1834
  383MOL0     N52768   9.428   5.972  10.018  0.1755 -0.1095  0.0656
  383MOL0     C52769   9.247   6.884   9.231 -0.5778 -0.7381 -0.1650
  383MOL0     C52770   9.258   6.988   9.140  0.3534 -0.0588  0.8146
  383MOL0     C52771   9.434   7.213   8.790  0.3343 -0.3266  0.3255
  383MOL0     C52772   9.443   7.344   8.832  0.0735  0.5814  0.3111
  383MOL0     C52773   9.455   7.449   8.743  0.1057 -0.6654 -0.5074
  383MOL0     C52774   9.453   7.430   8.607 -0.1654 -0.1346 -0.2241
  383MOL0     O52775   9.458   7.540   8.523  0.2752  0.0557  0.1531
  383MOL0     C52776   9.462   7.539   8.385  0.0312  0.0286 -0.3283
  383MOL0     C52777   9.524   7.680   8.342 -0.9899 -0.1262 -0.2086
  383MOL0     C52778   9.474   7.727   8.203 -0.4787 -0.6315  0.5929
  383MOL0     C52779   9.539   7.868   8.178  0.5470 -0.1304  0.8177
  383MOL0     C52780   9.491   7.921   8.049  0.1034  0.1048 -0.2672
  383MOL0     C52781   9.468   7.963   7.937 -0.2356  0.8068 -0.0467
  383MOL0     C52782   9.429   7.295   8.562 -1.2634 -0.5290  0.0876
  383MOL0     C52783   9.410   7.189   8.656  0.0483  0.2154  0.1368
  383MOL0     C52784   9.373   7.060   8.595  0.0825  0.2023 -0.1568
  383MOL0     H52785   9.597   7.013   9.126 -1.1149  1.8608  0.2169
  383MOL0     H52786   9.569   6.855   9.318 -1.1355 -0.4847  1.7187
  383MOL0     H52787   9.195   6.651   9.420 -2.1540 -1.8177  2.5320
  383MOL0     H52788   9.206   6.797   9.504 -0.1043 -0.7950  0.2363
  383MOL0     H52789   9.221   6.582   9.653  0.1514  0.7048  0.9647
  383MOL0     H52790   9.363   6.539   9.563 -0.8109 -1.0683  1.4487
  383MOL0     H52791   9.503   6.654   9.683 -1.3192 -1.5756 -1.8988
  383MOL0     H52792   9.393   6.797   9.673 -0.0041 -0.4633 -2.4604
  383MOL0     H52793   9.453   6.734   9.908 -0.7903  0.8420  0.3209
  383MOL0     H52794   9.283   6.761   9.862 -0.1260 -1.3958 -0.5639
  383MOL0     H52795   9.249   6.522   9.855 -0.7711  3.1572 -0.1990
  383MOL0     H52796   9.311   6.568  10.026  1.6238  1.3652  0.5308
  383MOL0     H52797   9.467   6.444   9.788 -1.5569  0.6775 -0.6507
  383MOL0     H52798   9.553   6.487   9.938  1.1634  2.2418 -3.9698
  383MOL0     H52799   9.333   6.267   9.894  1.2169  0.5448 -1.9140
  383MOL0     H52800   9.349   6.339  10.044  0.5058  1.2232 -1.2128
  383MOL0     H52801   9.553   6.167   9.896 -1.9519 -1.4355 -0.2931
  383MOL0     H52802   9.590   6.260  10.050  0.2716 -0.4096 -0.6313
  383MOL0     H52803   9.483   6.164  10.276  1.3206  0.7036 -1.6763
  383MOL0     H52804   9.285   5.839  10.328  2.0605 -2.1356 -2.7103
  383MOL0     H52805   9.298   5.995  10.423  2.5606  1.2311  0.3218
  383MOL0     H52806   9.435   5.803  10.518  1.3297  0.5628  1.2949
  383MOL0     H52807   9.566   5.842  10.406  0.8219 -0.0875  0.6122
  383MOL0     H52808   9.601   6.056  10.500  0.6559  0.1643  0.7828
  383MOL0     H52809   9.441   6.044  10.594 -0.3005  3.0973 -2.1070
  383MOL0     H52810   9.623   5.989  10.746 -1.1397  2.5487 -1.2952
  383MOL0     H52811   9.523   5.842  10.697 -3.8507  2.1536  0.3962
  383MOL0     H52812   9.685   5.653  10.798  1.7126 -2.9006 -0.4397
  383MOL0     H52813   9.708   5.523  10.990 -0.7531 -1.8346  1.9327
  383MOL0     H52814   9.787   5.605  11.122  1.7693 -3.5698  0.8522
  383MOL0     H52815   9.882   5.504  11.020 -0.5898 -1.4911  0.4347
  383MOL0     H52816  10.351   5.853  11.097 -1.1340 -1.8456 -0.8813
  383MOL0     H52817  10.536   5.793  11.258 -0.3560  0.4556  0.4165
  383MOL0     H52818  10.587   5.574  11.423  1.7623 -0.2179 -0.7605
  383MOL0     H52819  10.685   5.719  11.420  1.4983 -2.7579 -0.9732
  383MOL0     H52820  10.747   5.685  11.648  0.6176  0.3704 -0.0587
  383MOL0     H52821  10.637   5.565  11.681  0.5103  1.1246 -0.1367
  383MOL0     H52822  10.778   5.418  11.527  0.7276 -0.2397  2.4196
  383MOL0     H52823  10.879   5.501  11.645  0.9077  3.5121  0.5565
  383MOL0     H52824  10.943   5.663  11.461 -2.2887  1.0440 -1.7678
  383MOL0     H52825  10.853   5.559  11.351 -1.2955  2.9023  0.6074
  383MOL0     H52826  11.107   5.484  11.497  1.1556 -0.2310 -0.3280
  383MOL0     H52827  11.008   5.357  11.419  2.4566 -0.9197  2.5832
  383MOL0     H52828  11.200   5.418  11.287  1.0053  1.0142 -0.3379
  383MOL0     H52829  11.141   5.578  11.260  0.3797  0.9478  1.0821
  383MOL0     H52830  10.929   5.447  11.152 -0.7758 -3.0485  2.0472
  383MOL0     H52831  11.039   5.309  11.162  1.1692 -0.0996 -3.6297
  383MOL0     H52832  11.102   5.564  11.004 -2.7078  0.4576  2.2888
  383MOL0     H52833  11.033   5.406  10.945  0.6932 -0.0542 -1.1433
  383MOL0     H52834  10.259   5.748  11.572  0.5000 -0.2625 -0.9594
  383MOL0     H52835  10.073   5.807  11.421  0.9444 -0.1825  0.1716
  383MOL0     H52836  10.035   5.979  10.919 -0.0391  1.5926 -3.2782
  383MOL0     H52837   9.924   5.997  10.706  3.9233  0.3466  2.3870
  383MOL0     H52838   9.158   6.824   9.249  0.8684 -3.5148 -1.5620
  383MOL0     H52839   9.172   7.030   9.088  0.0966  0.8712  1.9569
  383MOL0     H52840   9.468   7.362   8.936  1.4792  1.3867 -0.1510
  383MOL0     H52841   9.463   7.548   8.787  1.1494 -1.1848  0.5290
  383MOL0     H52842   9.516   7.455   8.341 -0.2538 -0.0116 -0.6084
  383MOL0     H52843   9.367   7.515   8.336  0.9878 -0.4392 -2.0381
  383MOL0     H52844   9.633   7.669   8.347 -1.2402 -2.7412  2.0901
  383MOL0     H52845   9.491   7.764   8.404  0.4820  0.7259 -0.5488
  383MOL0     H52846   9.504   7.663   8.120 -3.5854  0.1546 -1.2889
  383MOL0     H52847   9.365   7.725   8.194 -0.6042 -1.3601  1.9291
  383MOL0     H52848   9.645   7.846   8.168  0.4280 -0.0919 -0.8169
  383MOL0     H52849   9.524   7.937   8.262 -0.5180 -0.3585  0.8330
  383MOL0     H52850   9.447   8.008   7.842 -1.7558 -1.0434 -0.6320
  383MOL0     H52851   9.424   7.275   8.455 -0.7949  0.8458 -0.2132
  383MOL0     H52852   9.327   7.069   8.496 -0.6251 -0.4222  0.1067
  383MOL0     H52853   9.463   7.000   8.581 -0.0968 -1.1232  3.4011
  383MOL0     H52854   9.305   7.006   8.662  2.0174  0.3487  2.0436
  384MOL0     O52855   3.266   2.291   1.492  0.0969 -0.4427 -0.2756
  384MOL0     C52856   3.178   2.374   1.460 -0.2190  0.0882 -0.8309
  384MOL0     O52857   3.193   2.504   1.450  0.5773  0.2019  1.0357
  384MOL0     C52858   3.306   2.579   1.496  1.3640 -0.4634 -0.7305
  384MOL0     C52859   3.305   2.722   1.486  0.1436  0.7592 -0.6668
  384MOL0     C52860   3.407   2.810   1.522 -0.9352  0.4054 -0.1727
  384MOL0     C52861   3.508   2.761   1.604  0.4641 -0.7482  0.5936
  384MOL0     O52862   3.606   2.846   1.639  0.2204 -0.5536 -0.5219
  384MOL0     C52863   3.599   2.904   1.774  0.2096 -0.2164 -0.4525
  384MOL0     C52864   3.630   3.052   1.776  0.2975  0.5211  0.3345
  384MOL0     C52865   3.754   3.088   1.697  0.3509  0.1173  0.9028
  384MOL0     C52866   3.889   3.023   1.720  0.2143  1.2426 -1.0177
  384MOL0     C52867   3.963   3.078   1.845  0.7367  0.2280  0.5467
  384MOL0     C52868   3.907   3.022   1.976 -0.7361 -0.0135 -0.2184
  384MOL0     C52869   3.932   3.126   2.090  1.2421  0.5652 -0.0558
  384MOL0     C52870   3.894   3.073   2.232 -0.5424  0.2278  0.0014
  384MOL0     N52871   4.007   3.043   2.323 -0.9143 -0.5564 -0.7884
  384MOL0     C52872   4.114   3.126   2.337  0.1978 -0.6848  0.0533
  384MOL0     C52873   4.198   3.055   2.420  0.8817 -0.1993  0.4956
  384MOL0     C52874   4.321   3.127   2.474  0.6640 -0.0782 -0.3311
  384MOL0     C52875   4.308   3.233   2.590 -0.1331 -0.7927  0.6755
  384MOL0     C52876   4.248   3.182   2.723 -0.1730 -0.4948 -0.4290
  384MOL0     C52877   4.104   3.125   2.728  0.3192  0.0949  0.9031
  384MOL0     O52878   4.064   3.129   2.862  0.0473 -0.0741 -0.1955
  384MOL0     C52879   3.956   3.218   2.880  0.1345 -1.0738  0.2223
  384MOL0     C52880   3.831   3.153   2.883  0.8641  0.2096 -0.0479
  384MOL0     C52881   3.714   3.226   2.894  0.7234 -0.1647 -0.6617
  384MOL0     C52882   3.589   3.137   2.897 -0.5345  0.0736  1.0224
  384MOL0     C52883   3.723   3.368   2.928  0.4337 -0.0458 -0.2242
  384MOL0     C52884   3.605   3.460   2.948 -0.1892 -0.5684 -0.3872
  384MOL0     O52885   3.477   3.425   2.925  0.1289 -0.7502  0.4160
  384MOL0     C52886   3.388   3.523   2.933 -0.6593 -0.1908 -0.5390
  384MOL0     C52887   3.319   3.547   3.055  0.2676 -0.6200 -0.2540
  384MOL0     C52888   3.208   3.632   3.066 -0.0283  0.2726  0.5234
  384MOL0     C52889   3.157   3.684   2.944  0.1733  1.2263 -0.7171
  384MOL0     O52890   3.043   3.752   2.927  0.5239  0.3717  0.3468
  384MOL0     C52891   3.041   3.877   2.994 -0.0635 -0.0184  0.3014
  384MOL0     C52892   2.899   3.925   3.016 -0.2233 -0.3181  0.0146
  384MOL0     C52893   2.814   3.817   3.082 -0.2454  0.4553  0.5898
  384MOL0     C52894   2.715   3.885   3.179  0.2159 -0.3181  0.3446
  384MOL0     C52895   2.628   3.773   3.240 -0.0571  0.7465  0.2868
  384MOL0     C52896   2.696   3.697   3.360  0.3577  0.3167  1.0014
  384MOL0     C52897   2.594   3.595   3.431 -0.0571  0.5680 -0.0461
  384MOL0     C52898   2.542   3.467   3.360 -0.4273  0.4183 -0.2446
  384MOL0    Cl52899   2.404   3.404   3.456 -0.2138  0.1885 -0.3086
  384MOL0     C52900   3.226   3.674   2.830  0.3271  0.0706  1.5556
  384MOL0     C52901   3.344   3.591   2.820 -0.4377  0.0926  0.3344
  384MOL0     O52902   3.642   3.570   2.999  0.1699 -0.1394  0.5984
  384MOL0     C52903   3.848   3.424   2.931 -0.0727  0.2305 -0.3358
  384MOL0     C52904   3.961   3.350   2.906 -0.5069 -0.0115  0.2066
  384MOL0     N52905   4.145   2.934   2.440 -0.4416 -0.0343  0.2247
  384MOL0     N52906   4.026   2.922   2.384  0.6434  0.3955  0.0799
  384MOL0     C52907   3.521   2.626   1.620 -0.1382  0.0864 -0.3026
  384MOL0     C52908   3.424   2.539   1.557  0.6504 -0.4924  0.0536
  384MOL0     C52909   3.044   2.322   1.454  0.4361  0.5627  0.0119
  384MOL0     C52910   2.965   2.375   1.349  0.1963  0.1538  0.5795
  384MOL0     C52911   2.845   2.317   1.304 -0.4818 -0.4234 -0.1608
  384MOL0     C52912   2.783   2.213   1.378  0.3652 -0.3777  0.1412
  384MOL0     O52913   2.655   2.164   1.346 -0.2208  0.6141 -0.1729
  384MOL0     C52914   2.627   2.134   1.208 -0.1481  0.0053 -0.5503
  384MOL0     C52915   2.496   2.048   1.194 -0.6339  0.1682  1.0868
  384MOL0     C52916   2.366   2.115   1.249 -0.4996  0.4586 -0.1022
  384MOL0     C52917   2.343   2.136   1.398 -0.3018 -0.1912  0.6310
  384MOL0     C52918   2.222   2.217   1.424  0.5917 -0.5421  0.8635
  384MOL0     C52919   2.122   2.284   1.423  0.5593 -0.3808  0.2483
  384MOL0     C52920   2.850   2.172   1.489 -0.2032  0.6727  0.3419
  384MOL0     C52921   2.976   2.222   1.535  0.1262 -0.1443 -0.3029
  384MOL0     C52922   3.039   2.151   1.655  0.4945  0.0713  0.2530
  384MOL0     H52923   3.221   2.768   1.435  0.3156  1.8335 -0.0125
  384MOL0     H52924   3.406   2.916   1.498 -3.0754  0.3327 -0.6452
  384MOL0     H52925   3.681   2.856   1.830 -1.5567 -1.2289  1.4091
  384MOL0     H52926   3.509   2.891   1.834  0.2089  2.1477  0.1230
  384MOL0     H52927   3.544   3.107   1.735  2.0066  2.5041 -0.8227
  384MOL0     H52928   3.648   3.094   1.875  3.2482  2.3982 -0.8590
  384MOL0     H52929   3.725   3.069   1.593 -0.9507  0.0255  1.2648
  384MOL0     H52930   3.781   3.194   1.696  0.9547  0.1384 -3.5099
  384MOL0     H52931   3.884   2.913   1.726  0.0716  1.1897 -1.9731
  384MOL0     H52932   3.957   3.033   1.635 -0.4497  0.6727 -1.6357
  384MOL0     H52933   3.963   3.187   1.849 -3.0333  0.3195  3.5501
  384MOL0     H52934   4.070   3.056   1.835  0.7824  1.2439 -1.7783
  384MOL0     H52935   3.803   2.996   1.956 -0.9146  2.4218 -3.1147
  384MOL0     H52936   3.958   2.927   1.996 -0.1013 -0.5264 -3.7050
  384MOL0     H52937   3.876   3.218   2.071  0.6745  0.4254  0.8913
  384MOL0     H52938   4.039   3.148   2.093  2.1281 -3.0417  3.0176
  384MOL0     H52939   3.848   3.154   2.289 -3.3442 -0.1281 -1.5581
  384MOL0     H52940   3.817   2.994   2.230  1.8089 -2.2667  1.2089
  384MOL0     H52941   4.134   3.221   2.288  3.8185 -1.3655 -0.1069
  384MOL0     H52942   4.377   3.157   2.385  0.4680 -4.4700 -2.2087
  384MOL0     H52943   4.378   3.042   2.511  0.0914 -0.8256 -1.1430
  384MOL0     H52944   4.412   3.263   2.608  1.1312 -3.4958 -1.4460
  384MOL0     H52945   4.252   3.324   2.566  0.0899 -1.0248 -0.8667
  384MOL0     H52946   4.317   3.102   2.749 -0.0063  0.3573  1.9522
  384MOL0     H52947   4.255   3.264   2.795 -0.8305 -2.6878  2.2801
  384MOL0     H52948   4.051   3.185   2.655  3.2719  3.3323  1.1711
  384MOL0     H52949   4.110   3.018   2.707 -1.8381 -0.0296  0.7496
  384MOL0     H52950   3.845   3.046   2.891 -0.1007  0.1148  0.4453
  384MOL0     H52951   3.610   3.036   2.862  0.7157  0.6234  0.1093
  384MOL0     H52952   3.508   3.181   2.839 -0.4308  0.3813  1.1097
  384MOL0     H52953   3.549   3.126   2.999  0.3649  0.3706  1.4191
  384MOL0     H52954   3.355   3.499   3.146  0.3877  2.0249  1.1951
  384MOL0     H52955   3.158   3.646   3.161  0.8028  0.5260  0.9309
  384MOL0     H52956   3.086   3.876   3.094 -3.2417 -1.0271  1.8525
  384MOL0     H52957   3.106   3.947   2.942  0.8566  0.1281  1.6039
  384MOL0     H52958   2.905   4.013   3.081 -1.2338  0.7308 -1.2700
  384MOL0     H52959   2.858   3.949   2.918 -0.7756  2.6074  0.8602
  384MOL0     H52960   2.874   3.750   3.145 -3.1033 -0.0607  2.9841
  384MOL0     H52961   2.753   3.757   3.014 -0.0387  0.1077  0.7038
  384MOL0     H52962   2.650   3.955   3.126  1.8814  0.2786 -0.9935
  384MOL0     H52963   2.778   3.926   3.259 -0.7852 -0.3049  1.1458
  384MOL0     H52964   2.538   3.818   3.281 -0.9575 -1.4537  0.8866
  384MOL0     H52965   2.597   3.711   3.155  1.6845  3.2907 -2.3975
  384MOL0     H52966   2.745   3.770   3.425  1.5494 -0.0441  0.5401
  384MOL0     H52967   2.781   3.634   3.332  1.8999  1.0591  3.6389
  384MOL0     H52968   2.511   3.660   3.460 -1.0110 -0.9817  0.8137
  384MOL0     H52969   2.645   3.561   3.522 -0.0867 -1.3374 -0.7047
  384MOL0     H52970   2.618   3.388   3.356  0.8583  1.6610 -1.2226
  384MOL0     H52971   2.503   3.500   3.264 -0.8972  1.3068  0.2397
  384MOL0     H52972   3.184   3.714   2.738  0.1692 -3.1522  0.1242
  384MOL0     H52973   3.411   3.584   2.735 -1.2416  4.9000 -1.0262
  384MOL0     H52974   3.861   3.520   2.979 -2.4355  0.1801  0.5557
  384MOL0     H52975   4.057   3.401   2.898 -1.6445  2.2324  0.2410
  384MOL0     H52976   3.596   2.575   1.680  0.9500 -1.8486 -3.0930
  384MOL0     H52977   3.437   2.431   1.562 -0.0289 -0.6093 -0.4754
  384MOL0     H52978   3.007   2.459   1.295  1.6839  0.1463  1.6629
  384MOL0     H52979   2.796   2.353   1.214  0.1002  0.1125 -0.2725
  384MOL0     H52980   2.630   2.229   1.153  2.1469  1.0577  1.2295
  384MOL0     H52981   2.713   2.076   1.174  0.4747 -0.3993  1.5842
  384MOL0     H52982   2.507   1.951   1.244  4.8622  0.6127  1.3556
  384MOL0     H52983   2.494   2.030   1.086  1.9264  0.5044  0.9356
  384MOL0     H52984   2.360   2.212   1.198  0.7673  1.4301  1.4988
  384MOL0     H52985   2.290   2.046   1.212 -0.1139  0.8755 -1.7621
  384MOL0     H52986   2.436   2.178   1.439 -0.7013  0.8870  0.4690
  384MOL0     H52987   2.321   2.039   1.441 -1.6899 -0.3266 -0.3188
  384MOL0     H52988   2.043   2.348   1.456  0.7609 -0.3013  0.5892
  384MOL0     H52989   2.803   2.090   1.543  0.8532 -1.4799 -1.7935
  384MOL0     H52990   3.134   2.104   1.628  0.7967  1.2809 -0.8795
  384MOL0     H52991   3.068   2.213   1.741  3.4100  3.4614 -2.8433
  384MOL0     H52992   2.971   2.075   1.697  1.9854 -0.4308  1.8779
  385MOL0     O52993   4.199  10.076   9.301  0.1356 -0.4033 -0.3164
  385MOL0     C52994   4.240  10.097   9.186 -0.0175 -0.3594  0.0997
  385MOL0     O52995   4.292  10.008   9.093 -0.3576  0.0895 -0.0311
  385MOL0     C52996   4.278   9.875   9.104  0.2294  0.1717 -0.5005
  385MOL0     C52997   4.292   9.814   8.973 -1.3873 -0.0192 -0.4190
  385MOL0     C52998   4.297   9.670   8.968  1.3519  0.4999 -0.0783
  385MOL0     C52999   4.262   9.587   9.072 -0.1103  0.2647  0.8986
  385MOL0     O53000   4.270   9.450   9.045  0.6947 -0.1778  0.1985
  385MOL0     C53001   4.168   9.372   9.115 -0.5432 -0.3585  0.5516
  385MOL0     C53002   4.031   9.400   9.051  0.2045  0.3457  0.1412
  385MOL0     C53003   3.965   9.265   9.028  0.7373 -0.1484 -0.0126
  385MOL0     C53004   3.910   9.202   9.164 -0.2040 -0.7078  0.0009
  385MOL0     C53005   3.939   9.058   9.179  0.1685  0.7770  0.6238
  385MOL0     C53006   3.872   8.982   9.295 -0.0023  1.0905  0.1582
  385MOL0     C53007   3.919   8.830   9.289  0.3127 -0.4263 -0.0113
  385MOL0     C53008   3.847   8.749   9.385  0.0749  0.8407  1.0586
  385MOL0     N53009   3.892   8.607   9.371  0.0540 -0.7600 -0.2230
  385MOL0     C53010   3.877   8.525   9.261  0.4515  0.0526 -0.1051
  385MOL0     C53011   3.958   8.419   9.280 -0.3332  0.7786 -0.3633
  385MOL0     C53012   3.995   8.318   9.178  0.2624 -1.0099 -0.3563
  385MOL0     C53013   3.903   8.204   9.173  0.7006  0.9570 -0.4131
  385MOL0     C53014   3.765   8.223   9.121  0.8412  0.7617 -0.7477
  385MOL0     C53015   3.706   8.100   9.068 -0.2326 -0.3285  0.6203
  385MOL0     O53016   3.707   8.004   9.167  0.1994  0.7353  0.2228
  385MOL0     C53017   3.654   7.874   9.134  0.0116 -0.0274 -0.9277
  385MOL0     C53018   3.678   7.775   9.229  0.3136  0.1594 -0.7053
  385MOL0     C53019   3.605   7.655   9.235 -0.4929 -0.6265  0.2531
  385MOL0     C53020   3.625   7.564   9.362 -0.8640 -0.0743  0.3018
  385MOL0     C53021   3.518   7.629   9.123  0.2667 -0.5919 -0.8237
  385MOL0     C53022   3.445   7.507   9.124 -0.4721 -0.6210  0.8425
  385MOL0     O53023   3.440   7.450   8.999 -0.0115  0.4649 -0.4525
  385MOL0     C53024   3.344   7.351   8.957  0.0472 -0.1811 -0.3284
  385MOL0     C53025   3.284   7.357   8.826 -0.5434 -0.1837 -1.1500
  385MOL0     C53026   3.199   7.262   8.782  0.6169  0.3337  0.6815
  385MOL0     C53027   3.172   7.143   8.864 -1.0078 -0.6764  0.4675
  385MOL0     O53028   3.075   7.059   8.816 -0.3660  0.1026  0.0995
  385MOL0     C53029   3.002   6.960   8.891  0.0271 -0.8549 -0.4055
  385MOL0     C53030   2.913   6.874   8.798  0.1900 -0.3544 -0.5347
  385MOL0     C53031   2.785   6.806   8.866  0.0207 -0.4801  0.0294
  385MOL0     C53032   2.732   6.703   8.758  0.8255  0.4959  0.3570
  385MOL0     C53033   2.584   6.667   8.788  0.3439  0.9271 -0.2774
  385MOL0     C53034   2.511   6.581   8.685 -0.3602 -0.5856  1.2710
  385MOL0     C53035   2.370   6.540   8.729 -0.0033 -0.3651 -0.6462
  385MOL0     C53036   2.302   6.435   8.629  1.4716 -0.3231 -0.0071
  385MOL0    Cl53037   2.276   6.502   8.461  0.0182  0.1376  0.1817
  385MOL0     C53038   3.232   7.135   8.989 -0.6110  0.3258 -0.7160
  385MOL0     C53039   3.319   7.239   9.031  0.1715 -0.0850 -0.7934
  385MOL0     O53040   3.390   7.461   9.223 -0.7212 -0.2676  0.4001
  385MOL0     C53041   3.497   7.728   9.033  0.4550 -0.4927  0.0575
  385MOL0     C53042   3.570   7.846   9.027 -0.1966 -0.1929 -0.6908
  385MOL0     N53043   4.015   8.435   9.400 -0.0525  0.7855 -0.6434
  385MOL0     N53044   3.974   8.544   9.451 -1.0904  0.6771  0.2842
  385MOL0     C53045   4.237   9.650   9.193 -0.2980 -0.3092 -0.1834
  385MOL0     C53046   4.240   9.791   9.217 -0.5767 -1.1568  0.6765
  385MOL0     C53047   4.248  10.227   9.131 -1.1347 -0.5859 -0.1129
  385MOL0     C53048   4.192  10.258   9.008  0.3573  0.2754 -0.8599
  385MOL0     C53049   4.205  10.381   8.952  0.1334 -0.5617 -0.2929
  385MOL0     C53050   4.275  10.482   9.015 -0.9218  0.3223 -0.2076
  385MOL0     O53051   4.298  10.595   8.941  0.0954 -1.2696 -0.1165
  385MOL0     C53052   4.381  10.699   8.992 -1.1804  0.2050  0.6718
  385MOL0     C53053   4.418  10.799   8.886 -0.6163 -0.8434 -0.4794
  385MOL0     C53054   4.298  10.873   8.824 -0.3970 -0.7962  0.2360
  385MOL0     C53055   4.338  11.006   8.753 -0.3177  0.4471 -0.9864
  385MOL0     C53056   4.418  11.101   8.838 -0.5840 -0.0102  0.3049
  385MOL0     C53057   4.468  11.178   8.918 -0.1627 -1.1225  0.9808
  385MOL0     C53058   4.326  10.454   9.143 -0.3573  0.0839 -0.4801
  385MOL0     C53059   4.325  10.330   9.198  0.9032  0.4659  0.5040
  385MOL0     C53060   4.401  10.316   9.330  0.6279 -0.2229  0.2299
  385MOL0     H53061   4.299   9.878   8.886  1.1101  1.3645  0.7069
  385MOL0     H53062   4.315   9.618   8.874  0.7390 -0.2211  0.1992
  385MOL0     H53063   4.163   9.401   9.220  0.8701 -1.3073  0.9081
  385MOL0     H53064   4.202   9.268   9.115 -0.5674 -0.4423  3.3136
  385MOL0     H53065   3.969   9.463   9.116 -2.6661 -0.3446 -1.7545
  385MOL0     H53066   4.043   9.458   8.960  0.2709 -1.8863 -1.3459
  385MOL0     H53067   3.884   9.260   8.954  1.0871 -0.4388 -0.3799
  385MOL0     H53068   4.041   9.203   8.979  0.1067 -2.2431  1.4683
  385MOL0     H53069   3.941   9.256   9.253 -4.5260  0.0198  1.2932
  385MOL0     H53070   3.801   9.200   9.161 -0.1985 -2.4471 -2.5405
  385MOL0     H53071   4.048   9.053   9.188  0.4776  1.8785 -1.6659
  385MOL0     H53072   3.907   9.004   9.089  0.5933  0.8764  0.4099
  385MOL0     H53073   3.899   9.017   9.396 -0.8222  2.7663 -0.1614
  385MOL0     H53074   3.763   8.982   9.290  0.0563  0.3005 -1.7730
  385MOL0     H53075   4.027   8.823   9.302  0.2810 -1.6013 -0.2590
  385MOL0     H53076   3.897   8.785   9.192  1.0669 -4.0947  1.3615
  385MOL0     H53077   3.856   8.790   9.486  0.0896  2.6867  0.3521
  385MOL0     H53078   3.743   8.746   9.350  0.6305 -2.9647 -0.7847
  385MOL0     H53079   3.825   8.550   9.169  2.5981  0.9509 -1.1444
  385MOL0     H53080   4.097   8.285   9.198 -0.2226 -0.5211  3.9095
  385MOL0     H53081   3.997   8.354   9.075 -2.6997 -2.0196 -0.8600
  385MOL0     H53082   3.962   8.141   9.105  1.1908  1.1874 -0.2095
  385MOL0     H53083   3.892   8.154   9.269  0.8307  1.6743 -0.0183
  385MOL0     H53084   3.708   8.246   9.212 -1.3080  1.3352 -2.1563
  385MOL0     H53085   3.758   8.308   9.052  1.3407  0.7598 -0.7986
  385MOL0     H53086   3.602   8.123   9.042  0.0028  0.7917  0.6385
  385MOL0     H53087   3.764   8.080   8.977  0.3347 -2.3270  1.3786
  385MOL0     H53088   3.747   7.800   9.309  0.2317  2.2816 -1.2547
  385MOL0     H53089   3.610   7.458   9.342 -1.2069  0.5896 -3.7226
  385MOL0     H53090   3.572   7.599   9.451 -0.4069  1.6619 -0.0751
  385MOL0     H53091   3.732   7.574   9.383 -1.1958  2.3745  1.2147
  385MOL0     H53092   3.303   7.447   8.769 -0.2181  0.5720  0.1187
  385MOL0     H53093   3.149   7.273   8.686  0.9693  1.0007  0.5711
  385MOL0     H53094   3.062   6.897   8.957  1.9818  0.4647 -0.8383
  385MOL0     H53095   2.940   7.017   8.962  2.2894  0.4605  0.6255
  385MOL0     H53096   2.880   6.929   8.710 -1.2143  0.0245  0.1857
  385MOL0     H53097   2.970   6.788   8.762 -1.4991 -0.3264 -3.6415
  385MOL0     H53098   2.720   6.888   8.897  0.3819 -0.8676  1.9211
  385MOL0     H53099   2.810   6.762   8.963 -2.4874  0.3322  1.0994
  385MOL0     H53100   2.793   6.615   8.780  1.6916  1.0137  0.0957
  385MOL0     H53101   2.746   6.736   8.654  0.1698  1.5049  0.5721
  385MOL0     H53102   2.582   6.619   8.886 -0.5894 -0.7875 -1.0912
  385MOL0     H53103   2.516   6.752   8.797 -0.1303  0.2729  4.8589
  385MOL0     H53104   2.565   6.487   8.673 -0.0743 -0.1725 -1.2192
  385MOL0     H53105   2.515   6.631   8.588 -0.6508  3.3134  3.0907
  385MOL0     H53106   2.308   6.629   8.741 -2.7574 -1.6784 -3.5223
  385MOL0     H53107   2.372   6.492   8.827 -1.1534  1.6036  0.3925
  385MOL0     H53108   2.204   6.412   8.672 -0.6592  4.0463 -1.8327
  385MOL0     H53109   2.363   6.344   8.631 -1.7805 -2.6943 -1.3860
  385MOL0     H53110   3.223   7.047   9.052 -5.3819  1.4015  0.4950
  385MOL0     H53111   3.363   7.235   9.130 -2.3658 -0.0214  0.4223
  385MOL0     H53112   3.425   7.711   8.954  0.5321 -0.8339  0.0566
  385MOL0     H53113   3.557   7.916   8.945 -1.5219  0.0850 -0.2634
  385MOL0     H53114   4.217   9.587   9.279  2.2195 -1.7062 -0.5454
  385MOL0     H53115   4.218   9.830   9.316  0.3538  0.0051  0.4525
  385MOL0     H53116   4.141  10.181   8.951 -0.9309  1.3949 -1.2890
  385MOL0     H53117   4.164  10.411   8.857 -1.0500  0.8814  0.6323
  385MOL0     H53118   4.334  10.744   9.080  0.4454 -0.6291  2.0201
  385MOL0     H53119   4.478  10.656   9.020 -0.4542  1.1899 -0.2624
  385MOL0     H53120   4.468  10.735   8.813  1.8700 -0.1507  0.5111
  385MOL0     H53121   4.488  10.874   8.925 -0.9421 -1.7015  1.9666
  385MOL0     H53122   4.256  10.810   8.746  2.4697 -2.3682 -0.1870
  385MOL0     H53123   4.220  10.891   8.899 -0.7897 -0.6824 -0.1964
  385MOL0     H53124   4.250  11.061   8.721 -1.5147  1.8885  3.8811
  385MOL0     H53125   4.393  10.973   8.664  1.4948  0.7349 -0.0315
  385MOL0     H53126   4.515  11.245   8.987 -0.1176  0.5654 -0.6140
  385MOL0     H53127   4.367  10.542   9.190 -2.8974  1.8891 -1.3983
  385MOL0     H53128   4.327  10.275   9.400 -2.9715  0.4263 -2.9018
  385MOL0     H53129   4.487  10.249   9.322  0.7616 -0.2445  1.6127
  385MOL0     H53130   4.429  10.414   9.370  1.5788 -1.5253  3.0435
  386MOL0     O53131   9.046  10.204   9.156 -0.6633 -0.0548 -0.5922
  386MOL0     C53132   9.069  10.123   9.067  0.5271 -0.4136  0.0505
  386MOL0     O53133   9.049   9.980   9.070 -1.1356 -0.9065  0.2052
  386MOL0     C53134   8.995   9.932   9.181  0.4970  0.3948 -0.6760
  386MOL0     C53135   8.859   9.950   9.202 -0.4367  1.3207 -0.1174
  386MOL0     C53136   8.792   9.893   9.311 -1.5364  0.3878  0.9638
  386MOL0     C53137   8.864   9.800   9.392 -0.7174 -1.1136 -0.7869
  386MOL0     O53138   8.806   9.742   9.500  0.0026 -0.0429  0.1393
  386MOL0     C53139   8.729   9.636   9.456  0.4049  0.4479 -0.0877
  386MOL0     C53140   8.672   9.560   9.579 -0.4917 -0.3732  0.1169
  386MOL0     C53141   8.600   9.435   9.539  0.0084 -0.1216  0.4448
  386MOL0     C53142   8.493   9.383   9.642 -0.3597 -0.3544  0.9983
  386MOL0     C53143   8.417   9.264   9.584 -0.4342 -0.3616 -0.2396
  386MOL0     C53144   8.309   9.207   9.672 -0.6191  0.7133  0.5064
  386MOL0     C53145   8.252   9.083   9.599 -0.0171  0.7865  0.0667
  386MOL0     C53146   8.142   9.022   9.682  0.0089 -0.6215  0.4203
  386MOL0     N53147   8.006   9.090   9.654 -0.7243 -0.2604 -0.7784
  386MOL0     C53148   7.943   9.165   9.750 -0.9914 -0.5661  0.4466
  386MOL0     C53149   7.821   9.191   9.694 -0.3159 -0.3202  0.1848
  386MOL0     C53150   7.695   9.262   9.753  0.1870  1.0871 -0.0458
  386MOL0     C53151   7.672   9.233   9.900 -0.1858 -0.0489 -0.1473
  386MOL0     C53152   7.632   9.085   9.907 -0.2950 -0.3476 -0.0297
  386MOL0     C53153   7.649   9.038  10.050 -0.3344  1.0467 -0.2877
  386MOL0     O53154   7.527   9.054  10.127 -0.5706  0.5009 -0.2207
  386MOL0     C53155   7.540   9.112  10.248 -0.6238  0.1536  0.0619
  386MOL0     C53156   7.426   9.168  10.297 -0.4804  0.5429 -0.0757
  386MOL0     C53157   7.418   9.213  10.427  0.4953  0.3286 -1.6230
  386MOL0     C53158   7.285   9.279  10.463 -0.0178 -0.7138 -0.3457
  386MOL0     C53159   7.521   9.189  10.516 -1.2005  0.6440  0.7873
  386MOL0     C53160   7.521   9.223  10.660 -0.8061 -0.0089 -0.1772
  386MOL0     O53161   7.600   9.139  10.741 -0.2940  0.0461  0.5454
  386MOL0     C53162   7.610   9.180  10.872 -0.4725 -0.4069  0.8678
  386MOL0     C53163   7.579   9.093  10.976  0.9894 -0.4765 -0.5427
  386MOL0     C53164   7.587   9.122  11.113  0.1773 -0.1168 -0.2795
  386MOL0     C53165   7.630   9.250  11.154 -0.5929  0.2177 -0.3391
  386MOL0     O53166   7.653   9.271  11.286 -0.3999  0.1932  0.4817
  386MOL0     C53167   7.635   9.398  11.356 -0.2063 -0.3222 -0.2400
  386MOL0     C53168   7.765   9.478  11.353 -0.8594  0.1857  0.0038
  386MOL0     C53169   7.738   9.627  11.380  0.6978 -0.5437 -0.6680
  386MOL0     C53170   7.869   9.700  11.426  0.0068 -0.3297 -0.8365
  386MOL0     C53171   7.969   9.730  11.323  0.1228  0.7572  0.5071
  386MOL0     C53172   8.097   9.788  11.392 -0.6095  0.0543 -0.3052
  386MOL0     C53173   8.089   9.918  11.474 -0.6461 -0.4279  0.1460
  386MOL0     C53174   8.042  10.031  11.391  0.2109  0.3154  0.2463
  386MOL0    Cl53175   8.017  10.167  11.497 -0.6099  0.3388 -0.3155
  386MOL0     C53176   7.662   9.341  11.053 -0.2402  0.1692  0.4910
  386MOL0     C53177   7.648   9.311  10.918  0.0240  0.2598 -0.5890
  386MOL0     O53178   7.458   9.326  10.692 -0.0732 -0.6427 -0.5857
  386MOL0     C53179   7.625   9.116  10.463 -0.2405  0.5231 -0.7568
  386MOL0     C53180   7.643   9.081  10.334 -0.1684 -0.0517 -0.1053
  386MOL0     N53181   7.816   9.138   9.568  0.5779  0.3021  0.0585
  386MOL0     N53182   7.923   9.067   9.547 -0.0681  0.1195 -0.3285
  386MOL0     C53183   9.005   9.784   9.371 -0.4513  0.7945  0.2199
  386MOL0     C53184   9.069   9.854   9.272  0.4382  0.3141  0.9351
  386MOL0     C53185   9.156  10.171   8.954  0.2710 -0.2071 -0.2412
  386MOL0     C53186   9.259  10.083   8.909  0.7926  0.3528 -0.5124
  386MOL0     C53187   9.353  10.115   8.814  0.3221 -0.2899 -1.0932
  386MOL0     C53188   9.346  10.238   8.745 -0.1645 -0.3508 -0.3847
  386MOL0     O53189   9.429  10.258   8.636 -0.6579 -0.8355  0.2847
  386MOL0     C53190   9.452  10.387   8.587 -0.3774  0.2657  0.6186
  386MOL0     C53191   9.541  10.383   8.458 -0.1893 -0.1698 -0.5315
  386MOL0     C53192   9.561  10.535   8.431  0.2905 -0.2926  0.1764
  386MOL0     C53193   9.612  10.571   8.291 -0.2459 -0.0620  0.3669
  386MOL0     C53194   9.530  10.523   8.180  0.3144  0.3367  0.2045
  386MOL0     C53195   9.474  10.485   8.074  0.5118 -0.1410 -0.7981
  386MOL0     C53196   9.250  10.327   8.791  0.4689  0.0472 -0.0798
  386MOL0     C53197   9.154  10.299   8.891 -0.7606  0.2533  0.7841
  386MOL0     C53198   9.067  10.412   8.938  0.4296 -0.0185 -0.6481
  386MOL0     H53199   8.805   9.994   9.119  0.8519  4.1609  0.4048
  386MOL0     H53200   8.688   9.921   9.328 -2.9373 -2.3752 -2.0471
  386MOL0     H53201   8.790   9.563   9.402 -1.0496  0.8841 -2.4853
  386MOL0     H53202   8.643   9.673   9.399 -0.3382  0.6660  1.1480
  386MOL0     H53203   8.762   9.529   9.632  1.2820  3.1465 -0.5516
  386MOL0     H53204   8.619   9.635   9.638  2.1351  1.3160  0.4934
  386MOL0     H53205   8.552   9.450   9.442 -0.2252 -1.4808  0.3233
  386MOL0     H53206   8.670   9.350   9.536  1.0068  0.5642  2.6513
  386MOL0     H53207   8.555   9.332   9.717 -0.0142  0.0642  0.9976
  386MOL0     H53208   8.435   9.463   9.688  2.1743  2.7418 -0.8532
  386MOL0     H53209   8.492   9.191   9.552 -0.5924  0.2284 -2.0613
  386MOL0     H53210   8.366   9.306   9.497 -0.3352  2.4404  0.9326
  386MOL0     H53211   8.354   9.178   9.767  3.4476  0.6568 -1.2278
  386MOL0     H53212   8.233   9.283   9.692 -2.8523 -0.8590 -1.3535
  386MOL0     H53213   8.324   9.003   9.582 -0.1793  0.2533  1.6955
  386MOL0     H53214   8.219   9.098   9.496  0.0929  0.5243 -0.0077
  386MOL0     H53215   8.122   8.919   9.651  0.1339 -0.0022 -1.9413
  386MOL0     H53216   8.158   9.043   9.788 -0.7107  2.6468 -0.0207
  386MOL0     H53217   7.992   9.197   9.842 -0.0610  0.1384 -0.2743
  386MOL0     H53218   7.608   9.234   9.693  0.6233 -0.8202  0.1417
  386MOL0     H53219   7.703   9.370   9.738  1.4825  0.9951 -0.0882
  386MOL0     H53220   7.761   9.257   9.959  0.1994 -1.6217 -0.0304
  386MOL0     H53221   7.590   9.293   9.942 -1.5210  0.7123 -3.5160
  386MOL0     H53222   7.524   9.084   9.887 -0.8187  1.9678  2.1263
  386MOL0     H53223   7.675   9.019   9.832 -3.1494 -1.9680 -0.3862
  386MOL0     H53224   7.675   8.932  10.059 -0.2389  1.1157  0.2472
  386MOL0     H53225   7.724   9.102  10.097 -0.9317  2.0906 -0.7096
  386MOL0     H53226   7.336   9.174  10.236  0.3142  0.8692 -1.2590
  386MOL0     H53227   7.286   9.384  10.494 -2.3582 -0.8763  0.5275
  386MOL0     H53228   7.239   9.229  10.549 -1.2392 -2.4656 -1.9378
  386MOL0     H53229   7.205   9.271  10.388 -0.1759 -0.4841 -0.2054
  386MOL0     H53230   7.534   8.997  10.951  0.1699 -0.0181 -0.8892
  386MOL0     H53231   7.566   9.047  11.188  1.2948  1.5007  1.7554
  386MOL0     H53232   7.561   9.461  11.307 -0.2520  0.1726  0.4587
  386MOL0     H53233   7.612   9.377  11.461  0.9549  0.4371  0.1974
  386MOL0     H53234   7.833   9.444  11.432  1.2295  0.4963 -1.5806
  386MOL0     H53235   7.820   9.463  11.260 -0.5598 -0.1019  0.2255
  386MOL0     H53236   7.670   9.642  11.465  1.4079  0.2507 -0.2202
  386MOL0     H53237   7.701   9.671  11.287  3.0626 -2.7785 -2.8221
  386MOL0     H53238   7.903   9.642  11.512 -0.1291 -0.9162 -1.1650
  386MOL0     H53239   7.830   9.796  11.459 -1.9953 -1.6594  0.9789
  386MOL0     H53240   7.987   9.639  11.266  0.4042  0.2066  1.4488
  386MOL0     H53241   7.923   9.808  11.262 -0.2401  0.8941  0.9462
  386MOL0     H53242   8.169   9.817  11.316 -0.4110  2.6295  0.7614
  386MOL0     H53243   8.139   9.707  11.452  1.5433  0.6726 -0.9089
  386MOL0     H53244   8.188   9.940  11.516  0.5990 -0.0561 -2.7234
  386MOL0     H53245   8.011   9.899  11.548  1.1714 -0.5480  2.1483
  386MOL0     H53246   7.944  10.006  11.349 -0.2984 -0.3725  1.7607
  386MOL0     H53247   8.110  10.062  11.311  0.6568  2.0041  1.2396
  386MOL0     H53248   7.683   9.444  11.080  2.3867  1.0542 -3.9682
  386MOL0     H53249   7.682   9.379  10.840  2.0504 -2.3264 -2.1523
  386MOL0     H53250   7.701   9.088  10.536 -1.4309 -0.0237  0.3040
  386MOL0     H53251   7.732   9.024  10.312 -0.5583 -0.3739 -0.8673
  386MOL0     H53252   9.059   9.712   9.431 -0.3529  0.9500  0.3197
  386MOL0     H53253   9.177   9.860   9.258  0.1507  1.0475 -1.4024
  386MOL0     H53254   9.270   9.986   8.957  1.5240  0.9418  0.5494
  386MOL0     H53255   9.435  10.051   8.784  0.7775  0.1324 -0.7654
  386MOL0     H53256   9.359  10.443   8.571 -0.3186  0.5949  1.3806
  386MOL0     H53257   9.506  10.442   8.665  3.5656 -0.8021 -1.0927
  386MOL0     H53258   9.484  10.338   8.376  1.6088 -1.1998 -1.2726
  386MOL0     H53259   9.638  10.333   8.469  0.7696  1.7753  0.5079
  386MOL0     H53260   9.467  10.585   8.455  1.0405  0.0742  2.5740
  386MOL0     H53261   9.625  10.578   8.508 -2.6504  2.2178  1.4191
  386MOL0     H53262   9.703  10.510   8.281 -1.0540 -1.3301  0.5299
  386MOL0     H53263   9.640  10.675   8.273 -0.6689 -0.0110 -0.0122
  386MOL0     H53264   9.428  10.470   7.978  3.2337 -1.3071 -2.0112
  386MOL0     H53265   9.254  10.426   8.748  0.9352 -1.4999 -3.9924
  386MOL0     H53266   9.135  10.474   8.997  0.2516 -0.4550  0.0374
  386MOL0     H53267   9.035  10.481   8.860 -0.9430  0.7044  0.4932
  386MOL0     H53268   8.973  10.383   8.987  1.3518  1.1552  2.0062
  387MOL0     O53269   3.776   0.802   5.836 -0.0483 -0.7255  0.2089
  387MOL0     C53270   3.874   0.868   5.851 -0.5393 -0.5239  0.2349
  387MOL0     O53271   3.906   0.946   5.962 -0.7058  0.1002 -0.5152
  387MOL0     C53272   3.824   0.923   6.070  0.4495  0.7665  0.5318
  387MOL0     C53273   3.850   0.846   6.178 -0.2269  0.5952  0.2310
  387MOL0     C53274   3.753   0.837   6.279  0.2145 -1.1825 -0.3758
  387MOL0     C53275   3.625   0.909   6.266 -0.2365  0.4976  0.6444
  387MOL0     O53276   3.510   0.897   6.343 -0.0110 -0.8985 -0.2525
  387MOL0     C53277   3.508   0.814   6.460 -0.3381  0.2552 -0.1650
  387MOL0     C53278   3.370   0.813   6.525  0.3102 -0.3563 -1.0885
  387MOL0     C53279   3.362   0.721   6.653 -1.0208 -0.5866 -1.0969
  387MOL0     C53280   3.215   0.706   6.706 -0.2480  0.4254 -0.9671
  387MOL0     C53281   3.209   0.585   6.812  0.6855  0.3909 -0.2079
  387MOL0     C53282   3.211   0.440   6.740  0.1688 -0.1079  0.4845
  387MOL0     C53283   3.275   0.341   6.846 -0.0014  0.3996  0.0619
  387MOL0     C53284   3.238   0.334   6.994 -0.6498 -1.2187  0.5673
  387MOL0     N53285   3.088   0.333   7.004  0.0387 -0.5757 -0.5741
  387MOL0     C53286   3.005   0.235   6.968  0.2537  0.4364  0.3762
  387MOL0     C53287   2.883   0.265   7.008 -0.3436 -0.6623  0.1431
  387MOL0     C53288   2.762   0.186   6.976 -0.3267  0.7967 -0.8271
  387MOL0     C53289   2.708   0.086   7.086 -0.4000 -0.5502  0.3718
  387MOL0     C53290   2.810  -0.026   7.127  0.4721 -0.0244  0.2944
  387MOL0     C53291   2.815  -0.151   7.027 -0.0506 -0.1890 -0.2442
  387MOL0     O53292   2.858  -0.109   6.888  0.1410  0.4668  0.0615
  387MOL0     C53293   2.990  -0.105   6.860 -0.1537  1.0716  0.0939
  387MOL0     C53294   3.096  -0.109   6.955  0.0322 -0.1827  0.0039
  387MOL0     C53295   3.228  -0.090   6.916  0.5308 -0.6708  0.6999
  387MOL0     C53296   3.342  -0.105   7.018 -0.3306  0.1059 -0.6002
  387MOL0     C53297   3.251  -0.055   6.775  0.3218 -0.0258 -0.6476
  387MOL0     C53298   3.385  -0.014   6.729 -0.5430 -0.5094 -0.0002
  387MOL0     O53299   3.397   0.004   6.591 -0.4457 -0.2963 -0.2815
  387MOL0     C53300   3.525   0.013   6.549 -0.7899 -0.0269 -0.1664
  387MOL0     C53301   3.570   0.136   6.510  0.3886 -0.0221  0.5462
  387MOL0     C53302   3.691   0.146   6.444 -0.7003 -0.2145  0.2432
  387MOL0     C53303   3.769   0.037   6.410 -0.3286  0.2003  0.4076
  387MOL0     O53304   3.884   0.056   6.337 -0.1613  0.0083 -0.8673
  387MOL0     C53305   3.994  -0.033   6.357 -0.3228 -0.4443  0.0518
  387MOL0     C53306   4.112   0.001   6.270  0.0346 -0.3945 -0.4059
  387MOL0     C53307   4.187   0.120   6.333  0.2554 -0.4468 -0.5870
  387MOL0     C53308   4.324   0.120   6.251  0.2858 -0.2041  0.1680
  387MOL0     C53309   4.391   0.257   6.285  0.5323  0.2471 -0.2575
  387MOL0     C53310   4.452   0.344   6.176  0.4785  0.2502 -0.8649
  387MOL0     C53311   4.568   0.270   6.105  0.0965 -0.2615 -0.8651
  387MOL0     C53312   4.651   0.354   6.008  0.7851  0.9674  0.0987
  387MOL0    Cl53313   4.553   0.377   5.857 -0.1834 -0.5363  0.5267
  387MOL0     C53314   3.722  -0.089   6.450 -0.0694  0.4154 -0.8500
  387MOL0     C53315   3.602  -0.102   6.525  0.8781 -0.8308 -0.3976
  387MOL0     O53316   3.475   0.010   6.812 -0.7635  0.3579 -0.2832
  387MOL0     C53317   3.143  -0.043   6.686  1.5075 -1.1182 -0.1611
  387MOL0     C53318   3.019  -0.078   6.727  0.5490 -0.1690 -0.1005
  387MOL0     N53319   2.881   0.392   7.061  0.0137  0.6514 -0.0633
  387MOL0     N53320   3.009   0.417   7.069 -0.5736  0.1898 -0.2812
  387MOL0     C53321   3.610   0.992   6.157  0.4926 -0.1024  0.4884
  387MOL0     C53322   3.708   1.004   6.059 -0.3024  0.2839  0.6031
  387MOL0     C53323   3.979   0.839   5.732 -0.1693  0.3417 -0.0350
  387MOL0     C53324   3.957   0.734   5.643  0.2753 -0.2440  0.1791
  387MOL0     C53325   4.041   0.702   5.540 -0.7735  0.7176  0.6985
  387MOL0     C53326   4.143   0.792   5.506 -0.1546  0.5668 -0.3608
  387MOL0     O53327   4.216   0.748   5.402  0.0895 -0.3949 -0.0091
  387MOL0     C53328   4.341   0.814   5.363 -0.0561 -0.0435 -0.3200
  387MOL0     C53329   4.432   0.750   5.264 -0.9048 -0.7590  0.1076
  387MOL0     C53330   4.338   0.678   5.162 -0.2701 -0.1070 -0.1133
  387MOL0     C53331   4.399   0.585   5.062 -0.0838 -0.1016  0.2966
  387MOL0     C53332   4.437   0.657   4.936  0.3534  0.6336  0.4342
  387MOL0     C53333   4.494   0.713   4.842  0.4515  1.2988  1.0421
  387MOL0     C53334   4.159   0.911   5.584  0.5677 -0.2130 -0.1602
  387MOL0     C53335   4.078   0.933   5.692  0.0288  0.3676 -0.3356
  387MOL0     C53336   4.099   1.054   5.775 -0.8605 -0.0488 -0.0243
  387MOL0     H53337   3.946   0.798   6.194  0.3966  1.8670  0.4451
  387MOL0     H53338   3.771   0.762   6.355  0.9145 -0.8041 -0.1612
  387MOL0     H53339   3.580   0.852   6.533  0.6947  0.4708 -1.2582
  387MOL0     H53340   3.535   0.710   6.441 -1.1841 -0.2032  1.0219
  387MOL0     H53341   3.339   0.916   6.546  0.5099 -0.4358 -0.3844
  387MOL0     H53342   3.304   0.772   6.448  1.4258 -2.6744 -0.8886
  387MOL0     H53343   3.393   0.622   6.620 -0.2270 -0.3876 -0.9563
  387MOL0     H53344   3.427   0.765   6.730 -2.1184  3.2288 -2.1204
  387MOL0     H53345   3.183   0.792   6.766  2.2691 -0.3232  1.6768
  387MOL0     H53346   3.152   0.686   6.619 -0.0998  0.1615 -1.0106
  387MOL0     H53347   3.115   0.589   6.868 -1.0982  0.1676 -3.0088
  387MOL0     H53348   3.291   0.588   6.885  0.6202 -2.4941  0.1070
  387MOL0     H53349   3.108   0.407   6.719 -0.1515  0.5560  0.9783
  387MOL0     H53350   3.276   0.446   6.653 -0.0067 -3.0164  0.0291
  387MOL0     H53351   3.383   0.355   6.845 -0.1305  1.9375 -2.9529
  387MOL0     H53352   3.250   0.240   6.812  2.8430 -0.7122  1.0080
  387MOL0     H53353   3.278   0.247   7.047  0.9117 -3.1266 -3.3518
  387MOL0     H53354   3.269   0.426   7.044 -2.4902 -1.1584  1.6916
  387MOL0     H53355   3.026   0.150   6.904 -0.3117  0.7597 -0.2492
  387MOL0     H53356   2.783   0.125   6.888  0.3593  1.8744 -1.4452
  387MOL0     H53357   2.687   0.259   6.942 -0.6279  0.4535 -0.8985
  387MOL0     H53358   2.693   0.146   7.177 -0.7305  0.1883 -0.1621
  387MOL0     H53359   2.614   0.042   7.053 -1.0743  1.4832 -0.5827
  387MOL0     H53360   2.912   0.014   7.130  1.1752 -1.7047  0.4711
  387MOL0     H53361   2.786  -0.067   7.226 -0.9070 -1.9686 -0.7685
  387MOL0     H53362   2.881  -0.231   7.060 -0.9494  0.1543  2.6729
  387MOL0     H53363   2.718  -0.197   7.009 -1.2544  1.5954  1.3915
  387MOL0     H53364   3.069  -0.128   7.058  0.9518  1.3293  0.5522
  387MOL0     H53365   3.385  -0.008   7.046  0.5490 -0.0442 -1.4046
  387MOL0     H53366   3.424  -0.167   6.980  0.5952  1.6099 -1.1378
  387MOL0     H53367   3.307  -0.160   7.106  0.9177  2.7405  1.6973
  387MOL0     H53368   3.518   0.226   6.539 -1.2886 -1.1099  1.0958
  387MOL0     H53369   3.739   0.243   6.431  0.9892 -1.0646 -0.1960
  387MOL0     H53370   4.026  -0.043   6.461 -0.7647 -2.6333  0.0218
  387MOL0     H53371   3.970  -0.124   6.303 -0.8394  0.9037 -2.1322
  387MOL0     H53372   4.184  -0.081   6.272 -2.5249 -2.8378 -1.1653
  387MOL0     H53373   4.091   0.023   6.165 -2.4029  2.0561  0.4773
  387MOL0     H53374   4.197   0.116   6.442 -0.7345  1.7670 -0.3508
  387MOL0     H53375   4.136   0.217   6.325  2.6046  1.3874  3.3382
  387MOL0     H53376   4.290   0.108   6.148 -2.5801 -0.8265  1.1157
  387MOL0     H53377   4.392   0.037   6.275  0.3917 -0.2113 -0.1495
  387MOL0     H53378   4.314   0.314   6.338 -0.5415  0.9349 -2.4283
  387MOL0     H53379   4.464   0.227   6.360 -0.7299 -1.5006  0.3455
  387MOL0     H53380   4.488   0.439   6.217  1.8167 -0.2501 -0.8429
  387MOL0     H53381   4.379   0.374   6.100  0.5446 -0.9611 -1.4291
  387MOL0     H53382   4.532   0.187   6.044  1.5591 -2.1454  0.7158
  387MOL0     H53383   4.633   0.224   6.180  1.7708 -0.3474 -2.3136
  387MOL0     H53384   4.749   0.309   5.987  3.0246  5.0139  0.6874
  387MOL0     H53385   4.676   0.448   6.058 -0.2511  0.8223  0.9083
  387MOL0     H53386   3.782  -0.178   6.432  1.8446  1.3302  0.6064
  387MOL0     H53387   3.577  -0.199   6.567 -2.2705  1.2928  3.1805
  387MOL0     H53388   3.145  -0.001   6.586  1.7619 -0.3412  0.1606
  387MOL0     H53389   2.952  -0.083   6.642  3.1984 -0.4744 -2.3298
  387MOL0     H53390   3.530   1.062   6.135 -0.3072 -1.0397  0.3660
  387MOL0     H53391   3.701   1.057   5.964  1.3480 -3.5875 -1.9330
  387MOL0     H53392   3.874   0.665   5.657  0.5869 -0.8266 -0.7639
  387MOL0     H53393   4.030   0.617   5.474  3.1433  0.3098  0.3626
  387MOL0     H53394   4.302   0.902   5.312 -0.6443  0.4516  0.9417
  387MOL0     H53395   4.390   0.851   5.454 -2.4542  0.5373  0.8393
  387MOL0     H53396   4.501   0.680   5.313 -1.1189 -1.2826 -0.3346
  387MOL0     H53397   4.490   0.831   5.218  1.1717 -2.2022  0.0644
  387MOL0     H53398   4.271   0.616   5.223 -0.4628  2.0532  1.9720
  387MOL0     H53399   4.277   0.756   5.114  0.4708  2.7133  3.1697
  387MOL0     H53400   4.326   0.510   5.033 -1.4585  1.3815 -0.2529
  387MOL0     H53401   4.488   0.531   5.096  1.7062 -2.3705 -6.3363
  387MOL0     H53402   4.534   0.745   4.748  0.4804  3.2680  1.6709
  387MOL0     H53403   4.231   0.985   5.551  0.7525  0.2600  1.2629
  387MOL0     H53404   3.999   1.095   5.791 -0.9656 -0.2329 -0.2087
  387MOL0     H53405   4.155   1.031   5.866  0.1707  2.0758 -0.0691
  387MOL0     H53406   4.159   1.133   5.728  0.4029 -2.3739 -2.5628
  388MOL0     O53407   9.181  11.439   1.813 -0.5620 -0.1214  0.3524
  388MOL0     C53408   9.125  11.429   1.708  0.3864  0.6360  0.7674
  388MOL0     O53409   8.988  11.455   1.687 -0.3146 -0.0660 -0.5130
  388MOL0     C53410   8.926  11.533   1.779 -0.2481  0.0124 -0.2217
  388MOL0     C53411   8.847  11.461   1.873 -0.4467 -0.3884  0.2324
  388MOL0     C53412   8.780  11.528   1.971 -0.2535 -0.4546  0.1442
  388MOL0     C53413   8.799  11.675   1.971 -0.4654  0.5396 -0.8038
  388MOL0     O53414   8.744  11.727   2.082  0.0913  0.0121  0.9835
  388MOL0     C53415   8.784  11.856   2.132 -0.8233  0.1442 -0.4590
  388MOL0     C53416   8.687  11.870   2.250 -0.0005  0.7214  0.9682
  388MOL0     C53417   8.729  12.002   2.311 -0.6088  0.9611  1.0768
  388MOL0     C53418   8.631  12.060   2.416 -0.0624  0.3208  0.3116
  388MOL0     C53419   8.710  12.144   2.522 -0.4762  0.0646 -0.3293
  388MOL0     C53420   8.649  12.132   2.665 -0.0791  0.8429  0.5547
  388MOL0     C53421   8.738  12.180   2.777  0.2734  0.1969 -1.1334
  388MOL0     C53422   8.698  12.117   2.915  0.8692  0.2400  0.6310
  388MOL0     N53423   8.558  12.149   2.957  0.2270  0.0038 -0.8906
  388MOL0     C53424   8.495  12.269   2.942 -0.1646  0.5314 -0.2498
  388MOL0     C53425   8.396  12.260   3.033 -0.0233 -0.0378  0.2819
  388MOL0     C53426   8.319  12.379   3.068 -0.3929  0.3126  0.1907
  388MOL0     C53427   8.233  12.378   3.204  0.2763  0.4252 -0.5294
  388MOL0     C53428   8.133  12.495   3.216 -0.5426  0.7858 -0.5302
  388MOL0     C53429   8.039  12.471   3.330  0.9536  0.1417 -0.4103
  388MOL0     O53430   7.930  12.371   3.314 -0.1500 -0.0151  0.3362
  388MOL0     C53431   7.815  12.402   3.243 -0.8809  0.7212 -0.4044
  388MOL0     C53432   7.783  12.525   3.172 -0.9539 -0.2374  0.0774
  388MOL0     C53433   7.656  12.553   3.114 -0.4664  0.0932 -0.0606
  388MOL0     C53434   7.646  12.685   3.049  0.4197 -0.4436 -0.3299
  388MOL0     C53435   7.559  12.453   3.132  0.0265 -0.6048 -0.5338
  388MOL0     C53436   7.421  12.470   3.081  0.4185 -0.6388 -0.4808
  388MOL0     O53437   7.332  12.387   3.145 -0.4906 -0.4171 -0.0003
  388MOL0     C53438   7.202  12.382   3.103 -0.4717  0.6468 -0.8246
  388MOL0     C53439   7.111  12.464   3.166  0.3135 -0.2159 -1.3042
  388MOL0     C53440   6.978  12.466   3.119  1.0764 -0.9525  0.5777
  388MOL0     C53441   6.933  12.364   3.038  0.8537 -0.0791  0.1963
  388MOL0     O53442   6.793  12.356   3.026  0.3187 -0.1353  0.1944
  388MOL0     C53443   6.741  12.240   2.963 -0.1282  0.5920  0.7190
  388MOL0     C53444   6.591  12.229   3.000  0.0473  0.4294  0.1496
  388MOL0     C53445   6.500  12.342   2.941 -0.4801  0.4781 -0.3300
  388MOL0     C53446   6.367  12.271   2.907  0.4906 -0.7647  0.3723
  388MOL0     C53447   6.242  12.366   2.887 -0.2702 -0.2557  0.1380
  388MOL0     C53448   6.166  12.386   3.026  0.0355  0.0321 -0.1310
  388MOL0     C53449   6.024  12.432   2.995  0.3475  0.3496  0.3375
  388MOL0     C53450   5.954  12.463   3.126  0.1671 -0.6781  0.4328
  388MOL0    Cl53451   5.794  12.507   3.087  0.1602  0.1470  0.5203
  388MOL0     C53452   7.026  12.286   2.955  0.0236  0.1334 -0.0620
  388MOL0     C53453   7.159  12.312   2.990 -0.3380 -0.8204  0.7920
  388MOL0     O53454   7.396  12.540   2.979 -0.6763 -0.1312 -0.1256
  388MOL0     C53455   7.588  12.330   3.199  0.0607  0.1441  1.0723
  388MOL0     C53456   7.714  12.312   3.256  0.1606  0.0125  0.1327
  388MOL0     N53457   8.394  12.144   3.098  0.3378  0.2533  0.9057
  388MOL0     N53458   8.491  12.075   3.054  0.3337  0.1037  0.6509
  388MOL0     C53459   8.869  11.745   1.872  0.7549  0.1892 -0.3595
  388MOL0     C53460   8.930  11.671   1.773 -1.4610  0.3600  0.3113
  388MOL0     C53461   9.192  11.359   1.593 -1.0427 -0.0062 -0.1670
  388MOL0     C53462   9.320  11.403   1.548  0.3913 -0.1237  0.0096
  388MOL0     C53463   9.388  11.336   1.454 -0.3466 -0.2971  0.5770
  388MOL0     C53464   9.331  11.224   1.386 -0.5707 -0.2073  0.5708
  388MOL0     O53465   9.399  11.177   1.271 -0.6311  0.3413  0.0964
  388MOL0     C53466   9.366  11.045   1.221 -0.2108 -0.8775  0.4064
  388MOL0     C53467   9.481  10.985   1.135  0.3297 -0.1331  0.6130
  388MOL0     C53468   9.612  10.960   1.212 -0.9053  0.2799  0.4315
  388MOL0     C53469   9.732  10.908   1.132  0.1369 -0.0353  0.1307
  388MOL0     C53470   9.735  10.764   1.110 -0.1879 -0.2193 -1.3282
  388MOL0     C53471   9.729  10.643   1.103 -0.1034  0.7867  0.4907
  388MOL0     C53472   9.204  11.179   1.425  0.2466 -0.5571 -0.3328
  388MOL0     C53473   9.133  11.251   1.526 -0.2806 -0.9850 -0.8045
  388MOL0     C53474   8.990  11.206   1.555  0.5316  0.6088  0.1798
  388MOL0     H53475   8.843  11.353   1.865 -3.9989 -0.7164  3.6080
  388MOL0     H53476   8.727  11.481   2.054  0.3867  1.8379  1.9825
  388MOL0     H53477   8.773  11.936   2.059  0.7402 -1.9705 -3.2184
  388MOL0     H53478   8.884  11.836   2.171 -0.4176 -2.8026 -2.6314
  388MOL0     H53479   8.587  11.876   2.206  0.8045 -1.3839 -1.3563
  388MOL0     H53480   8.701  11.791   2.324 -0.8073  0.2847  0.6662
  388MOL0     H53481   8.832  11.994   2.347 -0.0181 -3.8111 -0.9061
  388MOL0     H53482   8.743  12.084   2.240 -0.5196  1.5355  1.7477
  388MOL0     H53483   8.577  12.145   2.372 -0.1650  1.5722  2.6913
  388MOL0     H53484   8.563  11.988   2.463 -0.3833  0.3588 -0.0937
  388MOL0     H53485   8.714  12.249   2.494 -2.1386 -0.3681 -2.5154
  388MOL0     H53486   8.811  12.106   2.540 -0.3296  2.2319  5.2117
  388MOL0     H53487   8.555  12.188   2.662  0.7395  2.2733  0.9480
  388MOL0     H53488   8.621  12.028   2.681 -3.6989  1.5229 -0.4635
  388MOL0     H53489   8.759  12.288   2.780 -1.9953  0.7395 -2.3752
  388MOL0     H53490   8.832  12.134   2.743 -0.5589 -2.0184 -0.5817
  388MOL0     H53491   8.705  12.009   2.904 -0.2142 -0.1357  3.0873
  388MOL0     H53492   8.764  12.144   2.998  3.4356  2.9964 -2.0321
  388MOL0     H53493   8.522  12.355   2.882  0.6305 -1.1488 -2.4514
  388MOL0     H53494   8.254  12.409   2.985 -1.4113  0.5585  1.0645
  388MOL0     H53495   8.391  12.460   3.082  0.2793 -0.3291  0.5224
  388MOL0     H53496   8.188  12.279   3.215  1.1245  0.1699  1.0416
  388MOL0     H53497   8.299  12.379   3.292 -1.2872  1.2595  0.6986
  388MOL0     H53498   8.190  12.588   3.219  1.8191 -0.3503 -3.8057
  388MOL0     H53499   8.081  12.504   3.120 -0.0245  2.8604 -0.6629
  388MOL0     H53500   8.102  12.438   3.413 -1.0943  0.8883  1.5543
  388MOL0     H53501   7.989  12.563   3.360 -0.7251  0.3649 -3.5142
  388MOL0     H53502   7.849  12.610   3.160 -0.3671 -0.8275 -0.9615
  388MOL0     H53503   7.638  12.662   2.942  0.3200  3.6473 -1.3780
  388MOL0     H53504   7.737  12.745   3.059  0.6330 -1.1395  3.1089
  388MOL0     H53505   7.563  12.734   3.102  2.0538 -1.0399  3.0399
  388MOL0     H53506   7.139  12.515   3.257  0.7337  2.0747 -2.6413
  388MOL0     H53507   6.898  12.530   3.155  1.2487  0.6963 -1.7284
  388MOL0     H53508   6.743  12.241   2.854 -1.9149 -1.1512  0.6147
  388MOL0     H53509   6.792  12.150   2.997  0.2034  0.1422 -0.9162
  388MOL0     H53510   6.567  12.136   2.947  0.6171  0.6308 -0.4746
  388MOL0     H53511   6.568  12.226   3.107  1.8475  1.4885  0.6158
  388MOL0     H53512   6.541  12.384   2.849  0.9085  0.8528  0.4180
  388MOL0     H53513   6.486  12.423   3.013 -1.0963  1.5591 -1.6346
  388MOL0     H53514   6.347  12.191   2.979 -0.6982 -1.3280 -0.5541
  388MOL0     H53515   6.384  12.224   2.810 -1.3206 -2.8822  1.0064
  388MOL0     H53516   6.275  12.465   2.855 -3.3420  0.0253 -2.6824
  388MOL0     H53517   6.175  12.320   2.814 -0.4422 -1.3183  0.9549
  388MOL0     H53518   6.219  12.451   3.096 -0.0890 -3.2135  3.2620
  388MOL0     H53519   6.163  12.286   3.071 -0.2802 -1.4570 -3.1788
  388MOL0     H53520   5.963  12.352   2.951 -1.5852  1.3624  1.0373
  388MOL0     H53521   6.028  12.523   2.935 -4.3930 -0.1411 -1.1281
  388MOL0     H53522   6.009  12.542   3.177 -1.4588  1.7705 -1.3052
  388MOL0     H53523   5.943  12.367   3.176 -3.0639 -1.1865 -0.9519
  388MOL0     H53524   7.000  12.209   2.883 -0.2528 -3.5591  3.5518
  388MOL0     H53525   7.227  12.250   2.931 -1.6456 -2.1839  0.6621
  388MOL0     H53526   7.513  12.253   3.220  1.0342 -0.3563  2.9748
  388MOL0     H53527   7.718  12.213   3.301 -6.0136 -0.1100  1.1689
  388MOL0     H53528   8.877  11.852   1.883 -1.4643  0.2909  1.0837
  388MOL0     H53529   8.991  11.713   1.694 -0.0616 -0.0671  1.1267
  388MOL0     H53530   9.360  11.491   1.599  0.2048  1.1052 -1.8564
  388MOL0     H53531   9.477  11.380   1.409  0.4481 -1.3624  1.0784
  388MOL0     H53532   9.361  10.988   1.315  0.4449 -2.5443 -0.5150
  388MOL0     H53533   9.268  11.039   1.173  0.3264  1.3668 -1.1373
  388MOL0     H53534   9.494  11.059   1.056 -5.2331  0.7179  0.1227
  388MOL0     H53535   9.462  10.883   1.099  2.5890  0.1495 -1.6573
  388MOL0     H53536   9.632  11.061   1.247 -2.1140  0.6123  0.2182
  388MOL0     H53537   9.597  10.893   1.297  0.0791 -4.1814 -2.5732
  388MOL0     H53538   9.817  10.927   1.198  0.5328 -2.3195  0.3458
  388MOL0     H53539   9.748  10.957   1.035  0.5089  0.6396  0.5323
  388MOL0     H53540   9.733  10.537   1.096 -2.6713  0.6613 -0.0905
  388MOL0     H53541   9.154  11.096   1.376 -0.2692 -0.7850  0.5659
  388MOL0     H53542   8.921  11.277   1.507 -0.4184  0.2411  0.9762
  388MOL0     H53543   8.966  11.111   1.507 -2.3607  2.8493 -3.4684
  388MOL0     H53544   8.962  11.181   1.657 -1.5351 -1.1783 -0.7324
  389MOL0     O53545  10.354   1.666   1.827 -0.1034 -0.1485  0.0025
  389MOL0     C53546  10.251   1.720   1.788 -0.0477 -0.2363 -0.3417
  389MOL0     O53547  10.230   1.755   1.658  0.0044 -0.1692  0.2237
  389MOL0     C53548  10.335   1.739   1.569 -0.0383 -0.1792 -0.2301
  389MOL0     C53549  10.377   1.616   1.520  0.1379  0.2344 -0.4797
  389MOL0     C53550  10.486   1.601   1.435 -0.5295 -0.2014 -0.1395
  389MOL0     C53551  10.539   1.718   1.377  0.4344  1.2274 -0.5243
  389MOL0     O53552  10.623   1.695   1.275 -0.0202  0.4040  0.4576
  389MOL0     C53553  10.677   1.816   1.206 -0.0858 -0.5131 -0.8163
  389MOL0     C53554  10.772   1.768   1.098 -1.2409  1.1509  0.3589
  389MOL0     C53555  10.900   1.720   1.169 -0.4360 -0.1451 -0.3365
  389MOL0     C53556  11.005   1.682   1.070  0.0170  0.0731 -0.2162
  389MOL0     C53557  11.123   1.613   1.142  0.6142 -0.1875  0.0799
  389MOL0     C53558  11.234   1.579   1.045 -0.1417  0.5182 -0.3623
  389MOL0     C53559  11.284   1.710   0.980 -0.0572 -0.1070  0.1669
  389MOL0     C53560  11.412   1.672   0.901 -0.1820 -0.5626 -0.5906
  389MOL0     N53561  11.521   1.775   0.914 -0.1632  0.4807  1.0079
  389MOL0     C53562  11.515   1.905   0.872  0.3281 -0.4302 -0.2191
  389MOL0     C53563  11.634   1.968   0.900  0.0911  0.3932 -0.7590
  389MOL0     C53564  11.678   2.110   0.862  0.4768  0.2669 -0.0543
  389MOL0     C53565  11.621   2.146   0.719 -0.1931  0.1700 -1.2396
  389MOL0     C53566  11.692   2.060   0.613  0.7945  0.3834  0.3982
  389MOL0     C53567  11.845   2.051   0.631 -0.0149  0.3254 -0.1758
  389MOL0     O53568  11.905   2.009   0.508  0.7318 -0.9386 -0.3670
  389MOL0     C53569  11.906   2.089   0.394 -0.2485  0.2437  0.6034
  389MOL0     C53570  11.950   2.027   0.274  0.5809 -0.5680  0.5129
  389MOL0     C53571  11.936   2.097   0.149  0.2772 -0.0384 -0.2322
  389MOL0     C53572  11.978   2.037   0.025 -0.0097  0.4862  0.0691
  389MOL0     C53573  11.896   2.239   0.150 -1.8196  0.3704  0.5334
  389MOL0     C53574  11.892   2.317   0.023 -0.7690 -0.5528 -0.9006
  389MOL0     O53575  11.962   2.430   0.016 -0.1013 -0.1733 -0.1630
  389MOL0     C53576  12.020   2.460  -0.105  0.6375 -1.0797  0.8548
  389MOL0     C53577  11.967   2.571  -0.176  0.1721  1.2301  0.0294
  389MOL0     C53578  12.015   2.604  -0.299 -0.7882  0.3614  0.3631
  389MOL0     C53579  12.132   2.534  -0.350 -0.9027 -0.3857  0.3860
  389MOL0     O53580  12.163   2.559  -0.483  0.8891  0.3750 -0.4443
  389MOL0     C53581  12.106   2.467  -0.567  0.5156  0.1754  0.1370
  389MOL0     C53582  11.995   2.534  -0.646  0.3024 -0.2514  0.3523
  389MOL0     C53583  12.037   2.652  -0.730 -0.0910  0.5015  0.8901
  389MOL0     C53584  12.085   2.615  -0.871 -0.4372  0.2523 -0.6390
  389MOL0     C53585  12.134   2.744  -0.946  0.7361  0.2861  0.0207
  389MOL0     C53586  12.218   2.720  -1.067 -0.2652 -0.9028  0.4882
  389MOL0     C53587  12.150   2.633  -1.170  0.5425 -0.2230 -0.5201
  389MOL0     C53588  12.237   2.610  -1.295  0.7648 -0.1394  0.5081
  389MOL0    Cl53589  12.390   2.515  -1.274 -0.2934 -0.2842 -0.1410
  389MOL0     C53590  12.195   2.441  -0.276 -1.0877  0.6894  0.4746
  389MOL0     C53591  12.140   2.402  -0.151  0.1850  0.0440 -0.3348
  389MOL0     O53592  11.828   2.268  -0.074  0.1641  0.4648 -0.3459
  389MOL0     C53593  11.869   2.296   0.269  0.0934  0.0851 -0.1312
  389MOL0     C53594  11.870   2.227   0.390 -0.7641  0.3049 -0.1188
  389MOL0     N53595  11.714   1.878   0.966  0.7334 -0.3747  0.2244
  389MOL0     N53596  11.646   1.762   0.967  0.3268  0.0805 -0.3606
  389MOL0     C53597  10.496   1.845   1.425 -0.0727  0.3597 -0.2439
  389MOL0     C53598  10.412   1.857   1.526 -0.2408 -0.3205  0.4386
  389MOL0     C53599  10.140   1.735   1.884 -0.9048  0.2436  0.2377
  389MOL0     C53600  10.154   1.684   2.012 -0.1748 -0.4390 -0.1332
  389MOL0     C53601  10.048   1.675   2.103 -0.9026 -0.1910  0.3340
  389MOL0     C53602   9.932   1.728   2.068  0.5992 -0.3633  0.1873
  389MOL0     O53603   9.828   1.707   2.140 -0.1567  0.2746 -0.4623
  389MOL0     C53604   9.741   1.597   2.118  0.2475  1.0621 -0.0154
  389MOL0     C53605   9.805   1.455   2.126 -0.1752 -0.0243 -0.0230
  389MOL0     C53606   9.704   1.350   2.181  0.3201  0.0023 -0.5413
  389MOL0     C53607   9.759   1.213   2.211  0.6749  0.3508 -0.6243
  389MOL0     C53608   9.794   1.139   2.088 -0.3041 -0.4271 -0.8187
  389MOL0     C53609   9.807   1.080   1.987 -0.0582  0.2409  0.5176
  389MOL0     C53610   9.921   1.796   1.948  0.8747  0.0414  0.1641
  389MOL0     C53611  10.017   1.792   1.853 -0.0387 -0.2958  0.0065
  389MOL0     C53612   9.973   1.854   1.723  0.0341  0.4317 -0.1110
  389MOL0     H53613  10.336   1.523   1.558 -0.6476  1.4741  1.8947
  389MOL0     H53614  10.508   1.497   1.410 -2.2942 -0.7042  0.2449
  389MOL0     H53615  10.724   1.890   1.271  1.4471 -1.0469 -1.2639
  389MOL0     H53616  10.602   1.878   1.156  2.1023  0.9164 -2.5026
  389MOL0     H53617  10.725   1.689   1.037  1.3770 -0.5212  0.3281
  389MOL0     H53618  10.797   1.853   1.033 -0.6837  0.7930  0.0982
  389MOL0     H53619  10.935   1.805   1.229 -0.6236 -1.1561  1.2789
  389MOL0     H53620  10.872   1.641   1.239 -6.3196  0.6824 -1.2324
  389MOL0     H53621  10.956   1.607   1.007  0.0414 -1.0804  1.0711
  389MOL0     H53622  11.030   1.764   1.002 -0.4534  0.1902 -0.2488
  389MOL0     H53623  11.101   1.509   1.167  1.3740 -0.3293  0.1561
  389MOL0     H53624  11.159   1.662   1.233  0.7934 -2.7497  1.4838
  389MOL0     H53625  11.319   1.544   1.104  1.0823  1.0010 -1.7754
  389MOL0     H53626  11.203   1.503   0.973 -1.7106 -1.5449  2.3475
  389MOL0     H53627  11.307   1.785   1.056 -2.0617 -0.9599  1.7028
  389MOL0     H53628  11.213   1.743   0.903  0.1740  0.2925  0.1261
  389MOL0     H53629  11.449   1.584   0.953 -1.2636 -0.7223 -0.0686
  389MOL0     H53630  11.392   1.641   0.797 -0.4759 -5.2428  0.6324
  389MOL0     H53631  11.427   1.951   0.826 -0.4144  0.8053  2.2486
  389MOL0     H53632  11.784   2.131   0.879 -0.1545  2.5087  1.5002
  389MOL0     H53633  11.635   2.178   0.935 -1.3884  2.6180 -3.0859
  389MOL0     H53634  11.512   2.147   0.719 -0.2732 -0.1959  1.4950
  389MOL0     H53635  11.648   2.251   0.702 -0.9752  0.5316 -0.3476
  389MOL0     H53636  11.641   1.963   0.618  2.1119 -0.3271  0.5470
  389MOL0     H53637  11.664   2.098   0.515 -1.4782 -2.3712 -0.1386
  389MOL0     H53638  11.893   2.141   0.670  3.8405 -1.5897 -0.0678
  389MOL0     H53639  11.870   1.980   0.710 -2.0054  0.5570  0.7291
  389MOL0     H53640  11.977   1.922   0.271 -1.2823 -1.0630 -1.6478
  389MOL0     H53641  12.064   2.087  -0.021 -0.5366  0.3209 -1.1300
  389MOL0     H53642  11.896   2.022  -0.046 -0.3063  1.3086  0.2244
  389MOL0     H53643  11.998   1.931   0.041  3.8804  1.4080  3.3183
  389MOL0     H53644  11.875   2.610  -0.133 -0.8418  0.8435 -1.7117
  389MOL0     H53645  11.971   2.686  -0.355  2.7377  2.8459  0.8934
  389MOL0     H53646  12.179   2.443  -0.644 -2.4437 -1.1827 -2.5032
  389MOL0     H53647  12.071   2.377  -0.515  0.8899  0.9579  1.8381
  389MOL0     H53648  11.946   2.455  -0.704 -0.5340 -2.0193  3.2760
  389MOL0     H53649  11.916   2.574  -0.582 -2.4962 -0.8305 -2.4928
  389MOL0     H53650  12.121   2.711  -0.692 -1.2087  2.4852  0.4361
  389MOL0     H53651  11.955   2.724  -0.734 -1.1951 -0.5674  2.6797
  389MOL0     H53652  12.012   2.569  -0.938 -1.5621  1.0557  0.0109
  389MOL0     H53653  12.171   2.548  -0.868  0.1544  1.0362  1.0283
  389MOL0     H53654  12.047   2.798  -0.985  0.5923  1.5646  1.9771
  389MOL0     H53655  12.178   2.812  -0.873 -0.8979 -1.0315  2.3480
  389MOL0     H53656  12.308   2.665  -1.037 -0.5393 -2.2858 -1.0920
  389MOL0     H53657  12.229   2.814  -1.120 -2.3107 -0.4284  0.8350
  389MOL0     H53658  12.061   2.683  -1.208  0.5572 -0.9069 -1.4834
  389MOL0     H53659  12.116   2.537  -1.129 -2.6610 -0.2753 -2.9139
  389MOL0     H53660  12.264   2.704  -1.345 -0.7257 -1.9128 -4.1901
  389MOL0     H53661  12.178   2.565  -1.375 -1.2861  2.2275  0.5514
  389MOL0     H53662  12.281   2.386  -0.312 -0.1887  1.8132  0.8468
  389MOL0     H53663  12.197   2.333  -0.089 -0.9126 -0.1232  0.5426
  389MOL0     H53664  11.840   2.400   0.276  2.4046  0.6976  1.5433
  389MOL0     H53665  11.841   2.283   0.478 -2.3426 -1.4671  0.5633
  389MOL0     H53666  10.548   1.934   1.390 -1.6094  0.9910 -1.0344
  389MOL0     H53667  10.391   1.951   1.576 -0.0646  0.0139 -0.1065
  389MOL0     H53668  10.238   1.622   2.041 -0.3917 -1.7618 -2.1504
  389MOL0     H53669  10.043   1.614   2.192  2.8919  0.0203  0.8819
  389MOL0     H53670   9.664   1.603   2.195  0.5297  0.6628  0.3006
  389MOL0     H53671   9.686   1.605   2.024  0.3392  2.0397  0.0032
  389MOL0     H53672   9.901   1.458   2.180 -0.3730 -0.5211  0.3569
  389MOL0     H53673   9.828   1.425   2.023  1.0074  1.7178 -0.3185
  389MOL0     H53674   9.664   1.394   2.273  0.0270  0.8346 -1.0559
  389MOL0     H53675   9.623   1.341   2.108  1.6392 -0.2091 -2.0353
  389MOL0     H53676   9.681   1.153   2.260  1.4789  1.1425  1.7337
  389MOL0     H53677   9.839   1.219   2.284 -0.4788  2.4920  0.5311
  389MOL0     H53678   9.838   1.025   1.900 -1.2901 -0.9359  0.7849
  389MOL0     H53679   9.827   1.838   1.917 -0.4282 -1.4693  1.8522
  389MOL0     H53680   9.870   1.892   1.718  0.4663  2.1442  2.1745
  389MOL0     H53681  10.032   1.946   1.720 -1.5374  1.4776 -0.3648
  389MOL0     H53682   9.996   1.796   1.634  2.6263 -1.9924  1.9681
  390MOL0     O53683   0.360   2.883   1.543  0.8655  0.7259 -0.1640
  390MOL0     C53684   0.342   2.762   1.562  0.2834  0.3422 -0.0683
  390MOL0     O53685   0.343   2.668   1.459  0.3071  0.7350  0.0232
  390MOL0     C53686   0.419   2.693   1.348  0.2748  0.2874 -0.0934
  390MOL0     C53687   0.554   2.717   1.353  0.2988  0.1820  0.6678
  390MOL0     C53688   0.623   2.741   1.228 -0.0332  0.2744 -0.2620
  390MOL0     C53689   0.551   2.754   1.109  0.4209 -0.6402  0.1964
  390MOL0     O53690   0.607   2.766   0.986 -0.2051 -0.3624  0.5137
  390MOL0     C53691   0.747   2.768   0.965 -0.0895 -0.0262  0.5561
  390MOL0     C53692   0.794   2.763   0.814 -0.8937 -0.5573  0.1881
  390MOL0     C53693   0.773   2.898   0.731  0.1029  0.4812  0.0524
  390MOL0     C53694   0.857   3.013   0.790  0.9098  0.0851 -0.1918
  390MOL0     C53695   0.829   3.133   0.694  0.2669 -0.0265 -0.3323
  390MOL0     C53696   0.909   3.247   0.752 -0.3406 -0.0935 -0.2781
  390MOL0     C53697   0.887   3.381   0.685 -0.5750  0.7379  0.4805
  390MOL0     C53698   1.004   3.488   0.701  0.4127  0.4508 -0.1230
  390MOL0     N53699   1.019   3.521   0.843 -0.3357 -0.8704 -0.2311
  390MOL0     C53700   0.944   3.602   0.924  0.9304 -0.2204  0.4859
  390MOL0     C53701   0.979   3.576   1.058 -0.8773 -1.1344  0.0612
  390MOL0     C53702   0.945   3.665   1.175  0.0183  0.2732  0.6357
  390MOL0     C53703   0.803   3.651   1.237  0.5022  1.7262  0.0695
  390MOL0     C53704   0.682   3.697   1.155  0.2077  0.2837 -0.2246
  390MOL0     C53705   0.542   3.685   1.218 -0.4306 -0.6685  0.1665
  390MOL0     O53706   0.445   3.753   1.130 -0.4103 -0.0065 -0.1873
  390MOL0     C53707   0.307   3.723   1.145 -0.2980  0.6706 -1.0047
  390MOL0     C53708   0.264   3.612   1.221  0.7264  0.5838 -0.0467
  390MOL0     C53709   0.121   3.600   1.245 -0.0353 -0.0624  1.0415
  390MOL0     C53710   0.081   3.504   1.348 -0.1777  0.3372  0.5180
  390MOL0     C53711   0.026   3.697   1.191  0.3635 -0.4228 -0.5272
  390MOL0     C53712  -0.115   3.698   1.224 -0.6986  0.3603  0.1320
  390MOL0     O53713  -0.183   3.810   1.201 -0.1405  0.1339 -0.1891
  390MOL0     C53714  -0.319   3.821   1.209  0.2450  0.2449  0.5022
  390MOL0     C53715  -0.399   3.748   1.123  0.1994 -0.2151 -0.7267
  390MOL0     C53716  -0.533   3.761   1.122  0.6788  0.2756 -0.6295
  390MOL0     C53717  -0.598   3.862   1.202 -0.7580 -0.2726 -0.1703
  390MOL0     O53718  -0.734   3.861   1.210  0.1627 -0.2375  0.6723
  390MOL0     C53719  -0.798   3.881   1.343  0.0404  0.4455  0.8375
  390MOL0     C53720  -0.943   3.887   1.307 -0.2831  0.8495 -0.0956
  390MOL0     C53721  -0.989   3.747   1.280 -0.7707  0.5611 -0.0005
  390MOL0     C53722  -1.140   3.729   1.272  0.1338 -0.0765  0.3123
  390MOL0     C53723  -1.164   3.596   1.230 -0.4459  0.2255 -0.7844
  390MOL0     C53724  -1.318   3.566   1.227 -0.6131 -1.0589  0.8647
  390MOL0     C53725  -1.346   3.436   1.143 -0.0078 -0.0703  0.1209
  390MOL0     C53726  -1.350   3.476   0.993 -0.0522  0.2385 -0.2660
  390MOL0    Cl53727  -1.428   3.341   0.905  0.1009  0.3059 -0.1956
  390MOL0     C53728  -0.520   3.943   1.289 -0.0129  0.4120 -0.2612
  390MOL0     C53729  -0.378   3.921   1.290  0.2634 -0.0548  0.1791
  390MOL0     O53730  -0.168   3.598   1.270 -0.0977 -0.3100 -0.3501
  390MOL0     C53731   0.074   3.796   1.111  0.4971 -0.7475  0.4132
  390MOL0     C53732   0.209   3.802   1.076 -0.5964  0.2073  0.4594
  390MOL0     N53733   1.087   3.489   1.052  0.0498 -0.2448 -0.5985
  390MOL0     N53734   1.098   3.451   0.932  0.0226  0.1025  0.1893
  390MOL0     C53735   0.412   2.738   1.112 -0.6992  0.2294  0.5198
  390MOL0     C53736   0.353   2.707   1.229  0.2388 -0.0582 -0.2588
  390MOL0     C53737   0.316   2.707   1.696  0.4870 -1.1074 -0.5697
  390MOL0     C53738   0.393   2.760   1.802  0.3562  0.5278  0.1251
  390MOL0     C53739   0.379   2.729   1.943 -1.0782 -0.6511  0.8297
  390MOL0     C53740   0.291   2.636   1.980 -0.1441  0.5417 -0.3211
  390MOL0     O53741   0.265   2.606   2.120 -0.6680 -0.2461 -0.4221
  390MOL0     C53742   0.132   2.570   2.162 -0.0309 -0.4171 -0.4663
  390MOL0     C53743   0.030   2.681   2.130 -0.2910 -0.5048  0.3919
  390MOL0     C53744  -0.104   2.635   2.194  0.2771 -0.3636 -0.1984
  390MOL0     C53745  -0.190   2.760   2.202 -0.1820  0.2497  0.6556
  390MOL0     C53746  -0.315   2.732   2.266  0.6627 -1.3939 -0.5701
  390MOL0     C53747  -0.432   2.719   2.301 -0.0444  0.1517 -0.7793
  390MOL0     C53748   0.218   2.568   1.873 -0.8070 -0.4625 -0.5695
  390MOL0     C53749   0.229   2.596   1.737 -0.6256  0.1295  0.8734
  390MOL0     C53750   0.167   2.512   1.636  0.1279 -0.9019  0.4326
  390MOL0     H53751   0.606   2.729   1.448 -0.1388  5.8505  0.5120
  390MOL0     H53752   0.729   2.760   1.232 -0.2744  1.6453  0.3224
  390MOL0     H53753   0.787   2.680   1.016 -0.4563  0.2677  1.3678
  390MOL0     H53754   0.795   2.839   1.032 -2.6691  1.4117  1.0166
  390MOL0     H53755   0.902   2.752   0.819 -0.6039  0.9205 -1.6893
  390MOL0     H53756   0.755   2.682   0.752  0.6097 -1.1362 -0.0428
  390MOL0     H53757   0.802   2.882   0.627 -0.0199  1.9560 -0.2284
  390MOL0     H53758   0.669   2.931   0.733  0.8648  3.4012  3.8716
  390MOL0     H53759   0.822   3.031   0.892  0.4236  0.2174 -0.3751
  390MOL0     H53760   0.963   2.987   0.794  0.0847 -3.6732  1.3580
  390MOL0     H53761   0.723   3.159   0.696  0.7673  2.4231 -1.5738
  390MOL0     H53762   0.853   3.106   0.591  0.6811  2.3066 -0.9126
  390MOL0     H53763   0.886   3.250   0.859 -0.1437 -2.6291 -0.0880
  390MOL0     H53764   1.015   3.219   0.748 -0.8772 -2.6084  1.0639
  390MOL0     H53765   0.791   3.425   0.716 -0.9030  0.3643  0.0127
  390MOL0     H53766   0.881   3.365   0.577 -1.7621  0.4698  0.5634
  390MOL0     H53767   1.097   3.448   0.659 -1.2685 -3.1927 -0.7640
  390MOL0     H53768   0.962   3.582   0.663 -2.5393  0.6193  3.0325
  390MOL0     H53769   0.881   3.678   0.881  0.7859 -1.3474 -1.4297
  390MOL0     H53770   0.960   3.764   1.132  4.5168 -0.5050 -0.0966
  390MOL0     H53771   1.009   3.645   1.262 -1.1254  1.0757  1.7012
  390MOL0     H53772   0.795   3.542   1.243 -0.0754  1.7372 -0.4252
  390MOL0     H53773   0.801   3.690   1.339 -1.7683 -0.5582  1.0058
  390MOL0     H53774   0.701   3.800   1.124  3.6621 -0.7382 -1.9091
  390MOL0     H53775   0.657   3.647   1.061 -0.8601  0.8147 -0.2467
  390MOL0     H53776   0.535   3.578   1.235  3.2218 -0.9860  0.5411
  390MOL0     H53777   0.549   3.734   1.316  2.7801 -1.8281  0.6480
  390MOL0     H53778   0.321   3.529   1.263 -2.7601 -1.5752  0.8327
  390MOL0     H53779  -0.003   3.440   1.318 -1.0461  1.9840 -0.7076
  390MOL0     H53780   0.073   3.551   1.445 -2.2706 -1.5478  1.3469
  390MOL0     H53781   0.153   3.424   1.369 -1.4429 -0.9645  0.0939
  390MOL0     H53782  -0.359   3.668   1.063 -2.3780 -2.4797  0.3613
  390MOL0     H53783  -0.584   3.694   1.053  2.2877 -0.0137 -1.5901
  390MOL0     H53784  -0.776   3.810   1.423 -0.9614 -1.0111 -0.1391
  390MOL0     H53785  -0.774   3.982   1.379  1.7523  0.7630 -1.0435
  390MOL0     H53786  -0.990   3.930   1.396  2.3908  2.4512  0.6727
  390MOL0     H53787  -0.963   3.945   1.217 -0.4816 -1.5970 -1.7350
  390MOL0     H53788  -0.949   3.678   1.355  1.9056  1.5992 -0.3884
  390MOL0     H53789  -0.950   3.721   1.181 -1.7634 -2.0276  0.2039
  390MOL0     H53790  -1.188   3.801   1.206  6.2480  5.0033  0.5014
  390MOL0     H53791  -1.176   3.742   1.374  1.9993 -1.4010  1.2081
  390MOL0     H53792  -1.125   3.585   1.129 -2.1775 -0.0441 -1.4654
  390MOL0     H53793  -1.118   3.524   1.298  1.5554  0.9348 -1.3217
  390MOL0     H53794  -1.378   3.647   1.184  1.2603 -0.1324 -0.1376
  390MOL0     H53795  -1.358   3.554   1.328 -0.5518 -0.9553  0.9017
  390MOL0     H53796  -1.445   3.402   1.176  0.6311 -0.3366  1.8502
  390MOL0     H53797  -1.271   3.361   1.167  3.1320  2.4698 -0.9602
  390MOL0     H53798  -1.247   3.495   0.962  0.8169 -0.9825  1.6925
  390MOL0     H53799  -1.416   3.561   0.974 -2.2844 -0.6387  2.7769
  390MOL0     H53800  -0.565   4.020   1.350  0.1136  0.4429 -0.2076
  390MOL0     H53801  -0.309   3.984   1.344 -0.4133 -0.4903  1.5929
  390MOL0     H53802  -0.001   3.864   1.074 -0.6297 -3.2108 -2.1718
  390MOL0     H53803   0.237   3.888   1.017  0.0318  2.1019  3.2858
  390MOL0     H53804   0.364   2.764   1.019 -1.4665 -3.0715 -0.1237
  390MOL0     H53805   0.244   2.709   1.223  0.2173  1.3956  0.1980
  390MOL0     H53806   0.438   2.855   1.775 -2.6153  1.1869 -3.2947
  390MOL0     H53807   0.439   2.784   2.015  0.8082  1.1641 -1.9024
  390MOL0     H53808   0.099   2.479   2.111  0.5437 -1.1135  0.3901
  390MOL0     H53809   0.126   2.553   2.270  1.2821  1.5048 -0.0392
  390MOL0     H53810   0.037   2.708   2.024  1.3843  0.2192  0.6540
  390MOL0     H53811   0.064   2.771   2.181 -2.6769 -0.3655  1.8946
  390MOL0     H53812  -0.167   2.557   2.149  0.5220 -0.5050 -0.2990
  390MOL0     H53813  -0.089   2.595   2.295 -0.1884  3.7763  1.7285
  390MOL0     H53814  -0.210   2.800   2.102  0.2994  1.5099  1.0540
  390MOL0     H53815  -0.129   2.832   2.257  1.8745  1.4061 -2.7891
  390MOL0     H53816  -0.531   2.684   2.320  0.1446  0.6786  1.4871
  390MOL0     H53817   0.146   2.491   1.898 -0.8559 -0.3769 -0.4454
  390MOL0     H53818   0.249   2.448   1.602  1.9373  0.4071  2.0929
  390MOL0     H53819   0.093   2.447   1.683  0.3209 -0.9282  0.7038
  390MOL0     H53820   0.121   2.574   1.559 -0.0821  0.7289  1.8078
  391MOL0     O53821  10.147   5.771   2.953 -0.5056 -0.6049 -0.3563
  391MOL0     C53822  10.028   5.786   2.975 -0.1661  0.4318  0.2163
  391MOL0     O53823   9.975   5.790   3.098 -0.1939 -0.0882  0.9442
  391MOL0     C53824  10.061   5.797   3.197  0.5464 -0.6618 -0.0978
  391MOL0     C53825  10.116   5.923   3.222  0.3548 -0.1510  0.2804
  391MOL0     C53826  10.200   5.945   3.331  0.0489 -0.2374  0.0351
  391MOL0     C53827  10.217   5.843   3.423 -0.5804 -0.3011  0.4921
  391MOL0     O53828  10.296   5.854   3.528 -1.0574  0.2708  0.4427
  391MOL0     C53829  10.255   5.943   3.627 -0.6680 -0.2526  0.0005
  391MOL0     C53830  10.329   5.910   3.759  0.2943  0.7307  0.9812
  391MOL0     C53831  10.307   5.758   3.809 -0.4133 -1.0121  0.0251
  391MOL0     C53832  10.404   5.719   3.926 -0.8236 -0.2639 -0.7711
  391MOL0     C53833  10.389   5.810   4.047 -0.3329  0.0203  0.0438
  391MOL0     C53834  10.499   5.782   4.143 -0.4857 -1.1049  0.2539
  391MOL0     C53835  10.636   5.844   4.103 -0.5327  0.5745  1.1539
  391MOL0     C53836  10.738   5.789   4.202 -0.7222  0.2246 -0.6745
  391MOL0     N53837  10.706   5.840   4.333  0.3862  0.4175  1.2346
  391MOL0     C53838  10.714   5.971   4.377  0.0370  0.2754 -0.9239
  391MOL0     C53839  10.671   5.964   4.507 -0.2808  0.1534  0.0696
  391MOL0     C53840  10.640   6.092   4.588 -0.0966  0.8831 -0.1045
  391MOL0     C53841  10.644   6.064   4.739 -0.0817 -0.2007  0.0162
  391MOL0     C53842  10.588   6.185   4.818 -0.2819  0.0591  0.1453
  391MOL0     C53843  10.652   6.180   4.956 -0.0129 -1.2977 -0.1080
  391MOL0     O53844  10.624   6.306   5.017  0.0665 -1.0370  0.1713
  391MOL0     C53845  10.709   6.345   5.128  0.0576 -0.9366  0.8765
  391MOL0     C53846  10.669   6.464   5.191 -0.2911 -0.0083 -0.5635
  391MOL0     C53847  10.742   6.511   5.307  0.3318  0.2666  0.4553
  391MOL0     C53848  10.691   6.641   5.363 -0.0389 -1.1037  0.4032
  391MOL0     C53849  10.856   6.443   5.346 -0.0707 -0.0438 -0.3225
  391MOL0     C53850  10.955   6.490   5.450  0.4401  1.5586  0.5305
  391MOL0     O53851  11.071   6.434   5.444 -0.8847  0.1276 -0.5218
  391MOL0     C53852  11.180   6.468   5.516 -0.1105 -0.0303 -0.3128
  391MOL0     C53853  11.283   6.521   5.440 -0.1504 -0.2628  0.1119
  391MOL0     C53854  11.391   6.577   5.510 -0.7928  0.7859 -0.0659
  391MOL0     C53855  11.395   6.576   5.655  0.1361  0.2244  0.8175
  391MOL0     O53856  11.498   6.642   5.721  0.7256  0.3368  0.6377
  391MOL0     C53857  11.549   6.758   5.659  0.7175  0.3337 -0.6721
  391MOL0     C53858  11.617   6.834   5.777 -0.3467 -0.3830 -0.4062
  391MOL0     C53859  11.533   6.875   5.902  0.4128  0.4677  0.1179
  391MOL0     C53860  11.485   6.761   5.988 -0.4513  0.3479  0.6046
  391MOL0     C53861  11.398   6.805   6.100 -0.0759 -0.1579  0.2273
  391MOL0     C53862  11.339   6.689   6.180  0.7931 -0.2476  0.1690
  391MOL0     C53863  11.215   6.625   6.111  0.5129 -0.3564  0.2755
  391MOL0     C53864  11.139   6.526   6.188 -0.6576 -0.0894 -0.3967
  391MOL0    Cl53865  11.037   6.606   6.311 -0.1244  0.0628 -0.2300
  391MOL0     C53866  11.286   6.518   5.724 -0.5829 -0.4833  0.7038
  391MOL0     C53867  11.177   6.458   5.660  0.3200  0.2154  0.4963
  391MOL0     O53868  10.921   6.577   5.525  0.2434 -0.4215 -0.0721
  391MOL0     C53869  10.890   6.320   5.293 -0.7043  0.4670  0.4329
  391MOL0     C53870  10.815   6.270   5.187  0.3042  0.4271  1.1051
  391MOL0     N53871  10.618   5.840   4.523 -0.3695  0.3338 -0.6484
  391MOL0     N53872  10.640   5.769   4.418 -0.0346  0.3796 -0.1134
  391MOL0     C53873  10.171   5.714   3.393 -1.0242 -0.2166  0.2967
  391MOL0     C53874  10.080   5.690   3.285 -0.0728 -0.0073 -0.0115
  391MOL0     C53875   9.930   5.792   2.870  0.4778  0.2602  0.1880
  391MOL0     C53876   9.800   5.833   2.905 -0.3598 -0.5997  0.6445
  391MOL0     C53877   9.701   5.859   2.806  0.8020 -0.7666 -0.1960
  391MOL0     C53878   9.724   5.848   2.675  0.6163  1.2947  0.1072
  391MOL0     O53879   9.623   5.886   2.593 -0.5045  0.3746 -0.0064
  391MOL0     C53880   9.596   5.804   2.480 -0.1666 -0.0227 -0.0358
  391MOL0     C53881   9.445   5.795   2.481  0.0089 -0.1673 -0.7144
  391MOL0     C53882   9.389   5.654   2.515 -0.8935 -0.1098 -0.1045
  391MOL0     C53883   9.411   5.630   2.662 -0.8763  0.7379 -0.0801
  391MOL0     C53884   9.303   5.678   2.754  0.2975  0.3137 -0.4740
  391MOL0     C53885   9.227   5.741   2.829  0.0330 -0.0675  0.4486
  391MOL0     C53886   9.849   5.803   2.638 -0.3792 -0.4488  0.5170
  391MOL0     C53887   9.955   5.766   2.729  0.6322 -0.1549 -0.8091
  391MOL0     C53888  10.091   5.732   2.672 -0.7693 -0.5436  0.3591
  391MOL0     H53889  10.089   6.008   3.159 -1.4808 -0.6260  0.3509
  391MOL0     H53890  10.237   6.043   3.359 -1.5749  0.3141  0.3911
  391MOL0     H53891  10.146   5.935   3.638 -0.3756 -1.8248  2.1449
  391MOL0     H53892  10.288   6.047   3.615  1.1040 -0.8545 -0.6633
  391MOL0     H53893  10.434   5.929   3.734 -0.2067  1.1967 -0.9611
  391MOL0     H53894  10.288   5.985   3.826 -0.6501  0.5345  0.6440
  391MOL0     H53895  10.201   5.747   3.835  0.0869 -0.2884  2.6684
  391MOL0     H53896  10.332   5.693   3.724 -1.4197 -0.4598 -0.7224
  391MOL0     H53897  10.393   5.614   3.954  1.0015  0.5257  3.6360
  391MOL0     H53898  10.507   5.719   3.890 -0.3160 -1.4415  0.5698
  391MOL0     H53899  10.293   5.782   4.092 -1.2699  2.0481 -0.5763
  391MOL0     H53900  10.393   5.918   4.030 -0.8605  0.4406  2.2840
  391MOL0     H53901  10.467   5.834   4.234  0.9436  0.0906  0.0972
  391MOL0     H53902  10.507   5.676   4.170 -1.7732 -0.8788  1.7343
  391MOL0     H53903  10.636   5.953   4.098  0.9247  0.5540 -0.1097
  391MOL0     H53904  10.654   5.813   3.999  0.3693 -1.0817  1.7720
  391MOL0     H53905  10.746   5.680   4.206  2.6757  0.3667 -0.2411
  391MOL0     H53906  10.838   5.829   4.182 -0.4108 -0.8766 -1.3844
  391MOL0     H53907  10.747   6.058   4.321 -0.9601  1.4960  0.2877
  391MOL0     H53908  10.539   6.130   4.568  0.6353  3.3531  0.6067
  391MOL0     H53909  10.709   6.173   4.564  0.5847  1.1208  2.3871
  391MOL0     H53910  10.584   5.978   4.769 -0.9022  0.1509 -0.5860
  391MOL0     H53911  10.748   6.043   4.766 -0.0880 -0.2480  0.0001
  391MOL0     H53912  10.599   6.283   4.770  2.3430 -0.7186 -1.0545
  391MOL0     H53913  10.480   6.174   4.830 -0.2348  0.3164  0.8985
  391MOL0     H53914  10.618   6.091   5.010 -0.6026 -0.4567  0.9383
  391MOL0     H53915  10.760   6.181   4.936 -0.2159  2.5204 -1.7537
  391MOL0     H53916  10.584   6.512   5.143 -1.1867  0.6698  1.5391
  391MOL0     H53917  10.631   6.686   5.284  0.5691 -1.1282 -0.0798
  391MOL0     H53918  10.772   6.714   5.374 -0.2012 -1.1364  2.0512
  391MOL0     H53919  10.636   6.627   5.456 -1.7077  0.3261 -0.3031
  391MOL0     H53920  11.265   6.523   5.334  0.9967 -0.8257 -0.1156
  391MOL0     H53921  11.472   6.609   5.446 -1.7861 -1.6794 -2.7995
  391MOL0     H53922  11.619   6.740   5.577  1.1084 -0.6944 -0.1343
  391MOL0     H53923  11.471   6.823   5.621  0.2661  0.0207 -0.2966
  391MOL0     H53924  11.706   6.784   5.815 -0.0783  0.7316  0.4870
  391MOL0     H53925  11.652   6.929   5.735 -1.0147  0.6466  1.2726
  391MOL0     H53926  11.444   6.931   5.869 -1.1074 -1.8091  0.1190
  391MOL0     H53927  11.596   6.942   5.960  0.5053  1.3117 -0.9316
  391MOL0     H53928  11.571   6.698   6.012  1.1286  1.7650 -1.0486
  391MOL0     H53929  11.424   6.688   5.933 -0.3488  0.2400  0.6324
  391MOL0     H53930  11.443   6.878   6.168 -4.8897  3.5386  0.0549
  391MOL0     H53931  11.310   6.854   6.055 -0.7286 -3.1706 -2.0981
  391MOL0     H53932  11.307   6.731   6.276 -3.3666  3.9455 -2.6140
  391MOL0     H53933  11.407   6.606   6.202 -0.0398 -1.2103 -0.7780
  391MOL0     H53934  11.250   6.570   6.023 -3.6121 -2.7733 -0.0751
  391MOL0     H53935  11.143   6.702   6.082  0.2251  0.5889  3.2046
  391MOL0     H53936  11.205   6.456   6.241  0.7158 -0.2361 -2.1690
  391MOL0     H53937  11.080   6.463   6.120 -1.1889  0.7112 -0.6965
  391MOL0     H53938  11.304   6.517   5.831  2.6356  1.9668  0.3535
  391MOL0     H53939  11.086   6.416   5.700  0.5007  0.7267  1.4792
  391MOL0     H53940  10.967   6.255   5.333 -1.0683 -0.5552 -0.4601
  391MOL0     H53941  10.836   6.179   5.131 -2.1860  1.5800 -2.0498
  391MOL0     H53942  10.188   5.624   3.452  0.7837  0.0078  0.1780
  391MOL0     H53943  10.032   5.593   3.272  1.8848 -0.8811 -1.2406
  391MOL0     H53944   9.765   5.842   3.008 -1.7122  1.5607  0.0486
  391MOL0     H53945   9.605   5.901   2.835  1.3306  0.6143 -0.3554
  391MOL0     H53946   9.637   5.854   2.392  1.3688  0.8757  1.1440
  391MOL0     H53947   9.640   5.705   2.499  1.0306  0.8673  2.3449
  391MOL0     H53948   9.420   5.823   2.378  1.5024  0.1801 -1.0046
  391MOL0     H53949   9.407   5.869   2.552 -0.0421 -1.3943  0.5821
  391MOL0     H53950   9.285   5.630   2.489 -0.1448 -2.8848 -0.8271
  391MOL0     H53951   9.452   5.591   2.451 -0.5312  0.5670 -0.4247
  391MOL0     H53952   9.511   5.667   2.687 -0.3548 -1.6467  1.6832
  391MOL0     H53953   9.411   5.523   2.685  1.6753  0.3348 -1.5851
  391MOL0     H53954   9.169   5.790   2.905  2.5009  3.5007  0.3002
  391MOL0     H53955   9.883   5.799   2.535 -0.2499 -0.3498  0.5550
  391MOL0     H53956  10.085   5.691   2.571 -0.6257  1.1724 -0.3773
  391MOL0     H53957  10.138   5.830   2.665  1.3686 -1.5909 -1.1153
  391MOL0     H53958  10.149   5.663   2.734  0.7708  0.7877  0.4443
  392MOL0     O53959   5.411  11.281   8.767  0.1346 -0.1482  0.2446
  392MOL0     C53960   5.461  11.393   8.773  0.0902  0.2995 -0.9350
  392MOL0     O53961   5.452  11.490   8.674 -0.4508  0.4037 -0.7066
  392MOL0     C53962   5.382  11.467   8.560  0.3254 -0.0651  0.0136
  392MOL0     C53963   5.248  11.440   8.569 -1.2598 -0.7228 -0.3221
  392MOL0     C53964   5.171  11.445   8.454 -0.3757  0.5718  0.3557
  392MOL0     C53965   5.226  11.443   8.325  0.8144 -0.9600  0.5206
  392MOL0     O53966   5.154  11.440   8.206  0.0043 -0.1008  0.4110
  392MOL0     C53967   5.013  11.417   8.215  0.3169  0.2502 -0.0922
  392MOL0     C53968   4.926  11.466   8.097 -0.3656 -0.5571 -0.0174
  392MOL0     C53969   4.782  11.399   8.092 -0.4037 -0.6349 -0.5371
  392MOL0     C53970   4.784  11.257   8.035 -0.1082  0.0124 -1.0924
  392MOL0     C53971   4.642  11.201   8.022  0.0043  0.3794  0.0544
  392MOL0     C53972   4.632  11.043   8.028  1.1735 -0.3924 -0.5314
  392MOL0     C53973   4.492  10.977   8.020 -0.0088  0.3134  0.4180
  392MOL0     C53974   4.498  10.822   7.989 -0.4696 -1.0135  0.0451
  392MOL0     N53975   4.367  10.756   7.992 -0.4316 -0.5875  0.1018
  392MOL0     C53976   4.256  10.825   7.954 -0.5966 -0.0129  0.1586
  392MOL0     C53977   4.154  10.745   7.994  0.9391 -1.1787  0.6879
  392MOL0     C53978   4.004  10.771   7.996 -0.5803 -0.0983  0.3338
  392MOL0     C53979   3.969  10.922   8.026 -0.0743  0.3439  0.1265
  392MOL0     C53980   3.814  10.942   8.055  0.3268  0.7339 -0.1243
  392MOL0     C53981   3.783  11.085   8.037 -0.1528 -0.2224  0.2095
  392MOL0     O53982   3.796  11.129   7.904  0.5401  0.4825  0.5565
  392MOL0     C53983   3.762  11.261   7.864 -0.6439  0.1285  0.1901
  392MOL0     C53984   3.746  11.366   7.963  0.4604  0.7842  0.3994
  392MOL0     C53985   3.739  11.496   7.917  0.6128 -0.2330  0.9184
  392MOL0     C53986   3.742  11.601   8.018  0.3397  0.3612  0.0744
  392MOL0     C53987   3.723  11.516   7.781  0.2487 -0.0687  0.5384
  392MOL0     C53988   3.706  11.653   7.722  1.4159  0.7488 -0.2854
  392MOL0     O53989   3.791  11.751   7.753  0.1725 -0.5508 -0.6535
  392MOL0     C53990   3.772  11.878   7.697 -0.7814  0.0610  0.3963
  392MOL0     C53991   3.826  11.909   7.575  1.0537  0.5851  1.2674
  392MOL0     C53992   3.826  12.032   7.515  0.8691  0.2389 -0.4697
  392MOL0     C53993   3.760  12.137   7.585 -0.0549 -0.1117  0.1132
  392MOL0     O53994   3.772  12.278   7.557  0.0606  0.7407  0.0531
  392MOL0     C53995   3.820  12.320   7.431  0.6063  0.4718 -0.7137
  392MOL0     C53996   3.792  12.461   7.389  0.5754  0.2396  0.3493
  392MOL0     C53997   3.824  12.579   7.490  0.2762 -1.2168  0.2386
  392MOL0     C53998   3.825  12.712   7.400 -0.4175  0.8669  0.3529
  392MOL0     C53999   3.865  12.827   7.492 -0.0120  0.2410  0.4035
  392MOL0     C54000   3.746  12.886   7.572  0.4643 -0.3534  0.0430
  392MOL0     C54001   3.626  12.948   7.481 -1.1897  0.9450  1.0481
  392MOL0     C54002   3.680  13.063   7.404 -0.7430 -0.4271  0.0919
  392MOL0    Cl54003   3.700  13.204   7.497  0.1667 -0.2280 -0.4607
  392MOL0     C54004   3.689  12.100   7.702 -0.3581  0.8082  0.5387
  392MOL0     C54005   3.698  11.971   7.757  0.0425 -0.2035  0.3025
  392MOL0     O54006   3.618  11.659   7.637  0.6874 -0.1907  0.3113
  392MOL0     C54007   3.737  11.412   7.693 -0.7642  0.8928 -0.5359
  392MOL0     C54008   3.755  11.286   7.726  0.2019  0.1476  0.0894
  392MOL0     N54009   4.200  10.632   8.065  1.2111  0.6551  0.3875
  392MOL0     N54010   4.333  10.640   8.061  0.5327 -0.7379 -0.6656
  392MOL0     C54011   5.362  11.465   8.316  0.2464 -0.4674  0.1485
  392MOL0     C54012   5.442  11.477   8.430  0.4502 -0.5967 -0.0328
  392MOL0     C54013   5.515  11.441   8.907 -0.7038  0.3282  0.1302
  392MOL0     C54014   5.551  11.572   8.926 -0.1722 -0.3662  0.4191
  392MOL0     C54015   5.601  11.633   9.046  0.1120 -0.3339  0.5243
  392MOL0     C54016   5.616  11.551   9.150  0.2730  0.3969  0.2032
  392MOL0     O54017   5.660  11.613   9.267 -0.0895 -0.0244 -0.1404
  392MOL0     C54018   5.668  11.539   9.387 -0.0768  0.0320 -0.6023
  392MOL0     C54019   5.718  11.617   9.503 -0.8980 -0.1836 -0.0143
  392MOL0     C54020   5.739  11.566   9.644 -0.0071 -0.6163  0.4078
  392MOL0     C54021   5.807  11.434   9.664  0.0626 -0.0059  1.4433
  392MOL0     C54022   5.928  11.428   9.588 -0.1170  0.0851  1.0350
  392MOL0     C54023   6.028  11.416   9.525  0.6248 -0.5658  0.1091
  392MOL0     C54024   5.593  11.410   9.137 -1.2065  0.2545  0.0172
  392MOL0     C54025   5.543  11.359   9.013 -0.5343 -0.1516  0.1185
  392MOL0     C54026   5.518  11.208   9.013 -0.4692 -0.3411 -0.3016
  392MOL0     H54027   5.194  11.447   8.663  0.8462 -1.2498  0.9907
  392MOL0     H54028   5.064  11.443   8.470 -0.2676 -0.2891  1.0542
  392MOL0     H54029   4.966  11.474   8.296  0.4382  3.0386 -1.8453
  392MOL0     H54030   4.999  11.309   8.228  2.1339  0.2496  2.4818
  392MOL0     H54031   4.919  11.575   8.100  5.2642  0.1249 -1.1238
  392MOL0     H54032   4.971  11.443   8.000 -3.3517 -4.2596 -0.7339
  392MOL0     H54033   4.735  11.403   8.191 -2.6665  0.1815 -1.5616
  392MOL0     H54034   4.722  11.463   8.026  1.3437  0.3583 -1.2070
  392MOL0     H54035   4.837  11.266   7.939  0.0033  0.2163 -1.0136
  392MOL0     H54036   4.846  11.197   8.102  1.3576  2.4110 -0.1801
  392MOL0     H54037   4.605  11.229   7.923  1.4591  1.4273 -0.2118
  392MOL0     H54038   4.584  11.241   8.106  2.3608  1.0841  1.4246
  392MOL0     H54039   4.694  11.005   7.946 -1.2454 -1.5594 -1.9419
  392MOL0     H54040   4.677  11.022   8.125  0.4486  0.2495 -0.0452
  392MOL0     H54041   4.440  11.023   7.936 -2.9363 -4.0048 -0.4764
  392MOL0     H54042   4.443  10.982   8.118 -3.2053 -1.6166 -0.9656
  392MOL0     H54043   4.527  10.810   7.885  3.0236  3.5297  0.2047
  392MOL0     H54044   4.579  10.773   8.045 -0.3990 -2.4639 -1.2577
  392MOL0     H54045   4.243  10.928   7.922  0.0449  0.4139  1.2113
  392MOL0     H54046   3.956  10.716   8.077 -1.0929  4.6216  3.6481
  392MOL0     H54047   3.962  10.732   7.903  1.2453 -0.0573 -0.5592
  392MOL0     H54048   4.010  10.956   8.122 -2.0062 -0.1965  1.2064
  392MOL0     H54049   4.011  10.986   7.949  1.2872  0.1031  0.6510
  392MOL0     H54050   3.750  10.888   7.985 -0.9464  0.2673  1.3446
  392MOL0     H54051   3.796  10.908   8.157 -0.9147  0.4437 -0.4316
  392MOL0     H54052   3.679  11.109   8.062 -0.4917 -1.0205 -0.3803
  392MOL0     H54053   3.850  11.145   8.098  1.8053  1.4274 -3.2595
  392MOL0     H54054   3.748  11.345   8.069 -1.3121 -2.1015 -0.0325
  392MOL0     H54055   3.783  11.550   8.106  3.6369 -0.0589 -1.5246
  392MOL0     H54056   3.640  11.637   8.034  0.5330  0.9085  0.1078
  392MOL0     H54057   3.809  11.684   7.993  2.1766 -1.3861 -1.1124
  392MOL0     H54058   3.865  11.823   7.522 -2.5517 -1.3596  1.4592
  392MOL0     H54059   3.872  12.042   7.417  1.5483  0.2925 -0.1496
  392MOL0     H54060   3.929  12.313   7.428  0.5617  0.2169 -1.7852
  392MOL0     H54061   3.773  12.259   7.354 -2.8863  3.1191 -0.9385
  392MOL0     H54062   3.859  12.475   7.304  1.4799  0.4729  1.0814
  392MOL0     H54063   3.687  12.474   7.360  1.3729  1.8484 -2.1403
  392MOL0     H54064   3.919  12.552   7.537  0.5504  2.1252  1.8391
  392MOL0     H54065   3.754  12.593   7.573 -0.3859  0.4586 -0.5656
  392MOL0     H54066   3.724  12.720   7.359 -0.1264  0.9513 -0.3572
  392MOL0     H54067   3.894  12.697   7.317 -2.0402  2.4070 -1.3738
  392MOL0     H54068   3.943  12.798   7.563  1.1842  1.2012 -0.4631
  392MOL0     H54069   3.913  12.903   7.429 -2.0399  1.0847 -0.1980
  392MOL0     H54070   3.796  12.966   7.628  0.1441  0.7841 -1.2601
  392MOL0     H54071   3.692  12.818   7.639  0.7318  0.1240  0.7591
  392MOL0     H54072   3.536  12.968   7.539 -2.3528 -0.7204 -0.0826
  392MOL0     H54073   3.590  12.878   7.404  2.7585  0.1456 -0.3357
  392MOL0     H54074   3.600  13.084   7.332  0.1341 -1.5936 -1.2792
  392MOL0     H54075   3.778  13.045   7.359 -1.4760  0.6559 -2.0948
  392MOL0     H54076   3.623  12.169   7.753  0.8568  1.7433  0.8989
  392MOL0     H54077   3.661  11.937   7.853 -2.2386 -1.5201 -0.9458
  392MOL0     H54078   3.731  11.426   7.585  0.9221 -0.7207 -0.8901
  392MOL0     H54079   3.770  11.203   7.658  2.5694  0.2584  0.3803
  392MOL0     H54080   5.405  11.486   8.219  0.3008  0.3148  0.3335
  392MOL0     H54081   5.544  11.507   8.412  0.8653 -0.9106  1.6159
  392MOL0     H54082   5.529  11.648   8.852 -2.6747  0.0870  1.5307
  392MOL0     H54083   5.628  11.738   9.047 -2.3085  0.3771 -0.8061
  392MOL0     H54084   5.573  11.492   9.413 -1.8673  2.6051 -2.0818
  392MOL0     H54085   5.751  11.468   9.381  1.1527  1.5171 -2.1912
  392MOL0     H54086   5.645  11.698   9.515 -1.4141 -0.6583  0.0887
  392MOL0     H54087   5.814  11.659   9.471 -1.3704  0.6548 -0.3876
  392MOL0     H54088   5.807  11.641   9.685 -0.6610 -1.5448  3.4607
  392MOL0     H54089   5.656  11.561   9.714  0.0144 -4.0297  0.3863
  392MOL0     H54090   5.748  11.362   9.607  3.2998 -0.9118 -1.0418
  392MOL0     H54091   5.818  11.401   9.768  3.5628 -1.2263  0.8110
  392MOL0     H54092   6.117  11.410   9.465 -1.3797  0.1495 -3.1721
  392MOL0     H54093   5.608  11.331   9.209 -2.4603 -0.8710 -0.9031
  392MOL0     H54094   5.585  11.168   9.089  0.9535  2.0427 -0.1872
  392MOL0     H54095   5.415  11.189   9.046  0.5342 -0.1083  3.4476
  392MOL0     H54096   5.534  11.169   8.912 -0.0724 -0.1547 -0.3122
  393MOL0     O54097   2.706   2.084   0.884  0.3711  0.0188 -0.1178
  393MOL0     C54098   2.794   2.101   0.802 -1.1725  0.4981 -0.0146
  393MOL0     O54099   2.861   2.220   0.784 -0.3118  0.3436  0.3277
  393MOL0     C54100   2.796   2.327   0.838 -0.1219  0.1952  0.0928
  393MOL0     C54101   2.688   2.382   0.766 -0.3428 -0.0847 -0.7415
  393MOL0     C54102   2.637   2.504   0.807 -0.7516  0.3246 -0.4402
  393MOL0     C54103   2.685   2.560   0.928  0.1934  0.3215 -0.5118
  393MOL0     O54104   2.622   2.670   0.976  0.3995  0.1246  0.2919
  393MOL0     C54105   2.665   2.723   1.107  0.7898 -0.4838  0.0125
  393MOL0     C54106   2.606   2.859   1.140  0.2160 -0.7269 -0.3255
  393MOL0     C54107   2.624   2.956   1.017 -0.4299  0.5541  0.5511
  393MOL0     C54108   2.597   3.092   1.073 -0.4861 -0.4044  0.6986
  393MOL0     C54109   2.707   3.161   1.145 -0.8797 -0.4471  0.8275
  393MOL0     C54110   2.671   3.309   1.180 -0.0468 -0.7631  0.4356
  393MOL0     C54111   2.626   3.324   1.328 -0.1200 -0.2586  0.3135
  393MOL0     C54112   2.617   3.470   1.327 -0.3965 -0.1216 -0.4640
  393MOL0     N54113   2.566   3.511   1.458  0.4955  1.1332 -0.5454
  393MOL0     C54114   2.436   3.494   1.501  0.5690  0.1008  0.7582
  393MOL0     C54115   2.445   3.549   1.623 -0.5677 -0.0894 -0.7493
  393MOL0     C54116   2.318   3.549   1.705 -0.5993  0.6257 -0.4600
  393MOL0     C54117   2.261   3.401   1.733 -0.0560 -0.4639  0.1205
  393MOL0     C54118   2.169   3.397   1.854 -0.5898  0.7341 -0.9994
  393MOL0     C54119   2.240   3.378   1.993  0.2238 -0.5256 -0.3822
  393MOL0     O54120   2.294   3.500   2.040  0.1733 -1.2611  0.0963
  393MOL0     C54121   2.226   3.556   2.149  0.5270 -0.1094 -0.4538
  393MOL0     C54122   2.282   3.507   2.265  0.1017  0.1628 -0.5682
  393MOL0     C54123   2.243   3.563   2.385  0.4950 -0.2840  0.9435
  393MOL0     C54124   2.292   3.491   2.509  0.4743  0.1328 -0.3398
  393MOL0     C54125   2.151   3.676   2.394 -0.2568  0.2355 -0.6771
  393MOL0     C54126   2.098   3.753   2.516  0.3420 -0.8636  0.2690
  393MOL0     O54127   2.005   3.854   2.497 -0.2866  0.2461  0.4011
  393MOL0     C54128   1.954   3.930   2.596  0.2445  0.2536 -0.4338
  393MOL0     C54129   1.873   4.035   2.562  0.2590  0.2054 -0.3642
  393MOL0     C54130   1.800   4.122   2.654 -0.1228  0.6245  0.6731
  393MOL0     C54131   1.803   4.086   2.789 -0.3350  0.4627 -0.3730
  393MOL0     O54132   1.725   4.133   2.889  0.2413 -0.4300 -0.1298
  393MOL0     C54133   1.695   4.275   2.898  0.6127  0.7116  0.9763
  393MOL0     C54134   1.794   4.348   2.985 -0.2719 -1.0018 -0.8848
  393MOL0     C54135   1.802   4.309   3.133 -0.1742  0.0998 -0.2636
  393MOL0     C54136   1.769   4.428   3.237  0.3292  0.1998  0.0269
  393MOL0     C54137   1.627   4.407   3.298 -0.2769 -0.1794 -0.3024
  393MOL0     C54138   1.519   4.421   3.189  0.0716 -0.3143 -0.0655
  393MOL0     C54139   1.532   4.560   3.126  0.0708 -0.2211 -0.5900
  393MOL0     C54140   1.416   4.582   3.038  0.1921  0.0343  0.2390
  393MOL0    Cl54141   1.412   4.727   2.935 -0.1674  0.4464  0.1820
  393MOL0     C54142   1.891   3.978   2.833  0.3211  0.4484  0.4559
  393MOL0     C54143   1.959   3.906   2.737 -0.6668  0.5133  0.0025
  393MOL0     O54144   2.159   3.732   2.613 -0.1468  0.6198 -0.6666
  393MOL0     C54145   2.104   3.726   2.271  0.0505 -0.4999 -0.2080
  393MOL0     C54146   2.146   3.675   2.147  0.4523 -0.0320  0.1083
  393MOL0     N54147   2.568   3.591   1.662 -0.4648  0.1652  0.4648
  393MOL0     N54148   2.642   3.559   1.566 -0.3081 -0.4117  0.0382
  393MOL0     C54149   2.791   2.504   0.995  0.1324  0.3401 -0.6514
  393MOL0     C54150   2.850   2.386   0.950 -0.3003  0.6219  0.3857
  393MOL0     C54151   2.837   1.984   0.724 -0.9215 -0.3735  0.5713
  393MOL0     C54152   2.870   1.999   0.592 -0.0990  0.5072  0.7318
  393MOL0     C54153   2.914   1.889   0.508  0.0252 -0.1499 -0.3170
  393MOL0     C54154   2.925   1.759   0.565 -0.8499 -0.1968  0.2970
  393MOL0     O54155   2.958   1.661   0.479 -0.1553 -0.7636 -0.3005
  393MOL0     C54156   2.929   1.535   0.539 -0.0446 -0.1685 -0.1756
  393MOL0     C54157   2.927   1.423   0.435 -0.5518  0.5008 -0.1435
  393MOL0     C54158   3.075   1.384   0.393 -0.1483 -0.8490 -1.0384
  393MOL0     C54159   3.084   1.305   0.263 -0.1862  0.2876  0.0828
  393MOL0     C54160   3.018   1.176   0.289  1.4516  0.3639 -0.7404
  393MOL0     C54161   2.957   1.070   0.319 -0.2714 -0.5609  0.2145
  393MOL0     C54162   2.900   1.747   0.696  0.6130 -0.1271 -1.4279
  393MOL0     C54163   2.853   1.855   0.780  0.1800 -0.0402  0.4361
  393MOL0     C54164   2.836   1.809   0.923  0.5389  0.0227 -0.7650
  393MOL0     H54165   2.645   2.337   0.677 -1.2565 -1.0877  0.1694
  393MOL0     H54166   2.560   2.540   0.740 -2.7887  0.1837  1.7146
  393MOL0     H54167   2.770   2.755   1.105  0.6669 -0.0236  0.7628
  393MOL0     H54168   2.649   2.650   1.186  0.9995 -0.4687  0.0703
  393MOL0     H54169   2.497   2.848   1.151  0.3042  0.0855  1.7910
  393MOL0     H54170   2.651   2.891   1.234 -1.0399 -0.6675  0.2740
  393MOL0     H54171   2.732   2.954   0.999 -0.2951 -1.0230  1.2812
  393MOL0     H54172   2.560   2.927   0.933  0.5843 -2.8912  0.7792
  393MOL0     H54173   2.573   3.147   0.982 -1.5298 -2.9612 -0.6898
  393MOL0     H54174   2.506   3.087   1.134 -0.6439  1.8032  0.7001
  393MOL0     H54175   2.797   3.159   1.083 -2.2857  2.6972 -1.6395
  393MOL0     H54176   2.727   3.103   1.235  0.0385 -0.9436  0.3212
  393MOL0     H54177   2.761   3.369   1.163 -0.9022  0.9282  1.5912
  393MOL0     H54178   2.598   3.339   1.105 -0.9413 -0.6815  1.3196
  393MOL0     H54179   2.691   3.288   1.409 -2.6874  0.7815  3.0180
  393MOL0     H54180   2.525   3.284   1.340 -0.7716  0.4346 -2.2412
  393MOL0     H54181   2.718   3.512   1.320  1.9398 -5.1414 -7.1594
  393MOL0     H54182   2.564   3.520   1.245 -0.3585  2.6469  1.0984
  393MOL0     H54183   2.344   3.465   1.450 -0.7476 -0.3005  3.2309
  393MOL0     H54184   2.251   3.613   1.647  0.6486  0.6972 -1.8718
  393MOL0     H54185   2.337   3.604   1.798  0.4356  0.1191 -0.3593
  393MOL0     H54186   2.212   3.374   1.639  2.8162 -1.4426 -1.2163
  393MOL0     H54187   2.347   3.337   1.757 -0.8306 -2.5142 -2.2041
  393MOL0     H54188   2.093   3.476   1.854 -2.2267 -0.7552  0.9134
  393MOL0     H54189   2.110   3.305   1.846  0.3774  0.0624 -0.5326
  393MOL0     H54190   2.180   3.342   2.077  1.7130 -0.4540  0.7636
  393MOL0     H54191   2.318   3.302   1.982  0.5915 -0.1801 -0.2195
  393MOL0     H54192   2.347   3.422   2.248 -0.3775 -0.0423 -1.3884
  393MOL0     H54193   2.207   3.457   2.568  1.1728  0.5486  0.9377
  393MOL0     H54194   2.353   3.559   2.569  0.9305 -0.0481 -0.5843
  393MOL0     H54195   2.341   3.397   2.481  2.6084  0.9610  0.4179
  393MOL0     H54196   1.855   4.051   2.456 -2.4362 -1.4978 -0.2694
  393MOL0     H54197   1.730   4.196   2.617 -1.6097 -0.3238  1.4645
  393MOL0     H54198   1.686   4.338   2.808  1.6223  1.1153  1.1503
  393MOL0     H54199   1.593   4.291   2.935  1.1525  3.2021  1.5673
  393MOL0     H54200   1.896   4.344   2.945  0.7151  0.7172  1.2301
  393MOL0     H54201   1.771   4.455   2.981  2.3981 -0.2844  0.3867
  393MOL0     H54202   1.901   4.267   3.153 -0.5185 -2.9860 -4.0039
  393MOL0     H54203   1.733   4.227   3.152 -3.4345  2.6048 -0.3532
  393MOL0     H54204   1.782   4.526   3.189  0.5366  0.1717  0.0248
  393MOL0     H54205   1.837   4.428   3.322  0.9214 -1.9421 -0.4016
  393MOL0     H54206   1.628   4.310   3.348  1.5061  0.0197  0.1320
  393MOL0     H54207   1.605   4.486   3.370 -1.2059 -0.0330 -0.7270
  393MOL0     H54208   1.419   4.411   3.234  0.9463  1.6872  2.5294
  393MOL0     H54209   1.523   4.342   3.113 -0.0615  1.1958 -1.7008
  393MOL0     H54210   1.626   4.576   3.072  0.9496 -2.9836 -0.0432
  393MOL0     H54211   1.518   4.631   3.208 -3.6357  0.5343 -1.7061
  393MOL0     H54212   1.324   4.593   3.095  0.3999 -2.1876  1.0904
  393MOL0     H54213   1.397   4.488   2.986  0.4507 -0.5220  1.1213
  393MOL0     H54214   1.905   3.953   2.938 -1.1327  4.8389  1.9284
  393MOL0     H54215   2.022   3.826   2.773  2.4249  2.2572 -1.1672
  393MOL0     H54216   2.045   3.817   2.270 -1.2420 -1.2325  1.9827
  393MOL0     H54217   2.114   3.714   2.050 -0.8303 -0.1462  0.4623
  393MOL0     H54218   2.845   2.542   1.081  1.5115 -0.0701 -1.3075
  393MOL0     H54219   2.939   2.358   1.006 -0.9142 -0.0813  1.0213
  393MOL0     H54220   2.860   2.101   0.554  0.9803  0.3705  0.0475
  393MOL0     H54221   2.932   1.908   0.403 -1.0277 -4.0442 -1.3463
  393MOL0     H54222   2.999   1.503   0.617  0.5724  1.3476 -0.0739
  393MOL0     H54223   2.830   1.540   0.584  0.6368  1.1746  1.2598
  393MOL0     H54224   2.863   1.439   0.348 -2.8122 -0.9437  1.1543
  393MOL0     H54225   2.873   1.347   0.493  0.0313  0.5316  0.4534
  393MOL0     H54226   3.134   1.476   0.398  1.1601 -1.6163 -1.8020
  393MOL0     H54227   3.116   1.329   0.478 -0.2829 -2.5925 -2.0669
  393MOL0     H54228   3.190   1.280   0.249 -0.4244 -1.1375  0.6191
  393MOL0     H54229   3.048   1.354   0.172 -1.8384  1.2144  1.1904
  393MOL0     H54230   2.884   0.992   0.317 -0.0462 -0.7710 -1.3298
  393MOL0     H54231   2.892   1.654   0.751  0.7441  1.8722  2.3251
  393MOL0     H54232   2.862   1.707   0.949 -0.2007  0.4358  1.8627
  393MOL0     H54233   2.898   1.870   0.989 -1.8143  0.6280  1.0384
  393MOL0     H54234   2.735   1.833   0.957  0.3882  0.0986 -1.2540
  394MOL0     O54235   4.077   3.599   3.137 -0.2841 -0.5567 -0.0840
  394MOL0     C54236   4.033   3.510   3.213  0.2124 -0.4739 -0.2150
  394MOL0     O54237   4.094   3.388   3.242 -0.0022  0.4520  0.0557
  394MOL0     C54238   4.206   3.351   3.173 -0.0527 -0.1096 -0.1458
  394MOL0     C54239   4.312   3.441   3.159 -0.7380 -0.4534 -0.0263
  394MOL0     C54240   4.418   3.423   3.063 -0.5218  0.3130  0.3156
  394MOL0     C54241   4.417   3.294   3.002  1.0834 -0.0497 -0.7146
  394MOL0     O54242   4.510   3.263   2.912 -0.1148  0.2338 -0.4576
  394MOL0     C54243   4.653   3.245   2.945 -0.2546 -0.8554 -0.0285
  394MOL0     C54244   4.703   3.127   2.875  0.6968  0.1748  0.0701
  394MOL0     C54245   4.637   3.000   2.930  0.4838 -0.3724 -0.9102
  394MOL0     C54246   4.602   2.904   2.818  0.4404 -0.0458 -0.3318
  394MOL0     C54247   4.530   2.780   2.860  0.2450  0.7594 -0.4658
  394MOL0     C54248   4.601   2.689   2.970 -0.6453 -0.4146  0.5334
  394MOL0     C54249   4.525   2.567   3.004  0.0306  0.1046  0.0610
  394MOL0     C54250   4.580   2.509   3.131  1.2338  0.8600 -0.2455
  394MOL0     N54251   4.726   2.483   3.141 -0.9781  0.1778  0.0020
  394MOL0     C54252   4.795   2.412   3.045 -0.1469 -0.4036  0.9054
  394MOL0     C54253   4.919   2.411   3.093 -0.7357  0.0379 -0.3896
  394MOL0     C54254   5.032   2.354   3.018  0.0770 -0.4892 -0.6806
  394MOL0     C54255   5.159   2.355   3.096  0.4427 -0.6909 -0.7320
  394MOL0     C54256   5.267   2.278   3.023 -0.8543 -0.0156  0.0833
  394MOL0     C54257   5.399   2.257   3.114 -0.6220  0.4300 -0.1196
  394MOL0     O54258   5.371   2.237   3.256  0.7438 -0.0677 -0.2316
  394MOL0     C54259   5.471   2.177   3.335 -0.4214 -0.0035 -0.7182
  394MOL0     C54260   5.542   2.063   3.285  0.9235 -0.2007 -0.8533
  394MOL0     C54261   5.634   1.992   3.359 -0.5156  0.8648 -0.1696
  394MOL0     C54262   5.695   1.865   3.311  0.2003 -0.5076 -0.5271
  394MOL0     C54263   5.654   2.031   3.501 -0.0939  0.3912  0.3237
  394MOL0     C54264   5.736   1.954   3.583 -0.2370 -0.2110  0.3641
  394MOL0     O54265   5.832   2.009   3.663  0.0190 -0.7070  0.4917
  394MOL0     C54266   5.866   1.946   3.775  0.1185  0.4230  0.3521
  394MOL0     C54267   5.948   1.833   3.772 -0.2435 -0.1045  0.3671
  394MOL0     C54268   5.965   1.759   3.883  0.3434  0.4630  0.5502
  394MOL0     C54269   5.904   1.798   4.005  0.2877 -0.8852  0.2417
  394MOL0     O54270   5.924   1.718   4.117  0.6219  0.1462  0.0599
  394MOL0     C54271   5.810   1.678   4.187  0.1945 -0.0931 -0.4337
  394MOL0     C54272   5.842   1.564   4.289 -0.1096  0.0638  0.2236
  394MOL0     C54273   5.715   1.533   4.385  0.1232 -0.7547 -0.8895
  394MOL0     C54274   5.747   1.463   4.515 -0.5432  0.1887  0.5376
  394MOL0     C54275   5.612   1.405   4.573  0.2020 -0.8253  0.2425
  394MOL0     C54276   5.631   1.367   4.720 -0.0358  0.3873 -0.1551
  394MOL0     C54277   5.496   1.305   4.764  0.4900 -0.4666 -0.4609
  394MOL0     C54278   5.521   1.216   4.891  0.0908 -0.0817  0.9315
  394MOL0    Cl54279   5.599   1.306   5.027 -0.0207 -0.2635 -0.3022
  394MOL0     C54280   5.833   1.928   4.013 -0.4148 -0.3453 -0.0881
  394MOL0     C54281   5.810   1.990   3.892  0.5520 -0.9506 -0.5661
  394MOL0     O54282   5.709   1.838   3.578 -0.0373  0.1752 -0.4252
  394MOL0     C54283   5.589   2.144   3.551 -0.2396  0.4553 -0.2207
  394MOL0     C54284   5.504   2.215   3.469  0.1403  0.6893  0.1027
  394MOL0     N54285   4.928   2.487   3.208 -1.0296  0.5616  0.1054
  394MOL0     N54286   4.806   2.528   3.240  0.4436 -0.6003 -0.4422
  394MOL0     C54287   4.315   3.189   3.033  0.0631 -0.5779  0.7210
  394MOL0     C54288   4.205   3.220   3.115  0.2292 -0.2124 -0.3594
  394MOL0     C54289   3.907   3.534   3.277 -0.7521  0.0229 -0.2637
  394MOL0     C54290   3.831   3.423   3.316 -0.1136  1.1078  0.0614
  394MOL0     C54291   3.695   3.443   3.369 -0.2310  0.9257  0.1515
  394MOL0     C54292   3.640   3.569   3.381  0.1332  0.0820 -1.0837
  394MOL0     O54293   3.523   3.601   3.444  0.9103 -0.0379  0.8806
  394MOL0     C54294   3.444   3.505   3.518 -0.5357 -0.1128  1.5299
  394MOL0     C54295   3.323   3.569   3.585  0.1858  0.6989 -0.2917
  394MOL0     C54296   3.194   3.559   3.506  0.1807  0.1396  0.9034
  394MOL0     C54297   3.140   3.420   3.494  0.4723  0.4488  0.0948
  394MOL0     C54298   3.016   3.408   3.425  0.4025 -0.2938  0.2796
  394MOL0     C54299   2.910   3.387   3.364  0.2337  0.1023  0.2763
  394MOL0     C54300   3.716   3.674   3.342 -0.6162  0.7623 -0.3422
  394MOL0     C54301   3.851   3.661   3.303  0.1361 -0.7205 -0.1928
  394MOL0     C54302   3.918   3.795   3.276  0.5723  0.0899 -0.0041
  394MOL0     H54303   4.303   3.542   3.197 -0.5745  0.0694 -1.3240
  394MOL0     H54304   4.497   3.495   3.045 -0.6227  0.2494 -0.4061
  394MOL0     H54305   4.664   3.236   3.054  1.5453 -0.1496 -0.1144
  394MOL0     H54306   4.705   3.338   2.919 -0.5946 -1.3827 -2.8627
  394MOL0     H54307   4.683   3.133   2.767 -2.2214  0.2147  0.5234
  394MOL0     H54308   4.808   3.116   2.905  0.3266  1.2924  1.8698
  394MOL0     H54309   4.710   2.958   3.000  0.0201 -0.0540 -0.2272
  394MOL0     H54310   4.542   3.028   2.977  1.2921 -1.5996  1.5878
  394MOL0     H54311   4.542   2.966   2.751 -2.1134 -2.6908 -0.7119
  394MOL0     H54312   4.695   2.880   2.765  0.9908 -0.0496  0.6086
  394MOL0     H54313   4.524   2.716   2.772  2.0070  1.7794 -1.3627
  394MOL0     H54314   4.431   2.812   2.892  0.2295  0.5245 -0.2695
  394MOL0     H54315   4.697   2.663   2.925 -0.9989  0.1474 -0.5738
  394MOL0     H54316   4.604   2.751   3.060  1.2984 -1.5802  1.3398
  394MOL0     H54317   4.535   2.489   2.927  1.9200 -0.9454  1.2925
  394MOL0     H54318   4.416   2.577   3.009 -0.0473 -0.1459 -0.8691
  394MOL0     H54319   4.556   2.554   3.227  1.6141 -0.4537  0.4868
  394MOL0     H54320   4.538   2.408   3.133  0.9648  0.9138 -1.7337
  394MOL0     H54321   4.750   2.369   2.956 -1.8751 -1.3745  2.1887
  394MOL0     H54322   5.052   2.420   2.933  1.0112  0.7990  0.4980
  394MOL0     H54323   4.999   2.253   2.991 -0.2904 -0.8495  1.0051
  394MOL0     H54324   5.190   2.458   3.113 -0.7500 -0.6662  1.9077
  394MOL0     H54325   5.130   2.318   3.195 -1.7566  0.0576 -1.0237
  394MOL0     H54326   5.233   2.178   2.996  2.6600 -1.3512 -0.0283
  394MOL0     H54327   5.293   2.327   2.929  1.8448  0.3137  0.8952
  394MOL0     H54328   5.441   2.167   3.069 -0.8088 -0.0699  0.6774
  394MOL0     H54329   5.467   2.340   3.096  0.1167  0.8318  3.6176
  394MOL0     H54330   5.519   2.038   3.182 -0.8063  0.8607 -0.7520
  394MOL0     H54331   5.684   1.871   3.202 -0.0764  0.5948 -0.4496
  394MOL0     H54332   5.645   1.774   3.346  1.9866 -1.9179 -1.4334
  394MOL0     H54333   5.801   1.855   3.337 -0.2373 -0.7688  1.2904
  394MOL0     H54334   5.987   1.799   3.677 -0.5830  0.2826  0.0861
  394MOL0     H54335   6.031   1.673   3.882 -0.6065 -0.2827 -1.0452
  394MOL0     H54336   5.764   1.767   4.232 -1.7732  0.2576 -2.9434
  394MOL0     H54337   5.736   1.647   4.113 -1.0181  0.7088  0.3993
  394MOL0     H54338   5.870   1.472   4.238  1.8068  0.7627 -0.0689
  394MOL0     H54339   5.929   1.599   4.346  1.6576 -1.8648 -1.1549
  394MOL0     H54340   5.645   1.472   4.327 -1.9921 -0.5638  1.2962
  394MOL0     H54341   5.655   1.622   4.404 -1.2311 -1.8860  0.4677
  394MOL0     H54342   5.796   1.529   4.587 -1.8879  1.4874  0.3195
  394MOL0     H54343   5.826   1.389   4.500 -0.7275  0.1905 -0.5088
  394MOL0     H54344   5.533   1.480   4.559  0.7485 -0.4904 -1.1706
  394MOL0     H54345   5.578   1.320   4.514 -0.5985  0.1273 -0.7052
  394MOL0     H54346   5.655   1.453   4.783 -0.5751  1.1186 -0.9336
  394MOL0     H54347   5.708   1.289   4.721 -0.2182  0.1311  2.6755
  394MOL0     H54348   5.444   1.256   4.681 -3.2319  1.1907  0.7208
  394MOL0     H54349   5.425   1.385   4.783  0.1717 -0.8529 -0.0178
  394MOL0     H54350   5.576   1.131   4.850 -0.4065  0.3956 -0.7952
  394MOL0     H54351   5.429   1.169   4.926 -1.4163  0.2828 -2.2304
  394MOL0     H54352   5.772   1.948   4.100  1.3539 -0.4986  1.2436
  394MOL0     H54353   5.744   2.076   3.883  2.0450  0.2431 -0.4161
  394MOL0     H54354   5.606   2.182   3.651  2.3971 -0.7973 -0.1328
  394MOL0     H54355   5.446   2.292   3.520 -2.0169 -0.3434 -0.6805
  394MOL0     H54356   4.314   3.091   2.987 -3.2598 -0.6068  0.5959
  394MOL0     H54357   4.136   3.137   3.130 -1.0629  1.0991  1.3063
  394MOL0     H54358   3.871   3.322   3.313 -0.3677  1.0054  0.0470
  394MOL0     H54359   3.634   3.353   3.372 -0.6368  0.9059 -3.5368
  394MOL0     H54360   3.426   3.413   3.462 -0.5418 -0.9112  2.8045
  394MOL0     H54361   3.518   3.472   3.591  0.8228 -1.9539 -0.5435
  394MOL0     H54362   3.338   3.668   3.629  0.6604  0.9204 -0.9353
  394MOL0     H54363   3.306   3.497   3.666  0.9776 -0.4066 -1.0676
  394MOL0     H54364   3.116   3.612   3.562 -0.9587 -1.9671  1.4162
  394MOL0     H54365   3.205   3.607   3.408 -0.5787 -1.1412  0.1687
  394MOL0     H54366   3.139   3.371   3.592 -1.6535  0.9287  0.3502
  394MOL0     H54367   3.209   3.366   3.428 -1.5247  0.0817 -1.8100
  394MOL0     H54368   2.825   3.361   3.304  1.1399 -3.3844  0.2543
  394MOL0     H54369   3.668   3.771   3.349  0.9400  1.4562  2.0809
  394MOL0     H54370   4.014   3.811   3.326  0.0328  1.1190  0.7643
  394MOL0     H54371   3.926   3.807   3.168 -2.6295  2.2419 -0.1595
  394MOL0     H54372   3.847   3.870   3.315  1.0715  0.1074  0.8903
  395MOL0     O54373   0.674   1.383  10.359 -0.2407 -0.3410 -0.1178
  395MOL0     C54374   0.560   1.373  10.390  0.0237  1.0673  0.2765
  395MOL0     O54375   0.477   1.470  10.454 -0.3003 -0.7441 -0.0231
  395MOL0     C54376   0.531   1.598  10.470  0.1004  0.0002  0.4266
  395MOL0     C54377   0.555   1.662  10.586 -1.3277  0.3092 -0.6468
  395MOL0     C54378   0.601   1.801  10.594  0.0280  0.2688 -0.7332
  395MOL0     C54379   0.617   1.881  10.477 -0.1985 -0.6094  0.1092
  395MOL0     O54380   0.683   1.998  10.487  1.1418 -0.6699 -0.4521
  395MOL0     C54381   0.764   2.044  10.377 -1.4707  0.0885 -1.2125
  395MOL0     C54382   0.692   2.147  10.296  0.2995 -0.4746  1.0751
  395MOL0     C54383   0.763   2.169  10.165  0.5038  0.1969 -0.5514
  395MOL0     C54384   0.682   2.198  10.044  1.3859  0.1052 -1.2488
  395MOL0     C54385   0.782   2.259   9.943  0.9263 -0.1878  0.1015
  395MOL0     C54386   0.725   2.245   9.806  0.1014 -0.5666  0.7913
  395MOL0     C54387   0.834   2.275   9.706  0.2088  0.2163 -0.1670
  395MOL0     C54388   0.884   2.423   9.679  0.2141 -1.4971  0.2402
  395MOL0     N54389   0.757   2.501   9.646  0.4476 -0.2016 -1.0280
  395MOL0     C54390   0.711   2.506   9.520  0.5186  1.0032  0.7238
  395MOL0     C54391   0.609   2.595   9.532 -0.5521  0.3240  0.4057
  395MOL0     C54392   0.528   2.661   9.429  0.1139  0.3030  0.0481
  395MOL0     C54393   0.386   2.624   9.445  0.1803  0.0983  0.3039
  395MOL0     C54394   0.304   2.704   9.345 -0.8706  0.5278  0.0079
  395MOL0     C54395   0.156   2.661   9.347  0.1214  0.5444  0.5751
  395MOL0     O54396   0.094   2.708   9.471  0.7496  0.0819 -0.2583
  395MOL0     C54397   0.034   2.624   9.564 -0.8281 -0.3808  0.1285
  395MOL0     C54398  -0.016   2.684   9.685  0.0263  0.1859  0.4521
  395MOL0     C54399  -0.067   2.606   9.794 -0.2482 -0.2175  0.8099
  395MOL0     C54400  -0.092   2.672   9.925 -0.6550  0.0240  0.1512
  395MOL0     C54401  -0.059   2.460   9.781  0.3674 -0.5604 -0.5964
  395MOL0     C54402  -0.096   2.373   9.894 -0.6337 -0.0681  0.1081
  395MOL0     O54403  -0.000   2.279   9.950  0.7310 -0.6676 -0.4584
  395MOL0     C54404  -0.032   2.201  10.056  0.2834 -1.0443 -0.1278
  395MOL0     C54405   0.002   2.255  10.185  0.6590 -0.0563  0.5762
  395MOL0     C54406  -0.020   2.182  10.299  0.2569 -0.1033  0.3191
  395MOL0     C54407  -0.082   2.060  10.289 -0.8609  0.0546  0.1811
  395MOL0     O54408  -0.102   2.000  10.407  0.4436  0.1439  0.0051
  395MOL0     C54409  -0.174   1.882  10.421  0.4584  1.1590 -0.3438
  395MOL0     C54410  -0.195   1.856  10.573  0.0637  0.0079  0.4789
  395MOL0     C54411  -0.325   1.759  10.604 -0.8792  0.3229  1.2000
  395MOL0     C54412  -0.349   1.642  10.511 -0.5665  0.4404 -0.0879
  395MOL0     C54413  -0.237   1.542  10.502 -0.3806  0.7393  0.9239
  395MOL0     C54414  -0.275   1.438  10.398  0.4451  0.0932 -0.1933
  395MOL0     C54415  -0.212   1.303  10.428 -0.1203 -0.2300 -0.1520
  395MOL0     C54416  -0.305   1.230  10.516  0.9155  0.6926 -0.1286
  395MOL0    Cl54417  -0.224   1.074  10.547  0.0857 -0.5994  0.4228
  395MOL0     C54418  -0.098   2.002  10.166 -0.3465  0.3023 -0.2531
  395MOL0     C54419  -0.072   2.071  10.042 -1.0175 -0.3055 -0.7790
  395MOL0     O54420  -0.211   2.390   9.920  1.4809  0.1119 -0.2373
  395MOL0     C54421  -0.021   2.398   9.656  0.1141  0.9665  0.2907
  395MOL0     C54422   0.014   2.480   9.558 -0.5824 -1.2572  0.0228
  395MOL0     N54423   0.591   2.643   9.660 -0.0598 -0.8512  0.0773
  395MOL0     N54424   0.685   2.588   9.723  0.2448  0.2655 -0.2087
  395MOL0     C54425   0.578   1.812  10.356 -0.2937  1.1129 -0.2353
  395MOL0     C54426   0.543   1.678  10.355  1.1916 -0.4838 -0.4565
  395MOL0     C54427   0.472   1.250  10.372 -0.7798  0.1865  0.0152
  395MOL0     C54428   0.349   1.237  10.447 -0.0834  0.0438 -0.0717
  395MOL0     C54429   0.280   1.118  10.457 -0.3266  0.6299 -0.2986
  395MOL0     C54430   0.323   1.010  10.371 -0.9310  0.4241  0.2003
  395MOL0     O54431   0.265   0.883  10.371  0.3701 -0.6020  0.1605
  395MOL0     C54432   0.130   0.866  10.420  0.0100 -0.0069  0.4128
  395MOL0     C54433   0.069   0.742  10.343 -0.8635 -0.4195  0.5821
  395MOL0     C54434   0.057   0.771  10.196  0.1777 -0.2689 -0.3304
  395MOL0     C54435  -0.007   0.656  10.114 -0.5596  0.6936 -0.0122
  395MOL0     C54436   0.010   0.686   9.975  0.0647 -0.0756  0.5745
  395MOL0     C54437   0.028   0.712   9.859  0.0607  0.5204  1.0472
  395MOL0     C54438   0.434   1.021  10.291  0.6262 -0.1710  0.2010
  395MOL0     C54439   0.514   1.140  10.292 -0.5583 -0.1932 -0.1629
  395MOL0     C54440   0.643   1.139  10.204 -0.3124  0.1258  0.9153
  395MOL0     H54441   0.528   1.614  10.680 -1.7722 -1.1911 -1.5159
  395MOL0     H54442   0.609   1.843  10.694 -1.9235 -1.8669  0.4299
  395MOL0     H54443   0.814   1.962  10.325 -1.9006 -0.7816 -0.3072
  395MOL0     H54444   0.850   2.091  10.424 -3.0353  0.7005  1.2713
  395MOL0     H54445   0.590   2.114  10.275  0.9976 -0.8774 -2.3983
  395MOL0     H54446   0.701   2.242  10.348  1.7787 -0.1426  0.2656
  395MOL0     H54447   0.825   2.256  10.188  0.6223  0.5631 -2.1247
  395MOL0     H54448   0.838   2.095  10.135  1.2061  1.7408 -2.9044
  395MOL0     H54449   0.639   2.102  10.013 -1.4367  1.1787 -0.9877
  395MOL0     H54450   0.596   2.262  10.065  1.6856  0.6318 -1.6020
  395MOL0     H54451   0.869   2.196   9.924 -0.5169 -2.4465  0.5946
  395MOL0     H54452   0.811   2.362   9.963 -4.0190  1.0212  2.7472
  395MOL0     H54453   0.686   2.146   9.782 -2.2154  0.6307 -0.7554
  395MOL0     H54454   0.646   2.320   9.798 -1.3342 -2.2609 -3.1923
  395MOL0     H54455   0.799   2.234   9.611  1.4160  0.3209 -0.6813
  395MOL0     H54456   0.924   2.222   9.738 -1.3575 -1.5054  1.6520
  395MOL0     H54457   0.928   2.473   9.765 -0.6175  3.4958 -1.8847
  395MOL0     H54458   0.951   2.427   9.592  0.9204 -0.5392  0.8131
  395MOL0     H54459   0.745   2.450   9.434 -3.0042  1.9358 -1.5060
  395MOL0     H54460   0.569   2.632   9.332  0.3874 -0.2193  0.3178
  395MOL0     H54461   0.535   2.769   9.444  1.4518 -0.0592  2.5161
  395MOL0     H54462   0.372   2.517   9.428 -2.1009  0.8020 -3.4033
  395MOL0     H54463   0.340   2.646   9.542  2.1210 -0.2650  1.3581
  395MOL0     H54464   0.321   2.810   9.365 -1.4069  0.6241 -0.0386
  395MOL0     H54465   0.341   2.688   9.243 -3.7073  0.6485 -1.1364
  395MOL0     H54466   0.111   2.710   9.260 -1.4884  0.7400  1.4836
  395MOL0     H54467   0.139   2.554   9.331 -0.6805  0.7744 -0.2398
  395MOL0     H54468  -0.024   2.792   9.693 -3.1222  0.0572  0.2813
  395MOL0     H54469  -0.196   2.657   9.957 -0.6689 -1.5563 -0.5323
  395MOL0     H54470  -0.073   2.778   9.910 -0.0029 -0.1659 -0.4002
  395MOL0     H54471  -0.025   2.650  10.008 -1.2257  0.5193  0.7502
  395MOL0     H54472   0.043   2.355  10.192 -1.9411  1.3615 -2.1706
  395MOL0     H54473   0.007   2.210  10.400 -1.3575 -2.5982  1.5514
  395MOL0     H54474  -0.275   1.904  10.385 -0.2665  1.7828  1.9305
  395MOL0     H54475  -0.129   1.797  10.369  0.0051 -0.2696  1.5063
  395MOL0     H54476  -0.103   1.810  10.609  0.3957 -0.7454 -1.2418
  395MOL0     H54477  -0.213   1.950  10.626 -2.5266 -0.4789  0.6003
  395MOL0     H54478  -0.410   1.827  10.618 -2.0308 -0.9345  0.5946
  395MOL0     H54479  -0.302   1.716  10.702  3.2903 -0.8742 -0.1242
  395MOL0     H54480  -0.367   1.683  10.411 -1.2759 -1.5640 -0.8289
  395MOL0     H54481  -0.440   1.591  10.543  2.2615 -5.1415  0.1542
  395MOL0     H54482  -0.151   1.598  10.465  1.5096 -0.4513  3.2372
  395MOL0     H54483  -0.211   1.498  10.599 -1.1503 -0.6638  0.5168
  395MOL0     H54484  -0.243   1.472  10.299 -1.6668  1.9871 -0.3000
  395MOL0     H54485  -0.381   1.415  10.398  0.6201 -0.7718 -0.8013
  395MOL0     H54486  -0.118   1.318  10.482  0.5280 -1.6356 -0.8317
  395MOL0     H54487  -0.184   1.265  10.330  0.0095 -0.7444  0.0775
  395MOL0     H54488  -0.407   1.210  10.480  0.6096 -1.8516  1.8279
  395MOL0     H54489  -0.315   1.288  10.609  0.0900  0.1778  0.1167
  395MOL0     H54490  -0.132   1.899  10.162  2.8233 -0.9463  1.3614
  395MOL0     H54491  -0.086   2.009   9.954  1.1367  1.5903 -2.5786
  395MOL0     H54492  -0.004   2.293   9.637  5.6659  1.7237 -0.7058
  395MOL0     H54493   0.043   2.428   9.466  0.6918  1.5928 -1.3139
  395MOL0     H54494   0.587   1.873  10.266 -0.0691  1.3759 -0.0391
  395MOL0     H54495   0.520   1.643  10.255  1.1189  0.7488 -0.8850
  395MOL0     H54496   0.307   1.319  10.504  2.1777 -0.4652  2.5252
  395MOL0     H54497   0.190   1.108  10.517  0.6515 -1.6548  0.9195
  395MOL0     H54498   0.123   0.865  10.529 -1.8054 -2.3823  0.3561
  395MOL0     H54499   0.074   0.953  10.386  1.9163  0.1137 -2.8785
  395MOL0     H54500  -0.021   0.712  10.397 -0.3688 -2.1433  0.5395
  395MOL0     H54501   0.136   0.656  10.359  1.0774  0.0656 -3.6873
  395MOL0     H54502   0.000   0.861  10.172  0.2828 -1.1672 -5.0552
  395MOL0     H54503   0.161   0.786  10.163 -0.1754  1.2166 -0.8231
  395MOL0     H54504  -0.113   0.639  10.137 -0.4713  1.8235  1.3505
  395MOL0     H54505   0.045   0.566  10.148  1.9050  2.6300  1.6633
  395MOL0     H54506   0.078   0.729   9.765  0.9707 -2.5630  0.8281
  395MOL0     H54507   0.454   0.941  10.221 -1.8143 -0.9340  0.2958
  395MOL0     H54508   0.732   1.122  10.265  3.3060  0.5829 -3.6563
  395MOL0     H54509   0.638   1.066  10.123 -0.2795 -0.3981  1.3850
  395MOL0     H54510   0.664   1.234  10.154  2.6374  0.2079  2.1415
  396MOL0     O54511   4.195  10.628  10.527  0.7718  0.1304 -0.2310
  396MOL0     C54512   4.080  10.637  10.476  0.4333  0.5485 -0.0105
  396MOL0     O54513   3.963  10.652  10.536  0.1407  0.2058  0.3859
  396MOL0     C54514   3.948  10.684  10.665 -0.5302 -0.3087  0.3346
  396MOL0     C54515   4.044  10.746  10.752  0.6353 -0.3613 -0.3802
  396MOL0     C54516   3.998  10.789  10.879 -1.2020 -0.4420 -0.2917
  396MOL0     C54517   3.875  10.753  10.935  0.5145 -0.3095 -1.1284
  396MOL0     O54518   3.857  10.770  11.068  0.0474 -0.4810 -0.3104
  396MOL0     C54519   3.725  10.742  11.124  0.1355 -0.8341 -0.6372
  396MOL0     C54520   3.697  10.796  11.268  1.2094  0.0368  0.6276
  396MOL0     C54521   3.746  10.944  11.272 -1.1857  0.2517  0.1618
  396MOL0     C54522   3.714  11.017  11.404 -0.1596 -0.2467  0.4353
  396MOL0     C54523   3.788  11.156  11.414  0.1339  0.0416 -0.1132
  396MOL0     C54524   3.791  11.202  11.558  0.0466  0.8188  0.3817
  396MOL0     C54525   3.886  11.326  11.573 -0.4065 -0.0548 -0.8616
  396MOL0     C54526   3.913  11.362  11.716 -0.2631 -0.7970 -0.0565
  396MOL0     N54527   3.975  11.255  11.791  0.2003  0.5783 -0.6139
  396MOL0     C54528   3.927  11.209  11.919  0.5622 -0.2811 -0.0448
  396MOL0     C54529   4.018  11.115  11.958 -0.8779 -0.0148  0.3076
  396MOL0     C54530   4.032  11.062  12.095  0.3749 -0.1550  0.5190
  396MOL0     C54531   3.932  10.951  12.125 -0.1020 -0.5905 -0.0795
  396MOL0     C54532   3.966  10.826  12.044  0.0114 -1.1699 -0.3182
  396MOL0     C54533   3.881  10.706  12.071 -0.5175  0.2984  0.9890
  396MOL0     O54534   3.750  10.732  12.005 -0.1374  0.0648 -0.3148
  396MOL0     C54535   3.668  10.624  11.991 -0.1902 -0.7237 -0.8120
  396MOL0     C54536   3.687  10.499  12.019 -0.1096  1.0781 -0.5298
  396MOL0     C54537   3.587  10.399  12.016 -0.1741  0.4072 -0.1210
  396MOL0     C54538   3.634  10.250  12.040  0.2665  0.6896 -0.0244
  396MOL0     C54539   3.450  10.440  11.978 -0.5923 -0.1660 -0.0877
  396MOL0     C54540   3.329  10.350  11.951  0.8567  0.3062  0.3026
  396MOL0     O54541   3.215  10.396  11.887  0.4044  0.3443  0.2249
  396MOL0     C54542   3.104  10.318  11.896 -0.5536  0.3168  0.6436
  396MOL0     C54543   3.032  10.328  12.013  0.2866  0.3657  0.7508
  396MOL0     C54544   2.931  10.233  12.038 -0.9545 -1.1348  0.0471
  396MOL0     C54545   2.906  10.135  11.949 -0.1947 -0.0522 -0.1023
  396MOL0     O54546   2.796  10.072  11.986  0.4809  0.0873 -0.0685
  396MOL0     C54547   2.740   9.977  11.892  0.2939  0.0437  0.6341
  396MOL0     C54548   2.616   9.906  11.952  0.4596 -0.1870 -0.2497
  396MOL0     C54549   2.562   9.796  11.855  0.3487  0.7338 -0.8739
  396MOL0     C54550   2.452   9.721  11.925  0.7150 -0.7567  0.3891
  396MOL0     C54551   2.378   9.605  11.838 -0.0104 -0.6083 -0.6877
  396MOL0     C54552   2.258   9.558  11.906 -0.0039  0.2184 -0.5271
  396MOL0     C54553   2.148   9.491  11.813 -0.4454  0.8774 -0.0455
  396MOL0     C54554   2.082   9.394  11.904  0.4797  0.7117  0.5524
  396MOL0    Cl54555   1.957   9.473  12.006  0.0601  0.2002 -0.2617
  396MOL0     C54556   2.980  10.121  11.832  0.6012 -0.2915 -0.1614
  396MOL0     C54557   3.081  10.215  11.808 -0.8997 -0.0042 -0.1953
  396MOL0     O54558   3.342  10.235  11.980  0.4440  0.4753 -0.3995
  396MOL0     C54559   3.431  10.571  11.940  0.0796  0.2187  0.5540
  396MOL0     C54560   3.533  10.664  11.957 -0.0323 -0.0844  0.5661
  396MOL0     N54561   4.124  11.106  11.857  0.9044  0.0619 -0.8970
  396MOL0     N54562   4.091  11.187  11.760 -0.3852  0.2999 -0.0335
  396MOL0     C54563   3.795  10.682  10.850  0.9037  1.1284  0.6597
  396MOL0     C54564   3.826  10.650  10.718 -0.0510 -0.5630 -1.0202
  396MOL0     C54565   4.079  10.638  10.326  0.4895 -0.5774 -0.0021
  396MOL0     C54566   3.981  10.725  10.257  0.2019 -0.1015 -0.7215
  396MOL0     C54567   3.981  10.731  10.120 -0.2163 -0.1294  0.1551
  396MOL0     C54568   4.052  10.644  10.047 -0.3977 -0.5452 -0.2396
  396MOL0     O54569   4.037  10.608   9.915 -0.2285 -0.5880  0.6073
  396MOL0     C54570   3.951  10.675   9.817 -0.7725  0.3448  0.1260
  396MOL0     C54571   3.794  10.618   9.821 -0.0805  0.0600  0.5624
  396MOL0     C54572   3.720  10.676   9.695  0.0082 -0.5297  0.0144
  396MOL0     C54573   3.694  10.825   9.694  0.3830  0.6238  0.5006
  396MOL0     C54574   3.806  10.918   9.663  0.8409 -0.4535 -0.1064
  396MOL0     C54575   3.903  10.989   9.643 -0.5674  0.2236 -0.2652
  396MOL0     C54576   4.152  10.582  10.112 -0.7353 -0.8730  0.3261
  396MOL0     C54577   4.178  10.577  10.246  0.3656  0.0416 -1.1184
  396MOL0     C54578   4.275  10.491  10.301 -0.5520  0.1322 -0.0782
  396MOL0     H54579   4.146  10.764  10.720  1.4067 -1.8360  1.1038
  396MOL0     H54580   4.070  10.821  10.953 -0.7021 -3.8931  0.9077
  396MOL0     H54581   3.692  10.638  11.126 -2.3379 -0.0833  1.5399
  396MOL0     H54582   3.655  10.794  11.058  0.0586  1.0248  0.8093
  396MOL0     H54583   3.588  10.788  11.282  0.9464  2.1437  0.2155
  396MOL0     H54584   3.745  10.736  11.344  1.1573 -2.2303 -1.0329
  396MOL0     H54585   3.853  10.943  11.253 -1.0087  2.2476  0.8393
  396MOL0     H54586   3.699  10.988  11.184 -0.9031 -1.3322 -0.8111
  396MOL0     H54587   3.606  11.022  11.415 -0.3384  0.1701 -1.3087
  396MOL0     H54588   3.748  10.944  11.479  1.6240  0.9798  0.9025
  396MOL0     H54589   3.740  11.227  11.346  1.2001 -0.9040 -1.9507
  396MOL0     H54590   3.886  11.144  11.368 -0.5929 -0.6436 -1.5475
  396MOL0     H54591   3.689  11.226  11.589 -1.7684  0.9466 -4.8454
  396MOL0     H54592   3.835  11.118  11.613 -0.6256  1.0212  1.2499
  396MOL0     H54593   3.851  11.415  11.521  0.6337  2.6735  2.6994
  396MOL0     H54594   3.988  11.307  11.538  0.5171 -0.1850  1.6486
  396MOL0     H54595   3.979  11.448  11.727 -0.6731 -0.2290 -1.7433
  396MOL0     H54596   3.817  11.380  11.765 -0.1831 -3.0848  1.0890
  396MOL0     H54597   3.842  11.256  11.968  1.4275  1.2976 -0.0067
  396MOL0     H54598   4.022  11.147  12.163 -1.7503 -0.7142  0.9762
  396MOL0     H54599   4.134  11.024  12.100  0.0493 -1.1256  0.0601
  396MOL0     H54600   3.931  10.927  12.232  2.8071  0.0127  0.1615
  396MOL0     H54601   3.832  10.991  12.108  0.4635  1.8110  1.7127
  396MOL0     H54602   3.954  10.847  11.938  0.5833 -0.1132 -0.1886
  396MOL0     H54603   4.074  10.804  12.046 -0.0233 -1.3889  1.5232
  396MOL0     H54604   3.934  10.620  12.030 -2.2811 -0.9010  1.0884
  396MOL0     H54605   3.867  10.688  12.178 -0.6047  1.7785  1.2610
  396MOL0     H54606   3.782  10.472  12.064  1.0531  0.2538 -3.2915
  396MOL0     H54607   3.689  10.220  11.950 -1.4056  0.2050 -0.9309
  396MOL0     H54608   3.554  10.177  12.056  2.9621 -2.4572  0.1743
  396MOL0     H54609   3.703  10.251  12.125  2.1783  0.5419 -1.5069
  396MOL0     H54610   3.044  10.413  12.079 -0.9690  1.8133 -0.7757
  396MOL0     H54611   2.871  10.248  12.128  0.7149 -1.0565  1.2001
  396MOL0     H54612   2.709  10.033  11.803  2.1183 -1.5323 -1.0925
  396MOL0     H54613   2.811   9.899  11.863 -1.7405 -2.8224  2.7429
  396MOL0     H54614   2.643   9.874  12.053 -0.1805  0.1678  0.0383
  396MOL0     H54615   2.527   9.970  11.952 -0.2261 -0.8883 -4.1786
  396MOL0     H54616   2.648   9.733  11.831  0.4773 -0.1502  1.6785
  396MOL0     H54617   2.522   9.825  11.757  0.1966  0.7429 -0.8106
  396MOL0     H54618   2.380   9.799  11.951 -0.7294 -1.8564 -0.2016
  396MOL0     H54619   2.483   9.686  12.024 -0.8257  0.5819  1.3868
  396MOL0     H54620   2.336   9.653  11.749  2.3211 -1.4155 -2.3103
  396MOL0     H54621   2.441   9.519  11.815 -0.6901 -1.8625  1.7980
  396MOL0     H54622   2.205   9.639  11.957 -3.0553 -2.6840  1.3551
  396MOL0     H54623   2.288   9.492  11.989  1.1615  0.6948 -0.5529
  396MOL0     H54624   2.199   9.450  11.726  0.3322  1.8669 -0.0751
  396MOL0     H54625   2.063   9.551  11.779 -3.2850 -4.4117 -3.7260
  396MOL0     H54626   2.149   9.329  11.960  1.0333  0.8057  0.0123
  396MOL0     H54627   2.034   9.328  11.831  2.5754  0.8910 -1.0745
  396MOL0     H54628   2.956  10.039  11.765  1.8166 -2.3496  1.7748
  396MOL0     H54629   3.139  10.209  11.717 -0.6868 -1.4732  0.0054
  396MOL0     H54630   3.335  10.608  11.905  0.0459 -0.6107 -0.2727
  396MOL0     H54631   3.516  10.771  11.955  0.5922  0.0549 -2.6712
  396MOL0     H54632   3.698  10.645  10.881 -0.3937  1.0568 -3.0352
  396MOL0     H54633   3.751  10.603  10.655 -2.1782  0.7325  0.4016
  396MOL0     H54634   3.914  10.776  10.326  0.9546 -0.3656  0.2213
  396MOL0     H54635   3.895  10.781  10.075  0.4283 -0.9583 -2.1224
  396MOL0     H54636   3.965  10.783   9.822  1.7166  0.2177 -1.8326
  396MOL0     H54637   3.997  10.641   9.723  0.6753 -0.7901  1.1887
  396MOL0     H54638   3.742  10.633   9.916 -0.6192 -3.0018  0.8466
  396MOL0     H54639   3.799  10.509   9.814  0.5604  0.1882 -3.2659
  396MOL0     H54640   3.772  10.642   9.604  1.4372  1.7305 -0.0798
  396MOL0     H54641   3.623  10.627   9.702  1.1246 -2.8158  0.4753
  396MOL0     H54642   3.648  10.852   9.790 -2.6108 -0.6883 -0.4458
  396MOL0     H54643   3.617  10.835   9.616  2.0542  0.5229 -1.2450
  396MOL0     H54644   4.001  11.031   9.656 -0.6877  0.2764  0.5466
  396MOL0     H54645   4.217  10.520  10.052  1.7821 -1.5750  3.5314
  396MOL0     H54646   4.343  10.547  10.367  2.1680  0.1854 -2.7063
  396MOL0     H54647   4.236  10.408  10.361  2.0081 -1.5816 -0.6478
  396MOL0     H54648   4.338  10.455  10.219 -0.9295  1.3827 -0.9393
  397MOL0     O54649  10.498   4.344   7.904  0.1917  0.4782  0.2777
  397MOL0     C54650  10.464   4.235   7.950  0.0049 -0.8154  1.1222
  397MOL0     O54651  10.333   4.190   7.972  0.0151 -0.0247 -0.9716
  397MOL0     C54652  10.232   4.272   7.984  0.6313 -0.2120  1.2903
  397MOL0     C54653  10.243   4.416   8.006  0.7101 -0.2609  0.1287
  397MOL0     C54654  10.136   4.502   8.025  0.6525 -0.4433 -0.5005
  397MOL0     C54655  10.008   4.443   8.024 -0.8642  0.5494 -0.0744
  397MOL0     O54656   9.901   4.529   8.015 -0.7030 -0.7128  0.1505
  397MOL0     C54657   9.788   4.506   8.093  0.2318  0.4334 -0.5323
  397MOL0     C54658   9.712   4.629   8.116 -0.3795 -0.2725  0.1678
  397MOL0     C54659   9.590   4.597   8.192  0.4828  0.1678 -0.2758
  397MOL0     C54660   9.610   4.580   8.346 -0.0141  1.2530  0.6817
  397MOL0     C54661   9.474   4.552   8.417  0.0190  0.4390  0.1555
  397MOL0     C54662   9.367   4.660   8.382  1.1948 -0.1043  0.5582
  397MOL0     C54663   9.246   4.635   8.471  1.1058 -0.2683 -0.1395
  397MOL0     C54664   9.140   4.738   8.448 -0.0451 -0.1978 -0.3077
  397MOL0     N54665   9.192   4.875   8.493 -0.2579 -0.3251  0.7057
  397MOL0     C54666   9.187   4.979   8.400  0.8815 -0.4449 -0.3901
  397MOL0     C54667   9.200   5.094   8.477 -0.2755  0.6204 -0.0322
  397MOL0     C54668   9.214   5.233   8.431 -0.8714 -0.3991 -0.2728
  397MOL0     C54669   9.086   5.312   8.459 -0.2466 -0.1475 -0.3464
  397MOL0     C54670   8.964   5.265   8.370 -0.1927 -0.7510  0.1143
  397MOL0     C54671   8.843   5.361   8.361 -0.0027 -0.5032  0.0465
  397MOL0     O54672   8.805   5.419   8.483  0.1138  0.1137  0.6171
  397MOL0     C54673   8.712   5.521   8.484  1.5588 -0.5349 -0.2060
  397MOL0     C54674   8.641   5.562   8.372 -0.5518 -0.1679  0.3793
  397MOL0     C54675   8.583   5.687   8.356 -0.1785 -0.2376 -0.5023
  397MOL0     C54676   8.529   5.711   8.219 -0.4134  0.1874  0.0071
  397MOL0     C54677   8.568   5.769   8.472  0.4481  0.3250 -0.2338
  397MOL0     C54678   8.513   5.908   8.468  0.7476 -0.0546 -0.0139
  397MOL0     O54679   8.582   6.002   8.545 -0.5848  0.2011  0.2193
  397MOL0     C54680   8.557   6.132   8.526 -0.1956  0.5404  0.6433
  397MOL0     C54681   8.509   6.202   8.644 -0.4302 -0.3368 -0.0481
  397MOL0     C54682   8.482   6.338   8.640 -0.1196  0.2445 -0.2230
  397MOL0     C54683   8.503   6.414   8.525 -0.6558  0.6076  0.4940
  397MOL0     O54684   8.474   6.550   8.515  0.5240 -0.2325  0.5676
  397MOL0     C54685   8.445   6.627   8.638 -0.0620  0.7912  0.2797
  397MOL0     C54686   8.453   6.777   8.619  0.2620  0.2366 -0.1623
  397MOL0     C54687   8.324   6.814   8.547  0.0804 -0.5833 -0.1450
  397MOL0     C54688   8.333   6.962   8.496  1.0605  0.5693 -0.6497
  397MOL0     C54689   8.212   7.028   8.444  0.6623 -0.3701 -0.3668
  397MOL0     C54690   8.169   6.961   8.310  0.8093 -0.2562  0.1170
  397MOL0     C54691   8.084   7.065   8.223  0.3424  0.3039 -0.2447
  397MOL0     C54692   8.017   7.000   8.107 -0.0763  0.0837  0.5158
  397MOL0    Cl54693   8.134   6.969   7.978 -0.0674  0.2221 -0.1236
  397MOL0     C54694   8.568   6.350   8.411 -0.0289  0.3960 -0.4990
  397MOL0     C54695   8.597   6.207   8.415 -0.3446 -0.2173 -1.0592
  397MOL0     O54696   8.415   5.928   8.388  0.3258 -0.1887 -0.4853
  397MOL0     C54697   8.618   5.713   8.600 -0.0989 -0.2478  0.8420
  397MOL0     C54698   8.690   5.591   8.600 -0.4346  0.1890  0.0436
  397MOL0     N54699   9.224   5.057   8.609  1.0403 -0.1889  0.3514
  397MOL0     N54700   9.218   4.924   8.617  0.6430 -0.0948  0.1924
  397MOL0     C54701   9.986   4.301   8.008 -0.9145 -0.2409  0.8105
  397MOL0     C54702  10.101   4.217   7.995 -0.3575 -0.8941  0.1346
  397MOL0     C54703  10.561   4.125   7.938  0.4916 -0.1689 -0.3808
  397MOL0     C54704  10.688   4.158   7.985  0.4571  0.6014 -0.0315
  397MOL0     C54705  10.779   4.042   7.983 -0.4957 -0.6663  0.3297
  397MOL0     C54706  10.748   3.914   7.956  0.1831  0.0275  0.1513
  397MOL0     O54707  10.848   3.818   7.979 -0.2358 -0.5488  0.3697
  397MOL0     C54708  10.813   3.676   8.021  0.4825 -0.5485  0.0482
  397MOL0     C54709  10.945   3.607   8.066  0.3373  0.1865 -0.8203
  397MOL0     C54710  10.995   3.686   8.189  0.3188  0.0549 -0.2387
  397MOL0     C54711  11.117   3.618   8.247 -0.6886  0.5429 -0.4791
  397MOL0     C54712  11.186   3.701   8.346 -0.6847 -0.6114  0.2611
  397MOL0     C54713  11.231   3.778   8.428  0.0152  0.1827  0.5146
  397MOL0     C54714  10.618   3.893   7.903 -0.5659  0.2477  0.5148
  397MOL0     C54715  10.523   3.994   7.892 -0.3149 -0.0513  0.1386
  397MOL0     C54716  10.395   3.963   7.816 -0.2745 -0.5078 -1.0632
  397MOL0     H54717  10.340   4.462   7.991 -0.0018  1.0572 -0.4954
  397MOL0     H54718  10.144   4.610   8.030  0.9567 -0.4999  0.4258
  397MOL0     H54719   9.815   4.469   8.192 -0.0008 -0.0750 -0.6558
  397MOL0     H54720   9.726   4.427   8.049  1.2454 -2.7804  3.3048
  397MOL0     H54721   9.756   4.701   8.184 -2.5138  0.9958  0.3111
  397MOL0     H54722   9.678   4.684   8.027 -1.0598 -2.7925 -1.2229
  397MOL0     H54723   9.534   4.691   8.188  1.1839  0.7547  1.8962
  397MOL0     H54724   9.534   4.518   8.141 -1.0799  1.7228 -1.0719
  397MOL0     H54725   9.679   4.496   8.357  1.4383  2.3659  0.3347
  397MOL0     H54726   9.656   4.667   8.392  1.7106  1.2123 -0.8832
  397MOL0     H54727   9.485   4.552   8.525 -2.3400 -1.7666  0.4865
  397MOL0     H54728   9.430   4.455   8.391  0.8619 -0.6716  2.6226
  397MOL0     H54729   9.407   4.758   8.409 -2.9549  1.6649  1.0039
  397MOL0     H54730   9.343   4.656   8.276  2.9651  2.8063 -0.0776
  397MOL0     H54731   9.275   4.625   8.576 -1.1549 -0.9392  0.4802
  397MOL0     H54732   9.184   4.549   8.444 -0.8091  0.0555  2.7285
  397MOL0     H54733   9.114   4.751   8.343  1.0052  0.6060 -0.4812
  397MOL0     H54734   9.049   4.715   8.505 -0.8696  4.2976  0.5902
  397MOL0     H54735   9.163   4.972   8.294 -0.1130  1.1022 -0.3030
  397MOL0     H54736   9.252   5.237   8.329  3.5069  3.3304  1.1494
  397MOL0     H54737   9.300   5.278   8.482 -0.2734  0.6178 -2.0743
  397MOL0     H54738   9.053   5.329   8.562 -0.4286  1.8255 -0.6802
  397MOL0     H54739   9.104   5.416   8.428 -3.6663  1.0541  1.1638
  397MOL0     H54740   8.990   5.246   8.266 -2.8235  1.2186 -1.0224
  397MOL0     H54741   8.920   5.170   8.401  0.2699 -1.0569 -0.1562
  397MOL0     H54742   8.879   5.433   8.286 -1.8826 -1.6479 -2.0997
  397MOL0     H54743   8.759   5.315   8.309 -1.8299  2.7548 -0.1372
  397MOL0     H54744   8.637   5.483   8.298 -1.6703 -0.0164  0.2527
  397MOL0     H54745   8.420   5.717   8.214 -0.7353 -3.1541  0.4914
  397MOL0     H54746   8.571   5.641   8.146 -0.1257 -0.2467  0.5819
  397MOL0     H54747   8.563   5.811   8.190  0.4180  0.1566  0.8460
  397MOL0     H54748   8.504   6.155   8.742 -1.3868 -4.0213 -1.6660
  397MOL0     H54749   8.429   6.375   8.728 -0.9143  1.0043 -1.0042
  397MOL0     H54750   8.347   6.602   8.680  0.4195 -1.0422  0.3894
  397MOL0     H54751   8.524   6.601   8.710  0.7355 -2.5986 -1.6100
  397MOL0     H54752   8.452   6.828   8.716  0.7757  4.2404 -2.0530
  397MOL0     H54753   8.543   6.820   8.574 -0.3321 -0.6628 -2.3183
  397MOL0     H54754   8.258   6.806   8.634  0.8903  0.4717  0.5893
  397MOL0     H54755   8.300   6.751   8.460  1.4930 -0.0370 -0.9584
  397MOL0     H54756   8.410   6.961   8.417 -1.3510 -1.9620 -3.2197
  397MOL0     H54757   8.366   7.026   8.578  0.7793 -0.6360  0.4432
  397MOL0     H54758   8.130   7.009   8.514  0.6749 -0.6846 -0.4379
  397MOL0     H54759   8.228   7.135   8.431  0.7385 -0.4549 -0.9896
  397MOL0     H54760   8.115   6.870   8.335  2.0228 -1.1720 -0.5006
  397MOL0     H54761   8.267   6.937   8.268  0.8162  1.0191 -0.6771
  397MOL0     H54762   8.163   7.132   8.187  2.6583 -1.7043  0.8203
  397MOL0     H54763   8.016   7.129   8.279 -0.2757  0.5652 -1.2713
  397MOL0     H54764   7.942   7.065   8.061 -0.1617 -2.0306 -2.6242
  397MOL0     H54765   7.977   6.902   8.132 -0.1734  0.0731  0.3196
  397MOL0     H54766   8.584   6.399   8.315  0.7015  1.0261 -0.0642
  397MOL0     H54767   8.639   6.165   8.325  5.1270  6.6965 -2.5786
  397MOL0     H54768   8.617   5.781   8.684 -0.5558  2.2464 -1.0729
  397MOL0     H54769   8.732   5.548   8.691 -0.0090 -1.1466 -0.7706
  397MOL0     H54770   9.886   4.259   8.015 -0.6430 -1.4486 -1.6661
  397MOL0     H54771  10.098   4.108   7.991  0.0848 -0.9249  0.5590
  397MOL0     H54772  10.717   4.254   8.027 -0.6036 -0.2132  2.7472
  397MOL0     H54773  10.885   4.042   8.006 -1.1539  0.6139  3.9258
  397MOL0     H54774  10.740   3.674   8.103  2.0542 -0.2840  1.4867
  397MOL0     H54775  10.762   3.626   7.938  1.3002  2.6718 -2.5821
  397MOL0     H54776  11.019   3.621   7.987  0.5767  1.9885 -0.3232
  397MOL0     H54777  10.928   3.503   8.097  2.6430  0.5201  2.0184
  397MOL0     H54778  11.010   3.789   8.153 -3.7215  1.2877  1.0207
  397MOL0     H54779  10.916   3.689   8.265 -0.2212 -1.3629 -0.7047
  397MOL0     H54780  11.193   3.593   8.172  2.0771  2.7785  1.3542
  397MOL0     H54781  11.101   3.527   8.305 -0.3512  0.8573  0.1205
  397MOL0     H54782  11.277   3.846   8.497  0.2331 -0.3618  0.9125
  397MOL0     H54783  10.587   3.796   7.867 -2.0098  1.6143 -2.2070
  397MOL0     H54784  10.319   3.930   7.887 -0.2491 -3.6692 -2.3642
  397MOL0     H54785  10.381   4.058   7.762  0.2839 -0.2740 -0.8031
  397MOL0     H54786  10.391   3.884   7.741 -3.7077  1.1079 -2.8269
  398MOL0     O54787   4.374   3.102   0.035 -0.1836 -0.2042  0.1730
  398MOL0     C54788   4.320   3.104  -0.077  0.2720  0.0118  0.1888
  398MOL0     O54789   4.362   3.042  -0.188 -0.1236 -0.0359  0.2094
  398MOL0     C54790   4.476   2.972  -0.180  0.5812  0.0093 -0.5153
  398MOL0     C54791   4.458   2.834  -0.152 -0.4493 -0.0451 -0.0746
  398MOL0     C54792   4.565   2.744  -0.142  0.0653  0.0618 -0.2480
  398MOL0     C54793   4.699   2.784  -0.171  0.1194 -0.2270  0.3850
  398MOL0     O54794   4.800   2.698  -0.186  0.0566 -0.3753 -0.1321
  398MOL0     C54795   4.805   2.590  -0.106  0.3303  0.7824 -0.0495
  398MOL0     C54796   4.914   2.496  -0.154 -0.2885  0.4702  1.2226
  398MOL0     C54797   4.883   2.405  -0.280 -0.3727  0.5600  0.1992
  398MOL0     C54798   4.800   2.285  -0.231 -0.4619 -0.2289  0.0714
  398MOL0     C54799   4.829   2.148  -0.294 -0.2466  0.6012  0.5101
  398MOL0     C54800   4.959   2.096  -0.232 -0.0750 -0.5177 -0.6172
  398MOL0     C54801   4.975   1.954  -0.275 -0.6234 -0.3417 -0.2170
  398MOL0     C54802   4.947   1.861  -0.154 -0.2544  0.2212  0.1110
  398MOL0     N54803   4.971   1.718  -0.173 -0.6375 -0.7024 -0.8718
  398MOL0     C54804   4.862   1.627  -0.162 -0.2378  0.8740  0.2462
  398MOL0     C54805   4.919   1.512  -0.197  0.6652  0.5417 -0.1974
  398MOL0     C54806   4.856   1.375  -0.199  0.0402  0.2391 -0.6222
  398MOL0     C54807   4.882   1.279  -0.079  0.0431  0.2150  0.7118
  398MOL0     C54808   4.866   1.352   0.058 -0.6106  0.3151  0.1258
  398MOL0     C54809   4.852   1.253   0.166  1.0349 -1.4191 -0.5580
  398MOL0     O54810   4.727   1.184   0.163 -0.3812 -0.0510  0.4929
  398MOL0     C54811   4.609   1.249   0.201 -0.9318  0.2845 -0.5577
  398MOL0     C54812   4.499   1.172   0.186 -0.2664  0.1369  0.6546
  398MOL0     C54813   4.371   1.220   0.216  0.3808  0.3105 -0.3113
  398MOL0     C54814   4.263   1.121   0.206 -0.3433 -1.0504  0.0018
  398MOL0     C54815   4.356   1.355   0.264  0.0054  0.7896 -0.1198
  398MOL0     C54816   4.221   1.405   0.298 -1.0829  0.1632 -0.4490
  398MOL0     O54817   4.195   1.531   0.261  0.3089 -0.3324  0.0531
  398MOL0     C54818   4.065   1.575   0.289 -0.4177  0.0834 -0.5539
  398MOL0     C54819   3.970   1.608   0.190  0.7944  0.2823  0.1627
  398MOL0     C54820   3.856   1.670   0.227  0.1500 -0.3599  0.0413
  398MOL0     C54821   3.828   1.706   0.366  0.1671 -0.0345  0.5748
  398MOL0     O54822   3.715   1.778   0.400 -0.4319 -0.2460 -0.4540
  398MOL0     C54823   3.622   1.830   0.308  1.3856 -0.0339 -0.5571
  398MOL0     C54824   3.501   1.882   0.385 -0.1705  1.0145 -0.3979
  398MOL0     C54825   3.380   1.943   0.305 -0.1268  0.3885  0.2957
  398MOL0     C54826   3.294   1.826   0.244  0.3202 -0.7005  0.2155
  398MOL0     C54827   3.170   1.881   0.165  0.3588  0.9006 -0.1075
  398MOL0     C54828   3.117   1.762   0.097 -0.0240  0.2281  0.0003
  398MOL0     C54829   2.975   1.779   0.030 -1.4038 -0.1477  0.1411
  398MOL0     C54830   2.962   1.670  -0.078  0.2683 -0.8414 -0.1772
  398MOL0    Cl54831   3.080   1.684  -0.204  0.1329 -0.1639  0.2131
  398MOL0     C54832   3.926   1.675   0.464  0.4712 -0.1456  0.4333
  398MOL0     C54833   4.037   1.602   0.423 -1.0820 -0.1775  0.1500
  398MOL0     O54834   4.146   1.339   0.367  0.4030  0.0539 -0.0768
  398MOL0     C54835   4.474   1.423   0.279 -1.1471  0.1349  1.4394
  398MOL0     C54836   4.602   1.380   0.250  0.4848 -0.7712 -0.1359
  398MOL0     N54837   5.047   1.533  -0.225  0.0382  0.0675  0.4680
  398MOL0     N54838   5.085   1.653  -0.192 -0.0583  0.3923 -0.6251
  398MOL0     C54839   4.718   2.924  -0.194  0.2813  0.3788  0.7366
  398MOL0     C54840   4.609   3.015  -0.207  0.0064 -0.6937  0.4679
  398MOL0     C54841   4.190   3.167  -0.091 -0.4497 -0.6314  0.4123
  398MOL0     C54842   4.078   3.075  -0.118 -0.5972  0.0479 -0.6252
  398MOL0     C54843   3.953   3.135  -0.124 -0.1249 -0.8280  0.5664
  398MOL0     C54844   3.931   3.271  -0.107  0.6287  0.6042 -0.4962
  398MOL0     O54845   3.800   3.320  -0.124  0.2877  0.1796 -0.1312
  398MOL0     C54846   3.764   3.452  -0.089 -0.5950  0.0197  0.2031
  398MOL0     C54847   3.803   3.560  -0.197  0.5399  0.6741 -1.0456
  398MOL0     C54848   3.684   3.641  -0.245  0.0237 -0.6428 -0.9351
  398MOL0     C54849   3.565   3.573  -0.325 -0.5968  0.3077  0.2474
  398MOL0     C54850   3.445   3.649  -0.346 -0.8135 -0.9504  0.1919
  398MOL0     C54851   3.340   3.708  -0.344 -0.0230 -1.3713 -0.2719
  398MOL0     C54852   4.040   3.353  -0.077  0.8734  0.0704 -0.0763
  398MOL0     C54853   4.169   3.309  -0.066 -0.2483  0.5529 -1.1817
  398MOL0     C54854   4.280   3.399  -0.038 -0.7620 -0.3668  0.0614
  398MOL0     H54855   4.358   2.790  -0.149 -1.2454  1.5182 -1.4888
  398MOL0     H54856   4.536   2.641  -0.126 -0.3423 -0.4501 -3.6639
  398MOL0     H54857   4.718   2.524  -0.098  1.8399 -1.0828  3.1061
  398MOL0     H54858   4.849   2.620  -0.010  0.4361 -1.1747  0.5594
  398MOL0     H54859   4.999   2.559  -0.185 -0.0755 -0.3705  0.0429
  398MOL0     H54860   4.936   2.438  -0.064 -0.7941 -2.1537 -0.2643
  398MOL0     H54861   4.813   2.458  -0.345 -1.3773  0.9599  1.5647
  398MOL0     H54862   4.964   2.366  -0.342 -2.1205 -0.5337 -1.5366
  398MOL0     H54863   4.813   2.278  -0.123 -0.7010  0.6966  0.1704
  398MOL0     H54864   4.695   2.310  -0.249 -0.6587 -0.4112  0.9385
  398MOL0     H54865   4.835   2.150  -0.403 -2.3488 -0.7668  0.3112
  398MOL0     H54866   4.750   2.075  -0.272  1.9718 -2.1912 -0.2706
  398MOL0     H54867   5.043   2.162  -0.255 -1.6162  1.1750 -1.6734
  398MOL0     H54868   4.955   2.103  -0.123 -0.8825  2.7850 -0.7618
  398MOL0     H54869   5.071   1.941  -0.327 -0.1943 -0.3838  0.5639
  398MOL0     H54870   4.904   1.921  -0.351 -2.0030  0.1197  0.8476
  398MOL0     H54871   5.022   1.883  -0.077  2.1202 -0.4081 -1.8896
  398MOL0     H54872   4.848   1.859  -0.109  0.1222 -2.3987  1.0132
  398MOL0     H54873   4.758   1.653  -0.143 -0.4697  0.4227 -0.3683
  398MOL0     H54874   4.877   1.322  -0.293 -1.8609 -2.1839  0.1899
  398MOL0     H54875   4.747   1.389  -0.203 -0.5216 -2.5036  1.5742
  398MOL0     H54876   4.813   1.196  -0.092  0.4426  0.2195 -1.9054
  398MOL0     H54877   4.983   1.238  -0.080 -0.5403 -1.3189  1.6639
  398MOL0     H54878   4.953   1.411   0.089  1.7489 -3.2485  0.8752
  398MOL0     H54879   4.785   1.424   0.045  1.6497  2.8215 -1.1297
  398MOL0     H54880   4.931   1.178   0.163  0.2453 -2.4185  1.7710
  398MOL0     H54881   4.857   1.301   0.264  2.0288 -0.9297 -0.8418
  398MOL0     H54882   4.499   1.071   0.147 -1.1583 -0.0688  1.1560
  398MOL0     H54883   4.277   1.033   0.142 -0.7480  0.0615 -1.6923
  398MOL0     H54884   4.171   1.172   0.178  0.7375  1.0233  0.0142
  398MOL0     H54885   4.247   1.087   0.308 -0.5688  0.4826  0.4975
  398MOL0     H54886   4.004   1.593   0.088  0.6439  3.7514 -0.5202
  398MOL0     H54887   3.786   1.681   0.145 -0.5287 -2.1172  0.3435
  398MOL0     H54888   3.664   1.915   0.253  0.5789  0.7364 -0.0078
  398MOL0     H54889   3.583   1.752   0.241 -0.4563 -0.3529  0.7998
  398MOL0     H54890   3.464   1.801   0.450  2.0977 -0.4427 -0.7976
  398MOL0     H54891   3.538   1.959   0.453  1.0726  2.5537 -2.6927
  398MOL0     H54892   3.400   2.020   0.230  2.1337 -0.2414  0.1975
  398MOL0     H54893   3.318   1.995   0.378  0.7319 -1.1660  2.2157
  398MOL0     H54894   3.255   1.767   0.327  2.5239  0.2364  2.0268
  398MOL0     H54895   3.357   1.765   0.177  0.3130  1.4908 -1.9319
  398MOL0     H54896   3.098   1.926   0.234  0.8195  0.4711  0.6708
  398MOL0     H54897   3.197   1.961   0.096 -1.3299  0.8866 -0.8266
  398MOL0     H54898   3.102   1.677   0.165 -3.3681  1.2169  0.6826
  398MOL0     H54899   3.188   1.724   0.024  0.6204  0.7172  0.3663
  398MOL0     H54900   2.971   1.882  -0.005  1.4472  0.2993  0.9182
  398MOL0     H54901   2.895   1.778   0.105 -1.0422 -1.0359  0.5262
  398MOL0     H54902   2.861   1.665  -0.120 -0.5554  1.3981  1.3462
  398MOL0     H54903   2.986   1.577  -0.025  1.1644  0.6969  2.2534
  398MOL0     H54904   3.905   1.699   0.568 -0.8450  3.5050 -0.5233
  398MOL0     H54905   4.109   1.574   0.500 -1.3972 -2.0479 -0.1875
  398MOL0     H54906   4.467   1.527   0.311  2.6486  0.9872 -0.0194
  398MOL0     H54907   4.684   1.451   0.259 -0.3598  0.0765  1.0073
  398MOL0     H54908   4.814   2.973  -0.208  0.0048  1.3280  1.9744
  398MOL0     H54909   4.616   3.122  -0.225 -2.2988 -0.6219 -0.3201
  398MOL0     H54910   4.081   2.967  -0.111 -0.4034 -0.2032 -3.3979
  398MOL0     H54911   3.862   3.082  -0.149 -0.4589 -0.8284  1.7455
  398MOL0     H54912   3.656   3.453  -0.077 -0.4220 -0.3063  2.1553
  398MOL0     H54913   3.802   3.493   0.005  1.5037 -0.2278 -0.4666
  398MOL0     H54914   3.873   3.522  -0.272  1.9737  0.4140  0.3622
  398MOL0     H54915   3.852   3.638  -0.137  1.2038 -0.3200 -0.2659
  398MOL0     H54916   3.652   3.691  -0.154 -1.5821 -2.6838 -0.3100
  398MOL0     H54917   3.730   3.709  -0.317  2.3202 -1.3796 -0.2507
  398MOL0     H54918   3.531   3.490  -0.263 -1.1130 -1.6266 -2.4346
  398MOL0     H54919   3.608   3.532  -0.417  1.7783 -0.9455  1.7989
  398MOL0     H54920   3.246   3.757  -0.352  0.6732  0.3164  1.2758
  398MOL0     H54921   4.025   3.458  -0.057 -1.0638  0.0740 -1.3128
  398MOL0     H54922   4.255   3.494   0.010 -0.0879 -0.1925  0.0732
  398MOL0     H54923   4.354   3.349   0.025  0.6303  3.8670  2.1859
  398MOL0     H54924   4.321   3.421  -0.137  1.8620 -2.3814  0.6151
  399MOL0     O54925   4.083   4.707   6.233  0.3182 -0.0551  0.9995
  399MOL0     C54926   4.173   4.738   6.149 -0.0797  0.0743 -0.9610
  399MOL0     O54927   4.154   4.784   6.031  1.2432  0.4127  1.1224
  399MOL0     C54928   4.031   4.746   5.967  0.6379 -0.0444  0.7634
  399MOL0     C54929   4.033   4.625   5.899 -0.1292 -0.6471 -0.1717
  399MOL0     C54930   3.918   4.573   5.835 -0.0644 -0.4597  0.1356
  399MOL0     C54931   3.806   4.651   5.818  0.2237  0.5430  1.1561
  399MOL0     O54932   3.696   4.596   5.759  0.1707 -0.5679 -0.3687
  399MOL0     C54933   3.594   4.683   5.706 -0.1273 -0.0657  0.5604
  399MOL0     C54934   3.524   4.610   5.592 -0.5075 -0.5263  0.1894
  399MOL0     C54935   3.453   4.479   5.637 -0.9625 -0.1349  0.0582
  399MOL0     C54936   3.367   4.407   5.529 -0.5099 -0.5761  0.3669
  399MOL0     C54937   3.233   4.472   5.527 -0.3701  0.0040  0.7546
  399MOL0     C54938   3.142   4.429   5.649 -0.3434 -0.0808  0.6485
  399MOL0     C54939   3.049   4.546   5.681 -0.1978 -0.4825  0.3121
  399MOL0     C54940   3.101   4.637   5.793 -0.4196  0.1135  0.2114
  399MOL0     N54941   3.115   4.561   5.913  0.1174 -0.8914 -0.8455
  399MOL0     C54942   3.002   4.524   5.984  0.1869 -0.8830 -0.6148
  399MOL0     C54943   3.047   4.460   6.091  0.0092  0.1112  1.1419
  399MOL0     C54944   2.969   4.414   6.201 -0.5604 -0.2231 -0.4816
  399MOL0     C54945   2.977   4.503   6.317 -0.1122  0.3359 -0.3520
  399MOL0     C54946   2.931   4.650   6.294  0.8373 -0.2079 -0.0252
  399MOL0     C54947   3.015   4.756   6.367 -0.0677  0.5609  0.1832
  399MOL0     O54948   2.955   4.878   6.341  0.3394  0.4056 -0.9006
  399MOL0     C54949   3.027   4.995   6.378 -0.5106 -0.8653  1.0823
  399MOL0     C54950   2.970   5.124   6.357  1.2725  1.6926  0.3389
  399MOL0     C54951   3.025   5.250   6.384 -0.3512  0.5817  0.0263
  399MOL0     C54952   2.939   5.370   6.339 -0.0284 -0.9972 -0.8610
  399MOL0     C54953   3.155   5.246   6.442  1.0010 -0.4948  1.3777
  399MOL0     C54954   3.214   5.368   6.477 -0.1625 -0.9856 -0.0177
  399MOL0     O54955   3.348   5.368   6.489 -0.0616 -0.2618 -0.2834
  399MOL0     C54956   3.429   5.468   6.546 -0.1021  0.5749  0.4367
  399MOL0     C54957   3.555   5.502   6.486  0.1939  0.3916 -0.1461
  399MOL0     C54958   3.633   5.604   6.551  0.2125  0.4676 -0.5208
  399MOL0     C54959   3.586   5.669   6.670 -0.4610  0.0459  0.1934
  399MOL0     O54960   3.662   5.761   6.727 -0.4878 -0.5804  1.0916
  399MOL0     C54961   3.685   5.755   6.870 -0.7789  0.0791  0.1959
  399MOL0     C54962   3.818   5.831   6.896 -0.4391  0.3610 -0.3962
  399MOL0     C54963   3.872   5.804   7.041 -1.2024 -1.0637  1.2021
  399MOL0     C54964   3.985   5.904   7.062 -0.3571 -0.3049 -0.6937
  399MOL0     C54965   4.049   5.904   7.213  1.3270  0.8702  1.0817
  399MOL0     C54966   3.980   5.999   7.306  0.0151 -0.3725  0.1918
  399MOL0     C54967   4.052   6.010   7.432 -0.6322  0.4072 -0.5099
  399MOL0     C54968   3.958   5.989   7.554  0.0127  0.7353 -0.0291
  399MOL0    Cl54969   4.070   5.960   7.692  0.1369  0.1369 -0.7932
  399MOL0     C54970   3.459   5.642   6.714 -0.2141  0.4019  0.4233
  399MOL0     C54971   3.386   5.538   6.664  1.0248  0.3559  1.3601
  399MOL0     O54972   3.137   5.456   6.521 -1.5882  0.1287 -0.1844
  399MOL0     C54973   3.225   5.123   6.442 -0.8673  0.5378 -0.5479
  399MOL0     C54974   3.158   4.995   6.427 -0.5669 -0.3276 -0.5507
  399MOL0     N54975   3.187   4.468   6.090  0.2928 -0.1986 -1.1680
  399MOL0     N54976   3.228   4.527   5.985  0.1094 -0.1396 -0.8989
  399MOL0     C54977   3.812   4.777   5.876 -1.2645 -0.6456 -0.3126
  399MOL0     C54978   3.921   4.827   5.958  0.1495  0.1736 -0.4054
  399MOL0     C54979   4.316   4.718   6.193 -0.2014  0.7829 -0.5147
  399MOL0     C54980   4.328   4.655   6.319 -0.1205 -0.6897 -0.2532
  399MOL0     C54981   4.461   4.644   6.373  0.2459 -0.1084 -0.0904
  399MOL0     C54982   4.572   4.678   6.300  0.2002 -0.9522  0.1464
  399MOL0     O54983   4.696   4.678   6.362  0.3188  0.2669  0.1183
  399MOL0     C54984   4.810   4.731   6.289  0.5293  0.4974 -0.3548
  399MOL0     C54985   4.928   4.705   6.369  0.2048  0.1739 -0.5480
  399MOL0     C54986   4.943   4.807   6.487  0.6794  0.7243  0.2585
  399MOL0     C54987   5.001   4.942   6.438 -0.2994 -0.2703  0.4260
  399MOL0     C54988   4.958   5.050   6.522 -0.3397 -0.9287 -0.6182
  399MOL0     C54989   4.918   5.123   6.615 -0.3074  0.8706 -0.5554
  399MOL0     C54990   4.560   4.728   6.169 -0.4578 -0.5276  0.7848
  399MOL0     C54991   4.436   4.745   6.119 -0.8208 -0.4048 -0.2230
  399MOL0     C54992   4.426   4.813   5.980 -0.5754 -0.8829 -0.3720
  399MOL0     H54993   4.125   4.567   5.904 -0.8973 -1.8316  1.5153
  399MOL0     H54994   3.924   4.478   5.783  2.4213  0.2294 -1.0138
  399MOL0     H54995   3.623   4.785   5.681  1.3594 -0.8287 -1.0532
  399MOL0     H54996   3.525   4.705   5.788 -1.9283  2.6745 -1.5191
  399MOL0     H54997   3.444   4.677   5.558  0.3916 -1.4003 -4.1448
  399MOL0     H54998   3.602   4.608   5.516  1.1807  1.5899  1.7410
  399MOL0     H54999   3.535   4.410   5.658 -0.3945  0.2780 -0.7475
  399MOL0     H55000   3.393   4.505   5.725  0.4052 -1.3884  1.4258
  399MOL0     H55001   3.423   4.407   5.436  0.0559  0.2123  0.7049
  399MOL0     H55002   3.353   4.303   5.561 -0.3148 -0.6200  0.3111
  399MOL0     H55003   3.180   4.434   5.439 -1.8299 -1.4198  2.1737
  399MOL0     H55004   3.243   4.580   5.521 -1.4799  0.3100  3.2074
  399MOL0     H55005   3.093   4.334   5.625 -0.5650  0.6839 -2.2944
  399MOL0     H55006   3.195   4.404   5.742  1.9369 -2.0068 -1.0175
  399MOL0     H55007   2.947   4.514   5.704 -0.0776 -1.4094 -0.3854
  399MOL0     H55008   3.033   4.601   5.588  0.1929  1.5358  1.3737
  399MOL0     H55009   3.200   4.671   5.759 -0.9767  2.4525  0.7658
  399MOL0     H55010   3.038   4.726   5.803 -0.0155  0.5488 -0.9568
  399MOL0     H55011   2.901   4.560   5.972  0.4532  2.5083  4.4698
  399MOL0     H55012   3.005   4.315   6.228 -0.2263 -1.0056 -3.4665
  399MOL0     H55013   2.862   4.403   6.182 -0.6543  1.6929 -1.2544
  399MOL0     H55014   2.926   4.447   6.395 -0.0235 -1.3730 -1.4691
  399MOL0     H55015   3.085   4.509   6.338 -0.1973 -0.2779  0.2842
  399MOL0     H55016   2.925   4.675   6.187  3.8893 -0.8344 -0.4477
  399MOL0     H55017   2.827   4.657   6.325  0.4820  0.8043 -1.3159
  399MOL0     H55018   3.011   4.742   6.476  2.5585  0.2364  0.2869
  399MOL0     H55019   3.120   4.738   6.343 -0.9236 -1.8853 -2.1518
  399MOL0     H55020   2.869   5.106   6.320  2.4547 -3.7143 -1.1882
  399MOL0     H55021   3.002   5.451   6.303 -1.7177  0.0329 -1.6245
  399MOL0     H55022   2.872   5.398   6.420  1.3407  1.0632 -0.3631
  399MOL0     H55023   2.882   5.340   6.251  0.6955  0.3102 -1.8144
  399MOL0     H55024   3.590   5.459   6.393  2.6288  1.3115  0.2763
  399MOL0     H55025   3.730   5.624   6.506  2.1702 -0.5657  2.8560
  399MOL0     H55026   3.610   5.815   6.921  0.3289  0.6910  1.1580
  399MOL0     H55027   3.687   5.650   6.900  0.6895 -0.4751 -1.6173
  399MOL0     H55028   3.896   5.793   6.829  0.0180 -0.2804  0.4669
  399MOL0     H55029   3.798   5.932   6.861 -1.1430 -0.2976 -1.9838
  399MOL0     H55030   3.910   5.701   7.040  1.1577 -0.2728 -0.0611
  399MOL0     H55031   3.793   5.810   7.116 -1.6766  0.4818  0.6181
  399MOL0     H55032   3.951   6.006   7.039 -0.9276 -0.7594 -1.9195
  399MOL0     H55033   4.070   5.878   6.997 -0.1238  1.2427 -1.0515
  399MOL0     H55034   4.033   5.802   7.249 -0.7144  0.4377 -0.8207
  399MOL0     H55035   4.158   5.910   7.209  1.6604 -2.0782  2.7891
  399MOL0     H55036   3.876   5.968   7.314 -0.2656  0.3947 -0.3498
  399MOL0     H55037   3.974   6.099   7.262 -3.0682 -1.2352 -1.6370
  399MOL0     H55038   4.113   6.099   7.453  2.1010 -1.2580 -0.9381
  399MOL0     H55039   4.116   5.921   7.434 -2.2926 -0.8135  1.0773
  399MOL0     H55040   3.897   5.903   7.525  2.4239 -1.4099  0.9353
  399MOL0     H55041   3.890   6.074   7.566  2.1850  2.7964 -1.4333
  399MOL0     H55042   3.417   5.672   6.809  2.1240  1.5734  1.1635
  399MOL0     H55043   3.288   5.516   6.706  0.3674  0.1616 -0.2288
  399MOL0     H55044   3.332   5.114   6.456 -0.6611  1.5171 -1.3994
  399MOL0     H55045   3.214   4.908   6.459 -1.8952 -1.1109 -0.2506
  399MOL0     H55046   3.728   4.846   5.865  0.8775  1.9334 -1.7215
  399MOL0     H55047   3.919   4.920   6.013  2.2211 -0.0934  0.1996
  399MOL0     H55048   4.249   4.617   6.383  0.9047 -1.7586  0.4107
  399MOL0     H55049   4.476   4.612   6.476 -1.5642  0.0213  0.2478
  399MOL0     H55050   4.826   4.677   6.195  1.4215 -0.1932  0.1670
  399MOL0     H55051   4.796   4.838   6.270  1.5916  0.4895 -1.2860
  399MOL0     H55052   5.018   4.704   6.307  0.1917  0.0979 -0.5661
  399MOL0     H55053   4.904   4.603   6.402 -3.1865  0.1379 -2.6135
  399MOL0     H55054   4.841   4.808   6.525  0.3801 -0.8081 -0.4453
  399MOL0     H55055   5.012   4.767   6.562  0.5023 -1.0530 -0.4767
  399MOL0     H55056   4.966   4.963   6.337  0.7333  0.1597  0.1461
  399MOL0     H55057   5.110   4.931   6.447 -0.5765 -1.9699  2.4730
  399MOL0     H55058   4.881   5.171   6.703  2.4469  0.9079  0.6728
  399MOL0     H55059   4.642   4.763   6.107 -0.0071 -0.4145  1.4407
  399MOL0     H55060   4.357   4.744   5.930 -0.4821 -1.8380  0.7597
  399MOL0     H55061   4.379   4.912   5.980  2.3113  0.6281  1.1024
  399MOL0     H55062   4.526   4.823   5.938  1.5049  3.8390  4.4420
  400MOL0     O55063   6.806   2.831  10.123 -0.0087  0.3772 -0.5434
  400MOL0     C55064   6.743   2.919  10.070 -0.0286  0.1534  0.3697
  400MOL0     O55065   6.682   2.912   9.940 -0.6101 -0.6429  0.1556
  400MOL0     C55066   6.718   2.799   9.866  0.4013  0.5246 -0.8953
  400MOL0     C55067   6.819   2.795   9.769  0.1697 -0.3417  0.2507
  400MOL0     C55068   6.871   2.673   9.708 -0.6778 -0.1900  0.5839
  400MOL0     C55069   6.826   2.555   9.756  0.1668 -0.9739 -0.4204
  400MOL0     O55070   6.875   2.429   9.711  0.9926 -0.2835  0.5961
  400MOL0     C55071   6.905   2.410   9.572  0.7832  0.5871 -0.4040
  400MOL0     C55072   6.783   2.339   9.509 -0.6639 -0.5875  0.1693
  400MOL0     C55073   6.660   2.429   9.496  0.1173  0.6186  0.6597
  400MOL0     C55074   6.543   2.380   9.580 -0.1778  0.2280  0.3986
  400MOL0     C55075   6.470   2.266   9.509  1.1822  0.3596 -0.1672
  400MOL0     C55076   6.366   2.205   9.615  0.9045  0.5203  0.1162
  400MOL0     C55077   6.225   2.263   9.589  0.3105 -0.5881  0.7285
  400MOL0     C55078   6.140   2.292   9.712  0.1878 -0.2414 -0.2236
  400MOL0     N55079   6.106   2.180   9.793 -0.2164 -0.3349  0.5003
  400MOL0     C55080   5.986   2.104   9.775 -0.7180 -0.4819 -0.0150
  400MOL0     C55081   6.013   2.002   9.859  0.1596  0.1669  0.3797
  400MOL0     C55082   5.932   1.874   9.866 -0.8000 -0.1829 -0.2604
  400MOL0     C55083   6.006   1.746   9.819 -0.3511  0.4423  0.0634
  400MOL0     C55084   5.917   1.615   9.838  2.0161 -0.8155 -0.2068
  400MOL0     C55085   5.889   1.567   9.988  0.5225  0.1142  0.4869
  400MOL0     O55086   6.011   1.537  10.050  0.2268  0.2332  0.1103
  400MOL0     C55087   6.004   1.503  10.181  0.2462 -0.3435  0.0448
  400MOL0     C55088   6.088   1.572  10.259 -0.5554  0.3142 -0.7713
  400MOL0     C55089   6.101   1.536  10.400 -0.6764  0.0103 -0.1529
  400MOL0     C55090   6.186   1.628  10.487 -0.2629 -1.1071  0.0550
  400MOL0     C55091   6.019   1.432  10.448 -0.0099 -0.1626 -1.0324
  400MOL0     C55092   6.019   1.387  10.596  0.1650  0.1027  0.6313
  400MOL0     O55093   5.961   1.264  10.611 -0.5442 -0.1738  0.1375
  400MOL0     C55094   5.933   1.210  10.731 -0.8159  0.7201 -0.7192
  400MOL0     C55095   5.901   1.277  10.848  0.3133 -0.2551 -0.3663
  400MOL0     C55096   5.844   1.211  10.954 -0.5671 -0.1794 -0.9550
  400MOL0     C55097   5.839   1.072  10.946 -0.1709  0.6538  0.9401
  400MOL0     O55098   5.780   1.003  11.039  0.0835 -0.2544  0.2852
  400MOL0     C55099   5.852   0.897  11.108 -0.4245 -0.5233 -0.6097
  400MOL0     C55100   5.816   0.909  11.258  0.2191 -0.4088  0.2656
  400MOL0     C55101   5.847   1.045  11.323  0.6623 -0.0362 -0.2334
  400MOL0     C55102   5.806   1.037  11.477 -0.6247 -0.3016  0.3222
  400MOL0     C55103   5.801   1.184  11.520  0.1423 -0.2363 -0.5394
  400MOL0     C55104   5.775   1.186  11.668  1.1600  0.0373 -0.1523
  400MOL0     C55105   5.736   1.326  11.707 -0.3092  0.2172  0.3672
  400MOL0     C55106   5.753   1.342  11.863 -0.4791 -0.1622 -0.2625
  400MOL0    Cl55107   5.786   1.515  11.906  0.1727  0.3765 -0.2583
  400MOL0     C55108   5.889   0.997  10.832 -0.5399 -0.1646 -0.2663
  400MOL0     C55109   5.936   1.072  10.722  0.5783  0.4895  0.5705
  400MOL0     O55110   6.052   1.467  10.687  0.2509 -0.6157  0.6919
  400MOL0     C55111   5.933   1.364  10.371 -1.2966 -0.2617  0.9639
  400MOL0     C55112   5.926   1.399  10.232  0.8423  0.2881  0.0654
  400MOL0     N55113   6.135   2.020   9.925 -0.4849 -0.7129  0.3503
  400MOL0     N55114   6.190   2.126   9.885  0.4874  0.4862  0.0442
  400MOL0     C55115   6.718   2.554   9.851  0.1157  0.7075 -0.4390
  400MOL0     C55116   6.671   2.672   9.910  0.4967  0.6111 -0.3693
  400MOL0     C55117   6.733   3.053  10.135 -0.0710  0.8132  0.1248
  400MOL0     C55118   6.627   3.136  10.089 -1.0918 -0.5282 -0.0362
  400MOL0     C55119   6.620   3.267  10.130 -0.3330 -0.4431 -0.3345
  400MOL0     C55120   6.706   3.316  10.223 -0.0710 -1.0764  0.6260
  400MOL0     O55121   6.694   3.455  10.245  0.0619  0.1606 -0.0592
  400MOL0     C55122   6.722   3.516  10.379  0.2140  0.3268 -0.4922
  400MOL0     C55123   6.859   3.594  10.374  0.4647  0.2770  0.4495
  400MOL0     C55124   6.850   3.709  10.473  0.2638 -0.7222 -0.0959
  400MOL0     C55125   6.969   3.798  10.458  0.5812 -0.0800 -0.7252
  400MOL0     C55126   6.970   3.906  10.558  0.0101  0.5866  0.3083
  400MOL0     C55127   6.971   3.989  10.645  0.1463 -0.0332  1.0216
  400MOL0     C55128   6.801   3.233  10.275 -1.0446 -0.0548  0.7048
  400MOL0     C55129   6.820   3.101  10.228 -0.9965  0.4678 -1.1762
  400MOL0     C55130   6.954   3.025  10.271 -0.5244 -0.7222  0.0977
  400MOL0     H55131   6.856   2.894   9.746  2.8001 -1.0393  1.1788
  400MOL0     H55132   6.942   2.683   9.627 -2.4617 -0.7007 -1.1217
  400MOL0     H55133   6.995   2.348   9.566  0.4441  0.1987 -2.0628
  400MOL0     H55134   6.917   2.509   9.528 -3.6332  2.6763  2.3831
  400MOL0     H55135   6.805   2.304   9.408 -0.1387 -0.3383  0.1939
  400MOL0     H55136   6.757   2.250   9.567  0.0579 -1.1220 -0.3099
  400MOL0     H55137   6.685   2.531   9.526  2.9441 -0.7301  3.5597
  400MOL0     H55138   6.633   2.431   9.390  0.7087  0.8082  0.5071
  400MOL0     H55139   6.573   2.358   9.683 -0.5432  1.0787  0.6977
  400MOL0     H55140   6.472   2.460   9.602  0.7599  1.1947  0.0726
  400MOL0     H55141   6.538   2.191   9.467 -0.8905 -0.9239 -1.3919
  400MOL0     H55142   6.420   2.300   9.419 -0.4448 -2.3386 -0.3988
  400MOL0     H55143   6.365   2.100   9.582 -3.0374  0.4250  0.0323
  400MOL0     H55144   6.396   2.199   9.720  0.5231  0.6727  0.2377
  400MOL0     H55145   6.165   2.210   9.515  2.3569  1.0988 -2.3374
  400MOL0     H55146   6.240   2.364   9.548 -1.2878 -1.4230 -2.1111
  400MOL0     H55147   6.187   2.373   9.768 -2.3943  3.5012 -2.9113
  400MOL0     H55148   6.045   2.332   9.673 -0.3839 -0.2749  1.0942
  400MOL0     H55149   5.910   2.132   9.704  0.2440  0.1972 -0.8041
  400MOL0     H55150   5.845   1.884   9.801 -1.3937 -1.2433  0.3368
  400MOL0     H55151   5.890   1.864   9.967 -2.4146  3.1446 -0.4883
  400MOL0     H55152   6.035   1.766   9.716 -2.4508  0.0248 -0.6657
  400MOL0     H55153   6.101   1.737   9.872 -1.1009 -1.4799  1.1904
  400MOL0     H55154   5.818   1.632   9.795  1.7819 -1.4204  0.0920
  400MOL0     H55155   5.969   1.536   9.784 -2.6479 -3.9119 -0.7161
  400MOL0     H55156   5.833   1.649  10.035  2.0065  1.9279 -0.7567
  400MOL0     H55157   5.822   1.483   9.966 -0.4123  1.4715 -2.3765
  400MOL0     H55158   6.155   1.650  10.225 -0.4926  1.7125  2.2462
  400MOL0     H55159   6.254   1.563  10.543  2.7052  1.6539 -0.0793
  400MOL0     H55160   6.120   1.697  10.539 -1.2440  1.0040 -3.6121
  400MOL0     H55161   6.256   1.688  10.428  1.4387 -1.1790  1.9176
  400MOL0     H55162   5.922   1.384  10.855  2.9443 -0.7055 -0.3497
  400MOL0     H55163   5.815   1.258  11.047 -0.4011 -0.4428 -0.7695
  400MOL0     H55164   5.820   0.800  11.068 -1.9126  0.3541 -1.6202
  400MOL0     H55165   5.960   0.907  11.092 -0.3841 -2.9137 -2.4653
  400MOL0     H55166   5.708   0.898  11.263  0.1973 -0.0231  0.7997
  400MOL0     H55167   5.862   0.827  11.314 -0.0461 -3.7195 -3.8381
  400MOL0     H55168   5.799   1.125  11.267 -0.2100 -0.1888  0.2733
  400MOL0     H55169   5.956   1.040  11.311  0.3362 -3.4513 -3.2007
  400MOL0     H55170   5.891   0.997  11.532  1.1458  3.2722  0.4918
  400MOL0     H55171   5.712   0.981  11.482 -1.6605  1.2662 -0.3672
  400MOL0     H55172   5.891   1.237  11.489 -0.0579  0.2682 -0.2754
  400MOL0     H55173   5.717   1.221  11.460  1.1926 -2.5464 -3.7424
  400MOL0     H55174   5.855   1.135  11.721  1.7096  4.0513  3.4716
  400MOL0     H55175   5.681   1.129  11.676  0.2116  1.4387 -0.8466
  400MOL0     H55176   5.631   1.345  11.681 -1.1780 -4.1189 -0.0663
  400MOL0     H55177   5.806   1.398  11.663  1.7908 -2.0363 -0.2077
  400MOL0     H55178   5.834   1.275  11.892 -1.0511 -0.4614  0.6782
  400MOL0     H55179   5.653   1.324  11.903 -0.8816  0.8635 -0.7663
  400MOL0     H55180   5.892   0.888  10.831 -1.3551 -0.4196  4.0140
  400MOL0     H55181   5.970   1.021  10.632 -1.0266  1.5643 -0.7029
  400MOL0     H55182   5.876   1.273  10.383  2.6014 -3.6924 -2.9989
  400MOL0     H55183   5.861   1.344  10.165  0.9060  0.6102 -0.2643
  400MOL0     H55184   6.683   2.454   9.871 -1.1806 -0.1101 -5.4229
  400MOL0     H55185   6.592   2.680   9.983 -0.9768  0.3563 -1.8799
  400MOL0     H55186   6.543   3.093  10.036 -2.2011  0.6194  0.7162
  400MOL0     H55187   6.542   3.330  10.089  0.1778  0.5690  0.2073
  400MOL0     H55188   6.643   3.592  10.389 -0.3934 -0.2843 -0.5604
  400MOL0     H55189   6.722   3.438  10.456  1.0712 -1.1247 -1.8963
  400MOL0     H55190   6.884   3.629  10.273 -2.0939  0.5445 -0.1630
  400MOL0     H55191   6.942   3.529  10.402  0.5965 -0.1220 -0.8137
  400MOL0     H55192   6.762   3.773  10.469 -0.6871 -2.0212 -0.2852
  400MOL0     H55193   6.846   3.676  10.577  0.6123  0.9389  0.4893
  400MOL0     H55194   6.967   3.842  10.358 -1.4755 -1.5630 -1.3996
  400MOL0     H55195   7.060   3.738  10.459 -0.1821 -1.2476  0.1048
  400MOL0     H55196   6.959   4.067  10.718  0.0842  1.4150 -0.4731
  400MOL0     H55197   6.883   3.264  10.339  0.5536 -0.0448 -1.2557
  400MOL0     H55198   7.014   3.079  10.345 -0.2898 -2.3317  1.1322
  400MOL0     H55199   6.927   2.935  10.326 -1.8431 -2.0939 -2.5963
  400MOL0     H55200   7.021   3.006  10.187  3.4791 -0.3039  2.9544
  401MOL0     O55201   8.532   2.173   3.905 -0.9329  0.5177 -0.4370
  401MOL0     C55202   8.415   2.142   3.911 -0.6252  0.5433 -0.0519
  401MOL0     O55203   8.365   2.028   3.981 -0.6260 -0.8953  0.1470
  401MOL0     C55204   8.443   1.972   4.078  0.5415 -0.0770  0.0461
  401MOL0     C55205   8.389   1.847   4.122  0.4827 -0.5593 -0.5044
  401MOL0     C55206   8.470   1.751   4.186 -0.2775  0.2908 -0.3574
  401MOL0     C55207   8.599   1.786   4.234  0.3165 -0.5918 -0.1652
  401MOL0     O55208   8.663   1.696   4.310  0.5193 -0.4482  0.3805
  401MOL0     C55209   8.802   1.699   4.326  0.5092  0.0334 -0.6480
  401MOL0     C55210   8.838   1.698   4.478 -1.4484 -0.0714  0.7286
  401MOL0     C55211   8.739   1.600   4.553 -0.0138  0.2789 -0.6255
  401MOL0     C55212   8.723   1.455   4.485  0.1477 -0.7536 -0.1471
  401MOL0     C55213   8.650   1.367   4.593  0.2443  0.3401  0.1462
  401MOL0     C55214   8.515   1.427   4.646  0.3794  0.4196 -0.3372
  401MOL0     C55215   8.416   1.467   4.534 -0.0804 -0.0743  0.9128
  401MOL0     C55216   8.290   1.524   4.597 -0.5429  1.1582 -0.1529
  401MOL0     N55217   8.179   1.535   4.498  0.2521 -0.3939  0.2597
  401MOL0     C55218   8.144   1.651   4.446  0.6406  0.0135  0.2884
  401MOL0     C55219   8.026   1.637   4.398  0.3175  0.9874  0.9411
  401MOL0     C55220   7.950   1.751   4.324 -0.3853  0.3677  0.7570
  401MOL0     C55221   7.803   1.736   4.271  0.4630 -0.3056 -0.5245
  401MOL0     C55222   7.714   1.848   4.307  0.5766  0.8025 -0.3005
  401MOL0     C55223   7.578   1.868   4.234  0.0407  0.8910  0.1005
  401MOL0     O55224   7.530   2.003   4.248 -0.3660  0.2685  0.0502
  401MOL0     C55225   7.412   2.028   4.181 -0.7932 -0.7171 -0.8202
  401MOL0     C55226   7.313   1.935   4.172  0.9660 -0.6235 -0.2967
  401MOL0     C55227   7.203   1.949   4.087  0.2878 -0.8489 -0.1469
  401MOL0     C55228   7.114   1.820   4.088  0.4069 -0.2419  0.7921
  401MOL0     C55229   7.186   2.074   4.019 -0.3198  0.1528 -0.3829
  401MOL0     C55230   7.069   2.103   3.936 -0.0396 -0.0000  0.1724
  401MOL0     O55231   7.108   2.163   3.818  0.0009 -0.3955  0.3926
  401MOL0     C55232   7.010   2.165   3.726  0.6820  0.0698 -1.0123
  401MOL0     C55233   6.909   2.262   3.742  0.0298  0.5022 -0.0357
  401MOL0     C55234   6.804   2.266   3.656  1.0049  0.3035 -0.2874
  401MOL0     C55235   6.798   2.185   3.543  0.3933 -0.1611  0.4808
  401MOL0     O55236   6.692   2.210   3.463  0.1055 -0.1132 -0.7411
  401MOL0     C55237   6.693   2.215   3.323 -0.4667  0.2910  0.4495
  401MOL0     C55238   6.551   2.208   3.279  0.9947  0.0342 -0.3157
  401MOL0     C55239   6.549   2.199   3.123 -0.8839 -0.6813 -0.4544
  401MOL0     C55240   6.404   2.197   3.060  0.0645 -0.8042 -0.3366
  401MOL0     C55241   6.405   2.115   2.925  0.2325  0.3483  0.3971
  401MOL0     C55242   6.476   2.164   2.801  0.4526 -0.6725 -0.8352
  401MOL0     C55243   6.476   2.060   2.700  0.1547 -0.2608 -0.4533
  401MOL0     C55244   6.544   2.113   2.581 -0.7072  0.1506  0.1053
  401MOL0    Cl55245   6.536   1.978   2.454  0.0751 -0.6513 -0.1820
  401MOL0     C55246   6.905   2.101   3.518 -0.2555  0.4527 -0.9039
  401MOL0     C55247   7.011   2.080   3.612 -0.0041 -0.9601 -0.5145
  401MOL0     O55248   6.953   2.094   3.983  0.4898  0.2617  0.2171
  401MOL0     C55249   7.283   2.177   4.031  0.7861  0.1196 -0.1777
  401MOL0     C55250   7.396   2.151   4.105  0.6974 -0.2539 -0.3794
  401MOL0     N55251   7.978   1.506   4.423 -0.6772 -0.0112 -0.0607
  401MOL0     N55252   8.073   1.450   4.488 -0.3025  1.3695 -0.2798
  401MOL0     C55253   8.647   1.919   4.209  0.9490 -0.7354 -0.9331
  401MOL0     C55254   8.565   2.009   4.139 -0.4421 -0.1339  1.1570
  401MOL0     C55255   8.320   2.247   3.857  0.2330 -0.2090  0.1580
  401MOL0     C55256   8.194   2.264   3.913 -0.0995  0.1679  0.1849
  401MOL0     C55257   8.106   2.358   3.861  0.2502  0.8663 -0.2104
  401MOL0     C55258   8.140   2.440   3.753 -0.5881 -0.1151  0.6932
  401MOL0     O55259   8.065   2.540   3.697  0.1236  0.1713 -0.5148
  401MOL0     C55260   7.957   2.590   3.771  0.3437 -0.0119  0.8035
  401MOL0     C55261   7.888   2.719   3.707  1.2010  0.3096  0.0899
  401MOL0     C55262   7.843   2.701   3.554 -0.3859 -0.2349 -0.2714
  401MOL0     C55263   7.739   2.813   3.499 -1.3488 -0.0122  0.5220
  401MOL0     C55264   7.811   2.939   3.488  1.2893  0.7567 -0.0239
  401MOL0     C55265   7.866   3.043   3.497 -0.4482 -0.2488  1.6928
  401MOL0     C55266   8.264   2.414   3.690  0.5807 -0.0991 -0.8210
  401MOL0     C55267   8.363   2.332   3.747  0.2589 -0.2085  0.4698
  401MOL0     C55268   8.484   2.315   3.666 -0.1481 -0.1353 -0.5329
  401MOL0     H55269   8.286   1.823   4.099  0.0346  0.4967  0.3173
  401MOL0     H55270   8.433   1.654   4.220  0.7852  0.9325  2.9946
  401MOL0     H55271   8.846   1.791   4.286  2.9952  0.4113  2.5883
  401MOL0     H55272   8.829   1.604   4.279 -3.0073 -0.7417 -1.4476
  401MOL0     H55273   8.942   1.671   4.497 -0.8577  0.9710 -0.8457
  401MOL0     H55274   8.839   1.803   4.509  3.6360  1.0712 -2.2466
  401MOL0     H55275   8.755   1.597   4.661 -2.1554  0.0598 -0.2893
  401MOL0     H55276   8.639   1.643   4.558 -0.0226  0.1260  1.9706
  401MOL0     H55277   8.669   1.451   4.390 -0.9476  1.0332  0.3592
  401MOL0     H55278   8.824   1.421   4.459  0.9814  0.3859  1.4003
  401MOL0     H55279   8.715   1.344   4.677 -0.7690  2.8330  1.7365
  401MOL0     H55280   8.620   1.276   4.539 -0.5461 -0.1739  1.4139
  401MOL0     H55281   8.477   1.348   4.712  1.0243 -0.1164 -0.5935
  401MOL0     H55282   8.543   1.514   4.707 -1.4419  0.6792  0.1770
  401MOL0     H55283   8.395   1.384   4.465  1.2859  1.6741 -1.7430
  401MOL0     H55284   8.472   1.537   4.472  2.3390  0.4407  3.4751
  401MOL0     H55285   8.251   1.454   4.671 -0.7651  0.9152 -0.4995
  401MOL0     H55286   8.299   1.618   4.652 -0.9999  0.3423  1.3640
  401MOL0     H55287   8.216   1.731   4.431 -1.9345  2.1322 -1.8446
  401MOL0     H55288   8.017   1.760   4.238  2.2491 -1.8245  2.4266
  401MOL0     H55289   7.972   1.845   4.377 -1.6697  0.2606  1.5225
  401MOL0     H55290   7.810   1.720   4.163  0.8535  3.2915 -1.1595
  401MOL0     H55291   7.761   1.645   4.315  3.3824 -1.0276  1.0786
  401MOL0     H55292   7.705   1.845   4.416 -0.0171  1.0603 -0.3439
  401MOL0     H55293   7.769   1.938   4.280 -0.3860  1.1391 -1.2138
  401MOL0     H55294   7.581   1.832   4.131  2.8564  0.5248  0.2491
  401MOL0     H55295   7.508   1.798   4.283  2.2586 -2.2221 -0.8885
  401MOL0     H55296   7.312   1.842   4.227 -0.1086 -1.9885 -2.4820
  401MOL0     H55297   7.059   1.808   4.182  0.8441  1.9938  1.4143
  401MOL0     H55298   7.179   1.733   4.079  0.0416 -0.2790 -2.6127
  401MOL0     H55299   7.043   1.815   4.005 -0.0385  0.5803  1.1058
  401MOL0     H55300   6.915   2.338   3.819 -1.2128  1.0697 -0.4721
  401MOL0     H55301   6.718   2.331   3.671  0.8568  0.9639 -3.3148
  401MOL0     H55302   6.746   2.299   3.278  0.2802  0.1201  1.0057
  401MOL0     H55303   6.728   2.117   3.290  0.2747  0.4791  0.6776
  401MOL0     H55304   6.513   2.120   3.331 -1.3913  0.7970 -0.6688
  401MOL0     H55305   6.494   2.295   3.312 -0.1979 -1.2794  1.2955
  401MOL0     H55306   6.583   2.096   3.108 -2.6985 -1.2754 -0.7760
  401MOL0     H55307   6.606   2.269   3.061 -2.0662 -0.9807 -1.9235
  401MOL0     H55308   6.371   2.297   3.031  1.4961 -0.7128 -1.8337
  401MOL0     H55309   6.353   2.148   3.144  1.4321  2.7321  2.8668
  401MOL0     H55310   6.442   2.013   2.940  0.6745  0.6805  1.6137
  401MOL0     H55311   6.301   2.090   2.904 -0.1231  2.4893 -0.6317
  401MOL0     H55312   6.577   2.195   2.829 -0.1192 -0.1984  0.8130
  401MOL0     H55313   6.434   2.253   2.753 -0.4719 -0.3085  0.5902
  401MOL0     H55314   6.372   2.028   2.685 -0.1810 -0.9570  2.6072
  401MOL0     H55315   6.529   1.976   2.747 -1.5645 -1.4914 -0.5895
  401MOL0     H55316   6.648   2.137   2.607  0.3732 -0.6236 -3.0380
  401MOL0     H55317   6.500   2.207   2.546 -0.9766  0.2644  0.7487
  401MOL0     H55318   6.889   2.045   3.426  1.0614 -1.3976 -0.0632
  401MOL0     H55319   7.093   2.011   3.595  0.4143 -0.5730 -0.1125
  401MOL0     H55320   7.266   2.279   3.998 -2.0658 -0.1001  0.4002
  401MOL0     H55321   7.475   2.222   4.127  2.4463 -2.4739  0.8984
  401MOL0     H55322   8.740   1.947   4.257 -0.3708 -0.2908  1.5135
  401MOL0     H55323   8.601   2.109   4.117  0.2135 -0.5151  0.4514
  401MOL0     H55324   8.153   2.193   3.984  0.5309  0.3955  0.7932
  401MOL0     H55325   8.006   2.371   3.902 -1.6546 -1.3394 -3.5538
  401MOL0     H55326   7.874   2.520   3.783 -0.0584 -0.1617 -2.0780
  401MOL0     H55327   8.002   2.615   3.867  2.3288 -0.6228  0.0754
  401MOL0     H55328   7.954   2.806   3.718 -2.7876  3.7455 -0.4751
  401MOL0     H55329   7.797   2.750   3.759  1.0485  1.8070 -0.9892
  401MOL0     H55330   7.928   2.678   3.489 -0.8272 -1.0903 -0.5651
  401MOL0     H55331   7.782   2.610   3.554  0.7907 -1.0537 -0.4275
  401MOL0     H55332   7.646   2.806   3.556 -2.5821 -2.1431 -1.5561
  401MOL0     H55333   7.703   2.767   3.406  1.8976 -0.4129 -0.6894
  401MOL0     H55334   7.908   3.142   3.498 -1.2935  0.2555 -1.5957
  401MOL0     H55335   8.284   2.490   3.615  0.9242  2.7409  1.9239
  401MOL0     H55336   8.575   2.354   3.713  0.6225 -0.7033 -1.5096
  401MOL0     H55337   8.508   2.212   3.636  1.6823  0.3251 -0.7679
  401MOL0     H55338   8.466   2.371   3.575 -3.6437  2.1978  1.3701
  402MOL0     O55339   6.417   9.508   3.989  0.2945  0.3150 -0.6476
  402MOL0     C55340   6.505   9.568   4.058  0.1477 -0.3992  0.1896
  402MOL0     O55341   6.479   9.668   4.145  0.1181 -0.1444  0.5266
  402MOL0     C55342   6.349   9.724   4.135 -0.1337  0.9157  0.7011
  402MOL0     C55343   6.293   9.772   4.013 -0.0396 -0.7804  0.1876
  402MOL0     C55344   6.158   9.809   4.016 -0.0667 -0.1848 -0.1962
  402MOL0     C55345   6.082   9.830   4.138 -1.1591  1.3220  0.5366
  402MOL0     O55346   5.957   9.873   4.144  0.0794  0.2723  0.5160
  402MOL0     C55347   5.891   9.821   4.255  0.3538  0.7212  0.0631
  402MOL0     C55348   5.738   9.837   4.239  0.5325 -1.2538 -0.0939
  402MOL0     C55349   5.706   9.995   4.271  0.3181  0.4657 -0.5136
  402MOL0     C55350   5.565  10.021   4.232  1.0102 -0.6971 -0.1945
  402MOL0     C55351   5.516  10.155   4.302  0.5951  0.1145 -0.3731
  402MOL0     C55352   5.619  10.280   4.291  0.2731  0.3005 -0.5451
  402MOL0     C55353   5.576  10.406   4.375 -0.1956 -0.3785  1.0198
  402MOL0     C55354   5.691  10.506   4.364  0.1008 -1.0838 -0.3291
  402MOL0     N55355   5.800  10.506   4.460  0.8168 -0.3187 -0.6103
  402MOL0     C55356   5.889  10.405   4.485 -0.7715  0.1456  0.4596
  402MOL0     C55357   5.956  10.439   4.600  1.2411 -0.2712 -0.2719
  402MOL0     C55358   6.062  10.360   4.669 -0.1465 -0.0476  0.1329
  402MOL0     C55359   5.993  10.243   4.758  0.2405  0.3028 -0.0580
  402MOL0     C55360   5.935  10.124   4.676 -0.0187  0.6620  0.2946
  402MOL0     C55361   5.911  10.014   4.773  0.2668 -0.4962  0.1319
  402MOL0     O55362   6.026   9.955   4.832 -0.2783  0.1155 -0.0840
  402MOL0     C55363   6.105   9.870   4.759 -0.6680 -0.6668 -0.6992
  402MOL0     C55364   6.065   9.772   4.681 -0.1462 -0.1919 -0.2678
  402MOL0     C55365   6.148   9.688   4.611 -0.3075  0.2182  0.2132
  402MOL0     C55366   6.080   9.567   4.535 -0.4872 -0.6843  0.1287
  402MOL0     C55367   6.291   9.709   4.608  0.1440 -0.3002  0.2204
  402MOL0     C55368   6.398   9.609   4.553  0.4881  0.0768 -0.0555
  402MOL0     O55369   6.349   9.486   4.521  0.3338 -0.4424  0.0822
  402MOL0     C55370   6.419   9.402   4.445 -0.1271  0.1236 -0.6505
  402MOL0     C55371   6.516   9.324   4.502  0.0250  0.6152  0.5540
  402MOL0     C55372   6.597   9.234   4.433 -0.0602  0.8348  1.3872
  402MOL0     C55373   6.573   9.208   4.306 -0.3371  0.8340  0.5323
  402MOL0     O55374   6.661   9.104   4.265 -0.0366  0.0666 -0.2105
  402MOL0     C55375   6.657   9.069   4.131  0.1633 -0.1231  0.3483
  402MOL0     C55376   6.736   8.937   4.111  0.3930 -0.2248 -0.4108
  402MOL0     C55377   6.713   8.891   3.960 -0.4325 -0.5643  0.2746
  402MOL0     C55378   6.594   8.800   3.951  0.4740 -0.1005 -0.8758
  402MOL0     C55379   6.562   8.726   3.827 -0.4130  0.3630  0.9521
  402MOL0     C55380   6.567   8.818   3.703  0.6472  0.6408  0.1473
  402MOL0     C55381   6.473   8.938   3.704 -0.0774 -0.3667  0.1335
  402MOL0     C55382   6.514   9.024   3.586  1.1219  0.2104  1.4537
  402MOL0    Cl55383   6.386   9.005   3.462 -0.1771 -0.2113  0.4405
  402MOL0     C55384   6.469   9.270   4.243 -0.3231 -0.6749 -0.6012
  402MOL0     C55385   6.398   9.378   4.304 -0.5118 -0.2626 -0.4088
  402MOL0     O55386   6.513   9.645   4.543 -0.6391 -1.0024 -0.2514
  402MOL0     C55387   6.325   9.819   4.686  0.2134 -1.3442 -0.0778
  402MOL0     C55388   6.243   9.888   4.772 -0.4177 -0.7414 -0.4459
  402MOL0     N55389   5.903  10.553   4.650 -0.1139  0.2007  0.2844
  402MOL0     N55390   5.807  10.591   4.566 -0.0299 -0.4174 -1.7881
  402MOL0     C55391   6.155   9.805   4.253  0.3000 -0.4489  0.2496
  402MOL0     C55392   6.280   9.752   4.252  0.1866  0.3982  0.0453
  402MOL0     C55393   6.649   9.522   4.051  0.4452 -0.7828  0.1565
  402MOL0     C55394   6.682   9.432   3.959  0.1135  0.4151 -0.1895
  402MOL0     C55395   6.811   9.387   3.927 -0.0567 -0.7703 -0.3489
  402MOL0     C55396   6.919   9.449   3.997 -0.2788  0.2773  1.1375
  402MOL0     O55397   7.046   9.402   3.971 -0.4360  0.3729 -0.2333
  402MOL0     C55398   7.114   9.476   3.864  0.4776  0.0217  0.6280
  402MOL0     C55399   7.212   9.569   3.930  0.2962  1.0527  1.1995
  402MOL0     C55400   7.320   9.507   4.010 -0.0548  0.2063  0.6522
  402MOL0     C55401   7.411   9.607   4.079 -0.4162  0.5336 -0.2044
  402MOL0     C55402   7.543   9.610   4.025 -0.0253  0.7455 -0.8716
  402MOL0     C55403   7.662   9.597   4.000  0.8016  0.3129  0.1379
  402MOL0     C55404   6.896   9.545   4.091  0.2941  0.9548 -1.0798
  402MOL0     C55405   6.763   9.581   4.125 -0.3370 -0.9569 -0.3977
  402MOL0     C55406   6.751   9.681   4.235  0.1413  0.3941 -0.3362
  402MOL0     H55407   6.360   9.779   3.928  0.7227  1.8409  0.8873
  402MOL0     H55408   6.112   9.839   3.923  1.1664 -1.1057 -1.1350
  402MOL0     H55409   5.930   9.877   4.340  0.2813  1.9745 -0.7105
  402MOL0     H55410   5.905   9.713   4.267  0.6060  0.3543 -2.7714
  402MOL0     H55411   5.702   9.813   4.139 -1.6013  4.3186 -1.0397
  402MOL0     H55412   5.678   9.775   4.306 -0.4687 -2.5199 -2.0834
  402MOL0     H55413   5.730  10.018   4.375  1.0030 -0.6132 -0.4128
  402MOL0     H55414   5.766  10.065   4.212 -1.9912  2.1262 -1.0271
  402MOL0     H55415   5.557  10.036   4.124 -0.2767  1.5090  0.1404
  402MOL0     H55416   5.514   9.933   4.272  3.1280 -2.1334 -0.4930
  402MOL0     H55417   5.487  10.129   4.404  0.7669 -2.8081 -0.9859
  402MOL0     H55418   5.417  10.177   4.262 -1.2492 -1.6419  2.7785
  402MOL0     H55419   5.714  10.254   4.339 -0.5913  2.6094  2.7632
  402MOL0     H55420   5.629  10.311   4.186  0.5993  0.2954 -0.5169
  402MOL0     H55421   5.571  10.398   4.484  0.0813  3.5418  1.4527
  402MOL0     H55422   5.484  10.450   4.337  0.8995  2.9084  1.7908
  402MOL0     H55423   5.733  10.501   4.264 -1.2145 -2.7407 -0.8426
  402MOL0     H55424   5.643  10.604   4.374 -1.9223 -2.0301 -0.3047
  402MOL0     H55425   5.908  10.317   4.424 -1.2724  0.0642  0.4211
  402MOL0     H55426   6.126  10.424   4.730 -0.5708  0.4248  0.0863
  402MOL0     H55427   6.131  10.315   4.597 -0.1549  0.7587 -0.3842
  402MOL0     H55428   6.085  10.215   4.809 -0.1010 -0.1533  0.3186
  402MOL0     H55429   5.921  10.281   4.831 -0.2170 -0.3225 -0.1792
  402MOL0     H55430   5.844  10.159   4.626  0.8072  4.8963  1.2815
  402MOL0     H55431   6.011  10.101   4.601  0.4774  2.3855  0.2087
  402MOL0     H55432   5.852  10.051   4.857 -2.7267 -1.8999 -1.2015
  402MOL0     H55433   5.854   9.939   4.717 -0.4684 -0.2004  0.4661
  402MOL0     H55434   5.959   9.751   4.687 -0.0360 -0.2746  3.3782
  402MOL0     H55435   6.103   9.466   4.570  0.3701 -1.3686 -2.2249
  402MOL0     H55436   6.093   9.578   4.427  2.3110 -1.1515  0.3383
  402MOL0     H55437   5.972   9.570   4.555 -0.6320  0.9251 -0.7846
  402MOL0     H55438   6.542   9.339   4.607  1.8974 -1.1715  0.4063
  402MOL0     H55439   6.671   9.180   4.491 -0.2782 -1.4185 -0.2886
  402MOL0     H55440   6.554   9.062   4.094  0.7930 -0.9723 -1.3378
  402MOL0     H55441   6.712   9.145   4.075 -1.3064 -0.5135 -1.7770
  402MOL0     H55442   6.843   8.949   4.130  0.2462  2.6058 -1.0029
  402MOL0     H55443   6.694   8.859   4.175 -2.7425  1.1773 -0.5439
  402MOL0     H55444   6.799   8.829   3.933  2.8404  2.6903  2.2743
  402MOL0     H55445   6.709   8.978   3.894 -0.8187  0.1984  1.2741
  402MOL0     H55446   6.507   8.858   3.985  0.5414  0.6177 -1.8856
  402MOL0     H55447   6.610   8.717   4.021 -0.1189 -1.0084 -1.7969
  402MOL0     H55448   6.630   8.641   3.816  0.0876  0.9845 -1.3937
  402MOL0     H55449   6.457   8.699   3.836 -1.1059  2.4070 -0.3011
  402MOL0     H55450   6.532   8.752   3.623 -0.4967  0.4281  0.8107
  402MOL0     H55451   6.672   8.846   3.692  0.8648 -0.4183 -0.6542
  402MOL0     H55452   6.488   8.997   3.795 -0.4188  1.3197 -0.8616
  402MOL0     H55453   6.366   8.917   3.704 -0.4188  0.8464  3.3983
  402MOL0     H55454   6.610   8.992   3.544  1.3543 -0.5872  2.5381
  402MOL0     H55455   6.518   9.129   3.617 -3.1306  0.6783  1.0307
  402MOL0     H55456   6.434   9.231   4.148 -3.2688  0.9344 -0.2974
  402MOL0     H55457   6.321   9.425   4.243  0.0137 -0.3237 -1.1319
  402MOL0     H55458   6.431   9.835   4.700 -0.2144 -0.2554  2.3853
  402MOL0     H55459   6.283   9.975   4.823  0.0362 -0.8198 -0.6602
  402MOL0     H55460   6.115   9.823   4.352 -0.4554  0.9308 -0.2816
  402MOL0     H55461   6.337   9.734   4.343  0.6702 -3.4807 -0.8477
  402MOL0     H55462   6.609   9.387   3.893  3.3895 -3.1756 -1.7516
  402MOL0     H55463   6.837   9.306   3.859 -0.8859 -0.3374 -1.2225
  402MOL0     H55464   7.172   9.417   3.793 -0.6122 -1.4269  0.9061
  402MOL0     H55465   7.042   9.533   3.803  2.6480  1.6037 -0.6177
  402MOL0     H55466   7.150   9.618   4.006  0.9779 -0.1776  2.5765
  402MOL0     H55467   7.250   9.634   3.850  0.8658  0.8898  1.3385
  402MOL0     H55468   7.272   9.441   4.083 -2.6765 -1.8545 -2.6299
  402MOL0     H55469   7.382   9.438   3.951 -0.0031  1.7139 -1.1622
  402MOL0     H55470   7.415   9.580   4.185 -0.7083  0.8475 -0.1088
  402MOL0     H55471   7.371   9.708   4.065  0.6263  0.9341 -0.4199
  402MOL0     H55472   7.760   9.589   3.959  0.9900  4.7710 -0.7962
  402MOL0     H55473   6.973   9.589   4.153  2.1818  1.1222 -3.3866
  402MOL0     H55474   6.674   9.639   4.300 -0.7790 -1.0618 -2.2791
  402MOL0     H55475   6.840   9.681   4.299 -1.1210 -0.4252  1.4833
  402MOL0     H55476   6.734   9.783   4.199  6.5378  1.6844 -1.0125
  403MOL0     O55477   1.908   3.496   0.396  0.3297 -0.2910 -0.4334
  403MOL0     C55478   1.845   3.448   0.302  0.4223 -0.3760  0.4910
  403MOL0     O55479   1.726   3.393   0.316 -0.2510  0.4673  0.6821
  403MOL0     C55480   1.667   3.373   0.436  1.0759 -0.2158  1.0619
  403MOL0     C55481   1.538   3.424   0.460 -0.8099 -1.1096 -0.2807
  403MOL0     C55482   1.461   3.408   0.573 -0.7926 -0.5480  0.4314
  403MOL0     C55483   1.526   3.331   0.679 -0.5571 -0.8608  0.1458
  403MOL0     O55484   1.455   3.324   0.797 -0.0853  0.0315  0.0155
  403MOL0     C55485   1.392   3.192   0.816 -0.5518  0.3082 -0.3016
  403MOL0     C55486   1.340   3.155   0.949  0.3683  0.8154  0.3026
  403MOL0     C55487   1.437   3.183   1.063  0.3372  0.9506 -0.1078
  403MOL0     C55488   1.357   3.125   1.196 -0.4859  0.5274  0.2592
  403MOL0     C55489   1.436   3.128   1.319  0.7935 -0.2511  0.0260
  403MOL0     C55490   1.365   3.054   1.448 -0.4807  0.1875  0.1761
  403MOL0     C55491   1.430   2.920   1.482 -0.5773 -0.1352  1.0979
  403MOL0     C55492   1.342   2.839   1.577  0.6127  0.0874  0.1573
  403MOL0     N55493   1.398   2.706   1.599 -0.2035  0.4673  0.8742
  403MOL0     C55494   1.504   2.660   1.671 -0.2913  0.1423  0.4524
  403MOL0     C55495   1.510   2.525   1.660  0.2449  0.6313 -0.2053
  403MOL0     C55496   1.612   2.432   1.726  0.3540 -0.3789  0.2747
  403MOL0     C55497   1.674   2.474   1.864  0.2520  0.8703 -0.0711
  403MOL0     C55498   1.578   2.537   1.974 -0.3680  0.2548 -0.3281
  403MOL0     C55499   1.620   2.527   2.124 -0.1581  0.1247  0.3554
  403MOL0     O55500   1.653   2.391   2.144 -0.3214 -0.9181 -0.2364
  403MOL0     C55501   1.786   2.362   2.159  0.5358  0.0207  0.0862
  403MOL0     C55502   1.796   2.237   2.215  1.2661 -0.7445 -0.6414
  403MOL0     C55503   1.927   2.196   2.254 -0.3694 -0.1871  1.1477
  403MOL0     C55504   1.929   2.059   2.322  0.3233 -0.0387 -0.5687
  403MOL0     C55505   2.038   2.280   2.233  0.4247 -0.8092 -0.1958
  403MOL0     C55506   2.180   2.231   2.252  0.5300 -0.1252 -0.6194
  403MOL0     O55507   2.265   2.318   2.299  0.0586  0.1867  0.5485
  403MOL0     C55508   2.394   2.303   2.300  0.4369 -0.4443 -0.1605
  403MOL0     C55509   2.466   2.214   2.218  0.9079 -0.5940  0.3176
  403MOL0     C55510   2.605   2.203   2.212  0.2145 -0.1380  0.5294
  403MOL0     C55511   2.676   2.293   2.295  0.1681 -0.3218  0.5872
  403MOL0     O55512   2.812   2.303   2.283 -0.1923 -1.1944  0.2764
  403MOL0     C55513   2.879   2.268   2.165  1.0193  0.5799 -0.2890
  403MOL0     C55514   3.014   2.346   2.153  0.2462  0.0291  0.1514
  403MOL0     C55515   3.146   2.303   2.233  0.4815  0.1542  0.0819
  403MOL0     C55516   3.193   2.166   2.174  1.3198 -0.4452 -0.4205
  403MOL0     C55517   3.337   2.146   2.208 -0.2567  0.4529 -0.2501
  403MOL0     C55518   3.430   2.223   2.113  0.8933  0.1910  0.5815
  403MOL0     C55519   3.451   2.151   1.976  0.0692  0.0553  0.1735
  403MOL0     C55520   3.575   2.184   1.902  1.0033  0.0754  0.3878
  403MOL0    Cl55521   3.569   2.367   1.880 -0.1466  0.6870 -0.1264
  403MOL0     C55522   2.607   2.398   2.360  0.4681 -0.1993  0.4963
  403MOL0     C55523   2.463   2.402   2.355 -0.3928  0.1194  0.5456
  403MOL0     O55524   2.203   2.116   2.223 -0.3144 -0.0065 -0.1891
  403MOL0     C55525   2.024   2.408   2.186 -0.0649  0.0817  0.2228
  403MOL0     C55526   1.904   2.443   2.129  0.8461  0.8398 -0.1052
  403MOL0     N55527   1.400   2.485   1.592  0.1902 -0.4888 -1.0410
  403MOL0     N55528   1.339   2.591   1.551 -0.2126  0.1160  0.6709
  403MOL0     C55529   1.650   3.280   0.661 -0.1100 -0.3751  0.3353
  403MOL0     C55530   1.726   3.308   0.542 -0.3260 -0.0518 -0.8820
  403MOL0     C55531   1.898   3.463   0.163  0.5290 -0.4942 -0.1960
  403MOL0     C55532   1.818   3.400   0.061 -0.1620  0.7544  0.8294
  403MOL0     C55533   1.869   3.403  -0.075  0.9675  1.0517 -0.0382
  403MOL0     C55534   2.000   3.451  -0.101  0.3563  0.2527  0.7114
  403MOL0     O55535   2.044   3.449  -0.233 -0.2985 -0.4824 -0.7567
  403MOL0     C55536   2.161   3.512  -0.283  0.3750 -0.3329  0.3353
  403MOL0     C55537   2.138   3.664  -0.324 -0.4464  0.2159 -0.0110
  403MOL0     C55538   2.269   3.742  -0.307  0.4080 -0.5393  0.5283
  403MOL0     C55539   2.335   3.761  -0.170  0.2017  0.4024 -0.6540
  403MOL0     C55540   2.241   3.837  -0.079  0.4725 -0.3802  0.6639
  403MOL0     C55541   2.168   3.900  -0.006 -0.1565  0.1983 -0.4569
  403MOL0     C55542   2.069   3.524  -0.001  0.0643  0.2545  0.2550
  403MOL0     C55543   2.023   3.529   0.129 -0.2334 -0.4662 -0.3562
  403MOL0     C55544   2.120   3.606   0.212 -0.6354 -0.1733  0.1158
  403MOL0     H55545   1.505   3.472   0.369  0.1227  1.3018  0.5559
  403MOL0     H55546   1.364   3.458   0.577 -0.7365 -0.0229 -2.5116
  403MOL0     H55547   1.464   3.112   0.796 -0.7407  0.1895 -0.5163
  403MOL0     H55548   1.306   3.175   0.750  0.0908 -2.6370 -0.4918
  403MOL0     H55549   1.242   3.200   0.971  0.6949  1.9989 -0.5651
  403MOL0     H55550   1.315   3.049   0.944  0.7487  0.7535 -0.4874
  403MOL0     H55551   1.530   3.127   1.047  0.3428  0.5558  1.1895
  403MOL0     H55552   1.444   3.291   1.073 -1.6736  1.0381  0.7078
  403MOL0     H55553   1.260   3.172   1.211 -2.5057 -2.3257 -2.4737
  403MOL0     H55554   1.333   3.019   1.182  0.7353  0.3619 -0.8470
  403MOL0     H55555   1.460   3.233   1.341 -0.1853  0.0400 -0.2708
  403MOL0     H55556   1.530   3.074   1.307  1.8928  1.5808 -0.0274
  403MOL0     H55557   1.368   3.122   1.533 -0.9931  0.5138 -0.0602
  403MOL0     H55558   1.261   3.043   1.416 -0.8313 -2.5405  1.9758
  403MOL0     H55559   1.525   2.932   1.535  0.6674  1.7805 -1.3698
  403MOL0     H55560   1.440   2.854   1.395  0.8636 -0.1275  1.2284
  403MOL0     H55561   1.331   2.897   1.669 -0.8782 -0.8598  0.6055
  403MOL0     H55562   1.241   2.829   1.538  0.5802  0.3179  0.1806
  403MOL0     H55563   1.576   2.725   1.720  2.1478 -1.5106 -0.7300
  403MOL0     H55564   1.687   2.402   1.652 -1.4685 -2.1471 -0.9728
  403MOL0     H55565   1.556   2.340   1.746 -3.9412  1.6029 -1.2408
  403MOL0     H55566   1.735   2.392   1.903  1.8166  1.1894 -1.6716
  403MOL0     H55567   1.750   2.553   1.858 -1.2154  2.2616 -1.4874
  403MOL0     H55568   1.565   2.645   1.961 -0.5341  0.4747  1.4732
  403MOL0     H55569   1.481   2.488   1.985  0.6786 -2.0043 -0.6696
  403MOL0     H55570   1.704   2.596   2.142 -0.5805  1.4098 -2.1161
  403MOL0     H55571   1.542   2.561   2.192  0.5419  3.7706 -0.4506
  403MOL0     H55572   1.710   2.172   2.230  0.4144  0.8749  2.5644
  403MOL0     H55573   1.831   2.043   2.367  0.8914 -1.4841  0.2152
  403MOL0     H55574   1.994   2.064   2.410  0.6136 -1.2010 -0.7011
  403MOL0     H55575   1.966   1.974   2.264  2.5292 -1.1089  2.1885
  403MOL0     H55576   2.421   2.139   2.154  0.7637 -0.8702  0.7423
  403MOL0     H55577   2.646   2.131   2.143 -1.8517 -0.3354 -0.5767
  403MOL0     H55578   2.895   2.159   2.169  1.0792  0.6123  0.6468
  403MOL0     H55579   2.811   2.305   2.088  0.8361  1.4708  0.2943
  403MOL0     H55580   3.034   2.335   2.046  2.4142 -0.3679  0.5555
  403MOL0     H55581   3.005   2.451   2.183 -0.3033 -0.1085  0.4783
  403MOL0     H55582   3.118   2.282   2.336 -0.9388 -3.6526 -0.9134
  403MOL0     H55583   3.224   2.379   2.223 -0.5616  1.6552  2.5244
  403MOL0     H55584   3.173   2.177   2.067 -2.3451 -1.9945 -0.0481
  403MOL0     H55585   3.123   2.094   2.217 -0.0363  1.4417  0.6837
  403MOL0     H55586   3.359   2.176   2.310 -0.3886  0.8370 -0.3320
  403MOL0     H55587   3.374   2.044   2.200  0.9553  0.5137  3.1537
  403MOL0     H55588   3.531   2.245   2.149  2.0693 -1.2598 -1.6184
  403MOL0     H55589   3.386   2.320   2.092 -0.3709 -0.7087 -1.1041
  403MOL0     H55590   3.365   2.171   1.912 -0.3206  1.5929  1.1469
  403MOL0     H55591   3.451   2.042   1.991  1.4221  0.2953  2.3963
  403MOL0     H55592   3.575   2.130   1.807  0.7256 -0.9138  0.9400
  403MOL0     H55593   3.673   2.157   1.943  1.6472  1.2392 -0.3309
  403MOL0     H55594   2.669   2.475   2.405  0.0072 -0.0021  0.7935
  403MOL0     H55595   2.401   2.482   2.394 -1.4702 -2.1035  3.8172
  403MOL0     H55596   2.107   2.477   2.172 -0.9262  0.6287 -2.7658
  403MOL0     H55597   1.891   2.538   2.077 -0.7433  0.9769  0.4580
  403MOL0     H55598   1.702   3.229   0.743  2.1943  1.4557  0.1113
  403MOL0     H55599   1.828   3.272   0.539 -0.1256  0.5451 -1.5474
  403MOL0     H55600   1.722   3.351   0.073  0.7905 -1.0402  1.5961
  403MOL0     H55601   1.826   3.358  -0.164  3.2298  1.1107 -1.2412
  403MOL0     H55602   2.246   3.502  -0.215  1.3580 -0.3869 -0.8708
  403MOL0     H55603   2.199   3.457  -0.369  0.5814 -1.1131  0.9205
  403MOL0     H55604   2.054   3.708  -0.269  0.3170  0.2255  1.1833
  403MOL0     H55605   2.101   3.663  -0.427 -1.1813 -1.6130  0.2412
  403MOL0     H55606   2.340   3.694  -0.376  1.9077  0.7896  1.0683
  403MOL0     H55607   2.275   3.846  -0.340  4.9133 -0.9082 -0.6188
  403MOL0     H55608   2.431   3.805  -0.198 -0.5793  2.3471 -0.4664
  403MOL0     H55609   2.349   3.665  -0.121 -2.9169 -1.2786 -2.7472
  403MOL0     H55610   2.116   3.954   0.071  1.7040  0.8129  0.4217
  403MOL0     H55611   2.158   3.578  -0.032  0.6084 -1.2170 -0.8423
  403MOL0     H55612   2.124   3.576   0.317 -0.5488 -1.6702 -0.2891
  403MOL0     H55613   2.220   3.594   0.170  0.1235  0.7424  1.6020
  403MOL0     H55614   2.092   3.712   0.210 -2.9653 -0.7456 -0.7248
  404MOL0     O55615   7.117   0.277   2.577 -0.9589 -0.3495  0.0154
  404MOL0     C55616   7.117   0.395   2.535 -0.6503  0.1190 -0.3872
  404MOL0     O55617   7.013   0.479   2.541  0.5409  0.3020  0.2352
  404MOL0     C55618   6.894   0.422   2.586  0.0434  1.2067 -0.6675
  404MOL0     C55619   6.813   0.357   2.496 -0.6326 -0.3281  0.2306
  404MOL0     C55620   6.693   0.301   2.535  1.0413  0.0748 -0.0002
  404MOL0     C55621   6.643   0.303   2.664  0.2321 -0.0874 -0.9292
  404MOL0     O55622   6.516   0.259   2.678  0.3477 -0.2872  0.2524
  404MOL0     C55623   6.436   0.306   2.790  0.1860  0.4543 -0.4435
  404MOL0     C55624   6.293   0.263   2.763  0.2472  0.5148  0.4553
  404MOL0     C55625   6.188   0.335   2.865 -0.1280  0.3135  0.4176
  404MOL0     C55626   6.054   0.370   2.798  0.6290 -0.5815 -0.2323
  404MOL0     C55627   5.983   0.246   2.755 -0.0219 -0.2941 -0.0780
  404MOL0     C55628   5.841   0.284   2.718  0.1090 -0.3621  0.8546
  404MOL0     C55629   5.752   0.157   2.677 -0.3685 -0.0452 -0.7669
  404MOL0     C55630   5.763   0.049   2.795 -0.2197  0.3414  0.2893
  404MOL0     N55631   5.839  -0.072   2.757 -0.5034 -0.1205  0.1135
  404MOL0     C55632   5.978  -0.091   2.773 -0.3343 -0.6903  0.4744
  404MOL0     C55633   5.999  -0.211   2.730  0.2770  0.3181  0.1322
  404MOL0     C55634   6.136  -0.275   2.729  0.0971  0.1354 -0.6506
  404MOL0     C55635   6.176  -0.329   2.866 -0.7601  0.7153  0.4101
  404MOL0     C55636   6.299  -0.415   2.845 -0.3390 -0.4526  0.8469
  404MOL0     C55637   6.331  -0.479   2.986 -0.0581  0.0642  0.0825
  404MOL0     O55638   6.397  -0.374   3.068  0.0604  0.6014  0.4139
  404MOL0     C55639   6.424  -0.396   3.201 -0.3657  0.8130  0.6810
  404MOL0     C55640   6.462  -0.285   3.269 -0.5326 -0.5052 -0.8711
  404MOL0     C55641   6.498  -0.295   3.403  0.1866 -0.5705  0.3271
  404MOL0     C55642   6.527  -0.162   3.472  0.4065 -0.4906 -0.4719
  404MOL0     C55643   6.502  -0.429   3.467  0.7015  0.1434  0.2431
  404MOL0     C55644   6.557  -0.450   3.605  0.0529  0.3920 -0.0048
  404MOL0     O55645   6.551  -0.579   3.645 -0.0093  1.1306  0.4346
  404MOL0     C55646   6.600  -0.607   3.770 -0.9247  0.0842  1.0042
  404MOL0     C55647   6.680  -0.723   3.791 -0.6964  0.3644  0.4496
  404MOL0     C55648   6.725  -0.761   3.922  0.5313 -1.1377  0.2153
  404MOL0     C55649   6.679  -0.697   4.031  0.2771 -0.0903 -0.3186
  404MOL0     O55650   6.711  -0.748   4.149 -0.5179 -0.5846  0.2836
  404MOL0     C55651   6.603  -0.741   4.242  0.5090 -0.4420 -0.4284
  404MOL0     C55652   6.652  -0.815   4.361  0.3849  0.0087  0.0248
  404MOL0     C55653   6.540  -0.840   4.460  1.6330  0.4450  0.0901
  404MOL0     C55654   6.452  -0.955   4.433 -0.1403  0.0041 -0.7029
  404MOL0     C55655   6.358  -0.991   4.547 -0.4903  0.4977  0.0546
  404MOL0     C55656   6.253  -0.886   4.579 -0.9376 -0.6448 -0.1737
  404MOL0     C55657   6.164  -0.848   4.459 -0.7878  0.1792 -0.9462
  404MOL0     C55658   6.053  -0.741   4.489  0.1471 -0.2432 -0.1754
  404MOL0    Cl55659   5.985  -0.719   4.318  0.2258  0.5255  0.3862
  404MOL0     C55660   6.608  -0.582   4.007  0.4248 -0.1777 -0.3541
  404MOL0     C55661   6.563  -0.535   3.883 -0.7664  0.2808  0.0540
  404MOL0     O55662   6.614  -0.363   3.672  0.2359 -0.2462  0.1066
  404MOL0     C55663   6.464  -0.537   3.383 -0.7686 -0.7132  0.5835
  404MOL0     C55664   6.424  -0.526   3.255 -0.8140 -0.6875  0.1235
  404MOL0     N55665   5.883  -0.275   2.691 -1.4649 -0.8027  0.3183
  404MOL0     N55666   5.788  -0.189   2.714 -0.1170 -0.0430 -0.1435
  404MOL0     C55667   6.717   0.373   2.761 -0.3430 -0.5061  0.3650
  404MOL0     C55668   6.841   0.433   2.721  0.7084 -0.0923  0.2407
  404MOL0     C55669   7.255   0.451   2.505  0.0218 -0.3480  0.7422
  404MOL0     C55670   7.274   0.580   2.542  0.5553 -0.4169 -0.0445
  404MOL0     C55671   7.391   0.650   2.529  0.0081  0.1815 -0.3880
  404MOL0     C55672   7.504   0.581   2.481  0.5410 -0.4625  0.0419
  404MOL0     O55673   7.627   0.646   2.452  0.4532  0.3516 -0.7219
  404MOL0     C55674   7.630   0.784   2.434  0.4232 -0.5995  0.5767
  404MOL0     C55675   7.543   0.821   2.307 -0.1253 -0.1484 -0.5493
  404MOL0     C55676   7.519   0.972   2.291 -0.7101 -0.0720 -0.2003
  404MOL0     C55677   7.429   1.005   2.172  0.4206 -0.4841  0.7126
  404MOL0     C55678   7.291   0.969   2.186  0.0340  0.4214  0.0251
  404MOL0     C55679   7.177   0.939   2.209  1.0867  0.0931 -0.2724
  404MOL0     C55680   7.487   0.441   2.445 -0.1273 -0.0644 -0.0713
  404MOL0     C55681   7.360   0.382   2.463 -0.0819  1.1977  0.8088
  404MOL0     C55682   7.346   0.233   2.419 -0.1132 -0.1824  0.0504
  404MOL0     H55683   6.854   0.331   2.399 -1.7517 -1.0258 -0.0795
  404MOL0     H55684   6.631   0.249   2.462 -1.5345 -0.0976  2.1486
  404MOL0     H55685   6.431   0.414   2.803 -2.4441  0.5623 -1.7067
  404MOL0     H55686   6.465   0.267   2.889  1.0096  0.5264 -0.6488
  404MOL0     H55687   6.270   0.291   2.659 -0.2201 -0.0916  0.3941
  404MOL0     H55688   6.276   0.156   2.774 -1.4400  0.5162 -1.5149
  404MOL0     H55689   6.186   0.271   2.954  2.3033 -0.9186 -0.3363
  404MOL0     H55690   6.225   0.435   2.890 -1.8149  1.8093 -2.5331
  404MOL0     H55691   5.996   0.428   2.870  0.4450  1.7699 -2.1339
  404MOL0     H55692   6.069   0.429   2.707 -0.9903 -1.0455 -0.8338
  404MOL0     H55693   5.985   0.171   2.834 -0.1086 -0.8466 -0.5903
  404MOL0     H55694   6.032   0.198   2.670  2.0715 -2.8379  2.3751
  404MOL0     H55695   5.794   0.330   2.805 -0.3858 -1.8249  1.3913
  404MOL0     H55696   5.849   0.356   2.636 -1.9118 -0.7435  0.2491
  404MOL0     H55697   5.762   0.117   2.576 -0.1424  0.8647 -1.1157
  404MOL0     H55698   5.649   0.192   2.677 -0.4833 -0.2818  0.7578
  404MOL0     H55699   5.804   0.096   2.885  1.2654 -1.0482  0.3832
  404MOL0     H55700   5.658   0.028   2.816 -0.8633  2.6361 -0.3343
  404MOL0     H55701   6.052  -0.021   2.810  2.8891 -2.3540 -2.2685
  404MOL0     H55702   6.210  -0.204   2.691  2.1192 -0.9459  1.0844
  404MOL0     H55703   6.147  -0.361   2.661 -0.1566  2.7146 -4.2662
  404MOL0     H55704   6.202  -0.246   2.932  0.0231  1.9431 -1.3631
  404MOL0     H55705   6.093  -0.389   2.906  0.2979 -0.0894  1.4804
  404MOL0     H55706   6.260  -0.493   2.780 -2.3743  0.0050  1.4539
  404MOL0     H55707   6.385  -0.357   2.811  0.3587 -2.0130 -0.1346
  404MOL0     H55708   6.236  -0.515   3.024 -0.1480  0.3792  0.1528
  404MOL0     H55709   6.409  -0.556   2.979  1.1944  0.8836  3.3265
  404MOL0     H55710   6.455  -0.193   3.212  1.9712 -0.6465 -1.5587
  404MOL0     H55711   6.528  -0.084   3.395 -3.7136 -0.9972 -1.2928
  404MOL0     H55712   6.626  -0.164   3.519  0.5366 -4.5263 -0.5296
  404MOL0     H55713   6.452  -0.141   3.549 -0.5335 -0.3302 -1.4213
  404MOL0     H55714   6.717  -0.782   3.707  2.3627  2.3049  0.2846
  404MOL0     H55715   6.783  -0.850   3.945  0.8521 -1.1439 -0.5831
  404MOL0     H55716   6.555  -0.645   4.265 -2.1758 -2.2962  2.5388
  404MOL0     H55717   6.518  -0.797   4.203 -0.4133  1.2223 -0.9178
  404MOL0     H55718   6.696  -0.910   4.331 -1.6968 -1.1248  0.3942
  404MOL0     H55719   6.730  -0.750   4.404  2.0888 -0.2775 -2.4457
  404MOL0     H55720   6.474  -0.753   4.450  0.2499 -0.7210 -1.8355
  404MOL0     H55721   6.577  -0.847   4.562  2.3062  1.1485 -0.0985
  404MOL0     H55722   6.518  -1.042   4.434 -0.4509 -0.2361  1.0937
  404MOL0     H55723   6.399  -0.933   4.340  1.3583  1.0764 -1.3563
  404MOL0     H55724   6.305  -1.081   4.512 -0.3010  0.5831 -0.4578
  404MOL0     H55725   6.418  -1.012   4.636  0.7015 -0.8985 -1.0161
  404MOL0     H55726   6.296  -0.802   4.635 -1.9563  0.1786 -0.6033
  404MOL0     H55727   6.183  -0.924   4.654 -1.4054  1.1956  0.3585
  404MOL0     H55728   6.128  -0.940   4.412  0.6096 -0.2386 -1.2356
  404MOL0     H55729   6.222  -0.804   4.378  1.3045 -0.6138  0.0495
  404MOL0     H55730   6.097  -0.646   4.522 -1.1696  0.0200  0.9187
  404MOL0     H55731   5.968  -0.767   4.553 -1.8042  0.7683 -2.2121
  404MOL0     H55732   6.570  -0.519   4.087 -1.7254 -0.0345 -1.4070
  404MOL0     H55733   6.491  -0.454   3.877 -1.3076  0.0365  2.2151
  404MOL0     H55734   6.458  -0.640   3.417  1.0962 -0.2664  2.4443
  404MOL0     H55735   6.415  -0.613   3.191 -0.4180 -0.1042 -0.7406
  404MOL0     H55736   6.673   0.385   2.860  0.1891 -1.1872  0.6962
  404MOL0     H55737   6.900   0.489   2.793  2.2940  0.7907 -1.6502
  404MOL0     H55738   7.197   0.629   2.601  1.7516 -1.4024  2.4382
  404MOL0     H55739   7.384   0.756   2.552 -2.0141  0.0282 -0.1705
  404MOL0     H55740   7.592   0.833   2.524  0.8885  1.7300 -0.4177
  404MOL0     H55741   7.735   0.811   2.417  0.5810 -1.5008  0.0317
  404MOL0     H55742   7.443   0.777   2.312  0.4813 -1.4602  0.5378
  404MOL0     H55743   7.597   0.773   2.225  1.1346 -1.2002  0.8455
  404MOL0     H55744   7.469   1.007   2.382  0.9474 -1.5585  1.3725
  404MOL0     H55745   7.613   1.027   2.275 -0.6759 -0.9697 -4.1394
  404MOL0     H55746   7.473   0.943   2.093 -0.9724 -2.1437  1.1813
  404MOL0     H55747   7.426   1.114   2.163  1.6115 -0.5732 -1.3497
  404MOL0     H55748   7.076   0.929   2.243  0.5763 -1.0177 -2.0336
  404MOL0     H55749   7.569   0.397   2.390 -0.0973  3.5576 -3.3701
  404MOL0     H55750   7.345   0.162   2.502  2.2456 -1.5474 -0.9826
  404MOL0     H55751   7.254   0.233   2.360 -0.2279  0.4920  0.2252
  404MOL0     H55752   7.420   0.196   2.348 -2.8604 -3.7621 -1.2455
  405MOL0     O55753   5.645   9.123  10.998  0.6043 -0.1709 -0.3865
  405MOL0     C55754   5.702   9.078  11.095  0.2554 -0.2543  0.0385
  405MOL0     O55755   5.836   9.042  11.100  0.6214 -0.6533 -0.0227
  405MOL0     C55756   5.913   9.114  11.001  0.5267  0.0589 -0.7434
  405MOL0     C55757   5.991   9.043  10.906  0.4290  0.7069  0.0881
  405MOL0     C55758   6.063   9.111  10.809 -0.6579 -0.9481  1.3740
  405MOL0     C55759   6.062   9.251  10.801  1.3201 -0.1939 -0.0214
  405MOL0     O55760   6.136   9.315  10.707  0.3461  0.4149 -0.3726
  405MOL0     C55761   6.085   9.428  10.633  0.7693  0.2100 -0.3134
  405MOL0     C55762   6.141   9.430  10.489  0.0985  0.3048 -0.3618
  405MOL0     C55763   6.294   9.420  10.480  0.0044  0.4646  0.3521
  405MOL0     C55764   6.336   9.443  10.337  0.3656  0.1831 -0.5715
  405MOL0     C55765   6.486   9.424  10.323 -0.1133 -1.0749  0.7651
  405MOL0     C55766   6.533   9.468  10.185 -0.4137 -0.6426 -0.1316
  405MOL0     C55767   6.481   9.610  10.166  0.0890 -0.3711  0.6561
  405MOL0     C55768   6.515   9.707  10.276 -0.8262  0.2559  0.5226
  405MOL0     N55769   6.501   9.848  10.230 -0.5407 -0.6489  0.0500
  405MOL0     C55770   6.602   9.937  10.247 -0.7673  0.2710 -0.0755
  405MOL0     C55771   6.558  10.049  10.186 -0.0774 -0.8274 -0.3080
  405MOL0     C55772   6.635  10.171  10.175  0.3471  0.3949 -0.3109
  405MOL0     C55773   6.667  10.244  10.309  0.0763 -0.8328 -0.2213
  405MOL0     C55774   6.590  10.371  10.328 -0.0388 -0.4688  0.1568
  405MOL0     C55775   6.439  10.355  10.356  0.2317  0.2430 -0.6615
  405MOL0     O55776   6.414  10.336  10.496  0.4910  0.6444  0.5326
  405MOL0     C55777   6.287  10.314  10.547  0.5490 -0.6484  1.0833
  405MOL0     C55778   6.270  10.335  10.684  0.3221  0.1831 -1.0143
  405MOL0     C55779   6.149  10.311  10.756 -0.7535 -0.3958  0.1347
  405MOL0     C55780   6.134  10.361  10.897  0.6757 -0.1405  0.3118
  405MOL0     C55781   6.046  10.256  10.681  0.0119  0.1457  0.5255
  405MOL0     C55782   5.912  10.202  10.747 -0.0472 -0.1900  1.2028
  405MOL0     O55783   5.931  10.129  10.863  0.0652  0.1512  0.9837
  405MOL0     C55784   5.823  10.072  10.933 -0.1816  0.1489  0.4456
  405MOL0     C55785   5.849  10.027  11.066  0.1150  0.3127  0.0689
  405MOL0     C55786   5.752   9.966  11.137 -0.5950 -0.4699  0.2289
  405MOL0     C55787   5.627   9.947  11.085  0.7277  0.5252 -0.4179
  405MOL0     O55788   5.530   9.902  11.169  0.5240  0.1148  0.0363
  405MOL0     C55789   5.436   9.802  11.135  0.9786 -0.2534  0.6536
  405MOL0     C55790   5.370   9.739  11.249 -0.4819 -0.1450 -0.0323
  405MOL0     C55791   5.228   9.685  11.217  0.2983  0.2039 -0.0214
  405MOL0     C55792   5.128   9.799  11.169 -0.1211  0.2733 -0.2433
  405MOL0     C55793   4.986   9.753  11.139 -0.4400  0.7226 -0.1459
  405MOL0     C55794   4.898   9.698  11.260 -0.1173 -0.2349  0.3444
  405MOL0     C55795   4.790   9.601  11.207  0.8989  0.7920 -0.2655
  405MOL0     C55796   4.687   9.681  11.130  0.2468  0.6495 -0.4394
  405MOL0    Cl55797   4.565   9.720  11.254  0.3279 -0.1974  0.0087
  405MOL0     C55798   5.596   9.998  10.963  0.2282  0.2501  0.7338
  405MOL0     C55799   5.696  10.049  10.883 -0.2824 -0.2573  0.2504
  405MOL0     O55800   5.810  10.244  10.700  0.6773  0.0692 -0.1148
  405MOL0     C55801   6.067  10.238  10.543  0.0890  0.5154  0.1159
  405MOL0     C55802   6.185  10.267  10.478 -0.0122 -0.1238  0.0704
  405MOL0     N55803   6.443  10.023  10.119 -0.1207 -0.1445  0.5302
  405MOL0     N55804   6.407   9.904  10.148 -0.4028  0.8685 -0.0506
  405MOL0     C55805   5.975   9.324  10.898 -0.0645 -0.4592  0.3977
  405MOL0     C55806   5.909   9.255  11.001 -0.1284  0.1417  0.5761
  405MOL0     C55807   5.613   9.053  11.212 -0.7761 -0.7392  0.3306
  405MOL0     C55808   5.669   8.973  11.310  0.0675 -0.8025 -0.0484
  405MOL0     C55809   5.593   8.936  11.420 -1.2419 -0.0600 -0.7555
  405MOL0     C55810   5.462   8.982  11.431 -0.0466  0.3771  0.6029
  405MOL0     O55811   5.389   8.949  11.541  0.7170  0.0246  0.1655
  405MOL0     C55812   5.373   8.819  11.593  0.1520  0.1406  0.2077
  405MOL0     C55813   5.268   8.822  11.714 -0.6162 -1.2186 -0.1641
  405MOL0     C55814   5.322   8.890  11.840 -0.4692 -0.7648 -0.6408
  405MOL0     C55815   5.279   8.828  11.966 -0.2465 -0.5712 -0.7036
  405MOL0     C55816   5.375   8.724  12.013  0.4846  0.3630 -0.4004
  405MOL0     C55817   5.446   8.632  12.040  0.5474 -0.4415 -0.4532
  405MOL0     C55818   5.410   9.056  11.329 -0.1401  0.0104 -0.0764
  405MOL0     C55819   5.480   9.101  11.222  0.2696 -0.1879 -0.6702
  405MOL0     C55820   5.405   9.186  11.120 -0.2127 -0.0462  0.3150
  405MOL0     H55821   5.998   8.935  10.907  1.8465  0.6059 -3.7411
  405MOL0     H55822   6.125   9.058  10.738  1.2420  2.0354  0.6489
  405MOL0     H55823   6.106   9.518  10.691  0.4344  0.2407 -0.2380
  405MOL0     H55824   5.978   9.423  10.613  1.2335 -3.8339 -3.0427
  405MOL0     H55825   6.087   9.358  10.427  0.3809  0.2385 -0.5328
  405MOL0     H55826   6.117   9.530  10.452 -0.8247 -0.3099 -1.4748
  405MOL0     H55827   6.344   9.494  10.543 -2.6664  0.6744  2.3986
  405MOL0     H55828   6.329   9.325  10.520  1.8152  0.7344 -0.4821
  405MOL0     H55829   6.283   9.374  10.271 -1.5224  0.3884  0.6589
  405MOL0     H55830   6.298   9.545  10.328  1.3196  0.4288 -2.2989
  405MOL0     H55831   6.516   9.319  10.335  2.7099 -0.4483 -0.0073
  405MOL0     H55832   6.537   9.483  10.400  0.3022  0.9031 -0.9456
  405MOL0     H55833   6.641   9.464  10.196  0.3179  2.1649 -4.1884
  405MOL0     H55834   6.503   9.390  10.114 -2.1044 -0.0605 -0.1184
  405MOL0     H55835   6.376   9.625  10.139  0.7478  3.9289 -0.2608
  405MOL0     H55836   6.540   9.637  10.078  1.8862 -1.3408  1.5076
  405MOL0     H55837   6.447   9.695  10.360  2.3809 -1.6617  3.1041
  405MOL0     H55838   6.609   9.669  10.316 -1.1996 -0.1905  0.9790
  405MOL0     H55839   6.691   9.912  10.303 -1.0766 -1.7238 -0.3742
  405MOL0     H55840   6.572  10.236  10.113 -0.1665  0.3704  0.1814
  405MOL0     H55841   6.732  10.164  10.126  1.5388  2.2937  1.5840
  405MOL0     H55842   6.650  10.180  10.397 -0.0834 -1.1105 -0.4547
  405MOL0     H55843   6.775  10.260  10.311 -0.1002  0.4450  0.6415
  405MOL0     H55844   6.640  10.422  10.412  1.8903 -0.2797 -1.0345
  405MOL0     H55845   6.611  10.443  10.248  3.1276  0.0087  1.2712
  405MOL0     H55846   6.388  10.444  10.317  1.8848 -0.4161 -4.9213
  405MOL0     H55847   6.423  10.260  10.305  0.9702 -0.0318 -0.3953
  405MOL0     H55848   6.346  10.388  10.742  0.3110  1.1308 -1.8422
  405MOL0     H55849   6.206  10.438  10.926 -0.0440  0.1732  1.2907
  405MOL0     H55850   6.140  10.274  10.964 -4.4263 -0.2395  1.0296
  405MOL0     H55851   6.030  10.390  10.911  1.0919  2.1942 -0.9566
  405MOL0     H55852   5.943  10.052  11.115  0.2132  0.5965 -0.2644
  405MOL0     H55853   5.769   9.933  11.239  1.0122 -2.8312 -0.7248
  405MOL0     H55854   5.369   9.859  11.070  1.0927 -1.4675 -0.5793
  405MOL0     H55855   5.476   9.721  11.073  3.7327  2.6414 -1.6879
  405MOL0     H55856   5.435   9.663  11.293  0.9913  0.2746 -1.3853
  405MOL0     H55857   5.367   9.822  11.321  5.1329 -1.4363  2.2407
  405MOL0     H55858   5.179   9.645  11.306  2.7964 -1.1597  0.8349
  405MOL0     H55859   5.244   9.608  11.141 -2.9366  0.6934 -1.3904
  405MOL0     H55860   5.147   9.862  11.081 -3.9117  0.0337 -1.4053
  405MOL0     H55861   5.104   9.867  11.251  0.1063 -2.0604  1.8678
  405MOL0     H55862   4.936   9.838  11.091  3.6423  2.1540 -2.3072
  405MOL0     H55863   4.988   9.671  11.067  0.2705 -0.8844  1.6242
  405MOL0     H55864   4.848   9.782  11.310  1.1293  0.3092  0.7047
  405MOL0     H55865   4.957   9.636  11.328  1.7107 -0.5398 -1.4030
  405MOL0     H55866   4.733   9.558  11.291  0.3601 -0.2781 -1.1589
  405MOL0     H55867   4.830   9.521  11.145  4.3040  0.6629  1.8612
  405MOL0     H55868   4.645   9.608  11.060  0.7122 -0.4964  0.4476
  405MOL0     H55869   4.723   9.771  11.079  0.9505 -0.1038 -1.3197
  405MOL0     H55870   5.498  10.001  10.915  1.3927  2.1093 -1.7385
  405MOL0     H55871   5.674  10.062  10.777  3.4016 -0.9351 -0.7368
  405MOL0     H55872   6.000  10.181  10.480  1.1960  1.1974 -1.7728
  405MOL0     H55873   6.184  10.234  10.375  0.5073  0.9227 -0.2887
  405MOL0     H55874   5.977   9.432  10.895  2.2982 -0.4444 -1.8799
  405MOL0     H55875   5.851   9.311  11.075 -1.2225 -1.0409  0.6545
  405MOL0     H55876   5.776   8.952  11.310  0.7119  2.0250 -0.1118
  405MOL0     H55877   5.632   8.880  11.504 -1.6510  0.8407  0.0525
  405MOL0     H55878   5.327   8.745  11.528 -1.8706  1.3388  0.1755
  405MOL0     H55879   5.470   8.793  11.636 -0.4289 -0.9268  0.8871
  405MOL0     H55880   5.244   8.717  11.730  0.1768 -0.9622  3.7134
  405MOL0     H55881   5.181   8.875  11.673 -0.6915 -0.9461  0.3363
  405MOL0     H55882   5.431   8.901  11.837 -0.6061  0.5871 -1.1217
  405MOL0     H55883   5.278   8.989  11.832  1.0329  0.0240  0.3352
  405MOL0     H55884   5.178   8.787  11.969  0.3390 -2.0186  1.7611
  405MOL0     H55885   5.273   8.905  12.044 -1.4794  1.5662 -2.7888
  405MOL0     H55886   5.512   8.552  12.067  0.7846 -0.3534 -0.7715
  405MOL0     H55887   5.312   9.101  11.342  1.0049  2.6140  0.0536
  405MOL0     H55888   5.465   9.274  11.097  2.0123 -1.1310  1.5702
  405MOL0     H55889   5.389   9.137  11.024 -0.4326  1.6432 -0.5340
  405MOL0     H55890   5.311   9.227  11.160  1.6965  2.9570  2.1623
  406MOL0     O55891  10.783   8.927  10.642 -0.7683 -0.0686  0.9612
  406MOL0     C55892  10.861   8.833  10.659  0.6677  0.2582  0.1632
  406MOL0     O55893  10.902   8.804  10.789 -0.0486 -0.2110  0.4159
  406MOL0     C55894  10.932   8.903  10.877  0.3936  0.3444 -0.1468
  406MOL0     C55895  10.983   9.030  10.847 -0.2781 -0.1763 -0.3056
  406MOL0     C55896  11.038   9.111  10.948  0.0485  0.1140  0.9927
  406MOL0     C55897  11.037   9.079  11.087 -1.0167  0.5374 -0.4677
  406MOL0     O55898  11.073   9.164  11.190 -0.2581 -0.3729  0.5991
  406MOL0     C55899  11.143   9.281  11.153 -0.5817 -0.7780 -0.6670
  406MOL0     C55900  11.170   9.362  11.277 -1.1193  0.4672  0.3163
  406MOL0     C55901  11.307   9.422  11.249 -0.3391 -0.4328 -0.2669
  406MOL0     C55902  11.340   9.550  11.330  0.2990  0.5949  0.1117
  406MOL0     C55903  11.371   9.520  11.484  0.3618 -0.7456  0.2574
  406MOL0     C55904  11.470   9.625  11.541  1.0193 -0.3689  0.1122
  406MOL0     C55905  11.472   9.607  11.695 -0.0998  0.1677 -0.6836
  406MOL0     C55906  11.569   9.489  11.733  0.4680  0.0907 -1.1197
  406MOL0     N55907  11.596   9.481  11.882  0.4268 -0.2658  0.1750
  406MOL0     C55908  11.504   9.444  11.985 -0.1244 -0.1643  0.5285
  406MOL0     C55909  11.572   9.440  12.103  0.2282 -0.9434  0.9091
  406MOL0     C55910  11.509   9.409  12.236  0.2548  0.2993  0.2408
  406MOL0     C55911  11.598   9.423  12.353 -0.3341 -0.3926  0.7125
  406MOL0     C55912  11.559   9.336  12.473 -0.1031  0.2447 -0.4028
  406MOL0     C55913  11.685   9.337  12.567  0.1966  0.8776 -0.3907
  406MOL0     O55914  11.695   9.469  12.616 -0.5936 -0.0013  0.7156
  406MOL0     C55915  11.822   9.503  12.669  0.2174 -0.2353 -0.0046
  406MOL0     C55916  11.887   9.414  12.756 -0.4281 -0.9839 -0.0851
  406MOL0     C55917  12.008   9.435  12.806  0.6683  0.1578 -0.6470
  406MOL0     C55918  12.051   9.322  12.895 -0.4405  0.5306 -0.6373
  406MOL0     C55919  12.074   9.557  12.795 -0.3192 -0.3384 -0.5337
  406MOL0     C55920  12.191   9.597  12.863 -1.0013  0.6684 -0.2288
  406MOL0     O55921  12.227   9.734  12.865 -0.5384 -0.2218  0.4071
  406MOL0     C55922  12.316   9.766  12.962  1.2835  0.1623 -0.0088
  406MOL0     C55923  12.319   9.717  13.089 -0.3318 -0.4714 -0.2191
  406MOL0     C55924  12.400   9.771  13.184  0.5578 -0.4635  0.5166
  406MOL0     C55925  12.484   9.881  13.155 -0.2533 -0.1340 -0.7643
  406MOL0     O55926  12.572   9.918  13.252  0.3293  0.3094  0.5910
  406MOL0     C55927  12.586  10.058  13.273  0.0045 -0.1691 -0.3096
  406MOL0     C55928  12.660  10.071  13.402  0.2272 -1.2300  0.4775
  406MOL0     C55929  12.701  10.220  13.423  0.4701 -0.1123  0.4061
  406MOL0     C55930  12.722  10.254  13.573  0.3934 -1.2235  0.7040
  406MOL0     C55931  12.736  10.400  13.618 -0.2061 -0.2675 -0.2076
  406MOL0     C55932  12.598  10.475  13.616 -0.6666 -0.8046  0.2909
  406MOL0     C55933  12.615  10.622  13.675  0.3381  0.0638 -0.6715
  406MOL0     C55934  12.478  10.681  13.692  0.6905  0.0964 -0.3910
  406MOL0    Cl55935  12.400  10.595  13.825  0.6247 -0.2812 -0.3407
  406MOL0     C55936  12.479   9.938  13.029  0.2020  0.1661 -0.9078
  406MOL0     C55937  12.393   9.881  12.932  0.7445 -0.7510  0.5131
  406MOL0     O55938  12.269   9.504  12.905  0.0580 -0.4355  0.2451
  406MOL0     C55939  12.009   9.647  12.709  0.3118 -0.0417  0.4336
  406MOL0     C55940  11.889   9.622  12.635 -0.0063  0.1962 -0.1184
  406MOL0     N55941  11.696   9.490  12.072 -0.3394 -0.3953 -0.6435
  406MOL0     N55942  11.712   9.511  11.947  1.2378  0.5847  0.2442
  406MOL0     C55943  10.980   8.956  11.122 -0.6378  0.4753  0.0287
  406MOL0     C55944  10.937   8.869  11.017 -0.1252  0.1445  0.5854
  406MOL0     C55945  10.906   8.741  10.552  0.2125 -0.4261  0.1834
  406MOL0     C55946  10.994   8.641  10.590 -0.2118  1.0547  0.5153
  406MOL0     C55947  11.057   8.560  10.489  0.3043 -0.0728 -0.1272
  406MOL0     C55948  11.027   8.577  10.357 -0.5862 -0.1080  0.1265
  406MOL0     O55949  11.070   8.495  10.262  0.1103 -0.1468  0.4967
  406MOL0     C55950  11.196   8.505  10.219 -0.7629 -0.9291 -0.2241
  406MOL0     C55951  11.217   8.618  10.120  0.1422 -0.5199  0.7959
  406MOL0     C55952  11.353   8.645  10.046  1.3424  0.2298  0.3778
  406MOL0     C55953  11.350   8.760   9.946 -0.2824 -0.0499  0.3863
  406MOL0     C55954  11.390   8.885  10.013  0.0095 -0.2786  0.7028
  406MOL0     C55955  11.416   8.986  10.063  0.8348 -0.9299 -0.6585
  406MOL0     C55956  10.941   8.676  10.317  0.1094  0.6177  0.0128
  406MOL0     C55957  10.876   8.753  10.414 -0.2337 -0.1436  0.5680
  406MOL0     C55958  10.756   8.831  10.368  0.4175  0.6410  0.0331
  406MOL0     H55959  10.999   9.070  10.747  3.9516  0.2841  0.3907
  406MOL0     H55960  11.065   9.208  10.909 -0.1998 -0.7556 -1.5099
  406MOL0     H55961  11.081   9.341  11.086 -1.4801  0.9668  1.6313
  406MOL0     H55962  11.231   9.251  11.094 -1.1849  1.0970 -2.6348
  406MOL0     H55963  11.098   9.445  11.282 -4.1555 -1.9206 -0.4884
  406MOL0     H55964  11.164   9.288  11.357 -2.8244  0.0270 -0.1676
  406MOL0     H55965  11.386   9.354  11.284 -1.4348 -0.3155  2.7082
  406MOL0     H55966  11.334   9.441  11.144 -0.8016  0.5750 -0.2126
  406MOL0     H55967  11.427   9.600  11.285  0.8509  0.6956  1.2411
  406MOL0     H55968  11.259   9.622  11.317  0.8057  0.7950 -2.3277
  406MOL0     H55969  11.414   9.419  11.490 -1.7989 -2.0881 -3.4261
  406MOL0     H55970  11.276   9.527  11.537 -0.7761  1.0453 -1.8827
  406MOL0     H55971  11.567   9.618  11.490  0.3640  1.8378 -1.5932
  406MOL0     H55972  11.429   9.724  11.520  0.6408 -0.3761  0.7974
  406MOL0     H55973  11.372   9.600  11.740 -0.0509 -1.4337 -0.7848
  406MOL0     H55974  11.526   9.695  11.733  3.1462 -1.9701 -0.0117
  406MOL0     H55975  11.527   9.394  11.699  1.5607 -0.7908 -0.0854
  406MOL0     H55976  11.663   9.488  11.678  0.7298  2.6293 -0.8282
  406MOL0     H55977  11.397   9.426  11.977 -0.6064  2.6219 -0.0741
  406MOL0     H55978  11.477   9.305  12.232  2.3531 -0.4601  1.4510
  406MOL0     H55979  11.424   9.477  12.245  1.5950  1.8676  1.9018
  406MOL0     H55980  11.698   9.400  12.317 -1.5879 -3.9012 -0.9838
  406MOL0     H55981  11.607   9.529  12.379  1.3175  0.1999 -1.9129
  406MOL0     H55982  11.469   9.384  12.511 -0.1465  0.4754 -0.7917
  406MOL0     H55983  11.526   9.240  12.433 -1.5656  0.5642 -0.0080
  406MOL0     H55984  11.659   9.265  12.646 -1.5170  0.4714 -1.2714
  406MOL0     H55985  11.770   9.305  12.507 -2.7524 -2.1197 -3.4649
  406MOL0     H55986  11.848   9.316  12.781  0.1996 -1.3433 -0.4980
  406MOL0     H55987  12.115   9.352  12.978 -1.2655  2.6559 -0.7067
  406MOL0     H55988  12.093   9.251  12.823 -0.0484  1.5935 -1.4744
  406MOL0     H55989  11.960   9.279  12.939 -1.8283 -0.7586 -4.3563
  406MOL0     H55990  12.255   9.637  13.126 -0.5162 -0.1725  0.1169
  406MOL0     H55991  12.438   9.727  13.276  1.8666  0.5117  0.4792
  406MOL0     H55992  12.633  10.116  13.193  2.6397  0.9925  1.9417
  406MOL0     H55993  12.483  10.093  13.278  0.1773  0.1642  1.3342
  406MOL0     H55994  12.615  10.028  13.492  1.5021  0.2001  1.8633
  406MOL0     H55995  12.750  10.010  13.388  0.9176 -0.3959  1.1389
  406MOL0     H55996  12.616  10.278  13.384 -0.1336  1.3210  3.5242
  406MOL0     H55997  12.790  10.242  13.363 -0.5559 -0.4053 -1.2753
  406MOL0     H55998  12.806  10.189  13.596 -0.8327 -3.8614 -1.6219
  406MOL0     H55999  12.637  10.204  13.620  0.4645 -1.5090  0.5322
  406MOL0     H56000  12.770  10.386  13.721  0.5256 -1.3514 -0.5852
  406MOL0     H56001  12.821  10.453  13.573 -1.6479  0.8691 -1.7323
  406MOL0     H56002  12.523  10.414  13.667 -0.1935  0.9432  3.3535
  406MOL0     H56003  12.551  10.490  13.519 -1.6358  2.8763  1.1749
  406MOL0     H56004  12.671  10.682  13.603 -1.9898  0.3836 -2.3471
  406MOL0     H56005  12.663  10.612  13.772  1.3404  1.7795 -0.9461
  406MOL0     H56006  12.417  10.684  13.601 -2.4033  2.1824  1.5821
  406MOL0     H56007  12.485  10.784  13.729 -3.0537  0.8060 -1.3021
  406MOL0     H56008  12.555  10.015  13.017  1.3175 -0.8682 -0.7488
  406MOL0     H56009  12.392   9.923  12.831  1.8547  1.8560  1.4720
  406MOL0     H56010  12.064   9.741  12.707 -1.3252  0.9382 -0.7944
  406MOL0     H56011  11.864   9.692  12.556  1.1769 -1.1640 -1.7731
  406MOL0     H56012  10.963   8.923  11.224 -1.1078  0.0328 -0.1882
  406MOL0     H56013  10.915   8.769  11.055 -0.8510 -1.2627 -3.1332
  406MOL0     H56014  11.026   8.623  10.692 -0.1733 -0.9684  0.1990
  406MOL0     H56015  11.130   8.486  10.523 -0.2223  0.2092  1.7151
  406MOL0     H56016  11.270   8.517  10.299 -0.9402  0.8414 -0.2778
  406MOL0     H56017  11.223   8.409  10.177 -3.7809 -2.4105  0.9285
  406MOL0     H56018  11.170   8.702  10.172  0.7615  0.1607  0.2686
  406MOL0     H56019  11.151   8.588  10.038 -0.1872 -2.0905  1.5904
  406MOL0     H56020  11.433   8.673  10.116  2.7550  4.7347 -2.5810
  406MOL0     H56021  11.383   8.554   9.995 -1.2288 -0.2909 -0.3454
  406MOL0     H56022  11.251   8.761   9.900 -0.4415 -2.1218  0.6057
  406MOL0     H56023  11.432   8.738   9.877  1.0194 -3.3706  2.7693
  406MOL0     H56024  11.444   9.074  10.116  0.4704  0.2675 -2.3658
  406MOL0     H56025  10.913   8.690  10.213 -1.0261 -0.4171  0.1486
  406MOL0     H56026  10.668   8.802  10.425  1.5208  1.5337  2.3333
  406MOL0     H56027  10.762   8.939  10.381 -0.8960  1.0112 -1.9482
  406MOL0     H56028  10.735   8.801  10.265  0.6225 -2.2442  0.7322
  407MOL0     O56029   6.842  10.780  11.527  0.3886  0.1813  0.4072
  407MOL0     C56030   6.885  10.897  11.548  1.0419  0.8726 -0.5724
  407MOL0     O56031   6.833  10.973  11.642  0.1919  0.1943 -0.3542
  407MOL0     C56032   6.732  10.927  11.726  0.6161  0.5811 -0.5488
  407MOL0     C56033   6.751  10.873  11.860 -0.2631 -0.6956 -0.4389
  407MOL0     C56034   6.642  10.836  11.938  0.5591  0.5599  0.5671
  407MOL0     C56035   6.513  10.853  11.879  0.6885  0.3700  1.4011
  407MOL0     O56036   6.391  10.837  11.952 -0.3712  0.6458 -0.4928
  407MOL0     C56037   6.391  10.876  12.092  0.0955  0.2512 -0.3191
  407MOL0     C56038   6.254  10.886  12.148  0.3589  0.3616  0.6017
  407MOL0     C56039   6.188  11.029  12.125 -0.2126 -0.1472 -0.4024
  407MOL0     C56040   6.101  11.052  12.004  0.2361  0.1948  0.3578
  407MOL0     C56041   6.180  11.051  11.874 -0.3361 -0.2350 -0.2844
  407MOL0     C56042   6.101  11.115  11.760 -0.1621  0.0116 -0.1324
  407MOL0     C56043   6.168  11.091  11.617  0.4619  0.1721  0.5580
  407MOL0     C56044   6.284  11.184  11.596  0.0348  0.3839 -0.5865
  407MOL0     N56045   6.235  11.316  11.570  0.0516  0.0780 -0.2522
  407MOL0     C56046   6.172  11.365  11.453 -0.3587 -0.1598 -0.1533
  407MOL0     C56047   6.161  11.496  11.473  0.2132 -0.6673  0.2330
  407MOL0     C56048   6.094  11.596  11.372 -0.2758  0.2768  0.4842
  407MOL0     C56049   6.197  11.697  11.320  0.6038 -0.5971 -0.0113
  407MOL0     C56050   6.146  11.771  11.188  0.2319  0.5999 -0.5666
  407MOL0     C56051   6.155  11.662  11.063 -0.5581  0.0873 -0.2866
  407MOL0     O56052   6.031  11.596  11.070  0.0880 -0.0595  0.0809
  407MOL0     C56053   5.992  11.535  10.952  0.4681  0.0560  0.4166
  407MOL0     C56054   6.067  11.511  10.841 -0.6566  0.7166 -0.2119
  407MOL0     C56055   6.020  11.458  10.720  1.0352  0.9138  0.6082
  407MOL0     C56056   6.108  11.461  10.590  0.8841  0.0934 -0.1743
  407MOL0     C56057   5.889  11.428  10.708 -0.5945 -0.0070 -0.9234
  407MOL0     C56058   5.818  11.387  10.586 -0.4042  0.3688 -0.3891
  407MOL0     O56059   5.730  11.477  10.534  0.1438 -0.3183  0.1076
  407MOL0     C56060   5.632  11.429  10.448 -0.3238 -0.5724 -0.1228
  407MOL0     C56061   5.624  11.491  10.330  1.0072  0.2966  0.3175
  407MOL0     C56062   5.530  11.443  10.232  0.0848 -0.1193  0.1152
  407MOL0     C56063   5.437  11.338  10.270 -0.6142 -0.8256  0.2616
  407MOL0     O56064   5.344  11.308  10.167 -1.0647 -0.8377  0.8601
  407MOL0     C56065   5.217  11.259  10.185  0.5087  0.2419 -1.1767
  407MOL0     C56066   5.148  11.243  10.045  0.0969 -0.6607  0.1518
  407MOL0     C56067   5.110  11.377   9.995  0.7702  0.2792  0.4547
  407MOL0     C56068   5.050  11.354   9.855  0.5125 -0.7012 -0.0780
  407MOL0     C56069   5.052  11.489   9.778  0.6213  0.2252  0.4093
  407MOL0     C56070   4.994  11.469   9.633  0.2113 -0.3604  0.5624
  407MOL0     C56071   4.987  11.596   9.559  0.7277 -0.6493  0.4956
  407MOL0     C56072   4.954  11.571   9.416  0.3871  0.0498  0.8626
  407MOL0    Cl56073   4.910  11.726   9.349  0.0179 -0.0525 -0.3001
  407MOL0     C56074   5.448  11.279  10.398 -0.2074 -0.1199 -0.0035
  407MOL0     C56075   5.550  11.326  10.480  0.2021 -0.1298  0.2804
  407MOL0     O56076   5.846  11.276  10.542  0.5490 -0.9896  0.5642
  407MOL0     C56077   5.807  11.439  10.817 -1.0630 -0.3203  0.1929
  407MOL0     C56078   5.855  11.493  10.941  0.2114 -0.4911  0.3156
  407MOL0     N56079   6.216  11.530  11.593  0.8446 -0.6049  0.5986
  407MOL0     N56080   6.256  11.420  11.657 -0.7436 -0.0174 -0.1041
  407MOL0     C56081   6.493  10.905  11.751  0.7440 -0.0843  0.1213
  407MOL0     C56082   6.601  10.937  11.676 -0.2768  0.1029 -0.7409
  407MOL0     C56083   6.998  10.941  11.471 -0.5457  0.1955 -0.3587
  407MOL0     C56084   7.027  11.079  11.474  0.4005  0.2496 -0.3983
  407MOL0     C56085   7.109  11.132  11.370  1.0788  0.3155 -0.7537
  407MOL0     C56086   7.184  11.048  11.284 -0.7017 -0.0146  0.6054
  407MOL0     O56087   7.244  11.105  11.178  0.0307  0.0541  0.4372
  407MOL0     C56088   7.347  11.031  11.118 -0.5442 -0.8306 -0.3736
  407MOL0     C56089   7.434  11.141  11.059  0.6807  0.6548  0.4138
  407MOL0     C56090   7.378  11.192  10.921  0.2065 -0.7379 -0.1043
  407MOL0     C56091   7.462  11.306  10.856  0.1860  0.3980 -0.5867
  407MOL0     C56092   7.602  11.265  10.845  0.4531  0.4337  0.8766
  407MOL0     C56093   7.717  11.218  10.827  0.1502 -0.5734 -0.5500
  407MOL0     C56094   7.175  10.911  11.294  0.5313 -0.0030  0.1775
  407MOL0     C56095   7.091  10.861  11.394  0.1918  0.0610  0.8329
  407MOL0     C56096   7.082  10.706  11.397 -0.2005  0.2105 -0.6886
  407MOL0     H56097   6.845  10.847  11.907 -0.8306 -0.1582  1.0541
  407MOL0     H56098   6.656  10.784  12.033  0.9117 -3.0347 -1.2872
  407MOL0     H56099   6.440  10.970  12.115 -0.4656  0.7689 -1.1873
  407MOL0     H56100   6.430  10.790  12.147 -5.0209 -2.3706 -0.1402
  407MOL0     H56101   6.182  10.811  12.113  0.6987  0.8714 -1.2884
  407MOL0     H56102   6.254  10.886  12.258  0.9504  1.8758  0.6336
  407MOL0     H56103   6.131  11.052  12.216 -1.3831  3.3368 -1.8482
  407MOL0     H56104   6.267  11.104  12.128 -2.6669  2.5994 -0.3249
  407MOL0     H56105   6.017  10.982  12.008 -0.9143  1.2960 -2.3372
  407MOL0     H56106   6.047  11.148  12.008  0.8732  0.5607  0.2255
  407MOL0     H56107   6.194  10.950  11.833  0.4619  0.4599 -1.8242
  407MOL0     H56108   6.280  11.094  11.889  0.3995 -1.9745  0.0602
  407MOL0     H56109   6.002  11.069  11.762 -0.5065  0.7326 -0.3725
  407MOL0     H56110   6.099  11.222  11.781 -1.2318 -0.0061 -0.0672
  407MOL0     H56111   6.097  11.108  11.535 -1.1190 -0.0599  1.8380
  407MOL0     H56112   6.208  10.993  11.590 -0.7959 -0.2312  0.0525
  407MOL0     H56113   6.340  11.191  11.690  2.9267  1.0207 -2.2526
  407MOL0     H56114   6.357  11.161  11.519  1.8873 -2.1810  1.7608
  407MOL0     H56115   6.145  11.305  11.366 -2.0581 -0.5722  0.6085
  407MOL0     H56116   6.019  11.659  11.419  1.8466  1.7857  2.0601
  407MOL0     H56117   6.040  11.547  11.290  0.3975  1.1885 -0.5459
  407MOL0     H56118   6.223  11.769  11.398 -1.0208 -1.9183  1.8618
  407MOL0     H56119   6.293  11.645  11.307  1.2266  1.0052 -2.3750
  407MOL0     H56120   6.047  11.813  11.208 -0.0930 -1.5697  3.2184
  407MOL0     H56121   6.202  11.860  11.159 -0.9616  0.5894 -3.1726
  407MOL0     H56122   6.149  11.722  10.973  0.6927 -0.3916 -0.7141
  407MOL0     H56123   6.251  11.609  11.062  0.0681  1.0737  1.4928
  407MOL0     H56124   6.173  11.529  10.830 -0.5657 -0.3780 -1.3347
  407MOL0     H56125   6.056  11.535  10.529 -0.5342 -1.6006 -1.1284
  407MOL0     H56126   6.099  11.363  10.543  1.6118 -1.9224  3.4758
  407MOL0     H56127   6.213  11.481  10.611  1.1187 -1.5887  0.4467
  407MOL0     H56128   5.697  11.569  10.307  1.1578  0.2541  0.6449
  407MOL0     H56129   5.526  11.490  10.134  6.2290  2.4311  0.6288
  407MOL0     H56130   5.228  11.167  10.243  0.6439  0.6252 -0.5815
  407MOL0     H56131   5.160  11.320  10.256  1.2225 -0.4484  0.0414
  407MOL0     H56132   5.207  11.181   9.977 -1.1401 -1.6863 -0.0307
  407MOL0     H56133   5.065  11.175  10.067  1.0612 -2.9235 -2.5471
  407MOL0     H56134   5.192  11.449   9.991  1.3152 -0.3445  0.2838
  407MOL0     H56135   5.031  11.407  10.064 -0.4475 -2.8156  0.5635
  407MOL0     H56136   4.948  11.316   9.864 -0.1784  1.4067  1.8581
  407MOL0     H56137   5.108  11.282   9.796  0.4693  1.9382 -3.7325
  407MOL0     H56138   4.991  11.563   9.829  0.0377  0.4431 -0.5679
  407MOL0     H56139   5.156  11.523   9.772 -0.2334  3.1610  0.6640
  407MOL0     H56140   4.895  11.422   9.633  0.6485 -1.3858  1.9942
  407MOL0     H56141   5.061  11.394   9.589 -2.5803 -2.7229  0.0879
  407MOL0     H56142   5.082  11.649   9.570  0.1885 -0.1335  3.4900
  407MOL0     H56143   4.910  11.665   9.595 -1.5227 -1.4410 -2.3766
  407MOL0     H56144   4.876  11.497   9.395 -1.6115  2.0622  0.8259
  407MOL0     H56145   5.045  11.537   9.365 -0.7539 -0.3047 -1.0209
  407MOL0     H56146   5.391  11.196  10.438 -1.5684  1.2989  1.1472
  407MOL0     H56147   5.560  11.282  10.579 -0.6920  2.9314  1.8511
  407MOL0     H56148   5.707  11.395  10.817 -0.1779 -2.5975  2.8714
  407MOL0     H56149   5.789  11.499  11.027  0.6182 -1.6428  0.7288
  407MOL0     H56150   6.391  10.915  11.715  1.0123 -1.5127 -1.1751
  407MOL0     H56151   6.598  10.961  11.570 -0.6224 -2.3382 -1.3454
  407MOL0     H56152   6.975  11.148  11.540 -2.0200 -1.2478 -0.6094
  407MOL0     H56153   7.141  11.236  11.365 -0.5095  1.2083  3.5491
  407MOL0     H56154   7.426  10.986  11.179  0.2604  1.8455  0.7291
  407MOL0     H56155   7.306  10.966  11.040 -0.4480 -0.5588 -0.6520
  407MOL0     H56156   7.533  11.098  11.043  0.4710  0.1773  0.3954
  407MOL0     H56157   7.445  11.230  11.123  0.2312 -0.3614  1.9624
  407MOL0     H56158   7.389  11.112  10.848  2.6693 -2.3632  1.8691
  407MOL0     H56159   7.276  11.224  10.942 -0.1438  0.0669 -2.7171
  407MOL0     H56160   7.455  11.398  10.916  1.8711  0.7493 -0.8729
  407MOL0     H56161   7.414  11.317  10.758 -1.9791 -2.1764  0.0636
  407MOL0     H56162   7.819  11.184  10.826  0.1418 -1.0370  3.0912
  407MOL0     H56163   7.211  10.835  11.226 -0.3028  0.0766 -0.3667
  407MOL0     H56164   7.045  10.671  11.494 -0.7592  1.3842 -0.4660
  407MOL0     H56165   7.029  10.665  11.310  0.1626  0.7946 -1.1914
  407MOL0     H56166   7.180  10.658  11.403 -0.6425 -0.6859 -0.4961
  408MOL0     O56167   0.873  10.585   3.128  0.6337 -0.1999  0.7895
  408MOL0     C56168   0.875  10.675   3.210 -0.8845 -0.7640 -0.5355
  408MOL0     O56169   0.834  10.664   3.339  0.3857 -0.0598  0.7339
  408MOL0     C56170   0.832  10.543   3.398 -0.0660  0.2750  0.8658
  408MOL0     C56171   0.927  10.440   3.396 -0.1260  0.3878  0.6411
  408MOL0     C56172   0.919  10.323   3.467  0.3131  0.9091  0.4743
  408MOL0     C56173   0.801  10.309   3.552 -0.4723  0.5176 -0.7397
  408MOL0     O56174   0.769  10.189   3.615  0.1548 -0.5573 -0.5553
  408MOL0     C56175   0.885  10.114   3.662 -0.1393 -0.0812 -0.8044
  408MOL0     C56176   0.849  10.013   3.777 -0.0040 -0.1194  0.0525
  408MOL0     C56177   0.716  10.034   3.842  0.7265  0.6213 -0.9061
  408MOL0     C56178   0.690  10.156   3.925 -0.0065 -0.2354 -0.8753
  408MOL0     C56179   0.538  10.170   3.951  0.0923 -0.7695 -0.8228
  408MOL0     C56180   0.521  10.291   4.039  0.1637 -0.4932  0.2908
  408MOL0     C56181   0.371  10.314   4.062  0.5367  0.7753  0.7185
  408MOL0     C56182   0.319  10.454   4.083 -0.3531 -0.9223  1.1370
  408MOL0     N56183   0.330  10.537   3.953  0.7673  0.4355  0.1005
  408MOL0     C56184   0.255  10.508   3.843  0.1804  0.5099  0.5052
  408MOL0     C56185   0.323  10.574   3.748  0.4953  0.5490 -0.0144
  408MOL0     C56186   0.263  10.596   3.607 -0.5447  0.1570 -0.6619
  408MOL0     C56187   0.333  10.696   3.514  0.6364  0.4820 -0.0147
  408MOL0     C56188   0.241  10.737   3.393  0.1564  0.1650  0.4852
  408MOL0     C56189   0.300  10.824   3.277  0.6032 -0.1686  0.0101
  408MOL0     O56190   0.411  10.750   3.214 -0.2899 -0.2102  0.2546
  408MOL0     C56191   0.472  10.808   3.110  0.0601  0.2694 -0.3492
  408MOL0     C56192   0.575  10.738   3.041 -0.0426  0.0655  0.1727
  408MOL0     C56193   0.643  10.779   2.921  0.2432  0.5368  0.1346
  408MOL0     C56194   0.718  10.670   2.851  0.2823 -0.4409  0.3468
  408MOL0     C56195   0.611  10.911   2.879  0.0347  0.1179 -0.6395
  408MOL0     C56196   0.675  10.983   2.768 -0.6780 -0.3319  1.2905
  408MOL0     O56197   0.763  10.900   2.694 -0.1313 -0.0580  0.5957
  408MOL0     C56198   0.825  10.965   2.594  0.2829 -0.6682  0.2549
  408MOL0     C56199   0.793  10.948   2.457 -0.4314 -0.0061  0.3319
  408MOL0     C56200   0.869  11.001   2.350  0.5896  0.2273  0.5481
  408MOL0     C56201   0.959  11.105   2.378 -0.1674  0.1329 -0.5839
  408MOL0     O56202   1.023  11.164   2.270 -0.7446  0.1273  0.4310
  408MOL0     C56203   1.096  11.291   2.292  0.7202 -0.2065 -0.6377
  408MOL0     C56204   1.061  11.365   2.164  0.3638 -0.5091  0.2598
  408MOL0     C56205   0.903  11.375   2.119 -0.1506 -0.3727 -0.4732
  408MOL0     C56206   0.813  11.421   2.244  1.2401 -0.4104  0.0439
  408MOL0     C56207   0.850  11.562   2.292 -0.3531  0.3556  0.5494
  408MOL0     C56208   0.768  11.599   2.416  0.3554 -0.6690 -0.9488
  408MOL0     C56209   0.817  11.735   2.465 -0.5509  0.0683  0.0257
  408MOL0     C56210   0.732  11.795   2.577  0.2785 -0.1452  0.8431
  408MOL0    Cl56211   0.554  11.813   2.521 -0.1396  0.7214 -0.0281
  408MOL0     C56212   0.990  11.133   2.515  0.5548  0.3070 -0.1831
  408MOL0     C56213   0.923  11.062   2.622  0.5227 -0.3743  0.7900
  408MOL0     O56214   0.638  11.097   2.735  0.4082  0.1077 -0.0175
  408MOL0     C56215   0.516  10.988   2.951 -0.4329  0.4322 -0.0912
  408MOL0     C56216   0.439  10.935   3.061  0.0439 -0.2847  0.4102
  408MOL0     N56217   0.424  10.643   3.799 -0.2004 -0.2571 -0.4876
  408MOL0     N56218   0.435  10.616   3.924 -0.1888 -0.1945  0.0998
  408MOL0     C56219   0.708  10.412   3.563  0.9162  0.1249  0.2816
  408MOL0     C56220   0.729  10.531   3.490  0.3845 -0.1995  0.9236
  408MOL0     C56221   0.887  10.817   3.165 -0.1985  0.1819 -0.1336
  408MOL0     C56222   0.794  10.917   3.208 -0.1053  0.1729 -0.8643
  408MOL0     C56223   0.825  11.047   3.173 -0.8354 -1.0671 -0.1780
  408MOL0     C56224   0.924  11.078   3.081  0.2065 -0.4317 -0.0479
  408MOL0     O56225   0.924  11.210   3.039 -0.2511 -0.3241  0.6211
  408MOL0     C56226   1.060  11.257   3.047  0.6591 -0.2321 -0.1046
  408MOL0     C56227   1.050  11.403   2.984  0.2635  0.3998  0.7371
  408MOL0     C56228   0.996  11.411   2.841  0.6166  0.1243 -0.0009
  408MOL0     C56229   1.031  11.543   2.769 -0.3991  0.1644  0.3138
  408MOL0     C56230   1.160  11.544   2.702  0.4601 -0.1429 -0.3971
  408MOL0     C56231   1.262  11.536   2.647 -0.0113  0.1351  0.8280
  408MOL0     C56232   1.007  10.980   3.033  0.5880 -0.5400 -0.1649
  408MOL0     C56233   1.000  10.855   3.087  0.1285 -1.2406 -0.4211
  408MOL0     C56234   1.118  10.756   3.067  0.3679  0.2691  0.3138
  408MOL0     H56235   1.012  10.441   3.328 -2.6050  1.8139 -2.7298
  408MOL0     H56236   1.004  10.255   3.466 -1.2642 -1.2451  2.5655
  408MOL0     H56237   0.961  10.186   3.691  1.9561 -1.1914 -3.2096
  408MOL0     H56238   0.926  10.056   3.579  0.1708 -1.4847  0.2933
  408MOL0     H56239   0.863   9.911   3.740  0.7907  0.4836 -1.4042
  408MOL0     H56240   0.918  10.035   3.859  2.1752 -0.6878 -1.5228
  408MOL0     H56241   0.632  10.020   3.773  1.9341 -3.9761 -1.8353
  408MOL0     H56242   0.707   9.946   3.907 -3.3115  1.9972  0.7045
  408MOL0     H56243   0.751  10.145   4.015  1.0147  2.8620 -1.0652
  408MOL0     H56244   0.722  10.242   3.866  3.7462 -1.5372 -1.0009
  408MOL0     H56245   0.513  10.080   4.007 -0.1181 -0.5397 -0.5398
  408MOL0     H56246   0.491  10.178   3.853  0.7618 -1.3193 -1.1929
  408MOL0     H56247   0.575  10.277   4.133  2.2835  0.5807 -0.6952
  408MOL0     H56248   0.574  10.378   3.999  0.8961 -0.0370  2.1589
  408MOL0     H56249   0.356  10.253   4.151  1.7105  0.1163  0.4777
  408MOL0     H56250   0.323  10.269   3.975 -0.3050  3.4772 -0.3326
  408MOL0     H56251   0.217  10.453   4.121 -1.8072  1.4572 -2.1663
  408MOL0     H56252   0.387  10.499   4.157 -0.1090 -0.1546  0.4639
  408MOL0     H56253   0.165  10.448   3.847  0.9811 -0.6654  2.2981
  408MOL0     H56254   0.155  10.600   3.621 -0.7958 -0.6024 -2.1731
  408MOL0     H56255   0.279  10.500   3.557  1.8011 -0.0322  0.3243
  408MOL0     H56256   0.348  10.795   3.559  1.0550  0.0869  0.7130
  408MOL0     H56257   0.433  10.664   3.483 -0.0362  0.0614 -1.9107
  408MOL0     H56258   0.224  10.639   3.347  1.8074 -1.5121  3.1596
  408MOL0     H56259   0.144  10.780   3.420  1.4476  2.0825  2.4002
  408MOL0     H56260   0.228  10.824   3.194  2.7828 -4.4907 -2.2062
  408MOL0     H56261   0.325  10.922   3.319 -0.8656  0.1778  0.1411
  408MOL0     H56262   0.591  10.635   3.072 -1.4134 -0.8765 -1.9731
  408MOL0     H56263   0.675  10.648   2.753 -0.9140  0.4498  0.6557
  408MOL0     H56264   0.702  10.572   2.899 -1.3774 -1.6533 -2.4394
  408MOL0     H56265   0.825  10.689   2.839 -0.1192 -0.0031 -3.9005
  408MOL0     H56266   0.720  10.870   2.434  2.8149 -2.9816 -0.7842
  408MOL0     H56267   0.845  10.970   2.248 -0.0759  2.5180 -0.0406
  408MOL0     H56268   1.063  11.348   2.380  3.4345 -2.1524  1.8495
  408MOL0     H56269   1.202  11.272   2.312  0.2908 -1.0198  1.0885
  408MOL0     H56270   1.083  11.471   2.172  1.3701 -0.7583  0.8726
  408MOL0     H56271   1.112  11.322   2.077  1.7276  2.1750 -0.3445
  408MOL0     H56272   0.870  11.278   2.082 -2.4837  0.9987 -2.2673
  408MOL0     H56273   0.881  11.451   2.043 -2.2316 -0.7920 -0.3381
  408MOL0     H56274   0.812  11.355   2.332 -1.5238 -0.9374 -0.2741
  408MOL0     H56275   0.710  11.419   2.207  0.2699 -2.6614  2.5193
  408MOL0     H56276   0.958  11.569   2.307 -0.5001 -1.3466  2.9395
  408MOL0     H56277   0.834  11.643   2.220 -0.6524  2.0425  2.4162
  408MOL0     H56278   0.776  11.526   2.497 -1.8702  1.0196  0.9338
  408MOL0     H56279   0.663  11.611   2.388  0.2578 -1.4601 -0.9205
  408MOL0     H56280   0.817  11.816   2.391  0.7424  0.5495  0.5322
  408MOL0     H56281   0.922  11.718   2.492 -0.8500 -2.2172 -0.0346
  408MOL0     H56282   0.771  11.886   2.622 -1.3200  2.7532 -3.0028
  408MOL0     H56283   0.714  11.718   2.653 -4.7133 -0.0721  0.1060
  408MOL0     H56284   1.053  11.216   2.545  1.6671 -0.6820  0.2966
  408MOL0     H56285   0.945  11.091   2.724  2.1339  0.2170  0.3000
  408MOL0     H56286   0.481  11.085   2.918  2.4741  1.3930 -0.6690
  408MOL0     H56287   0.359  11.002   3.089 -0.6990 -0.4914 -1.0963
  408MOL0     H56288   0.622  10.392   3.627  0.3417  5.9046  1.8324
  408MOL0     H56289   0.646  10.601   3.490 -1.2789 -2.0706  0.3180
  408MOL0     H56290   0.704  10.895   3.264 -1.7031  3.2232 -1.9969
  408MOL0     H56291   0.754  11.125   3.198  0.5447  0.5005 -0.9536
  408MOL0     H56292   1.083  11.284   3.150  1.2742 -1.4208  0.0786
  408MOL0     H56293   1.129  11.195   2.990 -0.7569 -2.7010  0.7185
  408MOL0     H56294   1.148  11.451   2.987  0.5972 -0.1969 -0.1532
  408MOL0     H56295   0.985  11.469   3.041 -1.3946 -0.8588  0.3895
  408MOL0     H56296   1.042  11.329   2.785  1.5050 -1.2656  2.5909
  408MOL0     H56297   0.888  11.398   2.835  0.5706  1.1394 -1.8518
  408MOL0     H56298   1.030  11.632   2.831  2.1810 -0.4961  1.4485
  408MOL0     H56299   0.956  11.556   2.691  1.0194  1.3017 -0.9134
  408MOL0     H56300   1.344  11.528   2.578 -2.2884 -3.1436 -1.8371
  408MOL0     H56301   1.083  11.001   2.958 -0.5366 -1.1000 -1.5027
  408MOL0     H56302   1.140  10.705   3.162  1.0621 -1.8097 -0.8818
  408MOL0     H56303   1.091  10.675   2.998 -0.4254 -2.4021  3.4752
  408MOL0     H56304   1.210  10.806   3.036  1.6317 -0.8393  2.0806
  409MOL0     O56305   9.198  10.988   6.335 -0.1529  0.1709 -0.9113
  409MOL0     C56306   9.101  10.972   6.410  0.0791 -0.6695  1.1366
  409MOL0     O56307   9.083  10.862   6.491 -0.1070  0.2269 -0.9043
  409MOL0     C56308   9.168  10.748   6.480 -1.1902 -0.3914  0.3980
  409MOL0     C56309   9.300  10.765   6.520  0.5393 -0.7718  0.2996
  409MOL0     C56310   9.379  10.646   6.539 -0.1953  0.1894  0.5834
  409MOL0     C56311   9.329  10.518   6.500 -0.1296  0.8617 -0.2392
  409MOL0     O56312   9.400  10.402   6.505  0.2190  0.3229  0.4443
  409MOL0     C56313   9.515  10.385   6.586  0.6356 -0.6771  1.0489
  409MOL0     C56314   9.651  10.418   6.517 -0.6334 -0.1536 -0.1366
  409MOL0     C56315   9.722  10.302   6.447  0.0727 -0.2128 -0.3092
  409MOL0     C56316   9.670  10.291   6.309 -0.9839  0.0950  0.0336
  409MOL0     C56317   9.760  10.194   6.228 -0.4915  0.5016  0.4296
  409MOL0     C56318   9.725  10.173   6.084  0.7281  0.1309  0.1577
  409MOL0     C56319   9.826  10.078   6.013  0.2650  0.2124 -1.1230
  409MOL0     C56320   9.779  10.057   5.866  0.2273 -0.2707  0.0041
  409MOL0     N56321   9.752  10.180   5.779 -0.9395  0.2415 -0.0289
  409MOL0     C56322   9.845  10.241   5.715  0.8955 -0.2708  0.1803
  409MOL0     C56323   9.791  10.355   5.662  0.4536  0.3756  1.2671
  409MOL0     C56324   9.869  10.463   5.586  0.6087 -0.5087  0.6931
  409MOL0     C56325   9.955  10.542   5.692  0.6519  0.3329 -0.7512
  409MOL0     C56326   9.890  10.626   5.806 -0.4279 -0.1413  0.7274
  409MOL0     C56327   9.798  10.732   5.744  0.5569 -0.6593  0.1271
  409MOL0     O56328   9.739  10.831   5.830  0.5507 -0.5353  0.5695
  409MOL0     C56329   9.670  10.941   5.783  0.3934  0.0965 -0.3786
  409MOL0     C56330   9.597  11.015   5.881  0.3213  0.5165 -0.4475
  409MOL0     C56331   9.503  11.111   5.862  0.6510 -0.1081  0.7664
  409MOL0     C56332   9.447  11.178   5.986 -0.2454 -0.1852 -0.6020
  409MOL0     C56333   9.475  11.145   5.727  0.0046 -0.8687 -0.2762
  409MOL0     C56334   9.391  11.262   5.686  0.6809 -0.2155  0.1448
  409MOL0     O56335   9.419  11.313   5.559  0.1992  1.3475 -0.3670
  409MOL0     C56336   9.357  11.439   5.529 -0.5863  0.6374 -0.3014
  409MOL0     C56337   9.433  11.557   5.527  0.1971 -0.6098  0.4213
  409MOL0     C56338   9.376  11.681   5.494 -0.0630  0.5048  0.4967
  409MOL0     C56339   9.243  11.691   5.449  0.7230 -0.4232  0.3901
  409MOL0     O56340   9.208  11.815   5.400  0.1372  0.9370 -0.2144
  409MOL0     C56341   9.070  11.834   5.369 -0.0931 -0.4026 -0.0275
  409MOL0     C56342   9.053  11.982   5.331  0.6046  0.9591 -0.5521
  409MOL0     C56343   9.159  12.024   5.227  0.3203 -0.3957 -0.4646
  409MOL0     C56344   9.129  12.166   5.190 -1.2511 -0.9306 -0.6559
  409MOL0     C56345   9.211  12.231   5.080 -0.8841 -0.1498 -0.6473
  409MOL0     C56346   9.210  12.159   4.943  0.0174 -0.2622  0.6115
  409MOL0     C56347   9.106  12.212   4.844  1.3514 -0.2090  0.1369
  409MOL0     C56348   9.070  12.114   4.724  0.0577  0.2630  1.3287
  409MOL0    Cl56349   8.920  12.016   4.782 -0.1491  0.1391 -0.3574
  409MOL0     C56350   9.166  11.578   5.463  0.3131  0.0499 -0.2053
  409MOL0     C56351   9.220  11.451   5.504 -1.1342 -0.6869  0.2474
  409MOL0     O56352   9.325  11.320   5.770  0.0002 -0.7491  0.0057
  409MOL0     C56353   9.539  11.072   5.632 -0.6335 -0.1436 -0.2283
  409MOL0     C56354   9.631  10.974   5.656 -0.1149 -0.1265  0.1316
  409MOL0     N56355   9.655  10.344   5.673  0.8932  0.1260  0.7413
  409MOL0     N56356   9.634  10.245   5.753 -0.4846  0.4549  0.4703
  409MOL0     C56357   9.192  10.507   6.453 -0.3427  0.3714  0.6012
  409MOL0     C56358   9.119  10.621   6.437 -0.2001 -0.0014  0.1561
  409MOL0     C56359   8.983  11.065   6.395  0.1818 -0.1849  0.2313
  409MOL0     C56360   9.002  11.150   6.284  0.3868  0.1880 -0.9034
  409MOL0     C56361   8.903  11.248   6.255  0.1987  0.3411 -0.3141
  409MOL0     C56362   8.785  11.252   6.324 -0.1822  0.5394  0.5076
  409MOL0     O56363   8.688  11.347   6.311  0.6239 -0.1290  0.0200
  409MOL0     C56364   8.625  11.355   6.189  0.5038 -0.7306  0.6668
  409MOL0     C56365   8.481  11.406   6.213  0.0213 -0.4102 -0.1514
  409MOL0     C56366   8.399  11.454   6.093 -0.0057 -0.9693 -0.1124
  409MOL0     C56367   8.268  11.526   6.158  0.0427  0.1906 -0.1359
  409MOL0     C56368   8.177  11.432   6.232 -0.5911  0.6505  0.0757
  409MOL0     C56369   8.112  11.349   6.294  0.8701 -0.3069  0.1458
  409MOL0     C56370   8.761  11.157   6.425  0.0081 -0.5866  0.2692
  409MOL0     C56371   8.867  11.073   6.470 -0.2090  0.2835 -0.0013
  409MOL0     C56372   8.842  10.979   6.588  0.0866 -0.5608 -0.5765
  409MOL0     H56373   9.332  10.863   6.552  1.2583  0.0754 -2.7345
  409MOL0     H56374   9.479  10.659   6.577  0.9615  4.4496 -3.0527
  409MOL0     H56375   9.508  10.281   6.621  0.5766 -0.2575  2.3064
  409MOL0     H56376   9.488  10.439   6.677 -4.4351 -0.5647 -0.2422
  409MOL0     H56377   9.634  10.502   6.449 -0.9915  0.6267  0.8858
  409MOL0     H56378   9.716  10.444   6.601  1.2420  0.9189 -1.8326
  409MOL0     H56379   9.830  10.314   6.458 -0.2364  1.4231  1.5770
  409MOL0     H56380   9.701  10.207   6.495  0.4577 -0.1891 -0.0921
  409MOL0     H56381   9.566  10.255   6.308 -1.1203  0.3695  1.5015
  409MOL0     H56382   9.669  10.387   6.256 -1.2339  0.2576  0.3322
  409MOL0     H56383   9.762  10.094   6.272  2.1959  0.0452 -0.5372
  409MOL0     H56384   9.864  10.228   6.241 -0.7041  1.1943  0.3592
  409MOL0     H56385   9.629  10.121   6.076  0.1548  1.0968  0.6308
  409MOL0     H56386   9.726  10.268   6.030 -0.7272  0.6514  0.9790
  409MOL0     H56387   9.834   9.985   6.071 -1.3969  1.4662  1.3196
  409MOL0     H56388   9.930  10.111   6.017  0.2268  0.2555 -0.3345
  409MOL0     H56389   9.848   9.982   5.827 -2.4835 -2.3963 -1.0477
  409MOL0     H56390   9.689   9.995   5.862 -0.5967  0.9605 -1.2654
  409MOL0     H56391   9.952  10.228   5.733  0.8262  1.8993  2.7224
  409MOL0     H56392   9.801  10.529   5.532  1.4875 -1.8506 -2.2344
  409MOL0     H56393   9.937  10.414   5.515  0.1993 -0.7589  0.4692
  409MOL0     H56394  10.015  10.465   5.742  0.6904  1.1019  0.4382
  409MOL0     H56395  10.031  10.605   5.645  2.2773  0.7991  2.2385
  409MOL0     H56396   9.843  10.564   5.883  1.2752 -0.5280  1.4946
  409MOL0     H56397   9.978  10.668   5.856  0.9871  0.7088 -2.1983
  409MOL0     H56398   9.861  10.785   5.671  0.7863 -1.5895 -0.3624
  409MOL0     H56399   9.714  10.686   5.691  0.0998  0.6856 -0.3592
  409MOL0     H56400   9.618  10.976   5.980  0.2254 -1.3912 -1.1307
  409MOL0     H56401   9.339  11.168   5.973 -0.4588 -2.1931  1.9377
  409MOL0     H56402   9.486  11.279   6.003  1.5265 -1.1666  1.7000
  409MOL0     H56403   9.469  11.125   6.079 -0.4118 -2.5648 -1.8527
  409MOL0     H56404   9.541  11.556   5.545  0.3727  0.4830 -0.4864
  409MOL0     H56405   9.439  11.769   5.496  1.8822 -0.6877 -1.7567
  409MOL0     H56406   9.043  11.773   5.282  0.6835  2.3755 -2.4048
  409MOL0     H56407   9.005  11.792   5.446 -1.8437 -1.6952 -2.0641
  409MOL0     H56408   8.958  12.006   5.284  1.6491  2.9467 -1.8118
  409MOL0     H56409   9.066  12.031   5.429  0.9924 -4.5279  2.5280
  409MOL0     H56410   9.123  11.957   5.148  1.6737 -1.2340 -0.3884
  409MOL0     H56411   9.261  11.998   5.254 -0.0822 -0.0935  1.4737
  409MOL0     H56412   9.137  12.217   5.286 -0.8749 -2.5265  0.2030
  409MOL0     H56413   9.027  12.174   5.153 -0.5059  0.6761 -2.5807
  409MOL0     H56414   9.185  12.337   5.080  1.6736  0.5655 -0.6246
  409MOL0     H56415   9.313  12.230   5.119 -0.6880  5.0678 -0.3083
  409MOL0     H56416   9.209  12.052   4.963 -0.1678  0.1046  2.7555
  409MOL0     H56417   9.306  12.189   4.900 -1.4280  2.1676 -1.1735
  409MOL0     H56418   9.145  12.301   4.794  0.7138 -0.9765 -1.8501
  409MOL0     H56419   9.012  12.240   4.891  1.1414  1.8492 -1.3545
  409MOL0     H56420   9.148  12.043   4.695  0.3668  1.4002 -0.8353
  409MOL0     H56421   9.037  12.176   4.640 -1.3423 -0.2470  1.4812
  409MOL0     H56422   9.059  11.583   5.443  0.4221 -0.7262 -1.0193
  409MOL0     H56423   9.152  11.369   5.522 -0.0439 -1.2166  2.2636
  409MOL0     H56424   9.526  11.092   5.526  0.5113  1.3702 -0.1177
  409MOL0     H56425   9.685  10.924   5.576  0.8631  2.9675 -1.3088
  409MOL0     H56426   9.167  10.409   6.413  1.8125  0.0291 -0.0740
  409MOL0     H56427   9.018  10.621   6.399 -0.0556  2.0450 -0.3252
  409MOL0     H56428   9.090  11.172   6.225 -0.2209  3.8906 -0.6628
  409MOL0     H56429   8.931  11.329   6.188  0.2547 -0.7011 -1.5909
  409MOL0     H56430   8.675  11.425   6.122 -3.0239  0.9962 -0.4159
  409MOL0     H56431   8.618  11.254   6.146  0.4662  0.6389 -2.8888
  409MOL0     H56432   8.495  11.480   6.292 -1.9609 -1.8392  1.6417
  409MOL0     H56433   8.423  11.321   6.251 -0.6689  0.3174  0.4590
  409MOL0     H56434   8.444  11.523   6.021  1.2142 -2.9529 -1.3243
  409MOL0     H56435   8.375  11.363   6.038 -0.0323 -2.3420  2.0855
  409MOL0     H56436   8.212  11.576   6.079 -0.9121  0.9123  0.9823
  409MOL0     H56437   8.313  11.606   6.217  1.9983  1.0556 -2.5836
  409MOL0     H56438   8.051  11.284   6.353 -0.0287  0.5991  0.2408
  409MOL0     H56439   8.665  11.160   6.476 -2.2022 -0.0406 -3.5149
  409MOL0     H56440   8.746  10.994   6.638  0.3822 -1.2295  0.2072
  409MOL0     H56441   8.854  10.875   6.555  2.5208 -0.6810  0.5095
  409MOL0     H56442   8.919  10.981   6.665 -0.0362  0.2977 -0.4630
  410MOL0     O56443   0.574  10.762   6.507  0.0838  0.2344 -0.2831
  410MOL0     C56444   0.547  10.770   6.389 -0.0906 -0.7518  0.2895
  410MOL0     O56445   0.424  10.798   6.341 -0.5207  0.6423  0.1868
  410MOL0     C56446   0.305  10.776   6.404 -0.5705 -0.1710  0.0805
  410MOL0     C56447   0.235  10.883   6.466 -0.7338  0.1106  0.4670
  410MOL0     C56448   0.123  10.861   6.540  0.0875  0.2140 -0.3408
  410MOL0     C56449   0.054  10.742   6.510  0.5122 -1.3770 -0.2053
  410MOL0     O56450  -0.062  10.724   6.582  0.0083  1.0406  0.6686
  410MOL0     C56451  -0.165  10.823   6.583 -0.2693  0.1509  0.5370
  410MOL0     C56452  -0.237  10.804   6.717 -0.2661 -0.0519  0.9770
  410MOL0     C56453  -0.333  10.683   6.703 -0.5520 -0.3203  0.6021
  410MOL0     C56454  -0.390  10.670   6.840  0.1867 -0.2658  0.0953
  410MOL0     C56455  -0.506  10.568   6.856 -0.1107 -1.4842  0.4941
  410MOL0     C56456  -0.453  10.422   6.850  0.3315 -0.1552  0.1527
  410MOL0     C56457  -0.361  10.376   6.967  0.5086  0.0548 -0.1748
  410MOL0     C56458  -0.347  10.223   6.959  1.0468 -0.6679  0.7077
  410MOL0     N56459  -0.270  10.167   7.069 -0.4291 -0.2961 -0.5614
  410MOL0     C56460  -0.312  10.171   7.200 -0.2382  0.4991  0.3351
  410MOL0     C56461  -0.221  10.114   7.276  0.0076  0.0162  0.9885
  410MOL0     C56462  -0.206  10.090   7.423 -0.2476  0.6020 -0.5124
  410MOL0     C56463  -0.328  10.009   7.489  0.5461  0.2125  0.0824
  410MOL0     C56464  -0.292   9.951   7.626  1.7086 -0.0431 -0.0990
  410MOL0     C56465  -0.398   9.850   7.672 -0.7174  0.1969 -0.1352
  410MOL0     O56466  -0.348   9.802   7.797  0.1705 -0.1092 -0.0537
  410MOL0     C56467  -0.387   9.685   7.853  0.0836 -0.1412 -0.8802
  410MOL0     C56468  -0.337   9.677   7.985 -0.0625 -0.7618  0.2847
  410MOL0     C56469  -0.360   9.569   8.064  0.3099  0.5818 -0.5898
  410MOL0     C56470  -0.291   9.558   8.199  0.7115 -0.3351 -0.2024
  410MOL0     C56471  -0.425   9.455   8.002  0.3090 -0.9862  0.1137
  410MOL0     C56472  -0.430   9.319   8.061 -0.1852 -1.1075 -0.5287
  410MOL0     O56473  -0.558   9.273   8.079  0.0253  0.0557 -0.1156
  410MOL0     C56474  -0.586   9.154   8.149  0.9715 -1.4804  0.1329
  410MOL0     C56475  -0.710   9.100   8.111 -0.0364  0.6567  0.2279
  410MOL0     C56476  -0.750   8.983   8.176 -0.0390  0.0713  0.2486
  410MOL0     C56477  -0.674   8.909   8.267 -0.4012 -0.1067 -0.2549
  410MOL0     O56478  -0.696   8.780   8.315  0.1955  0.2580 -0.4618
  410MOL0     C56479  -0.780   8.699   8.221 -0.2812  0.1792 -0.7924
  410MOL0     C56480  -0.757   8.548   8.264 -0.4917  0.5907  1.0800
  410MOL0     C56481  -0.607   8.509   8.235  0.0703  0.1073 -0.3110
  410MOL0     C56482  -0.576   8.363   8.278 -0.0141  0.0821  0.9431
  410MOL0     C56483  -0.450   8.309   8.215  0.6332  0.3778  0.5939
  410MOL0     C56484  -0.442   8.157   8.216 -0.0204 -0.1351 -0.2267
  410MOL0     C56485  -0.300   8.120   8.268  0.1057 -0.1189 -0.3429
  410MOL0     C56486  -0.189   8.129   8.159 -0.0447  0.2027 -0.5471
  410MOL0    Cl56487  -0.243   7.995   8.045  0.6846 -0.1070  0.3848
  410MOL0     C56488  -0.544   8.961   8.295 -0.3131  0.3661 -0.3013
  410MOL0     C56489  -0.509   9.082   8.240 -0.4107 -0.4490 -0.1568
  410MOL0     O56490  -0.324   9.260   8.094 -0.3833 -0.7495 -0.0090
  410MOL0     C56491  -0.479   9.463   7.877  0.2630 -0.5473 -0.1639
  410MOL0     C56492  -0.464   9.578   7.802  0.6838 -0.3773  0.4259
  410MOL0     N56493  -0.118  10.079   7.188  0.0037  0.6126 -0.4115
  410MOL0     N56494  -0.147  10.119   7.069 -0.8094 -0.4728  0.1454
  410MOL0     C56495   0.104  10.641   6.427  1.1706  0.3396 -0.5670
  410MOL0     C56496   0.235  10.654   6.379  0.5062  0.2686  0.2445
  410MOL0     C56497   0.653  10.749   6.292 -0.7189  0.2092  0.3262
  410MOL0     C56498   0.614  10.735   6.159  0.9703  0.0757  0.6933
  410MOL0     C56499   0.698  10.733   6.048  0.4424 -0.4583 -0.3389
  410MOL0     C56500   0.836  10.724   6.067  0.8080 -0.6083 -0.9917
  410MOL0     O56501   0.930  10.704   5.972 -0.3643 -0.1381  0.5030
  410MOL0     C56502   0.880  10.643   5.849 -0.6429 -0.7309 -0.1296
  410MOL0     C56503   0.999  10.602   5.763  0.1397  0.8267 -0.6703
  410MOL0     C56504   0.942  10.512   5.643 -1.2677 -0.0034 -0.6901
  410MOL0     C56505   1.055  10.492   5.540 -0.7940  0.5366  0.6809
  410MOL0     C56506   1.064  10.617   5.456 -0.6835  0.8666 -0.4952
  410MOL0     C56507   1.042  10.724   5.409 -0.2809  0.0286 -0.4823
  410MOL0     C56508   0.886  10.736   6.203  0.2164 -0.1823 -0.5845
  410MOL0     C56509   0.792  10.755   6.316 -0.7270 -0.4744  0.5517
  410MOL0     C56510   0.859  10.777   6.448 -0.2742  0.8033 -0.3817
  410MOL0     H56511   0.292  10.975   6.477 -1.7752  0.9087 -0.5853
  410MOL0     H56512   0.094  10.945   6.602  0.4950  0.5562 -0.6162
  410MOL0     H56513  -0.234  10.820   6.498 -2.6611  0.1080  2.3491
  410MOL0     H56514  -0.124  10.925   6.583 -0.6889  0.3746 -2.0336
  410MOL0     H56515  -0.176  10.804   6.807 -2.7905 -1.0608  2.8276
  410MOL0     H56516  -0.304  10.886   6.742  0.2930  0.1717  1.7649
  410MOL0     H56517  -0.405  10.700   6.623 -0.7338  0.0150  0.8367
  410MOL0     H56518  -0.291  10.584   6.682  0.7100 -1.0064  5.2292
  410MOL0     H56519  -0.306  10.629   6.897  0.4071 -5.4693 -3.2080
  410MOL0     H56520  -0.433  10.766   6.870  0.8209  0.7107 -1.9130
  410MOL0     H56521  -0.576  10.592   6.776 -0.3762  0.3392  1.2149
  410MOL0     H56522  -0.555  10.592   6.951 -0.1409 -3.6818  1.0912
  410MOL0     H56523  -0.541  10.357   6.841  1.5924 -2.0180  0.7491
  410MOL0     H56524  -0.404  10.419   6.752 -0.3798  0.5344 -0.2352
  410MOL0     H56525  -0.412  10.400   7.061  1.5657 -0.9869  0.6928
  410MOL0     H56526  -0.262  10.420   6.953  1.3263 -2.0234 -1.3542
  410MOL0     H56527  -0.441  10.170   6.980  2.3054 -2.3382  2.5149
  410MOL0     H56528  -0.312  10.199   6.858 -1.2619  1.2226 -0.6335
  410MOL0     H56529  -0.411  10.206   7.227 -1.0822 -0.5768 -1.2295
  410MOL0     H56530  -0.204  10.189   7.470  1.4325  0.3489  0.0047
  410MOL0     H56531  -0.113  10.038   7.445  0.2606  1.5886 -0.2505
  410MOL0     H56532  -0.414  10.077   7.485  0.4284  0.0236 -0.7764
  410MOL0     H56533  -0.352   9.930   7.417 -2.6119  1.9153 -0.9258
  410MOL0     H56534  -0.191   9.912   7.644  2.5692  1.7087 -0.7694
  410MOL0     H56535  -0.298  10.033   7.699 -0.4489 -1.1973  1.0955
  410MOL0     H56536  -0.488   9.900   7.708 -0.9577 -3.2974  5.1633
  410MOL0     H56537  -0.429   9.774   7.600 -2.8877 -0.6499  1.5972
  410MOL0     H56538  -0.286   9.758   8.036 -1.1598  0.3914 -0.3702
  410MOL0     H56539  -0.256   9.457   8.220 -2.3676 -1.0191  2.3913
  410MOL0     H56540  -0.358   9.593   8.278 -1.0302  2.6621 -2.7808
  410MOL0     H56541  -0.200   9.619   8.199  1.1807 -1.0220  0.3897
  410MOL0     H56542  -0.780   9.145   8.041  1.8143  1.0987 -1.4378
  410MOL0     H56543  -0.850   8.946   8.153 -0.2525  0.6071  0.2924
  410MOL0     H56544  -0.884   8.729   8.240 -0.2397 -0.8400  1.4415
  410MOL0     H56545  -0.745   8.711   8.118  0.7184 -4.3250 -1.1862
  410MOL0     H56546  -0.782   8.524   8.368  1.9481 -5.3972  0.7030
  410MOL0     H56547  -0.835   8.494   8.208 -1.8256  3.1193  0.3451
  410MOL0     H56548  -0.538   8.572   8.292 -0.0754 -1.2795  1.5170
  410MOL0     H56549  -0.584   8.518   8.129 -1.4867 -4.4532 -1.2585
  410MOL0     H56550  -0.659   8.301   8.243  0.4839  0.3236 -0.7258
  410MOL0     H56551  -0.571   8.350   8.387  3.3926  0.1270  0.9138
  410MOL0     H56552  -0.463   8.335   8.110 -1.7983  1.0072  0.9721
  410MOL0     H56553  -0.364   8.365   8.253  1.0753  2.0673 -2.5851
  410MOL0     H56554  -0.467   8.124   8.114  0.4682  0.7692 -0.6542
  410MOL0     H56555  -0.520   8.119   8.283  1.8604  0.8972  2.7238
  410MOL0     H56556  -0.300   8.015   8.301 -2.2256  0.2504  1.0302
  410MOL0     H56557  -0.272   8.179   8.356 -1.2846  0.2223 -0.1093
  410MOL0     H56558  -0.085   8.123   8.195  0.1673  0.9682 -0.9987
  410MOL0     H56559  -0.205   8.228   8.115  0.9237 -0.3120 -2.1459
  410MOL0     H56560  -0.479   8.903   8.360  1.1097  2.0572 -0.1395
  410MOL0     H56561  -0.421   9.132   8.278  0.3958 -4.7181  4.6395
  410MOL0     H56562  -0.519   9.376   7.826  2.8018 -0.4856 -2.4771
  410MOL0     H56563  -0.509   9.587   7.704 -1.1204  1.9052  1.3636
  410MOL0     H56564   0.032  10.559   6.428 -0.8025  1.9676  1.4953
  410MOL0     H56565   0.273  10.575   6.314 -0.7106 -1.0117  1.0267
  410MOL0     H56566   0.509  10.729   6.132  1.1400 -2.2226  0.3215
  410MOL0     H56567   0.664  10.702   5.950 -0.3911  2.2167 -0.9815
  410MOL0     H56568   0.817  10.559   5.877 -1.9882  0.6463  1.1151
  410MOL0     H56569   0.824  10.712   5.786 -0.2453 -0.4393 -0.1713
  410MOL0     H56570   1.072  10.551   5.826 -2.2294 -1.5122  0.4290
  410MOL0     H56571   1.041  10.693   5.720 -2.9211  0.8453 -4.1426
  410MOL0     H56572   0.908  10.414   5.679  1.4671 -0.1906  1.6618
  410MOL0     H56573   0.857  10.561   5.593 -1.9580 -0.7016 -0.2215
  410MOL0     H56574   1.031  10.406   5.477  0.7475 -0.2483  1.0986
  410MOL0     H56575   1.147  10.476   5.597  0.1295  2.4556 -0.1667
  410MOL0     H56576   1.025  10.818   5.361 -0.6186  0.7434  0.9799
  410MOL0     H56577   0.993  10.737   6.220  0.3404 -0.8084 -1.2891
  410MOL0     H56578   0.963  10.806   6.429  0.3299 -1.5330 -0.9426
  410MOL0     H56579   0.803  10.849   6.508 -0.9554  0.5061 -0.6549
  410MOL0     H56580   0.872  10.682   6.501 -0.4248 -0.1260 -1.9562
  411MOL0     O56581  10.879   7.294  10.790 -0.0964 -0.4040  0.4829
  411MOL0     C56582  10.899   7.207  10.875 -0.0811 -0.1085  0.5210
  411MOL0     O56583  10.961   7.240  10.985  0.4014 -0.2131 -0.1809
  411MOL0     C56584  11.008   7.368  11.011 -0.4664  0.3986  0.1785
  411MOL0     C56585  10.921   7.474  11.045  0.2439  0.2834  0.7103
  411MOL0     C56586  10.975   7.598  11.090 -0.2866  0.1795  0.3757
  411MOL0     C56587  11.112   7.610  11.105  0.6662  0.2357 -0.5735
  411MOL0     O56588  11.161   7.725  11.161  0.0133 -0.4356 -0.1628
  411MOL0     C56589  11.289   7.771  11.098  0.9865 -0.8346  0.3031
  411MOL0     C56590  11.320   7.922  11.128 -0.4006 -0.2985  0.4969
  411MOL0     C56591  11.290   7.954  11.277 -0.0371 -0.5431  0.4751
  411MOL0     C56592  11.297   8.097  11.293  0.1029 -0.4844 -0.3339
  411MOL0     C56593  11.300   8.149  11.433  0.2653  0.5766 -0.2995
  411MOL0     C56594  11.305   8.301  11.421 -0.4302  0.0102 -0.0091
  411MOL0     C56595  11.296   8.359  11.559 -0.4211 -0.6781 -0.2326
  411MOL0     C56596  11.368   8.498  11.554  0.1627 -1.0897 -0.6526
  411MOL0     N56597  11.378   8.571  11.682 -0.3740 -1.2472 -0.0920
  411MOL0     C56598  11.284   8.626  11.768 -0.2399 -0.4323  0.7048
  411MOL0     C56599  11.350   8.709  11.851  0.1441 -0.4183  0.6769
  411MOL0     C56600  11.298   8.774  11.983 -0.8839  1.2190  0.0338
  411MOL0     C56601  11.317   8.674  12.101  0.5228  1.0854 -0.1032
  411MOL0     C56602  11.449   8.592  12.081 -0.0140 -0.7093  0.0048
  411MOL0     C56603  11.490   8.521  12.208 -0.4212  0.0537 -0.0000
  411MOL0     O56604  11.382   8.442  12.253 -0.1128 -0.9923 -0.5771
  411MOL0     C56605  11.396   8.393  12.378  0.9650  0.0344 -0.4185
  411MOL0     C56606  11.515   8.384  12.458  0.3825 -0.6481 -0.7185
  411MOL0     C56607  11.517   8.338  12.592  0.6657  0.5722  0.7939
  411MOL0     C56608  11.651   8.335  12.660  0.1219  0.4347  0.0460
  411MOL0     C56609  11.398   8.302  12.648  0.4115  0.6009 -0.6532
  411MOL0     C56610  11.389   8.247  12.786 -0.1117  1.1109  0.6333
  411MOL0     O56611  11.301   8.151  12.803  0.0910 -0.8517 -0.1135
  411MOL0     C56612  11.335   8.022  12.753 -0.6277 -0.8838 -0.2086
  411MOL0     C56613  11.244   7.921  12.797 -0.7960  0.1104 -0.2950
  411MOL0     C56614  11.275   7.795  12.766 -0.9939  0.2164 -0.8411
  411MOL0     C56615  11.404   7.752  12.716  0.1415 -0.6954  0.6638
  411MOL0     O56616  11.459   7.622  12.704  0.5572 -0.5556 -0.2632
  411MOL0     C56617  11.362   7.514  12.701 -0.9848 -0.6208  0.3113
  411MOL0     C56618  11.312   7.487  12.566  0.5198  1.5236  1.5531
  411MOL0     C56619  11.415   7.416  12.470  1.1111 -0.6038 -0.2145
  411MOL0     C56620  11.343   7.377  12.336  0.3903  0.0231  0.2029
  411MOL0     C56621  11.441   7.336  12.231 -0.1662 -0.5201 -0.6144
  411MOL0     C56622  11.373   7.309  12.102 -0.9482 -1.4609  0.6455
  411MOL0     C56623  11.472   7.264  11.985  0.8334 -0.2531  0.2295
  411MOL0     C56624  11.608   7.336  11.976 -0.1182 -0.0878  0.7327
  411MOL0    Cl56625  11.687   7.293  11.820 -0.5907  0.1675  0.2978
  411MOL0     C56626  11.492   7.853  12.680 -0.1134  0.3885  1.1475
  411MOL0     C56627  11.459   7.990  12.692  0.5580 -0.1345  0.5891
  411MOL0     O56628  11.457   8.302  12.877  0.6279  0.1090 -0.6882
  411MOL0     C56629  11.283   8.306  12.571  0.9477 -0.8348 -0.4535
  411MOL0     C56630  11.282   8.358  12.446  0.2398  0.6728 -0.9360
  411MOL0     N56631  11.483   8.728  11.801 -0.1666 -0.4936 -0.4852
  411MOL0     N56632  11.495   8.637  11.707  0.6871  0.5043  0.4078
  411MOL0     C56633  11.195   7.511  11.053 -0.5669  0.3880 -0.2432
  411MOL0     C56634  11.146   7.393  10.999  0.3477 -0.2160  0.2476
  411MOL0     C56635  10.879   7.067  10.845  0.0738 -0.0017 -0.0030
  411MOL0     C56636  10.967   6.982  10.916 -0.3288  0.1946 -1.0103
  411MOL0     C56637  10.971   6.846  10.894  0.3377 -0.2570  0.6278
  411MOL0     C56638  10.888   6.784  10.794  0.3724  0.4455  0.4737
  411MOL0     O56639  10.881   6.642  10.761 -0.2392 -0.1305 -0.3729
  411MOL0     C56640  10.973   6.556  10.833  0.1374  0.6797 -0.0382
  411MOL0     C56641  11.115   6.570  10.769  0.4953 -0.3493  0.1573
  411MOL0     C56642  11.217   6.453  10.789 -0.6247 -0.2897  0.3968
  411MOL0     C56643  11.244   6.435  10.936  0.5287  0.0785 -0.2617
  411MOL0     C56644  11.351   6.336  10.952  0.2784  0.8075  0.3069
  411MOL0     C56645  11.443   6.251  10.967 -0.0334 -0.8094  1.7128
  411MOL0     C56646  10.797   6.871  10.739  0.2309 -0.4241  0.3623
  411MOL0     C56647  10.794   7.014  10.750  0.5170  0.9573 -1.6516
  411MOL0     C56648  10.682   7.087  10.679 -0.5444 -0.5514 -0.5566
  411MOL0     H56649  10.814   7.458  11.041  0.1901  0.4507  1.3712
  411MOL0     H56650  10.919   7.680  11.133  0.7377  1.3823 -0.5032
  411MOL0     H56651  11.276   7.769  10.989 -2.2565  2.5066  0.4500
  411MOL0     H56652  11.375   7.720  11.142  0.3475 -0.6351  1.8584
  411MOL0     H56653  11.427   7.934  11.106  0.6649 -3.1151  3.3548
  411MOL0     H56654  11.254   7.975  11.059 -2.7130 -0.9099  2.1266
  411MOL0     H56655  11.191   7.921  11.310 -0.6509  0.1378 -0.6205
  411MOL0     H56656  11.354   7.906  11.352  0.5610 -0.4132  0.0545
  411MOL0     H56657  11.389   8.129  11.244 -0.0422 -0.4206 -0.5655
  411MOL0     H56658  11.211   8.143  11.243  0.2429 -2.1387 -2.2094
  411MOL0     H56659  11.378   8.096  11.489 -2.5921 -3.4058  0.3983
  411MOL0     H56660  11.209   8.118  11.484  1.8536 -1.9646  1.2290
  411MOL0     H56661  11.402   8.320  11.374  0.5201 -1.4904  1.1955
  411MOL0     H56662  11.221   8.336  11.361 -2.4626 -2.7395  0.9958
  411MOL0     H56663  11.345   8.294  11.632  2.0559  1.8462  0.5339
  411MOL0     H56664  11.193   8.382  11.586  0.1152  1.2459  0.3288
  411MOL0     H56665  11.465   8.499  11.503  2.3803 -3.4225  3.0681
  411MOL0     H56666  11.298   8.561  11.497  1.2185  0.9322  0.1633
  411MOL0     H56667  11.185   8.582  11.771  0.3004 -1.6436  2.6222
  411MOL0     H56668  11.192   8.798  11.978 -0.9272  1.1234  0.4578
  411MOL0     H56669  11.348   8.868  12.009 -2.1165  1.4374  1.7561
  411MOL0     H56670  11.315   8.732  12.194  1.2339 -1.0025  1.2713
  411MOL0     H56671  11.226   8.613  12.097  2.1491 -1.5964  1.4956
  411MOL0     H56672  11.443   8.521  11.998  2.6674  0.1650 -1.0696
  411MOL0     H56673  11.520   8.669  12.048  2.8468 -3.1629  0.0002
  411MOL0     H56674  11.575   8.452  12.194 -1.5654 -0.7865 -4.1100
  411MOL0     H56675  11.518   8.585  12.293 -2.6465  0.6026  0.3665
  411MOL0     H56676  11.605   8.420  12.408 -0.7465  1.7813 -1.1570
  411MOL0     H56677  11.683   8.435  12.690  1.6311  0.5833 -1.8529
  411MOL0     H56678  11.728   8.316  12.584 -1.8226  1.6998 -2.3992
  411MOL0     H56679  11.659   8.259  12.738  3.2741  1.8977  1.3188
  411MOL0     H56680  11.160   7.932  12.864 -0.0353  1.3997  0.4858
  411MOL0     H56681  11.208   7.722  12.808  1.0259 -0.6928  0.9769
  411MOL0     H56682  11.422   7.431  12.738 -1.5618 -0.4492  1.7055
  411MOL0     H56683  11.287   7.541  12.776  2.3414  1.6924  3.1342
  411MOL0     H56684  11.228   7.416  12.572  1.5327 -0.0897 -1.3847
  411MOL0     H56685  11.260   7.573  12.523  1.5266  2.5148  2.2823
  411MOL0     H56686  11.447   7.326  12.523 -2.8066 -1.7662  0.4768
  411MOL0     H56687  11.499   7.484  12.448  0.8292 -0.7581 -1.8993
  411MOL0     H56688  11.275   7.458  12.309 -0.9860 -0.7485  1.2462
  411MOL0     H56689  11.272   7.296  12.356 -2.0624  1.1382 -3.0921
  411MOL0     H56690  11.508   7.420  12.210 -0.8759  0.4262  0.7625
  411MOL0     H56691  11.493   7.246  12.263 -1.7833 -1.9039 -1.6858
  411MOL0     H56692  11.321   7.402  12.081 -0.9156 -1.3171  1.2018
  411MOL0     H56693  11.289   7.239  12.112 -3.7651  1.3742 -1.3450
  411MOL0     H56694  11.421   7.272  11.888 -2.1616 -2.8561  1.3959
  411MOL0     H56695  11.494   7.158  12.000 -3.4736 -1.2682  0.8446
  411MOL0     H56696  11.673   7.308  12.059  0.6241  1.7780  0.8244
  411MOL0     H56697  11.590   7.444  11.979  0.3253 -0.0378  2.0823
  411MOL0     H56698  11.592   7.823  12.650 -0.7232  1.6853 -2.6403
  411MOL0     H56699  11.538   8.055  12.655  0.8218 -1.2331 -0.8809
  411MOL0     H56700  11.185   8.285  12.611  0.5740 -0.5215 -1.1906
  411MOL0     H56701  11.188   8.374  12.394 -0.4421 -2.3155 -0.8279
  411MOL0     H56702  11.303   7.520  11.061 -0.4581 -0.5262 -0.5763
  411MOL0     H56703  11.201   7.307  10.964  1.3577  0.4090  0.2734
  411MOL0     H56704  11.034   7.027  10.989 -2.1697  3.5061 -1.1848
  411MOL0     H56705  11.033   6.797  10.968  0.9371 -1.6189 -0.7100
  411MOL0     H56706  10.971   6.567  10.942  1.8955  0.1337  0.0714
  411MOL0     H56707  10.947   6.450  10.821  0.8913  0.4759  0.0968
  411MOL0     H56708  11.178   6.653  10.801  2.5448 -2.7071  2.6378
  411MOL0     H56709  11.106   6.593  10.663 -1.1019 -2.1784 -0.1732
  411MOL0     H56710  11.185   6.355  10.751 -1.1187  0.1754 -0.4181
  411MOL0     H56711  11.313   6.478  10.742  0.0918 -0.9595  1.4722
  411MOL0     H56712  11.155   6.405  10.991  0.8946  2.4452  1.7597
  411MOL0     H56713  11.279   6.526  10.985 -2.8545 -1.6769  6.7869
  411MOL0     H56714  11.519   6.177  10.977  0.1326 -0.6385  1.7371
  411MOL0     H56715  10.724   6.822  10.676  0.5918 -2.6255  1.5579
  411MOL0     H56716  10.636   7.155  10.750  1.0997  0.8398 -0.7593
  411MOL0     H56717  10.719   7.158  10.605  1.1155  0.3749  1.0802
  411MOL0     H56718  10.601   7.024  10.641 -0.3836 -2.3155  1.7410
  412MOL0     O56719   4.375   1.064   9.212 -0.4749 -0.0400  0.1453
  412MOL0     C56720   4.450   1.117   9.291 -0.0919 -0.9848 -0.0227
  412MOL0     O56721   4.446   1.114   9.432  0.2718 -0.0997  0.5566
  412MOL0     C56722   4.340   1.053   9.491 -0.2514 -0.6498  0.2463
  412MOL0     C56723   4.225   1.123   9.523  0.3844 -0.0860 -0.7180
  412MOL0     C56724   4.116   1.050   9.582  0.3177 -1.1295  0.1254
  412MOL0     C56725   4.118   0.912   9.589 -0.2848 -0.4431  1.4583
  412MOL0     O56726   4.025   0.825   9.616  0.4517  0.7546 -0.6992
  412MOL0     C56727   3.959   0.832   9.745 -1.0905 -0.3234  1.3367
  412MOL0     C56728   3.832   0.749   9.733  0.4364  0.2866 -0.4617
  412MOL0     C56729   3.782   0.708   9.871  0.1141 -0.4456  0.0244
  412MOL0     C56730   3.699   0.833   9.920 -0.1117 -0.1637 -1.1655
  412MOL0     C56731   3.692   0.826  10.078 -0.1996 -0.0001 -1.0096
  412MOL0     C56732   3.617   0.944  10.145  0.3577  0.3595  0.4819
  412MOL0     C56733   3.602   0.922  10.301  0.2473  0.8128 -0.9765
  412MOL0     C56734   3.571   1.057  10.374 -0.6875 -0.4402 -0.7706
  412MOL0     N56735   3.568   1.047  10.526  0.3599 -0.5694  0.6205
  412MOL0     C56736   3.454   1.004  10.595  0.0072 -0.0769  0.7659
  412MOL0     C56737   3.501   1.008  10.719  0.6839  0.2281  0.2313
  412MOL0     C56738   3.420   0.980  10.837  1.1662  0.3663  0.4486
  412MOL0     C56739   3.442   1.089  10.945  0.1893 -0.2831 -0.9296
  412MOL0     C56740   3.313   1.109  11.030 -1.1756  0.2437 -0.0542
  412MOL0     C56741   3.257   0.977  11.090  0.2682 -1.3077 -0.1246
  412MOL0     O56742   3.182   1.015  11.198  0.1271  0.0315 -0.3676
  412MOL0     C56743   3.095   0.940  11.273 -0.1820 -0.6539  0.0350
  412MOL0     C56744   3.045   0.814  11.246  1.0082 -0.2875 -0.0201
  412MOL0     C56745   2.959   0.746  11.333  0.9130  0.1387 -0.1759
  412MOL0     C56746   2.913   0.603  11.295  0.6488  0.0543 -0.6512
  412MOL0     C56747   2.925   0.810  11.456  0.2730  0.0632  0.4727
  412MOL0     C56748   2.845   0.750  11.559  0.2989  0.4149 -0.3588
  412MOL0     O56749   2.789   0.625  11.542 -0.7025 -0.7596  0.4074
  412MOL0     C56750   2.715   0.572  11.638 -0.4562 -0.8744 -0.3155
  412MOL0     C56751   2.578   0.604  11.636 -0.3217  0.3536 -0.7544
  412MOL0     C56752   2.493   0.557  11.734  0.3462  1.1374 -0.7760
  412MOL0     C56753   2.543   0.477  11.837  0.0469 -0.0488 -0.4363
  412MOL0     O56754   2.450   0.439  11.931  0.1945 -0.5315 -0.0490
  412MOL0     C56755   2.445   0.297  11.981 -0.4702  0.1448  0.4153
  412MOL0     C56756   2.331   0.268  12.090  0.1617 -0.9698  0.2865
  412MOL0     C56757   2.406   0.256  12.220 -0.6748  0.3090  0.0404
  412MOL0     C56758   2.305   0.229  12.324  0.1020  0.1531 -0.0808
  412MOL0     C56759   2.358   0.227  12.472 -0.9210 -0.6595 -0.7871
  412MOL0     C56760   2.244   0.180  12.579  0.4902  0.7217 -0.0097
  412MOL0     C56761   2.314   0.133  12.715  0.8930 -0.3179 -0.2284
  412MOL0     C56762   2.202   0.155  12.819 -0.9947  0.1103  0.2390
  412MOL0    Cl56763   2.062   0.053  12.793  0.4293 -0.1704  0.2388
  412MOL0     C56764   2.682   0.438  11.849  0.2328 -0.6591  0.9987
  412MOL0     C56765   2.765   0.487  11.736  0.3541 -0.0455 -0.3882
  412MOL0     O56766   2.841   0.809  11.663  0.4975 -0.4987 -0.9849
  412MOL0     C56767   2.991   0.930  11.486 -0.4113 -0.0273  0.2823
  412MOL0     C56768   3.079   0.988  11.390  0.7001 -0.6685  0.2404
  412MOL0     N56769   3.625   1.065  10.727 -0.0591  0.4405 -0.0083
  412MOL0     N56770   3.673   1.077  10.602  0.7176  1.2639 -0.3126
  412MOL0     C56771   4.230   0.852   9.549 -0.6488  0.1428 -0.3685
  412MOL0     C56772   4.347   0.918   9.511  0.5660 -0.3105 -0.4648
  412MOL0     C56773   4.548   1.221   9.230  0.2719  0.4415 -0.6083
  412MOL0     C56774   4.577   1.204   9.097  0.7076 -0.9333  0.6192
  412MOL0     C56775   4.663   1.300   9.032  0.4942  0.0631 -0.5262
  412MOL0     C56776   4.720   1.406   9.098 -0.9119  1.0534  0.5901
  412MOL0     O56777   4.795   1.482   9.018 -0.6761  0.5690  0.2351
  412MOL0     C56778   4.866   1.590   9.075  0.5470  0.5157 -0.2653
  412MOL0     C56779   4.982   1.643   8.977  0.5447  0.8204  0.8062
  412MOL0     C56780   4.919   1.704   8.851 -0.1152 -0.9059 -0.6382
  412MOL0     C56781   4.855   1.841   8.884  0.7471 -0.4554 -0.3433
  412MOL0     C56782   4.811   1.914   8.763  0.0886  0.4773 -0.7852
  412MOL0     C56783   4.760   1.938   8.652 -0.3151 -0.6813  0.7053
  412MOL0     C56784   4.705   1.407   9.240  0.4753 -0.3566 -0.0416
  412MOL0     C56785   4.604   1.328   9.307 -0.2991  0.2452 -0.0004
  412MOL0     C56786   4.583   1.361   9.447  0.3216 -0.1326 -0.1326
  412MOL0     H56787   4.229   1.231   9.519 -0.5521  0.0917  1.5968
  412MOL0     H56788   4.031   1.107   9.619  0.5179 -1.1328  0.5987
  412MOL0     H56789   3.944   0.939   9.764  1.7900  0.7700 -1.7199
  412MOL0     H56790   4.018   0.792   9.829 -1.0207 -0.3364  1.2810
  412MOL0     H56791   3.761   0.811   9.677  2.0486  3.0805  0.4076
  412MOL0     H56792   3.851   0.651   9.688  2.3364 -0.8118  2.4509
  412MOL0     H56793   3.731   0.612   9.876  1.0911 -1.0619 -1.4008
  412MOL0     H56794   3.871   0.720   9.934  0.3246  1.7942 -0.6080
  412MOL0     H56795   3.744   0.928   9.892 -0.9839  2.0376  3.8181
  412MOL0     H56796   3.596   0.825   9.883 -1.2114  0.3981  1.5571
  412MOL0     H56797   3.792   0.814  10.120 -0.2390 -1.5448 -1.2982
  412MOL0     H56798   3.653   0.728  10.109 -1.3316  1.0648  1.2630
  412MOL0     H56799   3.672   1.036  10.122  2.3644 -0.5130  1.5649
  412MOL0     H56800   3.517   0.952  10.102  0.5978 -1.2018 -0.4339
  412MOL0     H56801   3.694   0.879  10.341  0.1311  0.2579 -1.3067
  412MOL0     H56802   3.522   0.848  10.311 -1.3628  2.3680 -1.6666
  412MOL0     H56803   3.647   1.133  10.353  0.2581  0.1490  3.8258
  412MOL0     H56804   3.474   1.098  10.344 -1.5156  1.6229  3.9343
  412MOL0     H56805   3.356   0.965  10.570  0.8953 -1.5868 -0.5460
  412MOL0     H56806   3.443   0.876  10.862 -0.2269 -0.4818 -1.5249
  412MOL0     H56807   3.314   0.962  10.820  1.7048 -0.2678 -3.2704
  412MOL0     H56808   3.528   1.063  11.009  0.8884 -2.9973 -2.7969
  412MOL0     H56809   3.454   1.193  10.915  0.5353 -0.2601 -0.7271
  412MOL0     H56810   3.331   1.183  11.108 -2.9779  0.8425 -0.1732
  412MOL0     H56811   3.234   1.144  10.962 -0.0474 -0.6467 -1.9311
  412MOL0     H56812   3.199   0.922  11.015  1.1395 -0.7064 -1.2866
  412MOL0     H56813   3.339   0.912  11.119  1.2521 -0.4269 -0.8150
  412MOL0     H56814   3.061   0.773  11.147 -1.1896 -2.3168  0.3721
  412MOL0     H56815   2.804   0.598  11.307  0.5397  0.0042 -1.6250
  412MOL0     H56816   2.968   0.535  11.361  2.8150 -0.5688 -2.9551
  412MOL0     H56817   2.946   0.567  11.198  1.8176  2.4073 -1.1922
  412MOL0     H56818   2.543   0.662  11.551 -1.1696 -0.2140 -0.8015
  412MOL0     H56819   2.385   0.570  11.732  0.0360 -0.4989  1.5041
  412MOL0     H56820   2.417   0.234  11.897 -1.5293 -0.6899  1.3590
  412MOL0     H56821   2.546   0.271  12.016 -0.2494 -2.3988 -1.7696
  412MOL0     H56822   2.254   0.346  12.083 -0.5606 -1.7783 -1.2515
  412MOL0     H56823   2.278   0.174  12.071 -0.7291  0.0150 -2.5674
  412MOL0     H56824   2.454   0.347  12.257 -0.0538 -0.9683  2.5672
  412MOL0     H56825   2.486   0.182  12.207  0.6256  1.5679  0.5504
  412MOL0     H56826   2.272   0.127  12.299 -3.0437  1.1183 -0.3282
  412MOL0     H56827   2.216   0.293  12.319 -0.3359 -0.4186  0.2312
  412MOL0     H56828   2.442   0.158  12.464  0.8971  1.5293 -1.8033
  412MOL0     H56829   2.389   0.329  12.497 -0.7431 -0.7678 -0.5737
  412MOL0     H56830   2.178   0.105  12.535  0.2358 -0.6286  2.4948
  412MOL0     H56831   2.195   0.274  12.606  0.8042  1.1615 -0.8996
  412MOL0     H56832   2.405   0.185  12.744  0.1399 -0.1222  1.9450
  412MOL0     H56833   2.340   0.028  12.698  1.3635 -0.0057 -1.5766
  412MOL0     H56834   2.166   0.258  12.826 -0.7350  0.1996  0.2615
  412MOL0     H56835   2.244   0.146  12.920  2.0393  0.2323 -0.9299
  412MOL0     H56836   2.717   0.358  11.913 -0.9652 -1.4625  0.6737
  412MOL0     H56837   2.870   0.460  11.737  0.3711  0.0520  0.4568
  412MOL0     H56838   2.973   0.987  11.577 -1.6850  2.7106 -1.5208
  412MOL0     H56839   3.124   1.082  11.422  0.3924 -1.1462  2.1856
  412MOL0     H56840   4.237   0.744   9.563  0.3021  0.4382  1.8711
  412MOL0     H56841   4.437   0.872   9.469  0.0567 -1.4086 -0.3860
  412MOL0     H56842   4.528   1.134   9.030 -1.0544  1.1487 -0.3771
  412MOL0     H56843   4.678   1.281   8.926  0.2315 -4.4536  0.0284
  412MOL0     H56844   4.796   1.671   9.096  0.0401 -0.3658  1.6766
  412MOL0     H56845   4.917   1.566   9.169  0.5758 -0.8125 -0.5921
  412MOL0     H56846   5.045   1.558   8.949 -0.3869  0.4689 -0.2876
  412MOL0     H56847   5.037   1.714   9.039  0.1431 -0.5003  2.7800
  412MOL0     H56848   5.003   1.732   8.787 -1.1591  3.9740 -0.2757
  412MOL0     H56849   4.850   1.637   8.799  2.4957 -2.4847 -2.2675
  412MOL0     H56850   4.917   1.910   8.941  0.8009  0.6444 -1.6922
  412MOL0     H56851   4.760   1.825   8.935  1.0803 -0.7028  0.2068
  412MOL0     H56852   4.720   1.947   8.553  0.3829 -0.3684  0.4443
  412MOL0     H56853   4.758   1.477   9.304 -1.4145  0.7313  0.4017
  412MOL0     H56854   4.646   1.295   9.507  1.7718 -2.7443 -4.0610
  412MOL0     H56855   4.604   1.466   9.469 -2.7245  1.5925 -4.0902
  412MOL0     H56856   4.483   1.328   9.477  1.6525 -4.4067  0.2588
  413MOL0     O56857   9.089   6.873   6.263  0.2250 -0.1701  0.1975
  413MOL0     C56858   9.167   6.847   6.173  0.2986  0.2204  0.1027
  413MOL0     O56859   9.127   6.845   6.043  0.0709  0.0540  0.4679
  413MOL0     C56860   9.228   6.846   5.945  0.1149  0.7514 -0.1973
  413MOL0     C56861   9.320   6.742   5.916 -0.1443 -0.3119  0.6374
  413MOL0     C56862   9.396   6.747   5.801 -1.4249 -0.8882 -0.0542
  413MOL0     C56863   9.399   6.853   5.711 -0.0625  0.2777  0.1005
  413MOL0     O56864   9.490   6.859   5.609 -0.0698 -0.3922  0.8075
  413MOL0     C56865   9.478   6.954   5.500  0.4714  0.5417 -0.8980
  413MOL0     C56866   9.372   6.934   5.391  0.3153  0.1576 -1.5653
  413MOL0     C56867   9.419   6.807   5.316  0.1120 -0.2115 -0.4476
  413MOL0     C56868   9.321   6.778   5.205  0.3275  0.9368  0.0502
  413MOL0     C56869   9.364   6.647   5.145 -0.4450  0.1023  0.0429
  413MOL0     C56870   9.271   6.618   5.023 -1.0477 -0.5686 -1.5344
  413MOL0     C56871   9.293   6.485   4.953 -0.4577 -0.1657 -0.3572
  413MOL0     C56872   9.427   6.467   4.888  0.8716 -0.7204  0.3733
  413MOL0     N56873   9.426   6.332   4.821 -0.4459 -0.0376  0.3461
  413MOL0     C56874   9.364   6.307   4.701  0.0074 -0.4812  0.5237
  413MOL0     C56875   9.375   6.180   4.672  0.7264 -0.1543 -0.0196
  413MOL0     C56876   9.338   6.105   4.552 -0.0572 -0.1730 -0.1067
  413MOL0     C56877   9.454   6.051   4.469 -0.3533  0.4736  0.2185
  413MOL0     C56878   9.397   5.944   4.369  0.2389  0.5636  0.6117
  413MOL0     C56879   9.509   5.863   4.301 -0.0725 -0.7513  0.3188
  413MOL0     O56880   9.578   5.962   4.217  0.4876  0.5476  0.0587
  413MOL0     C56881   9.516   5.973   4.095 -0.7595  0.0705  0.6927
  413MOL0     C56882   9.566   6.074   4.021  0.4606  0.5240 -0.3227
  413MOL0     C56883   9.531   6.112   3.887  0.0526  0.6656  0.0716
  413MOL0     C56884   9.589   6.242   3.823  0.0930  0.1319  0.3634
  413MOL0     C56885   9.441   6.031   3.814 -0.7644  1.0793  0.6606
  413MOL0     C56886   9.404   6.049   3.672 -0.9104 -0.0504 -0.1771
  413MOL0     O56887   9.317   5.956   3.620 -0.1445 -0.0851  0.2096
  413MOL0     C56888   9.273   5.982   3.493  0.0772 -0.2276 -0.4556
  413MOL0     C56889   9.310   5.891   3.398  1.2154 -0.5006 -0.1925
  413MOL0     C56890   9.268   5.911   3.260 -0.5567 -0.2566 -0.3418
  413MOL0     C56891   9.199   6.027   3.230  0.4991  0.1029  0.5254
  413MOL0     O56892   9.155   6.062   3.102  0.2121 -0.3623 -0.4268
  413MOL0     C56893   9.032   6.000   3.061 -0.5105  0.1528 -0.0919
  413MOL0     C56894   8.988   6.045   2.927 -0.2015 -0.1283  0.6527
  413MOL0     C56895   8.868   5.971   2.870 -0.5051  0.7432  0.1307
  413MOL0     C56896   8.860   5.969   2.717  0.7611  0.0041 -0.6018
  413MOL0     C56897   8.725   5.906   2.659 -0.2744 -0.3515  0.7109
  413MOL0     C56898   8.678   5.968   2.527  0.4141  0.7961 -0.1183
  413MOL0     C56899   8.731   5.907   2.398 -0.0873  0.8293  0.1470
  413MOL0     C56900   8.713   6.002   2.281 -1.0122  0.6586  0.5230
  413MOL0    Cl56901   8.804   5.921   2.152  0.0895  0.2693  0.8828
  413MOL0     C56902   9.162   6.118   3.338  0.1293  0.1517 -0.0219
  413MOL0     C56903   9.204   6.097   3.469 -0.1521 -0.1883  0.7405
  413MOL0     O56904   9.476   6.115   3.602  0.0503  0.2402 -0.0269
  413MOL0     C56905   9.380   5.925   3.891 -0.4001 -0.4517  0.3557
  413MOL0     C56906   9.418   5.895   4.026  0.1723  0.8552  0.7745
  413MOL0     N56907   9.433   6.115   4.782 -0.3276  0.7201  1.1708
  413MOL0     N56908   9.456   6.202   4.871 -0.5427 -0.6916  0.1478
  413MOL0     C56909   9.317   6.959   5.746 -0.2726 -0.0173 -0.8204
  413MOL0     C56910   9.236   6.960   5.864  0.1868 -0.4966 -0.0424
  413MOL0     C56911   9.287   6.784   6.210  0.0041  0.4146 -0.3484
  413MOL0     C56912   9.294   6.644   6.227 -0.0563 -1.1966  0.8624
  413MOL0     C56913   9.420   6.594   6.248 -0.4748 -0.4776  0.0427
  413MOL0     C56914   9.539   6.667   6.237 -0.4254  0.0375 -0.5263
  413MOL0     O56915   9.653   6.599   6.272 -0.4541  0.1002  0.6155
  413MOL0     C56916   9.774   6.644   6.222 -0.2698  0.4564  0.7425
  413MOL0     C56917   9.866   6.535   6.247 -1.0928  1.1436 -0.6116
  413MOL0     C56918  10.010   6.577   6.186 -0.1560  0.1198  0.8647
  413MOL0     C56919  10.129   6.485   6.227  1.1958 -0.1313 -0.0603
  413MOL0     C56920  10.125   6.363   6.140 -0.1806 -0.1948 -0.2161
  413MOL0     C56921  10.129   6.257   6.089 -0.2649 -0.6144 -0.1679
  413MOL0     C56922   9.530   6.800   6.217 -0.2435  0.4703 -0.0480
  413MOL0     C56923   9.412   6.859   6.217  0.1767 -0.9088  0.5434
  413MOL0     C56924   9.402   7.008   6.195  0.2949  0.0091 -0.4523
  413MOL0     H56925   9.312   6.647   5.967  0.9706 -0.2117  1.0152
  413MOL0     H56926   9.465   6.665   5.780 -1.0870 -0.8510  0.8989
  413MOL0     H56927   9.572   6.955   5.444  1.0746 -0.2975  0.0682
  413MOL0     H56928   9.458   7.055   5.536 -0.3126  0.2374 -0.4572
  413MOL0     H56929   9.273   6.927   5.436  1.9147  0.5276  2.4355
  413MOL0     H56930   9.362   7.021   5.325  0.7273  1.6417  0.2615
  413MOL0     H56931   9.516   6.835   5.276 -0.3626  0.8089 -0.9188
  413MOL0     H56932   9.424   6.716   5.377  1.7949 -0.0411 -0.3064
  413MOL0     H56933   9.220   6.762   5.244  0.9401 -0.2795  1.2272
  413MOL0     H56934   9.321   6.861   5.133  1.1081 -0.1804 -1.2860
  413MOL0     H56935   9.355   6.563   5.215 -2.0676 -0.0953 -0.3524
  413MOL0     H56936   9.467   6.651   5.108 -1.5055  0.8325 -3.1718
  413MOL0     H56937   9.166   6.624   5.050 -0.7631 -0.2115 -0.4570
  413MOL0     H56938   9.287   6.699   4.950  1.5326  1.0320  0.6089
  413MOL0     H56939   9.224   6.483   4.868 -1.2990  0.3851  0.2924
  413MOL0     H56940   9.275   6.397   5.016 -0.4725 -0.9037 -1.3585
  413MOL0     H56941   9.442   6.549   4.818 -0.5929 -0.7939 -0.0647
  413MOL0     H56942   9.517   6.482   4.948  2.2155  0.0215 -1.7447
  413MOL0     H56943   9.324   6.376   4.628 -2.8709 -3.5067 -0.9918
  413MOL0     H56944   9.273   6.168   4.491 -1.6283 -1.7854 -0.1951
  413MOL0     H56945   9.277   6.019   4.581 -0.1605  0.1454  0.6415
  413MOL0     H56946   9.514   6.130   4.422  2.1671 -0.5949  1.4548
  413MOL0     H56947   9.524   6.003   4.538  1.0622 -1.2529 -2.2760
  413MOL0     H56948   9.335   5.868   4.417 -0.6816 -1.1809 -2.9533
  413MOL0     H56949   9.327   5.989   4.299  2.1105  1.4169 -0.8169
  413MOL0     H56950   9.570   5.819   4.380  1.4469 -0.9733 -0.9416
  413MOL0     H56951   9.462   5.777   4.252 -1.8620  0.8203 -0.9045
  413MOL0     H56952   9.646   6.135   4.060  3.5283 -2.7211 -1.0665
  413MOL0     H56953   9.513   6.302   3.771 -1.2900 -1.5310  0.3739
  413MOL0     H56954   9.672   6.232   3.753 -1.7120  3.6519 -2.6445
  413MOL0     H56955   9.629   6.304   3.904 -1.2523  0.2116  1.0060
  413MOL0     H56956   9.354   5.796   3.426 -0.3356 -1.0411  0.5073
  413MOL0     H56957   9.288   5.835   3.186  2.4225  1.0986 -1.1126
  413MOL0     H56958   9.061   5.898   3.035 -3.2637  0.1178 -3.9357
  413MOL0     H56959   8.954   6.010   3.137 -0.9495  0.0033 -0.5134
  413MOL0     H56960   8.965   6.152   2.932  0.1605  0.1336 -1.7429
  413MOL0     H56961   9.066   6.037   2.851 -2.1475 -0.0865 -1.4945
  413MOL0     H56962   8.781   6.032   2.898 -0.8990  0.2821 -0.0873
  413MOL0     H56963   8.860   5.868   2.907  0.8336 -0.7631 -3.3583
  413MOL0     H56964   8.946   5.922   2.668 -0.8514  0.1014 -3.8423
  413MOL0     H56965   8.853   6.072   2.683 -3.1371  0.7704  1.8774
  413MOL0     H56966   8.716   5.798   2.659  1.6626 -0.6441  3.6374
  413MOL0     H56967   8.649   5.930   2.734 -0.5258 -0.4442  0.4857
  413MOL0     H56968   8.702   6.075   2.531  1.2610  0.5893  3.3073
  413MOL0     H56969   8.569   5.966   2.528  0.4193  0.1282  1.2368
  413MOL0     H56970   8.673   5.820   2.368  0.6238  1.1807 -2.4957
  413MOL0     H56971   8.834   5.872   2.409  0.5535  1.1520 -3.5262
  413MOL0     H56972   8.761   6.100   2.294 -0.3208  0.2529  1.1202
  413MOL0     H56973   8.605   6.015   2.270 -1.2131  0.0350  1.6039
  413MOL0     H56974   9.106   6.205   3.306 -1.6192 -1.6705 -2.3092
  413MOL0     H56975   9.196   6.168   3.551  5.0023  0.1290  1.3541
  413MOL0     H56976   9.303   5.863   3.845 -0.5435 -0.8125  1.0632
  413MOL0     H56977   9.368   5.810   4.073  1.8588 -1.5920 -1.5345
  413MOL0     H56978   9.324   7.060   5.707  1.9012 -0.0810 -0.7146
  413MOL0     H56979   9.168   7.043   5.879  1.0396  0.1605  0.2646
  413MOL0     H56980   9.202   6.587   6.227 -0.3536 -0.7571 -0.6245
  413MOL0     H56981   9.436   6.488   6.268 -2.0028 -0.4393  1.8280
  413MOL0     H56982   9.764   6.659   6.114  1.4513 -1.8212  0.1712
  413MOL0     H56983   9.809   6.737   6.267 -0.7891  0.8227  0.4115
  413MOL0     H56984   9.840   6.440   6.199 -0.1359  0.1177  0.8101
  413MOL0     H56985   9.883   6.530   6.355  1.2179  2.5114 -0.8395
  413MOL0     H56986  10.020   6.566   6.077  3.0087  0.0933  1.0820
  413MOL0     H56987  10.022   6.684   6.207 -1.4826  0.3378  0.6084
  413MOL0     H56988  10.122   6.463   6.334  2.1630  2.7177  0.6878
  413MOL0     H56989  10.220   6.546   6.229 -0.3051  2.3979 -2.2035
  413MOL0     H56990  10.137   6.169   6.028  0.4415 -0.6714  0.0001
  413MOL0     H56991   9.626   6.851   6.214  1.3899 -2.3498  0.5325
  413MOL0     H56992   9.306   7.045   6.231  0.1053 -0.7460 -0.1604
  413MOL0     H56993   9.486   7.063   6.241  0.2255 -1.2666  1.2736
  413MOL0     H56994   9.416   7.028   6.088  1.8919 -0.6288 -0.3994
  414MOL0     O56995   9.022   0.369   8.827  0.4377  0.7649  0.0692
  414MOL0     C56996   9.045   0.452   8.913 -0.2136  0.1965  0.7990
  414MOL0     O56997   8.966   0.565   8.925 -0.7690  0.0671  0.2287
  414MOL0     C56998   8.886   0.604   8.823 -0.7117  0.0900 -0.2638
  414MOL0     C56999   8.932   0.676   8.716  0.0021 -0.0137  0.4921
  414MOL0     C57000   8.848   0.723   8.615 -0.1128 -0.7370 -0.4824
  414MOL0     C57001   8.714   0.693   8.618  0.7095 -0.5871  0.6627
  414MOL0     O57002   8.632   0.755   8.532  0.1152  0.5631  0.3245
  414MOL0     C57003   8.493   0.780   8.577 -0.2440  0.4371 -0.2806
  414MOL0     C57004   8.443   0.895   8.491  0.4948  0.1430 -0.2298
  414MOL0     C57005   8.458   1.033   8.562 -0.9036  0.9744 -0.7254
  414MOL0     C57006   8.376   1.141   8.497 -0.0985 -0.4266 -0.3090
  414MOL0     C57007   8.395   1.262   8.591 -0.4702 -0.8898  0.3597
  414MOL0     C57008   8.327   1.387   8.536 -0.0868  0.5257  0.5119
  414MOL0     C57009   8.182   1.385   8.569 -0.0174  1.3245  0.4553
  414MOL0     C57010   8.115   1.491   8.496 -0.8295 -0.1938 -0.0501
  414MOL0     N57011   7.973   1.489   8.523  0.1511 -0.4157 -0.0491
  414MOL0     C57012   7.915   1.492   8.649  0.0448  0.0735  0.6337
  414MOL0     C57013   7.791   1.542   8.616 -0.1384 -0.0982  0.6494
  414MOL0     C57014   7.705   1.603   8.718  0.1968  0.2591 -0.0265
  414MOL0     C57015   7.599   1.499   8.756 -0.2782  0.1005 -0.5454
  414MOL0     C57016   7.487   1.579   8.838  0.4303 -1.2731 -0.7397
  414MOL0     C57017   7.373   1.495   8.908  0.2528 -0.6080 -0.0429
  414MOL0     O57018   7.318   1.549   9.028 -0.1779  0.8099  0.1798
  414MOL0     C57019   7.236   1.659   9.028 -0.3181  0.0347 -0.2211
  414MOL0     C57020   7.195   1.708   9.151 -0.9466 -0.9127 -0.0033
  414MOL0     C57021   7.118   1.826   9.171 -0.4793  0.1098  0.1014
  414MOL0     C57022   7.073   1.862   9.311  0.1023  0.3466  0.0199
  414MOL0     C57023   7.063   1.889   9.063  1.0748 -0.0858  0.5792
  414MOL0     C57024   6.950   1.996   9.061  0.7136 -0.0660  1.1657
  414MOL0     O57025   6.910   2.036   8.931 -0.5324 -0.1592 -0.1660
  414MOL0     C57026   6.784   2.085   8.909  1.0312  0.5675 -0.1674
  414MOL0     C57027   6.676   2.005   8.924  0.4998  0.2671  0.7449
  414MOL0     C57028   6.553   2.043   8.870  0.1020  0.0107 -0.0622
  414MOL0     C57029   6.526   2.173   8.825 -1.3641 -0.4665  0.1215
  414MOL0     O57030   6.401   2.213   8.777  0.2113 -0.1607 -1.0564
  414MOL0     C57031   6.384   2.345   8.722 -0.8367  0.4413  0.1729
  414MOL0     C57032   6.234   2.360   8.687  0.0260 -0.3421  0.7188
  414MOL0     C57033   6.156   2.379   8.823  1.0717  0.3624  0.3267
  414MOL0     C57034   6.008   2.369   8.794  0.0597 -0.8381 -0.2614
  414MOL0     C57035   5.923   2.382   8.918 -0.0762  0.1725 -0.7999
  414MOL0     C57036   5.768   2.383   8.877  0.3907 -0.3964  0.7385
  414MOL0     C57037   5.720   2.259   8.806 -0.1019  0.3168 -0.4870
  414MOL0     C57038   5.567   2.250   8.802 -0.2563 -0.6671  0.0087
  414MOL0    Cl57039   5.528   2.331   8.651  0.3164  0.1676 -0.0874
  414MOL0     C57040   6.643   2.255   8.814  0.6668  0.1193  0.6017
  414MOL0     C57041   6.764   2.207   8.846 -0.1389 -0.7184 -0.2599
  414MOL0     O57042   6.901   2.034   9.168 -0.1463 -0.8963 -0.6372
  414MOL0     C57043   7.101   1.836   8.933 -0.1642 -0.1759 -0.0651
  414MOL0     C57044   7.191   1.731   8.923 -0.0853  0.3564 -0.0159
  414MOL0     N57045   7.775   1.538   8.477 -0.0490  0.1201 -0.2277
  414MOL0     N57046   7.887   1.507   8.421  0.7587 -0.2027  0.1863
  414MOL0     C57047   8.671   0.601   8.719 -0.1035 -0.4542  0.0185
  414MOL0     C57048   8.753   0.554   8.824  0.6699 -0.1195 -0.2755
  414MOL0     C57049   9.151   0.453   9.018 -0.0062  0.2856 -0.4366
  414MOL0     C57050   9.155   0.560   9.104  0.6807 -0.3206  0.2542
  414MOL0     C57051   9.271   0.582   9.180 -0.1672  0.0406  0.3102
  414MOL0     C57052   9.380   0.494   9.188 -0.7473  0.1387 -0.3843
  414MOL0     O57053   9.485   0.499   9.271  0.5904 -0.4399 -0.4490
  414MOL0     C57054   9.483   0.599   9.376  0.4548 -0.6016  0.7918
  414MOL0     C57055   9.402   0.564   9.501  0.4804 -0.3017  0.5638
  414MOL0     C57056   9.392   0.412   9.534 -1.2461  0.0421 -0.4056
  414MOL0     C57057   9.356   0.384   9.680 -0.2787  0.0231 -0.0551
  414MOL0     C57058   9.223   0.432   9.716 -0.3422 -0.5653  0.1943
  414MOL0     C57059   9.124   0.461   9.778  0.5885 -0.3062 -0.3669
  414MOL0     C57060   9.377   0.385   9.103 -0.7191 -0.4534  0.0657
  414MOL0     C57061   9.265   0.361   9.023  0.3664  0.3375 -0.2933
  414MOL0     C57062   9.270   0.244   8.942 -0.3961  0.6734  0.4535
  414MOL0     H57063   9.035   0.706   8.700 -1.4371  4.3291 -2.5014
  414MOL0     H57064   8.892   0.784   8.537  2.0475 -2.2576 -0.5470
  414MOL0     H57065   8.500   0.805   8.683  1.8177 -0.1911 -0.2191
  414MOL0     H57066   8.432   0.692   8.560 -1.3811  1.2891 -0.7421
  414MOL0     H57067   8.492   0.889   8.393 -0.1363 -1.4999 -0.4752
  414MOL0     H57068   8.338   0.876   8.472  0.4553 -0.3861  0.5028
  414MOL0     H57069   8.444   1.017   8.669  4.2677 -2.3177 -0.2061
  414MOL0     H57070   8.566   1.047   8.550 -0.9584  1.2700 -0.8922
  414MOL0     H57071   8.418   1.155   8.397  2.6742  1.9586  1.0308
  414MOL0     H57072   8.273   1.105   8.495 -0.2135 -0.0652 -0.7651
  414MOL0     H57073   8.503   1.277   8.603 -0.5456 -0.8856  1.0763
  414MOL0     H57074   8.359   1.251   8.693 -1.4708  2.2948  0.4696
  414MOL0     H57075   8.361   1.478   8.587  0.5672  0.1675  0.7247
  414MOL0     H57076   8.355   1.397   8.431 -0.6097 -0.4588  0.2689
  414MOL0     H57077   8.182   1.389   8.678  1.8999  0.6051  0.5215
  414MOL0     H57078   8.129   1.292   8.545 -1.2779  2.1201  0.0676
  414MOL0     H57079   8.171   1.580   8.527 -2.2634  0.0045  2.2902
  414MOL0     H57080   8.150   1.477   8.394  2.1803  1.9744  0.5607
  414MOL0     H57081   7.961   1.478   8.746  2.1710  0.0857 -0.3301
  414MOL0     H57082   7.644   1.691   8.694 -1.1016 -0.1568  1.6100
  414MOL0     H57083   7.767   1.640   8.800 -0.7954  2.3401 -0.1414
  414MOL0     H57084   7.561   1.451   8.666  1.2405  2.5965 -2.6744
  414MOL0     H57085   7.654   1.426   8.817  0.4739  1.5065  0.5373
  414MOL0     H57086   7.546   1.638   8.909  0.5192 -0.4447 -1.4936
  414MOL0     H57087   7.445   1.658   8.776 -0.8778 -1.9486 -0.7548
  414MOL0     H57088   7.291   1.499   8.837 -2.0384  0.1963  2.4870
  414MOL0     H57089   7.412   1.396   8.936  4.0731  0.2191 -1.7910
  414MOL0     H57090   7.220   1.654   9.241 -1.2084 -0.6751  0.2162
  414MOL0     H57091   7.114   1.802   9.393 -1.8450 -0.4431  0.4580
  414MOL0     H57092   6.965   1.860   9.328  0.4928 -0.0207  3.1492
  414MOL0     H57093   7.100   1.964   9.340  0.1524  0.9222 -1.9528
  414MOL0     H57094   6.683   1.908   8.972  0.7426 -1.2347 -2.1100
  414MOL0     H57095   6.477   1.970   8.845 -1.0245  1.9862 -2.9824
  414MOL0     H57096   6.412   2.424   8.793 -0.1744 -0.4626  0.9492
  414MOL0     H57097   6.435   2.359   8.626  1.3316  1.3494  1.3629
  414MOL0     H57098   6.215   2.450   8.627 -2.4005  1.0805  3.3569
  414MOL0     H57099   6.204   2.271   8.630  1.3480 -0.6158  0.4265
  414MOL0     H57100   6.191   2.472   8.868  2.5499  0.0073 -0.0376
  414MOL0     H57101   6.168   2.291   8.887  1.0806 -0.2657 -0.5153
  414MOL0     H57102   5.991   2.267   8.758  1.4116 -2.0456  2.2510
  414MOL0     H57103   5.987   2.448   8.721 -1.9796 -0.0957  1.0594
  414MOL0     H57104   5.934   2.304   8.993  0.9298 -0.2219 -1.3486
  414MOL0     H57105   5.947   2.468   8.981  2.1457 -3.5653  4.0430
  414MOL0     H57106   5.752   2.461   8.802  0.3401 -2.4611 -1.5151
  414MOL0     H57107   5.707   2.396   8.967 -1.0748  2.8237 -0.5697
  414MOL0     H57108   5.753   2.176   8.869  2.4904 -0.1066 -2.2637
  414MOL0     H57109   5.767   2.266   8.707  1.6810  0.7313  0.3389
  414MOL0     H57110   5.533   2.308   8.887  1.3983 -0.0928  0.3082
  414MOL0     H57111   5.529   2.147   8.807  0.2192 -0.8301  0.3383
  414MOL0     H57112   6.641   2.355   8.771 -0.4093 -1.2340 -2.8900
  414MOL0     H57113   6.850   2.271   8.830 -0.2417  0.0412  1.8763
  414MOL0     H57114   7.063   1.876   8.839 -0.1963 -0.7729 -0.3060
  414MOL0     H57115   7.217   1.705   8.821 -1.1895 -1.1895  0.0461
  414MOL0     H57116   8.566   0.573   8.725 -0.6812  1.2233 -1.4082
  414MOL0     H57117   8.714   0.487   8.900 -0.0071 -0.6949 -1.0991
  414MOL0     H57118   9.073   0.632   9.115  0.6507 -0.0830 -1.3348
  414MOL0     H57119   9.278   0.672   9.240 -0.0262 -0.0129  0.3763
  414MOL0     H57120   9.590   0.612   9.399  1.2294 -1.8147 -1.7333
  414MOL0     H57121   9.450   0.696   9.338 -0.4144 -1.2102 -0.0409
  414MOL0     H57122   9.305   0.609   9.477  0.6050 -0.2806  0.0935
  414MOL0     H57123   9.445   0.622   9.584  2.0663  4.3250 -3.0654
  414MOL0     H57124   9.319   0.368   9.465  0.1596  1.6095 -3.0687
  414MOL0     H57125   9.486   0.366   9.503 -0.0762  2.8344 -1.3006
  414MOL0     H57126   9.440   0.421   9.740  0.4890 -1.9629  0.1811
  414MOL0     H57127   9.363   0.275   9.685  1.5143 -0.2196 -4.1881
  414MOL0     H57128   9.031   0.489   9.824 -0.1465  0.4509 -2.2355
  414MOL0     H57129   9.453   0.308   9.100  1.7826  1.8469 -0.0854
  414MOL0     H57130   9.362   0.186   8.958  0.2370  1.4156 -0.3591
  414MOL0     H57131   9.180   0.183   8.948 -0.1257  0.3946  1.9931
  414MOL0     H57132   9.288   0.264   8.836  4.6120  2.5863  1.3465
  415MOL0     O57133   6.054   8.822   6.071  0.0147 -0.1125 -0.3807
  415MOL0     C57134   5.939   8.776   6.068 -0.8575 -0.2698  0.0474
  415MOL0     O57135   5.906   8.649   6.102  0.2198  0.4210 -0.5567
  415MOL0     C57136   5.781   8.600   6.075 -0.0192 -0.3657  0.0132
  415MOL0     C57137   5.706   8.551   6.178  0.5525  0.2551 -0.1934
  415MOL0     C57138   5.583   8.485   6.167  0.3687 -0.4748  0.5599
  415MOL0     C57139   5.532   8.469   6.038  0.0392 -0.6786  0.9576
  415MOL0     O57140   5.418   8.406   6.013  0.5515  0.7564 -0.5678
  415MOL0     C57141   5.360   8.398   5.885 -0.0383 -0.7696  0.4607
  415MOL0     C57142   5.231   8.331   5.873  0.0577  0.5286 -1.3513
  415MOL0     C57143   5.241   8.177   5.915 -0.0861  0.1529 -0.0541
  415MOL0     C57144   5.159   8.143   6.040  0.0909  1.0513 -1.2287
  415MOL0     C57145   5.147   7.992   6.065 -0.2808 -0.1598  0.1189
  415MOL0     C57146   5.071   7.913   5.953  0.6694 -0.1903  0.0295
  415MOL0     C57147   4.937   7.961   5.921  0.1988 -0.3881  0.3573
  415MOL0     C57148   4.836   7.974   6.043  0.0406  0.2755  0.3672
  415MOL0     N57149   4.714   8.036   5.981  0.0358  0.3676  0.2637
  415MOL0     C57150   4.614   7.973   5.914 -0.0706 -0.1521 -0.4950
  415MOL0     C57151   4.519   8.077   5.884 -0.2958  0.2579  0.4898
  415MOL0     C57152   4.397   8.046   5.796 -0.3697 -0.5111  0.4387
  415MOL0     C57153   4.403   8.119   5.654  0.5033  0.1541  0.1242
  415MOL0     C57154   4.529   8.087   5.572 -0.9900 -0.2017  0.2077
  415MOL0     C57155   4.541   7.931   5.545 -0.5397  0.5491 -1.0927
  415MOL0     O57156   4.627   7.912   5.426  0.0132  0.5936  0.4939
  415MOL0     C57157   4.763   7.930   5.436  0.1011  1.0769  0.0708
  415MOL0     C57158   4.834   7.922   5.322  0.1848  0.5348 -0.6456
  415MOL0     C57159   4.964   7.963   5.305 -0.7092  0.2175 -0.7640
  415MOL0     C57160   5.035   7.921   5.174  0.0308 -0.8208 -0.2005
  415MOL0     C57161   5.040   8.011   5.417  0.6355  0.1409 -0.3641
  415MOL0     C57162   5.189   8.042   5.422 -1.1571 -0.6048  0.1655
  415MOL0     O57163   5.227   8.099   5.544  0.0378  0.4841  0.1153
  415MOL0     C57164   5.344   8.179   5.545  0.7375 -0.6306 -0.4482
  415MOL0     C57165   5.328   8.317   5.513  1.0243 -0.5573 -0.5328
  415MOL0     C57166   5.431   8.401   5.532  0.0418  0.4011 -0.5955
  415MOL0     C57167   5.559   8.358   5.567 -0.2632  0.1283  0.3678
  415MOL0     O57168   5.658   8.457   5.574 -0.2546  0.7482 -0.3750
  415MOL0     C57169   5.794   8.416   5.534  0.4000  0.2403 -0.0775
  415MOL0     C57170   5.886   8.372   5.660  0.2598  0.4955 -0.7158
  415MOL0     C57171   5.979   8.275   5.602  0.7092  0.4376  0.2509
  415MOL0     C57172   6.105   8.253   5.687  0.2877  0.7515  0.3932
  415MOL0     C57173   6.182   8.135   5.620 -0.5526 -0.6636  0.7291
  415MOL0     C57174   6.144   7.998   5.681  0.3861 -0.6706 -1.2199
  415MOL0     C57175   6.243   7.892   5.621  0.6386 -0.0277  0.1447
  415MOL0     C57176   6.223   7.747   5.650  0.8188  0.2290  0.0675
  415MOL0    Cl57177   6.247   7.738   5.836  0.1313  0.3214 -0.2913
  415MOL0     C57178   5.575   8.224   5.604 -0.0930  0.2628  0.1894
  415MOL0     C57179   5.467   8.135   5.584  0.1024 -0.3157 -0.0920
  415MOL0     O57180   5.259   8.031   5.321 -0.0229 -0.1265 -0.5407
  415MOL0     C57181   4.960   8.011   5.541  0.1151  0.9781  0.1789
  415MOL0     C57182   4.833   7.967   5.548  0.8027  0.0541 -0.6307
  415MOL0     N57183   4.574   8.194   5.925  0.4369 -0.3768 -0.3940
  415MOL0     N57184   4.696   8.167   5.965  0.1513  0.3443 -0.9622
  415MOL0     C57185   5.603   8.521   5.920 -0.3013 -0.2003 -0.4165
  415MOL0     C57186   5.720   8.595   5.946  0.4337  0.1408  0.2214
  415MOL0     C57187   5.840   8.875   6.036  0.4622 -0.0157  0.1994
  415MOL0     C57188   5.762   8.899   6.150 -0.1704 -0.7749  0.0716
  415MOL0     C57189   5.656   8.988   6.143 -0.0759  0.0025 -0.0836
  415MOL0     C57190   5.624   9.047   6.013  0.9402 -0.4569  0.2130
  415MOL0     O57191   5.510   9.122   5.985 -0.4572 -0.5954 -0.4552
  415MOL0     C57192   5.408   9.155   6.087  0.2476  0.6325 -0.0228
  415MOL0     C57193   5.324   9.269   6.031 -0.0239 -0.3300  1.1695
  415MOL0     C57194   5.260   9.223   5.895 -0.4239 -0.3765 -0.3478
  415MOL0     C57195   5.131   9.140   5.917 -0.1607 -0.1223  0.1099
  415MOL0     C57196   5.030   9.204   5.992  0.0972 -0.6307  0.7790
  415MOL0     C57197   4.959   9.265   6.064 -0.0394 -0.1787  0.3772
  415MOL0     C57198   5.710   9.030   5.906 -0.0123  0.7932  0.3424
  415MOL0     C57199   5.825   8.945   5.915  0.4709 -0.4928 -0.1691
  415MOL0     C57200   5.913   8.935   5.797 -0.7834  0.5591 -0.3344
  415MOL0     H57201   5.741   8.556   6.280  0.3093 -0.2124 -0.0845
  415MOL0     H57202   5.527   8.471   6.259  3.3311 -0.0072  2.6134
  415MOL0     H57203   5.421   8.337   5.818 -1.8154  0.2233 -2.1796
  415MOL0     H57204   5.351   8.501   5.850  1.5471 -0.9937 -0.7283
  415MOL0     H57205   5.181   8.388   5.952  1.7592 -1.5893  1.4265
  415MOL0     H57206   5.187   8.354   5.775 -0.9064 -0.1839 -1.1001
  415MOL0     H57207   5.219   8.130   5.819 -1.8189 -0.0112  0.3928
  415MOL0     H57208   5.343   8.143   5.935 -0.4957  0.1698  2.3357
  415MOL0     H57209   5.211   8.176   6.130 -1.6320 -5.0348  2.5838
  415MOL0     H57210   5.066   8.199   6.034  0.5205  2.4682  2.7017
  415MOL0     H57211   5.078   7.976   6.148 -2.5202  1.2377 -1.3805
  415MOL0     H57212   5.244   7.942   6.075 -0.1345 -0.1231 -1.0101
  415MOL0     H57213   5.128   7.918   5.859 -0.7773  0.4556 -0.8511
  415MOL0     H57214   5.067   7.806   5.976  0.9993  0.4145  3.2593
  415MOL0     H57215   4.893   7.883   5.858  0.2791 -0.1470 -0.0051
  415MOL0     H57216   4.937   8.056   5.866 -0.6783  0.3694  1.6356
  415MOL0     H57217   4.809   7.875   6.082  1.0485  0.9050  2.7935
  415MOL0     H57218   4.860   8.040   6.127 -0.1121 -0.7105  1.2070
  415MOL0     H57219   4.611   7.868   5.889  1.5731 -0.8080  1.7180
  415MOL0     H57220   4.305   8.076   5.848 -0.5523  2.4007 -1.3082
  415MOL0     H57221   4.384   7.941   5.770 -1.6941 -0.0718 -0.8256
  415MOL0     H57222   4.318   8.081   5.598 -0.4015 -2.9555  3.2649
  415MOL0     H57223   4.390   8.225   5.679 -2.2743  1.0913 -4.2427
  415MOL0     H57224   4.526   8.145   5.479 -1.7711  2.1046  1.5935
  415MOL0     H57225   4.615   8.126   5.627  0.2940 -2.0782 -0.4044
  415MOL0     H57226   4.570   7.872   5.633 -0.1267 -0.0694 -1.6315
  415MOL0     H57227   4.449   7.879   5.519 -1.0247 -1.3102  3.4345
  415MOL0     H57228   4.784   7.879   5.235 -0.7234 -1.3760  0.7446
  415MOL0     H57229   5.076   8.012   5.130 -0.9473 -1.3743 -2.4068
  415MOL0     H57230   4.964   7.885   5.099  0.5495 -2.5651  0.0975
  415MOL0     H57231   5.110   7.843   5.185 -1.6517 -2.5492 -0.5162
  415MOL0     H57232   5.225   8.350   5.504  0.5834 -2.3879 -3.8859
  415MOL0     H57233   5.419   8.509   5.526 -1.6578  0.1984 -1.5384
  415MOL0     H57234   5.805   8.332   5.465  0.0743 -0.6685  0.9569
  415MOL0     H57235   5.852   8.490   5.477  0.1407 -0.4803 -1.3102
  415MOL0     H57236   5.940   8.449   5.716  2.7447 -1.7902  0.2404
  415MOL0     H57237   5.819   8.316   5.726  1.5376 -1.0714 -0.6938
  415MOL0     H57238   6.011   8.311   5.504  2.8702  3.3031  1.8364
  415MOL0     H57239   5.931   8.178   5.590  3.8671 -1.1333 -0.6801
  415MOL0     H57240   6.076   8.236   5.791 -2.8837 -0.8052 -0.6203
  415MOL0     H57241   6.181   8.332   5.681  1.3731 -0.1730  1.4749
  415MOL0     H57242   6.151   8.131   5.515  0.1862 -0.1841  0.4823
  415MOL0     H57243   6.291   8.143   5.628 -0.6838 -0.4749  2.9472
  415MOL0     H57244   6.041   7.980   5.651  0.2349 -0.0547 -1.0843
  415MOL0     H57245   6.151   7.995   5.790  1.3972 -1.8475 -1.2900
  415MOL0     H57246   6.341   7.911   5.667  0.1995  2.1898  0.2645
  415MOL0     H57247   6.249   7.904   5.512 -1.4668  1.7982  0.1549
  415MOL0     H57248   6.293   7.684   5.595  1.8779 -0.1089  1.7297
  415MOL0     H57249   6.125   7.713   5.613 -0.5274  3.4568  0.2930
  415MOL0     H57250   5.672   8.192   5.640 -0.1823  1.3412  1.4640
  415MOL0     H57251   5.482   8.037   5.629  3.8036 -0.7447 -1.8370
  415MOL0     H57252   5.016   8.035   5.631  4.9848 -0.9231 -1.9582
  415MOL0     H57253   4.790   7.965   5.647  1.6597 -1.2504 -0.2642
  415MOL0     H57254   5.562   8.517   5.820 -1.3652  1.5416 -0.0951
  415MOL0     H57255   5.775   8.624   5.857  0.4192  0.4579  0.3143
  415MOL0     H57256   5.789   8.851   6.244 -1.3935 -1.7036 -0.0212
  415MOL0     H57257   5.598   9.014   6.231  1.5945  1.1244  0.7525
  415MOL0     H57258   5.348   9.066   6.109  0.2632  0.1894 -1.6484
  415MOL0     H57259   5.450   9.189   6.183 -0.9991  2.5846 -0.1374
  415MOL0     H57260   5.404   9.340   6.006  0.3841 -1.6920 -1.8508
  415MOL0     H57261   5.255   9.313   6.103  0.3900  0.6435  0.9939
  415MOL0     H57262   5.242   9.307   5.827 -1.2255  0.3644  0.7384
  415MOL0     H57263   5.324   9.157   5.836 -0.1227 -0.1622 -0.2652
  415MOL0     H57264   5.143   9.038   5.956  1.2507 -0.4566 -1.0831
  415MOL0     H57265   5.089   9.120   5.818  0.0858 -0.9069  0.1533
  415MOL0     H57266   4.892   9.315   6.132 -2.4410 -1.0978 -1.1858
  415MOL0     H57267   5.693   9.090   5.817  0.6502  2.5706  1.3560
  415MOL0     H57268   5.953   9.034   5.775  0.4716 -0.0657 -0.9645
  415MOL0     H57269   5.996   8.867   5.817 -1.6580 -1.1433 -2.0538
  415MOL0     H57270   5.858   8.890   5.714  1.9526 -3.5674 -0.1948
  416MOL0     O57271   9.937   5.468   9.226 -0.3743  0.2278  0.1168
  416MOL0     C57272   9.944   5.521   9.338  0.3213  0.3512 -0.5463
  416MOL0     O57273  10.057   5.535   9.420  0.7345 -0.2650  0.0509
  416MOL0     C57274  10.153   5.448   9.394  0.3204  0.1990 -0.5025
  416MOL0     C57275  10.282   5.495   9.362  0.4085  0.6056 -0.4393
  416MOL0     C57276  10.388   5.408   9.359  0.8561  0.4213  0.4041
  416MOL0     C57277  10.363   5.271   9.367  0.2322  0.2864  0.4287
  416MOL0     O57278  10.469   5.194   9.350 -0.0890  0.4807 -0.2573
  416MOL0     C57279  10.507   5.114   9.468  1.2319 -0.4248 -0.3374
  416MOL0     C57280  10.631   5.173   9.541  0.8664 -0.3219  0.6655
  416MOL0     C57281  10.675   5.085   9.664 -0.1888 -1.0836  0.2986
  416MOL0     C57282  10.733   5.170   9.770  0.2449 -0.4997 -0.1422
  416MOL0     C57283  10.786   5.090   9.886 -0.2720 -0.0711  0.4595
  416MOL0     C57284  10.838   5.169  10.010 -0.4331 -0.5847  1.3503
  416MOL0     C57285  10.768   5.296  10.057 -0.2286  0.1281 -0.3998
  416MOL0     C57286  10.611   5.291  10.085 -0.0025  0.9124 -0.1044
  416MOL0     N57287  10.564   5.404  10.164 -1.1605  0.1182  0.3274
  416MOL0     C57288  10.544   5.534  10.122  0.7219  0.5637  0.0444
  416MOL0     C57289  10.511   5.611  10.228 -0.5144  0.1458 -0.7679
  416MOL0     C57290  10.503   5.758  10.228 -0.0287 -0.4930  0.0772
  416MOL0     C57291  10.429   5.818  10.352 -0.5320  0.5723  0.9892
  416MOL0     C57292  10.470   5.969  10.375 -0.6496  0.9294  0.2542
  416MOL0     C57293  10.437   6.069  10.267 -0.0274  0.1730 -0.2902
  416MOL0     O57294  10.427   6.203  10.326 -0.2948 -0.1259  0.2026
  416MOL0     C57295  10.453   6.318  10.256 -0.2605 -0.2662  0.1806
  416MOL0     C57296  10.434   6.436  10.333 -0.4852  0.3909 -0.2933
  416MOL0     C57297  10.466   6.559  10.282  1.1155  1.0287 -1.0933
  416MOL0     C57298  10.455   6.689  10.366  0.6359  0.3515  0.4671
  416MOL0     C57299  10.517   6.573  10.150 -0.1182 -0.1346  0.4039
  416MOL0     C57300  10.553   6.701  10.088  0.5386  0.6144  0.5929
  416MOL0     O57301  10.492   6.727   9.974 -0.0468 -0.3477 -0.0404
  416MOL0     C57302  10.519   6.838   9.896  0.5943  0.5762 -0.4075
  416MOL0     C57303  10.415   6.893   9.826 -0.3103 -0.3929 -0.9251
  416MOL0     C57304  10.437   7.006   9.741  1.1371  0.2925 -0.6884
  416MOL0     C57305  10.566   7.079   9.739  0.5524  0.7332  0.5890
  416MOL0     O57306  10.588   7.198   9.670 -0.2295 -0.0301  0.4429
  416MOL0     C57307  10.493   7.290   9.639  0.3035 -0.3932 -0.5308
  416MOL0     C57308  10.534   7.364   9.516 -0.6330  0.0441  0.2084
  416MOL0     C57309  10.632   7.484   9.553  0.3645 -0.7223 -0.3220
  416MOL0     C57310  10.675   7.578   9.438 -0.3547 -0.6175 -0.9131
  416MOL0     C57311  10.785   7.677   9.480  0.4803  0.8673  0.0524
  416MOL0     C57312  10.734   7.777   9.587  0.2296 -0.0535 -1.3009
  416MOL0     C57313  10.835   7.884   9.648  0.2523  0.1373 -0.7733
  416MOL0     C57314  10.833   7.874   9.802  0.3159  0.0702  0.3566
  416MOL0    Cl57315  10.658   7.907   9.846  0.3209 -0.2384 -0.0677
  416MOL0     C57316  10.670   7.025   9.817 -0.4761 -0.1664 -0.9207
  416MOL0     C57317  10.645   6.913   9.902  0.2313  0.1938  0.4865
  416MOL0     O57318  10.630   6.772  10.149 -0.1354  0.0339 -0.5387
  416MOL0     C57319  10.540   6.455  10.076 -0.2210 -0.0268 -0.3980
  416MOL0     C57320  10.498   6.331  10.125  0.0147  0.1655  0.2263
  416MOL0     N57321  10.530   5.526  10.342  0.0532  0.2475 -0.7794
  416MOL0     N57322  10.551   5.407  10.299  0.1665 -0.1986  0.4947
  416MOL0     C57323  10.237   5.228   9.413  1.1460 -0.2094  0.3342
  416MOL0     C57324  10.135   5.314   9.427  0.6902 -0.5412  0.0421
  416MOL0     C57325   9.819   5.579   9.398  0.9971  0.5749  0.6611
  416MOL0     C57326   9.813   5.591   9.534  0.8834  0.0053  0.3136
  416MOL0     C57327   9.699   5.642   9.593  0.0901  0.2141 -0.0544
  416MOL0     C57328   9.588   5.683   9.524 -0.1816  0.7891 -0.4448
  416MOL0     O57329   9.491   5.742   9.608 -0.6214 -0.6549  0.7045
  416MOL0     C57330   9.361   5.759   9.548 -0.2126  0.2618  0.1257
  416MOL0     C57331   9.265   5.646   9.582 -0.0839  0.0239 -1.2604
  416MOL0     C57332   9.319   5.507   9.552 -0.3542 -0.6438 -0.9899
  416MOL0     C57333   9.209   5.404   9.570  0.9383  0.3680 -0.2612
  416MOL0     C57334   9.197   5.360   9.706  0.7374 -0.4045 -0.1730
  416MOL0     C57335   9.169   5.330   9.820 -0.4903 -0.3909  0.2484
  416MOL0     C57336   9.584   5.655   9.391 -0.7609  0.2005  0.1766
  416MOL0     C57337   9.701   5.602   9.317  0.0663 -0.2939  0.2509
  416MOL0     C57338   9.690   5.575   9.166 -0.3572 -0.0023 -0.3264
  416MOL0     H57339  10.298   5.600   9.339 -1.1046  0.5321 -2.1269
  416MOL0     H57340  10.487   5.444   9.331 -0.1897  1.0303 -2.9401
  416MOL0     H57341  10.539   5.013   9.439 -1.4915 -1.2076 -0.9516
  416MOL0     H57342  10.423   5.097   9.536  1.5804 -1.7932 -0.2275
  416MOL0     H57343  10.721   5.181   9.479  1.2573  3.3910  1.4493
  416MOL0     H57344  10.609   5.273   9.580 -0.6345 -0.7703  1.0287
  416MOL0     H57345  10.586   5.033   9.702 -0.6167 -0.7236 -0.1967
  416MOL0     H57346  10.744   5.010   9.622  1.6105  1.2366 -1.1131
  416MOL0     H57347  10.807   5.236   9.725 -0.3869  2.3091  2.5882
  416MOL0     H57348  10.654   5.230   9.816 -0.1370 -2.6185  2.1798
  416MOL0     H57349  10.866   5.026   9.847  1.5580  1.2915  1.7898
  416MOL0     H57350  10.710   5.019   9.920 -0.4200 -1.3557 -2.3222
  416MOL0     H57351  10.835   5.100  10.094 -2.0344 -0.3947  1.4790
  416MOL0     H57352  10.943   5.194   9.988  0.0025 -3.1161  0.1692
  416MOL0     H57353  10.802   5.373   9.986  1.6152 -0.5157 -0.2730
  416MOL0     H57354  10.806   5.320  10.157 -0.0869 -2.0175  0.0979
  416MOL0     H57355  10.557   5.297   9.990 -1.0121  2.1047  0.5094
  416MOL0     H57356  10.588   5.199  10.138 -2.5881  1.9643  0.7913
  416MOL0     H57357  10.552   5.557  10.017  0.7053 -1.6071 -0.4709
  416MOL0     H57358  10.468   5.803  10.135  0.8274  2.8042  1.2054
  416MOL0     H57359  10.605   5.797  10.233 -0.5660  1.0676 -0.4540
  416MOL0     H57360  10.322   5.803  10.335 -0.3248  0.7226 -0.5859
  416MOL0     H57361  10.441   5.760  10.443  2.1978 -0.4220  0.0668
  416MOL0     H57362  10.423   5.994  10.471  1.4853  0.3297  1.5157
  416MOL0     H57363  10.576   5.973  10.404 -0.5373 -0.7563  0.1375
  416MOL0     H57364  10.510   6.069  10.185 -0.3827  2.1358 -0.6612
  416MOL0     H57365  10.337   6.047  10.228 -0.4518 -0.5836  1.1588
  416MOL0     H57366  10.404   6.424  10.437  0.1295 -4.5288 -0.4749
  416MOL0     H57367  10.433   6.771  10.297  3.5679  2.4988  1.8742
  416MOL0     H57368  10.557   6.690  10.403  0.9656 -2.9334 -0.0600
  416MOL0     H57369  10.373   6.701  10.437 -1.6777  0.2616 -2.0118
  416MOL0     H57370  10.322   6.836   9.824 -0.9466  0.1739  3.2475
  416MOL0     H57371  10.358   7.024   9.668  0.8062 -2.9062 -1.2480
  416MOL0     H57372  10.399   7.236   9.627 -0.9733  0.5940  3.4916
  416MOL0     H57373  10.476   7.359   9.723  2.4422 -1.5580  0.9624
  416MOL0     H57374  10.587   7.309   9.437  0.8258  6.0154 -3.5782
  416MOL0     H57375  10.445   7.405   9.468  0.4874  1.8972 -0.3588
  416MOL0     H57376  10.726   7.457   9.601  2.3380  3.9827 -1.0200
  416MOL0     H57377  10.577   7.544   9.627  0.7434  2.9877 -2.7885
  416MOL0     H57378  10.591   7.622   9.384  0.0965  1.5702  0.0417
  416MOL0     H57379  10.735   7.518   9.368  0.2744 -0.4680 -0.5097
  416MOL0     H57380  10.868   7.612   9.509 -0.4734 -1.2067 -1.5117
  416MOL0     H57381  10.815   7.740   9.396 -3.4401 -0.1399 -2.3599
  416MOL0     H57382  10.679   7.721   9.663  0.4478  1.3149 -0.0896
  416MOL0     H57383  10.662   7.842   9.537  0.2812  1.5406  0.5592
  416MOL0     H57384  10.812   7.982   9.607 -1.8934  0.3494  0.7856
  416MOL0     H57385  10.938   7.851   9.627  0.2963 -0.2676  0.0352
  416MOL0     H57386  10.898   7.945   9.853 -1.0366  0.1533  2.0686
  416MOL0     H57387  10.867   7.773   9.826  1.4411 -0.3234 -2.4292
  416MOL0     H57388  10.772   7.063   9.813 -1.8421  4.1631  0.3729
  416MOL0     H57389  10.731   6.885   9.961 -1.0235 -1.3890  1.6533
  416MOL0     H57390  10.580   6.468   9.976  0.6881 -0.2733 -0.0761
  416MOL0     H57391  10.510   6.240  10.067  0.9280 -0.8245  1.8884
  416MOL0     H57392  10.229   5.122   9.435  2.3152 -0.7587 -1.5649
  416MOL0     H57393  10.034   5.280   9.448  0.7651 -0.3356  0.7832
  416MOL0     H57394   9.896   5.559   9.596  1.5767  0.4865 -0.3370
  416MOL0     H57395   9.705   5.654   9.701  0.0488 -0.3808  0.0197
  416MOL0     H57396   9.318   5.855   9.580  1.6357  0.4578  2.2959
  416MOL0     H57397   9.366   5.766   9.439  2.5766 -1.1939  0.0847
  416MOL0     H57398   9.167   5.659   9.534 -0.7995 -5.9655 -2.1827
  416MOL0     H57399   9.254   5.651   9.691 -0.7086 -1.0337 -1.2572
  416MOL0     H57400   9.360   5.506   9.451  1.6461  0.1840 -0.2353
  416MOL0     H57401   9.404   5.481   9.616 -1.4578 -0.9649  0.3886
  416MOL0     H57402   9.212   5.327   9.493 -2.9904  3.0955 -3.5840
  416MOL0     H57403   9.118   5.457   9.540  2.6236  2.5202 -2.0230
  416MOL0     H57404   9.144   5.313   9.923 -0.1889 -0.5189  0.3022
  416MOL0     H57405   9.495   5.655   9.329 -0.1613  4.0286 -0.8881
  416MOL0     H57406   9.609   5.631   9.118 -1.9205 -2.5532 -0.8953
  416MOL0     H57407   9.785   5.613   9.127  0.6391  0.3649  2.2655
  416MOL0     H57408   9.679   5.466   9.166  1.8910 -0.4952  4.3845
  417MOL0     O57409   4.099   9.898   0.464  0.6681  0.6034  0.4522
  417MOL0     C57410   4.021   9.933   0.371 -0.4950  0.9521 -0.4600
  417MOL0     O57411   4.002  10.059   0.325  0.4337  0.7340 -0.0779
  417MOL0     C57412   4.091  10.158   0.343 -1.4595  0.5893  0.3351
  417MOL0     C57413   4.037  10.284   0.355 -0.7343  0.4453 -0.1099
  417MOL0     C57414   4.125  10.397   0.373  0.4501  0.0534  0.8116
  417MOL0     C57415   4.262  10.370   0.386  0.2595 -0.1074 -0.2036
  417MOL0     O57416   4.346  10.478   0.397 -0.7736 -0.0200  0.1951
  417MOL0     C57417   4.334  10.557   0.513 -0.5317 -0.7929  0.7404
  417MOL0     C57418   4.428  10.676   0.496 -0.1806  0.0891 -0.6922
  417MOL0     C57419   4.367  10.783   0.400  0.4386 -0.4003  0.2022
  417MOL0     C57420   4.477  10.867   0.330  0.3552  0.8973 -0.2840
  417MOL0     C57421   4.539  10.976   0.430  0.3893  0.4972  0.0480
  417MOL0     C57422   4.642  11.049   0.345 -0.3166 -0.5702 -0.1261
  417MOL0     C57423   4.689  11.179   0.415  0.2596 -0.4793 -0.9849
  417MOL0     C57424   4.810  11.157   0.508  0.0884  0.4132 -0.2527
  417MOL0     N57425   4.834  11.274   0.594  0.1420  0.0865 -0.0004
  417MOL0     C57426   4.956  11.334   0.590  0.1126 -0.6126  0.1258
  417MOL0     C57427   4.950  11.425   0.694  0.5199 -1.1893  0.0116
  417MOL0     C57428   5.064  11.525   0.726 -0.1454  0.1721 -0.5402
  417MOL0     C57429   5.054  11.583   0.861  0.2235 -0.0062  0.0682
  417MOL0     C57430   5.144  11.705   0.878  0.8441  0.8195 -0.5635
  417MOL0     C57431   5.117  11.769   1.013 -0.4766  0.5163  0.2376
  417MOL0     O57432   5.202  11.873   1.045 -0.6391  0.0647  0.7627
  417MOL0     C57433   5.178  11.939   1.161 -0.2884 -0.0647  0.5187
  417MOL0     C57434   5.090  11.897   1.272 -0.0466 -0.5171  0.2476
  417MOL0     C57435   5.078  11.964   1.397  0.4530 -0.2813  0.1818
  417MOL0     C57436   4.991  11.906   1.517 -0.9666 -0.4808  0.7640
  417MOL0     C57437   5.153  12.086   1.403  0.5702 -0.2386 -1.2680
  417MOL0     C57438   5.159  12.178   1.530 -0.6851  0.9728 -0.9542
  417MOL0     O57439   5.204  12.309   1.519 -0.2388  0.2221  0.8247
  417MOL0     C57440   5.195  12.392   1.628  0.2541  0.1228  1.1053
  417MOL0     C57441   5.071  12.428   1.682 -0.3070 -0.4435  0.6005
  417MOL0     C57442   5.064  12.537   1.775  0.1643  0.0589 -0.5022
  417MOL0     C57443   5.175  12.610   1.818  0.6750 -0.7504  0.7008
  417MOL0     O57444   5.170  12.715   1.905  0.2385  0.3687 -0.0384
  417MOL0     C57445   5.240  12.705   2.030 -0.4343  0.5304  0.0982
  417MOL0     C57446   5.181  12.616   2.135 -0.7621  0.2205 -0.6562
  417MOL0     C57447   5.245  12.627   2.271 -1.1252  0.0423  0.5401
  417MOL0     C57448   5.153  12.550   2.371  0.3309 -0.5128 -0.5374
  417MOL0     C57449   5.203  12.543   2.512 -0.7496  0.3483 -0.3660
  417MOL0     C57450   5.090  12.498   2.602  0.1387 -0.2863 -0.1833
  417MOL0     C57451   5.119  12.453   2.745  0.4210 -1.0277  0.4971
  417MOL0     C57452   5.211  12.548   2.818 -0.5784  0.1343 -0.6160
  417MOL0    Cl57453   5.207  12.515   2.993 -0.2691  0.4125  0.0653
  417MOL0     C57454   5.295  12.572   1.770  0.4474 -0.6728  1.1977
  417MOL0     C57455   5.304  12.468   1.678 -0.3512  0.4935  0.3579
  417MOL0     O57456   5.105  12.137   1.635 -0.6448 -0.0756 -0.1561
  417MOL0     C57457   5.227  12.131   1.297 -0.3697  0.4463  0.9466
  417MOL0     C57458   5.243  12.055   1.181 -0.3244 -0.0895  0.4033
  417MOL0     N57459   4.837  11.404   0.764 -0.4509  0.9104  0.0309
  417MOL0     N57460   4.769  11.314   0.706 -0.0128 -0.4734 -0.0430
  417MOL0     C57461   4.306  10.239   0.366  0.3573  0.6507  0.1883
  417MOL0     C57462   4.227  10.139   0.335 -0.6426  0.5120  0.2264
  417MOL0     C57463   3.931   9.825   0.310  0.3563  0.0491 -0.7072
  417MOL0     C57464   3.836   9.874   0.216 -1.2736 -0.0650 -0.3587
  417MOL0     C57465   3.760   9.776   0.150  0.0848  0.5546 -0.3948
  417MOL0     C57466   3.761   9.639   0.176  0.1034  1.7882 -0.8443
  417MOL0     O57467   3.662   9.559   0.120 -0.0065  1.1320  0.0116
  417MOL0     C57468   3.635   9.425   0.161  0.3794 -0.6613  0.1076
  417MOL0     C57469   3.504   9.387   0.090  0.7514 -0.6681 -0.4150
  417MOL0     C57470   3.437   9.278   0.175 -0.6995  0.3559  0.3899
  417MOL0     C57471   3.315   9.212   0.104  0.0896  0.2753 -0.5207
  417MOL0     C57472   3.203   9.300   0.113 -0.0290  0.0236  0.5180
  417MOL0     C57473   3.120   9.388   0.099  0.1558 -0.5565  0.0129
  417MOL0     C57474   3.853   9.591   0.279  0.6103 -0.6408  0.6257
  417MOL0     C57475   3.934   9.684   0.346  0.3536 -0.3353  0.6298
  417MOL0     C57476   4.034   9.615   0.438 -0.4537  0.1579 -0.1691
  417MOL0     H57477   3.930  10.296   0.344 -0.5238  0.6277 -2.5276
  417MOL0     H57478   4.093  10.500   0.384 -1.2965 -0.3612 -0.1244
  417MOL0     H57479   4.366  10.498   0.600 -0.6984 -0.2325  1.1910
  417MOL0     H57480   4.231  10.591   0.521 -0.8297 -1.5868  0.3628
  417MOL0     H57481   4.443  10.729   0.591  2.0784 -2.0114  0.2221
  417MOL0     H57482   4.528  10.652   0.459  0.3736  2.1767 -0.6972
  417MOL0     H57483   4.304  10.734   0.324  1.1177 -3.0245  1.2032
  417MOL0     H57484   4.302  10.848   0.458 -0.2232 -1.7823  1.0551
  417MOL0     H57485   4.555  10.802   0.288 -0.0168 -0.6665  1.3214
  417MOL0     H57486   4.433  10.923   0.248  1.2864  2.0080 -0.0443
  417MOL0     H57487   4.577  10.936   0.524  0.2391  1.8181  0.6865
  417MOL0     H57488   4.464  11.047   0.466  3.1317  2.7114  1.7171
  417MOL0     H57489   4.719  10.976   0.318 -1.0450 -0.7068 -1.9818
  417MOL0     H57490   4.598  11.082   0.250  1.3780  1.0541 -0.4194
  417MOL0     H57491   4.602  11.222   0.466 -0.3294 -1.3122 -1.2697
  417MOL0     H57492   4.716  11.257   0.343  1.1946 -0.5555 -0.7337
  417MOL0     H57493   4.790  11.071   0.573 -1.8899 -0.6421 -2.1380
  417MOL0     H57494   4.896  11.153   0.441 -1.8318 -0.2506 -2.8471
  417MOL0     H57495   5.031  11.328   0.512  0.7368 -1.2226  0.7589
  417MOL0     H57496   5.068  11.606   0.652 -0.0357  1.4971  0.8662
  417MOL0     H57497   5.160  11.473   0.726  0.2131  0.7281 -2.8561
  417MOL0     H57498   4.950  11.608   0.883  1.4179  3.2556  3.0436
  417MOL0     H57499   5.083  11.511   0.938  1.3479  1.0042  0.6305
  417MOL0     H57500   5.249  11.675   0.870  0.6510  0.2129 -0.9093
  417MOL0     H57501   5.118  11.782   0.804 -3.9020  1.3545  1.3141
  417MOL0     H57502   5.015  11.807   1.014 -1.6077 -2.2758 -0.4034
  417MOL0     H57503   5.123  11.683   1.080  1.2486 -0.8147 -1.5011
  417MOL0     H57504   5.023  11.814   1.252  2.7946 -2.8967 -0.2262
  417MOL0     H57505   4.971  11.801   1.497 -1.9073  0.0233 -1.2531
  417MOL0     H57506   4.895  11.958   1.524 -2.0440 -1.3612 -3.9862
  417MOL0     H57507   5.041  11.911   1.614  3.5005 -0.9879 -1.2235
  417MOL0     H57508   4.981  12.382   1.642 -1.6943 -0.4939  3.5268
  417MOL0     H57509   4.972  12.565   1.825 -0.4812  1.5174 -2.3605
  417MOL0     H57510   5.346  12.680   2.016 -0.9684 -0.1723 -3.4343
  417MOL0     H57511   5.232  12.803   2.079  0.8394 -0.5953  2.8047
  417MOL0     H57512   5.077  12.648   2.152 -1.3436 -2.3045  1.0992
  417MOL0     H57513   5.196  12.510   2.116  2.5445  0.4343  0.1880
  417MOL0     H57514   5.261  12.732   2.298 -0.6835  0.4023 -1.0045
  417MOL0     H57515   5.340  12.574   2.261  0.2735  1.8965  2.9128
  417MOL0     H57516   5.131  12.448   2.338  1.2798 -0.0013 -3.0487
  417MOL0     H57517   5.058  12.603   2.380  1.1944  0.9740  0.1462
  417MOL0     H57518   5.289  12.476   2.521 -0.0831  1.2650  0.2663
  417MOL0     H57519   5.231  12.642   2.548  1.4197 -1.0889  2.2403
  417MOL0     H57520   5.034  12.418   2.552  0.0814 -0.6419  0.4344
  417MOL0     H57521   5.015  12.577   2.611 -2.2217 -2.4205  0.3347
  417MOL0     H57522   5.169  12.355   2.740 -0.4444 -1.4265 -0.9854
  417MOL0     H57523   5.031  12.448   2.811  0.7477  0.9536  1.1469
  417MOL0     H57524   5.195  12.652   2.788  1.9750 -0.0981 -3.2166
  417MOL0     H57525   5.316  12.540   2.792  0.1083 -1.6093  2.1798
  417MOL0     H57526   5.383  12.625   1.805  0.1539  1.4937 -1.0025
  417MOL0     H57527   5.404  12.461   1.638  0.6876 -0.5420  2.9655
  417MOL0     H57528   5.293  12.217   1.307 -0.6552  0.9094 -0.8038
  417MOL0     H57529   5.306  12.098   1.104  2.3736  0.8453  2.9506
  417MOL0     H57530   4.412  10.216   0.366  0.0431 -0.9016 -0.7800
  417MOL0     H57531   4.277  10.044   0.315 -0.6119  1.0618 -2.7098
  417MOL0     H57532   3.825   9.979   0.191 -0.5833  0.1120  0.0585
  417MOL0     H57533   3.690   9.817   0.078 -0.8022 -1.5826 -0.8361
  417MOL0     H57534   3.719   9.360   0.134  1.9250  1.0371  0.6369
  417MOL0     H57535   3.616   9.425   0.269 -0.0919 -0.5948  0.0279
  417MOL0     H57536   3.532   9.339  -0.004  3.2163 -2.1207  0.9641
  417MOL0     H57537   3.437   9.472   0.077  0.9763  0.1949  3.0990
  417MOL0     H57538   3.506   9.196   0.200 -2.0269 -1.0603 -0.3938
  417MOL0     H57539   3.402   9.317   0.271  0.9923  0.5173  0.9745
  417MOL0     H57540   3.280   9.132   0.169  2.1862 -1.2232 -1.1100
  417MOL0     H57541   3.321   9.189  -0.003  0.0266 -1.2726 -0.2118
  417MOL0     H57542   3.041   9.459   0.087  2.2876  2.0468  0.5003
  417MOL0     H57543   3.857   9.484   0.299  0.6648 -1.4268 -2.9537
  417MOL0     H57544   3.976   9.534   0.483 -0.6174 -0.0732 -0.7829
  417MOL0     H57545   4.124   9.586   0.382  0.2898  0.2074  0.9739
  417MOL0     H57546   4.073   9.674   0.521  0.2966 -1.5218  0.7344
  418MOL0     O57547   6.265   0.991   6.080 -0.0821 -1.0634 -0.1018
  418MOL0     C57548   6.319   0.896   6.021  0.4926 -0.0259  1.2189
  418MOL0     O57549   6.275   0.861   5.890 -0.5843 -0.5354 -0.7785
  418MOL0     C57550   6.325   0.755   5.827  0.3452 -0.8061  0.2308
  418MOL0     C57551   6.251   0.646   5.839 -0.7643 -0.6068  0.6149
  418MOL0     C57552   6.295   0.524   5.775 -0.0966 -0.5424 -0.1140
  418MOL0     C57553   6.400   0.522   5.688  0.6369 -0.6162  0.8592
  418MOL0     O57554   6.413   0.428   5.599  0.3564 -0.8994  0.3758
  418MOL0     C57555   6.450   0.295   5.655  0.1429 -0.4928 -0.3997
  418MOL0     C57556   6.505   0.220   5.534 -0.1321  0.4016  0.3420
  418MOL0     C57557   6.551   0.086   5.587  0.2476  0.4443  0.7652
  418MOL0     C57558   6.605  -0.023   5.476 -1.1426 -0.0873  0.9922
  418MOL0     C57559   6.716   0.020   5.367  0.6072 -0.3621 -0.8278
  418MOL0     C57560   6.824   0.104   5.441  0.5932  0.1443  0.0255
  418MOL0     C57561   6.960   0.124   5.364 -0.2368  0.4508  0.1771
  418MOL0     C57562   6.945   0.159   5.217  0.2926  0.4395 -0.1565
  418MOL0     N57563   7.081   0.190   5.159 -0.2503  0.5812  0.8698
  418MOL0     C57564   7.204   0.116   5.178  0.7957 -0.0064 -0.4125
  418MOL0     C57565   7.287   0.154   5.082  0.1407  0.0748 -0.1725
  418MOL0     C57566   7.422   0.081   5.051  0.0021 -0.8560 -0.3602
  418MOL0     C57567   7.509   0.093   5.180  0.2227  0.0104 -0.5101
  418MOL0     C57568   7.640   0.022   5.161  0.3913 -0.1201 -0.3682
  418MOL0     C57569   7.703  -0.010   5.298 -0.7121  0.3593 -0.5461
  418MOL0     O57570   7.838  -0.029   5.257 -0.2703 -0.0311  0.1884
  418MOL0     C57571   7.929  -0.097   5.349 -0.1822  0.0928  0.3491
  418MOL0     C57572   7.891  -0.147   5.474  0.1621  0.6547 -0.5007
  418MOL0     C57573   7.988  -0.208   5.561 -0.5127  0.4217  0.5066
  418MOL0     C57574   7.941  -0.264   5.697 -0.3824 -1.0050  0.0013
  418MOL0     C57575   8.126  -0.216   5.518  0.4295 -0.2622 -1.7424
  418MOL0     C57576   8.235  -0.258   5.604  0.2070 -0.5153  0.0057
  418MOL0     O57577   8.318  -0.360   5.566  0.2751  0.1265 -0.4364
  418MOL0     C57578   8.430  -0.395   5.638 -0.2128 -0.1783 -0.0741
  418MOL0     C57579   8.485  -0.526   5.615  0.2795  0.1245  0.0923
  418MOL0     C57580   8.599  -0.569   5.682  0.2981  0.4278  0.6393
  418MOL0     C57581   8.667  -0.476   5.765  0.0911  0.2183 -0.2637
  418MOL0     O57582   8.791  -0.524   5.807 -0.2875 -0.6437 -0.5273
  418MOL0     C57583   8.880  -0.425   5.873  0.3961 -0.2595 -0.0407
  418MOL0     C57584   9.035  -0.448   5.863 -0.3488 -0.5738  1.2458
  418MOL0     C57585   9.079  -0.600   5.871 -0.5555  0.9975  0.3786
  418MOL0     C57586   9.058  -0.658   6.018  0.4363  0.4569 -0.2549
  418MOL0     C57587   9.115  -0.800   6.032  0.0931 -0.4477 -0.1795
  418MOL0     C57588   9.269  -0.795   6.018  1.3419  0.4463 -0.6159
  418MOL0     C57589   9.329  -0.936   6.039  0.5101  0.8332  0.6161
  418MOL0     C57590   9.480  -0.952   6.004  0.4533 -0.4512 -0.5022
  418MOL0    Cl57591   9.569  -0.835   6.113 -0.1224 -0.3137 -0.0524
  418MOL0     C57592   8.620  -0.343   5.789  0.7237 -0.0254  0.4785
  418MOL0     C57593   8.507  -0.306   5.724 -0.2405  0.4578 -0.4042
  418MOL0     O57594   8.252  -0.184   5.700  0.8680 -0.3266 -0.0655
  418MOL0     C57595   8.151  -0.168   5.391 -0.3288  0.5354 -0.3740
  418MOL0     C57596   8.059  -0.114   5.312 -0.5118 -0.3037 -0.0304
  418MOL0     N57597   7.217   0.248   5.005  0.1980 -0.8201 -0.3258
  418MOL0     N57598   7.099   0.278   5.059 -1.0966  0.2243 -0.0964
  418MOL0     C57599   6.475   0.639   5.664 -0.0590 -0.5261 -0.3288
  418MOL0     C57600   6.437   0.759   5.736  0.1397  0.2592  0.0715
  418MOL0     C57601   6.428   0.819   6.091 -0.5733 -0.2875 -0.4685
  418MOL0     C57602   6.403   0.723   6.179 -0.1294  0.8048  0.1987
  418MOL0     C57603   6.496   0.651   6.245  0.0296 -0.0759  0.1569
  418MOL0     C57604   6.628   0.676   6.223 -0.0422  0.7158 -0.4456
  418MOL0     O57605   6.719   0.594   6.293 -0.4612 -0.8405 -0.4784
  418MOL0     C57606   6.864   0.600   6.277  0.7365  0.2633  1.2814
  418MOL0     C57607   6.916   0.471   6.334 -0.4440 -0.2928  0.1437
  418MOL0     C57608   6.870   0.351   6.254 -0.1665 -0.7191 -0.3826
  418MOL0     C57609   6.960   0.223   6.273 -1.7780  0.0007 -0.1944
  418MOL0     C57610   7.068   0.208   6.170  0.2630  0.7341  0.5282
  418MOL0     C57611   7.160   0.224   6.091 -0.6126 -0.0647  0.5210
  418MOL0     C57612   6.664   0.790   6.149 -0.3031  0.2579  0.8140
  418MOL0     C57613   6.564   0.857   6.081 -0.1938 -0.2217  0.5940
  418MOL0     C57614   6.607   0.979   5.997  0.4885 -0.2870  0.5357
  418MOL0     H57615   6.161   0.651   5.901 -1.9391  2.4076 -1.1457
  418MOL0     H57616   6.239   0.432   5.762 -0.7859  0.1901 -2.8450
  418MOL0     H57617   6.366   0.239   5.698  0.7474  0.8128  2.7500
  418MOL0     H57618   6.533   0.300   5.726 -0.5495 -2.0888  0.5781
  418MOL0     H57619   6.429   0.200   5.458 -0.2310  0.2466  0.4836
  418MOL0     H57620   6.583   0.285   5.493  1.1615  2.9162  5.8472
  418MOL0     H57621   6.633   0.094   5.659  1.4866 -0.9459 -0.4246
  418MOL0     H57622   6.467   0.039   5.639  0.5317 -0.7785  0.1442
  418MOL0     H57623   6.642  -0.117   5.519  0.0433 -0.0372  0.1249
  418MOL0     H57624   6.520  -0.056   5.417 -1.6760  0.3020  1.5227
  418MOL0     H57625   6.670   0.080   5.288  1.4613  1.3096 -0.0911
  418MOL0     H57626   6.753  -0.064   5.307 -0.8893 -3.4532  2.2634
  418MOL0     H57627   6.791   0.207   5.457  3.6650  1.1843  0.4665
  418MOL0     H57628   6.848   0.053   5.535  1.5016  0.2481 -0.1424
  418MOL0     H57629   7.017   0.030   5.373 -0.4948  0.0665 -1.8280
  418MOL0     H57630   7.005   0.214   5.406  1.0244  0.7482 -1.6701
  418MOL0     H57631   6.884   0.090   5.158  1.5188  2.0516 -3.5682
  418MOL0     H57632   6.890   0.253   5.214  1.5205  1.2628  1.5269
  418MOL0     H57633   7.214   0.033   5.247 -0.2469 -1.6822 -2.1983
  418MOL0     H57634   7.468   0.123   4.961 -0.4971  1.8751  0.5627
  418MOL0     H57635   7.406  -0.024   5.024 -1.5255 -0.7719  0.1141
  418MOL0     H57636   7.538   0.194   5.210  2.3784 -1.3661  2.5087
  418MOL0     H57637   7.448   0.056   5.263 -0.4199  1.0420 -0.5045
  418MOL0     H57638   7.627  -0.078   5.118  3.0565 -0.4606 -0.5250
  418MOL0     H57639   7.713   0.064   5.092  2.0676 -2.1806  0.0647
  418MOL0     H57640   7.693   0.074   5.367  1.4742 -0.0403  0.3189
  418MOL0     H57641   7.643  -0.095   5.332 -1.6578  0.7142 -1.2653
  418MOL0     H57642   7.788  -0.138   5.507  0.4299  1.9936  0.0556
  418MOL0     H57643   7.899  -0.364   5.682  2.4484 -2.4946  1.1125
  418MOL0     H57644   7.887  -0.183   5.747  4.1037  2.2326  0.2405
  418MOL0     H57645   8.031  -0.293   5.753  0.1091 -0.2836 -0.3960
  418MOL0     H57646   8.439  -0.597   5.548 -1.3586  0.3555  0.9155
  418MOL0     H57647   8.642  -0.667   5.665  0.1219 -0.1068  3.0294
  418MOL0     H57648   8.877  -0.331   5.817  0.3756 -1.0974 -1.5180
  418MOL0     H57649   8.840  -0.411   5.973 -3.7003 -1.3754 -1.3205
  418MOL0     H57650   9.063  -0.416   5.762 -1.2976 -2.4234  0.3554
  418MOL0     H57651   9.095  -0.390   5.934  1.8891  2.2715 -2.5430
  418MOL0     H57652   9.183  -0.609   5.838  0.0168  0.1210  2.2931
  418MOL0     H57653   9.014  -0.664   5.811 -1.7548  0.9664  1.6712
  418MOL0     H57654   8.954  -0.655   6.050  1.3228  0.3957  2.9797
  418MOL0     H57655   9.110  -0.595   6.092  0.6355 -1.7781  1.6057
  418MOL0     H57656   9.088  -0.836   6.131  0.8413 -1.0179 -0.1745
  418MOL0     H57657   9.082  -0.865   5.950  2.1512 -1.7998 -0.0056
  418MOL0     H57658   9.317  -0.721   6.082  1.6023 -0.2695  0.0425
  418MOL0     H57659   9.302  -0.754   5.922  1.6132  0.9507 -0.3131
  418MOL0     H57660   9.271  -1.004   5.977 -3.8330  3.4946  1.3140
  418MOL0     H57661   9.314  -0.960   6.145 -2.9453  0.0383  0.0597
  418MOL0     H57662   9.503  -0.927   5.901  3.3518 -1.5251 -0.1948
  418MOL0     H57663   9.517  -1.050   6.033 -2.5553 -1.4026  0.5442
  418MOL0     H57664   8.675  -0.275   5.853 -1.0399  1.5580  0.3792
  418MOL0     H57665   8.466  -0.207   5.741  0.2809  0.6018  0.0106
  418MOL0     H57666   8.253  -0.196   5.366 -0.8142 -1.0859 -0.6210
  418MOL0     H57667   8.087  -0.092   5.210  0.9906 -0.5033  0.3052
  418MOL0     H57668   6.541   0.649   5.579  1.6659  0.7629  1.0951
  418MOL0     H57669   6.490   0.854   5.726 -0.1855  0.3749 -0.6529
  418MOL0     H57670   6.303   0.696   6.209 -0.7663  0.0188 -2.3619
  418MOL0     H57671   6.469   0.571   6.312 -1.2000  1.2776  1.3460
  418MOL0     H57672   6.892   0.616   6.172  1.6874  4.6697  2.0175
  418MOL0     H57673   6.904   0.683   6.337  2.5560 -1.4923  2.6312
  418MOL0     H57674   6.890   0.466   6.440  1.6874  0.1179  0.7299
  418MOL0     H57675   7.025   0.479   6.336 -0.5378  2.4532 -1.1214
  418MOL0     H57676   6.767   0.339   6.289  0.1650  1.1811  1.3907
  418MOL0     H57677   6.866   0.381   6.148  1.5663  0.7626 -0.0764
  418MOL0     H57678   6.892   0.141   6.251 -0.3337 -0.5613 -2.9499
  418MOL0     H57679   6.997   0.218   6.376 -2.3024  1.8636  0.1280
  418MOL0     H57680   7.235   0.253   6.020 -2.1119  2.4486 -0.1641
  418MOL0     H57681   6.764   0.826   6.128 -1.0343  0.7508 -2.4452
  418MOL0     H57682   6.588   1.063   6.065  0.7125 -0.6659  1.0731
  418MOL0     H57683   6.713   0.983   5.970  1.0070  2.5644  2.4643
  418MOL0     H57684   6.548   1.004   5.908  1.4235 -1.1344 -0.3367
  419MOL0     O57685   1.123   1.496   4.989 -0.8581  0.3003  0.0953
  419MOL0     C57686   1.022   1.564   4.996  0.0854 -0.1846  0.6437
  419MOL0     O57687   0.926   1.550   5.090  0.2673  0.4294  0.0332
  419MOL0     C57688   0.937   1.455   5.187 -0.4734  0.4649 -0.2289
  419MOL0     C57689   0.961   1.322   5.167  0.4331  0.3892 -0.3470
  419MOL0     C57690   0.978   1.245   5.284 -0.5931  0.1828 -0.5459
  419MOL0     C57691   0.949   1.293   5.407  0.6687  0.6435 -0.1736
  419MOL0     O57692   0.945   1.213   5.516 -0.0087 -0.2753 -0.3423
  419MOL0     C57693   1.058   1.224   5.606  0.3287  0.2135 -0.1601
  419MOL0     C57694   1.001   1.244   5.754 -0.5810  0.6383  0.4527
  419MOL0     C57695   0.894   1.151   5.789  0.6151 -0.4154  1.1241
  419MOL0     C57696   0.873   1.168   5.940  0.0383 -0.2748  0.6403
  419MOL0     C57697   0.773   1.063   5.997 -0.6224 -0.1387 -0.1977
  419MOL0     C57698   0.622   1.073   5.944 -0.1259  0.5374  0.0380
  419MOL0     C57699   0.527   1.109   6.066 -0.7253  0.6112 -0.7306
  419MOL0     C57700   0.466   0.981   6.125  0.6566 -0.3514 -0.6315
  419MOL0     N57701   0.338   0.947   6.064 -0.1627  0.0139  0.1295
  419MOL0     C57702   0.231   1.024   6.070 -0.6495  1.0217 -0.6161
  419MOL0     C57703   0.133   0.953   5.996 -0.7059 -1.1481 -1.2659
  419MOL0     C57704  -0.017   0.991   5.956 -0.0554  0.6622 -0.5234
  419MOL0     C57705  -0.115   0.953   6.069 -0.2571 -0.0247 -0.8788
  419MOL0     C57706  -0.253   0.961   6.018  1.4812  0.5515  0.1605
  419MOL0     C57707  -0.365   0.897   6.100 -0.8420  0.9699 -0.2661
  419MOL0     O57708  -0.492   0.951   6.061  0.4358 -0.5880 -0.6585
  419MOL0     C57709  -0.604   0.907   6.132  0.2440 -0.2674  0.3555
  419MOL0     C57710  -0.669   0.792   6.103 -0.5979  0.9092  0.4578
  419MOL0     C57711  -0.778   0.742   6.183 -0.1738 -0.2184  1.4419
  419MOL0     C57712  -0.845   0.623   6.121  0.6620 -0.1042  0.1931
  419MOL0     C57713  -0.820   0.808   6.303 -0.9816  0.2237  0.1836
  419MOL0     C57714  -0.908   0.757   6.402 -0.3676  1.5302 -0.1282
  419MOL0     O57715  -0.985   0.850   6.472  0.3812 -0.1885  0.4857
  419MOL0     C57716  -1.073   0.790   6.559  0.2634  1.0049  0.6338
  419MOL0     C57717  -1.185   0.718   6.506  0.1692 -0.3941  0.4546
  419MOL0     C57718  -1.291   0.684   6.596  0.8075 -0.1959 -1.0537
  419MOL0     C57719  -1.289   0.724   6.730  0.2009 -0.1294 -0.8991
  419MOL0     O57720  -1.382   0.705   6.826 -0.3784  0.2467 -0.7088
  419MOL0     C57721  -1.476   0.602   6.792  0.4091  0.5988 -0.3552
  419MOL0     C57722  -1.568   0.579   6.909 -0.0401  0.4171  0.3769
  419MOL0     C57723  -1.706   0.532   6.863  0.7631  0.1917 -0.3019
  419MOL0     C57724  -1.701   0.423   6.757 -0.2576 -0.2782 -0.1641
  419MOL0     C57725  -1.843   0.369   6.719  0.2224  0.7625 -0.8631
  419MOL0     C57726  -1.955   0.479   6.705 -0.2247  0.1374  0.1353
  419MOL0     C57727  -2.074   0.437   6.606  0.2045  0.1335  0.4052
  419MOL0     C57728  -2.175   0.547   6.565 -0.5723 -0.8749  0.5757
  419MOL0    Cl57729  -2.290   0.467   6.449  0.0390  0.4752 -0.2890
  419MOL0     C57730  -1.184   0.800   6.783  0.2140 -0.1154 -0.1401
  419MOL0     C57731  -1.081   0.836   6.693  0.0593  0.1912 -0.1636
  419MOL0     O57732  -0.911   0.635   6.426  0.1062  0.4581 -0.1751
  419MOL0     C57733  -0.759   0.927   6.325 -0.9286 -0.1963 -0.2676
  419MOL0     C57734  -0.651   0.971   6.250 -0.0992 -0.3459 -0.8655
  419MOL0     N57735   0.199   0.838   5.945  0.0991 -0.2733 -0.3201
  419MOL0     N57736   0.314   0.838   5.996  0.0723 -0.1785  0.1890
  419MOL0     C57737   0.911   1.425   5.421  0.0709 -0.7473  0.1261
  419MOL0     C57738   0.911   1.506   5.312 -0.4680 -0.5386 -0.2946
  419MOL0     C57739   1.008   1.678   4.902  0.1338  0.2045  0.6290
  419MOL0     C57740   0.877   1.735   4.890  0.2122 -0.2267 -0.1103
  419MOL0     C57741   0.855   1.844   4.815 -0.7783 -0.7209 -0.7883
  419MOL0     C57742   0.962   1.908   4.751  0.4062  0.3021 -0.4728
  419MOL0     O57743   0.921   2.017   4.678  0.2410  0.2522 -0.1014
  419MOL0     C57744   1.020   2.077   4.584  1.0165  0.4451  0.4417
  419MOL0     C57745   0.955   2.204   4.511 -0.1928 -0.5733 -0.0682
  419MOL0     C57746   0.882   2.164   4.392  0.9604  0.0610  0.3253
  419MOL0     C57747   0.742   2.107   4.419  0.4856  0.5352 -0.0391
  419MOL0     C57748   0.658   2.211   4.486 -0.0692 -0.3290  0.7487
  419MOL0     C57749   0.607   2.304   4.541 -0.0298  0.0013  0.9263
  419MOL0     C57750   1.091   1.847   4.751 -0.3902 -0.4974  0.5481
  419MOL0     C57751   1.112   1.732   4.830 -0.6735  0.2140  0.4063
  419MOL0     C57752   1.258   1.712   4.856  0.1374  0.2170  0.1329
  419MOL0     H57753   0.977   1.276   5.069 -2.0629 -2.1989  0.3094
  419MOL0     H57754   0.987   1.138   5.271  0.4448  0.1876  0.0396
  419MOL0     H57755   1.124   1.300   5.565  2.4596 -1.3822  0.1540
  419MOL0     H57756   1.114   1.130   5.605 -0.1350 -0.0878  0.6795
  419MOL0     H57757   1.092   1.223   5.812 -0.0131  0.0581 -0.6213
  419MOL0     H57758   0.976   1.347   5.779  2.0365  1.1569  1.2893
  419MOL0     H57759   0.806   1.189   5.737 -0.3158 -1.5321  1.8295
  419MOL0     H57760   0.894   1.045   5.762 -4.1645 -0.2707 -0.2266
  419MOL0     H57761   0.971   1.151   5.986  1.0057  0.2224 -1.1226
  419MOL0     H57762   0.848   1.273   5.955  1.8633  1.0372 -3.8627
  419MOL0     H57763   0.784   1.056   6.105 -0.3901 -3.0663 -0.3288
  419MOL0     H57764   0.806   0.966   5.960  0.3828 -0.0386  0.4249
  419MOL0     H57765   0.610   1.166   5.889  0.1446  1.4346  1.4355
  419MOL0     H57766   0.583   0.984   5.893 -2.2116 -0.8104  3.5957
  419MOL0     H57767   0.461   1.191   6.035  1.7728  2.9437 -0.1856
  419MOL0     H57768   0.584   1.152   6.148 -2.8646  1.5559  0.3530
  419MOL0     H57769   0.538   0.898   6.127 -0.0815 -1.1667 -3.4367
  419MOL0     H57770   0.444   1.006   6.229 -1.1222 -5.0860  0.3794
  419MOL0     H57771   0.228   1.119   6.123 -1.0665  1.0322 -0.6557
  419MOL0     H57772  -0.033   0.921   5.874  1.8823  0.8029 -1.0822
  419MOL0     H57773  -0.031   1.091   5.915 -4.4050  1.0078  1.3459
  419MOL0     H57774  -0.108   0.849   6.102 -3.0314  0.1416  0.5410
  419MOL0     H57775  -0.101   1.008   6.163 -1.1853 -2.5514  0.8466
  419MOL0     H57776  -0.279   1.068   6.015  0.6386  0.4139  1.6554
  419MOL0     H57777  -0.261   0.907   5.924 -0.9083 -0.2179  0.7426
  419MOL0     H57778  -0.351   0.790   6.078  1.0773  1.4351 -1.5591
  419MOL0     H57779  -0.341   0.907   6.206  3.2336  3.1891 -1.1896
  419MOL0     H57780  -0.641   0.740   6.012 -0.5737 -1.4803  1.7501
  419MOL0     H57781  -0.953   0.640   6.114  1.1182  2.6083 -2.7041
  419MOL0     H57782  -0.819   0.528   6.168  0.7379  1.3369  3.2863
  419MOL0     H57783  -0.809   0.616   6.018  1.7765  2.1286  0.3734
  419MOL0     H57784  -1.201   0.699   6.400 -2.5918 -2.8069  1.1505
  419MOL0     H57785  -1.375   0.634   6.549  1.5753 -1.3421 -1.2444
  419MOL0     H57786  -1.522   0.639   6.699  2.6903 -0.0451 -1.8249
  419MOL0     H57787  -1.413   0.516   6.768  0.5157  1.2762 -2.8969
  419MOL0     H57788  -1.524   0.500   6.970  1.4118 -0.2634 -1.4686
  419MOL0     H57789  -1.575   0.670   6.970  1.0646  1.3529 -0.8222
  419MOL0     H57790  -1.766   0.618   6.834 -0.7369  0.0207  2.0035
  419MOL0     H57791  -1.755   0.493   6.953  1.4805 -2.2655 -0.9011
  419MOL0     H57792  -1.637   0.335   6.764  1.9087  1.2953  0.9337
  419MOL0     H57793  -1.651   0.484   6.682  2.0054 -0.2154  1.2845
  419MOL0     H57794  -1.819   0.323   6.622  1.6002 -2.4685  0.8596
  419MOL0     H57795  -1.868   0.295   6.795 -1.2735  2.0537 -0.0418
  419MOL0     H57796  -1.904   0.569   6.668  1.3754 -0.7612  0.0455
  419MOL0     H57797  -1.993   0.494   6.806 -0.4905  1.7294 -0.1744
  419MOL0     H57798  -2.125   0.358   6.662  2.7180 -1.9723 -0.0844
  419MOL0     H57799  -2.023   0.398   6.518  1.9603 -0.6627  1.7087
  419MOL0     H57800  -2.123   0.631   6.518 -1.6775  0.4232  1.5945
  419MOL0     H57801  -2.227   0.591   6.650 -0.4180  1.6333 -0.5601
  419MOL0     H57802  -1.182   0.831   6.887  2.2001  0.5546 -0.3242
  419MOL0     H57803  -0.996   0.895   6.726 -0.3856 -0.8180  3.2543
  419MOL0     H57804  -0.800   0.988   6.405  0.9999  0.7801  0.0517
  419MOL0     H57805  -0.612   1.071   6.265  1.3143 -1.0673  0.7214
  419MOL0     H57806   0.886   1.446   5.525  0.6606 -2.2946  0.6086
  419MOL0     H57807   0.897   1.613   5.319 -1.0986 -0.6960  1.7868
  419MOL0     H57808   0.787   1.690   4.931  0.9887 -2.6826 -0.9276
  419MOL0     H57809   0.757   1.889   4.800  0.3144  2.5356  0.7618
  419MOL0     H57810   1.104   2.109   4.646  2.1614 -0.8488 -0.3883
  419MOL0     H57811   1.057   2.006   4.510 -0.3183 -3.6334  3.3595
  419MOL0     H57812   1.028   2.277   4.475 -1.8549  0.6092 -1.1914
  419MOL0     H57813   0.883   2.257   4.573 -0.9254 -2.6419  0.9600
  419MOL0     H57814   0.865   2.252   4.329  1.8352 -0.3796 -0.5500
  419MOL0     H57815   0.940   2.095   4.330 -1.6794  0.3379 -2.7364
  419MOL0     H57816   0.751   2.015   4.478  2.3437 -0.0287 -1.0968
  419MOL0     H57817   0.700   2.074   4.323  0.4499  2.4319 -0.7182
  419MOL0     H57818   0.555   2.384   4.589 -0.7309  0.1234  0.0018
  419MOL0     H57819   1.169   1.890   4.688 -0.7748  0.0737  0.4582
  419MOL0     H57820   1.314   1.802   4.831 -3.1322  2.2494 -0.6105
  419MOL0     H57821   1.282   1.691   4.961  0.4325 -0.7262 -0.1196
  419MOL0     H57822   1.282   1.627   4.792 -1.6626  1.6824 -2.7203
  420MOL0     O57823   4.271  10.932   1.530  0.6927 -0.1132 -0.0013
  420MOL0     C57824   4.257  10.885   1.418  0.9342  0.1093 -0.5878
  420MOL0     O57825   4.328  10.918   1.307  0.1177  0.1283  0.0227
  420MOL0     C57826   4.442  11.006   1.301  1.5022  1.1331 -0.7987
  420MOL0     C57827   4.462  11.081   1.181  0.2009  0.9348  0.1489
  420MOL0     C57828   4.574  11.165   1.170 -0.9043  0.1863 -0.0880
  420MOL0     C57829   4.674  11.164   1.272  1.2946  0.7412 -0.7927
  420MOL0     O57830   4.784  11.240   1.258  0.6558 -0.1955 -0.3961
  420MOL0     C57831   4.791  11.361   1.182  0.9375  0.4317  0.6522
  420MOL0     C57832   4.931  11.420   1.198  0.9111  0.1207 -0.3255
  420MOL0     C57833   4.953  11.454   1.347  0.0458 -0.7833 -0.2632
  420MOL0     C57834   5.090  11.506   1.381  0.6809 -0.3021  0.1736
  420MOL0     C57835   5.096  11.536   1.533 -0.6948 -0.0113 -0.5060
  420MOL0     C57836   5.217  11.615   1.576 -0.0957 -0.3091  0.3096
  420MOL0     C57837   5.185  11.672   1.718  0.1213 -0.0189 -0.0948
  420MOL0     C57838   5.309  11.748   1.761  0.0636 -0.3779 -0.6636
  420MOL0     N57839   5.279  11.833   1.876 -0.1463  0.9487  0.3989
  420MOL0     C57840   5.256  11.972   1.865  0.2557 -0.3508 -0.6191
  420MOL0     C57841   5.276  12.017   1.993 -0.4016  0.4488 -0.0019
  420MOL0     C57842   5.267  12.158   2.049  0.0357  0.0141  0.3320
  420MOL0     C57843   5.126  12.170   2.116 -0.1378 -0.2363 -0.0429
  420MOL0     C57844   5.016  12.225   2.020 -1.0420  0.1942  0.3264
  420MOL0     C57845   4.893  12.263   2.101  0.4087 -0.2101 -0.0368
  420MOL0     O57846   4.915  12.398   2.134  0.4052  0.1474 -0.3927
  420MOL0     C57847   4.826  12.443   2.231 -0.6735 -0.3330 -0.8200
  420MOL0     C57848   4.824  12.397   2.364 -0.2861  0.0039 -0.8558
  420MOL0     C57849   4.748  12.453   2.473  0.3354 -0.0132  0.3551
  420MOL0     C57850   4.750  12.394   2.614  0.9295  0.1575 -0.2530
  420MOL0     C57851   4.672  12.568   2.439  0.2375  0.0826  0.5265
  420MOL0     C57852   4.589  12.652   2.534 -0.8660 -0.4888 -0.3733
  420MOL0     O57853   4.483  12.721   2.480 -1.3413 -1.0698 -0.3090
  420MOL0     C57854   4.390  12.761   2.566  0.6720 -0.4853  0.2512
  420MOL0     C57855   4.353  12.898   2.578 -0.5190 -0.0984  0.0072
  420MOL0     C57856   4.247  12.946   2.668  0.2444  0.5736  0.2853
  420MOL0     C57857   4.189  12.842   2.745  0.5418  0.1450  0.1284
  420MOL0     O57858   4.093  12.860   2.838  0.6587 -0.4360  0.3092
  420MOL0     C57859   4.095  12.984   2.912 -0.3886  1.0484 -0.0188
  420MOL0     C57860   4.002  12.981   3.042  0.5354  0.2427  0.0528
  420MOL0     C57861   3.856  13.009   3.004  0.5025 -0.2136 -0.6989
  420MOL0     C57862   3.778  13.041   3.138  0.1911 -0.3536  0.2400
  420MOL0     C57863   3.623  13.073   3.127  0.1016 -0.5174  0.1400
  420MOL0     C57864   3.555  12.969   3.050 -0.1467  0.4119 -0.3589
  420MOL0     C57865   3.407  12.968   3.069  1.0494  0.4098  0.2535
  420MOL0     C57866   3.332  12.859   2.989  0.1683  0.5514 -0.4850
  420MOL0    Cl57867   3.176  12.941   2.950 -0.0777 -0.3148  0.3698
  420MOL0     C57868   4.223  12.711   2.729  0.2804 -0.2136 -0.1710
  420MOL0     C57869   4.324  12.668   2.644  0.2688 -0.2045  0.0020
  420MOL0     O57870   4.627  12.662   2.653  0.4777  0.5105 -0.1722
  420MOL0     C57871   4.674  12.613   2.302 -0.0861 -0.0974 -0.8853
  420MOL0     C57872   4.747  12.552   2.205  0.7037  0.4231 -0.3697
  420MOL0     N57873   5.303  11.911   2.080 -0.2310 -0.8356 -0.4374
  420MOL0     N57874   5.292  11.809   2.008 -1.2397 -0.1398 -0.6505
  420MOL0     C57875   4.657  11.083   1.385 -0.1827  0.9053  0.1684
  420MOL0     C57876   4.534  11.015   1.401 -0.5344 -0.3177 -0.2384
  420MOL0     C57877   4.152  10.778   1.406  0.1460 -0.0316  0.7501
  420MOL0     C57878   4.184  10.657   1.329  0.1119 -0.1440 -0.4662
  420MOL0     C57879   4.092  10.548   1.313 -0.2175  0.1748 -0.5194
  420MOL0     C57880   3.966  10.557   1.379  0.6420 -0.1237  0.1519
  420MOL0     O57881   3.857  10.473   1.360  0.0476  0.2836 -0.5039
  420MOL0     C57882   3.885  10.344   1.312  0.1822  0.1028  0.4363
  420MOL0     C57883   3.761  10.253   1.309  0.6273 -0.4391  0.1568
  420MOL0     C57884   3.633  10.330   1.270  0.5935 -0.7330 -0.2992
  420MOL0     C57885   3.511  10.251   1.341 -0.9022 -0.0849  0.2063
  420MOL0     C57886   3.377  10.274   1.287  0.2238 -0.3175 -0.6792
  420MOL0     C57887   3.264  10.296   1.248  0.1377 -0.2983 -0.7007
  420MOL0     C57888   3.933  10.671   1.460  0.0509  0.0592  0.0638
  420MOL0     C57889   4.021  10.777   1.460 -0.2809 -0.2366  0.0352
  420MOL0     C57890   3.959  10.890   1.528  0.5051 -0.0156  0.4936
  420MOL0     H57891   4.397  11.072   1.094  1.0731  0.5008 -0.4708
  420MOL0     H57892   4.597  11.225   1.083 -0.6668  0.6711  0.3013
  420MOL0     H57893   4.720  11.431   1.227 -1.0466 -0.1204 -1.3924
  420MOL0     H57894   4.763  11.366   1.076  2.9562  2.7607  0.1364
  420MOL0     H57895   5.004  11.345   1.167 -0.5392 -1.3598 -0.3168
  420MOL0     H57896   4.961  11.506   1.137  0.1045  2.1939  2.0449
  420MOL0     H57897   4.867  11.519   1.365  0.1154 -1.2154  2.0455
  420MOL0     H57898   4.946  11.373   1.421  0.1720 -1.7076 -1.2435
  420MOL0     H57899   5.168  11.439   1.345 -1.2179 -1.6658 -1.6641
  420MOL0     H57900   5.114  11.595   1.322  0.3527 -0.3350 -0.0154
  420MOL0     H57901   5.086  11.453   1.604  1.8091  0.0531  0.0402
  420MOL0     H57902   5.011  11.601   1.556 -0.7861  0.5377 -2.2912
  420MOL0     H57903   5.307  11.554   1.559  1.0778  1.9281 -2.1430
  420MOL0     H57904   5.233  11.697   1.506  2.2370 -1.3626 -0.5035
  420MOL0     H57905   5.172  11.593   1.793  0.9539  2.3402  2.7161
  420MOL0     H57906   5.101  11.741   1.717 -0.0832 -0.2322 -2.1607
  420MOL0     H57907   5.382  11.674   1.794 -2.2551 -2.2004  0.7753
  420MOL0     H57908   5.347  11.810   1.680  1.0313  0.3924  0.3579
  420MOL0     H57909   5.235  12.031   1.776  0.8235 -0.9569 -1.1675
  420MOL0     H57910   5.279  12.229   1.966 -1.7134  4.5286  3.5322
  420MOL0     H57911   5.349  12.186   2.116 -0.7193  1.4889  0.6997
  420MOL0     H57912   5.095  12.068   2.140 -1.8618  0.2411 -0.0649
  420MOL0     H57913   5.140  12.231   2.206  1.0166  1.8406 -1.5346
  420MOL0     H57914   5.058  12.311   1.966  1.5033 -0.3254  1.3641
  420MOL0     H57915   4.981  12.155   1.944 -3.8688  0.3444  1.3599
  420MOL0     H57916   4.811  12.264   2.028  1.4176 -0.9441 -1.2229
  420MOL0     H57917   4.879  12.180   2.171  0.6147 -0.0001  0.2553
  420MOL0     H57918   4.909  12.334   2.389  0.1521 -0.9170 -4.2260
  420MOL0     H57919   4.645  12.371   2.636  0.0228  3.1220 -0.9532
  420MOL0     H57920   4.786  12.461   2.693 -3.2904  2.2269  0.2605
  420MOL0     H57921   4.804  12.300   2.615 -1.3279 -1.2402  1.6119
  420MOL0     H57922   4.422  12.965   2.527 -0.8400 -2.0363 -3.3002
  420MOL0     H57923   4.216  13.049   2.680 -0.4465  0.3126  0.8205
  420MOL0     H57924   4.193  13.001   2.958 -2.4359  0.4086  5.2566
  420MOL0     H57925   4.058  13.060   2.842  1.1741  0.3762 -1.6474
  420MOL0     H57926   3.993  12.875   3.068 -5.2079  0.1054 -1.2289
  420MOL0     H57927   4.039  13.040   3.127  0.1129 -0.0696  0.4596
  420MOL0     H57928   3.806  12.924   2.957  0.2286 -0.3979 -0.0834
  420MOL0     H57929   3.859  13.100   2.944  2.9543 -0.5454 -1.2031
  420MOL0     H57930   3.840  13.110   3.197  0.8455 -1.6721  1.1380
  420MOL0     H57931   3.775  12.950   3.198 -2.7001 -1.2991 -1.1550
  420MOL0     H57932   3.576  13.083   3.225 -2.8098 -0.6047 -1.1498
  420MOL0     H57933   3.608  13.172   3.081  1.7416  0.1173  0.8694
  420MOL0     H57934   3.581  12.886   3.117 -3.4228  1.1251  2.0178
  420MOL0     H57935   3.581  12.953   2.945 -3.0788 -0.3792 -1.0424
  420MOL0     H57936   3.369  13.063   3.030 -1.4581  0.2860  2.1343
  420MOL0     H57937   3.389  12.958   3.176 -0.8115 -0.0198 -0.0675
  420MOL0     H57938   3.326  12.766   3.045  2.0319  1.3558  1.1694
  420MOL0     H57939   3.391  12.830   2.901 -0.0108 -2.5169  0.3219
  420MOL0     H57940   4.163  12.648   2.794  1.8303  0.6739  2.2297
  420MOL0     H57941   4.358  12.566   2.635 -1.0927 -0.7117  0.3038
  420MOL0     H57942   4.618  12.702   2.275 -0.8046 -0.5967 -1.0610
  420MOL0     H57943   4.750  12.601   2.108 -1.2223 -0.3137 -0.8487
  420MOL0     H57944   4.732  11.082   1.464  2.1124  2.6537 -1.8254
  420MOL0     H57945   4.521  10.948   1.486  0.5433  2.0389  1.9120
  420MOL0     H57946   4.282  10.653   1.284 -0.1282 -0.7333 -0.9471
  420MOL0     H57947   4.116  10.471   1.241  1.9261 -1.3195  1.6431
  420MOL0     H57948   3.921  10.363   1.211  1.4240 -3.6209  0.0313
  420MOL0     H57949   3.970  10.296   1.361  1.5888  0.2535 -1.7320
  420MOL0     H57950   3.741  10.217   1.410  0.1761  0.6478  0.4675
  420MOL0     H57951   3.778  10.169   1.242  5.3398 -0.1194  0.6219
  420MOL0     H57952   3.625  10.432   1.310  0.8305 -0.4803 -0.8902
  420MOL0     H57953   3.625  10.340   1.162  3.2540 -0.5980 -0.5371
  420MOL0     H57954   3.522  10.273   1.448  3.7035  1.4164 -0.3361
  420MOL0     H57955   3.538  10.145   1.335  0.4107  0.1227  1.6880
  420MOL0     H57956   3.167  10.324   1.213  0.3892 -0.7802 -1.8048
  420MOL0     H57957   3.838  10.688   1.510  0.3979  0.5368  0.5762
  420MOL0     H57958   3.925  10.840   1.619 -0.8105 -2.0619 -1.0379
  420MOL0     H57959   4.022  10.975   1.556 -0.3921  0.0538  2.4750
  420MOL0     H57960   3.883  10.940   1.468  0.9503 -0.0590 -0.1100
  421MOL0     O57961   6.404   3.524   3.752 -0.0945 -0.3518 -0.2265
  421MOL0     C57962   6.413   3.446   3.840  0.8704  0.0333  0.0131
  421MOL0     O57963   6.322   3.443   3.949  0.1279 -0.0488  0.9631
  421MOL0     C57964   6.215   3.537   3.949 -0.3235 -0.0264  0.3025
  421MOL0     C57965   6.229   3.650   4.021 -0.0196  0.2566  0.2132
  421MOL0     C57966   6.131   3.739   4.053 -0.0980 -0.1274  0.5597
  421MOL0     C57967   6.002   3.708   4.001  0.5932 -0.2669 -0.2983
  421MOL0     O57968   5.896   3.797   4.024 -0.0338  0.5293 -0.1919
  421MOL0     C57969   5.876   3.828   4.159 -0.2282 -0.5132  0.1649
  421MOL0     C57970   5.777   3.938   4.159  1.2840 -0.6752  0.7445
  421MOL0     C57971   5.771   4.005   4.292  0.1477  0.3277  0.1086
  421MOL0     C57972   5.714   4.152   4.273  0.6316 -1.0155 -0.7248
  421MOL0     C57973   5.725   4.232   4.405 -0.5197 -0.0989  0.0659
  421MOL0     C57974   5.671   4.380   4.399 -0.1628  0.2811  0.3033
  421MOL0     C57975   5.646   4.421   4.540 -0.1127  0.2488 -0.0501
  421MOL0     C57976   5.596   4.557   4.555 -0.2152 -0.1437 -0.0965
  421MOL0     N57977   5.581   4.611   4.692 -0.1447 -0.5499 -0.2184
  421MOL0     C57978   5.483   4.555   4.776 -0.4367  0.5140 -0.4046
  421MOL0     C57979   5.543   4.593   4.893  0.5291 -0.1345 -0.3031
  421MOL0     C57980   5.498   4.540   5.024  0.3716 -0.3743  0.4672
  421MOL0     C57981   5.352   4.580   5.062 -0.2072 -0.8368  0.0817
  421MOL0     C57982   5.344   4.721   5.080 -0.7274 -1.2821  0.9659
  421MOL0     C57983   5.210   4.782   5.125  0.2163  0.1431  0.3044
  421MOL0     O57984   5.162   4.887   5.038  0.9201  0.1335 -0.5175
  421MOL0     C57985   5.025   4.893   5.006 -1.0413  0.1412 -1.0158
  421MOL0     C57986   4.971   4.928   4.889 -0.2255 -0.1923 -0.0370
  421MOL0     C57987   4.833   4.929   4.876  0.4420  0.0854  0.2434
  421MOL0     C57988   4.791   4.974   4.733  0.3179 -0.1195 -0.0482
  421MOL0     C57989   4.736   4.917   4.980  0.8700  0.0428  1.2799
  421MOL0     C57990   4.588   4.923   4.970  1.2730  0.2074  0.2062
  421MOL0     O57991   4.521   4.832   5.047 -0.0176  0.8559  0.2596
  421MOL0     C57992   4.386   4.831   5.035  0.2693 -0.7405  0.1127
  421MOL0     C57993   4.313   4.816   4.917 -0.1667 -0.1321  0.8491
  421MOL0     C57994   4.174   4.815   4.914 -1.0458 -0.8321  0.7946
  421MOL0     C57995   4.100   4.822   5.030 -0.4868  0.2208 -0.1819
  421MOL0     O57996   3.962   4.820   5.031 -0.1567 -0.0496 -0.4360
  421MOL0     C57997   3.883   4.786   4.919 -0.3370  0.4502 -0.3343
  421MOL0     C57998   3.842   4.915   4.845 -0.5966  0.0112 -0.0830
  421MOL0     C57999   3.729   5.004   4.904  0.3228 -0.8038 -0.5980
  421MOL0     C58000   3.781   5.140   4.969  0.6974 -0.5975 -0.8186
  421MOL0     C58001   3.805   5.249   4.860 -0.0996 -0.0637  0.8221
  421MOL0     C58002   3.897   5.367   4.895 -0.0689 -0.3245  0.0708
  421MOL0     C58003   3.944   5.439   4.767 -0.4153 -0.4724 -0.2734
  421MOL0     C58004   3.989   5.580   4.805  0.6417 -0.1436 -0.3795
  421MOL0    Cl58005   3.905   5.692   4.705  0.2706  0.0559  0.2579
  421MOL0     C58006   4.172   4.834   5.149  0.6050  0.2517 -0.4818
  421MOL0     C58007   4.310   4.835   5.152  0.5636 -0.2496  0.8403
  421MOL0     O58008   4.525   5.009   4.909 -0.2906  0.7525 -0.4850
  421MOL0     C58009   4.788   4.892   5.106  1.0745 -0.4057 -0.5891
  421MOL0     C58010   4.927   4.886   5.114  0.0860 -0.1897 -1.2101
  421MOL0     N58011   5.649   4.676   4.886  0.5273  0.2570  0.0080
  421MOL0     N58012   5.677   4.684   4.756  0.9274  0.2713 -0.0738
  421MOL0     C58013   5.990   3.603   3.902  0.8089  0.3569 -0.0139
  421MOL0     C58014   6.095   3.515   3.888 -0.2524  1.0005 -0.6826
  421MOL0     C58015   6.515   3.339   3.834 -0.2065  0.1827  0.2487
  421MOL0     C58016   6.642   3.388   3.831 -1.4068  0.2708  0.0110
  421MOL0     C58017   6.744   3.295   3.849 -0.3092  0.7963 -0.3451
  421MOL0     C58018   6.726   3.155   3.866 -1.0324  0.5433  0.2109
  421MOL0     O58019   6.837   3.068   3.885  0.2278 -0.2295  0.2867
  421MOL0     C58020   6.821   2.957   3.969  0.3205 -0.3729 -0.3643
  421MOL0     C58021   6.906   2.983   4.095 -0.3627 -0.7642  0.2099
  421MOL0     C58022   6.915   2.853   4.185  0.2543  0.0805  0.1322
  421MOL0     C58023   7.002   2.887   4.311 -0.2138 -0.0044  0.7284
  421MOL0     C58024   7.143   2.909   4.272 -0.1361 -0.8673 -0.9062
  421MOL0     C58025   7.260   2.924   4.251 -0.6756  0.1070  0.0901
  421MOL0     C58026   6.591   3.112   3.871  0.5342 -0.6448 -0.3876
  421MOL0     C58027   6.491   3.201   3.856  0.1354 -0.2597  0.6355
  421MOL0     C58028   6.352   3.134   3.872 -0.6309 -0.7663  0.1448
  421MOL0     H58029   6.322   3.670   4.074 -0.5663  1.1764  0.8505
  421MOL0     H58030   6.152   3.813   4.129 -0.1730  1.7404 -1.1587
  421MOL0     H58031   5.960   3.873   4.211  0.6448 -0.3796 -1.2941
  421MOL0     H58032   5.832   3.745   4.215 -0.0280 -1.0673 -0.4723
  421MOL0     H58033   5.814   4.005   4.080  1.7159  0.4791  1.8969
  421MOL0     H58034   5.675   3.904   4.138  0.9489  0.4986  0.3649
  421MOL0     H58035   5.717   3.945   4.366 -2.1174  1.3719 -0.6130
  421MOL0     H58036   5.871   4.031   4.327 -0.0144  2.0637 -0.6114
  421MOL0     H58037   5.768   4.201   4.191  0.7766 -0.4461 -0.3006
  421MOL0     H58038   5.609   4.154   4.242 -0.1460  2.5132  1.5903
  421MOL0     H58039   5.830   4.236   4.434  0.0219 -1.6528 -1.4829
  421MOL0     H58040   5.672   4.171   4.478 -0.1619  0.1778  0.5602
  421MOL0     H58041   5.743   4.447   4.350 -1.8285  2.0591  0.1864
  421MOL0     H58042   5.578   4.379   4.342  1.7018  3.2796 -3.2712
  421MOL0     H58043   5.745   4.416   4.588  0.8780  2.6607 -1.6671
  421MOL0     H58044   5.571   4.351   4.579  0.5758 -0.8402 -0.6155
  421MOL0     H58045   5.669   4.620   4.503 -2.8290  3.1413 -0.0990
  421MOL0     H58046   5.505   4.580   4.500 -0.3975 -0.7522 -0.0575
  421MOL0     H58047   5.406   4.483   4.749  1.7105 -1.8787 -0.4312
  421MOL0     H58048   5.559   4.587   5.102  1.3962 -0.8914 -0.0109
  421MOL0     H58049   5.510   4.432   5.035  0.6886 -0.2657  1.2691
  421MOL0     H58050   5.288   4.546   4.980 -1.4781  0.6731  0.3942
  421MOL0     H58051   5.315   4.525   5.149 -0.2496 -2.9369 -1.1755
  421MOL0     H58052   5.421   4.757   5.150 -0.0205  0.0503 -0.4287
  421MOL0     H58053   5.371   4.770   4.986  2.5922  0.2037  2.5109
  421MOL0     H58054   5.136   4.702   5.117 -0.5855  1.0287 -1.8550
  421MOL0     H58055   5.224   4.824   5.226 -0.6280  2.1377 -0.3530
  421MOL0     H58056   5.036   4.941   4.803  2.0632  1.4213  1.8018
  421MOL0     H58057   4.762   5.079   4.741  1.4733  0.2287 -0.3077
  421MOL0     H58058   4.708   4.909   4.703  1.2773 -1.6686  0.4732
  421MOL0     H58059   4.871   4.963   4.660 -1.2920 -0.5125 -1.8198
  421MOL0     H58060   4.370   4.803   4.825  0.0180 -0.2296  0.9768
  421MOL0     H58061   4.122   4.787   4.823  0.6331 -1.8091  0.0920
  421MOL0     H58062   3.938   4.711   4.860 -2.4476 -0.4177 -1.2751
  421MOL0     H58063   3.794   4.729   4.947 -0.7168 -1.3568 -4.5359
  421MOL0     H58064   3.933   4.975   4.847 -1.7925  1.8784  1.8051
  421MOL0     H58065   3.818   4.897   4.740 -2.3995 -1.9894  0.5919
  421MOL0     H58066   3.664   4.946   4.970  0.4190  1.2097  1.3668
  421MOL0     H58067   3.672   5.038   4.817  0.1037  0.0956 -0.1084
  421MOL0     H58068   3.875   5.113   5.018 -0.1654 -1.3060  0.4876
  421MOL0     H58069   3.705   5.182   5.035 -0.1587  0.8753 -2.6335
  421MOL0     H58070   3.854   5.195   4.778 -1.9094  0.2073 -0.4818
  421MOL0     H58071   3.714   5.299   4.828  0.8073  2.8746  2.3872
  421MOL0     H58072   3.985   5.325   4.945 -0.2193  0.6060  1.1530
  421MOL0     H58073   3.846   5.433   4.966  2.2968 -0.2704  1.8888
  421MOL0     H58074   3.853   5.432   4.707 -0.8438 -2.4941  0.5141
  421MOL0     H58075   4.020   5.385   4.708 -0.2163 -3.7156  2.6428
  421MOL0     H58076   4.096   5.601   4.791  0.5373  2.5558  1.9483
  421MOL0     H58077   3.973   5.599   4.911  0.9943 -1.2212 -0.1292
  421MOL0     H58078   4.123   4.843   5.245  1.3532 -0.2390 -0.0430
  421MOL0     H58079   4.353   4.857   5.249  0.8195 -1.2543  0.9589
  421MOL0     H58080   4.729   4.884   5.196  0.2648  2.8345 -0.6861
  421MOL0     H58081   4.960   4.842   5.207 -2.6691 -2.9099 -1.3436
  421MOL0     H58082   5.895   3.596   3.851  0.9043  0.8306 -0.2641
  421MOL0     H58083   6.079   3.424   3.831 -3.8510  0.8949  0.2487
  421MOL0     H58084   6.681   3.489   3.822 -0.1799 -0.1878  0.0083
  421MOL0     H58085   6.848   3.322   3.839 -0.1548  0.9460  1.3769
  421MOL0     H58086   6.717   2.933   3.992  0.0794  1.1253  0.2169
  421MOL0     H58087   6.853   2.867   3.916 -1.3771  0.0151 -2.2109
  421MOL0     H58088   6.865   3.066   4.155 -1.4197 -1.0391 -0.1037
  421MOL0     H58089   7.006   3.003   4.058 -0.8501 -0.9708 -1.2783
  421MOL0     H58090   6.818   2.825   4.226  0.6878 -0.9121  0.5124
  421MOL0     H58091   6.956   2.770   4.126  1.1843 -0.8206  1.9587
  421MOL0     H58092   6.994   2.796   4.372  1.0274  0.5668  1.7824
  421MOL0     H58093   6.976   2.973   4.373 -0.5252  0.7928 -0.4957
  421MOL0     H58094   7.363   2.953   4.247 -1.0100  3.2848  5.0646
  421MOL0     H58095   6.561   3.009   3.886 -2.6917  0.5839  2.8152
  421MOL0     H58096   6.338   3.053   3.800 -2.0986  1.2958 -2.0459
  421MOL0     H58097   6.344   3.113   3.979 -1.5095  2.7946  0.9197
  421MOL0     H58098   6.273   3.206   3.848  0.0123 -0.3306 -0.7351
  422MOL0     O58099   3.506   3.090   2.191  0.2119  0.4364 -0.9378
  422MOL0     C58100   3.380   3.092   2.222  0.2358 -0.7545  0.1944
  422MOL0     O58101   3.330   3.041   2.337 -0.4550  0.2066 -0.8940
  422MOL0     C58102   3.415   2.998   2.432 -1.5230  0.3685  0.4146
  422MOL0     C58103   3.391   2.860   2.474 -0.0354  0.7026 -0.5954
  422MOL0     C58104   3.479   2.793   2.565  0.0988 -0.5886 -0.1858
  422MOL0     C58105   3.593   2.862   2.613  0.0626 -0.4679 -0.4031
  422MOL0     O58106   3.690   2.801   2.693 -0.2259 -0.6171 -0.0200
  422MOL0     C58107   3.720   2.667   2.662 -1.1243  0.8081 -0.3818
  422MOL0     C58108   3.846   2.628   2.743  0.6027 -0.3065  0.1859
  422MOL0     C58109   3.970   2.698   2.692 -0.0478  0.0468  0.5787
  422MOL0     C58110   4.098   2.620   2.717 -0.0718  0.0448 -0.6430
  422MOL0     C58111   4.132   2.521   2.612 -0.3770 -0.6685  0.5810
  422MOL0     C58112   4.184   2.583   2.478 -0.4371 -0.7682  0.0972
  422MOL0     C58113   4.328   2.637   2.465 -0.6474  0.2947 -0.6434
  422MOL0     C58114   4.438   2.533   2.497 -0.4338 -0.4475  0.2329
  422MOL0     N58115   4.443   2.426   2.396  0.2908  0.3235 -0.2129
  422MOL0     C58116   4.457   2.439   2.257  0.6184  1.0363 -0.6784
  422MOL0     C58117   4.439   2.314   2.213 -0.3732 -0.0161  0.0685
  422MOL0     C58118   4.443   2.270   2.074 -0.4447 -1.1229 -0.0292
  422MOL0     C58119   4.573   2.318   2.003 -0.5398  0.4156 -0.2554
  422MOL0     C58120   4.584   2.272   1.866 -0.1592 -0.4073 -0.0060
  422MOL0     C58121   4.713   2.281   1.803  0.8325 -0.2571 -0.9144
  422MOL0     O58122   4.795   2.185   1.858 -0.7998 -0.4312  0.3283
  422MOL0     C58123   4.812   2.059   1.811  0.1583 -0.5206  0.0570
  422MOL0     C58124   4.748   2.007   1.691  0.2390  0.3918 -0.7110
  422MOL0     C58125   4.772   1.881   1.638  0.0303 -0.0565  0.7784
  422MOL0     C58126   4.695   1.836   1.516  0.4426  0.1505  0.1239
  422MOL0     C58127   4.860   1.792   1.711  0.5246 -0.8828  0.9887
  422MOL0     C58128   4.892   1.657   1.675 -0.2008 -0.3739 -0.9221
  422MOL0     O58129   4.799   1.566   1.647 -0.2175  0.4878  0.4117
  422MOL0     C58130   4.846   1.452   1.582 -0.1015  0.7039 -0.2755
  422MOL0     C58131   4.768   1.395   1.478  0.9518  0.0492  0.5373
  422MOL0     C58132   4.800   1.269   1.428  0.6038 -0.0568 -0.7626
  422MOL0     C58133   4.922   1.205   1.455  0.5984  0.2139  0.1735
  422MOL0     O58134   4.962   1.088   1.390 -0.0896 -0.1938  0.4053
  422MOL0     C58135   4.857   0.990   1.396  0.3681 -0.3653  0.5109
  422MOL0     C58136   4.896   0.878   1.307  0.1367  0.0796  0.5751
  422MOL0     C58137   4.929   0.923   1.162  0.1697  0.1189 -0.3959
  422MOL0     C58138   4.997   0.817   1.081 -0.3116 -0.6789 -0.0836
  422MOL0     C58139   4.959   0.823   0.932  0.2104  0.7478  0.0353
  422MOL0     C58140   5.064   0.732   0.859 -0.5970  0.3507  0.2815
  422MOL0     C58141   5.008   0.632   0.770  0.6846  0.2298 -0.3118
  422MOL0     C58142   4.930   0.525   0.846 -0.2442 -0.7995 -0.2463
  422MOL0    Cl58143   4.872   0.415   0.725  0.2641 -0.2562 -0.6695
  422MOL0     C58144   5.001   1.269   1.553  0.1381  0.7379  0.4845
  422MOL0     C58145   4.957   1.379   1.618  0.6301 -0.3405 -0.6248
  422MOL0     O58146   5.014   1.637   1.677  0.2522  0.4790  0.4755
  422MOL0     C58147   4.920   1.845   1.825 -0.4005 -0.0118  0.1590
  422MOL0     C58148   4.904   1.972   1.874 -0.6288 -0.1196  0.0948
  422MOL0     N58149   4.416   2.229   2.321 -0.0726 -0.6246 -0.5982
  422MOL0     N58150   4.408   2.301   2.428 -0.4613  0.4562  0.0662
  422MOL0     C58151   3.611   2.998   2.579  0.4955  0.3016  0.0693
  422MOL0     C58152   3.524   3.068   2.499 -0.0084  0.7698 -0.7087
  422MOL0     C58153   3.281   3.143   2.120 -0.6006 -0.8032 -0.5150
  422MOL0     C58154   3.304   3.102   1.988 -0.0769  0.5002 -0.1331
  422MOL0     C58155   3.217   3.155   1.891 -0.2005  0.5001 -0.1098
  422MOL0     C58156   3.111   3.232   1.925  0.7599  0.8554  0.0524
  422MOL0     O58157   3.025   3.280   1.824  0.1442  0.0015 -0.0168
  422MOL0     C58158   3.032   3.233   1.686 -0.3013 -0.4957 -0.7249
  422MOL0     C58159   2.975   3.085   1.665  0.3883 -0.0743  0.0583
  422MOL0     C58160   2.975   3.040   1.509  0.1856 -0.2726 -0.1338
  422MOL0     C58161   2.866   2.935   1.483  0.4165  1.0080 -0.1852
  422MOL0     C58162   2.924   2.852   1.374 -0.2056  0.4056  0.2712
  422MOL0     C58163   2.967   2.784   1.282 -0.8655  0.1765 -0.8182
  422MOL0     C58164   3.090   3.280   2.052  0.6026  0.6443  0.0531
  422MOL0     C58165   3.176   3.230   2.149 -0.5973 -0.6430 -0.1854
  422MOL0     C58166   3.140   3.270   2.290 -0.9796 -0.0961  0.1133
  422MOL0     H58167   3.312   2.792   2.443  0.0310 -1.1172  2.7681
  422MOL0     H58168   3.454   2.692   2.597  1.4690 -0.6510  0.7720
  422MOL0     H58169   3.737   2.650   2.556 -0.4426 -0.7505 -0.0506
  422MOL0     H58170   3.638   2.600   2.692 -0.6508  0.1256 -0.5725
  422MOL0     H58171   3.826   2.657   2.846 -0.3994  0.1581 -0.1229
  422MOL0     H58172   3.866   2.520   2.735  0.5143 -0.2926 -0.2556
  422MOL0     H58173   3.956   2.724   2.587 -3.7648 -1.5479  0.5099
  422MOL0     H58174   3.969   2.793   2.746  0.4908  2.2881 -3.0243
  422MOL0     H58175   4.187   2.679   2.741  0.1994 -0.5194 -0.2506
  422MOL0     H58176   4.077   2.567   2.810  2.3423 -2.7564 -1.5496
  422MOL0     H58177   4.044   2.459   2.593 -1.0780 -0.9284  3.9418
  422MOL0     H58178   4.213   2.459   2.651  0.7773 -0.3827 -1.2638
  422MOL0     H58179   4.181   2.500   2.406 -3.4536 -2.0807  1.5705
  422MOL0     H58180   4.115   2.658   2.438 -0.4877 -1.9344 -2.1847
  422MOL0     H58181   4.331   2.727   2.528 -2.1330  0.0680 -0.2000
  422MOL0     H58182   4.346   2.673   2.364  0.8577 -1.1844 -0.9288
  422MOL0     H58183   4.537   2.579   2.507  1.0001 -2.3572 -3.4239
  422MOL0     H58184   4.415   2.488   2.594  2.7054 -4.1955 -0.5111
  422MOL0     H58185   4.475   2.532   2.204  2.7346 -0.0615 -2.0532
  422MOL0     H58186   4.365   2.330   2.026  0.3871  0.0639  0.0516
  422MOL0     H58187   4.428   2.162   2.071  0.7492 -1.3761  1.7559
  422MOL0     H58188   4.568   2.427   1.997  0.0718  0.3624 -4.1591
  422MOL0     H58189   4.659   2.288   2.064 -1.5376  0.2015  1.0928
  422MOL0     H58190   4.563   2.165   1.869  4.6332 -1.5751  1.8285
  422MOL0     H58191   4.513   2.326   1.802 -0.2497  0.0980  0.5057
  422MOL0     H58192   4.705   2.267   1.695  1.8011  0.3815 -1.0844
  422MOL0     H58193   4.762   2.377   1.822  1.1672 -0.6153  0.1368
  422MOL0     H58194   4.672   2.071   1.648 -0.6243  0.5356  0.9291
  422MOL0     H58195   4.595   1.797   1.534  0.7574  1.0082  5.3136
  422MOL0     H58196   4.762   1.765   1.467 -1.1156 -1.3767  0.1329
  422MOL0     H58197   4.683   1.928   1.457 -0.5960  0.7486  1.2207
  422MOL0     H58198   4.684   1.456   1.447 -0.1972 -2.0279 -0.7226
  422MOL0     H58199   4.727   1.239   1.353  0.4329 -0.4630 -0.4345
  422MOL0     H58200   4.834   0.970   1.501  1.3613  1.7618  1.1855
  422MOL0     H58201   4.772   1.036   1.344  1.2332  1.5975  0.7697
  422MOL0     H58202   4.978   0.811   1.334  0.1564 -0.2565 -0.2803
  422MOL0     H58203   4.803   0.822   1.291 -1.0195  1.9332  0.5473
  422MOL0     H58204   5.001   1.005   1.162  2.4015 -1.5255  3.9690
  422MOL0     H58205   4.836   0.956   1.114  1.0702  0.3445 -2.0925
  422MOL0     H58206   4.962   0.724   1.126 -1.0569  0.1101  1.0223
  422MOL0     H58207   5.106   0.823   1.078 -0.3965  0.5617 -1.3253
  422MOL0     H58208   4.856   0.788   0.923  0.4490  0.2969 -1.2253
  422MOL0     H58209   4.958   0.922   0.885  1.7078 -0.3079 -2.4649
  422MOL0     H58210   5.134   0.673   0.919  2.6512  2.5183 -1.0858
  422MOL0     H58211   5.130   0.801   0.805  0.4226 -1.1434 -0.4390
  422MOL0     H58212   5.093   0.581   0.722 -1.0437 -1.9256 -1.2659
  422MOL0     H58213   4.948   0.678   0.691 -0.0867 -0.1572  0.0360
  422MOL0     H58214   4.847   0.579   0.893  1.1411  1.9739 -0.7830
  422MOL0     H58215   4.983   0.471   0.925 -0.0600 -0.7132 -0.3101
  422MOL0     H58216   5.086   1.208   1.580 -0.9763 -1.7754 -1.3179
  422MOL0     H58217   5.018   1.390   1.707 -0.7521 -4.5131  1.0766
  422MOL0     H58218   4.981   1.776   1.883 -5.3454 -4.3972  0.9059
  422MOL0     H58219   4.956   2.003   1.964  1.6482 -1.0565 -0.8355
  422MOL0     H58220   3.699   3.042   2.623  0.0384  1.2201  0.0725
  422MOL0     H58221   3.529   3.174   2.480  0.6798  1.3708  2.2187
  422MOL0     H58222   3.387   3.038   1.962 -0.1067 -0.3982  1.8014
  422MOL0     H58223   3.245   3.120   1.792  1.4153 -2.7936  1.3422
  422MOL0     H58224   2.966   3.292   1.621  0.3048  1.2457  0.1807
  422MOL0     H58225   3.135   3.236   1.650  1.0654  1.4272  2.8554
  422MOL0     H58226   2.874   3.079   1.706  0.3876 -3.7373 -0.0948
  422MOL0     H58227   3.035   3.007   1.713  1.5895 -0.3185 -1.7094
  422MOL0     H58228   2.947   3.127   1.448 -1.7764 -1.7556 -1.4638
  422MOL0     H58229   3.076   3.015   1.476  0.4332  1.5242 -0.8469
  422MOL0     H58230   2.776   2.990   1.456 -1.9753 -1.7817  1.5494
  422MOL0     H58231   2.852   2.863   1.565  1.7622 -0.8430 -1.4860
  422MOL0     H58232   3.004   2.718   1.207 -1.8909 -0.7658 -0.5164
  422MOL0     H58233   3.012   3.352   2.075  2.5011  2.3054  1.8029
  422MOL0     H58234   3.145   3.379   2.293 -0.2838 -0.0353 -1.8825
  422MOL0     H58235   3.043   3.222   2.309 -1.2051 -0.9175 -2.6993
  422MOL0     H58236   3.205   3.240   2.373  0.0039  3.1606  0.6503
  423MOL0     O58237   1.917   1.981   6.356 -0.2962 -0.3875 -1.2958
  423MOL0     C58238   1.974   1.938   6.256  0.6589 -0.6416 -0.3856
  423MOL0     O58239   2.063   1.842   6.242  0.1207  0.5709  1.0556
  423MOL0     C58240   2.127   1.783   6.341 -0.1968 -0.3222  0.1424
  423MOL0     C58241   2.268   1.776   6.322  0.0534 -0.3796  0.4839
  423MOL0     C58242   2.348   1.727   6.425  1.0055 -0.6026  0.4057
  423MOL0     C58243   2.293   1.684   6.541  0.4408  0.4333 -0.3576
  423MOL0     O58244   2.393   1.650   6.638  0.4935  0.2011  0.3694
  423MOL0     C58245   2.361   1.644   6.776 -0.1392  0.2612  0.0518
  423MOL0     C58246   2.472   1.713   6.857  0.2421  0.2874  0.1695
  423MOL0     C58247   2.415   1.737   7.000  0.0380 -0.0600  0.2161
  423MOL0     C58248   2.504   1.839   7.084 -0.0168  0.3713 -0.9000
  423MOL0     C58249   2.452   1.835   7.231 -0.1702 -0.0819 -0.9053
  423MOL0     C58250   2.542   1.906   7.325 -0.0949 -0.2685 -0.0638
  423MOL0     C58251   2.510   1.870   7.466  0.7966 -0.5134 -0.6104
  423MOL0     C58252   2.590   1.933   7.585  0.2135 -0.5867  0.0170
  423MOL0     N58253   2.707   1.848   7.615  0.8452 -0.5165 -0.6375
  423MOL0     C58254   2.831   1.896   7.584 -0.0390  0.9094 -0.0192
  423MOL0     C58255   2.909   1.796   7.609 -0.1860  0.6579  0.1480
  423MOL0     C58256   3.052   1.783   7.562  0.9288 -0.0355  1.1186
  423MOL0     C58257   3.143   1.805   7.687  0.5706  0.6698  0.0094
  423MOL0     C58258   3.287   1.847   7.635  0.2301 -0.6289 -0.4880
  423MOL0     C58259   3.375   1.927   7.736 -0.4110  0.2322 -0.8845
  423MOL0     O58260   3.323   2.052   7.775  0.8111  0.5193 -0.2828
  423MOL0     C58261   3.289   2.138   7.675  0.3354  0.5588 -1.0076
  423MOL0     C58262   3.154   2.146   7.637 -0.6600  0.3409  0.4094
  423MOL0     C58263   3.110   2.249   7.550  0.3677 -0.8282  0.8820
  423MOL0     C58264   2.964   2.280   7.549 -1.2499  0.0412  0.2357
  423MOL0     C58265   3.217   2.333   7.490  0.7767  0.6960  0.3315
  423MOL0     C58266   3.190   2.464   7.401 -0.0292 -0.7529  0.6982
  423MOL0     O58267   3.066   2.481   7.353 -0.3560 -0.2940  0.0343
  423MOL0     C58268   3.042   2.590   7.271  0.5174 -0.2449  0.3384
  423MOL0     C58269   3.001   2.555   7.140 -0.8257  0.9772 -0.5099
  423MOL0     C58270   2.943   2.642   7.047 -0.3699  0.2657  0.2084
  423MOL0     C58271   2.924   2.774   7.089  0.4787 -0.3028 -0.2288
  423MOL0     O58272   2.865   2.862   6.999  1.0513  0.0392 -0.2090
  423MOL0     C58273   2.785   2.978   7.046 -0.2207  0.6796  0.0383
  423MOL0     C58274   2.876   3.106   7.032  0.5658  1.0310  1.2742
  423MOL0     C58275   2.924   3.118   6.891  0.3918 -0.1680  0.1299
  423MOL0     C58276   3.064   3.071   6.873 -0.6480 -0.4929 -0.0304
  423MOL0     C58277   3.101   3.049   6.724  0.7737  0.5980  0.2354
  423MOL0     C58278   3.246   2.998   6.705  0.4209 -0.1797  0.4856
  423MOL0     C58279   3.271   2.953   6.557  0.2983  0.7341 -0.7126
  423MOL0     C58280   3.420   2.898   6.542  0.2352 -0.4017 -0.3207
  423MOL0    Cl58281   3.522   3.038   6.583 -0.3976  0.6952 -0.2845
  423MOL0     C58282   2.978   2.819   7.207  0.0652 -0.6206  0.2352
  423MOL0     C58283   3.039   2.728   7.294 -0.2074  0.2097  0.0006
  423MOL0     O58284   3.282   2.544   7.383 -0.1982  0.3999  0.0306
  423MOL0     C58285   3.354   2.306   7.514  0.0304 -0.0843 -0.0502
  423MOL0     C58286   3.387   2.217   7.608  0.5158 -0.0946  0.5738
  423MOL0     N58287   2.837   1.683   7.665 -0.5514 -0.3972 -0.0882
  423MOL0     N58288   2.713   1.726   7.675  0.0690  0.5960  0.8669
  423MOL0     C58289   2.154   1.678   6.557 -0.3833  0.1130  0.3787
  423MOL0     C58290   2.068   1.733   6.458 -0.1226 -0.2683  0.0649
  423MOL0     C58291   1.902   1.984   6.132  0.2567  0.0160  0.5726
  423MOL0     C58292   1.770   2.041   6.143 -0.0070 -0.9072 -0.0317
  423MOL0     C58293   1.693   2.081   6.028  0.3329 -0.4867 -0.6678
  423MOL0     C58294   1.747   2.070   5.897 -0.3216 -0.0483 -0.5733
  423MOL0     O58295   1.696   2.113   5.780  0.3332 -0.3727  0.6437
  423MOL0     C58296   1.562   2.169   5.779  0.3793  0.1515 -0.2703
  423MOL0     C58297   1.532   2.239   5.648 -0.9452 -0.1075 -0.7348
  423MOL0     C58298   1.545   2.139   5.533  0.6031  0.0677  0.0421
  423MOL0     C58299   1.496   2.206   5.405 -0.0607  0.4707 -0.1933
  423MOL0     C58300   1.352   2.221   5.412  0.7318  0.6541  0.3546
  423MOL0     C58301   1.234   2.202   5.410 -0.0512  0.5230 -0.6318
  423MOL0     C58302   1.878   2.015   5.899  0.4972  0.8272 -0.0282
  423MOL0     C58303   1.956   1.967   6.003 -0.4946 -0.6802  0.2842
  423MOL0     C58304   2.094   1.922   5.966 -0.7819 -0.5902 -0.9341
  423MOL0     H58305   2.310   1.803   6.225  0.6056 -2.9733 -0.1010
  423MOL0     H58306   2.453   1.717   6.404  0.7125 -0.3675 -1.3335
  423MOL0     H58307   2.365   1.538   6.806 -0.9776  0.4642  0.9275
  423MOL0     H58308   2.266   1.691   6.804 -0.9079 -0.9109 -0.4759
  423MOL0     H58309   2.564   1.655   6.865  1.2336  1.5611 -1.5081
  423MOL0     H58310   2.505   1.798   6.797  0.3385  1.3137  1.6216
  423MOL0     H58311   2.315   1.782   6.999 -0.2564 -0.6915  0.5951
  423MOL0     H58312   2.401   1.637   7.042  0.7290 -0.5921 -0.7918
  423MOL0     H58313   2.606   1.798   7.081  1.1614  3.1449 -1.5645
  423MOL0     H58314   2.510   1.938   7.038 -0.7900  1.4299  1.1744
  423MOL0     H58315   2.431   1.734   7.269  2.2454 -0.5974 -0.7703
  423MOL0     H58316   2.353   1.881   7.242 -1.6769 -3.2203  0.0408
  423MOL0     H58317   2.644   1.869   7.308 -0.2592 -0.2201 -1.2382
  423MOL0     H58318   2.537   2.015   7.320  3.4164 -0.0030 -0.8000
  423MOL0     H58319   2.512   1.762   7.480  1.1703 -0.2143  2.4197
  423MOL0     H58320   2.407   1.908   7.472  1.7032  2.2452 -1.1494
  423MOL0     H58321   2.610   2.038   7.563  1.3041 -1.2091 -2.2400
  423MOL0     H58322   2.520   1.906   7.665 -0.7494  0.3132 -0.5065
  423MOL0     H58323   2.863   1.991   7.543  4.4246 -0.1364  0.4258
  423MOL0     H58324   3.071   1.856   7.482 -2.0613  1.5499  1.7127
  423MOL0     H58325   3.058   1.680   7.526 -1.5481  0.6618 -1.6451
  423MOL0     H58326   3.104   1.881   7.755  1.4028  2.1258 -1.0939
  423MOL0     H58327   3.153   1.717   7.752  1.3861  0.8099  0.0911
  423MOL0     H58328   3.353   1.765   7.604  0.9227 -0.3312  0.1825
  423MOL0     H58329   3.281   1.915   7.550  2.0249 -2.7678 -2.4627
  423MOL0     H58330   3.380   1.867   7.827 -3.0582  0.2390 -0.6708
  423MOL0     H58331   3.479   1.928   7.701 -0.2762 -1.8324 -0.6293
  423MOL0     H58332   3.092   2.075   7.691 -0.2564  0.0456  0.4897
  423MOL0     H58333   2.933   2.306   7.448 -1.2702  0.1027  0.2586
  423MOL0     H58334   2.976   2.372   7.606 -0.6825  0.0827  0.0561
  423MOL0     H58335   2.913   2.202   7.606  1.5932 -1.7881  0.5097
  423MOL0     H58336   3.009   2.450   7.112  4.0514  0.6569  1.0149
  423MOL0     H58337   2.901   2.615   6.951 -3.9636  1.1376  1.3525
  423MOL0     H58338   2.695   2.990   6.985 -0.7308  1.4072  0.9105
  423MOL0     H58339   2.747   2.974   7.148  1.5250  1.1654  0.7416
  423MOL0     H58340   2.827   3.199   7.063  1.0724  1.7735 -0.0960
  423MOL0     H58341   2.961   3.093   7.099  3.1075 -0.8022 -2.0133
  423MOL0     H58342   2.893   3.216   6.853 -0.8560 -0.4270  0.4352
  423MOL0     H58343   2.863   3.054   6.826 -0.7683 -0.5513  1.5522
  423MOL0     H58344   3.080   2.978   6.929 -3.4363  0.4018  2.5819
  423MOL0     H58345   3.120   3.139   6.938 -2.2723 -2.1936  3.4561
  423MOL0     H58346   3.029   2.980   6.680  0.3116  0.5586  1.0301
  423MOL0     H58347   3.093   3.147   6.677  1.9322  1.2454  1.3079
  423MOL0     H58348   3.253   2.910   6.770  2.4783  0.9305  1.8837
  423MOL0     H58349   3.313   3.079   6.733 -3.3690  3.4756 -0.0030
  423MOL0     H58350   3.249   3.042   6.497 -3.8358  0.6865  0.4487
  423MOL0     H58351   3.200   2.871   6.541 -3.2408  3.1315  1.3392
  423MOL0     H58352   3.440   2.865   6.439 -1.1045 -1.6416 -0.2095
  423MOL0     H58353   3.444   2.820   6.615 -1.6357  0.6327  1.4719
  423MOL0     H58354   2.972   2.916   7.256  0.3020 -1.9210  2.9750
  423MOL0     H58355   3.075   2.773   7.386 -1.1027 -0.2767  0.6055
  423MOL0     H58356   3.436   2.369   7.480 -1.4134  2.0130  0.1516
  423MOL0     H58357   3.486   2.209   7.652 -0.3514 -0.7437  2.5536
  423MOL0     H58358   2.105   1.642   6.647  0.1792  2.9545  1.9622
  423MOL0     H58359   1.960   1.746   6.461 -0.0930  1.5200 -2.6257
  423MOL0     H58360   1.725   2.056   6.241 -0.1799  1.8877 -0.4741
  423MOL0     H58361   1.596   2.125   6.044  1.6449  2.8716 -1.0818
  423MOL0     H58362   1.491   2.086   5.793 -1.0517  0.7687 -3.0741
  423MOL0     H58363   1.546   2.245   5.855 -0.6957 -0.3458  0.0311
  423MOL0     H58364   1.613   2.311   5.634 -0.6705 -0.5206 -1.2925
  423MOL0     H58365   1.432   2.284   5.651 -1.1148 -0.4761 -0.7910
  423MOL0     H58366   1.649   2.123   5.502 -0.1203  0.4321 -2.8704
  423MOL0     H58367   1.501   2.040   5.549 -0.1982  0.3862 -0.1329
  423MOL0     H58368   1.518   2.143   5.318  1.4286  0.8252 -0.0910
  423MOL0     H58369   1.553   2.295   5.377 -0.3569  0.5448 -0.5860
  423MOL0     H58370   1.128   2.186   5.413 -0.0226  0.3202 -0.6979
  423MOL0     H58371   1.921   2.007   5.800 -0.5756 -3.0366 -0.3806
  423MOL0     H58372   2.113   1.835   6.029  0.7898  0.6785  0.4305
  423MOL0     H58373   2.105   1.890   5.862  2.3922  2.0983 -1.5847
  423MOL0     H58374   2.170   1.996   5.991  0.7495 -1.2221 -3.3329
  424MOL0     O58375  10.611   6.759   2.325  0.2460  0.2963  0.3321
  424MOL0     C58376  10.565   6.769   2.209  0.0582  0.5033  0.0335
  424MOL0     O58377  10.541   6.889   2.141 -0.4148  0.6494  0.2910
  424MOL0     C58378  10.549   7.005   2.208 -0.3403 -0.2766 -0.0848
  424MOL0     C58379  10.445   7.038   2.298  0.7929  0.3969  0.0842
  424MOL0     C58380  10.455   7.153   2.375  0.3495  0.3467 -0.0327
  424MOL0     C58381  10.561   7.239   2.356 -0.2028  0.1389 -0.4817
  424MOL0     O58382  10.592   7.349   2.431  0.3815 -1.0562  0.1259
  424MOL0     C58383  10.542   7.372   2.566 -0.9533  0.1168  0.0214
  424MOL0     C58384  10.630   7.302   2.669 -0.3158  0.5410 -0.3510
  424MOL0     C58385  10.780   7.312   2.679  0.6545  0.4700  0.5129
  424MOL0     C58386  10.831   7.219   2.794  0.2607  1.1574 -0.7525
  424MOL0     C58387  10.980   7.204   2.779 -0.0397  0.1926  0.7944
  424MOL0     C58388  11.047   7.184   2.918 -0.7777  0.3995  0.3004
  424MOL0     C58389  11.178   7.102   2.889 -0.2368 -0.5504  0.0951
  424MOL0     C58390  11.280   7.122   2.999 -0.6700 -0.7190 -0.8297
  424MOL0     N58391  11.392   7.044   2.959 -0.5435  0.5349 -0.3150
  424MOL0     C58392  11.415   6.899   2.965  0.7975 -1.1263  0.2290
  424MOL0     C58393  11.545   6.881   2.919 -0.4938 -0.2720  0.2809
  424MOL0     C58394  11.619   6.751   2.930  0.0938 -0.1073 -0.9414
  424MOL0     C58395  11.677   6.700   2.794 -0.2571 -0.0776  0.0462
  424MOL0     C58396  11.752   6.797   2.695  0.1782 -0.0057 -0.0301
  424MOL0     C58397  11.823   6.705   2.588  0.1837  0.7442 -1.0717
  424MOL0     O58398  11.722   6.617   2.528  0.1682 -0.2717  1.3229
  424MOL0     C58399  11.661   6.664   2.413  0.4080 -0.3306 -0.1205
  424MOL0     C58400  11.677   6.786   2.353  0.3739 -1.7774  0.3403
  424MOL0     C58401  11.622   6.823   2.231 -0.2068 -0.1633 -0.4670
  424MOL0     C58402  11.632   6.971   2.184 -0.9400  0.2622 -0.5886
  424MOL0     C58403  11.572   6.728   2.150  0.2190 -0.0749 -0.3799
  424MOL0     C58404  11.534   6.756   2.010 -0.3762 -0.4221  0.8072
  424MOL0     O58405  11.561   6.658   1.920  0.4411 -0.6238 -0.3873
  424MOL0     C58406  11.515   6.671   1.789  0.6289  1.0240  0.2644
  424MOL0     C58407  11.389   6.615   1.762  0.2771  0.0248 -0.4836
  424MOL0     C58408  11.336   6.640   1.638  0.3212  0.4830 -0.3395
  424MOL0     C58409  11.408   6.706   1.537 -0.8120  0.2437  0.1319
  424MOL0     O58410  11.350   6.718   1.413  0.3458  0.4989 -1.0307
  424MOL0     C58411  11.279   6.609   1.357  0.5809  0.2086 -0.0425
  424MOL0     C58412  11.295   6.633   1.211  0.1996 -0.1879 -0.3450
  424MOL0     C58413  11.240   6.523   1.117  0.7472 -0.2955  0.2740
  424MOL0     C58414  11.097   6.488   1.149  0.1436  0.1820  0.6894
  424MOL0     C58415  11.056   6.367   1.059  0.1589 -1.0269 -0.9043
  424MOL0     C58416  10.913   6.321   1.082 -0.2844  0.0935 -0.6306
  424MOL0     C58417  10.810   6.436   1.078 -0.2474  0.5682  0.2220
  424MOL0     C58418  10.674   6.361   1.085 -0.6941 -0.9540  0.2234
  424MOL0    Cl58419  10.525   6.468   1.063  0.1977 -0.1801  0.1049
  424MOL0     C58420  11.537   6.745   1.564  0.0467 -0.4608  0.3734
  424MOL0     C58421  11.596   6.728   1.685  0.4057 -0.0923 -0.1702
  424MOL0     O58422  11.460   6.851   1.992 -0.3306  0.3949  0.2389
  424MOL0     C58423  11.550   6.598   2.204  0.7147 -1.3157 -0.6432
  424MOL0     C58424  11.582   6.577   2.343  0.4624 -0.8576 -0.0147
  424MOL0     N58425  11.596   7.006   2.892  0.2276 -0.0584 -0.0680
  424MOL0     N58426  11.509   7.095   2.914  0.5202  0.4539 -0.5140
  424MOL0     C58427  10.654   7.208   2.257  0.9071 -0.8312 -0.3572
  424MOL0     C58428  10.648   7.095   2.182 -0.0115 -0.3707 -0.4915
  424MOL0     C58429  10.527   6.645   2.134 -1.0336  0.1439  0.6729
  424MOL0     C58430  10.510   6.650   1.997  0.6232  0.4299  0.1278
  424MOL0     C58431  10.505   6.535   1.923  0.9100  0.0211 -0.6041
  424MOL0     C58432  10.510   6.411   1.980 -1.0195 -0.1170  0.3896
  424MOL0     O58433  10.512   6.297   1.893  0.2712 -0.5737 -0.3802
  424MOL0     C58434  10.550   6.171   1.951 -1.0330  0.1605  0.2411
  424MOL0     C58435  10.436   6.089   2.008 -0.6233  0.2172 -0.6887
  424MOL0     C58436  10.487   5.974   2.084  0.4736  0.1231  0.7966
  424MOL0     C58437  10.512   5.851   1.989 -0.2204  0.9717 -0.6032
  424MOL0     C58438  10.645   5.856   1.924  0.8398  1.3032 -0.7127
  424MOL0     C58439  10.751   5.852   1.870  0.2050 -0.6723 -0.0586
  424MOL0     C58440  10.525   6.404   2.124  0.1016 -0.5097  0.0592
  424MOL0     C58441  10.536   6.520   2.203 -0.0013  0.6983 -0.2673
  424MOL0     C58442  10.520   6.500   2.354 -0.7252 -0.0677  0.1219
  424MOL0     H58443  10.362   6.970   2.310  0.2867  0.5100 -2.2648
  424MOL0     H58444  10.380   7.172   2.452 -3.3195 -1.1841 -2.9253
  424MOL0     H58445  10.439   7.338   2.560 -0.4978 -1.0251 -2.6506
  424MOL0     H58446  10.548   7.480   2.586 -0.4813 -0.0302  0.6956
  424MOL0     H58447  10.586   7.328   2.766 -2.5775  0.5385 -1.3100
  424MOL0     H58448  10.607   7.198   2.642 -1.0722  1.0209 -1.6846
  424MOL0     H58449  10.802   7.272   2.579 -1.1202 -1.7612  0.9202
  424MOL0     H58450  10.823   7.412   2.680  0.6712  0.7093 -4.0636
  424MOL0     H58451  10.800   7.263   2.889 -2.3186 -1.8851 -0.0070
  424MOL0     H58452  10.791   7.118   2.792  3.9910 -0.5045 -1.0389
  424MOL0     H58453  11.022   7.287   2.722 -0.1187 -1.6912 -2.1956
  424MOL0     H58454  10.998   7.115   2.718 -1.9140  1.4937 -1.8290
  424MOL0     H58455  11.084   7.273   2.969  1.1387  0.8781 -1.7830
  424MOL0     H58456  10.978   7.128   2.982  0.3765 -0.2613  1.0027
  424MOL0     H58457  11.235   7.137   2.802  1.2946  2.0444  2.0051
  424MOL0     H58458  11.161   6.994   2.879  3.8692 -1.2959 -0.9433
  424MOL0     H58459  11.315   7.226   2.998 -1.6476 -0.3804 -1.8566
  424MOL0     H58460  11.224   7.091   3.088  0.4922  0.4375  0.3507
  424MOL0     H58461  11.348   6.825   3.007 -1.7278  1.1552  0.5420
  424MOL0     H58462  11.546   6.675   2.961  0.5603 -0.6653 -1.1829
  424MOL0     H58463  11.692   6.747   3.012  0.3067 -2.0521 -1.1671
  424MOL0     H58464  11.744   6.620   2.827 -0.3507 -0.1067  0.1689
  424MOL0     H58465  11.598   6.650   2.738 -1.4322  2.4692 -0.7173
  424MOL0     H58466  11.685   6.865   2.642 -0.5659 -0.9478 -0.3163
  424MOL0     H58467  11.817   6.864   2.753 -0.4700  1.4578 -0.9226
  424MOL0     H58468  11.882   6.756   2.512 -0.0557  3.2382  0.3009
  424MOL0     H58469  11.896   6.639   2.638  0.7654  1.2641 -1.2203
  424MOL0     H58470  11.735   6.863   2.403 -2.1902 -2.0912  4.2359
  424MOL0     H58471  11.531   7.007   2.161 -1.5730 -1.3979 -0.6074
  424MOL0     H58472  11.695   6.977   2.095 -0.4753 -0.4952 -0.3168
  424MOL0     H58473  11.675   7.030   2.265  0.7105 -0.6858 -0.7445
  424MOL0     H58474  11.326   6.572   1.838  0.1992 -0.6226 -0.9077
  424MOL0     H58475  11.237   6.601   1.617  0.3507 -0.3471  0.9788
  424MOL0     H58476  11.324   6.513   1.382  0.2654 -0.6255 -2.4539
  424MOL0     H58477  11.174   6.607   1.387  0.9783  2.1363  1.7627
  424MOL0     H58478  11.243   6.723   1.176 -0.6082 -0.3794  0.3368
  424MOL0     H58479  11.399   6.642   1.178  0.3065  2.1679  0.4150
  424MOL0     H58480  11.304   6.436   1.131  0.3142 -1.3939 -3.5478
  424MOL0     H58481  11.256   6.543   1.011  1.6587 -1.5399  0.1570
  424MOL0     H58482  11.044   6.580   1.125  1.2293  0.4107 -0.9733
  424MOL0     H58483  11.080   6.446   1.249  2.3634 -4.3185 -0.5194
  424MOL0     H58484  11.069   6.395   0.954 -0.3414 -0.6302 -0.8610
  424MOL0     H58485  11.121   6.283   1.086  0.6327 -0.4587 -0.2537
  424MOL0     H58486  10.896   6.262   1.173 -3.0867 -2.0427 -2.3663
  424MOL0     H58487  10.901   6.262   0.991 -1.6473  1.1967 -1.2057
  424MOL0     H58488  10.821   6.493   0.985 -0.6168  2.4513  1.2723
  424MOL0     H58489  10.815   6.502   1.165  0.0202  0.1834  0.5048
  424MOL0     H58490  10.680   6.304   1.179  1.4311 -0.5960  0.3486
  424MOL0     H58491  10.669   6.289   1.002  2.3447 -0.7456 -0.2328
  424MOL0     H58492  11.582   6.800   1.483 -3.0355  1.9749  0.1108
  424MOL0     H58493  11.698   6.753   1.709  0.8205 -2.4087  0.8312
  424MOL0     H58494  11.481   6.538   2.146 -1.7161 -1.2712  1.9555
  424MOL0     H58495  11.555   6.483   2.390  2.3741 -2.7273 -2.3850
  424MOL0     H58496  10.740   7.274   2.261  1.5276 -1.4286  5.3078
  424MOL0     H58497  10.730   7.076   2.114 -1.5130 -4.1112 -1.5203
  424MOL0     H58498  10.501   6.749   1.953  0.3311  2.1261  3.6169
  424MOL0     H58499  10.482   6.539   1.817  1.5142 -1.1592 -0.7982
  424MOL0     H58500  10.585   6.119   1.861 -0.9876  2.5488 -1.2110
  424MOL0     H58501  10.632   6.173   2.023  2.1107 -0.5269 -3.0204
  424MOL0     H58502  10.371   6.045   1.931 -1.3799  0.4378 -0.1846
  424MOL0     H58503  10.375   6.151   2.074 -1.3512 -2.0300  0.8374
  424MOL0     H58504  10.584   5.996   2.130  0.4189  2.7079 -0.1806
  424MOL0     H58505  10.407   5.954   2.156 -1.9963 -1.4000 -2.1636
  424MOL0     H58506  10.430   5.840   1.918 -0.8809  3.6097 -0.3565
  424MOL0     H58507  10.499   5.766   2.057  0.0845  1.6334  0.3010
  424MOL0     H58508  10.848   5.852   1.824  0.6979  0.3654  0.9180
  424MOL0     H58509  10.531   6.305   2.169  0.4684 -0.6524 -0.2950
  424MOL0     H58510  10.475   6.406   2.386 -1.7605  0.9026  1.6497
  424MOL0     H58511  10.615   6.512   2.406  0.6833 -1.2066 -2.0441
  424MOL0     H58512  10.446   6.571   2.393  0.1609 -0.5533  2.8943
  425MOL0     O58513   2.290   9.351  10.466  0.2058  0.6505  0.3515
  425MOL0     C58514   2.337   9.267  10.539  0.6762  0.7214  0.1639
  425MOL0     O58515   2.256   9.179  10.612 -0.8539  0.1772  0.3964
  425MOL0     C58516   2.126   9.151  10.582  0.9129 -0.4902  0.1834
  425MOL0     C58517   2.076   9.146  10.447  0.0198  0.7440 -0.5668
  425MOL0     C58518   1.941   9.099  10.423  0.7420 -0.6229  0.2478
  425MOL0     C58519   1.878   9.037  10.521  0.0277  0.5737 -0.6426
  425MOL0     O58520   1.750   9.005  10.491 -0.1314  0.6560 -0.3361
  425MOL0     C58521   1.690   8.900  10.570  0.4289 -0.2775  0.0179
  425MOL0     C58522   1.546   8.863  10.541 -0.3793 -0.3395  0.6207
  425MOL0     C58523   1.548   8.789  10.407 -0.1412 -0.1153 -0.6594
  425MOL0     C58524   1.401   8.763  10.367  0.4091  0.6311  0.1103
  425MOL0     C58525   1.389   8.645  10.261  0.3462 -0.0465  0.3687
  425MOL0     C58526   1.246   8.641  10.209  0.5930 -0.0473  1.2805
  425MOL0     C58527   1.238   8.530  10.105 -0.8019  0.0566  0.8749
  425MOL0     C58528   1.096   8.529  10.049 -0.1945  0.1750  0.1669
  425MOL0     N58529   1.080   8.408   9.969  0.2241  0.0316  0.0122
  425MOL0     C58530   1.138   8.379   9.850 -0.7024 -0.3696 -0.2566
  425MOL0     C58531   1.109   8.249   9.821 -0.5532  0.6464 -0.7993
  425MOL0     C58532   1.141   8.180   9.695 -0.2622 -0.2490 -0.1372
  425MOL0     C58533   1.081   8.209   9.563  0.3617 -0.4364 -0.0987
  425MOL0     C58534   0.954   8.125   9.562  0.3277  0.9823  0.1804
  425MOL0     C58535   0.875   8.158   9.433  0.1446 -0.0585  1.1068
  425MOL0     O58536   0.764   8.066   9.408  0.2112  0.3963 -0.0212
  425MOL0     C58537   0.677   8.099   9.312 -0.3535 -0.1327 -0.5421
  425MOL0     C58538   0.554   8.027   9.311 -0.5080 -0.5159  0.3347
  425MOL0     C58539   0.435   8.070   9.239 -0.2865  1.1909 -0.1607
  425MOL0     C58540   0.317   7.983   9.260  1.6545 -0.3035  0.4225
  425MOL0     C58541   0.444   8.174   9.141 -1.3517 -0.3166 -0.0336
  425MOL0     C58542   0.349   8.215   9.035 -0.3670  0.1962  0.2555
  425MOL0     O58543   0.370   8.330   8.965 -0.4473 -0.8288  0.7018
  425MOL0     C58544   0.278   8.384   8.880  0.3507  0.2696  0.5366
  425MOL0     C58545   0.336   8.480   8.799  0.4117  0.3761  0.7828
  425MOL0     C58546   0.252   8.566   8.719  0.0629  0.2805  0.2455
  425MOL0     C58547   0.111   8.555   8.724 -0.4795  0.4947 -0.1178
  425MOL0     O58548   0.049   8.640   8.636 -0.0301  0.7661 -0.9992
  425MOL0     C58549  -0.082   8.689   8.678  0.2215  0.5101  0.3387
  425MOL0     C58550  -0.138   8.758   8.554  1.0167 -0.1263 -0.8908
  425MOL0     C58551  -0.045   8.885   8.512 -0.2764  0.3538 -0.6104
  425MOL0     C58552  -0.090   8.938   8.375  1.0995  0.8587  0.3282
  425MOL0     C58553  -0.002   9.070   8.332 -0.3633 -0.1967 -0.1406
  425MOL0     C58554   0.145   9.037   8.306  0.7372  0.2931  0.6113
  425MOL0     C58555   0.217   9.155   8.237 -0.7800  0.7813  0.7162
  425MOL0     C58556   0.353   9.109   8.194 -0.1202  0.3053  0.0307
  425MOL0    Cl58557   0.383   9.146   8.023  0.0884  0.0914  0.1505
  425MOL0     C58558   0.055   8.450   8.800 -0.2628  0.3295 -0.9647
  425MOL0     C58559   0.130   8.373   8.883 -1.2193  0.1509  0.8652
  425MOL0     O58560   0.261   8.131   9.012  0.1474  0.3606  0.4902
  425MOL0     C58561   0.573   8.230   9.135  0.3266  0.2669  0.7764
  425MOL0     C58562   0.683   8.197   9.217 -0.5423 -0.7061  0.7110
  425MOL0     N58563   1.035   8.197   9.929 -0.1586 -0.5139 -0.0852
  425MOL0     N58564   1.013   8.295  10.014 -0.0310 -0.0904  0.0772
  425MOL0     C58565   1.925   9.025  10.656 -0.6030 -0.8322 -0.6977
  425MOL0     C58566   2.047   9.098  10.684 -0.0443  0.1321 -0.4423
  425MOL0     C58567   2.483   9.261  10.569  0.1687  0.7874 -0.0138
  425MOL0     C58568   2.508   9.222  10.702 -0.9564 -1.0058 -0.2402
  425MOL0     C58569   2.646   9.206  10.739  0.7463  0.8617  0.2296
  425MOL0     C58570   2.752   9.241  10.659  0.6281 -0.1284 -0.2050
  425MOL0     O58571   2.877   9.257  10.704 -0.3855  0.2537 -0.0726
  425MOL0     C58572   2.972   9.156  10.665  0.6371  0.9060 -0.4522
  425MOL0     C58573   2.991   9.055  10.777 -0.4987  0.0693 -0.4357
  425MOL0     C58574   3.020   9.122  10.918  0.5094 -0.5272  0.2765
  425MOL0     C58575   3.123   9.235  10.921 -0.2489 -0.6951  0.2021
  425MOL0     C58576   3.168   9.255  11.061 -0.7212 -0.4572 -0.3233
  425MOL0     C58577   3.228   9.264  11.170  0.9520 -1.2174 -0.6196
  425MOL0     C58578   2.720   9.285  10.532 -0.4383 -0.4081 -0.2690
  425MOL0     C58579   2.590   9.295  10.478 -0.2382  0.3411 -0.5815
  425MOL0     C58580   2.578   9.320  10.335  1.4032 -0.4526 -0.3713
  425MOL0     H58581   2.139   9.173  10.363 -0.4986 -0.8881 -1.5269
  425MOL0     H58582   1.893   9.112  10.326 -0.5660  1.5462  1.1137
  425MOL0     H58583   1.680   8.941  10.671 -2.8799 -2.7037  0.8756
  425MOL0     H58584   1.759   8.816  10.557  1.2724  0.8334 -3.8994
  425MOL0     H58585   1.506   8.803  10.624  0.9217 -1.8343  0.2198
  425MOL0     H58586   1.486   8.954  10.532  2.0242  1.2086 -0.7177
  425MOL0     H58587   1.592   8.857  10.333  3.4034  2.1696  3.1756
  425MOL0     H58588   1.608   8.698  10.419 -3.0355 -1.8250  2.8838
  425MOL0     H58589   1.336   8.745  10.453  1.6766  0.8427  1.1359
  425MOL0     H58590   1.369   8.853  10.314 -0.1254 -0.3202 -1.2443
  425MOL0     H58591   1.424   8.549  10.301 -1.8788 -1.4258 -0.8071
  425MOL0     H58592   1.463   8.666  10.183  0.4815 -1.2228  0.1598
  425MOL0     H58593   1.177   8.609  10.288  0.9817 -1.6745  1.0062
  425MOL0     H58594   1.208   8.737  10.174  0.7754 -0.6828 -0.8054
  425MOL0     H58595   1.241   8.437  10.162  0.1766 -2.1730 -2.5591
  425MOL0     H58596   1.316   8.533  10.028 -2.7689 -2.0059 -1.3379
  425MOL0     H58597   1.024   8.529  10.131  0.6543 -2.1352  0.9977
  425MOL0     H58598   1.071   8.616   9.987 -0.9885  1.2585  1.9289
  425MOL0     H58599   1.203   8.432   9.781 -1.1916 -0.6944 -0.9877
  425MOL0     H58600   1.153   8.073   9.715 -2.7930 -0.5744  0.0558
  425MOL0     H58601   1.247   8.204   9.684 -0.2196 -0.8731 -1.1910
  425MOL0     H58602   1.059   8.316   9.561  1.4516 -0.2040 -1.6243
  425MOL0     H58603   1.159   8.184   9.490  0.7466 -0.3011  0.2578
  425MOL0     H58604   0.965   8.016   9.562 -3.3057  0.4785  0.0537
  425MOL0     H58605   0.890   8.148   9.648 -0.6162  1.4315 -0.6275
  425MOL0     H58606   0.851   8.264   9.445  0.1917  0.4527 -2.3377
  425MOL0     H58607   0.950   8.149   9.355  1.3595 -3.1865  2.4775
  425MOL0     H58608   0.554   7.940   9.376  3.5809 -0.1174  1.1777
  425MOL0     H58609   0.314   7.933   9.357 -1.9793 -3.1088 -0.9236
  425MOL0     H58610   0.314   7.908   9.181 -0.7677 -1.3995  1.4684
  425MOL0     H58611   0.220   8.033   9.254  0.1311 -2.9018  1.7449
  425MOL0     H58612   0.442   8.502   8.804  0.5043  1.2070 -2.4955
  425MOL0     H58613   0.286   8.647   8.656 -3.0081 -0.2970 -2.4110
  425MOL0     H58614  -0.140   8.597   8.692 -1.0795  1.0437 -1.2732
  425MOL0     H58615  -0.071   8.756   8.764  2.0854 -0.0317  0.5710
  425MOL0     H58616  -0.147   8.691   8.468 -2.5965 -0.3924 -0.4865
  425MOL0     H58617  -0.236   8.803   8.572  1.0631 -0.4251  0.1667
  425MOL0     H58618   0.062   8.860   8.509  0.2414  2.1612  0.8933
  425MOL0     H58619  -0.057   8.966   8.585  1.9308  1.0203 -0.8916
  425MOL0     H58620  -0.198   8.953   8.387  0.2702 -3.7868  0.5789
  425MOL0     H58621  -0.086   8.858   8.300 -3.6467 -0.1104  0.7884
  425MOL0     H58622  -0.047   9.107   8.239  1.9153 -0.0857 -1.2682
  425MOL0     H58623  -0.025   9.142   8.411 -0.2430 -0.9057  0.5519
  425MOL0     H58624   0.137   8.952   8.238 -2.8562  0.4722  0.6591
  425MOL0     H58625   0.190   9.012   8.403 -1.3401 -2.0663  1.0607
  425MOL0     H58626   0.235   9.234   8.310  1.8643 -0.4092  1.4717
  425MOL0     H58627   0.163   9.193   8.150  0.6560  0.6251 -0.2780
  425MOL0     H58628   0.373   9.002   8.199  1.9123  0.5660 -1.2007
  425MOL0     H58629   0.429   9.168   8.247 -1.0473 -0.5186  2.3799
  425MOL0     H58630  -0.048   8.423   8.780 -0.0943 -0.3521 -0.9031
  425MOL0     H58631   0.083   8.294   8.939 -2.5415  0.7194  0.6068
  425MOL0     H58632   0.594   8.297   9.052  0.1449  0.4077  0.8438
  425MOL0     H58633   0.774   8.251   9.193 -1.1894 -0.2714 -0.9705
  425MOL0     H58634   1.864   8.986  10.737  1.1444 -0.3195  0.9480
  425MOL0     H58635   2.091   9.106  10.783  0.3455 -2.8613 -0.2871
  425MOL0     H58636   2.438   9.210  10.783  2.3075 -0.9586  2.8209
  425MOL0     H58637   2.659   9.176  10.843 -2.3164 -1.8120  0.0091
  425MOL0     H58638   2.948   9.091  10.580  1.8484  0.5057 -0.5071
  425MOL0     H58639   3.065   9.206  10.636 -0.1530  0.8864 -3.4025
  425MOL0     H58640   3.062   8.978  10.750 -2.7142 -2.8722  1.4638
  425MOL0     H58641   2.894   9.004  10.787 -0.8953  1.0495  1.1412
  425MOL0     H58642   2.928   9.147  10.973  1.7746  0.9547  1.7982
  425MOL0     H58643   3.048   9.047  10.992 -1.5887  1.0877  2.8852
  425MOL0     H58644   3.081   9.334  10.898  3.7205  1.5114  1.3727
  425MOL0     H58645   3.205   9.208  10.855 -1.1835 -2.3620 -0.3215
  425MOL0     H58646   3.282   9.283  11.260  0.9519 -1.9889 -0.4499
  425MOL0     H58647   2.795   9.321  10.463 -2.8960  5.1947 -0.5325
  425MOL0     H58648   2.514   9.406  10.314  1.6037  0.0202  0.8784
  425MOL0     H58649   2.672   9.330  10.279 -0.1719 -0.0955 -3.1455
  425MOL0     H58650   2.522   9.233  10.299  0.6312 -0.6679  1.2486
  426MOL0     O58651   7.881   8.263   4.284 -0.1482  0.3739  0.7527
  426MOL0     C58652   7.910   8.173   4.203  0.2911 -0.4273 -0.4314
  426MOL0     O58653   7.883   8.031   4.224  0.0236 -0.4265  0.4251
  426MOL0     C58654   7.801   7.993   4.324  0.0392 -0.8486 -0.9036
  426MOL0     C58655   7.699   7.903   4.306  0.5058  0.2806  0.2579
  426MOL0     C58656   7.618   7.858   4.415 -0.0222  0.1260  0.8759
  426MOL0     C58657   7.648   7.887   4.544 -0.5484 -0.1411 -1.2946
  426MOL0     O58658   7.576   7.827   4.643  0.1010 -0.2666 -0.3693
  426MOL0     C58659   7.530   7.916   4.744 -0.1525 -1.4818 -0.7077
  426MOL0     C58660   7.466   7.822   4.847  0.5361 -0.3035 -0.4759
  426MOL0     C58661   7.554   7.700   4.899  0.3597  0.0223 -0.3024
  426MOL0     C58662   7.515   7.569   4.850  0.1892 -0.0317  0.6871
  426MOL0     C58663   7.595   7.449   4.909 -0.2886  0.3727 -0.3658
  426MOL0     C58664   7.740   7.471   4.867 -1.0943 -0.5063  0.6264
  426MOL0     C58665   7.833   7.359   4.858 -0.9811  0.1978  0.2796
  426MOL0     C58666   7.986   7.398   4.850  1.5654 -0.4692  0.5312
  426MOL0     N58667   8.015   7.445   4.717  0.1028 -0.0149  0.7261
  426MOL0     C58668   7.979   7.564   4.657 -0.3851 -0.0006  0.2014
  426MOL0     C58669   8.015   7.549   4.527 -0.2953  0.0681  1.0427
  426MOL0     C58670   7.999   7.657   4.425  0.5088  0.2482 -1.3107
  426MOL0     C58671   8.083   7.638   4.301 -0.1144 -0.0338  0.4890
  426MOL0     C58672   8.086   7.776   4.221  0.4352 -0.2978  1.0007
  426MOL0     C58673   8.205   7.777   4.119 -0.5273 -0.5472  0.4794
  426MOL0     O58674   8.221   7.903   4.049  0.0872 -0.1972 -0.5462
  426MOL0     C58675   8.335   7.917   3.968  0.6096 -0.1898  0.3607
  426MOL0     C58676   8.445   7.834   3.959 -0.4996  0.5201 -1.1147
  426MOL0     C58677   8.543   7.854   3.859  0.0169 -0.2161  0.4053
  426MOL0     C58678   8.664   7.766   3.856  0.0224  0.8430  0.0130
  426MOL0     C58679   8.533   7.962   3.766 -0.3909 -0.1264 -0.1707
  426MOL0     C58680   8.624   7.991   3.657 -0.3295  0.4128 -0.7419
  426MOL0     O58681   8.573   8.052   3.550  0.6147 -0.0372 -0.6196
  426MOL0     C58682   8.652   8.110   3.459  0.1873 -0.2750 -0.3950
  426MOL0     C58683   8.723   8.029   3.374  0.4647  0.0656 -0.6634
  426MOL0     C58684   8.777   8.099   3.260  0.6680  0.3502 -0.3408
  426MOL0     C58685   8.755   8.230   3.230  0.2960 -0.3110 -1.1241
  426MOL0     O58686   8.794   8.272   3.107  1.2810 -0.4059 -0.0211
  426MOL0     C58687   8.870   8.388   3.105  0.5116  0.1226 -1.1070
  426MOL0     C58688   8.965   8.390   2.989 -0.3574 -0.0418  0.2592
  426MOL0     C58689   9.079   8.291   3.014 -0.0349 -0.2190  0.4066
  426MOL0     C58690   9.043   8.160   2.930  1.1076 -0.0114 -0.3285
  426MOL0     C58691   9.148   8.050   2.951 -0.4336 -0.0157 -0.8080
  426MOL0     C58692   9.262   8.071   2.851  0.2249 -0.4080  0.2050
  426MOL0     C58693   9.366   7.956   2.869 -0.1017 -1.1276 -0.3335
  426MOL0     C58694   9.477   7.973   2.763  0.9169  0.1109 -0.0167
  426MOL0    Cl58695   9.596   7.845   2.798 -0.1759 -0.0322  0.2001
  426MOL0     C58696   8.691   8.307   3.326  0.4768 -0.2541 -0.9986
  426MOL0     C58697   8.647   8.244   3.443 -0.5141  0.7602 -0.7691
  426MOL0     O58698   8.741   7.954   3.665 -0.2940 -0.7609 -0.2334
  426MOL0     C58699   8.430   8.045   3.783  0.5329  0.7185  0.1668
  426MOL0     C58700   8.337   8.030   3.888  0.5727 -0.6011  0.7534
  426MOL0     N58701   8.057   7.417   4.505 -0.5063 -0.0202  0.2196
  426MOL0     N58702   8.066   7.362   4.627  0.0371  0.1480  0.2429
  426MOL0     C58703   7.757   7.976   4.566  0.3360 -0.2866 -0.6166
  426MOL0     C58704   7.828   8.028   4.457  1.1280 -0.1253 -0.2003
  426MOL0     C58705   7.971   8.228   4.083 -0.4703 -0.2409 -0.9500
  426MOL0     C58706   8.069   8.329   4.090 -0.1132 -0.0745 -0.6483
  426MOL0     C58707   8.142   8.362   3.982 -0.4819  0.3612 -0.1673
  426MOL0     C58708   8.118   8.305   3.854  0.8806  0.5422 -0.3698
  426MOL0     O58709   8.174   8.367   3.744 -0.2718 -0.6884 -0.8704
  426MOL0     C58710   8.118   8.361   3.612 -0.4839  0.2309 -0.9583
  426MOL0     C58711   8.096   8.495   3.541 -0.2352  0.2980 -1.3300
  426MOL0     C58712   8.005   8.576   3.633  0.0734  0.1367  0.6172
  426MOL0     C58713   8.009   8.720   3.579  0.3894 -0.4209 -0.3045
  426MOL0     C58714   7.907   8.804   3.641 -0.0854  0.4267  1.3838
  426MOL0     C58715   7.823   8.873   3.678  1.0026  0.3386  0.6828
  426MOL0     C58716   8.019   8.207   3.840  0.7007 -0.5724 -0.1708
  426MOL0     C58717   7.948   8.166   3.960 -0.1793  0.5229  0.7401
  426MOL0     C58718   7.834   8.070   3.937  0.6630 -0.2788 -0.2172
  426MOL0     H58719   7.675   7.864   4.207  3.9180 -1.7660  0.1080
  426MOL0     H58720   7.544   7.781   4.394 -1.9730  1.8176  1.2220
  426MOL0     H58721   7.453   7.979   4.699  1.5986 -0.0999 -1.8944
  426MOL0     H58722   7.606   7.979   4.791 -1.0949 -0.2556 -0.7980
  426MOL0     H58723   7.450   7.884   4.936  2.6975  1.2765 -1.1048
  426MOL0     H58724   7.375   7.776   4.808  1.0350  0.4136 -2.5870
  426MOL0     H58725   7.661   7.719   4.886 -0.0675  1.7813 -1.6425
  426MOL0     H58726   7.553   7.686   5.008 -2.7089 -2.8372 -0.5446
  426MOL0     H58727   7.409   7.546   4.867  0.4666 -1.6688  0.3509
  426MOL0     H58728   7.533   7.570   4.742 -0.0114  1.5588  0.6487
  426MOL0     H58729   7.553   7.364   4.855  0.1313  0.9242 -1.5753
  426MOL0     H58730   7.576   7.439   5.017 -1.3537  2.8763 -0.2414
  426MOL0     H58731   7.731   7.515   4.767 -1.0140 -1.1630  0.3301
  426MOL0     H58732   7.777   7.544   4.939 -3.6925 -0.6427  2.2454
  426MOL0     H58733   7.818   7.290   4.774 -1.7659  1.5575 -0.7487
  426MOL0     H58734   7.807   7.311   4.953 -3.1562  1.4096  0.3692
  426MOL0     H58735   8.003   7.473   4.928 -2.6761  0.7274  0.5532
  426MOL0     H58736   8.040   7.305   4.870  1.4848 -1.2086 -2.2356
  426MOL0     H58737   7.948   7.662   4.690 -0.4008 -0.4471  1.5794
  426MOL0     H58738   8.029   7.752   4.470  0.8458  0.1475 -1.3179
  426MOL0     H58739   7.895   7.667   4.391  0.8617 -1.5014 -3.0533
  426MOL0     H58740   8.183   7.613   4.339 -0.1772  0.3654  0.9226
  426MOL0     H58741   8.038   7.553   4.249 -2.3326 -0.0416  2.2690
  426MOL0     H58742   7.996   7.790   4.160  3.2066 -1.9174 -4.1463
  426MOL0     H58743   8.098   7.867   4.280  0.6146 -0.2026  0.8210
  426MOL0     H58744   8.287   7.732   4.175 -0.4142  1.0520  1.6636
  426MOL0     H58745   8.201   7.702   4.039  5.5905 -0.4248 -0.3990
  426MOL0     H58746   8.457   7.747   4.022  0.7046 -0.1425 -2.2128
  426MOL0     H58747   8.675   7.707   3.765 -3.0256 -0.4034  0.3311
  426MOL0     H58748   8.670   7.698   3.941  1.0548  2.8070  1.6216
  426MOL0     H58749   8.754   7.828   3.867 -0.6633  1.6402  1.4905
  426MOL0     H58750   8.727   7.924   3.400 -2.0931 -0.2178 -1.1246
  426MOL0     H58751   8.836   8.050   3.183  1.3257  0.1627  0.2684
  426MOL0     H58752   8.802   8.473   3.098  2.0862  1.7110  1.4009
  426MOL0     H58753   8.925   8.404   3.198  0.0149  0.1451 -0.8121
  426MOL0     H58754   8.916   8.379   2.892 -0.7349 -1.5292  0.5972
  426MOL0     H58755   8.997   8.494   2.982 -1.8080  0.3160 -3.6366
  426MOL0     H58756   9.104   8.275   3.119 -1.0644 -2.7822  0.3323
  426MOL0     H58757   9.177   8.333   2.991  0.0499  0.8709  2.4883
  426MOL0     H58758   9.039   8.189   2.825  0.8632  0.8568 -0.0875
  426MOL0     H58759   8.943   8.131   2.964  0.3713 -0.0020 -2.3913
  426MOL0     H58760   9.197   8.053   3.049  2.3692 -0.8095 -2.0719
  426MOL0     H58761   9.100   7.952   2.942  0.2315 -0.6637  1.8854
  426MOL0     H58762   9.298   8.174   2.854 -4.1017  1.4141 -1.2959
  426MOL0     H58763   9.220   8.060   2.750 -3.2100 -4.3479  1.7344
  426MOL0     H58764   9.323   7.857   2.849  1.2534 -1.3346 -2.6264
  426MOL0     H58765   9.409   7.966   2.969 -0.8853  4.4274 -0.2249
  426MOL0     H58766   9.533   8.067   2.765  0.2831  0.4779  1.4963
  426MOL0     H58767   9.440   7.958   2.661  2.2853  0.2651 -0.5541
  426MOL0     H58768   8.659   8.410   3.315 -1.7779 -0.6243  1.1729
  426MOL0     H58769   8.599   8.288   3.530  0.4233 -0.9594  0.6722
  426MOL0     H58770   8.419   8.131   3.718  0.8153  1.1499  0.6823
  426MOL0     H58771   8.249   8.092   3.900  0.3307  0.0153 -2.9271
  426MOL0     H58772   7.780   8.017   4.664  3.3381  3.1491 -2.5172
  426MOL0     H58773   7.915   8.088   4.483  0.8308  0.0786  0.3427
  426MOL0     H58774   8.094   8.384   4.181 -1.3834  0.4726 -0.6076
  426MOL0     H58775   8.238   8.413   3.989  1.8553 -3.6295  0.0414
  426MOL0     H58776   8.188   8.300   3.552  0.5261 -3.5332  3.4282
  426MOL0     H58777   8.024   8.305   3.618  0.0013 -0.4872  3.6168
  426MOL0     H58778   8.046   8.478   3.445 -1.5308 -4.5136 -0.1083
  426MOL0     H58779   8.184   8.557   3.522 -0.5760  1.5036  0.7616
  426MOL0     H58780   7.901   8.542   3.625  0.0748  0.5102 -1.4809
  426MOL0     H58781   8.032   8.576   3.739 -0.8126  3.2658  0.9410
  426MOL0     H58782   7.992   8.721   3.471 -2.4609 -0.7467  0.0503
  426MOL0     H58783   8.108   8.766   3.583  0.0181  0.8397 -3.2771
  426MOL0     H58784   7.746   8.935   3.719  3.4777  3.3685  1.2051
  426MOL0     H58785   8.008   8.158   3.744 -2.6021  0.4905 -0.4507
  426MOL0     H58786   7.748   8.090   4.001  2.1830  1.0457  1.4913
  426MOL0     H58787   7.795   8.082   3.835 -1.9182  0.7353  0.8158
  426MOL0     H58788   7.864   7.967   3.961  0.7927 -0.1328  0.2513
  427MOL0     O58789   0.495  10.035   6.108 -0.5092  0.5198 -0.8477
  427MOL0     C58790   0.499   9.996   5.989 -0.8502  0.3155 -1.3627
  427MOL0     O58791   0.387   9.974   5.920  0.4475 -0.0833 -0.0089
  427MOL0     C58792   0.262  10.003   5.965  0.2601  0.7221 -0.5354
  427MOL0     C58793   0.210   9.989   6.096 -0.3422  0.0662 -0.0224
  427MOL0     C58794   0.079  10.027   6.128 -0.0638 -0.4925 -1.5512
  427MOL0     C58795   0.000  10.081   6.027  0.4782  0.8392 -0.3077
  427MOL0     O58796  -0.130  10.119   6.036 -0.3882  0.0939 -0.1034
  427MOL0     C58797  -0.213  10.067   6.140  0.6631 -0.1406  0.1286
  427MOL0     C58798  -0.247   9.911   6.127 -0.5875  0.3363  0.0363
  427MOL0     C58799  -0.384   9.883   6.080  0.4610 -0.2825  0.2139
  427MOL0     C58800  -0.490   9.877   6.201  0.3717 -0.4212  0.4133
  427MOL0     C58801  -0.642   9.863   6.172 -0.0367 -0.4431  0.0547
  427MOL0     C58802  -0.679   9.742   6.091 -0.1864  0.7722  0.0828
  427MOL0     C58803  -0.826   9.739   6.053  0.2055  0.1163  0.9873
  427MOL0     C58804  -0.850   9.666   5.922 -0.5044 -0.5079  0.2616
  427MOL0     N58805  -0.788   9.529   5.909 -0.5749 -0.7214 -0.0497
  427MOL0     C58806  -0.655   9.504   5.878 -0.1745  0.6805  0.5345
  427MOL0     C58807  -0.655   9.368   5.875  0.0302  0.3153  0.2788
  427MOL0     C58808  -0.542   9.283   5.835  0.1158 -0.4890  1.0329
  427MOL0     C58809  -0.464   9.259   5.961 -0.5113  0.6172  0.6245
  427MOL0     C58810  -0.323   9.203   5.931 -0.4715  0.1484  0.2670
  427MOL0     C58811  -0.324   9.052   5.938  0.9061  0.4763 -0.1790
  427MOL0     O58812  -0.381   9.009   6.062 -0.7989  0.6631  0.4949
  427MOL0     C58813  -0.305   8.987   6.178  0.3556  0.7078  0.4682
  427MOL0     C58814  -0.364   8.908   6.277  0.1102 -0.2537 -0.9862
  427MOL0     C58815  -0.312   8.870   6.402 -0.0539 -1.4941 -0.5732
  427MOL0     C58816  -0.401   8.794   6.496 -0.3324 -0.8627  0.3943
  427MOL0     C58817  -0.175   8.907   6.422  0.5280 -0.4253 -0.8285
  427MOL0     C58818  -0.096   8.875   6.549 -0.5975  0.3837  0.2914
  427MOL0     O58819   0.034   8.900   6.544 -0.5818  0.5671  0.4308
  427MOL0     C58820   0.097   8.883   6.662  0.5587  0.2237  0.5966
  427MOL0     C58821   0.074   8.974   6.759 -1.3272  0.3049 -0.8384
  427MOL0     C58822   0.136   8.951   6.886 -0.0243  0.4225 -0.0786
  427MOL0     C58823   0.221   8.849   6.913 -0.1136  0.2761  0.2439
  427MOL0     O58824   0.274   8.868   7.036  0.2256  0.2635 -0.1302
  427MOL0     C58825   0.376   8.771   7.073 -0.7031  0.4078  0.7718
  427MOL0     C58826   0.466   8.810   7.194 -0.9019 -0.4515 -0.0919
  427MOL0     C58827   0.565   8.700   7.245  0.6311  0.0712  0.0048
  427MOL0     C58828   0.612   8.726   7.385  0.7672  1.1494  0.3107
  427MOL0     C58829   0.738   8.651   7.431  0.9750 -0.0340 -0.1806
  427MOL0     C58830   0.816   8.715   7.544  0.3339 -1.0610 -0.5589
  427MOL0     C58831   0.949   8.637   7.559 -0.7211  0.5958 -0.0474
  427MOL0     C58832   1.035   8.675   7.678 -0.4261  0.4954  0.5619
  427MOL0    Cl58833   1.112   8.839   7.662  0.1612  0.0254 -0.2378
  427MOL0     C58834   0.238   8.751   6.806  0.4714 -0.1597  0.0658
  427MOL0     C58835   0.166   8.766   6.682 -0.3097 -0.4436 -0.6246
  427MOL0     O58836  -0.156   8.825   6.646 -0.2193 -0.6514  0.6162
  427MOL0     C58837  -0.112   8.992   6.328 -0.3421 -0.5873 -0.9409
  427MOL0     C58838  -0.177   9.036   6.213 -0.4575 -0.1569 -0.0907
  427MOL0     N58839  -0.778   9.320   5.911  0.4178  0.0234  1.1015
  427MOL0     N58840  -0.855   9.420   5.937 -0.0886 -1.4243 -0.7526
  427MOL0     C58841   0.046  10.102   5.901  0.7761 -0.7450  0.6273
  427MOL0     C58842   0.176  10.062   5.869 -0.2199  0.3745  0.2291
  427MOL0     C58843   0.633   9.976   5.928  0.8219 -0.6965  0.6133
  427MOL0     C58844   0.744  10.007   6.009 -0.2976 -0.4643 -0.2941
  427MOL0     C58845   0.872   9.993   5.962 -0.8342 -0.3204 -0.3157
  427MOL0     C58846   0.895   9.944   5.831 -0.5823  0.1309 -0.1556
  427MOL0     O58847   1.023   9.916   5.777  0.2075  0.0813 -0.3397
  427MOL0     C58848   1.053   9.781   5.751  0.5878  0.3661  0.7868
  427MOL0     C58849   1.042   9.672   5.853 -0.1214 -0.6973 -0.9501
  427MOL0     C58850   0.904   9.611   5.870  0.5845 -0.2775 -0.4658
  427MOL0     C58851   0.847   9.536   5.748  0.6226 -0.2615  0.0441
  427MOL0     C58852   0.730   9.450   5.782 -0.0931  0.3180  0.7260
  427MOL0     C58853   0.632   9.383   5.800 -0.2337 -0.2148  0.0990
  427MOL0     C58854   0.781   9.921   5.751  0.7245  0.1920 -0.5015
  427MOL0     C58855   0.653   9.924   5.805  0.2955  0.2198  0.6112
  427MOL0     C58856   0.545   9.864   5.714 -0.0687 -0.4529 -0.4563
  427MOL0     H58857   0.275   9.956   6.177 -1.9887 -2.2316  0.4664
  427MOL0     H58858   0.062  10.019   6.235 -0.1542 -2.6761 -1.6791
  427MOL0     H58859  -0.313  10.113   6.143  0.4190 -0.6844  3.0430
  427MOL0     H58860  -0.170  10.078   6.240  0.7361 -2.7366  0.4377
  427MOL0     H58861  -0.175   9.858   6.064 -1.9483 -1.6459  0.0640
  427MOL0     H58862  -0.222   9.872   6.227  1.6696 -0.3912 -0.7330
  427MOL0     H58863  -0.432   9.971   6.036  0.0014  0.1010  1.4644
  427MOL0     H58864  -0.400   9.798   6.013 -0.2513 -0.4596  0.5960
  427MOL0     H58865  -0.468   9.785   6.256  0.8790 -1.1375 -0.9144
  427MOL0     H58866  -0.481   9.974   6.250 -1.0238  0.8035 -1.5807
  427MOL0     H58867  -0.656   9.953   6.112  2.2511  2.3133  3.2912
  427MOL0     H58868  -0.695   9.862   6.268  1.6028 -1.3649  0.9950
  427MOL0     H58869  -0.619   9.742   6.000 -2.9781  0.3155 -1.8918
  427MOL0     H58870  -0.654   9.653   6.150 -0.2811 -1.1076 -2.5458
  427MOL0     H58871  -0.870   9.839   6.052 -0.7871 -0.2899  1.9146
  427MOL0     H58872  -0.885   9.689   6.130 -2.2095 -1.4087 -1.6617
  427MOL0     H58873  -0.958   9.653   5.911 -0.8943  1.6288  1.0409
  427MOL0     H58874  -0.810   9.725   5.839 -1.3586 -1.0518 -0.5562
  427MOL0     H58875  -0.577   9.577   5.861  0.4152 -0.0643 -0.0264
  427MOL0     H58876  -0.479   9.326   5.756 -0.1097  1.2241  1.7335
  427MOL0     H58877  -0.580   9.187   5.799 -1.5703 -0.3847  2.4030
  427MOL0     H58878  -0.443   9.359   6.001  1.4316 -0.2008  1.7694
  427MOL0     H58879  -0.516   9.203   6.040  2.0010 -0.9585  1.2740
  427MOL0     H58880  -0.289   9.232   5.831 -1.7729  0.0401 -0.2296
  427MOL0     H58881  -0.245   9.235   6.000  0.3432  3.5658 -2.0243
  427MOL0     H58882  -0.375   9.009   5.851  1.0537  1.6177 -0.8378
  427MOL0     H58883  -0.220   9.019   5.934  1.0268  0.6766  0.9742
  427MOL0     H58884  -0.462   8.866   6.260  0.3736 -0.6578 -1.5187
  427MOL0     H58885  -0.427   8.849   6.587  4.4068  1.1814  0.7915
  427MOL0     H58886  -0.354   8.700   6.525 -1.4622 -1.1262  1.5127
  427MOL0     H58887  -0.494   8.776   6.442 -1.9318  1.9036  1.9473
  427MOL0     H58888   0.018   9.065   6.742 -0.8974  0.5445 -0.9882
  427MOL0     H58889   0.127   9.023   6.967  1.4486 -0.8024  1.2253
  427MOL0     H58890   0.318   8.682   7.099 -0.4428 -0.5218 -1.6007
  427MOL0     H58891   0.435   8.740   6.987 -2.5975  0.2254 -0.5244
  427MOL0     H58892   0.520   8.900   7.162 -2.7555  0.9276  0.4938
  427MOL0     H58893   0.398   8.842   7.273 -1.1022 -1.1278  0.0103
  427MOL0     H58894   0.646   8.690   7.173 -0.9894  2.1872 -2.2844
  427MOL0     H58895   0.498   8.613   7.249 -1.1094  1.1285 -2.8331
  427MOL0     H58896   0.525   8.704   7.447  0.0366 -0.2726 -1.1313
  427MOL0     H58897   0.627   8.834   7.388 -0.3126  1.2907  2.3956
  427MOL0     H58898   0.705   8.550   7.457  3.5937 -1.1127 -0.7482
  427MOL0     H58899   0.809   8.633   7.349  2.6524 -0.5961  1.3261
  427MOL0     H58900   0.761   8.714   7.639  0.4157  4.2710 -0.1615
  427MOL0     H58901   0.837   8.819   7.519  0.7618 -0.1926  2.8369
  427MOL0     H58902   1.016   8.654   7.474  0.0615  2.8538  0.9352
  427MOL0     H58903   0.930   8.529   7.552 -1.0902  0.6809 -0.3929
  427MOL0     H58904   1.107   8.596   7.702 -1.3986  0.3092  3.1737
  427MOL0     H58905   0.962   8.679   7.759  1.0841 -3.7088  2.4279
  427MOL0     H58906   0.309   8.670   6.821 -0.6977 -1.2238  0.0174
  427MOL0     H58907   0.169   8.696   6.599 -1.4641  2.2009 -3.0427
  427MOL0     H58908  -0.015   9.035   6.349 -1.3725  1.3330  0.2257
  427MOL0     H58909  -0.140   9.113   6.147  0.6047 -0.7468 -0.1987
  427MOL0     H58910  -0.007  10.167   5.832  0.8749  0.7133  1.8693
  427MOL0     H58911   0.204  10.102   5.772 -2.4471  2.3224  0.3067
  427MOL0     H58912   0.737  10.028   6.115 -2.3414 -1.1960 -0.2471
  427MOL0     H58913   0.960  10.020   6.019 -2.4111  0.5310  1.8614
  427MOL0     H58914   0.991   9.750   5.667  1.9399  0.7997 -0.4109
  427MOL0     H58915   1.155   9.776   5.713 -0.3886 -0.3621 -1.9242
  427MOL0     H58916   1.084   9.716   5.944  1.3622 -0.5663 -1.6612
  427MOL0     H58917   1.115   9.594   5.832  0.3143 -1.1698  1.8773
  427MOL0     H58918   0.905   9.539   5.953  2.6539 -0.5456 -0.6878
  427MOL0     H58919   0.843   9.699   5.891  1.0581 -0.4599  1.9547
  427MOL0     H58920   0.926   9.477   5.702  2.1655  1.2356  0.6864
  427MOL0     H58921   0.825   9.612   5.672 -1.3744 -0.8985 -0.0683
  427MOL0     H58922   0.567   9.298   5.810  0.3297 -0.8530 -1.3442
  427MOL0     H58923   0.798   9.904   5.645 -1.3800  1.4110 -1.0774
  427MOL0     H58924   0.487   9.781   5.756  0.2881 -0.1169  0.7640
  427MOL0     H58925   0.478   9.939   5.671 -1.9103 -2.8152 -1.9263
  427MOL0     H58926   0.596   9.830   5.624  2.6546 -1.7186  1.4283
  428MOL0     O58927   3.672   5.588  10.585  0.3348 -0.1950 -0.1349
  428MOL0     C58928   3.696   5.475  10.540 -0.1129 -0.5938 -0.4285
  428MOL0     O58929   3.615   5.362  10.546  0.3142  0.4427 -0.4864
  428MOL0     C58930   3.488   5.391  10.601  0.5581 -0.1447  0.1278
  428MOL0     C58931   3.468   5.332  10.723 -0.1578 -0.1369 -0.1699
  428MOL0     C58932   3.339   5.341  10.785 -1.1271  0.6813 -0.5748
  428MOL0     C58933   3.240   5.413  10.719  0.0144 -0.5360 -0.9557
  428MOL0     O58934   3.125   5.435  10.796  0.5337 -0.8317  0.0560
  428MOL0     C58935   3.063   5.312  10.827  0.9758 -0.6987 -0.5901
  428MOL0     C58936   2.987   5.266  10.709 -0.0637  0.9109 -0.6589
  428MOL0     C58937   2.873   5.162  10.723  0.2554  0.0454 -0.5912
  428MOL0     C58938   2.903   5.029  10.653 -0.3788 -0.2205 -0.0530
  428MOL0     C58939   2.781   4.950  10.627  0.0572 -0.7939 -0.4749
  428MOL0     C58940   2.792   4.815  10.567 -0.5546 -0.0362  0.1921
  428MOL0     C58941   2.857   4.719  10.666 -0.1989  0.5526  0.0611
  428MOL0     C58942   2.816   4.566  10.662  0.0707  0.5806 -0.1831
  428MOL0     N58943   2.907   4.500  10.562 -0.3862 -0.2375 -0.3795
  428MOL0     C58944   2.870   4.390  10.478 -0.4727 -0.3583  0.3322
  428MOL0     C58945   2.992   4.344  10.447  0.9801  0.3345 -0.3727
  428MOL0     C58946   3.026   4.238  10.342 -0.4272 -0.5256 -0.2673
  428MOL0     C58947   2.939   4.110  10.354  0.4307  0.0521 -0.2712
  428MOL0     C58948   3.006   3.988  10.283 -0.0414 -0.7387 -0.3162
  428MOL0     C58949   3.055   4.019  10.136  0.6156 -0.0667  0.2594
  428MOL0     O58950   2.971   4.110  10.065  0.1051  0.5087 -0.1862
  428MOL0     C58951   2.909   4.067   9.950  0.2690  1.1426 -0.5504
  428MOL0     C58952   2.851   3.937   9.932 -0.0005  0.4176  0.7202
  428MOL0     C58953   2.794   3.892   9.812 -0.1214 -0.3774  1.1078
  428MOL0     C58954   2.798   3.742   9.788  0.3572 -0.2161  0.4096
  428MOL0     C58955   2.775   3.983   9.707  0.1053  0.3745  0.0248
  428MOL0     C58956   2.716   3.942   9.574 -0.7087 -0.4597  0.2802
  428MOL0     O58957   2.751   4.024   9.465 -0.7749  0.2202 -0.2303
  428MOL0     C58958   2.710   4.009   9.337  0.0302  0.0355  0.4549
  428MOL0     C58959   2.786   4.087   9.238  0.3530 -0.5458 -0.6422
  428MOL0     C58960   2.745   4.100   9.103  0.3557 -0.2787  0.1637
  428MOL0     C58961   2.640   4.024   9.059  0.6393  1.1582 -0.0807
  428MOL0     O58962   2.584   4.004   8.935  0.2591 -0.3125  0.5263
  428MOL0     C58963   2.630   4.069   8.819 -0.1309 -0.4242 -1.1528
  428MOL0     C58964   2.707   3.977   8.721  0.2952 -0.6313  0.7313
  428MOL0     C58965   2.852   4.029   8.683 -0.5879 -0.1364 -0.1465
  428MOL0     C58966   2.917   3.952   8.557  0.1731 -0.3459 -0.7488
  428MOL0     C58967   3.052   4.012   8.513 -0.1581 -0.9965  0.3325
  428MOL0     C58968   3.029   4.111   8.391  0.0755  0.8372 -0.4873
  428MOL0     C58969   3.142   4.203   8.387 -0.5098 -0.2860  0.1392
  428MOL0     C58970   3.278   4.153   8.341  0.3396 -0.7582  1.1454
  428MOL0    Cl58971   3.283   4.077   8.177 -0.2282 -0.1136 -0.1291
  428MOL0     C58972   2.570   3.942   9.156  0.6396  0.4167  0.4346
  428MOL0     C58973   2.606   3.934   9.289 -0.2219  0.5473 -0.0432
  428MOL0     O58974   2.642   3.848   9.560  0.1555  1.0954 -0.3993
  428MOL0     C58975   2.800   4.120   9.729 -0.4840 -0.3333 -0.4572
  428MOL0     C58976   2.871   4.156   9.846  0.5151 -0.6649  0.5677
  428MOL0     N58977   3.098   4.412  10.499 -0.3448  0.0107  0.3024
  428MOL0     N58978   3.042   4.500  10.577 -0.0988  0.2458 -0.7353
  428MOL0     C58979   3.256   5.464  10.594  0.1483  0.6271  0.3601
  428MOL0     C58980   3.383   5.453  10.538 -0.2670  0.5570 -0.3288
  428MOL0     C58981   3.841   5.455  10.485 -0.1856 -0.6671 -0.2782
  428MOL0     C58982   3.932   5.558  10.510 -0.3061 -0.8811 -0.0550
  428MOL0     C58983   4.070   5.548  10.487  0.2279 -0.5712 -0.5689
  428MOL0     C58984   4.121   5.429  10.432 -0.0634 -0.3416  0.0417
  428MOL0     O58985   4.259   5.429  10.413 -0.2541 -0.4403  0.1266
  428MOL0     C58986   4.348   5.381  10.515  0.0199  0.3334 -0.4840
  428MOL0     C58987   4.347   5.227  10.520  0.6543 -0.0987  0.2535
  428MOL0     C58988   4.480   5.175  10.584  0.7928 -0.8319 -0.5130
  428MOL0     C58989   4.497   5.025  10.551 -0.1086  0.1698  0.0041
  428MOL0     C58990   4.624   4.978  10.605  0.3048 -0.3027 -0.5005
  428MOL0     C58991   4.742   4.951  10.632 -0.0099  0.0413 -0.5791
  428MOL0     C58992   4.036   5.330  10.400 -1.2577 -0.3029  0.6855
  428MOL0     C58993   3.902   5.338  10.422 -0.5565 -0.5835  0.2028
  428MOL0     C58994   3.830   5.214  10.396 -0.8327  0.2123  0.0620
  428MOL0     H58995   3.556   5.294  10.773  0.9837  3.3937  0.8467
  428MOL0     H58996   3.320   5.295  10.881 -0.8796 -3.1990 -2.1747
  428MOL0     H58997   2.993   5.339  10.906  2.1914  0.5835  0.0885
  428MOL0     H58998   3.123   5.228  10.865 -0.5135 -1.5268  0.0014
  428MOL0     H58999   2.946   5.354  10.661 -1.3976  0.6339 -0.0783
  428MOL0     H59000   3.069   5.217  10.655  1.8465  2.8465  0.3084
  428MOL0     H59001   2.850   5.153  10.830 -0.2370  1.4410 -0.5613
  428MOL0     H59002   2.782   5.202  10.678 -0.4669 -1.3787 -0.4666
  428MOL0     H59003   2.955   5.058  10.562  1.1282 -0.0572  0.8286
  428MOL0     H59004   2.975   4.978  10.717 -1.2041  0.7200  1.7021
  428MOL0     H59005   2.720   5.007  10.557 -0.4789  0.9532  1.3085
  428MOL0     H59006   2.716   4.933  10.714  0.5901 -2.1814 -0.3154
  428MOL0     H59007   2.687   4.788  10.552 -0.2978 -0.8324 -0.2468
  428MOL0     H59008   2.852   4.811  10.476 -0.3231  1.2041  0.2710
  428MOL0     H59009   2.816   4.748  10.764 -1.9901 -1.6371  0.0325
  428MOL0     H59010   2.966   4.730  10.664  0.0947 -1.8512 -2.9562
  428MOL0     H59011   2.826   4.521  10.761  0.8672  2.3657  0.5975
  428MOL0     H59012   2.710   4.546  10.644  0.0173  0.5914  0.1138
  428MOL0     H59013   2.770   4.356  10.452 -1.7023  2.1128  1.4666
  428MOL0     H59014   3.130   4.208  10.357 -0.6432 -1.3496 -0.3889
  428MOL0     H59015   3.023   4.280  10.241  2.4461 -3.2649 -1.6637
  428MOL0     H59016   2.910   4.094  10.458  1.7233  1.3885  0.3400
  428MOL0     H59017   2.846   4.136  10.303 -0.4096  0.8484  1.5703
  428MOL0     H59018   3.098   3.951  10.331  0.7010  0.8203 -0.4787
  428MOL0     H59019   2.933   3.907  10.276 -1.0666  0.2866 -2.2104
  428MOL0     H59020   3.157   4.056  10.119  0.7804 -1.0322 -1.0511
  428MOL0     H59021   3.058   3.922  10.084 -0.0431 -0.3065  0.6518
  428MOL0     H59022   2.873   3.851   9.994  1.7445 -2.6288 -3.5795
  428MOL0     H59023   2.698   3.698   9.778 -0.5256  1.7478  0.1080
  428MOL0     H59024   2.839   3.690   9.876  2.3300 -1.4235 -1.1335
  428MOL0     H59025   2.835   3.703   9.693 -0.0686 -0.3664  0.3038
  428MOL0     H59026   2.854   4.165   9.274 -0.5027 -0.5121  0.9994
  428MOL0     H59027   2.797   4.175   9.045  3.1982 -1.4218  1.0856
  428MOL0     H59028   2.545   4.113   8.765  1.5663  4.1916 -0.4979
  428MOL0     H59029   2.675   4.166   8.840 -1.2414 -0.2882  0.8172
  428MOL0     H59030   2.716   3.879   8.767 -0.0125 -0.5019  1.0704
  428MOL0     H59031   2.645   3.965   8.632 -1.8819  0.6340  1.9942
  428MOL0     H59032   2.920   4.013   8.767  1.1971 -2.4306 -1.8878
  428MOL0     H59033   2.845   4.136   8.661  4.8370  0.1799 -1.7119
  428MOL0     H59034   2.845   3.952   8.474  0.0236  0.1511 -0.6253
  428MOL0     H59035   2.945   3.850   8.584 -1.1239 -0.3573  0.7575
  428MOL0     H59036   3.094   4.056   8.604 -2.3721 -1.5679  1.7301
  428MOL0     H59037   3.126   3.933   8.493 -0.3090 -1.8994  2.9117
  428MOL0     H59038   2.936   4.166   8.403 -0.0416  0.5354  0.0394
  428MOL0     H59039   3.036   4.054   8.298  2.5020  1.5144 -0.7982
  428MOL0     H59040   3.159   4.233   8.491  1.5949  2.5850 -0.9065
  428MOL0     H59041   3.105   4.287   8.327 -2.1493 -0.6587  0.5690
  428MOL0     H59042   3.324   4.083   8.411  4.0083 -1.2822 -1.5068
  428MOL0     H59043   3.344   4.240   8.330  0.0386 -0.6656 -0.0487
  428MOL0     H59044   2.479   3.893   9.124  1.9211 -1.1473 -0.9871
  428MOL0     H59045   2.543   3.870   9.350  0.3103 -1.7538 -1.7941
  428MOL0     H59046   2.777   4.193   9.652 -0.2528 -0.6441 -0.8192
  428MOL0     H59047   2.900   4.260   9.851  0.1828 -0.5214 -0.3438
  428MOL0     H59048   3.183   5.521  10.538 -0.3707  0.7720  1.1572
  428MOL0     H59049   3.392   5.498  10.439 -0.3089  1.6479  0.1393
  428MOL0     H59050   3.887   5.649  10.548  1.2992  0.1326 -0.4988
  428MOL0     H59051   4.138   5.632  10.497 -2.3193  1.3884  1.8494
  428MOL0     H59052   4.451   5.417  10.509  1.0351 -2.4811 -1.9909
  428MOL0     H59053   4.323   5.416  10.615  1.6443  2.2226 -0.6737
  428MOL0     H59054   4.345   5.186  10.418 -0.5971  1.8073 -0.5435
  428MOL0     H59055   4.255   5.197  10.571  0.5068 -2.6786 -1.3089
  428MOL0     H59056   4.572   5.225  10.551  2.1566 -0.9635  2.6970
  428MOL0     H59057   4.476   5.174  10.693 -1.3845 -3.9811 -0.5047
  428MOL0     H59058   4.508   5.017  10.442  0.9986 -0.1306  0.1297
  428MOL0     H59059   4.418   4.960  10.592  0.6286 -0.2338  0.8138
  428MOL0     H59060   4.840   4.938  10.673  0.3427  1.6103 -0.8490
  428MOL0     H59061   4.077   5.238  10.361 -1.5754  0.9802 -3.0875
  428MOL0     H59062   3.898   5.132  10.372  1.8189  2.1368  0.6507
  428MOL0     H59063   3.769   5.186  10.482 -2.6116  3.8321  0.1764
  428MOL0     H59064   3.750   5.218  10.321 -0.5859  1.2921 -0.1615
  429MOL0     O59065   3.554   6.163  10.957 -0.0337  0.2270  1.3120
  429MOL0     C59066   3.600   6.272  10.936 -0.4113  0.2944  1.1235
  429MOL0     O59067   3.681   6.336  11.024  0.4886  0.0990  0.6245
  429MOL0     C59068   3.739   6.271  11.129  0.6072  0.0928 -0.2922
  429MOL0     C59069   3.731   6.341  11.245  0.0564  0.2651 -0.1667
  429MOL0     C59070   3.794   6.291  11.360  0.4384  0.0291  1.2166
  429MOL0     C59071   3.877   6.180  11.350  0.3314 -0.6603  0.1403
  429MOL0     O59072   3.956   6.139  11.448  1.2457 -0.1914 -0.3146
  429MOL0     C59073   3.917   6.146  11.589  0.3418  0.3157 -0.7229
  429MOL0     C59074   3.861   6.010  11.617 -0.3169  0.4496  0.2174
  429MOL0     C59075   3.952   5.887  11.589  0.1629  0.5454 -0.9770
  429MOL0     C59076   3.883   5.762  11.653  0.4163 -0.8673 -0.6299
  429MOL0     C59077   3.983   5.638  11.655  0.5246  0.3540 -0.0330
  429MOL0     C59078   3.927   5.531  11.750 -0.2710 -0.3114 -0.1227
  429MOL0     C59079   4.012   5.404  11.756 -0.2679  0.3005 -0.2640
  429MOL0     C59080   3.925   5.302  11.837 -1.1176  0.2425  0.1069
  429MOL0     N59081   4.006   5.175  11.843 -0.1206  0.3660  0.2750
  429MOL0     C59082   3.974   5.049  11.795  0.1902 -0.1648 -0.8237
  429MOL0     C59083   4.085   4.971  11.815  0.3475  1.1981 -0.1228
  429MOL0     C59084   4.076   4.820  11.788  0.5622  0.3837 -0.0217
  429MOL0     C59085   4.186   4.776  11.693 -0.5008  0.8533 -0.0297
  429MOL0     C59086   4.208   4.625  11.690  0.6391 -0.0528  0.0919
  429MOL0     C59087   4.253   4.569  11.822  0.1218  0.3671 -0.5963
  429MOL0     O59088   4.278   4.425  11.805 -0.1651 -1.2998  0.2921
  429MOL0     C59089   4.373   4.375  11.891  1.1203  0.6508 -0.1565
  429MOL0     C59090   4.491   4.435  11.931  0.2809  0.5975 -0.0183
  429MOL0     C59091   4.577   4.364  12.018 -0.7775  0.2027  0.2638
  429MOL0     C59092   4.709   4.427  12.069  0.4460 -0.0623 -0.5503
  429MOL0     C59093   4.550   4.230  12.066 -0.9026  0.8043 -0.4863
  429MOL0     C59094   4.636   4.148  12.157  0.3488 -0.2999 -0.2259
  429MOL0     O59095   4.759   4.132  12.114 -0.0945 -0.0149  0.3832
  429MOL0     C59096   4.846   4.058  12.193  0.4624  0.0351 -0.2189
  429MOL0     C59097   4.848   3.923  12.168 -0.2077 -0.4518  0.0345
  429MOL0     C59098   4.947   3.842  12.218 -0.3194 -0.4595 -0.1148
  429MOL0     C59099   5.049   3.892  12.313  0.2003  0.5485  0.0235
  429MOL0     O59100   5.148   3.812  12.347  0.0018  0.1445 -0.1559
  429MOL0     C59101   5.286   3.867  12.361  0.2319 -0.2834 -0.4231
  429MOL0     C59102   5.314   3.903  12.503 -0.7925  0.9371  1.3527
  429MOL0     C59103   5.307   3.786  12.598  0.3175  0.4173 -0.0774
  429MOL0     C59104   5.296   3.838  12.740  0.7514  0.2781  0.4236
  429MOL0     C59105   5.334   3.723  12.827 -0.1732  0.8408 -0.3698
  429MOL0     C59106   5.487   3.720  12.865 -0.1537 -0.0405 -0.0851
  429MOL0     C59107   5.532   3.601  12.949 -0.3984  0.7628 -0.9570
  429MOL0     C59108   5.685   3.599  12.959 -0.5716 -0.0868  0.2797
  429MOL0    Cl59109   5.743   3.753  13.041  0.0509  0.0236  0.2056
  429MOL0     C59110   5.038   4.027  12.347 -0.2106  0.5448  0.2117
  429MOL0     C59111   4.949   4.108  12.277 -0.5571 -0.2730  0.5721
  429MOL0     O59112   4.599   4.114  12.266  0.4306 -0.6638 -0.5343
  429MOL0     C59113   4.435   4.176  12.018 -0.5666  0.8336  0.7648
  429MOL0     C59114   4.347   4.239  11.928 -0.7296 -1.5133 -0.2116
  429MOL0     N59115   4.185   5.045  11.875  0.2879  0.2153 -0.9385
  429MOL0     N59116   4.134   5.161  11.901  0.2717 -0.1458  0.2976
  429MOL0     C59117   3.890   6.107  11.223 -0.5933 -0.4990 -0.4909
  429MOL0     C59118   3.818   6.154  11.113  0.1552 -0.2456  0.6060
  429MOL0     C59119   3.583   6.347  10.802 -0.1057 -0.6504  0.2715
  429MOL0     C59120   3.564   6.280  10.675  0.1204 -0.5938  0.3845
  429MOL0     C59121   3.544   6.348  10.555 -0.4552 -0.2691 -0.6056
  429MOL0     C59122   3.559   6.482  10.557  1.1884 -0.0331 -0.2619
  429MOL0     O59123   3.546   6.563  10.447  0.5720  0.0866 -0.4858
  429MOL0     C59124   3.520   6.513  10.317  0.6917 -0.5735 -0.0835
  429MOL0     C59125   3.491   6.635  10.224  0.9436  0.6787  0.6171
  429MOL0     C59126   3.367   6.715  10.277  0.0078  0.1292  0.2479
  429MOL0     C59127   3.338   6.844  10.201 -0.9249  0.0101 -0.5714
  429MOL0     C59128   3.462   6.912  10.155 -0.2215 -0.1079 -0.6326
  429MOL0     C59129   3.562   6.975  10.130 -0.1328  0.0421 -0.2421
  429MOL0     C59130   3.579   6.546  10.684  0.3552 -0.0464  0.7469
  429MOL0     C59131   3.578   6.488  10.807 -0.4855 -0.4795  0.0637
  429MOL0     C59132   3.564   6.572  10.926  0.0114  0.3720  0.7599
  429MOL0     H59133   3.668   6.429  11.249  0.4001  0.4578  2.1637
  429MOL0     H59134   3.797   6.342  11.456 -3.2820  0.5841  1.1810
  429MOL0     H59135   3.843   6.216  11.629 -0.3207 -1.3493  1.1398
  429MOL0     H59136   4.001   6.161  11.658 -1.2868  0.6623  1.3022
  429MOL0     H59137   3.834   5.999  11.723  0.7577 -2.2182  0.2903
  429MOL0     H59138   3.775   5.999  11.549  1.3974  0.9054 -2.1341
  429MOL0     H59139   3.970   5.868  11.483  2.5478 -4.9385  0.0804
  429MOL0     H59140   4.056   5.898  11.622  0.3702  0.8536 -1.7214
  429MOL0     H59141   3.846   5.782  11.754  0.3420  0.9697 -0.9970
  429MOL0     H59142   3.802   5.737  11.585  0.1233  2.8514 -1.8799
  429MOL0     H59143   4.079   5.683  11.684  1.3610 -1.7579  0.6936
  429MOL0     H59144   3.989   5.599  11.553  2.2620  2.6034 -0.8797
  429MOL0     H59145   3.911   5.575  11.849  2.2650  2.0807 -0.6497
  429MOL0     H59146   3.827   5.497  11.720  0.6432 -1.2617 -2.2917
  429MOL0     H59147   4.109   5.425  11.803 -0.2090  1.6613 -0.9376
  429MOL0     H59148   4.024   5.365  11.655 -1.2100 -1.0111  0.1059
  429MOL0     H59149   3.909   5.341  11.938 -1.9455  1.8244 -0.6135
  429MOL0     H59150   3.830   5.281  11.787 -0.9286 -0.2801 -0.0435
  429MOL0     H59151   3.884   5.021  11.740  0.1652 -0.6583 -0.5288
  429MOL0     H59152   3.981   4.791  11.742  0.5915  0.8358 -0.3780
  429MOL0     H59153   4.072   4.769  11.885  0.8405  1.2483  0.4567
  429MOL0     H59154   4.151   4.800  11.593  0.8430 -2.0775 -1.3313
  429MOL0     H59155   4.278   4.833  11.704  0.7491 -0.7451 -1.7613
  429MOL0     H59156   4.121   4.575  11.646 -1.0220 -0.1450  3.1975
  429MOL0     H59157   4.294   4.600  11.627  0.1912 -3.8692  0.7624
  429MOL0     H59158   4.332   4.625  11.874 -2.4488  0.3676  3.8779
  429MOL0     H59159   4.176   4.582  11.899  2.3523  1.6089  1.6228
  429MOL0     H59160   4.515   4.536  11.898  1.7065  0.2183 -0.1971
  429MOL0     H59161   4.756   4.382  12.157 -0.7720  2.9117  1.7954
  429MOL0     H59162   4.693   4.532  12.095  0.5770 -0.1634 -0.0417
  429MOL0     H59163   4.786   4.428  11.991 -1.5005  0.2638 -2.5704
  429MOL0     H59164   4.778   3.888  12.093 -1.0917  3.2869 -1.1034
  429MOL0     H59165   4.951   3.746  12.167  2.0405  0.6504 -2.2736
  429MOL0     H59166   5.351   3.783  12.335  0.4753 -1.1924  2.7332
  429MOL0     H59167   5.303   3.952  12.294  0.9813 -0.3064 -0.2705
  429MOL0     H59168   5.420   3.925  12.511  0.0221 -0.5736 -2.8154
  429MOL0     H59169   5.268   3.997  12.536 -1.0190  0.8316  1.3420
  429MOL0     H59170   5.393   3.722  12.577  0.4052  1.1530 -2.1604
  429MOL0     H59171   5.210   3.740  12.580 -1.1272  3.1632  0.1308
  429MOL0     H59172   5.194   3.875  12.752 -0.1936 -2.4175  1.4813
  429MOL0     H59173   5.364   3.922  12.761 -0.8073  1.2851  1.7044
  429MOL0     H59174   5.261   3.730  12.909  0.5133 -2.9180  0.8008
  429MOL0     H59175   5.300   3.620  12.806 -0.0311  0.2820  1.8304
  429MOL0     H59176   5.516   3.801  12.933 -1.2977  0.4060 -0.1009
  429MOL0     H59177   5.541   3.727  12.769 -1.1120  2.2692 -0.5155
  429MOL0     H59178   5.486   3.509  12.911 -1.0854 -0.0099  1.5660
  429MOL0     H59179   5.488   3.605  13.049 -1.1026 -0.1855 -1.2151
  429MOL0     H59180   5.735   3.604  12.861 -1.5298 -0.7790 -0.2625
  429MOL0     H59181   5.719   3.508  13.010  0.0859 -1.0065 -1.6729
  429MOL0     H59182   5.105   4.086  12.408  1.0331 -2.0536  1.4835
  429MOL0     H59183   4.955   4.216  12.286 -0.4332 -0.1211 -0.9942
  429MOL0     H59184   4.415   4.071  12.038  2.7717  0.0863  0.8134
  429MOL0     H59185   4.262   4.190  11.884 -1.9784  1.0003 -0.8081
  429MOL0     H59186   3.962   6.029  11.203  0.2961  0.8329 -2.8131
  429MOL0     H59187   3.828   6.101  11.018  2.1114  0.7105  0.2241
  429MOL0     H59188   3.555   6.172  10.670  3.7618 -1.0366  0.8165
  429MOL0     H59189   3.519   6.287  10.468  0.1324  1.3823 -2.0007
  429MOL0     H59190   3.608   6.461  10.279  0.7611 -0.1171 -0.5626
  429MOL0     H59191   3.429   6.452  10.319 -0.1196  0.6220  2.1934
  429MOL0     H59192   3.483   6.602  10.120  1.1784  1.4555  0.3466
  429MOL0     H59193   3.575   6.705  10.215 -0.8446  2.7208 -1.8759
  429MOL0     H59194   3.278   6.652  10.283  0.2040  0.0174  2.8205
  429MOL0     H59195   3.391   6.741  10.380  1.0930  0.9061 -0.1794
  429MOL0     H59196   3.281   6.911  10.265  0.2670  0.9183 -0.4370
  429MOL0     H59197   3.283   6.823  10.108  1.4892 -2.2512 -1.6383
  429MOL0     H59198   3.653   7.030  10.117  0.0719  0.7671  3.1750
  429MOL0     H59199   3.592   6.653  10.672  3.6359 -0.6150 -2.2105
  429MOL0     H59200   3.524   6.510  11.007  0.6606  2.9388  3.1856
  429MOL0     H59201   3.661   6.613  10.956 -0.1182  1.3773 -0.1437
  429MOL0     H59202   3.486   6.647  10.911  1.2190  1.7385  1.1136
  430MOL0     O59203   4.859   0.093   8.516  0.7681  0.5387  0.5254
  430MOL0     C59204   4.941   0.146   8.591 -0.1193 -0.0221  0.4573
  430MOL0     O59205   5.017   0.256   8.564  0.8895  0.1759 -0.3359
  430MOL0     C59206   4.994   0.320   8.440 -0.6881 -0.3840 -0.0510
  430MOL0     C59207   4.951   0.456   8.442 -0.4199  0.2416 -0.8686
  430MOL0     C59208   4.954   0.534   8.320  0.7878  0.2996 -0.3034
  430MOL0     C59209   4.991   0.472   8.200  0.0154 -1.3358  0.0347
  430MOL0     O59210   4.994   0.541   8.084 -0.5182 -0.0765  0.0334
  430MOL0     C59211   4.997   0.683   8.076 -0.2218  0.1363  0.5645
  430MOL0     C59212   4.986   0.717   7.925 -0.2842 -0.1421  0.4247
  430MOL0     C59213   5.021   0.853   7.876 -0.4988 -0.7776  0.2782
  430MOL0     C59214   5.062   0.845   7.725  0.5649 -0.2403 -0.9547
  430MOL0     C59215   5.085   0.988   7.672  0.1638  0.4391 -0.7454
  430MOL0     C59216   5.194   0.992   7.564  0.7559 -0.0840 -0.2956
  430MOL0     C59217   5.158   0.921   7.428 -0.8630  0.2980 -0.4320
  430MOL0     C59218   5.018   0.977   7.381 -0.2879 -0.8317 -0.1142
  430MOL0     N59219   5.011   0.953   7.239 -0.4602 -0.2628 -0.2429
  430MOL0     C59220   5.009   0.838   7.176  0.5941  0.7536  0.3220
  430MOL0     C59221   5.012   0.881   7.048 -0.0001 -1.1148  0.2463
  430MOL0     C59222   5.011   0.794   6.916  0.1949  0.3840 -0.0531
  430MOL0     C59223   5.153   0.740   6.895 -0.6941  0.3078  0.2040
  430MOL0     C59224   5.146   0.660   6.764  0.0562  0.6372 -0.1017
  430MOL0     C59225   5.283   0.606   6.720  0.0932  0.8293 -0.7503
  430MOL0     O59226   5.334   0.517   6.814 -0.0509 -0.5024  0.4160
  430MOL0     C59227   5.468   0.496   6.827  0.2005 -0.2728 -0.5609
  430MOL0     C59228   5.552   0.507   6.717  0.3200  0.2232 -0.8790
  430MOL0     C59229   5.689   0.484   6.727 -0.8155 -0.0301 -0.8988
  430MOL0     C59230   5.769   0.483   6.600  0.0788 -0.8320  0.4030
  430MOL0     C59231   5.742   0.450   6.851  0.4154 -0.2966  0.3635
  430MOL0     C59232   5.880   0.395   6.870  1.2881 -0.0147 -0.2486
  430MOL0     O59233   5.877   0.286   6.959  0.1566  0.6156  0.7908
  430MOL0     C59234   5.971   0.191   6.957  0.0453  0.2903  0.0502
  430MOL0     C59235   6.055   0.165   7.060  0.1161  0.6056 -0.1864
  430MOL0     C59236   6.161   0.066   7.050  0.2816  0.1426 -0.1731
  430MOL0     C59237   6.182  -0.003   6.932  0.8839 -0.0995 -0.5127
  430MOL0     O59238   6.282  -0.096   6.925 -0.2723 -0.8820 -0.1756
  430MOL0     C59239   6.330  -0.133   6.795  0.5101  0.6943 -0.4166
  430MOL0     C59240   6.458  -0.212   6.826 -0.3641 -0.2292  0.1954
  430MOL0     C59241   6.434  -0.335   6.906 -1.0655  0.3843  0.2644
  430MOL0     C59242   6.579  -0.395   6.926  0.2297 -0.7989 -0.3702
  430MOL0     C59243   6.575  -0.522   7.015  0.1595  0.6648  0.8905
  430MOL0     C59244   6.538  -0.496   7.163  0.2150  0.2501 -0.0360
  430MOL0     C59245   6.632  -0.410   7.243 -0.1641  0.1661 -0.0190
  430MOL0     C59246   6.589  -0.426   7.391 -1.1878 -0.2787  0.0719
  430MOL0    Cl59247   6.429  -0.388   7.420  0.2532  0.1204 -0.6783
  430MOL0     C59248   6.087   0.022   6.828  1.0737  0.1685  0.8590
  430MOL0     C59249   5.979   0.114   6.839  0.5992  0.4749 -0.9861
  430MOL0     O59250   5.977   0.434   6.805  0.3566  0.0985 -0.3569
  430MOL0     C59251   5.652   0.442   6.961 -0.3623 -0.4279  1.4239
  430MOL0     C59252   5.521   0.467   6.947  0.4848 -0.8534  0.8065
  430MOL0     N59253   5.027   1.018   7.042 -0.3340 -0.0924  0.3171
  430MOL0     N59254   5.010   1.066   7.162  0.1497 -0.8158 -0.0117
  430MOL0     C59255   5.021   0.334   8.202 -0.4415  0.0235  0.1557
  430MOL0     C59256   5.028   0.265   8.319 -0.3920  0.3053 -0.0880
  430MOL0     C59257   4.963   0.082   8.721 -0.7158  0.4774  0.1142
  430MOL0     C59258   5.084   0.116   8.787 -0.8073  0.0843  0.0913
  430MOL0     C59259   5.123   0.067   8.914 -0.3996 -0.5027 -0.1857
  430MOL0     C59260   5.035  -0.028   8.969  0.2071 -0.3693 -0.0249
  430MOL0     O59261   5.072  -0.092   9.087 -0.2484 -0.3507 -0.6347
  430MOL0     C59262   5.202  -0.076   9.139 -1.3109  0.2376 -0.8157
  430MOL0     C59263   5.210  -0.185   9.252 -0.9789  0.0698  0.3557
  430MOL0     C59264   5.288  -0.126   9.366 -0.6268 -0.1762 -0.6157
  430MOL0     C59265   5.316  -0.247   9.461  0.1194 -0.1318 -0.7795
  430MOL0     C59266   5.380  -0.209   9.592 -0.5705 -0.1740 -0.3917
  430MOL0     C59267   5.439  -0.171   9.691  0.0272 -0.8071 -0.3038
  430MOL0     C59268   4.917  -0.079   8.904 -0.4032  1.2251 -0.2097
  430MOL0     C59269   4.886  -0.019   8.780 -0.0351 -0.5074 -0.3476
  430MOL0     C59270   4.767  -0.082   8.715  0.1200  0.4860  0.4966
  430MOL0     H59271   4.952   0.517   8.532  4.6899 -0.6221 -0.0038
  430MOL0     H59272   4.921   0.635   8.341 -2.3495 -0.4765 -0.9472
  430MOL0     H59273   5.085   0.721   8.130 -1.8702  0.7243  3.0595
  430MOL0     H59274   4.903   0.714   8.123 -1.0124 -0.8808 -0.3162
  430MOL0     H59275   5.047   0.647   7.868 -0.6118 -0.2068  0.1436
  430MOL0     H59276   4.880   0.703   7.899 -0.4720  0.4630  0.8330
  430MOL0     H59277   4.943   0.925   7.899 -0.4942 -1.2929  2.0522
  430MOL0     H59278   5.107   0.889   7.933 -2.0624 -1.0106  2.9151
  430MOL0     H59279   5.153   0.783   7.721  1.3017  0.5494  1.4936
  430MOL0     H59280   4.980   0.790   7.679 -0.4115 -1.4633  1.9771
  430MOL0     H59281   5.120   1.054   7.752  2.9528 -0.4287 -1.1277
  430MOL0     H59282   4.984   1.023   7.652  1.1234  4.3447  0.2963
  430MOL0     H59283   5.206   1.098   7.542 -4.0838  0.9373  0.7785
  430MOL0     H59284   5.283   0.942   7.602 -0.9519 -1.3398  2.4088
  430MOL0     H59285   5.168   0.813   7.434  2.7508  0.2860 -3.3097
  430MOL0     H59286   5.226   0.942   7.345 -2.7202  1.0252 -1.8646
  430MOL0     H59287   4.935   0.936   7.438 -0.1410  0.4009  1.0383
  430MOL0     H59288   5.015   1.085   7.399 -2.4742 -1.0077  0.8590
  430MOL0     H59289   5.003   0.737   7.217 -0.3335  1.1535  1.2180
  430MOL0     H59290   4.968   0.854   6.835 -3.5521  1.1952  2.2652
  430MOL0     H59291   4.948   0.705   6.910 -0.8044  1.1456 -1.4069
  430MOL0     H59292   5.218   0.827   6.884 -0.9126  0.7297  1.9784
  430MOL0     H59293   5.192   0.690   6.984 -0.0051  2.6532  1.2944
  430MOL0     H59294   5.077   0.575   6.771  1.1463 -1.0200 -5.0236
  430MOL0     H59295   5.118   0.714   6.673  0.2956  1.4095  0.2785
  430MOL0     H59296   5.278   0.550   6.627 -1.5781  0.5055 -0.4990
  430MOL0     H59297   5.348   0.693   6.708  0.6978  0.2715 -1.5805
  430MOL0     H59298   5.514   0.534   6.619 -1.3715 -1.9634 -0.9178
  430MOL0     H59299   5.716   0.534   6.518  0.4250  0.9710  1.2422
  430MOL0     H59300   5.788   0.383   6.561  0.2619 -0.1402 -1.3878
  430MOL0     H59301   5.856   0.546   6.624  1.2691 -3.1701  2.7138
  430MOL0     H59302   6.051   0.224   7.151 -1.2012 -1.5960  1.2747
  430MOL0     H59303   6.236   0.053   7.127  2.8079 -1.9158 -2.7804
  430MOL0     H59304   6.254  -0.199   6.751  0.5763  0.2186  0.1719
  430MOL0     H59305   6.337  -0.046   6.729  0.9551  0.4378 -0.7041
  430MOL0     H59306   6.520  -0.241   6.740  3.1715  1.8242  1.8520
  430MOL0     H59307   6.513  -0.140   6.887  1.1157 -1.5695  0.4974
  430MOL0     H59308   6.372  -0.407   6.853 -0.9710  2.3286 -2.7438
  430MOL0     H59309   6.398  -0.304   7.005 -0.8776  0.1741  0.4006
  430MOL0     H59310   6.644  -0.320   6.971 -0.4681 -1.6325  2.1994
  430MOL0     H59311   6.619  -0.421   6.827  0.7632  0.4161 -0.4817
  430MOL0     H59312   6.507  -0.598   6.978  0.3411  0.3918  1.1136
  430MOL0     H59313   6.673  -0.570   7.019 -0.9180 -1.6003  2.2848
  430MOL0     H59314   6.523  -0.586   7.224 -0.0983  0.6690  0.5123
  430MOL0     H59315   6.438  -0.451   7.161 -0.4545 -1.0307 -3.5302
  430MOL0     H59316   6.614  -0.307   7.212  0.0092  0.1806 -0.0753
  430MOL0     H59317   6.731  -0.449   7.217 -0.9823 -0.3117 -2.7081
  430MOL0     H59318   6.649  -0.348   7.439 -0.9172  0.6380 -1.6682
  430MOL0     H59319   6.611  -0.524   7.436  1.8134 -0.3887 -1.3834
  430MOL0     H59320   6.098  -0.043   6.741 -0.0300  0.8648  0.1745
  430MOL0     H59321   5.928   0.114   6.743  2.0421 -2.4717 -1.8660
  430MOL0     H59322   5.688   0.416   7.060 -2.9734  0.8393  2.8001
  430MOL0     H59323   5.451   0.463   7.029  0.2139  1.3612  0.7578
  430MOL0     H59324   5.026   0.290   8.104 -2.0681 -0.2209  0.1558
  430MOL0     H59325   5.051   0.159   8.326  1.5527  0.6552 -0.5049
  430MOL0     H59326   5.153   0.184   8.740  0.8793 -1.9413 -0.5232
  430MOL0     H59327   5.215   0.096   8.963 -1.7040  1.0113  1.5362
  430MOL0     H59328   5.283  -0.098   9.068  0.5477 -0.5872  1.4433
  430MOL0     H59329   5.211   0.027   9.176 -0.6654 -0.7000  1.8572
  430MOL0     H59330   5.256  -0.278   9.219 -2.4734 -0.3728 -0.5739
  430MOL0     H59331   5.107  -0.208   9.281 -2.1199  2.0572 -1.6998
  430MOL0     H59332   5.377  -0.067   9.344 -0.6077 -0.0188 -0.1303
  430MOL0     H59333   5.230  -0.049   9.417 -0.1685  0.3663 -0.9136
  430MOL0     H59334   5.375  -0.322   9.409 -0.9240 -0.1848 -1.9434
  430MOL0     H59335   5.222  -0.295   9.489 -0.7555  2.2683  0.6498
  430MOL0     H59336   5.473  -0.121   9.779 -0.9741  0.6150 -0.6678
  430MOL0     H59337   4.853  -0.155   8.947 -1.7032  2.6906  0.5499
  430MOL0     H59338   4.681  -0.015   8.704  0.6733  1.0471 -0.6428
  430MOL0     H59339   4.798  -0.120   8.617  0.3144  1.6939  0.0680
  430MOL0     H59340   4.741  -0.177   8.763  1.2373 -1.1927 -1.9907
  431MOL0     O59341   3.095  10.386   1.730  0.0575 -0.0864 -0.4971
  431MOL0     C59342   3.153  10.485   1.700  0.6978 -0.4568  0.1297
  431MOL0     O59343   3.183  10.519   1.567  1.2765  0.9359  0.6712
  431MOL0     C59344   3.270  10.615   1.539  0.7381 -0.1362  0.0557
  431MOL0     C59345   3.229  10.745   1.551  1.4597  0.1853 -0.2487
  431MOL0     C59346   3.322  10.849   1.518 -0.0364  0.1249 -0.1653
  431MOL0     C59347   3.452  10.823   1.473  0.0896  0.6118  1.4127
  431MOL0     O59348   3.539  10.919   1.436  0.3835  0.6081 -0.3505
  431MOL0     C59349   3.511  11.059   1.465  0.6869 -0.9999  0.1682
  431MOL0     C59350   3.609  11.139   1.381  0.2757 -0.6700 -0.8596
  431MOL0     C59351   3.598  11.292   1.400  0.0332 -0.1317  0.2782
  431MOL0     C59352   3.722  11.369   1.457  0.8754 -0.5919  0.7230
  431MOL0     C59353   3.747  11.315   1.604  0.1769  0.0607 -0.5981
  431MOL0     C59354   3.663  11.376   1.719 -0.5599  0.5842  0.4072
  431MOL0     C59355   3.707  11.330   1.864  0.0740  0.0839  0.3972
  431MOL0     C59356   3.653  11.420   1.973 -0.6053  0.9260 -0.5765
  431MOL0     N59357   3.723  11.381   2.108  0.1234 -0.3450 -0.1283
  431MOL0     C59358   3.822  11.450   2.170 -1.3166 -0.5969 -0.4079
  431MOL0     C59359   3.848  11.387   2.283  0.0864  0.0997 -0.0958
  431MOL0     C59360   3.953  11.437   2.383 -0.7097 -0.7664 -0.7205
  431MOL0     C59361   4.010  11.326   2.479  0.0265  0.0588  0.6715
  431MOL0     C59362   4.108  11.235   2.395  0.3478  0.3223  1.0527
  431MOL0     C59363   4.142  11.110   2.477 -0.4195  0.6648 -0.3897
  431MOL0     O59364   4.188  11.018   2.379 -0.3870 -0.0591  0.2101
  431MOL0     C59365   4.102  10.932   2.321  1.3468  0.4041 -0.5533
  431MOL0     C59366   4.162  10.833   2.247 -0.4483  0.7524 -0.4451
  431MOL0     C59367   4.093  10.723   2.194  0.4323 -1.4208  0.5038
  431MOL0     C59368   4.172  10.621   2.125  0.5187 -0.1450  0.0157
  431MOL0     C59369   3.947  10.721   2.214  0.1572 -0.2601  1.0565
  431MOL0     C59370   3.868  10.601   2.163 -0.2056 -0.2423 -1.0969
  431MOL0     O59371   3.735  10.618   2.143 -0.3094  0.8477  0.0695
  431MOL0     C59372   3.664  10.529   2.070  0.2136  0.1386 -0.4357
  431MOL0     C59373   3.729  10.457   1.958  0.4913 -0.1854 -0.5511
  431MOL0     C59374   3.655  10.349   1.895 -0.3917 -0.6279 -0.7358
  431MOL0     C59375   3.526  10.328   1.929  0.5250 -0.5540 -0.5111
  431MOL0     O59376   3.473  10.221   1.862  0.5083  0.0440 -0.3128
  431MOL0     C59377   3.427  10.118   1.952  0.2067 -0.1549  0.2890
  431MOL0     C59378   3.416  10.002   1.857 -0.0935 -0.3920  0.7002
  431MOL0     C59379   3.533   9.961   1.770 -0.5984  0.1531 -0.1440
  431MOL0     C59380   3.500   9.883   1.644 -1.9696 -0.0107 -0.4728
  431MOL0     C59381   3.614   9.880   1.537 -0.3024 -0.4441  0.4729
  431MOL0     C59382   3.746   9.830   1.599 -0.2605  0.4920  0.0734
  431MOL0     C59383   3.869   9.812   1.509  0.4694  0.1273  0.0017
  431MOL0     C59384   4.007   9.850   1.560  0.1225  0.2255 -0.2912
  431MOL0    Cl59385   4.089   9.730   1.670 -0.2321 -0.0680  0.4311
  431MOL0     C59386   3.468  10.394   2.034 -0.0509 -1.2072  0.0630
  431MOL0     C59387   3.535  10.492   2.109  0.0678  0.7882  0.2497
  431MOL0     O59388   3.927  10.493   2.157 -0.2646  0.3090 -0.0088
  431MOL0     C59389   3.884  10.822   2.282 -0.6196  0.3099  0.0264
  431MOL0     C59390   3.959  10.927   2.337 -0.8754 -1.2169  1.2362
  431MOL0     N59391   3.764  11.274   2.298 -0.9342  0.3687  1.2644
  431MOL0     N59392   3.694  11.272   2.190 -0.4573 -0.1115  0.4889
  431MOL0     C59393   3.480  10.687   1.453  0.4230 -0.1835  1.0516
  431MOL0     C59394   3.396  10.581   1.493  0.0801 -0.2727  0.2582
  431MOL0     C59395   3.170  10.583   1.812 -0.3587 -0.5873  0.8174
  431MOL0     C59396   3.293  10.619   1.855  0.5337 -0.5062  0.1044
  431MOL0     C59397   3.302  10.693   1.971 -0.3842  0.0589  0.4105
  431MOL0     C59398   3.196  10.737   2.046 -0.2972 -0.4360 -0.2621
  431MOL0     O59399   3.222  10.809   2.157  0.4551  0.5647 -0.6107
  431MOL0     C59400   3.115  10.849   2.243 -0.1337  0.9431 -0.0444
  431MOL0     C59401   3.102  11.001   2.254 -0.2796 -0.4094  0.2563
  431MOL0     C59402   3.236  11.070   2.289 -1.0678  0.1527  0.0530
  431MOL0     C59403   3.287  11.039   2.430  0.7129 -0.2384  0.0781
  431MOL0     C59404   3.187  11.076   2.537 -0.1196 -0.3845 -0.6980
  431MOL0     C59405   3.107  11.127   2.610 -1.1335  0.4568  0.7478
  431MOL0     C59406   3.073  10.710   1.987 -0.3587 -0.4493  0.3369
  431MOL0     C59407   3.058  10.647   1.865 -0.4855  0.5850 -0.4998
  431MOL0     C59408   2.917  10.641   1.814  0.4316 -0.5653 -0.2348
  431MOL0     H59409   3.130  10.765   1.591  2.0790 -1.6517  2.4602
  431MOL0     H59410   3.290  10.953   1.521 -0.7735 -0.1183  0.5703
  431MOL0     H59411   3.522  11.094   1.568  2.7791 -0.5212 -0.1811
  431MOL0     H59412   3.408  11.073   1.432  1.1877 -0.9765 -1.4223
  431MOL0     H59413   3.713  11.106   1.391  0.4332 -0.0485 -0.2896
  431MOL0     H59414   3.588  11.125   1.275  1.3747  3.7491 -1.8462
  431MOL0     H59415   3.573  11.328   1.300 -2.5029 -0.8603  0.5919
  431MOL0     H59416   3.509  11.309   1.461  0.2029 -0.9146  0.7556
  431MOL0     H59417   3.808  11.375   1.391 -1.5643  3.3451 -2.5462
  431MOL0     H59418   3.703  11.476   1.463  1.1459 -0.5729  1.3507
  431MOL0     H59419   3.851  11.332   1.633 -0.5758  1.1534  1.7127
  431MOL0     H59420   3.734  11.207   1.593 -1.6840  0.3441 -1.6447
  431MOL0     H59421   3.696  11.481   1.718 -1.2354  0.8047 -0.7087
  431MOL0     H59422   3.554  11.361   1.714 -0.4139 -1.0299  1.5180
  431MOL0     H59423   3.816  11.342   1.871  0.0385  1.8777 -1.2823
  431MOL0     H59424   3.680  11.224   1.870  1.3222 -0.4479 -1.9465
  431MOL0     H59425   3.676  11.527   1.962  1.6042  0.3483 -2.2443
  431MOL0     H59426   3.545  11.405   1.979 -0.3421 -1.4465 -1.1313
  431MOL0     H59427   3.875  11.540   2.141 -1.3226 -0.4158  0.1276
  431MOL0     H59428   3.906  11.523   2.433  2.8379  1.8306 -1.4236
  431MOL0     H59429   4.038  11.485   2.334 -1.0436  2.7154  1.6870
  431MOL0     H59430   4.055  11.374   2.566 -1.6220 -2.3045  2.9704
  431MOL0     H59431   3.932  11.268   2.529  0.9075 -2.0683 -0.2647
  431MOL0     H59432   4.059  11.206   2.301 -1.2713 -2.5171  2.6452
  431MOL0     H59433   4.199  11.291   2.372 -0.6833  1.4951 -0.3586
  431MOL0     H59434   4.229  11.142   2.534 -0.5242  2.0652 -0.9903
  431MOL0     H59435   4.071  11.074   2.553 -2.9544  1.6471 -2.1616
  431MOL0     H59436   4.271  10.831   2.247 -0.3422 -2.4512  2.5233
  431MOL0     H59437   4.114  10.603   2.035 -3.6337  0.4997  2.3067
  431MOL0     H59438   4.194  10.533   2.187  0.7486  0.4957  0.8568
  431MOL0     H59439   4.265  10.664   2.088 -0.2424  1.0758 -0.5080
  431MOL0     H59440   3.833  10.461   1.924  1.0796 -2.8145  0.6532
  431MOL0     H59441   3.700  10.279   1.825  0.2989 -0.3835 -0.5463
  431MOL0     H59442   3.505  10.087   2.022  0.0927  1.1877  1.0374
  431MOL0     H59443   3.329  10.147   1.990 -0.0924 -1.7872  0.8116
  431MOL0     H59444   3.400   9.913   1.919 -2.5503 -2.3939 -2.4708
  431MOL0     H59445   3.321  10.010   1.803 -0.7298  1.0845  1.9696
  431MOL0     H59446   3.599   9.905   1.837  2.1892  0.7784 -2.1342
  431MOL0     H59447   3.592  10.048   1.738  0.3889  0.1981  1.6612
  431MOL0     H59448   3.410   9.929   1.602 -2.1265  1.8456  1.6712
  431MOL0     H59449   3.484   9.779   1.674  2.7129 -0.6747  0.4521
  431MOL0     H59450   3.589   9.838   1.439 -0.7307 -0.6809  0.6770
  431MOL0     H59451   3.635   9.982   1.504  3.6869 -1.2514 -0.0209
  431MOL0     H59452   3.738   9.737   1.655 -3.3105 -0.5674 -1.8640
  431MOL0     H59453   3.764   9.910   1.672 -5.4960  2.4893 -0.3552
  431MOL0     H59454   3.842   9.878   1.426 -2.2803 -2.7476 -1.5851
  431MOL0     H59455   3.869   9.713   1.463 -1.5833  0.1649 -0.1687
  431MOL0     H59456   3.991   9.948   1.605  2.8700  1.2487 -1.3446
  431MOL0     H59457   4.067   9.866   1.470  1.1382 -5.5958 -1.0342
  431MOL0     H59458   3.364  10.368   2.053 -1.5136  1.4771 -3.1896
  431MOL0     H59459   3.494  10.542   2.196  0.9298 -0.3165  1.3357
  431MOL0     H59460   3.775  10.818   2.285 -0.6092 -0.8122 -0.4357
  431MOL0     H59461   3.893  10.997   2.388  1.3751  0.5873  1.8056
  431MOL0     H59462   3.569  10.671   1.392 -1.0197 -2.5874 -0.5843
  431MOL0     H59463   3.415  10.476   1.477  2.8310  0.5058 -2.3941
  431MOL0     H59464   3.379  10.587   1.798 -1.0609  2.2895 -4.4361
  431MOL0     H59465   3.404  10.715   2.001  0.2379 -3.8760  1.8615
  431MOL0     H59466   3.011  10.819   2.228 -0.0559  0.2788  0.6834
  431MOL0     H59467   3.141  10.803   2.338 -1.9422  0.1752  0.1234
  431MOL0     H59468   3.028  11.029   2.330  1.5632  1.7398  1.3800
  431MOL0     H59469   3.077  11.040   2.155 -1.4464 -0.3870  0.5457
  431MOL0     H59470   3.316  11.036   2.223 -0.8017 -0.8032  0.8579
  431MOL0     H59471   3.228  11.178   2.269 -0.6115  0.4228  1.2423
  431MOL0     H59472   3.383  11.088   2.452  1.1273 -1.8874  2.2040
  431MOL0     H59473   3.304  10.931   2.434  1.4643 -0.0878  1.9017
  431MOL0     H59474   3.052  11.180   2.685 -1.8003  1.0376 -0.1371
  431MOL0     H59475   2.982  10.752   2.029 -0.0496 -1.5625  2.2667
  431MOL0     H59476   2.913  10.676   1.710  3.0617 -0.6821 -0.4252
  431MOL0     H59477   2.867  10.545   1.825  1.4069 -1.1601 -0.8837
  431MOL0     H59478   2.853  10.713   1.867  2.9309 -0.1400  2.4502
  432MOL0     O59479   9.705  10.509   4.866 -0.0957 -0.1787  0.1750
  432MOL0     C59480   9.828  10.486   4.898  0.7222  0.2008  0.0728
  432MOL0     O59481   9.864  10.397   4.998 -0.5145  0.4206  0.2778
  432MOL0     C59482   9.767  10.336   5.078 -0.8041 -0.3142  0.0480
  432MOL0     C59483   9.661  10.264   5.023  0.2180 -0.2616 -0.1096
  432MOL0     C59484   9.581  10.198   5.107  0.4042 -0.3401 -0.5210
  432MOL0     C59485   9.592  10.210   5.247 -0.6231  0.4404 -0.2081
  432MOL0     O59486   9.486  10.159   5.317 -0.3998 -1.0422  0.0714
  432MOL0     C59487   9.488  10.150   5.458 -0.3946  0.3529  0.7981
  432MOL0     C59488   9.379  10.054   5.494  0.9613  0.6621 -0.6558
  432MOL0     C59489   9.376  10.016   5.640 -0.8359 -0.2925  0.7576
  432MOL0     C59490   9.307  10.115   5.735  0.7518 -0.1899 -0.1111
  432MOL0     C59491   9.313  10.064   5.876 -0.3013  0.0100 -0.0602
  432MOL0     C59492   9.269  10.164   5.978  0.5073 -1.3138  0.8371
  432MOL0     C59493   9.236  10.091   6.107 -0.4667  0.0851  0.0076
  432MOL0     C59494   9.195  10.193   6.205  0.0935 -1.3485  0.4730
  432MOL0     N59495   9.059  10.240   6.177 -0.7169 -0.0619  0.3324
  432MOL0     C59496   8.949  10.163   6.177 -0.0972 -0.7124  0.6700
  432MOL0     C59497   8.846  10.254   6.167  0.6895 -0.1564 -0.2591
  432MOL0     C59498   8.692  10.208   6.145 -0.0819  0.5179 -0.4413
  432MOL0     C59499   8.633  10.155   6.275  0.6511  0.3916  0.3312
  432MOL0     C59500   8.689  10.012   6.317  0.0238  0.4887 -0.1543
  432MOL0     C59501   8.599   9.942   6.415  0.1780  0.8800  0.9606
  432MOL0     O59502   8.648   9.810   6.459 -0.1290 -0.6916 -0.3213
  432MOL0     C59503   8.579   9.754   6.569  0.2629  0.4578 -0.9897
  432MOL0     C59504   8.654   9.728   6.681  0.8222 -0.7547  0.0438
  432MOL0     C59505   8.596   9.683   6.801 -0.6585  0.5428  0.1561
  432MOL0     C59506   8.688   9.658   6.918  0.0383  0.1375  0.3558
  432MOL0     C59507   8.456   9.661   6.804  0.6009  0.1227 -0.5049
  432MOL0     C59508   8.380   9.620   6.928 -0.1558 -0.8429  0.3959
  432MOL0     O59509   8.427   9.678   7.042 -1.0727 -0.0189  0.2977
  432MOL0     C59510   8.367   9.651   7.161 -0.5618  0.2856  0.2224
  432MOL0     C59511   8.442   9.604   7.276  0.7699 -1.0849 -0.0717
  432MOL0     C59512   8.381   9.568   7.392  0.7416 -0.2355 -0.7920
  432MOL0     C59513   8.235   9.572   7.405  0.0196  0.1565 -0.1227
  432MOL0     O59514   8.166   9.524   7.520 -0.3586  0.0679 -0.4256
  432MOL0     C59515   8.214   9.555   7.654 -0.1589  0.5843 -0.9744
  432MOL0     C59516   8.103   9.585   7.746  0.8781 -0.0331  0.5225
  432MOL0     C59517   8.007   9.460   7.773  0.5294 -0.6812  0.2384
  432MOL0     C59518   7.932   9.494   7.900 -0.4371  0.7569  0.6583
  432MOL0     C59519   7.808   9.395   7.919  0.1336 -0.5107 -0.4239
  432MOL0     C59520   7.752   9.428   8.057 -0.3655  0.0080 -0.1703
  432MOL0     C59521   7.627   9.348   8.078  0.6663 -0.0273 -0.4451
  432MOL0     C59522   7.566   9.367   8.224  0.3194 -0.7555 -0.3134
  432MOL0    Cl59523   7.401   9.304   8.256  0.0314  0.2255  0.6272
  432MOL0     C59524   8.174   9.630   7.298  0.2166 -0.6308 -0.7475
  432MOL0     C59525   8.228   9.676   7.181 -0.0351  1.3434  0.5458
  432MOL0     O59526   8.279   9.560   6.909  0.1012  0.7369  0.0600
  432MOL0     C59527   8.382   9.670   6.678  0.0856  0.2499 -0.3455
  432MOL0     C59528   8.442   9.716   6.561  0.4532  0.8420  0.6667
  432MOL0     N59529   8.896  10.382   6.158  0.0339  0.2515 -0.6140
  432MOL0     N59530   9.026  10.373   6.173 -0.8847 -0.3436 -1.0490
  432MOL0     C59531   9.692  10.291   5.299  0.5841 -0.0778  0.2784
  432MOL0     C59532   9.789  10.339   5.214 -0.0735  0.4569  1.1993
  432MOL0     C59533   9.936  10.537   4.806 -0.6690  0.3062 -0.7385
  432MOL0     C59534   9.904  10.618   4.689  0.2502  0.6865  0.3245
  432MOL0     C59535  10.003  10.673   4.601  0.9759 -0.0695 -0.3221
  432MOL0     C59536  10.138  10.642   4.628  0.9158 -0.3806 -0.3313
  432MOL0     O59537  10.233  10.691   4.547  0.3459 -0.9285  0.7775
  432MOL0     C59538  10.362  10.623   4.548 -0.6140 -0.0789 -0.2922
  432MOL0     C59539  10.457  10.685   4.434  0.3678  0.9512 -0.0058
  432MOL0     C59540  10.401  10.679   4.295  0.5459  0.2103 -0.0747
  432MOL0     C59541  10.517  10.727   4.201 -0.3704 -0.1608 -0.2976
  432MOL0     C59542  10.472  10.785   4.072  0.1252 -0.7313 -0.8693
  432MOL0     C59543  10.433  10.831   3.967 -0.1845  0.0705 -0.9963
  432MOL0     C59544  10.168  10.553   4.735  0.6187 -0.2279  0.1613
  432MOL0     C59545  10.075  10.508   4.829 -0.4357 -0.8672 -0.6828
  432MOL0     C59546  10.122  10.415   4.934 -0.5753  0.4927 -0.7139
  432MOL0     H59547   9.648  10.254   4.916 -1.0425 -1.0917  0.1049
  432MOL0     H59548   9.498  10.145   5.063  1.1923 -1.6184 -0.5121
  432MOL0     H59549   9.489  10.253   5.496 -1.7203 -0.2140  2.4943
  432MOL0     H59550   9.581  10.102   5.489  0.1785  0.2204 -1.0019
  432MOL0     H59551   9.288  10.102   5.460 -0.2893 -1.4713 -0.5132
  432MOL0     H59552   9.401   9.967   5.431  1.0167  0.0000  0.2509
  432MOL0     H59553   9.316   9.925   5.628 -1.3843  0.2780 -1.3225
  432MOL0     H59554   9.475   9.984   5.673 -0.1685 -1.2133 -1.8639
  432MOL0     H59555   9.364  10.207   5.721  1.0308 -0.6908 -2.7841
  432MOL0     H59556   9.202  10.130   5.706  0.0107 -0.5347  2.1696
  432MOL0     H59557   9.416  10.042   5.903  0.0966  1.2535 -0.4970
  432MOL0     H59558   9.257   9.970   5.884  1.7280 -1.1752  0.8812
  432MOL0     H59559   9.357  10.225   6.000  1.6618 -1.9086 -1.7383
  432MOL0     H59560   9.182  10.221   5.945  0.5101  1.2156  4.6140
  432MOL0     H59561   9.328  10.040   6.137  0.4282 -0.6527 -3.5561
  432MOL0     H59562   9.149  10.025   6.095  1.4975 -3.2918  2.5850
  432MOL0     H59563   9.193  10.151   6.307 -4.0607 -1.9590  0.3005
  432MOL0     H59564   9.262  10.279   6.199  0.0694 -1.3103  0.7364
  432MOL0     H59565   8.952  10.055   6.167  1.2153 -0.5965 -0.3711
  432MOL0     H59566   8.680  10.138   6.062 -1.1896  0.8212 -0.5510
  432MOL0     H59567   8.640  10.298   6.111  2.4350  2.8919  1.5313
  432MOL0     H59568   8.645  10.231   6.353 -0.5962  2.8157 -1.7176
  432MOL0     H59569   8.526  10.139   6.260  0.6706  1.4937 -1.1805
  432MOL0     H59570   8.702   9.957   6.224 -1.7938 -0.9607  0.3848
  432MOL0     H59571   8.787  10.016   6.365  0.2468  0.3020 -0.5980
  432MOL0     H59572   8.573  10.011   6.496  0.6616  1.2386  0.8150
  432MOL0     H59573   8.511   9.919   6.355 -0.4666  0.8277  1.9010
  432MOL0     H59574   8.759   9.753   6.672  0.4615  0.7853 -0.2345
  432MOL0     H59575   8.674   9.562   6.970  1.1715 -0.6395 -0.7048
  432MOL0     H59576   8.678   9.737   6.993 -0.2830 -0.0103  0.4726
  432MOL0     H59577   8.790   9.656   6.878  1.1488  0.2063  2.9473
  432MOL0     H59578   8.550   9.611   7.266  0.5205 -0.2123 -3.6250
  432MOL0     H59579   8.443   9.511   7.460 -0.1287 -0.1849  0.0658
  432MOL0     H59580   8.277   9.477   7.699 -0.1264  0.6708 -0.8706
  432MOL0     H59581   8.272   9.648   7.654 -1.0450  1.1927  1.2429
  432MOL0     H59582   8.151   9.622   7.837 -2.1423  1.5833  1.6229
  432MOL0     H59583   8.041   9.668   7.710  1.5501  0.8984  1.4535
  432MOL0     H59584   8.069   9.371   7.784 -2.2602 -2.5986  1.6011
  432MOL0     H59585   7.941   9.430   7.690 -1.7743  3.4109  0.3172
  432MOL0     H59586   7.899   9.598   7.890 -3.3369 -0.1532 -0.2470
  432MOL0     H59587   8.000   9.495   7.986  0.0112 -0.4940  0.3477
  432MOL0     H59588   7.731   9.402   7.841 -2.1288  0.0051  1.6980
  432MOL0     H59589   7.850   9.295   7.930  0.0822 -0.2641  2.9626
  432MOL0     H59590   7.718   9.532   8.062 -3.6172 -0.9545  4.1936
  432MOL0     H59591   7.828   9.414   8.135 -1.0981  0.4578  0.6426
  432MOL0     H59592   7.651   9.242   8.067  1.5243  0.2853 -1.6743
  432MOL0     H59593   7.555   9.371   7.999  1.9600  0.5174 -1.4846
  432MOL0     H59594   7.577   9.475   8.236  1.7323 -0.6707 -1.9451
  432MOL0     H59595   7.625   9.324   8.306 -1.6843  0.5929  1.9716
  432MOL0     H59596   8.070   9.658   7.312  0.9606  2.2650 -0.4719
  432MOL0     H59597   8.175   9.721   7.098 -0.5780  1.3832  0.9121
  432MOL0     H59598   8.285   9.624   6.695  1.0711 -1.1194  2.0562
  432MOL0     H59599   8.377   9.716   6.474  0.9849 -1.2550  0.2057
  432MOL0     H59600   9.698  10.316   5.404 -0.3961 -3.8350  1.3851
  432MOL0     H59601   9.861  10.399   5.270  1.1680 -0.6190  0.8046
  432MOL0     H59602   9.804  10.651   4.662  0.5574 -0.2602 -2.2272
  432MOL0     H59603   9.960  10.740   4.528 -0.5353  0.2109  0.7760
  432MOL0     H59604  10.422  10.646   4.637 -1.0793 -2.1910  0.6418
  432MOL0     H59605  10.339  10.517   4.532 -1.8873  0.2478 -0.7518
  432MOL0     H59606  10.552  10.630   4.434  0.7076  1.5377 -0.4468
  432MOL0     H59607  10.476  10.791   4.451 -0.3145  1.4454 -2.0376
  432MOL0     H59608  10.383  10.573   4.276 -2.7232  0.2677  1.8087
  432MOL0     H59609  10.314  10.744   4.278  0.5813 -0.0953 -1.5146
  432MOL0     H59610  10.580  10.642   4.177  0.0299 -0.8843  2.9163
  432MOL0     H59611  10.582  10.800   4.250  2.6080 -2.6292 -0.3559
  432MOL0     H59612  10.400  10.875   3.875 -0.8214 -0.1672 -0.8882
  432MOL0     H59613  10.273  10.531   4.753  0.1128 -4.1247 -0.7066
  432MOL0     H59614  10.085  10.316   4.907  1.5593 -0.5565 -0.0363
  432MOL0     H59615  10.231  10.407   4.924 -0.0634  3.2210  1.4038
  432MOL0     H59616  10.104  10.436   5.039  2.4944 -0.6979  0.1564
  433MOL0     O59617   0.775   5.303  10.678  0.0629  0.3159 -0.0217
  433MOL0     C59618   0.846   5.366  10.610 -0.0776  1.2005 -0.5773
  433MOL0     O59619   0.815   5.485  10.552  0.6370  0.2328  0.4391
  433MOL0     C59620   0.688   5.532  10.582 -0.1511 -0.6129  0.0446
  433MOL0     C59621   0.572   5.482  10.518 -0.4641  1.1013  0.0883
  433MOL0     C59622   0.447   5.544  10.554 -1.2436 -0.5221  0.0415
  433MOL0     C59623   0.454   5.654  10.635  0.6964  0.4425 -0.9893
  433MOL0     O59624   0.352   5.736  10.671 -0.3747 -0.4254  0.1667
  433MOL0     C59625   0.215   5.684  10.680 -0.2080 -0.2074 -0.1868
  433MOL0     C59626   0.121   5.780  10.616 -0.4225  0.5235 -1.1303
  433MOL0     C59627  -0.018   5.726  10.630  0.2317  0.6377 -0.2726
  433MOL0     C59628  -0.135   5.826  10.612 -0.5484  0.4661  0.4656
  433MOL0     C59629  -0.274   5.760  10.646  0.0168  0.8506 -0.2992
  433MOL0     C59630  -0.297   5.627  10.570  0.2605 -0.1686 -0.1134
  433MOL0     C59631  -0.429   5.551  10.608  0.5642  0.9687  0.2548
  433MOL0     C59632  -0.446   5.414  10.540  0.1999  0.3117 -0.3405
  433MOL0     N59633  -0.549   5.329  10.620 -0.5306  0.1054  1.1066
  433MOL0     C59634  -0.677   5.335  10.594  1.2403  0.3349 -0.2401
  433MOL0     C59635  -0.733   5.246  10.688 -0.3113  0.2746  0.6947
  433MOL0     C59636  -0.877   5.227  10.717  0.5558  0.3497 -0.6272
  433MOL0     C59637  -0.918   5.080  10.771  0.1229 -0.4434  0.0425
  433MOL0     C59638  -0.891   5.061  10.920  0.1027 -0.3644 -0.7578
  433MOL0     C59639  -1.005   4.989  10.994 -0.2621  0.4113 -0.6936
  433MOL0     O59640  -1.000   4.852  10.973 -0.5437 -0.1420 -0.2019
  433MOL0     C59641  -1.119   4.782  10.980 -0.7848  0.1695 -0.0912
  433MOL0     C59642  -1.215   4.766  10.877 -0.3032  0.0569 -0.4290
  433MOL0     C59643  -1.328   4.684  10.885  0.5494 -0.3600 -0.3227
  433MOL0     C59644  -1.423   4.691  10.767 -0.0922  0.4655 -0.0309
  433MOL0     C59645  -1.346   4.600  10.993 -0.1992 -0.2343  0.5537
  433MOL0     C59646  -1.456   4.505  11.018  0.3173  0.4264  0.2082
  433MOL0     O59647  -1.568   4.504  10.939  0.0442 -0.3460 -0.7029
  433MOL0     C59648  -1.655   4.412  10.968 -0.2740  0.9956  0.3841
  433MOL0     C59649  -1.711   4.396  11.091 -0.0295  0.4303 -0.1459
  433MOL0     C59650  -1.814   4.309  11.116 -0.9652 -0.3918  0.2064
  433MOL0     C59651  -1.870   4.232  11.008 -0.4636  0.2300  0.4157
  433MOL0     O59652  -1.969   4.147  11.040  0.0006 -0.6288 -0.0702
  433MOL0     C59653  -2.048   4.093  10.934 -0.3354 -0.4732 -0.1727
  433MOL0     C59654  -2.147   3.993  11.006 -1.5848 -0.6572  0.7956
  433MOL0     C59655  -2.227   3.907  10.908  0.7571  0.3385 -0.4875
  433MOL0     C59656  -2.301   3.791  10.981  1.2716  0.2743  0.5030
  433MOL0     C59657  -2.382   3.709  10.877  0.4473  0.9409 -1.0047
  433MOL0     C59658  -2.448   3.581  10.932 -0.7376  0.2969 -0.8962
  433MOL0     C59659  -2.544   3.517  10.833 -0.0245  0.4513 -0.1318
  433MOL0     C59660  -2.629   3.411  10.896 -0.7147  0.0732 -0.1657
  433MOL0    Cl59661  -2.755   3.345  10.786  0.0459 -0.0422 -0.4115
  433MOL0     C59662  -1.809   4.242  10.883 -0.6920 -0.3586  0.1469
  433MOL0     C59663  -1.710   4.334  10.863 -0.3776  0.0455 -0.3207
  433MOL0     O59664  -1.435   4.431  11.116  0.3277 -0.0236  0.4426
  433MOL0     C59665  -1.248   4.614  11.099 -0.1613 -1.1849  0.3531
  433MOL0     C59666  -1.136   4.701  11.088  0.4606 -0.1984 -0.0946
  433MOL0     N59667  -0.626   5.202  10.771  0.1591  0.3995 -0.8518
  433MOL0     N59668  -0.511   5.263  10.731  0.7784  0.7494 -0.5848
  433MOL0     C59669   0.569   5.700  10.693 -0.6236 -0.1485 -0.0505
  433MOL0     C59670   0.682   5.638  10.671 -1.3276 -0.1282  0.4780
  433MOL0     C59671   0.978   5.300  10.578  0.3997  0.2802  0.3074
  433MOL0     C59672   1.005   5.292  10.441  0.7960 -0.2960 -0.1469
  433MOL0     C59673   1.127   5.233  10.401 -0.5493  0.7031 -0.5842
  433MOL0     C59674   1.228   5.187  10.493  0.1708 -0.4671 -0.9423
  433MOL0     O59675   1.340   5.145  10.434 -0.0739  0.0375  0.1024
  433MOL0     C59676   1.425   5.068  10.522 -0.0136 -0.0972 -0.5881
  433MOL0     C59677   1.540   5.015  10.440 -0.2994  0.0683  0.2420
  433MOL0     C59678   1.519   4.885  10.353 -0.0695  0.7506  0.2599
  433MOL0     C59679   1.513   4.920  10.198 -0.9008 -0.5543 -0.7201
  433MOL0     C59680   1.637   4.986  10.162  0.5263 -0.1144  0.3149
  433MOL0     C59681   1.736   5.046  10.126 -1.1690  0.7016 -1.1907
  433MOL0     C59682   1.195   5.198  10.638  0.3648  0.5857 -0.0868
  433MOL0     C59683   1.062   5.242  10.676  0.1119  0.1821  0.3279
  433MOL0     C59684   1.040   5.254  10.829 -0.5825 -0.7156  0.3989
  433MOL0     H59685   0.572   5.401  10.446  1.3054 -0.9679  2.2175
  433MOL0     H59686   0.364   5.496  10.504 -0.2495 -0.1991 -2.0513
  433MOL0     H59687   0.183   5.671  10.784  2.2714 -1.0070  0.5488
  433MOL0     H59688   0.211   5.591  10.623 -0.1786 -0.2480 -0.1224
  433MOL0     H59689   0.127   5.872  10.674 -4.7929 -0.4254  1.2012
  433MOL0     H59690   0.146   5.811  10.514 -2.0095  3.0307 -0.8351
  433MOL0     H59691  -0.025   5.662  10.541  2.0246 -0.3465  0.2492
  433MOL0     H59692  -0.022   5.654  10.712  1.6192  1.9922  1.0565
  433MOL0     H59693  -0.117   5.913  10.677 -4.2108  1.1249  0.8455
  433MOL0     H59694  -0.137   5.867  10.511  0.3315  2.9679  1.3802
  433MOL0     H59695  -0.362   5.822  10.629 -1.1243 -0.3846  0.8284
  433MOL0     H59696  -0.256   5.753  10.753  0.5214  2.4392 -0.2590
  433MOL0     H59697  -0.299   5.625  10.460  3.2812 -2.6654 -0.2757
  433MOL0     H59698  -0.221   5.552  10.592  1.7278  1.2003 -0.3408
  433MOL0     H59699  -0.515   5.616  10.593  1.6102  2.0802 -1.2538
  433MOL0     H59700  -0.423   5.533  10.716 -3.6735  1.4008  0.7094
  433MOL0     H59701  -0.488   5.435  10.442 -0.0711 -2.0257 -0.7769
  433MOL0     H59702  -0.345   5.372  10.541  0.5299  0.9634 -2.1084
  433MOL0     H59703  -0.739   5.395  10.529  1.1609 -0.0138 -0.4875
  433MOL0     H59704  -0.930   5.245  10.622 -2.4916  1.6069  1.1457
  433MOL0     H59705  -0.917   5.301  10.787 -0.4478 -2.0842  1.5137
  433MOL0     H59706  -1.025   5.080  10.749  0.3875  0.1810 -1.3567
  433MOL0     H59707  -0.860   5.003  10.720 -2.8075 -2.3539 -0.5926
  433MOL0     H59708  -0.796   5.008  10.934  0.5226  0.8030  1.2271
  433MOL0     H59709  -0.877   5.161  10.962  0.7515 -1.8788  3.0912
  433MOL0     H59710  -1.013   5.009  11.101  0.2341  2.1182 -0.9404
  433MOL0     H59711  -1.097   5.018  10.941  0.5928 -1.1842 -3.2324
  433MOL0     H59712  -1.194   4.830  10.792  0.1922  0.5953  0.0932
  433MOL0     H59713  -1.394   4.778  10.707 -0.5461  1.6308  1.3841
  433MOL0     H59714  -1.526   4.707  10.802 -0.1021 -3.2146  2.1594
  433MOL0     H59715  -1.416   4.602  10.703  0.5272  0.2999  0.2652
  433MOL0     H59716  -1.676   4.454  11.176  1.8651  0.4965 -0.9337
  433MOL0     H59717  -1.859   4.312  11.215  3.3265 -0.2975  2.3547
  433MOL0     H59718  -2.107   4.173  10.889  0.4422  0.6787  0.7876
  433MOL0     H59719  -1.989   4.035  10.861 -1.3943 -1.2046 -0.4685
  433MOL0     H59720  -2.089   3.916  11.058  0.0065 -1.7280 -2.3234
  433MOL0     H59721  -2.212   4.049  11.074  0.1492 -0.3594  2.2708
  433MOL0     H59722  -2.164   3.854  10.837 -1.0473 -0.3668 -1.6044
  433MOL0     H59723  -2.299   3.968  10.854  0.1358  0.9154  0.9253
  433MOL0     H59724  -2.372   3.826  11.057 -0.5061 -1.2910 -0.3637
  433MOL0     H59725  -2.225   3.727  11.028  0.8511  0.0656  0.9058
  433MOL0     H59726  -2.451   3.781  10.831  1.3911 -0.7210 -5.4798
  433MOL0     H59727  -2.321   3.676  10.793 -1.7279 -1.0381 -1.9290
  433MOL0     H59728  -2.502   3.615  11.021 -0.4160 -2.4125  0.4148
  433MOL0     H59729  -2.365   3.515  10.959 -1.2181 -0.0322 -0.1962
  433MOL0     H59730  -2.476   3.478  10.756  1.1108  0.9522  0.5895
  433MOL0     H59731  -2.605   3.597  10.790  1.1822  1.3038 -0.3220
  433MOL0     H59732  -2.682   3.453  10.982 -1.2606 -1.8888  0.5223
  433MOL0     H59733  -2.565   3.331  10.934 -1.6684  0.5415  2.7694
  433MOL0     H59734  -1.842   4.186  10.796 -1.0274  0.0334  0.0182
  433MOL0     H59735  -1.667   4.344  10.764  0.6297 -2.9026 -0.2787
  433MOL0     H59736  -1.248   4.550  11.187 -0.5201  0.0378  1.2885
  433MOL0     H59737  -1.062   4.700  11.168 -0.4248 -1.4507  0.7413
  433MOL0     H59738   0.565   5.779  10.767 -4.3290 -0.4716  0.2704
  433MOL0     H59739   0.771   5.681  10.715 -2.3094  1.5197  0.9682
  433MOL0     H59740   0.936   5.342  10.374 -1.0977 -2.7018 -0.1517
  433MOL0     H59741   1.152   5.222  10.296  1.7004 -0.6080  0.0141
  433MOL0     H59742   1.452   5.128  10.609 -0.9228 -1.8812  0.9822
  433MOL0     H59743   1.363   4.986  10.560 -0.7665  0.2435 -1.0560
  433MOL0     H59744   1.604   4.983  10.522 -2.3317  1.0894  2.3513
  433MOL0     H59745   1.594   5.098  10.394 -1.2851 -0.5360 -2.1577
  433MOL0     H59746   1.603   4.817  10.366  1.2489  2.3554  0.5014
  433MOL0     H59747   1.432   4.836  10.398  0.9630 -2.3524 -0.8706
  433MOL0     H59748   1.421   4.971  10.169 -1.1721 -1.3016 -1.1979
  433MOL0     H59749   1.505   4.825  10.144 -3.5928 -0.8397 -0.0124
  433MOL0     H59750   1.822   5.099  10.091 -2.2244  3.9243  0.6774
  433MOL0     H59751   1.274   5.182  10.711 -1.1604 -3.1520  1.0346
  433MOL0     H59752   1.030   5.360  10.851  0.7962 -0.6614  0.8731
  433MOL0     H59753   0.966   5.188  10.876  0.5316 -0.5897  2.4804
  433MOL0     H59754   1.134   5.235  10.883 -0.4804  1.1460  0.9273
  434MOL0     O59755  11.351   8.160   7.469 -0.0760 -0.2845  0.6364
  434MOL0     C59756  11.343   8.249   7.551  0.2555 -0.4446 -0.2155
  434MOL0     O59757  11.403   8.257   7.672 -0.2676 -0.4751 -0.0328
  434MOL0     C59758  11.516   8.182   7.711 -0.0891  0.0004  0.1807
  434MOL0     C59759  11.594   8.106   7.628 -0.6180  0.2146 -0.5611
  434MOL0     C59760  11.694   8.019   7.681  0.1042  0.3768  0.3364
  434MOL0     C59761  11.723   8.021   7.812 -0.3999 -0.2704  0.6188
  434MOL0     O59762  11.821   7.936   7.848 -0.2044 -0.1333 -0.8997
  434MOL0     C59763  11.865   7.923   7.986  1.0720  0.1860  0.1298
  434MOL0     C59764  11.841   7.780   8.042 -0.3028 -0.2546  0.2490
  434MOL0     C59765  11.705   7.740   8.103  0.0300  0.1859  0.0795
  434MOL0     C59766  11.651   7.848   8.191  0.0526 -0.0481  0.5389
  434MOL0     C59767  11.562   7.777   8.301 -0.4023 -0.2923 -0.9506
  434MOL0     C59768  11.438   7.695   8.249  0.0656  0.5437 -0.5570
  434MOL0     C59769  11.361   7.649   8.377 -0.0522 -0.0941 -0.0871
  434MOL0     C59770  11.214   7.607   8.332 -0.3024 -0.1235  0.0841
  434MOL0     N59771  11.136   7.552   8.441 -0.0262  0.7307  0.3546
  434MOL0     C59772  11.171   7.566   8.571  0.0322  0.7721 -0.0568
  434MOL0     C59773  11.056   7.530   8.642  1.1469 -0.2877 -0.0521
  434MOL0     C59774  11.040   7.542   8.789  0.3455 -0.1449  0.4656
  434MOL0     C59775  11.129   7.438   8.876 -0.4049 -0.0098  0.5593
  434MOL0     C59776  11.090   7.292   8.859 -0.9667  0.5961 -0.5715
  434MOL0     C59777  10.949   7.255   8.901  0.5645 -0.6424  0.5831
  434MOL0     O59778  10.921   7.299   9.039 -0.5139  0.5637 -0.2441
  434MOL0     C59779  10.791   7.279   9.072 -0.3564 -0.4703 -0.1236
  434MOL0     C59780  10.710   7.389   9.066 -0.4921 -0.7942  0.1948
  434MOL0     C59781  10.578   7.386   9.106  0.2572  0.1811  1.0954
  434MOL0     C59782  10.500   7.519   9.125  0.7572  0.1823  0.6772
  434MOL0     C59783  10.523   7.266   9.147  0.1431  0.9572  0.1490
  434MOL0     C59784  10.383   7.247   9.181  0.1885 -0.0249  0.1138
  434MOL0     O59785  10.358   7.176   9.300 -0.1737  0.2866 -0.6019
  434MOL0     C59786  10.230   7.169   9.358  0.1542 -0.5257  0.4960
  434MOL0     C59787  10.139   7.276   9.354  1.1014 -0.1273  0.3065
  434MOL0     C59788  10.007   7.264   9.395 -0.1053  0.1270  0.3219
  434MOL0     C59789   9.963   7.139   9.454 -0.1299  0.0002  0.9630
  434MOL0     O59790   9.840   7.108   9.504  0.1830  0.7480 -1.4370
  434MOL0     C59791   9.733   7.204   9.496 -0.8769 -1.0303  0.4539
  434MOL0     C59792   9.623   7.132   9.570 -0.3751  0.3082  1.4078
  434MOL0     C59793   9.492   7.208   9.562 -0.2238  0.1965 -0.3854
  434MOL0     C59794   9.430   7.222   9.435 -0.8544 -0.4304 -0.2244
  434MOL0     C59795   9.284   7.283   9.439 -0.9090  0.4837 -0.3496
  434MOL0     C59796   9.277   7.439   9.460  0.4700  0.2642 -0.3306
  434MOL0     C59797   9.336   7.512   9.336 -0.0927 -0.0258 -0.9172
  434MOL0     C59798   9.285   7.655   9.329 -0.7690  0.5689  0.9297
  434MOL0    Cl59799   9.112   7.672   9.290  0.1621 -0.2143  0.3113
  434MOL0     C59800  10.051   7.039   9.458  0.3678  0.5625  0.2177
  434MOL0     C59801  10.188   7.048   9.413  0.3121  0.2245 -0.5508
  434MOL0     O59802  10.293   7.309   9.115  0.4428  0.1347 -0.3582
  434MOL0     C59803  10.607   7.149   9.158  0.2675  0.0112  0.3048
  434MOL0     C59804  10.740   7.160   9.120  0.0191  0.5871  0.4590
  434MOL0     N59805  10.963   7.485   8.553 -0.2781  1.4324  1.0868
  434MOL0     N59806  11.013   7.506   8.432  0.7592 -0.3158  0.9666
  434MOL0     C59807  11.635   8.097   7.899 -0.9173 -0.2953  0.0378
  434MOL0     C59808  11.531   8.175   7.846 -0.2347  0.3205 -0.5843
  434MOL0     C59809  11.245   8.359   7.519 -0.5738  0.3832 -0.5968
  434MOL0     C59810  11.284   8.472   7.452 -0.0302 -0.0646  0.2194
  434MOL0     C59811  11.191   8.569   7.407  0.2270 -0.1089  0.6426
  434MOL0     C59812  11.054   8.545   7.422  0.8846  0.8758 -0.8539
  434MOL0     O59813  10.953   8.616   7.359  0.9600  0.8916  0.2513
  434MOL0     C59814  10.987   8.756   7.350  0.0065 -0.2003  0.2046
  434MOL0     C59815  10.866   8.846   7.320  0.3046 -0.6925  0.6305
  434MOL0     C59816  10.802   8.808   7.178  0.4225 -0.8240 -0.6562
  434MOL0     C59817  10.741   8.924   7.100  0.3835 -0.0701  0.0468
  434MOL0     C59818  10.613   8.963   7.161  0.1500 -0.9903  0.1761
  434MOL0     C59819  10.508   8.990   7.222 -0.1185  0.2715 -0.1676
  434MOL0     C59820  11.021   8.431   7.496 -0.1188  0.7149  0.2852
  434MOL0     C59821  11.112   8.341   7.557 -0.8174 -0.0501  0.6125
  434MOL0     C59822  11.059   8.232   7.647  0.3457  0.9037 -0.9224
  434MOL0     H59823  11.578   8.108   7.521 -1.5181  1.8898 -0.4304
  434MOL0     H59824  11.751   7.967   7.604  0.7987  0.9798  0.4270
  434MOL0     H59825  11.802   7.988   8.048 -3.6496 -0.5254 -3.3698
  434MOL0     H59826  11.972   7.944   7.999  1.1611 -0.5067  0.5875
  434MOL0     H59827  11.874   7.704   7.970 -0.7740  0.4422 -0.7351
  434MOL0     H59828  11.904   7.763   8.129 -3.3930  3.0393  3.4642
  434MOL0     H59829  11.642   7.699   8.024 -1.5984 -2.6165  2.6580
  434MOL0     H59830  11.722   7.657   8.172 -0.8432  0.6384  0.8616
  434MOL0     H59831  11.728   7.905   8.243 -0.2872  0.2927  0.6730
  434MOL0     H59832  11.590   7.917   8.132 -0.8692  0.4023  1.9743
  434MOL0     H59833  11.534   7.854   8.373 -0.7836 -0.8642 -0.4825
  434MOL0     H59834  11.628   7.710   8.356  1.9693  0.2788 -2.9308
  434MOL0     H59835  11.370   7.742   8.178 -0.3425  3.8767  1.8046
  434MOL0     H59836  11.474   7.606   8.197  0.8804  1.4795 -1.6217
  434MOL0     H59837  11.357   7.735   8.445  1.5414 -1.1306  1.3758
  434MOL0     H59838  11.407   7.568   8.434 -2.7881 -0.9748  1.0288
  434MOL0     H59839  11.152   7.678   8.277 -1.6933 -0.4693  1.1330
  434MOL0     H59840  11.220   7.526   8.260  0.2812  0.1318 -0.1616
  434MOL0     H59841  11.262   7.606   8.615  0.7648  2.5950 -2.9741
  434MOL0     H59842  10.936   7.517   8.810  0.9773  0.0012  4.6380
  434MOL0     H59843  11.058   7.644   8.824  0.6069  1.0234 -2.7309
  434MOL0     H59844  11.235   7.457   8.860 -0.3090  1.0518  2.1536
  434MOL0     H59845  11.105   7.471   8.978 -0.7954  2.1640 -0.1673
  434MOL0     H59846  11.102   7.249   8.760  1.7219 -0.7020  0.2157
  434MOL0     H59847  11.156   7.228   8.919 -0.3684  0.8906 -0.8995
  434MOL0     H59848  10.882   7.304   8.830  0.4588 -1.7004 -0.0715
  434MOL0     H59849  10.931   7.147   8.891 -0.9004 -0.2792 -1.2647
  434MOL0     H59850  10.760   7.482   9.041  2.1865 -2.3122 -0.3744
  434MOL0     H59851  10.565   7.607   9.137  0.6777  0.4358 -0.5848
  434MOL0     H59852  10.442   7.506   9.217  0.9411 -2.3784  0.4862
  434MOL0     H59853  10.432   7.537   9.041 -0.1551 -0.4655  1.2590
  434MOL0     H59854  10.175   7.374   9.323 -0.6920  0.1271 -1.1626
  434MOL0     H59855   9.951   7.355   9.375  1.7891  1.7366  1.9800
  434MOL0     H59856   9.743   7.301   9.545 -1.1442 -0.5214 -0.4832
  434MOL0     H59857   9.710   7.226   9.391  3.4233 -0.4989 -0.5608
  434MOL0     H59858   9.609   7.035   9.521 -0.1935  1.4462 -1.0202
  434MOL0     H59859   9.659   7.126   9.674  1.4260 -3.5451  0.7681
  434MOL0     H59860   9.504   7.311   9.594  1.2804  0.6524 -2.2250
  434MOL0     H59861   9.425   7.164   9.637 -0.0236  0.1070 -0.2605
  434MOL0     H59862   9.420   7.121   9.395  0.4823 -1.1881  1.2631
  434MOL0     H59863   9.490   7.281   9.365  0.6763 -1.7009 -0.0308
  434MOL0     H59864   9.243   7.262   9.340  2.1330  0.3205 -1.6828
  434MOL0     H59865   9.228   7.227   9.515 -0.2633  0.5930  0.2207
  434MOL0     H59866   9.330   7.463   9.553 -1.8196  1.1635  0.8163
  434MOL0     H59867   9.172   7.458   9.486  0.3825 -0.5053 -0.0765
  434MOL0     H59868   9.326   7.460   9.240  0.6863  2.3378 -2.3591
  434MOL0     H59869   9.445   7.512   9.349  0.3462  1.7140 -3.6260
  434MOL0     H59870   9.350   7.709   9.260 -0.1810  0.0284  1.0530
  434MOL0     H59871   9.305   7.712   9.420 -0.3543  0.5096  0.8797
  434MOL0     H59872  10.017   6.943   9.494  2.3481 -0.5829 -0.8674
  434MOL0     H59873  10.255   6.963   9.417 -3.0763 -2.6170  1.3752
  434MOL0     H59874  10.569   7.049   9.179 -1.0723  0.1394 -1.2999
  434MOL0     H59875  10.796   7.067   9.122 -0.4543  0.2820 -0.2839
  434MOL0     H59876  11.658   8.110   8.004  1.3187 -0.1415 -0.4263
  434MOL0     H59877  11.453   8.217   7.910 -1.2249  1.8653 -2.7018
  434MOL0     H59878  11.383   8.489   7.410  0.5773 -1.5638  0.9596
  434MOL0     H59879  11.232   8.652   7.350 -0.2493  0.6419  1.3524
  434MOL0     H59880  11.046   8.795   7.434 -0.6879  2.0912 -0.3070
  434MOL0     H59881  11.052   8.760   7.262  1.1019  0.6936  1.0175
  434MOL0     H59882  10.911   8.946   7.318 -2.3624  0.5684  0.1478
  434MOL0     H59883  10.802   8.828   7.406 -1.7247  3.1685  0.1638
  434MOL0     H59884  10.892   8.777   7.124  3.1829 -1.1146  3.5507
  434MOL0     H59885  10.733   8.724   7.188  1.8649 -1.9804  0.1080
  434MOL0     H59886  10.726   8.884   6.999 -1.1218 -3.6806  1.5022
  434MOL0     H59887  10.801   9.015   7.104 -0.0265  0.2317 -0.5448
  434MOL0     H59888  10.411   9.011   7.263  0.5884  0.9496  1.2341
  434MOL0     H59889  10.915   8.412   7.510  0.0109 -0.6359 -0.4382
  434MOL0     H59890  11.050   8.134   7.599 -2.4173  0.4352  0.3618
  434MOL0     H59891  11.113   8.226   7.742 -1.9421 -4.1989  0.3808
  434MOL0     H59892  10.955   8.253   7.674 -0.1273 -2.6321  0.6345
  435MOL0     O59893   3.144   8.472   9.308 -0.5424  0.6303  0.1752
  435MOL0     C59894   3.191   8.488   9.197 -1.0204 -0.2559  0.2064
  435MOL0     O59895   3.313   8.544   9.167 -0.5909  0.2899 -0.2003
  435MOL0     C59896   3.394   8.571   9.276 -0.6330 -1.2828 -0.1133
  435MOL0     C59897   3.421   8.708   9.297  0.4506 -0.1748  0.4218
  435MOL0     C59898   3.479   8.756   9.412 -0.4320 -1.4060 -0.0926
  435MOL0     C59899   3.524   8.664   9.513  0.3509 -0.5709 -1.0740
  435MOL0     O59900   3.576   8.716   9.624 -0.0890  0.1844  0.0900
  435MOL0     C59901   3.653   8.624   9.713  0.3951  0.0215  0.1180
  435MOL0     C59902   3.731   8.697   9.827 -0.0107 -0.4297 -0.8510
  435MOL0     C59903   3.665   8.818   9.885  0.8656  0.2295 -0.4200
  435MOL0     C59904   3.712   8.948   9.824 -0.3572 -0.2881 -0.3316
  435MOL0     C59905   3.658   9.072   9.892  0.7739 -0.7270  0.1850
  435MOL0     C59906   3.742   9.189   9.842 -0.9145  0.2369  0.2061
  435MOL0     C59907   3.694   9.324   9.897 -1.0613  0.4089  0.4023
  435MOL0     C59908   3.648   9.309  10.040  0.1172 -0.1619  0.3569
  435MOL0     N59909   3.600   9.440  10.095  0.2406  0.5809  0.1570
  435MOL0     C59910   3.621   9.470  10.223 -0.3582 -0.3528 -0.7773
  435MOL0     C59911   3.594   9.598  10.237  0.1981 -0.4673  0.1687
  435MOL0     C59912   3.582   9.666  10.371  0.7721  0.4975 -0.1855
  435MOL0     C59913   3.644   9.806  10.387 -0.2085  0.9133  0.3560
  435MOL0     C59914   3.559   9.915  10.317  0.0405 -0.2186  0.8280
  435MOL0     C59915   3.420   9.929  10.384 -0.2399  0.5740  0.3758
  435MOL0     O59916   3.362  10.033  10.302  0.0950 -0.2701  0.6803
  435MOL0     C59917   3.247  10.084  10.349 -0.1333 -0.1811 -0.2871
  435MOL0     C59918   3.166  10.146  10.258 -0.6001  0.1959  0.2860
  435MOL0     C59919   3.051  10.215  10.284 -0.3166  0.0305 -0.5433
  435MOL0     C59920   2.967  10.268  10.182  1.3667 -0.9767 -0.3993
  435MOL0     C59921   3.003  10.208  10.420 -0.2779  0.0058  0.6647
  435MOL0     C59922   2.864  10.253  10.469  0.0871  0.1226 -0.4080
  435MOL0     O59923   2.813  10.188  10.585  0.0351 -0.4934  0.5523
  435MOL0     C59924   2.693  10.247  10.623  0.8567  0.6046 -0.4588
  435MOL0     C59925   2.667  10.386  10.649  0.6407  0.4059  0.7367
  435MOL0     C59926   2.537  10.431  10.684 -0.0266 -1.0693  0.0728
  435MOL0     C59927   2.430  10.346  10.701  0.4607 -1.2554 -0.1098
  435MOL0     O59928   2.305  10.384  10.740 -0.2510 -0.4135 -0.4276
  435MOL0     C59929   2.228  10.467  10.648  0.3053 -0.5885 -0.5822
  435MOL0     C59930   2.086  10.498  10.700 -0.3789  0.5907 -0.1777
  435MOL0     C59931   2.071  10.559  10.836 -0.1738  0.3888 -0.0450
  435MOL0     C59932   1.924  10.580  10.876  0.1304 -0.8436 -0.1197
  435MOL0     C59933   1.893  10.561  11.026 -0.2436  0.7991  0.3814
  435MOL0     C59934   1.752  10.587  11.062  0.1422 -0.3406  0.0721
  435MOL0     C59935   1.735  10.604  11.220 -0.0544  0.3184 -0.1794
  435MOL0     C59936   1.593  10.592  11.263  0.1690  0.5275  1.4520
  435MOL0    Cl59937   1.473  10.668  11.130 -0.7282 -0.2015 -0.3292
  435MOL0     C59938   2.462  10.211  10.685 -0.0230  0.4352  0.0688
  435MOL0     C59939   2.589  10.161  10.655 -0.0543  0.0584 -0.4564
  435MOL0     O59940   2.805  10.336  10.407 -0.1039 -0.2343 -0.6519
  435MOL0     C59941   3.086  10.144  10.511  0.3357  0.0035  0.1021
  435MOL0     C59942   3.206  10.081  10.484  0.2055  0.3673 -0.2320
  435MOL0     N59943   3.536   9.639  10.119  1.1517  0.1375 -0.0687
  435MOL0     N59944   3.547   9.543  10.029  0.5979 -0.2906  0.3679
  435MOL0     C59945   3.523   8.527   9.487 -0.1035 -0.0827  0.2364
  435MOL0     C59946   3.443   8.483   9.382 -0.0160 -0.1966  0.2311
  435MOL0     C59947   3.101   8.443   9.088  0.1351 -0.7391 -0.6277
  435MOL0     C59948   3.015   8.336   9.114 -1.0851  0.4790  0.3163
  435MOL0     C59949   2.938   8.288   9.007  0.5515 -0.4038  0.0765
  435MOL0     C59950   2.946   8.334   8.877  0.1888  0.1195 -0.1314
  435MOL0     O59951   2.873   8.277   8.775  0.0547 -0.3273  0.8260
  435MOL0     C59952   2.733   8.262   8.779  0.3928  0.0385 -0.2810
  435MOL0     C59953   2.695   8.125   8.702 -0.2361  0.9985  0.4287
  435MOL0     C59954   2.744   7.996   8.768 -0.0588 -0.1300  0.1463
  435MOL0     C59955   2.890   7.950   8.743  0.3297  0.2263  0.4813
  435MOL0     C59956   2.911   7.906   8.606 -0.2006  1.3333  0.3386
  435MOL0     C59957   2.929   7.859   8.494 -0.8236 -0.3575 -0.5840
  435MOL0     C59958   3.028   8.435   8.864  0.4635 -0.9994  0.2774
  435MOL0     C59959   3.099   8.495   8.962  1.2659 -0.2112 -0.2561
  435MOL0     C59960   3.163   8.623   8.924 -0.0408 -0.4344  0.2963
  435MOL0     H59961   3.378   8.774   9.222 -1.2227 -1.1455  0.4951
  435MOL0     H59962   3.486   8.862   9.433  0.4790 -1.3189 -0.7895
  435MOL0     H59963   3.735   8.572   9.664 -1.6367 -1.5301 -1.8124
  435MOL0     H59964   3.594   8.550   9.767  0.2911 -0.6235 -0.8648
  435MOL0     H59965   3.747   8.615   9.897 -1.8268 -1.1052 -1.1749
  435MOL0     H59966   3.830   8.723   9.789 -0.5033  2.1881 -0.5347
  435MOL0     H59967   3.559   8.795   9.874  0.8360  0.6978 -1.1630
  435MOL0     H59968   3.674   8.828   9.994 -0.3441  3.3100 -0.4934
  435MOL0     H59969   3.819   8.946   9.846 -0.6008 -0.3394  0.9011
  435MOL0     H59970   3.696   8.943   9.715  0.0784  3.4173 -0.7005
  435MOL0     H59971   3.667   9.048   9.998 -0.6637  1.9043  1.0095
  435MOL0     H59972   3.551   9.094   9.884  0.6845 -0.8334  1.0005
  435MOL0     H59973   3.847   9.178   9.867 -0.9506 -1.3281 -0.2258
  435MOL0     H59974   3.735   9.197   9.733  0.0393  0.1351  0.1271
  435MOL0     H59975   3.621   9.368   9.828 -2.6750 -0.8399  1.2285
  435MOL0     H59976   3.786   9.383   9.901  1.6578 -3.4052 -0.5158
  435MOL0     H59977   3.561   9.243  10.044  0.7248 -0.9235  1.4382
  435MOL0     H59978   3.729   9.260  10.095 -0.4091  0.0679  1.3501
  435MOL0     H59979   3.649   9.403  10.304  3.3427 -1.2728 -2.6117
  435MOL0     H59980   3.617   9.596  10.447 -0.2255 -3.3648 -2.9428
  435MOL0     H59981   3.474   9.674  10.386  0.9738  0.9695  1.0635
  435MOL0     H59982   3.662   9.839  10.490 -0.0932 -1.0828  1.0320
  435MOL0     H59983   3.743   9.803  10.339 -1.5199 -2.2840 -2.5922
  435MOL0     H59984   3.613  10.010  10.329  0.0470 -0.2884  1.3723
  435MOL0     H59985   3.543   9.900  10.210  0.3622  1.9416  0.4275
  435MOL0     H59986   3.360   9.838  10.368  0.1662 -0.2609  3.0697
  435MOL0     H59987   3.433   9.944  10.491 -3.0025 -2.1809  1.2675
  435MOL0     H59988   3.209  10.142  10.158  0.3437 -0.7981  0.7157
  435MOL0     H59989   2.946  10.370  10.214 -1.4816 -1.7050  0.2965
  435MOL0     H59990   2.869  10.222  10.168  0.6080  0.5315 -0.2836
  435MOL0     H59991   3.023  10.261  10.088  0.5751  1.9954 -1.1940
  435MOL0     H59992   2.747  10.459  10.641  1.2262 -0.4036 -1.8470
  435MOL0     H59993   2.531  10.539  10.694 -1.7574 -1.2718  1.8793
  435MOL0     H59994   2.267  10.568  10.635 -1.4834  0.3698  1.0233
  435MOL0     H59995   2.212  10.419  10.551 -3.0334  3.5224 -2.4540
  435MOL0     H59996   2.028  10.562  10.633 -2.5943 -0.9849  0.1141
  435MOL0     H59997   2.028  10.405  10.696  2.5053 -1.4336  1.2898
  435MOL0     H59998   2.126  10.653  10.843 -2.5348  1.9824 -1.3500
  435MOL0     H59999   2.120  10.479  10.892 -0.6159 -1.0074 -1.5671
  435MOL0     H60000   1.869  10.506  10.816  0.0899 -0.3955 -0.6397
  435MOL0     H60001   1.885  10.679  10.850 -2.8653 -1.7920  0.3370
  435MOL0     H60002   1.919  10.461  11.062 -1.7677  0.6456  1.1194
  435MOL0     H60003   1.963  10.630  11.074  3.1701 -1.3132 -1.1503
  435MOL0     H60004   1.683  10.503  11.045 -2.4406  1.5827  0.4475
  435MOL0     H60005   1.712  10.674  11.009  0.4349 -0.0331  0.3504
  435MOL0     H60006   1.779  10.699  11.254  0.2435 -0.3542  1.4069
  435MOL0     H60007   1.790  10.523  11.270 -0.3806  1.0677  1.4722
  435MOL0     H60008   1.563  10.636  11.359 -1.1477  2.2598  0.3046
  435MOL0     H60009   1.573  10.485  11.268  4.7345 -0.6370 -0.1361
  435MOL0     H60010   2.385  10.138  10.705 -0.5288  1.2731  1.2759
  435MOL0     H60011   2.610  10.055  10.667  1.4636  0.4968  1.5623
  435MOL0     H60012   3.053  10.124  10.612 -3.1141 -1.6773 -1.1599
  435MOL0     H60013   3.274  10.043  10.559  1.0767  0.2391 -1.0720
  435MOL0     H60014   3.568   8.452   9.551  0.8146 -3.2949 -3.8011
  435MOL0     H60015   3.437   8.378   9.356  1.7966 -0.1799 -0.3665
  435MOL0     H60016   2.989   8.291   9.209 -1.7744  1.9352  0.8454
  435MOL0     H60017   2.872   8.202   9.015  2.8563 -2.5392 -1.8475
  435MOL0     H60018   2.702   8.261   8.884  3.3864  3.5351  0.8762
  435MOL0     H60019   2.684   8.350   8.737 -1.9855 -2.3374 -2.9480
  435MOL0     H60020   2.745   8.121   8.604 -0.8926 -0.3677  0.1206
  435MOL0     H60021   2.586   8.115   8.697 -0.2119  0.4137  0.9623
  435MOL0     H60022   2.744   7.998   8.877 -0.1461 -0.5144  0.1553
  435MOL0     H60023   2.676   7.917   8.735 -1.2613 -0.3806  2.9629
  435MOL0     H60024   2.916   7.874   8.817 -0.3733 -0.0565  0.4450
  435MOL0     H60025   2.957   8.036   8.756  1.8260 -0.8426  0.1898
  435MOL0     H60026   2.949   7.826   8.394  2.7954  1.4437 -0.6259
  435MOL0     H60027   3.031   8.480   8.765 -1.5525 -2.3385 -0.4479
  435MOL0     H60028   3.113   8.663   8.835  0.5682 -1.0121 -0.3165
  435MOL0     H60029   3.170   8.694   9.007  0.5934  1.8083 -1.5714
  435MOL0     H60030   3.261   8.599   8.884 -1.0753  2.5155 -4.9211
  436MOL0     O60031   4.422   5.466   6.260 -0.6733  0.4296  0.3764
  436MOL0     C60032   4.527   5.444   6.206  0.9896 -0.9251 -0.2142
  436MOL0     O60033   4.593   5.332   6.217 -0.1626 -0.1580  0.1690
  436MOL0     C60034   4.576   5.251   6.333 -1.0193  0.7945  0.1668
  436MOL0     C60035   4.566   5.107   6.325 -0.3183 -0.3204 -0.1341
  436MOL0     C60036   4.556   5.027   6.437  0.1243 -0.2089  0.5602
  436MOL0     C60037   4.543   5.079   6.563 -0.1397 -1.2278  0.4304
  436MOL0     O60038   4.525   4.985   6.656 -0.1463  0.2454  1.1119
  436MOL0     C60039   4.569   4.988   6.794  0.8998  0.0228  0.1055
  436MOL0     C60040   4.689   4.904   6.833  0.0757 -0.2152  0.5611
  436MOL0     C60041   4.650   4.755   6.799 -0.6268  1.0654  0.1632
  436MOL0     C60042   4.774   4.671   6.810 -0.2108 -0.5841  1.1018
  436MOL0     C60043   4.753   4.536   6.752 -0.3192  0.0649 -0.6014
  436MOL0     C60044   4.885   4.450   6.734 -0.2090  0.6283 -0.9114
  436MOL0     C60045   4.850   4.322   6.666 -0.0130  0.6524  0.2100
  436MOL0     C60046   4.816   4.345   6.518  0.8317  0.0031  0.0030
  436MOL0     N60047   4.741   4.227   6.466  0.0189  0.6339  0.0772
  436MOL0     C60048   4.601   4.225   6.470  0.1172  0.3428  0.5721
  436MOL0     C60049   4.576   4.108   6.414  0.1881  0.3019 -0.1855
  436MOL0     C60050   4.433   4.057   6.399 -0.0690  0.0595  0.0465
  436MOL0     C60051   4.400   3.990   6.263  0.5093  0.4307  0.3067
  436MOL0     C60052   4.280   3.908   6.262  0.5974 -0.4175  0.1691
  436MOL0     C60053   4.155   3.988   6.274  0.3856  0.4352 -0.9527
  436MOL0     O60054   4.042   3.897   6.292 -0.6593 -0.0222  0.2969
  436MOL0     C60055   3.959   3.853   6.190  0.2079 -0.7321  0.0816
  436MOL0     C60056   3.965   3.883   6.058 -0.1096  0.1803  0.8002
  436MOL0     C60057   3.862   3.840   5.971 -0.8112  0.0455 -0.0608
  436MOL0     C60058   3.873   3.879   5.824  0.1670  0.0798 -0.2133
  436MOL0     C60059   3.748   3.767   6.017  0.4665  0.6494 -0.0137
  436MOL0     C60060   3.636   3.720   5.933  0.8111  1.1513  0.4405
  436MOL0     O60061   3.534   3.654   6.007  0.1745 -0.4192 -0.0341
  436MOL0     C60062   3.416   3.635   5.951  0.0645  0.5616  0.4162
  436MOL0     C60063   3.372   3.504   5.926 -0.8016  0.1303 -0.1846
  436MOL0     C60064   3.250   3.479   5.851  0.5041 -0.1493  0.6726
  436MOL0     C60065   3.178   3.580   5.790 -0.5150 -0.3070 -0.6686
  436MOL0     O60066   3.055   3.561   5.745  0.5296 -0.2675 -0.2651
  436MOL0     C60067   3.000   3.438   5.698  0.0361  0.5448  0.2476
  436MOL0     C60068   2.852   3.450   5.676 -0.4880  0.4385  0.0726
  436MOL0     C60069   2.805   3.318   5.608  0.4537 -0.0279 -0.6455
  436MOL0     C60070   2.657   3.292   5.612  0.0003 -0.4425  0.8825
  436MOL0     C60071   2.561   3.396   5.542  0.9506  0.5813  0.4380
  436MOL0     C60072   2.605   3.449   5.396 -0.2138 -0.2836 -0.0659
  436MOL0     C60073   2.492   3.545   5.332  0.2361  0.1899  0.8273
  436MOL0     C60074   2.561   3.648   5.241  0.3883 -0.7596  0.6860
  436MOL0    Cl60075   2.432   3.766   5.182  0.4218 -0.0860  0.1081
  436MOL0     C60076   3.230   3.710   5.800  0.3192  0.5229  0.4288
  436MOL0     C60077   3.341   3.733   5.884 -0.2813 -0.9049  0.4157
  436MOL0     O60078   3.625   3.748   5.815  0.2597  0.1381  0.0511
  436MOL0     C60079   3.748   3.752   6.159  0.0281  0.8147 -0.3466
  436MOL0     C60080   3.849   3.794   6.243  0.6135 -0.8285 -0.5453
  436MOL0     N60081   4.693   4.032   6.405 -0.6316  0.1330 -0.2868
  436MOL0     N60082   4.792   4.100   6.440 -0.8860 -0.5533  0.6946
  436MOL0     C60083   4.560   5.217   6.579 -0.7625 -0.6478  0.7038
  436MOL0     C60084   4.580   5.298   6.469  0.6302 -0.1851 -0.1839
  436MOL0     C60085   4.575   5.536   6.102  0.1473  0.8925 -0.2258
  436MOL0     C60086   4.658   5.487   5.999  0.5885  0.4996  0.6252
  436MOL0     C60087   4.706   5.569   5.893 -0.0507 -0.7347 -0.4185
  436MOL0     C60088   4.687   5.706   5.898  0.1143 -0.4605  0.8407
  436MOL0     O60089   4.735   5.805   5.812 -0.1571 -0.0810  0.1781
  436MOL0     C60090   4.825   5.761   5.712  0.6517  0.8254  0.1083
  436MOL0     C60091   4.866   5.874   5.617 -0.2360  0.1614  0.4075
  436MOL0     C60092   4.747   5.966   5.573 -0.2993  0.1312 -0.3739
  436MOL0     C60093   4.786   6.073   5.478  0.1414 -0.3081 -0.4196
  436MOL0     C60094   4.826   6.031   5.347 -0.2044 -0.8097 -0.5270
  436MOL0     C60095   4.860   6.008   5.228  0.1569  0.4907  0.2067
  436MOL0     C60096   4.598   5.745   5.997  0.4139 -0.5257  0.0376
  436MOL0     C60097   4.535   5.672   6.097 -1.2252 -0.3735  0.3506
  436MOL0     C60098   4.449   5.754   6.197 -0.8835 -0.6135 -0.1700
  436MOL0     H60099   4.567   5.058   6.228  3.7990  1.1145 -1.0171
  436MOL0     H60100   4.577   4.920   6.433  3.7460  0.4072 -1.4310
  436MOL0     H60101   4.490   4.947   6.858 -0.4397 -0.2128 -1.5872
  436MOL0     H60102   4.596   5.089   6.823  0.8725  0.0855 -0.0852
  436MOL0     H60103   4.779   4.934   6.779  1.6720 -2.0109  2.0190
  436MOL0     H60104   4.706   4.904   6.942 -0.5545 -2.6039  0.7278
  436MOL0     H60105   4.572   4.721   6.868  0.3977 -0.2446  0.6996
  436MOL0     H60106   4.602   4.756   6.700  3.5009  5.7284 -2.2405
  436MOL0     H60107   4.858   4.709   6.752 -1.8373  1.5370 -0.0087
  436MOL0     H60108   4.811   4.664   6.912 -0.9519 -5.0658  1.2860
  436MOL0     H60109   4.695   4.530   6.660  0.8531 -0.1898 -1.3506
  436MOL0     H60110   4.687   4.490   6.827 -0.1178 -0.1921 -0.5819
  436MOL0     H60111   4.963   4.509   6.685  0.8920  1.2965  1.5237
  436MOL0     H60112   4.916   4.428   6.836  0.6030 -1.7716 -1.6051
  436MOL0     H60113   4.771   4.270   6.722  1.8427  1.9679  4.4999
  436MOL0     H60114   4.941   4.262   6.665 -0.1622  0.4254  0.2446
  436MOL0     H60115   4.762   4.439   6.505  0.3509 -0.3204 -0.3466
  436MOL0     H60116   4.906   4.347   6.456  0.6960 -0.3193 -0.2076
  436MOL0     H60117   4.539   4.307   6.505 -0.8159 -0.2767  0.4098
  436MOL0     H60118   4.358   4.129   6.433 -3.1668 -2.6317 -0.5668
  436MOL0     H60119   4.429   3.977   6.474 -1.4368 -0.1175 -0.2052
  436MOL0     H60120   4.399   4.069   6.188  0.5832  2.0764  1.9663
  436MOL0     H60121   4.484   3.922   6.244  1.7113  1.9565 -0.0232
  436MOL0     H60122   4.271   3.844   6.174  2.5859 -1.9105  0.9606
  436MOL0     H60123   4.300   3.843   6.348  3.8029 -0.8226 -0.7819
  436MOL0     H60124   4.158   4.058   6.358  1.2949  1.2338 -1.6263
  436MOL0     H60125   4.134   4.058   6.193 -0.1702 -0.9488 -2.0471
  436MOL0     H60126   4.060   3.924   6.028 -0.7533  2.4918  1.6626
  436MOL0     H60127   3.805   3.960   5.795  0.3810  0.7551  1.1178
  436MOL0     H60128   3.861   3.782   5.775 -0.9595 -0.3017  0.7953
  436MOL0     H60129   3.975   3.911   5.798  0.0336 -0.2020 -1.1403
  436MOL0     H60130   3.420   3.421   5.977 -4.0222 -0.5485  2.0313
  436MOL0     H60131   3.222   3.374   5.852 -0.4704  0.0219 -1.6724
  436MOL0     H60132   3.036   3.409   5.599 -0.4522  0.8300 -0.0137
  436MOL0     H60133   3.036   3.359   5.764  3.3042 -0.4867 -2.4447
  436MOL0     H60134   2.810   3.450   5.777  3.4483  1.4851  1.8926
  436MOL0     H60135   2.836   3.539   5.615 -3.5817  0.1038  0.2294
  436MOL0     H60136   2.842   3.224   5.648 -0.0039  0.9971  2.4827
  436MOL0     H60137   2.831   3.336   5.503 -0.1850  1.1263 -0.6323
  436MOL0     H60138   2.628   3.269   5.715 -0.2101 -0.9633  0.7111
  436MOL0     H60139   2.653   3.196   5.559 -0.0199 -0.0495  0.1641
  436MOL0     H60140   2.460   3.355   5.534  0.6234  1.3747  0.3794
  436MOL0     H60141   2.556   3.486   5.604 -1.6798  1.0569 -0.3373
  436MOL0     H60142   2.614   3.362   5.331  1.8767  0.7605 -1.2955
  436MOL0     H60143   2.704   3.494   5.403  0.4486 -1.8637  1.0752
  436MOL0     H60144   2.429   3.582   5.413 -2.6239 -0.0428 -1.1483
  436MOL0     H60145   2.437   3.485   5.258  2.0340  1.7453 -1.9230
  436MOL0     H60146   2.621   3.603   5.161  1.7263  0.5618  0.8983
  436MOL0     H60147   2.637   3.702   5.299  2.6851 -0.8232 -2.0298
  436MOL0     H60148   3.178   3.795   5.756  0.0066  1.2601  2.1706
  436MOL0     H60149   3.375   3.835   5.898  1.2734 -0.7298 -3.3140
  436MOL0     H60150   3.656   3.709   6.198 -0.7963 -2.1011 -4.7067
  436MOL0     H60151   3.842   3.774   6.350  1.2145  1.1916 -0.0719
  436MOL0     H60152   4.540   5.270   6.671 -1.9761  1.0427 -0.4644
  436MOL0     H60153   4.595   5.404   6.486 -4.4981  0.5275  1.6383
  436MOL0     H60154   4.674   5.380   6.003 -2.6491 -0.0374  3.4682
  436MOL0     H60155   4.764   5.521   5.815 -0.3789 -2.7222  0.5194
  436MOL0     H60156   4.911   5.716   5.762  0.8607 -0.8262 -1.6103
  436MOL0     H60157   4.784   5.676   5.656  2.3891  0.1428 -0.2011
  436MOL0     H60158   4.912   5.826   5.530  1.6583 -0.1969  1.5651
  436MOL0     H60159   4.946   5.936   5.658 -1.1640  3.1818 -2.0108
  436MOL0     H60160   4.670   5.901   5.530 -1.6776  2.3196 -1.3856
  436MOL0     H60161   4.703   6.031   5.650 -0.5273  3.1100 -2.8177
  436MOL0     H60162   4.865   6.139   5.518 -0.5803 -0.4025  1.2310
  436MOL0     H60163   4.692   6.128   5.480 -0.2446 -0.9676 -0.1136
  436MOL0     H60164   4.912   5.994   5.136 -3.4520  0.3328 -1.9873
  436MOL0     H60165   4.561   5.845   5.980 -1.8082 -1.7044 -3.0029
  436MOL0     H60166   4.433   5.859   6.171  0.4152 -0.4403 -0.3111
  436MOL0     H60167   4.351   5.705   6.208 -1.8772  1.1415 -0.7338
  436MOL0     H60168   4.509   5.746   6.287  0.3567 -0.6632 -0.9728
  437MOL0     O60169  10.143   0.178   3.158 -0.2670  0.1795  0.4721
  437MOL0     C60170  10.204   0.182   3.261 -0.5626  0.0738 -0.5023
  437MOL0     O60171  10.325   0.238   3.275  0.1603 -0.2119 -0.9144
  437MOL0     C60172  10.401   0.286   3.171  0.7707 -0.1598 -0.2759
  437MOL0     C60173  10.537   0.299   3.198 -0.2076  0.7639  0.1760
  437MOL0     C60174  10.629   0.346   3.098  0.1312 -0.4569  0.0065
  437MOL0     C60175  10.580   0.397   2.978 -0.1829 -0.1119 -0.2770
  437MOL0     O60176  10.657   0.483   2.905  0.1669  0.2337  0.7864
  437MOL0     C60177  10.653   0.487   2.762 -0.0543  0.1790  0.8539
  437MOL0     C60178  10.753   0.395   2.714  0.2727  0.6358  0.3509
  437MOL0     C60179  10.744   0.370   2.569 -1.3089 -0.1252 -0.2401
  437MOL0     C60180  10.758   0.501   2.481 -0.9045  0.1156  0.1907
  437MOL0     C60181  10.893   0.538   2.425  0.7597  0.1129  0.2157
  437MOL0     C60182  10.974   0.626   2.524 -0.6908 -0.3646  0.4208
  437MOL0     C60183  11.112   0.673   2.459 -0.9021  0.3136 -0.0403
  437MOL0     C60184  11.197   0.550   2.448 -0.4914 -0.4101 -0.8385
  437MOL0     N60185  11.320   0.582   2.379  0.5707 -0.1400  0.4023
  437MOL0     C60186  11.438   0.602   2.438  0.4079 -0.5836  0.4607
  437MOL0     C60187  11.516   0.637   2.335 -0.8712  0.0156 -0.1499
  437MOL0     C60188  11.665   0.668   2.345  0.2111 -0.1303  0.1584
  437MOL0     C60189  11.740   0.553   2.308 -0.7828  0.6648  0.3994
  437MOL0     C60190  11.720   0.448   2.193 -0.3762  0.2670  0.1466
  437MOL0     C60191  11.702   0.512   2.056  0.1085 -1.0535 -0.2431
  437MOL0     O60192  11.638   0.426   1.963  0.0276  0.1320 -0.1016
  437MOL0     C60193  11.693   0.399   1.841 -0.5677  0.3608  0.1913
  437MOL0     C60194  11.621   0.295   1.770 -1.1248 -0.4345  0.5340
  437MOL0     C60195  11.659   0.245   1.642  1.2466  0.5189  0.4353
  437MOL0     C60196  11.552   0.163   1.571 -0.3689  0.4861  0.1102
  437MOL0     C60197  11.780   0.294   1.592 -0.5079 -0.0348  0.1357
  437MOL0     C60198  11.830   0.255   1.455 -0.4965 -0.2295 -0.9887
  437MOL0     O60199  11.966   0.274   1.433  0.0975  0.3443  0.1620
  437MOL0     C60200  12.052   0.169   1.397  0.9662 -0.3917  0.6632
  437MOL0     C60201  12.172   0.218   1.347  0.4307 -0.5407 -0.1447
  437MOL0     C60202  12.266   0.120   1.298  0.2425 -0.1936  0.2595
  437MOL0     C60203  12.240  -0.017   1.294 -0.4436  0.1475  0.7428
  437MOL0     O60204  12.336  -0.108   1.247 -1.2587 -0.4815 -0.6325
  437MOL0     C60205  12.358  -0.231   1.322  0.2197 -0.4999 -0.8683
  437MOL0     C60206  12.487  -0.218   1.400  0.6822  0.3899  0.0639
  437MOL0     C60207  12.503  -0.088   1.485 -0.2664  0.3249  1.2543
  437MOL0     C60208  12.588  -0.107   1.608 -0.3065  0.1875  0.6992
  437MOL0     C60209  12.649   0.023   1.669 -0.8206 -0.1131  0.1362
  437MOL0     C60210  12.540   0.078   1.777  0.2166 -0.0717 -0.5428
  437MOL0     C60211  12.610   0.185   1.866  0.1841 -0.0410  0.9057
  437MOL0     C60212  12.521   0.229   1.973  0.7253 -0.6759  0.5327
  437MOL0    Cl60213  12.610   0.343   2.082 -0.0370 -0.2304 -0.2605
  437MOL0     C60214  12.120  -0.061   1.348  0.5197  0.1791 -0.2637
  437MOL0     C60215  12.025   0.033   1.411 -0.7769 -0.5876  1.1832
  437MOL0     O60216  11.755   0.212   1.372  0.1623 -0.1873  0.8124
  437MOL0     C60217  11.854   0.399   1.661  0.0783  0.5274 -0.0928
  437MOL0     C60218  11.813   0.441   1.785  0.4546 -0.4605  0.2185
  437MOL0     N60219  11.444   0.646   2.215 -0.9120 -0.2239 -0.3606
  437MOL0     N60220  11.327   0.603   2.245 -0.2726 -0.4904 -0.4954
  437MOL0     C60221  10.447   0.376   2.937 -0.7821  0.4216 -0.4233
  437MOL0     C60222  10.364   0.319   3.038 -0.3754  1.2811  1.0966
  437MOL0     C60223  10.139   0.129   3.378 -0.7694 -0.0274 -0.6428
  437MOL0     C60224  10.039   0.035   3.357 -0.2311  0.0326  0.4085
  437MOL0     C60225   9.974  -0.025   3.467 -0.0196 -0.7262  0.1232
  437MOL0     C60226   9.981   0.024   3.596  0.1970 -0.9284 -0.8347
  437MOL0     O60227   9.901  -0.035   3.691 -0.6247 -0.1125 -0.2618
  437MOL0     C60228   9.920   0.005   3.831 -0.7070 -0.0312 -0.0010
  437MOL0     C60229   9.790   0.002   3.911  0.0754 -0.2886  0.6798
  437MOL0     C60230   9.693   0.105   3.860  0.2144 -0.2967  0.2383
  437MOL0     C60231   9.603   0.150   3.976 -1.3445  0.4955 -0.6525
  437MOL0     C60232   9.523   0.050   4.041 -0.2825  0.0388  0.1722
  437MOL0     C60233   9.461  -0.040   4.086  0.1283 -0.1589  0.0281
  437MOL0     C60234  10.082   0.127   3.621  0.0575  0.4703  0.8080
  437MOL0     C60235  10.158   0.179   3.513 -0.3383 -0.1647 -1.0553
  437MOL0     C60236  10.270   0.280   3.551  0.3008 -0.5278 -0.0062
  437MOL0     H60237  10.559   0.284   3.304 -1.1826 -1.6605  0.0893
  437MOL0     H60238  10.733   0.364   3.126 -0.6225 -0.2124  2.9436
  437MOL0     H60239  10.676   0.591   2.737  1.7443 -1.0632 -3.5972
  437MOL0     H60240  10.556   0.466   2.717  0.2832  1.9820 -0.9016
  437MOL0     H60241  10.854   0.435   2.725  1.6439 -1.3412 -3.2403
  437MOL0     H60242  10.752   0.297   2.763  2.1777 -0.2063 -1.1631
  437MOL0     H60243  10.818   0.292   2.551 -0.7888  0.4040 -0.4323
  437MOL0     H60244  10.642   0.329   2.565 -2.2208  1.7174  1.8117
  437MOL0     H60245  10.705   0.479   2.387 -1.8671 -2.9296  1.3224
  437MOL0     H60246  10.715   0.588   2.532  2.2204  0.8740  1.8173
  437MOL0     H60247  10.864   0.591   2.334 -2.5456  0.6070  1.4062
  437MOL0     H60248  10.942   0.442   2.411  2.8084  0.9284  1.3985
  437MOL0     H60249  10.921   0.713   2.565  0.4160 -0.3975  2.0463
  437MOL0     H60250  10.987   0.560   2.611 -0.3117 -2.3024 -1.0343
  437MOL0     H60251  11.161   0.761   2.500  0.5229 -1.1591  1.5935
  437MOL0     H60252  11.088   0.702   2.356 -1.3387 -2.4427 -0.7922
  437MOL0     H60253  11.212   0.506   2.548 -2.6055  2.5203  0.9183
  437MOL0     H60254  11.141   0.473   2.394 -4.7318 -1.1183  3.8239
  437MOL0     H60255  11.458   0.573   2.540  2.4633  0.9712  0.5591
  437MOL0     H60256  11.680   0.708   2.446  2.2887 -3.0381  1.1542
  437MOL0     H60257  11.690   0.755   2.285  0.7570  0.2390  0.9016
  437MOL0     H60258  11.844   0.582   2.288 -0.1000 -1.3569  0.8116
  437MOL0     H60259  11.741   0.492   2.398  1.3093  1.5133  1.0166
  437MOL0     H60260  11.811   0.388   2.184 -0.9262 -0.7696  1.2157
  437MOL0     H60261  11.633   0.385   2.214 -0.4802  0.6387  0.8645
  437MOL0     H60262  11.645   0.605   2.061 -1.3281 -1.9526  2.1261
  437MOL0     H60263  11.799   0.538   2.013 -0.9225 -2.0217 -3.4166
  437MOL0     H60264  11.536   0.250   1.819  0.4993 -2.7792  1.3762
  437MOL0     H60265  11.590   0.062   1.555  0.5821  0.8850 -0.2747
  437MOL0     H60266  11.526   0.205   1.473  2.2311  2.7207  0.2397
  437MOL0     H60267  11.453   0.163   1.616 -0.6629 -1.2914 -0.4941
  437MOL0     H60268  12.194   0.320   1.377 -0.4285 -0.6372  0.8936
  437MOL0     H60269  12.369   0.151   1.283  0.1969  0.5540  1.3628
  437MOL0     H60270  12.275  -0.260   1.387  0.9196 -1.0910 -0.2149
  437MOL0     H60271  12.366  -0.313   1.251  1.0287  1.2018 -2.8411
  437MOL0     H60272  12.483  -0.305   1.467 -0.6859 -0.3702 -0.9514
  437MOL0     H60273  12.575  -0.227   1.336 -0.0611 -0.8358 -0.8282
  437MOL0     H60274  12.410  -0.043   1.521 -2.1015 -0.1005 -2.4997
  437MOL0     H60275  12.558  -0.021   1.419  1.2197 -0.2766  1.8337
  437MOL0     H60276  12.667  -0.180   1.586  0.5809  1.3272 -0.0052
  437MOL0     H60277  12.522  -0.149   1.684 -0.7063  3.2467  2.1749
  437MOL0     H60278  12.725  -0.030   1.728 -1.7967  0.2089  1.7546
  437MOL0     H60279  12.687   0.096   1.597  0.3366  1.6002  2.3349
  437MOL0     H60280  12.510   0.000   1.848  0.2954  0.7675  0.4396
  437MOL0     H60281  12.454   0.132   1.738  0.3216  2.4794  2.3412
  437MOL0     H60282  12.627   0.275   1.806 -1.8307 -0.0914  0.1762
  437MOL0     H60283  12.707   0.147   1.900  1.7254  2.8758  0.0996
  437MOL0     H60284  12.481   0.142   2.025 -0.1156 -0.6413 -0.0247
  437MOL0     H60285  12.449   0.292   1.919  0.7738 -1.1389 -0.0849
  437MOL0     H60286  12.094  -0.166   1.353 -4.0006  1.1178  0.7912
  437MOL0     H60287  11.927   0.002   1.444 -0.0945 -2.4406  1.5829
  437MOL0     H60288  11.954   0.437   1.642  0.5800 -1.3063 -1.5322
  437MOL0     H60289  11.882   0.506   1.838  1.8717  0.9257 -3.0924
  437MOL0     H60290  10.403   0.416   2.846 -3.0754  1.1484  0.8942
  437MOL0     H60291  10.261   0.316   3.005  0.1297  0.7451 -0.5462
  437MOL0     H60292  10.016  -0.013   3.262 -1.4363  0.5807  0.4164
  437MOL0     H60293   9.897  -0.100   3.452 -0.7459  0.1221 -0.5612
  437MOL0     H60294  10.001  -0.059   3.868  2.7264  4.1828  0.4949
  437MOL0     H60295   9.954   0.107   3.846  2.5799 -1.0077 -0.1214
  437MOL0     H60296   9.814   0.015   4.017  0.1501 -1.1079  0.7725
  437MOL0     H60297   9.749  -0.099   3.898  0.4324 -0.5623  1.5755
  437MOL0     H60298   9.742   0.193   3.816  0.0255 -0.7217 -0.8467
  437MOL0     H60299   9.632   0.073   3.776  0.7875  1.4516 -0.9016
  437MOL0     H60300   9.537   0.234   3.950 -0.0146  1.8797  0.2220
  437MOL0     H60301   9.669   0.204   4.045 -0.9290  1.5812 -1.8705
  437MOL0     H60302   9.412  -0.126   4.128 -1.6754  0.6812 -0.2739
  437MOL0     H60303  10.123   0.154   3.719  3.0084  0.8110 -0.4169
  437MOL0     H60304  10.281   0.287   3.660  0.7646 -0.6521 -0.0427
  437MOL0     H60305  10.367   0.237   3.527 -0.4865 -1.6826 -1.2995
  437MOL0     H60306  10.250   0.373   3.497 -0.4003 -0.4863  0.3030
  438MOL0     O60307   5.478   6.331  10.912 -0.3840  0.0131  0.1468
  438MOL0     C60308   5.474   6.281  10.800 -0.1489  1.0814  0.4321
  438MOL0     O60309   5.373   6.313  10.706 -0.1343  0.7071  0.1667
  438MOL0     C60310   5.284   6.419  10.720  0.0580 -1.3066  0.5055
  438MOL0     C60311   5.330   6.541  10.781  0.2830  0.0908  0.7330
  438MOL0     C60312   5.255   6.652  10.760 -0.0430 -0.3511 -0.9317
  438MOL0     C60313   5.125   6.637  10.703  0.3086  0.4614  0.8559
  438MOL0     O60314   5.038   6.740  10.683  0.2786  0.6643 -0.0054
  438MOL0     C60315   5.060   6.860  10.759  0.5050 -0.0002 -0.2977
  438MOL0     C60316   4.936   6.954  10.733 -0.7259 -0.3588 -0.7666
  438MOL0     C60317   4.906   6.989  10.581 -0.1461 -0.4387 -0.5389
  438MOL0     C60318   4.793   7.090  10.572 -0.0036  0.2721  0.0911
  438MOL0     C60319   4.664   7.040  10.628 -0.7848  1.0838  0.1483
  438MOL0     C60320   4.615   6.899  10.579 -0.2819  0.0131  0.3755
  438MOL0     C60321   4.471   6.871  10.623  0.0294 -0.6184 -0.5357
  438MOL0     C60322   4.429   6.737  10.564 -0.5654  0.3805 -0.3654
  438MOL0     N60323   4.512   6.616  10.598  0.4746 -0.6366 -0.0796
  438MOL0     C60324   4.557   6.594  10.725 -0.2435 -0.2838 -0.1978
  438MOL0     C60325   4.634   6.477  10.702  0.2212 -1.1784 -0.9519
  438MOL0     C60326   4.704   6.393  10.799 -0.0759 -0.4822  1.1502
  438MOL0     C60327   4.632   6.259  10.804  0.4143 -0.0388  0.3358
  438MOL0     C60328   4.500   6.267  10.888 -0.5239  0.3515  0.1303
  438MOL0     C60329   4.399   6.167  10.846  0.4745  0.4485  0.5849
  438MOL0     O60330   4.463   6.043  10.878 -0.3534 -0.3167 -0.0116
  438MOL0     C60331   4.396   5.920  10.862 -0.2890 -0.6794 -0.9829
  438MOL0     C60332   4.464   5.809  10.910  1.5955 -0.6472 -0.0405
  438MOL0     C60333   4.403   5.677  10.904  0.3465 -0.5026  0.0906
  438MOL0     C60334   4.485   5.560  10.962  0.3355  0.7773  0.0692
  438MOL0     C60335   4.273   5.664  10.851 -0.0153  0.2491 -0.8295
  438MOL0     C60336   4.206   5.533  10.850 -0.2715  0.1484 -0.6382
  438MOL0     O60337   4.074   5.541  10.874  0.0379 -0.3012  0.8285
  438MOL0     C60338   3.993   5.425  10.868  1.1034 -0.2924 -0.9049
  438MOL0     C60339   4.000   5.325  10.767  0.0431  0.2692  0.4373
  438MOL0     C60340   3.913   5.213  10.766  1.2300  0.0355  0.3166
  438MOL0     C60341   3.807   5.193  10.865 -0.2554  0.3169  0.7876
  438MOL0     O60342   3.722   5.087  10.855 -0.2141  0.6156 -0.1451
  438MOL0     C60343   3.637   5.055  10.973  1.2438 -0.1706  0.7893
  438MOL0     C60344   3.556   4.932  10.932  0.7401  0.4489 -0.5812
  438MOL0     C60345   3.475   4.952  10.803  0.5714  0.5782 -0.2575
  438MOL0     C60346   3.417   4.818  10.747 -0.4008  0.2303 -0.5474
  438MOL0     C60347   3.308   4.832  10.648 -0.4567  0.2313  0.0622
  438MOL0     C60348   3.340   4.935  10.535 -0.0483 -0.4240  1.2292
  438MOL0     C60349   3.460   4.909  10.441 -0.6596  0.0661  0.8416
  438MOL0     C60350   3.507   5.021  10.349 -0.2335 -0.0913 -0.3179
  438MOL0    Cl60351   3.380   5.080  10.238  1.0381 -0.0961 -0.6955
  438MOL0     C60352   3.806   5.292  10.965  0.0357  0.4635 -0.1985
  438MOL0     C60353   3.900   5.399  10.969 -0.5247 -0.5497 -0.0707
  438MOL0     O60354   4.270   5.429  10.855  0.2772  0.4834  0.1464
  438MOL0     C60355   4.209   5.777  10.790  0.1084  0.6113  0.1774
  438MOL0     C60356   4.280   5.904  10.795 -0.4216 -0.1984 -0.1630
  438MOL0     N60357   4.644   6.461  10.563  0.3830  0.1374 -0.0087
  438MOL0     N60358   4.571   6.544  10.502 -0.1132 -0.6010  0.3245
  438MOL0     C60359   5.078   6.510  10.658  0.5860 -0.1122 -0.6611
  438MOL0     C60360   5.152   6.409  10.681  0.2440  0.7112  0.0768
  438MOL0     C60361   5.567   6.163  10.781 -0.1991  0.4454 -0.0037
  438MOL0     C60362   5.627   6.091  10.889 -0.4559  0.7069  0.0007
  438MOL0     C60363   5.697   5.968  10.870  0.2797 -0.9727 -0.3877
  438MOL0     C60364   5.716   5.915  10.752  0.2196  0.7121  0.5930
  438MOL0     O60365   5.814   5.814  10.732 -0.5345  0.0016 -0.1895
  438MOL0     C60366   5.874   5.746  10.846 -0.2779 -0.7575 -0.0688
  438MOL0     C60367   5.983   5.640  10.812  0.0824 -0.7067  0.7391
  438MOL0     C60368   5.943   5.534  10.710  1.2397  0.8893 -0.6766
  438MOL0     C60369   5.841   5.437  10.775  0.1881 -0.5813 -0.1928
  438MOL0     C60370   5.910   5.348  10.865 -0.2174 -0.5551  0.4366
  438MOL0     C60371   5.982   5.277  10.931 -0.2749  0.4279 -0.2831
  438MOL0     C60372   5.667   5.989  10.642 -0.9328 -0.2688 -0.6472
  438MOL0     C60373   5.588   6.104  10.646 -0.8326 -1.1521  0.4002
  438MOL0     C60374   5.534   6.169  10.518  0.0887  0.1497 -0.1035
  438MOL0     H60375   5.436   6.551  10.803  1.2973  0.2036 -3.3036
  438MOL0     H60376   5.301   6.749  10.777 -0.5533  0.5742 -4.1120
  438MOL0     H60377   5.141   6.922  10.717 -0.2459  0.3547 -1.2787
  438MOL0     H60378   5.073   6.843  10.866  1.8015 -0.8132 -0.5551
  438MOL0     H60379   4.850   6.897  10.769  0.7233 -1.5077  1.1248
  438MOL0     H60380   4.938   7.048  10.788  1.2215 -0.5340 -0.4363
  438MOL0     H60381   4.993   7.048  10.551 -1.6612  1.8418 -0.6859
  438MOL0     H60382   4.900   6.899  10.519 -0.8503 -0.9323  0.2342
  438MOL0     H60383   4.818   7.187  10.617  1.0367  1.1476 -2.1795
  438MOL0     H60384   4.779   7.115  10.466  0.1200  2.5576  0.5481
  438MOL0     H60385   4.581   7.108  10.609 -0.2736  1.5448 -0.4598
  438MOL0     H60386   4.666   7.034  10.738 -1.5718  0.0510  0.1303
  438MOL0     H60387   4.623   6.896  10.469 -2.8199  1.6839  0.0681
  438MOL0     H60388   4.690   6.827  10.613  0.0188  0.3296  0.3834
  438MOL0     H60389   4.410   6.957  10.593  1.5402  0.9003  0.5420
  438MOL0     H60390   4.462   6.870  10.732 -0.5738 -0.2011 -0.5725
  438MOL0     H60391   4.334   6.720  10.616 -0.5212  0.5734 -0.2210
  438MOL0     H60392   4.417   6.740  10.455 -0.5996 -2.0456 -0.4737
  438MOL0     H60393   4.525   6.642  10.817 -1.8196 -3.6741  1.1984
  438MOL0     H60394   4.719   6.436  10.898 -2.1662  3.7989 -0.1612
  438MOL0     H60395   4.801   6.374  10.752 -0.7859 -0.5142 -0.3838
  438MOL0     H60396   4.606   6.231  10.701  2.4576 -0.0283 -0.2356
  438MOL0     H60397   4.703   6.188  10.847  0.8675  0.6753  0.7909
  438MOL0     H60398   4.535   6.257  10.991 -0.4332  2.0137  0.2977
  438MOL0     H60399   4.450   6.364  10.880 -0.8068  0.2235  0.3412
  438MOL0     H60400   4.310   6.189  10.906  1.5282 -0.6374  2.6413
  438MOL0     H60401   4.367   6.180  10.742 -1.6005  0.5157  1.1817
  438MOL0     H60402   4.563   5.823  10.951  2.1510  0.2177 -1.6033
  438MOL0     H60403   4.521   5.489  10.887 -1.4754 -1.0231  0.8341
  438MOL0     H60404   4.436   5.506  11.044  1.2023  3.0142  2.1949
  438MOL0     H60405   4.573   5.604  11.011  2.0936 -2.0048 -0.3516
  438MOL0     H60406   4.091   5.328  10.708 -0.2930 -0.1244 -0.1195
  438MOL0     H60407   3.926   5.140  10.687  0.9677 -0.2365  0.5198
  438MOL0     H60408   3.701   5.047  11.061  2.9763  1.8255 -0.1843
  438MOL0     H60409   3.570   5.136  11.005  2.2365 -0.3733  3.6630
  438MOL0     H60410   3.623   4.847  10.918  1.0551  0.4369  0.8115
  438MOL0     H60411   3.487   4.904  11.012  4.0401 -2.3354  1.5710
  438MOL0     H60412   3.539   4.991  10.723  1.1919  2.7456  1.1982
  438MOL0     H60413   3.391   5.017  10.831  0.3371  0.4318 -0.6197
  438MOL0     H60414   3.373   4.757  10.826  0.8043 -0.8957 -0.7082
  438MOL0     H60415   3.494   4.753  10.703  0.4842  0.4630  0.6083
  438MOL0     H60416   3.289   4.730  10.613  1.8983 -0.6029  1.0540
  438MOL0     H60417   3.220   4.864  10.706 -1.2186 -1.3162 -0.1897
  438MOL0     H60418   3.368   5.032  10.577  1.8338  0.0239 -0.8742
  438MOL0     H60419   3.254   4.954  10.470  0.2537 -0.1382  0.9120
  438MOL0     H60420   3.440   4.826  10.373 -3.5763  1.1478  0.2063
  438MOL0     H60421   3.535   4.867  10.509 -1.1614 -2.4226 -0.0540
  438MOL0     H60422   3.591   4.982  10.291 -0.8692 -1.6811 -0.2222
  438MOL0     H60423   3.525   5.105  10.417 -2.2227  2.0509 -2.2881
  438MOL0     H60424   3.731   5.286  11.042 -0.3037 -1.0535 -0.6207
  438MOL0     H60425   3.901   5.464  11.056 -0.0189  0.8929 -1.1172
  438MOL0     H60426   4.116   5.768  10.734 -0.0250 -2.2734  0.7111
  438MOL0     H60427   4.231   5.988  10.748  0.2282 -0.3838 -1.1814
  438MOL0     H60428   4.979   6.508  10.614  0.0995 -0.8235  0.4232
  438MOL0     H60429   5.108   6.312  10.658 -0.7017  1.7093 -2.6964
  438MOL0     H60430   5.606   6.133  10.987 -0.5971  0.3316  0.1300
  438MOL0     H60431   5.754   5.942  10.959  0.5854  2.3546  0.5154
  438MOL0     H60432   5.929   5.814  10.912  1.2354 -0.8062 -1.2310
  438MOL0     H60433   5.794   5.694  10.899  0.8606 -1.1521  1.3236
  438MOL0     H60434   6.022   5.589  10.901 -1.4278 -0.8436  1.3571
  438MOL0     H60435   6.062   5.703  10.769 -1.4367  0.9609  0.2678
  438MOL0     H60436   5.906   5.580  10.618  0.5895 -1.5995 -1.7532
  438MOL0     H60437   6.028   5.472  10.680 -0.7036 -1.5679 -1.4598
  438MOL0     H60438   5.791   5.379  10.696  0.8429 -1.6188  0.1265
  438MOL0     H60439   5.767   5.498  10.827  0.9809  1.9820 -1.8860
  438MOL0     H60440   6.053   5.226  10.993 -1.1747  1.0795  1.3377
  438MOL0     H60441   5.703   5.947  10.549  4.1013 -0.4139  1.1028
  438MOL0     H60442   5.570   6.126  10.425  1.0167 -0.5445  0.5598
  438MOL0     H60443   5.426   6.159  10.505 -0.4085  2.1160  1.7965
  438MOL0     H60444   5.565   6.273  10.503 -0.5396 -0.1807 -6.4362
  439MOL0     O60445   9.172  10.682   0.061  0.6350  0.1591 -0.1333
  439MOL0     C60446   9.146  10.566   0.038 -0.3873 -0.0226 -0.4392
  439MOL0     O60447   9.156  10.471   0.132  0.3018 -0.4579 -0.0151
  439MOL0     C60448   9.231  10.485   0.250  0.7108 -0.0569 -0.5019
  439MOL0     C60449   9.360  10.536   0.252 -0.3796  0.3059 -0.2522
  439MOL0     C60450   9.431  10.531   0.370  0.0755 -0.3637 -0.0624
  439MOL0     C60451   9.390  10.461   0.486  1.1672  0.3114 -0.0833
  439MOL0     O60452   9.458  10.459   0.605 -0.2490  0.2065  0.1820
  439MOL0     C60453   9.363  10.467   0.721 -0.3607  0.6288 -0.2987
  439MOL0     C60454   9.432  10.502   0.850  0.3249 -0.0579  0.3040
  439MOL0     C60455   9.321  10.514   0.960  0.4872 -0.4181 -0.0345
  439MOL0     C60456   9.356  10.544   1.108  0.1468  0.0662  0.1010
  439MOL0     C60457   9.361  10.413   1.196 -0.2960  0.9968  0.1885
  439MOL0     C60458   9.219  10.364   1.226  0.1111  0.5153 -0.9576
  439MOL0     C60459   9.207  10.294   1.367 -0.6997 -0.1585 -0.6413
  439MOL0     C60460   9.065  10.265   1.427  0.7767 -0.0549  0.0216
  439MOL0     N60461   8.996  10.167   1.343  0.0063  0.0104  0.9660
  439MOL0     C60462   8.974  10.033   1.375 -0.5519  0.7191  0.5397
  439MOL0     C60463   8.900   9.984   1.267 -0.3649  1.0554 -0.5335
  439MOL0     C60464   8.857   9.846   1.264 -0.2786  0.8356 -0.4929
  439MOL0     C60465   8.963   9.744   1.208 -0.3533  0.4489  0.0152
  439MOL0     C60466   9.111   9.767   1.244  0.4817 -0.4769  1.0510
  439MOL0     C60467   9.200   9.651   1.203  0.1305  0.3946 -0.7308
  439MOL0     O60468   9.175   9.540   1.292 -0.0293  0.0538  0.8026
  439MOL0     C60469   9.104   9.439   1.237 -1.2587 -0.3521 -0.3819
  439MOL0     C60470   9.140   9.379   1.113  0.0797 -0.3930 -0.0975
  439MOL0     C60471   9.075   9.258   1.078  1.5083 -0.3636  0.4065
  439MOL0     C60472   9.091   9.205   0.936 -0.2734 -0.5230  0.3631
  439MOL0     C60473   8.966   9.212   1.150 -1.2465  0.1841  0.2605
  439MOL0     C60474   8.891   9.091   1.119 -0.9704  0.1468  0.4801
  439MOL0     O60475   8.756   9.115   1.109  0.5069 -0.7845 -0.1891
  439MOL0     C60476   8.674   9.012   1.080 -0.2183  0.3830  0.4160
  439MOL0     C60477   8.570   9.036   0.986  1.0771 -0.0442  0.2060
  439MOL0     C60478   8.481   8.932   0.952 -0.2607  0.3161 -0.3275
  439MOL0     C60479   8.494   8.805   1.010  0.5062  0.5053  0.0789
  439MOL0     O60480   8.401   8.701   0.987 -0.4207 -0.1687 -0.6355
  439MOL0     C60481   8.260   8.731   1.003  1.1502 -0.8135  0.3189
  439MOL0     C60482   8.221   8.761   1.149  1.0070  0.4882 -0.1684
  439MOL0     C60483   8.235   8.648   1.248 -0.0594  0.2167  0.6247
  439MOL0     C60484   8.295   8.684   1.380  0.4738  0.9430  0.2345
  439MOL0     C60485   8.208   8.770   1.474 -0.4744  0.9517  0.1394
  439MOL0     C60486   8.292   8.789   1.608  0.2412  0.2314  0.1976
  439MOL0     C60487   8.204   8.844   1.720 -0.0161 -0.2132  1.4311
  439MOL0     C60488   8.290   8.875   1.848  0.7519  1.0060  0.6035
  439MOL0    Cl60489   8.185   8.948   1.989  0.2916  0.2378 -0.0962
  439MOL0     C60490   8.596   8.779   1.097 -0.5071 -0.3216 -0.9031
  439MOL0     C60491   8.684   8.885   1.134 -0.4489 -0.5463  0.6349
  439MOL0     O60492   8.952   8.988   1.091 -0.0294 -0.1431  0.1797
  439MOL0     C60493   8.927   9.274   1.263 -0.2266 -0.6671 -0.1214
  439MOL0     C60494   8.998   9.390   1.309  0.8526  0.7397  0.6580
  439MOL0     N60495   8.867  10.085   1.184 -0.0682 -1.1004  0.4419
  439MOL0     N60496   8.920  10.196   1.235  0.9555  0.3481  1.0515
  439MOL0     C60497   9.256  10.400   0.475 -0.1358  0.6439  0.6333
  439MOL0     C60498   9.182  10.410   0.358 -0.1964 -1.6350  0.5872
  439MOL0     C60499   9.090  10.533  -0.093 -0.3098  0.0247 -0.4241
  439MOL0     C60500   9.047  10.397  -0.104 -0.0104  0.2481  0.6903
  439MOL0     C60501   8.996  10.350  -0.231 -0.4640  0.0480  0.0616
  439MOL0     C60502   8.973  10.435  -0.341 -0.1578 -0.1533 -0.1521
  439MOL0     O60503   8.922  10.397  -0.462 -0.4510 -0.5568  0.5361
  439MOL0     C60504   8.808  10.303  -0.455 -0.8122 -0.7624 -0.7758
  439MOL0     C60505   8.769  10.281  -0.599  0.6998  0.6014  0.2823
  439MOL0     C60506   8.665  10.374  -0.651  0.0891  0.2756  0.2006
  439MOL0     C60507   8.525  10.332  -0.600  0.1424 -0.3857  1.3356
  439MOL0     C60508   8.484  10.194  -0.650  0.5194 -0.0867 -1.3619
  439MOL0     C60509   8.436  10.088  -0.683 -0.0201 -0.0238  0.0042
  439MOL0     C60510   9.006  10.566  -0.320 -0.6692  0.4699  0.7202
  439MOL0     C60511   9.065  10.619  -0.202  0.2623  0.0126  0.4815
  439MOL0     C60512   9.074  10.773  -0.200 -0.1248 -0.3132  0.0573
  439MOL0     H60513   9.401  10.567   0.156  2.4771 -0.2317  0.7008
  439MOL0     H60514   9.535  10.563   0.376  0.2093  0.3301 -3.7311
  439MOL0     H60515   9.310  10.372   0.717 -1.9901  1.4607  0.6628
  439MOL0     H60516   9.280  10.532   0.694 -0.6398  0.6869  0.6555
  439MOL0     H60517   9.501  10.421   0.877  0.7403  0.1469 -0.1383
  439MOL0     H60518   9.485  10.598   0.854 -0.8763  0.6534 -0.3843
  439MOL0     H60519   9.254  10.593   0.925  1.3180 -0.9791 -3.2131
  439MOL0     H60520   9.254  10.428   0.959  0.6662 -0.6216  1.8012
  439MOL0     H60521   9.459  10.581   1.114  0.8777 -2.0519  1.7115
  439MOL0     H60522   9.293  10.621   1.154  0.3869 -1.1084  2.6046
  439MOL0     H60523   9.414  10.438   1.288  1.8438 -2.8595  0.2240
  439MOL0     H60524   9.410  10.329   1.146 -0.1085  1.5687 -0.6008
  439MOL0     H60525   9.148  10.447   1.234 -1.5165 -0.9469  0.4414
  439MOL0     H60526   9.184  10.295   1.149 -0.4924  0.0510 -0.2845
  439MOL0     H60527   9.263  10.361   1.432 -1.3655  1.3960 -1.5959
  439MOL0     H60528   9.280  10.213   1.371 -1.6255 -0.9578  0.9314
  439MOL0     H60529   9.071  10.230   1.531 -5.4924  0.8750  1.0655
  439MOL0     H60530   9.026  10.367   1.435  4.7765  1.6327  0.3733
  439MOL0     H60531   9.011   9.987   1.466 -3.7857  0.0896  1.7032
  439MOL0     H60532   8.768   9.836   1.202 -0.2743 -0.7325 -0.2811
  439MOL0     H60533   8.825   9.817   1.364  1.8887 -0.0785 -0.0011
  439MOL0     H60534   8.926   9.649   1.247 -1.2487  0.5712 -0.5068
  439MOL0     H60535   8.951   9.739   1.099  1.5397  2.8741 -0.4095
  439MOL0     H60536   9.154   9.855   1.194  1.8997 -0.8369  1.5718
  439MOL0     H60537   9.123   9.795   1.349  0.5368  2.4748  0.3606
  439MOL0     H60538   9.188   9.631   1.096 -1.0103  1.4244 -0.8145
  439MOL0     H60539   9.304   9.679   1.225 -0.7158  2.5230  0.8315
  439MOL0     H60540   9.226   9.408   1.055  0.0824  0.7353  0.4362
  439MOL0     H60541   9.144   9.110   0.951  0.5969 -0.1808 -0.4365
  439MOL0     H60542   9.166   9.269   0.888 -0.8080 -0.0695  0.1320
  439MOL0     H60543   9.000   9.198   0.877 -0.1929 -1.5008  0.3356
  439MOL0     H60544   8.567   9.127   0.927  3.7313 -0.0387 -0.0416
  439MOL0     H60545   8.400   8.951   0.882 -0.6467 -0.7099 -0.1780
  439MOL0     H60546   8.229   8.809   0.932 -1.0148 -1.3651  0.5698
  439MOL0     H60547   8.210   8.643   0.961 -1.0686  1.4479 -2.1881
  439MOL0     H60548   8.278   8.850   1.178  2.2253 -0.9284  2.0473
  439MOL0     H60549   8.116   8.793   1.148  0.6670 -0.2763  2.5571
  439MOL0     H60550   8.299   8.565   1.219  0.3403  0.6306  0.3200
  439MOL0     H60551   8.140   8.598   1.270  1.0210 -2.9360 -1.2835
  439MOL0     H60552   8.396   8.723   1.360  0.7503 -0.0232 -0.2889
  439MOL0     H60553   8.317   8.588   1.428  0.1593  0.3096 -0.8639
  439MOL0     H60554   8.198   8.870   1.432 -0.7694  1.6280  1.7289
  439MOL0     H60555   8.118   8.709   1.487 -0.0372  0.5606  1.4906
  439MOL0     H60556   8.384   8.845   1.587  1.5070 -1.9810 -0.5560
  439MOL0     H60557   8.322   8.687   1.637 -1.1255 -0.1930  0.1595
  439MOL0     H60558   8.121   8.778   1.744  0.1530 -0.7821  0.4843
  439MOL0     H60559   8.160   8.935   1.677  1.1912 -0.6885 -0.9822
  439MOL0     H60560   8.378   8.930   1.817  2.0195 -0.1960  1.9072
  439MOL0     H60561   8.327   8.773   1.865 -1.2308 -0.5194 -3.0743
  439MOL0     H60562   8.620   8.685   1.146 -0.6396  0.2325  0.2456
  439MOL0     H60563   8.764   8.867   1.205 -1.3123  0.6749  1.9760
  439MOL0     H60564   8.847   9.244   1.330 -0.0603  5.0662  3.2990
  439MOL0     H60565   8.962   9.452   1.390 -0.9482  1.0814 -0.3610
  439MOL0     H60566   9.219  10.336   0.554  0.2828 -1.5813 -0.9020
  439MOL0     H60567   9.088  10.358   0.343 -2.3695  1.9770  0.3308
  439MOL0     H60568   9.065  10.322  -0.028  1.3803 -2.0413 -1.7344
  439MOL0     H60569   8.972  10.244  -0.240  1.6209 -0.3340 -1.7331
  439MOL0     H60570   8.851  10.217  -0.403  3.0801  0.9360 -0.8085
  439MOL0     H60571   8.731  10.348  -0.392  0.6176  1.4233 -0.4982
  439MOL0     H60572   8.732  10.178  -0.594  0.2462  0.7292 -0.3206
  439MOL0     H60573   8.856  10.273  -0.664  0.6792 -2.2293  0.4676
  439MOL0     H60574   8.673  10.478  -0.619  0.2946  1.1786 -2.5313
  439MOL0     H60575   8.658  10.365  -0.759 -1.5113  1.9838  0.1313
  439MOL0     H60576   8.446  10.400  -0.634 -1.2285 -1.5879  2.0569
  439MOL0     H60577   8.522  10.333  -0.491 -0.6092  2.7537  1.3895
  439MOL0     H60578   8.388   9.998  -0.716  1.0644 -0.4016 -0.5774
  439MOL0     H60579   8.977  10.623  -0.408 -0.5563  1.9200  1.6055
  439MOL0     H60580   9.022  10.820  -0.116 -0.3403  0.2995 -0.4125
  439MOL0     H60581   9.182  10.786  -0.192  0.0147 -1.0373 -0.5271
  439MOL0     H60582   9.046  10.826  -0.292  0.5061  0.8064  0.5005
  440MOL0     O60583   4.449   0.219   3.195 -0.0566  0.1053  0.3123
  440MOL0     C60584   4.561   0.228   3.150 -0.1161 -0.3824  0.4708
  440MOL0     O60585   4.673   0.221   3.223  0.0060 -0.3775 -0.0773
  440MOL0     C60586   4.679   0.166   3.347 -0.1676 -0.7817 -0.7483
  440MOL0     C60587   4.766   0.238   3.431  0.1811  0.2663 -0.2785
  440MOL0     C60588   4.784   0.192   3.561 -0.1113 -0.4707  0.9614
  440MOL0     C60589   4.710   0.090   3.610  0.1404 -0.1635  0.2813
  440MOL0     O60590   4.740   0.067   3.744  0.7557 -0.4484  0.5685
  440MOL0     C60591   4.747  -0.070   3.790  0.1127  0.8933  0.3656
  440MOL0     C60592   4.619  -0.122   3.849  0.0001  0.7573 -0.6238
  440MOL0     C60593   4.579  -0.048   3.976  0.0972 -1.1417 -0.6356
  440MOL0     C60594   4.427  -0.027   3.979 -0.0204 -0.2322  0.3097
  440MOL0     C60595   4.386   0.064   4.099 -0.4152  0.0629 -0.0874
  440MOL0     C60596   4.230   0.066   4.104 -0.2786 -0.1921 -0.8049
  440MOL0     C60597   4.153   0.087   3.971  0.3277 -1.2488  0.4037
  440MOL0     C60598   3.997   0.100   3.973  0.8286  0.0524  1.0107
  440MOL0     N60599   3.958   0.224   4.034 -0.1477  0.1896 -0.5663
  440MOL0     C60600   3.905   0.327   3.962  0.1328 -0.3112  0.4378
  440MOL0     C60601   3.865   0.421   4.064 -0.7761  0.0284 -1.0468
  440MOL0     C60602   3.813   0.558   4.046 -0.2986  0.7199 -0.0826
  440MOL0     C60603   3.838   0.613   3.899 -0.3747  0.8887  0.4296
  440MOL0     C60604   3.779   0.760   3.914  0.1276  0.2273  0.2839
  440MOL0     C60605   3.756   0.817   3.771 -0.2537 -0.4013 -0.9018
  440MOL0     O60606   3.644   0.752   3.717  0.8241  0.2039 -0.3590
  440MOL0     C60607   3.576   0.804   3.613  0.0971  0.4964  0.1366
  440MOL0     C60608   3.611   0.930   3.557  0.3804 -0.1011  0.6692
  440MOL0     C60609   3.528   0.988   3.458  0.0001  0.2873 -1.3127
  440MOL0     C60610   3.571   1.114   3.391 -0.0689  0.3855 -0.6541
  440MOL0     C60611   3.420   0.913   3.416  0.2252  0.9531  0.5143
  440MOL0     C60612   3.337   0.943   3.285  0.2818  0.0843 -0.3220
  440MOL0     O60613   3.317   0.841   3.201  0.2015 -0.2574  0.1639
  440MOL0     C60614   3.226   0.852   3.096  0.7062  0.9678  0.4352
  440MOL0     C60615   3.270   0.858   2.962 -0.2549 -0.5671  0.9465
  440MOL0     C60616   3.190   0.865   2.856  0.5845  0.5263  0.5322
  440MOL0     C60617   3.049   0.862   2.873  0.7041 -0.0683  0.3373
  440MOL0     O60618   2.984   0.841   2.756 -0.4578  0.4436  0.1782
  440MOL0     C60619   2.875   0.757   2.771  0.3093 -0.1959  0.5854
  440MOL0     C60620   2.818   0.711   2.634 -0.3725  0.3975  0.1563
  440MOL0     C60621   2.771   0.834   2.558  0.3098  0.4993 -0.0065
  440MOL0     C60622   2.651   0.894   2.626  1.0638  0.1439  0.4455
  440MOL0     C60623   2.556   0.960   2.532  1.4438 -0.7043  0.8944
  440MOL0     C60624   2.464   0.866   2.447 -0.6267 -0.4010  0.0401
  440MOL0     C60625   2.368   0.960   2.369 -0.1640 -0.1797 -0.3609
  440MOL0     C60626   2.236   0.896   2.328  0.6489 -0.6897 -0.3735
  440MOL0    Cl60627   2.264   0.794   2.187 -0.0277 -0.6235 -0.1674
  440MOL0     C60628   2.993   0.860   3.008 -0.7539 -0.6313 -0.0854
  440MOL0     C60629   3.082   0.854   3.114  0.3901  0.2313  0.5508
  440MOL0     O60630   3.302   1.056   3.260  0.5941 -0.3245 -0.0146
  440MOL0     C60631   3.390   0.781   3.462  0.0507  0.0155  0.1657
  440MOL0     C60632   3.474   0.729   3.560  1.0725 -0.3776  0.1962
  440MOL0     N60633   3.899   0.364   4.189 -0.5597 -0.1152 -0.8031
  440MOL0     N60634   3.950   0.247   4.169  0.6656  0.2267 -0.0575
  440MOL0     C60635   4.625   0.011   3.528  0.7948  0.4786  0.1812
  440MOL0     C60636   4.608   0.055   3.390  0.0180 -0.9299 -0.2194
  440MOL0     C60637   4.576   0.273   3.014 -0.8043 -0.2345  0.0264
  440MOL0     C60638   4.495   0.222   2.922  0.5295 -0.4544 -0.5599
  440MOL0     C60639   4.513   0.258   2.787  0.0329  0.2003 -0.6832
  440MOL0     C60640   4.612   0.344   2.748 -0.2117  0.2534  0.0889
  440MOL0     O60641   4.616   0.385   2.618 -0.6067 -0.0855  0.6010
  440MOL0     C60642   4.729   0.347   2.548 -0.6455 -0.0407 -0.1442
  440MOL0     C60643   4.732   0.397   2.397 -0.1002  0.2055 -0.2672
  440MOL0     C60644   4.626   0.313   2.327  0.6495 -0.3605  0.1659
  440MOL0     C60645   4.599   0.370   2.188 -0.3076 -0.8310 -0.0454
  440MOL0     C60646   4.716   0.373   2.096  1.2233 -0.7866  0.1973
  440MOL0     C60647   4.812   0.379   2.021  0.8982 -0.2559  0.5694
  440MOL0     C60648   4.698   0.400   2.836 -0.3074  0.1636 -1.0883
  440MOL0     C60649   4.674   0.366   2.979  0.7191  0.1985  0.4500
  440MOL0     C60650   4.769   0.425   3.080 -0.4528 -0.3399 -0.2443
  440MOL0     H60651   4.814   0.328   3.395 -0.4742  0.1112 -1.5952
  440MOL0     H60652   4.854   0.252   3.618 -0.0896  1.1957 -0.7377
  440MOL0     H60653   4.816  -0.076   3.875  0.2037  0.0489  0.2338
  440MOL0     H60654   4.781  -0.135   3.709  0.9331  2.4538 -0.6075
  440MOL0     H60655   4.536  -0.115   3.777 -1.5209  0.5696  1.0336
  440MOL0     H60656   4.642  -0.226   3.874 -3.5015  0.0532  0.1666
  440MOL0     H60657   4.597  -0.110   4.064 -0.8127  0.2913  0.5996
  440MOL0     H60658   4.639   0.040   4.000 -0.8886 -0.4201 -0.7780
  440MOL0     H60659   4.408   0.024   3.884 -0.1298 -0.1568  0.3716
  440MOL0     H60660   4.383  -0.127   3.988  0.2869 -0.2615  1.8715
  440MOL0     H60661   4.418   0.164   4.068 -2.1555  1.0663  1.1507
  440MOL0     H60662   4.427   0.036   4.197  1.4462 -0.4336 -0.9767
  440MOL0     H60663   4.198  -0.033   4.139  1.8797 -1.7769 -2.9940
  440MOL0     H60664   4.196   0.144   4.173 -0.8550  0.1078 -1.4259
  440MOL0     H60665   4.182   0.008   3.901 -0.9465 -0.6944 -0.7890
  440MOL0     H60666   4.197   0.179   3.934 -2.1449 -0.3362 -0.4603
  440MOL0     H60667   3.969   0.098   3.868 -1.4518 -1.8539  1.5537
  440MOL0     H60668   3.944   0.009   4.003  0.7257 -0.0838  0.4277
  440MOL0     H60669   3.896   0.346   3.855 -0.8631 -0.5928  0.4696
  440MOL0     H60670   3.860   0.620   4.122  0.7168 -2.1353  1.7313
  440MOL0     H60671   3.706   0.549   4.067 -0.5699 -0.5538 -1.8202
  440MOL0     H60672   3.939   0.605   3.858 -1.2749  1.5815 -2.1075
  440MOL0     H60673   3.788   0.547   3.827  1.6621 -0.0765 -0.1648
  440MOL0     H60674   3.681   0.754   3.963  0.1575  0.4884  0.3723
  440MOL0     H60675   3.855   0.820   3.964  1.8025  1.4342 -3.3604
  440MOL0     H60676   3.736   0.924   3.781 -1.0189 -0.6616  0.5670
  440MOL0     H60677   3.844   0.802   3.708  0.9214 -0.0048  0.6014
  440MOL0     H60678   3.705   0.983   3.569  1.3632 -1.1378 -1.8442
  440MOL0     H60679   3.578   1.098   3.283  0.3441 -0.1027 -0.5577
  440MOL0     H60680   3.664   1.142   3.441 -1.3849  0.7196  1.7957
  440MOL0     H60681   3.497   1.194   3.405 -0.0762  0.2712 -0.0241
  440MOL0     H60682   3.374   0.847   2.932  0.4333 -2.5848  3.6523
  440MOL0     H60683   3.231   0.866   2.755  0.1235 -2.4794  0.2177
  440MOL0     H60684   2.916   0.671   2.826  0.1234  0.6045  2.0138
  440MOL0     H60685   2.794   0.790   2.837 -0.2291 -0.7284  0.2048
  440MOL0     H60686   2.883   0.659   2.564 -1.5107 -1.1522  0.1959
  440MOL0     H60687   2.739   0.639   2.658 -0.5521  0.0179 -1.4706
  440MOL0     H60688   2.732   0.794   2.463 -2.5134  0.6551  1.0028
  440MOL0     H60689   2.844   0.915   2.552 -0.6031  1.4221  0.9438
  440MOL0     H60690   2.680   0.957   2.711 -0.4700 -0.3435  1.3843
  440MOL0     H60691   2.592   0.808   2.662  1.4319 -0.0544  0.5757
  440MOL0     H60692   2.487   1.018   2.593  0.2434  2.4734 -3.0404
  440MOL0     H60693   2.615   1.030   2.471  0.6290  1.5583  2.6090
  440MOL0     H60694   2.405   0.798   2.509 -2.9215  3.2235  2.2114
  440MOL0     H60695   2.517   0.799   2.380 -1.1268 -1.8908  1.0911
  440MOL0     H60696   2.421   1.003   2.283 -1.5310 -0.9777 -1.6551
  440MOL0     H60697   2.347   1.046   2.433  1.2152  0.9623 -1.3699
  440MOL0     H60698   2.162   0.970   2.296 -0.3411 -0.8965  1.3217
  440MOL0     H60699   2.182   0.848   2.410 -0.7455  3.5483  1.5060
  440MOL0     H60700   2.887   0.855   3.029 -1.0878 -2.5818 -1.8932
  440MOL0     H60701   3.038   0.853   3.213 -0.3454  2.3809  0.2839
  440MOL0     H60702   3.302   0.727   3.429  0.8627 -1.0222 -0.3479
  440MOL0     H60703   3.456   0.640   3.620 -2.7653  1.3588  1.9249
  440MOL0     H60704   4.565  -0.074   3.558 -1.8780  0.8000 -3.5748
  440MOL0     H60705   4.546   0.007   3.314  2.0015 -3.0043 -0.6328
  440MOL0     H60706   4.417   0.156   2.959 -0.7783  2.7216  2.9067
  440MOL0     H60707   4.437   0.230   2.714 -2.4718  1.4536  1.2759
  440MOL0     H60708   4.824   0.381   2.591  0.6675 -0.2249 -2.7069
  440MOL0     H60709   4.740   0.238   2.552 -1.4559 -0.1054  0.5031
  440MOL0     H60710   4.831   0.392   2.350  0.0976  0.1555  0.1438
  440MOL0     H60711   4.697   0.500   2.395 -0.6211  0.0429  0.2203
  440MOL0     H60712   4.661   0.211   2.308  1.5115  0.0460 -0.5111
  440MOL0     H60713   4.530   0.311   2.378  0.8965 -0.5072  0.6311
  440MOL0     H60714   4.564   0.472   2.208  0.4402 -0.0718 -2.1934
  440MOL0     H60715   4.514   0.319   2.142 -1.5893  0.8010  0.3998
  440MOL0     H60716   4.906   0.379   1.970  1.3315  0.6110  1.3327
  440MOL0     H60717   4.777   0.472   2.816 -2.1029  3.2078  1.6990
  440MOL0     H60718   4.821   0.510   3.035 -2.3658  0.6876 -0.6624
  440MOL0     H60719   4.713   0.463   3.165 -2.1905 -1.6977 -0.7082
  440MOL0     H60720   4.852   0.359   3.107  0.2770  1.0626  1.0437
  441MOL0     O60721   3.501  11.297   3.702  0.5294 -0.3529  0.5461
  441MOL0     C60722   3.600  11.227   3.684  0.3008  0.2385 -0.6657
  441MOL0     O60723   3.725  11.271   3.658 -0.0689  1.0275 -0.2934
  441MOL0     C60724   3.749  11.411   3.648 -0.5925 -0.4061  0.4102
  441MOL0     C60725   3.710  11.506   3.746  0.1026 -0.1144  1.2762
  441MOL0     C60726   3.717  11.646   3.731  0.1520  0.6479  0.0151
  441MOL0     C60727   3.772  11.698   3.605 -0.3924  0.4220  0.4650
  441MOL0     O60728   3.785  11.831   3.585 -1.1766 -0.7936  0.0550
  441MOL0     C60729   3.831  11.889   3.457  0.2681 -0.0026 -1.0338
  441MOL0     C60730   3.754  12.021   3.413  0.0307  0.2688  0.0549
  441MOL0     C60731   3.833  12.101   3.303  0.2037 -0.6459  0.1162
  441MOL0     C60732   3.795  12.245   3.290  0.2833 -0.3177  0.0320
  441MOL0     C60733   3.905  12.325   3.225  0.6194  0.2591  0.1135
  441MOL0     C60734   3.855  12.466   3.212 -0.2947 -0.2307  0.3532
  441MOL0     C60735   3.771  12.488   3.097 -0.5022 -0.1678  0.3743
  441MOL0     C60736   3.848  12.499   2.958  0.5742  0.7882  1.0309
  441MOL0     N60737   3.752  12.544   2.855 -0.1265  0.0320 -0.3525
  441MOL0     C60738   3.682  12.465   2.772 -0.0573  1.2827  1.1159
  441MOL0     C60739   3.581  12.543   2.724  0.4000 -0.5137  0.9277
  441MOL0     C60740   3.471  12.510   2.635 -0.1868 -0.1861  0.6664
  441MOL0     C60741   3.533  12.495   2.497 -0.3898 -0.0790  0.3256
  441MOL0     C60742   3.427  12.438   2.398 -0.4074  0.7636 -0.1964
  441MOL0     C60743   3.480  12.435   2.248 -0.4704  0.0802 -0.2489
  441MOL0     O60744   3.602  12.359   2.243 -0.0874  0.0429  0.2755
  441MOL0     C60745   3.673  12.365   2.124 -0.4105  0.8211  0.1292
  441MOL0     C60746   3.810  12.322   2.140 -0.4284 -0.5733 -0.2800
  441MOL0     C60747   3.902  12.325   2.031 -0.9457  0.0150  0.5965
  441MOL0     C60748   4.044  12.282   2.051  0.7508  1.3363 -0.1844
  441MOL0     C60749   3.853  12.357   1.902 -0.6687 -0.0798  0.7322
  441MOL0     C60750   3.924  12.349   1.779  0.2135  0.8036 -0.3185
  441MOL0     O60751   3.907  12.443   1.681 -0.1382  0.6361 -0.2908
  441MOL0     C60752   3.939  12.401   1.555 -0.5254 -0.1849 -0.5542
  441MOL0     C60753   4.071  12.386   1.520  0.3999  0.2560  0.4184
  441MOL0     C60754   4.106  12.308   1.410  0.6224  0.1588  0.5919
  441MOL0     C60755   4.005  12.264   1.318 -0.1028  0.4857  0.1785
  441MOL0     O60756   4.019  12.197   1.203  0.0534  0.4081  0.1458
  441MOL0     C60757   4.150  12.150   1.172  0.9063 -0.4285  1.0393
  441MOL0     C60758   4.141  12.024   1.089  0.6158  0.2117  0.7226
  441MOL0     C60759   4.073  11.906   1.166 -0.2438 -1.0499 -0.3776
  441MOL0     C60760   4.085  11.771   1.086  0.8265 -0.2201 -0.0122
  441MOL0     C60761   3.995  11.664   1.136  0.9408  1.0346  0.2236
  441MOL0     C60762   3.847  11.688   1.116  0.7735 -1.0424  0.5143
  441MOL0     C60763   3.753  11.582   1.172  0.5330  0.2625  0.1946
  441MOL0     C60764   3.626  11.553   1.080 -1.3808  0.5506  0.1074
  441MOL0    Cl60765   3.671  11.502   0.907  0.1960  0.1952 -0.1040
  441MOL0     C60766   3.874  12.291   1.351 -0.8755 -0.1531  0.3185
  441MOL0     C60767   3.836  12.348   1.471 -0.7991 -0.8841 -1.2776
  441MOL0     O60768   3.985  12.241   1.762 -0.1947  0.0655 -0.3848
  441MOL0     C60769   3.715  12.401   1.891  0.4927  0.3839  0.4558
  441MOL0     C60770   3.625  12.402   1.998 -0.6588  0.0873  0.0008
  441MOL0     N60771   3.601  12.667   2.786  0.5228 -0.4901 -0.2337
  441MOL0     N60772   3.685  12.662   2.877  0.1465 -0.0772 -0.0319
  441MOL0     C60773   3.823  11.598   3.516  1.3637  0.0634  0.5045
  441MOL0     C60774   3.811  11.463   3.535 -0.4657 -0.6950  0.6046
  441MOL0     C60775   3.590  11.080   3.669  0.5634 -0.9356  0.2714
  441MOL0     C60776   3.666  11.015   3.566  0.7367  0.0321  0.6958
  441MOL0     C60777   3.647  10.881   3.546 -0.3211 -0.3339 -0.1861
  441MOL0     C60778   3.570  10.802   3.632  0.2615 -0.0726 -0.4305
  441MOL0     O60779   3.571  10.667   3.629 -0.3188  0.7143 -0.1461
  441MOL0     C60780   3.672  10.599   3.558 -0.2494  0.6412  0.7430
  441MOL0     C60781   3.651  10.448   3.582  0.4272 -0.4719  1.5198
  441MOL0     C60782   3.511  10.400   3.560  1.0392  0.2024  0.0731
  441MOL0     C60783   3.490  10.248   3.556 -0.1197 -0.1640  0.2521
  441MOL0     C60784   3.578  10.190   3.456  0.0981 -0.3068 -0.2739
  441MOL0     C60785   3.654  10.143   3.372  0.1741  0.7085 -1.0183
  441MOL0     C60786   3.494  10.864   3.727  0.2320  0.4622  0.3455
  441MOL0     C60787   3.500  11.001   3.746 -0.2498 -0.3857  0.2491
  441MOL0     C60788   3.407  11.052   3.849  0.9029 -0.2892  0.1435
  441MOL0     H60789   3.674  11.456   3.836 -0.0896  1.4592  2.1146
  441MOL0     H60790   3.691  11.704   3.819  1.0874 -0.5056  1.1059
  441MOL0     H60791   3.835  11.822   3.371  0.2710  1.6586 -2.3748
  441MOL0     H60792   3.932  11.914   3.489 -0.2002  0.1005  0.4554
  441MOL0     H60793   3.654  11.990   3.381 -0.8650  0.8877  2.1364
  441MOL0     H60794   3.745  12.084   3.502 -1.6802 -1.2490  1.0240
  441MOL0     H60795   3.940  12.091   3.323  0.3240 -0.0866 -0.2571
  441MOL0     H60796   3.818  12.050   3.208 -1.1672 -1.2779  0.6393
  441MOL0     H60797   3.698  12.239   3.239  0.7658  0.2713 -0.9886
  441MOL0     H60798   3.780  12.282   3.392  0.2439 -0.2502  0.0019
  441MOL0     H60799   3.949  12.278   3.137  0.2986 -0.7712  0.4964
  441MOL0     H60800   3.981  12.338   3.303  0.8940 -0.5581 -0.0072
  441MOL0     H60801   3.801  12.503   3.300 -0.9085 -0.5427  0.1141
  441MOL0     H60802   3.933  12.542   3.201 -0.0862 -0.8192 -5.4938
  441MOL0     H60803   3.712  12.579   3.113  0.1970  0.2264  0.7588
  441MOL0     H60804   3.696  12.408   3.090 -1.4688  0.6864  0.6801
  441MOL0     H60805   3.932  12.567   2.944  0.3145  0.8094 -0.5773
  441MOL0     H60806   3.882  12.399   2.928 -1.9987  0.2932 -0.5495
  441MOL0     H60807   3.696  12.362   2.741 -0.2826  1.4067  0.5955
  441MOL0     H60808   3.401  12.593   2.620 -0.3385  0.0161  2.3028
  441MOL0     H60809   3.417  12.420   2.667 -0.9180  0.2354  0.6417
  441MOL0     H60810   3.561  12.594   2.459  1.6257 -0.1282  1.4825
  441MOL0     H60811   3.623  12.432   2.503  0.3525  0.9799  0.7354
  441MOL0     H60812   3.392  12.338   2.424 -1.8811  0.9539 -1.3288
  441MOL0     H60813   3.341  12.506   2.402  1.4247  3.3579 -1.5763
  441MOL0     H60814   3.403  12.388   2.185 -1.7576  0.3059  1.1023
  441MOL0     H60815   3.504  12.536   2.214  0.3211  0.5668  1.6632
  441MOL0     H60816   3.841  12.296   2.241 -0.2310 -1.0865 -0.4702
  441MOL0     H60817   4.066  12.275   2.157  1.5117  0.0442 -0.4106
  441MOL0     H60818   4.114  12.358   2.014  2.3917  1.0193  2.1397
  441MOL0     H60819   4.062  12.185   2.004 -1.7590  1.8350 -2.4627
  441MOL0     H60820   4.151  12.419   1.584  0.0888  1.1544  0.3541
  441MOL0     H60821   4.208  12.277   1.390 -0.1223 -1.6060 -0.7045
  441MOL0     H60822   4.210  12.219   1.113  0.8113 -2.3819 -1.5134
  441MOL0     H60823   4.191  12.110   1.265 -1.8040 -3.5559  1.0791
  441MOL0     H60824   4.081  12.059   1.005  1.8207  2.0706  0.5812
  441MOL0     H60825   4.240  11.998   1.051  1.0771  3.2021 -0.3316
  441MOL0     H60826   3.969  11.932   1.187  0.1337 -0.6940  1.1457
  441MOL0     H60827   4.126  11.901   1.261  1.1612  2.4286 -0.8023
  441MOL0     H60828   4.189  11.742   1.102  1.2446  1.1099 -0.2136
  441MOL0     H60829   4.074  11.782   0.977  1.3148 -1.0296 -0.1503
  441MOL0     H60830   3.999  11.576   1.071 -2.6856  1.5081 -0.8484
  441MOL0     H60831   3.998  11.641   1.243  1.7627 -2.8268 -0.4812
  441MOL0     H60832   3.840  11.690   1.007 -1.7309 -0.0353  0.6280
  441MOL0     H60833   3.817  11.787   1.151  1.4710 -0.8650  0.6383
  441MOL0     H60834   3.714  11.617   1.268 -1.3136 -0.3244 -0.2977
  441MOL0     H60835   3.803  11.486   1.191 -1.4803 -1.6768 -3.2548
  441MOL0     H60836   3.550  11.632   1.075  0.3701  2.2759 -2.7610
  441MOL0     H60837   3.574  11.470   1.127 -3.2021 -0.6319 -3.5813
  441MOL0     H60838   3.801  12.261   1.277 -1.0644  0.7522  0.1243
  441MOL0     H60839   3.730  12.365   1.484 -0.7933 -0.8656 -1.2536
  441MOL0     H60840   3.673  12.418   1.792 -0.9588  0.0164  0.9793
  441MOL0     H60841   3.524  12.442   1.992 -0.6287 -0.0125 -2.3123
  441MOL0     H60842   3.886  11.611   3.430  1.0963 -1.0414  0.1284
  441MOL0     H60843   3.851  11.400   3.456 -0.5235  0.5682 -0.4702
  441MOL0     H60844   3.735  11.078   3.511  1.6946 -0.0971  1.7089
  441MOL0     H60845   3.708  10.833   3.471  0.2725 -0.0288  0.0929
  441MOL0     H60846   3.674  10.621   3.451  2.5209  0.2804  0.6655
  441MOL0     H60847   3.767  10.636   3.596  0.0408 -0.3776  1.0427
  441MOL0     H60848   3.664  10.436   3.690 -0.9741 -1.9144  1.5617
  441MOL0     H60849   3.721  10.394   3.518 -0.2278 -0.1476  0.4845
  441MOL0     H60850   3.456  10.464   3.631 -0.4339  3.1258 -3.3990
  441MOL0     H60851   3.477  10.442   3.465  1.4112  0.3104 -0.0122
  441MOL0     H60852   3.388  10.226   3.523 -0.8379  3.0357  0.0269
  441MOL0     H60853   3.504  10.201   3.654  0.0441  3.4741  2.1290
  441MOL0     H60854   3.715  10.107   3.291 -0.8691  0.1779 -1.5882
  441MOL0     H60855   3.419  10.798   3.771  0.9060 -0.0419  0.7542
  441MOL0     H60856   3.324  10.980   3.855 -1.2657  1.9129 -1.2481
  441MOL0     H60857   3.456  11.061   3.947  2.7204  1.3140 -0.8600
  441MOL0     H60858   3.373  11.149   3.812  2.1312  0.1565  0.1659
  442MOL0     O60859   6.818   4.163   7.118  0.2713 -0.1504 -1.1273
  442MOL0     C60860   6.778   4.218   7.015  0.2350 -0.0739 -0.6379
  442MOL0     O60861   6.692   4.321   7.001  0.0956 -0.3089  0.6193
  442MOL0     C60862   6.641   4.386   7.113 -0.2064 -0.1479  0.6718
  442MOL0     C60863   6.517   4.344   7.162 -1.0809 -0.0667  0.7486
  442MOL0     C60864   6.454   4.426   7.252  0.7924  0.0152  0.4299
  442MOL0     C60865   6.518   4.537   7.307  0.8431 -0.2724 -0.1420
  442MOL0     O60866   6.444   4.600   7.401  0.0516  0.1154 -0.4436
  442MOL0     C60867   6.481   4.734   7.448  0.4088  0.0429 -0.0559
  442MOL0     C60868   6.388   4.769   7.564  0.2230 -0.0423 -0.3348
  442MOL0     C60869   6.431   4.902   7.626 -0.0670 -0.1250 -0.1553
  442MOL0     C60870   6.542   4.880   7.740 -0.0137  0.6027 -0.0818
  442MOL0     C60871   6.576   5.007   7.811  0.7025  1.3081  0.4135
  442MOL0     C60872   6.644   4.992   7.944  0.0534 -0.3466 -0.5886
  442MOL0     C60873   6.658   5.135   8.001 -0.3221 -0.2183 -0.5083
  442MOL0     C60874   6.799   5.178   8.020 -0.3183  1.0854  0.0712
  442MOL0     N60875   6.851   5.213   7.884  0.5789  0.1031  0.5478
  442MOL0     C60876   6.857   5.343   7.839  0.9415  0.2724 -1.2416
  442MOL0     C60877   6.917   5.343   7.725  1.0217  0.2310  0.3199
  442MOL0     C60878   6.935   5.456   7.634 -0.2503 -0.0578  0.2048
  442MOL0     C60879   7.017   5.573   7.694  0.2585 -0.0926 -0.4940
  442MOL0     C60880   7.078   5.682   7.595 -0.4557 -0.1926 -0.5044
  442MOL0     C60881   7.175   5.625   7.487  0.2691 -0.1632 -0.2469
  442MOL0     O60882   7.255   5.733   7.427 -0.5711 -0.2701  0.0300
  442MOL0     C60883   7.339   5.712   7.324 -1.0908 -0.0042 -0.2122
  442MOL0     C60884   7.397   5.829   7.258  0.7417  0.7466 -0.7590
  442MOL0     C60885   7.477   5.801   7.149  0.0464 -0.0526 -0.4822
  442MOL0     C60886   7.547   5.931   7.090  0.2979  0.0398 -0.6735
  442MOL0     C60887   7.513   5.670   7.103 -0.0998  0.4294  0.2858
  442MOL0     C60888   7.617   5.648   7.007  0.2404 -0.4263  0.5231
  442MOL0     O60889   7.607   5.528   6.945 -0.2605 -0.1657  1.1564
  442MOL0     C60890   7.603   5.521   6.803 -0.7552 -0.4897  0.3619
  442MOL0     C60891   7.594   5.635   6.720 -0.3066  0.9030  0.1970
  442MOL0     C60892   7.578   5.623   6.579 -0.0171  0.5386 -0.0339
  442MOL0     C60893   7.574   5.501   6.515 -0.0006  1.0061 -0.7075
  442MOL0     O60894   7.574   5.480   6.384  0.4212  0.2434  0.7778
  442MOL0     C60895   7.682   5.536   6.306  0.5577  0.0275 -0.9600
  442MOL0     C60896   7.699   5.461   6.173 -0.5412 -0.7585  0.2118
  442MOL0     C60897   7.715   5.304   6.185 -0.2817  0.3370  0.6435
  442MOL0     C60898   7.774   5.268   6.049  0.3484  0.0869 -0.5673
  442MOL0     C60899   7.804   5.123   6.049  0.1723  0.4230 -0.5675
  442MOL0     C60900   7.833   5.069   5.910  0.6868  0.3029  0.3821
  442MOL0     C60901   7.838   4.919   5.898  0.0447 -0.5856 -1.1399
  442MOL0     C60902   7.894   4.865   5.770 -0.0016  1.0233  0.3551
  442MOL0    Cl60903   7.849   4.695   5.751  0.3301 -0.6780 -0.2143
  442MOL0     C60904   7.584   5.387   6.596 -0.0886 -0.1182 -0.1332
  442MOL0     C60905   7.594   5.398   6.733 -0.0053  0.0865 -0.3235
  442MOL0     O60906   7.711   5.728   6.994  0.3264  0.8230  0.4696
  442MOL0     C60907   7.452   5.562   7.170  0.4270 -0.1071  0.3355
  442MOL0     C60908   7.361   5.584   7.279 -0.2476 -0.7729 -0.2268
  442MOL0     N60909   6.959   5.216   7.686 -0.4153 -0.4527 -0.7099
  442MOL0     N60910   6.926   5.145   7.785  0.2364  0.6389 -0.2688
  442MOL0     C60911   6.640   4.573   7.262 -0.4735  0.1209  0.8124
  442MOL0     C60912   6.701   4.504   7.162  1.0264  0.1816  1.1485
  442MOL0     C60913   6.838   4.177   6.889  0.1855 -0.1575  0.6648
  442MOL0     C60914   6.789   4.238   6.767 -0.0811  1.0189 -0.1342
  442MOL0     C60915   6.848   4.208   6.645 -1.1338  0.3358  0.0064
  442MOL0     C60916   6.959   4.115   6.643  0.3118 -0.8681 -0.6462
  442MOL0     O60917   7.034   4.101   6.524  0.8429  0.2644 -0.4984
  442MOL0     C60918   7.136   4.006   6.521  0.0312  0.8566  1.0496
  442MOL0     C60919   7.204   4.031   6.391 -0.0278  0.1549 -0.4051
  442MOL0     C60920   7.261   4.167   6.380  0.3042 -0.5380 -0.1110
  442MOL0     C60921   7.356   4.180   6.262 -0.3125 -0.0182  0.4118
  442MOL0     C60922   7.494   4.162   6.311 -0.2416 -0.5124 -1.2776
  442MOL0     C60923   7.607   4.136   6.355 -0.7985  0.3691  0.0647
  442MOL0     C60924   7.005   4.065   6.759  0.4402  0.7719  0.1777
  442MOL0     C60925   6.949   4.087   6.881 -0.4955  0.6298 -1.2428
  442MOL0     C60926   6.994   3.994   6.990 -0.5375 -0.1897 -0.5411
  442MOL0     H60927   6.471   4.255   7.121  0.4805 -1.7494  2.4399
  442MOL0     H60928   6.347   4.419   7.270  0.5414  2.5348  0.3604
  442MOL0     H60929   6.466   4.806   7.368 -2.2402 -1.5991 -1.1807
  442MOL0     H60930   6.585   4.731   7.481  0.0420 -2.8226  1.1264
  442MOL0     H60931   6.286   4.772   7.526 -0.2272 -1.2399  0.7101
  442MOL0     H60932   6.394   4.694   7.644  0.5757  2.2929  1.9896
  442MOL0     H60933   6.458   4.968   7.543 -2.1364  0.3880 -0.4563
  442MOL0     H60934   6.339   4.947   7.664 -0.6286 -1.1106 -0.3155
  442MOL0     H60935   6.514   4.807   7.816  3.5750 -0.6727  0.2394
  442MOL0     H60936   6.632   4.831   7.701 -0.4800  0.0208 -0.4508
  442MOL0     H60937   6.482   5.059   7.834 -0.9387 -1.7405  1.1944
  442MOL0     H60938   6.642   5.063   7.744  0.5607 -1.4226 -2.2222
  442MOL0     H60939   6.585   4.930   8.013  1.8853  0.4320  1.8336
  442MOL0     H60940   6.741   4.942   7.939  1.6762  2.6461 -3.7924
  442MOL0     H60941   6.616   5.136   8.102  1.0064 -0.2481  0.0616
  442MOL0     H60942   6.609   5.218   7.948  2.4494  2.0639  0.2576
  442MOL0     H60943   6.811   5.259   8.093 -1.4845  0.1481  1.3818
  442MOL0     H60944   6.850   5.087   8.054 -3.0285 -2.2242 -3.8013
  442MOL0     H60945   6.825   5.439   7.878  1.9880 -0.1435  0.7204
  442MOL0     H60946   6.833   5.492   7.617 -0.5077 -0.0606  1.5946
  442MOL0     H60947   6.986   5.430   7.540  0.0428 -1.8080  0.8037
  442MOL0     H60948   6.943   5.628   7.753 -0.6878  0.7233 -2.3506
  442MOL0     H60949   7.097   5.533   7.757 -0.7588 -1.3278  0.0536
  442MOL0     H60950   6.993   5.729   7.544 -1.2412  0.9840  1.7511
  442MOL0     H60951   7.126   5.764   7.650  0.1317 -0.9619  0.1658
  442MOL0     H60952   7.240   5.544   7.521 -1.6588 -2.7240 -2.1766
  442MOL0     H60953   7.112   5.575   7.412  3.4643 -1.3604 -2.3425
  442MOL0     H60954   7.375   5.931   7.289 -2.3331  0.0349 -0.2009
  442MOL0     H60955   7.481   6.018   7.086 -0.8337 -0.8105 -1.5409
  442MOL0     H60956   7.563   5.929   6.982 -2.9944  3.2262 -1.4093
  442MOL0     H60957   7.632   5.973   7.144 -0.8335  1.9719 -0.3303
  442MOL0     H60958   7.582   5.734   6.762 -0.6004  0.2107  1.8087
  442MOL0     H60959   7.575   5.711   6.516 -2.1846 -0.0191 -0.8009
  442MOL0     H60960   7.670   5.645   6.297  1.4215  0.1060 -1.2021
  442MOL0     H60961   7.773   5.520   6.364 -0.0413 -0.1243 -0.0425
  442MOL0     H60962   7.612   5.482   6.110  0.7550 -4.0579 -2.9993
  442MOL0     H60963   7.779   5.512   6.120 -0.2717 -0.4296  0.9178
  442MOL0     H60964   7.619   5.254   6.195  0.7953 -2.0196 -0.2249
  442MOL0     H60965   7.775   5.274   6.272  2.0382  2.5497 -0.0540
  442MOL0     H60966   7.861   5.329   6.020  0.9139 -0.1299  0.6219
  442MOL0     H60967   7.694   5.281   5.975 -0.5977  0.0084  0.4240
  442MOL0     H60968   7.889   5.101   6.114 -0.9921 -3.0212 -0.0247
  442MOL0     H60969   7.710   5.086   6.092 -2.6047  4.7870 -2.1976
  442MOL0     H60970   7.930   5.113   5.882  2.5568 -1.4916  3.4582
  442MOL0     H60971   7.751   5.104   5.847  0.7341 -0.2131  0.0266
  442MOL0     H60972   7.735   4.889   5.919  0.8095 -0.1665  4.6661
  442MOL0     H60973   7.897   4.896   5.988  0.2093  0.8169 -0.8724
  442MOL0     H60974   8.003   4.875   5.761  0.1854 -0.4348  0.8660
  442MOL0     H60975   7.848   4.919   5.686 -0.8893 -1.9439 -1.2059
  442MOL0     H60976   7.581   5.290   6.547  2.7122 -1.7038  2.4709
  442MOL0     H60977   7.600   5.301   6.781  2.0998 -0.3070 -1.2987
  442MOL0     H60978   7.471   5.459   7.141  1.5052  0.0580  0.4105
  442MOL0     H60979   7.300   5.501   7.314 -2.6657  1.6032  1.5225
  442MOL0     H60980   6.685   4.671   7.277  2.7549 -1.2080  0.6203
  442MOL0     H60981   6.790   4.537   7.108  0.0309 -0.6327 -1.1388
  442MOL0     H60982   6.698   4.297   6.772  0.4840  1.9161 -0.1777
  442MOL0     H60983   6.820   4.240   6.545  1.2280 -0.4323 -0.9870
  442MOL0     H60984   7.207   4.015   6.603 -0.0873  1.4983  1.0886
  442MOL0     H60985   7.089   3.908   6.514 -0.2974  1.1183 -2.4930
  442MOL0     H60986   7.145   4.005   6.303  0.1368 -0.5309 -0.3136
  442MOL0     H60987   7.287   3.960   6.391  2.3486  2.7609 -1.1790
  442MOL0     H60988   7.179   4.236   6.359  0.6190  0.8394  2.6943
  442MOL0     H60989   7.297   4.197   6.478 -2.7887 -0.3131  1.0543
  442MOL0     H60990   7.350   4.283   6.224  1.7259  0.0094  0.0485
  442MOL0     H60991   7.325   4.114   6.180  1.9850  0.4033 -0.9088
  442MOL0     H60992   7.705   4.105   6.387  1.6402  4.6487 -2.2877
  442MOL0     H60993   7.090   3.998   6.768 -1.1565 -1.5210 -0.8505
  442MOL0     H60994   7.028   4.057   7.073  0.3067  2.0131 -2.4455
  442MOL0     H60995   6.913   3.925   7.017  0.3700 -0.5374  1.5235
  442MOL0     H60996   7.077   3.929   6.960  1.0020  0.7343  1.4673
  443MOL0     O60997   5.219   6.713   2.643  0.2326 -0.1878  0.5880
  443MOL0     C60998   5.307   6.703   2.558  0.8574  0.9582 -0.3497
  443MOL0     O60999   5.307   6.603   2.462 -0.1904 -0.7949  0.2784
  443MOL0     C61000   5.226   6.492   2.455 -0.1383 -0.6911  0.4257
  443MOL0     C61001   5.297   6.377   2.423 -0.3348  0.2184 -0.6507
  443MOL0     C61002   5.218   6.264   2.413 -0.9654 -0.0654  0.7867
  443MOL0     C61003   5.081   6.262   2.438 -0.2182 -0.4712 -0.6038
  443MOL0     O61004   5.003   6.144   2.438 -0.8057  0.1581  0.4947
  443MOL0     C61005   4.994   6.074   2.559 -0.1374  0.8596 -0.1698
  443MOL0     C61006   4.909   5.950   2.553 -0.5310 -0.2238  0.4244
  443MOL0     C61007   4.972   5.827   2.483  0.1731  0.0560  0.1039
  443MOL0     C61008   4.874   5.717   2.456  0.7224  0.4943  0.2367
  443MOL0     C61009   4.936   5.606   2.369 -0.7446  0.3634 -0.7702
  443MOL0     C61010   5.056   5.524   2.431  0.6850 -0.7549 -0.1437
  443MOL0     C61011   5.102   5.399   2.354 -0.3442 -0.1415  0.5993
  443MOL0     C61012   5.176   5.426   2.222  0.6674  0.1830  0.7775
  443MOL0     N61013   5.210   5.303   2.145 -0.3325 -0.0286 -0.2299
  443MOL0     C61014   5.136   5.197   2.109 -0.5553  0.0205  1.2427
  443MOL0     C61015   5.222   5.103   2.061 -0.5211  0.7316  0.4485
  443MOL0     C61016   5.177   4.973   1.992 -0.7656 -0.0923 -0.6157
  443MOL0     C61017   5.139   4.987   1.846 -0.2902  0.1974  0.3778
  443MOL0     C61018   5.254   5.036   1.760 -0.0713  0.0757 -0.2983
  443MOL0     C61019   5.378   4.944   1.766 -0.8494 -0.1529 -0.4243
  443MOL0     O61020   5.487   4.990   1.687  0.3835  0.1162 -0.3449
  443MOL0     C61021   5.468   4.981   1.554  0.3864  0.9336  0.2103
  443MOL0     C61022   5.439   4.866   1.482 -0.3255  0.6235  0.6265
  443MOL0     C61023   5.439   4.863   1.339 -1.0136 -0.1429  0.0571
  443MOL0     C61024   5.398   4.734   1.280  0.2550  0.2135 -0.8597
  443MOL0     C61025   5.456   4.983   1.271 -0.4922  0.1670 -0.1250
  443MOL0     C61026   5.431   5.007   1.121  0.5171  0.9618 -0.4278
  443MOL0     O61027   5.535   5.074   1.073  0.3560  0.2036 -0.0399
  443MOL0     C61028   5.555   5.074   0.938 -0.0727  1.0871 -0.1396
  443MOL0     C61029   5.544   4.963   0.850 -0.3767  0.2764  0.0080
  443MOL0     C61030   5.563   4.971   0.706  0.1966 -0.1184  0.2090
  443MOL0     C61031   5.594   5.102   0.654  0.9843 -0.0972 -0.5391
  443MOL0     O61032   5.586   5.116   0.515  0.5750  0.4043  0.5407
  443MOL0     C61033   5.602   5.245   0.459 -0.4281 -0.2114  0.0739
  443MOL0     C61034   5.576   5.221   0.303 -0.3714  0.6573 -0.2931
  443MOL0     C61035   5.608   5.338   0.211  0.0469 -0.4433  0.5260
  443MOL0     C61036   5.582   5.309   0.069  0.0368  0.5441  0.2898
  443MOL0     C61037   5.555   5.433  -0.019  0.6317 -0.3063  0.2929
  443MOL0     C61038   5.668   5.534  -0.028 -0.6368 -0.5425  0.3544
  443MOL0     C61039   5.645   5.664  -0.107 -0.3795  0.2522  0.7729
  443MOL0     C61040   5.587   5.639  -0.248  0.7800 -0.3952  1.0624
  443MOL0    Cl61041   5.613   5.791  -0.346 -0.0999  0.3114  0.0450
  443MOL0     C61042   5.614   5.212   0.743 -0.9683  0.6966 -0.5398
  443MOL0     C61043   5.606   5.192   0.888 -0.5033 -1.0756  0.5762
  443MOL0     O61044   5.334   4.954   1.062 -0.1630  0.2245  0.3670
  443MOL0     C61045   5.494   5.098   1.355  0.8280  0.8754 -0.0971
  443MOL0     C61046   5.503   5.099   1.491 -0.4158  0.3810 -0.5050
  443MOL0     N61047   5.353   5.151   2.066 -0.8982  0.2130 -0.6318
  443MOL0     N61048   5.349   5.266   2.132  0.6384  0.5678 -0.5371
  443MOL0     C61049   5.010   6.381   2.483 -0.6360  0.2203  0.4726
  443MOL0     C61050   5.090   6.495   2.484 -0.3628 -0.3245  0.1203
  443MOL0     C61051   5.411   6.810   2.557 -0.6476 -0.7673  0.4385
  443MOL0     C61052   5.500   6.820   2.443 -0.0443  0.5682 -0.0439
  443MOL0     C61053   5.612   6.909   2.439  0.3759  0.5751 -1.1060
  443MOL0     C61054   5.648   6.984   2.551  0.1186  0.3911  0.4158
  443MOL0     O61055   5.751   7.066   2.565  0.0725  0.5958 -0.1312
  443MOL0     C61056   5.849   7.084   2.468  0.0679 -0.1179  0.0691
  443MOL0     C61057   5.941   6.968   2.440 -0.7374 -0.1747  0.4846
  443MOL0     C61058   6.021   6.996   2.312 -0.2888  0.6497 -0.2942
  443MOL0     C61059   5.956   6.938   2.187 -0.2679  0.2992 -0.4184
  443MOL0     C61060   6.033   6.982   2.070  0.0496 -0.0622 -0.6852
  443MOL0     C61061   6.117   7.008   1.980 -0.4383 -0.1683  0.7758
  443MOL0     C61062   5.565   6.965   2.663  0.6066 -0.0009  0.5607
  443MOL0     C61063   5.448   6.888   2.675 -0.1448  0.2214 -0.8786
  443MOL0     C61064   5.370   6.894   2.805 -1.1375  0.6715  0.1340
  443MOL0     H61065   5.405   6.374   2.410  0.7051  4.3536  3.8873
  443MOL0     H61066   5.278   6.179   2.382  0.3294  0.2290  2.3693
  443MOL0     H61067   4.963   6.137   2.643 -0.4474  2.5279 -1.4857
  443MOL0     H61068   5.093   6.042   2.594 -0.3748  0.9702  0.6372
  443MOL0     H61069   4.885   5.916   2.655  0.5026 -0.5948  0.5528
  443MOL0     H61070   4.816   5.976   2.501 -0.3193  2.0273  1.0715
  443MOL0     H61071   5.024   5.865   2.394 -1.5577  1.5788 -0.3157
  443MOL0     H61072   5.051   5.787   2.548  0.9853 -1.4641 -1.7251
  443MOL0     H61073   4.848   5.662   2.546  0.3881 -0.7908 -0.6144
  443MOL0     H61074   4.788   5.759   2.404  0.5668 -0.3721 -0.2167
  443MOL0     H61075   4.983   5.659   2.286  2.0085 -0.5547  0.0868
  443MOL0     H61076   4.858   5.539   2.331  2.4302 -3.3339 -1.4705
  443MOL0     H61077   5.136   5.595   2.455 -0.5160  0.2350  1.0417
  443MOL0     H61078   5.026   5.487   2.530 -0.9318  4.4080  1.6087
  443MOL0     H61079   5.015   5.334   2.346  0.1038 -0.6124 -0.6318
  443MOL0     H61080   5.179   5.349   2.413  0.8046  1.1106  0.2322
  443MOL0     H61081   5.105   5.479   2.158  0.4692 -1.6558 -0.6147
  443MOL0     H61082   5.269   5.483   2.224  1.1183 -0.4663 -0.5920
  443MOL0     H61083   5.036   5.160   2.129 -0.8993  0.7845  0.9546
  443MOL0     H61084   5.095   4.924   2.046  1.0789 -2.4958  0.1624
  443MOL0     H61085   5.253   4.896   2.006 -2.5477 -1.8113  0.0154
  443MOL0     H61086   5.099   4.899   1.796 -3.6831 -0.5302  3.9260
  443MOL0     H61087   5.074   5.075   1.839 -0.0570  0.2303 -1.9774
  443MOL0     H61088   5.206   5.041   1.663 -0.8886 -0.8487  0.0377
  443MOL0     H61089   5.286   5.133   1.799  0.2138 -0.1332  0.0015
  443MOL0     H61090   5.425   4.951   1.864  1.4819  2.9980 -1.6169
  443MOL0     H61091   5.344   4.843   1.739 -0.2705  0.4049 -3.6783
  443MOL0     H61092   5.419   4.779   1.543  0.3765  1.4025  2.0355
  443MOL0     H61093   5.446   4.726   1.181 -0.7807  1.3287 -1.4770
  443MOL0     H61094   5.290   4.732   1.267 -0.1600 -0.9188  2.1347
  443MOL0     H61095   5.425   4.646   1.339 -0.8885 -0.8977 -1.9561
  443MOL0     H61096   5.522   4.865   0.890 -0.9541 -0.4439 -1.9510
  443MOL0     H61097   5.545   4.884   0.644  2.5550  0.6149 -1.6523
  443MOL0     H61098   5.518   5.309   0.488  0.0336  0.3213  0.2237
  443MOL0     H61099   5.700   5.289   0.474 -0.3937 -0.3928  0.3903
  443MOL0     H61100   5.637   5.134   0.276  0.2471  1.5672 -2.0400
  443MOL0     H61101   5.468   5.211   0.289 -0.7140  0.4788  2.1116
  443MOL0     H61102   5.710   5.377   0.215 -0.3030  0.3803  2.2810
  443MOL0     H61103   5.541   5.421   0.234  1.9153  0.9143  1.2860
  443MOL0     H61104   5.501   5.236   0.066 -0.2924  0.8774 -3.0360
  443MOL0     H61105   5.668   5.253   0.030 -0.3501  0.5356 -0.5712
  443MOL0     H61106   5.532   5.401  -0.121  1.1216  0.3745 -0.0369
  443MOL0     H61107   5.469   5.487   0.023  1.0121  0.6637 -0.1324
  443MOL0     H61108   5.760   5.485  -0.064  0.9442  2.0586  0.6255
  443MOL0     H61109   5.705   5.570   0.069  3.4642 -0.0349 -1.1761
  443MOL0     H61110   5.742   5.712  -0.122 -2.0243  3.4933 -0.5400
  443MOL0     H61111   5.578   5.732  -0.054  0.7374  0.9453  1.3286
  443MOL0     H61112   5.485   5.600  -0.252  0.1502  1.2334 -1.2563
  443MOL0     H61113   5.644   5.559  -0.297 -1.4839 -3.7554  3.4787
  443MOL0     H61114   5.660   5.305   0.708  0.6880 -0.0258 -0.4013
  443MOL0     H61115   5.648   5.258   0.963 -3.8898 -0.5948  2.2357
  443MOL0     H61116   5.509   5.187   1.296 -0.2732 -0.0035 -1.7838
  443MOL0     H61117   5.548   5.176   1.553  3.3685 -1.7996 -0.2525
  443MOL0     H61118   4.904   6.377   2.503 -0.7887 -1.1239 -0.4413
  443MOL0     H61119   5.022   6.578   2.497 -2.7384 -2.2107  0.5600
  443MOL0     H61120   5.481   6.774   2.347  0.3645  3.5133 -1.6573
  443MOL0     H61121   5.672   6.912   2.349 -0.1720  1.7927 -1.4519
  443MOL0     H61122   5.795   7.101   2.374 -0.5978 -0.0676  0.4527
  443MOL0     H61123   5.904   7.175   2.493 -1.8964  0.4539  2.8447
  443MOL0     H61124   5.897   6.868   2.439 -0.2270 -0.4103  1.0443
  443MOL0     H61125   6.002   6.969   2.531 -2.4618  0.4284  1.6775
  443MOL0     H61126   6.047   7.101   2.297 -3.8653  1.6781 -0.2780
  443MOL0     H61127   6.112   6.940   2.334  0.7794  2.2948 -0.3553
  443MOL0     H61128   5.852   6.973   2.178  0.6933  2.9307 -3.1626
  443MOL0     H61129   5.959   6.829   2.190 -1.0379  0.2515 -0.9447
  443MOL0     H61130   6.197   7.024   1.911 -2.0077  1.2850 -0.7829
  443MOL0     H61131   5.596   7.037   2.738  1.8403  1.5217 -1.3040
  443MOL0     H61132   5.349   6.791   2.836  2.2623 -0.8856 -2.1550
  443MOL0     H61133   5.440   6.933   2.879  0.6081 -1.0117 -0.5579
  443MOL0     H61134   5.275   6.947   2.791 -0.8631  1.0157 -0.4727
  444MOL0     O61135   6.682   6.776   6.531  0.2096 -0.0617 -0.0097
  444MOL0     C61136   6.790   6.731   6.498 -0.7512 -0.5235 -0.8382
  444MOL0     O61137   6.809   6.615   6.425 -0.5183 -0.0673  0.2975
  444MOL0     C61138   6.707   6.548   6.392  0.0090  0.1286 -0.7327
  444MOL0     C61139   6.706   6.409   6.418 -0.3695  1.2535  0.4456
  444MOL0     C61140   6.595   6.342   6.371 -0.1585  0.1552 -0.2446
  444MOL0     C61141   6.483   6.397   6.302  0.1131 -0.0556  0.5861
  444MOL0     O61142   6.386   6.308   6.266 -0.1046 -0.0231  0.6429
  444MOL0     C61143   6.285   6.335   6.161  0.4011  0.0020  0.2042
  444MOL0     C61144   6.256   6.190   6.104 -0.0614 -0.2977 -0.9365
  444MOL0     C61145   6.370   6.121   6.029 -0.3603  0.2010  0.5157
  444MOL0     C61146   6.329   5.978   5.972 -0.5481 -0.6859 -0.5692
  444MOL0     C61147   6.451   5.902   5.934  0.0744 -0.3275 -0.6849
  444MOL0     C61148   6.398   5.760   5.891 -0.3828 -0.4398  0.1136
  444MOL0     C61149   6.503   5.667   5.837 -0.5104 -0.0711  0.5163
  444MOL0     C61150   6.575   5.693   5.701  0.0733 -0.6460 -1.6745
  444MOL0     N61151   6.577   5.576   5.616 -0.0244  0.1155 -0.6887
  444MOL0     C61152   6.478   5.539   5.526 -0.0220  0.5375  0.1597
  444MOL0     C61153   6.519   5.416   5.484  0.2241  0.0904 -0.0524
  444MOL0     C61154   6.430   5.315   5.418  0.3539  0.4162 -0.3081
  444MOL0     C61155   6.437   5.313   5.268 -0.6321  0.1971  0.0506
  444MOL0     C61156   6.392   5.442   5.201 -0.1031  0.2671 -0.0247
  444MOL0     C61157   6.389   5.425   5.053  0.6215  0.1994 -0.7272
  444MOL0     O61158   6.274   5.502   4.994 -0.1327 -0.3753  0.5046
  444MOL0     C61159   6.313   5.629   4.986  1.0861 -0.8008  0.0758
  444MOL0     C61160   6.271   5.712   5.091  0.6702 -0.4176  0.3016
  444MOL0     C61161   6.286   5.848   5.088 -0.6332 -0.2247 -0.1356
  444MOL0     C61162   6.221   5.909   5.203  0.6582 -0.0217 -0.4001
  444MOL0     C61163   6.355   5.908   4.979  0.5485  0.4251 -0.3590
  444MOL0     C61164   6.385   6.051   4.976 -0.4634  0.3462 -0.3575
  444MOL0     O61165   6.462   6.101   4.866 -0.0208  0.6615  0.1681
  444MOL0     C61166   6.495   6.234   4.879 -1.3532 -0.0797  1.7235
  444MOL0     C61167   6.628   6.262   4.913 -0.5203 -0.0329 -0.6515
  444MOL0     C61168   6.663   6.394   4.939 -0.1093  0.3317  0.2148
  444MOL0     C61169   6.575   6.498   4.925  0.4611  0.1055 -0.0010
  444MOL0     O61170   6.613   6.626   4.964 -0.4329  0.8528  0.2092
  444MOL0     C61171   6.537   6.737   4.915  0.6605 -0.1756 -0.5289
  444MOL0     C61172   6.624   6.859   4.933  0.3604 -0.1691 -0.1133
  444MOL0     C61173   6.749   6.853   4.846 -0.2114 -1.1889  0.2492
  444MOL0     C61174   6.809   6.993   4.818 -0.3296  0.9868 -0.3251
  444MOL0     C61175   6.723   7.075   4.725  0.4972 -0.1009  0.3967
  444MOL0     C61176   6.823   7.181   4.660 -0.3888 -0.2545 -0.7724
  444MOL0     C61177   6.756   7.291   4.583  0.3563  0.6388 -0.0215
  444MOL0     C61178   6.658   7.252   4.477  0.1602 -0.4376 -0.1304
  444MOL0    Cl61179   6.600   7.390   4.375  0.0986 -0.1159  0.2728
  444MOL0     C61180   6.444   6.467   4.884 -0.0066 -0.0546 -0.2956
  444MOL0     C61181   6.403   6.337   4.857 -0.0986 -1.0124  1.0965
  444MOL0     O61182   6.346   6.121   5.069 -0.0468  0.6330 -0.1184
  444MOL0     C61183   6.400   5.819   4.877  0.1309 -0.1962 -0.3139
  444MOL0     C61184   6.371   5.679   4.877 -0.3042  0.3883 -0.8694
  444MOL0     N61185   6.638   5.377   5.545  0.3009 -0.7863  0.1823
  444MOL0     N61186   6.671   5.472   5.622 -0.7500  0.2440  0.2382
  444MOL0     C61187   6.487   6.534   6.277 -0.2814 -0.1986  0.3410
  444MOL0     C61188   6.601   6.610   6.318  0.3957  0.3796  0.1594
  444MOL0     C61189   6.918   6.781   6.551  0.1966 -0.6419  0.3975
  444MOL0     C61190   7.015   6.689   6.582 -0.2858 -0.1021  0.5647
  444MOL0     C61191   7.134   6.724   6.657  0.3650 -0.1875  0.9356
  444MOL0     C61192   7.161   6.855   6.671 -0.7141 -1.0122 -0.1443
  444MOL0     O61193   7.281   6.913   6.725  0.9943 -0.6268 -0.3335
  444MOL0     C61194   7.367   6.828   6.793 -0.2480 -0.4640 -0.1069
  444MOL0     C61195   7.463   6.921   6.873 -0.0729  0.9451  0.3984
  444MOL0     C61196   7.403   7.015   6.975  0.0138  0.6490  0.5045
  444MOL0     C61197   7.283   6.967   7.059  0.3310  0.1658  0.0140
  444MOL0     C61198   7.254   7.080   7.151  0.7686  0.3655  0.9204
  444MOL0     C61199   7.221   7.170   7.228  0.2235 -0.5056  0.1357
  444MOL0     C61200   7.070   6.949   6.625  0.1744 -0.7235  1.1952
  444MOL0     C61201   6.940   6.913   6.575 -0.0323 -0.5359 -0.5559
  444MOL0     C61202   6.841   7.031   6.564 -0.3343  0.4322 -0.3701
  444MOL0     H61203   6.796   6.363   6.457  0.2959 -0.4368 -2.7529
  444MOL0     H61204   6.602   6.234   6.381  2.7369  0.2356 -0.5484
  444MOL0     H61205   6.309   6.399   6.075 -0.7032  3.1864  2.0932
  444MOL0     H61206   6.201   6.379   6.214  0.7801  4.7441 -2.5712
  444MOL0     H61207   6.223   6.122   6.182  0.3974 -0.7629 -1.1429
  444MOL0     H61208   6.177   6.212   6.032  1.6242  1.2063 -2.4452
  444MOL0     H61209   6.413   6.176   5.944 -2.0380  0.6184 -0.0907
  444MOL0     H61210   6.453   6.101   6.098  2.3128 -2.0409 -2.9680
  444MOL0     H61211   6.275   5.927   6.052  1.7351 -1.2137  0.7532
  444MOL0     H61212   6.263   5.990   5.886 -0.4883 -3.4996 -1.1290
  444MOL0     H61213   6.516   5.891   6.021  1.5155  0.7445 -1.5912
  444MOL0     H61214   6.499   5.957   5.853 -1.6320  2.7782  0.2402
  444MOL0     H61215   6.361   5.701   5.976 -1.3543 -0.3831 -0.2521
  444MOL0     H61216   6.317   5.776   5.820  0.6966  1.0849 -0.8290
  444MOL0     H61217   6.457   5.568   5.829 -0.8122  0.1469 -6.3050
  444MOL0     H61218   6.589   5.662   5.905  0.5690 -2.7043 -0.8702
  444MOL0     H61219   6.512   5.769   5.654  1.9238  1.6856 -0.6159
  444MOL0     H61220   6.679   5.722   5.719 -0.0128 -2.0461  1.8167
  444MOL0     H61221   6.401   5.608   5.491  2.8571  3.8020 -0.3366
  444MOL0     H61222   6.328   5.333   5.455  0.6828  0.5749  0.5520
  444MOL0     H61223   6.449   5.213   5.452 -2.0413 -0.1154 -0.4019
  444MOL0     H61224   6.541   5.286   5.249 -0.1963 -1.1135  3.5345
  444MOL0     H61225   6.377   5.234   5.223 -0.5660 -0.1512  0.5612
  444MOL0     H61226   6.292   5.465   5.238  0.5427 -1.0280  2.7632
  444MOL0     H61227   6.454   5.526   5.237 -2.1339  1.3373  1.1420
  444MOL0     H61228   6.485   5.451   5.006  0.9303 -1.5251 -1.0925
  444MOL0     H61229   6.375   5.319   5.031  2.7442 -0.2584 -0.1475
  444MOL0     H61230   6.214   5.658   5.167 -1.0805  0.6794 -0.1556
  444MOL0     H61231   6.158   5.989   5.165  0.6689 -0.3650 -1.1572
  444MOL0     H61232   6.292   5.947   5.278  1.8102  0.5450 -1.7357
  444MOL0     H61233   6.148   5.839   5.244 -0.0224 -1.9157 -4.3810
  444MOL0     H61234   6.708   6.189   4.905  1.5945  2.2728 -1.9419
  444MOL0     H61235   6.764   6.421   4.967  1.2825 -1.0281 -2.9791
  444MOL0     H61236   6.498   6.715   4.816  0.8166  0.8013 -0.8163
  444MOL0     H61237   6.456   6.738   4.989 -0.1413  1.6903 -1.3812
  444MOL0     H61238   6.557   6.945   4.926 -0.1207  0.1017  4.6709
  444MOL0     H61239   6.654   6.863   5.038 -2.6728 -2.4181  0.9816
  444MOL0     H61240   6.729   6.810   4.747 -1.2892  0.0114 -0.0714
  444MOL0     H61241   6.825   6.787   4.888  1.8131  0.0275 -1.3003
  444MOL0     H61242   6.901   6.963   4.767 -1.1327 -4.5515  0.8048
  444MOL0     H61243   6.827   7.048   4.911  2.4265  2.2359 -1.4973
  444MOL0     H61244   6.667   7.022   4.648  2.3149  0.3415 -1.3081
  444MOL0     H61245   6.649   7.136   4.776  1.3002  4.6586 -3.4022
  444MOL0     H61246   6.903   7.138   4.599  0.1746 -0.2021 -0.0872
  444MOL0     H61247   6.878   7.224   4.744 -0.7919 -0.1545 -0.5578
  444MOL0     H61248   6.823   7.363   4.535 -0.9639  1.3585 -0.8768
  444MOL0     H61249   6.697   7.353   4.652  0.6235  1.7876 -0.8060
  444MOL0     H61250   6.566   7.204   4.514  0.1945  0.0798  0.6586
  444MOL0     H61251   6.701   7.169   4.421  3.1533  1.6792 -1.1991
  444MOL0     H61252   6.376   6.548   4.860  0.0826 -0.1502 -0.8894
  444MOL0     H61253   6.303   6.303   4.830 -1.1400 -0.0451  3.4105
  444MOL0     H61254   6.455   5.866   4.797 -1.8735  0.1666 -1.5623
  444MOL0     H61255   6.405   5.617   4.795  0.3456  1.0487 -1.1070
  444MOL0     H61256   6.412   6.577   6.210  1.8183  1.5840 -1.0339
  444MOL0     H61257   6.612   6.715   6.292 -1.6324  1.5152  3.3249
  444MOL0     H61258   7.006   6.586   6.549  0.0610 -0.2694  0.9902
  444MOL0     H61259   7.209   6.651   6.687  3.2325  1.7040 -1.0863
  444MOL0     H61260   7.319   6.758   6.863  0.9288 -1.2459 -0.0558
  444MOL0     H61261   7.420   6.759   6.727 -2.1636 -0.4052 -1.7917
  444MOL0     H61262   7.516   6.986   6.803 -0.8128  1.8910  0.6855
  444MOL0     H61263   7.522   6.846   6.926 -2.3255 -1.2886 -0.0957
  444MOL0     H61264   7.485   7.037   7.044  0.7287  3.8125 -1.1784
  444MOL0     H61265   7.383   7.109   6.922  0.1962  1.0406  1.1170
  444MOL0     H61266   7.314   6.878   7.114  0.4813  0.4246  0.3526
  444MOL0     H61267   7.194   6.952   6.997  1.2278  4.1773 -2.6167
  444MOL0     H61268   7.193   7.256   7.285  2.8234  1.5549 -1.5009
  444MOL0     H61269   7.089   7.056   6.634 -1.3406 -0.0781 -1.9151
  444MOL0     H61270   6.902   7.119   6.538  2.0496 -1.3835 -1.3894
  444MOL0     H61271   6.764   7.017   6.488 -0.4775  1.9854 -0.5497
  444MOL0     H61272   6.793   7.053   6.659 -0.1467  1.8578 -0.5757
  445MOL0     O61273   6.230   6.246   3.067  0.6552 -0.7853  0.0924
  445MOL0     C61274   6.291   6.218   2.961 -0.7290 -0.5034 -0.4931
  445MOL0     O61275   6.269   6.277   2.840 -0.1750  0.4299 -0.2949
  445MOL0     C61276   6.264   6.416   2.832  0.6543 -0.6375  0.2239
  445MOL0     C61277   6.323   6.477   2.726 -0.8266 -0.0450  0.6765
  445MOL0     C61278   6.343   6.617   2.722 -0.0407  0.3788  0.3863
  445MOL0     C61279   6.285   6.702   2.803 -0.2518  0.3093 -0.3754
  445MOL0     O61280   6.307   6.839   2.791 -0.0529 -0.8303 -0.6364
  445MOL0     C61281   6.197   6.924   2.830  0.1582 -0.9939 -0.0419
  445MOL0     C61282   6.229   7.072   2.812  0.2676 -0.3841 -0.7492
  445MOL0     C61283   6.099   7.151   2.815 -0.6165  0.1653  0.6176
  445MOL0     C61284   6.117   7.296   2.790 -1.2697  0.7691  1.3004
  445MOL0     C61285   6.023   7.386   2.853 -0.0311 -0.2781 -0.2193
  445MOL0     C61286   6.063   7.521   2.807  0.1524 -0.3194 -0.6672
  445MOL0     C61287   5.982   7.626   2.894 -0.4867  0.8291 -0.2584
  445MOL0     C61288   6.025   7.771   2.857  0.4292  1.1948  0.4625
  445MOL0     N61289   6.004   7.800   2.712 -0.1106  0.5130 -0.4867
  445MOL0     C61290   5.882   7.829   2.663  0.3523 -0.4809  0.3657
  445MOL0     C61291   5.900   7.807   2.529 -0.0834 -0.0362 -0.0232
  445MOL0     C61292   5.782   7.798   2.433 -0.4903 -0.2613  0.9602
  445MOL0     C61293   5.754   7.667   2.373 -0.4135  0.0126 -0.3214
  445MOL0     C61294   5.720   7.555   2.474  0.4788 -0.3030  0.6744
  445MOL0     C61295   5.580   7.581   2.537 -0.0830 -0.1590  0.3678
  445MOL0     O61296   5.601   7.638   2.659 -0.8394 -0.1082  0.0863
  445MOL0     C61297   5.477   7.642   2.713  0.7169  1.1456 -0.5336
  445MOL0     C61298   5.426   7.767   2.720 -0.1851  0.4998  0.2002
  445MOL0     C61299   5.295   7.795   2.756  0.0721 -0.9442 -0.7740
  445MOL0     C61300   5.262   7.943   2.748 -0.7250  0.3044  0.0926
  445MOL0     C61301   5.205   7.695   2.779  0.3092 -0.4666 -0.8162
  445MOL0     C61302   5.063   7.712   2.798 -0.3923  0.0743 -0.3821
  445MOL0     O61303   4.976   7.613   2.759 -1.1323  0.2519 -0.2547
  445MOL0     C61304   4.848   7.640   2.756  0.0680 -0.4600 -0.3168
  445MOL0     C61305   4.793   7.732   2.668 -0.4629 -0.2473  0.0962
  445MOL0     C61306   4.654   7.752   2.665 -0.0059 -0.8286 -0.4156
  445MOL0     C61307   4.573   7.677   2.753 -0.2037  0.2052 -0.5814
  445MOL0     O61308   4.433   7.681   2.754  0.4579  0.0706  0.2621
  445MOL0     C61309   4.366   7.737   2.639 -0.0810  0.9082  0.1861
  445MOL0     C61310   4.245   7.799   2.679  0.5242 -0.5246 -0.5138
  445MOL0     C61311   4.275   7.922   2.762 -0.3176 -0.8049  0.0864
  445MOL0     C61312   4.132   7.974   2.796  0.1023 -0.3428 -0.6353
  445MOL0     C61313   4.127   8.080   2.907  0.7808 -0.8013  0.3565
  445MOL0     C61314   4.179   8.211   2.843 -0.4311 -0.0472  0.7480
  445MOL0     C61315   4.121   8.328   2.927  1.0277 -0.0804 -0.3379
  445MOL0     C61316   4.195   8.452   2.883  0.8334  0.2532 -0.1725
  445MOL0    Cl61317   4.152   8.597   2.975  0.2751  0.1939  0.1610
  445MOL0     C61318   4.628   7.580   2.841  0.4788  0.3026  0.4927
  445MOL0     C61319   4.762   7.566   2.852 -0.6595  0.5319  0.1557
  445MOL0     O61320   5.021   7.822   2.834 -0.0089  1.0980  0.0046
  445MOL0     C61321   5.249   7.563   2.787 -0.6144  0.0071 -0.4099
  445MOL0     C61322   5.389   7.540   2.755  0.7727 -0.2344  0.3423
  445MOL0     N61323   6.027   7.772   2.508 -0.2424 -0.6823  1.1041
  445MOL0     N61324   6.095   7.780   2.614 -0.0865 -0.4344  0.8609
  445MOL0     C61325   6.226   6.646   2.919 -0.5566  0.4026  0.1944
  445MOL0     C61326   6.214   6.502   2.934 -0.0960 -0.0658 -0.1860
  445MOL0     C61327   6.392   6.112   2.966  0.5488 -0.0532 -0.1685
  445MOL0     C61328   6.489   6.150   3.059  0.0229  0.0299  0.4266
  445MOL0     C61329   6.598   6.068   3.075 -0.5973  1.3883 -1.7395
  445MOL0     C61330   6.606   5.938   3.012 -0.2188 -0.0717  0.0676
  445MOL0     O61331   6.718   5.867   3.040 -0.1304 -0.5431  0.8339
  445MOL0     C61332   6.704   5.728   3.065 -0.0993 -0.1183  0.1104
  445MOL0     C61333   6.833   5.696   3.139 -0.3604 -0.4589  0.9182
  445MOL0     C61334   6.837   5.546   3.168 -1.0424  0.0738 -0.1164
  445MOL0     C61335   6.835   5.436   3.056 -0.8121  0.1850  0.5018
  445MOL0     C61336   6.875   5.308   3.108 -1.2414 -0.2274 -0.7105
  445MOL0     C61337   6.913   5.200   3.153 -0.1337  0.8975  0.1624
  445MOL0     C61338   6.499   5.897   2.927  0.1190  0.4509  0.5650
  445MOL0     C61339   6.393   5.990   2.895 -0.0452  0.1605 -0.8268
  445MOL0     C61340   6.289   5.957   2.797  1.1592 -0.2462  0.3020
  445MOL0     H61341   6.371   6.415   2.651  0.8070 -0.5055  2.0482
  445MOL0     H61342   6.400   6.656   2.638 -0.0690 -2.4878 -1.0615
  445MOL0     H61343   6.177   6.915   2.937  0.7233  1.8855  0.3914
  445MOL0     H61344   6.110   6.888   2.775 -0.2945 -2.5205  1.5856
  445MOL0     H61345   6.295   7.092   2.897 -0.6226  1.2884 -0.4088
  445MOL0     H61346   6.283   7.089   2.718 -0.1171 -0.9235 -1.0692
  445MOL0     H61347   6.029   7.111   2.740  0.8158 -0.6635 -0.3325
  445MOL0     H61348   6.066   7.138   2.918  2.3337  0.3846  1.6672
  445MOL0     H61349   6.217   7.327   2.821  1.7587 -2.0668 -4.1694
  445MOL0     H61350   6.119   7.310   2.681  0.7987 -1.5367  0.9333
  445MOL0     H61351   6.017   7.369   2.961 -0.7667 -2.2071 -0.5348
  445MOL0     H61352   5.918   7.379   2.824 -0.8028 -0.0455  2.2643
  445MOL0     H61353   6.169   7.534   2.829 -0.1052  0.7417  0.0209
  445MOL0     H61354   6.037   7.528   2.701 -0.5550 -0.7327 -0.5288
  445MOL0     H61355   6.003   7.600   2.999  2.0288 -1.2546 -1.1756
  445MOL0     H61356   5.875   7.619   2.873 -0.8700 -2.2728  1.9857
  445MOL0     H61357   5.970   7.839   2.922 -0.5363 -0.5730  1.5580
  445MOL0     H61358   6.134   7.774   2.871  0.2387 -0.1544  2.6785
  445MOL0     H61359   5.795   7.841   2.727  3.6315 -0.3087  5.3746
  445MOL0     H61360   5.792   7.875   2.356 -0.0203 -0.4984  0.7780
  445MOL0     H61361   5.693   7.824   2.491 -1.1559 -1.0328  0.2924
  445MOL0     H61362   5.680   7.674   2.292  1.5567  2.2688 -2.0711
  445MOL0     H61363   5.843   7.644   2.315  2.1825  2.6610  2.2605
  445MOL0     H61364   5.716   7.459   2.423  2.3661 -0.7622  1.3140
  445MOL0     H61365   5.780   7.568   2.564  0.0517 -1.0287  1.0745
  445MOL0     H61366   5.514   7.644   2.476  0.2487  1.8548  1.9680
  445MOL0     H61367   5.547   7.479   2.553  0.8782 -0.3400  1.3133
  445MOL0     H61368   5.490   7.846   2.681  1.6635 -0.0120  1.9786
  445MOL0     H61369   5.354   7.994   2.718 -1.1762  1.3186  0.3890
  445MOL0     H61370   5.226   7.984   2.843  2.3478  2.1096  0.6307
  445MOL0     H61371   5.171   7.959   2.689 -0.8666  1.2155  0.5344
  445MOL0     H61372   4.866   7.793   2.615  1.3629 -0.8162  1.8188
  445MOL0     H61373   4.608   7.821   2.595 -1.4878  1.3564  2.4521
  445MOL0     H61374   4.412   7.823   2.588 -1.1836  2.4148  1.6159
  445MOL0     H61375   4.346   7.657   2.568  1.6331  0.6101 -0.0063
  445MOL0     H61376   4.200   7.842   2.589 -4.0018 -0.4874  1.5130
  445MOL0     H61377   4.176   7.730   2.727 -2.3884  1.8416 -0.9911
  445MOL0     H61378   4.331   7.994   2.700 -0.3430 -0.5616  0.3442
  445MOL0     H61379   4.327   7.904   2.857 -0.4783  3.6374  1.2684
  445MOL0     H61380   4.064   7.902   2.842  0.1361  1.6324  2.8254
  445MOL0     H61381   4.082   8.003   2.703  0.2061 -2.1412 -1.2940
  445MOL0     H61382   4.021   8.103   2.919  1.1110  3.4168 -2.5924
  445MOL0     H61383   4.173   8.046   3.000  0.2720  1.2278  1.4142
  445MOL0     H61384   4.154   8.222   2.737  1.6254 -0.0400  0.2192
  445MOL0     H61385   4.288   8.204   2.840 -0.4653 -0.3922 -0.1116
  445MOL0     H61386   4.140   8.308   3.033  1.0060  0.9276 -0.1291
  445MOL0     H61387   4.015   8.353   2.913  1.2790  1.5532  0.3801
  445MOL0     H61388   4.171   8.469   2.778  3.8510  0.4122 -0.9339
  445MOL0     H61389   4.304   8.441   2.879  1.1081  2.5039 -0.2842
  445MOL0     H61390   4.567   7.505   2.892 -1.1216  0.9191 -0.4215
  445MOL0     H61391   4.800   7.476   2.900  0.5211  0.3146 -1.1329
  445MOL0     H61392   5.178   7.482   2.802  2.0181 -2.9542 -2.5579
  445MOL0     H61393   5.439   7.444   2.756  0.3569 -0.4521  1.3578
  445MOL0     H61394   6.179   6.705   2.997  2.4348  2.3565  0.6457
  445MOL0     H61395   6.143   6.477   3.013  1.5178 -1.0386  1.0242
  445MOL0     H61396   6.486   6.249   3.105 -0.9678  0.3138 -0.2234
  445MOL0     H61397   6.676   6.094   3.146 -0.7852 -1.6465 -0.2496
  445MOL0     H61398   6.617   5.694   3.122 -1.1026  2.1740  0.0420
  445MOL0     H61399   6.711   5.679   2.967  0.8718  4.3343 -2.3040
  445MOL0     H61400   6.847   5.750   3.234  1.2599 -1.0195  1.0381
  445MOL0     H61401   6.905   5.718   3.059 -4.0844  0.6272 -2.4382
  445MOL0     H61402   6.926   5.537   3.232  0.0250 -0.1117 -1.5808
  445MOL0     H61403   6.747   5.525   3.227  0.1684 -0.8342  1.4989
  445MOL0     H61404   6.913   5.444   2.980  0.9746 -0.2742  2.2129
  445MOL0     H61405   6.743   5.436   2.998  1.8507 -1.1771 -4.2239
  445MOL0     H61406   6.938   5.099   3.178 -2.0742  0.4077  0.2890
  445MOL0     H61407   6.505   5.796   2.888 -0.2472 -0.5454  2.9183
  445MOL0     H61408   6.192   5.983   2.840  2.1480  1.4775  1.6645
  445MOL0     H61409   6.304   6.025   2.713  3.3627 -0.1943  0.6869
  445MOL0     H61410   6.297   5.850   2.778  0.2931 -0.6593  2.0416
  446MOL0     O61411   3.471   6.217   8.415  0.5237 -0.1078  0.0091
  446MOL0     C61412   3.372   6.279   8.380 -0.8766  0.7282 -0.6313
  446MOL0     O61413   3.246   6.234   8.383  0.3817 -0.0112 -0.8825
  446MOL0     C61414   3.212   6.113   8.436  1.2343 -0.7153 -0.3750
  446MOL0     C61415   3.095   6.104   8.512  0.3134 -0.5127  0.8456
  446MOL0     C61416   3.059   5.978   8.563  0.1780  0.5753  0.5595
  446MOL0     C61417   3.142   5.867   8.538  0.4980  0.2731 -0.0044
  446MOL0     O61418   3.088   5.759   8.603 -0.5190 -0.6319  0.2745
  446MOL0     C61419   3.166   5.634   8.596 -0.7201  0.0588 -0.5094
  446MOL0     C61420   3.108   5.516   8.693 -1.0512  0.4466 -1.3050
  446MOL0     C61421   2.975   5.460   8.656  0.3789  1.1289 -0.5539
  446MOL0     C61422   2.950   5.325   8.718 -0.0094 -0.1793  0.4303
  446MOL0     C61423   2.796   5.293   8.727 -0.4191 -0.3466  0.2059
  446MOL0     C61424   2.738   5.260   8.591 -0.7555  0.3228 -0.0734
  446MOL0     C61425   2.589   5.266   8.613 -0.4873  0.6521 -0.1214
  446MOL0     C61426   2.513   5.229   8.486  0.1910  0.3273  0.5078
  446MOL0     N61427   2.561   5.286   8.372 -0.4862 -0.1657 -0.2324
  446MOL0     C61428   2.663   5.230   8.292 -1.1475 -0.1918 -0.2814
  446MOL0     C61429   2.678   5.314   8.178 -0.2425  0.9460 -0.3478
  446MOL0     C61430   2.780   5.293   8.067  0.0822  0.0577  0.1773
  446MOL0     C61431   2.911   5.371   8.079  0.2732 -0.0947  0.0310
  446MOL0     C61432   3.006   5.331   8.193 -0.0265 -0.2527  0.4232
  446MOL0     C61433   3.025   5.176   8.205  0.1541  1.0431  0.4286
  446MOL0     O61434   3.099   5.144   8.320  0.4482  0.2689  0.0575
  446MOL0     C61435   3.229   5.171   8.312  0.1890 -0.8847 -0.6041
  446MOL0     C61436   3.274   5.288   8.369  0.0800 -0.6980 -0.3256
  446MOL0     C61437   3.410   5.332   8.359  0.1163  0.4026 -0.5425
  446MOL0     C61438   3.453   5.470   8.419  0.6332  0.4886  0.1297
  446MOL0     C61439   3.507   5.241   8.313 -0.5587  0.7190 -0.3317
  446MOL0     C61440   3.651   5.259   8.315 -0.6568 -0.1426 -0.5660
  446MOL0     O61441   3.718   5.188   8.220 -0.2567  0.3456 -0.2367
  446MOL0     C61442   3.854   5.209   8.200  0.4152  0.0801 -0.4099
  446MOL0     C61443   3.912   5.340   8.193  0.2932 -0.4886  0.1414
  446MOL0     C61444   4.059   5.363   8.182 -0.0843 -0.8888 -0.7561
  446MOL0     C61445   4.143   5.250   8.183 -0.6410 -0.3048  0.4006
  446MOL0     O61446   4.277   5.259   8.189 -0.6381  0.5307  0.6058
  446MOL0     C61447   4.334   5.385   8.151  0.2681  0.0017  0.4163
  446MOL0     C61448   4.488   5.365   8.143  0.1065  0.6955  0.2184
  446MOL0     C61449   4.527   5.257   8.033  0.4244  0.2906 -0.7262
  446MOL0     C61450   4.676   5.219   8.047  0.1423  0.3217 -0.4126
  446MOL0     C61451   4.741   5.111   7.955  0.7951 -0.2489 -0.3431
  446MOL0     C61452   4.887   5.112   7.998 -0.3632  0.1060 -0.4285
  446MOL0     C61453   4.955   4.997   7.915  1.2246  0.3532 -1.1543
  446MOL0     C61454   5.070   4.939   7.994 -0.1668 -0.5235 -0.3054
  446MOL0    Cl61455   5.214   5.042   7.967  0.4128 -0.4345  0.2718
  446MOL0     C61456   4.083   5.129   8.184 -0.3810  1.7353 -1.2049
  446MOL0     C61457   3.945   5.100   8.190 -1.0633 -0.4729 -0.1829
  446MOL0     O61458   3.700   5.321   8.416 -1.0157 -0.0342  0.5495
  446MOL0     C61459   3.457   5.119   8.257 -0.0463  0.9978 -0.4541
  446MOL0     C61460   3.319   5.092   8.247 -0.7777  0.7018  0.2633
  446MOL0     N61461   2.586   5.415   8.194  0.2906  0.7899 -1.2547
  446MOL0     N61462   2.529   5.402   8.315 -0.0842  0.3537  0.2276
  446MOL0     C61463   3.247   5.871   8.454 -0.1051  0.1152 -0.5849
  446MOL0     C61464   3.285   5.999   8.409 -1.1535  0.3192  0.6742
  446MOL0     C61465   3.397   6.421   8.329 -0.0962  0.2668  1.0496
  446MOL0     C61466   3.531   6.466   8.322  0.8215 -0.7399  0.0525
  446MOL0     C61467   3.560   6.592   8.269  0.1134 -0.6922 -0.6113
  446MOL0     C61468   3.465   6.681   8.229  0.3764 -0.8102  0.0529
  446MOL0     O61469   3.527   6.802   8.192 -0.4634  0.6261  0.2080
  446MOL0     C61470   3.443   6.882   8.116  0.3360  0.4782  0.4066
  446MOL0     C61471   3.503   6.997   8.043 -0.2937 -0.1302 -0.5012
  446MOL0     C61472   3.549   7.110   8.137 -0.1064  0.1318  0.9027
  446MOL0     C61473   3.609   7.229   8.061  0.1040  0.4549 -0.2826
  446MOL0     C61474   3.501   7.296   7.986 -0.5881 -0.5376 -0.5036
  446MOL0     C61475   3.403   7.345   7.927 -0.0852 -0.5781  0.9168
  446MOL0     C61476   3.329   6.630   8.246  0.0298 -0.5110  0.5143
  446MOL0     C61477   3.288   6.504   8.286 -1.3437  0.1687  0.0582
  446MOL0     C61478   3.139   6.477   8.286 -0.1367  0.4634 -0.2560
  446MOL0     H61479   3.020   6.181   8.529 -1.3496 -2.5139  3.1964
  446MOL0     H61480   2.973   5.949   8.622  1.0143 -1.2237  0.9531
  446MOL0     H61481   3.274   5.639   8.612 -0.8963 -1.5359  1.6804
  446MOL0     H61482   3.166   5.595   8.494 -1.7633 -0.6487 -0.2546
  446MOL0     H61483   3.180   5.434   8.681  1.3643  2.0422  1.0118
  446MOL0     H61484   3.118   5.548   8.797  0.3350  0.0096 -1.2849
  446MOL0     H61485   2.890   5.526   8.676  0.3242  0.6397  0.9449
  446MOL0     H61486   2.967   5.437   8.549 -3.1102 -0.4945 -0.1045
  446MOL0     H61487   3.010   5.251   8.664  2.5269  2.6740 -0.9522
  446MOL0     H61488   2.977   5.335   8.824  1.6070 -0.3436  0.0683
  446MOL0     H61489   2.747   5.378   8.776 -0.1245 -2.4047  4.6232
  446MOL0     H61490   2.775   5.215   8.801 -2.9489 -0.8213 -0.9237
  446MOL0     H61491   2.773   5.333   8.517  0.7301 -1.8552 -1.6228
  446MOL0     H61492   2.777   5.170   8.543 -0.0514  0.0482  0.9889
  446MOL0     H61493   2.559   5.365   8.650 -0.6155 -0.5688  3.3733
  446MOL0     H61494   2.565   5.206   8.701 -1.6481 -2.1634 -2.2263
  446MOL0     H61495   2.528   5.120   8.483 -1.0616  0.1464 -1.5085
  446MOL0     H61496   2.412   5.264   8.506  0.3705  0.4159  1.2713
  446MOL0     H61497   2.717   5.139   8.314  1.0526  0.9308 -0.8229
  446MOL0     H61498   2.748   5.331   7.970  5.5823  3.0721 -0.8146
  446MOL0     H61499   2.792   5.185   8.050  2.3585  0.2283  0.4209
  446MOL0     H61500   2.973   5.346   7.992  0.3486 -0.7691  0.2723
  446MOL0     H61501   2.900   5.480   8.085  3.4596  0.5416 -2.5264
  446MOL0     H61502   3.104   5.377   8.180  0.3836 -1.6585 -2.0729
  446MOL0     H61503   2.966   5.371   8.286  3.4733 -0.7132  2.3120
  446MOL0     H61504   2.925   5.135   8.222  1.1920 -1.2632  1.3391
  446MOL0     H61505   3.063   5.145   8.106 -0.7464  1.0482  0.0743
  446MOL0     H61506   3.196   5.346   8.418  1.1397 -0.9934  1.7836
  446MOL0     H61507   3.376   5.543   8.394  0.5867  1.2536  2.2916
  446MOL0     H61508   3.544   5.505   8.370  2.6139 -1.5848  2.0852
  446MOL0     H61509   3.459   5.481   8.527 -1.6081  2.2911  0.1346
  446MOL0     H61510   3.842   5.421   8.207 -1.9616 -2.5709  1.8542
  446MOL0     H61511   4.088   5.468   8.179 -3.7342  0.2980  0.0142
  446MOL0     H61512   4.290   5.416   8.056 -0.0123 -3.1382 -0.5958
  446MOL0     H61513   4.312   5.458   8.230  0.9402 -1.3509  1.9066
  446MOL0     H61514   4.523   5.461   8.103 -3.1521  1.9432  0.0641
  446MOL0     H61515   4.531   5.350   8.242  2.1826 -0.5536 -0.7808
  446MOL0     H61516   4.513   5.290   7.929  0.4347  2.3175 -0.1175
  446MOL0     H61517   4.469   5.166   8.051 -1.1767  1.1162 -1.5020
  446MOL0     H61518   4.698   5.186   8.149  1.4942  2.4863  0.0787
  446MOL0     H61519   4.735   5.311   8.038  2.5254 -1.2863 -2.7269
  446MOL0     H61520   4.688   5.016   7.969 -1.3220  1.3042  4.0408
  446MOL0     H61521   4.742   5.151   7.853  0.3627  0.0644 -0.2271
  446MOL0     H61522   4.891   5.118   8.107  1.5876  0.9420 -0.5034
  446MOL0     H61523   4.921   5.210   7.963 -1.4058  0.7671  0.3519
  446MOL0     H61524   4.989   5.034   7.818  0.2570  0.6814 -1.3809
  446MOL0     H61525   4.876   4.921   7.915  0.5136  0.8351  2.9908
  446MOL0     H61526   5.096   4.844   7.947  1.6969 -1.2175  1.9314
  446MOL0     H61527   5.054   4.926   8.101 -0.9863  1.0018 -0.2119
  446MOL0     H61528   4.121   5.030   8.159 -1.2082  1.6535 -2.1770
  446MOL0     H61529   3.900   5.001   8.189 -0.3180 -0.8358  0.5006
  446MOL0     H61530   3.526   5.047   8.214  1.6861  2.2466  0.1252
  446MOL0     H61531   3.287   5.008   8.186 -1.9071  0.9521  0.5000
  446MOL0     H61532   3.295   5.783   8.410 -0.9965 -0.3187 -0.7108
  446MOL0     H61533   3.368   6.010   8.339 -1.4724 -3.7809 -0.6770
  446MOL0     H61534   3.613   6.403   8.356  2.1489  0.4421 -0.7897
  446MOL0     H61535   3.665   6.622   8.270  0.4826 -1.8935  0.7577
  446MOL0     H61536   3.391   6.824   8.039 -0.7054  0.2398  1.2623
  446MOL0     H61537   3.358   6.909   8.180 -0.9966 -1.4591 -0.4355
  446MOL0     H61538   3.418   7.034   7.984 -0.8845 -2.6011 -1.3108
  446MOL0     H61539   3.585   6.973   7.975  3.1131 -0.1008  3.2371
  446MOL0     H61540   3.462   7.143   8.194  2.0226 -0.6958  4.9636
  446MOL0     H61541   3.633   7.080   8.200  0.3755  0.9435  0.6708
  446MOL0     H61542   3.685   7.196   7.990 -0.0391  1.6467 -1.0100
  446MOL0     H61543   3.642   7.299   8.139 -1.9507  0.9983  0.1671
  446MOL0     H61544   3.319   7.375   7.868  1.8252 -1.0378 -2.3222
  446MOL0     H61545   3.257   6.708   8.223  0.0093 -1.0509 -1.4295
  446MOL0     H61546   3.075   6.563   8.263  0.3476  0.1758 -3.0408
  446MOL0     H61547   3.114   6.391   8.223  0.3353 -0.9974  1.4550
  446MOL0     H61548   3.112   6.455   8.390  0.9559  0.4554  0.0384
  447MOL0     O61549   8.157   9.822   9.043  0.7595 -0.2290  0.1224
  447MOL0     C61550   8.087   9.755   8.965  0.5318  0.7258 -0.4805
  447MOL0     O61551   8.109   9.720   8.839 -0.0936 -0.2909  0.2802
  447MOL0     C61552   8.195   9.795   8.760  0.0712 -0.1105  0.4393
  447MOL0     C61553   8.249   9.928   8.780  0.0030 -0.2107 -0.4062
  447MOL0     C61554   8.332   9.980   8.681 -0.7982 -0.3765  0.0901
  447MOL0     C61555   8.361   9.909   8.564 -0.5853  0.6691 -0.0255
  447MOL0     O61556   8.454   9.953   8.464 -0.0215  0.3909 -0.3530
  447MOL0     C61557   8.584   9.988   8.507  0.1649 -0.2398 -0.0671
  447MOL0     C61558   8.640  10.056   8.379  0.4575 -0.4253 -0.0451
  447MOL0     C61559   8.606  10.202   8.372 -0.4003  0.7790  0.0432
  447MOL0     C61560   8.675  10.257   8.246  0.1127 -0.3513  0.4432
  447MOL0     C61561   8.624  10.406   8.213 -0.0040 -0.6396  0.5714
  447MOL0     C61562   8.705  10.485   8.099  0.8543  0.6514  0.2172
  447MOL0     C61563   8.620  10.605   8.048  1.0963  0.8962 -0.4239
  447MOL0     C61564   8.543  10.595   7.908 -0.5034  0.5703 -0.0003
  447MOL0     N61565   8.641  10.572   7.799  0.0533  0.2631 -0.1175
  447MOL0     C61566   8.695  10.680   7.736 -0.3832 -0.2542  0.9975
  447MOL0     C61567   8.730  10.636   7.607  0.9709 -0.2710 -0.0578
  447MOL0     C61568   8.761  10.716   7.486  0.3503 -0.2876 -0.7374
  447MOL0     C61569   8.916  10.754   7.478 -0.4756 -0.6508  1.4334
  447MOL0     C61570   9.013  10.638   7.428 -0.0690  0.2527 -0.3877
  447MOL0     C61571   9.163  10.662   7.478  0.3603  0.0889  1.4786
  447MOL0     O61572   9.239  10.733   7.375  0.6026 -0.2694 -0.5960
  447MOL0     C61573   9.370  10.749   7.410 -1.2865 -0.8527  0.7789
  447MOL0     C61574   9.431  10.730   7.535  0.7992  0.4272  0.2492
  447MOL0     C61575   9.568  10.749   7.550 -0.1626  1.1790  0.4448
  447MOL0     C61576   9.620  10.725   7.687  0.3952  0.1518  0.2207
  447MOL0     C61577   9.653  10.778   7.444  0.2812  0.4023  0.0163
  447MOL0     C61578   9.799  10.792   7.452  0.1480  0.6477 -0.5721
  447MOL0     O61579   9.863  10.842   7.340 -0.4282  0.9235 -0.0883
  447MOL0     C61580   9.996  10.858   7.346 -0.4496 -0.5147  0.8121
  447MOL0     C61581  10.083  10.801   7.255  0.0733  0.3772  0.2303
  447MOL0     C61582  10.216  10.822   7.258 -0.7031 -0.4758 -0.3022
  447MOL0     C61583  10.266  10.912   7.362  0.6828 -0.2206  0.6129
  447MOL0     O61584  10.398  10.961   7.363  0.4818  0.3808 -0.0876
  447MOL0     C61585  10.455  11.006   7.237 -0.1052 -0.3578  1.4043
  447MOL0     C61586  10.502  11.154   7.256 -0.3889  0.1445 -0.4168
  447MOL0     C61587  10.582  11.186   7.134 -0.5578  0.0176  0.4448
  447MOL0     C61588  10.584  11.337   7.122 -0.5358  0.2617  0.0004
  447MOL0     C61589  10.660  11.386   6.994  0.5978  0.7158 -0.8531
  447MOL0     C61590  10.606  11.321   6.864 -0.6290 -0.0786 -0.1797
  447MOL0     C61591  10.633  11.413   6.746 -0.2393  0.1473  1.6874
  447MOL0     C61592  10.592  11.350   6.606 -0.3919 -0.7610 -0.5759
  447MOL0    Cl61593  10.675  11.197   6.581 -0.2355 -0.3976  0.6472
  447MOL0     C61594  10.179  10.978   7.442  0.3226 -0.6892 -0.2937
  447MOL0     C61595  10.041  10.951   7.437  0.1706  0.0157  0.3472
  447MOL0     O61596   9.860  10.752   7.551  0.4533 -0.4266  0.3423
  447MOL0     C61597   9.588  10.816   7.322  0.0926  1.0640  0.3384
  447MOL0     C61598   9.451  10.799   7.303 -1.4757  0.2867  0.5927
  447MOL0     N61599   8.703  10.503   7.604  0.2395  0.1008 -0.1789
  447MOL0     N61600   8.648  10.469   7.710 -0.1449  0.9454 -0.4622
  447MOL0     C61601   8.301   9.789   8.542  0.0676 -0.7012  0.5905
  447MOL0     C61602   8.221   9.734   8.635  0.5391  1.0137 -0.4151
  447MOL0     C61603   7.964   9.695   9.020  0.1826  0.2512  0.0442
  447MOL0     C61604   7.944   9.556   9.007  1.2875 -0.0994 -0.1214
  447MOL0     C61605   7.834   9.494   9.060  0.7582 -0.0349 -1.0790
  447MOL0     C61606   7.740   9.574   9.132 -0.0004  0.8097  0.1079
  447MOL0     O61607   7.637   9.528   9.204 -0.4578 -0.2148  0.3985
  447MOL0     C61608   7.647   9.393   9.250 -0.4186  0.2160  0.0115
  447MOL0     C61609   7.529   9.372   9.350 -0.2167  0.5693  0.5676
  447MOL0     C61610   7.392   9.399   9.280  0.1484  0.5433 -1.4378
  447MOL0     C61611   7.261   9.360   9.362  0.7730  0.8025  0.1073
  447MOL0     C61612   7.243   9.439   9.482  0.6586  0.0940  0.6021
  447MOL0     C61613   7.228   9.511   9.579 -0.0944 -0.9565 -0.2315
  447MOL0     C61614   7.751   9.722   9.132  0.0204  1.0037 -0.3055
  447MOL0     C61615   7.864   9.778   9.075  0.0035 -0.0542 -0.5018
  447MOL0     C61616   7.875   9.931   9.064  0.6246 -0.3357  0.1942
  447MOL0     H61617   8.216   9.981   8.869  0.6615 -0.5410  0.0450
  447MOL0     H61618   8.374  10.080   8.690 -1.9580  0.0762  0.6152
  447MOL0     H61619   8.647   9.903   8.536 -0.0331 -0.3100  0.1565
  447MOL0     H61620   8.594  10.048   8.599 -2.9551 -1.8379  1.4867
  447MOL0     H61621   8.749  10.043   8.384  0.4114 -0.7080  0.3293
  447MOL0     H61622   8.598  10.010   8.290 -0.2610 -0.7953  0.4720
  447MOL0     H61623   8.497  10.212   8.363 -0.4025  2.4469  1.3637
  447MOL0     H61624   8.637  10.261   8.459  1.7520 -1.2858  0.7808
  447MOL0     H61625   8.783  10.263   8.264 -0.1678  1.9715  1.7822
  447MOL0     H61626   8.655  10.195   8.158  1.1993  0.4325 -0.3774
  447MOL0     H61627   8.629  10.459   8.308  0.0100 -1.9763  1.3366
  447MOL0     H61628   8.516  10.401   8.199 -0.1416 -1.5665  1.8350
  447MOL0     H61629   8.791  10.534   8.144  1.3586 -2.1707  2.6148
  447MOL0     H61630   8.729  10.420   8.015 -0.7812  0.4260 -0.1191
  447MOL0     H61631   8.679  10.696   8.033  0.4557  1.4357  0.2870
  447MOL0     H61632   8.536  10.632   8.112 -0.4245  0.2470 -2.0883
  447MOL0     H61633   8.484  10.503   7.898 -1.1344  1.0768 -1.0524
  447MOL0     H61634   8.481  10.684   7.895 -1.2376  0.4393  2.0558
  447MOL0     H61635   8.671  10.781   7.768  0.3814 -0.3804  2.0193
  447MOL0     H61636   8.705  10.808   7.473  2.2203  0.9666 -0.3304
  447MOL0     H61637   8.752  10.661   7.391  0.8337  0.8917 -1.4961
  447MOL0     H61638   8.942  10.848   7.427  0.9215 -1.1522  1.1804
  447MOL0     H61639   8.946  10.784   7.579  1.4040 -1.1486  1.0576
  447MOL0     H61640   8.985  10.550   7.487  2.2936 -0.5215 -0.3264
  447MOL0     H61641   9.006  10.624   7.320  0.8728  3.4573 -0.9902
  447MOL0     H61642   9.174  10.708   7.577  0.7115 -2.5942  2.7932
  447MOL0     H61643   9.200  10.559   7.479 -0.4309 -0.3547 -1.9077
  447MOL0     H61644   9.382  10.690   7.624 -0.1472  2.1022  0.5301
  447MOL0     H61645   9.709  10.783   7.713  2.2171 -1.1899 -2.5263
  447MOL0     H61646   9.653  10.621   7.689  1.0270  0.3356  2.8434
  447MOL0     H61647   9.546  10.731   7.767  0.7061 -3.4503  0.9243
  447MOL0     H61648  10.029  10.735   7.187 -0.4714  1.1731 -0.1224
  447MOL0     H61649  10.283  10.781   7.183 -0.3861  3.6820 -2.6244
  447MOL0     H61650  10.542  10.944   7.216  1.2571  2.0548 -0.5653
  447MOL0     H61651  10.382  11.006   7.156 -0.9228  2.5603  2.0117
  447MOL0     H61652  10.413  11.216   7.265 -0.2670  0.0173  3.2871
  447MOL0     H61653  10.561  11.172   7.346  1.9578 -3.2063 -1.0721
  447MOL0     H61654  10.536  11.153   7.039  0.7941 -1.1336  0.1592
  447MOL0     H61655  10.679  11.137   7.139 -1.2353 -1.4414  0.0476
  447MOL0     H61656  10.629  11.384   7.210 -0.2429 -0.2864  0.1469
  447MOL0     H61657  10.480  11.368   7.113 -1.6366 -2.5111  1.8503
  447MOL0     H61658  10.665  11.495   6.984  0.0415  0.7865 -0.4214
  447MOL0     H61659  10.762  11.347   6.994  0.0182 -0.8470 -0.1868
  447MOL0     H61660  10.497  11.311   6.875 -0.7926  1.3284 -0.3763
  447MOL0     H61661  10.648  11.222   6.848  0.4085 -0.3825  3.5093
  447MOL0     H61662  10.741  11.426   6.732 -0.6914  2.4068 -0.6914
  447MOL0     H61663  10.593  11.515   6.753 -0.9059 -0.1603  2.3145
  447MOL0     H61664  10.631  11.418   6.530 -1.9504  1.7189  0.7188
  447MOL0     H61665  10.486  11.339   6.582 -0.5458  2.6696 -2.0396
  447MOL0     H61666  10.207  11.059   7.510 -0.7824  1.5730 -2.3738
  447MOL0     H61667   9.975  11.002   7.506 -1.6268  2.8703 -3.1316
  447MOL0     H61668   9.645  10.853   7.237  0.1779  1.4197  0.5490
  447MOL0     H61669   9.407  10.801   7.204  0.9042 -1.0532 -0.5797
  447MOL0     H61670   8.341   9.748   8.449  1.7496  0.1292  0.9009
  447MOL0     H61671   8.175   9.640   8.605 -0.4562  1.4371 -0.2610
  447MOL0     H61672   8.014   9.494   8.951 -0.3843 -3.7493  1.4458
  447MOL0     H61673   7.827   9.386   9.056  0.7196 -0.0017 -1.9316
  447MOL0     H61674   7.630   9.332   9.161 -0.0594  0.5684 -0.3034
  447MOL0     H61675   7.744   9.370   9.295 -1.5081 -0.1295  2.3791
  447MOL0     H61676   7.549   9.448   9.426  3.0452  2.4681 -1.9188
  447MOL0     H61677   7.533   9.273   9.396  2.2637 -0.5513 -1.8240
  447MOL0     H61678   7.381   9.506   9.258 -3.3856  0.7078  0.5124
  447MOL0     H61679   7.391   9.344   9.185 -1.8746  0.1150 -1.2221
  447MOL0     H61680   7.263   9.253   9.386  2.6067  0.6877 -0.3943
  447MOL0     H61681   7.171   9.381   9.304 -1.3476 -2.0161  2.0888
  447MOL0     H61682   7.217   9.570   9.667 -0.2651  0.2204 -1.0251
  447MOL0     H61683   7.682   9.793   9.177 -0.4485  0.5360 -0.2792
  447MOL0     H61684   7.778   9.969   9.098  0.5745 -0.9265  0.7357
  447MOL0     H61685   7.954   9.960   9.133  1.4167 -0.2768 -0.7194
  447MOL0     H61686   7.911   9.958   8.964  2.6149 -1.4421  0.5660
  448MOL0     O61687   4.292   9.950   7.821  0.5455  1.0112  0.2202
  448MOL0     C61688   4.220  10.043   7.801 -0.6694 -0.2116 -0.4771
  448MOL0     O61689   4.101  10.066   7.859 -0.5294 -0.7300 -0.2343
  448MOL0     C61690   4.050   9.966   7.937  0.3365  0.0978  0.3223
  448MOL0     C61691   3.977   9.864   7.875  0.2127  0.2174 -0.3968
  448MOL0     C61692   3.906   9.781   7.963 -0.3025 -0.3195  0.7675
  448MOL0     C61693   3.935   9.776   8.096 -0.3845  1.0507 -1.1944
  448MOL0     O61694   3.863   9.702   8.196  0.2718 -0.7375 -0.4040
  448MOL0     C61695   3.827   9.573   8.150 -0.3344  0.3802 -0.6577
  448MOL0     C61696   3.771   9.486   8.262 -0.4122 -0.3880  0.6163
  448MOL0     C61697   3.742   9.346   8.209  0.0989 -0.2736 -0.2089
  448MOL0     C61698   3.591   9.344   8.157 -0.9615 -0.8358  0.2944
  448MOL0     C61699   3.556   9.208   8.105  0.4611  0.1865  0.6496
  448MOL0     C61700   3.415   9.206   8.032 -0.0459  0.7359 -1.1270
  448MOL0     C61701   3.367   9.076   7.951  0.1259  0.1848 -0.2572
  448MOL0     C61702   3.439   9.066   7.812  0.8162  0.1491 -1.1503
  448MOL0     N61703   3.391   8.958   7.726  0.1814 -0.2411 -0.3985
  448MOL0     C61704   3.470   8.856   7.693  0.7914  0.5575  0.3040
  448MOL0     C61705   3.398   8.800   7.588  0.9642  0.5208 -0.9290
  448MOL0     C61706   3.439   8.682   7.500  0.4669 -0.7122  0.0695
  448MOL0     C61707   3.471   8.561   7.588  0.6784 -0.2356  0.7890
  448MOL0     C61708   3.360   8.459   7.608 -0.8999  0.7874  0.2483
  448MOL0     C61709   3.237   8.523   7.670  0.3370  0.5342 -1.0833
  448MOL0     O61710   3.125   8.434   7.670  0.0423  0.9300  0.4295
  448MOL0     C61711   3.014   8.478   7.727  0.0078 -0.4036  0.8507
  448MOL0     C61712   2.901   8.399   7.707 -0.4628 -0.4969 -0.3432
  448MOL0     C61713   2.778   8.431   7.757  0.3497 -0.4882 -0.1934
  448MOL0     C61714   2.671   8.320   7.736 -0.5133 -0.3128  0.2233
  448MOL0     C61715   2.763   8.541   7.840 -0.8209 -0.7046 -1.1045
  448MOL0     C61716   2.638   8.592   7.903 -0.4523 -0.4426 -0.4162
  448MOL0     O61717   2.630   8.726   7.932 -0.3646  0.3097 -0.3713
  448MOL0     C61718   2.510   8.781   7.959  0.2128  0.7016 -0.8786
  448MOL0     C61719   2.487   8.859   8.074 -0.9795 -0.0233  0.1320
  448MOL0     C61720   2.379   8.950   8.078 -0.6187 -0.6722 -0.4044
  448MOL0     C61721   2.291   8.958   7.973 -0.5806 -0.6915 -0.2147
  448MOL0     O61722   2.203   9.068   7.975  0.3405  0.2747 -0.7425
  448MOL0     C61723   2.103   9.074   7.871  0.6999  0.2762 -0.3816
  448MOL0     C61724   2.151   9.169   7.768  0.5404 -0.2897 -0.5426
  448MOL0     C61725   2.156   9.313   7.834  0.9277  0.0310 -0.6787
  448MOL0     C61726   2.271   9.387   7.781 -0.6152  0.2108 -1.0441
  448MOL0     C61727   2.267   9.528   7.823 -0.9523 -0.1166  0.3026
  448MOL0     C61728   2.382   9.624   7.773  0.0620  0.1778  0.5765
  448MOL0     C61729   2.377   9.658   7.622 -0.1840  0.2275 -0.9630
  448MOL0     C61730   2.465   9.783   7.595  0.4934 -0.2946  0.1426
  448MOL0    Cl61731   2.384   9.936   7.640  0.2781 -0.1113 -0.0172
  448MOL0     C61732   2.313   8.876   7.863 -0.0781  1.1535  0.0046
  448MOL0     C61733   2.418   8.788   7.857  0.3564 -0.2525  0.9295
  448MOL0     O61734   2.551   8.510   7.912  0.6123 -0.0966  0.7978
  448MOL0     C61735   2.874   8.623   7.862 -0.0504  0.3756  1.1788
  448MOL0     C61736   2.996   8.587   7.818 -0.1860 -0.5575 -0.1936
  448MOL0     N61737   3.281   8.867   7.566 -0.4426 -0.1275  0.3784
  448MOL0     N61738   3.276   8.962   7.652  0.2607 -0.5308 -0.1239
  448MOL0     C61739   4.008   9.879   8.149 -0.2732  1.5144 -0.1392
  448MOL0     C61740   4.066   9.977   8.074  0.2175  0.2767 -0.8731
  448MOL0     C61741   4.277  10.167   7.738  1.6096  0.1956 -0.6558
  448MOL0     C61742   4.230  10.289   7.794  0.5388 -0.7894  0.5971
  448MOL0     C61743   4.286  10.412   7.748 -1.3175  0.3329 -0.9009
  448MOL0     C61744   4.386  10.417   7.655 -0.9247  0.0755  0.1964
  448MOL0     O61745   4.437  10.540   7.604  0.5419  0.6047 -0.1526
  448MOL0     C61746   4.474  10.543   7.469 -0.0110  0.0159  0.0069
  448MOL0     C61747   4.530  10.678   7.428  0.0014  0.7262  0.1306
  448MOL0     C61748   4.580  10.771   7.537 -0.4350  1.0512 -1.0912
  448MOL0     C61749   4.576  10.910   7.494 -0.1768 -0.6883  0.2545
  448MOL0     C61750   4.652  10.989   7.586 -0.0839 -0.2509 -0.5539
  448MOL0     C61751   4.721  11.064   7.648  1.8484  0.4166 -0.8429
  448MOL0     C61752   4.440  10.294   7.608  0.0995  0.2464 -0.0045
  448MOL0     C61753   4.382  10.168   7.645 -0.4287  1.0275  1.0015
  448MOL0     C61754   4.439  10.040   7.577  0.8293 -0.0846  0.1494
  448MOL0     H61755   3.965   9.863   7.767 -2.9730 -1.0908 -0.1436
  448MOL0     H61756   3.833   9.710   7.926  4.0554 -3.7762 -2.3889
  448MOL0     H61757   3.909   9.510   8.115  0.5308  0.3833  1.2595
  448MOL0     H61758   3.749   9.588   8.075  0.4260  0.4545 -1.4530
  448MOL0     H61759   3.848   9.471   8.338 -1.2992  1.1142  1.8676
  448MOL0     H61760   3.691   9.537   8.315 -1.3088 -0.0401 -0.9891
  448MOL0     H61761   3.812   9.320   8.129 -0.3420 -3.5556  0.3320
  448MOL0     H61762   3.756   9.269   8.285  0.4890 -0.3339 -0.3403
  448MOL0     H61763   3.530   9.378   8.242  2.5383  0.8715  2.3795
  448MOL0     H61764   3.588   9.425   8.083  0.5752 -0.7519  0.2898
  448MOL0     H61765   3.559   9.143   8.192  3.3515  2.4759  2.4523
  448MOL0     H61766   3.637   9.184   8.036 -1.8206 -0.6910 -1.9018
  448MOL0     H61767   3.348   9.221   8.118  0.2111  2.0573 -1.1415
  448MOL0     H61768   3.393   9.299   7.979 -1.3736  1.5050  0.6754
  448MOL0     H61769   3.264   9.094   7.921  1.1615  2.4162 -2.9576
  448MOL0     H61770   3.387   8.986   8.010  0.5276  1.2158  1.2517
  448MOL0     H61771   3.408   9.155   7.755 -1.7104 -0.8130 -1.4386
  448MOL0     H61772   3.547   9.057   7.827  0.3499 -1.4476  2.2884
  448MOL0     H61773   3.567   8.829   7.735  1.0241  1.0061  0.0603
  448MOL0     H61774   3.528   8.699   7.439  0.6734 -0.4048  0.4538
  448MOL0     H61775   3.357   8.652   7.434  0.7947 -2.9313  0.6133
  448MOL0     H61776   3.540   8.506   7.524 -2.4227 -2.2558 -1.0543
  448MOL0     H61777   3.519   8.589   7.682 -0.8258  0.9203  1.2448
  448MOL0     H61778   3.332   8.406   7.516  0.6180  1.6270 -0.7325
  448MOL0     H61779   3.397   8.376   7.669 -1.7620  0.6441  0.5901
  448MOL0     H61780   3.258   8.565   7.769  1.3499 -0.9918 -0.6218
  448MOL0     H61781   3.207   8.605   7.604 -1.7137  1.7132  1.1605
  448MOL0     H61782   2.913   8.315   7.639  1.4731 -0.2879 -0.3149
  448MOL0     H61783   2.578   8.360   7.695 -0.5962 -1.5000 -0.7752
  448MOL0     H61784   2.675   8.259   7.826  1.1977  1.1386  1.1994
  448MOL0     H61785   2.705   8.252   7.658 -3.2559 -0.4649 -0.9680
  448MOL0     H61786   2.554   8.858   8.159  1.2807 -1.5034 -1.5632
  448MOL0     H61787   2.358   9.028   8.151  0.3696  0.1706 -0.9919
  448MOL0     H61788   2.072   8.972   7.847  1.6163 -1.0727  3.4870
  448MOL0     H61789   2.014   9.106   7.925  2.4215 -1.6385  4.0466
  448MOL0     H61790   2.250   9.134   7.740  0.4929 -1.0957  0.2660
  448MOL0     H61791   2.093   9.163   7.676  0.0759  0.0304 -0.2779
  448MOL0     H61792   2.156   9.321   7.943 -0.4052 -0.4070 -0.6246
  448MOL0     H61793   2.070   9.372   7.802  0.2726  1.1166  2.6552
  448MOL0     H61794   2.277   9.372   7.673  0.8432 -0.5783 -0.8793
  448MOL0     H61795   2.363   9.343   7.819 -1.9292 -1.9905 -0.2238
  448MOL0     H61796   2.182   9.583   7.782  1.6687  3.7460 -0.4810
  448MOL0     H61797   2.273   9.538   7.931  2.2576  0.8331  0.1561
  448MOL0     H61798   2.476   9.579   7.805  1.1804  1.3087 -0.9628
  448MOL0     H61799   2.371   9.717   7.830  0.0721  0.4738  0.0987
  448MOL0     H61800   2.275   9.677   7.586 -0.6669  0.6353  0.5419
  448MOL0     H61801   2.421   9.572   7.571 -1.2908 -1.3676  0.6516
  448MOL0     H61802   2.490   9.782   7.488  2.3544 -1.2902  0.5388
  448MOL0     H61803   2.557   9.771   7.652  0.1839 -3.0668  0.2241
  448MOL0     H61804   2.237   8.866   7.787  1.6872 -1.7746 -1.5509
  448MOL0     H61805   2.444   8.733   7.767  0.6046  0.1952  0.7221
  448MOL0     H61806   2.871   8.706   7.932  0.3922  2.8131 -1.5124
  448MOL0     H61807   3.078   8.653   7.845 -1.9727  1.2167  1.2284
  448MOL0     H61808   4.017   9.873   8.257 -2.0102 -4.7480  0.0383
  448MOL0     H61809   4.128  10.056   8.117 -3.2770  3.5143 -1.2299
  448MOL0     H61810   4.156  10.297   7.872 -0.1168  3.3009 -0.2536
  448MOL0     H61811   4.240  10.503   7.785  0.8230  1.4238 -0.7572
  448MOL0     H61812   4.564  10.485   7.447  0.4356  0.5282  0.4442
  448MOL0     H61813   4.386  10.511   7.413  0.1460 -1.5194  0.5747
  448MOL0     H61814   4.436  10.721   7.390 -0.6327 -1.2941 -0.7223
  448MOL0     H61815   4.589  10.665   7.337 -1.9756 -3.4279 -0.8104
  448MOL0     H61816   4.521  10.763   7.629  2.2699 -1.4539  0.5945
  448MOL0     H61817   4.679  10.741   7.572 -0.3170  3.0504  0.4278
  448MOL0     H61818   4.473  10.945   7.491  0.3185  0.8443  0.4173
  448MOL0     H61819   4.627  10.913   7.397 -0.9552  4.5566 -0.2633
  448MOL0     H61820   4.795  11.114   7.707  0.9972  0.4364  0.2161
  448MOL0     H61821   4.513  10.300   7.528 -2.8544  1.4935 -2.8958
  448MOL0     H61822   4.520   9.997   7.638  1.8085 -3.0086 -2.9204
  448MOL0     H61823   4.368   9.959   7.558  0.1365 -0.4496  3.6221
  448MOL0     H61824   4.479  10.066   7.479  0.2258 -0.1795 -0.1241
  449MOL0     O61825   7.820   3.597   8.188 -0.5532  0.3839 -0.2130
  449MOL0     C61826   7.748   3.691   8.210 -0.6705 -0.1539  0.8144
  449MOL0     O61827   7.668   3.742   8.112 -0.2342  0.5580 -0.2308
  449MOL0     C61828   7.713   3.747   7.978  0.0135  0.1048  0.7335
  449MOL0     C61829   7.694   3.638   7.892  0.7073  0.6798 -0.8249
  449MOL0     C61830   7.729   3.645   7.754  0.5188 -0.1607  0.7173
  449MOL0     C61831   7.771   3.763   7.693 -0.3331  0.4626  0.0671
  449MOL0     O61832   7.797   3.778   7.556 -0.6123  0.4194  0.2945
  449MOL0     C61833   7.767   3.674   7.463 -0.7130  0.2669  0.1117
  449MOL0     C61834   7.881   3.579   7.428  0.7184 -0.4514 -0.3992
  449MOL0     C61835   7.991   3.646   7.345 -0.5260 -0.6380  0.7351
  449MOL0     C61836   8.117   3.556   7.321  0.2508  0.2852  0.4832
  449MOL0     C61837   8.213   3.616   7.215 -0.0856  0.6274  0.2297
  449MOL0     C61838   8.281   3.755   7.261 -0.3567  0.7417 -0.4523
  449MOL0     C61839   8.355   3.816   7.141  0.8156 -0.0710  0.8067
  449MOL0     C61840   8.250   3.891   7.064 -0.6565  0.5134  0.1830
  449MOL0     N61841   8.311   3.991   6.976 -0.5772 -0.4254 -0.2988
  449MOL0     C61842   8.314   3.990   6.839  0.2136  0.4291 -0.7905
  449MOL0     C61843   8.391   4.094   6.810 -1.0824 -0.1460  0.2432
  449MOL0     C61844   8.465   4.125   6.678 -0.1055 -0.7474  0.3571
  449MOL0     C61845   8.399   4.243   6.603  0.2165 -0.2690  0.1981
  449MOL0     C61846   8.274   4.200   6.540 -0.8359  0.4884 -0.7709
  449MOL0     C61847   8.210   4.306   6.443 -0.5533  0.9414  0.6947
  449MOL0     O61848   8.072   4.303   6.420  1.1309  0.2422 -0.3455
  449MOL0     C61849   7.988   4.353   6.514  0.9060  0.2431  0.2309
  449MOL0     C61850   7.857   4.365   6.470  0.3596  0.1386  0.1156
  449MOL0     C61851   7.766   4.425   6.569  0.2478 -0.0045 -0.2396
  449MOL0     C61852   7.623   4.435   6.517 -0.4927 -0.7653 -0.2545
  449MOL0     C61853   7.810   4.474   6.694 -0.8624  1.1108  0.4889
  449MOL0     C61854   7.718   4.536   6.793  1.0138 -1.1205 -0.1445
  449MOL0     O61855   7.714   4.477   6.916 -0.2346  0.2850  0.1874
  449MOL0     C61856   7.616   4.500   7.013 -0.5173  0.0358  0.1388
  449MOL0     C61857   7.657   4.458   7.140  0.6946 -0.2809 -0.5108
  449MOL0     C61858   7.578   4.492   7.250 -0.4427  0.4046  0.3625
  449MOL0     C61859   7.464   4.570   7.243  0.0100  0.2924 -0.1463
  449MOL0     O61860   7.382   4.613   7.349 -0.3840 -0.1121 -0.4621
  449MOL0     C61861   7.424   4.627   7.484 -0.0405  0.3604  0.3229
  449MOL0     C61862   7.468   4.506   7.572 -0.2292 -0.7715 -0.1046
  449MOL0     C61863   7.496   4.550   7.713  0.9640  0.4219  0.5752
  449MOL0     C61864   7.527   4.428   7.798  0.5261  0.2578 -0.2205
  449MOL0     C61865   7.536   4.456   7.945 -0.0396 -0.2895 -0.4064
  449MOL0     C61866   7.558   4.333   8.036 -0.1717 -0.1703  0.3699
  449MOL0     C61867   7.529   4.367   8.185 -0.2591  1.1876  0.1343
  449MOL0     C61868   7.544   4.239   8.273 -0.7944 -0.4840  1.2224
  449MOL0    Cl61869   7.715   4.182   8.277 -0.1004  0.0943 -0.0892
  449MOL0     C61870   7.428   4.612   7.114 -0.5125 -0.5396 -1.0186
  449MOL0     C61871   7.506   4.587   7.000  0.1624 -0.2168 -0.4524
  449MOL0     O61872   7.676   4.653   6.767  1.1929 -0.2374  0.1055
  449MOL0     C61873   7.944   4.461   6.722 -0.3300 -0.1644 -0.7726
  449MOL0     C61874   8.029   4.392   6.639  0.9446  0.3181 -0.3417
  449MOL0     N61875   8.425   4.158   6.925 -0.2123  0.0184  0.7788
  449MOL0     N61876   8.359   4.107   7.024 -0.6337 -0.2161  0.5567
  449MOL0     C61877   7.784   3.868   7.778  0.2531  0.3124 -0.3194
  449MOL0     C61878   7.768   3.856   7.915 -0.4169  0.4053 -0.6975
  449MOL0     C61879   7.719   3.740   8.343  0.5276  0.0163  1.0967
  449MOL0     C61880   7.726   3.875   8.376  0.5658 -0.5927 -0.1208
  449MOL0     C61881   7.667   3.929   8.493  0.1709 -0.2491  1.0168
  449MOL0     C61882   7.613   3.847   8.591  0.8330  0.8688  0.3919
  449MOL0     O61883   7.593   3.890   8.719 -0.3012 -0.1239  0.6698
  449MOL0     C61884   7.477   3.840   8.791  0.7068  0.3080 -0.0633
  449MOL0     C61885   7.404   3.953   8.862 -1.1120  0.8774 -0.3893
  449MOL0     C61886   7.373   4.065   8.766  0.3280  0.1656  0.2279
  449MOL0     C61887   7.314   4.182   8.834  0.2418  1.3667 -0.5755
  449MOL0     C61888   7.294   4.287   8.743 -0.3888 -0.6089 -0.1590
  449MOL0     C61889   7.291   4.363   8.650  0.2503  0.0355 -0.2211
  449MOL0     C61890   7.595   3.712   8.560 -0.5274  0.3053 -0.3593
  449MOL0     C61891   7.646   3.657   8.436  0.3574 -0.3568 -0.2405
  449MOL0     C61892   7.611   3.520   8.400 -0.4204  0.3707  0.1222
  449MOL0     H61893   7.650   3.550   7.937  1.3214  0.7065 -0.1549
  449MOL0     H61894   7.727   3.551   7.700  0.0860  0.1240  0.2297
  449MOL0     H61895   7.750   3.728   7.370 -0.2728 -0.2996 -0.3006
  449MOL0     H61896   7.671   3.623   7.480 -1.0824  0.9323  0.0685
  449MOL0     H61897   7.918   3.529   7.518 -5.3438 -0.7165  2.4325
  449MOL0     H61898   7.840   3.502   7.363 -1.4971 -1.1883  1.7477
  449MOL0     H61899   7.957   3.680   7.247  0.7888 -2.0333 -0.2412
  449MOL0     H61900   8.036   3.735   7.391  3.6127 -1.9225 -0.3993
  449MOL0     H61901   8.168   3.560   7.417  1.6036  2.2035 -0.2632
  449MOL0     H61902   8.084   3.454   7.296  0.2323  0.8414 -2.0334
  449MOL0     H61903   8.155   3.625   7.123 -2.6586 -0.9948  1.5662
  449MOL0     H61904   8.289   3.543   7.186  1.7469  2.1608  0.9607
  449MOL0     H61905   8.223   3.828   7.318  0.1604 -0.8436  2.2431
  449MOL0     H61906   8.359   3.716   7.327 -1.9293 -2.3801 -0.2560
  449MOL0     H61907   8.409   3.749   7.074  0.7519 -0.9009  1.5605
  449MOL0     H61908   8.420   3.897   7.175 -0.3440  2.2136 -2.0613
  449MOL0     H61909   8.196   3.822   6.998  0.8164  1.6124 -2.3104
  449MOL0     H61910   8.179   3.947   7.125  0.6385  0.0054  2.2648
  449MOL0     H61911   8.258   3.919   6.779 -0.3506 -2.0223  2.3500
  449MOL0     H61912   8.461   4.044   6.605  2.4683 -0.5207 -0.1304
  449MOL0     H61913   8.568   4.151   6.704 -0.6405  2.9619 -0.5992
  449MOL0     H61914   8.378   4.321   6.677 -1.3005  1.5775 -2.0553
  449MOL0     H61915   8.458   4.293   6.526  1.3098 -0.4132  0.9191
  449MOL0     H61916   8.290   4.103   6.490 -2.0044 -0.6796  1.0116
  449MOL0     H61917   8.205   4.186   6.623  2.4992 -0.6215  2.0690
  449MOL0     H61918   8.254   4.404   6.466  2.2828  0.1119 -0.7481
  449MOL0     H61919   8.244   4.291   6.340  0.7634  1.4670  1.0246
  449MOL0     H61920   7.822   4.336   6.372  0.1704  1.1122 -0.1214
  449MOL0     H61921   7.564   4.360   6.570 -0.7780 -1.2060 -1.1873
  449MOL0     H61922   7.616   4.418   6.410 -2.2986 -0.6028 -0.1847
  449MOL0     H61923   7.584   4.537   6.513  1.0586 -0.1617 -3.0227
  449MOL0     H61924   7.743   4.392   7.141 -0.3457 -1.6865  1.2744
  449MOL0     H61925   7.615   4.456   7.346  2.4676 -0.0429 -0.8343
  449MOL0     H61926   7.511   4.691   7.466 -2.0118  2.3923 -3.1362
  449MOL0     H61927   7.346   4.686   7.535  1.5945  2.7090  0.2737
  449MOL0     H61928   7.392   4.428   7.570 -0.5325 -0.4833 -2.2654
  449MOL0     H61929   7.563   4.467   7.535  0.0750  1.0839 -1.4634
  449MOL0     H61930   7.409   4.600   7.758 -0.8104 -2.5832  0.7514
  449MOL0     H61931   7.586   4.611   7.713  1.0485  0.3006  0.1412
  449MOL0     H61932   7.625   4.389   7.769 -0.2470 -0.6804 -1.6392
  449MOL0     H61933   7.449   4.353   7.787  2.2045 -1.3853 -1.6684
  449MOL0     H61934   7.614   4.532   7.954 -1.5478  1.2730  0.0599
  449MOL0     H61935   7.446   4.500   7.988  1.3333  0.6361  1.7064
  449MOL0     H61936   7.664   4.309   8.030  0.4806  2.7864 -2.1923
  449MOL0     H61937   7.503   4.242   8.007 -1.4585  1.1444 -1.5594
  449MOL0     H61938   7.423   4.396   8.186 -0.4275  0.8703  3.4957
  449MOL0     H61939   7.597   4.444   8.221  1.1547 -0.2806  0.7216
  449MOL0     H61940   7.478   4.157   8.241 -1.0438  0.7909 -1.8521
  449MOL0     H61941   7.514   4.263   8.375 -0.5229  0.1196  1.1659
  449MOL0     H61942   7.341   4.676   7.099 -1.1796 -1.4850 -1.3139
  449MOL0     H61943   7.473   4.643   6.913 -0.0501  0.7039  0.1959
  449MOL0     H61944   7.985   4.479   6.821  1.2504 -0.4678 -1.3332
  449MOL0     H61945   8.136   4.383   6.659  0.9323 -0.3161 -0.5372
  449MOL0     H61946   7.808   3.964   7.734 -1.5115  0.8218 -0.2326
  449MOL0     H61947   7.790   3.933   7.987  1.4058 -2.1735  1.7365
  449MOL0     H61948   7.785   3.938   8.310  2.0991  0.6549  2.3164
  449MOL0     H61949   7.689   4.032   8.519  1.3391 -0.4067  0.7141
  449MOL0     H61950   7.404   3.808   8.717 -1.5568  1.4435  1.5569
  449MOL0     H61951   7.504   3.759   8.861  0.4914  0.6071  0.3734
  449MOL0     H61952   7.472   3.985   8.942 -1.2356 -1.1067  0.5504
  449MOL0     H61953   7.318   3.919   8.919  0.6090 -1.3431  1.0789
  449MOL0     H61954   7.465   4.093   8.713 -0.2509  0.4946 -0.6241
  449MOL0     H61955   7.305   4.034   8.687  1.5757  1.8788 -1.6225
  449MOL0     H61956   7.380   4.220   8.914  0.7906 -0.8835  0.1085
  449MOL0     H61957   7.217   4.155   8.877 -0.0166  0.4999 -1.6669
  449MOL0     H61958   7.294   4.443   8.578 -2.5811  1.0658  0.6660
  449MOL0     H61959   7.553   3.644   8.634  0.6996 -1.3188 -1.1036
  449MOL0     H61960   7.694   3.454   8.424 -0.8215  0.3990  1.6922
  449MOL0     H61961   7.523   3.477   8.450 -0.4238  0.3737  0.1204
  449MOL0     H61962   7.594   3.487   8.297  1.3756 -3.2822  0.8208
  450MOL0     O61963   8.084   1.132   4.949  0.4506  0.0634 -0.3082
  450MOL0     C61964   8.073   1.155   4.830  0.2405  0.4501  0.8616
  450MOL0     O61965   7.946   1.181   4.774 -0.1801 -0.2221  0.0720
  450MOL0     C61966   7.855   1.270   4.833 -0.1385 -0.1530 -0.2234
  450MOL0     C61967   7.730   1.255   4.780  0.2586 -0.1090 -0.1630
  450MOL0     C61968   7.628   1.339   4.828 -0.9633  0.5192  0.4819
  450MOL0     C61969   7.641   1.436   4.930  0.0817  1.2560  0.6455
  450MOL0     O61970   7.533   1.507   4.977  0.3818 -0.3107  0.4518
  450MOL0     C61971   7.531   1.556   5.111 -0.3704 -0.0156  0.1029
  450MOL0     C61972   7.515   1.461   5.224  0.4964 -0.2600 -0.0780
  450MOL0     C61973   7.553   1.519   5.357 -0.1312 -0.0597 -0.0848
  450MOL0     C61974   7.549   1.395   5.458 -0.6446 -0.3074  0.4618
  450MOL0     C61975   7.557   1.444   5.608 -0.2221 -0.1525  0.7508
  450MOL0     C61976   7.433   1.522   5.656  0.9270  0.9998  0.3960
  450MOL0     C61977   7.303   1.464   5.612  0.9284 -0.6892 -0.3039
  450MOL0     C61978   7.189   1.545   5.662  0.9332  1.0514 -0.8506
  450MOL0     N61979   7.192   1.677   5.610 -0.1691 -0.2270 -0.2633
  450MOL0     C61980   7.178   1.718   5.480 -0.0728  0.0231 -0.1623
  450MOL0     C61981   7.138   1.843   5.478 -0.6048 -0.2199  0.1012
  450MOL0     C61982   7.120   1.927   5.357 -0.0059 -0.6195 -0.4245
  450MOL0     C61983   6.983   1.936   5.302 -0.1353  0.6985 -0.1099
  450MOL0     C61984   6.985   2.025   5.177  0.2262  0.5420  0.3211
  450MOL0     C61985   6.854   2.024   5.094  0.3359 -0.5723 -0.5548
  450MOL0     O61986   6.852   2.108   4.977 -0.3469  0.3009  0.3659
  450MOL0     C61987   6.737   2.119   4.897  0.0651  1.0835  0.0066
  450MOL0     C61988   6.734   2.201   4.788 -0.0191 -0.6035 -0.6997
  450MOL0     C61989   6.628   2.215   4.708  0.2490  0.2985 -0.8801
  450MOL0     C61990   6.619   2.331   4.615  0.2271 -0.4812  0.1060
  450MOL0     C61991   6.515   2.129   4.732  0.1360 -0.6335 -0.3155
  450MOL0     C61992   6.384   2.128   4.655  0.3731 -0.7951 -0.1268
  450MOL0     O61993   6.301   2.034   4.686  0.2300  0.5639  0.1187
  450MOL0     C61994   6.188   2.013   4.622  0.5051 -0.3651 -0.0702
  450MOL0     C61995   6.189   1.944   4.503  0.0892 -0.0127  0.2640
  450MOL0     C61996   6.068   1.953   4.431 -0.2939  0.6324  0.3543
  450MOL0     C61997   5.944   2.000   4.491 -1.0285 -1.1199  0.3799
  450MOL0     O61998   5.829   1.987   4.412  0.1059  0.0165  0.3004
  450MOL0     C61999   5.726   2.079   4.447 -0.6567  0.2423 -0.1556
  450MOL0     C62000   5.613   2.079   4.344  0.7476 -0.3874 -0.6911
  450MOL0     C62001   5.511   1.972   4.371 -0.2796  0.5261  1.5042
  450MOL0     C62002   5.428   1.933   4.244 -0.0169  0.1182 -0.9797
  450MOL0     C62003   5.333   1.820   4.283  0.4240  0.2995  0.5436
  450MOL0     C62004   5.251   1.754   4.171 -0.4908  0.1229  0.1575
  450MOL0     C62005   5.344   1.673   4.074  0.4645 -0.4457  0.7535
  450MOL0     C62006   5.424   1.555   4.136 -0.7298  0.5857 -0.3159
  450MOL0    Cl62007   5.325   1.437   4.235 -0.1132  0.1387  0.2172
  450MOL0     C62008   5.948   2.046   4.626 -1.0467 -0.1841 -0.6848
  450MOL0     C62009   6.073   2.061   4.685 -0.2066  0.6238 -0.1113
  450MOL0     O62010   6.361   2.196   4.552 -0.5532 -0.0740  0.0573
  450MOL0     C62011   6.508   2.054   4.857 -0.0779  1.3670 -0.5634
  450MOL0     C62012   6.617   2.048   4.938 -1.2460  1.2992 -0.0210
  450MOL0     N62013   7.131   1.886   5.617  0.0154  0.4804  0.5642
  450MOL0     N62014   7.167   1.785   5.695  0.0912  0.4599  0.2445
  450MOL0     C62015   7.775   1.454   4.972 -1.0317  0.8987  0.2152
  450MOL0     C62016   7.886   1.370   4.924  0.8913 -0.2706  0.9403
  450MOL0     C62017   8.181   1.116   4.739  0.3256  0.5362  0.1621
  450MOL0     C62018   8.153   1.124   4.598  0.3839 -0.1394 -0.3883
  450MOL0     C62019   8.252   1.119   4.503 -0.0839 -0.5445 -0.0029
  450MOL0     C62020   8.380   1.082   4.542 -0.3143 -0.5854  0.2706
  450MOL0     O62021   8.467   1.058   4.436  0.3761 -1.1795 -0.2437
  450MOL0     C62022   8.570   0.957   4.447 -0.2291 -0.1248 -0.7212
  450MOL0     C62023   8.635   0.939   4.305  1.1254 -1.1401 -0.5704
  450MOL0     C62024   8.702   1.066   4.261  0.2501  0.2039  0.5666
  450MOL0     C62025   8.788   1.020   4.138 -0.4609  0.6953  0.8896
  450MOL0     C62026   8.834   1.135   4.059 -0.2390 -0.9845 -0.9502
  450MOL0     C62027   8.894   1.213   3.987 -0.1875  0.5191 -1.3041
  450MOL0     C62028   8.414   1.061   4.677 -0.3894 -0.0321 -0.2466
  450MOL0     C62029   8.320   1.083   4.781  0.0363  0.2109  0.4282
  450MOL0     C62030   8.369   1.083   4.923  0.5717 -0.2663  0.0631
  450MOL0     H62031   7.715   1.184   4.699  1.5333 -1.3376  0.6265
  450MOL0     H62032   7.535   1.334   4.771 -1.8802 -1.2076  2.0504
  450MOL0     H62033   7.445   1.624   5.110 -1.1370 -0.9654 -0.8843
  450MOL0     H62034   7.623   1.615   5.125 -0.1889 -0.1917 -0.3352
  450MOL0     H62035   7.409   1.433   5.215  0.6539 -1.9002  2.3377
  450MOL0     H62036   7.564   1.364   5.208 -0.0739 -0.2022 -2.5793
  450MOL0     H62037   7.657   1.552   5.355 -0.8190  2.1990 -0.8836
  450MOL0     H62038   7.488   1.600   5.392 -1.9230 -1.2956 -0.4291
  450MOL0     H62039   7.469   1.324   5.438  0.7411 -0.8892 -4.2583
  450MOL0     H62040   7.638   1.332   5.448 -1.9139 -2.9403  3.7204
  450MOL0     H62041   7.641   1.512   5.627 -1.8863  1.9558  0.9752
  450MOL0     H62042   7.570   1.356   5.672 -3.2622 -0.5495  0.9794
  450MOL0     H62043   7.447   1.533   5.764  0.2257  1.4906  0.4476
  450MOL0     H62044   7.443   1.622   5.614 -1.4364  1.7799  1.4671
  450MOL0     H62045   7.297   1.364   5.658 -1.2583  0.0760  1.2762
  450MOL0     H62046   7.292   1.449   5.505 -1.1032 -1.7594  0.0045
  450MOL0     H62047   7.101   1.484   5.639  1.7367 -0.8883  0.8643
  450MOL0     H62048   7.186   1.545   5.771 -0.6121 -1.0397 -0.8161
  450MOL0     H62049   7.191   1.665   5.386 -3.3096 -3.3123  1.0050
  450MOL0     H62050   7.197   1.908   5.282  1.9875 -3.8201  2.1570
  450MOL0     H62051   7.140   2.030   5.388  3.2847 -0.8762 -1.3479
  450MOL0     H62052   6.956   1.834   5.272  0.0758  0.8602 -0.8761
  450MOL0     H62053   6.912   1.975   5.375 -1.0768  0.3885 -0.8382
  450MOL0     H62054   7.017   2.127   5.201 -1.0634  0.9282  0.4348
  450MOL0     H62055   7.060   1.982   5.110 -0.4064 -1.2037  0.6669
  450MOL0     H62056   6.848   1.920   5.057 -0.9737 -0.3429 -1.0316
  450MOL0     H62057   6.771   2.058   5.155  2.5091  0.9312  1.7246
  450MOL0     H62058   6.816   2.271   4.777 -0.7842  0.9184  2.1276
  450MOL0     H62059   6.635   2.299   4.512 -0.7409  0.4906 -0.3639
  450MOL0     H62060   6.699   2.401   4.643  0.0559  0.0900 -0.7885
  450MOL0     H62061   6.524   2.385   4.622 -0.0049 -1.0540  2.0780
  450MOL0     H62062   6.281   1.892   4.478  0.7882  2.0282 -1.7859
  450MOL0     H62063   6.064   1.904   4.335  0.1375  0.7380  0.2799
  450MOL0     H62064   5.687   2.049   4.545  1.1571  0.2966  0.6361
  450MOL0     H62065   5.776   2.176   4.449  1.9582 -1.0093  1.7822
  450MOL0     H62066   5.553   2.170   4.357 -0.0265 -1.2655  2.7985
  450MOL0     H62067   5.656   2.079   4.243 -0.1931  1.0738 -1.1372
  450MOL0     H62068   5.437   2.013   4.440 -0.8378  2.2736 -0.0363
  450MOL0     H62069   5.558   1.879   4.403  0.5578  0.4166  0.0253
  450MOL0     H62070   5.501   1.906   4.167  0.3037 -0.8150 -0.3585
  450MOL0     H62071   5.363   2.016   4.215 -2.5869 -0.4548  2.5262
  450MOL0     H62072   5.390   1.739   4.330 -3.6698 -3.8035 -0.7870
  450MOL0     H62073   5.264   1.867   4.354 -0.3581 -1.5014  1.0317
  450MOL0     H62074   5.191   1.829   4.118  1.1138 -0.4960 -2.7819
  450MOL0     H62075   5.187   1.681   4.222 -1.6669  2.0603  1.5915
  450MOL0     H62076   5.415   1.739   4.024 -1.5949  0.6409 -0.9203
  450MOL0     H62077   5.295   1.639   3.982  3.9953 -0.7605 -1.2142
  450MOL0     H62078   5.508   1.584   4.199  1.6955 -3.5031 -1.2558
  450MOL0     H62079   5.473   1.504   4.053  0.4481 -3.0250  2.3572
  450MOL0     H62080   5.871   2.098   4.682 -0.2402 -0.8825  1.1592
  450MOL0     H62081   6.080   2.102   4.786  0.6279 -1.3134  0.6703
  450MOL0     H62082   6.423   1.989   4.877  2.5013 -2.0884  0.1638
  450MOL0     H62083   6.625   1.987   5.028  0.2639 -0.8665 -1.5270
  450MOL0     H62084   7.793   1.521   5.056 -1.3051 -1.8019  2.6114
  450MOL0     H62085   7.988   1.387   4.956  1.5351 -1.6353 -0.2954
  450MOL0     H62086   8.062   1.159   4.552  0.6477 -0.2857 -1.0482
  450MOL0     H62087   8.229   1.134   4.398 -0.1828  3.1272  0.4156
  450MOL0     H62088   8.651   0.984   4.516  0.6504 -2.8519 -0.5475
  450MOL0     H62089   8.534   0.858   4.477  0.4450 -0.5333 -1.2122
  450MOL0     H62090   8.557   0.907   4.234  0.7900 -1.6704  0.0216
  450MOL0     H62091   8.715   0.865   4.313  1.6942 -0.4299  0.5526
  450MOL0     H62092   8.620   1.133   4.237  0.1497  0.5525  1.8159
  450MOL0     H62093   8.766   1.098   4.344  2.0494 -3.6093  0.8953
  450MOL0     H62094   8.740   0.941   4.079  0.0492  2.5286 -2.2125
  450MOL0     H62095   8.870   0.952   4.163 -3.7719 -4.6788 -1.0866
  450MOL0     H62096   8.955   1.276   3.926  2.7566 -2.2308 -1.4381
  450MOL0     H62097   8.516   1.039   4.708  0.2638 -1.9671 -3.4088
  450MOL0     H62098   8.318   1.008   4.985 -0.8913 -1.7864 -2.7344
  450MOL0     H62099   8.472   1.046   4.918  0.6980 -0.0425  0.8981
  450MOL0     H62100   8.365   1.182   4.968 -0.6780 -0.1216 -0.3153
  451MOL0     O62101  10.817   1.636   2.726  0.5331  0.0811 -0.6078
  451MOL0     C62102  10.920   1.696   2.734  0.2390 -0.2927 -0.2034
  451MOL0     O62103  10.938   1.802   2.809 -0.5028  0.1925  0.7565
  451MOL0     C62104  10.847   1.863   2.892  1.0436  0.8591  0.7638
  451MOL0     C62105  10.857   1.843   3.030 -0.0755  0.0396 -0.1787
  451MOL0     C62106  10.766   1.903   3.114  0.3237 -0.3186  0.1015
  451MOL0     C62107  10.660   1.981   3.060 -0.8082  0.4572  0.4992
  451MOL0     O62108  10.566   2.032   3.145 -0.0509 -0.5760 -0.4730
  451MOL0     C62109  10.421   2.047   3.112  0.1259 -0.8469  0.2262
  451MOL0     C62110  10.345   2.096   3.244  0.6971 -0.2682  1.3928
  451MOL0     C62111  10.204   2.147   3.198 -0.1019 -0.7718  0.1788
  451MOL0     C62112  10.235   2.292   3.133  0.1900 -0.0303 -0.3550
  451MOL0     C62113  10.111   2.376   3.121  0.2159 -0.3582  0.2755
  451MOL0     C62114  10.035   2.355   2.996  1.0766 -0.3070 -0.3569
  451MOL0     C62115   9.988   2.209   2.987  0.1244 -0.2559 -0.4320
  451MOL0     C62116   9.877   2.184   2.890  0.5141 -0.0820  0.4827
  451MOL0     N62117   9.913   2.231   2.749  0.1329  0.8115  0.1101
  451MOL0     C62118   9.991   2.174   2.653  0.3667  0.5313  0.8296
  451MOL0     C62119   9.993   2.255   2.544 -0.0572  0.4452  0.1420
  451MOL0     C62120  10.047   2.214   2.406  0.6119 -0.3318 -0.4201
  451MOL0     C62121  10.179   2.270   2.362  0.3455 -1.2086 -0.7310
  451MOL0     C62122  10.295   2.179   2.411 -0.2541  0.0408 -0.6306
  451MOL0     C62123  10.440   2.243   2.401 -0.7486  0.4562 -0.2118
  451MOL0     O62124  10.546   2.162   2.459  1.1339  0.1017 -0.0513
  451MOL0     C62125  10.670   2.164   2.385  0.4832  0.6883  0.3688
  451MOL0     C62126  10.754   2.275   2.375  0.0375  0.2248  0.2139
  451MOL0     C62127  10.863   2.286   2.286 -1.2854 -0.4323  0.2780
  451MOL0     C62128  10.932   2.416   2.287 -0.6153 -0.3495 -0.3317
  451MOL0     C62129  10.889   2.182   2.199 -0.3098 -0.1309  0.0032
  451MOL0     C62130  10.980   2.201   2.079 -0.0186 -0.1846  0.6248
  451MOL0     O62131  11.086   2.118   2.063 -0.1727 -0.0237  0.8229
  451MOL0     C62132  11.200   2.149   1.993  0.9137 -0.1166  0.9594
  451MOL0     C62133  11.300   2.230   2.051  1.3344 -0.3883  0.2928
  451MOL0     C62134  11.424   2.248   1.988  0.0587  0.6229  0.5721
  451MOL0     C62135  11.455   2.184   1.866 -0.1565  0.4903  1.4234
  451MOL0     O62136  11.567   2.217   1.796  0.2869  0.2323 -0.0569
  451MOL0     C62137  11.649   2.109   1.744 -0.1284  0.1464 -0.1346
  451MOL0     C62138  11.792   2.154   1.752 -0.2601  0.3951  1.4408
  451MOL0     C62139  11.898   2.041   1.732  0.4850  0.7684 -0.2009
  451MOL0     C62140  11.917   1.993   1.596 -0.9657  0.5406  0.1804
  451MOL0     C62141  12.035   1.907   1.578  0.2230  1.0348 -0.3491
  451MOL0     C62142  12.073   1.887   1.434 -0.3279 -0.8757  0.9104
  451MOL0     C62143  11.975   1.804   1.348 -0.0664 -0.1645 -0.2658
  451MOL0     C62144  12.011   1.788   1.204  0.3508  0.6865 -0.1474
  451MOL0    Cl62145  12.137   1.662   1.185 -0.3032 -0.0311 -0.4312
  451MOL0     C62146  11.364   2.093   1.818 -0.4567  0.3508 -0.7191
  451MOL0     C62147  11.238   2.069   1.883  0.2252  0.5468 -0.7685
  451MOL0     O62148  10.968   2.302   2.009  1.2985 -0.5210 -0.1067
  451MOL0     C62149  10.821   2.065   2.209 -0.0197  0.6618  0.3096
  451MOL0     C62150  10.702   2.056   2.299  0.0970 -0.2895 -0.9555
  451MOL0     N62151   9.912   2.359   2.589  0.1484  0.5216 -0.3332
  451MOL0     N62152   9.872   2.348   2.707 -0.5921  0.4966  0.6662
  451MOL0     C62153  10.642   1.992   2.918 -1.1059  0.1076  0.0275
  451MOL0     C62154  10.739   1.934   2.837  0.3271 -0.4246  0.3134
  451MOL0     C62155  11.037   1.639   2.670  0.0157  0.0169  0.3945
  451MOL0     C62156  11.117   1.551   2.734 -0.2321 -0.1112  0.1075
  451MOL0     C62157  11.235   1.518   2.681  0.2656  0.4560 -0.8418
  451MOL0     C62158  11.265   1.539   2.547 -0.2789  0.0713 -0.0766
  451MOL0     O62159  11.391   1.494   2.504 -0.0122 -0.1250  0.0455
  451MOL0     C62160  11.436   1.548   2.377 -0.1146 -0.0580 -0.8454
  451MOL0     C62161  11.581   1.509   2.349  0.3652 -0.2535 -0.4903
  451MOL0     C62162  11.604   1.360   2.347 -1.0878 -0.1846 -0.2654
  451MOL0     C62163  11.757   1.325   2.312 -0.2830  0.7551  1.9973
  451MOL0     C62164  11.848   1.341   2.431  0.4249  0.0780  0.2751
  451MOL0     C62165  11.912   1.314   2.530  0.5705  0.7446  0.0650
  451MOL0     C62166  11.177   1.610   2.471  0.2556  0.3242 -0.4988
  451MOL0     C62167  11.069   1.678   2.535  0.1528 -0.4716  0.5163
  451MOL0     C62168  10.975   1.771   2.463 -0.8249  0.6103  0.7001
  451MOL0     H62169  10.928   1.768   3.062 -1.1311 -3.2298 -4.4452
  451MOL0     H62170  10.783   1.892   3.220 -1.5503 -1.4971  0.3341
  451MOL0     H62171  10.382   1.950   3.079  1.4979 -2.5202  3.1714
  451MOL0     H62172  10.400   2.109   3.024  0.3402 -0.6995  0.2792
  451MOL0     H62173  10.337   2.017   3.319  1.0905 -0.0001  1.7268
  451MOL0     H62174  10.397   2.180   3.292  0.4118  0.5101  0.3738
  451MOL0     H62175  10.155   2.072   3.135 -1.0298 -0.8194  0.9360
  451MOL0     H62176  10.135   2.168   3.280 -2.8049  0.4507 -2.2593
  451MOL0     H62177  10.303   2.355   3.191  1.1794  2.3404 -3.7741
  451MOL0     H62178  10.281   2.289   3.034  2.7433 -2.0848  0.7816
  451MOL0     H62179  10.143   2.480   3.121  0.8163 -0.5070  1.8709
  451MOL0     H62180  10.050   2.360   3.211  2.4482 -3.3755  1.4446
  451MOL0     H62181   9.954   2.426   2.979  2.9210  1.1601 -4.4415
  451MOL0     H62182  10.104   2.360   2.911 -0.7003  0.9423 -1.7974
  451MOL0     H62183   9.946   2.189   3.086 -0.8470  1.4583 -0.4570
  451MOL0     H62184  10.066   2.139   2.955 -1.7556 -3.9928  2.3143
  451MOL0     H62185   9.866   2.076   2.876 -1.6839  0.2295 -0.9028
  451MOL0     H62186   9.784   2.231   2.925  0.6693  0.4433  0.2049
  451MOL0     H62187  10.043   2.079   2.654  1.4387  1.1072  0.5434
  451MOL0     H62188   9.981   2.259   2.332  1.7545  0.3119 -1.0786
  451MOL0     H62189  10.055   2.105   2.395  1.9345 -0.3104  0.1607
  451MOL0     H62190  10.188   2.287   2.254 -0.8586 -1.9744 -0.9669
  451MOL0     H62191  10.201   2.368   2.406 -0.7809 -1.6097  0.7990
  451MOL0     H62192  10.282   2.164   2.519  0.5019  1.0877 -0.3718
  451MOL0     H62193  10.293   2.077   2.373 -2.7946 -0.8252  1.4819
  451MOL0     H62194  10.460   2.241   2.294  2.0935 -0.8506  0.2494
  451MOL0     H62195  10.437   2.346   2.438  1.2432 -0.0977  1.7114
  451MOL0     H62196  10.732   2.359   2.440  1.4981 -0.0480  1.1259
  451MOL0     H62197  10.912   2.472   2.195  2.9134 -0.4672 -1.2928
  451MOL0     H62198  11.038   2.387   2.287 -1.0184 -2.0189 -1.4136
  451MOL0     H62199  10.906   2.482   2.370  0.3992  2.9358 -2.4514
  451MOL0     H62200  11.277   2.287   2.140  1.4649  2.8647 -1.5922
  451MOL0     H62201  11.490   2.315   2.042  0.4871  1.9824 -1.5463
  451MOL0     H62202  11.657   2.030   1.820 -1.0819  1.1680  1.0645
  451MOL0     H62203  11.613   2.068   1.649 -1.6132  1.3784 -0.1375
  451MOL0     H62204  11.811   2.237   1.683 -0.6711  0.1416  1.0113
  451MOL0     H62205  11.816   2.212   1.841  2.9650  3.7450 -1.2688
  451MOL0     H62206  11.877   1.953   1.793  2.6197 -0.8708 -1.6957
  451MOL0     H62207  11.992   2.076   1.776  0.5672  0.3998 -0.0801
  451MOL0     H62208  11.924   2.073   1.523 -1.7491 -2.3104 -3.3033
  451MOL0     H62209  11.832   1.929   1.570 -1.4870  0.4318  1.9733
  451MOL0     H62210  12.111   1.953   1.642  0.0689  0.0859  0.5397
  451MOL0     H62211  12.003   1.808   1.612 -2.8944  1.1979 -2.4112
  451MOL0     H62212  12.166   1.829   1.437  0.8992  0.9884  0.3130
  451MOL0     H62213  12.107   1.976   1.381 -4.9572  0.9172  0.4990
  451MOL0     H62214  11.878   1.855   1.341  0.3665  0.4982 -1.8855
  451MOL0     H62215  11.969   1.706   1.395 -1.5634  0.9562  2.1057
  451MOL0     H62216  12.052   1.874   1.150 -0.9950 -0.1574 -2.6347
  451MOL0     H62217  11.915   1.755   1.164  0.6289 -3.3594  1.9356
  451MOL0     H62218  11.383   2.042   1.723  1.8191  0.2760 -0.2963
  451MOL0     H62219  11.176   1.997   1.830  1.2207  0.1152 -1.3885
  451MOL0     H62220  10.835   1.985   2.137 -0.7900 -0.5086  1.4040
  451MOL0     H62221  10.633   1.972   2.298 -0.3204  0.0326 -0.2244
  451MOL0     H62222  10.556   2.042   2.874 -2.5184 -2.0880  0.1059
  451MOL0     H62223  10.727   1.941   2.729  3.2602  0.6864 -0.0228
  451MOL0     H62224  11.093   1.523   2.836 -1.9601  0.0509 -0.2363
  451MOL0     H62225  11.304   1.467   2.747  2.3356  0.6054 -2.7475
  451MOL0     H62226  11.370   1.515   2.297 -0.6704 -0.2515 -0.3199
  451MOL0     H62227  11.443   1.657   2.371  0.8406 -0.1425 -1.4958
  451MOL0     H62228  11.653   1.551   2.420  1.8085 -2.8627 -0.2843
  451MOL0     H62229  11.614   1.551   2.253 -1.3663  1.9886 -0.1720
  451MOL0     H62230  11.572   1.307   2.437 -1.0022 -0.9450 -0.6748
  451MOL0     H62231  11.552   1.320   2.260  1.1619  0.0226 -1.7937
  451MOL0     H62232  11.794   1.383   2.227  1.1932 -2.0473  0.5782
  451MOL0     H62233  11.750   1.224   2.270  1.4424  0.6090  2.0180
  451MOL0     H62234  11.968   1.288   2.618  2.2493 -0.0828 -1.1876
  451MOL0     H62235  11.204   1.618   2.366 -0.8668 -0.1036 -0.8357
  451MOL0     H62236  10.972   1.873   2.502  1.4223  0.2367  1.9717
  451MOL0     H62237  11.001   1.769   2.356  1.9135 -1.1389  1.3144
  451MOL0     H62238  10.874   1.729   2.461 -1.0063  0.8177 -2.9363
  452MOL0     O62239   7.760   2.093   0.609 -0.3232  0.1856 -0.2605
  452MOL0     C62240   7.823   2.200   0.591  0.1493 -0.7305  0.0371
  452MOL0     O62241   7.949   2.207   0.541 -0.9404  0.0696  0.1471
  452MOL0     C62242   8.021   2.097   0.498 -0.1008  0.6756  0.5174
  452MOL0     C62243   7.987   2.014   0.386  0.0032 -0.7174  0.7941
  452MOL0     C62244   8.063   1.903   0.350 -0.4335 -0.6767 -0.3575
  452MOL0     C62245   8.183   1.871   0.423 -0.4372  0.6247 -0.0719
  452MOL0     O62246   8.254   1.755   0.402 -0.1583  0.0268 -0.2023
  452MOL0     C62247   8.268   1.699   0.268  0.2894  0.0799 -0.3508
  452MOL0     C62248   8.396   1.596   0.267  0.5459 -0.3091  0.0323
  452MOL0     C62249   8.339   1.451   0.297 -0.3791  0.3603  0.1233
  452MOL0     C62250   8.338   1.440   0.451 -0.2294 -1.2256  0.5400
  452MOL0     C62251   8.274   1.323   0.513  0.8310  0.1589 -0.2800
  452MOL0     C62252   8.326   1.278   0.647 -0.3104  0.2728  1.3640
  452MOL0     C62253   8.256   1.330   0.770  0.7879 -0.6121  0.3081
  452MOL0     C62254   8.329   1.309   0.909 -0.7063  0.2519 -0.1557
  452MOL0     N62255   8.319   1.168   0.947 -0.3437  0.3973 -0.1582
  452MOL0     C62256   8.202   1.102   0.992  0.1668  0.0492  0.2807
  452MOL0     C62257   8.229   0.974   0.989  0.1498  0.0564  0.0149
  452MOL0     C62258   8.134   0.858   1.018  0.6914  0.7588  0.1416
  452MOL0     C62259   8.035   0.841   0.895  0.0739  0.5372 -0.2448
  452MOL0     C62260   7.961   0.703   0.905 -0.4875  0.8480 -0.0445
  452MOL0     C62261   7.867   0.706   1.028  0.4581  0.6981  0.0406
  452MOL0     O62262   7.789   0.817   1.010 -0.4488 -0.3043 -0.1463
  452MOL0     C62263   7.660   0.842   1.057  0.4536  0.0709  0.3326
  452MOL0     C62264   7.589   0.958   1.038 -0.0658  0.4587 -0.4638
  452MOL0     C62265   7.464   0.980   1.086  0.2433 -0.1569 -0.4861
  452MOL0     C62266   7.402   1.104   1.031  0.7554  0.4246  0.7716
  452MOL0     C62267   7.401   0.882   1.171  0.0421 -0.6547  0.5237
  452MOL0     C62268   7.277   0.901   1.237 -0.3110 -0.2000  0.0356
  452MOL0     O62269   7.212   0.792   1.293 -0.0782  0.8962 -0.3624
  452MOL0     C62270   7.117   0.825   1.387  1.1310  0.2074  0.2965
  452MOL0     C62271   7.152   0.812   1.525 -0.8990 -0.1921  0.7585
  452MOL0     C62272   7.064   0.857   1.620  0.3781  0.7721 -0.4882
  452MOL0     C62273   6.932   0.901   1.602  0.2708  0.2357 -0.5429
  452MOL0     O62274   6.841   0.924   1.699  0.2887 -0.1979 -0.6064
  452MOL0     C62275   6.870   0.896   1.835 -0.2221 -0.4680 -0.3541
  452MOL0     C62276   6.959   0.992   1.918 -0.2871  0.1473  0.6691
  452MOL0     C62277   6.902   1.130   1.931 -0.5188 -0.2683  0.2061
  452MOL0     C62278   6.797   1.140   2.047  0.5338  0.0106  0.0317
  452MOL0     C62279   6.828   1.098   2.194 -0.3538 -0.0228  0.2712
  452MOL0     C62280   6.701   1.121   2.281  0.2340 -0.3459  0.4570
  452MOL0     C62281   6.665   1.262   2.301  0.3110  0.8021  0.3555
  452MOL0     C62282   6.516   1.255   2.348 -0.0980  0.2022 -0.1839
  452MOL0    Cl62283   6.459   1.418   2.383 -0.5390  0.0447 -0.1479
  452MOL0     C62284   6.889   0.900   1.469  0.1236 -0.3160 -0.7470
  452MOL0     C62285   6.982   0.863   1.359  0.9327  0.0587 -0.8625
  452MOL0     O62286   7.242   1.014   1.236  0.4229 -0.2726 -0.5652
  452MOL0     C62287   7.471   0.762   1.194  0.1427 -0.8707 -0.0124
  452MOL0     C62288   7.599   0.746   1.137  0.0219  0.0381 -0.1684
  452MOL0     N62289   8.363   0.959   0.945  0.4388 -0.0895 -0.1629
  452MOL0     N62290   8.421   1.073   0.923  0.1500  0.1540 -0.5544
  452MOL0     C62291   8.215   1.960   0.527  0.4000  0.3166 -1.3251
  452MOL0     C62292   8.142   2.068   0.561  0.4407 -0.3725 -0.2992
  452MOL0     C62293   7.774   2.331   0.656 -0.3067 -0.3571  0.0092
  452MOL0     C62294   7.865   2.431   0.701  0.9367 -0.5595 -0.4504
  452MOL0     C62295   7.817   2.544   0.772  0.7328  0.5210  0.4570
  452MOL0     C62296   7.681   2.572   0.796 -0.1044  0.1883 -0.5600
  452MOL0     O62297   7.639   2.668   0.884 -0.4390 -0.3931 -0.3213
  452MOL0     C62298   7.734   2.749   0.959 -0.0608 -0.2827 -0.2246
  452MOL0     C62299   7.791   2.853   0.863  0.3450  0.2468 -0.2501
  452MOL0     C62300   7.678   2.960   0.836  0.3346 -0.3946  0.0611
  452MOL0     C62301   7.726   3.062   0.741 -0.3266 -1.1476  0.5882
  452MOL0     C62302   7.842   3.139   0.800  0.7976 -0.5597  0.6720
  452MOL0     C62303   7.931   3.217   0.836 -1.1071  0.1104  0.5833
  452MOL0     C62304   7.584   2.481   0.745 -0.0712 -0.2920  0.0436
  452MOL0     C62305   7.630   2.368   0.673  0.3866 -0.2695 -0.1628
  452MOL0     C62306   7.520   2.253   0.648  0.1084 -0.8587 -0.1072
  452MOL0     H62307   7.895   2.028   0.329 -2.0807  0.0546  4.0770
  452MOL0     H62308   8.020   1.850   0.266  0.9553 -1.9353 -0.3176
  452MOL0     H62309   8.286   1.780   0.197  0.8071  0.9108  0.6931
  452MOL0     H62310   8.173   1.652   0.242 -0.3844  1.5490 -0.6751
  452MOL0     H62311   8.443   1.603   0.168 -0.6324 -2.3541 -0.7408
  452MOL0     H62312   8.474   1.635   0.332 -1.5967 -0.4992  2.9032
  452MOL0     H62313   8.242   1.439   0.247 -0.4413  2.5230 -0.4027
  452MOL0     H62314   8.397   1.370   0.250 -0.1702 -1.0579  2.6716
  452MOL0     H62315   8.445   1.431   0.471  0.1197  2.8591  1.4088
  452MOL0     H62316   8.305   1.532   0.500 -1.6551 -1.9635  1.0261
  452MOL0     H62317   8.266   1.241   0.442  2.3203  0.4738 -0.8480
  452MOL0     H62318   8.168   1.349   0.521  0.2664 -1.4505 -1.8362
  452MOL0     H62319   8.341   1.170   0.644 -1.2373  0.1628  0.5440
  452MOL0     H62320   8.429   1.316   0.643 -0.4619  0.6966 -2.7372
  452MOL0     H62321   8.164   1.271   0.782 -0.5314  1.5442  1.3462
  452MOL0     H62322   8.215   1.431   0.761 -1.6281 -1.4573  0.9445
  452MOL0     H62323   8.434   1.328   0.888  0.0414 -3.5758 -0.5050
  452MOL0     H62324   8.288   1.366   0.993 -0.6367  1.1982 -0.7425
  452MOL0     H62325   8.112   1.162   1.000  1.2174  1.8656 -0.8590
  452MOL0     H62326   8.075   0.857   1.109 -0.3090 -2.1268 -0.4425
  452MOL0     H62327   8.198   0.769   1.021 -0.4699 -0.0839  0.8616
  452MOL0     H62328   7.962   0.918   0.868 -0.9899  0.3014  1.8125
  452MOL0     H62329   8.098   0.841   0.805 -0.2094  2.0386 -0.4666
  452MOL0     H62330   7.903   0.679   0.816  1.3785  0.3262 -1.1782
  452MOL0     H62331   8.036   0.625   0.919  1.8448  3.1371  0.8843
  452MOL0     H62332   7.819   0.607   1.026  1.7685  0.0311 -1.5513
  452MOL0     H62333   7.921   0.717   1.122  1.8647 -0.4693 -0.5789
  452MOL0     H62334   7.647   1.031   0.981  3.2987 -1.4527  0.2229
  452MOL0     H62335   7.411   1.194   1.092 -0.2235  1.2651 -0.2782
  452MOL0     H62336   7.294   1.088   1.022  0.4699  1.1300  2.5758
  452MOL0     H62337   7.437   1.123   0.929  0.4039 -2.1246  0.1033
  452MOL0     H62338   7.254   0.780   1.545  0.7679  4.0110  0.1326
  452MOL0     H62339   7.102   0.824   1.716  4.1114  2.2656 -1.3106
  452MOL0     H62340   6.773   0.872   1.880 -0.3488 -2.4767 -1.5874
  452MOL0     H62341   6.925   0.803   1.852  1.0375 -0.2426 -2.7168
  452MOL0     H62342   6.992   0.953   2.015  0.1927 -1.4968 -0.1278
  452MOL0     H62343   7.052   1.011   1.863  1.0305  0.6087  2.9207
  452MOL0     H62344   6.833   1.160   1.852 -0.5664 -0.8698  0.0151
  452MOL0     H62345   6.979   1.203   1.958 -0.3110 -0.8818  1.3654
  452MOL0     H62346   6.714   1.075   2.017  1.3503 -0.9283 -0.2462
  452MOL0     H62347   6.756   1.241   2.039  1.0052  0.1842 -0.2050
  452MOL0     H62348   6.852   0.992   2.201  0.3167  0.1440  0.5700
  452MOL0     H62349   6.906   1.159   2.241  1.3626  0.5021 -2.9602
  452MOL0     H62350   6.719   1.094   2.385  1.4645  1.6772  0.8064
  452MOL0     H62351   6.612   1.069   2.243  1.4736 -0.5973 -2.3723
  452MOL0     H62352   6.677   1.324   2.212 -1.9353 -1.9545 -2.0885
  452MOL0     H62353   6.723   1.298   2.386 -3.2688 -0.6983  3.7410
  452MOL0     H62354   6.516   1.201   2.443 -0.9389  0.7883  0.1634
  452MOL0     H62355   6.456   1.201   2.275 -1.3838 -0.5007  1.3442
  452MOL0     H62356   6.783   0.923   1.457  0.2780  0.2827 -1.0104
  452MOL0     H62357   6.932   0.848   1.264  2.2956 -3.1964 -1.2017
  452MOL0     H62358   7.432   0.689   1.264  0.9365 -1.0084  0.2886
  452MOL0     H62359   7.643   0.649   1.160 -0.3103 -0.0412  0.1398
  452MOL0     H62360   8.303   1.937   0.587  0.2384 -1.0138 -1.5568
  452MOL0     H62361   8.179   2.122   0.648 -1.0472 -2.3490  1.6804
  452MOL0     H62362   7.972   2.428   0.685  1.0824  3.1994 -1.0143
  452MOL0     H62363   7.896   2.607   0.810  0.5054  1.8269 -1.1206
  452MOL0     H62364   7.684   2.800   1.042 -2.0918 -0.5154 -1.2489
  452MOL0     H62365   7.813   2.680   0.992 -0.5944 -1.4272 -1.2689
  452MOL0     H62366   7.826   2.811   0.768  1.7665 -2.3935  1.3010
  452MOL0     H62367   7.876   2.897   0.914 -0.2316 -1.1921  2.1270
  452MOL0     H62368   7.593   2.910   0.789 -1.4815  1.2295  1.4848
  452MOL0     H62369   7.638   3.009   0.926 -0.5855  0.9825 -1.0538
  452MOL0     H62370   7.651   3.135   0.707 -1.8337 -1.7811  2.3787
  452MOL0     H62371   7.757   3.015   0.647 -2.4616 -0.3080 -0.6302
  452MOL0     H62372   8.018   3.276   0.859  0.0750 -0.6434 -1.6584
  452MOL0     H62373   7.477   2.490   0.759  0.0828 -2.0880  3.6880
  452MOL0     H62374   7.538   2.172   0.719  1.3242 -1.6194 -1.2262
  452MOL0     H62375   7.418   2.292   0.655  0.8482  0.8271  3.1618
  452MOL0     H62376   7.526   2.218   0.544 -1.0068  0.5834 -0.6919
  453MOL0     O62377   7.449   4.410   0.182 -0.1500 -0.1462  0.3710
  453MOL0     C62378   7.447   4.293   0.209 -0.6861 -0.8467  0.2992
  453MOL0     O62379   7.555   4.224   0.242 -0.1428  0.3116  0.1449
  453MOL0     C62380   7.681   4.279   0.216 -0.2439  0.2608  0.7093
  453MOL0     C62381   7.712   4.312   0.086 -0.0262  0.7352  0.4065
  453MOL0     C62382   7.847   4.346   0.052  0.5661 -0.7497 -1.0114
  453MOL0     C62383   7.940   4.360   0.150  0.4078 -0.2702  0.3654
  453MOL0     O62384   8.052   4.402   0.094  0.5382  0.3135 -0.3216
  453MOL0     C62385   8.166   4.410   0.177  0.5165  0.2781 -1.0602
  453MOL0     C62386   8.276   4.472   0.093  1.3789 -0.2768  0.4896
  453MOL0     C62387   8.408   4.479   0.166 -0.1932 -0.4111 -0.4484
  453MOL0     C62388   8.408   4.554   0.302  0.0124  0.5023 -0.2954
  453MOL0     C62389   8.399   4.699   0.320  0.0939 -0.5920  0.3068
  453MOL0     C62390   8.480   4.790   0.229  0.1972 -0.5693 -0.2791
  453MOL0     C62391   8.629   4.782   0.270  0.2257  0.0178 -0.5188
  453MOL0     C62392   8.660   4.863   0.394 -1.0740  0.1324  0.4764
  453MOL0     N62393   8.811   4.841   0.426  0.3434 -0.6497  0.1471
  453MOL0     C62394   8.858   4.725   0.483 -0.0601 -0.3520 -0.3384
  453MOL0     C62395   8.984   4.755   0.513 -0.1677  1.4167 -0.2618
  453MOL0     C62396   9.074   4.650   0.574  0.0992  0.2667 -0.3824
  453MOL0     C62397   9.173   4.706   0.676  0.5315 -0.1704 -0.4095
  453MOL0     C62398   9.113   4.810   0.789  0.5225  0.4046  0.5915
  453MOL0     C62399   9.196   4.812   0.917  0.0164 -1.1489 -0.2164
  453MOL0     O62400   9.162   4.706   1.009 -0.6653  0.8171 -0.1382
  453MOL0     C62401   9.259   4.622   1.075 -0.0372 -0.7281 -0.8541
  453MOL0     C62402   9.387   4.675   1.114  0.2237 -0.5035  0.8063
  453MOL0     C62403   9.473   4.605   1.202 -0.5911 -0.2597 -0.9810
  453MOL0     C62404   9.600   4.678   1.246 -0.0908  0.2999  0.0582
  453MOL0     C62405   9.438   4.485   1.260 -0.1748  0.0526  1.0760
  453MOL0     C62406   9.523   4.399   1.349 -0.6454 -0.0354 -0.7381
  453MOL0     O62407   9.643   4.442   1.379  0.5855  0.4670  0.5478
  453MOL0     C62408   9.734   4.386   1.464 -0.0854 -0.7885  0.3324
  453MOL0     C62409   9.863   4.444   1.445  0.4216 -0.0862 -0.5721
  453MOL0     C62410   9.965   4.397   1.535  0.0988  0.8147  0.9613
  453MOL0     C62411   9.936   4.312   1.639  0.4288 -0.3005 -0.1055
  453MOL0     O62412  10.027   4.286   1.740 -0.5946  0.0298  0.6454
  453MOL0     C62413  10.069   4.155   1.756 -0.7623  0.1543 -0.8432
  453MOL0     C62414  10.212   4.147   1.817 -0.2518  0.2499 -0.2835
  453MOL0     C62415  10.227   3.999   1.878  0.1629 -0.4716 -0.4636
  453MOL0     C62416  10.377   3.961   1.929  1.0206  0.4031  0.1459
  453MOL0     C62417  10.369   3.823   1.993  0.3805  0.2623 -0.0270
  453MOL0     C62418  10.346   3.710   1.899 -0.3385 -0.5524 -0.3474
  453MOL0     C62419  10.326   3.584   1.986 -0.5676  0.1293  0.3500
  453MOL0     C62420  10.172   3.573   2.012  0.1999  0.1434  0.2896
  453MOL0    Cl62421  10.141   3.437   2.114  0.0668  0.1285 -0.1001
  453MOL0     C62422   9.808   4.251   1.650  0.2081 -0.0328  0.2577
  453MOL0     C62423   9.709   4.282   1.554  0.6209 -0.1886  0.0419
  453MOL0     O62424   9.473   4.292   1.395  0.1356 -0.7530  0.2881
  453MOL0     C62425   9.316   4.434   1.223  0.3521 -0.3114 -0.1544
  453MOL0     C62426   9.225   4.499   1.133  0.6679  0.0889 -0.8086
  453MOL0     N62427   9.021   4.879   0.467 -0.3012  0.0641 -0.2907
  453MOL0     N62428   8.908   4.923   0.401  0.2453  0.3543 -0.3161
  453MOL0     C62429   7.901   4.347   0.286  0.2839 -0.4432  0.6345
  453MOL0     C62430   7.772   4.295   0.312 -0.4711  0.7087  0.2105
  453MOL0     C62431   7.318   4.238   0.235  0.1512 -0.5819  0.1220
  453MOL0     C62432   7.198   4.317   0.231  0.3079 -0.4932 -0.3469
  453MOL0     C62433   7.070   4.266   0.234 -0.1202 -0.5153 -0.7721
  453MOL0     C62434   7.057   4.134   0.271 -0.5283  0.3026 -0.8791
  453MOL0     O62435   6.927   4.089   0.283  0.0674  0.3187  0.1581
  453MOL0     C62436   6.899   3.954   0.292 -0.0917  0.2607  0.0383
  453MOL0     C62437   6.748   3.928   0.333  0.1570  0.6765  1.3292
  453MOL0     C62438   6.648   3.961   0.212 -0.9360 -0.6028 -1.0476
  453MOL0     C62439   6.624   3.847   0.120  0.8663  0.4201  0.5800
  453MOL0     C62440   6.730   3.801   0.042 -0.2247  0.4180  0.0691
  453MOL0     C62441   6.827   3.781  -0.026 -0.3007  0.6710 -0.1101
  453MOL0     C62442   7.168   4.049   0.301 -0.0354 -0.6335  0.3120
  453MOL0     C62443   7.294   4.098   0.263  0.4384  0.6562 -0.1355
  453MOL0     C62444   7.404   3.999   0.255 -0.2536  0.1078 -0.2899
  453MOL0     H62445   7.640   4.303   0.005  0.6954  3.7149 -0.7049
  453MOL0     H62446   7.876   4.356  -0.052  2.7198  4.1529 -0.1912
  453MOL0     H62447   8.195   4.312   0.218 -2.1607 -0.1558  0.0247
  453MOL0     H62448   8.143   4.476   0.261  1.1475 -2.2722  1.2824
  453MOL0     H62449   8.290   4.414   0.001 -1.5921 -1.3223  0.5924
  453MOL0     H62450   8.249   4.574   0.067  3.1908 -0.8670 -4.9495
  453MOL0     H62451   8.435   4.374   0.181 -3.5313 -1.0427  2.3233
  453MOL0     H62452   8.481   4.524   0.098  1.5539 -1.1670  0.8606
  453MOL0     H62453   8.329   4.504   0.359 -0.3610 -0.1778 -1.3981
  453MOL0     H62454   8.506   4.521   0.338 -0.2703 -0.9478 -0.7929
  453MOL0     H62455   8.429   4.728   0.421  1.0080 -0.3511 -0.0232
  453MOL0     H62456   8.297   4.736   0.307  0.5094  0.3365 -0.4858
  453MOL0     H62457   8.466   4.761   0.125  1.0103 -3.9434  0.4446
  453MOL0     H62458   8.446   4.893   0.239  0.4281 -0.4122 -1.0255
  453MOL0     H62459   8.687   4.819   0.185 -0.1438 -2.8628 -2.1699
  453MOL0     H62460   8.657   4.680   0.296 -0.5034  0.1124  0.6834
  453MOL0     H62461   8.654   4.965   0.355  0.8766 -0.9934 -3.2694
  453MOL0     H62462   8.591   4.851   0.478  1.4251 -2.6297  2.3234
  453MOL0     H62463   8.812   4.628   0.497 -1.0289  0.1294 -0.1124
  453MOL0     H62464   9.133   4.598   0.497 -2.4095 -1.6228 -1.1594
  453MOL0     H62465   9.008   4.576   0.620  0.9829  0.3934  1.1371
  453MOL0     H62466   9.238   4.634   0.726  2.7165  0.0980 -2.6766
  453MOL0     H62467   9.249   4.763   0.622  2.2516  0.2658  2.2787
  453MOL0     H62468   9.095   4.903   0.735 -3.6171 -0.3181  0.4030
  453MOL0     H62469   9.010   4.776   0.803  0.5073  0.4871  0.6729
  453MOL0     H62470   9.304   4.808   0.897 -0.2433 -0.2465 -2.0376
  453MOL0     H62471   9.184   4.909   0.965 -1.7306 -1.1776 -0.5330
  453MOL0     H62472   9.424   4.772   1.082  1.5501 -0.7354  1.5255
  453MOL0     H62473   9.689   4.632   1.201 -0.0369  1.8583 -1.5660
  453MOL0     H62474   9.613   4.671   1.354  1.4888  1.7402  0.0136
  453MOL0     H62475   9.586   4.782   1.214  0.6732  0.0645 -1.1076
  453MOL0     H62476   9.885   4.510   1.361  1.0396 -0.5583 -0.7906
  453MOL0     H62477  10.066   4.434   1.519 -0.9431  2.3768 -3.4737
  453MOL0     H62478  10.001   4.112   1.831  2.4385 -1.6257  1.3139
  453MOL0     H62479  10.070   4.088   1.670  2.5463 -1.1287  0.0324
  453MOL0     H62480  10.294   4.160   1.745 -0.0834 -2.6472 -0.7547
  453MOL0     H62481  10.234   4.219   1.896  0.8779 -0.7172  0.3232
  453MOL0     H62482  10.191   3.918   1.813  0.9874 -2.7462  1.7685
  453MOL0     H62483  10.150   4.003   1.956  0.2378  1.8655 -0.4193
  453MOL0     H62484  10.405   4.027   2.011 -1.5934 -0.5132  1.9161
  453MOL0     H62485  10.450   3.969   1.848  2.5653  1.8537  1.6117
  453MOL0     H62486  10.462   3.809   2.049  0.3145 -1.2313 -0.2585
  453MOL0     H62487  10.279   3.831   2.054  0.9933  0.1604  0.9070
  453MOL0     H62488  10.443   3.700   1.849 -0.0858 -2.6018  0.4424
  453MOL0     H62489  10.263   3.730   1.830 -0.3979  1.6834  0.3010
  453MOL0     H62490  10.384   3.586   2.079 -1.7843  0.0146  1.1321
  453MOL0     H62491  10.361   3.496   1.932 -0.6769  0.7072 -0.6780
  453MOL0     H62492  10.124   3.577   1.914 -0.6161 -0.0711  0.6717
  453MOL0     H62493  10.135   3.662   2.062 -3.9715 -0.2342 -1.7125
  453MOL0     H62494   9.781   4.195   1.738 -1.1899  3.0404  1.9532
  453MOL0     H62495   9.613   4.235   1.571 -0.8259  1.1131 -3.5431
  453MOL0     H62496   9.283   4.336   1.256 -1.8792 -0.0677 -1.4520
  453MOL0     H62497   9.125   4.459   1.119  1.4513 -2.2573 -0.2438
  453MOL0     H62498   7.964   4.353   0.374 -0.5061  0.8535  1.1414
  453MOL0     H62499   7.738   4.274   0.413  1.3997  0.4353  0.8175
  453MOL0     H62500   7.213   4.422   0.206  0.1243 -0.1209  1.0177
  453MOL0     H62501   6.981   4.329   0.225 -0.6393 -0.7845  1.7322
  453MOL0     H62502   6.911   3.902   0.196 -2.0621  0.7205 -0.5010
  453MOL0     H62503   6.962   3.900   0.363 -0.1751  1.4025  1.0201
  453MOL0     H62504   6.725   3.984   0.424 -1.2022 -2.0288  2.7637
  453MOL0     H62505   6.736   3.821   0.356 -0.2979  0.0616 -1.4830
  453MOL0     H62506   6.549   3.988   0.250 -0.4106 -0.7152  0.4686
  453MOL0     H62507   6.694   4.046   0.160  2.1291 -2.1695 -1.1130
  453MOL0     H62508   6.534   3.871   0.062 -0.5217 -0.3572  2.3179
  453MOL0     H62509   6.583   3.773   0.189  0.9143 -0.2574 -0.1049
  453MOL0     H62510   6.908   3.743  -0.085  0.2969 -1.9098  2.1933
  453MOL0     H62511   7.162   3.944   0.331  1.9804 -0.3915  1.7571
  453MOL0     H62512   7.466   4.012   0.166 -0.8617  4.3095 -0.3101
  453MOL0     H62513   7.466   4.025   0.342 -0.9100 -0.6735  0.4259
  453MOL0     H62514   7.361   3.899   0.256 -0.4548  0.1931  0.4702
  454MOL0     O62515   4.124   6.495   9.276 -0.2009 -0.4126 -0.1180
  454MOL0     C62516   4.134   6.612   9.301 -0.0045 -0.0892 -1.4333
  454MOL0     O62517   4.190   6.657   9.418  0.3568 -0.3534 -0.3361
  454MOL0     C62518   4.278   6.571   9.472 -0.0727 -0.3289 -0.2806
  454MOL0     C62519   4.242   6.486   9.583 -0.3820 -0.7204 -0.6215
  454MOL0     C62520   4.339   6.412   9.642 -0.3644  0.7999  0.0191
  454MOL0     C62521   4.475   6.407   9.603 -1.0227  0.3140  0.5993
  454MOL0     O62522   4.565   6.314   9.656  0.2536 -0.3090 -1.2387
  454MOL0     C62523   4.709   6.337   9.644 -0.0462 -0.3281  0.0336
  454MOL0     C62524   4.762   6.285   9.512  0.0698  0.1650  0.6043
  454MOL0     C62525   4.878   6.365   9.447 -0.1748 -0.3683 -0.1977
  454MOL0     C62526   4.996   6.386   9.533  0.5040 -0.1842  0.0588
  454MOL0     C62527   5.100   6.475   9.466 -1.0234  0.5556 -0.5743
  454MOL0     C62528   5.235   6.493   9.548  0.1945 -0.1920 -0.1636
  454MOL0     C62529   5.337   6.379   9.525 -0.2363  0.6368 -0.5674
  454MOL0     C62530   5.476   6.417   9.563 -0.8246  0.0162 -0.7596
  454MOL0     N62531   5.588   6.329   9.516  0.7431 -0.2551  0.0431
  454MOL0     C62532   5.726   6.373   9.510 -0.4941  0.1069  0.1355
  454MOL0     C62533   5.805   6.269   9.476 -0.1508  0.1354  0.0887
  454MOL0     C62534   5.956   6.262   9.474 -0.3733 -1.2277  0.7403
  454MOL0     C62535   6.006   6.364   9.365  0.2415 -0.0512 -0.4090
  454MOL0     C62536   6.035   6.295   9.231  0.8736 -0.7371 -0.3302
  454MOL0     C62537   6.065   6.396   9.127 -0.0820 -0.1733 -0.1933
  454MOL0     O62538   6.180   6.466   9.172 -0.3733 -0.1982  0.3163
  454MOL0     C62539   6.234   6.570   9.104  0.3949 -0.9403 -0.2612
  454MOL0     C62540   6.338   6.646   9.158 -0.2652 -1.2162  0.7692
  454MOL0     C62541   6.383   6.756   9.095  0.0161 -1.4387 -0.7709
  454MOL0     C62542   6.490   6.845   9.178 -0.9212  0.6234 -0.3785
  454MOL0     C62543   6.326   6.800   8.968  0.1282  0.5358 -0.7630
  454MOL0     C62544   6.363   6.925   8.897  0.5435 -0.3903 -0.4579
  454MOL0     O62545   6.479   6.983   8.922 -0.5711  0.3352 -1.1641
  454MOL0     C62546   6.499   7.082   8.823  0.5312  0.2506 -0.1645
  454MOL0     C62547   6.539   7.058   8.688  0.2146  0.2619  0.1016
  454MOL0     C62548   6.560   7.167   8.605 -0.0061 -0.2191 -0.8974
  454MOL0     C62549   6.532   7.304   8.638 -0.6583  0.4884  0.3627
  454MOL0     O62550   6.537   7.398   8.534 -0.1380  0.2633  0.6801
  454MOL0     C62551   6.532   7.535   8.577 -0.8337  0.3445 -0.8794
  454MOL0     C62552   6.609   7.622   8.476 -0.2383  0.2376  0.4323
  454MOL0     C62553   6.533   7.627   8.341 -0.3293  0.0652 -0.4874
  454MOL0     C62554   6.592   7.745   8.258 -0.0514 -0.0214  0.4738
  454MOL0     C62555   6.550   7.738   8.111  0.0665 -0.1896  0.7213
  454MOL0     C62556   6.615   7.851   8.020  0.5647  0.3617 -0.3622
  454MOL0     C62557   6.553   7.852   7.877  0.4145  0.2886  0.8574
  454MOL0     C62558   6.608   7.747   7.783 -0.3206  0.2576  0.5545
  454MOL0    Cl62559   6.520   7.746   7.623  0.2093 -0.2390  0.1982
  454MOL0     C62560   6.499   7.328   8.776  0.2170  0.6075 -0.1403
  454MOL0     C62561   6.483   7.220   8.867 -0.5198  0.3186 -0.2325
  454MOL0     O62562   6.272   6.976   8.831  0.5169  0.4461  0.7220
  454MOL0     C62563   6.223   6.721   8.915  0.1874 -1.0977  0.8179
  454MOL0     C62564   6.184   6.606   8.979  0.7707 -1.0638  0.3161
  454MOL0     N62565   5.711   6.164   9.443  0.0527 -0.3448  0.0818
  454MOL0     N62566   5.590   6.195   9.474  0.0722  0.0749 -0.2837
  454MOL0     C62567   4.508   6.485   9.497  0.8389  0.6114  1.2879
  454MOL0     C62568   4.413   6.560   9.429  0.4719 -0.9244 -0.0699
  454MOL0     C62569   4.075   6.707   9.204 -0.7384 -0.7973 -0.8170
  454MOL0     C62570   4.084   6.666   9.079  0.9178 -0.8368  0.9339
  454MOL0     C62571   4.049   6.748   8.970  0.0593  0.0936  1.0893
  454MOL0     C62572   4.001   6.879   8.996 -0.4086 -0.5365 -0.3338
  454MOL0     O62573   3.969   6.967   8.897 -0.4102 -0.1901 -0.2304
  454MOL0     C62574   4.031   6.952   8.763 -0.0447  1.1148  0.1301
  454MOL0     C62575   4.055   7.088   8.698  0.2311 -0.6131 -0.2372
  454MOL0     C62576   3.919   7.139   8.650 -0.9326  0.8496  0.2008
  454MOL0     C62577   3.937   7.242   8.546 -0.0429 -0.2906 -0.5213
  454MOL0     C62578   3.991   7.373   8.586 -0.1917  1.1500 -0.3981
  454MOL0     C62579   4.026   7.484   8.621  0.9957  0.5175 -0.4753
  454MOL0     C62580   3.986   6.914   9.131 -0.6740 -0.3097  0.8988
  454MOL0     C62581   4.016   6.830   9.236 -0.9344  0.1508 -0.2704
  454MOL0     C62582   3.977   6.867   9.378 -0.1884 -0.2212 -0.4864
  454MOL0     H62583   4.148   6.493   9.637  1.0073  2.1024  1.7041
  454MOL0     H62584   4.308   6.354   9.728  0.2218 -0.6541 -0.7219
  454MOL0     H62585   4.759   6.288   9.728  2.0835 -1.4103 -1.7786
  454MOL0     H62586   4.729   6.442   9.663 -2.5309  0.3559 -0.6855
  454MOL0     H62587   4.798   6.182   9.522 -2.2791 -0.5988  2.1285
  454MOL0     H62588   4.682   6.282   9.438  0.7839  0.4656 -0.2006
  454MOL0     H62589   4.904   6.307   9.358  0.5065 -0.7549  0.2422
  454MOL0     H62590   4.844   6.465   9.419  2.2224 -0.2546 -3.2138
  454MOL0     H62591   4.955   6.427   9.626 -0.8340 -4.2193  1.4487
  454MOL0     H62592   5.040   6.290   9.560  0.9619 -0.3351 -1.1785
  454MOL0     H62593   5.050   6.570   9.443 -0.8481  1.2496  1.6944
  454MOL0     H62594   5.122   6.428   9.369  1.2580 -2.1276  1.1007
  454MOL0     H62595   5.283   6.580   9.504  2.4198 -1.8294 -1.1833
  454MOL0     H62596   5.226   6.515   9.654  0.3234  0.8008 -0.3557
  454MOL0     H62597   5.341   6.371   9.416  1.7626  0.5504 -0.5331
  454MOL0     H62598   5.295   6.281   9.549 -0.9636 -0.4697 -5.2539
  454MOL0     H62599   5.505   6.516   9.527 -0.8222 -0.0984 -1.0859
  454MOL0     H62600   5.471   6.418   9.672 -0.1708  1.7925 -0.7188
  454MOL0     H62601   5.763   6.471   9.538  0.9311 -0.7297  1.3849
  454MOL0     H62602   6.008   6.166   9.475  0.2143 -0.9148  1.1590
  454MOL0     H62603   5.989   6.307   9.568 -0.9107  0.3291  0.2274
  454MOL0     H62604   5.931   6.441   9.341  2.6824  2.1088 -1.5937
  454MOL0     H62605   6.093   6.419   9.401 -0.6337  0.6696  0.6697
  454MOL0     H62606   6.115   6.220   9.241 -1.1909 -2.8791  1.1809
  454MOL0     H62607   5.939   6.247   9.211 -0.7500  1.2565  2.1330
  454MOL0     H62608   6.092   6.357   9.028  1.6651  3.3642 -1.2767
  454MOL0     H62609   5.972   6.454   9.119 -2.3468 -3.4473  0.2181
  454MOL0     H62610   6.370   6.613   9.256 -2.9736 -2.2160  1.3987
  454MOL0     H62611   6.572   6.869   9.109 -2.6225  1.6926 -2.1395
  454MOL0     H62612   6.531   6.782   9.258  0.0566 -0.5883 -1.7757
  454MOL0     H62613   6.451   6.944   9.200 -1.7851  1.0577 -3.3828
  454MOL0     H62614   6.567   6.955   8.665  0.9661 -0.2402  2.8510
  454MOL0     H62615   6.610   7.153   8.509  1.8615 -0.9360  0.1189
  454MOL0     H62616   6.425   7.554   8.586 -0.8062 -0.4577  2.9486
  454MOL0     H62617   6.569   7.552   8.678 -3.2776 -0.2199  0.1828
  454MOL0     H62618   6.641   7.719   8.517 -0.2339  1.5036 -2.3655
  454MOL0     H62619   6.702   7.565   8.466  1.0598  2.2152  0.5879
  454MOL0     H62620   6.427   7.639   8.362  0.2181  2.0515  1.4759
  454MOL0     H62621   6.538   7.535   8.282 -1.2824  1.2860 -2.5880
  454MOL0     H62622   6.702   7.745   8.263  0.2266 -2.3092 -2.7595
  454MOL0     H62623   6.562   7.838   8.308 -0.0849 -1.2792  2.9677
  454MOL0     H62624   6.583   7.644   8.066 -4.2583 -0.8721 -1.5572
  454MOL0     H62625   6.442   7.729   8.105  0.0640  0.1561  0.2269
  454MOL0     H62626   6.724   7.843   8.021  0.6394 -1.6005  4.8051
  454MOL0     H62627   6.593   7.942   8.077  0.7667 -0.4760  1.1124
  454MOL0     H62628   6.584   7.953   7.849 -1.3157  1.2967  2.2984
  454MOL0     H62629   6.444   7.850   7.887  0.1418  0.2870 -1.5590
  454MOL0     H62630   6.598   7.658   7.845  1.2304  0.0953  0.6069
  454MOL0     H62631   6.715   7.758   7.762 -0.7728 -0.6451 -2.8270
  454MOL0     H62632   6.481   7.427   8.816 -0.3020  2.3803 -4.2099
  454MOL0     H62633   6.468   7.243   8.972  1.3506  1.7630 -0.2256
  454MOL0     H62634   6.179   6.743   8.818 -1.6354  2.1162  2.2026
  454MOL0     H62635   6.106   6.549   8.930  0.7678 -0.8060  0.0174
  454MOL0     H62636   4.611   6.487   9.464  0.3463 -0.5343 -0.4640
  454MOL0     H62637   4.449   6.615   9.343 -1.9252 -0.2477 -0.7337
  454MOL0     H62638   4.119   6.566   9.055  1.5492 -0.9505  2.2561
  454MOL0     H62639   4.065   6.720   8.866 -2.3924 -0.1648  0.7309
  454MOL0     H62640   4.129   6.909   8.781 -0.6024  0.4244  1.6587
  454MOL0     H62641   3.973   6.881   8.703  1.3949 -0.1204  0.1359
  454MOL0     H62642   4.120   7.067   8.612  1.7404  0.1773  0.6711
  454MOL0     H62643   4.109   7.160   8.761  1.0339  0.7515 -2.3425
  454MOL0     H62644   3.874   7.055   8.596  2.9961 -2.3028  1.3696
  454MOL0     H62645   3.853   7.162   8.734 -0.2102  1.9557  0.4771
  454MOL0     H62646   3.834   7.259   8.514 -0.0875  1.0468  0.2802
  454MOL0     H62647   3.991   7.206   8.457 -2.1571  1.2713 -2.5545
  454MOL0     H62648   4.042   7.581   8.662 -1.5605  0.0011  2.0572
  454MOL0     H62649   3.946   7.011   9.159  1.3217  0.5688  0.8784
  454MOL0     H62650   3.982   6.784   9.450 -2.9602 -1.8637 -2.0157
  454MOL0     H62651   4.013   6.966   9.406  0.3110 -0.6505  0.4539
  454MOL0     H62652   3.869   6.883   9.379 -1.0372 -4.5745 -1.3664
  455MOL0     O62653  10.639   2.172   7.089  0.0534  0.6495  0.9588
  455MOL0     C62654  10.634   2.053   7.114 -0.8168 -0.0279  0.3792
  455MOL0     O62655  10.525   1.973   7.131  0.0634 -0.0686  0.0758
  455MOL0     C62656  10.411   2.041   7.162  0.1014  0.7851 -0.1504
  455MOL0     C62657  10.336   2.005   7.283 -0.1343 -0.6614  0.1200
  455MOL0     C62658  10.216   2.070   7.322 -0.3932  0.1267  0.9252
  455MOL0     C62659  10.149   2.145   7.227  0.3915  0.6886 -0.2993
  455MOL0     O62660  10.016   2.166   7.252 -0.2279  0.0174  0.0278
  455MOL0     C62661   9.951   2.289   7.220  0.1683  0.5558  0.1646
  455MOL0     C62662   9.867   2.248   7.100  0.4225  0.3993  0.2226
  455MOL0     C62663   9.747   2.171   7.140 -0.3879 -0.2653  0.2145
  455MOL0     C62664   9.644   2.136   7.019 -0.1693  0.5651  1.0659
  455MOL0     C62665   9.558   2.008   7.013 -0.7320 -0.1643 -0.2143
  455MOL0     C62666   9.647   1.884   7.044  0.2150  0.1865  0.1508
  455MOL0     C62667   9.781   1.887   6.975  0.1826 -0.0173  0.7178
  455MOL0     C62668   9.825   1.735   6.958 -0.6838 -0.2545  0.0554
  455MOL0     N62669   9.945   1.716   6.865 -0.0507 -0.4070 -0.5672
  455MOL0     C62670  10.068   1.780   6.880  0.4224  0.1902 -0.5852
  455MOL0     C62671  10.153   1.722   6.794  0.2363  0.5507 -0.5599
  455MOL0     C62672  10.290   1.738   6.745  0.2885 -0.1105  0.4610
  455MOL0     C62673  10.365   1.838   6.826 -0.3766 -0.5784  0.6857
  455MOL0     C62674  10.523   1.854   6.795  0.8966 -0.7362 -0.1797
  455MOL0     C62675  10.600   1.728   6.791  0.4238  0.0691  0.1387
  455MOL0     O62676  10.736   1.771   6.802  0.5344 -0.2736 -0.5908
  455MOL0     C62677  10.821   1.691   6.730  0.3431 -0.3700 -0.1520
  455MOL0     C62678  10.918   1.746   6.648  0.4067 -0.7294  0.2454
  455MOL0     C62679  10.991   1.664   6.565  0.1174  0.1045 -0.0359
  455MOL0     C62680  11.071   1.730   6.461 -0.4596  0.2484 -0.6464
  455MOL0     C62681  10.972   1.523   6.565 -0.2753 -0.0799  0.1299
  455MOL0     C62682  11.046   1.422   6.483 -0.9539 -0.0252  0.0872
  455MOL0     O62683  11.182   1.456   6.471  0.2862 -0.0340  0.0947
  455MOL0     C62684  11.238   1.418   6.354  0.2711  0.6567 -1.2659
  455MOL0     C62685  11.167   1.400   6.229 -0.6278  0.0276 -0.5221
  455MOL0     C62686  11.235   1.369   6.119  0.4953  1.0800 -0.1726
  455MOL0     C62687  11.375   1.345   6.125  0.6438  0.7596  1.1146
  455MOL0     O62688  11.456   1.321   6.014  0.3198  0.3334  0.4392
  455MOL0     C62689  11.451   1.417   5.906 -0.9627 -0.0012 -0.5415
  455MOL0     C62690  11.563   1.519   5.929  0.4118 -0.5431  0.1264
  455MOL0     C62691  11.712   1.468   5.941  0.6097 -0.3105 -0.7016
  455MOL0     C62692  11.806   1.585   5.949  0.1052 -0.0829  0.0550
  455MOL0     C62693  11.949   1.530   5.950 -0.4971 -0.1001 -0.1439
  455MOL0     C62694  12.017   1.554   6.083  0.1134 -0.1227  0.1758
  455MOL0     C62695  12.159   1.484   6.071  0.2200 -0.4715  0.6008
  455MOL0     C62696  12.245   1.509   6.189  0.4193  0.4254 -0.3460
  455MOL0    Cl62697  12.406   1.460   6.133 -0.1120  0.2188  0.0508
  455MOL0     C62698  11.443   1.365   6.251  0.4266  0.1284  0.3290
  455MOL0     C62699  11.373   1.399   6.369 -0.0386  0.6059 -0.5762
  455MOL0     O62700  10.992   1.317   6.436 -0.3681  0.3678  0.2571
  455MOL0     C62701  10.886   1.470   6.660 -0.0954 -0.0639  0.3513
  455MOL0     C62702  10.813   1.547   6.741 -0.1626 -0.4722  0.2731
  455MOL0     N62703  10.088   1.622   6.729  0.4992  0.1204  0.8138
  455MOL0     N62704   9.963   1.630   6.763 -0.2963  0.8672  0.1276
  455MOL0     C62705  10.204   2.178   7.102  0.5458 -0.5439 -0.4915
  455MOL0     C62706  10.338   2.128   7.074 -0.5362 -0.1454  0.6515
  455MOL0     C62707  10.761   1.973   7.117  0.2481  0.3547 -0.0069
  455MOL0     C62708  10.744   1.835   7.147  0.1116 -0.6971 -0.2848
  455MOL0     C62709  10.843   1.759   7.177 -0.6420  0.0551 -0.6395
  455MOL0     C62710  10.978   1.794   7.146  0.6226 -0.2877  0.1053
  455MOL0     O62711  11.081   1.705   7.140  0.6723 -0.5966 -0.5841
  455MOL0     C62712  11.087   1.653   7.006 -0.7016 -0.4255  0.0242
  455MOL0     C62713  11.222   1.613   6.968  0.7475 -0.1269  0.6246
  455MOL0     C62714  11.216   1.578   6.822 -0.2813  0.1429  0.4463
  455MOL0     C62715  11.352   1.533   6.777  0.0979 -0.1329  0.2298
  455MOL0     C62716  11.453   1.631   6.757 -0.5142 -0.3247  0.6717
  455MOL0     C62717  11.545   1.710   6.744  0.8592  0.8289  0.6577
  455MOL0     C62718  11.001   1.923   7.105  0.3229 -0.1789  0.3988
  455MOL0     C62719  10.893   2.017   7.103  0.0596 -0.1328  0.0126
  455MOL0     C62720  10.919   2.156   7.054  0.1809  0.3694  0.1283
  455MOL0     H62721  10.363   1.930   7.356  0.0223  0.5007  1.2924
  455MOL0     H62722  10.160   2.043   7.411  0.9377 -1.8844  1.2261
  455MOL0     H62723  10.020   2.368   7.190  0.0377 -0.2361 -2.4735
  455MOL0     H62724   9.879   2.325   7.294  0.2075 -0.4732  0.7217
  455MOL0     H62725   9.825   2.342   7.063  1.2635  2.0467  3.1430
  455MOL0     H62726   9.913   2.197   7.015 -1.2204 -2.5882  0.9883
  455MOL0     H62727   9.786   2.080   7.186  0.7020  0.9765  1.8870
  455MOL0     H62728   9.695   2.227   7.218  4.4011 -1.1755  4.6340
  455MOL0     H62729   9.580   2.224   7.007  0.2635  0.5816 -1.7687
  455MOL0     H62730   9.697   2.142   6.924 -1.0808 -0.0636  0.5087
  455MOL0     H62731   9.508   2.002   6.915 -1.2375  0.3804  0.0061
  455MOL0     H62732   9.475   2.003   7.084  0.5608 -1.7685  1.2487
  455MOL0     H62733   9.659   1.879   7.153 -1.0191 -1.0771  0.2580
  455MOL0     H62734   9.597   1.793   7.010 -1.6100  1.5432 -0.9719
  455MOL0     H62735   9.857   1.938   7.035  0.9231  1.1944 -1.1612
  455MOL0     H62736   9.768   1.936   6.878  3.4061 -1.0985 -0.3801
  455MOL0     H62737   9.857   1.713   7.061  1.8588  0.6104 -0.4764
  455MOL0     H62738   9.750   1.658   6.940 -0.3281 -0.5591 -0.1560
  455MOL0     H62739  10.094   1.868   6.938 -0.6908 -0.6188  1.2330
  455MOL0     H62740  10.288   1.760   6.637  0.9749 -0.7662  0.3032
  455MOL0     H62741  10.347   1.645   6.754  1.5561  0.5619 -0.2345
  455MOL0     H62742  10.313   1.934   6.824 -1.4087 -1.1029  1.2754
  455MOL0     H62743  10.363   1.811   6.932 -0.0283 -2.5846  0.2234
  455MOL0     H62744  10.532   1.919   6.707  0.2627  2.7262  2.1042
  455MOL0     H62745  10.556   1.926   6.870 -1.2776  1.4389 -1.1727
  455MOL0     H62746  10.576   1.664   6.876  1.7183  0.1755  0.6012
  455MOL0     H62747  10.589   1.686   6.690  1.2036 -1.2326  0.5623
  455MOL0     H62748  10.933   1.853   6.636 -1.6364 -0.4309  0.1231
  455MOL0     H62749  11.063   1.688   6.360  2.3853  0.3879 -1.0319
  455MOL0     H62750  11.178   1.743   6.482  0.5712 -1.3992 -4.1205
  455MOL0     H62751  11.037   1.834   6.455 -0.1600  0.3529 -0.5809
  455MOL0     H62752  11.061   1.419   6.220 -0.5661  0.1421 -1.0920
  455MOL0     H62753  11.185   1.344   6.026  2.5540 -1.3371 -0.7171
  455MOL0     H62754  11.457   1.354   5.817  2.1551 -0.7711  0.1148
  455MOL0     H62755  11.355   1.470   5.906 -0.4330  1.1698  2.5656
  455MOL0     H62756  11.573   1.577   5.837  2.3060  0.6573  0.9977
  455MOL0     H62757  11.531   1.597   5.999 -4.1878 -1.8428 -0.2130
  455MOL0     H62758  11.731   1.396   5.862 -2.4980  0.7640 -2.6130
  455MOL0     H62759  11.714   1.421   6.040  1.8332 -1.5565 -1.2761
  455MOL0     H62760  11.793   1.655   6.032  1.6732 -1.1717  1.2883
  455MOL0     H62761  11.800   1.637   5.853 -0.1165 -0.1553  0.0312
  455MOL0     H62762  11.949   1.422   5.936  2.1753 -0.5596  2.3213
  455MOL0     H62763  12.021   1.560   5.874 -0.0717 -3.6382 -1.3018
  455MOL0     H62764  11.955   1.502   6.156 -1.2672 -1.0805 -1.5957
  455MOL0     H62765  12.032   1.661   6.098  2.3262  0.3777 -4.0621
  455MOL0     H62766  12.211   1.533   5.988  2.2149 -1.3794  1.2473
  455MOL0     H62767  12.147   1.378   6.051 -3.0611 -0.5617  2.4404
  455MOL0     H62768  12.223   1.456   6.282 -1.4352  1.4485 -0.1685
  455MOL0     H62769  12.238   1.617   6.206  0.4927  0.3195  0.3778
  455MOL0     H62770  11.552   1.361   6.246  0.7530  1.1658  3.8759
  455MOL0     H62771  11.430   1.420   6.459 -0.0647  0.2355 -0.4741
  455MOL0     H62772  10.872   1.362   6.661  0.1724 -0.1029 -0.0616
  455MOL0     H62773  10.761   1.501   6.824  2.0171 -1.3056  1.2352
  455MOL0     H62774  10.130   2.240   7.050  0.4490  1.7561  2.1530
  455MOL0     H62775  10.371   2.164   6.977 -1.4073  0.0417  0.4191
  455MOL0     H62776  10.651   1.780   7.161  0.7527 -1.2495  2.3218
  455MOL0     H62777  10.819   1.664   7.224 -1.1989  1.4237  2.0584
  455MOL0     H62778  11.028   1.561   7.002 -4.4511  1.8277 -1.7499
  455MOL0     H62779  11.029   1.709   6.932  0.1017  0.0825 -0.2387
  455MOL0     H62780  11.266   1.529   7.023  0.7680  0.9413  2.2901
  455MOL0     H62781  11.290   1.698   6.977 -1.1665  1.4647  0.5453
  455MOL0     H62782  11.137   1.507   6.796 -0.5161  0.2701  0.7996
  455MOL0     H62783  11.191   1.667   6.763  0.4156  0.6733  0.9469
  455MOL0     H62784  11.331   1.495   6.677 -0.2735  2.3239 -0.7007
  455MOL0     H62785  11.383   1.458   6.851  2.1315  2.0593  1.7564
  455MOL0     H62786  11.618   1.788   6.738 -1.0161  2.8091  1.8596
  455MOL0     H62787  11.101   1.950   7.076  1.1735 -2.2920  1.1679
  455MOL0     H62788  10.867   2.243   7.096 -0.2271  0.9201 -1.4587
  455MOL0     H62789  11.028   2.167   7.054  0.0476  2.1571  1.8087
  455MOL0     H62790  10.894   2.157   6.948 -0.4359 -0.0120  0.2615
  456MOL0     O62791   1.539  10.771   2.034 -0.4099  0.5658  0.4681
  456MOL0     C62792   1.430  10.804   2.087 -0.5012  0.1185  0.1206
  456MOL0     O62793   1.355  10.912   2.037  0.1800 -0.3093 -0.3099
  456MOL0     C62794   1.349  10.946   1.904  0.4644 -0.0359 -0.4340
  456MOL0     C62795   1.349  10.853   1.796 -0.3063  0.6405  0.1938
  456MOL0     C62796   1.347  10.903   1.667 -0.1592  0.3135  0.5643
  456MOL0     C62797   1.323  11.036   1.634 -0.2990 -1.3512 -0.0449
  456MOL0     O62798   1.306  11.076   1.505 -0.6701  0.0667  1.0308
  456MOL0     C62799   1.323  10.979   1.399  1.1949 -1.1507 -0.3476
  456MOL0     C62800   1.313  11.047   1.263  0.4238 -0.4687 -0.5501
  456MOL0     C62801   1.444  11.070   1.194  0.0972  0.2893 -0.1611
  456MOL0     C62802   1.527  11.187   1.245 -0.1117 -0.6314  0.0103
  456MOL0     C62803   1.655  11.179   1.162 -0.1316  0.4420 -0.0144
  456MOL0     C62804   1.732  11.306   1.178  0.3337  0.5342  0.7775
  456MOL0     C62805   1.830  11.339   1.059  1.0151  0.2031 -0.2437
  456MOL0     C62806   1.763  11.378   0.927  0.7614 -0.6308 -0.3248
  456MOL0     N62807   1.861  11.441   0.824  0.2674  0.0544 -0.2175
  456MOL0     C62808   1.890  11.576   0.800  0.4202  0.9017  0.1421
  456MOL0     C62809   1.953  11.574   0.682  0.1788  0.1572 -0.3277
  456MOL0     C62810   1.982  11.705   0.610 -0.3213  0.6105 -0.0650
  456MOL0     C62811   1.865  11.780   0.554 -0.2451  0.4835 -0.5323
  456MOL0     C62812   1.906  11.904   0.465 -0.2000 -0.2833  0.7302
  456MOL0     C62813   1.911  12.026   0.552  0.1277 -0.5575  0.4259
  456MOL0     O62814   2.009  12.011   0.658 -0.5312  0.5233 -0.1245
  456MOL0     C62815   2.013  12.103   0.764  0.3281  0.1147 -0.2699
  456MOL0     C62816   1.937  12.218   0.766  0.9630 -0.3509 -0.2647
  456MOL0     C62817   1.946  12.312   0.878 -0.7278 -1.2061  0.9240
  456MOL0     C62818   1.860  12.446   0.878 -0.0210 -0.3854 -0.1963
  456MOL0     C62819   2.017  12.274   0.993  0.0263  0.8470 -0.1739
  456MOL0     C62820   2.027  12.349   1.122 -0.3764 -0.5671 -0.3541
  456MOL0     O62821   2.149  12.353   1.186  0.0034 -0.2313  0.8312
  456MOL0     C62822   2.189  12.462   1.261  0.5010 -0.1961 -1.0005
  456MOL0     C62823   2.299  12.447   1.350 -0.4582 -0.0348 -1.2597
  456MOL0     C62824   2.347  12.553   1.426  0.2119  0.0053 -0.7233
  456MOL0     C62825   2.273  12.676   1.422 -0.4170 -0.4367 -0.3721
  456MOL0     O62826   2.313  12.766   1.519 -0.0432  0.0325  0.0255
  456MOL0     C62827   2.252  12.898   1.519  0.9902 -0.2916 -0.5399
  456MOL0     C62828   2.332  12.977   1.622 -0.5590 -0.1795  0.0453
  456MOL0     C62829   2.310  13.130   1.596  0.9879  0.5950 -0.2358
  456MOL0     C62830   2.381  13.214   1.702  0.6597  0.9462  0.0866
  456MOL0     C62831   2.390  13.360   1.661 -0.4669 -0.3475 -0.3620
  456MOL0     C62832   2.462  13.441   1.774 -0.6841 -0.0970 -0.2282
  456MOL0     C62833   2.607  13.409   1.785 -1.6546 -0.5003 -0.4531
  456MOL0     C62834   2.673  13.510   1.881  0.2308 -0.0491 -0.1576
  456MOL0    Cl62835   2.692  13.681   1.820 -0.0295 -0.0074  0.5410
  456MOL0     C62836   2.176  12.698   1.330  0.7002 -0.2010 -0.4359
  456MOL0     C62837   2.139  12.588   1.244  0.1646  0.0759 -0.0373
  456MOL0     O62838   1.924  12.394   1.174 -0.5365  0.0654 -0.3972
  456MOL0     C62839   2.087  12.148   0.989  0.1851 -0.1001 -0.0822
  456MOL0     C62840   2.081  12.065   0.876  0.1211 -1.0989 -0.1916
  456MOL0     N62841   1.961  11.453   0.627  0.1124  0.5950 -0.5822
  456MOL0     N62842   1.901  11.371   0.713  0.8131 -0.4940  0.2912
  456MOL0     C62843   1.285  11.123   1.738 -1.2232  0.8809  0.4753
  456MOL0     C62844   1.304  11.078   1.872 -1.0361 -0.8893 -1.4839
  456MOL0     C62845   1.388  10.747   2.221  0.3244  0.0924 -0.1149
  456MOL0     C62846   1.298  10.815   2.298  0.0480 -0.1888  0.3355
  456MOL0     C62847   1.243  10.765   2.415 -0.6991 -0.6605 -0.3800
  456MOL0     C62848   1.283  10.638   2.460  0.6980 -0.3119 -0.3359
  456MOL0     O62849   1.219  10.576   2.568  0.3062  0.5592 -0.9769
  456MOL0     C62850   1.155  10.452   2.540  1.2720  0.0420 -0.2470
  456MOL0     C62851   1.015  10.457   2.608  0.4827 -0.2289 -0.6366
  456MOL0     C62852   0.951  10.325   2.649 -0.3345 -0.1202 -0.4771
  456MOL0     C62853   0.939  10.233   2.527 -0.5094 -1.2109  0.2964
  456MOL0     C62854   1.068  10.177   2.482 -0.1549 -0.2127  0.3858
  456MOL0     C62855   1.177  10.140   2.434 -0.0057 -0.7594  0.5918
  456MOL0     C62856   1.378  10.567   2.380 -0.5158  0.0506 -0.3898
  456MOL0     C62857   1.435  10.614   2.262  1.2682  0.4731 -0.5637
  456MOL0     C62858   1.535  10.525   2.186 -0.3320  0.0005 -0.7807
  456MOL0     H62859   1.350  10.746   1.811  0.9387  0.8126  1.5720
  456MOL0     H62860   1.347  10.826   1.590  0.6358  1.2183 -0.3542
  456MOL0     H62861   1.233  10.916   1.407 -1.3870  2.4913  2.1436
  456MOL0     H62862   1.419  10.928   1.406  1.7121  0.0504  2.9250
  456MOL0     H62863   1.261  10.967   1.210 -0.6726 -2.0168  2.6041
  456MOL0     H62864   1.255  11.139   1.256 -3.1407 -2.4878 -0.0442
  456MOL0     H62865   1.512  10.985   1.181  3.2600  2.6347 -0.2286
  456MOL0     H62866   1.410  11.097   1.094 -0.1733 -0.3660 -0.2499
  456MOL0     H62867   1.473  11.282   1.230  1.0602  0.1583  0.6674
  456MOL0     H62868   1.550  11.178   1.351 -0.0549 -1.7325 -0.0902
  456MOL0     H62869   1.623  11.161   1.059 -4.1228 -1.8396  1.4001
  456MOL0     H62870   1.710  11.089   1.194  0.1733  0.7107  0.2267
  456MOL0     H62871   1.657  11.385   1.172 -1.2020 -1.0082 -2.3812
  456MOL0     H62872   1.790  11.316   1.271  2.1993 -2.9979  0.1730
  456MOL0     H62873   1.896  11.253   1.046 -0.3908 -0.8615 -0.5587
  456MOL0     H62874   1.891  11.422   1.093  2.5538  0.7520 -3.8677
  456MOL0     H62875   1.714  11.293   0.879 -2.8550  1.7803 -1.3129
  456MOL0     H62876   1.682  11.450   0.938  0.4189 -0.2670 -3.9106
  456MOL0     H62877   1.865  11.659   0.866  0.1325  3.4620 -2.9424
  456MOL0     H62878   2.044  11.694   0.521 -1.5547  2.0058 -1.1346
  456MOL0     H62879   2.045  11.766   0.677  0.1449  0.8667 -0.7284
  456MOL0     H62880   1.806  11.716   0.487 -2.6747 -1.3282  3.0613
  456MOL0     H62881   1.797  11.812   0.633  0.6875  0.2477  0.3842
  456MOL0     H62882   1.993  11.885   0.401  0.7492  1.1108  1.5744
  456MOL0     H62883   1.829  11.908   0.388 -0.5617 -1.5520  0.9994
  456MOL0     H62884   1.915  12.109   0.481 -2.7414 -0.1573  0.6345
  456MOL0     H62885   1.815  12.038   0.603  0.4241  1.2477  0.6066
  456MOL0     H62886   1.864  12.244   0.690 -1.2256  0.9573  2.1198
  456MOL0     H62887   1.823  12.455   0.776  0.2575  1.7858 -0.1487
  456MOL0     H62888   1.926  12.530   0.905  1.0880 -0.5657 -2.1991
  456MOL0     H62889   1.776  12.437   0.947  0.1127 -0.6058 -0.0622
  456MOL0     H62890   2.349  12.351   1.355 -0.1130 -0.0347 -3.4287
  456MOL0     H62891   2.431  12.537   1.493  1.5298  2.5976 -1.6614
  456MOL0     H62892   2.266  12.950   1.424  3.2636  0.1399 -0.0267
  456MOL0     H62893   2.149  12.883   1.554  0.6393  2.0297 -0.3918
  456MOL0     H62894   2.307  12.946   1.724 -1.0621  2.1793  0.7022
  456MOL0     H62895   2.438  12.951   1.620 -0.2510  0.9507  0.7805
  456MOL0     H62896   2.204  13.159   1.591  1.2903  1.5242 -1.9220
  456MOL0     H62897   2.328  13.143   1.489 -1.7169 -0.1157 -0.8590
  456MOL0     H62898   2.476  13.163   1.723 -1.2998 -3.7113 -1.1430
  456MOL0     H62899   2.311  13.207   1.786 -2.1664  0.6363 -2.1655
  456MOL0     H62900   2.438  13.378   1.565 -0.3743 -0.8879 -0.4201
  456MOL0     H62901   2.286  13.393   1.647 -0.2139  0.1279 -1.2044
  456MOL0     H62902   2.412  13.420   1.869  2.1288 -2.2758  0.9154
  456MOL0     H62903   2.454  13.544   1.738  2.7980  0.6978  0.9560
  456MOL0     H62904   2.642  13.414   1.681  1.4843  0.3913  0.5340
  456MOL0     H62905   2.617  13.304   1.813  2.5340 -0.2157 -0.2429
  456MOL0     H62906   2.767  13.469   1.918  0.5668 -0.0467 -0.9913
  456MOL0     H62907   2.611  13.511   1.971  0.7681  1.2650  0.2230
  456MOL0     H62908   2.125  12.793   1.329 -0.6302 -0.7668  2.4791
  456MOL0     H62909   2.059  12.608   1.173  1.3280  0.5206 -1.2688
  456MOL0     H62910   2.128  12.109   1.081  0.3365  0.9712  0.3164
  456MOL0     H62911   2.149  11.981   0.884  1.0690 -0.1825  2.9230
  456MOL0     H62912   1.257  11.224   1.708 -2.7037  0.1041 -0.8530
  456MOL0     H62913   1.287  11.137   1.961  3.2753 -1.2703 -0.1706
  456MOL0     H62914   1.250  10.904   2.257 -0.6689 -1.2911 -1.3358
  456MOL0     H62915   1.160  10.813   2.465 -2.2424 -0.4053 -3.0279
  456MOL0     H62916   1.124  10.454   2.436 -2.7610  2.0488  0.7581
  456MOL0     H62917   1.216  10.366   2.569  1.9379  0.8606  0.8854
  456MOL0     H62918   0.950  10.503   2.533 -2.0404  0.8421  1.9894
  456MOL0     H62919   1.014  10.522   2.696  1.1202  0.0777 -0.8519
  456MOL0     H62920   1.010  10.282   2.730 -0.5355  0.7969  0.1643
  456MOL0     H62921   0.853  10.336   2.696 -0.1586  1.2578 -0.3766
  456MOL0     H62922   0.894  10.297   2.450 -1.3105 -2.4308 -0.2998
  456MOL0     H62923   0.870  10.153   2.556 -0.7642 -0.9055  0.5300
  456MOL0     H62924   1.269  10.093   2.404 -0.7516 -0.8256 -1.8512
  456MOL0     H62925   1.407  10.468   2.416 -3.2611 -0.4406  0.7103
  456MOL0     H62926   1.634  10.572   2.183 -0.3021  0.0720  0.6237
  456MOL0     H62927   1.546  10.425   2.229  2.0312  0.4729 -0.1263
  456MOL0     H62928   1.501  10.516   2.083 -0.8014  0.4949 -0.6766
  457MOL0     O62929  10.521  11.056   0.764  0.1165 -0.1204  0.2260
  457MOL0     C62930  10.570  10.965   0.836 -0.5585 -0.1481 -0.0330
  457MOL0     O62931  10.506  10.903   0.943  0.3092 -0.3264  0.0862
  457MOL0     C62932  10.393  10.950   1.009 -0.4021 -0.6331  0.0675
  457MOL0     C62933  10.319  10.865   1.094  0.6409  0.2508 -0.8820
  457MOL0     C62934  10.201  10.894   1.155  0.1448  0.0373 -0.5956
  457MOL0     C62935  10.154  11.031   1.147 -0.8213  0.1612 -0.8291
  457MOL0     O62936  10.038  11.063   1.218 -0.1147  0.9666  0.4147
  457MOL0     C62937  10.018  11.198   1.261 -0.5280  0.3292  0.1914
  457MOL0     C62938   9.900  11.210   1.356 -0.7870 -0.1431 -0.5505
  457MOL0     C62939   9.897  11.115   1.474  0.7865 -0.4540  0.3683
  457MOL0     C62940   9.774  11.133   1.564  0.2300 -0.0013  0.9864
  457MOL0     C62941   9.768  11.019   1.657  0.0619  0.7069 -0.4611
  457MOL0     C62942   9.842  11.009   1.786  0.0991  0.1685 -0.5511
  457MOL0     C62943   9.808  10.877   1.859  0.4448  0.3059 -0.7331
  457MOL0     C62944   9.868  10.871   1.999  0.1686  0.2960  0.2234
  457MOL0     N62945  10.011  10.896   2.006 -0.9962 -0.3368  0.4385
  457MOL0     C62946  10.110  10.820   1.955 -0.0919 -0.4716 -0.6484
  457MOL0     C62947  10.219  10.898   1.962 -1.1188 -0.2864 -0.7106
  457MOL0     C62948  10.354  10.862   1.909  0.1935  0.1450 -0.4250
  457MOL0     C62949  10.425  10.982   1.841  0.0563  0.4824 -0.5990
  457MOL0     C62950  10.542  10.919   1.765 -0.1955 -0.6385  0.4531
  457MOL0     C62951  10.625  11.040   1.703 -0.5892  0.8994 -1.0112
  457MOL0     O62952  10.740  10.978   1.640  0.4909  0.4448  0.3100
  457MOL0     C62953  10.841  11.056   1.588 -0.3506  0.2634  0.1736
  457MOL0     C62954  10.841  11.196   1.583 -0.0255 -0.3453  0.2105
  457MOL0     C62955  10.954  11.270   1.525  0.4735  0.6208 -0.0663
  457MOL0     C62956  10.945  11.421   1.519  0.0059  0.7724 -0.7010
  457MOL0     C62957  11.064  11.200   1.471  0.5390 -0.0797 -0.1734
  457MOL0     C62958  11.174  11.260   1.387  0.6336  0.0651 -0.5967
  457MOL0     O62959  11.282  11.189   1.358  0.0681  0.4304 -0.1022
  457MOL0     C62960  11.394  11.251   1.310  0.0410 -0.1196  0.7717
  457MOL0     C62961  11.472  11.166   1.219 -1.1637 -0.4223 -0.5257
  457MOL0     C62962  11.583  11.225   1.154  0.1388  0.3069 -0.9621
  457MOL0     C62963  11.632  11.349   1.193  0.6655  0.3519 -0.6097
  457MOL0     O62964  11.746  11.410   1.150 -0.3969 -0.8984 -0.6236
  457MOL0     C62965  11.827  11.349   1.047  0.7930  0.2016 -0.4591
  457MOL0     C62966  11.940  11.439   1.008 -0.5936 -1.0495  0.6186
  457MOL0     C62967  11.916  11.506   0.870 -0.4039  1.0290  0.0479
  457MOL0     C62968  11.815  11.618   0.876 -0.4277  0.4337 -0.2438
  457MOL0     C62969  11.782  11.690   0.741  0.4380  0.3167 -0.7320
  457MOL0     C62970  11.900  11.760   0.681 -0.1680 -0.1203 -0.2429
  457MOL0     C62971  11.854  11.845   0.564  1.2756 -1.1994 -0.0106
  457MOL0     C62972  11.970  11.896   0.478  0.2820  0.1572 -0.2629
  457MOL0    Cl62973  11.914  12.029   0.366  0.0534  0.3880  0.0195
  457MOL0     C62974  11.558  11.428   1.295 -0.5484  0.7158  0.2085
  457MOL0     C62975  11.437  11.377   1.337 -0.8401  0.5492 -0.6104
  457MOL0     O62976  11.155  11.370   1.337  0.9244 -0.4908 -0.0289
  457MOL0     C62977  11.056  11.056   1.481  0.2584  0.1429 -0.9433
  457MOL0     C62978  10.947  10.985   1.536  0.3207 -0.6503  0.2359
  457MOL0     N62979  10.181  11.020   2.023  1.0651 -0.6330  0.0252
  457MOL0     N62980  10.060  11.012   2.057 -0.1508 -0.5040  0.1691
  457MOL0     C62981  10.229  11.125   1.070  0.8039 -0.1419 -0.3086
  457MOL0     C62982  10.343  11.082   1.002 -0.0026  0.0120  0.1819
  457MOL0     C62983  10.699  10.912   0.782 -1.2227  0.2961 -1.0477
  457MOL0     C62984  10.762  10.803   0.845  0.3351 -0.7980 -0.1013
  457MOL0     C62985  10.878  10.746   0.798  0.5149 -0.3378  0.3248
  457MOL0     C62986  10.949  10.801   0.693 -0.0833  0.3378 -0.1184
  457MOL0     O62987  11.074  10.748   0.654  0.0570  0.0179 -0.7513
  457MOL0     C62988  11.096  10.606   0.666  0.9366 -1.0433  0.2334
  457MOL0     C62989  11.234  10.569   0.624 -0.1654  0.2999 -0.0196
  457MOL0     C62990  11.272  10.431   0.684 -0.7152 -0.0682 -0.2693
  457MOL0     C62991  11.308  10.441   0.829 -1.1510 -0.6366  0.1389
  457MOL0     C62992  11.329  10.305   0.879  0.9158 -0.5174 -0.4666
  457MOL0     C62993  11.349  10.193   0.916  0.0536  0.5698  0.4282
  457MOL0     C62994  10.902  10.917   0.644 -0.1558  0.7866  1.3711
  457MOL0     C62995  10.772  10.962   0.677  0.2207  0.1846 -0.0560
  457MOL0     C62996  10.724  11.088   0.592  0.7863 -0.3054  0.1543
  457MOL0     H62997  10.368  10.768   1.108 -1.8418 -0.7755  1.7135
  457MOL0     H62998  10.133  10.832   1.213 -2.3278  2.6497 -0.4921
  457MOL0     H62999   9.992  11.256   1.172 -2.8495  2.2831  1.9904
  457MOL0     H63000  10.114  11.230   1.302 -0.7610  0.1121  0.9223
  457MOL0     H63001   9.892  11.311   1.398  1.7359 -0.8762  2.0502
  457MOL0     H63002   9.808  11.180   1.305 -0.5202 -1.3247 -0.3692
  457MOL0     H63003   9.880  11.016   1.431  0.3205  0.2667 -1.1610
  457MOL0     H63004   9.983  11.129   1.541  0.5211 -3.5481  1.5144
  457MOL0     H63005   9.778  11.236   1.598 -0.1772  1.8063 -3.6917
  457MOL0     H63006   9.681  11.131   1.506 -0.8042  2.9098  2.3620
  457MOL0     H63007   9.790  10.933   1.593 -1.8544  0.7944 -1.2931
  457MOL0     H63008   9.661  11.010   1.675  0.3580  0.2066  1.2817
  457MOL0     H63009   9.949  11.023   1.773 -0.3022  2.3351 -2.1055
  457MOL0     H63010   9.808  11.092   1.849 -2.0705 -1.6708  0.8662
  457MOL0     H63011   9.854  10.798   1.799  0.6659  1.5401 -2.2641
  457MOL0     H63012   9.701  10.857   1.867  1.0184 -2.2374  2.2108
  457MOL0     H63013   9.799  10.935   2.056 -0.8209 -2.7869  2.7910
  457MOL0     H63014   9.854  10.769   2.035 -0.1036  0.4539  0.5749
  457MOL0     H63015  10.096  10.725   1.906  0.0739  0.1134 -1.8808
  457MOL0     H63016  10.341  10.780   1.837  1.4182  0.2519 -0.7960
  457MOL0     H63017  10.412  10.820   1.992 -5.5965 -0.2640  3.9956
  457MOL0     H63018  10.353  11.034   1.777 -2.2964  1.9498  2.9276
  457MOL0     H63019  10.461  11.051   1.918 -1.4025 -1.0444  1.5829
  457MOL0     H63020  10.600  10.860   1.837 -1.8477 -1.9197  0.7876
  457MOL0     H63021  10.519  10.858   1.678 -0.1360 -0.1496  0.0889
  457MOL0     H63022  10.568  11.101   1.632 -2.4327 -2.5798 -2.8075
  457MOL0     H63023  10.656  11.108   1.783 -0.0800  0.3167 -0.7014
  457MOL0     H63024  10.779  11.270   1.633  1.6664  4.0715 -3.5355
  457MOL0     H63025  10.860  11.458   1.577  1.4121 -0.2218  2.1729
  457MOL0     H63026  10.939  11.462   1.418 -1.2617 -1.6928 -1.7128
  457MOL0     H63027  11.032  11.459   1.573  0.3962  2.6367 -2.5151
  457MOL0     H63028  11.440  11.065   1.197  0.6484 -0.7272 -1.9428
  457MOL0     H63029  11.642  11.158   1.092  1.1299  1.0166 -0.7967
  457MOL0     H63030  11.860  11.253   1.087 -1.0071 -0.2314  0.1080
  457MOL0     H63031  11.775  11.310   0.959 -0.6560  2.5564 -0.7482
  457MOL0     H63032  11.949  11.514   1.086 -0.3575 -1.2024  0.7395
  457MOL0     H63033  12.033  11.382   1.006  1.6952  2.3526  1.7986
  457MOL0     H63034  11.892  11.425   0.801 -1.5849  0.7165  0.7952
  457MOL0     H63035  12.013  11.541   0.832 -0.2539 -0.3132 -0.8706
  457MOL0     H63036  11.845  11.697   0.947  0.8860  0.1069 -0.4081
  457MOL0     H63037  11.722  11.586   0.923 -0.0883 -1.3720 -0.7329
  457MOL0     H63038  11.741  11.620   0.667 -1.5509 -0.7021  1.2252
  457MOL0     H63039  11.697  11.755   0.760 -0.2129 -0.9980  1.1905
  457MOL0     H63040  11.978  11.693   0.643  0.7161  0.5229  0.4127
  457MOL0     H63041  11.945  11.820   0.760  1.6532 -1.0397 -0.5381
  457MOL0     H63042  11.800  11.931   0.606  1.6711 -1.3257  0.7757
  457MOL0     H63043  11.783  11.790   0.503  2.2962 -2.4655 -0.0916
  457MOL0     H63044  12.015  11.816   0.418  0.4207 -0.3495  0.5027
  457MOL0     H63045  12.025  11.953   0.553 -2.3005 -1.9446  3.5194
  457MOL0     H63046  11.591  11.524   1.334  1.5342  0.2592 -0.3075
  457MOL0     H63047  11.384  11.445   1.403  1.6201  0.5431  1.4941
  457MOL0     H63048  11.131  11.000   1.426 -0.4908 -3.0840  1.0402
  457MOL0     H63049  10.948  10.876   1.540 -1.2419 -0.8005 -1.7013
  457MOL0     H63050  10.190  11.226   1.058  0.3483 -0.3414 -0.5290
  457MOL0     H63051  10.386  11.162   0.942  0.8561  0.7808  1.7672
  457MOL0     H63052  10.706  10.752   0.923  0.9257  1.0406  1.6363
  457MOL0     H63053  10.911  10.662   0.858 -0.4113 -3.0854 -2.7056
  457MOL0     H63054  11.077  10.586   0.771  3.7888  0.8119  1.2332
  457MOL0     H63055  11.024  10.554   0.602  1.5710 -1.6810  0.0153
  457MOL0     H63056  11.312  10.639   0.658 -2.1137  2.6046  0.0026
  457MOL0     H63057  11.242  10.567   0.515  2.5976  2.5190  0.0433
  457MOL0     H63058  11.185  10.365   0.679 -0.9339  0.1957 -0.0134
  457MOL0     H63059  11.357  10.388   0.631 -0.9281 -3.3086  1.7377
  457MOL0     H63060  11.222  10.485   0.881  0.5940  1.9374  1.0013
  457MOL0     H63061  11.405  10.489   0.842 -1.5114  0.8814 -2.2606
  457MOL0     H63062  11.377  10.091   0.937  0.0007  0.4752  0.0412
  457MOL0     H63063  10.960  10.962   0.564  0.4277 -0.8596  0.8063
  457MOL0     H63064  10.810  11.113   0.530  1.7360  2.5424  2.3962
  457MOL0     H63065  10.638  11.057   0.532  0.6543 -0.7797  0.5834
  457MOL0     H63066  10.711  11.175   0.657  1.8141  0.0180 -0.0505
  458MOL0     O63067   2.639   1.447   7.008  0.4559  0.3264  0.6318
  458MOL0     C63068   2.717   1.356   7.030  0.5277 -0.7240  0.1283
  458MOL0     O63069   2.768   1.268   6.944  0.6238  0.8667 -0.4823
  458MOL0     C63070   2.715   1.267   6.817 -0.0255  0.2433  0.7778
  458MOL0     C63071   2.804   1.245   6.701  0.0190  0.4291 -0.7147
  458MOL0     C63072   2.753   1.254   6.570 -0.5612  0.6541  0.3157
  458MOL0     C63073   2.621   1.298   6.541 -1.2424  0.0236 -0.0141
  458MOL0     O63074   2.573   1.331   6.421 -0.1987 -0.3298 -0.6739
  458MOL0     C63075   2.666   1.336   6.310 -0.5787 -0.4835 -0.3869
  458MOL0     C63076   2.591   1.325   6.176 -0.8590  0.6562  0.0888
  458MOL0     C63077   2.548   1.176   6.164 -0.6798 -0.1422  0.2340
  458MOL0     C63078   2.458   1.135   6.041 -0.4453 -0.0237  0.2430
  458MOL0     C63079   2.388   1.006   6.082 -0.6912 -0.2733 -0.1123
  458MOL0     C63080   2.315   0.947   5.956 -0.3967 -0.1806  0.6431
  458MOL0     C63081   2.202   1.015   5.890 -0.3384 -0.0770 -0.8449
  458MOL0     C63082   2.077   1.046   5.977  0.2081  0.7236  0.5403
  458MOL0     N63083   2.023   0.930   6.046 -0.1018 -0.5965 -0.5177
  458MOL0     C63084   2.034   0.901   6.181 -0.9099 -0.5595 -0.0536
  458MOL0     C63085   1.976   0.776   6.200 -1.0648  0.4119  0.9829
  458MOL0     C63086   1.998   0.696   6.318 -0.5702  0.2622 -0.5968
  458MOL0     C63087   2.141   0.658   6.334  0.2275  0.0650  0.1138
  458MOL0     C63088   2.142   0.537   6.431 -0.5165 -0.5528 -0.0677
  458MOL0     C63089   2.059   0.553   6.551  0.6428  0.1379  0.3891
  458MOL0     O63090   2.103   0.479   6.663  0.2396  0.1532  0.2513
  458MOL0     C63091   2.035   0.368   6.695 -0.1626 -1.0467  0.4846
  458MOL0     C63092   1.961   0.289   6.600 -1.0924  0.4064  0.3800
  458MOL0     C63093   1.897   0.177   6.630  0.1529 -0.0051 -0.7991
  458MOL0     C63094   1.828   0.109   6.509 -0.1920  0.7461 -0.0777
  458MOL0     C63095   1.908   0.127   6.761  0.3737 -0.5741  0.2763
  458MOL0     C63096   1.852  -0.004   6.795 -0.1486  0.2145 -0.4043
  458MOL0     O63097   1.897  -0.064   6.912  0.8616  0.3161  0.2944
  458MOL0     C63098   1.880  -0.199   6.935  0.3442  0.7249 -0.3642
  458MOL0     C63099   1.888  -0.239   7.065  0.3594 -0.0225 -0.2678
  458MOL0     C63100   1.857  -0.376   7.100 -0.9971  0.5302  0.3969
  458MOL0     C63101   1.830  -0.473   7.003  1.5358 -0.2431  0.1001
  458MOL0     O63102   1.791  -0.600   7.039  0.3750  0.2675 -0.7487
  458MOL0     C63103   1.769  -0.699   6.941  0.4698 -0.4803 -0.2373
  458MOL0     C63104   1.734  -0.816   7.020 -0.8298 -0.1637  0.4595
  458MOL0     C63105   1.712  -0.940   6.922  0.2545 -0.1764 -0.0604
  458MOL0     C63106   1.637  -1.058   6.975  1.2465 -0.6934  0.1705
  458MOL0     C63107   1.658  -1.181   6.890  0.9730  0.3131  0.3792
  458MOL0     C63108   1.606  -1.299   6.970  0.4039  0.4271 -0.5253
  458MOL0     C63109   1.661  -1.432   6.917  0.5276 -0.3683 -0.2729
  458MOL0     C63110   1.598  -1.547   6.998 -0.0721  0.6664  0.7409
  458MOL0    Cl63111   1.656  -1.694   6.930 -0.4746  0.0908 -0.0728
  458MOL0     C63112   1.834  -0.429   6.866 -0.0161 -0.4762 -0.6440
  458MOL0     C63113   1.857  -0.294   6.842  0.7494 -0.8426  0.0014
  458MOL0     O63114   1.764  -0.049   6.721  0.2455  0.2952 -0.0788
  458MOL0     C63115   1.984   0.201   6.856 -0.1897 -0.0806 -0.1748
  458MOL0     C63116   2.035   0.329   6.828 -0.1817 -0.4545  0.4655
  458MOL0     N63117   1.921   0.744   6.082  0.3365 -0.3439  0.7043
  458MOL0     N63118   1.950   0.826   5.996  0.0177 -0.4312  0.7738
  458MOL0     C63119   2.536   1.303   6.655  0.7273  0.5419 -0.4462
  458MOL0     C63120   2.573   1.282   6.787  0.2702  0.4049 -0.1801
  458MOL0     C63121   2.758   1.345   7.167 -0.0912  0.3925 -0.8190
  458MOL0     C63122   2.839   1.236   7.196 -0.4658 -0.1942  0.4317
  458MOL0     C63123   2.888   1.200   7.328  0.2770 -0.5401  0.3374
  458MOL0     C63124   2.843   1.279   7.432 -0.1285 -1.0038 -0.5446
  458MOL0     O63125   2.870   1.244   7.561  0.4854  0.1832 -0.2425
  458MOL0     C63126   2.907   1.345   7.660  0.2044  0.2128  0.9066
  458MOL0     C63127   3.037   1.427   7.612 -0.2674  0.0235 -0.3506
  458MOL0     C63128   3.173   1.370   7.630 -0.1251  0.6208  0.2610
  458MOL0     C63129   3.212   1.273   7.523 -0.5144  0.4391 -0.4596
  458MOL0     C63130   3.328   1.198   7.568  0.9160 -0.3241 -0.3353
  458MOL0     C63131   3.431   1.149   7.589 -0.5113  0.2184  0.2080
  458MOL0     C63132   2.767   1.400   7.408 -0.0246 -0.6248 -1.1644
  458MOL0     C63133   2.737   1.436   7.276 -0.1094 -1.2520  0.6421
  458MOL0     C63134   2.651   1.558   7.263  0.9622  0.3118  0.2576
  458MOL0     H63135   2.906   1.223   6.729 -0.2783 -0.6172 -0.4168
  458MOL0     H63136   2.822   1.228   6.491  0.1865  0.7164  0.9380
  458MOL0     H63137   2.734   1.250   6.307 -1.7002 -1.3834 -2.0266
  458MOL0     H63138   2.721   1.430   6.314 -2.9825  1.0512 -0.8405
  458MOL0     H63139   2.500   1.383   6.194 -1.8221 -0.7539 -0.0606
  458MOL0     H63140   2.657   1.356   6.095  1.0821  0.1004  1.3780
  458MOL0     H63141   2.635   1.110   6.157 -1.9070 -1.8060  0.0371
  458MOL0     H63142   2.501   1.143   6.257  0.7141 -0.8620  0.7045
  458MOL0     H63143   2.389   1.216   6.016  0.8451  0.6647 -1.2491
  458MOL0     H63144   2.510   1.134   5.945 -0.9791  1.6469 -0.1058
  458MOL0     H63145   2.314   1.024   6.160 -0.0889 -0.2499  0.4659
  458MOL0     H63146   2.458   0.936   6.131 -1.0397  1.0008  2.3928
  458MOL0     H63147   2.388   0.945   5.874  0.7103  1.2516  1.5558
  458MOL0     H63148   2.297   0.841   5.975  2.5969 -1.1011 -0.9455
  458MOL0     H63149   2.175   0.955   5.803  1.6961 -1.5749 -0.5273
  458MOL0     H63150   2.235   1.111   5.848 -0.7277  0.1297 -0.6871
  458MOL0     H63151   2.098   1.128   6.048  1.5721  1.0452 -0.2022
  458MOL0     H63152   1.997   1.085   5.914  0.4686 -0.5853 -0.6345
  458MOL0     H63153   2.081   0.957   6.261  0.4527  0.2301 -1.3689
  458MOL0     H63154   1.937   0.606   6.308  0.6210 -1.0451  2.5932
  458MOL0     H63155   1.970   0.758   6.405 -0.4120 -0.3335 -0.1134
  458MOL0     H63156   2.176   0.640   6.232 -0.6179  0.0012 -0.1681
  458MOL0     H63157   2.202   0.741   6.372  0.6061  0.4951 -1.3764
  458MOL0     H63158   2.110   0.445   6.380  2.5352 -0.7180 -1.9261
  458MOL0     H63159   2.244   0.521   6.468 -1.4123 -2.1748  1.9422
  458MOL0     H63160   2.068   0.656   6.585 -1.3700  0.8979 -1.2117
  458MOL0     H63161   1.952   0.536   6.534  0.4616 -0.1742  1.7316
  458MOL0     H63162   1.966   0.303   6.493  1.4172  3.1336  0.7341
  458MOL0     H63163   1.847   0.161   6.415  0.6272 -0.0006 -0.3425
  458MOL0     H63164   1.719   0.106   6.522 -0.2901 -1.6737 -0.9233
  458MOL0     H63165   1.861   0.007   6.484 -2.3704  0.0093 -0.1746
  458MOL0     H63166   1.914  -0.165   7.140 -3.2094 -0.1357  1.2901
  458MOL0     H63167   1.857  -0.416   7.201  0.6718  4.2264  2.0316
  458MOL0     H63168   1.682  -0.660   6.887  3.3917  2.2357 -3.5176
  458MOL0     H63169   1.850  -0.719   6.870 -0.1117 -1.2416 -0.7102
  458MOL0     H63170   1.810  -0.835   7.097 -0.7639 -1.1447  0.1705
  458MOL0     H63171   1.646  -0.785   7.076  0.5537  1.7639  1.6747
  458MOL0     H63172   1.816  -0.970   6.911  0.9174  0.6158  2.8954
  458MOL0     H63173   1.669  -0.903   6.829  2.9970  1.3371 -0.8454
  458MOL0     H63174   1.529  -1.038   6.976  1.0819 -1.5505  0.2796
  458MOL0     H63175   1.662  -1.071   7.081 -0.3933 -2.1754  0.4142
  458MOL0     H63176   1.600  -1.181   6.797 -0.5704  2.3092  1.2614
  458MOL0     H63177   1.764  -1.195   6.869  0.9566 -1.5267  1.2691
  458MOL0     H63178   1.497  -1.302   6.964  0.1729  1.8936  1.7455
  458MOL0     H63179   1.631  -1.293   7.076  1.2751 -2.1586 -0.5209
  458MOL0     H63180   1.768  -1.433   6.941  0.4581 -3.3541  0.3068
  458MOL0     H63181   1.634  -1.449   6.812  1.0941 -1.1670 -0.2980
  458MOL0     H63182   1.489  -1.540   7.001  0.0692  3.9633  2.0858
  458MOL0     H63183   1.624  -1.539   7.104 -0.5938  1.0003  0.8426
  458MOL0     H63184   1.808  -0.491   6.781  0.4827  0.0881 -1.2142
  458MOL0     H63185   1.850  -0.273   6.736  2.7122  0.0099 -0.0046
  458MOL0     H63186   1.995   0.166   6.958  0.9648 -0.2343 -0.3421
  458MOL0     H63187   2.080   0.385   6.910 -2.3475  0.5709  1.0441
  458MOL0     H63188   2.432   1.335   6.654  0.8087  0.8012 -0.4820
  458MOL0     H63189   2.505   1.309   6.866  0.0984  3.2422 -1.1809
  458MOL0     H63190   2.860   1.160   7.121 -0.3365  0.3668 -0.1094
  458MOL0     H63191   2.935   1.104   7.348 -0.3716 -0.8195  0.5709
  458MOL0     H63192   2.819   1.406   7.678  0.1941  0.4244  0.1668
  458MOL0     H63193   2.926   1.286   7.750  0.7110 -0.9489  0.0687
  458MOL0     H63194   3.031   1.521   7.667 -0.0254  1.4073 -2.5930
  458MOL0     H63195   3.022   1.446   7.506 -0.8973 -1.9639 -0.6560
  458MOL0     H63196   3.247   1.449   7.622 -1.2954  1.9447  1.8788
  458MOL0     H63197   3.184   1.340   7.734 -0.9957  2.4923  0.9214
  458MOL0     H63198   3.226   1.323   7.427  1.7106  3.1049  1.0990
  458MOL0     H63199   3.129   1.201   7.528 -1.0999  1.1524  1.0887
  458MOL0     H63200   3.523   1.110   7.628  0.3866 -0.7760 -2.6672
  458MOL0     H63201   2.724   1.456   7.489 -0.6239 -3.4418  0.6194
  458MOL0     H63202   2.544   1.542   7.255  0.9426 -0.3004  1.5352
  458MOL0     H63203   2.671   1.630   7.343  0.3169  1.0990 -0.2697
  458MOL0     H63204   2.677   1.617   7.174 -3.4671  1.1633 -0.6734
  459MOL0     O63205   5.874   8.985   0.596 -0.2019  0.2015 -0.2804
  459MOL0     C63206   5.833   9.069   0.515  0.6718  0.2513  0.4042
  459MOL0     O63207   5.742   9.169   0.543  0.1471  0.7599  0.3360
  459MOL0     C63208   5.644   9.147   0.641 -0.2719 -0.0423  0.6821
  459MOL0     C63209   5.589   9.022   0.651  0.4328  0.3365 -0.1495
  459MOL0     C63210   5.487   9.009   0.748  0.1916 -0.3836 -0.2645
  459MOL0     C63211   5.444   9.124   0.823  0.2120  0.3318  0.7666
  459MOL0     O63212   5.332   9.110   0.902 -0.0737 -0.2316 -0.2050
  459MOL0     C63213   5.319   9.202   1.012 -0.3085  0.2173 -1.1884
  459MOL0     C63214   5.185   9.175   1.084  0.0808  0.4051 -0.2801
  459MOL0     C63215   5.131   9.291   1.171  0.0520 -0.0785 -0.1836
  459MOL0     C63216   5.221   9.331   1.289  0.2753  0.0393 -0.2812
  459MOL0     C63217   5.206   9.232   1.401  0.2225  0.2268  0.1266
  459MOL0     C63218   5.322   9.225   1.493 -0.1102  0.4420  0.3162
  459MOL0     C63219   5.335   9.097   1.569 -0.7830 -0.3686 -0.3088
  459MOL0     C63220   5.260   9.111   1.697 -0.2628  0.0710  0.2250
  459MOL0     N63221   5.263   8.980   1.770 -0.0568 -0.0962 -0.0507
  459MOL0     C63222   5.179   8.871   1.730 -0.1414 -0.7811  1.1498
  459MOL0     C63223   5.244   8.761   1.772 -0.6763  0.1748  0.5033
  459MOL0     C63224   5.202   8.622   1.773  0.1406 -0.3005  0.5276
  459MOL0     C63225   5.190   8.554   1.908  0.1421  0.1426  0.4553
  459MOL0     C63226   5.215   8.408   1.912  0.1668  0.3223 -0.1863
  459MOL0     C63227   5.142   8.333   2.025 -0.4745 -0.2047 -0.1713
  459MOL0     O63228   5.165   8.406   2.145 -0.4293 -0.1923  0.7428
  459MOL0     C63229   5.128   8.368   2.269 -0.4315 -0.7414 -0.5812
  459MOL0     C63230   5.026   8.279   2.294  0.2082 -0.6119 -0.6414
  459MOL0     C63231   4.993   8.242   2.429  0.5227  0.1216  0.0383
  459MOL0     C63232   4.875   8.141   2.441  0.0797 -0.1273 -1.0229
  459MOL0     C63233   5.064   8.290   2.536 -0.3020 -0.4401 -0.9797
  459MOL0     C63234   5.029   8.255   2.676 -0.4448 -0.9426  0.3903
  459MOL0     O63235   5.135   8.264   2.775  0.3032  0.7859  0.2927
  459MOL0     C63236   5.096   8.267   2.906 -0.3459  0.4641 -0.4613
  459MOL0     C63237   5.104   8.384   2.987  0.0669 -0.1128  0.0291
  459MOL0     C63238   5.054   8.394   3.124 -0.2216  0.1222 -0.3594
  459MOL0     C63239   5.001   8.277   3.179  0.3922  0.4972  0.0518
  459MOL0     O63240   4.970   8.286   3.315  0.4324 -0.0012  0.6167
  459MOL0     C63241   4.896   8.175   3.381 -0.9137 -0.0472  0.7193
  459MOL0     C63242   4.747   8.189   3.364 -0.6791 -0.1199 -0.0991
  459MOL0     C63243   4.679   8.287   3.469  0.0112 -0.5904  0.6202
  459MOL0     C63244   4.743   8.423   3.479 -0.1634 -0.1061 -0.2523
  459MOL0     C63245   4.662   8.527   3.557  0.5289 -0.3548 -0.5928
  459MOL0     C63246   4.722   8.672   3.545 -0.2543  0.3258 -0.6349
  459MOL0     C63247   4.878   8.697   3.583 -0.4325 -0.5783 -0.7757
  459MOL0     C63248   4.905   8.847   3.582  0.2305  0.1299  0.6711
  459MOL0    Cl63249   4.979   8.893   3.436  0.2303 -0.2489 -0.0635
  459MOL0     C63250   4.994   8.155   3.097  1.1644  0.2710 -0.0109
  459MOL0     C63251   5.037   8.155   2.966  0.4036 -0.3352 -0.5856
  459MOL0     O63252   4.908   8.246   2.709 -0.1636  0.4891  0.4947
  459MOL0     C63253   5.170   8.389   2.504  0.4178 -1.0278 -0.0262
  459MOL0     C63254   5.203   8.428   2.376  0.2189 -0.6123  0.0348
  459MOL0     N63255   5.366   8.804   1.825  0.6775  0.4368  0.8925
  459MOL0     N63256   5.377   8.931   1.828 -0.9300  0.6502 -0.1257
  459MOL0     C63257   5.505   9.248   0.802 -0.2373  0.4906 -0.0728
  459MOL0     C63258   5.609   9.259   0.708 -0.0181 -0.5476 -0.8550
  459MOL0     C63259   5.871   9.045   0.377 -0.2058  0.6872  0.8400
  459MOL0     C63260   5.779   9.081   0.278  0.9176  0.8330  0.3980
  459MOL0     C63261   5.801   9.068   0.144 -0.0737 -1.1141 -0.5369
  459MOL0     C63262   5.928   9.046   0.096 -0.1617  0.4281  0.9485
  459MOL0     O63263   5.936   9.059  -0.048  0.4159  0.1246  0.7947
  459MOL0     C63264   6.059   9.027  -0.110  0.1679 -0.1119 -0.9211
  459MOL0     C63265   6.085   8.880  -0.100  0.0056 -0.2080  0.7376
  459MOL0     C63266   6.160   8.817  -0.217 -0.1479  0.0828  0.4987
  459MOL0     C63267   6.169   8.664  -0.208  0.2126  0.9207 -0.0831
  459MOL0     C63268   6.042   8.601  -0.235 -1.2470 -0.3125  0.2680
  459MOL0     C63269   5.939   8.543  -0.244  0.8738 -0.0557  0.1087
  459MOL0     C63270   6.032   9.015   0.185  0.1376  0.2958 -0.1858
  459MOL0     C63271   6.003   9.005   0.330 -0.1547 -0.1934  0.5988
  459MOL0     C63272   6.119   8.973   0.422 -0.1698 -0.4039 -0.3152
  459MOL0     H63273   5.640   8.943   0.596  1.2165 -1.0366  2.3939
  459MOL0     H63274   5.437   8.913   0.762 -1.6496  0.1540 -2.5595
  459MOL0     H63275   5.329   9.305   0.977  1.3444  0.6020  0.2766
  459MOL0     H63276   5.409   9.185   1.073 -1.4425  0.4584  0.6237
  459MOL0     H63277   5.106   9.157   1.010 -2.7230  0.3588  2.5185
  459MOL0     H63278   5.208   9.088   1.147 -1.1584  1.9793  2.5313
  459MOL0     H63279   5.111   9.374   1.103 -0.7540 -1.5204 -1.7624
  459MOL0     H63280   5.033   9.266   1.213 -0.1557  0.6111 -0.2505
  459MOL0     H63281   5.325   9.319   1.257  0.6953 -2.2783  1.6821
  459MOL0     H63282   5.189   9.428   1.330 -3.0487 -1.5961  1.4409
  459MOL0     H63283   5.199   9.141   1.340  1.3452  1.0241 -1.2705
  459MOL0     H63284   5.111   9.244   1.454 -1.5214  0.6255 -2.8498
  459MOL0     H63285   5.409   9.240   1.429  1.0705 -0.2051  1.7125
  459MOL0     H63286   5.317   9.308   1.564  0.6995 -0.6803  1.7541
  459MOL0     H63287   5.442   9.089   1.592 -0.3751 -1.9493 -2.3486
  459MOL0     H63288   5.310   9.016   1.500 -0.3309 -0.5785 -0.2280
  459MOL0     H63289   5.314   9.174   1.768 -0.4838 -0.5786  0.9792
  459MOL0     H63290   5.159   9.146   1.674 -0.8442 -2.7627 -2.0919
  459MOL0     H63291   5.086   8.866   1.675 -0.5130 -1.7543  1.8417
  459MOL0     H63292   5.272   8.561   1.714  2.3311  2.6988 -0.2156
  459MOL0     H63293   5.108   8.617   1.717  1.4072  0.6707 -1.8113
  459MOL0     H63294   5.262   8.605   1.972 -0.2132  2.4871 -0.8868
  459MOL0     H63295   5.090   8.583   1.942  0.2405  2.0212 -0.6952
  459MOL0     H63296   5.184   8.349   1.825  0.1995 -1.4697  0.9506
  459MOL0     H63297   5.323   8.415   1.932  0.3561 -0.9939 -0.6423
  459MOL0     H63298   5.036   8.318   2.003 -0.0442 -3.6161 -0.3366
  459MOL0     H63299   5.184   8.232   2.032 -3.2203 -1.4487 -0.5944
  459MOL0     H63300   4.966   8.225   2.221  0.8131 -1.1933 -0.7220
  459MOL0     H63301   4.911   8.057   2.501  1.7340  1.1793 -0.0885
  459MOL0     H63302   4.857   8.101   2.341  0.8204  0.9165 -1.5897
  459MOL0     H63303   4.788   8.186   2.491  0.3468 -0.3503 -0.3493
  459MOL0     H63304   5.150   8.474   2.948  1.5852 -1.2056 -0.8070
  459MOL0     H63305   5.061   8.479   3.190  1.7842 -1.2067  1.2349
  459MOL0     H63306   4.932   8.075   3.357 -2.2373 -1.4338  4.0312
  459MOL0     H63307   4.919   8.196   3.485 -0.5817  2.6532  0.1948
  459MOL0     H63308   4.718   8.228   3.265 -2.5895 -1.9569 -0.3282
  459MOL0     H63309   4.700   8.092   3.380  0.1913 -0.7018 -0.9404
  459MOL0     H63310   4.684   8.232   3.563 -2.2387 -1.1970  0.4276
  459MOL0     H63311   4.572   8.288   3.449  0.3516 -0.1639 -1.3945
  459MOL0     H63312   4.743   8.453   3.374  2.6195 -3.3710 -1.3750
  459MOL0     H63313   4.843   8.410   3.522  0.3141 -0.4598 -1.4269
  459MOL0     H63314   4.556   8.529   3.532  0.0709  0.3254  1.2640
  459MOL0     H63315   4.669   8.498   3.662 -2.6075  2.2252  0.4885
  459MOL0     H63316   4.670   8.743   3.610  0.8362  1.3110 -0.8010
  459MOL0     H63317   4.687   8.696   3.445 -0.6591  1.0060 -0.3367
  459MOL0     H63318   4.952   8.637   3.529  0.3776 -2.3821  2.1142
  459MOL0     H63319   4.892   8.659   3.685 -1.8747  0.5488 -0.1150
  459MOL0     H63320   4.968   8.882   3.665  3.1532 -1.2444 -0.8406
  459MOL0     H63321   4.815   8.909   3.574 -0.2652 -0.6544 -0.0686
  459MOL0     H63322   4.954   8.061   3.132  1.9232  0.4160  1.3375
  459MOL0     H63323   5.011   8.062   2.917  0.7058 -0.5025 -0.4306
  459MOL0     H63324   5.235   8.414   2.587 -1.0942 -0.7867  1.1233
  459MOL0     H63325   5.278   8.497   2.339 -0.8019  1.5377  1.7261
  459MOL0     H63326   5.470   9.340   0.848 -4.7511 -1.2308  0.4735
  459MOL0     H63327   5.654   9.357   0.694 -0.6078  0.1616  1.6449
  459MOL0     H63328   5.678   9.109   0.309 -0.0188 -1.2551 -0.5478
  459MOL0     H63329   5.715   9.095   0.085  0.0330 -0.1779 -0.2793
  459MOL0     H63330   6.058   9.059  -0.215  1.0775 -0.6515 -1.1046
  459MOL0     H63331   6.150   9.074  -0.072  0.9112  0.1991 -2.9987
  459MOL0     H63332   5.993   8.820  -0.092 -1.1512  1.4396  0.3068
  459MOL0     H63333   6.146   8.857  -0.012  0.1228 -2.0775  0.2267
  459MOL0     H63334   6.114   8.841  -0.313  3.3178 -0.1450 -1.3756
  459MOL0     H63335   6.261   8.858  -0.217  0.2076 -0.6054  3.2570
  459MOL0     H63336   6.195   8.641  -0.104 -2.0240  2.0195  0.7782
  459MOL0     H63337   6.240   8.631  -0.285 -1.3881 -0.4976 -1.0251
  459MOL0     H63338   5.850   8.487  -0.265  1.5070 -0.0674 -3.0374
  459MOL0     H63339   6.133   9.007   0.146 -0.0361  2.8581 -1.3489
  459MOL0     H63340   6.210   9.005   0.370  0.2069 -1.2412 -0.1814
  459MOL0     H63341   6.120   9.029   0.516  1.3321 -1.2608  0.2156
  459MOL0     H63342   6.118   8.865   0.438  3.1066 -0.5535 -0.5610
  460MOL0     O63343   5.719   0.533   4.952  0.0660 -0.5967 -0.1436
  460MOL0     C63344   5.658   0.637   4.986  0.2460  1.1972  0.0688
  460MOL0     O63345   5.534   0.636   5.045 -0.0042 -0.1098  0.4259
  460MOL0     C63346   5.499   0.535   5.131 -0.4054 -0.6261  0.4859
  460MOL0     C63347   5.362   0.533   5.162 -0.0987 -0.9696 -0.3975
  460MOL0     C63348   5.307   0.429   5.239 -0.1081  0.4227 -0.8604
  460MOL0     C63349   5.385   0.325   5.284 -0.1383 -0.3872 -0.0444
  460MOL0     O63350   5.332   0.230   5.363 -0.2008 -0.4837 -0.2980
  460MOL0     C63351   5.249   0.138   5.302 -0.1138 -0.4410  0.2949
  460MOL0     C63352   5.209   0.036   5.401  0.7836 -0.4470  0.9956
  460MOL0     C63353   5.320  -0.005   5.493 -0.3287 -0.1831 -0.5283
  460MOL0     C63354   5.458  -0.043   5.446 -1.3731 -0.7842 -0.2055
  460MOL0     C63355   5.551  -0.103   5.551  0.2922 -0.0314 -0.1523
  460MOL0     C63356   5.595  -0.016   5.665  0.4043 -0.4027 -0.2484
  460MOL0     C63357   5.681   0.091   5.603 -0.0013  0.7053 -0.1568
  460MOL0     C63358   5.810   0.108   5.691 -0.3819  0.8719 -0.7171
  460MOL0     N63359   5.895   0.216   5.645 -0.5132  0.8810  0.9424
  460MOL0     C63360   5.983   0.223   5.535 -0.9710 -0.3883  0.2135
  460MOL0     C63361   6.029   0.352   5.537  0.1545  0.8756  0.4487
  460MOL0     C63362   6.107   0.410   5.412 -0.3279  0.5563 -0.3934
  460MOL0     C63363   6.012   0.404   5.291  0.1575  0.0204 -0.5668
  460MOL0     C63364   6.070   0.492   5.183 -0.8808 -1.0734  0.1013
  460MOL0     C63365   6.047   0.460   5.033 -0.3612  0.3039  1.1543
  460MOL0     O63366   6.116   0.550   4.952 -0.3566  0.8927 -0.5366
  460MOL0     C63367   6.139   0.518   4.818 -0.3051  1.4787  0.2676
  460MOL0     C63368   6.249   0.577   4.752  0.6738 -0.0818  0.9265
  460MOL0     C63369   6.267   0.560   4.611  0.1908 -0.4789 -0.7513
  460MOL0     C63370   6.371   0.643   4.553  0.2771  0.5374 -0.0432
  460MOL0     C63371   6.183   0.471   4.539  0.1857 -0.0444  0.2663
  460MOL0     C63372   6.208   0.442   4.398  0.3807 -0.4973  0.4916
  460MOL0     O63373   6.102   0.391   4.331  0.3160  0.5630 -0.1181
  460MOL0     C63374   6.133   0.331   4.212  0.0345 -0.5384 -0.3332
  460MOL0     C63375   6.123   0.390   4.089 -0.8537 -0.1333  0.0624
  460MOL0     C63376   6.130   0.312   3.975  0.9436 -0.6725 -0.4301
  460MOL0     C63377   6.145   0.169   3.984  0.6035 -0.8912  0.5338
  460MOL0     O63378   6.170   0.088   3.876 -0.3030  0.1234  0.7219
  460MOL0     C63379   6.051   0.037   3.819  0.1392  0.3468  0.5265
  460MOL0     C63380   6.070   0.038   3.665 -0.0354  0.9420 -0.0757
  460MOL0     C63381   5.978   0.139   3.587  0.1222  0.2071  0.2144
  460MOL0     C63382   5.999   0.101   3.436 -0.4934 -1.0146 -0.5558
  460MOL0     C63383   5.900   0.173   3.342  0.1920 -0.3248 -0.0566
  460MOL0     C63384   5.926   0.327   3.323  0.2206 -0.8140  0.0489
  460MOL0     C63385   5.825   0.382   3.221  0.2914  0.1796  0.3100
  460MOL0     C63386   5.866   0.530   3.196 -0.0094  0.8448 -0.0381
  460MOL0    Cl63387   5.756   0.600   3.079 -0.7157 -0.1085 -0.1233
  460MOL0     C63388   6.164   0.108   4.109 -0.3597  0.3308  0.4562
  460MOL0     C63389   6.149   0.190   4.217 -0.8251 -0.1833 -0.3729
  460MOL0     O63390   6.315   0.460   4.343 -0.2701  0.5256 -0.6666
  460MOL0     C63391   6.083   0.408   4.616 -0.1307  0.4489  0.0057
  460MOL0     C63392   6.059   0.425   4.751  0.8288  0.2290  0.2972
  460MOL0     N63393   5.976   0.415   5.644  0.8037  0.1925 -0.5476
  460MOL0     N63394   5.897   0.331   5.714 -0.7476 -1.1218  0.0478
  460MOL0     C63395   5.519   0.325   5.246 -0.2303  0.3332  0.7719
  460MOL0     C63396   5.570   0.421   5.166 -0.6743  0.0721 -0.9849
  460MOL0     C63397   5.714   0.772   4.950  0.5309 -0.3468  0.3859
  460MOL0     C63398   5.784   0.785   4.833  0.3216 -0.0742  0.2183
  460MOL0     C63399   5.838   0.905   4.794 -0.5091  0.0712 -0.6171
  460MOL0     C63400   5.840   1.017   4.875  0.2496  0.0126 -1.2363
  460MOL0     O63401   5.904   1.125   4.832 -0.1352  0.0101  0.6764
  460MOL0     C63402   5.938   1.225   4.934  0.0807  0.0280 -0.4748
  460MOL0     C63403   6.043   1.318   4.869  0.7617 -0.2603 -0.6353
  460MOL0     C63404   6.173   1.258   4.823 -0.5251 -0.0506 -0.0633
  460MOL0     C63405   6.250   1.186   4.936 -0.2464 -0.6027  1.5155
  460MOL0     C63406   6.359   1.108   4.887  0.2349 -1.0891 -0.9645
  460MOL0     C63407   6.439   1.046   4.820  0.4140 -0.5740  1.2902
  460MOL0     C63408   5.779   0.998   5.007  1.3726 -0.0443  0.0508
  460MOL0     C63409   5.710   0.883   5.043 -0.4037 -1.3250 -0.4258
  460MOL0     C63410   5.663   0.892   5.184 -0.1873  0.9108 -0.7923
  460MOL0     H63411   5.288   0.602   5.124  0.3888 -1.1756 -1.7545
  460MOL0     H63412   5.205   0.435   5.275  0.8222 -0.6420  2.2598
  460MOL0     H63413   5.290   0.084   5.217 -1.8055 -0.5163 -0.5130
  460MOL0     H63414   5.163   0.199   5.272  0.2037  1.4463  2.8749
  460MOL0     H63415   5.126   0.062   5.468 -1.4521 -2.2318 -0.9054
  460MOL0     H63416   5.182  -0.053   5.344 -0.6008 -0.8389  2.1934
  460MOL0     H63417   5.331   0.083   5.557  2.7966  1.7808 -3.3824
  460MOL0     H63418   5.290  -0.092   5.551  1.5552  0.5625  1.7331
  460MOL0     H63419   5.445  -0.125   5.375  0.0440  0.6796 -2.2782
  460MOL0     H63420   5.510   0.043   5.402  1.7582 -1.5515  1.6434
  460MOL0     H63421   5.639  -0.137   5.496  1.0823  3.2297 -1.1572
  460MOL0     H63422   5.494  -0.184   5.597 -1.9048  1.3288 -0.3491
  460MOL0     H63423   5.516   0.029   5.726  1.4569 -0.3361  1.1081
  460MOL0     H63424   5.657  -0.074   5.734 -1.8653 -2.9206 -0.1651
  460MOL0     H63425   5.619   0.181   5.611 -1.8650 -0.5828  1.0019
  460MOL0     H63426   5.702   0.078   5.497  0.4258  0.7370 -0.0787
  460MOL0     H63427   5.774   0.117   5.794 -0.8107  0.0817 -0.7829
  460MOL0     H63428   5.870   0.017   5.685 -1.3354  0.2257 -0.7546
  460MOL0     H63429   5.997   0.150   5.455  0.5494 -0.6778  0.7195
  460MOL0     H63430   6.200   0.354   5.401 -1.1192 -0.7752 -0.5488
  460MOL0     H63431   6.123   0.515   5.440  1.3219  0.2533 -0.0952
  460MOL0     H63432   6.002   0.299   5.263 -0.8137  0.4800 -2.0395
  460MOL0     H63433   5.910   0.437   5.314  0.8566  2.6105 -0.8524
  460MOL0     H63434   6.043   0.597   5.202  3.2114  0.0476  0.5864
  460MOL0     H63435   6.178   0.502   5.192 -1.0030  2.6733 -0.9690
  460MOL0     H63436   6.075   0.357   5.008 -4.7449 -0.5941 -0.9492
  460MOL0     H63437   5.940   0.474   5.019 -0.0344  2.3893  0.3338
  460MOL0     H63438   6.310   0.646   4.809 -0.1697  0.0150  1.7482
  460MOL0     H63439   6.459   0.579   4.539 -0.9689 -0.7600 -2.8500
  460MOL0     H63440   6.402   0.734   4.605  2.0089 -0.7075  1.2456
  460MOL0     H63441   6.343   0.676   4.452 -1.5702  0.5475  0.4397
  460MOL0     H63442   6.102   0.494   4.068 -3.2872 -0.3118  1.1616
  460MOL0     H63443   6.110   0.363   3.881  0.9154  3.6043  1.6426
  460MOL0     H63444   6.027  -0.063   3.855  0.6722  0.6955  1.8977
  460MOL0     H63445   5.963   0.101   3.835 -1.0838 -0.0004 -3.5868
  460MOL0     H63446   6.175   0.044   3.633  0.2990 -1.1862  0.4771
  460MOL0     H63447   6.047  -0.065   3.636 -0.7962  1.1888 -0.3719
  460MOL0     H63448   6.004   0.241   3.616  0.2836  0.5719 -1.1298
  460MOL0     H63449   5.875   0.110   3.609 -0.2686  0.6282 -0.9729
  460MOL0     H63450   6.001  -0.006   3.413 -0.1246 -1.5390  1.7250
  460MOL0     H63451   6.099   0.137   3.409  1.3563 -4.7106  0.7991
  460MOL0     H63452   5.925   0.133   3.243 -1.8156 -1.1760 -0.2781
  460MOL0     H63453   5.796   0.145   3.360  1.1352 -3.9300  0.5825
  460MOL0     H63454   6.024   0.337   3.274 -1.0018  2.2245 -2.1050
  460MOL0     H63455   5.907   0.385   3.414 -0.5690 -3.7238  1.8905
  460MOL0     H63456   5.728   0.381   3.270  0.2970  3.3315  0.5962
  460MOL0     H63457   5.832   0.328   3.126  1.7878  1.8428 -0.6071
  460MOL0     H63458   5.966   0.522   3.150  0.0581  0.9384  0.0902
  460MOL0     H63459   5.885   0.591   3.284 -0.3428  0.2644  0.4379
  460MOL0     H63460   6.183   0.001   4.108 -1.2933  0.1524  0.7148
  460MOL0     H63461   6.162   0.140   4.313 -1.4113 -1.0775 -0.7466
  460MOL0     H63462   6.021   0.330   4.574  1.9171 -2.3943  1.8906
  460MOL0     H63463   5.978   0.379   4.807  0.0573  1.6865  0.4377
  460MOL0     H63464   5.584   0.243   5.271 -0.8290 -0.1729  0.6912
  460MOL0     H63465   5.663   0.396   5.116  1.0740  1.7475  1.2252
  460MOL0     H63466   5.796   0.698   4.768  1.1460 -0.6901  1.1712
  460MOL0     H63467   5.891   0.916   4.699 -3.1898 -3.2898 -2.7390
  460MOL0     H63468   5.844   1.280   4.946  0.1693 -0.1222  1.0844
  460MOL0     H63469   5.968   1.175   5.026  1.5050  3.2640  0.9785
  460MOL0     H63470   6.065   1.393   4.946 -2.7620 -0.3027  0.6219
  460MOL0     H63471   6.003   1.374   4.784 -0.3149 -1.7609 -1.1514
  460MOL0     H63472   6.156   1.187   4.741 -0.9344 -0.8105  0.6576
  460MOL0     H63473   6.235   1.341   4.790 -0.3917  1.0588  2.6967
  460MOL0     H63474   6.185   1.117   4.990 -2.2784  1.3873  1.8148
  460MOL0     H63475   6.294   1.265   4.998  1.2658 -1.7699  1.9818
  460MOL0     H63476   6.514   0.992   4.767 -0.6686  0.7680 -1.8417
  460MOL0     H63477   5.795   1.071   5.086  0.2943 -2.7491  2.9419
  460MOL0     H63478   5.605   0.806   5.221  0.9575  1.6109  3.0562
  460MOL0     H63479   5.744   0.908   5.256  0.1537  1.8134 -1.3717
  460MOL0     H63480   5.587   0.970   5.180  0.5757  1.6064 -3.3344
  461MOL0     O63481   0.185   0.701   6.588  0.0422  0.1614 -0.1389
  461MOL0     C63482   0.195   0.580   6.607  0.0529 -0.0143  0.1156
  461MOL0     O63483   0.300   0.501   6.554  0.1870 -0.5130  0.1861
  461MOL0     C63484   0.396   0.559   6.470  0.3581 -0.1639 -0.0315
  461MOL0     C63485   0.532   0.527   6.498 -0.7531  0.1195 -0.4406
  461MOL0     C63486   0.631   0.582   6.425 -0.6627  0.2373  0.1003
  461MOL0     C63487   0.600   0.657   6.306  0.5064 -0.5063 -1.1718
  461MOL0     O63488   0.691   0.731   6.235 -0.9632  0.9852 -0.9426
  461MOL0     C63489   0.833   0.693   6.222 -0.0161 -0.2509  1.2687
  461MOL0     C63490   0.847   0.554   6.159  0.5278  0.0658 -0.0689
  461MOL0     C63491   0.974   0.503   6.218  0.3657 -0.0075  0.2297
  461MOL0     C63492   1.010   0.365   6.157 -0.3715  0.2634  1.3784
  461MOL0     C63493   1.097   0.382   6.032 -0.3139 -0.9614  0.0994
  461MOL0     C63494   1.238   0.436   6.076  0.5169 -0.7631  0.3004
  461MOL0     C63495   1.334   0.426   5.960  0.3235 -1.2479 -1.3184
  461MOL0     C63496   1.475   0.464   6.006 -1.2142  0.6036  0.3330
  461MOL0     N63497   1.587   0.447   5.912 -0.2003  0.5778  0.5229
  461MOL0     C63498   1.688   0.544   5.891 -0.2308  0.5126  0.6838
  461MOL0     C63499   1.761   0.497   5.793 -0.9283 -0.2307 -0.1017
  461MOL0     C63500   1.866   0.569   5.717  0.0601 -0.2485  0.7208
  461MOL0     C63501   1.874   0.529   5.564 -0.1038 -0.4448 -0.4699
  461MOL0     C63502   1.768   0.611   5.495 -0.4446 -0.7510  0.4304
  461MOL0     C63503   1.799   0.612   5.345 -0.6101  0.4557 -0.2478
  461MOL0     O63504   1.732   0.730   5.279 -0.2311  0.4582 -0.3573
  461MOL0     C63505   1.765   0.758   5.144  0.9659  0.5430  0.5571
  461MOL0     C63506   1.700   0.865   5.082 -0.4111 -0.2235  1.4445
  461MOL0     C63507   1.703   0.891   4.944  0.4334 -0.2243 -0.2792
  461MOL0     C63508   1.649   1.032   4.907 -0.2078  0.3933  1.0353
  461MOL0     C63509   1.790   0.814   4.868 -1.1513 -0.1120 -0.3968
  461MOL0     C63510   1.812   0.844   4.728 -0.0967 -0.5466 -0.0946
  461MOL0     O63511   1.943   0.845   4.684  0.3674 -0.0083  0.6406
  461MOL0     C63512   1.965   0.887   4.553  0.0890  0.0769  0.0301
  461MOL0     C63513   1.971   1.015   4.527 -0.4476  0.2817  0.3922
  461MOL0     C63514   2.005   1.056   4.397 -0.1317  0.8174  0.1698
  461MOL0     C63515   2.035   0.960   4.295 -0.8637 -0.0917 -0.3538
  461MOL0     O63516   2.080   1.016   4.173  0.3228  0.7603 -0.5514
  461MOL0     C63517   2.105   0.923   4.063  0.6211 -0.5014  0.4370
  461MOL0     C63518   2.093   0.991   3.924  0.4794  0.0034  0.2639
  461MOL0     C63519   2.087   0.884   3.815 -0.1115 -0.1661 -0.1005
  461MOL0     C63520   2.079   0.916   3.670 -0.0309 -0.2206  0.0576
  461MOL0     C63521   1.933   0.952   3.639 -0.9947 -0.2744  0.2784
  461MOL0     C63522   1.907   0.922   3.494 -0.0862  0.3810 -0.1452
  461MOL0     C63523   1.780   1.000   3.448  0.0762 -0.2403  0.0532
  461MOL0     C63524   1.789   1.034   3.300  0.4002 -0.1197  0.2479
  461MOL0    Cl63525   1.619   1.038   3.234 -0.0212  0.3539 -0.1749
  461MOL0     C63526   2.017   0.828   4.323 -0.2249 -0.2958  0.3557
  461MOL0     C63527   1.979   0.791   4.454  0.6478  0.5020 -0.1203
  461MOL0     O63528   1.713   0.865   4.658  0.0825 -0.3021  0.1212
  461MOL0     C63529   1.858   0.710   4.930 -0.1573  0.6611 -0.4609
  461MOL0     C63530   1.850   0.678   5.065  0.5484 -0.3538  0.3925
  461MOL0     N63531   1.726   0.363   5.773 -0.0579  0.0999 -0.3143
  461MOL0     N63532   1.615   0.335   5.842  0.1323  1.0625  0.0011
  461MOL0     C63533   0.471   0.676   6.263  0.5854  0.7069  0.3688
  461MOL0     C63534   0.366   0.623   6.347  0.0355  0.4361  0.0629
  461MOL0     C63535   0.106   0.511   6.703  1.0214  0.0758  0.3359
  461MOL0     C63536   0.155   0.396   6.771  0.2262 -0.1326 -0.5703
  461MOL0     C63537   0.080   0.341   6.872 -0.1529 -0.6451 -0.2121
  461MOL0     C63538  -0.039   0.397   6.924  0.4353  0.4113 -0.3330
  461MOL0     O63539  -0.119   0.355   7.031 -0.0306 -0.3131  0.3064
  461MOL0     C63540  -0.083   0.228   7.082  0.3636 -0.3980 -0.8766
  461MOL0     C63541  -0.159   0.205   7.214  0.3361  0.1500 -0.6108
  461MOL0     C63542  -0.307   0.177   7.185  0.5317  0.1604 -0.2955
  461MOL0     C63543  -0.342   0.036   7.129  0.0606  0.5495  0.3184
  461MOL0     C63544  -0.480   0.011   7.160  0.6140  0.3084 -0.6289
  461MOL0     C63545  -0.601  -0.006   7.196 -0.0213 -0.1535  0.3329
  461MOL0     C63546  -0.089   0.505   6.846 -0.4675 -0.6132  0.0732
  461MOL0     C63547  -0.021   0.567   6.736  0.2905  0.5623 -0.7118
  461MOL0     C63548  -0.095   0.679   6.670  0.0388  0.0895  0.8370
  461MOL0     H63549   0.564   0.461   6.578 -0.0154  1.2514  0.2094
  461MOL0     H63550   0.729   0.568   6.470 -1.6857 -1.1152  2.0673
  461MOL0     H63551   0.880   0.712   6.318  1.2069 -2.1045  1.0897
  461MOL0     H63552   0.868   0.762   6.145 -1.6956  0.2462  0.9060
  461MOL0     H63553   0.764   0.485   6.181 -0.3418  1.2121  0.3514
  461MOL0     H63554   0.837   0.545   6.051  1.0819 -0.6497 -0.0678
  461MOL0     H63555   1.051   0.578   6.195  2.8655 -2.9668 -1.7524
  461MOL0     H63556   0.969   0.491   6.327 -0.6037 -2.1668 -0.0032
  461MOL0     H63557   1.057   0.300   6.232  0.2502 -2.7568 -1.3947
  461MOL0     H63558   0.917   0.316   6.128 -2.0188  4.2906 -0.8834
  461MOL0     H63559   1.056   0.459   5.966 -0.2056  2.8375  3.9547
  461MOL0     H63560   1.115   0.285   5.986  2.3799 -0.5485  0.1076
  461MOL0     H63561   1.228   0.537   6.116  2.4757 -1.2025  2.1549
  461MOL0     H63562   1.280   0.386   6.165  1.3151  1.4524  1.2280
  461MOL0     H63563   1.294   0.490   5.881  0.6354 -0.2255 -0.6655
  461MOL0     H63564   1.336   0.324   5.921 -0.1275 -0.8214 -2.5314
  461MOL0     H63565   1.467   0.573   6.017 -0.8964  0.9300 -2.2247
  461MOL0     H63566   1.481   0.402   6.097 -2.1040 -1.1513 -0.7403
  461MOL0     H63567   1.689   0.644   5.934  2.7947  1.1126 -0.5186
  461MOL0     H63568   1.961   0.527   5.752  0.8314 -0.7816 -1.7917
  461MOL0     H63569   1.863   0.677   5.733  2.2750  0.5823 -3.1490
  461MOL0     H63570   1.969   0.555   5.517 -0.9936  0.4893 -1.8287
  461MOL0     H63571   1.859   0.421   5.552 -1.3673 -0.5128  1.3595
  461MOL0     H63572   1.663   0.585   5.514 -0.8507  0.8032  0.4861
  461MOL0     H63573   1.790   0.714   5.523  1.2362 -0.5041 -1.6118
  461MOL0     H63574   1.907   0.608   5.330 -0.7146  1.3109 -1.3491
  461MOL0     H63575   1.759   0.519   5.304  0.5578  0.7525 -2.1481
  461MOL0     H63576   1.626   0.918   5.141 -1.0862 -1.1637  1.4571
  461MOL0     H63577   1.664   1.070   4.805 -1.9179 -0.1096  0.5738
  461MOL0     H63578   1.692   1.105   4.976 -0.4797 -1.2096  2.9734
  461MOL0     H63579   1.540   1.037   4.916 -0.2133  0.3486  0.9959
  461MOL0     H63580   1.954   1.087   4.606 -2.4213  1.4723 -1.0471
  461MOL0     H63581   2.026   1.161   4.383  0.1244  0.6839 -0.4835
  461MOL0     H63582   2.211   0.899   4.070  1.1804  0.3548 -3.2034
  461MOL0     H63583   2.045   0.831   4.066 -0.2102 -0.2489 -3.5019
  461MOL0     H63584   2.001   1.050   3.922  2.3075  3.0295 -0.6891
  461MOL0     H63585   2.181   1.054   3.908  0.0247  1.0238  1.6072
  461MOL0     H63586   2.006   0.816   3.843  0.6189  0.1369  3.1464
  461MOL0     H63587   2.184   0.834   3.820  0.2717  0.5065 -0.5935
  461MOL0     H63588   2.121   0.836   3.608 -0.6555  0.5050 -1.3464
  461MOL0     H63589   2.149   0.996   3.643  0.4771 -1.1932 -1.7035
  461MOL0     H63590   1.861   0.907   3.707 -0.6428  0.6601  1.3132
  461MOL0     H63591   1.932   1.061   3.648 -0.9775  0.2295 -3.8392
  461MOL0     H63592   1.905   0.816   3.465 -0.8111  0.3268  0.0732
  461MOL0     H63593   1.985   0.969   3.433  1.0883  0.3040  1.2413
  461MOL0     H63594   1.770   1.093   3.505  1.2092  0.8416 -1.4476
  461MOL0     H63595   1.697   0.930   3.464 -0.0130 -0.0583  0.3944
  461MOL0     H63596   1.846   0.961   3.240  2.1263  2.7925 -1.9091
  461MOL0     H63597   1.825   1.136   3.286 -0.3153  0.1110  0.0888
  461MOL0     H63598   2.040   0.752   4.248  0.1602 -1.6337  1.7646
  461MOL0     H63599   1.967   0.688   4.483 -0.8873  1.0287  1.2445
  461MOL0     H63600   1.924   0.651   4.867  0.6163  2.3582 -1.3070
  461MOL0     H63601   1.924   0.608   5.103 -0.1439 -2.3991 -1.7434
  461MOL0     H63602   0.441   0.728   6.173 -1.3660 -0.4154  0.3213
  461MOL0     H63603   0.261   0.644   6.331 -0.7564 -1.2609  2.4629
  461MOL0     H63604   0.241   0.347   6.727 -0.4997  0.4675 -2.7867
  461MOL0     H63605   0.137   0.266   6.926  1.1686  2.2122  2.7652
  461MOL0     H63606  -0.101   0.146   7.012  0.9016 -1.7916  0.5560
  461MOL0     H63607   0.020   0.238   7.116 -0.4367  2.3655  1.0941
  461MOL0     H63608  -0.155   0.292   7.280  1.2718 -0.5726  0.3032
  461MOL0     H63609  -0.117   0.123   7.273 -0.6575  0.8378  1.1207
  461MOL0     H63610  -0.368   0.199   7.274 -3.1870 -3.2545 -1.6758
  461MOL0     H63611  -0.341   0.243   7.105  0.4021  0.4728  0.0163
  461MOL0     H63612  -0.284  -0.042   7.177 -0.2729  1.1756  1.7748
  461MOL0     H63613  -0.334   0.034   7.019 -1.7043 -1.6848  0.1710
  461MOL0     H63614  -0.708  -0.007   7.197 -0.1423 -0.9635 -2.8879
  461MOL0     H63615  -0.189   0.538   6.872 -1.6631 -3.3837 -0.5977
  461MOL0     H63616  -0.075   0.777   6.716  2.3030 -0.4084  1.0493
  461MOL0     H63617  -0.081   0.684   6.562 -1.3704  0.2870  0.6410
  461MOL0     H63618  -0.202   0.661   6.676  0.4110 -2.5217  0.5413
  462MOL0     O63619   1.461   4.161   2.569 -0.0314  0.5406  0.3494
  462MOL0     C63620   1.384   4.145   2.660 -0.1215  0.2152  0.0669
  462MOL0     O63621   1.359   4.024   2.705  0.3614  0.5037  0.4990
  462MOL0     C63622   1.459   3.922   2.687 -0.9397 -0.2290 -1.1581
  462MOL0     C63623   1.541   3.890   2.793 -0.0094 -0.9238 -0.9123
  462MOL0     C63624   1.633   3.782   2.777 -0.7429  0.3798 -0.5396
  462MOL0     C63625   1.640   3.713   2.653  1.2269 -0.5259  0.1709
  462MOL0     O63626   1.718   3.597   2.639 -0.2998  0.1570 -0.0428
  462MOL0     C63627   1.760   3.518   2.752 -0.1547 -0.5923 -0.0755
  462MOL0     C63628   1.804   3.380   2.693  0.6766 -0.2622  0.5103
  462MOL0     C63629   1.855   3.288   2.810 -0.1138  0.4634  0.6453
  462MOL0     C63630   1.741   3.257   2.917  0.5571  0.1218 -0.6030
  462MOL0     C63631   1.752   3.140   3.012 -0.3769  0.5322  0.0347
  462MOL0     C63632   1.657   3.139   3.132  0.2931 -1.1563  0.0384
  462MOL0     C63633   1.665   3.025   3.224 -1.1731  0.8800  0.4594
  462MOL0     C63634   1.795   3.023   3.307 -0.4296 -0.3850 -0.2193
  462MOL0     N63635   1.819   2.904   3.402  0.3915 -0.8415  0.5293
  462MOL0     C63636   1.830   2.772   3.378  0.3764 -0.3744  0.2343
  462MOL0     C63637   1.813   2.711   3.502 -0.7714 -0.5851 -0.8899
  462MOL0     C63638   1.819   2.561   3.518  0.3299 -0.4530 -0.1811
  462MOL0     C63639   1.687   2.501   3.477  0.5637  0.6852  0.8686
  462MOL0     C63640   1.698   2.353   3.478 -0.3848  0.3586 -0.1853
  462MOL0     C63641   1.579   2.277   3.433  0.0896 -0.4289 -0.5939
  462MOL0     O63642   1.582   2.134   3.435 -0.3414  0.7093  0.1940
  462MOL0     C63643   1.462   2.073   3.386 -0.7413  0.3021  0.2522
  462MOL0     C63644   1.467   2.025   3.256 -0.9227 -0.4930  1.2097
  462MOL0     C63645   1.353   1.974   3.193  0.0930 -1.4871 -0.6828
  462MOL0     C63646   1.375   1.911   3.050  1.1373  0.4300 -0.6479
  462MOL0     C63647   1.233   1.986   3.267  0.3952 -0.7534  0.8818
  462MOL0     C63648   1.102   1.962   3.207 -0.2877 -0.2795 -0.5210
  462MOL0     O63649   1.003   1.942   3.299 -0.0525  0.3887  0.0936
  462MOL0     C63650   0.881   1.891   3.271 -1.0808  0.8444 -0.8483
  462MOL0     C63651   0.770   1.921   3.357  0.1609  0.0550  0.2353
  462MOL0     C63652   0.637   1.890   3.313 -0.1915 -0.3299 -1.0891
  462MOL0     C63653   0.615   1.804   3.203 -0.6424 -0.2872 -0.0364
  462MOL0     O63654   0.487   1.765   3.169 -0.3563 -0.2389  0.4699
  462MOL0     C63655   0.373   1.811   3.246 -0.1391 -0.3371 -0.9941
  462MOL0     C63656   0.239   1.771   3.187 -0.9408  0.8525 -0.3595
  462MOL0     C63657   0.222   1.615   3.190  0.6723 -0.5629  0.6605
  462MOL0     C63658   0.071   1.575   3.169  1.2805  0.0440  0.0612
  462MOL0     C63659   0.034   1.434   3.207  0.3246  0.4134  0.5729
  462MOL0     C63660  -0.108   1.417   3.253 -0.6558  0.9615  0.3147
  462MOL0     C63661  -0.204   1.473   3.149  0.3082  0.7645  0.2902
  462MOL0     C63662  -0.321   1.544   3.209 -0.4231 -0.3988 -0.8382
  462MOL0    Cl63663  -0.281   1.701   3.298 -0.0679 -0.5241 -0.1268
  462MOL0     C63664   0.728   1.762   3.128 -0.0053  0.4089  0.1679
  462MOL0     C63665   0.858   1.802   3.159  0.0165 -0.0615 -0.2318
  462MOL0     O63666   1.087   1.965   3.085  1.1905 -0.4624  0.2693
  462MOL0     C63667   1.238   2.025   3.406 -0.6723 -0.0547 -0.9594
  462MOL0     C63668   1.355   2.062   3.470  0.1086  0.1723 -0.0595
  462MOL0     N63669   1.817   2.812   3.603 -0.0443 -0.0536  0.5031
  462MOL0     N63670   1.819   2.923   3.536 -0.0493 -0.2820 -0.5439
  462MOL0     C63671   1.569   3.761   2.544  0.3805 -0.8252  0.0158
  462MOL0     C63672   1.480   3.866   2.561 -0.2679 -0.2620  0.0274
  462MOL0     C63673   1.320   4.254   2.728  0.3850  0.3379  0.8258
  462MOL0     C63674   1.214   4.215   2.822  0.6840  0.3812  0.3804
  462MOL0     C63675   1.131   4.315   2.865  0.5499  0.0072  0.1952
  462MOL0     C63676   1.155   4.451   2.835  0.1654 -0.4327  0.1873
  462MOL0     O63677   1.101   4.561   2.883 -0.5310  0.2487 -0.3367
  462MOL0     C63678   0.992   4.564   2.984 -0.3953 -0.3645 -0.1704
  462MOL0     C63679   0.869   4.647   2.932 -0.3721  0.2804  0.1098
  462MOL0     C63680   0.750   4.638   3.036 -0.3135 -0.4229  0.0817
  462MOL0     C63681   0.652   4.754   3.015 -0.2881 -0.8869  1.1223
  462MOL0     C63682   0.619   4.787   2.879 -0.4879  0.3491 -0.4893
  462MOL0     C63683   0.582   4.804   2.767 -0.1358  0.0731 -0.8991
  462MOL0     C63684   1.251   4.480   2.742 -0.5743 -0.1292 -0.1816
  462MOL0     C63685   1.331   4.390   2.685  0.1768  0.6799 -0.5430
  462MOL0     C63686   1.433   4.450   2.591  0.1107  0.7876  0.1180
  462MOL0     H63687   1.509   3.934   2.888 -3.4528  0.0038 -2.3330
  462MOL0     H63688   1.675   3.735   2.866 -0.5430  2.2201  0.3742
  462MOL0     H63689   1.674   3.502   2.818  1.1336  1.1206  2.1428
  462MOL0     H63690   1.846   3.564   2.801 -0.2476  0.5699 -0.9598
  462MOL0     H63691   1.715   3.333   2.649  2.9319 -2.3442 -2.1076
  462MOL0     H63692   1.870   3.394   2.608  1.3853  0.6562  1.1861
  462MOL0     H63693   1.882   3.191   2.768  1.3396  1.8470 -1.7744
  462MOL0     H63694   1.941   3.327   2.864 -0.5231 -1.1616  2.6037
  462MOL0     H63695   1.729   3.346   2.979 -4.3798 -0.8339  0.2143
  462MOL0     H63696   1.645   3.238   2.868 -2.7214  5.1606  2.9730
  462MOL0     H63697   1.852   3.145   3.057 -0.0310 -0.0345 -0.6561
  462MOL0     H63698   1.743   3.043   2.962  1.3207  0.6586 -0.5831
  462MOL0     H63699   1.685   3.228   3.189 -0.9288 -1.1280  0.6191
  462MOL0     H63700   1.551   3.143   3.104  0.2549 -1.1433  0.1804
  462MOL0     H63701   1.667   2.931   3.167  1.0214 -0.6209  2.7723
  462MOL0     H63702   1.578   3.033   3.290 -0.7424 -0.0187  1.1525
  462MOL0     H63703   1.870   3.010   3.228 -1.3791  0.7226 -1.3395
  462MOL0     H63704   1.830   3.114   3.358  0.4454 -1.2532  0.7725
  462MOL0     H63705   1.820   2.731   3.278 -0.3299 -0.4015  0.3083
  462MOL0     H63706   1.853   2.532   3.618  0.9604  2.3478  0.5322
  462MOL0     H63707   1.896   2.528   3.448  0.2938 -1.7170  0.3470
  462MOL0     H63708   1.617   2.557   3.540 -0.3847  0.7065 -0.1788
  462MOL0     H63709   1.657   2.522   3.374  0.9109  0.7732  0.7866
  462MOL0     H63710   1.780   2.328   3.410 -0.4715  1.9568 -0.9229
  462MOL0     H63711   1.713   2.296   3.570  0.8797 -1.3268 -1.3757
  462MOL0     H63712   1.492   2.313   3.489  1.8425  2.1975  0.6629
  462MOL0     H63713   1.549   2.309   3.333 -2.1883  1.2463  0.5422
  462MOL0     H63714   1.562   2.038   3.206 -0.3718  1.6458  2.6723
  462MOL0     H63715   1.482   1.887   3.051  1.3041  0.9826  1.8886
  462MOL0     H63716   1.338   1.972   2.968 -2.3405 -0.1084  0.3641
  462MOL0     H63717   1.307   1.825   3.054  2.2857 -0.4957 -0.4388
  462MOL0     H63718   0.786   1.981   3.447 -0.2308  0.7143 -0.1228
  462MOL0     H63719   0.557   1.926   3.378  0.6708 -1.1345  0.4794
  462MOL0     H63720   0.378   1.768   3.346 -0.8657 -1.4409 -1.4109
  462MOL0     H63721   0.380   1.919   3.259  1.1416 -0.6205  1.1449
  462MOL0     H63722   0.157   1.816   3.244 -0.8772  1.2468 -0.5813
  462MOL0     H63723   0.233   1.820   3.090  1.7825  1.2239 -0.4332
  462MOL0     H63724   0.258   1.568   3.282  0.8452  1.4499  1.6707
  462MOL0     H63725   0.284   1.562   3.117 -0.5684  1.6049 -2.1481
  462MOL0     H63726   0.040   1.606   3.068 -0.7208  0.6893  0.8141
  462MOL0     H63727   0.009   1.642   3.230  1.1774 -0.9410  1.0795
  462MOL0     H63728   0.058   1.364   3.126 -1.7553  1.1247 -0.7386
  462MOL0     H63729   0.088   1.410   3.299 -0.3207  0.4812  0.9755
  462MOL0     H63730  -0.129   1.458   3.353 -2.7403 -2.7158  1.5729
  462MOL0     H63731  -0.132   1.311   3.266  0.8742  0.6571  0.8209
  462MOL0     H63732  -0.230   1.383   3.093 -0.0554 -0.2956  2.0736
  462MOL0     H63733  -0.158   1.532   3.069  1.3892 -0.0138  0.3217
  462MOL0     H63734  -0.366   1.473   3.279  0.7311  1.3263  1.8376
  462MOL0     H63735  -0.391   1.574   3.131  1.3409  1.6557 -1.7241
  462MOL0     H63736   0.709   1.697   3.043  2.2005  0.0345 -0.0992
  462MOL0     H63737   0.939   1.774   3.092 -0.4121 -0.2874 -0.6602
  462MOL0     H63738   1.147   2.048   3.461 -1.4228  2.7730 -3.1646
  462MOL0     H63739   1.348   2.100   3.571 -1.9548 -0.0949 -0.0747
  462MOL0     H63740   1.579   3.714   2.447  2.2267  0.8069 -0.6452
  462MOL0     H63741   1.417   3.895   2.478 -0.6031 -0.0442  0.3540
  462MOL0     H63742   1.193   4.113   2.851  3.7390 -0.6766 -0.6920
  462MOL0     H63743   1.044   4.284   2.922 -1.2167 -2.0537 -3.2540
  462MOL0     H63744   0.964   4.459   2.999 -0.5798 -0.1574  1.0152
  462MOL0     H63745   1.028   4.607   3.078  3.6023  0.3975 -1.8805
  462MOL0     H63746   0.844   4.606   2.834 -1.0873 -0.3670  0.5541
  462MOL0     H63747   0.887   4.755   2.927 -0.7097  0.4090  1.3457
  462MOL0     H63748   0.700   4.544   3.012  1.5873 -1.5755  0.4693
  462MOL0     H63749   0.791   4.629   3.137 -0.3410  1.6876  0.3235
  462MOL0     H63750   0.702   4.842   3.057 -0.5400 -0.4353  0.4845
  462MOL0     H63751   0.561   4.740   3.074 -0.0562  1.3434  2.1209
  462MOL0     H63752   0.554   4.825   2.665  0.6333 -0.1616 -1.1633
  462MOL0     H63753   1.262   4.584   2.711 -1.9109 -0.6739 -2.7372
  462MOL0     H63754   1.415   4.408   2.491  3.3917  0.4321 -0.4500
  462MOL0     H63755   1.441   4.559   2.585 -2.6036  1.2847  2.9471
  462MOL0     H63756   1.530   4.405   2.613  0.8167  1.1800 -1.9101
  463MOL0     O63757   2.734   9.544   9.294 -0.1366  0.0582 -0.1127
  463MOL0     C63758   2.845   9.493   9.281  0.3222  0.6693 -0.3700
  463MOL0     O63759   2.967   9.555   9.296  0.8728  1.1612 -0.8048
  463MOL0     C63760   2.960   9.692   9.322  0.0426 -0.9477 -0.7502
  463MOL0     C63761   2.960   9.735   9.453 -0.5876 -0.5397  0.2943
  463MOL0     C63762   3.003   9.870   9.478 -0.3257  0.3487 -0.1914
  463MOL0     C63763   3.040   9.957   9.365 -0.0458 -0.7054 -1.0354
  463MOL0     O63764   3.076  10.095   9.381  0.7947 -0.3997  0.0931
  463MOL0     C63765   2.975  10.168   9.455  0.1626 -0.8359  0.3667
  463MOL0     C63766   3.028  10.305   9.493  0.5575 -0.7395 -0.0439
  463MOL0     C63767   2.962  10.390   9.608 -1.0824  0.1077 -1.6340
  463MOL0     C63768   2.884  10.509   9.563  0.0326  0.9244  1.0335
  463MOL0     C63769   2.868  10.613   9.679  0.0718 -0.5332  0.4476
  463MOL0     C63770   2.771  10.586   9.792  0.1865  0.4683  0.1566
  463MOL0     C63771   2.771  10.700   9.907  0.3431  0.5023  0.0542
  463MOL0     C63772   2.854  10.660  10.039 -0.0032 -0.3174 -0.1149
  463MOL0     N63773   2.990  10.642   9.999 -0.3666 -0.0050  0.3876
  463MOL0     C63774   3.059  10.532   9.971 -0.4054 -0.0027 -0.4948
  463MOL0     C63775   3.192  10.559   9.989  0.7988 -0.6286 -0.0506
  463MOL0     C63776   3.296  10.458   9.979  0.1667 -0.0429 -0.6184
  463MOL0     C63777   3.274  10.350   9.869 -0.3620 -0.0736 -0.0074
  463MOL0     C63778   3.403  10.282   9.825 -0.0942  0.9399 -0.6314
  463MOL0     C63779   3.364  10.156   9.755 -0.7737  0.6516 -0.8963
  463MOL0     O63780   3.317  10.060   9.852 -0.3420 -0.7176 -0.6025
  463MOL0     C63781   3.306   9.931   9.811 -0.3795  0.2980 -0.2207
  463MOL0     C63782   3.282   9.838   9.915  0.2295  0.2138  0.5348
  463MOL0     C63783   3.255   9.707   9.882 -0.1346  1.5844  0.2180
  463MOL0     C63784   3.228   9.615  10.003 -0.9130 -0.3983 -0.0647
  463MOL0     C63785   3.253   9.664   9.746  0.5167 -0.3481  0.1327
  463MOL0     C63786   3.204   9.536   9.710 -0.2153  0.5155  1.1051
  463MOL0     O63787   3.257   9.425   9.778  0.3095 -0.6835  0.1825
  463MOL0     C63788   3.221   9.296   9.740 -0.5674 -0.4926 -0.5439
  463MOL0     C63789   3.099   9.252   9.704 -0.2987  0.1690 -0.3752
  463MOL0     C63790   3.061   9.120   9.677  0.1856  0.9094  0.7334
  463MOL0     C63791   3.160   9.028   9.669 -0.0704 -0.6039 -0.2311
  463MOL0     O63792   3.139   8.898   9.620  0.4771 -0.4506  0.6023
  463MOL0     C63793   3.204   8.783   9.681  0.4157 -0.0033 -0.1980
  463MOL0     C63794   3.111   8.706   9.775 -0.5241 -0.7069  1.5593
  463MOL0     C63795   2.988   8.650   9.708  0.4461  0.3351 -0.9002
  463MOL0     C63796   2.897   8.563   9.789  0.4949  0.3921 -0.9269
  463MOL0     C63797   2.773   8.502   9.723 -0.2970 -0.0056 -0.0245
  463MOL0     C63798   2.693   8.427   9.829  0.1286 -0.5046  0.8318
  463MOL0     C63799   2.555   8.392   9.773  0.1643 -0.3328  0.5184
  463MOL0     C63800   2.465   8.319   9.872 -0.4546 -0.3880  0.4135
  463MOL0    Cl63801   2.532   8.152   9.887 -0.3639 -0.2522 -0.0419
  463MOL0     C63802   3.293   9.065   9.701 -0.4681  0.1031 -0.1107
  463MOL0     C63803   3.319   9.194   9.745 -0.2423  0.0220  1.0767
  463MOL0     O63804   3.135   9.528   9.607  0.3897 -0.3996  0.7052
  463MOL0     C63805   3.272   9.761   9.646  0.3222 -0.4644 -0.0933
  463MOL0     C63806   3.292   9.893   9.676 -0.0748  0.2551 -0.1855
  463MOL0     N63807   3.201  10.688  10.019  0.9846 -0.4974 -0.1349
  463MOL0     N63808   3.079  10.737  10.029 -0.0158  0.3285 -0.0323
  463MOL0     C63809   3.028   9.914   9.236  0.4078  0.0409  0.1063
  463MOL0     C63810   2.996   9.778   9.217 -0.3291 -0.2183  0.4092
  463MOL0     C63811   2.847   9.343   9.251 -0.8039 -0.0904  0.0868
  463MOL0     C63812   2.725   9.274   9.261 -0.3392  0.7408  0.5777
  463MOL0     C63813   2.722   9.135   9.254  0.4470  0.3192  0.1150
  463MOL0     C63814   2.843   9.065   9.220  0.3277  0.7135 -0.5255
  463MOL0     O63815   2.840   8.930   9.206  0.2104 -0.2644  0.0777
  463MOL0     C63816   2.931   8.846   9.278 -1.0216 -0.6183 -0.4987
  463MOL0     C63817   2.875   8.700   9.271  0.1099 -0.1851  0.7454
  463MOL0     C63818   2.743   8.670   9.330  0.8425  0.2371 -0.0200
  463MOL0     C63819   2.735   8.519   9.317 -1.0973 -0.2094 -0.7574
  463MOL0     C63820   2.599   8.481   9.361  0.8428 -0.2798  0.3072
  463MOL0     C63821   2.482   8.448   9.389 -1.2135 -0.0227 -0.5123
  463MOL0     C63822   2.958   9.130   9.210 -0.3442 -0.5305 -0.3814
  463MOL0     C63823   2.970   9.264   9.236  1.2584 -0.5282  0.3831
  463MOL0     C63824   3.117   9.328   9.230  0.2327  0.6149  0.1862
  463MOL0     H63825   2.935   9.671   9.537 -0.0515 -0.9929  0.1164
  463MOL0     H63826   2.996   9.899   9.582 -2.4814  2.8575 -0.9510
  463MOL0     H63827   2.966  10.122   9.554  1.0995 -0.5418  0.6082
  463MOL0     H63828   2.876  10.176   9.411  1.2533  5.8653 -1.9716
  463MOL0     H63829   3.130  10.277   9.520  1.3945  0.3438 -1.9245
  463MOL0     H63830   3.041  10.372   9.408 -1.4729 -1.2192 -0.7902
  463MOL0     H63831   2.895  10.333   9.673 -1.3471  1.1889 -0.9281
  463MOL0     H63832   3.035  10.426   9.681 -3.2052  1.6399 -0.1177
  463MOL0     H63833   2.938  10.560   9.483 -0.1035  2.3051  1.7873
  463MOL0     H63834   2.789  10.471   9.524  0.3353  0.4315  0.7683
  463MOL0     H63835   2.852  10.715   9.641 -1.6759 -0.6778  0.6777
  463MOL0     H63836   2.962  10.631   9.732 -0.0802  0.6122  0.3624
  463MOL0     H63837   2.673  10.566   9.748 -0.2189  0.7120  0.9401
  463MOL0     H63838   2.794  10.495   9.848  0.2188  1.0815  1.1587
  463MOL0     H63839   2.670  10.715   9.946  1.4420  0.8541  3.0075
  463MOL0     H63840   2.798  10.793   9.856 -1.4410 -0.8043 -3.6614
  463MOL0     H63841   2.847  10.746  10.106  2.1980 -0.7939  0.8180
  463MOL0     H63842   2.827  10.559  10.073  2.3015 -0.6745  0.8647
  463MOL0     H63843   3.009  10.442   9.936 -2.3686  1.3228 -1.2539
  463MOL0     H63844   3.319  10.399  10.068  0.3002  0.8491 -0.0423
  463MOL0     H63845   3.394  10.498   9.953  1.6838 -3.4756 -0.7027
  463MOL0     H63846   3.195  10.284   9.905 -0.4096  0.7373  1.4366
  463MOL0     H63847   3.243  10.413   9.785  0.6012 -0.2023 -0.4686
  463MOL0     H63848   3.462  10.346   9.759 -1.7829  1.8396 -1.3241
  463MOL0     H63849   3.463  10.257   9.913  1.9336  0.4263 -2.0700
  463MOL0     H63850   3.289  10.184   9.680  1.5744  1.8698 -2.9358
  463MOL0     H63851   3.454  10.120   9.705  0.2836  0.9680  0.6678
  463MOL0     H63852   3.296   9.880  10.014  0.7554  2.3407 -0.3774
  463MOL0     H63853   3.219   9.666  10.099  1.1999 -1.8376  0.9869
  463MOL0     H63854   3.302   9.536  10.019  1.6234  2.1630  1.8239
  463MOL0     H63855   3.130   9.572   9.982 -1.4826 -0.0212  1.7147
  463MOL0     H63856   3.012   9.317   9.708  0.3464  0.9744  2.1164
  463MOL0     H63857   2.957   9.094   9.657  0.6686 -0.3181 -0.3980
  463MOL0     H63858   3.244   8.711   9.609 -0.5495 -1.2574  0.4618
  463MOL0     H63859   3.297   8.820   9.725 -0.2825  1.4875  0.0786
  463MOL0     H63860   3.168   8.626   9.822  2.1764 -1.0663 -1.9296
  463MOL0     H63861   3.083   8.768   9.860  2.4578  0.6683  1.6710
  463MOL0     H63862   3.016   8.598   9.616  3.3351 -0.7529  0.4624
  463MOL0     H63863   2.936   8.738   9.667  1.8175  1.0285 -1.2145
  463MOL0     H63864   2.871   8.621   9.878 -2.6290  1.1267 -2.1724
  463MOL0     H63865   2.957   8.475   9.816 -3.2275 -2.0717  0.2642
  463MOL0     H63866   2.717   8.582   9.675 -1.8316 -1.9907 -1.7103
  463MOL0     H63867   2.804   8.422   9.655  1.8356  0.9045 -0.1939
  463MOL0     H63868   2.669   8.492   9.913 -1.0291 -0.6842  0.6466
  463MOL0     H63869   2.748   8.336   9.857 -0.8872 -2.2954 -2.4789
  463MOL0     H63870   2.553   8.346   9.673 -2.0181  3.1368 -1.2279
  463MOL0     H63871   2.508   8.486   9.742 -0.6285 -1.4824 -2.0336
  463MOL0     H63872   2.365   8.326   9.828  0.8333 -0.8676 -2.8615
  463MOL0     H63873   2.480   8.365   9.970 -1.1203  1.0050 -0.1162
  463MOL0     H63874   3.380   9.000   9.695  0.5840  1.5049 -0.8310
  463MOL0     H63875   3.420   9.206   9.784  0.9580 -0.6792 -1.5316
  463MOL0     H63876   3.274   9.733   9.541  0.1733 -2.2299  0.3317
  463MOL0     H63877   3.286   9.968   9.597  2.3715  0.8360  0.1203
  463MOL0     H63878   3.054   9.964   9.143 -0.6688 -3.9638 -2.5656
  463MOL0     H63879   2.999   9.740   9.116  1.0234  0.0676  0.3263
  463MOL0     H63880   2.632   9.329   9.272 -0.8997 -0.2705  1.1133
  463MOL0     H63881   2.632   9.080   9.279  1.8917 -0.9231  3.1618
  463MOL0     H63882   3.032   8.855   9.237 -1.1889  1.6119 -0.5491
  463MOL0     H63883   2.947   8.865   9.384  0.8699 -1.4853 -0.5809
  463MOL0     H63884   2.951   8.638   9.319  0.3154  2.4357  4.1457
  463MOL0     H63885   2.875   8.670   9.165 -0.2402 -1.0261  0.9718
  463MOL0     H63886   2.729   8.714   9.429 -1.3069 -2.4036  0.9870
  463MOL0     H63887   2.658   8.703   9.269 -0.1267 -1.3721  0.4000
  463MOL0     H63888   2.805   8.465   9.381  0.5390  0.4409 -1.9246
  463MOL0     H63889   2.754   8.488   9.214  0.9876 -0.4343 -0.3421
  463MOL0     H63890   2.381   8.420   9.412 -1.3493  1.5962  1.1146
  463MOL0     H63891   3.038   9.064   9.176 -0.2424 -0.1834 -0.8240
  463MOL0     H63892   3.186   9.256   9.185 -0.8236 -0.2053 -0.1525
  463MOL0     H63893   3.114   9.409   9.156 -2.4622 -0.9024 -1.5455
  463MOL0     H63894   3.151   9.366   9.327 -2.0778 -0.9339  1.7027
  464MOL0     O63895   0.989   9.131  10.266  0.0345 -0.2519  0.3547
  464MOL0     C63896   0.881   9.085  10.232  0.4906 -1.1431 -0.9423
  464MOL0     O63897   0.773   9.066  10.323 -0.2232  0.1952  0.0641
  464MOL0     C63898   0.762   9.150  10.431 -0.1666  0.0816  0.8057
  464MOL0     C63899   0.645   9.222  10.435  0.9717 -0.7715  0.4483
  464MOL0     C63900   0.616   9.314  10.532 -0.3162  0.0883  0.6557
  464MOL0     C63901   0.694   9.313  10.649 -0.1712 -0.7332  0.0896
  464MOL0     O63902   0.652   9.386  10.760 -0.0502 -0.2396  0.5880
  464MOL0     C63903   0.719   9.513  10.762 -0.3359 -0.0408 -0.4397
  464MOL0     C63904   0.755   9.556  10.901 -0.3531  0.3917 -1.0522
  464MOL0     C63905   0.647   9.640  10.965  0.5719 -0.4837 -0.2118
  464MOL0     C63906   0.522   9.557  10.997  0.4323 -0.1080  0.5953
  464MOL0     C63907   0.403   9.566  10.899 -0.7345 -0.3621  0.1586
  464MOL0     C63908   0.297   9.479  10.961  0.5344 -0.4610  0.0512
  464MOL0     C63909   0.165   9.492  10.876  0.7411 -0.2377  0.0163
  464MOL0     C63910   0.039   9.416  10.935  0.6997  0.9675  0.1069
  464MOL0     N63911  -0.097   9.454  10.875  0.0184 -0.5340 -0.4568
  464MOL0     C63912  -0.143   9.583  10.863  0.5615 -0.3302  0.9792
  464MOL0     C63913  -0.267   9.567  10.800 -0.1461 -0.4204  0.0053
  464MOL0     C63914  -0.354   9.691  10.770 -0.2984  0.0421  0.5703
  464MOL0     C63915  -0.298   9.767  10.652 -0.3671 -0.0350 -0.5386
  464MOL0     C63916  -0.305   9.697  10.517  0.1740  0.8102  0.0176
  464MOL0     C63917  -0.450   9.666  10.477 -0.9214 -0.3201  1.4447
  464MOL0     O63918  -0.471   9.685  10.340  0.0395  0.3558  0.0213
  464MOL0     C63919  -0.534   9.806  10.316 -0.4910 -0.3351 -0.0461
  464MOL0     C63920  -0.473   9.927  10.339  0.5352 -0.4858  0.1574
  464MOL0     C63921  -0.530  10.047  10.285 -0.0502  0.9463 -0.0171
  464MOL0     C63922  -0.451  10.166  10.324  0.2174 -0.0166  0.4570
  464MOL0     C63923  -0.661  10.041  10.219  0.4158 -0.2842 -0.3220
  464MOL0     C63924  -0.723  10.161  10.148 -1.4051  0.3624 -0.2769
  464MOL0     O63925  -0.645  10.269  10.128 -0.7724  0.2348  0.1579
  464MOL0     C63926  -0.691  10.355  10.035 -0.6434 -0.7253 -0.2107
  464MOL0     C63927  -0.607  10.390   9.931  0.0029  0.7171 -0.1156
  464MOL0     C63928  -0.656  10.474   9.833  0.1691  0.6115  0.4798
  464MOL0     C63929  -0.780  10.533   9.848  0.5009 -0.7833  0.8213
  464MOL0     O63930  -0.827  10.634   9.761  0.2911 -0.0043 -0.0460
  464MOL0     C63931  -0.758  10.676   9.643  0.2554  0.2251  0.3139
  464MOL0     C63932  -0.804  10.589   9.527  0.1399  0.0631 -0.5804
  464MOL0     C63933  -0.762  10.645   9.393  0.3632 -0.4562 -0.4795
  464MOL0     C63934  -0.609  10.637   9.387 -0.0423 -1.2037  0.5460
  464MOL0     C63935  -0.560  10.655   9.248 -0.1035 -1.3084  0.1857
  464MOL0     C63936  -0.611  10.545   9.151 -0.2204 -0.5484 -1.0326
  464MOL0     C63937  -0.535  10.542   9.021 -0.0170 -0.5221 -0.0233
  464MOL0     C63938  -0.603  10.447   8.923 -0.3172 -0.0509  0.6196
  464MOL0    Cl63939  -0.641  10.290   8.984  0.1081 -0.2336  0.6660
  464MOL0     C63940  -0.861  10.498   9.946  0.0114  1.7525  0.2539
  464MOL0     C63941  -0.819  10.410  10.045  0.1200  0.1753  0.0765
  464MOL0     O63942  -0.836  10.145  10.114  0.6560  0.3678  0.1515
  464MOL0     C63943  -0.722   9.915  10.213  0.4794 -1.0347 -0.0076
  464MOL0     C63944  -0.657   9.806  10.255  0.5817 -0.1458  0.0907
  464MOL0     N63945  -0.295   9.437  10.772  0.3804 -0.0353 -0.0298
  464MOL0     N63946  -0.190   9.372  10.821 -0.7922 -0.1715 -0.2973
  464MOL0     C63947   0.823   9.248  10.639 -0.4677  0.2248  0.2215
  464MOL0     C63948   0.850   9.156  10.530 -0.4905 -0.0749 -0.8990
  464MOL0     C63949   0.880   9.004  10.112 -1.1305  1.1278 -0.3771
  464MOL0     C63950   0.857   8.863  10.129  0.2062 -0.2423  0.6921
  464MOL0     C63951   0.861   8.770  10.016  0.0966  0.0287  0.5238
  464MOL0     C63952   0.880   8.819   9.888 -0.0359  0.6044 -0.5470
  464MOL0     O63953   0.874   8.750   9.768 -0.1759  1.2034  0.1447
  464MOL0     C63954   0.818   8.622   9.766 -0.0928 -1.1691  0.1896
  464MOL0     C63955   0.670   8.612   9.752  0.1653  0.1118  0.0475
  464MOL0     C63956   0.615   8.728   9.667  0.9280  1.3348 -0.4551
  464MOL0     C63957   0.673   8.713   9.529  0.6600  0.5016  0.3123
  464MOL0     C63958   0.641   8.585   9.464  0.4671  0.4276  0.6552
  464MOL0     C63959   0.591   8.482   9.410  0.6220 -0.7585 -0.5087
  464MOL0     C63960   0.930   8.949   9.876  0.6016  1.0479  0.6746
  464MOL0     C63961   0.932   9.038   9.985 -0.4096  0.1457  0.4832
  464MOL0     C63962   1.012   9.165   9.961  0.4448  0.8826  0.3520
  464MOL0     H63963   0.585   9.231  10.345 -1.0806  0.2936  1.8467
  464MOL0     H63964   0.523   9.368  10.519 -0.4940 -0.7082 -1.7898
  464MOL0     H63965   0.661   9.598  10.724  2.4672  0.9852 -2.8275
  464MOL0     H63966   0.806   9.510  10.696 -0.5874  0.6140 -0.8116
  464MOL0     H63967   0.769   9.468  10.965 -1.9127  1.3345  0.6634
  464MOL0     H63968   0.853   9.603  10.889  0.0428  0.1764  0.9270
  464MOL0     H63969   0.695   9.682  11.053 -1.3777 -2.2516  1.7930
  464MOL0     H63970   0.612   9.726  10.907 -1.3002 -0.5982  0.6762
  464MOL0     H63971   0.541   9.451  11.017 -0.4988 -0.5001 -0.4914
  464MOL0     H63972   0.479   9.602  11.087 -0.4118 -0.5076  0.3981
  464MOL0     H63973   0.433   9.521  10.804  5.2063  0.1830  1.3764
  464MOL0     H63974   0.360   9.665  10.883 -1.5249 -1.1611 -3.6951
  464MOL0     H63975   0.333   9.376  10.959  2.1233  0.0566 -2.6679
  464MOL0     H63976   0.273   9.501  11.066  1.2937 -2.7389  0.7698
  464MOL0     H63977   0.177   9.472  10.769 -0.8865 -1.5871  0.0348
  464MOL0     H63978   0.143   9.598  10.888 -0.4373 -0.3557 -0.9227
  464MOL0     H63979   0.061   9.310  10.920  0.5982  0.6426  2.0287
  464MOL0     H63980   0.022   9.407  11.042 -1.0392 -2.0666 -0.2937
  464MOL0     H63981  -0.084   9.673  10.878  2.0875 -0.4956 -2.8115
  464MOL0     H63982  -0.356   9.747  10.864 -0.9197 -0.5254  0.9022
  464MOL0     H63983  -0.455   9.652  10.754 -0.1888 -1.4853  3.2043
  464MOL0     H63984  -0.331   9.870  10.634  3.8240  1.4927 -0.6222
  464MOL0     H63985  -0.195   9.774  10.687  0.7298 -2.1887 -2.9848
  464MOL0     H63986  -0.243   9.742  10.439  0.8911  0.0053  0.1067
  464MOL0     H63987  -0.264   9.596  10.525 -1.6292  0.1780  2.5822
  464MOL0     H63988  -0.487   9.567  10.506 -2.6879  0.5189  2.1784
  464MOL0     H63989  -0.513   9.738  10.529  1.0073  2.2477  0.4433
  464MOL0     H63990  -0.375   9.926  10.387  0.5967  0.1693  0.0429
  464MOL0     H63991  -0.508  10.259  10.321 -1.0170 -0.7778 -0.9941
  464MOL0     H63992  -0.368  10.172  10.252  1.3017  2.8654  1.7741
  464MOL0     H63993  -0.412  10.160  10.425 -0.0911  3.9548  0.9928
  464MOL0     H63994  -0.511  10.340   9.921 -0.0656  0.6657 -0.5263
  464MOL0     H63995  -0.598  10.482   9.742 -1.0783  1.3677 -0.2800
  464MOL0     H63996  -0.768  10.785   9.641 -1.5681  0.0736 -0.7154
  464MOL0     H63997  -0.650  10.672   9.655  0.7095 -0.0563 -2.9920
  464MOL0     H63998  -0.770  10.485   9.533 -0.1784  0.0222  1.2657
  464MOL0     H63999  -0.913  10.582   9.530  0.0553  0.4029 -1.9969
  464MOL0     H64000  -0.809  10.742   9.376  0.0853 -0.7405 -1.4418
  464MOL0     H64001  -0.810  10.578   9.320 -0.7407  1.9202 -2.0842
  464MOL0     H64002  -0.563  10.548   9.431 -0.2769 -0.8774  1.4932
  464MOL0     H64003  -0.573  10.727   9.436 -3.1488 -0.3560  1.5297
  464MOL0     H64004  -0.596  10.752   9.213  0.7928  0.2497  3.1621
  464MOL0     H64005  -0.451  10.654   9.259 -0.2448 -0.5324  2.0418
  464MOL0     H64006  -0.715  10.574   9.135 -1.0214 -3.0356 -0.8245
  464MOL0     H64007  -0.600  10.450   9.204 -2.0411 -0.5436 -0.5887
  464MOL0     H64008  -0.429  10.522   9.042  1.9415  4.8904 -2.7202
  464MOL0     H64009  -0.528  10.643   8.981 -0.0934 -0.6108 -0.2621
  464MOL0     H64010  -0.544  10.446   8.831  1.3015  1.5995  1.5627
  464MOL0     H64011  -0.703  10.475   8.889 -1.3857 -3.1222  0.9665
  464MOL0     H64012  -0.957  10.549   9.952 -0.1610  1.2409  2.7933
  464MOL0     H64013  -0.890  10.380  10.121 -1.4510 -0.9670 -1.7430
  464MOL0     H64014  -0.822   9.905  10.171 -1.1159  0.5171  3.0083
  464MOL0     H64015  -0.710   9.713  10.233 -4.2268  2.4689 -0.8790
  464MOL0     H64016   0.900   9.264  10.713 -2.2246  4.5833  1.4257
  464MOL0     H64017   0.944   9.102  10.532 -1.1555 -1.2957 -1.7786
  464MOL0     H64018   0.833   8.824  10.227 -4.4787  0.4264  0.0289
  464MOL0     H64019   0.849   8.663  10.028  0.7768 -0.0680  0.3904
  464MOL0     H64020   0.869   8.578   9.680 -0.5257 -0.0189 -0.6837
  464MOL0     H64021   0.851   8.557   9.847  2.7697 -0.3933 -0.2590
  464MOL0     H64022   0.628   8.631   9.851 -3.5232  2.8296 -1.7894
  464MOL0     H64023   0.633   8.514   9.722  1.0975 -0.1670 -0.2287
  464MOL0     H64024   0.506   8.720   9.663  1.0210 -0.8580 -0.1534
  464MOL0     H64025   0.633   8.825   9.713 -1.2556  0.5497  2.4381
  464MOL0     H64026   0.780   8.733   9.524  0.9114  1.1277  4.6933
  464MOL0     H64027   0.632   8.800   9.477  2.7645  1.4576  0.1418
  464MOL0     H64028   0.550   8.397   9.360  0.1356  0.0063 -1.4235
  464MOL0     H64029   0.957   8.974   9.774 -1.0711  1.7190  0.3698
  464MOL0     H64030   1.121   9.154   9.967  0.6331  0.3948 -2.4837
  464MOL0     H64031   0.981   9.196   9.861  0.9011  2.2852  0.6163
  464MOL0     H64032   0.981   9.256  10.013  1.5762  1.2842  0.3411
  465MOL0     O64033   7.882  10.216  10.113  0.0588 -0.0330  0.1048
  465MOL0     C64034   7.896  10.256   9.997 -0.6664 -0.1098  0.6187
  465MOL0     O64035   7.799  10.271   9.905  0.0477  0.1674 -0.1847
  465MOL0     C64036   7.669  10.284   9.950  0.3128 -0.4212  0.3833
  465MOL0     C64037   7.586  10.164   9.957 -0.6803 -1.3879  0.1669
  465MOL0     C64038   7.449  10.170   9.985 -0.0670 -0.2028  0.8573
  465MOL0     C64039   7.388  10.293  10.015 -0.4267  0.6229  0.1179
  465MOL0     O64040   7.254  10.305  10.049 -0.3428  0.7136  0.1621
  465MOL0     C64041   7.156  10.247   9.964  1.0841 -0.3643  1.5808
  465MOL0     C64042   7.018  10.296  10.008  0.0967 -0.7022 -1.0256
  465MOL0     C64043   7.029  10.441   9.966  0.4924  0.1583 -0.7481
  465MOL0     C64044   6.928  10.514  10.051  0.4133  1.5166 -0.9692
  465MOL0     C64045   6.930  10.653   9.992 -0.2429  0.0938  1.0211
  465MOL0     C64046   6.814  10.742  10.049  0.3026  1.0415  0.3758
  465MOL0     C64047   6.828  10.887  10.003 -0.8309 -0.0368 -0.2830
  465MOL0     C64048   6.799  10.916   9.851  0.7763  0.6842  0.0615
  465MOL0     N64049   6.827  11.057   9.814  0.6159  0.3138  0.6935
  465MOL0     C64050   6.816  11.160   9.902 -0.4497  0.2296  0.0975
  465MOL0     C64051   6.842  11.271   9.836 -0.1470  0.2910 -0.4379
  465MOL0     C64052   6.900  11.401   9.897  0.2444  0.1676  0.1599
  465MOL0     C64053   7.052  11.427   9.866  0.9256 -0.0952 -0.1559
  465MOL0     C64054   7.062  11.521   9.756  0.6404 -0.0507  1.0077
  465MOL0     C64055   7.033  11.466   9.618  0.7073  0.3897  1.1151
  465MOL0     O64056   7.047  11.565   9.520  0.4944  0.7438 -0.3312
  465MOL0     C64057   7.171  11.588   9.465 -0.5168 -0.3248  0.0533
  465MOL0     C64058   7.166  11.690   9.367  0.0981  1.8423 -0.7751
  465MOL0     C64059   7.285  11.740   9.317  0.1596 -0.7111  0.4070
  465MOL0     C64060   7.276  11.853   9.216  1.2274  1.0506  0.8803
  465MOL0     C64061   7.406  11.676   9.350  0.3377  0.3563 -0.7735
  465MOL0     C64062   7.536  11.716   9.299 -1.4335 -0.0325 -0.0987
  465MOL0     O64063   7.627  11.606   9.278 -0.1942 -0.9142 -0.9549
  465MOL0     C64064   7.759  11.618   9.326  0.2216 -0.4771 -0.3036
  465MOL0     C64065   7.859  11.570   9.241  0.0878 -0.2141 -0.2929
  465MOL0     C64066   8.000  11.593   9.260 -0.0360  0.8389 -0.0776
  465MOL0     C64067   8.036  11.666   9.375 -0.3185  0.5961 -0.6670
  465MOL0     O64068   8.176  11.678   9.386  0.1756 -0.1241 -0.2752
  465MOL0     C64069   8.232  11.761   9.491  0.3612  0.0930 -0.1506
  465MOL0     C64070   8.267  11.911   9.460  0.2296 -0.5066 -0.2529
  465MOL0     C64071   8.216  12.012   9.559  0.5370 -0.7916 -0.0278
  465MOL0     C64072   8.328  12.063   9.657 -0.1918  0.4784  0.8671
  465MOL0     C64073   8.248  12.156   9.753 -0.4033  0.5362 -0.6017
  465MOL0     C64074   8.340  12.185   9.874  1.1284  0.0919 -0.2155
  465MOL0     C64075   8.277  12.293   9.972 -0.2316 -0.3094  0.0154
  465MOL0     C64076   8.275  12.426   9.918 -0.4701 -0.1389 -1.2556
  465MOL0    Cl64077   8.119  12.475   9.853  0.0755  0.5289 -0.1116
  465MOL0     C64078   7.940  11.711   9.463 -0.3978  0.2193 -0.6453
  465MOL0     C64079   7.797  11.691   9.443  0.7452 -0.1696  0.1522
  465MOL0     O64080   7.556  11.833   9.264 -0.4153 -0.7726 -0.3510
  465MOL0     C64081   7.408  11.566   9.431  0.5825  0.0050  0.3333
  465MOL0     C64082   7.293  11.526   9.495  1.0553 -0.0672  0.1878
  465MOL0     N64083   6.849  11.233   9.699 -0.1556  0.0062 -0.9488
  465MOL0     N64084   6.841  11.103   9.685  0.0585 -0.5141 -1.7604
  465MOL0     C64085   7.472  10.402  10.039 -0.5517 -0.2292  1.1901
  465MOL0     C64086   7.605  10.402   9.997  0.1958  1.0349  0.2601
  465MOL0     C64087   8.035  10.288   9.948 -0.0260  0.8977  0.0339
  465MOL0     C64088   8.044  10.346   9.813 -0.1816  0.2513 -0.5960
  465MOL0     C64089   8.165  10.387   9.758  0.2076 -0.0526 -0.1409
  465MOL0     C64090   8.281  10.380   9.846 -1.1873  0.2264 -0.1989
  465MOL0     O64091   8.404  10.419   9.799 -0.1472 -0.0503 -0.4790
  465MOL0     C64092   8.435  10.381   9.666  0.0905 -0.2138  0.0282
  465MOL0     C64093   8.431  10.499   9.573  0.1213  0.3535  1.0696
  465MOL0     C64094   8.443  10.455   9.427  0.6059 -0.0505 -1.0345
  465MOL0     C64095   8.472  10.585   9.350  0.4557  0.2299  0.4681
  465MOL0     C64096   8.467  10.575   9.203 -0.5947  0.2193 -0.2859
  465MOL0     C64097   8.453  10.549   9.089  0.3819  0.5883  0.4557
  465MOL0     C64098   8.275  10.335   9.978  0.3034 -0.3906  0.5335
  465MOL0     C64099   8.157  10.285  10.028  0.1432 -0.5714 -0.1252
  465MOL0     C64100   8.154  10.226  10.161  0.3394 -0.9020 -1.0074
  465MOL0     H64101   7.623  10.065   9.933 -0.6698 -1.3677  0.0988
  465MOL0     H64102   7.399  10.074   9.980 -2.4759  0.8744  2.7386
  465MOL0     H64103   7.149  10.138   9.974 -0.8458 -0.6324 -1.4563
  465MOL0     H64104   7.178  10.270   9.860  1.0205 -3.4465  0.7656
  465MOL0     H64105   6.934  10.244   9.961 -0.6023 -2.7152  2.1036
  465MOL0     H64106   7.004  10.285  10.116  1.8325 -2.7767 -0.9328
  465MOL0     H64107   7.128  10.486   9.964  1.7553 -2.4235 -1.8661
  465MOL0     H64108   7.005  10.448   9.860  2.2449  2.3031 -1.0641
  465MOL0     H64109   6.826  10.476  10.058  0.1680  2.3973  1.2531
  465MOL0     H64110   6.965  10.509  10.154  1.7581  1.7756 -1.4199
  465MOL0     H64111   6.928  10.649   9.883  2.0860 -0.6874  0.9564
  465MOL0     H64112   7.028  10.691  10.021  0.5107 -0.6027 -0.5373
  465MOL0     H64113   6.713  10.705  10.025  0.9716 -2.5074  2.2915
  465MOL0     H64114   6.815  10.727  10.157  0.2905  0.4794  0.3038
  465MOL0     H64115   6.932  10.913  10.020 -1.2588  0.7363  1.2736
  465MOL0     H64116   6.771  10.952  10.069 -1.3949 -1.6524  0.8930
  465MOL0     H64117   6.863  10.850   9.792 -0.1834  0.6473 -0.9661
  465MOL0     H64118   6.694  10.905   9.824  0.9221 -1.7300  0.2519
  465MOL0     H64119   6.823  11.152  10.010  0.8254  0.5777  0.0648
  465MOL0     H64120   6.872  11.381  10.001 -1.8597 -3.6711 -0.9186
  465MOL0     H64121   6.838  11.481   9.856  0.0079 -1.4319 -2.9223
  465MOL0     H64122   7.089  11.472   9.959  1.1183 -1.2124  0.3253
  465MOL0     H64123   7.101  11.333   9.839  0.3865  0.5319 -3.7187
  465MOL0     H64124   7.003  11.611   9.777 -1.9878 -1.3414 -0.3119
  465MOL0     H64125   7.161  11.567   9.764 -0.4577  2.7748 -0.2647
  465MOL0     H64126   7.103  11.382   9.618  0.6865  0.3596 -0.0468
  465MOL0     H64127   6.932  11.431   9.595  1.3742 -3.4107  3.1122
  465MOL0     H64128   7.067  11.725   9.336 -0.3368  0.8521 -0.5508
  465MOL0     H64129   7.303  11.946   9.268  0.5423  0.7464  1.8095
  465MOL0     H64130   7.171  11.851   9.187  2.0715  3.1381 -2.9302
  465MOL0     H64131   7.350  11.831   9.139  0.1053 -0.9093  0.2853
  465MOL0     H64132   7.832  11.493   9.170 -4.2029 -1.5895  2.4376
  465MOL0     H64133   8.067  11.545   9.189 -1.1900 -0.4424 -0.3562
  465MOL0     H64134   8.183  11.757   9.588  0.4383 -1.1234 -0.1465
  465MOL0     H64135   8.323  11.714   9.529  0.5057 -0.0138 -0.6166
  465MOL0     H64136   8.376  11.915   9.467  0.2206 -1.8108  1.2629
  465MOL0     H64137   8.222  11.923   9.361 -0.1325 -2.0970 -0.3185
  465MOL0     H64138   8.126  11.973   9.608  0.5419  1.1091  1.6143
  465MOL0     H64139   8.174  12.096   9.504  2.8399  1.2763  1.1708
  465MOL0     H64140   8.402  12.135   9.619 -2.7990  2.3154 -1.0609
  465MOL0     H64141   8.388  11.981   9.698  1.9602  1.3891 -0.3133
  465MOL0     H64142   8.216  12.249   9.707 -2.7092 -0.8363 -1.9207
  465MOL0     H64143   8.158  12.114   9.798 -0.5943  1.7395  0.1841
  465MOL0     H64144   8.438  12.229   9.850  0.2356  3.1450  1.1897
  465MOL0     H64145   8.360  12.092   9.928  1.1395  0.7978  1.0319
  465MOL0     H64146   8.344  12.297  10.058 -3.0048  2.0310  2.2858
  465MOL0     H64147   8.180  12.261  10.012  0.5210 -0.2666  1.9959
  465MOL0     H64148   8.357  12.445   9.850  1.6194 -0.9957  0.8854
  465MOL0     H64149   8.299  12.492  10.002  1.2558  0.2920 -2.0590
  465MOL0     H64150   7.950  11.776   9.549 -0.9879  0.1647 -0.5304
  465MOL0     H64151   7.728  11.737   9.513 -1.6948 -1.2751 -1.4100
  465MOL0     H64152   7.501  11.519   9.464 -0.6712 -0.4057  3.7057
  465MOL0     H64153   7.313  11.439   9.557  1.7349 -1.3877 -1.7995
  465MOL0     H64154   7.425  10.493  10.074 -0.9249 -0.5186  1.4522
  465MOL0     H64155   7.660  10.495   9.996  2.0490  0.0104  1.0796
  465MOL0     H64156   7.955  10.359   9.752 -0.2178 -1.3466 -0.9238
  465MOL0     H64157   8.172  10.410   9.653  1.2576  0.1087 -0.0449
  465MOL0     H64158   8.535  10.337   9.664  0.7538  1.2189  0.3165
  465MOL0     H64159   8.372  10.300   9.627 -2.3660  1.1450  0.9046
  465MOL0     H64160   8.513  10.562   9.610  1.3616 -0.0192 -0.8731
  465MOL0     H64161   8.333  10.541   9.597 -1.3897 -2.6946  0.7953
  465MOL0     H64162   8.514  10.372   9.414 -1.0102 -1.7655  0.5355
  465MOL0     H64163   8.347  10.412   9.397  0.2559  0.6770 -0.9581
  465MOL0     H64164   8.562  10.637   9.383 -0.4491  0.2859  3.1180
  465MOL0     H64165   8.391  10.654   9.376 -0.7561 -1.2039  0.7091
  465MOL0     H64166   8.440  10.530   8.984  1.6110  0.5305  0.3024
  465MOL0     H64167   8.370  10.335  10.030  1.2432 -2.1988 -1.0010
  465MOL0     H64168   8.250  10.206  10.210 -0.6896  0.1334  1.6273
  465MOL0     H64169   8.109  10.304  10.223  2.8831  2.7042 -3.3316
  465MOL0     H64170   8.087  10.140  10.165 -1.1391  0.2480  1.1396
  466MOL0     O64171   4.261   1.378  10.679  0.5769  0.1154 -0.0887
  466MOL0     C64172   4.238   1.408  10.562  0.3736  0.3650 -0.0626
  466MOL0     O64173   4.328   1.461  10.475  0.3653  0.3973 -0.1888
  466MOL0     C64174   4.461   1.457  10.508 -0.1845 -0.3902 -0.5168
  466MOL0     C64175   4.525   1.563  10.566 -0.7908 -0.2216 -1.0594
  466MOL0     C64176   4.666   1.560  10.596 -0.0618 -0.1819 -0.0762
  466MOL0     C64177   4.745   1.449  10.568  0.3635  0.6151  0.0883
  466MOL0     O64178   4.879   1.451  10.591 -0.7436  0.1085 -0.8818
  466MOL0     C64179   4.939   1.567  10.659  0.3705  0.2342  0.0238
  466MOL0     C64180   5.087   1.533  10.688 -0.1391  0.7578  0.6486
  466MOL0     C64181   5.090   1.440  10.818 -0.6958 -0.6513  0.2723
  466MOL0     C64182   5.244   1.432  10.863 -0.3315  0.2445 -0.0014
  466MOL0     C64183   5.308   1.317  10.787  0.5457  0.4322 -0.7519
  466MOL0     C64184   5.455   1.304  10.831 -0.5212  0.0559 -0.0162
  466MOL0     C64185   5.524   1.194  10.753  0.1329 -0.0089 -0.6441
  466MOL0     C64186   5.589   1.246  10.625 -0.4966  0.0947  0.5682
  466MOL0     N64187   5.502   1.260  10.507  0.5690 -0.2657 -0.1270
  466MOL0     C64188   5.391   1.179  10.485 -0.2681  0.0846 -0.1746
  466MOL0     C64189   5.352   1.217  10.363 -0.8250  0.0308  0.0069
  466MOL0     C64190   5.235   1.176  10.284 -0.0754  0.3165  0.1115
  466MOL0     C64191   5.124   1.293  10.289  0.0554 -0.6114 -0.4586
  466MOL0     C64192   4.981   1.276  10.220 -0.6961 -0.7390 -1.0042
  466MOL0     C64193   5.000   1.313  10.074 -0.8492  0.5809 -0.3412
  466MOL0     O64194   4.975   1.449  10.054 -0.2576  0.4232 -0.1601
  466MOL0     C64195   5.003   1.510   9.939 -0.1726 -0.4693  0.5893
  466MOL0     C64196   4.969   1.649   9.928  0.1709 -0.3824 -1.2364
  466MOL0     C64197   5.014   1.728   9.827  1.0152  0.6692 -0.8337
  466MOL0     C64198   4.978   1.868   9.827 -0.2364  0.1236  0.1695
  466MOL0     C64199   5.083   1.657   9.716  0.3052 -0.3245  0.6423
  466MOL0     C64200   5.147   1.733   9.602 -1.2338 -0.1057 -0.7578
  466MOL0     O64201   5.263   1.802   9.649  0.9287  0.8672  0.0704
  466MOL0     C64202   5.345   1.876   9.570  0.6230  0.1558 -0.1427
  466MOL0     C64203   5.290   1.990   9.509  0.1430 -0.5172 -0.2228
  466MOL0     C64204   5.376   2.070   9.424 -0.4785  0.2047 -0.2874
  466MOL0     C64205   5.514   2.029   9.397  0.7027  0.3454 -0.4642
  466MOL0     O64206   5.615   2.092   9.333 -0.9347 -0.0197 -0.3692
  466MOL0     C64207   5.587   2.223   9.284  0.7353 -0.3786  0.1170
  466MOL0     C64208   5.708   2.296   9.242 -0.2612  0.4630 -0.2254
  466MOL0     C64209   5.800   2.350   9.357 -0.2729  0.5569  0.5873
  466MOL0     C64210   5.914   2.441   9.293  0.3764 -0.3750  0.4118
  466MOL0     C64211   5.993   2.533   9.385 -0.2647  0.7501 -0.1526
  466MOL0     C64212   5.898   2.617   9.469  0.0781 -0.0562 -0.2314
  466MOL0     C64213   5.793   2.704   9.404  0.4234  0.2328  0.6795
  466MOL0     C64214   5.744   2.815   9.501 -0.5575  1.2189  0.1182
  466MOL0    Cl64215   5.621   2.904   9.403  0.6209  0.4505 -0.1224
  466MOL0     C64216   5.554   1.914   9.463  0.8504  0.3027  0.5633
  466MOL0     C64217   5.474   1.839   9.554  1.5830  0.5803  0.3787
  466MOL0     O64218   5.131   1.707   9.480  0.5064 -0.1656 -0.5069
  466MOL0     C64219   5.114   1.517   9.724  0.0602 -0.3137 -0.0675
  466MOL0     C64220   5.073   1.448   9.837 -0.0520  0.7889 -0.5432
  466MOL0     N64221   5.430   1.330  10.328 -0.2448  0.6852 -0.4159
  466MOL0     N64222   5.527   1.354  10.411  0.1332  1.0258  0.6916
  466MOL0     C64223   4.676   1.340  10.500 -0.1867  0.0053  0.0139
  466MOL0     C64224   4.535   1.346  10.475 -0.3945 -0.4361  0.5570
  466MOL0     C64225   4.106   1.390  10.501 -0.0479  2.0855  0.5098
  466MOL0     C64226   4.088   1.432  10.370  0.4460  0.1471 -0.1719
  466MOL0     C64227   3.969   1.440  10.304  0.3124  0.1354  0.3717
  466MOL0     C64228   3.847   1.395  10.359 -0.4588 -0.3754 -0.3805
  466MOL0     O64229   3.723   1.382  10.304 -0.7014 -0.1497  0.3125
  466MOL0     C64230   3.716   1.399  10.164 -0.0441 -0.1076 -0.7750
  466MOL0     C64231   3.581   1.381  10.107  0.2785 -0.2930  0.4224
  466MOL0     C64232   3.468   1.455  10.166  0.3878 -0.2542 -0.4113
  466MOL0     C64233   3.474   1.595  10.119  0.7586 -0.3010  0.2462
  466MOL0     C64234   3.394   1.685  10.202 -0.5481 -0.2903 -0.2181
  466MOL0     C64235   3.331   1.763  10.272  0.2385 -0.5939 -0.0717
  466MOL0     C64236   3.865   1.343  10.488  0.5184  0.1405 -0.1073
  466MOL0     C64237   3.988   1.336  10.560 -0.7313  0.3300 -0.2068
  466MOL0     C64238   3.996   1.285  10.705 -0.4710 -0.2285 -0.2018
  466MOL0     H64239   4.468   1.650  10.598 -3.2420 -1.5768 -1.4392
  466MOL0     H64240   4.701   1.656  10.634  0.8600 -0.4893 -0.1198
  466MOL0     H64241   4.885   1.588  10.752 -0.6857  2.4875 -1.0218
  466MOL0     H64242   4.922   1.656  10.598 -2.5782 -0.6465 -0.5994
  466MOL0     H64243   5.137   1.480  10.607  1.6358  2.6521  0.4283
  466MOL0     H64244   5.142   1.625  10.709 -0.1996  1.1343 -0.7249
  466MOL0     H64245   5.031   1.476  10.902 -2.2136 -1.3053 -0.4682
  466MOL0     H64246   5.047   1.343  10.790  0.5313 -0.8263 -1.1720
  466MOL0     H64247   5.313   1.517  10.862  4.1112 -2.9720 -1.8046
  466MOL0     H64248   5.256   1.405  10.968 -1.6773  0.3846  0.2099
  466MOL0     H64249   5.305   1.327  10.679  3.2659 -1.3109 -1.0884
  466MOL0     H64250   5.254   1.227  10.818  0.3358  1.1539  1.1072
  466MOL0     H64251   5.512   1.397  10.819  0.6103 -0.6011  0.1840
  466MOL0     H64252   5.468   1.277  10.936  3.9851 -0.2299 -0.4382
  466MOL0     H64253   5.457   1.110  10.734  0.6825 -1.4163  2.7817
  466MOL0     H64254   5.606   1.145  10.808  3.2894 -0.0234 -4.8737
  466MOL0     H64255   5.642   1.341  10.631 -0.7768  0.5858 -2.8286
  466MOL0     H64256   5.664   1.167  10.609  1.1131  1.0948  2.7256
  466MOL0     H64257   5.340   1.103  10.543 -0.0347 -0.9785 -1.3041
  466MOL0     H64258   5.200   1.077  10.315  3.4956 -0.6472  1.6044
  466MOL0     H64259   5.264   1.175  10.179 -1.1989 -2.4385 -0.2601
  466MOL0     H64260   5.109   1.298  10.398 -2.5341 -3.7460 -0.5408
  466MOL0     H64261   5.166   1.391  10.265  1.5161 -1.7669 -2.9534
  466MOL0     H64262   4.940   1.177  10.241 -1.6682 -0.4091 -1.2753
  466MOL0     H64263   4.895   1.339  10.244  0.7106  1.4181 -1.3653
  466MOL0     H64264   5.101   1.284  10.044 -1.0715 -0.6548  0.0425
  466MOL0     H64265   4.936   1.251  10.011 -1.0634  2.0557 -1.6344
  466MOL0     H64266   4.912   1.685  10.013 -0.0882 -3.2987 -0.0293
  466MOL0     H64267   5.011   1.931   9.744  3.3606 -1.3732  0.2748
  466MOL0     H64268   5.043   1.900   9.908  0.9499 -0.9650 -0.3193
  466MOL0     H64269   4.871   1.888   9.842 -1.4677 -3.3104 -2.4950
  466MOL0     H64270   5.186   2.013   9.528  0.5166 -0.0198  1.4490
  466MOL0     H64271   5.332   2.149   9.362 -0.0797 -0.0745 -0.9381
  466MOL0     H64272   5.518   2.211   9.199  1.0374 -0.1233 -0.1659
  466MOL0     H64273   5.535   2.290   9.354  5.7188  0.3318  3.6506
  466MOL0     H64274   5.773   2.238   9.176 -0.3734  2.3933 -2.1734
  466MOL0     H64275   5.678   2.376   9.173 -1.1511 -1.6728 -2.4606
  466MOL0     H64276   5.843   2.273   9.421  2.1720 -1.3678 -2.9726
  466MOL0     H64277   5.730   2.411   9.414 -0.9781  0.0561  0.2765
  466MOL0     H64278   5.881   2.502   9.208  3.3051  0.6075 -0.1284
  466MOL0     H64279   5.974   2.369   9.235  2.5178  2.6503 -1.4760
  466MOL0     H64280   6.048   2.466   9.452 -2.7911 -0.9321  0.3734
  466MOL0     H64281   6.064   2.585   9.319  0.3138  0.0820 -0.0681
  466MOL0     H64282   5.953   2.679   9.540 -0.0537  0.6506 -0.7473
  466MOL0     H64283   5.842   2.551   9.537 -0.2431 -0.3942 -0.8219
  466MOL0     H64284   5.703   2.647   9.377  0.7791 -1.5405  2.9830
  466MOL0     H64285   5.829   2.768   9.323  0.6658 -1.8784 -0.9492
  466MOL0     H64286   5.819   2.883   9.543  1.0724  0.1681 -1.0050
  466MOL0     H64287   5.696   2.783   9.594 -0.7756  2.9684  0.6558
  466MOL0     H64288   5.654   1.872   9.463  1.0978  0.8590  1.2214
  466MOL0     H64289   5.521   1.748   9.592  0.0370 -0.4117  0.0399
  466MOL0     H64290   5.162   1.478   9.635  1.6816  1.5839 -0.1209
  466MOL0     H64291   5.096   1.342   9.834  3.3994  1.4246 -2.6513
  466MOL0     H64292   4.741   1.256  10.475 -1.9918 -0.8778 -2.0002
  466MOL0     H64293   4.493   1.268  10.412  1.1510 -0.2195 -0.8064
  466MOL0     H64294   4.171   1.471  10.313  0.9056  0.8177  0.9127
  466MOL0     H64295   3.971   1.474  10.201 -0.2692  1.7244  0.8447
  466MOL0     H64296   3.757   1.493  10.129  0.4351 -0.2876 -0.7107
  466MOL0     H64297   3.769   1.313  10.122 -0.5391 -1.1807  0.6933
  466MOL0     H64298   3.555   1.275  10.102 -3.3463  0.2720  3.0803
  466MOL0     H64299   3.590   1.423  10.006 -4.4634  0.5593  0.1239
  466MOL0     H64300   3.380   1.405  10.124 -3.7439  1.7248  4.7478
  466MOL0     H64301   3.468   1.441  10.274 -2.8262 -1.1907 -0.4261
  466MOL0     H64302   3.456   1.606  10.012  2.2110 -2.6132 -0.3097
  466MOL0     H64303   3.578   1.630  10.124  0.2518  1.1703  1.1001
  466MOL0     H64304   3.263   1.819  10.333  0.0245  1.1535 -1.8045
  466MOL0     H64305   3.779   1.303  10.542  0.5987  0.3475  0.1758
  466MOL0     H64306   3.898   1.247  10.737 -0.2460 -1.7777 -1.2165
  466MOL0     H64307   4.080   1.220  10.731  1.4714  2.0902 -0.4191
  466MOL0     H64308   4.007   1.380  10.758  2.3719 -0.3856 -0.3545
  467MOL0     O64309  10.516  10.390   7.335 -0.2917  0.3651 -0.1302
  467MOL0     C64310  10.479  10.287   7.390 -0.7943  0.0277 -0.4035
  467MOL0     O64311  10.550  10.181   7.403 -0.0557 -0.4690 -0.0540
  467MOL0     C64312  10.655  10.134   7.315  0.0246  0.0057 -0.5540
  467MOL0     C64313  10.682  10.181   7.190  0.6130 -0.4353 -0.1108
  467MOL0     C64314  10.776  10.123   7.109  0.4759  0.1829  0.8704
  467MOL0     C64315  10.855  10.008   7.152  0.0347 -0.6922 -0.0580
  467MOL0     O64316  10.963   9.960   7.085  0.2042 -0.6687 -0.6890
  467MOL0     C64317  10.927   9.865   6.981 -0.0071 -0.8613  0.5014
  467MOL0     C64318  11.051   9.832   6.909  0.2254  0.1921  0.1976
  467MOL0     C64319  11.165   9.779   6.994  0.0381  0.5396  0.1210
  467MOL0     C64320  11.282   9.752   6.903  0.2082  0.0875 -0.2941
  467MOL0     C64321  11.418   9.748   6.962  0.0067 -0.2549 -0.3160
  467MOL0     C64322  11.521   9.731   6.844  0.8998  0.0769 -0.1944
  467MOL0     C64323  11.663   9.752   6.892  0.4906  0.3309 -0.9862
  467MOL0     C64324  11.772   9.728   6.796 -0.2303 -0.1447  0.4914
  467MOL0     N64325  11.758   9.807   6.674  0.3448  0.0300 -0.0886
  467MOL0     C64326  11.831   9.918   6.644 -0.2025  0.4816 -0.2509
  467MOL0     C64327  11.782   9.961   6.526 -0.4439  0.4655 -0.0111
  467MOL0     C64328  11.832  10.081   6.455 -0.1703  0.7693 -0.2702
  467MOL0     C64329  11.890  10.184   6.552 -0.1851 -0.6328 -0.4048
  467MOL0     C64330  11.878  10.319   6.476 -0.1753 -0.5421  0.2044
  467MOL0     C64331  11.990  10.338   6.370  0.3360 -0.1281  0.5577
  467MOL0     O64332  12.115  10.369   6.429  0.6068  1.3304 -0.4698
  467MOL0     C64333  12.223  10.372   6.349 -0.7565  0.7855 -1.0246
  467MOL0     C64334  12.339  10.409   6.423 -0.2330 -0.2792 -0.9035
  467MOL0     C64335  12.459  10.419   6.358 -0.4523  0.7900  0.2817
  467MOL0     C64336  12.578  10.427   6.447 -0.5824 -0.2195 -0.1217
  467MOL0     C64337  12.475  10.406   6.218  0.1389 -0.0991  0.3556
  467MOL0     C64338  12.603  10.434   6.150  0.7754  0.4632  0.1356
  467MOL0     O64339  12.711  10.488   6.214 -0.2093  0.1512  0.1683
  467MOL0     C64340  12.823  10.522   6.141  0.3615 -0.5548  0.0533
  467MOL0     C64341  12.818  10.637   6.057  0.0018  0.3239  0.1352
  467MOL0     C64342  12.931  10.682   5.985  0.0823 -0.1314 -1.0499
  467MOL0     C64343  13.048  10.610   5.993  0.1800 -0.5861  0.3041
  467MOL0     O64344  13.173  10.639   5.944  0.0971 -0.6264  0.4243
  467MOL0     C64345  13.183  10.664   5.806 -0.2468 -0.4107 -0.0640
  467MOL0     C64346  13.331  10.713   5.791  0.3866  0.6877 -0.5797
  467MOL0     C64347  13.362  10.717   5.640 -0.5958 -0.0493 -0.1401
  467MOL0     C64348  13.505  10.763   5.592 -0.2448 -0.1810 -0.2942
  467MOL0     C64349  13.499  10.868   5.474 -0.2115 -0.5151  1.0442
  467MOL0     C64350  13.633  10.954   5.488 -0.1334  0.0521 -0.0732
  467MOL0     C64351  13.759  10.855   5.476 -0.9259  0.0447  0.2049
  467MOL0     C64352  13.881  10.929   5.418  0.5214  0.2384  0.1186
  467MOL0    Cl64353  13.831  10.986   5.256  0.0513 -0.1861 -0.0228
  467MOL0     C64354  13.059  10.507   6.082 -0.4300  0.2549 -0.2532
  467MOL0     C64355  12.942  10.452   6.147 -0.1676  0.2871 -0.4147
  467MOL0     O64356  12.598  10.382   6.037  0.2608 -0.1300  1.0330
  467MOL0     C64357  12.357  10.375   6.150 -0.0100 -0.3300  1.1006
  467MOL0     C64358  12.236  10.361   6.216  0.5658 -0.0985 -0.1242
  467MOL0     N64359  11.691   9.875   6.481 -0.3305  0.5768  0.4267
  467MOL0     N64360  11.680   9.782   6.565 -0.3231 -0.3118  0.4387
  467MOL0     C64361  10.834   9.971   7.282 -0.2174 -0.0106 -0.6824
  467MOL0     C64362  10.735  10.030   7.364  1.3804  0.8606  1.1361
  467MOL0     C64363  10.337  10.286   7.457  0.0788  0.2760 -0.7244
  467MOL0     C64364  10.297  10.170   7.525  0.5272 -0.9121 -0.0887
  467MOL0     C64365  10.165  10.153   7.575 -0.0301 -0.3241 -0.8344
  467MOL0     C64366  10.079  10.256   7.575 -0.3088 -0.0106 -0.1731
  467MOL0     O64367   9.960  10.237   7.643  0.0933  0.2534  0.7945
  467MOL0     C64368   9.880  10.341   7.688  0.4081 -1.3215 -0.0003
  467MOL0     C64369   9.814  10.299   7.824 -1.1443 -1.4599  0.2871
  467MOL0     C64370   9.716  10.169   7.819 -0.1760 -0.1830 -0.3087
  467MOL0     C64371   9.613  10.165   7.704  0.2154  0.4850 -0.1888
  467MOL0     C64372   9.533  10.293   7.701 -0.0029 -0.3015 -0.0148
  467MOL0     C64373   9.480  10.399   7.715  0.5270 -0.5067  0.8977
  467MOL0     C64374  10.113  10.378   7.512  0.0862  0.8449  0.0034
  467MOL0     C64375  10.244  10.388   7.458 -0.0741  0.5942 -0.3210
  467MOL0     C64376  10.261  10.520   7.382 -0.1262 -0.1848 -0.1058
  467MOL0     H64377  10.630  10.268   7.150  0.1414 -1.8200 -2.8174
  467MOL0     H64378  10.803  10.175   7.018 -2.0848 -1.5551 -1.0235
  467MOL0     H64379  10.856   9.908   6.910 -1.2583 -5.5804 -1.5085
  467MOL0     H64380  10.871   9.787   7.033 -1.4213  0.8996  1.7623
  467MOL0     H64381  11.023   9.755   6.836  0.5526  0.6306 -0.4029
  467MOL0     H64382  11.086   9.919   6.853  0.6648 -0.8768 -1.2670
  467MOL0     H64383  11.197   9.857   7.064  1.6034  1.2379 -1.3176
  467MOL0     H64384  11.139   9.683   7.040  0.2649  0.3173 -0.2070
  467MOL0     H64385  11.257   9.658   6.852  1.5165  0.4179 -1.6253
  467MOL0     H64386  11.277   9.832   6.829 -1.7943 -0.8233 -1.2176
  467MOL0     H64387  11.421   9.657   7.022 -0.8814 -1.4680 -2.0281
  467MOL0     H64388  11.429   9.838   7.024  1.1296 -0.2645 -0.4783
  467MOL0     H64389  11.511   9.630   6.804  1.4218 -1.9891  4.2833
  467MOL0     H64390  11.505   9.800   6.761 -0.8184 -0.2226 -0.1423
  467MOL0     H64391  11.677   9.689   6.981  1.4805  4.0736  1.7815
  467MOL0     H64392  11.660   9.853   6.935 -3.6037 -0.7655  2.0553
  467MOL0     H64393  11.864   9.749   6.851 -1.2465  4.2073  0.9396
  467MOL0     H64394  11.771   9.622   6.773 -2.5225 -0.4470  1.6595
  467MOL0     H64395  11.924   9.949   6.692  0.2820 -0.7440 -0.3512
  467MOL0     H64396  11.741  10.107   6.400  1.1876  1.4590 -2.2914
  467MOL0     H64397  11.906  10.045   6.383 -1.4383  2.3475 -2.4741
  467MOL0     H64398  11.837  10.194   6.647 -0.3467 -1.0781 -0.4439
  467MOL0     H64399  11.994  10.154   6.570 -0.6727 -2.4611 -0.4512
  467MOL0     H64400  11.782  10.331   6.425 -1.5059 -1.8996  2.2316
  467MOL0     H64401  11.888  10.401   6.547  1.5680  0.7325 -1.4159
  467MOL0     H64402  11.991  10.251   6.304  0.8957 -0.2345  0.7028
  467MOL0     H64403  11.976  10.426   6.307  2.8671 -0.3623 -0.4462
  467MOL0     H64404  12.326  10.421   6.530 -0.5067 -4.9092 -0.2233
  467MOL0     H64405  12.606  10.532   6.462 -2.6344  0.0985  2.0937
  467MOL0     H64406  12.661  10.359   6.429 -1.0192 -1.1576  1.2735
  467MOL0     H64407  12.546  10.403   6.549  4.5238 -1.4152  1.5003
  467MOL0     H64408  12.733  10.704   6.060 -0.8613 -0.6728 -0.8435
  467MOL0     H64409  12.926  10.777   5.932  2.1695  2.7366  3.2613
  467MOL0     H64410  13.162  10.567   5.760 -1.4086 -0.7463  1.0970
  467MOL0     H64411  13.106  10.737   5.780 -1.8458 -0.7835  3.0852
  467MOL0     H64412  13.358  10.807   5.841 -1.2133  0.3723  1.0060
  467MOL0     H64413  13.390  10.629   5.827  0.2972  1.5183  1.6872
  467MOL0     H64414  13.277  10.760   5.587 -1.5726 -3.1465 -1.3030
  467MOL0     H64415  13.359  10.612   5.609  3.4766  0.2646 -2.2714
  467MOL0     H64416  13.566  10.674   5.573 -1.4629 -0.5304 -3.1836
  467MOL0     H64417  13.549  10.816   5.677 -0.7186 -0.7276  0.3017
  467MOL0     H64418  13.508  10.815   5.379 -1.3492  1.2533 -0.1010
  467MOL0     H64419  13.406  10.926   5.476  0.0275  0.1211 -2.1603
  467MOL0     H64420  13.633  10.991   5.591 -1.2494 -1.4500  0.5117
  467MOL0     H64421  13.630  11.032   5.412 -2.5518 -0.8770 -1.0357
  467MOL0     H64422  13.738  10.776   5.402 -1.1966  0.8315 -0.5786
  467MOL0     H64423  13.768  10.800   5.570  1.1335 -0.5070 -0.2623
  467MOL0     H64424  13.965  10.859   5.411 -0.0297 -0.3593 -0.7177
  467MOL0     H64425  13.908  11.019   5.475 -0.9635  0.1892  0.9435
  467MOL0     H64426  13.154  10.457   6.099 -0.4859  0.1569 -0.2279
  467MOL0     H64427  12.942  10.364   6.211  1.3304  0.0335 -0.7346
  467MOL0     H64428  12.361  10.366   6.041  1.2000 -1.4209  1.2047
  467MOL0     H64429  12.154  10.344   6.146  2.6047 -0.2697 -2.6203
  467MOL0     H64430  10.902   9.904   7.334  1.2912  0.8829 -1.4450
  467MOL0     H64431  10.735  10.001   7.469  3.8553 -0.1950  0.9020
  467MOL0     H64432  10.372  10.097   7.551  0.8756  0.1153  2.0277
  467MOL0     H64433  10.130  10.061   7.620 -0.1668 -0.2898 -0.8705
  467MOL0     H64434   9.954  10.421   7.697 -0.9413 -0.2349  2.3228
  467MOL0     H64435   9.796  10.359   7.620 -0.8653 -3.9718  0.7387
  467MOL0     H64436   9.752  10.377   7.869 -1.1174 -2.7407  2.7063
  467MOL0     H64437   9.899  10.276   7.888 -0.6296 -2.2552 -0.6631
  467MOL0     H64438   9.789  10.088   7.808  0.4398  0.2349  0.5715
  467MOL0     H64439   9.648  10.142   7.899 -0.3647  2.9212  0.7144
  467MOL0     H64440   9.549  10.077   7.715  3.6513 -2.1468  0.6603
  467MOL0     H64441   9.670  10.152   7.611 -0.7187 -1.6144 -0.5315
  467MOL0     H64442   9.440  10.498   7.725  1.5682 -0.2982  3.8142
  467MOL0     H64443  10.034  10.450   7.493  0.7450  1.4314 -0.5836
  467MOL0     H64444  10.266  10.498   7.275 -0.6488 -0.0869 -0.1493
  467MOL0     H64445  10.173  10.582   7.398 -0.3086 -0.9181  2.1112
  467MOL0     H64446  10.343  10.579   7.425 -1.7475  0.9082  1.6078
  468MOL0     O64447   9.614   6.747  10.381  0.5814  0.7492  0.2301
  468MOL0     C64448   9.509   6.736  10.318 -1.2077  0.8752  0.1323
  468MOL0     O64449   9.463   6.838  10.243  0.2321  0.1749  0.0440
  468MOL0     C64450   9.495   6.970  10.248 -0.1090  1.4003  0.3796
  468MOL0     C64451   9.439   7.050  10.346  0.5528 -0.3529 -0.0606
  468MOL0     C64452   9.472   7.185  10.346 -1.1809  0.7288 -0.2180
  468MOL0     C64453   9.558   7.238  10.245  0.3934 -0.2317 -0.1316
  468MOL0     O64454   9.593   7.372  10.250  0.0562  0.1096 -0.2068
  468MOL0     C64455   9.729   7.412  10.262 -0.7719 -0.2843 -0.4741
  468MOL0     C64456   9.731   7.530  10.168  0.0484  0.2210  0.1675
  468MOL0     C64457   9.873   7.584  10.126  0.3684  0.0186 -0.5246
  468MOL0     C64458   9.960   7.611  10.255  0.3998 -0.1052  0.4344
  468MOL0     C64459  10.112   7.618  10.224 -0.0580 -0.2616 -0.4297
  468MOL0     C64460  10.143   7.713  10.103 -0.4816 -0.5311 -0.2102
  468MOL0     C64461  10.291   7.721  10.090 -1.0375 -0.0608 -0.2657
  468MOL0     C64462  10.346   7.798   9.956  0.8718  0.5134  0.4124
  468MOL0     N64463  10.281   7.765   9.827 -0.1019 -0.1365 -0.7941
  468MOL0     C64464  10.357   7.754   9.715  0.2474 -0.5797  0.6163
  468MOL0     C64465  10.267   7.700   9.629 -0.1395  0.4832  0.6213
  468MOL0     C64466  10.298   7.663   9.491  0.1011  0.0044  0.2227
  468MOL0     C64467  10.303   7.787   9.407 -0.8937 -0.0117  0.9821
  468MOL0     C64468  10.171   7.870   9.412  0.3495  0.9801 -0.1012
  468MOL0     C64469  10.154   7.986   9.308 -0.0860 -0.1759  0.4384
  468MOL0     O64470  10.170   7.924   9.179 -0.5871  0.6862  0.7318
  468MOL0     C64471  10.186   8.009   9.072  0.2216  0.4683  0.6396
  468MOL0     C64472  10.137   7.969   8.945  0.8122  0.4022  0.6687
  468MOL0     C64473  10.124   8.065   8.839 -0.5820 -0.1765  0.4064
  468MOL0     C64474  10.035   8.018   8.725  0.3349 -0.5604  0.1124
  468MOL0     C64475  10.193   8.187   8.843 -0.4057 -0.4608 -0.2946
  468MOL0     C64476  10.214   8.275   8.720  0.4734 -0.4634 -0.2576
  468MOL0     O64477  10.231   8.404   8.757  0.6422  0.5846 -0.3864
  468MOL0     C64478  10.272   8.491   8.658  0.3872  0.3140  0.2420
  468MOL0     C64479  10.185   8.598   8.640  0.1800 -0.1282 -0.1428
  468MOL0     C64480  10.222   8.694   8.548  0.4859 -0.0872  0.6314
  468MOL0     C64481  10.348   8.698   8.490  0.0246  0.1943  1.0243
  468MOL0     O64482  10.372   8.800   8.406 -0.0560 -0.0789  0.0464
  468MOL0     C64483  10.393   8.924   8.477 -0.6125 -0.5193 -0.0521
  468MOL0     C64484  10.430   9.041   8.385  0.0296 -0.2566 -0.7051
  468MOL0     C64485  10.322   9.104   8.311 -0.3627  0.3362 -0.3220
  468MOL0     C64486  10.365   9.216   8.222 -0.6778  0.4559  0.0541
  468MOL0     C64487  10.244   9.271   8.148  0.6637  0.3035  0.2202
  468MOL0     C64488  10.275   9.376   8.042  0.5212  0.0482 -0.1961
  468MOL0     C64489  10.329   9.511   8.103  0.2979  0.3069 -0.2276
  468MOL0     C64490  10.381   9.605   7.993  0.0657  1.1603 -0.1951
  468MOL0    Cl64491  10.379   9.773   8.062 -0.0321  0.1323 -0.5893
  468MOL0     C64492  10.439   8.597   8.523  0.3843 -0.2167  0.0672
  468MOL0     C64493  10.405   8.496   8.614  0.7727  0.8928  0.3598
  468MOL0     O64494  10.225   8.228   8.610 -0.2333 -0.4967  0.7847
  468MOL0     C64495  10.243   8.221   8.970 -0.1556 -0.6759  0.8371
  468MOL0     C64496  10.240   8.142   9.080 -0.2439 -1.0392 -0.0608
  468MOL0     N64497  10.140   7.707   9.676  0.7383 -0.0580  0.0534
  468MOL0     N64498  10.148   7.749   9.805 -0.1484  0.9027  0.9417
  468MOL0     C64499   9.606   7.153  10.140  0.6905 -0.6253 -0.0098
  468MOL0     C64500   9.573   7.025  10.147  0.1618  0.9620 -1.4186
  468MOL0     C64501   9.439   6.610  10.327  0.1441  0.0164 -0.6814
  468MOL0     C64502   9.302   6.629  10.285 -0.2882  0.0775  0.2579
  468MOL0     C64503   9.212   6.518  10.278  0.2246  0.0476  0.3828
  468MOL0     C64504   9.251   6.399  10.329 -1.5353 -0.2658 -0.3623
  468MOL0     O64505   9.175   6.290  10.327  1.1319 -0.1680 -0.1706
  468MOL0     C64506   9.031   6.290  10.300 -0.1172  0.2958  0.2904
  468MOL0     C64507   8.978   6.146  10.327 -0.5466 -0.8305  0.1618
  468MOL0     C64508   9.015   6.089  10.467  0.1170 -0.2047  0.5331
  468MOL0     C64509   8.987   5.941  10.485  0.0431 -0.6758 -0.1784
  468MOL0     C64510   8.850   5.924  10.431 -0.2284  0.3182  0.6469
  468MOL0     C64511   8.745   5.884  10.392 -0.5691  0.0990 -0.0109
  468MOL0     C64512   9.386   6.385  10.366 -0.5910  0.3166 -0.3232
  468MOL0     C64513   9.478   6.478  10.370  0.4537 -0.0419  0.2098
  468MOL0     C64514   9.622   6.440  10.405 -0.0393 -0.7131  0.2622
  468MOL0     H64515   9.380   7.000  10.422 -0.3118  1.4121  0.4779
  468MOL0     H64516   9.453   7.250  10.431 -1.0510 -1.1595  1.3100
  468MOL0     H64517   9.795   7.332  10.226  0.4889  0.8734 -0.8166
  468MOL0     H64518   9.746   7.440  10.366 -1.3398 -2.6514  0.3163
  468MOL0     H64519   9.679   7.498  10.078 -0.6591  4.2587 -1.0953
  468MOL0     H64520   9.669   7.611  10.209  2.1062  0.3674  3.3797
  468MOL0     H64521   9.920   7.511  10.059  1.3244  1.8372 -1.9258
  468MOL0     H64522   9.869   7.679  10.072  0.7694 -0.2651 -1.0615
  468MOL0     H64523   9.931   7.712  10.287 -0.3569 -0.3069  0.4041
  468MOL0     H64524   9.948   7.542  10.339 -0.7477  1.3282  1.4995
  468MOL0     H64525  10.127   7.514  10.194 -1.1354 -0.9413  1.2115
  468MOL0     H64526  10.162   7.643  10.318 -0.6587 -2.5513  0.5700
  468MOL0     H64527  10.095   7.674  10.014 -0.5322  0.6635 -0.7172
  468MOL0     H64528  10.096   7.806  10.136  3.3694  0.9535  1.7559
  468MOL0     H64529  10.324   7.617  10.088  5.7201  1.6081  1.4876
  468MOL0     H64530  10.339   7.763  10.179  1.0233  1.1383 -1.8541
  468MOL0     H64531  10.343   7.907   9.955 -4.8603  0.6749  0.2740
  468MOL0     H64532  10.450   7.767   9.952  1.2846  1.4700  2.4895
  468MOL0     H64533  10.458   7.790   9.697  0.3689 -1.1505  0.1058
  468MOL0     H64534  10.230   7.590   9.445  1.3955 -0.3692 -1.1765
  468MOL0     H64535  10.390   7.605   9.502 -0.2093 -0.3299  1.2175
  468MOL0     H64536  10.387   7.841   9.453  1.2820 -3.2427  1.1454
  468MOL0     H64537  10.334   7.764   9.305  2.2681  0.3178  1.7573
  468MOL0     H64538  10.088   7.799   9.404  1.8010 -0.6827 -1.2588
  468MOL0     H64539  10.170   7.918   9.510  3.0227  1.9107 -0.4416
  468MOL0     H64540  10.052   8.025   9.310  0.1446  1.0739 -3.5091
  468MOL0     H64541  10.231   8.060   9.331  1.6749 -0.9373 -2.5209
  468MOL0     H64542  10.095   7.869   8.937  1.0818  0.3699 -0.4405
  468MOL0     H64543   9.955   7.954   8.766  2.5326 -1.2391  3.8726
  468MOL0     H64544  10.095   7.948   8.667  3.9444 -0.4850  3.3240
  468MOL0     H64545   9.992   8.105   8.676 -1.4583  0.1381  2.7172
  468MOL0     H64546  10.093   8.587   8.698 -2.5027  0.1566 -4.0042
  468MOL0     H64547  10.157   8.776   8.519  0.8147 -0.1355 -0.2642
  468MOL0     H64548  10.309   8.946   8.542 -2.2737  0.1126 -2.2913
  468MOL0     H64549  10.477   8.911   8.546 -0.2346  2.0356  0.0534
  468MOL0     H64550  10.485   9.116   8.442 -0.3736  0.1620 -0.8561
  468MOL0     H64551  10.499   9.006   8.307 -0.9150  0.0886 -1.7252
  468MOL0     H64552  10.263   9.156   8.387  0.2057 -1.0665  1.1453
  468MOL0     H64553  10.268   9.026   8.258 -2.0460  0.1516  1.5196
  468MOL0     H64554  10.440   9.178   8.151  0.1634 -1.4764  1.8659
  468MOL0     H64555  10.404   9.298   8.283  1.0019  1.1356 -1.8181
  468MOL0     H64556  10.184   9.190   8.107 -1.1292  0.4044  2.4180
  468MOL0     H64557  10.188   9.320   8.228  1.6032 -1.1601  1.8507
  468MOL0     H64558  10.182   9.391   7.987  1.1111  2.3643 -0.6760
  468MOL0     H64559  10.353   9.335   7.977 -1.2689 -1.0654 -1.7521
  468MOL0     H64560  10.411   9.492   8.173  1.3970  0.3571 -1.4735
  468MOL0     H64561  10.245   9.551   8.160  0.3608 -0.1514  0.1970
  468MOL0     H64562  10.323   9.598   7.901 -0.3517  1.2929  0.0505
  468MOL0     H64563  10.480   9.582   7.953  0.4083  3.0374 -0.5203
  468MOL0     H64564  10.540   8.590   8.483  1.2336 -2.5696  2.3091
  468MOL0     H64565  10.486   8.433   8.649  1.2880  0.3058 -1.7912
  468MOL0     H64566  10.295   8.313   8.995 -1.4280  0.4120 -0.3988
  468MOL0     H64567  10.286   8.181   9.170 -0.3121  2.0327 -1.2113
  468MOL0     H64568   9.676   7.194  10.067  0.4439  1.8159  1.0104
  468MOL0     H64569   9.626   6.962  10.075 -0.4589  0.7798 -1.7233
  468MOL0     H64570   9.249   6.716  10.248  2.7651  2.1588  0.4151
  468MOL0     H64571   9.110   6.544  10.251  0.8696 -0.6026 -3.0410
  468MOL0     H64572   8.976   6.363  10.361  2.0571 -0.9729  4.0971
  468MOL0     H64573   9.015   6.312  10.194  1.1186 -2.7257 -0.6246
  468MOL0     H64574   9.024   6.074  10.258 -0.3664 -1.7459  1.2184
  468MOL0     H64575   8.870   6.147  10.307 -0.2570 -0.8654 -1.5583
  468MOL0     H64576   9.119   6.112  10.489 -0.3341  4.0506 -0.8237
  468MOL0     H64577   8.963   6.151  10.542 -0.2626 -0.0549  0.1522
  468MOL0     H64578   8.996   5.905  10.587  2.7947 -1.1258 -0.4964
  468MOL0     H64579   9.065   5.882  10.436  0.6296 -1.1634  1.3031
  468MOL0     H64580   8.648   5.848  10.364  0.0938 -0.5889 -1.5513
  468MOL0     H64581   9.421   6.288  10.401  2.4908  1.3234 -0.3017
  468MOL0     H64582   9.676   6.483  10.320  2.2336  1.5110  2.6352
  468MOL0     H64583   9.661   6.496  10.491  2.5364 -0.1129 -1.2161
  468MOL0     H64584   9.638   6.336  10.433 -0.7852 -0.7596  0.5455
  469MOL0     O64585   8.675   2.789   8.877  0.0074  0.3851 -0.8259
  469MOL0     C64586   8.732   2.888   8.836  0.5171 -0.1363 -0.5705
  469MOL0     O64587   8.764   3.003   8.914  0.3730 -0.2915 -0.0329
  469MOL0     C64588   8.740   2.987   9.051  0.5224 -0.2493  0.1394
  469MOL0     C64589   8.632   3.062   9.110 -0.8508 -0.1971 -0.7500
  469MOL0     C64590   8.610   3.060   9.246 -0.6275  0.3544 -0.0994
  469MOL0     C64591   8.690   2.992   9.337 -1.0125  0.3208 -0.7675
  469MOL0     O64592   8.659   3.014   9.470  0.0396  0.5471 -0.3700
  469MOL0     C64593   8.766   3.006   9.571 -0.0266  0.3702 -0.3487
  469MOL0     C64594   8.712   2.990   9.710  0.2980 -0.9278  0.3131
  469MOL0     C64595   8.573   3.057   9.733  0.1835  0.0673 -0.0234
  469MOL0     C64596   8.523   3.053   9.874  0.0624 -0.0577 -1.3048
  469MOL0     C64597   8.394   3.128   9.878  0.4303 -0.3190 -0.1590
  469MOL0     C64598   8.326   3.101  10.015  0.1067  1.2738 -0.8078
  469MOL0     C64599   8.235   3.227  10.039  0.0326 -0.0849 -0.0991
  469MOL0     C64600   8.164   3.215  10.172  0.2880  0.0539  0.0785
  469MOL0     N64601   8.060   3.116  10.167 -0.1414 -0.0599  0.5069
  469MOL0     C64602   7.953   3.129  10.082 -0.3285  0.1375 -0.2893
  469MOL0     C64603   7.917   3.003  10.061  0.0255  0.4730 -1.0998
  469MOL0     C64604   7.804   2.950   9.970 -1.5893 -0.0123 -1.1917
  469MOL0     C64605   7.674   3.021   9.989  0.7965 -0.0408  0.3553
  469MOL0     C64606   7.570   3.013   9.876 -0.3136  0.4895  0.5198
  469MOL0     C64607   7.454   3.114   9.893 -0.9449 -0.4501 -0.3867
  469MOL0     O64608   7.501   3.245   9.872 -0.2244 -0.5764  0.1573
  469MOL0     C64609   7.462   3.332   9.968 -1.0923 -0.3586  0.8673
  469MOL0     C64610   7.534   3.330  10.093  0.6095  0.1831  0.7658
  469MOL0     C64611   7.501   3.425  10.190 -1.5382 -0.1395 -0.4079
  469MOL0     C64612   7.570   3.398  10.328 -0.0823 -0.3636  0.1546
  469MOL0     C64613   7.403   3.526  10.176  0.2497 -0.4148 -0.4531
  469MOL0     C64614   7.364   3.631  10.276  0.1827  0.8514  1.3618
  469MOL0     O64615   7.444   3.652  10.377  0.3607 -0.6830 -0.2298
  469MOL0     C64616   7.432   3.752  10.469 -0.9147 -0.6516 -0.2157
  469MOL0     C64617   7.520   3.759  10.580  0.2842  0.2471 -0.5652
  469MOL0     C64618   7.534   3.867  10.671  0.1259  0.3428  0.1115
  469MOL0     C64619   7.439   3.968  10.662  1.3278 -0.1634 -0.1209
  469MOL0     O64620   7.433   4.077  10.751 -0.8315 -0.1625  0.3568
  469MOL0     C64621   7.556   4.136  10.810 -1.1451  0.0115  0.4451
  469MOL0     C64622   7.546   4.286  10.857  0.4994  0.6331 -0.2881
  469MOL0     C64623   7.675   4.365  10.835  0.2443 -0.0226 -1.1863
  469MOL0     C64624   7.792   4.300  10.904 -0.3711  0.1013 -0.1423
  469MOL0     C64625   7.900   4.405  10.943  0.2765 -0.2247 -0.2639
  469MOL0     C64626   7.870   4.458  11.087 -0.1528 -0.4652 -0.4734
  469MOL0     C64627   7.982   4.558  11.130 -0.1176  0.2452  0.4779
  469MOL0     C64628   7.962   4.605  11.272  0.3698 -0.1866 -0.1654
  469MOL0    Cl64629   7.807   4.698  11.297 -0.5878  0.0881 -0.2377
  469MOL0     C64630   7.341   3.961  10.563  0.6392 -0.0526 -0.3617
  469MOL0     C64631   7.337   3.860  10.468 -0.2450 -0.0968  0.6587
  469MOL0     O64632   7.245   3.665  10.264 -0.1681 -0.2249  0.1472
  469MOL0     C64633   7.343   3.524  10.053  0.0768 -0.1895 -0.0863
  469MOL0     C64634   7.367   3.437   9.950  0.1679  0.4706  0.7388
  469MOL0     N64635   7.997   2.914  10.143  0.6033  0.4969  0.4207
  469MOL0     N64636   8.078   2.986  10.199 -0.4192  0.8559  0.3249
  469MOL0     C64637   8.801   2.927   9.285 -0.2898 -0.4769  0.5931
  469MOL0     C64638   8.815   2.923   9.146  0.1480 -0.0917  0.7325
  469MOL0     C64639   8.773   2.883   8.695 -1.1063 -0.0810 -0.8984
  469MOL0     C64640   8.719   2.783   8.613  0.1605 -0.2387  1.2006
  469MOL0     C64641   8.754   2.778   8.477 -0.0442 -0.4378 -0.5643
  469MOL0     C64642   8.841   2.865   8.418 -0.1028  0.2941  1.7239
  469MOL0     O64643   8.870   2.860   8.280  0.4840  0.3330 -0.2329
  469MOL0     C64644   8.776   2.790   8.200  0.3760 -0.2977 -0.5916
  469MOL0     C64645   8.762   2.847   8.061  0.3783  0.5803 -0.0282
  469MOL0     C64646   8.791   2.741   7.946 -0.9594  0.1615 -0.2741
  469MOL0     C64647   8.762   2.791   7.804  0.5729  0.5871  0.0882
  469MOL0     C64648   8.620   2.829   7.790  0.5818 -0.1024 -0.0812
  469MOL0     C64649   8.504   2.872   7.780  0.8271 -0.1479  0.8962
  469MOL0     C64650   8.897   2.963   8.493 -0.9167  0.4875 -0.1754
  469MOL0     C64651   8.853   2.985   8.630  0.5315  0.3560  0.8232
  469MOL0     C64652   8.912   3.099   8.700  0.4681 -1.2291  0.4755
  469MOL0     H64653   8.576   3.135   9.052 -1.8253  1.1288  1.7346
  469MOL0     H64654   8.532   3.126   9.282 -1.6441  0.2365 -1.9520
  469MOL0     H64655   8.826   3.096   9.563 -0.2557  0.3955 -2.1561
  469MOL0     H64656   8.835   2.922   9.558  0.9860  1.0559  0.4700
  469MOL0     H64657   8.699   2.885   9.737 -1.1339 -0.9073 -0.1665
  469MOL0     H64658   8.786   3.045   9.770  1.4867 -0.3875 -1.5688
  469MOL0     H64659   8.570   3.163   9.706  1.4379 -0.1220 -1.0530
  469MOL0     H64660   8.505   2.998   9.671 -2.2377  1.1328  1.4790
  469MOL0     H64661   8.512   2.958   9.927 -0.1687  2.0317  2.8081
  469MOL0     H64662   8.582   3.124   9.932 -0.1157  0.2653 -1.5139
  469MOL0     H64663   8.327   3.087   9.803  2.0378 -2.5335 -0.5015
  469MOL0     H64664   8.420   3.232   9.858  1.7362 -0.6516 -0.3198
  469MOL0     H64665   8.268   3.008  10.008 -1.5662  1.9671  2.0657
  469MOL0     H64666   8.394   3.082  10.098  1.9519  0.0102 -2.5268
  469MOL0     H64667   8.173   3.253   9.953  0.7803 -0.3931 -0.7371
  469MOL0     H64668   8.296   3.317  10.053 -3.0523  2.0660  0.7658
  469MOL0     H64669   8.238   3.191  10.248  0.4760  2.9615  0.9314
  469MOL0     H64670   8.114   3.309  10.199 -1.0617 -1.0584  1.6788
  469MOL0     H64671   7.920   3.223  10.038  0.0030  1.7354  2.6472
  469MOL0     H64672   7.791   2.844   9.995 -1.1571  0.2226  0.0793
  469MOL0     H64673   7.835   2.935   9.866 -4.2577 -2.0676 -1.8193
  469MOL0     H64674   7.635   2.979  10.082 -1.3372  0.5515 -0.2109
  469MOL0     H64675   7.706   3.126   9.996 -1.4340  0.6559  0.9321
  469MOL0     H64676   7.611   3.026   9.775 -0.8525  1.7570  0.4499
  469MOL0     H64677   7.532   2.910   9.879  3.1239 -0.9093  0.4306
  469MOL0     H64678   7.376   3.089   9.821 -0.9290 -1.8528  0.0590
  469MOL0     H64679   7.428   3.093   9.997  0.6760 -5.7038 -0.7545
  469MOL0     H64680   7.620   3.265  10.109  0.6487  0.0342  0.0094
  469MOL0     H64681   7.488   3.391  10.400 -2.4382 -3.1325 -2.5292
  469MOL0     H64682   7.643   3.473  10.361 -0.1818 -0.1186 -0.1773
  469MOL0     H64683   7.622   3.302  10.325 -1.1079 -0.9450  0.6509
  469MOL0     H64684   7.581   3.673  10.605  0.9060  1.0182  0.6252
  469MOL0     H64685   7.605   3.851  10.752  0.0095 -0.3184  0.0830
  469MOL0     H64686   7.598   4.077  10.892 -1.4367 -1.1127 -0.1964
  469MOL0     H64687   7.627   4.140  10.727 -2.1396 -4.7504 -0.9638
  469MOL0     H64688   7.472   4.336  10.793 -1.3238  1.1135  2.0738
  469MOL0     H64689   7.519   4.284  10.963 -0.6330 -4.2960 -0.4561
  469MOL0     H64690   7.659   4.453  10.898  0.4121 -0.5175 -0.4397
  469MOL0     H64691   7.694   4.389  10.730  3.0293 -0.9359 -0.9558
  469MOL0     H64692   7.845   4.233  10.835 -0.6560  2.3626 -2.7381
  469MOL0     H64693   7.765   4.235  10.987 -1.0791 -1.0014 -1.2079
  469MOL0     H64694   8.001   4.362  10.947  0.6377  0.6809  0.7325
  469MOL0     H64695   7.918   4.487  10.872 -0.4786  0.1999  0.0243
  469MOL0     H64696   7.851   4.372  11.152 -0.3588  0.7211  1.0842
  469MOL0     H64697   7.776   4.515  11.086  1.2340  1.9808 -0.5721
  469MOL0     H64698   7.984   4.647  11.066 -1.6444  0.5925  0.8971
  469MOL0     H64699   8.080   4.513  11.108 -1.0616 -0.8933 -1.7668
  469MOL0     H64700   8.047   4.668  11.302 -2.2922  3.3725  0.6070
  469MOL0     H64701   7.966   4.524  11.345 -1.5762 -0.5006 -0.3653
  469MOL0     H64702   7.259   4.033  10.561 -1.6775 -2.5656 -1.5477
  469MOL0     H64703   7.267   3.854  10.385  2.8880  1.5779 -2.3110
  469MOL0     H64704   7.274   3.605  10.028 -0.8257  0.1639  3.1007
  469MOL0     H64705   7.339   3.460   9.848  1.3750 -0.8883  0.0791
  469MOL0     H64706   8.862   2.875   9.357  1.3458  0.7546  0.1514
  469MOL0     H64707   8.903   2.871   9.108  1.3419  2.2649  0.0706
  469MOL0     H64708   8.646   2.706   8.635 -0.9552 -1.0000 -3.8519
  469MOL0     H64709   8.706   2.691   8.434  1.7025 -3.2473  2.6562
  469MOL0     H64710   8.821   2.691   8.192  5.1030  1.7307 -2.9454
  469MOL0     H64711   8.673   2.795   8.236  0.5707  2.0181 -0.2016
  469MOL0     H64712   8.843   2.920   8.055  0.6260  0.3160  0.0542
  469MOL0     H64713   8.672   2.907   8.050 -0.5423 -1.1783 -3.1647
  469MOL0     H64714   8.889   2.691   7.951 -1.6648 -1.3046 -0.7169
  469MOL0     H64715   8.726   2.656   7.967  0.5189 -1.6583 -2.5929
  469MOL0     H64716   8.785   2.719   7.725  4.2070  0.7236  0.8642
  469MOL0     H64717   8.837   2.868   7.782  0.1013  1.2597  0.7612
  469MOL0     H64718   8.405   2.913   7.785  1.3400  1.1881  0.4102
  469MOL0     H64719   8.968   3.034   8.451  0.4626  0.2161  1.5989
  469MOL0     H64720   8.841   3.170   8.744 -1.6308 -1.5191 -2.2072
  469MOL0     H64721   8.973   3.048   8.775 -0.1078 -4.3617 -1.0326
  469MOL0     H64722   8.977   3.151   8.629 -1.4408  0.0712 -0.3796
  470MOL0     O64723   3.426   3.752   2.524 -0.4787 -0.4190  1.2689
  470MOL0     C64724   3.345   3.765   2.438  0.9356 -0.3045 -0.3319
  470MOL0     O64725   3.220   3.824   2.449 -0.0222 -0.1006 -0.3025
  470MOL0     C64726   3.203   3.935   2.531  0.8320  0.5255 -0.1016
  470MOL0     C64727   3.080   3.936   2.597  0.1617 -0.2492  0.6295
  470MOL0     C64728   3.042   4.043   2.674  0.0398  0.3524 -0.5841
  470MOL0     C64729   3.138   4.146   2.701  0.6890 -0.0682  0.2739
  470MOL0     O64730   3.093   4.247   2.781 -0.2276 -0.0651  0.1408
  470MOL0     C64731   3.192   4.314   2.857 -0.0078  0.2192  1.7427
  470MOL0     C64732   3.114   4.414   2.941  0.1750  0.4430 -0.4910
  470MOL0     C64733   3.031   4.352   3.050 -0.4079 -0.1381 -1.5384
  470MOL0     C64734   3.094   4.358   3.195 -0.2386  0.1606  0.0590
  470MOL0     C64735   3.060   4.250   3.288  0.6055  0.2116 -0.0553
  470MOL0     C64736   3.152   4.125   3.304 -0.1988 -0.4790 -0.1024
  470MOL0     C64737   3.129   4.016   3.417 -0.6256  0.3293  0.1695
  470MOL0     C64738   3.227   3.897   3.403 -0.4569  0.5740  0.2021
  470MOL0     N64739   3.364   3.926   3.342  0.8073 -0.2633 -0.2724
  470MOL0     C64740   3.394   3.888   3.217 -0.1769 -0.1926  0.6321
  470MOL0     C64741   3.521   3.938   3.186  1.0981 -0.0021 -1.0984
  470MOL0     C64742   3.586   3.925   3.052 -0.7364  0.1380  0.8560
  470MOL0     C64743   3.559   4.041   2.963  0.9652 -0.6994 -0.5092
  470MOL0     C64744   3.650   4.040   2.837 -0.0302 -0.6173  0.2540
  470MOL0     C64745   3.623   3.921   2.741  0.2273  0.4903 -0.7563
  470MOL0     O64746   3.663   3.950   2.611  0.7243  0.3264  0.5803
  470MOL0     C64747   3.728   3.860   2.529 -0.3800 -1.1016 -0.4629
  470MOL0     C64748   3.754   3.733   2.568 -0.0786  0.0946 -0.3201
  470MOL0     C64749   3.824   3.638   2.491 -0.7293 -0.3329  0.2452
  470MOL0     C64750   3.858   3.507   2.559 -0.6738 -0.6371  0.9158
  470MOL0     C64751   3.859   3.675   2.357 -0.9657  0.2821 -0.9014
  470MOL0     C64752   3.932   3.587   2.266 -0.2247  0.6775 -0.1788
  470MOL0     O64753   3.978   3.646   2.149  0.1632  0.4017  0.4947
  470MOL0     C64754   4.017   3.569   2.040  0.9724 -0.4079 -0.1087
  470MOL0     C64755   4.139   3.512   2.036 -0.2127  0.7878 -0.4517
  470MOL0     C64756   4.175   3.426   1.936 -0.2778  0.4726  0.2052
  470MOL0     C64757   4.089   3.420   1.818 -1.3388  1.0717 -0.1209
  470MOL0     O64758   4.113   3.345   1.709 -0.3581  0.0592 -0.1107
  470MOL0     C64759   4.242   3.290   1.695 -0.2253  0.1055  0.8589
  470MOL0     C64760   4.236   3.218   1.558  0.1421  0.2107  0.6729
  470MOL0     C64761   4.222   3.308   1.435  0.1673 -0.4033 -0.1614
  470MOL0     C64762   4.193   3.222   1.312 -1.2995  0.1558 -0.0858
  470MOL0     C64763   4.152   3.319   1.197 -0.5758 -0.9866  0.2832
  470MOL0     C64764   4.212   3.277   1.063 -0.4145  0.2715  0.1899
  470MOL0     C64765   4.148   3.369   0.964 -0.5341  0.5422  0.9814
  470MOL0     C64766   4.148   3.305   0.817 -0.4577 -1.0992 -0.0040
  470MOL0    Cl64767   4.300   3.332   0.738 -0.1024  0.0934 -0.1411
  470MOL0     C64768   3.967   3.482   1.819  0.3637  0.3852 -0.8866
  470MOL0     C64769   3.930   3.553   1.932  0.7802  0.0194  0.7946
  470MOL0     O64770   3.921   3.465   2.285  0.5772 -0.5513  0.4152
  470MOL0     C64771   3.823   3.802   2.314  0.4021  1.1399  0.6315
  470MOL0     C64772   3.761   3.891   2.393  0.2371 -0.0795 -0.5317
  470MOL0     N64773   3.564   3.992   3.310  0.8793  0.1012  0.3129
  470MOL0     N64774   3.474   3.985   3.404 -0.5767 -0.1541 -0.6587
  470MOL0     C64775   3.266   4.139   2.639  0.1769  0.3097 -0.8557
  470MOL0     C64776   3.302   4.039   2.544  0.7684 -0.2141 -0.0556
  470MOL0     C64777   3.367   3.700   2.300 -0.2019 -0.0708  0.3905
  470MOL0     C64778   3.495   3.677   2.260  0.0519 -0.3974  0.5411
  470MOL0     C64779   3.535   3.626   2.141  0.9698  0.2525 -0.0081
  470MOL0     C64780   3.437   3.587   2.048  0.1367 -0.7935 -0.3840
  470MOL0     O64781   3.486   3.544   1.927  0.2666 -0.7244 -0.5290
  470MOL0     C64782   3.412   3.472   1.836  0.3155  0.2915 -0.0559
  470MOL0     C64783   3.465   3.456   1.694  1.0143  0.2199 -0.1362
  470MOL0     C64784   3.495   3.597   1.638  0.0265  0.5848  0.1252
  470MOL0     C64785   3.558   3.596   1.494  0.0291 -0.2918  0.7011
  470MOL0     C64786   3.686   3.524   1.478  0.2446 -0.8429 -0.7803
  470MOL0     C64787   3.799   3.488   1.438 -0.1311 -0.3545  0.0866
  470MOL0     C64788   3.301   3.597   2.084 -0.4453  0.2794  0.7213
  470MOL0     C64789   3.266   3.657   2.207  0.3947  1.0291  0.5758
  470MOL0     C64790   3.121   3.660   2.240  0.3800 -0.4807  0.5074
  470MOL0     H64791   3.010   3.857   2.573  0.7739 -0.5772 -0.1095
  470MOL0     H64792   2.938   4.043   2.705 -0.2080 -3.0382 -1.0434
  470MOL0     H64793   3.262   4.381   2.806 -1.0710  0.0340 -0.0761
  470MOL0     H64794   3.247   4.243   2.919  0.4394  0.3926  1.5464
  470MOL0     H64795   3.187   4.486   2.980 -0.5285  0.4979  0.7839
  470MOL0     H64796   3.044   4.468   2.878 -0.0574 -0.6592 -1.2052
  470MOL0     H64797   2.928   4.386   3.037  0.0406  1.0294 -2.2441
  470MOL0     H64798   3.015   4.248   3.021 -1.6957  0.5736 -3.6189
  470MOL0     H64799   3.199   4.385   3.182 -0.0823 -0.8847 -1.0899
  470MOL0     H64800   3.060   4.450   3.244  1.4190  0.0740  1.4839
  470MOL0     H64801   2.953   4.228   3.278  0.5880  0.6371 -0.9833
  470MOL0     H64802   3.060   4.294   3.388 -1.3331  0.0977  0.0473
  470MOL0     H64803   3.177   4.079   3.208 -0.7862 -3.4546  1.0623
  470MOL0     H64804   3.245   4.171   3.339  0.3251 -1.8257  0.3411
  470MOL0     H64805   3.024   3.985   3.409 -1.4230  3.2756 -4.6541
  470MOL0     H64806   3.152   4.053   3.517 -0.1548 -0.4779  0.3682
  470MOL0     H64807   3.249   3.846   3.498  0.4476  0.2378 -0.1752
  470MOL0     H64808   3.175   3.823   3.342 -1.4453  0.5975  0.9848
  470MOL0     H64809   3.322   3.852   3.144  0.2877  0.1326  0.0034
  470MOL0     H64810   3.561   3.830   3.004 -0.6823  0.7338 -0.3868
  470MOL0     H64811   3.692   3.922   3.078 -0.9087 -0.3989  1.5225
  470MOL0     H64812   3.452   4.044   2.938  0.5893 -1.4652  0.9155
  470MOL0     H64813   3.589   4.128   3.022  3.3271 -2.3596  0.8981
  470MOL0     H64814   3.622   4.124   2.773 -1.8116 -0.0088  1.7376
  470MOL0     H64815   3.753   4.055   2.867 -0.4271  1.6694  0.6340
  470MOL0     H64816   3.671   3.842   2.799  1.9036  1.6322 -0.5245
  470MOL0     H64817   3.516   3.900   2.729  0.0110  0.1478  1.3545
  470MOL0     H64818   3.727   3.697   2.667  0.2911  1.4326  0.2856
  470MOL0     H64819   3.963   3.479   2.545 -0.8698 -0.4972 -1.1334
  470MOL0     H64820   3.784   3.433   2.526  1.3964 -2.5962  0.4489
  470MOL0     H64821   3.848   3.512   2.668  2.2150 -1.7253  1.3056
  470MOL0     H64822   4.204   3.544   2.116  0.9985  0.7142 -1.3771
  470MOL0     H64823   4.268   3.369   1.939  0.7043  1.7001 -2.9903
  470MOL0     H64824   4.306   3.379   1.695  1.8468 -1.2377 -1.9971
  470MOL0     H64825   4.272   3.222   1.775  1.0762  1.1887  1.3244
  470MOL0     H64826   4.322   3.151   1.553  0.1619  0.3392 -1.3316
  470MOL0     H64827   4.146   3.156   1.563 -1.0141  1.8708  4.4101
  470MOL0     H64828   4.317   3.362   1.422 -0.2491  0.9198  1.7247
  470MOL0     H64829   4.151   3.391   1.446 -0.1154 -0.6461 -0.1654
  470MOL0     H64830   4.116   3.146   1.328 -1.8690  0.3277 -1.8380
  470MOL0     H64831   4.284   3.171   1.279 -2.0907 -0.0594 -2.0691
  470MOL0     H64832   4.043   3.327   1.192 -0.4214  0.6059 -1.4204
  470MOL0     H64833   4.182   3.421   1.222 -1.8288 -0.8037  1.1663
  470MOL0     H64834   4.176   3.175   1.050 -1.3065  0.7096 -0.9227
  470MOL0     H64835   4.321   3.279   1.056 -0.3390 -1.2531  0.6573
  470MOL0     H64836   4.188   3.471   0.960  1.9656 -0.4065 -0.8226
  470MOL0     H64837   4.043   3.394   0.981 -0.3039  2.7555 -0.4696
  470MOL0     H64838   4.072   3.350   0.752  1.3039  0.3731 -1.1557
  470MOL0     H64839   4.121   3.199   0.821 -1.4410 -0.8398  0.9542
  470MOL0     H64840   3.904   3.451   1.736 -0.7009 -1.8748  0.6470
  470MOL0     H64841   3.833   3.602   1.932  0.3596 -0.6022 -2.2549
  470MOL0     H64842   3.836   3.825   2.209 -0.0508  2.6053  0.8662
  470MOL0     H64843   3.740   3.985   2.344  4.1456  0.7400 -0.9306
  470MOL0     H64844   3.330   4.226   2.649  0.5277 -0.1323  1.1459
  470MOL0     H64845   3.401   4.035   2.499  1.3398  2.2768  0.7944
  470MOL0     H64846   3.577   3.702   2.326  1.1598 -1.4052 -0.4082
  470MOL0     H64847   3.634   3.609   2.101 -0.5040 -2.3019 -3.0600
  470MOL0     H64848   3.395   3.372   1.876 -0.0144 -0.2504 -1.4921
  470MOL0     H64849   3.324   3.536   1.829  1.4490  1.7996 -1.3493
  470MOL0     H64850   3.388   3.410   1.631 -0.6717  0.9295  1.3205
  470MOL0     H64851   3.542   3.379   1.690  0.2305 -0.6367  0.9180
  470MOL0     H64852   3.403   3.656   1.638  0.4619  1.5100  3.6855
  470MOL0     H64853   3.557   3.646   1.714 -0.2195 -0.8100  1.2794
  470MOL0     H64854   3.585   3.699   1.468  2.5447 -1.0720 -0.0517
  470MOL0     H64855   3.489   3.554   1.421 -1.3607  1.9959  0.5983
  470MOL0     H64856   3.892   3.450   1.402 -0.0798  1.4465 -1.8679
  470MOL0     H64857   3.215   3.550   2.037 -1.2324  0.1141  2.2573
  470MOL0     H64858   3.072   3.757   2.230 -0.1604 -0.6868  1.0254
  470MOL0     H64859   3.060   3.594   2.177  1.0592  0.3658 -1.0739
  470MOL0     H64860   3.116   3.624   2.344  2.3541 -0.8059  0.5261
  471MOL0     O64861  11.337   6.952   0.128  0.1804  0.0648  0.1927
  471MOL0     C64862  11.383   6.854   0.194 -0.4337  0.4377  0.2422
  471MOL0     O64863  11.515   6.822   0.196 -0.3369  0.6167 -0.3597
  471MOL0     C64864  11.600   6.881   0.109  0.4943 -0.7156  0.2497
  471MOL0     C64865  11.702   6.976   0.145  0.0399  0.1613 -0.8312
  471MOL0     C64866  11.794   7.020   0.047 -0.4600  0.4588 -1.1419
  471MOL0     C64867  11.798   6.965  -0.082  0.3557 -1.1559  0.4469
  471MOL0     O64868  11.878   7.014  -0.181 -0.2394  0.0945  0.4407
  471MOL0     C64869  11.948   6.910  -0.252  0.5511  0.0800 -0.3896
  471MOL0     C64870  12.096   6.919  -0.214 -0.1368 -0.3972  0.2022
  471MOL0     C64871  12.182   6.817  -0.294 -0.5423 -0.1296  0.2266
  471MOL0     C64872  12.332   6.844  -0.307 -0.2007  1.2753  0.3102
  471MOL0     C64873  12.418   6.716  -0.349  0.6794  0.0196 -0.0905
  471MOL0     C64874  12.387   6.643  -0.478  0.1818  0.1856 -0.3796
  471MOL0     C64875  12.397   6.719  -0.608 -0.6173 -0.1039 -0.2422
  471MOL0     C64876  12.547   6.749  -0.646 -0.6475  0.2592  0.4045
  471MOL0     N64877  12.561   6.808  -0.773  0.7670 -0.0575 -0.5866
  471MOL0     C64878  12.580   6.739  -0.887 -0.1439  0.0805  0.6492
  471MOL0     C64879  12.583   6.837  -0.981  0.1496  0.3266 -0.2995
  471MOL0     C64880  12.611   6.817  -1.135  0.1144 -0.5865 -0.3092
  471MOL0     C64881  12.752   6.863  -1.161 -0.6177 -0.0970 -0.5349
  471MOL0     C64882  12.787   6.831  -1.302 -0.8512 -0.1030 -0.0083
  471MOL0     C64883  12.931   6.821  -1.327  0.1287 -0.0950 -0.1976
  471MOL0     O64884  12.949   6.742  -1.460  1.0339 -0.3575  0.2332
  471MOL0     C64885  13.066   6.758  -1.529  0.2413  0.1642 -0.0312
  471MOL0     C64886  13.047   6.763  -1.667 -0.9066  0.6687 -0.7309
  471MOL0     C64887  13.150   6.798  -1.752 -0.2380  0.6247 -0.8062
  471MOL0     C64888  13.124   6.814  -1.893  0.0218 -0.0746  0.0311
  471MOL0     C64889  13.281   6.821  -1.694  0.5589  0.4371 -0.5927
  471MOL0     C64890  13.412   6.850  -1.769  0.0222 -0.0610 -1.0487
  471MOL0     O64891  13.530   6.857  -1.695 -0.0048  1.1068  0.0028
  471MOL0     C64892  13.633   6.929  -1.748  0.6720 -0.8442  0.9484
  471MOL0     C64893  13.701   6.889  -1.861 -0.2486 -0.7447 -0.4351
  471MOL0     C64894  13.817   6.952  -1.903  0.0116 -0.0007 -0.8584
  471MOL0     C64895  13.881   7.058  -1.840  0.1507 -0.4586 -0.0172
  471MOL0     O64896  13.989   7.125  -1.892 -0.4707  0.7187  0.5530
  471MOL0     C64897  14.046   7.228  -1.813 -0.4858  0.5488  0.6333
  471MOL0     C64898  14.198   7.232  -1.861  0.4557 -0.2791 -0.4689
  471MOL0     C64899  14.264   7.101  -1.833  0.2476 -0.1800  1.5472
  471MOL0     C64900  14.419   7.107  -1.804  0.4030  0.4195 -0.4580
  471MOL0     C64901  14.494   7.149  -1.927 -0.0914  0.3129  0.7283
  471MOL0     C64902  14.626   7.208  -1.885  0.0300  0.3887  0.7401
  471MOL0     C64903  14.730   7.233  -1.990  0.0566 -1.0782  0.4086
  471MOL0     C64904  14.780   7.382  -1.997 -0.1320 -0.2353  0.1919
  471MOL0    Cl64905  14.864   7.409  -1.840 -0.3883  0.6531  0.3209
  471MOL0     C64906  13.801   7.114  -1.730  0.2875  0.0920  0.0338
  471MOL0     C64907  13.676   7.047  -1.690 -0.7829  0.3654  0.2670
  471MOL0     O64908  13.406   6.850  -1.892 -0.0853  0.1478 -0.4126
  471MOL0     C64909  13.291   6.806  -1.552  0.4424 -0.2875 -0.0695
  471MOL0     C64910  13.187   6.785  -1.465 -0.0742  0.3596  0.0387
  471MOL0     N64911  12.561   6.959  -0.929  0.0790  0.1878 -0.5014
  471MOL0     N64912  12.537   6.944  -0.798  0.6938  0.3967  0.2081
  471MOL0     C64913  11.689   6.873  -0.120 -0.1618 -0.2564  0.3254
  471MOL0     C64914  11.592   6.842  -0.025 -0.6918 -0.0765  0.2400
  471MOL0     C64915  11.289   6.785   0.295  0.0123 -0.9683 -0.7547
  471MOL0     C64916  11.345   6.707   0.389  0.4135 -1.0953  0.2667
  471MOL0     C64917  11.274   6.630   0.482  0.7034  0.1273  0.6557
  471MOL0     C64918  11.131   6.634   0.478  0.6917  0.2315 -0.6474
  471MOL0     O64919  11.049   6.563   0.555  0.3588  0.3076 -0.9444
  471MOL0     C64920  11.068   6.423   0.543 -0.1767 -0.1789 -0.7739
  471MOL0     C64921  10.982   6.338   0.643  0.7560 -0.1034  0.3018
  471MOL0     C64922  10.835   6.377   0.636  0.4975  1.1388 -0.2424
  471MOL0     C64923  10.744   6.250   0.675 -0.2663 -0.5320 -0.3746
  471MOL0     C64924  10.608   6.295   0.684  0.3812  0.7308  0.0429
  471MOL0     C64925  10.482   6.307   0.691 -0.6060 -0.0429 -0.1666
  471MOL0     C64926  11.075   6.719   0.389 -0.7387 -0.3549 -0.5066
  471MOL0     C64927  11.147   6.803   0.300 -0.2523  0.4117 -0.2035
  471MOL0     C64928  11.072   6.875   0.203  0.2760  0.4028  0.8074
  471MOL0     H64929  11.709   7.006   0.249 -2.7840  3.1306 -1.3374
  471MOL0     H64930  11.877   7.087   0.067 -0.6911  1.0104 -1.9802
  471MOL0     H64931  11.942   6.919  -0.361  1.2427 -2.1183 -0.6708
  471MOL0     H64932  11.908   6.811  -0.227  2.3981 -0.8328 -0.8438
  471MOL0     H64933  12.120   7.025  -0.229 -3.0215  0.1579 -1.2387
  471MOL0     H64934  12.100   6.901  -0.106 -1.9004 -2.1900  0.0319
  471MOL0     H64935  12.176   6.720  -0.244 -0.6029 -0.8597 -1.1403
  471MOL0     H64936  12.146   6.803  -0.396  2.5771  1.4904 -1.2441
  471MOL0     H64937  12.340   6.929  -0.376 -0.4046  1.7469  0.8573
  471MOL0     H64938  12.366   6.880  -0.210  0.7583 -1.7004  1.1639
  471MOL0     H64939  12.406   6.639  -0.272 -1.0084 -0.6892 -0.9883
  471MOL0     H64940  12.520   6.754  -0.348  2.9897 -5.3657 -0.1284
  471MOL0     H64941  12.441   6.550  -0.496 -1.3183 -0.5391 -1.3421
  471MOL0     H64942  12.284   6.607  -0.467  0.4603 -0.0044  2.0915
  471MOL0     H64943  12.348   6.816  -0.596  0.4031  0.1107  3.3384
  471MOL0     H64944  12.352   6.657  -0.686  1.0287  1.4846 -2.5847
  471MOL0     H64945  12.593   6.816  -0.573 -0.2724 -0.3053  0.6972
  471MOL0     H64946  12.605   6.656  -0.639  1.0821  1.3118  0.6858
  471MOL0     H64947  12.588   6.632  -0.901 -3.9088 -0.1953 -0.4993
  471MOL0     H64948  12.536   6.878  -1.187 -0.4819  1.3062  2.5601
  471MOL0     H64949  12.579   6.717  -1.166 -3.3252 -0.1033  1.1822
  471MOL0     H64950  12.763   6.969  -1.134  0.8006 -1.3253  4.7505
  471MOL0     H64951  12.818   6.805  -1.096  1.2326  2.4884  0.0757
  471MOL0     H64952  12.737   6.741  -1.338  1.3717 -2.5627  2.5900
  471MOL0     H64953  12.753   6.921  -1.353  0.1767 -0.1266 -0.7558
  471MOL0     H64954  12.975   6.921  -1.341 -1.3155  0.3432 -1.9413
  471MOL0     H64955  12.988   6.772  -1.248 -1.2226  0.0797  0.9222
  471MOL0     H64956  12.943   6.761  -1.699 -1.2656  0.8319  0.3706
  471MOL0     H64957  13.129   6.727  -1.959 -0.1760 -0.7232  0.8611
  471MOL0     H64958  13.181   6.901  -1.927  1.8427  0.2800  3.5140
  471MOL0     H64959  13.016   6.826  -1.891 -0.2327 -2.0969  1.7039
  471MOL0     H64960  13.663   6.799  -1.909  0.0815  0.1917 -2.6025
  471MOL0     H64961  13.878   6.916  -1.985  1.0506  2.1059 -1.0902
  471MOL0     H64962  13.993   7.322  -1.829 -2.7039 -1.1111 -3.2716
  471MOL0     H64963  14.051   7.208  -1.706 -2.4475 -1.9506  0.3505
  471MOL0     H64964  14.191   7.263  -1.965 -2.3835  1.0848  0.0209
  471MOL0     H64965  14.245   7.306  -1.796 -0.2695 -0.2259  0.0121
  471MOL0     H64966  14.241   7.032  -1.915  0.9862 -0.6609  1.7308
  471MOL0     H64967  14.220   7.045  -1.751 -0.4873 -5.8397 -2.1833
  471MOL0     H64968  14.455   7.008  -1.774  1.4001  1.1969  1.0310
  471MOL0     H64969  14.446   7.181  -1.728 -1.0637 -1.4423  2.0433
  471MOL0     H64970  14.510   7.055  -1.980  1.3550  0.9444 -0.0011
  471MOL0     H64971  14.433   7.214  -1.990  1.0136  0.1986 -0.5076
  471MOL0     H64972  14.671   7.127  -1.827  3.1825  0.3395 -1.4858
  471MOL0     H64973  14.620   7.299  -1.825  1.9069 -0.9195  3.0996
  471MOL0     H64974  14.681   7.207  -2.084 -0.1940 -0.6959  0.4263
  471MOL0     H64975  14.811   7.161  -1.978  3.7697  2.6632  0.2733
  471MOL0     H64976  14.699   7.454  -2.013 -1.0264 -1.0491  0.9086
  471MOL0     H64977  14.856   7.389  -2.076  1.2094 -1.5994  1.2845
  471MOL0     H64978  13.818   7.205  -1.674  0.3512  0.0368  0.1037
  471MOL0     H64979  13.619   7.079  -1.603  0.7130 -2.7303  2.6103
  471MOL0     H64980  13.387   6.830  -1.509  0.8808  1.7014 -2.0037
  471MOL0     H64981  13.197   6.791  -1.357 -2.6130  1.7856  0.2643
  471MOL0     H64982  11.686   6.829  -0.219  2.3948 -1.4920  0.7136
  471MOL0     H64983  11.503   6.785  -0.051 -0.0239 -0.7309 -0.6378
  471MOL0     H64984  11.452   6.686   0.387  0.4907 -0.8499 -2.4195
  471MOL0     H64985  11.318   6.563   0.555 -0.0618 -1.9794 -0.6974
  471MOL0     H64986  11.039   6.389   0.444 -2.3314 -0.6310 -0.0518
  471MOL0     H64987  11.175   6.404   0.558  0.2168  1.3356 -1.4719
  471MOL0     H64988  11.023   6.357   0.743  0.2723 -4.6738  1.6221
  471MOL0     H64989  11.004   6.235   0.613 -2.6510 -1.1677  0.9843
  471MOL0     H64990  10.809   6.452   0.711 -2.5906 -1.3914  1.4375
  471MOL0     H64991  10.805   6.417   0.539 -1.8292 -0.4170 -0.2349
  471MOL0     H64992  10.774   6.214   0.774  0.3245  0.5805 -0.1366
  471MOL0     H64993  10.741   6.169   0.602 -1.1478 -3.5019  2.6537
  471MOL0     H64994  10.377   6.323   0.697 -0.1095  3.2389  3.5108
  471MOL0     H64995  10.967   6.726   0.390 -0.7911  1.6031  4.2202
  471MOL0     H64996  11.082   6.827   0.105 -2.9792  0.9507  0.0904
  471MOL0     H64997  10.966   6.871   0.227  0.3244  0.5781  1.0537
  471MOL0     H64998  11.096   6.981   0.196  1.9375  0.1162  1.5362
  472MOL0     O64999   7.167   2.610   9.547  0.1404 -0.9122 -0.2117
  472MOL0     C65000   7.258   2.685   9.583  0.3495  0.6651 -0.7696
  472MOL0     O65001   7.386   2.667   9.546  0.1127  0.4356  0.0634
  472MOL0     C65002   7.456   2.548   9.541 -0.4958  0.2698  0.1585
  472MOL0     C65003   7.410   2.413   9.557  0.1207 -0.4130 -0.0965
  472MOL0     C65004   7.505   2.308   9.567 -0.0150 -0.8857  0.4504
  472MOL0     C65005   7.639   2.325   9.529  0.7719  0.6425 -0.4882
  472MOL0     O65006   7.730   2.222   9.542  0.1269  0.5707 -0.4040
  472MOL0     C65007   7.728   2.136   9.429  0.4580  0.5639 -0.7460
  472MOL0     C65008   7.647   2.008   9.463  0.2539 -0.9401 -0.1528
  472MOL0     C65009   7.703   1.881   9.389  0.0179 -1.2159  0.0399
  472MOL0     C65010   7.691   1.892   9.237  0.8275  0.0658 -0.2099
  472MOL0     C65011   7.783   1.798   9.162  0.4552  0.3959  0.5765
  472MOL0     C65012   7.749   1.658   9.200  0.3907 -0.6085 -0.7783
  472MOL0     C65013   7.832   1.564   9.121 -0.6046  0.6855 -0.4963
  472MOL0     C65014   7.839   1.418   9.176  0.1945  0.3255 -0.7461
  472MOL0     N65015   7.859   1.330   9.065 -0.1609  0.7335  0.1618
  472MOL0     C65016   7.754   1.268   9.005 -0.4179  0.5102  0.2440
  472MOL0     C65017   7.813   1.168   8.932 -0.3575 -0.2474 -0.4824
  472MOL0     C65018   7.765   1.054   8.850 -0.0886  0.3381 -0.2182
  472MOL0     C65019   7.854   1.010   8.729 -0.2351 -0.3867 -0.1231
  472MOL0     C65020   7.871   1.107   8.613 -1.1952 -0.8330  0.3788
  472MOL0     C65021   7.740   1.154   8.551  0.5424  0.3974 -0.2452
  472MOL0     O65022   7.665   1.062   8.491 -0.4694  0.0194  0.9006
  472MOL0     C65023   7.680   1.043   8.352  0.5836  0.0382  0.0768
  472MOL0     C65024   7.603   0.940   8.306 -0.5991  0.0602 -0.4635
  472MOL0     C65025   7.611   0.894   8.169  0.1037 -0.0904  1.0752
  472MOL0     C65026   7.547   0.764   8.135  0.5254 -0.2586 -0.7385
  472MOL0     C65027   7.699   0.962   8.073  0.1364  0.7935  0.0949
  472MOL0     C65028   7.714   0.934   7.938 -0.2973 -0.4791 -0.0456
  472MOL0     O65029   7.762   0.811   7.909 -0.0205  0.7531  1.0617
  472MOL0     C65030   7.721   0.744   7.797 -0.3701  0.3530 -0.2591
  472MOL0     C65031   7.616   0.776   7.712 -0.6907  0.0061 -0.4224
  472MOL0     C65032   7.589   0.724   7.582 -0.7091  0.5937  0.2104
  472MOL0     C65033   7.672   0.611   7.550 -0.4461  0.3317  0.3692
  472MOL0     O65034   7.667   0.575   7.420  0.0770 -0.5384  1.2418
  472MOL0     C65035   7.763   0.486   7.366 -0.2998 -0.5906 -0.1012
  472MOL0     C65036   7.760   0.502   7.209 -0.1354  0.3267 -0.5873
  472MOL0     C65037   7.886   0.426   7.154  0.2822 -0.1233 -0.2949
  472MOL0     C65038   7.877   0.270   7.160 -0.6098 -0.3990 -0.6221
  472MOL0     C65039   8.014   0.202   7.099 -0.6968 -0.4158 -0.4696
  472MOL0     C65040   7.985   0.043   7.101 -0.1703 -1.5193 -0.2579
  472MOL0     C65041   8.113  -0.026   7.089 -1.2265 -0.4800  0.1185
  472MOL0     C65042   8.110  -0.174   7.048 -0.0042  0.1240  0.5616
  472MOL0    Cl65043   8.282  -0.222   7.066  0.0611 -0.4105  0.3527
  472MOL0     C65044   7.759   0.561   7.644  0.7907 -0.9285 -1.1060
  472MOL0     C65045   7.793   0.631   7.759  0.0652  0.1406 -0.0432
  472MOL0     O65046   7.691   1.020   7.856 -0.1781 -0.3587 -0.7244
  472MOL0     C65047   7.767   1.071   8.126 -0.4385 -0.2642  0.2864
  472MOL0     C65048   7.761   1.108   8.261 -0.2334  0.2435 -0.4811
  472MOL0     N65049   7.951   1.187   8.944  0.5479 -0.5558  0.0349
  472MOL0     N65050   7.982   1.289   9.022  0.2732  1.1716  0.1860
  472MOL0     C65051   7.688   2.456   9.514  0.5148  0.0150  0.4420
  472MOL0     C65052   7.599   2.565   9.530  0.6886 -0.5228  0.2587
  472MOL0     C65053   7.223   2.815   9.652 -0.6458  0.5037 -0.1076
  472MOL0     C65054   7.224   2.933   9.575 -0.1012  0.2423 -0.7026
  472MOL0     C65055   7.180   3.051   9.630 -0.9541 -0.3361  0.3980
  472MOL0     C65056   7.130   3.063   9.756 -0.1388 -1.1749  0.8071
  472MOL0     O65057   7.083   3.186   9.779 -0.2690  0.2057  0.1194
  472MOL0     C65058   6.973   3.200   9.869 -0.0480 -0.6565 -1.1817
  472MOL0     C65059   6.895   3.324   9.843 -0.4855 -0.7017 -0.3747
  472MOL0     C65060   6.946   3.435   9.949  0.7813  0.1400  0.5374
  472MOL0     C65061   6.888   3.577   9.917  0.4099 -0.5838 -0.1197
  472MOL0     C65062   6.739   3.602   9.925  0.8837  0.5843 -0.0180
  472MOL0     C65063   6.626   3.637   9.900  1.2160 -0.2867 -0.0450
  472MOL0     C65064   7.125   2.946   9.836 -0.1803 -0.6982  0.2065
  472MOL0     C65065   7.167   2.820   9.783 -0.3457  0.2200  0.4841
  472MOL0     C65066   7.154   2.695   9.868 -0.3090  0.6626 -0.8553
  472MOL0     H65067   7.302   2.404   9.549  0.0394  1.3144 -1.3230
  472MOL0     H65068   7.452   2.219   9.600 -1.9320  0.3631  0.8663
  472MOL0     H65069   7.828   2.097   9.413  0.9403  1.7240 -0.6364
  472MOL0     H65070   7.688   2.196   9.346  3.0705  4.2664  0.4036
  472MOL0     H65071   7.658   1.988   9.570 -2.4111  0.0189  0.3615
  472MOL0     H65072   7.542   2.019   9.438  0.3804 -2.0572 -1.2687
  472MOL0     H65073   7.798   1.845   9.429  1.7546  1.3128 -1.5289
  472MOL0     H65074   7.631   1.804   9.419 -0.0531 -1.4290 -0.6487
  472MOL0     H65075   7.585   1.880   9.215  0.1924  1.8232  1.6582
  472MOL0     H65076   7.709   1.991   9.194  0.6368 -0.0404 -0.5429
  472MOL0     H65077   7.883   1.821   9.200  0.5977 -1.8400  1.6687
  472MOL0     H65078   7.779   1.808   9.053 -1.4631  1.1948  0.6897
  472MOL0     H65079   7.780   1.634   9.302  2.1909 -2.9083 -1.7778
  472MOL0     H65080   7.646   1.640   9.166  0.5114  0.1695 -1.5952
  472MOL0     H65081   7.934   1.602   9.119 -0.1341  0.2629  4.4214
  472MOL0     H65082   7.787   1.568   9.021 -2.1044 -1.4348  0.0050
  472MOL0     H65083   7.916   1.414   9.253 -2.6366  0.5975  2.3371
  472MOL0     H65084   7.747   1.381   9.223  1.8088 -0.3934  2.0281
  472MOL0     H65085   7.649   1.276   9.031  0.0784  1.3525  2.2560
  472MOL0     H65086   7.667   1.077   8.807  0.9715  3.4940 -1.2079
  472MOL0     H65087   7.758   0.967   8.916 -5.4355 -0.6385 -1.5897
  472MOL0     H65088   7.953   1.000   8.776  0.3358  0.3339 -1.1312
  472MOL0     H65089   7.827   0.913   8.687 -2.1181  0.7184 -1.6374
  472MOL0     H65090   7.920   1.199   8.648 -0.2451 -0.9951 -0.4922
  472MOL0     H65091   7.928   1.047   8.542 -1.0509 -3.9610  2.9180
  472MOL0     H65092   7.683   1.192   8.636 -0.4571 -0.4494 -0.5186
  472MOL0     H65093   7.743   1.248   8.495  0.8772  1.1403  0.9829
  472MOL0     H65094   7.524   0.891   8.362 -1.9193  2.5924  0.0657
  472MOL0     H65095   7.569   0.745   8.030 -1.7637  2.1486 -1.7737
  472MOL0     H65096   7.439   0.776   8.144  0.2547 -0.9950 -2.6384
  472MOL0     H65097   7.584   0.689   8.205  1.2763  1.0178  0.2945
  472MOL0     H65098   7.552   0.854   7.751  0.6873  1.4382 -0.9174
  472MOL0     H65099   7.514   0.757   7.511  1.5370  2.4865 -1.4521
  472MOL0     H65100   7.866   0.506   7.396  0.4475 -3.5490 -0.4245
  472MOL0     H65101   7.733   0.387   7.402 -2.5164 -0.1824 -0.6245
  472MOL0     H65102   7.669   0.458   7.166 -0.9619 -0.5594  1.8557
  472MOL0     H65103   7.766   0.609   7.191  0.2036  0.6947  1.4317
  472MOL0     H65104   7.971   0.452   7.217  1.1623  1.3368 -2.0083
  472MOL0     H65105   7.905   0.467   7.054 -1.2195  0.1503 -0.4982
  472MOL0     H65106   7.795   0.238   7.096 -0.4330 -3.7924  0.6236
  472MOL0     H65107   7.852   0.239   7.262 -3.3584  3.6036  0.1476
  472MOL0     H65108   8.030   0.240   6.998  0.2204  1.3433  0.2999
  472MOL0     H65109   8.097   0.226   7.166 -1.0101  0.9748 -0.5459
  472MOL0     H65110   7.917   0.006   7.023 -1.2282  0.0787 -0.1442
  472MOL0     H65111   7.935   0.018   7.195  0.2382  1.2973  0.7847
  472MOL0     H65112   8.159  -0.016   7.188  3.4903  0.1373 -1.8699
  472MOL0     H65113   8.181   0.024   7.019 -0.0302 -2.2516 -0.0657
  472MOL0     H65114   8.072  -0.197   6.948  2.6169 -0.6983 -0.3254
  472MOL0     H65115   8.040  -0.218   7.120 -1.4086 -1.4564 -1.6190
  472MOL0     H65116   7.815   0.468   7.633  1.9282 -0.2277 -1.4114
  472MOL0     H65117   7.872   0.597   7.825 -0.4910  3.0513  2.3169
  472MOL0     H65118   7.825   1.137   8.061  0.6382  0.9417  2.3699
  472MOL0     H65119   7.829   1.188   8.290 -0.0113  0.3594 -1.3074
  472MOL0     H65120   7.792   2.468   9.484  1.0936  3.1738  3.1496
  472MOL0     H65121   7.629   2.669   9.526  0.1656 -0.3978 -1.4048
  472MOL0     H65122   7.260   2.927   9.473  1.1843  0.3823 -0.2672
  472MOL0     H65123   7.192   3.145   9.577  1.6390  0.0321  1.4802
  472MOL0     H65124   6.911   3.114   9.844  2.9586 -2.5372 -2.8547
  472MOL0     H65125   7.006   3.184   9.972  3.0733  0.7216 -1.8577
  472MOL0     H65126   6.790   3.304   9.866  0.2278 -2.8428  1.4657
  472MOL0     H65127   6.899   3.351   9.738 -0.9237 -2.0473 -0.7604
  472MOL0     H65128   6.910   3.411  10.049  1.4482 -2.6497  0.1978
  472MOL0     H65129   7.055   3.440   9.941  0.6342  0.6628 -4.1183
  472MOL0     H65130   6.923   3.610   9.818  1.2244 -0.6524  0.1415
  472MOL0     H65131   6.932   3.643   9.993 -1.3586  0.3182  0.1867
  472MOL0     H65132   6.529   3.670   9.870  2.4074 -1.1772 -6.3086
  472MOL0     H65133   7.092   2.956   9.939  5.2813  1.0342  2.1451
  472MOL0     H65134   7.094   2.718   9.957 -1.0650 -0.2898 -1.0985
  472MOL0     H65135   7.099   2.626   9.804  2.1199 -1.0998 -1.1354
  472MOL0     H65136   7.250   2.649   9.891 -1.2664 -0.7131  0.6818
  473MOL0     O65137   1.489   2.080   9.435 -0.2645 -0.6635 -0.5063
  473MOL0     C65138   1.610   2.119   9.428  0.0805  1.3725  0.6593
  473MOL0     O65139   1.724   2.046   9.468  0.2952  0.4795  0.3850
  473MOL0     C65140   1.695   1.911   9.503  0.1727  0.1264 -0.2382
  473MOL0     C65141   1.735   1.860   9.630  0.2940 -0.1456  0.1249
  473MOL0     C65142   1.703   1.730   9.662  0.0532  1.1928  1.0783
  473MOL0     C65143   1.636   1.645   9.576 -0.1958  0.7507  0.2502
  473MOL0     O65144   1.633   1.519   9.605 -0.4472  0.1100 -0.0875
  473MOL0     C65145   1.534   1.467   9.691 -0.4433 -0.1049 -0.0592
  473MOL0     C65146   1.390   1.524   9.679 -0.7544 -0.2402  0.8343
  473MOL0     C65147   1.286   1.458   9.776 -0.3465 -0.3273 -0.6191
  473MOL0     C65148   1.153   1.523   9.744 -0.4227 -0.3050  0.9935
  473MOL0     C65149   1.021   1.486   9.813  0.1741  0.4319 -0.5136
  473MOL0     C65150   0.930   1.391   9.725  0.2651 -0.2862 -0.9031
  473MOL0     C65151   0.797   1.345   9.802  0.1176 -0.3476  1.3814
  473MOL0     C65152   0.688   1.445   9.763  0.2228 -1.0379 -0.0205
  473MOL0     N65153   0.570   1.418   9.844  0.2022 -0.0746  0.5603
  473MOL0     C65154   0.463   1.338   9.820  0.1100  0.7690 -0.1762
  473MOL0     C65155   0.388   1.345   9.931  0.7998  0.0620 -0.2563
  473MOL0     C65156   0.258   1.280   9.942  0.8059 -0.5494  0.2434
  473MOL0     C65157   0.265   1.154  10.022  0.0078  0.0541 -0.2422
  473MOL0     C65158   0.130   1.089  10.062 -0.6650  0.8517  0.0256
  473MOL0     C65159   0.041   1.041   9.948  1.1190  0.3492 -0.6326
  473MOL0     O65160   0.008   1.153   9.869  0.3242  0.4656  0.0582
  473MOL0     C65161  -0.086   1.137   9.779  0.1752  0.7109 -0.1554
  473MOL0     C65162  -0.164   1.023   9.757 -0.6136  0.2527  0.8706
  473MOL0     C65163  -0.266   1.014   9.657  0.9188 -0.0466 -0.9086
  473MOL0     C65164  -0.332   0.873   9.651 -0.4992  0.2768  0.4397
  473MOL0     C65165  -0.291   1.124   9.570  0.3227 -0.4083 -0.2326
  473MOL0     C65166  -0.387   1.139   9.457  0.2813  0.2560 -0.4117
  473MOL0     O65167  -0.387   1.247   9.371 -0.3061  0.3544 -0.1097
  473MOL0     C65168  -0.468   1.241   9.268 -0.1429  0.4746  0.0812
  473MOL0     C65169  -0.470   1.141   9.169 -0.3330  0.6976 -0.3960
  473MOL0     C65170  -0.546   1.138   9.057 -0.4309 -0.0399  0.6508
  473MOL0     C65171  -0.630   1.251   9.041 -0.7591  0.5459 -0.7226
  473MOL0     O65172  -0.713   1.265   8.930  0.4748 -0.5140  0.4414
  473MOL0     C65173  -0.759   1.147   8.863  0.1039  0.3760 -0.9290
  473MOL0     C65174  -0.889   1.190   8.796  0.0206  0.0509  0.4298
  473MOL0     C65175  -0.919   1.105   8.658 -0.0360  0.2087 -0.4125
  473MOL0     C65176  -0.929   0.965   8.692  0.5116  0.1532 -0.0370
  473MOL0     C65177  -1.003   0.882   8.588  0.0101  0.0185 -0.4113
  473MOL0     C65178  -1.007   0.741   8.645  0.2893 -0.8876 -0.8571
  473MOL0     C65179  -1.108   0.728   8.766  0.2222 -0.3094  0.0593
  473MOL0     C65180  -1.244   0.795   8.738  0.7085  0.6979  0.8064
  473MOL0    Cl65181  -1.317   0.739   8.580  0.3228  0.1322  0.2089
  473MOL0     C65182  -0.627   1.354   9.140  0.9003 -0.1899 -1.0335
  473MOL0     C65183  -0.545   1.352   9.245  0.1636  0.3261  0.1330
  473MOL0     O65184  -0.464   1.047   9.449  0.3881 -0.4404  0.2533
  473MOL0     C65185  -0.209   1.241   9.591  0.6275 -0.7626 -0.1393
  473MOL0     C65186  -0.115   1.239   9.687  0.4172  0.5759 -0.1586
  473MOL0     N65187   0.450   1.427  10.029  0.4817 -0.3600  0.0843
  473MOL0     N65188   0.558   1.468   9.964  0.0802 -0.4477 -0.1157
  473MOL0     C65189   1.596   1.699   9.454 -0.2803  0.7303  0.2311
  473MOL0     C65190   1.624   1.826   9.420  0.7523  0.0117  0.1519
  473MOL0     C65191   1.626   2.251   9.394 -0.1404 -0.6938 -0.0166
  473MOL0     C65192   1.731   2.324   9.454  0.0060  0.0666  0.3193
  473MOL0     C65193   1.752   2.460   9.418 -0.1591 -0.4075 -0.5164
  473MOL0     C65194   1.672   2.530   9.326 -0.0287  0.6970  0.4476
  473MOL0     O65195   1.698   2.663   9.309 -0.2577  0.0123 -0.1346
  473MOL0     C65196   1.587   2.750   9.280 -1.0996  0.5329 -0.2869
  473MOL0     C65197   1.609   2.787   9.132  0.4239  0.7402  0.8507
  473MOL0     C65198   1.475   2.824   9.074  0.8286  0.8091  0.4198
  473MOL0     C65199   1.431   2.962   9.104  0.1361 -0.5246 -0.4626
  473MOL0     C65200   1.312   2.959   9.186 -0.6098 -0.2520  0.8343
  473MOL0     C65201   1.228   2.931   9.270 -0.2589  0.2486  0.3074
  473MOL0     C65202   1.575   2.453   9.259 -0.3530  0.3059 -0.2812
  473MOL0     C65203   1.544   2.317   9.293 -0.2525 -1.0588  0.5380
  473MOL0     C65204   1.446   2.241   9.203  0.1455  0.4130 -0.3363
  473MOL0     H65205   1.798   1.914   9.700 -2.0182  1.1478  1.3117
  473MOL0     H65206   1.737   1.683   9.754 -1.2524 -0.8635  0.5851
  473MOL0     H65207   1.554   1.484   9.797 -2.9880  3.3699  0.0199
  473MOL0     H65208   1.525   1.360   9.668 -0.4076 -0.5834  2.0001
  473MOL0     H65209   1.391   1.632   9.698  0.2599 -0.0775 -0.0093
  473MOL0     H65210   1.365   1.511   9.573 -0.9538  0.4965  0.7788
  473MOL0     H65211   1.286   1.350   9.755  1.9377 -1.0027  2.1689
  473MOL0     H65212   1.303   1.484   9.881 -2.8782 -2.4215  0.4181
  473MOL0     H65213   1.180   1.628   9.752  4.7075 -1.2054 -1.0989
  473MOL0     H65214   1.134   1.496   9.640  0.4985 -0.5791  0.8886
  473MOL0     H65215   0.965   1.578   9.834  1.2143  1.8845 -3.4259
  473MOL0     H65216   1.044   1.423   9.899 -2.2554  0.2552  0.0637
  473MOL0     H65217   0.897   1.450   9.639 -3.7354  2.4538  2.0858
  473MOL0     H65218   0.988   1.302   9.700  2.0502  0.4956  0.2528
  473MOL0     H65219   0.824   1.332   9.907  1.7533  1.5146  1.2510
  473MOL0     H65220   0.756   1.252   9.760 -1.2836  0.7871  0.0824
  473MOL0     H65221   0.714   1.550   9.779  2.1466 -1.5433  0.5351
  473MOL0     H65222   0.663   1.431   9.657 -0.4066 -2.1987  0.2594
  473MOL0     H65223   0.453   1.277   9.732  1.4527  0.6288 -0.2618
  473MOL0     H65224   0.239   1.255   9.837  1.2294 -0.9255  0.2511
  473MOL0     H65225   0.174   1.342   9.973  2.3268  1.0376  1.4312
  473MOL0     H65226   0.338   1.083   9.981  1.1336  0.9424  0.1732
  473MOL0     H65227   0.311   1.193  10.113  1.2409  2.1478 -1.6821
  473MOL0     H65228   0.160   0.998  10.115  1.9889  0.5350 -1.8556
  473MOL0     H65229   0.078   1.159  10.128  2.4460  2.6005  0.8345
  473MOL0     H65230   0.102   0.988   9.874  2.2636  1.4893 -0.5444
  473MOL0     H65231  -0.050   0.996   9.989  0.3607  2.0533 -0.3871
  473MOL0     H65232  -0.153   0.924   9.801  3.0524 -0.0838 -0.3791
  473MOL0     H65233  -0.253   0.797   9.645 -0.8886 -0.3454  2.4833
  473MOL0     H65234  -0.397   0.853   9.565  0.6780 -1.7472 -0.0499
  473MOL0     H65235  -0.383   0.842   9.742  0.6007 -3.5201 -0.0669
  473MOL0     H65236  -0.407   1.055   9.190 -0.9288  0.3170 -0.1537
  473MOL0     H65237  -0.537   1.053   8.991 -1.5040 -0.5283  1.1106
  473MOL0     H65238  -0.681   1.126   8.789  0.2997 -2.3830 -0.0610
  473MOL0     H65239  -0.773   1.054   8.918 -2.7775  1.3931  0.2645
  473MOL0     H65240  -0.970   1.173   8.867 -0.0756 -2.5053 -0.2165
  473MOL0     H65241  -0.874   1.297   8.778  2.1133  0.0929  2.0659
  473MOL0     H65242  -0.846   1.124   8.579  1.5461  2.0987  1.4086
  473MOL0     H65243  -1.013   1.144   8.618 -1.4262 -2.6554 -0.2470
  473MOL0     H65244  -0.983   0.959   8.786 -0.1524  2.2872 -0.2190
  473MOL0     H65245  -0.830   0.923   8.712  0.8656  0.1742 -1.5973
  473MOL0     H65246  -1.108   0.901   8.563  0.6305  0.8940 -2.5794
  473MOL0     H65247  -0.946   0.886   8.494  0.1656  2.9750 -0.2803
  473MOL0     H65248  -0.908   0.711   8.680 -1.0904 -5.1665 -0.1060
  473MOL0     H65249  -1.045   0.673   8.568 -1.1940  0.2180 -1.1714
  473MOL0     H65250  -1.066   0.764   8.861  1.2580  1.6472 -1.0800
  473MOL0     H65251  -1.130   0.625   8.797  0.6786  0.2900  2.6076
  473MOL0     H65252  -1.238   0.904   8.736  0.6155  0.6976  0.3240
  473MOL0     H65253  -1.322   0.767   8.811 -0.4197  0.3815 -0.4791
  473MOL0     H65254  -0.692   1.441   9.138 -2.0653 -2.2187  0.2771
  473MOL0     H65255  -0.534   1.436   9.312  0.2052  0.1740  0.3205
  473MOL0     H65256  -0.229   1.333   9.539 -1.3567 -0.5844  0.8386
  473MOL0     H65257  -0.048   1.324   9.701 -2.9405  3.0601  3.1738
  473MOL0     H65258   1.543   1.640   9.379  0.9550  0.0097 -0.1013
  473MOL0     H65259   1.586   1.853   9.322 -2.2712  0.9431  1.4796
  473MOL0     H65260   1.813   2.276   9.505  1.0721 -1.0719 -2.2714
  473MOL0     H65261   1.828   2.521   9.467 -1.6031  0.9663  0.1065
  473MOL0     H65262   1.485   2.722   9.305 -0.6931 -0.0901  0.7213
  473MOL0     H65263   1.601   2.841   9.340 -1.0770 -0.1888  0.8250
  473MOL0     H65264   1.640   2.692   9.088  1.5973 -0.0080  3.1037
  473MOL0     H65265   1.687   2.863   9.123  2.0774 -0.8850  0.8884
  473MOL0     H65266   1.478   2.824   8.965 -1.1549  2.7379  0.2731
  473MOL0     H65267   1.396   2.754   9.102 -1.0966  2.0455 -1.5551
  473MOL0     H65268   1.427   3.037   9.024  2.1820  0.2497  0.0879
  473MOL0     H65269   1.504   3.000   9.177 -2.3207 -1.7320  2.8521
  473MOL0     H65270   1.143   2.904   9.330 -0.5916 -0.7401 -0.5765
  473MOL0     H65271   1.529   2.494   9.170  1.1797 -0.5458 -1.5222
  473MOL0     H65272   1.360   2.199   9.256  2.5384 -2.2283  1.7754
  473MOL0     H65273   1.405   2.306   9.125 -0.5904  0.1938 -0.1401
  473MOL0     H65274   1.487   2.155   9.150 -4.3653 -1.7836 -0.7338
  474MOL0     O65275   7.144   7.803   1.418  0.7337 -0.4884  0.1485
  474MOL0     C65276   7.243   7.784   1.350  0.3049  0.3817  0.3557
  474MOL0     O65277   7.350   7.870   1.353 -0.3202  0.5006  0.4015
  474MOL0     C65278   7.346   7.982   1.434 -0.5725 -0.1621 -0.2101
  474MOL0     C65279   7.266   8.098   1.406 -0.6482  0.8972 -0.1885
  474MOL0     C65280   7.277   8.213   1.482  0.3827 -0.9188  0.8060
  474MOL0     C65281   7.363   8.212   1.589 -0.0719  0.6327 -0.5430
  474MOL0     O65282   7.379   8.312   1.678 -0.3224 -0.1863  0.8855
  474MOL0     C65283   7.367   8.436   1.612  0.5043  0.1655 -0.3299
  474MOL0     C65284   7.440   8.536   1.698  0.5200 -0.3934 -0.9883
  474MOL0     C65285   7.432   8.686   1.651 -0.4243 -0.5736  0.7349
  474MOL0     C65286   7.291   8.745   1.649 -0.2832 -0.1811 -0.1347
  474MOL0     C65287   7.294   8.905   1.649  0.6705  0.3604 -0.1941
  474MOL0     C65288   7.384   8.960   1.544 -0.3368 -0.1601 -0.9325
  474MOL0     C65289   7.398   9.111   1.568 -0.1024 -0.2679 -0.0104
  474MOL0     C65290   7.276   9.194   1.536  0.1479 -0.1947 -0.1383
  474MOL0     N65291   7.253   9.316   1.623 -0.2274  0.1845  0.3617
  474MOL0     C65292   7.173   9.426   1.595 -0.9721 -0.5210 -0.3719
  474MOL0     C65293   7.172   9.496   1.716 -0.1931  0.1487  0.1912
  474MOL0     C65294   7.088   9.618   1.746 -0.2163  0.0665 -0.2191
  474MOL0     C65295   6.947   9.608   1.716 -0.0298  0.8050  0.9884
  474MOL0     C65296   6.864   9.723   1.774 -1.1252  0.0016  0.4574
  474MOL0     C65297   6.801   9.688   1.905 -0.0468  0.2735  0.1623
  474MOL0     O65298   6.890   9.625   2.001  0.1977 -0.6392 -0.8617
  474MOL0     C65299   6.846   9.598   2.131  0.4588 -1.0296  0.0167
  474MOL0     C65300   6.721   9.641   2.190 -0.9020 -0.6020 -0.8231
  474MOL0     C65301   6.701   9.613   2.328  0.7899  0.3854  0.8262
  474MOL0     C65302   6.565   9.650   2.390  0.1756  0.7803  0.2362
  474MOL0     C65303   6.794   9.535   2.409 -0.1876 -0.4875 -0.4795
  474MOL0     C65304   6.776   9.491   2.545  1.1885 -0.2706  0.2469
  474MOL0     O65305   6.821   9.365   2.572 -0.9258 -0.4383  0.6442
  474MOL0     C65306   6.874   9.339   2.694 -0.0263  0.4630 -0.5969
  474MOL0     C65307   6.921   9.428   2.791 -0.6681 -0.0095 -1.3549
  474MOL0     C65308   6.983   9.380   2.905 -0.1017  1.1543 -0.0636
  474MOL0     C65309   6.991   9.238   2.939  0.3266  0.0073  0.9363
  474MOL0     O65310   7.040   9.197   3.054  0.4461 -0.4941  0.2823
  474MOL0     C65311   7.157   9.115   3.036 -0.6711 -0.1156 -0.4673
  474MOL0     C65312   7.277   9.205   3.070  0.0950 -1.0033  0.3448
  474MOL0     C65313   7.400   9.125   3.083 -0.3388 -0.1398  0.6858
  474MOL0     C65314   7.501   9.181   3.172  0.5924  0.2802 -0.0541
  474MOL0     C65315   7.613   9.075   3.202  0.1833  0.8375 -0.4155
  474MOL0     C65316   7.707   9.137   3.314  0.0416  1.0925 -0.6032
  474MOL0     C65317   7.834   9.060   3.295 -0.1864 -0.5554  0.9817
  474MOL0     C65318   7.943   9.083   3.407 -0.1826 -0.1521 -0.6838
  474MOL0    Cl65319   8.081   8.980   3.383 -0.5149 -0.0121  0.7844
  474MOL0     C65320   6.932   9.157   2.847 -0.9145 -0.0506  0.0194
  474MOL0     C65321   6.886   9.201   2.729  0.4690 -0.2318  0.3138
  474MOL0     O65322   6.727   9.563   2.627  0.2059  0.0242 -0.3923
  474MOL0     C65323   6.911   9.494   2.345 -0.2069 -0.0840 -0.2520
  474MOL0     C65324   6.945   9.535   2.212 -0.4089 -0.2686 -0.1363
  474MOL0     N65325   7.252   9.427   1.809  0.3604  0.9332  0.0752
  474MOL0     N65326   7.294   9.314   1.753  0.2159 -0.1820 -0.6941
  474MOL0     C65327   7.438   8.099   1.626  0.3895 -0.3630  0.9731
  474MOL0     C65328   7.440   7.985   1.540 -0.4755 -0.5270  0.1106
  474MOL0     C65329   7.248   7.681   1.244 -0.6673  0.0612  0.8023
  474MOL0     C65330   7.355   7.677   1.162  0.5018  0.2711 -0.4671
  474MOL0     C65331   7.352   7.599   1.048  0.0466  0.1489 -0.5685
  474MOL0     C65332   7.246   7.507   1.015 -0.0727  0.3191  0.0174
  474MOL0     O65333   7.247   7.421   0.913  0.1613  0.5740  0.1608
  474MOL0     C65334   7.362   7.396   0.833 -0.4605 -0.3244 -0.0692
  474MOL0     C65335   7.320   7.334   0.701 -0.4538 -0.5396  0.0135
  474MOL0     C65336   7.220   7.217   0.716 -0.1246  0.1092 -0.5315
  474MOL0     C65337   7.216   7.138   0.580  0.1642 -0.5850 -0.8837
  474MOL0     C65338   7.135   7.025   0.603  0.2202  0.0857 -0.3995
  474MOL0     C65339   7.043   6.948   0.617  0.8083  0.6335 -0.0641
  474MOL0     C65340   7.137   7.502   1.107 -0.3030  0.2219  0.6208
  474MOL0     C65341   7.136   7.593   1.212 -0.1648  0.1852  0.3085
  474MOL0     C65342   7.020   7.582   1.308 -0.3604  0.4289 -0.0318
  474MOL0     H65343   7.194   8.101   1.325 -1.0040 -1.1281 -0.0066
  474MOL0     H65344   7.207   8.296   1.475  0.9757 -0.1668  3.0659
  474MOL0     H65345   7.263   8.465   1.595  0.3436  0.3281  0.8422
  474MOL0     H65346   7.424   8.426   1.519 -1.9038 -2.5243 -1.6884
  474MOL0     H65347   7.407   8.540   1.802  0.0633  2.3896 -1.1587
  474MOL0     H65348   7.540   8.493   1.688  0.8189  0.3555 -1.2328
  474MOL0     H65349   7.491   8.755   1.712 -0.6095  2.1108 -1.8722
  474MOL0     H65350   7.483   8.688   1.554 -1.4185 -1.1693  0.1868
  474MOL0     H65351   7.232   8.705   1.566  2.0376 -1.9753 -1.0222
  474MOL0     H65352   7.252   8.709   1.745 -2.6673  0.5139 -0.7713
  474MOL0     H65353   7.321   8.938   1.750 -2.0617 -0.2749  0.8131
  474MOL0     H65354   7.189   8.935   1.641  1.3596  2.4418 -4.8799
  474MOL0     H65355   7.486   8.920   1.555  0.7803  2.7003  0.1782
  474MOL0     H65356   7.335   8.937   1.449  2.5574 -4.0873 -1.7525
  474MOL0     H65357   7.481   9.147   1.507 -2.2081  2.6553 -1.3468
  474MOL0     H65358   7.438   9.131   1.668  4.1911 -0.8689 -1.3890
  474MOL0     H65359   7.268   9.195   1.427 -1.4848  0.9099 -0.0437
  474MOL0     H65360   7.193   9.128   1.566  1.7837 -2.6422 -0.6525
  474MOL0     H65361   7.102   9.448   1.516 -2.7453  1.7244  1.6966
  474MOL0     H65362   7.127   9.702   1.687  0.5229 -1.3720 -1.8739
  474MOL0     H65363   7.095   9.639   1.853 -1.1644 -0.1090 -0.1149
  474MOL0     H65364   6.937   9.613   1.607  1.1640 -1.3185  0.7210
  474MOL0     H65365   6.919   9.507   1.749  1.9949 -0.3993 -0.7353
  474MOL0     H65366   6.921   9.815   1.790  4.0923 -3.2426  3.5357
  474MOL0     H65367   6.779   9.748   1.710 -2.2541 -2.6978  0.7870
  474MOL0     H65368   6.754   9.778   1.944  2.4119  1.8279 -0.2232
  474MOL0     H65369   6.732   9.609   1.875  1.6318 -0.9199 -0.7883
  474MOL0     H65370   6.649   9.697   2.130  3.5972  5.1084 -1.7570
  474MOL0     H65371   6.521   9.575   2.457  1.1873  1.1659  1.3756
  474MOL0     H65372   6.488   9.673   2.316 -0.7829 -0.2092  0.9011
  474MOL0     H65373   6.579   9.734   2.459  0.5856 -2.8938  5.1884
  474MOL0     H65374   6.927   9.536   2.781  1.3900 -0.0706 -1.1864
  474MOL0     H65375   7.018   9.453   2.977  1.1972 -0.6987  1.2905
  474MOL0     H65376   7.164   9.028   3.103 -2.3271 -2.0357 -2.6082
  474MOL0     H65377   7.172   9.063   2.941 -0.9595  0.2023 -0.6870
  474MOL0     H65378   7.303   9.277   2.993  0.9912 -1.2277  0.4280
  474MOL0     H65379   7.260   9.268   3.158  3.8846  1.6570 -0.5938
  474MOL0     H65380   7.446   9.119   2.983  0.2938  2.0837  0.7859
  474MOL0     H65381   7.374   9.025   3.117  1.4440 -1.2426 -0.9499
  474MOL0     H65382   7.457   9.211   3.268  4.3836 -0.9227  2.2680
  474MOL0     H65383   7.547   9.274   3.138  1.6633 -0.8876 -1.9898
  474MOL0     H65384   7.582   8.976   3.237  2.1536  0.6264  0.9062
  474MOL0     H65385   7.666   9.045   3.112 -0.2664  0.1217 -0.4440
  474MOL0     H65386   7.663   9.112   3.412  1.1674  1.8440  0.1142
  474MOL0     H65387   7.707   9.246   3.311 -2.4652  1.1308 -1.8338
  474MOL0     H65388   7.885   9.089   3.202 -2.9180 -1.1268 -0.8164
  474MOL0     H65389   7.816   8.953   3.281  1.8250 -1.0563  1.8455
  474MOL0     H65390   7.893   9.064   3.502  0.9407  0.2089  0.0030
  474MOL0     H65391   7.979   9.186   3.415 -1.6679  0.3106  0.4736
  474MOL0     H65392   6.927   9.050   2.867  1.6460 -0.3906 -0.7411
  474MOL0     H65393   6.856   9.134   2.648  0.4941  1.9197 -1.5613
  474MOL0     H65394   6.992   9.437   2.390 -0.3707 -0.2247 -0.1337
  474MOL0     H65395   7.044   9.521   2.170 -0.6081 -3.4406  0.2486
  474MOL0     H65396   7.505   8.117   1.710  1.2764  0.4830  0.1156
  474MOL0     H65397   7.496   7.892   1.547  0.1589 -0.0563  1.6446
  474MOL0     H65398   7.442   7.742   1.166  1.1605 -0.5719 -0.5898
  474MOL0     H65399   7.442   7.618   0.989  2.0787  4.2200  3.2045
  474MOL0     H65400   7.415   7.488   0.810  0.1292 -0.9100 -1.1277
  474MOL0     H65401   7.430   7.326   0.883 -0.4106  0.1660  0.5621
  474MOL0     H65402   7.414   7.314   0.648  0.2307  5.3450 -1.7170
  474MOL0     H65403   7.266   7.405   0.638 -2.6117 -2.0894  0.0251
  474MOL0     H65404   7.244   7.154   0.802 -0.5807  1.8832  0.9680
  474MOL0     H65405   7.119   7.254   0.738  0.0042 -0.6257  1.5545
  474MOL0     H65406   7.314   7.099   0.550 -0.3324 -3.1600  0.4795
  474MOL0     H65407   7.175   7.203   0.502  0.7410  1.8141  0.7098
  474MOL0     H65408   6.966   6.880   0.650  0.5288  1.6460  1.4820
  474MOL0     H65409   7.049   7.440   1.095  0.8446 -1.5763  1.0055
  474MOL0     H65410   7.072   7.558   1.401  0.5480 -3.9895 -1.4491
  474MOL0     H65411   6.968   7.677   1.314  1.8060  1.7068 -0.4620
  474MOL0     H65412   6.943   7.505   1.291 -0.4048  0.1478  1.3439
  475MOL0     O65413   9.945   1.615   7.248  0.1600  0.1172 -0.4560
  475MOL0     C65414   9.940   1.494   7.274 -0.7444  0.4861 -0.7100
  475MOL0     O65415  10.022   1.396   7.220 -0.3612  0.0129 -0.2254
  475MOL0     C65416  10.134   1.427   7.159 -1.0759 -0.0410 -0.0361
  475MOL0     C65417  10.178   1.345   7.056 -0.0034  0.6792 -0.5838
  475MOL0     C65418  10.304   1.344   6.997  0.9153  0.3855 -0.5064
  475MOL0     C65419  10.403   1.431   7.035  0.9545  0.1370  0.2056
  475MOL0     O65420  10.528   1.409   6.986  0.4334 -0.6925 -0.2013
  475MOL0     C65421  10.620   1.379   7.093 -0.2622 -0.0742 -0.5723
  475MOL0     C65422  10.712   1.275   7.031  0.1230  0.5456 -0.6301
  475MOL0     C65423  10.654   1.140   7.065 -0.3662  0.0932 -0.5388
  475MOL0     C65424  10.747   1.024   7.020 -0.0243 -0.0465 -0.1567
  475MOL0     C65425  10.670   0.889   7.028 -0.0712 -0.4801  0.0569
  475MOL0     C65426  10.670   0.803   7.157 -0.3472  0.1300 -0.6730
  475MOL0     C65427  10.608   0.673   7.122  0.1081  0.4241 -0.9531
  475MOL0     C65428  10.555   0.602   7.248 -0.1943  0.3030 -0.0313
  475MOL0     N65429  10.481   0.477   7.232  0.1133 -0.8054  0.0369
  475MOL0     C65430  10.411   0.453   7.120  0.3516  0.7330  0.5210
  475MOL0     C65431  10.341   0.338   7.148 -0.7484 -0.8286  0.2760
  475MOL0     C65432  10.250   0.258   7.057  1.6591  0.9244  0.7309
  475MOL0     C65433  10.123   0.215   7.126 -0.3049 -0.1439 -0.6047
  475MOL0     C65434  10.024   0.169   7.012 -0.2433 -0.9281  0.2313
  475MOL0     C65435   9.902   0.101   7.075  0.4422  0.0143  0.0272
  475MOL0     O65436   9.839   0.021   6.970  1.0163 -0.1300 -0.5531
  475MOL0     C65437   9.747  -0.070   7.018 -0.1996  0.1201 -0.5378
  475MOL0     C65438   9.771  -0.206   7.013  0.4009  0.4244  0.6537
  475MOL0     C65439   9.681  -0.290   7.090  0.9646  0.0896 -1.3261
  475MOL0     C65440   9.723  -0.444   7.101  0.3839 -1.1750  0.4877
  475MOL0     C65441   9.561  -0.235   7.148 -0.0603 -0.1148  0.3304
  475MOL0     C65442   9.464  -0.324   7.231 -0.1963  0.2205  0.3225
  475MOL0     O65443   9.397  -0.270   7.333 -0.0242  0.5042  0.4452
  475MOL0     C65444   9.363  -0.350   7.435  0.4662 -0.2585  0.6860
  475MOL0     C65445   9.458  -0.387   7.525  0.2110 -0.1223 -0.6526
  475MOL0     C65446   9.412  -0.461   7.640 -0.2975  0.5171 -0.0489
  475MOL0     C65447   9.281  -0.493   7.657 -1.3835 -1.1557  0.3481
  475MOL0     O65448   9.259  -0.576   7.766 -1.0301 -0.4160 -0.5513
  475MOL0     C65449   9.127  -0.600   7.805 -0.4198  0.2482 -0.2871
  475MOL0     C65450   9.131  -0.664   7.945  0.1618  0.3694 -1.1238
  475MOL0     C65451   9.190  -0.568   8.053  0.0857 -0.3224 -0.1845
  475MOL0     C65452   9.337  -0.592   8.071 -0.3234  0.1517  0.4465
  475MOL0     C65453   9.396  -0.523   8.185  0.3601  0.3582 -1.0858
  475MOL0     C65454   9.362  -0.575   8.329  0.4202 -0.2220  0.6851
  475MOL0     C65455   9.463  -0.509   8.422  0.5252 -0.0099 -0.0322
  475MOL0     C65456   9.437  -0.540   8.576 -0.2373 -0.4103 -0.2188
  475MOL0    Cl65457   9.369  -0.700   8.606  0.1588  0.4980  0.3608
  475MOL0     C65458   9.185  -0.447   7.559 -0.3211  0.1385 -1.0339
  475MOL0     C65459   9.227  -0.377   7.451 -0.4518  0.2125 -0.3958
  475MOL0     O65460   9.458  -0.441   7.201 -0.5470 -0.6911  0.5236
  475MOL0     C65461   9.541  -0.097   7.150  0.7122 -0.1115  0.3879
  475MOL0     C65462   9.633  -0.016   7.084  0.1419 -0.6084 -0.3029
  475MOL0     N65463  10.371   0.301   7.276 -0.5245 -0.3283  0.3682
  475MOL0     N65464  10.458   0.382   7.328 -0.2385 -0.3194  0.5027
  475MOL0     C65465  10.366   1.527   7.136 -0.1622 -0.2135  0.9509
  475MOL0     C65466  10.233   1.524   7.192  0.0844 -0.1347  0.1463
  475MOL0     C65467   9.843   1.454   7.392  0.6658 -0.8333  0.6899
  475MOL0     C65468   9.838   1.318   7.426  0.0161 -0.5036  0.3689
  475MOL0     C65469   9.754   1.263   7.516  0.2902  0.3801 -0.3710
  475MOL0     C65470   9.661   1.335   7.580 -0.0044 -0.1457  0.7049
  475MOL0     O65471   9.579   1.289   7.686 -0.1669  0.8256 -0.4767
  475MOL0     C65472   9.516   1.381   7.777 -1.4291  0.1312 -0.3842
  475MOL0     C65473   9.446   1.326   7.900  0.0183  0.6950 -0.0901
  475MOL0     C65474   9.317   1.230   7.884  0.6876 -0.7293  0.4725
  475MOL0     C65475   9.243   1.210   8.016  0.1110  0.2237  0.1650
  475MOL0     C65476   9.143   1.315   8.051 -1.0563 -0.6666 -0.2791
  475MOL0     C65477   9.062   1.403   8.094  0.0924  0.1968 -0.6517
  475MOL0     C65478   9.654   1.472   7.538  0.7322  0.2572 -0.7654
  475MOL0     C65479   9.732   1.533   7.448  0.1395  0.6919 -0.2722
  475MOL0     C65480   9.705   1.678   7.411  0.5885 -0.6952 -0.5148
  475MOL0     H65481  10.095   1.281   7.028 -2.0834  2.6342  0.6845
  475MOL0     H65482  10.316   1.266   6.923  1.6295 -1.6595  1.6496
  475MOL0     H65483  10.575   1.348   7.188  0.9814  0.2974  0.1652
  475MOL0     H65484  10.683   1.467   7.112  0.9046 -1.2686  1.4662
  475MOL0     H65485  10.718   1.280   6.922 -2.9870 -2.7212 -1.1529
  475MOL0     H65486  10.809   1.295   7.077  1.5447 -3.2838 -1.5565
  475MOL0     H65487  10.638   1.126   7.172 -3.1063 -0.1227 -0.9064
  475MOL0     H65488  10.562   1.116   7.011 -1.2458  0.3227  0.8111
  475MOL0     H65489  10.777   1.042   6.917 -0.7584 -2.8710 -0.9576
  475MOL0     H65490  10.836   1.028   7.084  0.4663 -0.7555 -0.7815
  475MOL0     H65491  10.707   0.825   6.947 -2.6336 -1.8832 -0.1126
  475MOL0     H65492  10.569   0.893   6.986  0.1424  0.1166 -0.4173
  475MOL0     H65493  10.770   0.782   7.195  0.3084  2.0487 -1.2056
  475MOL0     H65494  10.613   0.858   7.233 -0.6544  0.4431 -1.1270
  475MOL0     H65495  10.678   0.603   7.074 -0.7513 -0.1682 -1.3653
  475MOL0     H65496  10.520   0.690   7.059 -1.0313  1.7349  0.8987
  475MOL0     H65497  10.641   0.593   7.315  0.8073  2.0150 -1.0131
  475MOL0     H65498  10.490   0.681   7.288 -0.4633  0.8995 -1.5729
  475MOL0     H65499  10.406   0.494   7.020  0.5694  1.2175  0.7053
  475MOL0     H65500  10.301   0.163   7.038  0.6856  0.4116  0.6137
  475MOL0     H65501  10.226   0.300   6.959  0.0856  1.0586  1.1580
  475MOL0     H65502  10.140   0.137   7.201 -0.1396  0.7475  0.3135
  475MOL0     H65503  10.074   0.293   7.185  0.5830 -0.5326  0.7120
  475MOL0     H65504   9.994   0.246   6.941  3.1346  0.3842  0.0380
  475MOL0     H65505  10.068   0.085   6.957  0.8957 -0.2446  0.0657
  475MOL0     H65506   9.932   0.027   7.151  1.3057 -0.7792 -1.0506
  475MOL0     H65507   9.826   0.167   7.117 -1.1991  0.2669 -3.1169
  475MOL0     H65508   9.867  -0.232   6.969  0.4430  0.5907  0.6473
  475MOL0     H65509   9.647  -0.497   7.043 -1.4198  2.0621 -0.3610
  475MOL0     H65510   9.743  -0.473   7.204  4.0787  0.2363  0.3094
  475MOL0     H65511   9.817  -0.460   7.047  0.0477  0.0884 -0.5480
  475MOL0     H65512   9.561  -0.363   7.501 -1.0378  1.6661 -5.2957
  475MOL0     H65513   9.491  -0.497   7.706  0.3442 -0.5861 -1.3795
  475MOL0     H65514   9.080  -0.504   7.829  3.4972  2.2577  0.1329
  475MOL0     H65515   9.069  -0.650   7.727 -0.9698  2.6677 -1.5089
  475MOL0     H65516   9.032  -0.698   7.976 -0.1999  1.3279 -1.2154
  475MOL0     H65517   9.192  -0.755   7.946  1.7694  1.3655  1.8398
  475MOL0     H65518   9.136  -0.599   8.142  0.5171  0.8666  0.5075
  475MOL0     H65519   9.182  -0.463   8.025 -0.5965 -1.0276 -2.9762
  475MOL0     H65520   9.384  -0.556   7.980 -3.9695 -1.0756 -2.1820
  475MOL0     H65521   9.365  -0.698   8.082 -0.6160 -0.2316 -1.9439
  475MOL0     H65522   9.505  -0.526   8.175  0.6212 -2.1268  1.2443
  475MOL0     H65523   9.386  -0.415   8.171  1.1285  0.7815  1.1800
  475MOL0     H65524   9.390  -0.681   8.329 -0.7293 -0.5847 -1.4025
  475MOL0     H65525   9.258  -0.566   8.359  0.0150 -3.8538  0.8631
  475MOL0     H65526   9.460  -0.403   8.397 -2.1996 -0.2243 -1.0291
  475MOL0     H65527   9.567  -0.535   8.401 -0.1171 -1.0906 -2.2514
  475MOL0     H65528   9.372  -0.462   8.617 -1.0119 -0.7333 -0.8141
  475MOL0     H65529   9.531  -0.543   8.631 -1.7770  0.9536  2.7196
  475MOL0     H65530   9.081  -0.468   7.582  0.4698 -1.3646  1.5891
  475MOL0     H65531   9.162  -0.345   7.370  1.2188 -0.4328 -2.0823
  475MOL0     H65532   9.454  -0.056   7.199  0.5874  0.7245 -0.4875
  475MOL0     H65533   9.618   0.091   7.088 -2.0102 -0.6233 -3.7111
  475MOL0     H65534  10.440   1.602   7.165  0.8524 -0.3502 -1.0431
  475MOL0     H65535  10.205   1.601   7.263 -0.3969 -1.5116  1.5247
  475MOL0     H65536   9.905   1.247   7.379 -0.5236 -0.1585 -0.9673
  475MOL0     H65537   9.781   1.162   7.544  1.7414  0.7811 -0.2243
  475MOL0     H65538   9.601   1.441   7.813  1.6682 -3.3570 -1.2751
  475MOL0     H65539   9.449   1.443   7.718  2.6526  4.2686 -1.3173
  475MOL0     H65540   9.413   1.409   7.963  1.6012 -1.3378  3.8170
  475MOL0     H65541   9.519   1.265   7.955 -0.7563 -1.3924 -1.2725
  475MOL0     H65542   9.259   1.256   7.795 -0.1027 -0.1666  1.1407
  475MOL0     H65543   9.352   1.130   7.857 -1.5912 -0.7697 -2.9399
  475MOL0     H65544   9.312   1.199   8.101 -0.3437 -1.4569  0.3576
  475MOL0     H65545   9.183   1.119   8.003  2.1298 -1.2183  0.4134
  475MOL0     H65546   8.991   1.476   8.125  1.8259  0.7902  2.2822
  475MOL0     H65547   9.585   1.540   7.587  1.9541 -0.6241  2.4709
  475MOL0     H65548   9.795   1.736   7.390 -1.2179  1.5962 -2.6402
  475MOL0     H65549   9.651   1.690   7.317  1.3352  2.2009 -0.6781
  475MOL0     H65550   9.648   1.723   7.493 -0.0467  1.6950 -2.1465
  476MOL0     O65551  10.965   6.723   9.397  0.0407  0.3190 -0.3215
  476MOL0     C65552  10.976   6.842   9.365 -0.7402  0.3367  0.2337
  476MOL0     O65553  10.870   6.925   9.320 -0.7407  0.2016 -0.0287
  476MOL0     C65554  10.750   6.864   9.335 -0.3408  0.8051 -0.4453
  476MOL0     C65555  10.679   6.813   9.221 -0.3380  1.0382  0.2821
  476MOL0     C65556  10.552   6.762   9.239 -0.5756  0.7664 -0.2177
  476MOL0     C65557  10.488   6.757   9.368  0.1025  0.1504  0.7915
  476MOL0     O65558  10.369   6.687   9.375 -0.2570 -0.3681 -0.3411
  476MOL0     C65559  10.314   6.665   9.514  1.0706  0.5140  1.1501
  476MOL0     C65560  10.189   6.574   9.498  0.4068  0.6049  0.4292
  476MOL0     C65561  10.146   6.550   9.652 -0.3943 -0.2143 -0.1156
  476MOL0     C65562  10.236   6.454   9.744  0.1335 -0.4408  0.5508
  476MOL0     C65563  10.167   6.412   9.867  0.2515  0.6331 -0.0441
  476MOL0     C65564  10.241   6.295   9.941 -0.6393 -0.2810  0.0127
  476MOL0     C65565  10.153   6.173   9.974  0.3946 -0.2012  0.1855
  476MOL0     C65566  10.075   6.178  10.110 -0.3331  0.2555 -0.3085
  476MOL0     N65567  10.003   6.303  10.148  0.3379 -0.0333 -0.1194
  476MOL0     C65568  10.052   6.406  10.219 -0.4417  0.4277  0.2612
  476MOL0     C65569   9.951   6.491  10.231  0.2980 -0.1674 -0.1363
  476MOL0     C65570   9.967   6.615  10.309 -0.6847  0.0302  0.5096
  476MOL0     C65571  10.046   6.716  10.241 -0.3105  0.7954 -0.6785
  476MOL0     C65572   9.991   6.758  10.104  0.2211 -0.3158  0.7927
  476MOL0     C65573   9.848   6.798  10.089  0.4528 -0.4998  0.0736
  476MOL0     O65574   9.820   6.849   9.956 -0.1793 -0.1253  0.2247
  476MOL0     C65575   9.809   6.766   9.847 -0.3084 -0.6429 -0.3408
  476MOL0     C65576   9.828   6.629   9.845  0.1136  0.6987 -0.4977
  476MOL0     C65577   9.802   6.550   9.733  0.0035 -0.2296  0.4448
  476MOL0     C65578   9.802   6.401   9.750 -0.0041  0.7429  0.2023
  476MOL0     C65579   9.769   6.617   9.608 -0.6028  0.5239  0.6810
  476MOL0     C65580   9.734   6.557   9.473  0.6433  0.8703 -0.7972
  476MOL0     O65581   9.726   6.636   9.361  0.4926  0.2854  0.2913
  476MOL0     C65582   9.690   6.598   9.230  0.6161  0.6279  0.2115
  476MOL0     C65583   9.612   6.487   9.192  0.3119  0.2353 -0.5478
  476MOL0     C65584   9.599   6.446   9.054 -0.0191 -0.2685  0.2861
  476MOL0     C65585   9.633   6.530   8.950 -0.1522  0.2877 -0.4466
  476MOL0     O65586   9.617   6.494   8.815  0.9688  0.0828  0.0525
  476MOL0     C65587   9.494   6.545   8.770  0.0438  0.5744  0.5537
  476MOL0     C65588   9.466   6.493   8.626 -0.2597  0.9563 -0.0102
  476MOL0     C65589   9.557   6.565   8.528  0.1224  0.6756 -0.3888
  476MOL0     C65590   9.560   6.488   8.399  0.3555  0.2167 -0.1786
  476MOL0     C65591   9.598   6.575   8.283 -0.6867  0.3026 -0.1557
  476MOL0     C65592   9.489   6.661   8.208 -0.3794  0.0771  0.1952
  476MOL0     C65593   9.402   6.565   8.128  0.5863  0.8144 -0.8855
  476MOL0     C65594   9.456   6.549   7.993 -0.2293  0.0641 -0.4704
  476MOL0    Cl65595   9.341   6.465   7.896 -0.0866  0.3898 -0.2090
  476MOL0     C65596   9.698   6.650   8.986 -0.6168  0.3811  0.2072
  476MOL0     C65597   9.734   6.678   9.123  0.7951 -0.2577  0.5438
  476MOL0     O65598   9.706   6.442   9.475  0.1504 -0.3042 -0.8257
  476MOL0     C65599   9.755   6.755   9.612  0.2405 -0.2190  0.9643
  476MOL0     C65600   9.780   6.824   9.730  0.9460 -0.0804 -0.2655
  476MOL0     N65601   9.843   6.450  10.151  0.3989  0.3152  0.2701
  476MOL0     N65602   9.880   6.332  10.106 -0.5771  0.6730 -0.2672
  476MOL0     C65603  10.553   6.823   9.476  0.5069  0.3044  0.8101
  476MOL0     C65604  10.679   6.877   9.454 -0.5472 -0.0811 -0.8887
  476MOL0     C65605  11.108   6.914   9.406  0.3346 -0.3782  0.5990
  476MOL0     C65606  11.193   6.848   9.498  0.9023  0.1921 -0.7733
  476MOL0     C65607  11.308   6.904   9.535 -0.5664 -0.8374 -1.4090
  476MOL0     C65608  11.343   7.039   9.491  0.0663  0.4773  0.6908
  476MOL0     O65609  11.451   7.106   9.527 -0.0029 -0.3506  0.7136
  476MOL0     C65610  11.543   7.038   9.609 -0.3906  1.1719  0.1199
  476MOL0     C65611  11.639   7.143   9.667 -0.0816 -0.3487  0.5326
  476MOL0     C65612  11.688   7.250   9.567  1.0927  0.5447 -0.2915
  476MOL0     C65613  11.817   7.308   9.611 -1.1164 -0.1311 -0.3495
  476MOL0     C65614  11.933   7.209   9.609 -0.3161  0.1845  0.1304
  476MOL0     C65615  12.021   7.125   9.583 -0.5927  0.0815  0.0529
  476MOL0     C65616  11.256   7.106   9.405  0.2457  0.4538 -0.2713
  476MOL0     C65617  11.141   7.047   9.365 -0.0068 -0.2392  0.7467
  476MOL0     C65618  11.059   7.114   9.247 -1.0449 -0.2347  0.1224
  476MOL0     H65619  10.731   6.798   9.127 -0.3249  0.3610  0.3934
  476MOL0     H65620  10.505   6.719   9.151 -0.3379  1.0238 -0.4709
  476MOL0     H65621  10.283   6.755   9.568 -0.3988 -0.4216  1.9120
  476MOL0     H65622  10.396   6.617   9.567 -0.4448 -0.5833  2.5869
  476MOL0     H65623  10.106   6.623   9.446 -2.0902  0.9922  4.3623
  476MOL0     H65624  10.217   6.480   9.449 -1.9259 -0.9999  1.9578
  476MOL0     H65625  10.114   6.647   9.691  0.6789  0.6028 -1.2139
  476MOL0     H65626  10.048   6.503   9.646  0.5869 -2.2734 -1.0739
  476MOL0     H65627  10.262   6.362   9.692 -2.7322 -0.8128 -0.3835
  476MOL0     H65628  10.328   6.506   9.773  1.4322 -3.3110  1.9630
  476MOL0     H65629  10.072   6.373   9.829 -0.3408  3.5403 -1.8076
  476MOL0     H65630  10.144   6.497   9.932 -1.1666 -1.7400  2.8381
  476MOL0     H65631  10.336   6.266   9.895  0.2505 -0.4738  1.8943
  476MOL0     H65632  10.271   6.343  10.035 -0.9125 -1.1818  0.5714
  476MOL0     H65633  10.222   6.089   9.966  0.8635  0.3544 -3.4220
  476MOL0     H65634  10.090   6.160   9.885  0.2518  0.3400  0.2053
  476MOL0     H65635  10.002   6.098  10.100 -0.4889  0.1720  1.2989
  476MOL0     H65636  10.149   6.165  10.190  0.9281  2.0688 -1.0958
  476MOL0     H65637  10.150   6.404  10.267 -0.9634  2.6768  1.5890
  476MOL0     H65638  10.007   6.590  10.407  0.9023  2.4721  0.5781
  476MOL0     H65639   9.870   6.663  10.327  0.3339  3.5195 -2.0911
  476MOL0     H65640  10.059   6.797  10.313  0.5285  1.1782 -1.2458
  476MOL0     H65641  10.153   6.696  10.233  0.0089  0.9265  2.0994
  476MOL0     H65642  10.061   6.839  10.082  0.5181 -0.4673  1.1559
  476MOL0     H65643  10.011   6.681  10.029 -3.9938 -0.8499  0.0161
  476MOL0     H65644   9.789   6.707  10.100 -2.6921  0.9642 -2.7478
  476MOL0     H65645   9.810   6.876  10.156 -1.0593 -2.1008  1.1861
  476MOL0     H65646   9.848   6.563   9.928  2.0037 -0.7090 -1.9877
  476MOL0     H65647   9.829   6.357   9.654 -0.0110 -1.2303  1.0435
  476MOL0     H65648   9.709   6.360   9.790  0.2695 -0.9280 -0.7658
  476MOL0     H65649   9.880   6.363   9.818 -0.4891 -1.2186 -0.2599
  476MOL0     H65650   9.571   6.418   9.265  0.1872 -0.3610 -1.1732
  476MOL0     H65651   9.559   6.346   9.035  1.0858 -0.4746 -1.1514
  476MOL0     H65652   9.411   6.511   8.832  0.0913  0.1838  0.4112
  476MOL0     H65653   9.512   6.652   8.763  2.1162  0.2371 -0.0583
  476MOL0     H65654   9.493   6.388   8.638 -0.2819  0.7418 -1.5980
  476MOL0     H65655   9.360   6.512   8.604 -0.4525  2.8775  2.1022
  476MOL0     H65656   9.661   6.572   8.562 -0.6399 -0.5278  2.5442
  476MOL0     H65657   9.517   6.666   8.512  2.7984  2.5806  3.3483
  476MOL0     H65658   9.462   6.445   8.372  0.9122 -1.0591 -0.2640
  476MOL0     H65659   9.634   6.408   8.409  0.6486  0.5555  0.3870
  476MOL0     H65660   9.684   6.638   8.310 -1.1389  0.2574  1.5037
  476MOL0     H65661   9.627   6.498   8.211 -1.4790 -0.3178  0.1717
  476MOL0     H65662   9.541   6.728   8.139 -1.2121 -1.2885 -1.8480
  476MOL0     H65663   9.422   6.717   8.273  1.3433  1.2642  1.0419
  476MOL0     H65664   9.305   6.615   8.117  0.5777  2.0266  3.1289
  476MOL0     H65665   9.410   6.462   8.164  2.3852  0.8918 -0.9645
  476MOL0     H65666   9.552   6.497   7.986  1.2135  2.3725  0.9715
  476MOL0     H65667   9.468   6.649   7.951  2.3664 -0.4129 -1.0352
  476MOL0     H65668   9.730   6.724   8.914  1.4792 -1.4620 -0.8820
  476MOL0     H65669   9.809   6.756   9.135  1.4793 -0.4469 -1.9709
  476MOL0     H65670   9.724   6.809   9.523  1.9990  1.1467  1.1252
  476MOL0     H65671   9.764   6.930   9.741 -2.2131 -0.5769  1.0527
  476MOL0     H65672  10.495   6.844   9.565 -2.5112 -2.6263 -0.2545
  476MOL0     H65673  10.719   6.917   9.547 -2.0676  3.3013 -1.5401
  476MOL0     H65674  11.163   6.749   9.531 -0.4107  1.1019  0.8896
  476MOL0     H65675  11.379   6.840   9.585 -1.0120  0.4733  1.0722
  476MOL0     H65676  11.500   6.986   9.696  1.3518 -1.6569 -0.5674
  476MOL0     H65677  11.601   6.974   9.542 -2.7790  0.7575 -1.6660
  476MOL0     H65678  11.720   7.083   9.711  0.3959  1.0618  1.6441
  476MOL0     H65679  11.585   7.195   9.747 -0.9265  0.2446 -0.3967
  476MOL0     H65680  11.707   7.212   9.467  2.7732  3.7225 -1.3290
  476MOL0     H65681  11.612   7.328   9.557 -0.4250 -0.9776 -1.1094
  476MOL0     H65682  11.813   7.341   9.716 -1.4001  0.1428 -0.4444
  476MOL0     H65683  11.835   7.395   9.547 -0.9962  0.4825  0.4937
  476MOL0     H65684  12.097   7.051   9.565  0.3743  0.8680  0.8082
  476MOL0     H65685  11.294   7.196   9.359  3.6386 -2.6138 -4.2493
  476MOL0     H65686  11.040   7.047   9.162 -1.8477  0.7056 -0.4472
  476MOL0     H65687  10.964   7.150   9.287 -1.0305 -0.2547  0.1730
  476MOL0     H65688  11.115   7.196   9.200  0.1911 -2.2289 -2.1650
  477MOL0     O65689  10.708   9.790   6.708 -1.1580 -0.0385  0.3941
  477MOL0     C65690  10.727   9.741   6.603 -0.4765 -0.1184  0.3923
  477MOL0     O65691  10.839   9.748   6.527 -0.3385 -0.4785 -0.2791
  477MOL0     C65692  10.934   9.843   6.562 -0.5295 -0.4087 -0.1353
  477MOL0     C65693  10.918   9.977   6.569 -0.0625  0.0555 -0.1352
  477MOL0     C65694  11.035  10.057   6.574  0.1543  0.6008  0.6044
  477MOL0     C65695  11.158  10.005   6.568  0.0905 -0.7803 -0.8242
  477MOL0     O65696  11.258  10.093   6.595  0.1043 -0.2349 -0.3106
  477MOL0     C65697  11.395  10.037   6.581 -0.0009 -0.7215  0.2981
  477MOL0     C65698  11.486  10.163   6.587 -0.6025  0.2348 -0.4872
  477MOL0     C65699  11.453  10.260   6.709 -0.2632 -0.2374  0.1003
  477MOL0     C65700  11.554  10.366   6.733 -0.6457 -0.3171  0.0711
  477MOL0     C65701  11.533  10.488   6.825 -0.1407 -0.4681 -0.1363
  477MOL0     C65702  11.673  10.564   6.806  0.8515 -0.1909  0.2741
  477MOL0     C65703  11.656  10.703   6.881 -0.2185  0.0547  0.0927
  477MOL0     C65704  11.792  10.764   6.882 -0.6491 -0.7763  0.0092
  477MOL0     N65705  11.887  10.670   6.931  0.0681 -0.2706  0.1005
  477MOL0     C65706  11.987  10.621   6.852 -0.2455  0.4596  0.1286
  477MOL0     C65707  12.039  10.518   6.926 -0.5643 -0.1126 -0.7512
  477MOL0     C65708  12.166  10.439   6.891  0.0085  0.4365 -0.0988
  477MOL0     C65709  12.141  10.291   6.895  0.5430  0.8642  0.0035
  477MOL0     C65710  12.268  10.201   6.911  0.0431 -0.5144 -0.0504
  477MOL0     C65711  12.255  10.059   6.886  1.0754  0.4012  0.1601
  477MOL0     O65712  12.268  10.058   6.744  0.7535 -0.7747 -0.9964
  477MOL0     C65713  12.214   9.961   6.675  0.7549 -0.6552 -0.5743
  477MOL0     C65714  12.201   9.832   6.711  0.7714 -0.3000 -0.0093
  477MOL0     C65715  12.141   9.736   6.633 -0.7521  0.3219 -0.2529
  477MOL0     C65716  12.123   9.591   6.695 -0.8410 -1.1691 -0.2081
  477MOL0     C65717  12.095   9.773   6.508  0.3154  0.5852 -0.1203
  477MOL0     C65718  12.028   9.681   6.408 -0.7277  0.3405 -0.1849
  477MOL0     O65719  11.998   9.728   6.281  0.6361  0.3556 -0.2289
  477MOL0     C65720  11.922   9.654   6.199  0.3606  0.0595 -0.3892
  477MOL0     C65721  11.963   9.577   6.091 -0.5580  0.8216 -0.1933
  477MOL0     C65722  11.869   9.532   5.995 -0.4484 -0.0377  0.1696
  477MOL0     C65723  11.739   9.560   6.009  0.9762 -0.1276  0.4168
  477MOL0     O65724  11.658   9.503   5.909 -0.2489 -0.0523 -0.1059
  477MOL0     C65725  11.519   9.542   5.893  0.5526 -0.4619 -0.7948
  477MOL0     C65726  11.463   9.454   5.790  0.3120 -0.0546 -0.1774
  477MOL0     C65727  11.318   9.484   5.757  0.8206  0.4802 -0.3716
  477MOL0     C65728  11.299   9.614   5.677  1.0731  0.3380 -0.0107
  477MOL0     C65729  11.217   9.724   5.747 -0.3342  0.2319 -0.4664
  477MOL0     C65730  11.209   9.853   5.664 -0.3917 -0.1196 -0.0568
  477MOL0     C65731  11.355   9.914   5.649 -0.3604 -0.2348 -0.7240
  477MOL0     C65732  11.375  10.041   5.575  0.1668 -0.9848  0.7115
  477MOL0    Cl65733  11.339  10.012   5.395 -0.0130 -0.1020  0.2574
  477MOL0     C65734  11.691   9.635   6.113  0.0222 -0.4953 -0.3586
  477MOL0     C65735  11.783   9.686   6.207 -0.4105 -0.7657  0.4771
  477MOL0     O65736  12.007   9.571   6.444 -0.7359  0.3214 -0.2736
  477MOL0     C65737  12.144   9.897   6.456 -0.7489 -0.4443 -0.1455
  477MOL0     C65738  12.204   9.987   6.539 -0.4211  0.0135 -0.3049
  477MOL0     N65739  11.976  10.522   7.049  0.2992  0.5140  0.4173
  477MOL0     N65740  11.888  10.613   7.057 -0.6721  0.4229 -1.3417
  477MOL0     C65741  11.178   9.865   6.566 -0.3406  0.3389 -0.3498
  477MOL0     C65742  11.060   9.781   6.567  0.1415 -0.5242  0.3977
  477MOL0     C65743  10.618   9.655   6.541  0.6508 -0.0119 -0.2684
  477MOL0     C65744  10.635   9.582   6.424  0.2732  0.4539  0.9128
  477MOL0     C65745  10.537   9.509   6.353  0.2900 -0.5724 -0.6660
  477MOL0     C65746  10.411   9.503   6.405  0.2015  0.4202  0.4346
  477MOL0     O65747  10.307   9.426   6.357 -0.1139  0.7127  0.7543
  477MOL0     C65748  10.310   9.363   6.230  0.6068 -0.0444  0.8244
  477MOL0     C65749  10.305   9.464   6.112 -0.4571  0.9712  1.0758
  477MOL0     C65750  10.232   9.419   5.981  0.6188  0.5037  0.7901
  477MOL0     C65751  10.088   9.365   6.010  0.3174 -0.0215  0.0130
  477MOL0     C65752  10.001   9.453   6.086 -0.3897 -0.1100  0.2822
  477MOL0     C65753   9.925   9.527   6.141 -0.1234  0.3127 -0.4750
  477MOL0     C65754  10.378   9.583   6.518 -0.2310 -0.5281 -0.5795
  477MOL0     C65755  10.483   9.657   6.585 -0.3993  0.8406 -1.1038
  477MOL0     C65756  10.437   9.732   6.712 -0.1539 -0.1587  0.2130
  477MOL0     H65757  10.818  10.018   6.563 -1.6452 -2.9778  2.6103
  477MOL0     H65758  11.023  10.163   6.594 -0.4021  0.9142 -1.1704
  477MOL0     H65759  11.417   9.991   6.485  3.2771  1.1268 -0.0077
  477MOL0     H65760  11.410   9.970   6.666 -0.6825 -0.7285  0.4196
  477MOL0     H65761  11.585  10.122   6.607 -0.7788  0.1839  0.2901
  477MOL0     H65762  11.477  10.222   6.495 -0.4782  0.7619 -0.1626
  477MOL0     H65763  11.359  10.304   6.674  1.0642  0.5239 -2.8507
  477MOL0     H65764  11.442  10.201   6.800 -1.6922 -0.6005 -0.2804
  477MOL0     H65765  11.629  10.305   6.784 -1.1683  0.4371  1.7765
  477MOL0     H65766  11.602  10.402   6.641  0.2855  0.2377  0.7657
  477MOL0     H65767  11.501  10.458   6.925  0.6218  2.6996  1.1945
  477MOL0     H65768  11.463  10.567   6.797 -0.5039 -0.8598 -0.3535
  477MOL0     H65769  11.750  10.492   6.835 -1.6564 -2.9836  0.5029
  477MOL0     H65770  11.692  10.597   6.704 -0.0335 -0.3080  0.0615
  477MOL0     H65771  11.620  10.693   6.984  1.0494  3.9909  1.1052
  477MOL0     H65772  11.582  10.764   6.827  0.3753 -1.9024 -3.1992
  477MOL0     H65773  11.831  10.807   6.789  3.6342  1.5443  2.5113
  477MOL0     H65774  11.791  10.858   6.939  0.5187 -0.1135 -1.0047
  477MOL0     H65775  12.032  10.666   6.764  2.0817  2.1185  2.0343
  477MOL0     H65776  12.244  10.459   6.966 -1.1560 -0.2856  1.3702
  477MOL0     H65777  12.196  10.464   6.789  2.6018 -1.1479  0.1627
  477MOL0     H65778  12.076  10.279   6.982  1.2639  2.5198  0.8222
  477MOL0     H65779  12.094  10.255   6.803  0.6140  0.7151  0.0253
  477MOL0     H65780  12.350  10.229   6.844  0.2474 -2.5289 -0.7152
  477MOL0     H65781  12.303  10.203   7.014 -0.5168  0.7573  0.1363
  477MOL0     H65782  12.328   9.998   6.939  0.6233 -0.0589  0.2529
  477MOL0     H65783  12.155  10.023   6.912  0.7366  0.8899 -0.4276
  477MOL0     H65784  12.240   9.798   6.807  0.2790 -0.6460  0.0717
  477MOL0     H65785  12.145   9.598   6.802 -0.9087 -1.4565 -0.1759
  477MOL0     H65786  12.196   9.519   6.657  1.2803  0.6027  0.3159
  477MOL0     H65787  12.019   9.558   6.687 -2.2697  2.6926  0.3391
  477MOL0     H65788  12.066   9.541   6.087  0.3662  3.3524 -1.2972
  477MOL0     H65789  11.892   9.465   5.913  0.1663  0.8647 -0.4089
  477MOL0     H65790  11.471   9.535   5.991  0.4912 -2.4292 -0.9213
  477MOL0     H65791  11.529   9.644   5.856 -0.0914 -0.3261 -0.6068
  477MOL0     H65792  11.517   9.461   5.695 -2.0409 -0.5310 -1.6332
  477MOL0     H65793  11.470   9.348   5.817  0.0854 -0.2652 -0.9184
  477MOL0     H65794  11.256   9.489   5.847  1.2954  0.5149 -0.0394
  477MOL0     H65795  11.294   9.399   5.693 -1.7860  2.2535 -1.9206
  477MOL0     H65796  11.255   9.577   5.584 -0.1986 -1.6359  1.3036
  477MOL0     H65797  11.392   9.650   5.631 -1.5646  2.5251 -4.3286
  477MOL0     H65798  11.116   9.686   5.765 -0.2099  0.6193  1.2287
  477MOL0     H65799  11.268   9.753   5.839  0.2848 -0.8527 -0.4418
  477MOL0     H65800  11.140   9.919   5.717 -2.2460 -3.2411  1.7187
  477MOL0     H65801  11.170   9.826   5.565 -3.2570 -1.5731  1.3501
  477MOL0     H65802  11.424   9.844   5.600  1.6736  1.7531 -0.8263
  477MOL0     H65803  11.401   9.925   5.747  2.4018 -1.2028 -1.8149
  477MOL0     H65804  11.473  10.090   5.579  2.1798 -4.4058 -0.8820
  477MOL0     H65805  11.291  10.103   5.605  0.3006  0.2936 -1.3551
  477MOL0     H65806  11.587   9.666   6.115  0.7097  2.1532 -1.1385
  477MOL0     H65807  11.761   9.745   6.295  2.9038 -2.0024  2.3370
  477MOL0     H65808  12.119   9.939   6.359  0.3053 -1.1417 -0.7313
  477MOL0     H65809  12.217  10.089   6.502 -0.4853 -1.0742 -3.6884
  477MOL0     H65810  11.278   9.823   6.562  0.1172  1.4325 -0.5985
  477MOL0     H65811  11.059   9.672   6.561  2.2752 -0.5712 -0.0590
  477MOL0     H65812  10.734   9.590   6.379 -0.6580 -1.2043 -1.6957
  477MOL0     H65813  10.569   9.452   6.267 -0.1978 -3.1751  0.7615
  477MOL0     H65814  10.399   9.299   6.219 -0.0445 -0.7361 -0.7338
  477MOL0     H65815  10.218   9.307   6.210  0.7740  0.5343 -2.1118
  477MOL0     H65816  10.410   9.474   6.085 -0.8557  0.0615 -0.9646
  477MOL0     H65817  10.256   9.559   6.134 -0.1426  1.3489  0.1828
  477MOL0     H65818  10.229   9.512   5.922  0.1849  1.1458  1.8025
  477MOL0     H65819  10.285   9.342   5.925 -3.2244 -1.1478 -0.9790
  477MOL0     H65820  10.086   9.267   6.059 -1.0284 -1.2635 -2.3643
  477MOL0     H65821  10.045   9.348   5.911 -0.2217  0.0549  0.2316
  477MOL0     H65822   9.862   9.595   6.194 -0.2124 -0.3695  0.3275
  477MOL0     H65823  10.273   9.576   6.546 -0.7120  2.0071 -1.4684
  477MOL0     H65824  10.464   9.838   6.712  2.0396 -0.5696 -2.9212
  477MOL0     H65825  10.332   9.707   6.729 -0.1089  0.3417  1.3194
  477MOL0     H65826  10.490   9.686   6.796  1.0584  0.1745 -0.3341
  478MOL0     O65827  10.581   3.367   8.224  0.0750 -0.1474 -0.1161
  478MOL0     C65828  10.532   3.257   8.250 -0.2059 -0.8509 -0.0536
  478MOL0     O65829  10.403   3.232   8.286 -0.3017  0.6087  0.4590
  478MOL0     C65830  10.307   3.331   8.319  1.2207 -0.2560  0.4463
  478MOL0     C65831  10.328   3.466   8.338  0.0280  0.6342  1.0097
  478MOL0     C65832  10.226   3.546   8.373  0.3331 -0.7007  0.5639
  478MOL0     C65833  10.098   3.512   8.389  1.0829  0.2736 -0.1458
  478MOL0     O65834  10.001   3.603   8.412 -0.0251  0.5665 -1.4081
  478MOL0     C65835   9.861   3.571   8.420  0.3943  0.1395 -0.0606
  478MOL0     C65836   9.799   3.704   8.442 -0.5976 -0.0881  0.6966
  478MOL0     C65837   9.650   3.699   8.483 -0.2843  0.1958 -0.7388
  478MOL0     C65838   9.560   3.601   8.394 -1.4466 -0.0040  0.0414
  478MOL0     C65839   9.414   3.627   8.406 -0.6969 -0.7734  0.0539
  478MOL0     C65840   9.363   3.633   8.549  0.0048  0.0115 -0.4206
  478MOL0     C65841   9.385   3.502   8.634 -0.0124 -0.3463  0.7909
  478MOL0     C65842   9.310   3.379   8.574 -0.8455  0.0426 -0.0805
  478MOL0     N65843   9.334   3.259   8.647  0.2697 -0.3695 -0.1247
  478MOL0     C65844   9.446   3.183   8.653 -0.3100  0.6177  0.6662
  478MOL0     C65845   9.417   3.063   8.701 -0.3008  0.6060 -0.7469
  478MOL0     C65846   9.515   2.950   8.737 -0.7725  0.3757 -0.1405
  478MOL0     C65847   9.497   2.833   8.643  0.6792 -0.2849  0.2427
  478MOL0     C65848   9.579   2.708   8.681  0.0010 -1.1162 -0.2976
  478MOL0     C65849   9.693   2.670   8.587  0.0919  0.2797 -0.1696
  478MOL0     O65850   9.815   2.751   8.598 -0.4818 -0.5360  0.1638
  478MOL0     C65851   9.899   2.759   8.488  0.1381  0.3618  0.5789
  478MOL0     C65852  10.015   2.832   8.500  0.5595 -0.0407 -0.0164
  478MOL0     C65853  10.112   2.831   8.402 -0.1757 -0.4935  0.8433
  478MOL0     C65854  10.242   2.907   8.431 -0.4512 -0.0316 -0.4038
  478MOL0     C65855  10.092   2.746   8.291  0.6661  0.7301 -0.6306
  478MOL0     C65856  10.198   2.724   8.201 -0.3900 -0.7022  0.0498
  478MOL0     O65857  10.169   2.682   8.077  0.2054  0.0670  0.0840
  478MOL0     C65858  10.249   2.610   7.991  0.4874  0.7420 -0.2940
  478MOL0     C65859  10.344   2.512   8.033  0.1529  0.6966 -0.2336
  478MOL0     C65860  10.387   2.415   7.935  1.1561  0.1941 -0.1461
  478MOL0     C65861  10.357   2.431   7.800  0.2697  0.0791  0.2877
  478MOL0     O65862  10.442   2.360   7.710 -0.3917 -0.6890  0.0719
  478MOL0     C65863  10.432   2.393   7.572  0.1563 -0.8651 -0.3281
  478MOL0     C65864  10.515   2.312   7.479  0.4257  0.0556  0.2482
  478MOL0     C65865  10.650   2.274   7.541 -0.0029  0.3349 -0.5618
  478MOL0     C65866  10.724   2.184   7.445  0.9333 -0.5872 -0.6645
  478MOL0     C65867  10.867   2.158   7.492 -0.5539  0.9100  0.5799
  478MOL0     C65868  10.966   2.256   7.439  0.3187 -0.3921  0.2258
  478MOL0     C65869  11.114   2.227   7.489 -0.4484 -0.3679 -0.7217
  478MOL0     C65870  11.212   2.287   7.392 -0.4378 -0.4492 -0.4402
  478MOL0    Cl65871  11.209   2.177   7.243  0.1211  0.0118  0.2724
  478MOL0     C65872  10.265   2.533   7.763 -0.3886  0.2804 -0.0058
  478MOL0     C65873  10.210   2.615   7.859 -0.6412 -0.5057  0.1716
  478MOL0     O65874  10.314   2.727   8.233  0.7384  0.0302 -0.3578
  478MOL0     C65875   9.980   2.662   8.284 -1.0689 -0.7510  1.1378
  478MOL0     C65876   9.888   2.666   8.377 -0.4382  0.5274  0.9692
  478MOL0     N65877   9.278   3.073   8.736  0.1903 -0.3997 -0.4483
  478MOL0     N65878   9.231   3.189   8.703  0.6157  0.1807  0.5822
  478MOL0     C65879  10.073   3.372   8.375  0.3294  0.1652 -0.1247
  478MOL0     C65880  10.177   3.284   8.341  0.3115 -0.5674 -0.4068
  478MOL0     C65881  10.602   3.129   8.208 -0.3637  0.5662  0.7146
  478MOL0     C65882  10.519   3.017   8.185  0.1414 -1.0893 -0.1291
  478MOL0     C65883  10.561   2.899   8.138  0.5840  0.8119 -0.0854
  478MOL0     C65884  10.694   2.884   8.100 -0.5444  0.5410 -0.9445
  478MOL0     O65885  10.754   2.768   8.041  0.1005  0.4781  0.0034
  478MOL0     C65886  10.672   2.660   8.005 -0.3095 -0.2389  0.6819
  478MOL0     C65887  10.724   2.559   7.898  0.1044 -0.7609 -0.9681
  478MOL0     C65888  10.868   2.517   7.939  0.4163  0.6946 -0.4543
  478MOL0     C65889  10.914   2.392   7.868  0.5695  0.0413  0.2693
  478MOL0     C65890  10.822   2.280   7.883  1.2238 -0.1361 -0.7647
  478MOL0     C65891  10.748   2.181   7.884 -0.0234  1.0254  0.8155
  478MOL0     C65892  10.782   2.995   8.117  0.1336 -0.0346  0.3655
  478MOL0     C65893  10.734   3.115   8.166  0.1409  0.1385 -0.4230
  478MOL0     C65894  10.834   3.223   8.208 -0.0784 -0.2940 -0.5082
  478MOL0     H65895  10.425   3.505   8.307  2.6081 -2.5854  4.1584
  478MOL0     H65896  10.253   3.652   8.374 -2.0595  0.1567 -3.4514
  478MOL0     H65897   9.825   3.508   8.502 -3.5721  0.7374 -1.1264
  478MOL0     H65898   9.834   3.522   8.326  3.5313  0.1042 -1.0749
  478MOL0     H65899   9.861   3.761   8.512 -0.5656  1.0812 -0.2500
  478MOL0     H65900   9.788   3.763   8.351  1.3604  0.3385  0.6841
  478MOL0     H65901   9.642   3.662   8.585  0.0373  1.3904 -0.2629
  478MOL0     H65902   9.623   3.805   8.481  1.0584  0.5714  0.0476
  478MOL0     H65903   9.596   3.617   8.292  2.1184  0.5040  1.2416
  478MOL0     H65904   9.576   3.493   8.406 -1.1557  0.2202  2.0787
  478MOL0     H65905   9.377   3.547   8.342 -1.3699 -0.7704  0.4246
  478MOL0     H65906   9.393   3.723   8.357 -0.5821 -1.3044 -1.0377
  478MOL0     H65907   9.412   3.714   8.604  3.2281 -2.1482  0.1634
  478MOL0     H65908   9.256   3.653   8.538  0.0660 -0.1452 -1.3811
  478MOL0     H65909   9.344   3.527   8.732 -0.0195  3.2215  0.0064
  478MOL0     H65910   9.492   3.482   8.643  0.1418  0.0686 -0.0821
  478MOL0     H65911   9.206   3.410   8.563 -0.5141  1.2624  0.0078
  478MOL0     H65912   9.355   3.363   8.476 -1.4017 -1.7142 -0.0715
  478MOL0     H65913   9.544   3.220   8.625  0.4788 -2.3681 -0.8375
  478MOL0     H65914   9.508   2.913   8.839  1.2915 -0.2640 -0.1884
  478MOL0     H65915   9.615   2.993   8.729 -0.6032  0.1141  0.5854
  478MOL0     H65916   9.389   2.813   8.646  0.4823 -0.6173 -3.6174
  478MOL0     H65917   9.517   2.865   8.541 -0.0347  4.2041  1.2761
  478MOL0     H65918   9.615   2.725   8.783 -0.5705  0.2060 -0.2961
  478MOL0     H65919   9.508   2.625   8.678 -1.0296 -0.2692  0.3139
  478MOL0     H65920   9.721   2.568   8.612  0.9536  0.5182 -0.1295
  478MOL0     H65921   9.642   2.672   8.490 -0.7743  0.0039  0.2715
  478MOL0     H65922  10.049   2.883   8.590  0.6764 -1.5692  0.8354
  478MOL0     H65923  10.284   2.868   8.525  1.3827 -2.1825 -2.0062
  478MOL0     H65924  10.214   3.011   8.454 -1.6678 -0.2465 -0.8613
  478MOL0     H65925  10.320   2.920   8.355  1.8095  0.9176  1.9115
  478MOL0     H65926  10.379   2.510   8.136  1.0678  2.3319 -0.4822
  478MOL0     H65927  10.452   2.336   7.971 -0.4089 -1.2301 -0.3249
  478MOL0     H65928  10.326   2.381   7.547 -0.8183  1.7650  2.0459
  478MOL0     H65929  10.454   2.499   7.555 -2.1181 -0.4270 -0.7622
  478MOL0     H65930  10.461   2.220   7.456  1.8070 -1.1674  1.6926
  478MOL0     H65931  10.526   2.374   7.390  3.8588  0.3012  0.7104
  478MOL0     H65932  10.643   2.221   7.636  0.4500  0.6309 -0.3562
  478MOL0     H65933  10.706   2.365   7.567  0.3959 -0.5649  1.9250
  478MOL0     H65934  10.714   2.212   7.339  1.7304 -0.4516 -0.7084
  478MOL0     H65935  10.659   2.097   7.458 -3.8430  2.7582  0.2050
  478MOL0     H65936  10.860   2.161   7.601  1.3382  2.2513  0.7250
  478MOL0     H65937  10.917   2.064   7.465  0.0016  2.2730 -3.9305
  478MOL0     H65938  10.924   2.352   7.472  0.3085 -0.8251  1.5443
  478MOL0     H65939  10.963   2.257   7.330 -2.3754  1.0768  0.2262
  478MOL0     H65940  11.127   2.119   7.498 -1.6715 -0.3506  2.7536
  478MOL0     H65941  11.131   2.270   7.588  3.4082 -0.3636 -1.2651
  478MOL0     H65942  11.310   2.266   7.436 -0.7564  1.5687  1.3886
  478MOL0     H65943  11.197   2.394   7.374 -1.7726  0.0387  2.8173
  478MOL0     H65944  10.230   2.550   7.662 -3.5358 -2.4043  0.4557
  478MOL0     H65945  10.139   2.695   7.842  1.5131  1.7207  0.9356
  478MOL0     H65946   9.972   2.595   8.200  1.9698 -0.3702  0.4048
  478MOL0     H65947   9.802   2.603   8.359 -0.0450  0.5703 -1.4002
  478MOL0     H65948   9.971   3.336   8.374 -0.5912  2.4943  1.6022
  478MOL0     H65949  10.154   3.179   8.329  3.6625 -1.2601 -1.7028
  478MOL0     H65950  10.412   3.022   8.204  0.2362 -1.4227  0.5153
  478MOL0     H65951  10.500   2.809   8.131  1.6250  0.1101 -0.2995
  478MOL0     H65952  10.638   2.610   8.096  0.9512  0.3662  1.5185
  478MOL0     H65953  10.587   2.705   7.953  3.3005  3.3113 -2.8892
  478MOL0     H65954  10.728   2.610   7.802 -0.0120 -1.9581 -1.6262
  478MOL0     H65955  10.659   2.471   7.904  2.7492 -2.7874  1.1754
  478MOL0     H65956  10.934   2.597   7.904  0.7581  0.4560 -0.3527
  478MOL0     H65957  10.880   2.498   8.046  3.8333  3.3546 -0.1859
  478MOL0     H65958  11.011   2.363   7.908  1.3292  1.5545 -0.3771
  478MOL0     H65959  10.928   2.419   7.763  2.0886 -0.8482  0.2080
  478MOL0     H65960  10.698   2.086   7.873  2.4919 -0.2926 -0.1256
  478MOL0     H65961  10.889   2.996   8.096  0.6160  2.3798  2.4500
  478MOL0     H65962  10.929   3.187   8.248 -0.2077  0.0017  0.0719
  478MOL0     H65963  10.867   3.288   8.126  2.4124  0.7356  1.2021
  478MOL0     H65964  10.790   3.283   8.288  0.1501 -1.2936  0.3936
  479MOL0     O65965  10.837   8.773   6.092  0.2514  0.0994 -1.0526
  479MOL0     C65966  10.734   8.720   6.052 -0.6867 -0.8247  0.5161
  479MOL0     O65967  10.699   8.589   6.067 -0.9135 -0.9856 -0.2534
  479MOL0     C65968  10.749   8.504   6.165  0.1932  0.1830 -0.2594
  479MOL0     C65969  10.883   8.505   6.219 -0.0972  0.2892  0.3775
  479MOL0     C65970  10.925   8.398   6.294  0.4651 -0.9315  0.9452
  479MOL0     C65971  10.841   8.308   6.339 -0.6380 -0.2359  0.2749
  479MOL0     O65972  10.884   8.209   6.434 -0.2818  0.0349  0.2348
  479MOL0     C65973  10.782   8.186   6.536 -0.6208 -0.3841 -1.0870
  479MOL0     C65974  10.864   8.174   6.668 -0.1742  0.4998 -0.0223
  479MOL0     C65975  10.761   8.174   6.780 -0.0431 -0.2047 -0.5178
  479MOL0     C65976  10.825   8.177   6.924  0.0322  0.3955  0.1550
  479MOL0     C65977  10.719   8.143   7.030 -0.0738  0.2284 -0.3456
  479MOL0     C65978  10.772   8.188   7.170 -0.0167 -0.5085  0.1071
  479MOL0     C65979  10.858   8.079   7.237 -0.7201 -0.1681  0.9924
  479MOL0     C65980  10.790   7.942   7.254  0.2649 -0.3665  0.6300
  479MOL0     N65981  10.668   7.965   7.338 -0.0999 -0.0085  0.3874
  479MOL0     C65982  10.649   7.971   7.473 -0.2605  0.5435  0.4301
  479MOL0     C65983  10.527   8.017   7.494  0.9263 -0.2535  0.9028
  479MOL0     C65984  10.474   8.046   7.626  0.1682  0.0186 -0.5734
  479MOL0     C65985  10.375   7.921   7.657  0.4996 -0.3387 -0.2381
  479MOL0     C65986  10.292   7.953   7.784  0.2401 -0.5042 -0.0838
  479MOL0     C65987  10.362   7.917   7.912  0.5272  0.5955 -0.2324
  479MOL0     O65988  10.441   7.792   7.899 -0.0343 -0.7524  0.4514
  479MOL0     C65989  10.381   7.682   7.957 -0.3945 -0.4909  0.4662
  479MOL0     C65990  10.310   7.596   7.864  0.0566  0.5299 -1.2886
  479MOL0     C65991  10.245   7.478   7.913  0.1401  0.7451  0.2246
  479MOL0     C65992  10.160   7.408   7.814  0.2385  0.5356 -0.4359
  479MOL0     C65993  10.257   7.443   8.053 -0.2391 -0.7018 -0.5822
  479MOL0     C65994  10.204   7.311   8.120 -0.0327 -0.0797 -0.1883
  479MOL0     O65995  10.283   7.270   8.237 -0.7595  0.1481  0.6843
  479MOL0     C65996  10.272   7.147   8.287 -0.5792  0.9968  0.2627
  479MOL0     C65997  10.331   7.130   8.408 -0.0754 -0.0825  0.4828
  479MOL0     C65998  10.338   7.004   8.476  0.2662  0.1749 -0.6852
  479MOL0     C65999  10.284   6.886   8.423 -0.0449 -0.4996  0.2793
  479MOL0     O66000  10.282   6.769   8.489  0.2688 -1.1323  0.0946
  479MOL0     C66001  10.390   6.730   8.575 -0.8880  0.1482 -0.2786
  479MOL0     C66002  10.356   6.586   8.628 -0.3370  0.4510  0.8151
  479MOL0     C66003  10.475   6.491   8.655  0.6320 -0.1139 -0.1214
  479MOL0     C66004  10.494   6.478   8.808  0.1991 -0.6861 -0.0341
  479MOL0     C66005  10.640   6.422   8.841  0.1156  1.1810  0.6810
  479MOL0     C66006  10.694   6.470   8.972 -0.3048 -0.6873  0.2634
  479MOL0     C66007  10.604   6.442   9.093  0.5361 -0.2524 -0.5131
  479MOL0     C66008  10.570   6.297   9.095 -0.0860  0.5163  0.0843
  479MOL0    Cl66009  10.508   6.269   9.257 -0.1662  0.2856 -0.4926
  479MOL0     C66010  10.212   6.902   8.300 -0.1335  0.5200 -0.1902
  479MOL0     C66011  10.216   7.025   8.229 -0.0310  0.2347 -0.5271
  479MOL0     O66012  10.108   7.247   8.067  0.2083  0.4624 -0.2919
  479MOL0     C66013  10.337   7.531   8.134 -0.4444 -0.3152 -1.7527
  479MOL0     C66014  10.387   7.649   8.092 -0.0195 -0.4589  0.0055
  479MOL0     N66015  10.471   8.039   7.370  0.1617  0.0956  0.9510
  479MOL0     N66016  10.554   8.016   7.279  0.0821  0.2197 -0.3067
  479MOL0     C66017  10.709   8.308   6.294 -0.4168  0.0236 -0.6669
  479MOL0     C66018  10.667   8.405   6.208  0.2713 -0.3662 -0.0029
  479MOL0     C66019  10.633   8.799   5.971 -0.2228  0.4423 -1.0252
  479MOL0     C66020  10.494   8.776   5.970  0.1658  0.5412 -0.7054
  479MOL0     C66021  10.408   8.868   5.909  0.6384 -0.3514 -0.3825
  479MOL0     C66022  10.445   8.988   5.858  0.5110 -0.3357  0.0565
  479MOL0     O66023  10.369   9.086   5.798  0.5732 -0.4051  0.5044
  479MOL0     C66024  10.226   9.066   5.767 -0.0606 -0.0792 -0.0864
  479MOL0     C66025  10.172   9.177   5.680 -0.0037  1.0297  1.3768
  479MOL0     C66026  10.023   9.159   5.625 -1.0362  0.0437 -0.1745
  479MOL0     C66027   9.993   9.295   5.547 -0.4030  0.4504 -0.9584
  479MOL0     C66028   9.875   9.282   5.468  0.1119 -0.1207  0.1210
  479MOL0     C66029   9.783   9.284   5.388  0.2438  0.6472  0.1503
  479MOL0     C66030  10.581   9.004   5.855  0.5370  0.0776  0.3388
  479MOL0     C66031  10.679   8.916   5.904 -1.0059  0.4672  0.2390
  479MOL0     C66032  10.818   8.952   5.874 -0.3058 -1.0170  0.6426
  479MOL0     H66033  10.962   8.577   6.201  0.9955 -1.0850 -0.6163
  479MOL0     H66034  11.026   8.417   6.330  0.5129  0.6177  0.0677
  479MOL0     H66035  10.741   8.086   6.520 -0.6952 -0.4066 -0.7712
  479MOL0     H66036  10.712   8.269   6.553 -0.1267 -0.4040  1.5567
  479MOL0     H66037  10.923   8.082   6.673 -0.0431  0.5157 -0.9511
  479MOL0     H66038  10.935   8.256   6.682 -1.7986  2.0720 -0.5310
  479MOL0     H66039  10.699   8.264   6.775 -1.2838 -0.9705  0.4307
  479MOL0     H66040  10.697   8.087   6.766  0.1215 -0.4316  0.0843
  479MOL0     H66041  10.900   8.097   6.929 -0.7420 -0.4774 -1.3372
  479MOL0     H66042  10.867   8.277   6.936 -0.2689  0.4064  1.2538
  479MOL0     H66043  10.682   8.042   7.049 -2.9470  1.5697  1.9558
  479MOL0     H66044  10.628   8.200   7.011 -1.2165  0.5277  4.5749
  479MOL0     H66045  10.836   8.276   7.166  0.6175 -0.9459  0.4254
  479MOL0     H66046  10.688   8.225   7.230  2.2160  2.6329  1.5671
  479MOL0     H66047  10.881   8.115   7.338 -0.3478  1.1260  0.4533
  479MOL0     H66048  10.949   8.070   7.177 -1.1156  0.6531  0.2516
  479MOL0     H66049  10.756   7.891   7.163 -1.6247  2.1135 -0.1722
  479MOL0     H66050  10.854   7.872   7.308 -1.1919 -2.1798  0.1425
  479MOL0     H66051  10.725   7.944   7.545  2.0351  2.5213 -1.0905
  479MOL0     H66052  10.423   8.142   7.634  1.2783  0.4901  1.9686
  479MOL0     H66053  10.551   8.056   7.703 -3.1353  1.5790  2.8206
  479MOL0     H66054  10.314   7.912   7.567 -1.7328  2.3033  0.8638
  479MOL0     H66055  10.425   7.826   7.676 -0.0983 -0.5208  0.4741
  479MOL0     H66056  10.262   8.058   7.791  1.8658 -0.1216  4.1077
  479MOL0     H66057  10.202   7.890   7.782 -1.5962  1.9424  0.7799
  479MOL0     H66058  10.423   8.004   7.935  2.4606 -0.8825  0.5302
  479MOL0     H66059  10.283   7.901   7.986  1.1719  1.6025  0.6838
  479MOL0     H66060  10.303   7.640   7.765  0.7217  1.3019 -0.9980
  479MOL0     H66061  10.161   7.448   7.713 -2.1618  0.7970 -0.4191
  479MOL0     H66062  10.063   7.421   7.863  0.8998  0.1927  1.0353
  479MOL0     H66063  10.176   7.300   7.812  2.2517  0.8116 -0.7829
  479MOL0     H66064  10.372   7.220   8.453 -0.9478  0.7652 -0.3872
  479MOL0     H66065  10.367   7.011   8.581 -0.9404  1.7518 -0.4221
  479MOL0     H66066  10.489   6.737   8.530 -0.6470  0.1089  0.2421
  479MOL0     H66067  10.383   6.795   8.663  0.3738  1.6883 -1.2648
  479MOL0     H66068  10.294   6.597   8.717 -0.8270 -0.3257  0.5775
  479MOL0     H66069  10.289   6.537   8.556 -1.0697  1.0832  1.0446
  479MOL0     H66070  10.565   6.540   8.617  0.6157 -0.8298 -1.1159
  479MOL0     H66071  10.449   6.401   8.598 -0.1896  0.5103 -0.7552
  479MOL0     H66072  10.417   6.418   8.858  0.8182 -0.7943  0.8125
  479MOL0     H66073  10.482   6.580   8.844 -0.0968 -0.6202 -0.3164
  479MOL0     H66074  10.631   6.314   8.829 -2.6180  1.6466 -3.0111
  479MOL0     H66075  10.703   6.455   8.758 -0.7465 -2.8004 -1.8190
  479MOL0     H66076  10.695   6.579   8.967  2.1357 -0.6016  1.4662
  479MOL0     H66077  10.794   6.427   8.985 -0.9596 -2.9312 -1.4308
  479MOL0     H66078  10.521   6.513   9.099  0.6577  0.1320 -2.6096
  479MOL0     H66079  10.661   6.465   9.183 -3.4246  0.9904  1.9603
  479MOL0     H66080  10.659   6.238   9.077  0.2894  1.2017 -0.3413
  479MOL0     H66081  10.492   6.290   9.019  2.8860  2.1967 -3.4286
  479MOL0     H66082  10.146   6.822   8.269 -1.3986  0.9145  1.3225
  479MOL0     H66083  10.154   7.034   8.141 -2.7603  2.3558  1.4108
  479MOL0     H66084  10.346   7.520   8.241  0.0193 -0.7063 -1.8291
  479MOL0     H66085  10.434   7.717   8.162 -0.9810  0.7435 -0.4791
  479MOL0     H66086  10.640   8.229   6.324  2.4794 -2.2109  0.6338
  479MOL0     H66087  10.567   8.398   6.165 -0.1253  0.6954  0.7013
  479MOL0     H66088  10.453   8.693   6.026 -0.9212  1.6505  0.2009
  479MOL0     H66089  10.302   8.845   5.918  0.1249  2.1272  0.9827
  479MOL0     H66090  10.201   8.965   5.733 -1.7344 -0.2406  1.4869
  479MOL0     H66091  10.171   9.081   5.860  0.9428  0.1304  0.4826
  479MOL0     H66092  10.234   9.185   5.590 -2.8723 -1.3829 -1.0248
  479MOL0     H66093  10.169   9.269   5.740 -1.2569  1.6495  0.3963
  479MOL0     H66094  10.021   9.073   5.557 -1.3271  0.2193 -0.3877
  479MOL0     H66095   9.949   9.151   5.705 -1.3784 -0.4565 -0.5386
  479MOL0     H66096  10.073   9.325   5.478 -3.2175  2.8658 -3.4842
  479MOL0     H66097   9.970   9.376   5.617 -0.8116 -0.0375 -0.5248
  479MOL0     H66098   9.705   9.309   5.319 -0.9049  0.8747  1.4784
  479MOL0     H66099  10.599   9.101   5.809 -3.6568  0.2114 -1.5122
  479MOL0     H66100  10.884   8.874   5.834  0.9170  2.0414 -4.0645
  479MOL0     H66101  10.826   9.028   5.796  0.1234 -2.1073 -0.4116
  479MOL0     H66102  10.868   8.984   5.966 -2.4406  2.9252  0.6042
  480MOL0     O66103   7.685   6.250   1.889 -0.2512  0.4849  0.0624
  480MOL0     C66104   7.688   6.138   1.945 -0.1742  0.2901  0.6367
  480MOL0     O66105   7.753   6.106   2.064 -0.2705  0.2851  0.0444
  480MOL0     C66106   7.770   6.212   2.166 -0.2847  0.3328  0.4309
  480MOL0     C66107   7.692   6.332   2.183 -0.9267 -0.6617  0.4833
  480MOL0     C66108   7.697   6.412   2.302  0.4021 -0.6747 -0.2259
  480MOL0     C66109   7.783   6.379   2.406 -0.0516  0.3623 -0.3301
  480MOL0     O66110   7.824   6.446   2.519 -0.3389 -0.2552 -0.7184
  480MOL0     C66111   7.752   6.555   2.555 -0.5504 -0.2354  0.3443
  480MOL0     C66112   7.829   6.639   2.659  0.2177  0.8833  0.1987
  480MOL0     C66113   7.942   6.723   2.598 -0.0305 -0.3518  0.2970
  480MOL0     C66114   7.910   6.873   2.580  0.2970  0.5918 -0.6428
  480MOL0     C66115   7.789   6.898   2.476 -0.8952 -0.3144 -0.5076
  480MOL0     C66116   7.745   7.043   2.450 -0.4001 -0.1540  0.5527
  480MOL0     C66117   7.722   7.125   2.581 -0.2252  0.0221 -0.0173
  480MOL0     C66118   7.579   7.103   2.647 -0.3547 -0.0905 -0.1641
  480MOL0     N66119   7.462   7.158   2.576  0.5658  0.5951  0.3501
  480MOL0     C66120   7.388   7.095   2.485  0.0496  0.6526  0.4528
  480MOL0     C66121   7.302   7.180   2.431  0.6920  0.1907 -0.1099
  480MOL0     C66122   7.197   7.166   2.321 -0.2898 -0.0471  0.7891
  480MOL0     C66123   7.073   7.115   2.381 -0.3915  1.1597  0.0839
  480MOL0     C66124   6.998   7.216   2.470 -1.0997 -0.7432  0.0747
  480MOL0     C66125   6.857   7.178   2.518 -0.4336  1.2047  1.0382
  480MOL0     O66126   6.853   7.051   2.595  0.0081 -0.3492 -0.4038
  480MOL0     C66127   6.768   6.961   2.531 -0.3256  0.3747  0.0386
  480MOL0     C66128   6.811   6.857   2.460 -0.1234  0.1631  0.9178
  480MOL0     C66129   6.719   6.780   2.385 -0.1493  0.8778  0.4417
  480MOL0     C66130   6.774   6.672   2.296 -0.3132 -0.7474 -0.1226
  480MOL0     C66131   6.579   6.798   2.405  0.2160 -0.2334 -0.5715
  480MOL0     C66132   6.470   6.726   2.337 -0.5584 -0.1029 -0.6214
  480MOL0     O66133   6.350   6.715   2.394  0.6798 -0.4340  0.2858
  480MOL0     C66134   6.249   6.646   2.327 -0.4154  0.5195 -0.7524
  480MOL0     C66135   6.181   6.538   2.382  0.0239 -0.2710  0.6371
  480MOL0     C66136   6.072   6.475   2.314 -0.0721  0.1390 -0.5060
  480MOL0     C66137   6.039   6.517   2.187 -0.1278  0.1613  0.4531
  480MOL0     O66138   5.924   6.468   2.123 -0.8626 -0.0510  1.2918
  480MOL0     C66139   5.930   6.329   2.088 -0.3189 -1.4522 -0.4215
  480MOL0     C66140   6.017   6.322   1.961  0.4716  0.3598  0.6081
  480MOL0     C66141   5.999   6.183   1.900 -0.2208  0.0793 -0.0829
  480MOL0     C66142   6.054   6.185   1.758  0.1554  0.6005  0.2452
  480MOL0     C66143   6.033   6.054   1.687  0.0784  0.6864  0.6741
  480MOL0     C66144   5.886   6.006   1.657 -0.4481 -0.5650 -0.2475
  480MOL0     C66145   5.877   5.884   1.576 -0.2683  0.2563 -0.8769
  480MOL0     C66146   5.912   5.748   1.648  0.7642 -0.2601 -0.1989
  480MOL0    Cl66147   5.807   5.731   1.789 -0.3254 -0.1556 -0.4395
  480MOL0     C66148   6.117   6.615   2.130  0.6602  0.3664  0.5682
  480MOL0     C66149   6.214   6.674   2.199 -0.0606 -0.6062  0.1284
  480MOL0     O66150   6.506   6.681   2.228  0.0959 -0.1279 -0.7633
  480MOL0     C66151   6.535   6.897   2.493 -0.7855  0.0059 -0.8224
  480MOL0     C66152   6.633   6.984   2.549 -0.0430  0.7990  0.0819
  480MOL0     N66153   7.346   7.302   2.486  0.4343 -0.3841  0.9202
  480MOL0     N66154   7.437   7.284   2.575  0.6885 -0.0061 -0.4000
  480MOL0     C66155   7.862   6.268   2.384 -0.4484  0.2620  0.4406
  480MOL0     C66156   7.846   6.179   2.281  0.6874 -0.1884 -0.5902
  480MOL0     C66157   7.647   6.023   1.864 -0.0558 -0.0108 -0.0150
  480MOL0     C66158   7.603   5.904   1.934  0.3523  0.6025 -0.4704
  480MOL0     C66159   7.572   5.793   1.858 -0.7456 -0.1045 -0.7253
  480MOL0     C66160   7.590   5.787   1.723  0.1680  0.9667 -0.1908
  480MOL0     O66161   7.551   5.673   1.653 -0.7943 -0.3176  0.0805
  480MOL0     C66162   7.664   5.629   1.582 -0.8829 -0.3167 -0.1986
  480MOL0     C66163   7.614   5.599   1.437 -0.5741 -1.2121 -0.2209
  480MOL0     C66164   7.533   5.467   1.423  0.1965 -0.2021  0.1887
  480MOL0     C66165   7.472   5.468   1.278 -0.7906  0.1984 -0.2470
  480MOL0     C66166   7.406   5.337   1.260  0.0379 -0.4121  0.3279
  480MOL0     C66167   7.361   5.223   1.242  0.8088  0.3592  0.2974
  480MOL0     C66168   7.635   5.900   1.653  0.4030  0.2807 -1.5038
  480MOL0     C66169   7.662   6.020   1.721 -0.5068  0.3477  0.0689
  480MOL0     C66170   7.732   6.133   1.632 -0.3768 -0.4443  0.2426
  480MOL0     H66171   7.647   6.366   2.090  1.6210 -2.3010 -1.4788
  480MOL0     H66172   7.644   6.507   2.304  1.7465  0.1121  2.4011
  480MOL0     H66173   7.657   6.526   2.599  0.1944 -0.6731  1.7278
  480MOL0     H66174   7.754   6.612   2.461  3.1474 -2.2438 -1.0133
  480MOL0     H66175   7.761   6.705   2.713  1.5699  1.3869  1.3627
  480MOL0     H66176   7.870   6.567   2.731 -1.4314 -1.7672 -1.3582
  480MOL0     H66177   8.022   6.707   2.671  0.9000 -4.7817 -1.3938
  480MOL0     H66178   7.975   6.688   2.500 -1.6475  0.3327 -0.5186
  480MOL0     H66179   7.880   6.908   2.679  0.3169  2.8919 -1.3842
  480MOL0     H66180   8.002   6.929   2.560  1.0176 -0.7165 -1.1271
  480MOL0     H66181   7.704   6.844   2.517 -0.8007 -2.2469 -2.6899
  480MOL0     H66182   7.813   6.845   2.383 -3.4697  0.5682 -1.7566
  480MOL0     H66183   7.818   7.097   2.389 -1.7146 -0.2362 -1.1671
  480MOL0     H66184   7.652   7.045   2.393 -2.9658  1.1779  4.4248
  480MOL0     H66185   7.727   7.233   2.565  1.4516  0.0016  0.1504
  480MOL0     H66186   7.796   7.100   2.658  1.5955  2.3534 -0.9027
  480MOL0     H66187   7.568   6.995   2.658  0.8462 -0.5625 -2.7971
  480MOL0     H66188   7.572   7.139   2.750 -3.4699 -0.3816 -0.1634
  480MOL0     H66189   7.405   6.992   2.456  1.4329  1.5516 -2.3632
  480MOL0     H66190   7.233   7.095   2.246  1.1985  1.5998 -0.1503
  480MOL0     H66191   7.172   7.257   2.265 -0.8190 -0.8936 -0.4078
  480MOL0     H66192   7.006   7.072   2.307  0.8069 -2.1313  0.7613
  480MOL0     H66193   7.095   7.026   2.441  1.0845  2.8374  2.1968
  480MOL0     H66194   7.066   7.249   2.550  0.0226  0.4881 -1.3333
  480MOL0     H66195   6.982   7.313   2.422  0.1417 -0.9834 -0.8705
  480MOL0     H66196   6.799   7.254   2.572 -0.2918  1.1604  1.2560
  480MOL0     H66197   6.804   7.175   2.423  1.0303  1.2147  0.2069
  480MOL0     H66198   6.918   6.846   2.446 -0.2066  1.8952 -1.6783
  480MOL0     H66199   6.737   6.576   2.334 -1.3861  0.4624  2.0287
  480MOL0     H66200   6.881   6.667   2.316 -0.2478 -0.1581 -0.3207
  480MOL0     H66201   6.768   6.692   2.188  0.1570 -2.2215 -0.4523
  480MOL0     H66202   6.204   6.495   2.479  1.5719 -1.9977 -0.4106
  480MOL0     H66203   6.011   6.400   2.365  1.5094 -1.5178 -0.9414
  480MOL0     H66204   5.977   6.270   2.167  0.7088  2.5877  2.2795
  480MOL0     H66205   5.828   6.289   2.082 -0.1716 -2.4263  2.1999
  480MOL0     H66206   5.991   6.401   1.891 -1.5509 -0.7372  0.0178
  480MOL0     H66207   6.125   6.326   1.979  0.5317  1.6439  0.0064
  480MOL0     H66208   5.897   6.144   1.907 -0.6133  1.2097  0.6256
  480MOL0     H66209   6.061   6.111   1.954  2.9286 -0.5698 -4.0554
  480MOL0     H66210   6.159   6.214   1.750  0.3595 -0.2787 -0.4226
  480MOL0     H66211   5.993   6.257   1.701  1.7308  0.5130 -1.6653
  480MOL0     H66212   6.088   6.070   1.593  0.2539 -0.1100  0.6393
  480MOL0     H66213   6.077   5.974   1.746 -0.0724 -1.7223 -2.2308
  480MOL0     H66214   5.832   6.086   1.605  4.1667  1.7917 -1.9844
  480MOL0     H66215   5.857   5.986   1.760  1.6365 -1.5018  0.2024
  480MOL0     H66216   5.940   5.893   1.486  2.4824 -3.5821  0.3826
  480MOL0     H66217   5.772   5.881   1.546 -0.1979 -0.4135 -1.0825
  480MOL0     H66218   6.018   5.748   1.674  0.2852  2.8993  2.4968
  480MOL0     H66219   5.892   5.674   1.570 -0.1962  3.2510 -3.5685
  480MOL0     H66220   6.103   6.647   2.027  4.1090  0.6731  0.0677
  480MOL0     H66221   6.273   6.751   2.150 -0.7407 -0.9211 -1.2160
  480MOL0     H66222   6.431   6.923   2.509 -1.4496 -1.9046 -1.7387
  480MOL0     H66223   6.603   7.071   2.605 -1.6033  0.1341  0.3305
  480MOL0     H66224   7.936   6.249   2.461  1.3150 -0.8665 -1.4318
  480MOL0     H66225   7.898   6.083   2.281  4.0655  1.4654 -2.8039
  480MOL0     H66226   7.610   5.902   2.042  1.5179 -3.8765 -0.3982
  480MOL0     H66227   7.541   5.701   1.906 -4.5713  1.5485  0.3056
  480MOL0     H66228   7.749   5.696   1.568 -0.0314 -1.0276  1.3112
  480MOL0     H66229   7.712   5.538   1.621  2.4178  0.2438 -2.5398
  480MOL0     H66230   7.698   5.617   1.370 -1.7435 -0.1229 -1.4639
  480MOL0     H66231   7.549   5.684   1.413  1.2492  0.4293  0.4179
  480MOL0     H66232   7.592   5.375   1.425  0.1306 -0.2665 -0.5957
  480MOL0     H66233   7.456   5.458   1.500 -2.3207  1.4936 -1.9734
  480MOL0     H66234   7.545   5.486   1.198 -3.3103 -0.8162 -2.9551
  480MOL0     H66235   7.401   5.551   1.286  0.9371  1.5797  4.0413
  480MOL0     H66236   7.327   5.121   1.240  0.1177  0.5843  0.3281
  480MOL0     H66237   7.633   5.912   1.546 -2.1948  2.8848 -1.2735
  480MOL0     H66238   7.685   6.232   1.629  0.1677 -0.2041 -1.0389
  480MOL0     H66239   7.837   6.149   1.657 -0.2178 -1.8735  0.5403
  480MOL0     H66240   7.742   6.090   1.532  2.9677 -4.0213  1.8514
  481MOL0     O66241   2.878   9.997   2.593 -0.5148  0.3473 -0.6136
  481MOL0     C66242   2.828   9.898   2.645 -0.6053 -1.3316  0.5630
  481MOL0     O66243   2.720   9.831   2.593 -0.2306  0.5017 -0.2596
  481MOL0     C66244   2.673   9.877   2.465 -0.3826  0.6432  0.4110
  481MOL0     C66245   2.611  10.001   2.465  0.4281  0.3970  0.6675
  481MOL0     C66246   2.573  10.055   2.345 -0.2325  0.7309 -0.2948
  481MOL0     C66247   2.580   9.985   2.220 -0.7096 -0.4074 -0.0246
  481MOL0     O66248   2.539  10.061   2.119  0.3155 -0.2399  0.3049
  481MOL0     C66249   2.501   9.994   1.996  0.7595  1.1356 -0.3248
  481MOL0     C66250   2.491  10.097   1.883  0.8206  0.7524 -0.1871
  481MOL0     C66251   2.613  10.181   1.860  0.4112 -0.6353  0.3912
  481MOL0     C66252   2.613  10.237   1.714 -0.2388  0.5101  0.1472
  481MOL0     C66253   2.749  10.308   1.704 -0.2447 -0.1514  0.5103
  481MOL0     C66254   2.797  10.301   1.557  0.4493  0.7872 -0.3966
  481MOL0     C66255   2.861  10.159   1.530 -0.8327 -1.2368  0.9968
  481MOL0     C66256   2.940  10.169   1.398 -0.0787 -0.0725 -0.4265
  481MOL0     N66257   2.990  10.043   1.351 -0.7703  0.7305 -0.1618
  481MOL0     C66258   3.113   9.985   1.372 -0.3561 -0.7001 -0.8213
  481MOL0     C66259   3.124   9.892   1.283 -0.5753  0.4041 -0.4306
  481MOL0     C66260   3.237   9.795   1.274 -0.5748 -0.5950  0.3492
  481MOL0     C66261   3.196   9.656   1.330 -0.3575 -1.2018 -0.7306
  481MOL0     C66262   3.324   9.575   1.359 -0.3880 -0.4861  0.2788
  481MOL0     C66263   3.308   9.438   1.406 -0.4245 -0.4246  0.8331
  481MOL0     O66264   3.257   9.430   1.536 -0.1328 -1.6053  0.1459
  481MOL0     C66265   3.336   9.456   1.648 -0.5955 -0.1970 -0.0771
  481MOL0     C66266   3.274   9.494   1.774  0.3261  0.4443  0.7995
  481MOL0     C66267   3.354   9.541   1.881  0.3745  0.0054  0.1184
  481MOL0     C66268   3.286   9.582   2.008 -0.3320 -0.1705  0.5202
  481MOL0     C66269   3.492   9.549   1.867  0.2026 -0.6362  0.0260
  481MOL0     C66270   3.577   9.582   1.977 -0.1348  0.4055 -0.5413
  481MOL0     O66271   3.634   9.471   2.038  0.4362  0.1633 -0.0493
  481MOL0     C66272   3.740   9.495   2.129  0.5298 -0.3589  0.6557
  481MOL0     C66273   3.862   9.541   2.088 -1.3064  0.3666  0.3444
  481MOL0     C66274   3.970   9.574   2.173  0.8790  0.3620 -0.3267
  481MOL0     C66275   3.939   9.595   2.313  0.0624  0.2324  0.1515
  481MOL0     O66276   4.033   9.631   2.405  0.5751  0.5393  0.6115
  481MOL0     C66277   4.129   9.733   2.361 -0.1099  0.7997  0.2341
  481MOL0     C66278   4.129   9.841   2.468 -1.2448 -0.1614 -0.3998
  481MOL0     C66279   4.238   9.947   2.444  0.1654  0.0188  0.3172
  481MOL0     C66280   4.160  10.079   2.429 -0.1996 -0.3290  0.6054
  481MOL0     C66281   4.254  10.192   2.389 -0.2814 -1.0535 -0.2372
  481MOL0     C66282   4.180  10.331   2.404 -0.0763  0.0967 -0.2577
  481MOL0     C66283   4.284  10.446   2.421 -0.0806  0.0637  0.5220
  481MOL0     C66284   4.219  10.567   2.488 -0.2457  0.2804  0.3815
  481MOL0    Cl66285   4.321  10.707   2.518 -0.4819  0.1472 -0.0636
  481MOL0     C66286   3.822   9.539   2.354  0.1423 -0.1263 -0.6375
  481MOL0     C66287   3.719   9.501   2.270  0.4500 -0.9132 -0.0339
  481MOL0     O66288   3.609   9.696   2.001  0.3057 -0.7708 -0.0321
  481MOL0     C66289   3.557   9.502   1.754 -0.3149  0.6947  0.1732
  481MOL0     C66290   3.481   9.452   1.646  0.6577 -0.7604 -0.4166
  481MOL0     N66291   3.014   9.893   1.209  0.5458  0.1490  0.4836
  481MOL0     N66292   2.933   9.981   1.239  0.3385  0.0028  0.2679
  481MOL0     C66293   2.640   9.859   2.216  0.1007 -0.3342  0.0147
  481MOL0     C66294   2.681   9.807   2.340  0.2077 -0.5045  0.1496
  481MOL0     C66295   2.906   9.836   2.756 -0.0969 -0.1990  0.0875
  481MOL0     C66296   2.984   9.922   2.838 -1.3251  0.2705 -0.3522
  481MOL0     C66297   3.064   9.859   2.941 -0.3546 -0.5150  0.2678
  481MOL0     C66298   3.068   9.726   2.962  0.1611  0.3265  0.2222
  481MOL0     O66299   3.129   9.657   3.064 -0.4483 -0.0835 -0.2307
  481MOL0     C66300   3.214   9.729   3.161  0.5091  0.1508  0.1831
  481MOL0     C66301   3.123   9.805   3.259  0.0970  0.1958 -1.1277
  481MOL0     C66302   3.219   9.913   3.319  0.5774 -0.2238 -0.1903
  481MOL0     C66303   3.141   9.984   3.428 -0.7268  0.4907  0.8752
  481MOL0     C66304   3.171   9.936   3.559 -0.3931 -0.1053  0.5721
  481MOL0     C66305   3.215   9.896   3.663 -0.3421  0.2982 -0.5835
  481MOL0     C66306   2.994   9.646   2.884  0.1413  0.2303 -0.7565
  481MOL0     C66307   2.912   9.696   2.780  0.1548 -0.3201 -0.4517
  481MOL0     C66308   2.842   9.588   2.692 -0.2177  0.5072 -0.4163
  481MOL0     H66309   2.604  10.049   2.562 -0.0390  0.0966  0.7894
  481MOL0     H66310   2.522  10.151   2.344 -1.4634  0.1657  1.8370
  481MOL0     H66311   2.413   9.932   2.018  1.7017 -0.0181  0.3361
  481MOL0     H66312   2.572   9.920   1.957 -1.7764 -2.6527  1.5241
  481MOL0     H66313   2.485  10.039   1.791 -1.4335 -0.8535  0.8810
  481MOL0     H66314   2.401  10.160   1.886  1.0776  1.2033 -1.5421
  481MOL0     H66315   2.610  10.270   1.924 -1.9406  0.0597 -0.5681
  481MOL0     H66316   2.700  10.127   1.898 -1.0228 -0.5698  4.2139
  481MOL0     H66317   2.604  10.157   1.639 -1.9845  0.5227  0.3223
  481MOL0     H66318   2.535  10.310   1.692  0.1053  0.7089 -0.4566
  481MOL0     H66319   2.830  10.273   1.769 -1.2646 -0.4747  1.6505
  481MOL0     H66320   2.750  10.414   1.731  1.6621 -0.4211  1.6758
  481MOL0     H66321   2.716  10.320   1.486 -0.1106  1.9575  0.5303
  481MOL0     H66322   2.873  10.376   1.534  0.2553  0.2981 -2.9585
  481MOL0     H66323   2.775  10.092   1.517 -2.4272  0.8845  0.0232
  481MOL0     H66324   2.918  10.127   1.617  0.7505 -1.3551 -0.0360
  481MOL0     H66325   2.877  10.222   1.326 -1.2438  0.0710  0.6641
  481MOL0     H66326   3.025  10.234   1.418 -0.6660  0.7993 -0.6880
  481MOL0     H66327   3.181  10.007   1.454 -2.3529  0.5739  0.5880
  481MOL0     H66328   3.326   9.828   1.328  0.3069  0.6594 -1.7114
  481MOL0     H66329   3.263   9.800   1.167  0.6797  1.9319  0.7090
  481MOL0     H66330   3.147   9.675   1.426  2.9762  1.3662  0.6738
  481MOL0     H66331   3.126   9.597   1.271 -4.3741  0.2042  2.1796
  481MOL0     H66332   3.387   9.577   1.270 -0.1529 -0.7724  0.4354
  481MOL0     H66333   3.385   9.633   1.430 -1.2643  1.8592 -0.7995
  481MOL0     H66334   3.252   9.383   1.330  3.4519 -1.2673 -1.7143
  481MOL0     H66335   3.401   9.380   1.403  1.5043  2.4267  1.5542
  481MOL0     H66336   3.167   9.503   1.792  0.3007  0.1243  0.8144
  481MOL0     H66337   3.314   9.527   2.098  4.8856 -1.0019 -1.3041
  481MOL0     H66338   3.178   9.573   1.989 -0.0445 -2.9922 -0.2877
  481MOL0     H66339   3.298   9.689   2.027  1.0312  0.0481 -1.2924
  481MOL0     H66340   3.891   9.531   1.984  1.3998  0.2435  1.0257
  481MOL0     H66341   4.058   9.587   2.112  1.3173  1.0327  0.4250
  481MOL0     H66342   4.231   9.695   2.366 -0.0875  0.9439  1.3298
  481MOL0     H66343   4.101   9.777   2.265 -2.7406  0.4140  0.7545
  481MOL0     H66344   4.032   9.890   2.477  0.1946  2.5080  3.3528
  481MOL0     H66345   4.143   9.808   2.572  0.3222  1.5253 -0.0168
  481MOL0     H66346   4.302   9.913   2.362  0.1821 -1.3220  0.8644
  481MOL0     H66347   4.309   9.959   2.527 -0.9042  0.9491  1.1302
  481MOL0     H66348   4.113  10.099   2.526 -0.5824  0.2176  0.3119
  481MOL0     H66349   4.072  10.077   2.364 -1.0562  0.3564  1.7037
  481MOL0     H66350   4.338  10.185   2.459 -0.5164 -2.3728 -0.0761
  481MOL0     H66351   4.289  10.174   2.287  0.4166 -0.8375 -0.0450
  481MOL0     H66352   4.118  10.317   2.493 -1.0230  1.0256 -0.7462
  481MOL0     H66353   4.113  10.345   2.319 -2.2084 -1.8352  0.9972
  481MOL0     H66354   4.336  10.467   2.328 -1.3257  2.4446  0.2916
  481MOL0     H66355   4.358  10.407   2.492 -0.4864 -3.0746 -0.6430
  481MOL0     H66356   4.193  10.533   2.588  3.6490 -0.7538  1.1943
  481MOL0     H66357   4.132  10.599   2.428  0.3230  0.1137 -0.5589
  481MOL0     H66358   3.802   9.515   2.458  0.5725  0.1317 -0.4937
  481MOL0     H66359   3.623   9.472   2.312 -2.2460  3.6426 -2.2575
  481MOL0     H66360   3.665   9.499   1.743 -0.2324 -0.7459  1.0844
  481MOL0     H66361   3.545   9.426   1.562  0.2168 -1.6696 -0.4880
  481MOL0     H66362   2.656   9.814   2.119  2.1154  2.1445 -0.9027
  481MOL0     H66363   2.739   9.716   2.328  2.7786  0.9531  0.9520
  481MOL0     H66364   2.985  10.030   2.829  2.0544  0.3298 -0.7048
  481MOL0     H66365   3.120   9.927   3.004 -2.1658 -0.5804  2.0438
  481MOL0     H66366   3.270   9.652   3.214 -0.0182  0.5131  1.2877
  481MOL0     H66367   3.287   9.793   3.110  3.7737 -5.1629 -2.7198
  481MOL0     H66368   3.073   9.736   3.328 -1.0355  2.3354  0.2985
  481MOL0     H66369   3.042   9.845   3.198 -2.3798 -1.8186  0.5995
  481MOL0     H66370   3.319   9.886   3.354 -0.0781  0.2097  2.1779
  481MOL0     H66371   3.240   9.990   3.245  0.7354  0.1232  0.2136
  481MOL0     H66372   3.034   9.972   3.406 -0.0123  0.6099 -3.6250
  481MOL0     H66373   3.143  10.092   3.416 -0.3884  0.3831 -0.1205
  481MOL0     H66374   3.252   9.851   3.752 -0.1196 -2.8378 -2.1236
  481MOL0     H66375   3.017   9.543   2.908 -0.6911  0.9030  3.9258
  481MOL0     H66376   2.735   9.582   2.715 -0.8654  0.7453 -3.0586
  481MOL0     H66377   2.859   9.605   2.586 -0.3737 -0.2476 -0.5709
  481MOL0     H66378   2.877   9.486   2.709  2.9023  1.5965  0.3310
  482MOL0     O66379  11.368  10.608   5.409 -0.4977  0.3307  0.5660
  482MOL0     C66380  11.350  10.496   5.370  0.6208  0.4200  0.2358
  482MOL0     O66381  11.246  10.421   5.408  0.3029 -0.1758 -0.3635
  482MOL0     C66382  11.204  10.419   5.542 -0.0315  0.6061 -1.1791
  482MOL0     C66383  11.074  10.402   5.561  0.4692  0.5045  0.4462
  482MOL0     C66384  11.010  10.394   5.685  0.1890  0.0517  1.3740
  482MOL0     C66385  11.089  10.388   5.800  0.9724 -0.1622 -0.5667
  482MOL0     O66386  11.023  10.358   5.918 -0.1148  1.0623 -0.1035
  482MOL0     C66387  11.091  10.368   6.040  0.2919 -0.4249  0.0764
  482MOL0     C66388  10.976  10.324   6.137 -0.0281  0.5342 -1.2596
  482MOL0     C66389  11.020  10.373   6.278 -0.1131 -0.7277 -0.2353
  482MOL0     C66390  10.891  10.369   6.370 -0.1831 -0.2697  0.6223
  482MOL0     C66391  10.908  10.446   6.502  0.7256 -0.3829 -0.1384
  482MOL0     C66392  10.785  10.423   6.598  0.7966  0.1533 -0.3807
  482MOL0     C66393  10.645  10.441   6.548  0.4310 -0.3380  0.1231
  482MOL0     C66394  10.572  10.581   6.554  0.4490  0.4581 -0.1188
  482MOL0     N66395  10.645  10.676   6.461  0.0033 -1.0147  0.2719
  482MOL0     C66396  10.697  10.797   6.494  0.5951 -0.1713  0.1854
  482MOL0     C66397  10.733  10.856   6.378 -1.4136 -0.1314 -0.0860
  482MOL0     C66398  10.804  10.980   6.351 -0.5027  0.1821 -0.4638
  482MOL0     C66399  10.915  10.962   6.248 -0.4129  0.2524 -0.0485
  482MOL0     C66400  11.013  10.849   6.278  0.4758 -0.1026  0.4055
  482MOL0     C66401  11.123  10.828   6.165 -0.4038  0.2053  0.2098
  482MOL0     O66402  11.209  10.720   6.207  0.0102 -0.0212 -0.3396
  482MOL0     C66403  11.299  10.658   6.132  0.0610 -0.2297 -0.5810
  482MOL0     C66404  11.316  10.691   6.000  0.3804 -0.4726  0.5123
  482MOL0     C66405  11.419  10.640   5.925 -0.4469 -0.0480 -0.4144
  482MOL0     C66406  11.445  10.700   5.787  0.0268  0.0615  0.6351
  482MOL0     C66407  11.498  10.532   5.985  0.8204  0.3430  0.9711
  482MOL0     C66408  11.610  10.466   5.908  1.0876  0.3229 -0.0263
  482MOL0     O66409  11.727  10.450   5.970  0.0105 -0.0944 -0.3909
  482MOL0     C66410  11.835  10.444   5.891  0.5034 -0.1911  1.2974
  482MOL0     C66411  11.882  10.544   5.799  1.1121  0.0260  0.2053
  482MOL0     C66412  11.994  10.546   5.724 -0.0446 -0.5639  0.2555
  482MOL0     C66413  12.072  10.432   5.735  0.7632 -1.0810 -0.4303
  482MOL0     O66414  12.168  10.410   5.644 -0.4132  0.5625  0.8099
  482MOL0     C66415  12.154  10.289   5.568  0.4902 -0.5444  0.1027
  482MOL0     C66416  12.235  10.304   5.439  0.4173  0.9748  0.8643
  482MOL0     C66417  12.175  10.385   5.320  0.0209 -0.0472 -0.2066
  482MOL0     C66418  12.280  10.419   5.223 -1.3596  0.7830  0.9224
  482MOL0     C66419  12.384  10.300   5.180 -0.3398  0.0712 -0.6746
  482MOL0     C66420  12.426  10.314   5.034  0.4244  1.1266 -0.1407
  482MOL0     C66421  12.509  10.435   5.003 -0.8948 -0.9800  0.4788
  482MOL0     C66422  12.640  10.438   5.086 -0.2522  0.6674  0.3936
  482MOL0    Cl66423  12.751  10.547   4.999 -0.3166  0.1951 -0.2721
  482MOL0     C66424  12.041  10.331   5.830  0.1934  0.4606 -0.0369
  482MOL0     C66425  11.932  10.342   5.905  1.2612 -0.8174 -0.3910
  482MOL0     O66426  11.582  10.411   5.799 -0.4934 -0.1732  0.6066
  482MOL0     C66427  11.464  10.492   6.113 -0.6116 -1.2927 -0.1621
  482MOL0     C66428  11.367  10.554   6.189 -0.2173 -0.6220 -0.2704
  482MOL0     N66429  10.701  10.768   6.275 -0.2110 -0.6886  0.0192
  482MOL0     N66430  10.649  10.662   6.327  0.4301  0.7695  0.2984
  482MOL0     C66431  11.231  10.404   5.786  0.0663 -0.3043 -0.5749
  482MOL0     C66432  11.288  10.431   5.651 -0.1559 -0.3689 -0.1082
  482MOL0     C66433  11.418  10.444   5.250 -0.0934 -0.3449 -0.0868
  482MOL0     C66434  11.405  10.305   5.225 -0.0902  0.7100 -0.5299
  482MOL0     C66435  11.461  10.252   5.117  0.1351  0.6480  1.2754
  482MOL0     C66436  11.534  10.323   5.030  0.0287  0.4053  0.7807
  482MOL0     O66437  11.577  10.248   4.917 -0.1888 -0.2388  0.1834
  482MOL0     C66438  11.575  10.328   4.791 -0.5827  0.3265 -1.2267
  482MOL0     C66439  11.618  10.229   4.685  0.2820  1.0923  0.3866
  482MOL0     C66440  11.760  10.175   4.703 -0.3937  0.2662  0.6094
  482MOL0     C66441  11.783  10.052   4.616 -0.0065  0.8539 -0.1878
  482MOL0     C66442  11.761  10.076   4.473 -0.3866  0.3513  1.0576
  482MOL0     C66443  11.738  10.091   4.349  0.5544  0.1864 -0.1903
  482MOL0     C66444  11.542  10.465   5.042 -0.7291  0.1049  0.2855
  482MOL0     C66445  11.487  10.525   5.156 -0.0755 -0.8398  0.6498
  482MOL0     C66446  11.506  10.673   5.170  0.3306  0.2753  0.0434
  482MOL0     H66447  11.009  10.397   5.473  3.2975 -1.5471 -1.7221
  482MOL0     H66448  10.903  10.375   5.695 -0.1351 -0.9711 -2.3197
  482MOL0     H66449  11.134  10.465   6.066 -0.6576 -0.1121  0.5405
  482MOL0     H66450  11.173  10.297   6.053 -1.5108 -2.9066 -1.3768
  482MOL0     H66451  10.877  10.364   6.113 -0.0699 -0.2412 -2.4629
  482MOL0     H66452  10.976  10.214   6.146  4.1107  0.4589 -0.3303
  482MOL0     H66453  11.091  10.299   6.317  0.1579  0.3289  1.3430
  482MOL0     H66454  11.069  10.471   6.281 -0.8414 -0.1947 -3.0513
  482MOL0     H66455  10.809  10.418   6.317  1.0093  1.2900  0.1527
  482MOL0     H66456  10.874  10.263   6.391 -1.1424 -0.5009 -1.0837
  482MOL0     H66457  10.920  10.554   6.491  0.9115 -0.2019  1.5956
  482MOL0     H66458  11.003  10.415   6.546  1.3092  0.7198 -0.5956
  482MOL0     H66459  10.779  10.316   6.620 -0.0996  0.7257  2.5067
  482MOL0     H66460  10.803  10.478   6.691 -0.3691  3.1584 -1.8147
  482MOL0     H66461  10.587  10.370   6.608  0.5294 -0.8422 -0.3746
  482MOL0     H66462  10.637  10.421   6.441  1.5004 -0.8429  0.1239
  482MOL0     H66463  10.468  10.570   6.521 -0.0743  0.6293  1.4160
  482MOL0     H66464  10.562  10.629   6.652  1.2299  2.9345 -1.1749
  482MOL0     H66465  10.699  10.837   6.595  0.5910  1.0399 -0.2664
  482MOL0     H66466  10.842  11.020   6.446  2.1064  3.6813 -2.7306
  482MOL0     H66467  10.727  11.047   6.312  0.9640  1.0676 -1.9837
  482MOL0     H66468  10.871  10.939   6.151  1.6595  0.3566 -1.0426
  482MOL0     H66469  10.970  11.056   6.241  0.8814 -0.3911  0.9271
  482MOL0     H66470  11.057  10.871   6.375 -0.7412  0.5667  0.8325
  482MOL0     H66471  10.964  10.753   6.298  0.9468 -0.3087  0.5655
  482MOL0     H66472  11.076  10.793   6.073 -0.3263 -1.7445  0.8641
  482MOL0     H66473  11.179  10.921   6.152  1.0054 -0.8682 -2.0225
  482MOL0     H66474  11.263  10.772   5.951 -0.7519 -1.2601  0.4038
  482MOL0     H66475  11.366  10.761   5.742  1.6662  1.0885 -1.0206
  482MOL0     H66476  11.464  10.623   5.713  1.9203  1.5833 -0.5772
  482MOL0     H66477  11.535  10.761   5.801  1.3324 -1.9037  1.2196
  482MOL0     H66478  11.816  10.625   5.769  0.5627 -1.3578 -2.6959
  482MOL0     H66479  12.007  10.624   5.650 -2.2892  1.4101  1.7964
  482MOL0     H66480  12.195  10.206   5.627  1.6888 -1.8571 -2.4200
  482MOL0     H66481  12.049  10.276   5.540  0.4391  1.8832 -1.1044
  482MOL0     H66482  12.333  10.349   5.457  1.4292 -1.3556  1.6239
  482MOL0     H66483  12.248  10.200   5.405  0.3105  1.4386 -0.6954
  482MOL0     H66484  12.139  10.480   5.361  0.8242  0.2970 -0.2672
  482MOL0     H66485  12.096  10.332   5.266 -1.8757  1.0821  1.3482
  482MOL0     H66486  12.341  10.493   5.276  0.0355 -0.0066  0.4625
  482MOL0     H66487  12.241  10.459   5.129  1.6278 -0.3844 -0.9577
  482MOL0     H66488  12.471  10.289   5.245  0.9017 -1.0494 -2.4120
  482MOL0     H66489  12.345  10.198   5.184  1.2501 -0.5295  0.3298
  482MOL0     H66490  12.342  10.305   4.964 -0.5629  0.5389  1.1016
  482MOL0     H66491  12.481  10.224   5.007 -2.9016 -1.2023  0.2429
  482MOL0     H66492  12.454  10.528   5.020  3.1517  2.0903 -1.5238
  482MOL0     H66493  12.545  10.439   4.900 -0.6638 -0.5961  0.5722
  482MOL0     H66494  12.700  10.348   5.072 -2.1654 -0.4698 -0.9346
  482MOL0     H66495  12.627  10.467   5.191 -0.3084 -0.9210  0.8542
  482MOL0     H66496  12.109  10.246   5.837  0.2675  0.6338  4.3256
  482MOL0     H66497  11.887  10.263   5.965 -0.3956 -0.5213 -1.1852
  482MOL0     H66498  11.524  10.411   6.154 -0.5360 -1.1024  0.1100
  482MOL0     H66499  11.342  10.515   6.287 -1.1573  0.5548 -0.0128
  482MOL0     H66500  11.297  10.387   5.871  1.5506  1.2164 -1.3637
  482MOL0     H66501  11.395  10.429   5.633 -0.2854  2.7863 -1.7945
  482MOL0     H66502  11.354  10.236   5.292  2.7502 -1.7053 -0.6656
  482MOL0     H66503  11.457  10.147   5.093 -0.4396  0.8991  0.2124
  482MOL0     H66504  11.474  10.365   4.774 -0.7392  0.3521 -0.2996
  482MOL0     H66505  11.657  10.402   4.789  1.2251 -1.4092  1.4520
  482MOL0     H66506  11.609  10.272   4.585  2.1535  0.6393 -0.0177
  482MOL0     H66507  11.542  10.151   4.679  2.4285 -0.9913 -2.2535
  482MOL0     H66508  11.821  10.257   4.665  0.0947 -0.9533 -1.4661
  482MOL0     H66509  11.786  10.166   4.808 -2.5666  2.0378  1.3766
  482MOL0     H66510  11.716   9.970   4.643  0.8085  0.0665 -0.4725
  482MOL0     H66511  11.885  10.013   4.622 -0.8598 -1.7601 -1.2282
  482MOL0     H66512  11.726  10.113   4.245  2.4420 -2.6933 -1.1427
  482MOL0     H66513  11.573  10.526   4.958 -2.1144  1.9242  1.0488
  482MOL0     H66514  11.413  10.728   5.186 -0.2648 -0.1862 -1.6119
  482MOL0     H66515  11.573  10.706   5.250 -0.0011  3.7074 -0.9097
  482MOL0     H66516  11.553  10.717   5.082  0.9205  0.2286  0.3304
  483MOL0     O66517   5.956   3.076   3.836  0.3392  0.3272  0.3794
  483MOL0     C66518   6.009   2.996   3.758 -0.9719 -0.0909 -0.1992
  483MOL0     O66519   6.078   3.035   3.639  0.2390  0.0820 -0.4779
  483MOL0     C66520   6.075   3.168   3.597  1.1910  0.7408  0.0020
  483MOL0     C66521   5.958   3.229   3.561  0.0478  0.0644 -0.7274
  483MOL0     C66522   5.958   3.363   3.519 -0.0209 -0.1906 -0.1527
  483MOL0     C66523   6.075   3.439   3.517  0.1711 -0.0611 -0.3182
  483MOL0     O66524   6.070   3.570   3.469 -0.0940 -0.5365 -0.0260
  483MOL0     C66525   6.144   3.665   3.537  0.1372  0.4333 -0.8642
  483MOL0     C66526   6.129   3.804   3.482 -0.6369  0.8714 -0.3880
  483MOL0     C66527   5.994   3.851   3.525  0.7904  0.1235  0.7195
  483MOL0     C66528   5.955   3.985   3.458 -0.1466  0.2733  0.1820
  483MOL0     C66529   5.905   3.949   3.305 -0.2511 -0.4031 -0.0146
  483MOL0     C66530   5.856   4.072   3.227  0.1920 -0.0935 -0.5473
  483MOL0     C66531   5.786   4.042   3.089 -0.7725 -0.7479 -0.0426
  483MOL0     C66532   5.645   3.983   3.086  0.1671  0.3514  0.4838
  483MOL0     N66533   5.611   3.918   2.960  0.5728 -0.3017 -0.0974
  483MOL0     C66534   5.623   3.976   2.843 -0.7875 -0.5645 -0.6602
  483MOL0     C66535   5.599   3.884   2.757 -0.7023  0.5019  0.0596
  483MOL0     C66536   5.607   3.904   2.612 -1.4725  0.7427  0.0554
  483MOL0     C66537   5.535   4.028   2.566 -0.3280  0.6992  0.8778
  483MOL0     C66538   5.549   4.050   2.419 -0.9504  0.4541  0.4804
  483MOL0     C66539   5.467   3.949   2.344  1.6030 -0.9373  0.7223
  483MOL0     O66540   5.516   3.958   2.210 -0.1710 -0.4000 -0.3178
  483MOL0     C66541   5.436   3.894   2.121 -1.0150  0.4650  0.5885
  483MOL0     C66542   5.497   3.880   1.991 -0.2136 -0.0098  0.0137
  483MOL0     C66543   5.441   3.796   1.883 -0.9849  0.2411 -0.1227
  483MOL0     C66544   5.538   3.775   1.762  0.3091 -0.3766 -0.5958
  483MOL0     C66545   5.315   3.739   1.911 -0.5559 -0.1393  0.9026
  483MOL0     C66546   5.240   3.653   1.819 -0.3175 -0.4123  0.3944
  483MOL0     O66547   5.101   3.662   1.832 -0.7359 -0.1356  0.2250
  483MOL0     C66548   5.032   3.564   1.769 -1.0766 -0.0911  0.1782
  483MOL0     C66549   4.985   3.454   1.835 -0.0515 -0.1761 -0.2519
  483MOL0     C66550   4.906   3.362   1.772  0.4100 -0.4719 -0.6563
  483MOL0     C66551   4.871   3.376   1.639 -0.2301 -0.0677  0.2795
  483MOL0     O66552   4.793   3.281   1.581 -0.0362  0.4674  0.1231
  483MOL0     C66553   4.730   3.307   1.456  0.2221 -0.2274  0.3153
  483MOL0     C66554   4.668   3.177   1.412 -0.2258  0.0061  0.2575
  483MOL0     C66555   4.773   3.072   1.379 -0.5303 -0.5641  0.3604
  483MOL0     C66556   4.716   2.949   1.318  0.2850 -0.0821  0.7215
  483MOL0     C66557   4.824   2.848   1.270  1.1274  0.7484  0.1978
  483MOL0     C66558   4.952   2.899   1.201 -0.4781  0.4887 -0.0623
  483MOL0     C66559   4.922   2.955   1.065 -0.2720 -0.1655  0.7053
  483MOL0     C66560   5.060   2.976   0.990  0.1217  0.0362  0.0131
  483MOL0    Cl66561   5.023   3.027   0.823 -0.1645 -0.2571 -0.0250
  483MOL0     C66562   4.911   3.487   1.574  0.0432  0.2366 -0.0609
  483MOL0     C66563   4.995   3.580   1.632  0.3782  0.4715  0.6545
  483MOL0     O66564   5.296   3.590   1.729 -0.1406 -1.1007 -0.8168
  483MOL0     C66565   5.251   3.755   2.040 -0.4259  0.2660 -0.5150
  483MOL0     C66566   5.309   3.831   2.146 -0.3443  0.0507 -0.1229
  483MOL0     N66567   5.540   3.771   2.821 -0.5863  0.0448  0.3583
  483MOL0     N66568   5.548   3.801   2.943  0.2306 -0.8446  0.4130
  483MOL0     C66569   6.195   3.375   3.553 -0.4855  0.3259 -0.1048
  483MOL0     C66570   6.194   3.241   3.588 -0.1408  0.8689  0.2698
  483MOL0     C66571   5.995   2.856   3.784 -0.4978 -0.7046  0.3270
  483MOL0     C66572   5.925   2.789   3.686  0.2936 -0.4072 -0.1085
  483MOL0     C66573   5.904   2.651   3.692 -0.3229  0.0817  0.0844
  483MOL0     C66574   5.956   2.573   3.803  0.4747 -0.2388  0.5619
  483MOL0     O66575   5.949   2.431   3.811  0.3040 -0.3112  0.4006
  483MOL0     C66576   5.914   2.354   3.693 -0.2865 -0.4452  0.2818
  483MOL0     C66577   6.010   2.361   3.582  0.7069  0.5809 -0.5739
  483MOL0     C66578   5.989   2.249   3.476  0.0436 -0.8231 -0.8103
  483MOL0     C66579   6.111   2.224   3.393  0.8576 -0.0442  0.8202
  483MOL0     C66580   6.189   2.337   3.353  0.4442  0.7817 -0.4519
  483MOL0     C66581   6.268   2.422   3.314  0.5917  0.0292  0.0855
  483MOL0     C66582   6.025   2.646   3.899  0.3154  0.4871 -0.3972
  483MOL0     C66583   6.048   2.789   3.902 -0.3662  0.3484  1.1245
  483MOL0     C66584   6.139   2.862   3.997  0.6521 -0.8517 -0.4647
  483MOL0     H66585   5.860   3.189   3.582 -1.0568  2.1335 -1.6545
  483MOL0     H66586   5.867   3.412   3.487  0.7240  1.0242 -0.4576
  483MOL0     H66587   6.250   3.638   3.538  0.7265  2.5325  1.5375
  483MOL0     H66588   6.108   3.661   3.640  0.0611 -1.1694 -0.9255
  483MOL0     H66589   6.208   3.858   3.535 -1.6992 -1.5748  4.2818
  483MOL0     H66590   6.139   3.798   3.373 -1.8563 -2.5601 -0.4424
  483MOL0     H66591   5.919   3.774   3.506 -0.1937  1.4649 -1.1203
  483MOL0     H66592   5.976   3.864   3.632  3.4095  0.1620  1.2186
  483MOL0     H66593   5.871   4.030   3.512  1.3129  4.9110 -0.9276
  483MOL0     H66594   6.035   4.060   3.455 -0.1669  0.2643 -2.3623
  483MOL0     H66595   5.829   3.870   3.304  3.0909 -3.9261  0.9793
  483MOL0     H66596   5.991   3.913   3.247  0.3617  1.4051 -0.2897
  483MOL0     H66597   5.787   4.130   3.288  0.1895 -0.4687 -0.1831
  483MOL0     H66598   5.942   4.136   3.205 -0.5034  1.7682  1.7542
  483MOL0     H66599   5.845   3.959   3.050 -0.8545 -0.3805 -0.9664
  483MOL0     H66600   5.777   4.137   3.036  1.1414  0.1470  1.1412
  483MOL0     H66601   5.644   3.903   3.161  0.5580  0.9281  1.1205
  483MOL0     H66602   5.573   4.063   3.106 -1.8915 -1.1922 -0.4493
  483MOL0     H66603   5.659   4.077   2.829  2.4952 -1.8864 -3.0567
  483MOL0     H66604   5.586   3.814   2.553 -0.0213  1.8602 -2.3199
  483MOL0     H66605   5.713   3.931   2.606 -1.3671  0.4176  0.4093
  483MOL0     H66606   5.429   4.016   2.593 -0.3728 -0.1498  0.3525
  483MOL0     H66607   5.575   4.120   2.610  3.1926 -0.0867 -0.3824
  483MOL0     H66608   5.524   4.147   2.374  2.7076 -0.7544 -5.1269
  483MOL0     H66609   5.654   4.037   2.391 -1.4152 -0.3625 -0.9519
  483MOL0     H66610   5.473   3.849   2.388  1.8919 -1.8958 -1.3976
  483MOL0     H66611   5.364   3.986   2.351  2.7168  2.6196  0.5622
  483MOL0     H66612   5.592   3.929   1.974 -0.8983  3.3053  4.1795
  483MOL0     H66613   5.488   3.822   1.677  1.5432  0.0072 -1.1307
  483MOL0     H66614   5.543   3.667   1.746 -0.8527 -0.1499 -2.8754
  483MOL0     H66615   5.638   3.816   1.778  0.4278 -1.0326  0.4443
  483MOL0     H66616   5.036   3.453   1.931  0.2902  1.6256 -0.3888
  483MOL0     H66617   4.871   3.276   1.828  1.6592  0.0423  0.9954
  483MOL0     H66618   4.647   3.377   1.471 -0.0925 -0.6921  0.7817
  483MOL0     H66619   4.784   3.342   1.368 -1.8917  0.9459 -0.6009
  483MOL0     H66620   4.608   3.125   1.487  2.6205 -1.0428  1.9835
  483MOL0     H66621   4.600   3.177   1.326 -0.1168 -0.7752  0.1606
  483MOL0     H66622   4.833   3.056   1.468  2.0401  2.0367 -0.7314
  483MOL0     H66623   4.840   3.127   1.312 -1.0780  0.6294  0.7585
  483MOL0     H66624   4.660   2.975   1.228  2.3892  0.3237 -0.5549
  483MOL0     H66625   4.644   2.906   1.388  0.0225  0.4593  0.7885
  483MOL0     H66626   4.847   2.787   1.358  1.1881  2.0909  1.1481
  483MOL0     H66627   4.773   2.781   1.201  0.8556  0.0534  1.0476
  483MOL0     H66628   5.025   2.819   1.190  0.7103  1.0553  2.8285
  483MOL0     H66629   5.005   2.974   1.260  1.1022  0.9398 -1.9771
  483MOL0     H66630   4.878   3.055   1.057  0.7977  0.1841 -2.3755
  483MOL0     H66631   4.851   2.894   1.008 -1.3123 -0.5751  2.3739
  483MOL0     H66632   5.130   2.891   0.985  0.5388  0.4194 -1.0527
  483MOL0     H66633   5.109   3.060   1.040 -1.8003  1.8078 -0.9317
  483MOL0     H66634   4.887   3.516   1.472 -1.2985 -1.3918 -0.2459
  483MOL0     H66635   5.022   3.676   1.589  0.0640  1.9833  3.5650
  483MOL0     H66636   5.157   3.701   2.054  0.8579 -3.0930 -3.4224
  483MOL0     H66637   5.247   3.847   2.234 -1.1094  0.7776 -0.7731
  483MOL0     H66638   6.289   3.428   3.550 -0.8933  1.0269 -1.0211
  483MOL0     H66639   6.275   3.175   3.617  0.6662 -0.0782 -3.6213
  483MOL0     H66640   5.900   2.851   3.600  2.7788 -1.4373 -1.6910
  483MOL0     H66641   5.870   2.605   3.599  5.0860 -4.6012 -0.1498
  483MOL0     H66642   5.912   2.247   3.719  3.6187 -0.4529  1.0818
  483MOL0     H66643   5.814   2.381   3.657  0.5858 -0.9018 -2.7255
  483MOL0     H66644   6.107   2.339   3.628  0.3430  0.8373  0.3158
  483MOL0     H66645   6.004   2.454   3.525  0.6104 -1.3979 -4.0845
  483MOL0     H66646   5.963   2.154   3.524  3.6008 -0.6939  1.7904
  483MOL0     H66647   5.912   2.277   3.405  0.7044  1.5748 -0.6538
  483MOL0     H66648   6.076   2.164   3.308  2.4461 -0.1614  0.2053
  483MOL0     H66649   6.180   2.152   3.438  2.5752  0.0482 -1.4630
  483MOL0     H66650   6.331   2.508   3.301 -0.4841  0.8509  0.1514
  483MOL0     H66651   6.057   2.585   3.983  1.9500 -1.1581 -2.1044
  483MOL0     H66652   6.149   2.805   4.090 -1.7245  1.0674  1.0935
  483MOL0     H66653   6.239   2.882   3.957  0.7929  0.6203  0.5767
  483MOL0     H66654   6.089   2.955   4.024 -3.5569 -3.6848  2.8745
  484MOL0     O66655   3.472   4.782   7.454 -0.6697 -0.0178  0.0475
  484MOL0     C66656   3.563   4.694   7.471  0.1974  0.4158  0.6210
  484MOL0     O66657   3.701   4.710   7.451 -0.3035  0.1134 -0.4740
  484MOL0     C66658   3.736   4.821   7.392  0.3279 -0.3419  1.0496
  484MOL0     C66659   3.763   4.935   7.467  0.0710  0.1651  0.4068
  484MOL0     C66660   3.820   5.049   7.406  0.3291  0.1823  0.3388
  484MOL0     C66661   3.853   5.047   7.274 -0.4208  0.0585 -0.2016
  484MOL0     O66662   3.920   5.142   7.210 -0.2457 -0.0416 -0.3846
  484MOL0     C66663   3.818   5.219   7.141  0.7395 -1.1155 -0.1633
  484MOL0     C66664   3.877   5.341   7.065  0.2721 -0.4512 -0.0830
  484MOL0     C66665   3.987   5.313   6.966 -0.4423 -0.0049  0.8630
  484MOL0     C66666   4.028   5.435   6.879 -0.1685 -0.0619  0.6611
  484MOL0     C66667   4.108   5.393   6.751 -0.0250 -0.2225 -0.3713
  484MOL0     C66668   4.161   5.506   6.671 -0.6388 -0.4712 -0.5575
  484MOL0     C66669   4.058   5.614   6.642  0.9686  0.0300 -0.4752
  484MOL0     C66670   4.104   5.709   6.532 -0.0705  1.1641 -0.3473
  484MOL0     N66671   4.234   5.763   6.568 -0.0168 -0.3872  0.6908
  484MOL0     C66672   4.356   5.717   6.519  1.3303 -0.2187  0.4037
  484MOL0     C66673   4.447   5.795   6.582  0.1909  0.1614  0.6799
  484MOL0     C66674   4.595   5.779   6.587  0.7687 -0.8749 -0.2088
  484MOL0     C66675   4.652   5.711   6.706  0.0089 -0.0515  0.0238
  484MOL0     C66676   4.587   5.572   6.733 -0.0489  0.3517 -0.1463
  484MOL0     C66677   4.519   5.571   6.871  0.7386 -0.1646  0.7102
  484MOL0     O66678   4.447   5.452   6.896  0.7199  0.1526 -0.0056
  484MOL0     C66679   4.518   5.358   6.966 -0.5179  0.5530 -0.2293
  484MOL0     C66680   4.657   5.358   6.975 -0.3391 -0.7947 -0.6581
  484MOL0     C66681   4.724   5.262   7.060 -0.6297  1.2440  0.6593
  484MOL0     C66682   4.878   5.284   7.080 -0.3982 -0.1469 -0.4064
  484MOL0     C66683   4.655   5.150   7.116 -0.0010 -0.5846  0.7475
  484MOL0     C66684   4.716   5.039   7.178  0.5533  0.8127 -0.8924
  484MOL0     O66685   4.648   4.919   7.166 -0.4758  0.0467 -0.3511
  484MOL0     C66686   4.684   4.808   7.231 -0.8969  0.3957 -0.5796
  484MOL0     C66687   4.787   4.722   7.187 -0.5641  0.6869 -0.1513
  484MOL0     C66688   4.814   4.604   7.239 -0.4249 -0.5746 -0.1606
  484MOL0     C66689   4.744   4.566   7.354 -0.2525 -0.6190 -0.2769
  484MOL0     O66690   4.773   4.446   7.427 -0.3598 -0.1207  0.5451
  484MOL0     C66691   4.878   4.362   7.373  0.3062  0.3500 -0.1948
  484MOL0     C66692   4.892   4.231   7.455 -0.2113 -0.3749  0.4696
  484MOL0     C66693   4.768   4.166   7.509  0.0161 -0.6842  0.5066
  484MOL0     C66694   4.817   4.039   7.581 -0.6081 -0.5544 -0.5207
  484MOL0     C66695   4.717   3.978   7.669 -0.6017  0.3276 -0.1665
  484MOL0     C66696   4.801   3.882   7.758  0.5853  0.9926  0.5496
  484MOL0     C66697   4.699   3.778   7.811 -0.4036 -0.6407 -0.0254
  484MOL0     C66698   4.583   3.827   7.893  0.2508 -0.6857 -0.5025
  484MOL0    Cl66699   4.482   3.686   7.936  0.4308 -0.0777 -0.0541
  484MOL0     C66700   4.638   4.647   7.406  0.7646 -0.1621 -0.2932
  484MOL0     C66701   4.607   4.772   7.342 -0.0431 -0.7142  0.2030
  484MOL0     O66702   4.812   5.052   7.251  0.6444 -0.5910  0.2146
  484MOL0     C66703   4.517   5.145   7.092  0.0578  0.5365  1.0512
  484MOL0     C66704   4.451   5.248   7.020  0.0125  0.2962  0.4211
  484MOL0     N66705   4.384   5.895   6.658 -0.1213 -0.2498  0.1333
  484MOL0     N66706   4.251   5.869   6.650 -0.3929 -0.5331  0.7376
  484MOL0     C66707   3.835   4.931   7.200 -0.2368 -0.0966 -0.6095
  484MOL0     C66708   3.779   4.829   7.258  0.0461  0.2802  0.5300
  484MOL0     C66709   3.519   4.559   7.510  0.4926  0.9317 -0.5979
  484MOL0     C66710   3.603   4.449   7.472 -0.4485  0.4604  0.8037
  484MOL0     C66711   3.578   4.310   7.493 -0.3977 -0.3856 -0.3783
  484MOL0     C66712   3.453   4.278   7.543 -0.6619  0.2312 -0.2364
  484MOL0     O66713   3.419   4.152   7.577 -0.1773 -0.5734  0.1166
  484MOL0     C66714   3.514   4.046   7.573 -0.0286  0.4226  0.1367
  484MOL0     C66715   3.436   3.915   7.595  0.0977 -0.3336  0.1645
  484MOL0     C66716   3.393   3.893   7.741  0.0617  0.0998 -0.6248
  484MOL0     C66717   3.288   3.783   7.769 -0.2054  0.3014 -0.4288
  484MOL0     C66718   3.243   3.785   7.908  0.6754  0.1766  0.3835
  484MOL0     C66719   3.222   3.778   8.028  0.5080  0.1823  0.7402
  484MOL0     C66720   3.361   4.383   7.588  0.3012 -0.3524  0.1078
  484MOL0     C66721   3.397   4.523   7.568  0.7047  1.1338 -1.0088
  484MOL0     C66722   3.298   4.622   7.634  0.1994  0.0574  0.0759
  484MOL0     H66723   3.729   4.928   7.570 -3.4568 -3.8137 -0.7375
  484MOL0     H66724   3.834   5.140   7.463  1.7305 -0.3450  0.8752
  484MOL0     H66725   3.744   5.257   7.212  1.3147 -0.3532  0.0262
  484MOL0     H66726   3.761   5.163   7.065  0.3081  2.4674 -2.7686
  484MOL0     H66727   3.794   5.392   7.016  0.3323 -0.7800 -0.5330
  484MOL0     H66728   3.926   5.409   7.136  1.0520  0.3429 -1.3422
  484MOL0     H66729   4.076   5.282   7.022 -0.0125  0.2154  0.3109
  484MOL0     H66730   3.969   5.224   6.906  2.3951 -0.0651 -0.0737
  484MOL0     H66731   3.939   5.492   6.853 -0.0239  0.0830  0.4785
  484MOL0     H66732   4.089   5.501   6.942  0.2893 -0.7776  0.9829
  484MOL0     H66733   4.050   5.325   6.688  1.3267 -1.5375 -0.2423
  484MOL0     H66734   4.194   5.333   6.782  0.4956  0.6994  0.0108
  484MOL0     H66735   4.244   5.551   6.726 -1.0273  1.0738 -1.1605
  484MOL0     H66736   4.205   5.465   6.580 -1.8894  0.7947 -1.7894
  484MOL0     H66737   4.039   5.667   6.735  2.6719  0.0387 -0.0881
  484MOL0     H66738   3.970   5.560   6.607  1.7289 -1.1601 -0.6494
  484MOL0     H66739   4.100   5.648   6.441 -1.7456 -3.0244  2.2520
  484MOL0     H66740   4.026   5.786   6.527  1.9158  3.2587 -1.1710
  484MOL0     H66741   4.383   5.632   6.457  1.0451  0.0123 -0.0464
  484MOL0     H66742   4.638   5.879   6.590  0.6093 -0.8338  1.1229
  484MOL0     H66743   4.633   5.734   6.494 -1.8228 -0.3987 -1.5980
  484MOL0     H66744   4.760   5.698   6.695  0.1117 -1.1237  1.9420
  484MOL0     H66745   4.645   5.783   6.788 -0.3321  0.6520 -0.6025
  484MOL0     H66746   4.524   5.536   6.651  2.3325 -1.4469 -1.3245
  484MOL0     H66747   4.671   5.502   6.743 -1.7626 -1.5320  2.2282
  484MOL0     H66748   4.601   5.597   6.939  0.3433 -1.4080  1.6981
  484MOL0     H66749   4.446   5.653   6.877  1.4280  0.4465  0.8698
  484MOL0     H66750   4.723   5.422   6.916  1.9562 -2.3659  0.0724
  484MOL0     H66751   4.936   5.196   7.051  1.1576  0.6433  0.1935
  484MOL0     H66752   4.881   5.314   7.185  0.3401 -0.9074 -0.2038
  484MOL0     H66753   4.923   5.369   7.027  1.3891  0.3118  1.7207
  484MOL0     H66754   4.848   4.759   7.105 -2.4957  0.6870 -1.6761
  484MOL0     H66755   4.907   4.551   7.220  0.5558 -0.8255  4.3080
  484MOL0     H66756   4.841   4.329   7.275 -0.1853 -0.7053  0.3279
  484MOL0     H66757   4.975   4.412   7.373 -0.3950  1.9423 -3.0067
  484MOL0     H66758   4.936   4.163   7.382 -4.4247  1.1692 -4.0454
  484MOL0     H66759   4.954   4.258   7.541  0.7527  0.1224 -0.3552
  484MOL0     H66760   4.699   4.144   7.427  0.9176  0.0874 -0.4863
  484MOL0     H66761   4.737   4.235   7.588  1.1524  0.9484 -0.3824
  484MOL0     H66762   4.897   4.076   7.647 -1.3975 -1.3914  0.9530
  484MOL0     H66763   4.850   3.966   7.506 -1.1570  0.6884 -2.0344
  484MOL0     H66764   4.657   4.053   7.721 -1.6909  1.5758 -3.0307
  484MOL0     H66765   4.644   3.924   7.608 -0.4099  1.4853 -1.4895
  484MOL0     H66766   4.847   3.926   7.847  3.8041 -2.6031  0.9044
  484MOL0     H66767   4.873   3.825   7.699 -0.9643  0.2435 -0.7165
  484MOL0     H66768   4.755   3.701   7.864  2.9614  0.9515 -0.9629
  484MOL0     H66769   4.658   3.741   7.716 -0.4013  1.2157 -0.7930
  484MOL0     H66770   4.528   3.900   7.833 -0.6379 -1.3629 -0.5436
  484MOL0     H66771   4.619   3.885   7.978 -2.1126  1.6172 -0.9547
  484MOL0     H66772   4.571   4.609   7.483 -0.2963  0.7940 -0.7150
  484MOL0     H66773   4.527   4.838   7.372  1.7960  1.1915  1.1547
  484MOL0     H66774   4.450   5.069   7.130 -0.6432  0.4376 -0.3058
  484MOL0     H66775   4.344   5.241   7.005 -0.1733  2.2233  0.6103
  484MOL0     H66776   3.853   4.940   7.093  2.7752  1.7099 -0.0893
  484MOL0     H66777   3.776   4.732   7.210  2.8367  1.3647 -2.1494
  484MOL0     H66778   3.695   4.474   7.420  0.1867 -1.8871  0.7041
  484MOL0     H66779   3.650   4.234   7.463  0.9272  0.8408 -0.4108
  484MOL0     H66780   3.568   4.035   7.478  1.9664  0.4256  1.2246
  484MOL0     H66781   3.584   4.060   7.655  0.3338 -2.7068  0.4711
  484MOL0     H66782   3.506   3.834   7.571  1.3596  0.6685  0.3843
  484MOL0     H66783   3.356   3.910   7.520  1.2354 -0.6759 -1.0779
  484MOL0     H66784   3.481   3.880   7.805  1.2712  3.7859 -1.3116
  484MOL0     H66785   3.352   3.987   7.778 -0.0820  1.1297 -3.1950
  484MOL0     H66786   3.311   3.683   7.732 -0.9470  0.2587 -0.8032
  484MOL0     H66787   3.195   3.812   7.719 -0.0051  2.2316  0.2282
  484MOL0     H66788   3.201   3.775   8.133 -1.9703  0.7566  0.3202
  484MOL0     H66789   3.270   4.346   7.634  0.9513 -1.9210  0.1955
  484MOL0     H66790   3.235   4.578   7.712 -1.4074  1.4666 -0.3667
  484MOL0     H66791   3.361   4.701   7.676  2.2901 -1.1829 -0.5743
  484MOL0     H66792   3.228   4.648   7.554 -2.0632  2.1036  2.5100
  485MOL0     O66793   7.191   8.323   6.632 -0.0309 -0.4926  0.0735
  485MOL0     C66794   7.083   8.382   6.658 -0.6348 -0.0757 -0.4491
  485MOL0     O66795   7.048   8.434   6.785 -0.5340  0.0914  0.5328
  485MOL0     C66796   7.122   8.379   6.889 -0.4991  0.0124  1.1580
  485MOL0     C66797   7.061   8.287   6.970 -0.4617 -0.9652 -0.4314
  485MOL0     C66798   7.116   8.239   7.092  0.8781  0.8722  0.6938
  485MOL0     C66799   7.241   8.275   7.132 -0.1503  0.2269 -0.3531
  485MOL0     O66800   7.294   8.234   7.252  0.1257 -0.5912 -0.4889
  485MOL0     C66801   7.276   8.094   7.293 -0.9160  0.3084  0.5884
  485MOL0     C66802   7.397   8.039   7.358 -0.3064  0.2935 -0.5096
  485MOL0     C66803   7.529   8.025   7.277 -0.9957 -0.6011  0.6801
  485MOL0     C66804   7.648   7.997   7.376 -0.0220  1.6006  0.6263
  485MOL0     C66805   7.780   7.968   7.288 -0.2064  0.7589  0.0981
  485MOL0     C66806   7.889   7.949   7.392  0.1365  0.6801  0.4670
  485MOL0     C66807   8.028   7.955   7.335  0.8572  0.0912 -0.5338
  485MOL0     C66808   8.067   8.097   7.305  0.5979  0.4287  0.9968
  485MOL0     N66809   8.180   8.091   7.208  0.4087 -0.1951 -1.5025
  485MOL0     C66810   8.303   8.132   7.260 -0.5627  0.1416  0.5318
  485MOL0     C66811   8.390   8.111   7.152  0.6590  0.7624 -0.4390
  485MOL0     C66812   8.538   8.142   7.148 -0.2199 -0.8691 -0.2612
  485MOL0     C66813   8.589   8.148   7.007 -0.6726 -0.6847  0.0475
  485MOL0     C66814   8.740   8.146   6.994  0.6154 -0.5147 -0.7337
  485MOL0     C66815   8.795   8.127   6.861  0.0101 -0.4824  0.7609
  485MOL0     O66816   8.756   8.231   6.765  0.4821  0.0086 -0.6614
  485MOL0     C66817   8.780   8.206   6.632  0.2267 -0.5439  0.2244
  485MOL0     C66818   8.697   8.113   6.563  0.2831  0.4086  0.2311
  485MOL0     C66819   8.716   8.103   6.425 -0.2957  0.6208  0.9839
  485MOL0     C66820   8.619   8.019   6.349 -0.3423  1.0332  0.0118
  485MOL0     C66821   8.802   8.189   6.353  0.1069 -0.3849  0.0408
  485MOL0     C66822   8.827   8.180   6.210 -0.6760  0.5888 -0.1288
  485MOL0     O66823   8.846   8.301   6.154 -0.1792  0.1124  0.1884
  485MOL0     C66824   8.874   8.304   6.020 -0.2741 -0.4952 -0.1234
  485MOL0     C66825   9.002   8.324   5.973 -0.3395  0.4201  0.7770
  485MOL0     C66826   9.026   8.341   5.833 -0.5541  0.3345 -0.7193
  485MOL0     C66827   8.936   8.310   5.734 -0.6530  0.6127 -0.3866
  485MOL0     O66828   8.962   8.323   5.595  0.0604  0.4030 -0.2339
  485MOL0     C66829   9.069   8.239   5.546  0.0932 -0.2191  0.1607
  485MOL0     C66830   9.064   8.241   5.392 -0.2606 -1.6721  0.0199
  485MOL0     C66831   9.088   8.097   5.336  0.1831 -0.1499  0.3410
  485MOL0     C66832   9.058   8.108   5.185 -0.5305  0.8492  0.5161
  485MOL0     C66833   9.042   7.973   5.105  0.2025  0.2132  0.4973
  485MOL0     C66834   9.166   7.880   5.117  0.9711  0.4291 -0.6237
  485MOL0     C66835   9.282   7.929   5.034 -0.2007  0.5091 -0.7760
  485MOL0     C66836   9.410   7.853   5.081  0.0360 -0.1010 -0.8341
  485MOL0    Cl66837   9.458   7.921   5.238 -0.1157 -0.0380 -0.1085
  485MOL0     C66838   8.802   8.295   5.779 -0.1329  0.0383 -0.0382
  485MOL0     C66839   8.773   8.298   5.922  0.4949 -0.3145  0.1626
  485MOL0     O66840   8.839   8.073   6.157 -0.1350  0.9947 -0.2955
  485MOL0     C66841   8.872   8.289   6.423 -0.9089  0.3622  0.0914
  485MOL0     C66842   8.864   8.290   6.562 -0.5352  0.0321 -0.5198
  485MOL0     N66843   8.314   8.074   7.045  0.6134 -0.3033  0.2933
  485MOL0     N66844   8.186   8.062   7.073  0.0354  0.0518 -0.0170
  485MOL0     C66845   7.303   8.371   7.044  0.4830  0.0056  0.7248
  485MOL0     C66846   7.250   8.417   6.919 -0.1343 -0.8797  0.7705
  485MOL0     C66847   6.988   8.401   6.549  0.8684  0.0548 -0.4428
  485MOL0     C66848   6.845   8.415   6.570  0.6982  0.6335 -0.8276
  485MOL0     C66849   6.753   8.440   6.468  0.1230 -0.3501  0.4751
  485MOL0     C66850   6.798   8.450   6.337 -0.6536 -0.8389  0.2210
  485MOL0     O66851   6.733   8.474   6.222  0.4739  0.0136  0.0019
  485MOL0     C66852   6.589   8.492   6.219 -0.4615 -0.4484  0.1097
  485MOL0     C66853   6.541   8.420   6.087  0.3830  0.3509  0.4399
  485MOL0     C66854   6.415   8.492   6.045 -0.0743 -0.4616  0.6130
  485MOL0     C66855   6.373   8.476   5.900 -0.2823 -1.0765 -0.2594
  485MOL0     C66856   6.251   8.548   5.865  0.3957 -0.8720 -0.6193
  485MOL0     C66857   6.154   8.615   5.836 -1.4366 -0.6703  0.0519
  485MOL0     C66858   6.937   8.447   6.306  0.2538 -0.4651 -0.6286
  485MOL0     C66859   7.036   8.428   6.414 -0.0141  0.6556 -0.2506
  485MOL0     C66860   7.180   8.456   6.371  0.3271 -0.3330  0.0008
  485MOL0     H66861   6.961   8.267   6.934 -0.9553 -0.9105  0.8751
  485MOL0     H66862   7.062   8.172   7.158  2.2279 -0.1353  0.8249
  485MOL0     H66863   7.253   8.028   7.209 -2.1055  0.1587  1.0080
  485MOL0     H66864   7.191   8.086   7.360 -1.0335 -0.1733  0.3860
  485MOL0     H66865   7.413   8.092   7.453  2.4562  2.1807 -1.8853
  485MOL0     H66866   7.352   7.941   7.373 -1.4410  0.4688 -2.4154
  485MOL0     H66867   7.535   7.942   7.206  2.4011  1.2856 -1.4864
  485MOL0     H66868   7.561   8.112   7.220 -0.7403 -0.1944  1.4316
  485MOL0     H66869   7.657   8.086   7.439 -2.1625  0.7663  2.2303
  485MOL0     H66870   7.644   7.911   7.443 -2.4456  0.3522 -0.9616
  485MOL0     H66871   7.796   8.054   7.223 -1.9687 -0.4164 -2.0483
  485MOL0     H66872   7.774   7.880   7.223  1.6825  0.5383  0.1673
  485MOL0     H66873   7.882   8.011   7.481 -0.2602  2.5300 -0.8018
  485MOL0     H66874   7.856   7.849   7.423  1.2110  0.0737 -0.2649
  485MOL0     H66875   8.021   7.903   7.239 -1.5578 -0.0173 -0.3688
  485MOL0     H66876   8.098   7.909   7.405  0.1064  0.8786  0.7803
  485MOL0     H66877   7.988   8.153   7.255  0.6892  0.2961  0.7017
  485MOL0     H66878   8.096   8.158   7.391  1.2799  4.0192 -1.6115
  485MOL0     H66879   8.316   8.164   7.362 -2.6109  1.0218  0.5576
  485MOL0     H66880   8.603   8.067   7.195  1.4028 -0.7892 -2.2121
  485MOL0     H66881   8.559   8.233   7.205 -0.7949 -0.3396 -0.8889
  485MOL0     H66882   8.546   8.060   6.960 -1.4070 -0.6403  0.6178
  485MOL0     H66883   8.547   8.242   6.971 -1.5521  0.8720  4.5014
  485MOL0     H66884   8.772   8.243   7.035 -1.2674 -1.0406  2.2411
  485MOL0     H66885   8.780   8.061   7.050  1.8321  0.1260 -0.5745
  485MOL0     H66886   8.899   8.161   6.870 -0.9566  2.4472  2.2284
  485MOL0     H66887   8.777   8.028   6.818 -0.9201 -0.2114  0.4943
  485MOL0     H66888   8.639   8.046   6.626  0.4911  1.7312  1.9104
  485MOL0     H66889   8.606   7.928   6.408  2.6307 -0.6648 -1.6576
  485MOL0     H66890   8.640   7.995   6.244 -1.3597  0.7704 -0.1383
  485MOL0     H66891   8.521   8.066   6.354 -1.2519 -0.9163  3.6010
  485MOL0     H66892   9.085   8.339   6.041 -0.6987  0.1450  1.2790
  485MOL0     H66893   9.129   8.364   5.807  0.0893 -1.0499  0.4513
  485MOL0     H66894   9.171   8.272   5.571  0.6720 -0.1684 -2.0369
  485MOL0     H66895   9.052   8.142   5.592 -0.6045 -1.3251 -2.3286
  485MOL0     H66896   8.970   8.287   5.363  2.3930  4.1690 -0.6564
  485MOL0     H66897   9.146   8.308   5.362  1.9048 -2.7272  3.0422
  485MOL0     H66898   9.014   8.026   5.376  0.7254  0.6279  2.9236
  485MOL0     H66899   9.191   8.063   5.346  0.4056  1.0702  3.0817
  485MOL0     H66900   9.137   8.164   5.136  0.6913 -1.9516 -0.9690
  485MOL0     H66901   8.962   8.160   5.177 -1.0379  0.1443  1.7030
  485MOL0     H66902   8.951   7.921   5.136  2.2706 -3.6548  0.6140
  485MOL0     H66903   9.024   8.018   5.007 -0.1463  0.1587  0.5337
  485MOL0     H66904   9.147   7.776   5.090  1.4951 -0.2905  1.5780
  485MOL0     H66905   9.190   7.879   5.224 -0.1617  1.5193 -0.3208
  485MOL0     H66906   9.297   8.038   5.035 -2.4404  1.0131 -4.4195
  485MOL0     H66907   9.258   7.917   4.928 -0.0990  3.0340 -1.1439
  485MOL0     H66908   9.492   7.858   5.008  3.0959 -2.5551  2.1119
  485MOL0     H66909   9.388   7.746   5.083  1.4600 -0.3948  0.4359
  485MOL0     H66910   8.717   8.278   5.712 -1.6142 -0.1675  1.8183
  485MOL0     H66911   8.674   8.281   5.965  1.7610 -0.7220  3.1464
  485MOL0     H66912   8.916   8.376   6.375 -1.4055  0.1703 -0.7148
  485MOL0     H66913   8.921   8.362   6.620  1.5330 -1.0120 -1.1655
  485MOL0     H66914   7.405   8.379   7.079  0.4332 -1.2123  1.2046
  485MOL0     H66915   7.298   8.496   6.863 -0.5314 -0.2703  1.2710
  485MOL0     H66916   6.790   8.406   6.663  1.8897 -1.8778 -0.2920
  485MOL0     H66917   6.645   8.442   6.484  0.4079  1.2070  2.6824
  485MOL0     H66918   6.530   8.447   6.299 -0.0036 -1.4534 -0.1035
  485MOL0     H66919   6.573   8.600   6.221  1.6023 -0.0793  2.5101
  485MOL0     H66920   6.535   8.312   6.107  0.4462  0.7245  2.7423
  485MOL0     H66921   6.614   8.431   6.007 -0.9647 -1.6386 -1.2004
  485MOL0     H66922   6.330   8.462   6.107 -0.6956  3.7115  2.1228
  485MOL0     H66923   6.430   8.599   6.065  3.3378 -0.2306 -2.1452
  485MOL0     H66924   6.363   8.369   5.878 -0.5334 -0.5296 -3.1676
  485MOL0     H66925   6.460   8.502   5.839 -1.0066  1.0620 -0.4607
  485MOL0     H66926   6.065   8.664   5.802 -2.3276 -2.6147 -0.5401
  485MOL0     H66927   6.963   8.440   6.201  1.3975  0.5093 -0.4380
  485MOL0     H66928   7.235   8.492   6.458  0.5788  2.2837 -1.1464
  485MOL0     H66929   7.229   8.373   6.320 -0.3929  0.6623 -2.4856
  485MOL0     H66930   7.177   8.532   6.292 -0.0693 -1.7346 -1.3713
  486MOL0     O66931   9.671   5.391   5.909 -0.0689 -0.1186 -0.1670
  486MOL0     C66932   9.671   5.499   5.962  0.5581 -0.0145  1.4517
  486MOL0     O66933   9.644   5.523   6.093  0.0978 -0.5595 -0.0889
  486MOL0     C66934   9.608   5.419   6.174 -0.1903 -0.1106 -0.2728
  486MOL0     C66935   9.667   5.298   6.184 -1.0518 -0.6400  0.0768
  486MOL0     C66936   9.628   5.214   6.288 -0.0668  0.5736  0.8133
  486MOL0     C66937   9.515   5.239   6.367  0.1566 -0.7564  0.5901
  486MOL0     O66938   9.453   5.152   6.458 -0.1232  0.2993  0.0169
  486MOL0     C66939   9.442   5.021   6.400  0.5143  0.5983  0.0946
  486MOL0     C66940   9.314   4.949   6.452  0.5972 -0.2255 -0.0321
  486MOL0     C66941   9.175   4.998   6.397  1.1137  0.8778 -0.4692
  486MOL0     C66942   9.053   4.923   6.472 -1.3259  0.3329  0.6152
  486MOL0     C66943   8.925   4.979   6.422  0.5266 -0.1169  0.5732
  486MOL0     C66944   8.810   4.915   6.498 -0.5058 -0.3107 -0.0102
  486MOL0     C66945   8.679   4.972   6.444 -0.4625 -0.7414  0.1719
  486MOL0     C66946   8.542   4.904   6.478  0.1011 -0.4805  0.1482
  486MOL0     N66947   8.524   4.779   6.404 -0.3761  0.1631  0.6536
  486MOL0     C66948   8.517   4.776   6.267 -0.5109 -0.4072  0.3760
  486MOL0     C66949   8.478   4.652   6.240 -0.0337  0.7029 -0.3777
  486MOL0     C66950   8.451   4.595   6.099  0.6030 -0.2723 -0.4950
  486MOL0     C66951   8.287   4.589   6.088  0.0753 -0.5590 -0.6894
  486MOL0     C66952   8.247   4.543   5.944 -0.8112  0.1679 -0.4762
  486MOL0     C66953   8.279   4.633   5.818  0.1453 -0.5780 -0.5263
  486MOL0     O66954   8.223   4.766   5.828  0.3173  0.3566 -0.2166
  486MOL0     C66955   8.285   4.866   5.906 -0.2032 -0.3027  0.5005
  486MOL0     C66956   8.221   4.927   6.011  0.2326 -0.4270  0.6704
  486MOL0     C66957   8.297   5.021   6.083 -0.0917 -0.4824  0.7268
  486MOL0     C66958   8.226   5.091   6.196  0.1174 -0.3639 -0.9976
  486MOL0     C66959   8.432   5.065   6.057  0.0660  1.0327  0.2824
  486MOL0     C66960   8.515   5.166   6.129  0.3538 -0.2657  0.2518
  486MOL0     O66961   8.612   5.222   6.052 -0.2652  0.8059 -0.1482
  486MOL0     C66962   8.703   5.303   6.112 -0.1714 -0.8674 -0.8355
  486MOL0     C66963   8.829   5.269   6.161  0.1649  0.8497 -0.0718
  486MOL0     C66964   8.906   5.359   6.245  0.6474 -0.4264  0.1122
  486MOL0     C66965   8.870   5.499   6.255 -0.0849  0.3723  0.0801
  486MOL0     O66966   8.946   5.594   6.314  0.3726  0.6623  0.2198
  486MOL0     C66967   9.085   5.583   6.318  0.4734 -1.0410  0.0199
  486MOL0     C66968   9.142   5.722   6.347 -0.2000 -0.3051  0.2014
  486MOL0     C66969   9.277   5.717   6.415  0.4323  0.8898 -0.0526
  486MOL0     C66970   9.364   5.848   6.409  0.8591  0.3532 -0.3585
  486MOL0     C66971   9.286   5.961   6.469 -0.2588 -0.5735  0.4446
  486MOL0     C66972   9.349   6.100   6.462 -0.2288 -0.0012  0.3556
  486MOL0     C66973   9.251   6.207   6.481  0.6613 -0.5003  0.6977
  486MOL0     C66974   9.182   6.259   6.360 -0.3950 -0.5204  0.9444
  486MOL0    Cl66975   9.046   6.365   6.385 -0.1816 -0.3059 -0.0172
  486MOL0     C66976   8.743   5.530   6.187 -0.4570  0.1347  0.7814
  486MOL0     C66977   8.660   5.435   6.125  0.5926 -0.3523  0.7088
  486MOL0     O66978   8.491   5.197   6.244  0.2793  0.0654 -0.9092
  486MOL0     C66979   8.491   5.002   5.946 -0.3579 -0.4190  1.1257
  486MOL0     C66980   8.416   4.910   5.873 -0.8286  0.4306  0.1125
  486MOL0     N66981   8.464   4.582   6.361 -0.2532 -0.2358  0.4261
  486MOL0     N66982   8.493   4.659   6.456 -0.0621  0.8165 -0.6565
  486MOL0     C66983   9.452   5.365   6.353  0.7860 -0.1095 -0.4463
  486MOL0     C66984   9.492   5.448   6.249  0.0339  0.5090 -0.2444
  486MOL0     C66985   9.690   5.619   5.877 -1.0000  1.1434 -0.2717
  486MOL0     C66986   9.767   5.612   5.763  0.1696  0.1515 -0.4006
  486MOL0     C66987   9.798   5.714   5.674 -1.1017 -0.2368  0.6591
  486MOL0     C66988   9.777   5.846   5.722 -0.1301  0.0099  0.0225
  486MOL0     O66989   9.822   5.965   5.675  0.3635  0.1873  0.5465
  486MOL0     C66990   9.910   5.959   5.558  0.1671  0.0279 -1.0525
  486MOL0     C66991   9.830   5.944   5.428  0.1785 -0.5934 -0.7391
  486MOL0     C66992   9.720   6.061   5.407  0.1339  1.1543  1.0253
  486MOL0     C66993   9.587   6.006   5.354  1.4979 -0.5942  0.0943
  486MOL0     C66994   9.587   5.904   5.245 -0.2758  0.0269  0.5945
  486MOL0     C66995   9.590   5.820   5.162  0.0670 -0.0750  0.1120
  486MOL0     C66996   9.702   5.857   5.844 -1.1032 -0.3144 -0.5808
  486MOL0     C66997   9.659   5.747   5.917  0.0236 -0.8724  0.2713
  486MOL0     C66998   9.586   5.778   6.039  0.3634  0.7692 -0.0884
  486MOL0     H66999   9.757   5.262   6.134 -0.8762  0.3291 -0.3335
  486MOL0     H67000   9.681   5.119   6.299 -0.4782  0.1148 -0.8469
  486MOL0     H67001   9.529   4.957   6.418  0.5950  0.6265 -0.1836
  486MOL0     H67002   9.433   5.018   6.291  0.4789  0.6794  0.0954
  486MOL0     H67003   9.317   4.840   6.438 -3.6989 -0.3274 -1.7808
  486MOL0     H67004   9.305   4.977   6.557  1.0263  1.9900 -0.5343
  486MOL0     H67005   9.164   5.104   6.424 -2.7191  0.0373  2.1127
  486MOL0     H67006   9.162   4.980   6.290  1.7058 -0.6310 -0.3062
  486MOL0     H67007   9.062   4.819   6.437 -1.2967  0.1778  1.0753
  486MOL0     H67008   9.068   4.930   6.580 -0.7035  1.2946  0.4792
  486MOL0     H67009   8.914   4.968   6.314  0.1129  0.9936  0.4827
  486MOL0     H67010   8.914   5.088   6.432 -0.3810  0.2159 -2.8448
  486MOL0     H67011   8.809   4.810   6.468  0.2197 -0.7337  1.3281
  486MOL0     H67012   8.819   4.921   6.607 -2.4899 -0.9059  0.2179
  486MOL0     H67013   8.697   4.997   6.339  2.1360  3.0288  1.3080
  486MOL0     H67014   8.665   5.077   6.472  2.1778  0.5617 -2.6986
  486MOL0     H67015   8.538   4.884   6.586  0.0265  1.8731  0.6497
  486MOL0     H67016   8.462   4.974   6.454 -0.2247 -0.3096  1.6260
  486MOL0     H67017   8.538   4.864   6.206  1.2835  0.7897  2.5654
  486MOL0     H67018   8.494   4.495   6.084 -0.1838 -0.5714 -0.8020
  486MOL0     H67019   8.498   4.656   6.023  0.7466  0.8219  0.4418
  486MOL0     H67020   8.253   4.513   6.159 -0.0832  0.1666  0.0260
  486MOL0     H67021   8.230   4.682   6.091  0.5216 -0.2360 -1.8251
  486MOL0     H67022   8.291   4.445   5.925 -2.0749 -0.1421 -1.9570
  486MOL0     H67023   8.139   4.533   5.935 -0.9255  2.7078 -3.5595
  486MOL0     H67024   8.388   4.642   5.809  0.3815 -2.6646 -0.2464
  486MOL0     H67025   8.244   4.572   5.734 -0.5672  1.8286 -2.0604
  486MOL0     H67026   8.120   4.896   6.036  0.8846 -2.9300  0.5510
  486MOL0     H67027   8.241   5.199   6.193 -1.3278 -0.1040  0.2712
  486MOL0     H67028   8.249   5.049   6.294 -1.3331  0.3098 -0.3398
  486MOL0     H67029   8.121   5.062   6.198  0.4576 -2.5291  4.5534
  486MOL0     H67030   8.864   5.169   6.136  2.3378  1.4829  0.1895
  486MOL0     H67031   9.004   5.328   6.282  0.7815  2.4974  2.6216
  486MOL0     H67032   9.114   5.513   6.396 -1.1454  0.3429  1.9845
  486MOL0     H67033   9.116   5.550   6.219  2.1961  0.4060  0.0138
  486MOL0     H67034   9.161   5.774   6.253  2.0568  0.8759  1.2326
  486MOL0     H67035   9.063   5.779   6.395 -1.1533 -0.8625 -0.6718
  486MOL0     H67036   9.336   5.633   6.379 -3.2426 -1.6655 -0.7244
  486MOL0     H67037   9.259   5.691   6.520  3.4474  2.2562  0.9171
  486MOL0     H67038   9.383   5.865   6.302  1.5725  1.9422 -0.0166
  486MOL0     H67039   9.459   5.832   6.461  0.2718 -1.7322  0.1622
  486MOL0     H67040   9.190   5.964   6.416  0.0742 -1.5759 -0.2456
  486MOL0     H67041   9.270   5.936   6.575  0.5631  2.0488  1.2610
  486MOL0     H67042   9.399   6.113   6.366  1.5933 -2.5220  0.8558
  486MOL0     H67043   9.433   6.106   6.532 -0.1266 -3.1063  0.6146
  486MOL0     H67044   9.302   6.296   6.519 -2.2430  1.3317  0.6091
  486MOL0     H67045   9.184   6.183   6.564 -1.0986  0.4345 -0.3875
  486MOL0     H67046   9.141   6.179   6.298 -0.7211  0.7630 -0.5497
  486MOL0     H67047   9.253   6.307   6.293 -3.7519  1.9407 -1.1665
  486MOL0     H67048   8.709   5.633   6.193  1.0873  0.6436  1.3992
  486MOL0     H67049   8.555   5.460   6.111  0.0653 -2.4866  0.6200
  486MOL0     H67050   8.591   5.031   5.919  0.4658  0.5434  4.6578
  486MOL0     H67051   8.463   4.876   5.782 -0.4784 -0.5436  0.6390
  486MOL0     H67052   9.367   5.387   6.417 -1.0571 -3.0393 -1.7089
  486MOL0     H67053   9.435   5.533   6.214  0.1694  1.6955  2.1853
  486MOL0     H67054   9.800   5.516   5.726 -2.3406 -1.0314  0.2266
  486MOL0     H67055   9.854   5.691   5.584 -2.6870  1.7768 -0.9272
  486MOL0     H67056   9.962   6.055   5.554 -0.0953  0.1861 -0.7716
  486MOL0     H67057   9.982   5.876   5.560 -1.3349 -1.3403 -1.7681
  486MOL0     H67058   9.777   5.849   5.444 -0.5117  0.0859  1.2940
  486MOL0     H67059   9.904   5.939   5.347  1.6528  3.1668  0.1676
  486MOL0     H67060   9.716   6.117   5.501 -0.1695  0.9046  1.1643
  486MOL0     H67061   9.755   6.143   5.344 -0.1819  2.3384  2.3240
  486MOL0     H67062   9.526   6.088   5.314  1.0038 -1.0037 -0.0086
  486MOL0     H67063   9.536   5.968   5.443 -1.0948  1.4004 -0.4095
  486MOL0     H67064   9.592   5.745   5.086 -0.3801  0.1250 -0.0998
  486MOL0     H67065   9.675   5.958   5.871 -0.7020 -0.1002 -0.9595
  486MOL0     H67066   9.499   5.716   6.061  0.7431  0.8352  1.7434
  486MOL0     H67067   9.659   5.772   6.120  1.6334  2.6049 -1.0314
  486MOL0     H67068   9.551   5.881   6.030  0.9083  1.0762  1.1965
  487MOL0     O67069   4.621   8.939   0.003  0.7008 -0.0559  0.0420
  487MOL0     C67070   4.516   8.900   0.054 -0.3214 -0.3819  0.2148
  487MOL0     O67071   4.396   8.965   0.039 -0.1678  0.1785 -0.3441
  487MOL0     C67072   4.381   9.049  -0.070  0.8973 -0.3196  0.1371
  487MOL0     C67073   4.460   9.161  -0.117 -0.7818  0.7857 -0.5050
  487MOL0     C67074   4.436   9.215  -0.240  0.9651 -0.2072 -0.1633
  487MOL0     C67075   4.315   9.186  -0.315  0.1663  0.4806 -0.0921
  487MOL0     O67076   4.278   9.253  -0.423 -0.1797  0.2834 -0.1548
  487MOL0     C67077   4.361   9.263  -0.539  0.2909 -0.0392  0.4327
  487MOL0     C67078   4.382   9.409  -0.574 -0.4748  0.0783  0.0361
  487MOL0     C67079   4.439   9.440  -0.719 -0.4222 -0.5635 -0.9359
  487MOL0     C67080   4.335   9.418  -0.826 -0.2604 -0.3750  1.1024
  487MOL0     C67081   4.381   9.459  -0.976  0.1273  0.3106 -0.5137
  487MOL0     C67082   4.515   9.387  -1.016  0.0924 -0.2590  0.1638
  487MOL0     C67083   4.545   9.443  -1.163 -0.4849 -0.0521 -0.3891
  487MOL0     C67084   4.463   9.401  -1.286  0.7001 -0.1270 -0.2805
  487MOL0     N67085   4.559   9.351  -1.386  0.4960 -0.1367  0.1956
  487MOL0     C67086   4.601   9.421  -1.495  0.1589  0.5846 -0.0095
  487MOL0     C67087   4.687   9.336  -1.553  0.0570  0.1651  0.4170
  487MOL0     C67088   4.773   9.363  -1.667 -0.1302  0.4429 -1.4641
  487MOL0     C67089   4.876   9.465  -1.619  0.1830 -0.1751  0.3805
  487MOL0     C67090   4.933   9.523  -1.744  0.6581  1.0750 -0.5668
  487MOL0     C67091   5.071   9.595  -1.745  1.3857  0.7154  0.4782
  487MOL0     O67092   5.167   9.494  -1.736 -0.4417  0.3755  0.1214
  487MOL0     C67093   5.192   9.396  -1.825  0.5759 -0.0059 -0.4941
  487MOL0     C67094   5.156   9.402  -1.956 -0.2870 -0.2915 -0.0411
  487MOL0     C67095   5.217   9.310  -2.046 -1.1425  0.0822  0.0062
  487MOL0     C67096   5.197   9.339  -2.196 -0.2560 -0.9349  0.9374
  487MOL0     C67097   5.308   9.202  -2.008  0.5813  0.0966  0.7873
  487MOL0     C67098   5.355   9.088  -2.098 -0.4046 -0.3784 -0.0045
  487MOL0     O67099   5.398   8.981  -2.027 -0.1673 -0.3550 -0.9243
  487MOL0     C67100   5.464   8.878  -2.097  0.5125  0.2933 -0.7788
  487MOL0     C67101   5.403   8.760  -2.136  0.4127  0.3187 -0.1702
  487MOL0     C67102   5.484   8.662  -2.199  0.9599  0.4287 -0.3764
  487MOL0     C67103   5.616   8.665  -2.203  0.4737  0.1784 -0.7579
  487MOL0     O67104   5.677   8.543  -2.232 -0.1670  0.3639  0.0706
  487MOL0     C67105   5.815   8.550  -2.267  0.3801 -0.0406  0.5160
  487MOL0     C67106   5.835   8.469  -2.392 -0.0686  0.6808 -0.2559
  487MOL0     C67107   5.754   8.518  -2.511 -0.3236 -0.3967 -0.3063
  487MOL0     C67108   5.794   8.439  -2.645  0.4988  0.8560 -0.2398
  487MOL0     C67109   5.705   8.470  -2.765  0.2357  0.1708 -0.8135
  487MOL0     C67110   5.754   8.390  -2.882  0.6360 -0.2998 -0.4208
  487MOL0     C67111   5.654   8.426  -2.992 -0.1720  0.9044  0.2561
  487MOL0     C67112   5.719   8.395  -3.119 -0.8507  0.9637 -0.1426
  487MOL0    Cl67113   5.595   8.447  -3.243 -0.0389  0.1147  0.3655
  487MOL0     C67114   5.677   8.788  -2.168  0.7405  0.1906  0.5253
  487MOL0     C67115   5.602   8.895  -2.120 -0.2698  0.1993  1.4552
  487MOL0     O67116   5.356   9.096  -2.223 -0.0209  0.7877 -0.2660
  487MOL0     C67117   5.346   9.206  -1.868  0.6236  1.3996 -0.1621
  487MOL0     C67118   5.283   9.293  -1.784  0.6095  0.5537 -0.1278
  487MOL0     N67119   4.683   9.208  -1.490 -0.6367 -0.1677  0.7613
  487MOL0     N67120   4.611   9.225  -1.385 -1.1208 -0.4251  0.3061
  487MOL0     C67121   4.227   9.090  -0.265 -0.1942 -0.4743  0.1429
  487MOL0     C67122   4.263   9.024  -0.140  0.4247 -0.6936  1.1941
  487MOL0     C67123   4.521   8.782   0.145  0.0916  1.2508 -0.5688
  487MOL0     C67124   4.630   8.766   0.233 -1.0591 -0.3621  0.4866
  487MOL0     C67125   4.628   8.675   0.338 -0.8433  0.4701 -0.1707
  487MOL0     C67126   4.520   8.583   0.356 -0.5137 -0.3920 -0.0916
  487MOL0     O67127   4.508   8.493   0.466  0.8314 -1.1019  0.2991
  487MOL0     C67128   4.618   8.437   0.526 -0.1185 -0.0302 -0.6916
  487MOL0     C67129   4.658   8.311   0.447 -0.3881 -0.1963 -0.4132
  487MOL0     C67130   4.566   8.181   0.463  0.2438  0.2235 -0.3257
  487MOL0     C67131   4.631   8.063   0.412  0.2076 -0.0491 -1.2693
  487MOL0     C67132   4.762   8.027   0.471 -0.1670 -0.9617 -0.5736
  487MOL0     C67133   4.875   8.007   0.507 -0.1167 -0.1992 -0.0926
  487MOL0     C67134   4.418   8.587   0.261 -0.0837 -0.1588 -0.6900
  487MOL0     C67135   4.418   8.686   0.160  0.4251  0.6023  0.5754
  487MOL0     C67136   4.299   8.670   0.068 -0.2861  0.7681 -0.0296
  487MOL0     H67137   4.555   9.180  -0.067 -0.5847  0.2477 -0.6674
  487MOL0     H67138   4.489   9.304  -0.273 -0.4116  1.0269  0.8175
  487MOL0     H67139   4.293   9.221  -0.613 -0.4835  0.8176  0.6460
  487MOL0     H67140   4.451   9.200  -0.534  1.7405  1.9956  1.4689
  487MOL0     H67141   4.293   9.470  -0.557  0.4241  0.7715  2.7941
  487MOL0     H67142   4.456   9.449  -0.504 -0.9648 -0.5359  0.9164
  487MOL0     H67143   4.478   9.542  -0.722  1.3644 -1.1206  0.8818
  487MOL0     H67144   4.533   9.386  -0.726  0.1776  0.4981 -1.2864
  487MOL0     H67145   4.315   9.311  -0.817 -1.0952 -0.1231  2.5181
  487MOL0     H67146   4.242   9.467  -0.797 -1.0861 -2.2918  1.7833
  487MOL0     H67147   4.403   9.566  -0.978  1.9124 -0.0329 -0.7605
  487MOL0     H67148   4.295   9.432  -1.038  0.1440 -1.5536  0.2283
  487MOL0     H67149   4.592   9.424  -0.948 -0.6967  3.0460 -0.5412
  487MOL0     H67150   4.508   9.278  -1.014 -2.6309 -0.1555  0.3041
  487MOL0     H67151   4.649   9.421  -1.188  0.0128 -0.4113  1.7333
  487MOL0     H67152   4.542   9.551  -1.177  2.1752 -0.1542 -2.3712
  487MOL0     H67153   4.386   9.327  -1.263  1.1362 -0.8160 -0.9700
  487MOL0     H67154   4.415   9.486  -1.337 -0.3363  0.8978  2.2657
  487MOL0     H67155   4.583   9.521  -1.532  0.6723  0.5563 -0.3609
  487MOL0     H67156   4.718   9.406  -1.751 -1.9781 -2.2063 -1.7258
  487MOL0     H67157   4.819   9.272  -1.705  0.3736  1.7175 -4.2068
  487MOL0     H67158   4.840   9.544  -1.552  2.9184  0.8511  0.7446
  487MOL0     H67159   4.948   9.401  -1.568 -0.1464  0.2359  1.4038
  487MOL0     H67160   4.932   9.446  -1.821  0.1520  2.2145 -1.7428
  487MOL0     H67161   4.867   9.602  -1.782 -0.4306  0.0170 -0.9353
  487MOL0     H67162   5.063   9.645  -1.842 -3.7766  1.3973  0.9731
  487MOL0     H67163   5.059   9.670  -1.666 -4.9429 -1.4363  2.2341
  487MOL0     H67164   5.086   9.477  -1.990  1.4816  1.9485  0.9475
  487MOL0     H67165   5.154   9.434  -2.231 -0.7865 -0.1385  3.5253
  487MOL0     H67166   5.133   9.262  -2.240 -5.0374  2.3853  1.3128
  487MOL0     H67167   5.298   9.348  -2.238  0.6580 -0.8893  3.0127
  487MOL0     H67168   5.296   8.742  -2.128  0.4659  0.6084  1.9609
  487MOL0     H67169   5.437   8.565  -2.218 -0.8604  0.1250  4.3607
  487MOL0     H67170   5.842   8.652  -2.293  2.7678 -0.8445 -0.4584
  487MOL0     H67171   5.873   8.511  -2.183  0.5389  0.1393  0.4882
  487MOL0     H67172   5.940   8.469  -2.422  0.0174 -0.1103  0.0193
  487MOL0     H67173   5.787   8.371  -2.379 -2.1089  1.4382 -1.5617
  487MOL0     H67174   5.763   8.625  -2.530 -1.5377 -0.3098 -0.5272
  487MOL0     H67175   5.645   8.516  -2.495 -0.4598  3.2435  0.1536
  487MOL0     H67176   5.787   8.330  -2.634  1.8442  0.3600 -3.3142
  487MOL0     H67177   5.899   8.441  -2.675  0.9356 -0.8536  1.0147
  487MOL0     H67178   5.603   8.438  -2.740 -0.1869 -1.0015 -3.7072
  487MOL0     H67179   5.708   8.577  -2.788 -0.1211  0.2317 -0.5832
  487MOL0     H67180   5.740   8.283  -2.871  0.4334 -0.6209 -3.1099
  487MOL0     H67181   5.856   8.424  -2.904  0.5705  0.4923  0.4161
  487MOL0     H67182   5.636   8.533  -3.007  0.2134  0.8477 -0.6466
  487MOL0     H67183   5.558   8.374  -2.985 -0.0659  0.7721  0.7753
  487MOL0     H67184   5.757   8.293  -3.128  2.4950  2.0827 -0.0741
  487MOL0     H67185   5.817   8.444  -3.125  0.1577 -0.7291  1.4997
  487MOL0     H67186   5.785   8.797  -2.174  1.0333 -2.8412 -0.6477
  487MOL0     H67187   5.654   8.990  -2.117  0.1224  0.0678 -0.0942
  487MOL0     H67188   5.428   9.148  -1.829  1.4943  1.0148 -2.3850
  487MOL0     H67189   5.296   9.283  -1.677 -0.3612  1.8590  0.1274
  487MOL0     H67190   4.135   9.061  -0.316  0.1224  0.4434 -0.9908
  487MOL0     H67191   4.204   8.944  -0.097 -0.9257  1.8314  4.4512
  487MOL0     H67192   4.707   8.841   0.216 -1.2948 -0.2013  0.1126
  487MOL0     H67193   4.717   8.671   0.400 -0.3461 -0.1424 -0.8973
  487MOL0     H67194   4.712   8.493   0.518  1.0062 -1.7871 -0.3315
  487MOL0     H67195   4.601   8.421   0.632 -1.6935  0.1189 -0.9048
  487MOL0     H67196   4.756   8.285   0.488  0.0429  1.9146  0.0153
  487MOL0     H67197   4.671   8.333   0.340 -2.2566 -2.0977 -1.1148
  487MOL0     H67198   4.544   8.165   0.569  0.0687  0.8138 -0.2702
  487MOL0     H67199   4.476   8.214   0.411  1.2993  0.9824 -1.7282
  487MOL0     H67200   4.649   8.069   0.304 -1.3327  2.4557 -1.4742
  487MOL0     H67201   4.561   7.982   0.433  1.7437 -1.3449 -0.9616
  487MOL0     H67202   4.976   7.985   0.532 -0.4849  0.5429  2.2863
  487MOL0     H67203   4.345   8.506   0.268  0.5884 -0.6566  0.9559
  487MOL0     H67204   4.271   8.765   0.021 -0.3269  0.3523 -0.8610
  487MOL0     H67205   4.317   8.587   0.000  2.6918  1.5154 -0.2728
  487MOL0     H67206   4.216   8.639   0.133 -0.4694  2.3768  0.5583
  488MOL0     O67207   9.275   1.620   2.024  0.4168  0.4533 -0.2367
  488MOL0     C67208   9.314   1.679   1.923  0.5420 -0.0911  0.7638
  488MOL0     O67209   9.368   1.628   1.814 -0.1439  0.4503 -0.1761
  488MOL0     C67210   9.356   1.491   1.800  0.6806  0.4375  0.3285
  488MOL0     C67211   9.453   1.399   1.832  0.9473  0.5956 -0.4525
  488MOL0     C67212   9.432   1.255   1.807  0.1873 -0.5104 -0.7040
  488MOL0     C67213   9.312   1.205   1.751 -0.0325  0.3096 -0.2664
  488MOL0     O67214   9.309   1.070   1.723 -0.1170  0.7040 -0.4103
  488MOL0     C67215   9.202   1.017   1.648  0.4341  0.6381 -0.0654
  488MOL0     C67216   9.196   0.856   1.655  0.3626 -0.2151  0.2234
  488MOL0     C67217   9.309   0.772   1.597 -0.6269 -0.4418 -0.1025
  488MOL0     C67218   9.349   0.804   1.455 -0.1812 -0.1611  0.2991
  488MOL0     C67219   9.415   0.691   1.379 -0.4721  0.2110  0.6311
  488MOL0     C67220   9.562   0.671   1.434  0.0810 -0.4072 -0.0364
  488MOL0     C67221   9.655   0.581   1.352  0.1532 -0.5468 -0.1707
  488MOL0     C67222   9.693   0.644   1.214 -0.3671  0.2617  0.3717
  488MOL0     N67223   9.635   0.584   1.092 -0.3746 -0.0071 -0.4078
  488MOL0     C67224   9.647   0.442   1.073  0.3599 -0.8801 -0.0528
  488MOL0     C67225   9.560   0.419   0.965  0.3412  0.1073 -1.0777
  488MOL0     C67226   9.537   0.288   0.908  0.8625 -0.4582 -0.2542
  488MOL0     C67227   9.543   0.281   0.755 -0.0222 -0.5768 -0.1114
  488MOL0     C67228   9.679   0.313   0.695  0.4942 -0.0075 -0.8716
  488MOL0     C67229   9.779   0.200   0.731 -0.9518 -0.2225  0.9491
  488MOL0     O67230   9.917   0.233   0.684 -0.1530  1.5461 -0.6113
  488MOL0     C67231   9.940   0.197   0.557 -0.9421 -0.5088  0.9246
  488MOL0     C67232   9.900   0.077   0.496  0.6694 -1.3131 -0.0005
  488MOL0     C67233   9.938   0.053   0.360 -0.0305 -0.0335 -0.8059
  488MOL0     C67234   9.890  -0.087   0.309 -0.2271 -0.1774  0.4534
  488MOL0     C67235  10.000   0.157   0.283 -0.3022 -0.4239 -0.0840
  488MOL0     C67236  10.041   0.140   0.136  0.9992 -0.1173 -0.2275
  488MOL0     O67237  10.142   0.216   0.084  0.1297 -0.3784 -0.4521
  488MOL0     C67238  10.217   0.162  -0.013  0.0551  0.2267  0.5238
  488MOL0     C67239  10.288   0.247  -0.097 -0.7732 -0.4981  0.3910
  488MOL0     C67240  10.372   0.192  -0.201  0.1295 -0.2218 -0.6838
  488MOL0     C67241  10.385   0.059  -0.228 -0.1512  0.4001 -0.5988
  488MOL0     O67242  10.460   0.017  -0.336 -0.2170 -0.8591  0.5298
  488MOL0     C67243  10.394   0.038  -0.463  0.5882  0.0046 -0.4515
  488MOL0     C67244  10.489   0.055  -0.573 -0.2733 -0.1666  1.0976
  488MOL0     C67245  10.537   0.202  -0.596  0.0925  0.4846 -0.9553
  488MOL0     C67246  10.564   0.235  -0.736  0.1785  0.2918  0.4581
  488MOL0     C67247  10.433   0.269  -0.811 -0.2460 -0.8643  0.6086
  488MOL0     C67248  10.468   0.282  -0.962 -0.0568  0.5153 -0.0568
  488MOL0     C67249  10.332   0.300  -1.036 -0.9612 -0.2675 -0.1105
  488MOL0     C67250  10.328   0.418  -1.128 -0.8749  0.0853 -0.4300
  488MOL0    Cl67251  10.370   0.563  -1.030 -0.3243  0.2929  0.0079
  488MOL0     C67252  10.316  -0.029  -0.140 -0.4561  0.3534  0.5933
  488MOL0     C67253  10.234   0.021  -0.037 -0.2562 -0.8496 -0.4713
  488MOL0     O67254   9.987   0.045   0.080  0.4217  0.5906 -0.0941
  488MOL0     C67255  10.039   0.273   0.350  0.2829 -0.3902  0.7655
  488MOL0     C67256  10.018   0.291   0.484 -0.0259 -0.1789 -0.4640
  488MOL0     N67257   9.521   0.542   0.922  0.5608  0.4880  0.4630
  488MOL0     N67258   9.559   0.642   0.998 -0.2132  0.2409  0.4336
  488MOL0     C67259   9.210   1.299   1.721 -0.6126 -0.1588 -0.7608
  488MOL0     C67260   9.231   1.439   1.750 -0.7229 -0.2351  0.7910
  488MOL0     C67261   9.299   1.824   1.924  0.3989  1.0887 -0.0865
  488MOL0     C67262   9.180   1.882   1.866 -0.7620 -0.4145 -0.0864
  488MOL0     C67263   9.171   2.022   1.853  0.7435  0.2273  0.0785
  488MOL0     C67264   9.271   2.102   1.903  0.9756 -0.6496 -0.0099
  488MOL0     O67265   9.274   2.240   1.910  0.0210  0.0884  0.3704
  488MOL0     C67266   9.152   2.304   1.942  0.4465 -0.5463  0.5704
  488MOL0     C67267   9.084   2.361   1.818 -0.2390 -0.3464 -0.1899
  488MOL0     C67268   8.942   2.397   1.848  0.2538 -0.2889 -0.4446
  488MOL0     C67269   8.885   2.468   1.728 -0.0866 -1.0021  0.0670
  488MOL0     C67270   8.741   2.487   1.761  0.5101 -0.8772  0.1959
  488MOL0     C67271   8.624   2.506   1.783 -0.5871  0.5357  1.2185
  488MOL0     C67272   9.381   2.040   1.975 -0.4800 -0.0969  0.6928
  488MOL0     C67273   9.409   1.906   1.963 -0.0543 -0.0287  0.1492
  488MOL0     C67274   9.549   1.854   1.995  1.3262 -0.5793 -0.2504
  488MOL0     H67275   9.552   1.434   1.856  1.2999 -1.3587  1.2145
  488MOL0     H67276   9.512   1.184   1.821 -1.2573 -2.0054  0.4459
  488MOL0     H67277   9.223   1.040   1.544 -0.7311 -0.6665 -0.6140
  488MOL0     H67278   9.116   1.079   1.679 -0.0052  1.3853 -2.5461
  488MOL0     H67279   9.170   0.836   1.759 -2.0705  3.5762  0.5461
  488MOL0     H67280   9.102   0.829   1.607  0.5350  2.3555 -1.7995
  488MOL0     H67281   9.400   0.783   1.656 -0.8909 -2.1901  0.6814
  488MOL0     H67282   9.280   0.668   1.613 -0.5098 -0.1893  2.0757
  488MOL0     H67283   9.255   0.827   1.403 -0.5731 -0.2076  0.9808
  488MOL0     H67284   9.418   0.889   1.449  1.0870 -0.9891  2.2392
  488MOL0     H67285   9.407   0.712   1.272 -1.7730  1.5180  0.9599
  488MOL0     H67286   9.370   0.593   1.399  4.0303 -2.2882 -0.1288
  488MOL0     H67287   9.621   0.762   1.449  0.3065 -0.8264  1.9083
  488MOL0     H67288   9.555   0.644   1.539 -0.7356  2.5969  0.7918
  488MOL0     H67289   9.627   0.475   1.347 -1.9971  0.0038 -0.9188
  488MOL0     H67290   9.748   0.583   1.409  0.7978  1.4682 -1.2009
  488MOL0     H67291   9.675   0.752   1.209 -2.4654 -0.0700 -0.1975
  488MOL0     H67292   9.802   0.636   1.208 -0.3187  0.2857  1.0688
  488MOL0     H67293   9.714   0.372   1.123 -2.3549 -3.2408  0.5508
  488MOL0     H67294   9.437   0.256   0.940  0.2775 -0.6703 -2.1774
  488MOL0     H67295   9.610   0.217   0.947 -0.3760 -1.5730  0.1190
  488MOL0     H67296   9.519   0.181   0.717 -0.0306 -0.6012 -0.0434
  488MOL0     H67297   9.474   0.349   0.705  1.3771  1.0586  0.1073
  488MOL0     H67298   9.677   0.320   0.586  1.1352  1.5514 -0.8107
  488MOL0     H67299   9.721   0.412   0.719  0.6369  0.1531 -1.7548
  488MOL0     H67300   9.790   0.179   0.838  1.8086 -2.2580  0.3642
  488MOL0     H67301   9.737   0.109   0.687  2.1197 -1.2046 -0.1669
  488MOL0     H67302   9.845   0.004   0.555 -3.2137 -0.0490 -1.6842
  488MOL0     H67303   9.861  -0.153   0.392 -0.4103 -1.7961 -0.8510
  488MOL0     H67304   9.981  -0.135   0.271  0.5593  1.4768  0.1329
  488MOL0     H67305   9.808  -0.083   0.237  0.2187 -0.2880 -0.0636
  488MOL0     H67306  10.284   0.353  -0.077  0.8553 -0.6334  1.7040
  488MOL0     H67307  10.431   0.265  -0.255 -1.3148  1.4848 -0.0651
  488MOL0     H67308  10.329  -0.050  -0.471 -0.4446  0.8286 -1.4845
  488MOL0     H67309  10.330   0.125  -0.441 -0.9583 -1.2011  0.0593
  488MOL0     H67310  10.581  -0.002  -0.559  0.3608  0.8138  1.0100
  488MOL0     H67311  10.449   0.004  -0.662  0.4045 -0.1540  0.7788
  488MOL0     H67312  10.621   0.232  -0.533  1.4228  2.5061 -3.5020
  488MOL0     H67313  10.452   0.266  -0.570 -2.0891 -2.4907 -0.2476
  488MOL0     H67314  10.607   0.150  -0.790  2.9851  1.3862  0.8227
  488MOL0     H67315  10.626   0.325  -0.736 -3.2102  2.8144  0.0307
  488MOL0     H67316  10.361   0.189  -0.794 -1.0052 -0.0707  1.1768
  488MOL0     H67317  10.378   0.361  -0.788 -1.0920 -0.6766 -1.8632
  488MOL0     H67318  10.513   0.195  -1.010 -0.7308 -1.7046  3.0087
  488MOL0     H67319  10.524   0.375  -0.976  0.9596 -0.1315 -0.3278
  488MOL0     H67320  10.241   0.311  -0.977 -2.0225  0.2786 -1.7683
  488MOL0     H67321  10.310   0.209  -1.093 -4.2504 -0.0657  0.6454
  488MOL0     H67322  10.233   0.425  -1.183  0.4449 -1.1207 -3.0225
  488MOL0     H67323  10.399   0.412  -1.211  0.0793  0.6383  0.3311
  488MOL0     H67324  10.313  -0.135  -0.164 -1.4318  0.4978 -0.0041
  488MOL0     H67325  10.180  -0.049   0.026 -0.9398 -1.0039 -1.2163
  488MOL0     H67326  10.083   0.357   0.298 -4.2003  1.2871 -0.7796
  488MOL0     H67327  10.057   0.379   0.535  0.2407 -2.1563  3.0712
  488MOL0     H67328   9.124   1.282   1.657  0.6541  2.0879 -3.2858
  488MOL0     H67329   9.152   1.505   1.717  0.3731  1.8438  2.1144
  488MOL0     H67330   9.109   1.805   1.837  0.2529 -0.9948 -1.0887
  488MOL0     H67331   9.080   2.071   1.820  0.8219 -0.4633 -1.2121
  488MOL0     H67332   9.071   2.239   1.975 -1.1354  0.2247 -1.5925
  488MOL0     H67333   9.161   2.371   2.028  0.2654  0.9964 -0.5651
  488MOL0     H67334   9.092   2.293   1.732  1.2927 -0.1441 -0.2452
  488MOL0     H67335   9.141   2.453   1.800 -1.3735  0.2875 -0.6193
  488MOL0     H67336   8.890   2.305   1.877  2.5661 -1.1557  1.2468
  488MOL0     H67337   8.944   2.461   1.937  1.8991 -1.6042  0.5151
  488MOL0     H67338   8.884   2.402   1.640  4.1618  1.6469 -2.3352
  488MOL0     H67339   8.947   2.551   1.695  0.4588 -2.4578 -2.9608
  488MOL0     H67340   8.524   2.538   1.801 -0.7873  1.6641 -1.4757
  488MOL0     H67341   9.461   2.102   2.014  0.6431  0.1906 -1.8249
  488MOL0     H67342   9.542   1.755   2.042  1.2893 -0.3098  0.3113
  488MOL0     H67343   9.617   1.854   1.909  1.1247 -0.4605 -0.4117
  488MOL0     H67344   9.607   1.918   2.062  3.6047 -1.1785 -1.5472
  489MOL0     O67345   0.329   6.786   8.043  0.1869  0.5289 -0.0418
  489MOL0     C67346   0.333   6.662   8.051  0.5413  0.4981  0.0057
  489MOL0     O67347   0.259   6.581   7.977  0.4260 -0.3194 -0.0708
  489MOL0     C67348   0.202   6.647   7.860  0.9848  0.5614  0.1448
  489MOL0     C67349   0.067   6.636   7.830 -0.2871 -0.2171  0.2586
  489MOL0     C67350   0.019   6.688   7.711 -0.3051  0.4201  0.8043
  489MOL0     C67351   0.112   6.740   7.610  0.9508  0.0862  0.1010
  489MOL0     O67352   0.061   6.768   7.491 -0.1779  0.0047  0.2482
  489MOL0     C67353   0.126   6.834   7.382 -0.2640 -0.9061  0.4290
  489MOL0     C67354   0.183   6.722   7.294 -0.1531 -0.8581  0.6226
  489MOL0     C67355   0.099   6.637   7.205  0.1406  0.9303 -0.4297
  489MOL0     C67356   0.033   6.512   7.266  0.2258  0.3209 -0.7024
  489MOL0     C67357   0.132   6.409   7.326 -0.2090 -0.4315 -0.1775
  489MOL0     C67358   0.064   6.278   7.361 -0.6215  0.3929  0.5316
  489MOL0     C67359   0.155   6.173   7.431 -0.0771 -0.4076 -0.3824
  489MOL0     C67360   0.073   6.050   7.474 -0.4554  0.0298  0.2393
  489MOL0     N67361   0.143   5.936   7.535 -0.1110 -0.0252 -0.0015
  489MOL0     C67362   0.271   5.906   7.503  0.2262  0.4995 -0.5135
  489MOL0     C67363   0.302   5.812   7.600 -0.0258 -0.5795 -0.7306
  489MOL0     C67364   0.442   5.754   7.618 -0.7105 -0.1249 -0.0059
  489MOL0     C67365   0.473   5.681   7.745  0.2290 -0.9234  0.4050
  489MOL0     C67366   0.441   5.531   7.758  0.0004  0.9429 -0.2034
  489MOL0     C67367   0.414   5.483   7.895 -0.5556 -0.3953 -0.2644
  489MOL0     O67368   0.534   5.478   7.976  0.0307  0.4644  0.5493
  489MOL0     C67369   0.585   5.356   8.013  0.9233 -0.4205  0.5378
  489MOL0     C67370   0.608   5.261   7.915 -0.4741  0.1281  0.0171
  489MOL0     C67371   0.642   5.132   7.953 -0.0153  0.0021 -0.3544
  489MOL0     C67372   0.668   5.037   7.835  0.2051 -1.1224  0.1796
  489MOL0     C67373   0.659   5.097   8.089 -0.4608  0.7700 -0.5610
  489MOL0     C67374   0.701   4.975   8.137 -0.2001 -0.1408 -0.3535
  489MOL0     O67375   0.652   4.932   8.255 -0.3541 -0.4124 -0.3847
  489MOL0     C67376   0.678   4.800   8.293 -0.2606  0.2058  0.0903
  489MOL0     C67377   0.750   4.769   8.410 -0.5918 -0.4322  0.7134
  489MOL0     C67378   0.788   4.633   8.442  0.3217 -0.4104  0.4790
  489MOL0     C67379   0.745   4.536   8.352  1.4808 -0.3918  0.0168
  489MOL0     O67380   0.768   4.409   8.395 -0.8963 -0.8291  0.5508
  489MOL0     C67381   0.853   4.330   8.313 -0.1852 -0.1254 -0.1775
  489MOL0     C67382   0.870   4.194   8.382 -0.0619  0.8009  0.4628
  489MOL0     C67383   0.940   4.087   8.288  0.3324  0.8078  0.4543
  489MOL0     C67384   1.088   4.123   8.282 -0.1930 -0.3693  0.0834
  489MOL0     C67385   1.170   4.001   8.234 -1.2220 -1.0221  0.5440
  489MOL0     C67386   1.135   3.934   8.101 -0.3940 -0.6411  0.4254
  489MOL0     C67387   1.216   3.808   8.078  0.1033  0.5454 -0.0469
  489MOL0     C67388   1.192   3.745   7.944  0.7381  0.8055  1.2113
  489MOL0    Cl67389   1.031   3.675   7.935 -0.1551 -0.1507  0.0661
  489MOL0     C67390   0.658   4.573   8.243  0.3619  0.6067 -0.8819
  489MOL0     C67391   0.632   4.703   8.205  0.1397 -0.2057 -0.8129
  489MOL0     O67392   0.795   4.915   8.079 -0.7343  0.1396  1.0969
  489MOL0     C67393   0.635   5.192   8.189  0.9190  0.3035 -0.2695
  489MOL0     C67394   0.604   5.322   8.146  0.3825  0.2002 -0.2891
  489MOL0     N67395   0.195   5.776   7.665  0.4837 -1.2005 -0.5937
  489MOL0     N67396   0.097   5.846   7.632 -0.0989 -0.5818  0.4284
  489MOL0     C67397   0.249   6.739   7.638 -0.4288  0.3390 -0.5089
  489MOL0     C67398   0.284   6.707   7.765 -0.3232 -0.0360 -0.3171
  489MOL0     C67399   0.413   6.593   8.156  1.0119  0.0696  0.0238
  489MOL0     C67400   0.420   6.449   8.149  0.4251  0.4171 -0.1353
  489MOL0     C67401   0.498   6.380   8.238  1.0807 -0.1738  0.0356
  489MOL0     C67402   0.578   6.439   8.331 -0.1901 -0.4912  0.0204
  489MOL0     O67403   0.667   6.378   8.419  0.6314  0.1438  0.7914
  489MOL0     C67404   0.675   6.236   8.415  0.3525 -0.6091 -0.7492
  489MOL0     C67405   0.553   6.182   8.502  0.0585  0.3969  0.5729
  489MOL0     C67406   0.580   6.193   8.652  0.3580 -0.4560  0.1549
  489MOL0     C67407   0.466   6.120   8.735  0.3625  0.4974 -0.7587
  489MOL0     C67408   0.370   6.218   8.767  0.8280  0.8745  0.2602
  489MOL0     C67409   0.277   6.297   8.800  0.0042 -0.1319  0.6618
  489MOL0     C67410   0.574   6.580   8.342  0.3605  0.0307 -0.8840
  489MOL0     C67411   0.487   6.660   8.257 -0.5383  0.2118  0.8504
  489MOL0     C67412   0.464   6.809   8.289 -0.4773 -1.1073 -0.8288
  489MOL0     H67413  -0.003   6.587   7.897 -1.3496  1.2330  0.2492
  489MOL0     H67414  -0.083   6.687   7.675  0.3579 -0.2222 -1.1856
  489MOL0     H67415   0.208   6.894   7.422 -2.3059  2.6165 -0.2487
  489MOL0     H67416   0.048   6.896   7.336 -1.9166 -2.2566  1.2875
  489MOL0     H67417   0.260   6.767   7.231 -1.0213  1.6045  1.2034
  489MOL0     H67418   0.236   6.659   7.367  1.2074 -0.1060  0.3156
  489MOL0     H67419   0.018   6.694   7.158 -1.7049  0.8969  2.4105
  489MOL0     H67420   0.171   6.610   7.127 -0.7864  1.2913 -1.4319
  489MOL0     H67421  -0.032   6.546   7.347  0.8367  0.6002 -0.3190
  489MOL0     H67422  -0.024   6.457   7.190  0.6871 -3.4964  1.4584
  489MOL0     H67423   0.188   6.441   7.415  2.2875 -0.4299 -1.6465
  489MOL0     H67424   0.212   6.375   7.260  2.4296 -0.5392  2.7878
  489MOL0     H67425  -0.020   6.305   7.426  0.8454  5.8547  0.6347
  489MOL0     H67426   0.021   6.236   7.270  1.5621 -0.7197 -0.0437
  489MOL0     H67427   0.219   6.208   7.513  1.1431 -1.7193 -0.7435
  489MOL0     H67428   0.223   6.144   7.351  0.1182 -0.8763 -0.0509
  489MOL0     H67429  -0.000   6.074   7.552  0.3171 -3.0637  2.1213
  489MOL0     H67430   0.010   6.021   7.389 -1.8498  1.0350  0.8892
  489MOL0     H67431   0.347   5.942   7.435  3.3787 -1.1040  1.8685
  489MOL0     H67432   0.508   5.839   7.598 -0.0413 -0.7871 -0.6657
  489MOL0     H67433   0.467   5.679   7.543  1.3327  0.6674 -0.1754
  489MOL0     H67434   0.582   5.686   7.754  0.1579  0.9768  0.4436
  489MOL0     H67435   0.420   5.740   7.819 -1.1831 -0.9939 -0.5173
  489MOL0     H67436   0.345   5.520   7.708 -2.1254  4.3976  2.6453
  489MOL0     H67437   0.507   5.464   7.702 -0.5780  0.7821 -0.6969
  489MOL0     H67438   0.338   5.538   7.951 -0.9749 -2.4674  1.3658
  489MOL0     H67439   0.371   5.383   7.879 -1.5157  0.3581 -2.8615
  489MOL0     H67440   0.597   5.300   7.815  0.7030  0.7979  0.1243
  489MOL0     H67441   0.638   5.092   7.746  0.6934  0.5672  1.0223
  489MOL0     H67442   0.606   4.947   7.837 -2.0493  0.3569  1.1901
  489MOL0     H67443   0.776   5.024   7.838  0.2401 -0.9362 -0.2390
  489MOL0     H67444   0.781   4.849   8.477  0.1627  0.0304 -0.1698
  489MOL0     H67445   0.846   4.604   8.529  0.8567 -1.9688 -0.3693
  489MOL0     H67446   0.816   4.330   8.210  4.1091  1.1119 -1.9553
  489MOL0     H67447   0.952   4.376   8.305  0.8860 -1.7502  2.3733
  489MOL0     H67448   0.914   4.204   8.481 -1.7413 -0.9476  1.4623
  489MOL0     H67449   0.767   4.159   8.400  0.0600  0.9493  1.5005
  489MOL0     H67450   0.890   4.094   8.191 -0.2495  0.7875  0.7475
  489MOL0     H67451   0.932   3.985   8.327 -2.6366  0.9648  0.5145
  489MOL0     H67452   1.134   4.149   8.378  0.1851 -2.2984  0.4586
  489MOL0     H67453   1.096   4.213   8.220 -1.0640 -0.1489  0.2712
  489MOL0     H67454   1.265   4.053   8.224 -2.6451  1.3599 -2.2983
  489MOL0     H67455   1.164   3.927   8.314  0.2413 -0.4651  1.1900
  489MOL0     H67456   1.142   4.011   8.024 -2.3760 -1.8215 -1.0438
  489MOL0     H67457   1.029   3.912   8.118 -0.8393  2.6548  2.9375
  489MOL0     H67458   1.188   3.750   8.165 -2.4750  0.4525 -0.8463
  489MOL0     H67459   1.323   3.825   8.092  0.3202 -0.8371  0.1003
  489MOL0     H67460   1.268   3.671   7.916  0.4940  1.1392 -0.5006
  489MOL0     H67461   1.198   3.826   7.871  1.2302  2.5429  3.0969
  489MOL0     H67462   0.609   4.488   8.197  0.3626 -0.0047  0.2118
  489MOL0     H67463   0.570   4.741   8.125  2.8432  1.9338 -2.0575
  489MOL0     H67464   0.635   5.181   8.297  1.5841  1.3650 -0.1411
  489MOL0     H67465   0.598   5.406   8.215  0.8276  1.7788 -2.0785
  489MOL0     H67466   0.316   6.786   7.567  3.5312  0.3395  2.8586
  489MOL0     H67467   0.390   6.710   7.788 -0.6213 -1.6858  1.5763
  489MOL0     H67468   0.355   6.396   8.081  2.8394  0.0155 -2.2670
  489MOL0     H67469   0.496   6.272   8.230 -3.2052 -0.2175 -0.7918
  489MOL0     H67470   0.680   6.211   8.309 -2.0891  1.1243 -1.3609
  489MOL0     H67471   0.772   6.205   8.455  0.7966 -0.6490 -1.8251
  489MOL0     H67472   0.537   6.077   8.476 -1.3873  1.0496 -1.4865
  489MOL0     H67473   0.469   6.242   8.464  2.3207  1.4894 -3.3244
  489MOL0     H67474   0.674   6.150   8.689  0.0172 -0.4401  1.0557
  489MOL0     H67475   0.593   6.299   8.675  4.4741 -0.1313 -2.5521
  489MOL0     H67476   0.483   6.072   8.832 -1.3722  1.2578 -0.0369
  489MOL0     H67477   0.412   6.043   8.679 -2.8719  0.6600  1.8520
  489MOL0     H67478   0.207   6.371   8.834  0.2533  0.1824  0.4966
  489MOL0     H67479   0.622   6.636   8.421  0.9740  0.3318 -1.4607
  489MOL0     H67480   0.477   6.819   8.397  0.3113  1.0948 -1.0778
  489MOL0     H67481   0.511   6.886   8.228 -2.2608  0.0707 -0.8141
  489MOL0     H67482   0.356   6.826   8.283  0.0516  3.0339 -1.4414
  490MOL0     O67483   3.674   9.472   1.288 -0.1571  0.3750 -0.1688
  490MOL0     C67484   3.772   9.443   1.220 -0.0662  0.4321 -0.5181
  490MOL0     O67485   3.859   9.351   1.255  0.4047 -0.0179  0.2458
  490MOL0     C67486   3.875   9.324   1.387 -0.8848  0.6644 -0.6901
  490MOL0     C67487   3.844   9.201   1.428 -0.1504  0.2652  0.1377
  490MOL0     C67488   3.838   9.177   1.559 -0.2236  0.9505 -0.1389
  490MOL0     C67489   3.896   9.262   1.659  1.3353 -0.0362  0.4638
  490MOL0     O67490   3.905   9.243   1.793 -0.5675 -0.0735  0.1419
  490MOL0     C67491   3.805   9.165   1.859  0.7519  0.2001 -0.0529
  490MOL0     C67492   3.831   9.147   2.003  0.3847 -0.3258 -0.3583
  490MOL0     C67493   3.719   9.048   2.049  0.0962 -0.7332 -0.7176
  490MOL0     C67494   3.741   9.013   2.198  0.1012  0.2550  0.2765
  490MOL0     C67495   3.726   8.869   2.223  0.2854 -0.8470  0.1992
  490MOL0     C67496   3.836   8.785   2.159 -0.7082  0.1234  0.4047
  490MOL0     C67497   3.851   8.634   2.189 -0.5538 -0.2669 -0.4217
  490MOL0     C67498   3.927   8.626   2.325  0.6895  1.3864 -0.7196
  490MOL0     N67499   3.939   8.482   2.369  0.7226  0.4192  0.4336
  490MOL0     C67500   4.023   8.392   2.315 -0.3339 -0.3605  0.2620
  490MOL0     C67501   4.026   8.286   2.398 -0.0608  0.3236 -0.2748
  490MOL0     C67502   4.110   8.163   2.379  0.6112 -0.2450 -0.6796
  490MOL0     C67503   4.055   8.077   2.258  0.3785 -0.9933 -0.7135
  490MOL0     C67504   4.114   7.949   2.246 -0.1613 -0.1055  0.2603
  490MOL0     C67505   4.053   7.837   2.332  0.2514 -0.3666  0.2122
  490MOL0     O67506   3.942   7.798   2.255  0.1216  0.4402 -0.1720
  490MOL0     C67507   3.947   7.702   2.150  0.3969  0.5563  0.0557
  490MOL0     C67508   4.044   7.606   2.140 -0.4511 -0.5628  0.3292
  490MOL0     C67509   4.051   7.500   2.049  0.6439  0.4391 -0.4480
  490MOL0     C67510   4.168   7.404   2.055 -0.2393  0.3815  0.3123
  490MOL0     C67511   3.944   7.498   1.955 -1.4001  0.4754  0.5940
  490MOL0     C67512   3.950   7.389   1.842  0.0557 -0.8008 -0.3497
  490MOL0     O67513   4.062   7.326   1.796  0.3264 -0.2445  0.3146
  490MOL0     C67514   4.052   7.264   1.672 -0.9444 -0.6919  0.2050
  490MOL0     C67515   4.045   7.341   1.555  0.3943 -1.0086  0.3075
  490MOL0     C67516   4.033   7.288   1.428  0.2100 -0.7838 -0.0777
  490MOL0     C67517   4.049   7.156   1.409 -0.5111  0.6626  0.7841
  490MOL0     O67518   4.070   7.124   1.279 -0.0550  0.4007 -0.2711
  490MOL0     C67519   4.150   7.009   1.252 -0.3825 -0.8421 -0.2458
  490MOL0     C67520   4.117   6.990   1.104 -0.0187  0.1630 -0.2302
  490MOL0     C67521   4.171   6.853   1.049 -0.0959 -0.8948 -0.2744
  490MOL0     C67522   4.241   6.862   0.912 -0.4919  1.1112  0.3041
  490MOL0     C67523   4.282   6.728   0.848  0.8930  0.8628 -0.3505
  490MOL0     C67524   4.346   6.754   0.715  0.5696 -0.0809 -1.3214
  490MOL0     C67525   4.391   6.625   0.636  0.2370  0.2726  0.0914
  490MOL0     C67526   4.522   6.565   0.682  0.2873  0.3900 -0.2818
  490MOL0    Cl67527   4.533   6.392   0.633 -0.2495  0.0725 -0.0341
  490MOL0     C67528   4.071   7.073   1.523  0.0831 -0.0849  0.1436
  490MOL0     C67529   4.061   7.127   1.653 -0.6001  0.2488  0.9124
  490MOL0     O67530   3.843   7.365   1.800 -1.1220  0.5435  0.7656
  490MOL0     C67531   3.845   7.595   1.949  0.7689 -0.7504 -0.4319
  490MOL0     C67532   3.843   7.688   2.052  0.0283 -0.1991  0.9847
  490MOL0     N67533   3.927   8.308   2.493  1.6283 -0.2547 -0.1973
  490MOL0     N67534   3.880   8.424   2.478 -0.2463 -0.7128 -0.5833
  490MOL0     C67535   3.945   9.390   1.604  1.3469  0.8610 -0.5062
  490MOL0     C67536   3.930   9.416   1.474 -0.0503  0.1229 -0.1042
  490MOL0     C67537   3.774   9.508   1.093 -0.2325 -0.7901 -0.1143
  490MOL0     C67538   3.836   9.441   0.985  0.2813 -0.4231 -0.1814
  490MOL0     C67539   3.844   9.508   0.860  0.0783  0.1731  0.1020
  490MOL0     C67540   3.800   9.642   0.844 -0.1082  0.2385 -0.3272
  490MOL0     O67541   3.825   9.692   0.710  0.5315  0.2638  0.6719
  490MOL0     C67542   3.771   9.821   0.668  0.0524 -0.1968 -0.3955
  490MOL0     C67543   3.616   9.833   0.671  0.4352 -0.1927  0.5957
  490MOL0     C67544   3.561   9.798   0.526  0.6298 -0.3761  0.0003
  490MOL0     C67545   3.411   9.807   0.527  0.2019 -0.8609  0.2225
  490MOL0     C67546   3.348   9.749   0.399  0.3404 -0.7632  0.8616
  490MOL0     C67547   3.318   9.694   0.298  0.3320 -0.5984 -0.2306
  490MOL0     C67548   3.736   9.710   0.945  0.4535 -0.1208 -0.5569
  490MOL0     C67549   3.728   9.647   1.075  1.8246 -0.1972 -0.0705
  490MOL0     C67550   3.675   9.727   1.185 -0.3610  0.0752 -0.9610
  490MOL0     H67551   3.816   9.123   1.358  0.1654 -0.0122  0.3163
  490MOL0     H67552   3.804   9.083   1.601  2.9409 -0.9327 -1.4371
  490MOL0     H67553   3.814   9.063   1.819  0.7112  0.4610 -0.7503
  490MOL0     H67554   3.705   9.208   1.842  0.5518 -0.2065  0.0795
  490MOL0     H67555   3.931   9.105   2.017  1.3031  0.5995 -3.5014
  490MOL0     H67556   3.816   9.243   2.053  1.2716  0.7815 -2.1535
  490MOL0     H67557   3.622   9.093   2.027  1.1276  1.3073 -1.3758
  490MOL0     H67558   3.725   8.956   1.991 -1.7414 -1.8878  0.8051
  490MOL0     H67559   3.828   9.038   2.259  0.5888  0.0395 -0.3225
  490MOL0     H67560   3.654   9.061   2.243  0.2201  1.1436 -0.4003
  490MOL0     H67561   3.633   8.834   2.177 -0.7614  0.5245  1.1828
  490MOL0     H67562   3.723   8.865   2.332  0.8093  1.3998  0.3458
  490MOL0     H67563   3.817   8.787   2.051  0.7152 -1.9228  0.0561
  490MOL0     H67564   3.931   8.836   2.179 -1.9913  3.0117 -0.2816
  490MOL0     H67565   3.924   8.598   2.115  0.4721  1.6092 -0.3973
  490MOL0     H67566   3.760   8.574   2.192 -3.2323  3.4257 -0.6054
  490MOL0     H67567   4.022   8.681   2.322  1.3159  0.3338 -0.7129
  490MOL0     H67568   3.860   8.669   2.400  1.7102  0.9043  0.4986
  490MOL0     H67569   4.090   8.415   2.233 -0.8677  0.9699  0.1629
  490MOL0     H67570   4.110   8.118   2.479 -0.9302  0.6671 -0.2348
  490MOL0     H67571   4.208   8.208   2.357  1.3706 -0.6788  1.5135
  490MOL0     H67572   3.947   8.064   2.267  0.5947 -2.7015 -0.1294
  490MOL0     H67573   4.067   8.123   2.160 -2.8338  0.9245 -0.3388
  490MOL0     H67574   4.121   7.928   2.139  1.7393 -0.2043  0.3635
  490MOL0     H67575   4.216   7.962   2.284 -0.0366  0.9968 -0.4005
  490MOL0     H67576   4.130   7.759   2.337  0.4327 -0.3469 -1.7502
  490MOL0     H67577   4.027   7.877   2.431 -2.2442 -0.4858 -0.3223
  490MOL0     H67578   4.124   7.605   2.214 -0.0303 -0.5089 -0.1196
  490MOL0     H67579   4.234   7.426   1.971 -0.0655  1.8988  0.8236
  490MOL0     H67580   4.136   7.299   2.049  2.8694 -0.5784 -3.1202
  490MOL0     H67581   4.223   7.411   2.149 -1.2377 -3.6011  1.3905
  490MOL0     H67582   4.040   7.446   1.582  1.4830 -1.4457  2.4218
  490MOL0     H67583   4.015   7.355   1.345 -1.7074 -1.8757 -0.6124
  490MOL0     H67584   4.255   7.032   1.268 -0.6958  1.8299 -1.5083
  490MOL0     H67585   4.111   6.921   1.304 -0.9340  0.4174  1.5849
  490MOL0     H67586   4.009   6.977   1.097 -0.0251  0.9556 -3.6843
  490MOL0     H67587   4.151   7.075   1.044  1.4749 -0.0281  0.3090
  490MOL0     H67588   4.082   6.790   1.039 -1.0240  0.2755  0.3669
  490MOL0     H67589   4.248   6.816   1.119 -0.3717  1.0528  1.1255
  490MOL0     H67590   4.326   6.928   0.932 -0.1196  0.9730 -0.7477
  490MOL0     H67591   4.166   6.907   0.847 -1.0528 -1.4153 -0.9356
  490MOL0     H67592   4.351   6.675   0.914 -0.4985 -3.2963 -1.9400
  490MOL0     H67593   4.203   6.660   0.815  1.0176  1.0997 -1.1628
  490MOL0     H67594   4.429   6.826   0.718 -1.2099  2.1106 -1.8421
  490MOL0     H67595   4.278   6.808   0.648  1.7194  0.7349 -1.8856
  490MOL0     H67596   4.399   6.653   0.531  1.5314  0.3856  0.2076
  490MOL0     H67597   4.311   6.551   0.633 -0.3955  0.7549  2.4997
  490MOL0     H67598   4.537   6.574   0.790  2.3384  2.7718 -0.6793
  490MOL0     H67599   4.604   6.622   0.637  1.2989 -0.0106  1.0045
  490MOL0     H67600   4.104   6.969   1.520 -1.6037 -0.6612  0.1535
  490MOL0     H67601   4.082   7.062   1.737  0.8224  0.7202  0.9490
  490MOL0     H67602   3.757   7.589   1.885  0.0106 -3.7167  0.7168
  490MOL0     H67603   3.762   7.761   2.046  1.2931  1.3109  1.4884
  490MOL0     H67604   3.994   9.455   1.676 -0.7178  1.5374  0.3852
  490MOL0     H67605   3.960   9.507   1.424 -0.6260  0.3463 -0.0466
  490MOL0     H67606   3.876   9.340   0.988 -0.4485 -0.8003 -1.8907
  490MOL0     H67607   3.901   9.468   0.777  0.2302 -1.1086  0.7963
  490MOL0     H67608   3.820   9.898   0.728 -2.1230  2.1082 -1.3723
  490MOL0     H67609   3.809   9.842   0.567  2.8678  4.2550  1.2668
  490MOL0     H67610   3.598   9.937   0.700 -0.2637  0.0714 -0.6895
  490MOL0     H67611   3.569   9.765   0.743  1.0408 -1.9421 -0.5871
  490MOL0     H67612   3.613   9.866   0.459  0.3446  1.1479  1.2806
  490MOL0     H67613   3.594   9.695   0.509  4.5101  0.1832  2.6115
  490MOL0     H67614   3.383   9.912   0.535  0.4524 -0.7708 -0.0308
  490MOL0     H67615   3.370   9.760   0.616 -0.6536  0.1744  0.3930
  490MOL0     H67616   3.282   9.648   0.208  0.1435 -0.9295  0.0105
  490MOL0     H67617   3.701   9.813   0.940 -3.0104 -1.1950 -0.3352
  490MOL0     H67618   3.695   9.833   1.167 -2.9684  1.0125  1.0259
  490MOL0     H67619   3.568   9.703   1.192  0.4611 -5.1598 -2.0613
  490MOL0     H67620   3.729   9.715   1.280  0.3184  3.3188 -0.8149
  491MOL0     O67621   1.735   8.256   4.708 -0.1553 -0.3039  0.7876
  491MOL0     C67622   1.660   8.188   4.779 -0.0896  1.0192  0.3129
  491MOL0     O67623   1.575   8.087   4.728 -0.8042 -0.7274 -0.5370
  491MOL0     C67624   1.612   8.041   4.601 -0.4266  0.5906 -1.1423
  491MOL0     C67625   1.580   8.109   4.485 -0.4979 -0.2478 -0.4650
  491MOL0     C67626   1.629   8.067   4.368 -0.3929  0.3908  0.4064
  491MOL0     C67627   1.723   7.963   4.352  0.8887  0.0464 -0.2283
  491MOL0     O67628   1.755   7.935   4.223  0.5714 -0.3646  0.3465
  491MOL0     C67629   1.837   7.819   4.202  0.0825  0.7648 -0.4012
  491MOL0     C67630   1.746   7.696   4.170  0.9024  0.1567 -0.3078
  491MOL0     C67631   1.834   7.591   4.115 -0.2963 -0.1442 -0.3871
  491MOL0     C67632   1.894   7.504   4.225  0.4387  0.1428  0.3533
  491MOL0     C67633   1.997   7.417   4.155  0.7081 -0.5348 -0.7975
  491MOL0     C67634   2.076   7.320   4.245 -0.0200 -0.2186  0.6757
  491MOL0     C67635   2.189   7.255   4.166 -0.0893  0.2327  0.6347
  491MOL0     C67636   2.277   7.174   4.247  0.1360 -1.1076 -0.0259
  491MOL0     N67637   2.387   7.113   4.171 -0.3594  0.2799  0.7918
  491MOL0     C67638   2.519   7.151   4.145  0.3325 -0.0717 -0.1320
  491MOL0     C67639   2.581   7.059   4.059  0.1980  0.1615 -0.6390
  491MOL0     C67640   2.718   7.067   3.995  0.7249  0.5604 -0.3015
  491MOL0     C67641   2.828   7.052   4.095 -1.2808 -0.3946 -0.4425
  491MOL0     C67642   2.815   6.934   4.186 -0.0266  0.1494 -0.0050
  491MOL0     C67643   2.925   6.920   4.293 -0.3058 -0.7449 -0.1563
  491MOL0     O67644   3.041   6.879   4.229 -0.3719  0.3181 -0.8665
  491MOL0     C67645   3.056   6.750   4.194  1.1869  0.2122  0.8529
  491MOL0     C67646   3.165   6.716   4.129 -0.4974 -0.7867  0.7037
  491MOL0     C67647   3.196   6.584   4.090 -0.2981  0.5970 -0.5473
  491MOL0     C67648   3.311   6.558   3.997 -0.0087  0.0539 -0.0923
  491MOL0     C67649   3.116   6.476   4.140  0.2172  1.2858  0.5365
  491MOL0     C67650   3.149   6.335   4.112  0.5073 -0.1914  0.0520
  491MOL0     O67651   3.044   6.246   4.106  0.0869  0.3818  0.2366
  491MOL0     C67652   3.051   6.109   4.125  0.0102  0.5589 -0.2305
  491MOL0     C67653   3.160   6.042   4.192 -0.2862  0.3741 -0.2244
  491MOL0     C67654   3.162   5.910   4.216  0.2655 -0.1298  0.3702
  491MOL0     C67655   3.052   5.829   4.174  0.0802 -0.4665  0.2255
  491MOL0     O67656   3.062   5.704   4.211 -0.3229 -0.0932 -0.3134
  491MOL0     C67657   2.994   5.619   4.136 -0.4757  0.1319  0.2193
  491MOL0     C67658   2.859   5.574   4.198 -0.3135  0.7431  0.0179
  491MOL0     C67659   2.806   5.451   4.128 -0.2074 -0.0568  0.7245
  491MOL0     C67660   2.732   5.479   4.001  0.3612 -0.1516  0.2194
  491MOL0     C67661   2.700   5.359   3.931 -0.2550 -0.4717  0.0218
  491MOL0     C67662   2.612   5.397   3.811 -0.5205  0.1535  0.1454
  491MOL0     C67663   2.570   5.268   3.736  0.2062 -0.2180  0.1580
  491MOL0     C67664   2.450   5.297   3.648 -0.2879  0.0525 -0.2404
  491MOL0    Cl67665   2.382   5.132   3.614  0.6395 -0.5682 -0.0387
  491MOL0     C67666   2.938   5.887   4.107 -0.5775 -0.7358 -0.1429
  491MOL0     C67667   2.939   6.028   4.092 -0.7072  0.3585 -0.4108
  491MOL0     O67668   3.267   6.306   4.116 -0.5584  0.1996 -0.5366
  491MOL0     C67669   3.007   6.508   4.219 -0.1298  0.5234  0.3382
  491MOL0     C67670   2.969   6.641   4.238 -0.7857 -0.1693 -0.2180
  491MOL0     N67671   2.486   6.962   4.033 -0.0772 -0.3406 -0.4057
  491MOL0     N67672   2.377   6.994   4.101 -0.6661  0.5125  0.0949
  491MOL0     C67673   1.752   7.889   4.466 -0.8469  0.2477  0.2955
  491MOL0     C67674   1.703   7.927   4.591 -0.7456 -0.9882 -0.3313
  491MOL0     C67675   1.635   8.206   4.924  0.1021  0.3193  0.2034
  491MOL0     C67676   1.553   8.122   5.001  0.6005  0.2852  0.3385
  491MOL0     C67677   1.539   8.135   5.138 -0.5788 -0.0729  0.8209
  491MOL0     C67678   1.617   8.235   5.206 -0.3492  0.8535 -0.1178
  491MOL0     O67679   1.623   8.264   5.342  0.6035  0.2985  0.1720
  491MOL0     C67680   1.515   8.216   5.418  0.1964 -0.0747 -0.3250
  491MOL0     C67681   1.401   8.315   5.400  0.2048 -0.5686  0.6563
  491MOL0     C67682   1.424   8.462   5.449 -0.3328 -0.3816 -0.8944
  491MOL0     C67683   1.476   8.551   5.330  0.2232 -0.3075  0.2487
  491MOL0     C67684   1.495   8.699   5.350 -0.0836 -0.6681  0.6965
  491MOL0     C67685   1.509   8.813   5.390 -0.0248  0.3377 -0.2370
  491MOL0     C67686   1.695   8.327   5.130  0.4930 -0.7455  1.0256
  491MOL0     C67687   1.702   8.318   4.989  0.0983 -0.4500  0.4899
  491MOL0     C67688   1.799   8.418   4.924 -1.1065 -0.2819  0.2086
  491MOL0     H67689   1.525   8.202   4.498  2.5777  1.2804  4.1336
  491MOL0     H67690   1.611   8.116   4.273  1.2558  3.8746  1.7058
  491MOL0     H67691   1.911   7.798   4.280 -0.5540 -1.1096 -0.2498
  491MOL0     H67692   1.892   7.841   4.110 -0.5990 -2.4878 -1.7244
  491MOL0     H67693   1.698   7.656   4.260 -2.2044 -0.0963 -1.9678
  491MOL0     H67694   1.666   7.713   4.098 -1.7660  0.5065  2.5503
  491MOL0     H67695   1.794   7.523   4.039  0.4000  0.6610 -1.5182
  491MOL0     H67696   1.907   7.644   4.053 -2.2973  0.8649 -1.9995
  491MOL0     H67697   1.942   7.553   4.310 -0.6888 -0.3104  1.2840
  491MOL0     H67698   1.811   7.439   4.257  0.3248  0.5832  0.9725
  491MOL0     H67699   2.063   7.487   4.102  1.8899 -0.6160  0.4992
  491MOL0     H67700   1.957   7.351   4.078 -1.7105 -1.4864  1.1554
  491MOL0     H67701   2.111   7.382   4.328 -1.7376 -1.0458  2.0779
  491MOL0     H67702   2.014   7.235   4.276  2.1392 -2.3502 -0.4233
  491MOL0     H67703   2.260   7.331   4.131  1.2641 -1.4098 -0.3584
  491MOL0     H67704   2.152   7.206   4.076  1.7215 -4.0218  1.9388
  491MOL0     H67705   2.323   7.230   4.328  0.3120 -3.8790  1.9417
  491MOL0     H67706   2.224   7.088   4.289  1.7832 -0.7964  2.9376
  491MOL0     H67707   2.558   7.246   4.181 -0.4902  0.0317  0.5164
  491MOL0     H67708   2.723   7.154   3.928 -2.4744 -0.3162 -1.8653
  491MOL0     H67709   2.727   6.988   3.920  1.2762  2.2880 -2.1566
  491MOL0     H67710   2.924   7.040   4.044 -0.6272  0.2875  0.5799
  491MOL0     H67711   2.844   7.146   4.150 -2.4553 -0.3675 -0.1036
  491MOL0     H67712   2.719   6.931   4.238 -0.2659 -2.2646 -0.4763
  491MOL0     H67713   2.815   6.845   4.122 -0.8279  1.0779 -1.3676
  491MOL0     H67714   2.934   7.015   4.346  0.2123 -0.7554 -0.2226
  491MOL0     H67715   2.893   6.846   4.367 -2.7859  1.6780  1.3880
  491MOL0     H67716   3.242   6.785   4.096  1.6888 -3.6128 -0.5645
  491MOL0     H67717   3.388   6.501   4.049  0.5644  0.8124 -0.0948
  491MOL0     H67718   3.348   6.655   3.962 -1.1722  0.9175  0.9741
  491MOL0     H67719   3.279   6.497   3.912 -1.2937 -3.2838  2.5624
  491MOL0     H67720   3.247   6.100   4.221  0.1783  0.3392 -1.4878
  491MOL0     H67721   3.237   5.862   4.277  0.4910  0.2782  0.4192
  491MOL0     H67722   2.992   5.637   4.028  2.9074 -3.6558 -0.7240
  491MOL0     H67723   3.056   5.529   4.130 -0.3782  0.2446 -0.4889
  491MOL0     H67724   2.872   5.553   4.304  1.3996  0.3370 -0.2430
  491MOL0     H67725   2.782   5.652   4.193  0.5570  1.6101  0.0016
  491MOL0     H67726   2.754   5.382   4.195 -2.3059  1.0561  0.3297
  491MOL0     H67727   2.894   5.390   4.106  1.2906  0.7997  3.7191
  491MOL0     H67728   2.807   5.537   3.947  0.9793 -2.5176 -1.6156
  491MOL0     H67729   2.638   5.534   4.015  0.4239  0.2481 -0.8652
  491MOL0     H67730   2.790   5.302   3.907 -0.9580 -2.1342  1.1086
  491MOL0     H67731   2.644   5.292   3.997 -1.6711 -1.2263 -1.8681
  491MOL0     H67732   2.673   5.461   3.748 -2.2433  0.1021 -1.6616
  491MOL0     H67733   2.524   5.452   3.848 -0.7384  0.8316 -1.3333
  491MOL0     H67734   2.538   5.193   3.808 -0.6628 -0.6331 -0.6384
  491MOL0     H67735   2.652   5.222   3.680  0.4555 -0.0489  0.3820
  491MOL0     H67736   2.487   5.342   3.555 -1.0804 -2.5475 -1.9059
  491MOL0     H67737   2.381   5.360   3.705 -0.6477  1.5398 -2.1843
  491MOL0     H67738   2.856   5.826   4.074 -1.6073  0.6504 -0.2386
  491MOL0     H67739   2.854   6.087   4.057  0.8227  2.1468 -1.3436
  491MOL0     H67740   2.958   6.419   4.257  3.0000 -2.4549 -1.9992
  491MOL0     H67741   2.888   6.656   4.308 -0.3353  3.8939 -0.3474
  491MOL0     H67742   1.807   7.796   4.458 -2.3071 -0.7718  1.4840
  491MOL0     H67743   1.724   7.859   4.673  4.3600  0.6449  0.0250
  491MOL0     H67744   1.486   8.048   4.958  1.2970  0.3998 -0.9920
  491MOL0     H67745   1.466   8.069   5.183 -0.2035 -0.6627  0.5797
  491MOL0     H67746   1.480   8.117   5.388 -0.6399 -0.1496  0.7899
  491MOL0     H67747   1.545   8.217   5.523  0.4083 -2.2739 -0.3310
  491MOL0     H67748   1.311   8.283   5.454 -0.1538 -1.7987 -0.5933
  491MOL0     H67749   1.380   8.313   5.293  0.1125  0.6379  0.6490
  491MOL0     H67750   1.329   8.506   5.480 -0.2157  1.6789 -3.1667
  491MOL0     H67751   1.501   8.458   5.527  1.5204 -0.3942 -2.6391
  491MOL0     H67752   1.405   8.537   5.248  0.3811 -3.3053  0.5250
  491MOL0     H67753   1.578   8.514   5.314 -0.2711 -3.1822  2.7882
  491MOL0     H67754   1.516   8.908   5.437 -0.3341  0.0770  0.3389
  491MOL0     H67755   1.743   8.408   5.184 -2.1023  1.7744 -0.1027
  491MOL0     H67756   1.885   8.367   4.882 -1.5384 -0.2353 -0.7540
  491MOL0     H67757   1.749   8.488   4.857  2.6865  0.6280 -1.8913
  491MOL0     H67758   1.840   8.489   4.997 -1.2204 -0.3063  0.2979
  492MOL0     O67759   1.070   1.716   8.158  0.6280 -0.4563 -0.2522
  492MOL0     C67760   1.145   1.784   8.088  0.0914  0.0933 -1.1049
  492MOL0     O67761   1.248   1.735   8.015  0.0241 -0.7369 -1.1512
  492MOL0     C67762   1.268   1.600   8.020 -0.2129 -0.0353  0.1197
  492MOL0     C67763   1.262   1.535   7.906 -0.9462  0.6965  0.5864
  492MOL0     C67764   1.292   1.396   7.893  0.2424  0.1829 -0.3988
  492MOL0     C67765   1.320   1.320   8.007  0.0800  0.0389 -0.2751
  492MOL0     O67766   1.344   1.184   8.005 -0.6820  0.5659 -0.6211
  492MOL0     C67767   1.403   1.135   7.880  0.0001 -0.1425 -0.0766
  492MOL0     C67768   1.447   0.984   7.904 -0.9193 -1.1236 -0.3098
  492MOL0     C67769   1.357   0.882   7.845 -0.0359 -0.1892  0.4269
  492MOL0     C67770   1.417   0.742   7.889  0.8270 -0.2054 -0.7994
  492MOL0     C67771   1.353   0.633   7.804 -0.5188  1.1565 -1.7656
  492MOL0     C67772   1.405   0.488   7.813 -0.1300  0.4545  0.4438
  492MOL0     C67773   1.551   0.474   7.761  0.2634 -0.6745 -0.8104
  492MOL0     C67774   1.584   0.324   7.719  0.1045 -1.2791  0.0880
  492MOL0     N67775   1.600   0.309   7.574  0.2829 -0.6340  0.5771
  492MOL0     C67776   1.709   0.357   7.509  1.0699 -0.4734 -0.9643
  492MOL0     C67777   1.693   0.338   7.378  0.9096  0.4066 -0.6946
  492MOL0     C67778   1.799   0.374   7.282 -0.6110  1.5314  0.9732
  492MOL0     C67779   1.814   0.527   7.249 -0.0293  0.2349  0.7562
  492MOL0     C67780   1.949   0.571   7.197  0.1000  0.5660 -0.3917
  492MOL0     C67781   1.933   0.682   7.084 -0.5199  0.0133 -0.0979
  492MOL0     O67782   2.065   0.708   7.057  0.1493  0.7854  0.3165
  492MOL0     C67783   2.086   0.790   6.956 -0.0274 -0.8019  0.2432
  492MOL0     C67784   2.209   0.775   6.879  0.1225  0.0298  0.0192
  492MOL0     C67785   2.242   0.853   6.765 -0.0948  0.3221  0.1618
  492MOL0     C67786   2.364   0.807   6.689 -0.3224  0.6580 -0.2427
  492MOL0     C67787   2.144   0.943   6.722 -0.4904 -0.1099  0.2768
  492MOL0     C67788   2.159   1.024   6.595  0.0303  0.6537  0.1667
  492MOL0     O67789   2.095   1.137   6.594  0.1982  0.3375 -0.1912
  492MOL0     C67790   2.091   1.212   6.481  0.3703 -0.0220 -0.3315
  492MOL0     C67791   2.184   1.315   6.454  0.6671  0.4792 -0.4151
  492MOL0     C67792   2.176   1.379   6.329  0.6964  0.2371  0.2339
  492MOL0     C67793   2.068   1.358   6.244  0.6266 -0.8416 -0.0290
  492MOL0     O67794   2.051   1.422   6.126 -0.3066  1.0645 -0.2827
  492MOL0     C67795   2.143   1.419   6.019 -0.3798  0.4379  0.4951
  492MOL0     C67796   2.063   1.448   5.896  0.1913 -0.4243 -1.0672
  492MOL0     C67797   2.147   1.449   5.767 -0.2613  0.5663 -0.5286
  492MOL0     C67798   2.066   1.498   5.643  0.6444 -0.3153  0.2573
  492MOL0     C67799   2.166   1.523   5.530 -0.1646 -0.8228 -0.5185
  492MOL0     C67800   2.096   1.586   5.411  0.6561  0.0588 -0.5347
  492MOL0     C67801   2.191   1.609   5.292  0.6912  0.3154  1.2583
  492MOL0     C67802   2.191   1.490   5.194 -0.4479  0.2496 -0.3727
  492MOL0    Cl67803   2.287   1.525   5.041  0.0013 -0.0143  0.4825
  492MOL0     C67804   1.969   1.273   6.279 -0.1891 -0.7475  0.1693
  492MOL0     C67805   1.979   1.194   6.394 -0.3603  0.5997  0.4439
  492MOL0     O67806   2.219   0.975   6.499  0.2794  0.2210  0.3304
  492MOL0     C67807   2.027   0.968   6.802  0.4574 -0.0280  0.3706
  492MOL0     C67808   1.995   0.893   6.915  0.1138 -0.6528  0.3680
  492MOL0     N67809   1.567   0.283   7.365  0.1812  0.2855 -0.6167
  492MOL0     N67810   1.510   0.275   7.480  0.3947 -0.4056 -0.1720
  492MOL0     C67811   1.325   1.395   8.128  0.5338 -1.1629  0.2999
  492MOL0     C67812   1.299   1.531   8.135 -1.4121  0.2110 -0.7851
  492MOL0     C67813   1.134   1.936   8.108  0.7664 -1.0426  0.6328
  492MOL0     C67814   1.035   1.980   8.201 -0.2373  0.5250  0.3251
  492MOL0     C67815   1.022   2.119   8.224 -1.0045 -0.0219 -0.8335
  492MOL0     C67816   1.111   2.210   8.161 -0.8113  0.6315  0.0883
  492MOL0     O67817   1.107   2.342   8.196  0.0821 -0.4113  0.5783
  492MOL0     C67818   1.150   2.378   8.330 -0.2405  0.7302 -0.6820
  492MOL0     C67819   1.195   2.520   8.350 -0.2100 -0.5549 -0.4527
  492MOL0     C67820   1.083   2.614   8.289 -0.0808  0.1931 -0.5409
  492MOL0     C67821   0.944   2.600   8.362  0.4579  0.7521 -0.4418
  492MOL0     C67822   0.867   2.727   8.333 -0.8901  0.4469 -1.0725
  492MOL0     C67823   0.819   2.834   8.307  0.2261  0.4141  0.2659
  492MOL0     C67824   1.201   2.171   8.065  0.1262 -0.5978 -0.6755
  492MOL0     C67825   1.217   2.036   8.036  0.2580  0.1595 -0.4288
  492MOL0     C67826   1.319   2.004   7.925  0.2248  0.0621 -0.5425
  492MOL0     H67827   1.230   1.581   7.813  0.9054  1.3928  0.2581
  492MOL0     H67828   1.278   1.351   7.796 -1.1682 -1.3514  0.4599
  492MOL0     H67829   1.495   1.194   7.872  0.3873  1.8034  8.6275
  492MOL0     H67830   1.331   1.138   7.797  0.8310 -0.4172 -0.8294
  492MOL0     H67831   1.543   0.967   7.854 -1.8753 -2.9347 -1.6331
  492MOL0     H67832   1.451   0.959   8.010 -0.4281 -2.6723 -0.6655
  492MOL0     H67833   1.260   0.884   7.896  0.3350  0.1363  1.1376
  492MOL0     H67834   1.331   0.897   7.740  0.9269 -1.9460 -0.1011
  492MOL0     H67835   1.524   0.742   7.866  0.4277 -1.4552 -2.8885
  492MOL0     H67836   1.404   0.715   7.994  2.4740 -1.2128 -0.8285
  492MOL0     H67837   1.357   0.663   7.699  3.1965  1.3723 -1.6796
  492MOL0     H67838   1.249   0.628   7.836  0.4008 -1.0110  1.2940
  492MOL0     H67839   1.388   0.442   7.911 -0.9243  0.1729  0.1853
  492MOL0     H67840   1.336   0.430   7.750 -0.3771 -1.5550  2.4180
  492MOL0     H67841   1.614   0.506   7.844  0.3184 -1.3660 -0.5747
  492MOL0     H67842   1.567   0.540   7.676  5.3486  0.3535  0.6142
  492MOL0     H67843   1.683   0.300   7.760  0.9268  1.9785  0.2923
  492MOL0     H67844   1.511   0.254   7.761 -2.7484  0.7871 -1.1123
  492MOL0     H67845   1.795   0.396   7.563  0.4851 -1.5568  0.8442
  492MOL0     H67846   1.793   0.321   7.186  2.3002 -1.1544  2.0561
  492MOL0     H67847   1.889   0.324   7.320 -0.2668  0.7855 -0.6959
  492MOL0     H67848   1.737   0.557   7.177 -0.1711 -0.1187  0.7571
  492MOL0     H67849   1.800   0.586   7.340  0.1075 -0.4603  1.2377
  492MOL0     H67850   2.008   0.606   7.282  0.3976 -1.1917  0.1668
  492MOL0     H67851   1.998   0.482   7.157 -0.6457 -1.2326  2.4310
  492MOL0     H67852   1.882   0.643   6.995 -0.9618  1.1374 -0.3461
  492MOL0     H67853   1.874   0.758   7.137 -2.3980  0.7482 -3.0387
  492MOL0     H67854   2.286   0.705   6.912  3.1306  2.4741 -1.3072
  492MOL0     H67855   2.337   0.748   6.601 -0.0226  0.7561 -0.4012
  492MOL0     H67856   2.422   0.738   6.751  1.5630  2.4150  0.0751
  492MOL0     H67857   2.429   0.886   6.651  1.6969 -0.4978  0.5904
  492MOL0     H67858   2.267   1.340   6.519 -0.4548  1.3440  0.7754
  492MOL0     H67859   2.245   1.460   6.307  1.2299 -0.4980 -0.8310
  492MOL0     H67860   2.227   1.489   6.027 -0.1224  0.0131  1.6456
  492MOL0     H67861   2.180   1.321   5.988 -3.8395 -0.3437 -1.6387
  492MOL0     H67862   1.992   1.365   5.895 -2.3826  1.4973  1.5481
  492MOL0     H67863   1.997   1.534   5.911 -0.1118 -0.9874  1.1292
  492MOL0     H67864   2.188   1.348   5.756  1.1397  1.0444  0.1053
  492MOL0     H67865   2.223   1.522   5.796 -1.1257  0.5705  1.9928
  492MOL0     H67866   2.005   1.587   5.661  1.2102  0.1648 -0.1437
  492MOL0     H67867   2.005   1.415   5.609  0.6621 -0.5855  0.8639
  492MOL0     H67868   2.235   1.595   5.574 -1.8417  0.1412  0.6224
  492MOL0     H67869   2.214   1.431   5.495  2.0306  0.0327  0.0702
  492MOL0     H67870   2.056   1.686   5.430 -5.6520 -1.5506 -2.7050
  492MOL0     H67871   2.011   1.526   5.378 -0.3737  0.2615  1.5803
  492MOL0     H67872   2.294   1.631   5.324  1.3166 -0.1043 -0.3625
  492MOL0     H67873   2.150   1.700   5.246  0.8401  0.1234  0.7414
  492MOL0     H67874   2.085   1.470   5.173 -0.3054  1.7963 -3.1101
  492MOL0     H67875   2.233   1.400   5.240  0.1115  1.8810  2.4994
  492MOL0     H67876   1.895   1.268   6.200 -0.0138 -0.4306 -0.0150
  492MOL0     H67877   1.905   1.124   6.433 -0.3482 -0.2008 -0.9042
  492MOL0     H67878   1.960   1.044   6.764  1.5739 -0.8406 -3.7850
  492MOL0     H67879   1.911   0.918   6.980 -0.1305 -0.0114 -0.1905
  492MOL0     H67880   1.342   1.341   8.220 -0.9597  0.3477  1.5229
  492MOL0     H67881   1.304   1.592   8.224 -1.6845  0.9327 -1.2575
  492MOL0     H67882   0.984   1.918   8.273 -1.8746  0.6440 -0.6847
  492MOL0     H67883   0.956   2.154   8.302  0.3352  0.2466  0.2166
  492MOL0     H67884   1.058   2.370   8.389 -1.9465 -2.5422 -3.3978
  492MOL0     H67885   1.235   2.315   8.357  2.4483  3.7558 -1.5112
  492MOL0     H67886   1.291   2.536   8.301  0.0091 -0.4373  0.0068
  492MOL0     H67887   1.216   2.544   8.455  0.2780 -1.4083 -0.3463
  492MOL0     H67888   1.115   2.716   8.310  0.1272  0.2502 -1.1141
  492MOL0     H67889   1.083   2.596   8.181 -0.8330  1.8687 -0.8458
  492MOL0     H67890   0.946   2.597   8.472 -0.8014 -1.7151 -0.4162
  492MOL0     H67891   0.897   2.505   8.333  1.7335 -0.2844  0.6754
  492MOL0     H67892   0.800   2.932   8.267  0.6385  1.0027  1.4850
  492MOL0     H67893   1.267   2.250   8.031 -1.8834  1.4942  0.0570
  492MOL0     H67894   1.370   2.091   7.883 -1.3916  0.9894 -0.6616
  492MOL0     H67895   1.411   1.959   7.965  1.6595  1.5175 -2.0579
  492MOL0     H67896   1.278   1.934   7.852 -0.6677  0.2505 -0.2313
  493MOL0     O67897   4.709   1.025   1.792  0.1892 -0.2348  0.0589
  493MOL0     C67898   4.583   1.022   1.822 -0.2120  0.2137  0.0572
  493MOL0     O67899   4.490   0.939   1.762  0.3983  0.6341  0.2554
  493MOL0     C67900   4.525   0.857   1.660  0.6885  0.1647  0.2693
  493MOL0     C67901   4.617   0.759   1.669 -0.3951  0.0258 -0.3797
  493MOL0     C67902   4.652   0.686   1.559  0.4795 -0.7010 -0.3843
  493MOL0     C67903   4.589   0.699   1.437  0.7935 -1.0823  0.6190
  493MOL0     O67904   4.616   0.634   1.323  0.1276 -0.4668 -0.5334
  493MOL0     C67905   4.716   0.530   1.325  1.0403  0.2735 -0.5767
  493MOL0     C67906   4.742   0.471   1.180 -1.2770 -0.4754  0.9171
  493MOL0     C67907   4.623   0.388   1.148  0.2025  0.3234 -0.1261
  493MOL0     C67908   4.651   0.303   1.029  0.3397 -0.3314  0.6475
  493MOL0     C67909   4.530   0.205   1.006 -0.6957 -0.0415 -0.1099
  493MOL0     C67910   4.553   0.066   1.053 -0.2629 -0.2142  0.4672
  493MOL0     C67911   4.440  -0.033   1.016 -0.5458 -0.0771 -0.0134
  493MOL0     C67912   4.417  -0.058   0.856 -0.1495  0.9381 -0.9697
  493MOL0     N67913   4.368  -0.192   0.833  0.1043  0.2822 -0.4949
  493MOL0     C67914   4.428  -0.318   0.825 -0.5226 -0.7537 -0.1623
  493MOL0     C67915   4.332  -0.395   0.785  0.1690  0.4995  0.1897
  493MOL0     C67916   4.348  -0.546   0.771  0.1911 -0.3663 -0.9944
  493MOL0     C67917   4.232  -0.619   0.828 -0.4351  0.0604 -0.4527
  493MOL0     C67918   4.255  -0.769   0.801 -0.1346 -0.0046  0.2031
  493MOL0     C67919   4.150  -0.842   0.874  0.4531  0.7193 -0.8769
  493MOL0     O67920   4.161  -0.981   0.846 -0.1953  0.1573  0.6931
  493MOL0     C67921   4.048  -1.054   0.870  0.1748  0.4103  0.3608
  493MOL0     C67922   4.064  -1.176   0.814  0.5894  0.1387 -0.6388
  493MOL0     C67923   3.964  -1.268   0.803 -0.0928  0.2984  0.3178
  493MOL0     C67924   3.989  -1.388   0.714 -0.1530  1.0058 -0.3013
  493MOL0     C67925   3.842  -1.235   0.873 -0.4412  0.7479  0.7732
  493MOL0     C67926   3.728  -1.325   0.884 -0.6437  0.1011 -0.2528
  493MOL0     O67927   3.603  -1.265   0.895  0.8110  0.1801 -0.5367
  493MOL0     C67928   3.495  -1.347   0.863  0.7003 -1.1694 -0.1390
  493MOL0     C67929   3.462  -1.451   0.946  0.9546 -0.9665 -1.1830
  493MOL0     C67930   3.350  -1.540   0.926  0.1195  0.1163 -0.2909
  493MOL0     C67931   3.268  -1.521   0.811 -0.4731 -0.7773 -0.1524
  493MOL0     O67932   3.178  -1.619   0.781 -1.0839  0.6518 -0.3618
  493MOL0     C67933   3.064  -1.590   0.705 -0.1991  0.2100 -0.1423
  493MOL0     C67934   2.961  -1.698   0.712  0.1800 -0.3881  0.4297
  493MOL0     C67935   3.008  -1.823   0.632 -0.0068  0.1941  0.7005
  493MOL0     C67936   2.905  -1.939   0.607  0.4478  0.8228  0.2040
  493MOL0     C67937   2.969  -2.037   0.508 -0.1001 -0.3261  0.5879
  493MOL0     C67938   3.061  -2.132   0.574 -0.4053  0.2962 -0.0879
  493MOL0     C67939   3.133  -2.228   0.475  0.3403 -0.0058 -0.0548
  493MOL0     C67940   3.172  -2.353   0.553 -0.2858 -0.2039  1.0650
  493MOL0    Cl67941   3.258  -2.466   0.440 -0.1596  0.3042 -0.2742
  493MOL0     C67942   3.297  -1.410   0.729  0.5794 -1.1783  0.1010
  493MOL0     C67943   3.405  -1.322   0.756 -0.2248  0.5074 -0.8487
  493MOL0     O67944   3.754  -1.443   0.869 -0.4226  0.1958  0.2074
  493MOL0     C67945   3.825  -1.111   0.939 -0.0885  0.9576  0.2500
  493MOL0     C67946   3.924  -1.022   0.933  0.2962 -0.0866 -0.1406
  493MOL0     N67947   4.216  -0.326   0.761 -0.5593 -0.0073 -0.0877
  493MOL0     N67948   4.242  -0.204   0.789  0.3060 -0.6535 -0.0014
  493MOL0     C67949   4.491   0.803   1.426 -0.1823 -0.3484 -0.3898
  493MOL0     C67950   4.452   0.871   1.542 -0.6258  0.2513 -0.2019
  493MOL0     C67951   4.530   1.112   1.940 -0.2839  0.4010 -0.3362
  493MOL0     C67952   4.414   1.066   2.011 -1.0707  1.9859 -0.0175
  493MOL0     C67953   4.345   1.142   2.106 -0.8754  0.1368  0.1675
  493MOL0     C67954   4.390   1.269   2.133 -0.1337 -0.2773  0.6812
  493MOL0     O67955   4.311   1.350   2.219  0.5709  0.8145 -0.3740
  493MOL0     C67956   4.266   1.476   2.173  1.1467  0.5117  0.8497
  493MOL0     C67957   4.321   1.590   2.259  0.2078  0.1977  0.5904
  493MOL0     C67958   4.239   1.722   2.223 -0.3218 -0.5889  0.3270
  493MOL0     C67959   4.216   1.813   2.345  0.1359 -0.0940 -0.5020
  493MOL0     C67960   4.109   1.757   2.438 -0.2459  0.1929  0.4164
  493MOL0     C67961   4.041   1.691   2.515 -0.0779  0.0246  0.0704
  493MOL0     C67962   4.497   1.321   2.055  0.1548  0.1286  1.1002
  493MOL0     C67963   4.566   1.244   1.959  0.1831 -0.9208  0.2418
  493MOL0     C67964   4.665   1.315   1.872 -1.3120 -0.1804 -0.1565
  493MOL0     H67965   4.665   0.741   1.765 -0.4222 -1.1132 -0.5698
  493MOL0     H67966   4.736   0.620   1.576  0.7453 -0.2845 -0.0523
  493MOL0     H67967   4.696   0.458   1.404 -2.3623  2.6527  1.0042
  493MOL0     H67968   4.814   0.575   1.346  1.6860 -0.1788 -2.4299
  493MOL0     H67969   4.745   0.538   1.094 -2.8063 -2.9657 -1.2192
  493MOL0     H67970   4.828   0.404   1.174 -2.6997 -2.2563 -0.9111
  493MOL0     H67971   4.602   0.319   1.231  2.3309 -0.6547 -0.3275
  493MOL0     H67972   4.534   0.446   1.122  0.2365  0.9117  0.9948
  493MOL0     H67973   4.679   0.364   0.942  0.4227 -0.3210  0.6814
  493MOL0     H67974   4.737   0.241   1.057  0.6876 -0.9630 -1.6058
  493MOL0     H67975   4.521   0.196   0.898  1.9229 -2.4957 -0.2507
  493MOL0     H67976   4.439   0.244   1.052 -1.7082 -1.0731 -1.1708
  493MOL0     H67977   4.652   0.038   1.015  1.1175  0.7593  3.0722
  493MOL0     H67978   4.573   0.064   1.161  0.1669 -0.5004  0.3867
  493MOL0     H67979   4.351  -0.006   1.073 -1.2749 -3.3958  0.6223
  493MOL0     H67980   4.462  -0.131   1.058 -3.0749 -0.9950 -0.6984
  493MOL0     H67981   4.341   0.017   0.831 -1.2271  0.8669  1.7329
  493MOL0     H67982   4.514  -0.042   0.809  1.0426 -4.7481 -1.1429
  493MOL0     H67983   4.532  -0.344   0.841  0.2033  1.4818 -0.7885
  493MOL0     H67984   4.436  -0.570   0.832 -0.4752  1.0569  0.6128
  493MOL0     H67985   4.375  -0.572   0.669  3.6009 -0.5401 -0.1642
  493MOL0     H67986   4.219  -0.599   0.935 -1.8912  0.4319 -0.6741
  493MOL0     H67987   4.147  -0.584   0.769  1.6250 -0.8730 -4.2667
  493MOL0     H67988   4.245  -0.770   0.692 -0.5557  2.6707  0.1525
  493MOL0     H67989   4.352  -0.804   0.837 -0.3238 -1.7676 -0.8901
  493MOL0     H67990   4.151  -0.819   0.981  5.4418 -0.6868 -0.3762
  493MOL0     H67991   4.054  -0.806   0.835 -0.5382  0.9345  1.6004
  493MOL0     H67992   4.165  -1.201   0.783  0.4888 -0.3678 -0.5683
  493MOL0     H67993   3.985  -1.487   0.760 -0.3625  1.0226 -0.2843
  493MOL0     H67994   4.089  -1.376   0.670  1.0398  1.8503  2.4324
  493MOL0     H67995   3.912  -1.386   0.636 -3.5974  2.4299  2.8388
  493MOL0     H67996   3.518  -1.441   1.038  2.5432  0.4740 -2.2383
  493MOL0     H67997   3.339  -1.617   1.001  1.6951  0.6504  0.5398
  493MOL0     H67998   3.021  -1.492   0.728 -0.6557 -0.5474  2.5327
  493MOL0     H67999   3.093  -1.593   0.599  1.5400 -1.4898  0.3168
  493MOL0     H68000   2.943  -1.720   0.817  0.7335 -1.8339  0.2364
  493MOL0     H68001   2.866  -1.659   0.674  1.1851  0.4481 -1.3853
  493MOL0     H68002   3.094  -1.856   0.691 -1.8731 -0.4903  3.2181
  493MOL0     H68003   3.032  -1.796   0.529 -2.6314  1.5046  0.3739
  493MOL0     H68004   2.827  -1.899   0.541  1.5804 -1.8431 -3.0710
  493MOL0     H68005   2.867  -1.986   0.698  0.3628  0.2198 -0.1370
  493MOL0     H68006   2.899  -2.097   0.450 -0.4440 -0.8029  1.4827
  493MOL0     H68007   3.015  -1.994   0.418 -1.4065 -1.5053 -0.7018
  493MOL0     H68008   3.000  -2.186   0.647  1.4731  0.6300  1.8169
  493MOL0     H68009   3.134  -2.081   0.637  0.9723  1.5921 -2.5675
  493MOL0     H68010   3.215  -2.170   0.433 -1.1517  1.0432 -1.6121
  493MOL0     H68011   3.066  -2.266   0.398 -1.2463 -1.3321  1.8637
  493MOL0     H68012   3.087  -2.405   0.598  0.5158 -0.5882  2.1732
  493MOL0     H68013   3.240  -2.328   0.635  2.6344 -1.2197 -0.9145
  493MOL0     H68014   3.229  -1.394   0.646  0.6500  1.6291  0.4827
  493MOL0     H68015   3.428  -1.230   0.703  0.1121  0.9916  0.1075
  493MOL0     H68016   3.729  -1.086   0.984 -1.6361 -1.7619 -1.2857
  493MOL0     H68017   3.916  -0.927   0.985  0.4214 -0.0524 -0.1826
  493MOL0     H68018   4.441   0.832   1.335  1.2690  1.1713 -0.7492
  493MOL0     H68019   4.383   0.953   1.533 -1.3504 -0.4449 -1.1126
  493MOL0     H68020   4.380   0.965   1.987  0.5737  2.1767 -4.0452
  493MOL0     H68021   4.268   1.093   2.164 -0.0520 -1.4800 -0.0535
  493MOL0     H68022   4.285   1.486   2.065  2.8245 -2.3090  0.7778
  493MOL0     H68023   4.157   1.462   2.179  1.0901  1.1650  1.4449
  493MOL0     H68024   4.428   1.607   2.241 -0.0591  0.8510 -0.4177
  493MOL0     H68025   4.302   1.553   2.360 -2.2287 -1.3844 -0.3684
  493MOL0     H68026   4.296   1.778   2.148  0.2809  0.6948  1.6960
  493MOL0     H68027   4.141   1.706   2.176  1.4668 -2.2696 -3.1822
  493MOL0     H68028   4.183   1.912   2.310  0.7512  0.5777  0.7596
  493MOL0     H68029   4.309   1.841   2.395  0.6697  0.4975 -1.7677
  493MOL0     H68030   3.996   1.616   2.577  1.1662 -1.6209 -0.9007
  493MOL0     H68031   4.533   1.423   2.070  1.0054  0.3055 -1.5878
  493MOL0     H68032   4.684   1.419   1.900 -1.6328 -0.3887  0.8750
  493MOL0     H68033   4.757   1.256   1.868 -1.2583 -0.0702 -3.7810
  493MOL0     H68034   4.632   1.316   1.768 -3.4881  0.7130  0.4909
  494MOL0     O68035   9.844  11.172   4.247  0.3956 -0.1490 -0.8263
  494MOL0     C68036   9.763  11.257   4.277 -0.5585 -0.5103 -0.6052
  494MOL0     O68037   9.632  11.235   4.300 -1.2796  0.1802  0.0618
  494MOL0     C68038   9.569  11.114   4.308  0.2608 -0.0165  0.2829
  494MOL0     C68039   9.440  11.107   4.267 -0.4393  0.8263 -0.5312
  494MOL0     C68040   9.360  11.011   4.312  1.3547 -0.3251  0.9640
  494MOL0     C68041   9.409  10.907   4.391 -0.3280 -0.1584 -0.2058
  494MOL0     O68042   9.314  10.807   4.411  0.2333  0.1831 -0.5194
  494MOL0     C68043   9.357  10.687   4.472  0.6107 -1.0273 -0.2773
  494MOL0     C68044   9.242  10.583   4.463 -0.3901  0.0093  0.5579
  494MOL0     C68045   9.259  10.483   4.351  0.0083 -0.3434  0.9398
  494MOL0     C68046   9.214  10.543   4.209  1.0055  0.1903  0.4222
  494MOL0     C68047   9.335  10.577   4.123 -0.4286 -0.1626  0.2656
  494MOL0     C68048   9.309  10.619   3.974 -0.0256  1.7071 -0.2176
  494MOL0     C68049   9.240  10.753   3.951 -0.2717 -0.0714  0.3111
  494MOL0     C68050   9.172  10.761   3.810  0.2277  0.1271 -0.0573
  494MOL0     N68051   9.074  10.870   3.812 -0.0862 -0.3226  0.0592
  494MOL0     C68052   8.958  10.853   3.885  0.1722 -0.6951  0.1838
  494MOL0     C68053   8.877  10.955   3.848  0.8110  0.0682  0.9084
  494MOL0     C68054   8.739  10.982   3.914 -0.0162  0.2714 -0.0348
  494MOL0     C68055   8.696  11.125   3.874  0.8624  0.4346 -0.7423
  494MOL0     C68056   8.577  11.172   3.953 -0.5794  0.4419 -0.2160
  494MOL0     C68057   8.444  11.103   3.914 -0.5660 -0.3766  0.3738
  494MOL0     O68058   8.335  11.156   4.001  0.6880  0.1584  0.2595
  494MOL0     C68059   8.208  11.100   4.003  0.4996  0.3724  0.6291
  494MOL0     C68060   8.170  11.007   3.913  0.6540 -0.2196  0.4223
  494MOL0     C68061   8.033  10.967   3.910  0.3158 -0.3869  1.3028
  494MOL0     C68062   7.988  10.867   3.810  0.3469 -0.4198 -0.5079
  494MOL0     C68063   7.932  11.017   4.003  0.0748  0.8577 -0.5680
  494MOL0     C68064   7.784  10.990   4.005  0.3254 -0.1803  0.4408
  494MOL0     O68065   7.721  10.979   3.886 -0.0245  0.9637 -0.5008
  494MOL0     C68066   7.586  10.955   3.861 -0.9479  0.5342  0.7378
  494MOL0     C68067   7.555  10.869   3.753 -0.4291 -1.3004  0.0012
  494MOL0     C68068   7.421  10.821   3.735  0.2778  0.1432  0.8613
  494MOL0     C68069   7.317  10.853   3.826 -0.0748  0.1503  0.2616
  494MOL0     O68070   7.189  10.812   3.819 -0.0447  0.0291  0.0098
  494MOL0     C68071   7.086  10.914   3.788 -0.4402  0.3894 -0.3890
  494MOL0     C68072   7.080  10.933   3.636 -0.5629  0.7844 -1.0379
  494MOL0     C68073   6.950  11.001   3.587 -0.9263 -0.1508 -0.3191
  494MOL0     C68074   6.963  11.033   3.440 -0.1166  0.1784  0.8458
  494MOL0     C68075   6.855  11.124   3.386 -0.3412 -0.0393  0.0654
  494MOL0     C68076   6.908  11.147   3.239  0.3010 -0.0011 -0.1523
  494MOL0     C68077   6.828  11.248   3.163 -0.7261 -0.0427 -0.6118
  494MOL0     C68078   6.894  11.301   3.042 -0.4863 -0.1947  0.2935
  494MOL0    Cl68079   6.990  11.172   2.949  0.2342  0.0042  0.4251
  494MOL0     C68080   7.354  10.936   3.936 -0.2904  0.0981  0.0411
  494MOL0     C68081   7.485  10.988   3.949  0.0100 -1.1784  0.0742
  494MOL0     O68082   7.730  10.954   4.110  0.5452  0.1953  0.7337
  494MOL0     C68083   7.982  11.099   4.103  0.9646  0.1141 -0.6328
  494MOL0     C68084   8.113  11.147   4.099 -0.8737 -0.0719  0.0828
  494MOL0     N68085   8.941  11.021   3.736  0.2173  0.2096  0.8820
  494MOL0     N68086   9.060  10.971   3.724 -0.0093  0.0292  0.5528
  494MOL0     C68087   9.544  10.909   4.435 -0.1442  1.3245 -0.2944
  494MOL0     C68088   9.620  11.012   4.388 -0.5761  0.0095  0.4993
  494MOL0     C68089   9.808  11.409   4.294 -0.0510 -0.2170  0.4200
  494MOL0     C68090   9.726  11.505   4.364 -0.5354  0.1124 -0.6212
  494MOL0     C68091   9.758  11.639   4.370 -0.9830  0.9624 -0.3836
  494MOL0     C68092   9.872  11.692   4.300 -0.5794  1.1204  0.2003
  494MOL0     O68093   9.910  11.822   4.305  0.4331  1.0570 -0.7463
  494MOL0     C68094   9.797  11.913   4.310  0.2530  0.1036 -0.2039
  494MOL0     C68095   9.854  12.044   4.242  0.0973  0.1235 -0.6937
  494MOL0     C68096   9.744  12.124   4.161  0.1619 -0.0348 -0.0069
  494MOL0     C68097   9.694  12.052   4.032  0.4159 -0.5579  0.2713
  494MOL0     C68098   9.801  11.996   3.956 -0.2175  0.5006  0.5632
  494MOL0     C68099   9.884  11.938   3.887 -0.4565  0.3441  0.0772
  494MOL0     C68100   9.942  11.604   4.225  1.0684  0.3529  0.3001
  494MOL0     C68101   9.922  11.465   4.227  0.0050  1.1060  0.2151
  494MOL0     C68102  10.019  11.391   4.138  0.2662  0.0986 -0.7786
  494MOL0     H68103   9.395  11.200   4.233  0.0505  1.5391  0.6843
  494MOL0     H68104   9.253  11.009   4.293  0.7388 -1.4430  3.9754
  494MOL0     H68105   9.380  10.704   4.578  0.1432 -2.0025 -0.0096
  494MOL0     H68106   9.442  10.631   4.432  1.7995 -0.5660  1.4588
  494MOL0     H68107   9.262  10.515   4.546 -2.1602 -2.2772 -0.7650
  494MOL0     H68108   9.140  10.621   4.468 -0.1438  0.6986  0.5493
  494MOL0     H68109   9.360  10.442   4.352  0.9546  1.8574  0.9070
  494MOL0     H68110   9.201  10.390   4.359 -2.1553  0.9134  0.7622
  494MOL0     H68111   9.158  10.463   4.161  2.8075 -0.0933 -1.3926
  494MOL0     H68112   9.143  10.625   4.223  0.3166 -0.4355  0.5857
  494MOL0     H68113   9.399  10.488   4.116  1.4882  1.2418 -1.4128
  494MOL0     H68114   9.402  10.652   4.167 -1.7306  1.5828 -0.6099
  494MOL0     H68115   9.406  10.643   3.929 -0.0575  0.3360 -1.0956
  494MOL0     H68116   9.250  10.544   3.920  1.5017 -2.4105  3.1805
  494MOL0     H68117   9.323  10.824   3.950  2.3474 -2.8496 -2.8899
  494MOL0     H68118   9.173  10.779   4.034  0.3254  4.8672 -0.4399
  494MOL0     H68119   9.237  10.783   3.725  0.1079  1.2887  0.1463
  494MOL0     H68120   9.113  10.675   3.776 -0.4328  0.4956  0.1308
  494MOL0     H68121   8.926  10.787   3.965  0.4414 -0.3240  0.6054
  494MOL0     H68122   8.747  10.983   4.023 -0.5938  0.8807  0.0106
  494MOL0     H68123   8.665  10.910   3.878 -0.1057  0.0975  0.4812
  494MOL0     H68124   8.779  11.193   3.895 -0.5870  1.5471  1.6495
  494MOL0     H68125   8.673  11.131   3.767  0.3647  0.1130 -0.6563
  494MOL0     H68126   8.605  11.165   4.059 -0.5942  0.1863 -0.2291
  494MOL0     H68127   8.556  11.275   3.923  2.9111  0.6409 -2.5642
  494MOL0     H68128   8.421  11.120   3.808  2.1799  2.4327  0.1046
  494MOL0     H68129   8.452  10.999   3.945 -0.5806  0.4008  3.3387
  494MOL0     H68130   8.236  10.964   3.838  1.8720  0.9254  0.7917
  494MOL0     H68131   7.963  10.776   3.864  2.7595  0.6565  2.7737
  494MOL0     H68132   8.069  10.837   3.743  0.7561 -1.8995  0.6025
  494MOL0     H68133   7.910  10.900   3.741  0.9758  0.7615 -0.6974
  494MOL0     H68134   7.626  10.853   3.673 -0.3954 -3.0129  0.3195
  494MOL0     H68135   7.396  10.758   3.650  1.0766 -1.0119  1.4534
  494MOL0     H68136   6.997  10.863   3.826  1.3649 -0.3578  3.2042
  494MOL0     H68137   7.088  11.019   3.820 -0.2353  0.8510 -1.8302
  494MOL0     H68138   7.172  10.988   3.616  2.1161 -2.2708  1.6942
  494MOL0     H68139   7.091  10.836   3.587  0.0607  0.3792 -0.1369
  494MOL0     H68140   6.936  11.103   3.623  1.8295  0.0653  0.3762
  494MOL0     H68141   6.854  10.951   3.597 -1.3632  0.7008 -0.1536
  494MOL0     H68142   6.967  10.941   3.381  2.1542  1.1336 -0.6686
  494MOL0     H68143   7.062  11.079   3.429 -0.9227  1.8536  0.2872
  494MOL0     H68144   6.755  11.079   3.388 -0.2892 -0.1241  1.5937
  494MOL0     H68145   6.846  11.212   3.451  0.8633  0.9097 -0.9863
  494MOL0     H68146   6.890  11.056   3.181  0.2286 -1.5878  2.1946
  494MOL0     H68147   7.012  11.179   3.234  0.5075 -0.3538  1.4078
  494MOL0     H68148   6.794  11.328   3.228  0.2462  0.0532 -0.2169
  494MOL0     H68149   6.739  11.194   3.128 -0.5588  0.4574 -1.8782
  494MOL0     H68150   6.962  11.376   3.082 -0.9748 -0.0235  0.8060
  494MOL0     H68151   6.823  11.352   2.977  1.7237  3.3773  0.4111
  494MOL0     H68152   7.287  10.963   4.017 -1.9396  2.2450 -1.8950
  494MOL0     H68153   7.499  11.058   4.030 -0.2130 -1.2679  0.1880
  494MOL0     H68154   7.923  11.142   4.183  3.0452  0.3506  0.8709
  494MOL0     H68155   8.150  11.222   4.168  3.3923 -3.8461  2.4351
  494MOL0     H68156   9.584  10.836   4.505  0.0983 -0.3663 -2.0922
  494MOL0     H68157   9.722  11.010   4.425 -0.4168 -0.5734  0.0464
  494MOL0     H68158   9.632  11.472   4.408 -0.3479  0.7479  0.2680
  494MOL0     H68159   9.699  11.716   4.419  0.8914  2.7248 -0.7393
  494MOL0     H68160   9.709  11.878   4.255  0.9581 -0.8028 -0.7847
  494MOL0     H68161   9.751  11.932   4.408 -1.1460  1.5277 -1.0915
  494MOL0     H68162   9.938  12.014   4.178 -1.0259 -2.0768 -1.2334
  494MOL0     H68163   9.884  12.101   4.330 -1.3505 -0.7620  0.4031
  494MOL0     H68164   9.663  12.152   4.229  2.4792  4.3623  1.3576
  494MOL0     H68165   9.807  12.207   4.129  0.6406 -1.0057 -1.7254
  494MOL0     H68166   9.640  12.117   3.962 -3.0503 -0.6064  2.6364
  494MOL0     H68167   9.622  11.970   4.042  3.5142 -4.1392 -3.2982
  494MOL0     H68168   9.961  11.893   3.828  2.1171 -0.8017  3.8855
  494MOL0     H68169  10.029  11.644   4.173  0.8212 -2.5431 -2.6323
  494MOL0     H68170   9.966  11.319   4.075 -1.7276  0.8790 -0.0909
  494MOL0     H68171  10.084  11.448   4.072  1.7975 -2.5128 -1.6568
  494MOL0     H68172  10.095  11.341   4.198  0.1056  0.7273 -0.0360
  495MOL0     O68173   6.488   7.131   8.017  0.0977  0.1280  0.2612
  495MOL0     C68174   6.511   7.219   7.939  0.3146 -0.4150 -0.5342
  495MOL0     O68175   6.450   7.240   7.823 -0.4694 -0.4182  0.2584
  495MOL0     C68176   6.326   7.178   7.814 -0.0800 -0.1391  0.2842
  495MOL0     C68177   6.289   7.137   7.695 -0.0283 -0.8567  0.7739
  495MOL0     C68178   6.169   7.076   7.675 -0.5874  0.6129 -0.6584
  495MOL0     C68179   6.071   7.062   7.782  0.4952 -0.3578 -0.5967
  495MOL0     O68180   5.960   6.997   7.748  0.1998 -1.1176 -0.4639
  495MOL0     C68181   5.872   6.936   7.852  0.4885  1.0262  0.1235
  495MOL0     C68182   5.727   6.996   7.860  0.2157  0.4448 -0.0216
  495MOL0     C68183   5.740   7.148   7.860  0.2950  0.1290 -0.2271
  495MOL0     C68184   5.600   7.206   7.877  1.0328  0.0154 -0.6141
  495MOL0     C68185   5.526   7.184   8.010  0.5615  0.2356 -0.6969
  495MOL0     C68186   5.402   7.266   8.028  0.2728 -0.5573 -0.9739
  495MOL0     C68187   5.301   7.256   7.912  0.4946  0.2989  0.0898
  495MOL0     C68188   5.171   7.327   7.947  0.4041 -0.3400  0.3588
  495MOL0     N68189   5.051   7.283   7.869 -0.6518  0.0360 -0.4597
  495MOL0     C68190   4.966   7.369   7.812 -0.3690  0.1087 -0.1141
  495MOL0     C68191   4.864   7.294   7.766 -0.4783  0.1597  0.0221
  495MOL0     C68192   4.738   7.335   7.686 -0.1723 -0.2852 -0.0875
  495MOL0     C68193   4.772   7.346   7.536 -0.5603  0.2002 -0.6195
  495MOL0     C68194   4.720   7.465   7.465 -0.7980  0.1662 -0.4773
  495MOL0     C68195   4.795   7.590   7.496 -0.4384  1.2385 -1.1273
  495MOL0     O68196   4.929   7.584   7.454 -0.1161 -0.9890 -0.8266
  495MOL0     C68197   5.006   7.692   7.482  0.3995 -0.1935 -0.1226
  495MOL0     C68198   4.968   7.818   7.541  0.6161 -0.0185  0.4734
  495MOL0     C68199   5.072   7.915   7.565  0.4438  1.2893 -0.8694
  495MOL0     C68200   5.044   8.041   7.645  0.6382  0.0037 -0.5679
  495MOL0     C68201   5.208   7.880   7.538  0.0143  0.1567 -0.1546
  495MOL0     C68202   5.318   7.969   7.557 -0.8026 -0.2044  0.1487
  495MOL0     O68203   5.441   7.927   7.612 -0.0810  0.4215 -0.1549
  495MOL0     C68204   5.544   8.018   7.599 -0.0868 -0.6220 -0.4801
  495MOL0     C68205   5.627   8.016   7.491  0.6915 -0.6002 -0.1573
  495MOL0     C68206   5.725   8.118   7.480 -0.3638  0.5303 -0.0595
  495MOL0     C68207   5.746   8.222   7.585 -0.1372  0.2684 -0.0927
  495MOL0     O68208   5.859   8.300   7.570 -0.6798  0.4121  0.6052
  495MOL0     C68209   5.854   8.433   7.619 -0.2637 -0.4112 -0.3660
  495MOL0     C68210   5.744   8.514   7.541  1.2287  1.0576  0.5879
  495MOL0     C68211   5.751   8.660   7.555  0.0615 -0.8132  0.0976
  495MOL0     C68212   5.661   8.728   7.447 -0.2065  0.3041 -0.4750
  495MOL0     C68213   5.657   8.886   7.474  0.0788  0.5938 -0.0935
  495MOL0     C68214   5.579   8.958   7.363  0.5909  0.1280  0.2142
  495MOL0     C68215   5.571   9.106   7.375 -0.1077  0.2044  0.5439
  495MOL0     C68216   5.511   9.172   7.249 -0.3450 -0.0223 -0.6121
  495MOL0    Cl68217   5.509   9.337   7.296  0.2784  0.0286 -0.3401
  495MOL0     C68218   5.663   8.215   7.696 -0.0708  0.0645  0.9204
  495MOL0     C68219   5.555   8.124   7.700  0.6051  1.0556  0.3341
  495MOL0     O68220   5.300   8.084   7.513  0.4702 -0.1848 -0.6877
  495MOL0     C68221   5.241   7.759   7.492 -0.2731  0.7739 -0.5705
  495MOL0     C68222   5.137   7.669   7.462 -0.1392  0.0470  0.4341
  495MOL0     N68223   4.901   7.163   7.791  0.3901 -0.3151 -0.3087
  495MOL0     N68224   5.011   7.156   7.851 -0.5699 -0.2196 -0.5197
  495MOL0     C68225   6.096   7.133   7.896 -0.4715  0.9286 -0.4238
  495MOL0     C68226   6.226   7.185   7.915 -0.2682  0.7651  0.5908
  495MOL0     C68227   6.619   7.311   7.958  0.3213 -0.3639 -0.0300
  495MOL0     C68228   6.674   7.384   7.855 -0.2143 -0.1704 -0.2634
  495MOL0     C68229   6.785   7.466   7.888  0.3770  0.3817  0.2384
  495MOL0     C68230   6.826   7.507   8.011  0.2787  0.4834 -0.8765
  495MOL0     O68231   6.900   7.622   8.019 -0.3452  0.0088 -0.2189
  495MOL0     C68232   6.959   7.659   8.148 -0.3583 -0.3489  0.5131
  495MOL0     C68233   7.102   7.712   8.141  0.9293 -0.7905 -0.7359
  495MOL0     C68234   7.191   7.652   8.031  0.4442 -0.1421  0.0866
  495MOL0     C68235   7.337   7.710   8.026  0.5730  0.2920 -0.1500
  495MOL0     C68236   7.340   7.854   8.007  0.8062  0.3302  0.2160
  495MOL0     C68237   7.336   7.971   7.980  0.1651  0.0591 -0.3902
  495MOL0     C68238   6.778   7.427   8.115 -0.6842  1.1081 -0.5957
  495MOL0     C68239   6.676   7.333   8.091 -1.2294 -0.0886 -0.4396
  495MOL0     C68240   6.622   7.276   8.225 -0.1599 -0.3387  0.2244
  495MOL0     H68241   6.355   7.148   7.609 -1.8050  0.4544 -0.4963
  495MOL0     H68242   6.138   7.046   7.576  0.2439  0.6529 -0.9364
  495MOL0     H68243   5.914   6.943   7.952  0.3761 -0.0306  0.2583
  495MOL0     H68244   5.870   6.832   7.816  0.6703  1.3979 -1.0123
  495MOL0     H68245   5.667   6.959   7.776  0.6706  0.8336 -0.5273
  495MOL0     H68246   5.680   6.959   7.952 -0.4666  1.4251  0.0347
  495MOL0     H68247   5.811   7.184   7.934 -0.9298 -0.7880  1.4597
  495MOL0     H68248   5.786   7.172   7.764 -0.5921  2.2055 -0.1857
  495MOL0     H68249   5.605   7.312   7.849 -1.0761  0.0831 -0.8671
  495MOL0     H68250   5.554   7.165   7.786 -1.0354  0.7786  0.0286
  495MOL0     H68251   5.595   7.213   8.090 -1.0784  2.1364  0.1022
  495MOL0     H68252   5.505   7.076   8.012  2.8591 -0.3609  3.2267
  495MOL0     H68253   5.353   7.221   8.114 -1.7328  0.8643 -1.3047
  495MOL0     H68254   5.424   7.373   8.036 -2.3759 -0.0716  1.2811
  495MOL0     H68255   5.277   7.149   7.908  2.3452 -0.1173 -0.7350
  495MOL0     H68256   5.339   7.289   7.815  0.4102  0.8488  0.2395
  495MOL0     H68257   5.152   7.305   8.052 -2.1945 -1.0005 -0.1887
  495MOL0     H68258   5.188   7.435   7.942  5.0162 -0.7994  1.0824
  495MOL0     H68259   4.982   7.476   7.807  1.1164 -0.0398  0.8276
  495MOL0     H68260   4.709   7.432   7.728  0.4345  0.0097 -0.3307
  495MOL0     H68261   4.663   7.257   7.704  0.9831 -1.4181 -0.0421
  495MOL0     H68262   4.881   7.335   7.535 -0.7936 -3.3746 -1.6822
  495MOL0     H68263   4.737   7.253   7.491  1.4641 -0.1539 -1.5823
  495MOL0     H68264   4.725   7.440   7.359  1.5069 -0.0462 -0.3788
  495MOL0     H68265   4.616   7.479   7.496 -1.0190 -0.5738 -0.8657
  495MOL0     H68266   4.739   7.668   7.444 -2.2162  0.4445 -0.4792
  495MOL0     H68267   4.791   7.601   7.605 -0.3854  0.3981 -1.0313
  495MOL0     H68268   4.864   7.829   7.569  0.6762 -2.5416  1.9595
  495MOL0     H68269   5.056   8.020   7.752 -3.3384  1.2131  0.2853
  495MOL0     H68270   4.941   8.059   7.615  0.6303 -2.0166 -1.9201
  495MOL0     H68271   5.107   8.125   7.612  1.0155 -0.7095 -1.7085
  495MOL0     H68272   5.628   7.933   7.420  0.7838 -0.6314 -0.1190
  495MOL0     H68273   5.790   8.115   7.393 -2.5454 -0.8873 -1.7476
  495MOL0     H68274   5.834   8.428   7.727 -2.8947 -1.8272 -0.8219
  495MOL0     H68275   5.955   8.473   7.609  0.5556 -2.8787 -2.9009
  495MOL0     H68276   5.755   8.495   7.434  0.0127 -1.3662  0.8088
  495MOL0     H68277   5.649   8.465   7.564  1.4534 -0.1014 -0.7797
  495MOL0     H68278   5.854   8.699   7.553  0.2472 -0.9732  2.6541
  495MOL0     H68279   5.706   8.691   7.650 -1.1761  2.3154 -1.3797
  495MOL0     H68280   5.561   8.683   7.452 -0.0683  0.1145  2.3296
  495MOL0     H68281   5.702   8.704   7.349 -1.4576  2.6629 -1.6519
  495MOL0     H68282   5.610   8.897   7.572 -0.7350 -2.6145 -0.0288
  495MOL0     H68283   5.761   8.918   7.489  1.8268 -4.5546  0.7776
  495MOL0     H68284   5.471   8.937   7.359  0.8653 -1.1919 -1.1948
  495MOL0     H68285   5.609   8.915   7.267  0.3164 -4.3644  1.8977
  495MOL0     H68286   5.675   9.140   7.373  1.1915 -3.2104 -2.5785
  495MOL0     H68287   5.517   9.137   7.465 -2.4546  3.4287 -1.7715
  495MOL0     H68288   5.416   9.119   7.237  0.3082 -1.5080  0.4248
  495MOL0     H68289   5.587   9.150   7.174  1.1639  1.1740  0.4925
  495MOL0     H68290   5.679   8.291   7.771 -1.6327  0.0786  1.2701
  495MOL0     H68291   5.478   8.121   7.776 -1.0596  0.5344 -1.2985
  495MOL0     H68292   5.345   7.727   7.498 -1.5639 -4.0997  0.2625
  495MOL0     H68293   5.168   7.578   7.412 -2.6126  0.8079 -2.8500
  495MOL0     H68294   6.021   7.125   7.973  0.6695 -3.8828  0.5417
  495MOL0     H68295   6.263   7.245   7.998 -0.6883  0.5972  0.9031
  495MOL0     H68296   6.639   7.389   7.753  1.9438 -0.8273 -1.1104
  495MOL0     H68297   6.833   7.515   7.804 -0.1096 -0.6706 -0.6852
  495MOL0     H68298   6.901   7.730   8.207  0.2554 -0.5104  1.3336
  495MOL0     H68299   6.976   7.574   8.216 -0.9586 -0.3341  0.6871
  495MOL0     H68300   7.145   7.715   8.242 -1.0203 -1.2065  0.1562
  495MOL0     H68301   7.086   7.819   8.123 -1.4653 -0.9436  0.1715
  495MOL0     H68302   7.193   7.546   8.056  0.4588 -0.0568  0.4434
  495MOL0     H68303   7.152   7.670   7.931  2.7436 -0.5556 -0.9562
  495MOL0     H68304   7.385   7.660   7.941 -1.2475 -3.4433  0.8083
  495MOL0     H68305   7.380   7.697   8.125 -0.3801  1.3081  0.4198
  495MOL0     H68306   7.338   8.070   7.941 -1.0868  1.3355  2.4737
  495MOL0     H68307   6.813   7.444   8.216 -0.8517  3.3345 -0.8606
  495MOL0     H68308   6.530   7.318   8.265 -0.8132 -0.2821 -1.2920
  495MOL0     H68309   6.618   7.166   8.232  0.0463 -0.3513  0.1726
  495MOL0     H68310   6.696   7.302   8.302  0.7554 -1.7309 -0.1336
  496MOL0     O68311   7.495   1.894   6.499  0.6295 -0.5659  0.0592
  496MOL0     C68312   7.517   1.982   6.408 -0.2770 -0.5579 -0.8629
  496MOL0     O68313   7.629   2.000   6.347 -0.8090 -0.3902 -0.4147
  496MOL0     C68314   7.747   1.945   6.387  0.3344 -0.4303 -0.2259
  496MOL0     C68315   7.820   1.872   6.299 -0.3616 -0.1259  0.2288
  496MOL0     C68316   7.929   1.796   6.343 -0.4811 -0.0216 -0.0077
  496MOL0     C68317   7.972   1.794   6.477 -0.1837  0.4760  0.5026
  496MOL0     O68318   8.080   1.733   6.532 -0.3270 -0.2291 -0.3232
  496MOL0     C68319   8.100   1.598   6.483 -0.4069 -0.8241  0.3333
  496MOL0     C68320   8.191   1.522   6.567  0.5611 -0.2862 -0.5210
  496MOL0     C68321   8.219   1.386   6.515  0.3038 -0.5113 -0.6250
  496MOL0     C68322   8.268   1.297   6.631 -0.8103  0.3805 -0.2899
  496MOL0     C68323   8.342   1.171   6.591 -0.2495 -0.1919 -0.3162
  496MOL0     C68324   8.465   1.200   6.501  0.8534 -1.0092  1.0100
  496MOL0     C68325   8.566   1.078   6.496  0.0564  0.0622  0.3714
  496MOL0     C68326   8.510   0.943   6.465  0.6915  0.0374 -1.0750
  496MOL0     N68327   8.411   0.936   6.362  0.9148  0.2408  0.5967
  496MOL0     C68328   8.280   0.890   6.371  0.0588  0.9517 -0.0023
  496MOL0     C68329   8.215   0.941   6.269 -0.4281  0.5115  0.3722
  496MOL0     C68330   8.063   0.933   6.247  0.9547  0.8040  0.0227
  496MOL0     C68331   8.000   0.850   6.133 -0.4264  1.0915  0.6523
  496MOL0     C68332   8.080   0.852   6.004  0.4626  0.1289 -0.0254
  496MOL0     C68333   8.095   0.997   5.948 -0.0922 -0.3799 -0.2116
  496MOL0     O68334   7.964   1.019   5.889 -0.5255  0.7312  0.7821
  496MOL0     C68335   7.952   1.019   5.754 -0.1812  0.0721  0.8114
  496MOL0     C68336   8.018   1.102   5.674  0.0943  0.1192 -0.0165
  496MOL0     C68337   7.999   1.098   5.536  0.1439  0.1070 -0.6132
  496MOL0     C68338   8.062   1.203   5.453  0.4368  0.8323  0.0465
  496MOL0     C68339   7.910   1.000   5.480  0.3888  0.2691  0.0908
  496MOL0     C68340   7.893   0.984   5.329 -0.0864 -0.7377 -0.2038
  496MOL0     O68341   7.895   0.851   5.282 -0.5904  0.5492  0.2960
  496MOL0     C68342   7.848   0.841   5.150  0.4807 -0.4194  1.0012
  496MOL0     C68343   7.933   0.868   5.034 -0.5514 -0.5780  0.5206
  496MOL0     C68344   7.883   0.853   4.904  0.3881 -0.1497  0.4170
  496MOL0     C68345   7.748   0.837   4.881 -0.2801  0.0114 -0.7281
  496MOL0     O68346   7.714   0.833   4.746 -0.0935 -0.0013 -0.1230
  496MOL0     C68347   7.576   0.785   4.726 -0.2574 -0.8297  0.1212
  496MOL0     C68348   7.559   0.738   4.578 -0.1667  0.7392 -0.1750
  496MOL0     C68349   7.639   0.818   4.472  0.3762 -0.0704 -0.2526
  496MOL0     C68350   7.583   0.960   4.459  0.4586 -0.2793 -0.0144
  496MOL0     C68351   7.679   1.044   4.368  0.3829 -0.3237  0.4737
  496MOL0     C68352   7.603   1.181   4.343 -0.5386 -0.9660 -0.9658
  496MOL0     C68353   7.688   1.274   4.264  0.3640 -0.4483 -0.0363
  496MOL0     C68354   7.588   1.380   4.190  0.8776 -0.5916  0.0386
  496MOL0    Cl68355   7.476   1.467   4.298 -0.3944 -0.4319 -0.5492
  496MOL0     C68356   7.662   0.822   4.989  0.1000  0.2075  0.0961
  496MOL0     C68357   7.714   0.822   5.118  0.5756  0.4336 -0.8892
  496MOL0     O68358   7.866   1.080   5.261  0.3907 -0.6662 -0.7631
  496MOL0     C68359   7.843   0.909   5.562 -0.2148 -0.0068  0.2541
  496MOL0     C68360   7.870   0.911   5.699 -0.1206 -1.6152  0.9569
  496MOL0     N68361   8.309   0.999   6.185  0.0964 -0.5792 -0.3683
  496MOL0     N68362   8.425   0.989   6.244  0.3648  0.6238  0.1107
  496MOL0     C68363   7.898   1.871   6.568 -0.1878 -0.0534 -0.1475
  496MOL0     C68364   7.785   1.951   6.525  0.0617  0.2482  0.4088
  496MOL0     C68365   7.404   2.044   6.342  0.9163  0.3468 -0.5205
  496MOL0     C68366   7.425   2.105   6.215 -0.5385  0.2322 -0.4004
  496MOL0     C68367   7.323   2.171   6.159  0.1788 -0.2674 -0.1609
  496MOL0     C68368   7.197   2.190   6.219  0.3165 -0.5257  1.1986
  496MOL0     O68369   7.100   2.263   6.148 -0.1004 -0.1482 -0.2827
  496MOL0     C68370   6.971   2.282   6.212 -0.1005 -1.0037  0.3037
  496MOL0     C68371   6.880   2.325   6.097 -0.3098  0.5451 -0.4602
  496MOL0     C68372   6.851   2.210   5.998  0.6723  0.0336 -0.1729
  496MOL0     C68373   6.798   2.260   5.863 -0.2025 -0.5023 -0.2689
  496MOL0     C68374   6.664   2.317   5.874  1.0310 -0.4712  0.6633
  496MOL0     C68375   6.544   2.359   5.864 -0.4330  0.0447  0.0251
  496MOL0     C68376   7.180   2.142   6.341 -0.9588 -0.1351  0.0057
  496MOL0     C68377   7.281   2.067   6.401  0.3952 -0.3615  0.4107
  496MOL0     C68378   7.242   2.011   6.533  0.2807 -0.3220 -0.1232
  496MOL0     H68379   7.797   1.863   6.193  1.0449  0.6385 -0.1644
  496MOL0     H68380   7.983   1.738   6.269 -0.4468  0.8030 -0.6574
  496MOL0     H68381   8.145   1.618   6.385  0.7725  0.5334  1.1203
  496MOL0     H68382   7.998   1.558   6.487 -1.6924  2.3379  3.1971
  496MOL0     H68383   8.285   1.575   6.584 -0.1989  1.0486 -0.3184
  496MOL0     H68384   8.143   1.515   6.665  0.8311 -0.7593 -0.4212
  496MOL0     H68385   8.130   1.338   6.474 -1.4803 -0.2404  2.5786
  496MOL0     H68386   8.290   1.383   6.432 -0.1348  0.4421 -1.0506
  496MOL0     H68387   8.348   1.351   6.681 -0.6556 -0.8967  0.8997
  496MOL0     H68388   8.190   1.271   6.703  0.0668  3.9328  2.1873
  496MOL0     H68389   8.275   1.108   6.533 -2.7728  1.9609  0.0809
  496MOL0     H68390   8.372   1.117   6.682 -1.9605  0.5815  0.7623
  496MOL0     H68391   8.432   1.221   6.399 -0.4760  0.5408  1.7161
  496MOL0     H68392   8.520   1.291   6.527  0.8216 -0.6349 -0.1872
  496MOL0     H68393   8.631   1.067   6.583  0.7843 -2.3171 -0.3947
  496MOL0     H68394   8.643   1.104   6.422  0.2459  0.5885  0.7424
  496MOL0     H68395   8.599   0.886   6.436  0.4132  0.6261 -3.2959
  496MOL0     H68396   8.472   0.917   6.564 -0.6689  1.8917 -1.0566
  496MOL0     H68397   8.248   0.826   6.453  1.0462 -0.5711 -0.7499
  496MOL0     H68398   8.030   1.038   6.250 -0.2678  0.4806 -1.1925
  496MOL0     H68399   8.020   0.883   6.334 -0.4534  0.6446 -0.7471
  496MOL0     H68400   7.993   0.742   6.150  3.7822  0.3897 -0.7912
  496MOL0     H68401   7.898   0.885   6.114 -0.7670 -0.2312 -0.0612
  496MOL0     H68402   8.181   0.814   6.021  0.8696  1.4116  0.5356
  496MOL0     H68403   8.038   0.779   5.934  1.1144  1.7370 -2.2147
  496MOL0     H68404   8.118   1.069   6.027 -1.8378 -0.9274  0.8590
  496MOL0     H68405   8.180   1.002   5.880 -0.9822 -0.5505 -1.3757
  496MOL0     H68406   8.085   1.176   5.717  2.1689 -1.7207  0.0369
  496MOL0     H68407   8.014   1.296   5.486  2.9008  1.8743  1.0269
  496MOL0     H68408   8.064   1.203   5.344 -1.1190 -0.7089 -0.0261
  496MOL0     H68409   8.167   1.219   5.481  1.1054  0.4711 -2.1302
  496MOL0     H68410   8.041   0.871   5.044 -0.4830  1.8736 -0.3272
  496MOL0     H68411   7.944   0.864   4.815  2.3432 -1.3947  1.5370
  496MOL0     H68412   7.551   0.702   4.792 -1.5922 -0.4043  0.1761
  496MOL0     H68413   7.506   0.861   4.762  0.8718  0.4168 -0.2408
  496MOL0     H68414   7.594   0.635   4.575 -1.7490  0.1926 -2.4670
  496MOL0     H68415   7.453   0.739   4.550 -0.5226 -0.9940  0.9765
  496MOL0     H68416   7.632   0.771   4.374 -0.6744  3.5676 -2.1141
  496MOL0     H68417   7.743   0.837   4.498 -0.0253  1.2288  0.5172
  496MOL0     H68418   7.565   0.991   4.562  0.3722 -2.2061  0.5854
  496MOL0     H68419   7.484   0.960   4.412  0.1498  2.2561  0.5365
  496MOL0     H68420   7.775   1.057   4.420  0.9795 -0.2885 -0.6002
  496MOL0     H68421   7.704   0.993   4.274 -1.4425  0.5686 -0.5490
  496MOL0     H68422   7.572   1.236   4.432  1.1053  2.3820 -2.3090
  496MOL0     H68423   7.515   1.163   4.281 -0.2970 -2.2433 -0.9731
  496MOL0     H68424   7.741   1.219   4.185  1.9456 -0.0568  0.6966
  496MOL0     H68425   7.764   1.324   4.325  0.6390  0.7815 -1.3306
  496MOL0     H68426   7.525   1.330   4.116  1.2942 -0.2105 -0.5848
  496MOL0     H68427   7.652   1.454   4.141  3.1765 -1.7114  1.2180
  496MOL0     H68428   7.554   0.813   4.988 -0.0487  0.3971  3.4123
  496MOL0     H68429   7.644   0.820   5.201  0.2071  1.4374 -1.1513
  496MOL0     H68430   7.780   0.830   5.524 -0.7199  0.0815  0.8843
  496MOL0     H68431   7.811   0.845   5.762  0.4861 -2.9355  0.1750
  496MOL0     H68432   7.943   1.882   6.666 -0.5724  1.0789 -0.0832
  496MOL0     H68433   7.726   1.999   6.602  1.5579  0.4810  1.4581
  496MOL0     H68434   7.515   2.100   6.154 -2.5307  1.8246 -3.7506
  496MOL0     H68435   7.333   2.233   6.071  0.2303 -2.8578 -2.0929
  496MOL0     H68436   6.924   2.193   6.256 -2.1409  0.4466  1.1993
  496MOL0     H68437   6.983   2.360   6.287  1.8527 -3.4258  2.7281
  496MOL0     H68438   6.948   2.397   6.052  0.5191  0.4434  0.5889
  496MOL0     H68439   6.789   2.383   6.118 -0.3671 -0.1067  1.2872
  496MOL0     H68440   6.940   2.153   5.972 -0.5777 -0.8634 -2.8717
  496MOL0     H68441   6.771   2.146   6.037 -1.5597  2.5714 -0.2071
  496MOL0     H68442   6.791   2.183   5.786  3.7673 -2.1319  0.7334
  496MOL0     H68443   6.869   2.328   5.816 -0.5070  0.0074 -0.0038
  496MOL0     H68444   6.443   2.393   5.856 -0.6227 -0.7893 -1.4323
  496MOL0     H68445   7.085   2.137   6.393 -1.3554  0.1506 -0.6736
  496MOL0     H68446   7.242   1.904   6.508 -2.4682 -0.1313 -1.2536
  496MOL0     H68447   7.316   2.035   6.610  0.1397 -1.0310  0.2449
  496MOL0     H68448   7.144   2.032   6.576  1.0676  0.6565  1.2696
  497MOL0     O68449   6.352   1.893   4.245 -0.2518  1.0283  0.3814
  497MOL0     C68450   6.302   1.881   4.135 -0.6352  0.0931 -0.1264
  497MOL0     O68451   6.235   1.764   4.082 -0.5363 -0.7458 -0.2853
  497MOL0     C68452   6.280   1.645   4.133 -0.2347 -0.3054  0.2913
  497MOL0     C68453   6.341   1.546   4.055 -0.6513  0.2975 -0.2742
  497MOL0     C68454   6.391   1.421   4.103 -0.3150 -0.1453  0.0873
  497MOL0     C68455   6.406   1.401   4.238 -0.8785 -0.3140 -0.1443
  497MOL0     O68456   6.452   1.286   4.296 -0.2159  0.7848 -0.1633
  497MOL0     C68457   6.550   1.296   4.400 -0.3703  0.1684 -0.0977
  497MOL0     C68458   6.525   1.179   4.504 -0.1759 -0.0896  0.1233
  497MOL0     C68459   6.549   1.030   4.448  1.3289 -0.0330 -0.0912
  497MOL0     C68460   6.697   1.000   4.426  0.5845  0.6196  0.4698
  497MOL0     C68461   6.732   0.859   4.435  0.3601 -0.4822 -0.1894
  497MOL0     C68462   6.702   0.796   4.301 -0.1864  0.2318  0.0717
  497MOL0     C68463   6.744   0.646   4.295  0.1993  0.6490  0.0672
  497MOL0     C68464   6.650   0.554   4.376 -0.4192  0.3406  0.0414
  497MOL0     N68465   6.691   0.407   4.386 -0.9280  0.8563  0.0034
  497MOL0     C68466   6.688   0.314   4.494 -0.1473 -0.5667  0.1950
  497MOL0     C68467   6.727   0.203   4.442  0.1709 -0.3979  0.0213
  497MOL0     C68468   6.738   0.077   4.516  0.5671 -0.6367  0.0660
  497MOL0     C68469   6.661  -0.032   4.446 -0.1203  0.4254 -0.4767
  497MOL0     C68470   6.507   0.001   4.423  0.5780 -0.2757  1.1208
  497MOL0     C68471   6.467  -0.004   4.281  0.1786  0.4250 -0.4837
  497MOL0     O68472   6.453  -0.149   4.244  0.0686  0.0172 -0.1000
  497MOL0     C68473   6.402  -0.193   4.127 -0.5334  0.2477  0.5368
  497MOL0     C68474   6.365  -0.331   4.131  0.6115 -0.2318 -0.4113
  497MOL0     C68475   6.309  -0.404   4.027 -0.5886  0.8085  0.4513
  497MOL0     C68476   6.272  -0.550   4.048 -0.2906 -0.3184 -0.2743
  497MOL0     C68477   6.284  -0.329   3.910  0.8154 -0.0472  0.5338
  497MOL0     C68478   6.223  -0.378   3.778 -1.0752  0.6309 -0.3023
  497MOL0     O68479   6.138  -0.306   3.708 -0.4969 -0.7616  0.2295
  497MOL0     C68480   6.099  -0.348   3.584 -0.4101  0.3781  0.3007
  497MOL0     C68481   6.000  -0.450   3.562  0.4311 -0.1856 -0.4120
  497MOL0     C68482   5.960  -0.481   3.431 -0.4459  0.6338 -0.1964
  497MOL0     C68483   6.004  -0.408   3.316 -1.2886  0.4300 -0.7034
  497MOL0     O68484   5.938  -0.426   3.197  0.3638 -0.0289  0.7681
  497MOL0     C68485   5.844  -0.333   3.152  0.6858 -0.4659  0.4189
  497MOL0     C68486   5.758  -0.419   3.058  0.4911  0.6519  0.6240
  497MOL0     C68487   5.678  -0.518   3.129 -0.2916  0.1322 -0.2948
  497MOL0     C68488   5.609  -0.609   3.028 -0.1898 -0.3557  0.0856
  497MOL0     C68489   5.572  -0.737   3.094  0.6880 -0.0900 -0.5354
  497MOL0     C68490   5.499  -0.845   3.001 -0.2975  0.5856 -0.0807
  497MOL0     C68491   5.538  -0.985   3.045  0.6510  0.6807 -0.0937
  497MOL0     C68492   5.669  -1.041   2.998  0.0731 -0.2345  1.3731
  497MOL0    Cl68493   5.675  -1.072   2.817  0.8352 -0.1259  0.2482
  497MOL0     C68494   6.109  -0.319   3.332  0.0098 -0.3176  0.2835
  497MOL0     C68495   6.155  -0.290   3.463 -0.3333  0.1415  0.3471
  497MOL0     O68496   6.246  -0.494   3.749 -0.4759 -0.3430 -0.1448
  497MOL0     C68497   6.313  -0.194   3.914  0.2844  0.0120 -0.2193
  497MOL0     C68498   6.383  -0.119   4.011 -0.1348  0.7963 -0.0525
  497MOL0     N68499   6.747   0.220   4.302  1.0589 -1.0349 -0.1112
  497MOL0     N68500   6.731   0.345   4.278 -0.7500 -0.3238  0.5572
  497MOL0     C68501   6.348   1.500   4.320  0.2874 -0.5438 -0.8140
  497MOL0     C68502   6.284   1.612   4.269  0.0803  0.1900  0.0771
  497MOL0     C68503   6.321   1.998   4.038  0.0636  0.3679 -0.0385
  497MOL0     C68504   6.199   2.023   3.965 -0.8720  0.9192  0.6604
  497MOL0     C68505   6.205   2.103   3.862 -0.6628 -0.0374  0.0228
  497MOL0     C68506   6.324   2.163   3.824 -0.1738  0.2671 -0.4814
  497MOL0     O68507   6.316   2.216   3.698  0.8772 -0.1730  0.0395
  497MOL0     C68508   6.406   2.320   3.662  0.7907  0.1221  0.2990
  497MOL0     C68509   6.354   2.452   3.692  0.0575  0.3174  0.4332
  497MOL0     C68510   6.476   2.549   3.672 -0.4084 -0.6326  0.6228
  497MOL0     C68511   6.448   2.692   3.730  0.6675 -0.2778 -0.7977
  497MOL0     C68512   6.525   2.792   3.675 -0.0891 -0.4383 -0.0403
  497MOL0     C68513   6.603   2.882   3.622 -0.2037  0.5426  0.4049
  497MOL0     C68514   6.446   2.151   3.907 -0.2092 -0.5279  0.5052
  497MOL0     C68515   6.446   2.075   4.023  0.1705  1.1384  0.0341
  497MOL0     C68516   6.567   2.072   4.113  0.1772  0.1040 -0.0762
  497MOL0     H68517   6.339   1.548   3.947 -0.5653 -3.9117 -0.5417
  497MOL0     H68518   6.419   1.346   4.030 -3.5226 -1.4890  0.0637
  497MOL0     H68519   6.543   1.398   4.438  0.4748  0.4152 -0.6144
  497MOL0     H68520   6.646   1.276   4.352 -0.2985 -0.1132  0.1577
  497MOL0     H68521   6.571   1.206   4.600  1.7047  0.0965 -0.7833
  497MOL0     H68522   6.417   1.168   4.516 -0.0987 -0.5605  0.4356
  497MOL0     H68523   6.499   0.970   4.525 -1.3298  1.7922 -0.2321
  497MOL0     H68524   6.498   1.016   4.353  1.3022  1.6573 -0.3641
  497MOL0     H68525   6.719   1.041   4.327  0.1267 -1.3611 -0.5050
  497MOL0     H68526   6.764   1.054   4.493  3.7759 -2.2377 -0.1252
  497MOL0     H68527   6.683   0.808   4.519  2.0401 -1.2075  0.4076
  497MOL0     H68528   6.841   0.855   4.436  0.4448  0.9886 -1.0223
  497MOL0     H68529   6.593   0.797   4.289 -0.2585  2.0420  0.6420
  497MOL0     H68530   6.752   0.857   4.226  2.0649 -0.6928  0.7546
  497MOL0     H68531   6.852   0.638   4.315  0.1808 -2.5139 -0.5587
  497MOL0     H68532   6.742   0.616   4.189  1.8323  0.0700  0.1651
  497MOL0     H68533   6.639   0.583   4.481 -2.4583  0.4384 -0.1661
  497MOL0     H68534   6.552   0.571   4.332  0.7304  1.4268 -2.2709
  497MOL0     H68535   6.661   0.332   4.598 -2.4557  0.8219 -0.5683
  497MOL0     H68536   6.676   0.084   4.606 -3.1321 -2.5307 -2.0359
  497MOL0     H68537   6.840   0.044   4.539  1.0547  0.4362 -0.5209
  497MOL0     H68538   6.698  -0.062   4.347 -3.3887  0.2495 -1.7554
  497MOL0     H68539   6.666  -0.118   4.512  3.4939  1.7242  1.2209
  497MOL0     H68540   6.439  -0.059   4.484  0.6018  0.2915  1.7117
  497MOL0     H68541   6.496   0.105   4.455  2.6930  0.3274  0.0711
  497MOL0     H68542   6.374   0.051   4.266  1.5077  3.3514  1.1524
  497MOL0     H68543   6.535   0.049   4.213  0.0833 -0.5381 -1.3604
  497MOL0     H68544   6.396  -0.375   4.225  0.7026  1.7049  0.5203
  497MOL0     H68545   6.309  -0.594   4.142  1.6198  0.0616 -0.8031
  497MOL0     H68546   6.320  -0.608   3.969  4.3462 -1.0002  2.5991
  497MOL0     H68547   6.163  -0.557   4.053 -0.5336  2.4513 -0.0334
  497MOL0     H68548   5.958  -0.499   3.649  0.7409 -2.5593 -1.5072
  497MOL0     H68549   5.873  -0.546   3.426  0.9099 -1.6026  2.5128
  497MOL0     H68550   5.776  -0.292   3.227 -0.1846 -0.2004 -0.4931
  497MOL0     H68551   5.887  -0.251   3.094 -4.5181  0.7750 -2.2694
  497MOL0     H68552   5.691  -0.358   2.996  0.9709  0.4712 -0.0788
  497MOL0     H68553   5.825  -0.464   2.984 -1.6456  0.2622 -1.1936
  497MOL0     H68554   5.614  -0.465   3.200  0.7369 -1.6072  2.0364
  497MOL0     H68555   5.739  -0.573   3.200 -3.0834 -2.0211  0.6386
  497MOL0     H68556   5.668  -0.629   2.939 -1.2408 -1.2915 -0.4223
  497MOL0     H68557   5.515  -0.561   3.001 -0.3484 -0.9404 -0.4122
  497MOL0     H68558   5.658  -0.778   3.147 -1.2442  1.4600  4.3277
  497MOL0     H68559   5.502  -0.708   3.172 -0.4648  0.8114 -1.8578
  497MOL0     H68560   5.537  -0.835   2.899  1.6212  0.1580  0.5631
  497MOL0     H68561   5.390  -0.833   2.993 -0.5826 -1.4078  0.2447
  497MOL0     H68562   5.452  -1.043   3.011  0.3532  1.8501 -1.4382
  497MOL0     H68563   5.548  -1.003   3.152 -0.9561 -3.6934 -0.4818
  497MOL0     H68564   5.687  -1.137   3.048 -3.3947 -2.1823 -0.7400
  497MOL0     H68565   5.749  -0.967   3.013  1.2767 -0.8717 -1.2746
  497MOL0     H68566   6.124  -0.253   3.247 -0.0392 -1.7491 -0.8662
  497MOL0     H68567   6.217  -0.202   3.480 -0.6927  1.2442 -3.2157
  497MOL0     H68568   6.279  -0.135   3.830 -2.7062  0.2820  1.0453
  497MOL0     H68569   6.412  -0.014   4.010  3.4681 -0.0680 -0.7395
  497MOL0     H68570   6.359   1.480   4.426  3.9295 -3.7268 -1.5335
  497MOL0     H68571   6.240   1.681   4.339  1.0319  0.7002  0.1848
  497MOL0     H68572   6.106   1.969   3.982 -0.0125 -1.8883 -2.2985
  497MOL0     H68573   6.116   2.121   3.803  0.0767  0.4473 -0.9666
  497MOL0     H68574   6.501   2.304   3.712 -0.0940 -1.2424  1.6436
  497MOL0     H68575   6.421   2.297   3.556 -1.1702 -1.0507  0.2125
  497MOL0     H68576   6.331   2.457   3.798  0.8522 -0.6428  0.6709
  497MOL0     H68577   6.270   2.474   3.626  2.1373 -2.5543 -3.6828
  497MOL0     H68578   6.572   2.512   3.708  1.6051  1.4278 -2.1549
  497MOL0     H68579   6.499   2.559   3.565  2.1303  3.8273  1.3416
  497MOL0     H68580   6.469   2.692   3.838 -0.2143  1.4335 -0.6013
  497MOL0     H68581   6.341   2.710   3.725  0.4853 -1.2260 -0.5775
  497MOL0     H68582   6.689   2.941   3.595  0.8941  1.2197  4.6041
  497MOL0     H68583   6.534   2.209   3.879 -0.0976  0.6702  3.0100
  497MOL0     H68584   6.535   2.083   4.217  3.7087  0.6319  1.1038
  497MOL0     H68585   6.616   1.975   4.096  2.7460  1.3624 -0.3784
  497MOL0     H68586   6.641   2.148   4.088  1.6442 -1.1271  0.3624
  498MOL0     O68587   4.518  10.202   4.534  0.0126 -0.5076  0.2878
  498MOL0     C68588   4.593  10.277   4.465 -0.0554 -0.4851  0.1514
  498MOL0     O68589   4.663  10.238   4.361 -1.0888  0.8969 -0.4358
  498MOL0     C68590   4.648  10.108   4.310 -0.1374  0.4341 -0.5946
  498MOL0     C68591   4.564  10.089   4.193 -0.7395 -0.8919 -0.7895
  498MOL0     C68592   4.541   9.973   4.125  0.7451  0.9288 -0.2471
  498MOL0     C68593   4.614   9.857   4.177  0.3706  0.5226 -0.5993
  498MOL0     O68594   4.598   9.734   4.119  0.1199  0.3081  0.1028
  498MOL0     C68595   4.496   9.712   4.016 -0.2852 -1.0457 -1.4965
  498MOL0     C68596   4.506   9.562   3.981 -1.4562  0.5892 -0.1684
  498MOL0     C68597   4.415   9.527   3.868 -0.8304  0.0649  0.0401
  498MOL0     C68598   4.271   9.539   3.904  0.0003 -0.0729 -0.2445
  498MOL0     C68599   4.184   9.515   3.785  0.2740 -0.3391  0.5046
  498MOL0     C68600   4.039   9.540   3.821  0.5841  1.4670  0.1765
  498MOL0     C68601   3.955   9.540   3.698  0.4339 -0.0309 -0.1798
  498MOL0     C68602   3.808   9.559   3.741 -0.3643  1.0583  0.2960
  498MOL0     N68603   3.724   9.571   3.620  0.4303 -0.4619 -0.1215
  498MOL0     C68604   3.715   9.693   3.558  0.4074 -0.1442 -0.4517
  498MOL0     C68605   3.657   9.661   3.445 -0.2030  0.1431  0.5217
  498MOL0     C68606   3.613   9.750   3.334  0.4304  0.5667 -0.0100
  498MOL0     C68607   3.738   9.796   3.255 -0.5521 -0.4733  0.8019
  498MOL0     C68608   3.695   9.857   3.114  0.0705 -0.2049 -0.6065
  498MOL0     C68609   3.805   9.884   3.005  0.6320 -0.0239  0.7671
  498MOL0     O68610   3.899   9.984   3.051  0.1929  0.4907  0.5820
  498MOL0     C68611   3.861  10.119   3.057  0.2296  0.0804  0.2926
  498MOL0     C68612   3.953  10.198   3.125  0.6143  0.3984  0.1719
  498MOL0     C68613   3.933  10.338   3.146  0.2673  0.2561 -0.5983
  498MOL0     C68614   4.052  10.410   3.199  0.2289 -0.0273 -0.2537
  498MOL0     C68615   3.805  10.399   3.104 -0.4689  0.1261  0.3819
  498MOL0     C68616   3.760  10.540   3.135 -0.6292 -0.2765  0.4321
  498MOL0     O68617   3.646  10.588   3.079  0.1043 -0.2058  0.3371
  498MOL0     C68618   3.595  10.706   3.134  0.1606 -0.3187 -1.0148
  498MOL0     C68619   3.645  10.836   3.108  0.3333 -0.1235 -1.0430
  498MOL0     C68620   3.590  10.947   3.181  0.3518  0.1294  0.0242
  498MOL0     C68621   3.472  10.932   3.261 -0.7683  0.2622  0.5764
  498MOL0     O68622   3.413  11.036   3.312 -0.0067 -0.1744 -0.1598
  498MOL0     C68623   3.327  11.023   3.422  1.1420  0.0488  0.8909
  498MOL0     C68624   3.291  11.165   3.461 -0.1261  0.9124  0.3518
  498MOL0     C68625   3.177  11.173   3.556  0.2585 -0.2164  0.5286
  498MOL0     C68626   3.141  11.309   3.599 -0.0274 -0.2115  0.6423
  498MOL0     C68627   2.990  11.308   3.627  0.6705 -0.4765 -0.0368
  498MOL0     C68628   2.936  11.457   3.641  0.0607  0.8118  0.1994
  498MOL0     C68629   2.804  11.485   3.570 -0.6592  0.3539  0.9097
  498MOL0     C68630   2.692  11.397   3.631  0.1768 -0.0860  0.4094
  498MOL0    Cl68631   2.547  11.444   3.532 -0.0992 -0.0906  0.1059
  498MOL0     C68632   3.425  10.803   3.276 -0.4244  0.4037 -0.5188
  498MOL0     C68633   3.483  10.690   3.219  0.5629  0.9628  0.6830
  498MOL0     O68634   3.823  10.605   3.219  0.2833  0.2722  0.7318
  498MOL0     C68635   3.716  10.314   3.035  0.0256  0.0350 -0.4120
  498MOL0     C68636   3.743  10.176   3.011  0.7369 -0.0285 -0.0350
  498MOL0     N68637   3.629   9.529   3.437 -0.4565  0.2822 -0.5499
  498MOL0     N68638   3.673   9.474   3.546  0.1515 -0.1059  0.1630
  498MOL0     C68639   4.696   9.873   4.284 -0.2312  0.8714  0.8077
  498MOL0     C68640   4.704   9.989   4.361  0.3201  0.4740 -0.2208
  498MOL0     C68641   4.572  10.430   4.491 -0.3408  1.2804  0.1567
  498MOL0     C68642   4.594  10.512   4.375 -0.4526 -1.0172 -0.2538
  498MOL0     C68643   4.561  10.642   4.369  0.1015 -0.3422  0.4760
  498MOL0     C68644   4.538  10.715   4.485 -0.0280  0.2725  0.0977
  498MOL0     O68645   4.516  10.851   4.501  0.1595 -0.1416  0.4761
  498MOL0     C68646   4.590  10.933   4.406 -0.2165  0.5087 -1.0485
  498MOL0     C68647   4.614  11.070   4.467  0.4459  0.0954  0.5637
  498MOL0     C68648   4.648  11.186   4.378  1.1123  0.2574  0.2286
  498MOL0     C68649   4.613  11.331   4.436  0.5004 -0.1584  0.6824
  498MOL0     C68650   4.468  11.361   4.439  0.7997 -0.3520 -0.9942
  498MOL0     C68651   4.351  11.397   4.423 -0.1896  0.3375  0.6131
  498MOL0     C68652   4.537  10.644   4.609  0.0296 -0.3908 -0.3529
  498MOL0     C68653   4.553  10.503   4.617  0.3525 -0.4950  0.2446
  498MOL0     C68654   4.533  10.428   4.742 -0.9303  0.6256 -0.0266
  498MOL0     H68655   4.516  10.183   4.169 -0.8641 -0.9162 -0.6388
  498MOL0     H68656   4.467   9.954   4.048 -1.7661  3.2536  1.3887
  498MOL0     H68657   4.517   9.769   3.925  1.5560 -3.3966 -2.6557
  498MOL0     H68658   4.399   9.738   4.060  2.1598  2.1597  2.8278
  498MOL0     H68659   4.609   9.549   3.947 -0.8120 -1.2093  2.1967
  498MOL0     H68660   4.488   9.498   4.067  0.4733 -0.4326 -0.4850
  498MOL0     H68661   4.434   9.595   3.785  1.5971 -0.7662 -0.1483
  498MOL0     H68662   4.429   9.422   3.838  0.1718  0.2084 -0.0260
  498MOL0     H68663   4.254   9.460   3.977  4.3760 -2.0839 -1.0885
  498MOL0     H68664   4.249   9.640   3.940  2.0231  0.3367 -0.0492
  498MOL0     H68665   4.193   9.413   3.745 -0.8489 -0.8768  1.5429
  498MOL0     H68666   4.211   9.578   3.700 -0.5272 -2.8398 -1.7453
  498MOL0     H68667   4.011   9.450   3.876 -1.4127  1.4105 -0.8430
  498MOL0     H68668   4.025   9.630   3.881 -2.5219 -0.1139  2.0399
  498MOL0     H68669   3.975   9.442   3.656  1.0052 -1.2597  2.7164
  498MOL0     H68670   3.978   9.631   3.640 -0.7113 -0.3635 -1.1879
  498MOL0     H68671   3.776   9.472   3.799 -1.9689  0.7664 -0.9346
  498MOL0     H68672   3.804   9.646   3.807  2.8015  0.6751  1.1177
  498MOL0     H68673   3.750   9.792   3.586  0.0135  0.7797 -2.9973
  498MOL0     H68674   3.552   9.836   3.362 -2.6441 -1.1371 -0.9944
  498MOL0     H68675   3.546   9.685   3.276  0.0272  2.4452 -1.7460
  498MOL0     H68676   3.799   9.875   3.300  0.9034 -0.1491 -1.5503
  498MOL0     H68677   3.799   9.709   3.230 -1.4372 -0.8720  0.0129
  498MOL0     H68678   3.629   9.789   3.059  0.0111  0.8183 -1.8401
  498MOL0     H68679   3.639   9.951   3.123 -2.2547 -1.3366 -2.2761
  498MOL0     H68680   3.848   9.787   2.978  1.6821  0.9773 -1.3787
  498MOL0     H68681   3.750   9.913   2.915 -0.0836 -2.4193  0.3473
  498MOL0     H68682   4.040  10.139   3.151  0.6474  0.6765  0.6804
  498MOL0     H68683   4.137  10.345   3.221 -0.1500 -0.5626 -0.3483
  498MOL0     H68684   4.019  10.453   3.295 -0.2236 -1.5508  0.3071
  498MOL0     H68685   4.064  10.494   3.130 -2.1712  0.8629  0.3092
  498MOL0     H68686   3.732  10.848   3.043  1.7086 -1.3097  0.4831
  498MOL0     H68687   3.615  11.052   3.179 -1.2913  0.5402 -0.4386
  498MOL0     H68688   3.234  10.975   3.392  0.6573  1.0327  0.7864
  498MOL0     H68689   3.380  10.967   3.500  0.6436 -3.0551 -0.8069
  498MOL0     H68690   3.382  11.212   3.500 -0.9977  0.3687  3.3002
  498MOL0     H68691   3.269  11.227   3.374  0.4129  2.0897  1.0318
  498MOL0     H68692   3.218  11.132   3.649  2.7067  1.8126  0.4489
  498MOL0     H68693   3.088  11.127   3.511  2.4556 -2.8629 -1.4983
  498MOL0     H68694   3.175  11.391   3.536  0.3599  0.4568  1.6986
  498MOL0     H68695   3.206  11.331   3.684 -0.0732 -0.1356  0.6575
  498MOL0     H68696   2.934  11.258   3.548 -3.6869 -0.4170  2.6881
  498MOL0     H68697   2.967  11.255   3.720 -0.0096  2.2684  1.4499
  498MOL0     H68698   3.000  11.525   3.584 -0.5718  2.5287  1.4532
  498MOL0     H68699   2.938  11.489   3.746  0.6668  2.5850 -0.3187
  498MOL0     H68700   2.818  11.454   3.466 -2.8560 -0.1910  0.7298
  498MOL0     H68701   2.781  11.592   3.580 -0.3125  0.2303  4.0311
  498MOL0     H68702   2.667  11.424   3.734  1.2048 -1.1484  0.9606
  498MOL0     H68703   2.706  11.289   3.631 -1.4262 -0.3611  3.0325
  498MOL0     H68704   3.342  10.780   3.342  0.5079 -0.5518  0.3697
  498MOL0     H68705   3.441  10.592   3.241 -0.6025  1.5501  1.1945
  498MOL0     H68706   3.623  10.353   2.993  0.2054 -1.0032 -1.8194
  498MOL0     H68707   3.657  10.129   2.963  0.2828  3.7515 -3.4174
  498MOL0     H68708   4.748   9.787   4.325 -2.7195  0.4490  3.4028
  498MOL0     H68709   4.760   9.984   4.453  0.6806  2.2047 -0.3080
  498MOL0     H68710   4.625  10.466   4.281  2.6828  0.2097  0.0599
  498MOL0     H68711   4.553  10.695   4.274  0.6851  0.6081  0.9353
  498MOL0     H68712   4.681  10.879   4.377 -2.3324 -2.2949 -3.1122
  498MOL0     H68713   4.539  10.934   4.309  2.8750  1.1340 -2.7737
  498MOL0     H68714   4.695  11.068   4.542  2.1012  1.0601 -1.1052
  498MOL0     H68715   4.517  11.086   4.514 -0.1209  0.0219 -0.5645
  498MOL0     H68716   4.756  11.198   4.370  1.2664 -1.0065  0.3478
  498MOL0     H68717   4.615  11.166   4.276  0.0352  0.8937  0.4271
  498MOL0     H68718   4.674  11.401   4.378  1.1393  0.0180  1.5502
  498MOL0     H68719   4.649  11.340   4.539 -1.7405 -1.0323  1.5943
  498MOL0     H68720   4.248  11.424   4.412 -0.2085 -0.7155 -2.8665
  498MOL0     H68721   4.514  10.699   4.700  1.3305 -0.0245 -0.2185
  498MOL0     H68722   4.616  10.357   4.745 -0.3024  1.3635  2.1514
  498MOL0     H68723   4.555  10.501   4.821  0.5316  0.5239 -0.3249
  498MOL0     H68724   4.430  10.391   4.752 -0.6404  0.1228  1.1814
  499MOL0     O68725   4.897   1.917   9.243  0.3903  0.6718 -0.6144
  499MOL0     C68726   4.936   1.997   9.332 -0.2888  0.3088 -0.3657
  499MOL0     O68727   5.055   2.073   9.317  0.1052  0.9698 -0.3146
  499MOL0     C68728   5.130   2.035   9.214 -0.3690  0.0437 -0.3422
  499MOL0     C68729   5.176   2.133   9.130 -0.4711  0.2023  0.8210
  499MOL0     C68730   5.263   2.097   9.031  0.0642  0.6049  0.0283
  499MOL0     C68731   5.302   1.968   8.998 -0.8033 -0.5484  0.1548
  499MOL0     O68732   5.374   1.944   8.883  0.0901  0.6272 -0.1848
  499MOL0     C68733   5.296   1.868   8.780  0.2430  0.5293  0.7741
  499MOL0     C68734   5.177   1.954   8.717 -0.4114  0.4772  0.3180
  499MOL0     C68735   5.221   2.086   8.650  0.0704  0.5005  0.2772
  499MOL0     C68736   5.119   2.157   8.577  0.3245 -0.1987  0.3956
  499MOL0     C68737   5.181   2.282   8.514 -0.1072 -0.3135  0.8250
  499MOL0     C68738   5.080   2.393   8.485  0.1311  0.4559  0.2851
  499MOL0     C68739   5.126   2.527   8.419  0.2784 -0.2050  0.3835
  499MOL0     C68740   5.015   2.622   8.388  0.1512  0.2954 -0.0384
  499MOL0     N68741   4.918   2.580   8.285  0.2904  0.0841 -0.0962
  499MOL0     C68742   4.938   2.587   8.145 -0.6748  0.6806 -0.0144
  499MOL0     C68743   4.834   2.519   8.100 -0.6568 -0.5377  0.3519
  499MOL0     C68744   4.799   2.511   7.948 -0.7434 -0.2186 -0.3631
  499MOL0     C68745   4.697   2.622   7.912  0.0180  0.5883  1.1826
  499MOL0     C68746   4.748   2.764   7.953  0.3389 -0.0341  0.7374
  499MOL0     C68747   4.662   2.877   7.911  0.3205  0.0789 -0.0696
  499MOL0     O68748   4.670   2.890   7.767 -0.4339 -0.1454  0.9939
  499MOL0     C68749   4.780   2.960   7.711 -0.2939 -0.1552  0.6818
  499MOL0     C68750   4.771   2.983   7.572  0.6120 -0.3842  0.0869
  499MOL0     C68751   4.845   3.077   7.508 -0.0467 -0.2187  0.6263
  499MOL0     C68752   4.837   3.107   7.360  0.3357 -0.0979  0.2980
  499MOL0     C68753   4.948   3.139   7.583 -0.7422  0.2912 -0.4559
  499MOL0     C68754   5.031   3.242   7.523 -0.0509 -0.3603  0.1542
  499MOL0     O68755   5.155   3.202   7.484  0.1580 -0.0438  0.4578
  499MOL0     C68756   5.247   3.285   7.439  1.1105  0.2108  0.6385
  499MOL0     C68757   5.306   3.251   7.322  0.0594  0.5013  0.6813
  499MOL0     C68758   5.408   3.323   7.262 -0.0575 -0.0595  0.1900
  499MOL0     C68759   5.441   3.455   7.317  1.2716  0.4143  0.4602
  499MOL0     O68760   5.535   3.542   7.270  0.2652  0.0366  0.9534
  499MOL0     C68761   5.608   3.510   7.143 -0.5731  1.5879  0.0915
  499MOL0     C68762   5.713   3.618   7.125  0.5234 -0.2261 -0.2890
  499MOL0     C68763   5.640   3.757   7.111 -0.0971  0.4298  1.0266
  499MOL0     C68764   5.734   3.862   7.049  0.4820 -0.2211 -0.2936
  499MOL0     C68765   5.835   3.914   7.154 -0.9900 -0.8936  0.2367
  499MOL0     C68766   5.897   4.052   7.115  1.5213  0.4654 -0.3346
  499MOL0     C68767   6.043   4.078   7.140 -0.4352 -0.0189 -1.1011
  499MOL0     C68768   6.082   4.222   7.145 -0.1074  1.1916 -0.1077
  499MOL0    Cl68769   5.979   4.307   7.267 -0.3953 -0.2849  0.1791
  499MOL0     C68770   5.374   3.490   7.436  0.0617 -0.5076  0.3293
  499MOL0     C68771   5.284   3.405   7.502  0.0577  0.2998 -0.4208
  499MOL0     O68772   4.985   3.356   7.532  0.5230  0.2442 -0.7698
  499MOL0     C68773   4.964   3.120   7.719 -0.0325  0.3882  0.3479
  499MOL0     C68774   4.885   3.023   7.778  0.1617 -1.0347 -0.0386
  499MOL0     N68775   4.752   2.476   8.199 -0.8111 -0.0218 -0.6381
  499MOL0     N68776   4.803   2.516   8.310 -0.0699  0.6580  0.3718
  499MOL0     C68777   5.248   1.866   9.080 -0.2224  0.1858  0.0794
  499MOL0     C68778   5.176   1.905   9.190 -0.1145 -0.3737 -0.3007
  499MOL0     C68779   4.849   2.024   9.450  0.6080 -0.0014 -0.3277
  499MOL0     C68780   4.864   2.147   9.501 -0.3990 -0.5750  0.9176
  499MOL0     C68781   4.781   2.191   9.600  0.6738  0.7065 -0.4307
  499MOL0     C68782   4.681   2.111   9.656  0.4539 -0.2965  0.6048
  499MOL0     O68783   4.619   2.159   9.765  0.0494 -0.8021  0.1958
  499MOL0     C68784   4.500   2.094   9.801  0.9394 -0.1686  0.5919
  499MOL0     C68785   4.421   2.150   9.917  0.5411  0.0020  0.0102
  499MOL0     C68786   4.299   2.073   9.959  0.6799  0.2012  0.7819
  499MOL0     C68787   4.201   2.029   9.846 -0.4120  0.3043 -0.6327
  499MOL0     C68788   4.069   1.993   9.901 -0.1175 -0.0291  0.4654
  499MOL0     C68789   3.960   1.962   9.939 -0.1459  0.7116 -0.5974
  499MOL0     C68790   4.653   1.985   9.593 -0.1530  0.1941  0.6586
  499MOL0     C68791   4.738   1.944   9.492 -0.9331  0.0486 -0.0632
  499MOL0     C68792   4.703   1.813   9.432  0.3879  0.5307 -0.4368
  499MOL0     H68793   5.156   2.240   9.135  0.0718  0.3608 -0.0608
  499MOL0     H68794   5.305   2.168   8.960  2.2672 -0.5706  0.0678
  499MOL0     H68795   5.257   1.777   8.828  1.5280 -0.2584  0.3819
  499MOL0     H68796   5.371   1.831   8.710  2.1203  1.1186  2.3795
  499MOL0     H68797   5.127   1.880   8.653  1.5741 -0.5166 -0.1523
  499MOL0     H68798   5.104   1.970   8.798  0.4159  1.8976  0.8053
  499MOL0     H68799   5.269   2.142   8.731  3.6377 -3.2623  1.1144
  499MOL0     H68800   5.291   2.068   8.568  0.4121  0.4627  0.5730
  499MOL0     H68801   5.067   2.100   8.499 -0.2519  1.4044 -0.4641
  499MOL0     H68802   5.050   2.199   8.651 -1.4026 -1.7654 -0.2429
  499MOL0     H68803   5.236   2.253   8.425  1.7580  0.6604  1.6034
  499MOL0     H68804   5.259   2.330   8.574  0.6233 -0.0594 -0.3186
  499MOL0     H68805   4.987   2.358   8.438 -0.7481  0.6702  1.7973
  499MOL0     H68806   5.047   2.419   8.586 -2.1004 -0.0258 -0.2692
  499MOL0     H68807   5.167   2.495   8.323  0.5182 -0.1626  0.4712
  499MOL0     H68808   5.206   2.583   8.468 -0.7933  2.5692 -0.8203
  499MOL0     H68809   4.969   2.647   8.483  1.5300 -0.3981  0.8510
  499MOL0     H68810   5.063   2.709   8.342  0.8639 -0.5498 -0.9432
  499MOL0     H68811   5.015   2.640   8.089  0.0115 -1.9327 -1.7499
  499MOL0     H68812   4.751   2.415   7.929 -1.0451 -0.0839 -0.2736
  499MOL0     H68813   4.889   2.514   7.885 -0.5382  1.0379 -0.0416
  499MOL0     H68814   4.671   2.625   7.806  1.9250 -1.7521  0.5595
  499MOL0     H68815   4.607   2.594   7.968  0.7277 -2.2046  1.0865
  499MOL0     H68816   4.763   2.768   8.061  0.7922  1.5118  0.6393
  499MOL0     H68817   4.849   2.771   7.909  0.4515 -4.3387 -0.1930
  499MOL0     H68818   4.557   2.854   7.932  0.3207 -0.7152 -0.8583
  499MOL0     H68819   4.686   2.971   7.960 -1.3203  0.5038 -0.0336
  499MOL0     H68820   4.687   2.944   7.514  0.7921 -0.1024 -0.3660
  499MOL0     H68821   4.846   3.213   7.335 -2.2090 -0.1667 -1.1770
  499MOL0     H68822   4.747   3.067   7.314  1.9387 -0.0955 -3.1695
  499MOL0     H68823   4.921   3.053   7.313  1.7728  1.9196  0.4100
  499MOL0     H68824   5.275   3.156   7.280  1.4222 -0.3909  1.5890
  499MOL0     H68825   5.449   3.277   7.173 -0.2587  0.4446 -0.1654
  499MOL0     H68826   5.670   3.421   7.152  0.8528  2.6596  1.2214
  499MOL0     H68827   5.547   3.510   7.052  0.6322  1.3369 -0.7381
  499MOL0     H68828   5.782   3.612   7.209  1.9201 -1.1085 -1.4465
  499MOL0     H68829   5.776   3.597   7.038  2.3415  0.3522  0.8239
  499MOL0     H68830   5.592   3.795   7.201  1.3945  2.5657  0.9856
  499MOL0     H68831   5.555   3.747   7.043  1.0025 -1.0246 -0.2184
  499MOL0     H68832   5.680   3.946   7.005  2.1805  1.9689  1.5118
  499MOL0     H68833   5.794   3.827   6.965  0.0748  1.3521 -1.2914
  499MOL0     H68834   5.786   3.924   7.251 -0.1618  0.2634  0.5585
  499MOL0     H68835   5.912   3.838   7.173  0.2105  0.4504  1.0284
  499MOL0     H68836   5.833   4.126   7.162 -2.1301 -0.9257 -2.6465
  499MOL0     H68837   5.875   4.069   7.009  4.4462 -1.4910 -1.3869
  499MOL0     H68838   6.109   4.023   7.072  1.2203  1.1474 -0.4907
  499MOL0     H68839   6.048   4.041   7.242 -2.2655  0.7738 -0.6719
  499MOL0     H68840   6.066   4.261   7.044  1.1618  0.6445 -0.5365
  499MOL0     H68841   6.190   4.229   7.163 -0.3513  2.4016  1.1522
  499MOL0     H68842   5.396   3.576   7.499 -2.0650 -1.2162  2.1834
  499MOL0     H68843   5.242   3.414   7.602  1.4356 -0.3217  0.2389
  499MOL0     H68844   5.054   3.164   7.762  1.1930 -1.8277  0.1999
  499MOL0     H68845   4.904   2.998   7.882  0.3388  1.0921  0.4795
  499MOL0     H68846   5.272   1.760   9.072  1.4606  0.5275  0.3159
  499MOL0     H68847   5.136   1.831   9.259  1.6726 -0.6610  0.4758
  499MOL0     H68848   4.951   2.208   9.478 -0.2807 -0.2835  2.0927
  499MOL0     H68849   4.797   2.287   9.648 -1.2066  0.8341  0.0263
  499MOL0     H68850   4.440   2.107   9.711  0.2704 -3.0406  0.5393
  499MOL0     H68851   4.523   1.990   9.824 -1.8658 -0.4612  2.5635
  499MOL0     H68852   4.399   2.257   9.910  0.6608  0.0880  0.9134
  499MOL0     H68853   4.479   2.145  10.009  1.0226 -0.6732 -0.3199
  499MOL0     H68854   4.330   1.998  10.032 -1.3108 -0.6875  0.8018
  499MOL0     H68855   4.233   2.140  10.017 -0.8696 -1.7772  1.4294
  499MOL0     H68856   4.233   1.944   9.785  1.0465  0.3924 -0.0200
  499MOL0     H68857   4.175   2.116   9.786 -0.9432 -1.8438 -3.7741
  499MOL0     H68858   3.873   1.922   9.986  0.4379 -0.7256 -0.7101
  499MOL0     H68859   4.578   1.913   9.624 -0.6674 -0.9727 -2.8111
  499MOL0     H68860   4.780   1.745   9.469  0.8888  0.2326 -1.9613
  499MOL0     H68861   4.604   1.790   9.472  1.5477  1.0263  3.0648
  499MOL0     H68862   4.699   1.810   9.322  0.7786 -0.7299 -0.4323
  500MOL0     O68863   5.402   4.336   1.469  0.3304  0.1274 -0.0704
  500MOL0     C68864   5.425   4.217   1.449  0.4641  0.3022  0.6213
  500MOL0     O68865   5.393   4.110   1.524 -0.1393 -0.2929  0.0099
  500MOL0     C68866   5.334   4.127   1.650 -0.4389 -0.4035 -0.3948
  500MOL0     C68867   5.373   4.232   1.742  0.4397 -0.6205 -0.8969
  500MOL0     C68868   5.306   4.241   1.869  0.1229  0.2886 -0.1788
  500MOL0     C68869   5.196   4.154   1.902  0.1752 -0.0107  0.2441
  500MOL0     O68870   5.119   4.152   2.021 -0.2563  0.3148 -0.5203
  500MOL0     C68871   5.185   4.229   2.123 -0.7267  0.2953 -1.0776
  500MOL0     C68872   5.125   4.192   2.263 -0.2902 -0.8626  0.3348
  500MOL0     C68873   5.224   4.232   2.389  0.1458 -0.1185 -0.3559
  500MOL0     C68874   5.240   4.381   2.411 -0.0743  1.4072 -0.4889
  500MOL0     C68875   5.324   4.389   2.539 -0.7621  0.2399  0.3914
  500MOL0     C68876   5.349   4.531   2.578 -0.6913  0.1965 -0.0767
  500MOL0     C68877   5.459   4.558   2.688 -0.1690 -0.3777  0.5077
  500MOL0     C68878   5.422   4.516   2.825  0.8991 -0.1832  0.2061
  500MOL0     N68879   5.521   4.564   2.925 -0.2903  0.1215  0.7302
  500MOL0     C68880   5.566   4.687   2.936 -0.1539 -0.1353 -0.2586
  500MOL0     C68881   5.660   4.682   3.023 -0.2941 -0.8948 -0.7482
  500MOL0     C68882   5.759   4.794   3.064 -0.4757 -0.6754  0.0358
  500MOL0     C68883   5.733   4.854   3.211  0.4631 -0.4710 -0.3997
  500MOL0     C68884   5.836   4.958   3.248  0.1026  0.1083 -0.6280
  500MOL0     C68885   5.966   4.883   3.291 -0.2045  0.2242  0.3294
  500MOL0     O68886   6.067   4.980   3.315 -0.5836 -0.0814  0.2517
  500MOL0     C68887   6.142   5.042   3.217 -0.6731 -0.7014 -0.6434
  500MOL0     C68888   6.278   5.083   3.247  0.6011 -0.3313  0.3896
  500MOL0     C68889   6.370   5.122   3.142  0.2553 -0.3986  1.0096
  500MOL0     C68890   6.511   5.145   3.188  0.7957  0.5722 -0.3570
  500MOL0     C68891   6.324   5.130   3.013 -0.6314 -0.1615 -0.0163
  500MOL0     C68892   6.413   5.195   2.905  0.6435 -0.7480  0.4470
  500MOL0     O68893   6.512   5.281   2.933 -1.0527 -1.3168  0.6577
  500MOL0     C68894   6.600   5.311   2.828  0.2077  0.5574 -0.1498
  500MOL0     C68895   6.589   5.429   2.758 -0.3993 -0.1242 -0.2687
  500MOL0     C68896   6.680   5.463   2.662 -0.4988  0.0996 -0.3905
  500MOL0     C68897   6.798   5.382   2.641  0.5460 -0.4785  0.0494
  500MOL0     O68898   6.869   5.421   2.532 -0.0896  0.3760  0.5265
  500MOL0     C68899   6.955   5.331   2.472 -0.8139 -0.7224  0.7764
  500MOL0     C68900   7.012   5.399   2.347 -0.9000 -0.3140 -0.2196
  500MOL0     C68901   7.051   5.318   2.222  0.9464  0.2162 -0.0751
  500MOL0     C68902   6.933   5.267   2.152  0.3535  0.2203 -0.6720
  500MOL0     C68903   6.968   5.186   2.022  0.0373 -0.7803  0.2431
  500MOL0     C68904   6.847   5.144   1.939 -0.1232 -0.5255  0.0614
  500MOL0     C68905   6.757   5.054   2.033 -0.2942 -0.1004  0.2347
  500MOL0     C68906   6.646   5.000   1.951  0.9941 -0.0237 -0.0855
  500MOL0    Cl68907   6.693   4.891   1.811  0.2914 -0.2344  0.2274
  500MOL0     C68908   6.812   5.269   2.720  0.7865 -0.0705 -0.2792
  500MOL0     C68909   6.716   5.235   2.816  0.1336  0.4406  0.1351
  500MOL0     O68910   6.371   5.161   2.790  0.4480 -0.5388 -0.7051
  500MOL0     C68911   6.189   5.090   2.990 -0.1845 -0.1312 -0.7410
  500MOL0     C68912   6.110   5.031   3.084  0.2406  0.6764  0.2118
  500MOL0     N68913   5.670   4.554   3.080  0.7447  0.1080 -0.4891
  500MOL0     N68914   5.574   4.488   3.022  0.0334  0.5603  0.0916
  500MOL0     C68915   5.172   4.046   1.810 -0.1697 -0.0139  0.1579
  500MOL0     C68916   5.235   4.033   1.679 -0.1859  0.1498 -0.9611
  500MOL0     C68917   5.502   4.183   1.325  0.1521 -0.2500 -0.6767
  500MOL0     C68918   5.579   4.069   1.338 -0.2572  0.0163  0.1660
  500MOL0     C68919   5.656   4.029   1.223  0.4444  0.6433 -0.8274
  500MOL0     C68920   5.650   4.099   1.104 -0.4693  0.4312 -0.0802
  500MOL0     O68921   5.719   4.064   0.989  0.6152 -0.0422  0.5330
  500MOL0     C68922   5.731   3.934   0.940 -0.1683  0.1204  0.1830
  500MOL0     C68923   5.809   3.935   0.807  0.2243 -0.6169 -0.0752
  500MOL0     C68924   5.718   3.996   0.703 -0.2655 -0.4228 -0.1798
  500MOL0     C68925   5.782   3.994   0.563  0.0860 -0.2104 -0.1433
  500MOL0     C68926   5.701   4.088   0.480  0.4624  1.1235 -0.7366
  500MOL0     C68927   5.631   4.177   0.444  1.1283 -0.2451  0.2370
  500MOL0     C68928   5.576   4.217   1.098  0.7216  0.3958 -0.1872
  500MOL0     C68929   5.506   4.263   1.205 -0.1126 -0.1335  0.1571
  500MOL0     C68930   5.439   4.397   1.197  0.0286  0.3372  0.0809
  500MOL0     H68931   5.455   4.296   1.712  0.4352  0.9230  2.0359
  500MOL0     H68932   5.315   4.315   1.948 -4.4035 -3.0686  4.1262
  500MOL0     H68933   5.157   4.334   2.108 -3.8296 -0.2627 -0.0990
  500MOL0     H68934   5.294   4.222   2.125 -0.5970  1.4929  1.6630
  500MOL0     H68935   5.019   4.218   2.268 -0.5160  0.1158 -4.6823
  500MOL0     H68936   5.121   4.082   2.257 -0.9202 -0.7752 -3.7329
  500MOL0     H68937   5.184   4.183   2.478  0.0595  0.2661 -0.1834
  500MOL0     H68938   5.323   4.192   2.364  0.3810  1.0715 -1.4156
  500MOL0     H68939   5.278   4.431   2.321  1.6212  0.1294 -0.5164
  500MOL0     H68940   5.142   4.419   2.441 -0.2971  0.4941 -0.0341
  500MOL0     H68941   5.420   4.337   2.539 -1.5101 -1.2952 -2.0371
  500MOL0     H68942   5.268   4.344   2.620 -2.8820 -0.3763 -1.3130
  500MOL0     H68943   5.379   4.585   2.487  0.7908  2.9110  1.8708
  500MOL0     H68944   5.258   4.584   2.608 -2.8404 -3.2404  0.0356
  500MOL0     H68945   5.487   4.664   2.688  0.6473 -0.5843  0.8915
  500MOL0     H68946   5.544   4.496   2.658 -2.2318 -2.0046 -2.4809
  500MOL0     H68947   5.326   4.558   2.856  1.3196 -0.2872  1.7115
  500MOL0     H68948   5.411   4.407   2.824  3.0415 -0.4426  0.2859
  500MOL0     H68949   5.531   4.770   2.875 -1.5691  0.3711  1.1690
  500MOL0     H68950   5.758   4.881   2.997 -0.1323 -1.1359 -0.5854
  500MOL0     H68951   5.862   4.757   3.066  0.2700  1.2555 -0.2485
  500MOL0     H68952   5.645   4.918   3.209 -0.4823 -1.4986  2.6308
  500MOL0     H68953   5.707   4.777   3.284 -1.7714 -0.3428 -1.0097
  500MOL0     H68954   5.855   5.025   3.162  0.9217 -0.2028 -0.6974
  500MOL0     H68955   5.806   5.015   3.337  4.7586  0.6508  0.8669
  500MOL0     H68956   5.947   4.838   3.389  1.6800  0.5270  0.8852
  500MOL0     H68957   6.008   4.811   3.220 -1.3493 -0.3704  0.2487
  500MOL0     H68958   6.315   5.090   3.348  0.8776  2.3066  0.1710
  500MOL0     H68959   6.585   5.102   3.120  0.9885 -0.1134  0.2782
  500MOL0     H68960   6.534   5.112   3.289 -0.5739 -3.7679 -1.2864
  500MOL0     H68961   6.529   5.253   3.184  0.9408  0.6443  1.4090
  500MOL0     H68962   6.507   5.497   2.778 -1.7186 -1.7695  0.1974
  500MOL0     H68963   6.683   5.551   2.599  6.4579 -0.4498 -1.5885
  500MOL0     H68964   7.036   5.299   2.539 -0.8462 -0.1228  1.1013
  500MOL0     H68965   6.908   5.235   2.448  0.9118 -0.8794 -2.5711
  500MOL0     H68966   6.944   5.479   2.318 -0.4199  1.1927  2.4100
  500MOL0     H68967   7.108   5.434   2.386 -0.4080 -1.8742  0.0554
  500MOL0     H68968   7.118   5.241   2.263  1.7316  1.5101  1.1588
  500MOL0     H68969   7.103   5.385   2.153  0.4531  1.9647  1.1906
  500MOL0     H68970   6.865   5.349   2.126 -0.7994 -1.0925 -1.9378
  500MOL0     H68971   6.881   5.196   2.218  1.2235 -1.3702 -1.6459
  500MOL0     H68972   7.034   5.252   1.964  1.0504 -0.5532  1.6009
  500MOL0     H68973   7.023   5.095   2.045 -1.5663 -2.3991 -1.8293
  500MOL0     H68974   6.891   5.091   1.855  4.9115  1.2829  1.2286
  500MOL0     H68975   6.794   5.234   1.905  0.2685  0.2152  1.3141
  500MOL0     H68976   6.714   5.120   2.109  1.0004  0.4623  0.5001
  500MOL0     H68977   6.813   4.966   2.066  3.1572  0.0773 -4.1944
  500MOL0     H68978   6.578   5.080   1.917  2.7005  0.8577 -1.5954
  500MOL0     H68979   6.589   4.935   2.017 -1.4190  0.6863 -1.3366
  500MOL0     H68980   6.903   5.210   2.712 -0.4959 -2.3455  0.8332
  500MOL0     H68981   6.739   5.161   2.892 -0.4515  0.9475  0.8262
  500MOL0     H68982   6.150   5.103   2.890  1.2541 -1.3246 -1.4991
  500MOL0     H68983   6.022   4.980   3.044 -0.8669  1.2235  1.8567
  500MOL0     H68984   5.113   3.960   1.840 -0.2028 -1.2661 -3.0403
  500MOL0     H68985   5.206   3.952   1.613 -1.7875 -0.8294  0.8353
  500MOL0     H68986   5.586   4.009   1.429 -0.2382  0.4477  0.4540
  500MOL0     H68987   5.702   3.931   1.214 -2.1038 -0.4651 -3.1956
  500MOL0     H68988   5.786   3.872   1.011  1.7240 -0.3299 -1.5869
  500MOL0     H68989   5.635   3.885   0.923 -0.0717 -0.1054  0.2817
  500MOL0     H68990   5.820   3.828   0.785 -1.5267 -0.5731 -1.2945
  500MOL0     H68991   5.909   3.980   0.811  0.0464 -0.3192  1.7937
  500MOL0     H68992   5.620   3.948   0.705  0.2744 -1.5169  0.5200
  500MOL0     H68993   5.688   4.097   0.731 -0.0839 -0.2882 -0.4685
  500MOL0     H68994   5.776   3.891   0.524 -4.0033  0.3435 -1.5188
  500MOL0     H68995   5.885   4.030   0.561  0.3924 -1.0532  0.1601
  500MOL0     H68996   5.553   4.249   0.431 -1.5198 -3.3453 -3.2084
  500MOL0     H68997   5.584   4.276   1.007  5.7914  2.2655  1.1372
  500MOL0     H68998   5.495   4.465   1.261  0.2187  0.1083  0.1592
  500MOL0     H68999   5.447   4.434   1.094 -2.0689 -0.7250 -0.5231
  500MOL0     H69000   5.332   4.402   1.218 -0.0131  0.5998 -0.1814
  501MOL0     O69001   4.459   8.004   0.728  1.0141  0.0926  0.1111
  501MOL0     C69002   4.540   7.952   0.810  0.4059 -0.0289  0.0497
  501MOL0     O69003   4.624   8.017   0.892  0.6830 -0.3166  0.6374
  501MOL0     C69004   4.642   8.152   0.880  0.3892 -0.3694 -0.1605
  501MOL0     C69005   4.553   8.258   0.920 -0.3041  0.6846 -0.0661
  501MOL0     C69006   4.603   8.387   0.911 -0.5166 -0.1743  0.0551
  501MOL0     C69007   4.723   8.422   0.848  0.5018  0.3484 -0.7774
  501MOL0     O69008   4.784   8.547   0.836  0.6287  0.4064 -0.3894
  501MOL0     C69009   4.702   8.661   0.856  0.3715 -1.3269 -0.4468
  501MOL0     C69010   4.786   8.780   0.823  0.5846 -0.4945  0.6118
  501MOL0     C69011   4.825   8.773   0.671  0.0912 -0.4739  0.3714
  501MOL0     C69012   4.979   8.801   0.656  0.2325  0.5489  0.5119
  501MOL0     C69013   5.016   8.942   0.704 -0.3812  0.5627  1.1152
  501MOL0     C69014   4.966   9.062   0.624  0.5064  0.9044 -0.5519
  501MOL0     C69015   5.049   9.188   0.661  0.4925  0.1872 -1.0678
  501MOL0     C69016   4.977   9.253   0.774  0.0433 -0.2866 -0.7432
  501MOL0     N69017   4.884   9.356   0.718  0.2894  0.2064  0.0665
  501MOL0     C69018   4.911   9.476   0.649  0.4515 -0.0677  0.6383
  501MOL0     C69019   4.794   9.517   0.596 -0.0093 -0.4098  0.5557
  501MOL0     C69020   4.763   9.643   0.512 -0.1376 -0.0844 -0.2414
  501MOL0     C69021   4.775   9.772   0.593 -0.0302  0.3374  0.8090
  501MOL0     C69022   4.858   9.885   0.527  0.2673 -0.5077 -0.5760
  501MOL0     C69023   4.846  10.001   0.628  0.2396  0.3411  0.2137
  501MOL0     O69024   4.955  10.099   0.612  0.6783 -0.0627  0.5321
  501MOL0     C69025   4.939  10.220   0.545 -0.4913  0.7798  0.5162
  501MOL0     C69026   4.825  10.261   0.467 -0.7354 -0.3724  0.3006
  501MOL0     C69027   4.817  10.388   0.404 -1.2798  0.0162 -0.0494
  501MOL0     C69028   4.691  10.404   0.328  0.0078  0.0688  0.3574
  501MOL0     C69029   4.927  10.484   0.411 -0.1304  0.5385  0.1726
  501MOL0     C69030   4.933  10.622   0.347  0.1621  1.1906  0.2863
  501MOL0     O69031   5.045  10.703   0.377  0.1253 -0.5300 -0.0244
  501MOL0     C69032   5.061  10.833   0.350  0.1737 -0.4546 -0.2541
  501MOL0     C69033   4.988  10.907   0.255  0.6726 -0.1836 -0.1177
  501MOL0     C69034   5.004  11.047   0.244  0.6871 -0.4275  0.2228
  501MOL0     C69035   5.107  11.107   0.325  0.3524  0.1782 -0.2429
  501MOL0     O69036   5.132  11.238   0.324  0.7830  0.1078 -0.5317
  501MOL0     C69037   5.225  11.267   0.224  0.4580  0.0142  0.6952
  501MOL0     C69038   5.251  11.420   0.217  0.0328 -0.5607  0.4872
  501MOL0     C69039   5.373  11.451   0.123 -0.4689  0.4046  0.1991
  501MOL0     C69040   5.416  11.595   0.162  0.4969  0.3584  0.7134
  501MOL0     C69041   5.514  11.653   0.047  0.2200 -0.2554  0.0421
  501MOL0     C69042   5.589  11.554  -0.030  0.3885  0.6951 -0.0977
  501MOL0     C69043   5.694  11.616  -0.124 -0.1957  0.2032  0.1741
  501MOL0     C69044   5.738  11.490  -0.210 -0.0010 -0.4682  0.1250
  501MOL0    Cl69045   5.606  11.438  -0.334 -0.0669  0.3164 -0.2721
  501MOL0     C69046   5.182  11.034   0.420  0.0304  0.5269 -0.4916
  501MOL0     C69047   5.156  10.898   0.435 -0.5055  0.4043  0.2121
  501MOL0     O69048   4.846  10.644   0.266  0.0461  0.4355 -0.6545
  501MOL0     C69049   5.036  10.436   0.478 -0.5882 -0.0259 -0.0497
  501MOL0     C69050   5.045  10.309   0.536  0.5615  0.3637 -0.0766
  501MOL0     N69051   4.695   9.428   0.634 -0.2667 -0.2542  0.1400
  501MOL0     N69052   4.748   9.331   0.701 -0.5334  0.2281  0.5009
  501MOL0     C69053   4.805   8.316   0.803  0.8480  0.1517 -0.0704
  501MOL0     C69054   4.764   8.185   0.819  0.9505  1.0855 -0.2357
  501MOL0     C69055   4.528   7.805   0.823 -0.4708 -0.4224  0.3135
  501MOL0     C69056   4.580   7.740   0.939  0.2869  0.4305 -0.0716
  501MOL0     C69057   4.579   7.605   0.954 -0.1716  0.6791  1.0217
  501MOL0     C69058   4.521   7.519   0.853 -0.6275 -0.9516 -0.1823
  501MOL0     O69059   4.528   7.383   0.854  0.0971 -0.2323 -0.7765
  501MOL0     C69060   4.635   7.319   0.933  0.1181 -0.5291  0.5784
  501MOL0     C69061   4.627   7.163   0.918  0.4498  1.3946  0.7307
  501MOL0     C69062   4.757   7.098   0.972  0.7062  0.2203  0.6106
  501MOL0     C69063   4.778   7.115   1.125 -1.3512  0.0734  1.0370
  501MOL0     C69064   4.862   7.009   1.182  0.4635  0.2206  0.8407
  501MOL0     C69065   4.928   6.915   1.212  0.1105 -0.4412  0.0067
  501MOL0     C69066   4.484   7.581   0.736 -0.5604  1.6756  0.2263
  501MOL0     C69067   4.483   7.720   0.711  0.4802 -0.1936 -0.1659
  501MOL0     C69068   4.434   7.767   0.574 -0.4012 -0.4321 -0.5861
  501MOL0     H69069   4.452   8.237   0.954 -0.9130 -2.5848 -3.3252
  501MOL0     H69070   4.528   8.458   0.945 -1.7436 -0.7933 -1.2798
  501MOL0     H69071   4.670   8.677   0.959 -0.6785  3.6579 -1.3106
  501MOL0     H69072   4.607   8.658   0.803 -1.0367  1.2717  1.7144
  501MOL0     H69073   4.715   8.861   0.836 -0.0315 -1.0961  1.0450
  501MOL0     H69074   4.878   8.786   0.881  0.9132 -2.6092  0.4192
  501MOL0     H69075   4.809   8.671   0.636 -1.7552 -1.2925  3.2358
  501MOL0     H69076   4.773   8.850   0.612  0.4911 -0.0637  0.5484
  501MOL0     H69077   5.035   8.725   0.713 -0.0064  0.2083  0.2962
  501MOL0     H69078   5.004   8.793   0.550 -1.1317  2.3765  0.0095
  501MOL0     H69079   5.125   8.934   0.715 -0.5237 -3.1803  1.1920
  501MOL0     H69080   4.979   8.955   0.805 -0.7618  3.0587  0.7118
  501MOL0     H69081   4.991   9.041   0.519 -0.5363 -2.5249 -0.2284
  501MOL0     H69082   4.858   9.080   0.626  0.5559  1.3096 -1.1647
  501MOL0     H69083   5.068   9.258   0.579 -0.4557  0.8201 -0.7598
  501MOL0     H69084   5.148   9.155   0.696 -0.0687 -1.7583 -1.2204
  501MOL0     H69085   4.930   9.180   0.841  1.1455  0.0358  0.4251
  501MOL0     H69086   5.042   9.313   0.838 -1.1443 -1.1690  1.3810
  501MOL0     H69087   5.005   9.519   0.617  0.7501 -2.0225 -1.3493
  501MOL0     H69088   4.671   9.628   0.455 -1.0135 -1.6118  1.4565
  501MOL0     H69089   4.835   9.628   0.431  0.6905 -1.5823  0.7267
  501MOL0     H69090   4.670   9.799   0.606 -0.3940 -1.2061  1.3138
  501MOL0     H69091   4.806   9.742   0.693 -1.1561 -0.8495  0.8305
  501MOL0     H69092   4.964   9.869   0.510  0.6881  0.6087  0.7866
  501MOL0     H69093   4.804   9.898   0.432 -0.3645  0.1731 -0.1347
  501MOL0     H69094   4.747  10.044   0.607  1.3725  2.4460 -1.1496
  501MOL0     H69095   4.829   9.956   0.727 -2.0342 -0.2979 -0.3970
  501MOL0     H69096   4.751  10.183   0.458  1.7747 -2.8660 -0.3452
  501MOL0     H69097   4.709  10.434   0.224 -2.9770  0.6930 -0.0517
  501MOL0     H69098   4.623  10.482   0.362 -0.7887 -0.6337  0.3878
  501MOL0     H69099   4.634  10.312   0.313 -0.1357  0.1378  0.4744
  501MOL0     H69100   4.910  10.871   0.190  0.9757  0.6580 -0.9687
  501MOL0     H69101   4.960  11.101   0.161 -1.7979  0.7516  2.1760
  501MOL0     H69102   5.312  11.204   0.241  1.1252  0.0956 -2.0429
  501MOL0     H69103   5.196  11.252   0.119  1.9678 -0.8213  0.3653
  501MOL0     H69104   5.159  11.466   0.181 -0.5050 -1.8073  0.2140
  501MOL0     H69105   5.267  11.453   0.320 -1.2173 -0.3462  0.6249
  501MOL0     H69106   5.338  11.443   0.020 -0.2452  0.0697  0.1459
  501MOL0     H69107   5.450  11.378   0.151 -0.1403  1.0189  0.9514
  501MOL0     H69108   5.444  11.583   0.267 -0.7025 -0.3811  0.9659
  501MOL0     H69109   5.332  11.664   0.172 -2.3739 -2.6999 -0.4318
  501MOL0     H69110   5.455  11.717  -0.019 -1.4650  1.9609  3.4022
  501MOL0     H69111   5.578  11.723   0.102  1.8094 -2.1700  0.7736
  501MOL0     H69112   5.514  11.501  -0.090  0.1459  1.3545 -0.3767
  501MOL0     H69113   5.639  11.484   0.038  0.0078  0.3042 -0.2184
  501MOL0     H69114   5.780  11.664  -0.076 -0.2599 -0.3344  0.8455
  501MOL0     H69115   5.642  11.689  -0.187 -0.2560 -0.2707 -0.3342
  501MOL0     H69116   5.753  11.406  -0.142  2.2829 -2.2163 -2.3422
  501MOL0     H69117   5.826  11.518  -0.268  0.2583  1.1692  1.2181
  501MOL0     H69118   5.254  11.085   0.484  1.4905 -0.4205 -1.3228
  501MOL0     H69119   5.212  10.851   0.515  0.6979  0.4782 -0.5613
  501MOL0     H69120   5.126  10.497   0.469 -0.9564  0.4650 -0.4546
  501MOL0     H69121   5.138  10.274   0.581 -0.3461 -0.3288  1.3452
  501MOL0     H69122   4.893   8.351   0.750 -0.0668 -0.2686 -1.9831
  501MOL0     H69123   4.818   8.098   0.781 -0.8455 -0.1176 -0.1713
  501MOL0     H69124   4.612   7.794   1.027  0.4108  3.7520 -1.9613
  501MOL0     H69125   4.619   7.570   1.048  2.7067  0.7621 -0.0702
  501MOL0     H69126   4.730   7.352   0.891 -0.3978  0.4065  0.1053
  501MOL0     H69127   4.623   7.339   1.040 -0.8317 -2.3540  0.8572
  501MOL0     H69128   4.621   7.133   0.813  2.0149  1.6137  0.5521
  501MOL0     H69129   4.534   7.121   0.957  0.6261 -0.0156 -0.3041
  501MOL0     H69130   4.757   6.994   0.936  1.4896  0.3910  0.1027
  501MOL0     H69131   4.839   7.148   0.920  0.5522 -1.3600 -1.2852
  501MOL0     H69132   4.684   7.104   1.180 -1.1802  0.7119  1.4647
  501MOL0     H69133   4.808   7.218   1.143  1.9981 -0.6874  0.4568
  501MOL0     H69134   4.989   6.829   1.232  1.8197  0.7958  0.4133
  501MOL0     H69135   4.457   7.522   0.649 -0.2257 -0.5298  1.5403
  501MOL0     H69136   4.515   7.813   0.517 -0.1507 -1.7128 -1.3039
  501MOL0     H69137   4.407   7.676   0.521 -1.3455 -1.8373  2.1285
  501MOL0     H69138   4.349   7.837   0.568  0.0584  0.9196  4.4388
  502MOL0     O69139   4.073   9.586   3.289  1.3156  0.1726  0.0001
  502MOL0     C69140   4.106   9.495   3.218 -0.8915 -1.2175 -0.1074
  502MOL0     O69141   4.159   9.512   3.094 -0.1961 -0.2881 -0.0186
  502MOL0     C69142   4.189   9.631   3.047  0.1850  0.1164 -0.8587
  502MOL0     C69143   4.285   9.708   3.117 -1.0945 -0.2285  0.5354
  502MOL0     C69144   4.314   9.835   3.073  0.3117  0.1714 -0.1559
  502MOL0     C69145   4.246   9.889   2.967  1.1776 -0.1672  0.1888
  502MOL0     O69146   4.278  10.023   2.943 -0.1018  0.4063 -0.3342
  502MOL0     C69147   4.190  10.085   2.848 -0.5260 -0.5273  0.2027
  502MOL0     C69148   4.213  10.245   2.859  1.1403  0.0408  0.0797
  502MOL0     C69149   4.364  10.285   2.870 -0.3588 -0.5436  0.3057
  502MOL0     C69150   4.374  10.417   2.952 -0.3686  0.2147  0.0745
  502MOL0     C69151   4.510  10.475   2.941 -0.1809  0.3352  0.3233
  502MOL0     C69152   4.532  10.567   2.818 -1.3643 -0.8898  0.1741
  502MOL0     C69153   4.665  10.642   2.812 -0.3762  0.9024 -0.1602
  502MOL0     C69154   4.697  10.724   2.683 -0.2170  0.5181 -0.7446
  502MOL0     N69155   4.757  10.654   2.566  0.5842 -0.1846  0.0176
  502MOL0     C69156   4.695  10.652   2.440 -0.3083  0.6680  0.4683
  502MOL0     C69157   4.794  10.594   2.360 -0.8539  0.3124 -0.7599
  502MOL0     C69158   4.774  10.545   2.217 -0.4889  0.3138  0.3352
  502MOL0     C69159   4.777  10.395   2.197 -0.3170  0.3646 -0.2286
  502MOL0     C69160   4.710  10.319   2.311 -0.8813  0.1301  0.5283
  502MOL0     C69161   4.723  10.166   2.288 -0.2926  0.0124 -0.6730
  502MOL0     O69162   4.649  10.133   2.172  0.8013  0.0728  0.5042
  502MOL0     C69163   4.623  10.005   2.135 -0.2562  0.4825 -0.1650
  502MOL0     C69164   4.550   9.983   2.024 -0.2844  0.2238  0.0023
  502MOL0     C69165   4.501   9.860   1.991 -0.1840  0.3914 -0.1847
  502MOL0     C69166   4.415   9.856   1.872  0.2041 -0.4607  0.2198
  502MOL0     C69167   4.527   9.747   2.071  0.6070  0.4846  0.2211
  502MOL0     C69168   4.502   9.606   2.041  0.4049 -0.0790  0.5370
  502MOL0     O69169   4.501   9.524   2.153 -0.5484 -0.0005  0.9021
  502MOL0     C69170   4.393   9.429   2.162 -0.4073  0.1630  0.4573
  502MOL0     C69171   4.264   9.423   2.096  0.5610  0.5728 -0.4954
  502MOL0     C69172   4.169   9.321   2.117  0.6364  0.1501  0.5067
  502MOL0     C69173   4.192   9.227   2.213 -0.3906  0.4848 -0.0518
  502MOL0     O69174   4.100   9.127   2.233 -0.4908 -0.2050  0.3309
  502MOL0     C69175   4.123   9.029   2.334  0.6366 -0.2270 -0.5071
  502MOL0     C69176   4.215   8.920   2.287  1.1079  0.0781 -0.2744
  502MOL0     C69177   4.250   8.835   2.410  0.4902  1.6407  0.0739
  502MOL0     C69178   4.326   8.714   2.360 -0.4985  0.4792  0.2761
  502MOL0     C69179   4.363   8.623   2.473  0.6243 -0.4328 -0.5610
  502MOL0     C69180   4.424   8.488   2.418  0.0672  0.2665  0.1239
  502MOL0     C69181   4.456   8.395   2.535  0.6070  0.5253  0.5985
  502MOL0     C69182   4.543   8.285   2.500 -0.5834 -0.7356  0.3792
  502MOL0    Cl69183   4.514   8.202   2.344 -0.2522  0.6168  0.2187
  502MOL0     C69184   4.306   9.239   2.292 -0.0717 -1.1453 -0.7104
  502MOL0     C69185   4.406   9.344   2.268  0.0436 -0.0919 -0.5236
  502MOL0     O69186   4.487   9.564   1.926  0.2614 -0.2038 -0.2833
  502MOL0     C69187   4.599   9.771   2.195 -0.2482  0.7171 -0.0238
  502MOL0     C69188   4.648   9.893   2.216  0.5472  0.2264  0.7541
  502MOL0     N69189   4.908  10.557   2.440 -0.0046 -0.1599  0.0203
  502MOL0     N69190   4.877  10.586   2.564 -0.3100  0.2094  0.1618
  502MOL0     C69191   4.139   9.822   2.901 -1.0394 -0.3080  0.2619
  502MOL0     C69192   4.119   9.689   2.943 -1.2584 -0.3265  0.4025
  502MOL0     C69193   4.067   9.361   3.266  0.2137 -0.0409  0.5378
  502MOL0     C69194   3.939   9.352   3.319 -0.1523  0.0948  0.6527
  502MOL0     C69195   3.884   9.241   3.371  0.2637 -0.3173 -0.6279
  502MOL0     C69196   3.960   9.127   3.359  0.6519  0.2415 -0.1887
  502MOL0     O69197   3.893   9.014   3.389 -0.1179 -0.4536 -0.2540
  502MOL0     C69198   3.912   8.898   3.302  0.6311  0.5602  0.4592
  502MOL0     C69199   3.864   8.929   3.165 -0.8143  1.1052 -0.9033
  502MOL0     C69200   3.711   8.893   3.132  0.4618 -0.2116  0.5229
  502MOL0     C69201   3.672   8.902   2.986 -0.1064 -0.6386  0.2209
  502MOL0     C69202   3.528   8.919   2.968  0.0955 -0.2032 -0.2426
  502MOL0     C69203   3.413   8.938   2.963  0.2768  0.1969 -0.2228
  502MOL0     C69204   4.086   9.127   3.295 -0.1089 -0.0575 -0.4483
  502MOL0     C69205   4.143   9.253   3.258 -0.7790 -0.1017 -0.7234
  502MOL0     C69206   4.279   9.256   3.199 -0.7607  0.0573  0.1087
  502MOL0     H69207   4.341   9.671   3.203 -2.1319  2.7912  2.6730
  502MOL0     H69208   4.392   9.893   3.120  2.7813 -1.2715 -2.1807
  502MOL0     H69209   4.086  10.072   2.880  0.1286 -1.6463  2.0248
  502MOL0     H69210   4.222  10.055   2.748  3.9196 -0.5568  1.4316
  502MOL0     H69211   4.159  10.305   2.785  1.9470  2.1650  1.1233
  502MOL0     H69212   4.164  10.276   2.952  2.1149  4.1437 -0.5760
  502MOL0     H69213   4.426  10.209   2.919 -1.7201 -1.9530 -0.1040
  502MOL0     H69214   4.403  10.288   2.768 -3.6421 -2.1656 -1.1429
  502MOL0     H69215   4.312  10.502   2.922  1.4383  2.5701  2.4436
  502MOL0     H69216   4.353  10.386   3.055  2.3856  3.1584  1.7118
  502MOL0     H69217   4.581  10.393   2.943  0.7479  1.1292  0.7392
  502MOL0     H69218   4.526  10.532   3.033  0.7401  1.2790 -0.3959
  502MOL0     H69219   4.528  10.516   2.722  0.6709  1.9277 -1.5556
  502MOL0     H69220   4.457  10.646   2.826 -1.1918 -0.3851 -2.5147
  502MOL0     H69221   4.739  10.562   2.823 -0.1736  1.4837  4.8062
  502MOL0     H69222   4.665  10.702   2.903 -3.5015 -1.6693  1.7451
  502MOL0     H69223   4.603  10.773   2.656 -0.5918  0.6581  0.7072
  502MOL0     H69224   4.765  10.798   2.726 -2.3705  1.4154  1.4105
  502MOL0     H69225   4.598  10.677   2.399  0.5018  0.8501 -1.4657
  502MOL0     H69226   4.844  10.596   2.151  2.0991  0.8419  3.2447
  502MOL0     H69227   4.672  10.574   2.192 -0.7357 -1.5284 -1.0353
  502MOL0     H69228   4.723  10.367   2.106 -1.7987  0.0475  0.7059
  502MOL0     H69229   4.881  10.362   2.194 -0.8350 -1.5156 -4.0155
  502MOL0     H69230   4.744  10.337   2.413  0.4055 -0.5156  0.2395
  502MOL0     H69231   4.608  10.358   2.312  0.4580  4.1688  0.2301
  502MOL0     H69232   4.829  10.141   2.281 -0.1990 -0.6113  2.1547
  502MOL0     H69233   4.693  10.125   2.384  2.1163  6.1193  3.2782
  502MOL0     H69234   4.549  10.074   1.964  0.0585  1.2284  1.4473
  502MOL0     H69235   4.465   9.788   1.804  0.5743  0.7573 -0.7669
  502MOL0     H69236   4.415   9.952   1.819  0.7343 -1.1551 -1.0757
  502MOL0     H69237   4.315   9.832   1.911 -1.0636  1.6100 -1.4950
  502MOL0     H69238   4.251   9.505   2.026  2.5071  3.5555  2.3630
  502MOL0     H69239   4.078   9.304   2.059  0.8304  0.4495  0.1098
  502MOL0     H69240   4.156   9.075   2.427 -1.9211 -2.4535  1.6481
  502MOL0     H69241   4.021   8.996   2.355 -0.5426  2.9764 -0.5199
  502MOL0     H69242   4.155   8.860   2.219  2.2839 -2.0168  0.4580
  502MOL0     H69243   4.305   8.961   2.239  0.3068  1.0191 -1.0106
  502MOL0     H69244   4.156   8.803   2.455  0.0911  1.2069 -1.0479
  502MOL0     H69245   4.313   8.890   2.481  1.2047  2.0745 -0.8739
  502MOL0     H69246   4.419   8.752   2.317  0.3852 -0.4324  1.3239
  502MOL0     H69247   4.270   8.657   2.285 -0.3008  0.7318 -0.0705
  502MOL0     H69248   4.430   8.673   2.543  1.4532  0.1117 -1.7131
  502MOL0     H69249   4.276   8.595   2.534  3.5844 -4.7236  2.3259
  502MOL0     H69250   4.517   8.508   2.363 -0.4197  1.0775 -0.4292
  502MOL0     H69251   4.358   8.436   2.348 -0.1133 -0.2897  0.6995
  502MOL0     H69252   4.359   8.354   2.566  0.2686  1.3448  0.6622
  502MOL0     H69253   4.493   8.449   2.623 -0.1853  0.3836  1.0283
  502MOL0     H69254   4.544   8.214   2.583 -1.2679 -1.7952 -0.4984
  502MOL0     H69255   4.637   8.341   2.489 -0.9970 -0.4124 -1.9583
  502MOL0     H69256   4.329   9.162   2.365  1.7502  0.0032 -0.0064
  502MOL0     H69257   4.499   9.350   2.324 -0.2470 -1.0612  0.0914
  502MOL0     H69258   4.621   9.693   2.266  2.8975  0.7202 -0.8354
  502MOL0     H69259   4.701   9.913   2.308 -0.6139  1.7399  1.1235
  502MOL0     H69260   4.070   9.870   2.833 -1.5587  1.5769  2.0358
  502MOL0     H69261   4.054   9.631   2.880 -0.2137  0.7696 -1.7961
  502MOL0     H69262   3.868   9.435   3.323 -3.1969 -2.2241 -1.0463
  502MOL0     H69263   3.786   9.231   3.415  0.3931 -1.6724 -0.6093
  502MOL0     H69264   4.016   8.868   3.294  0.8893  1.3838  0.6044
  502MOL0     H69265   3.841   8.823   3.340 -0.3661  0.6978 -1.0410
  502MOL0     H69266   3.928   8.869   3.099 -0.6842  0.9949 -0.6800
  502MOL0     H69267   3.870   9.035   3.140 -1.8198  1.1002 -1.1933
  502MOL0     H69268   3.695   8.793   3.173 -2.4489  0.2362  0.7017
  502MOL0     H69269   3.656   8.968   3.189 -2.5269 -1.5745 -0.3871
  502MOL0     H69270   3.694   8.816   2.922 -2.5677 -1.1436 -0.0546
  502MOL0     H69271   3.724   8.987   2.941 -0.8415 -0.1607  0.2491
  502MOL0     H69272   3.306   8.934   2.963  0.3041 -2.8460 -0.1147
  502MOL0     H69273   4.144   9.036   3.284  1.5481  0.7742  0.9786
  502MOL0     H69274   4.270   9.284   3.094 -0.2039  1.6967  0.4799
  502MOL0     H69275   4.348   9.327   3.246 -0.7418  0.3702 -0.3961
  502MOL0     H69276   4.319   9.154   3.200 -3.3220 -1.0397  1.4593
  503MOL0     O69277   6.050   7.802   3.514  0.7873  0.0932  0.3069
  503MOL0     C69278   5.972   7.814   3.418  0.4885 -0.2565  0.1095
  503MOL0     O69279   5.976   7.740   3.309  0.5317 -0.6121  0.7255
  503MOL0     C69280   6.039   7.619   3.314  0.7745  0.6405  1.4344
  503MOL0     C69281   5.995   7.512   3.399 -0.1846 -0.4489  0.8486
  503MOL0     C69282   6.058   7.390   3.390  0.5177 -0.0814 -0.4186
  503MOL0     C69283   6.147   7.353   3.297  0.1697 -0.1659 -0.2757
  503MOL0     O69284   6.178   7.226   3.289  0.0692 -0.1233 -0.3809
  503MOL0     C69285   6.314   7.180   3.260  0.8132 -0.5091 -0.0510
  503MOL0     C69286   6.324   7.046   3.335  0.3480  0.4486 -0.0964
  503MOL0     C69287   6.196   6.960   3.308  0.0237  0.1185  0.0032
  503MOL0     C69288   6.225   6.809   3.318 -0.9426  0.5842 -0.8325
  503MOL0     C69289   6.100   6.721   3.301 -0.0147 -0.3601 -0.7977
  503MOL0     C69290   6.123   6.567   3.300  0.0974  0.6437 -0.6947
  503MOL0     C69291   6.003   6.486   3.266  0.7838  0.2288 -0.2990
  503MOL0     C69292   6.016   6.335   3.296 -1.2530  0.6882  0.0762
  503MOL0     N69293   5.917   6.256   3.217 -0.0442 -0.6445  0.4177
  503MOL0     C69294   5.782   6.283   3.223  0.8516 -1.1677 -0.2089
  503MOL0     C69295   5.721   6.187   3.148 -0.4956  0.0496 -0.0469
  503MOL0     C69296   5.578   6.169   3.138  0.1797  0.0164  0.8024
  503MOL0     C69297   5.509   6.153   3.273  0.4839  1.1181 -0.0850
  503MOL0     C69298   5.479   6.271   3.355  0.4429 -0.6545 -0.0866
  503MOL0     C69299   5.370   6.248   3.456  0.6371  0.6616 -0.1241
  503MOL0     O69300   5.236   6.248   3.400  0.0397  0.0143  0.3488
  503MOL0     C69301   5.188   6.378   3.382  0.5611 -0.5734 -0.6506
  503MOL0     C69302   5.118   6.440   3.490 -0.2107 -0.3535  0.0387
  503MOL0     C69303   5.077   6.578   3.483 -0.0997  0.4481  0.5144
  503MOL0     C69304   5.025   6.643   3.609  0.4437  0.2318  0.2899
  503MOL0     C69305   5.095   6.648   3.364  0.5920 -0.4368  0.8972
  503MOL0     C69306   5.063   6.782   3.330  0.4079 -0.4292  0.5009
  503MOL0     O69307   4.950   6.833   3.386 -0.1333 -0.3731 -0.3446
  503MOL0     C69308   4.914   6.962   3.353  0.4198  1.3974 -0.0545
  503MOL0     C69309   4.831   6.983   3.251  0.3963  1.2933 -0.5448
  503MOL0     C69310   4.797   7.111   3.222 -0.5649  0.4654 -0.1615
  503MOL0     C69311   4.830   7.225   3.296  0.0983  0.0711 -0.0264
  503MOL0     O69312   4.774   7.342   3.249  0.2209  0.1067 -0.0111
  503MOL0     C69313   4.788   7.464   3.312  0.2437 -0.3039  0.4623
  503MOL0     C69314   4.925   7.527   3.302 -1.0144  0.4025 -0.2041
  503MOL0     C69315   4.982   7.555   3.156 -0.1970  0.7070 -0.7615
  503MOL0     C69316   5.134   7.605   3.151  0.7629  0.6555 -0.6189
  503MOL0     C69317   5.230   7.508   3.215 -0.3755  0.0985  0.6551
  503MOL0     C69318   5.197   7.361   3.165 -0.4723 -0.9904 -0.0079
  503MOL0     C69319   5.324   7.279   3.186 -0.1214  0.5350 -0.5473
  503MOL0     C69320   5.334   7.157   3.094 -0.1444  0.3691  0.4202
  503MOL0    Cl69321   5.331   7.226   2.925 -0.8642  0.2753  0.0819
  503MOL0     C69322   4.923   7.206   3.403  1.6087 -0.5296 -0.0708
  503MOL0     C69323   4.958   7.071   3.429  0.9614  0.5016 -0.6289
  503MOL0     O69324   5.145   6.850   3.271  0.4560 -0.6217  0.0002
  503MOL0     C69325   5.160   6.584   3.256 -0.6302  0.7466 -0.3990
  503MOL0     C69326   5.200   6.452   3.272  0.1725  1.0506  0.3702
  503MOL0     N69327   5.813   6.104   3.090  0.0283 -0.3565 -0.4806
  503MOL0     N69328   5.935   6.148   3.126  0.2425 -0.1684  0.0212
  503MOL0     C69329   6.188   7.455   3.209 -0.5168  0.4677  0.4994
  503MOL0     C69330   6.134   7.587   3.213 -0.1030  0.1428  0.0738
  503MOL0     C69331   5.877   7.924   3.426 -0.3016 -0.2811  0.6481
  503MOL0     C69332   5.839   7.982   3.300  0.1991  0.0195 -1.3827
  503MOL0     C69333   5.739   8.076   3.290  0.0249  0.1204 -0.0395
  503MOL0     C69334   5.670   8.113   3.396 -0.2598  0.3179 -0.1626
  503MOL0     O69335   5.573   8.210   3.376  0.2325 -0.5478 -0.9104
  503MOL0     C69336   5.445   8.172   3.422  0.2227 -0.1711 -0.0063
  503MOL0     C69337   5.332   8.252   3.356  0.3464 -0.5586 -1.1358
  503MOL0     C69338   5.327   8.396   3.422 -1.2510 -1.5954  0.0985
  503MOL0     C69339   5.214   8.405   3.525 -0.2744  0.4349 -0.5148
  503MOL0     C69340   5.218   8.526   3.603  0.0899  0.7211 -0.2618
  503MOL0     C69341   5.233   8.620   3.678 -0.6190 -0.8484 -0.3282
  503MOL0     C69342   5.705   8.062   3.524  0.1292 -0.6218 -0.2300
  503MOL0     C69343   5.805   7.962   3.545 -0.3289 -0.1698  0.4869
  503MOL0     C69344   5.820   7.906   3.686  0.7199  0.8804  0.1081
  503MOL0     H69345   5.905   7.517   3.459  0.8790  1.0525  2.3956
  503MOL0     H69346   6.017   7.316   3.458 -1.5485 -0.7259 -2.2759
  503MOL0     H69347   6.387   7.254   3.292 -0.2080  1.7309 -2.6017
  503MOL0     H69348   6.319   7.166   3.152  0.9843 -1.2124  0.0405
  503MOL0     H69349   6.416   7.001   3.296  0.4101  1.0120 -0.6180
  503MOL0     H69350   6.336   7.063   3.443 -2.9365  0.7948  0.3179
  503MOL0     H69351   6.114   6.988   3.374  0.7992  2.7679 -0.0729
  503MOL0     H69352   6.147   6.967   3.211 -5.0946  2.1250  2.3635
  503MOL0     H69353   6.307   6.780   3.252  0.0324 -1.6301  1.1760
  503MOL0     H69354   6.262   6.793   3.420  1.3460  1.8554 -1.4137
  503MOL0     H69355   6.057   6.751   3.206  0.6402 -0.2632 -1.0695
  503MOL0     H69356   6.029   6.746   3.381  0.1834  1.7989 -1.2539
  503MOL0     H69357   6.203   6.547   3.229  0.5778  1.7874 -0.5024
  503MOL0     H69358   6.162   6.537   3.398 -0.6906  0.0144 -0.5672
  503MOL0     H69359   5.989   6.504   3.159  0.2234 -1.1166 -0.4735
  503MOL0     H69360   5.915   6.528   3.317  0.1614 -0.9246 -0.3786
  503MOL0     H69361   6.118   6.306   3.269 -1.3546 -3.9039  3.4119
  503MOL0     H69362   5.991   6.306   3.399 -1.8300 -0.0459 -0.2660
  503MOL0     H69363   5.726   6.356   3.280  2.1303  0.6983 -1.2550
  503MOL0     H69364   5.558   6.086   3.069  1.7484  0.7959 -0.6506
  503MOL0     H69365   5.540   6.259   3.089  1.6599 -0.2337 -0.9199
  503MOL0     H69366   5.412   6.103   3.265  0.6912  0.9877 -2.2187
  503MOL0     H69367   5.566   6.080   3.331 -0.5376  0.9786  0.7878
  503MOL0     H69368   5.571   6.301   3.406  1.5239 -1.6817 -1.3662
  503MOL0     H69369   5.457   6.360   3.296  1.0313  0.3361  1.1276
  503MOL0     H69370   5.378   6.153   3.509  2.0028  1.2270  0.7224
  503MOL0     H69371   5.365   6.323   3.536 -2.3217  0.3605  0.1099
  503MOL0     H69372   5.102   6.385   3.582 -0.2054 -0.7660 -0.2066
  503MOL0     H69373   5.084   6.731   3.639  0.1968  0.1146  1.1608
  503MOL0     H69374   5.000   6.575   3.691 -2.5575  1.5791  0.6114
  503MOL0     H69375   4.924   6.682   3.592 -0.8470 -1.3050  3.4956
  503MOL0     H69376   4.796   6.903   3.188  2.0972  0.7977 -0.9073
  503MOL0     H69377   4.737   7.122   3.133  2.3648 -0.3082 -2.4205
  503MOL0     H69378   4.721   7.536   3.264 -0.1489 -1.3598 -0.6047
  503MOL0     H69379   4.759   7.454   3.417 -2.7089 -1.7883 -0.4006
  503MOL0     H69380   4.920   7.629   3.343  1.3862  1.8042 -3.0032
  503MOL0     H69381   4.997   7.480   3.370 -0.1429  1.3161 -0.4692
  503MOL0     H69382   4.921   7.637   3.118 -2.1585 -0.6924 -0.7904
  503MOL0     H69383   4.948   7.470   3.097 -0.9404  1.8534 -2.0452
  503MOL0     H69384   5.137   7.701   3.203  0.6349  1.3361 -1.8235
  503MOL0     H69385   5.146   7.634   3.046 -1.3668  0.2645 -1.0292
  503MOL0     H69386   5.328   7.527   3.172 -1.0639  0.6222 -0.7443
  503MOL0     H69387   5.244   7.509   3.323 -1.2489 -2.7685  0.8982
  503MOL0     H69388   5.178   7.364   3.057  3.1626 -0.5999 -0.7922
  503MOL0     H69389   5.109   7.317   3.212 -2.0362 -0.0205 -1.9114
  503MOL0     H69390   5.317   7.240   3.288 -0.6931 -1.9933 -1.4792
  503MOL0     H69391   5.418   7.333   3.178 -0.8037  1.7364 -0.7497
  503MOL0     H69392   5.247   7.091   3.107  1.8277 -2.2533  1.3561
  503MOL0     H69393   5.420   7.096   3.124 -0.6347  0.3811  1.9284
  503MOL0     H69394   4.971   7.291   3.450  2.0077 -0.2634 -0.9330
  503MOL0     H69395   5.029   7.044   3.506  1.3633 -2.5943 -1.9226
  503MOL0     H69396   5.196   6.632   3.166  1.6667  3.1922  1.6291
  503MOL0     H69397   5.249   6.414   3.183 -1.3212  3.4726 -1.6099
  503MOL0     H69398   6.258   7.429   3.130 -1.3225  2.1706 -0.8116
  503MOL0     H69399   6.163   7.654   3.133 -0.3025 -2.4241 -2.3217
  503MOL0     H69400   5.892   7.977   3.206  0.5329 -2.6750 -1.1218
  503MOL0     H69401   5.703   8.109   3.193  0.0284 -2.0966 -0.8584
  503MOL0     H69402   5.419   8.066   3.414 -0.6646 -0.8422  6.2273
  503MOL0     H69403   5.454   8.181   3.531  1.1239 -2.6863  0.2006
  503MOL0     H69404   5.245   8.193   3.386  0.8384 -1.2924 -1.1433
  503MOL0     H69405   5.336   8.256   3.246 -1.4627  1.4759 -1.2035
  503MOL0     H69406   5.426   8.404   3.467 -1.0498  0.5663 -0.6008
  503MOL0     H69407   5.306   8.465   3.339  1.2610 -3.2357 -2.0334
  503MOL0     H69408   5.215   8.318   3.592 -1.5744  0.9098  0.1390
  503MOL0     H69409   5.119   8.396   3.472  0.9754 -1.0983 -2.6800
  503MOL0     H69410   5.234   8.697   3.753 -4.0786 -3.1613  2.4294
  503MOL0     H69411   5.653   8.104   3.609  0.4834 -2.2027  0.7997
  503MOL0     H69412   5.737   7.938   3.749  2.3274  1.6384  1.9507
  503MOL0     H69413   5.829   7.797   3.679  0.5348  0.9630 -3.3868
  503MOL0     H69414   5.913   7.944   3.731  1.0687 -0.1340  0.2804
  504MOL0     O69415   3.305   7.849   2.125  0.7563  0.6643 -0.2762
  504MOL0     C69416   3.388   7.919   2.065 -0.0409  0.9646  0.4756
  504MOL0     O69417   3.458   8.017   2.118  0.8362  0.6492  0.2293
  504MOL0     C69418   3.451   8.046   2.257 -0.0386  0.2376  0.0958
  504MOL0     C69419   3.334   8.064   2.335 -0.7326  0.4020  0.6004
  504MOL0     C69420   3.332   8.111   2.467 -0.1720 -0.6700  0.2078
  504MOL0     C69421   3.453   8.137   2.532  0.1259 -0.4300  0.7558
  504MOL0     O69422   3.447   8.186   2.662  0.4102  0.0345 -0.8010
  504MOL0     C69423   3.566   8.251   2.716  0.5624  0.0480  0.7017
  504MOL0     C69424   3.535   8.308   2.849 -0.3748 -0.6158 -0.6315
  504MOL0     C69425   3.655   8.343   2.937 -0.6508  0.5021 -0.0492
  504MOL0     C69426   3.640   8.292   3.082 -0.3580 -0.6973  0.0350
  504MOL0     C69427   3.757   8.315   3.173 -0.5174  0.3213  0.3685
  504MOL0     C69428   3.800   8.464   3.165  0.1993  0.1052  0.2090
  504MOL0     C69429   3.895   8.515   3.276 -0.1701  0.8545  0.0769
  504MOL0     C69430   3.985   8.405   3.343  0.5736  0.4209  0.1739
  504MOL0     N69431   4.056   8.478   3.446 -0.6276  0.0272  1.3651
  504MOL0     C69432   4.158   8.568   3.417 -0.8931  0.8167 -0.3105
  504MOL0     C69433   4.213   8.596   3.539 -0.8216  0.5113  0.5551
  504MOL0     C69434   4.336   8.689   3.555 -0.3633  0.3871 -0.1122
  504MOL0     C69435   4.291   8.836   3.569  0.3831  0.5816 -0.5750
  504MOL0     C69436   4.407   8.932   3.560 -0.2481  0.7223 -0.1376
  504MOL0     C69437   4.364   9.076   3.571  0.0431  0.5492 -0.4046
  504MOL0     O69438   4.331   9.103   3.715 -0.1120  0.6311 -0.5922
  504MOL0     C69439   4.208   9.122   3.769  0.0774 -0.4863 -0.3519
  504MOL0     C69440   4.174   9.133   3.909 -0.1482 -0.0736  0.3566
  504MOL0     C69441   4.050   9.159   3.961  0.1671 -0.2475  0.9737
  504MOL0     C69442   4.041   9.155   4.113 -0.0796  0.1577  0.3936
  504MOL0     C69443   3.939   9.183   3.869 -1.1858 -0.6450 -0.9732
  504MOL0     C69444   3.807   9.220   3.914 -0.3593  0.4262 -0.0404
  504MOL0     O69445   3.710   9.214   3.811 -0.3059 -0.2111 -0.9085
  504MOL0     C69446   3.580   9.238   3.865 -0.4985 -0.8460 -0.1112
  504MOL0     C69447   3.516   9.357   3.870  0.4029 -0.5910 -0.5265
  504MOL0     C69448   3.383   9.369   3.901 -0.5387 -0.6152  0.1864
  504MOL0     C69449   3.312   9.246   3.929  0.0198  0.0807  0.6927
  504MOL0     O69450   3.187   9.236   3.978 -0.0625  0.1778  0.2039
  504MOL0     C69451   3.117   9.352   4.035 -0.4949  0.7371  0.4773
  504MOL0     C69452   3.036   9.425   3.929 -0.3731 -0.3230  0.2976
  504MOL0     C69453   3.042   9.570   3.929  0.3479 -0.0938 -0.6008
  504MOL0     C69454   3.032   9.624   3.788  0.7445  0.5167 -0.0429
  504MOL0     C69455   2.902   9.605   3.710 -0.6663 -0.2198  1.3107
  504MOL0     C69456   2.915   9.688   3.579  1.1836  0.1938 -0.6950
  504MOL0     C69457   2.806   9.641   3.480  1.2292  0.8142 -0.1726
  504MOL0     C69458   2.666   9.683   3.532 -1.0755 -0.5450 -0.0642
  504MOL0    Cl69459   2.555   9.615   3.409  0.4719 -0.0783 -0.0102
  504MOL0     C69460   3.376   9.122   3.933  0.4590  0.5182  0.2359
  504MOL0     C69461   3.512   9.122   3.899  0.7288 -0.3597 -0.1872
  504MOL0     O69462   3.796   9.252   4.035  0.0378 -0.5134  0.5004
  504MOL0     C69463   3.969   9.171   3.733 -0.1281  0.6869 -0.3688
  504MOL0     C69464   4.098   9.156   3.686 -0.6244 -0.4831 -0.3160
  504MOL0     N69465   4.137   8.530   3.634  0.3338 -1.1153 -0.8218
  504MOL0     N69466   4.044   8.460   3.581 -0.6544  0.7715 -0.0291
  504MOL0     C69467   3.575   8.116   2.458 -0.2368 -0.3014 -0.4504
  504MOL0     C69468   3.573   8.082   2.321  0.7753  0.3731 -0.7594
  504MOL0     C69469   3.445   7.855   1.952  1.0435 -0.0146 -0.9139
  504MOL0     C69470   3.475   7.719   1.962 -0.0507 -0.3408  0.2419
  504MOL0     C69471   3.504   7.653   1.850 -0.1733  1.0451 -0.2580
  504MOL0     C69472   3.530   7.718   1.727  0.2581 -0.2066 -0.3302
  504MOL0     O69473   3.567   7.660   1.606 -0.1959 -0.7053  0.3468
  504MOL0     C69474   3.563   7.515   1.594  0.3341  0.5122 -0.6911
  504MOL0     C69475   3.417   7.468   1.594  0.4403 -0.2265 -0.4521
  504MOL0     C69476   3.398   7.318   1.581 -0.6095  0.7929  0.6242
  504MOL0     C69477   3.447   7.262   1.443 -0.2345 -0.3748  0.5313
  504MOL0     C69478   3.410   7.118   1.429 -0.3454  1.2101 -0.3128
  504MOL0     C69479   3.383   7.004   1.395 -1.4016  0.2715  1.0336
  504MOL0     C69480   3.519   7.863   1.716  0.3599  0.0108 -0.4457
  504MOL0     C69481   3.467   7.930   1.833  0.1840  0.3270 -0.7520
  504MOL0     C69482   3.423   8.074   1.819 -0.2190  0.5542  0.5310
  504MOL0     H69483   3.241   8.037   2.285  0.4405 -2.7118 -0.0986
  504MOL0     H69484   3.243   8.132   2.525  0.2337  0.6847  0.3556
  504MOL0     H69485   3.611   8.325   2.649 -0.6569 -0.6355 -0.9412
  504MOL0     H69486   3.645   8.175   2.727 -0.4175 -1.0862  0.0924
  504MOL0     H69487   3.488   8.406   2.833  0.3651 -0.0657  0.3839
  504MOL0     H69488   3.448   8.262   2.897 -1.4952  0.8575 -1.1644
  504MOL0     H69489   3.731   8.279   2.890 -2.4364 -0.1252 -2.3096
  504MOL0     H69490   3.691   8.446   2.943 -0.8533  0.4910  2.2666
  504MOL0     H69491   3.550   8.336   3.126  0.0329 -1.2447  1.4404
  504MOL0     H69492   3.621   8.184   3.083 -2.4197 -0.4349 -2.1860
  504MOL0     H69493   3.842   8.254   3.140  0.2608  1.4536  0.2275
  504MOL0     H69494   3.747   8.282   3.277  1.9951 -1.5512  0.1311
  504MOL0     H69495   3.846   8.492   3.069  1.3434  0.5477  0.8620
  504MOL0     H69496   3.712   8.528   3.177  0.3264  0.2754  0.2445
  504MOL0     H69497   3.836   8.563   3.355  0.9725  2.1435  0.1769
  504MOL0     H69498   3.961   8.589   3.231  2.3687 -0.4047  1.4587
  504MOL0     H69499   3.936   8.318   3.387  2.0288 -0.1675  0.6961
  504MOL0     H69500   4.055   8.355   3.275  1.7239 -3.1380  3.6126
  504MOL0     H69501   4.203   8.591   3.321  5.2683 -2.9508  1.1457
  504MOL0     H69502   4.402   8.684   3.468 -1.7452 -0.4013 -1.1548
  504MOL0     H69503   4.383   8.646   3.645 -0.0034 -2.3163 -1.4889
  504MOL0     H69504   4.216   8.863   3.494 -0.5877  5.3948  1.7817
  504MOL0     H69505   4.230   8.845   3.658 -0.8276  1.6775 -1.4842
  504MOL0     H69506   4.478   8.913   3.640  0.8379  0.2116 -1.1872
  504MOL0     H69507   4.454   8.921   3.462  1.3264 -0.5454  0.6971
  504MOL0     H69508   4.442   9.148   3.544 -2.0370  3.1107  0.0535
  504MOL0     H69509   4.285   9.103   3.501  0.5760  0.1948 -1.1688
  504MOL0     H69510   4.256   9.109   3.977 -1.9457 -1.6501  2.1001
  504MOL0     H69511   3.950   9.110   4.153 -2.1318  4.5771  1.2925
  504MOL0     H69512   4.035   9.256   4.154 -2.5662 -0.0063  0.5597
  504MOL0     H69513   4.128   9.099   4.148 -0.0466 -0.7200 -1.0135
  504MOL0     H69514   3.570   9.449   3.851  1.3856 -1.1230 -0.3801
  504MOL0     H69515   3.346   9.470   3.915 -1.5149 -0.6957 -1.5884
  504MOL0     H69516   3.046   9.322   4.113 -1.5997 -0.5443 -0.9542
  504MOL0     H69517   3.191   9.419   4.080  0.8276  0.5857 -1.3429
  504MOL0     H69518   3.078   9.381   3.838  0.4895 -0.0744  0.5731
  504MOL0     H69519   2.930   9.397   3.931 -0.6195  0.5694  2.6219
  504MOL0     H69520   3.131   9.603   3.983 -0.0993  2.0920 -1.1119
  504MOL0     H69521   2.964   9.611   3.994  3.2150  2.5468  1.4856
  504MOL0     H69522   3.114   9.567   3.744 -0.0592 -2.2005  1.7380
  504MOL0     H69523   3.046   9.733   3.797  1.8601  0.4424 -0.6884
  504MOL0     H69524   2.904   9.498   3.687  0.1529 -0.2923  1.6756
  504MOL0     H69525   2.817   9.640   3.770 -0.3773 -0.7446  2.0489
  504MOL0     H69526   3.012   9.662   3.536  1.6173 -0.4975  0.6423
  504MOL0     H69527   2.901   9.794   3.601  0.5844 -0.5565  3.3182
  504MOL0     H69528   2.809   9.532   3.475 -2.3997  0.6142 -0.1747
  504MOL0     H69529   2.819   9.689   3.382 -0.3536  0.9706 -0.3233
  504MOL0     H69530   2.654   9.791   3.532  1.1745  0.0022 -5.1507
  504MOL0     H69531   2.643   9.635   3.628  0.7685  1.6455  1.5663
  504MOL0     H69532   3.327   9.028   3.957 -1.1113  1.1155 -0.5173
  504MOL0     H69533   3.577   9.035   3.902  1.9459  0.5540  2.3039
  504MOL0     H69534   3.899   9.200   3.655  0.3338  0.4468 -0.8792
  504MOL0     H69535   4.112   9.165   3.579 -2.0010  0.6948 -0.4327
  504MOL0     H69536   3.675   8.153   2.481  1.1246 -0.4753 -5.0478
  504MOL0     H69537   3.662   8.072   2.259  0.1186  2.6527 -2.1539
  504MOL0     H69538   3.478   7.657   2.052 -1.9113  1.1882  1.4521
  504MOL0     H69539   3.520   7.546   1.855 -1.8133  0.7946  0.4057
  504MOL0     H69540   3.617   7.493   1.501  1.8520 -1.4479  0.5782
  504MOL0     H69541   3.607   7.461   1.678 -0.7033 -3.2203 -2.3310
  504MOL0     H69542   3.377   7.509   1.501 -2.0875  1.9314  1.4203
  504MOL0     H69543   3.351   7.506   1.673 -2.6934 -1.3053 -2.3880
  504MOL0     H69544   3.454   7.258   1.654 -0.8536  0.9725  0.9589
  504MOL0     H69545   3.294   7.286   1.587 -1.2713  2.6350 -0.2159
  504MOL0     H69546   3.556   7.268   1.436 -0.1269 -0.9284  1.5890
  504MOL0     H69547   3.406   7.313   1.355  0.3758 -3.3396 -1.6266
  504MOL0     H69548   3.344   6.909   1.367 -0.3491 -0.0564  0.6679
  504MOL0     H69549   3.509   7.907   1.618  0.0645  0.1753 -0.3443
  504MOL0     H69550   3.487   8.131   1.886 -1.1095 -0.9455  2.7530
  504MOL0     H69551   3.437   8.111   1.717  2.1332 -2.7109 -0.4717
  504MOL0     H69552   3.320   8.102   1.844 -0.2193  0.2247  0.9091
  505MOL0     O69553  10.069   3.929   8.674  0.1321  0.1988 -0.5322
  505MOL0     C69554  10.144   4.025   8.678 -0.9615  0.1985  0.6190
  505MOL0     O69555  10.133   4.138   8.602 -0.5833  0.6523  0.0369
  505MOL0     C69556  10.019   4.147   8.530  0.2573  0.4593  0.3369
  505MOL0     C69557  10.023   4.087   8.404  0.7261 -0.2855 -0.2216
  505MOL0     C69558   9.919   4.100   8.313 -0.5577 -0.3365 -0.5722
  505MOL0     C69559   9.808   4.176   8.347  0.8269 -0.0321 -0.5557
  505MOL0     O69560   9.701   4.189   8.262  0.3808 -0.5325  0.1228
  505MOL0     C69561   9.574   4.178   8.327  0.1511  0.9095  0.3770
  505MOL0     C69562   9.464   4.205   8.220  0.2299 -0.2672 -0.5255
  505MOL0     C69563   9.461   4.108   8.104 -0.0352  0.1558  0.2685
  505MOL0     C69564   9.355   3.991   8.142 -0.6799 -0.2197 -0.1126
  505MOL0     C69565   9.313   3.884   8.033  0.0699  0.2151 -0.6830
  505MOL0     C69566   9.254   3.946   7.908  0.0848  0.9878  0.6585
  505MOL0     C69567   9.119   4.019   7.940 -0.1177 -0.3081  0.7104
  505MOL0     C69568   9.016   3.939   8.016  0.8659  0.7120  0.2833
  505MOL0     N69569   8.889   4.018   8.022 -0.7364 -0.4291  0.3885
  505MOL0     C69570   8.808   4.068   7.916 -0.8912 -1.1177 -0.0486
  505MOL0     C69571   8.691   4.108   7.978 -0.4243 -0.4787  0.5984
  505MOL0     C69572   8.562   4.129   7.906 -0.3315  0.9974  0.4513
  505MOL0     C69573   8.530   4.278   7.891 -0.8395 -0.6702 -0.7506
  505MOL0     C69574   8.511   4.355   8.024 -0.0041 -0.0659  0.7201
  505MOL0     C69575   8.431   4.482   8.001  0.2748 -0.6350  0.2665
  505MOL0     O69576   8.497   4.574   7.914 -0.4308  0.1378  0.6434
  505MOL0     C69577   8.608   4.645   7.954  0.1140  0.5640  0.2490
  505MOL0     C69578   8.658   4.659   8.079 -0.4178 -0.4585  0.0542
  505MOL0     C69579   8.781   4.722   8.109 -0.3787  0.4649  0.0345
  505MOL0     C69580   8.820   4.721   8.256 -0.7063 -0.2591  0.0645
  505MOL0     C69581   8.848   4.778   7.998 -0.4166  0.1029 -0.4342
  505MOL0     C69582   8.978   4.857   8.007  0.4422 -0.0197  0.0218
  505MOL0     O69583   9.033   4.896   7.892 -1.0182  0.0408  0.3505
  505MOL0     C69584   9.148   4.977   7.877 -0.4466 -0.8900 -0.7875
  505MOL0     C69585   9.161   5.031   7.752 -0.7958  0.8654  0.2281
  505MOL0     C69586   9.271   5.108   7.715  0.1981 -1.0041  0.0806
  505MOL0     C69587   9.372   5.152   7.805  0.0399  0.2033 -0.7761
  505MOL0     O69588   9.470   5.234   7.762  0.6493  0.7500 -0.2069
  505MOL0     C69589   9.536   5.305   7.864 -0.4256  0.1214 -0.6287
  505MOL0     C69590   9.582   5.428   7.782  0.7978 -0.2871 -0.0502
  505MOL0     C69591   9.703   5.508   7.842  0.1918 -0.3832 -0.8212
  505MOL0     C69592   9.659   5.617   7.937  0.3666  0.0498 -0.4416
  505MOL0     C69593   9.785   5.693   7.976  0.9141 -0.5850  0.0647
  505MOL0     C69594   9.761   5.792   8.084  0.5249  0.6106  0.0370
  505MOL0     C69595   9.641   5.890   8.056 -0.4469 -0.2315 -0.4631
  505MOL0     C69596   9.627   6.002   8.162  0.1417  0.6874  0.1826
  505MOL0    Cl69597   9.455   6.060   8.140 -0.1514 -0.2475  0.1218
  505MOL0     C69598   9.361   5.094   7.943 -0.5434 -0.0305  0.0173
  505MOL0     C69599   9.240   5.017   7.973 -0.6737 -0.1733 -0.3797
  505MOL0     O69600   9.027   4.874   8.113  0.2425 -0.4390 -0.5317
  505MOL0     C69601   8.794   4.773   7.866 -0.3545 -0.2190  1.3892
  505MOL0     C69602   8.678   4.700   7.840 -1.4376  0.1836 -0.0367
  505MOL0     N69603   8.715   4.111   8.113  0.1407  0.0278 -0.1302
  505MOL0     N69604   8.825   4.058   8.136 -0.4908 -0.6704  0.3968
  505MOL0     C69605   9.809   4.238   8.478  0.1122  0.2358  0.4442
  505MOL0     C69606   9.910   4.216   8.574 -0.9070  0.6339  0.6715
  505MOL0     C69607  10.262   4.014   8.771  0.2071  0.2470 -0.4727
  505MOL0     C69608  10.314   3.880   8.779  0.2055 -0.7233 -0.0908
  505MOL0     C69609  10.412   3.854   8.868 -0.4740 -0.4973  0.4289
  505MOL0     C69610  10.472   3.954   8.945 -0.3495 -0.4431  0.1920
  505MOL0     O69611  10.570   3.910   9.032 -0.1129 -0.4629  0.0353
  505MOL0     C69612  10.682   4.001   9.059  0.9528 -0.2255  0.5707
  505MOL0     C69613  10.798   3.922   9.119 -0.5580  0.4914  0.1324
  505MOL0     C69614  10.874   3.815   9.016  0.3033 -0.8250  0.4852
  505MOL0     C69615  10.925   3.875   8.888  0.2441 -0.6939  0.9580
  505MOL0     C69616  11.061   3.837   8.844  1.1084 -0.7963 -0.5538
  505MOL0     C69617  11.168   3.792   8.816  0.0584 -1.1063  0.6689
  505MOL0     C69618  10.428   4.087   8.935 -0.1898 -0.1106 -0.5425
  505MOL0     C69619  10.327   4.118   8.844  0.5518 -0.5284  0.1798
  505MOL0     C69620  10.282   4.265   8.826 -0.4704 -0.4290  0.0861
  505MOL0     H69621  10.114   4.036   8.374 -1.1402 -2.4255 -2.6761
  505MOL0     H69622   9.931   4.051   8.217  0.3107 -2.4838  0.5644
  505MOL0     H69623   9.558   4.246   8.411 -1.0868 -1.8365  2.5346
  505MOL0     H69624   9.555   4.077   8.366 -2.5383  1.5338  0.9263
  505MOL0     H69625   9.363   4.200   8.263 -0.9459 -3.1991 -3.1986
  505MOL0     H69626   9.481   4.305   8.179 -0.6273  0.2876  0.4080
  505MOL0     H69627   9.427   4.160   8.013 -1.7972  0.7357  1.2139
  505MOL0     H69628   9.564   4.077   8.086 -0.3088 -0.3152 -0.5224
  505MOL0     H69629   9.393   3.935   8.228 -1.2108  1.1628  1.0600
  505MOL0     H69630   9.259   4.030   8.176 -0.6296 -1.5976  1.7558
  505MOL0     H69631   9.258   3.801   8.078  1.6005  0.2352  1.4152
  505MOL0     H69632   9.405   3.829   8.011  0.5253  0.3762  0.6664
  505MOL0     H69633   9.319   4.016   7.854 -0.7450  1.4796  0.2825
  505MOL0     H69634   9.243   3.868   7.831  0.3901  0.8798  0.7227
  505MOL0     H69635   9.072   4.063   7.851 -0.4615 -2.0402 -0.0092
  505MOL0     H69636   9.140   4.101   8.008  1.6944  0.5109 -0.7310
  505MOL0     H69637   8.994   3.841   7.973 -0.6843  0.9088  0.5853
  505MOL0     H69638   9.043   3.908   8.118 -0.2946 -0.4893  0.2522
  505MOL0     H69639   8.832   4.068   7.810  1.5706 -0.7988  0.4601
  505MOL0     H69640   8.481   4.074   7.954 -0.9361  0.4785 -1.1074
  505MOL0     H69641   8.570   4.092   7.803 -4.2968 -2.0212  1.0270
  505MOL0     H69642   8.607   4.331   7.834 -1.0834  0.1898 -0.3102
  505MOL0     H69643   8.441   4.294   7.828 -1.2573  3.7744  0.5733
  505MOL0     H69644   8.456   4.284   8.087  1.0518 -0.2441  1.4607
  505MOL0     H69645   8.611   4.383   8.058  2.3561  1.5343 -5.9534
  505MOL0     H69646   8.334   4.459   7.958 -0.4202  2.1298  0.1750
  505MOL0     H69647   8.412   4.532   8.097 -3.2253 -0.1927 -0.5523
  505MOL0     H69648   8.609   4.611   8.163  0.8216  1.6165  2.0474
  505MOL0     H69649   8.886   4.636   8.276 -0.7236 -0.2190  0.3072
  505MOL0     H69650   8.729   4.708   8.316 -0.8578 -2.2809 -0.5283
  505MOL0     H69651   8.875   4.804   8.300 -1.0107 -0.3672  0.6600
  505MOL0     H69652   9.086   5.004   7.678 -1.8878  2.5066  0.6821
  505MOL0     H69653   9.288   5.148   7.616  3.5198  1.2421  1.4139
  505MOL0     H69654   9.479   5.342   7.950  2.9122 -0.4572  2.0659
  505MOL0     H69655   9.619   5.242   7.899  1.7855  2.7490 -0.8529
  505MOL0     H69656   9.607   5.401   7.679 -1.3846  1.7050 -1.2076
  505MOL0     H69657   9.493   5.490   7.767  1.5591  0.8491  0.0047
  505MOL0     H69658   9.763   5.561   7.767  3.5309  0.8879  2.4072
  505MOL0     H69659   9.778   5.457   7.903 -0.5676  1.5947  1.9622
  505MOL0     H69660   9.617   5.568   8.025  3.7467 -3.3127 -0.4074
  505MOL0     H69661   9.590   5.682   7.882  1.8680  2.9764  0.8901
  505MOL0     H69662   9.868   5.625   7.994  0.3503 -0.4762  4.1425
  505MOL0     H69663   9.806   5.755   7.889 -1.1306 -0.7724 -0.6232
  505MOL0     H69664   9.860   5.840   8.088  1.9017 -2.0130 -0.5898
  505MOL0     H69665   9.753   5.736   8.178 -1.7636  2.1290  0.8348
  505MOL0     H69666   9.543   5.841   8.049 -1.5403  2.0265 -2.5704
  505MOL0     H69667   9.646   5.949   7.964  1.1555 -0.9672 -0.8817
  505MOL0     H69668   9.684   6.092   8.140 -1.2046  2.9554  4.7496
  505MOL0     H69669   9.650   5.970   8.265 -0.5814  1.5093  0.6084
  505MOL0     H69670   9.432   5.112   8.023 -0.6032  0.3556 -0.0120
  505MOL0     H69671   9.218   4.981   8.073  1.1473  1.4207  0.6649
  505MOL0     H69672   8.844   4.821   7.783 -2.6139  0.5796  0.4077
  505MOL0     H69673   8.627   4.686   7.745 -0.4751 -2.0915 -0.2731
  505MOL0     H69674   9.730   4.304   8.512  1.0761  1.4571  0.4145
  505MOL0     H69675   9.903   4.263   8.672  1.2567 -1.6654  2.0424
  505MOL0     H69676  10.256   3.811   8.719 -1.4802  1.6082 -1.3138
  505MOL0     H69677  10.469   3.764   8.887 -1.6815 -1.2276  0.6403
  505MOL0     H69678  10.718   4.060   8.974  1.9145 -1.5723  0.0062
  505MOL0     H69679  10.655   4.074   9.136 -2.8523 -0.8909  0.0740
  505MOL0     H69680  10.770   3.865   9.208 -1.6779 -1.2853 -1.2959
  505MOL0     H69681  10.875   3.999   9.135 -1.3401  1.8554 -2.1486
  505MOL0     H69682  10.955   3.776   9.079  2.0070 -0.3041 -1.2679
  505MOL0     H69683  10.815   3.730   8.981 -1.6191  1.0891 -1.1651
  505MOL0     H69684  10.931   3.983   8.876  1.0638 -0.8666 -0.2961
  505MOL0     H69685  10.858   3.837   8.810  2.7580 -1.2284 -1.0641
  505MOL0     H69686  11.261   3.744   8.794  1.6796  0.9284  2.5922
  505MOL0     H69687  10.476   4.165   8.993 -0.3253 -0.6233  0.2801
  505MOL0     H69688  10.174   4.282   8.836  0.0368  1.9585  3.0828
  505MOL0     H69689  10.341   4.328   8.893  1.3484  1.4958 -3.0243
  505MOL0     H69690  10.326   4.294   8.730 -0.1096 -0.1914  0.3239
  506MOL0     O69691   6.361   0.375   0.695  0.0546  0.9770  0.0327
  506MOL0     C69692   6.389   0.392   0.573 -0.0956  0.1574 -0.0055
  506MOL0     O69693   6.511   0.414   0.532 -0.3964  0.0056  0.0800
  506MOL0     C69694   6.611   0.430   0.617 -0.0752  0.4022 -0.3685
  506MOL0     C69695   6.628   0.547   0.696  0.9930 -0.6504  0.0660
  506MOL0     C69696   6.741   0.550   0.785 -0.8085  0.1673 -0.2866
  506MOL0     C69697   6.844   0.448   0.790  1.0402 -0.4205 -0.6395
  506MOL0     O69698   6.962   0.466   0.869  0.1777 -1.0851  0.5567
  506MOL0     C69699   7.086   0.406   0.835  0.2329 -0.0831 -0.1866
  506MOL0     C69700   7.124   0.426   0.688  0.7440  0.2565 -0.2894
  506MOL0     C69701   7.263   0.375   0.653 -0.0308  0.5611 -0.2848
  506MOL0     C69702   7.297   0.361   0.510  0.1922 -0.6537  0.0008
  506MOL0     C69703   7.439   0.330   0.477 -0.0729  0.8296  0.3310
  506MOL0     C69704   7.463   0.296   0.320 -0.1710  0.0682 -0.6226
  506MOL0     C69705   7.582   0.381   0.269  0.6084 -0.1796 -0.1016
  506MOL0     C69706   7.713   0.322   0.324 -0.3540 -1.4578  0.2192
  506MOL0     N69707   7.762   0.209   0.253 -0.2774 -0.8994  0.1475
  506MOL0     C69708   7.817   0.217   0.127 -1.0310  0.3438  0.0818
  506MOL0     C69709   7.817   0.093   0.082  0.9461 -0.5273  0.3734
  506MOL0     C69710   7.871   0.037  -0.046  0.3129  0.1879  0.7677
  506MOL0     C69711   8.024   0.063  -0.042  0.2692  0.1734  0.0232
  506MOL0     C69712   8.085   0.057  -0.179  0.7188 -0.0116  0.1503
  506MOL0     C69713   8.234   0.049  -0.165 -0.8670  0.4863  0.3600
  506MOL0     O69714   8.298   0.044  -0.290 -0.0693 -0.3055  0.0348
  506MOL0     C69715   8.436   0.051  -0.305  0.4076  0.0768  0.4846
  506MOL0     C69716   8.482   0.026  -0.435  0.1877 -0.4399 -1.0831
  506MOL0     C69717   8.615   0.042  -0.477  0.6902  0.0388 -0.1931
  506MOL0     C69718   8.648   0.028  -0.627 -0.0265 -0.1592 -0.1249
  506MOL0     C69719   8.702   0.080  -0.381  0.1444 -0.7837 -0.5368
  506MOL0     C69720   8.850   0.089  -0.413  0.5628 -0.6163 -1.1831
  506MOL0     O69721   8.892   0.010  -0.518  0.3595  1.4103  0.1037
  506MOL0     C69722   9.024   0.017  -0.555  1.2868  0.5729 -0.9916
  506MOL0     C69723   9.124  -0.043  -0.478 -0.4143  0.7285 -0.1495
  506MOL0     C69724   9.243  -0.044  -0.544  0.6707  0.2216  0.2584
  506MOL0     C69725   9.271  -0.020  -0.676  0.7688 -1.2169  0.1762
  506MOL0     O69726   9.398  -0.036  -0.720  0.0366 -0.7428 -0.2952
  506MOL0     C69727   9.407  -0.122  -0.834 -0.1688  0.1682 -0.0132
  506MOL0     C69728   9.484  -0.254  -0.787  0.8347 -0.2874 -0.5311
  506MOL0     C69729   9.515  -0.348  -0.901 -0.3781 -0.3241  1.0097
  506MOL0     C69730   9.655  -0.347  -0.961  0.3227 -0.3508 -0.0139
  506MOL0     C69731   9.648  -0.437  -1.082 -0.4116  0.5203  0.6854
  506MOL0     C69732   9.777  -0.437  -1.142  0.2354  0.2462  0.0546
  506MOL0     C69733   9.890  -0.521  -1.078 -0.2979  0.1480  0.4471
  506MOL0     C69734  10.001  -0.540  -1.176 -0.1876  0.2270  0.0825
  506MOL0    Cl69735  10.042  -0.383  -1.262  0.2194 -0.5957 -0.8029
  506MOL0     C69736   9.166   0.038  -0.748 -0.5702 -0.2575  0.3966
  506MOL0     C69737   9.046   0.055  -0.683  0.2671  1.1927  0.4794
  506MOL0     O69738   8.919   0.146  -0.329 -0.4445  0.1112  0.9122
  506MOL0     C69739   8.656   0.107  -0.244  0.7454  0.0741 -0.3289
  506MOL0     C69740   8.522   0.087  -0.208 -0.5779  0.3679 -0.4868
  506MOL0     N69741   7.775   0.012   0.179 -0.1202  0.4125  0.2406
  506MOL0     N69742   7.737   0.073   0.286 -0.7619  0.0951  0.3028
  506MOL0     C69743   6.805   0.334   0.722  0.0776 -0.1617  0.1928
  506MOL0     C69744   6.692   0.317   0.641 -0.1392 -0.9702 -0.0148
  506MOL0     C69745   6.279   0.366   0.478 -1.2622  0.1719 -0.1748
  506MOL0     C69746   6.296   0.312   0.352 -0.8674 -0.2668  0.0471
  506MOL0     C69747   6.194   0.289   0.260  0.0710 -0.0639 -0.4618
  506MOL0     C69748   6.064   0.334   0.286 -1.0377  0.3564  0.2487
  506MOL0     O69749   5.967   0.321   0.189  0.0559 -0.3623  0.4662
  506MOL0     C69750   5.851   0.406   0.190 -0.2388  0.3509  0.0166
  506MOL0     C69751   5.887   0.549   0.147 -0.7667 -0.4744  0.7725
  506MOL0     C69752   5.964   0.551   0.014 -0.8405 -0.6289  0.5518
  506MOL0     C69753   5.872   0.519  -0.103  0.0083 -0.2613 -0.1365
  506MOL0     C69754   5.933   0.552  -0.229  0.6018  0.1512  0.8833
  506MOL0     C69755   5.980   0.589  -0.332 -0.9527  0.1560  0.5170
  506MOL0     C69756   6.046   0.386   0.416 -0.4518  0.9963 -0.2920
  506MOL0     C69757   6.148   0.404   0.508 -0.7252  0.6791 -2.1825
  506MOL0     C69758   6.104   0.481   0.636 -0.1564  0.1726 -0.4876
  506MOL0     H69759   6.561   0.633   0.695 -0.2000 -1.5525 -0.1787
  506MOL0     H69760   6.750   0.639   0.847 -1.6426  0.2560 -0.2875
  506MOL0     H69761   7.081   0.300   0.864 -0.0478  0.5471  2.3473
  506MOL0     H69762   7.171   0.442   0.894  0.9277 -2.0212  0.0795
  506MOL0     H69763   7.052   0.364   0.633  1.9031 -3.6820  2.2387
  506MOL0     H69764   7.114   0.530   0.657  0.9375  0.5312  0.5261
  506MOL0     H69765   7.329   0.457   0.683  1.4612 -1.2061  1.5741
  506MOL0     H69766   7.290   0.285   0.710 -1.7144 -0.9739 -1.7994
  506MOL0     H69767   7.232   0.280   0.474 -0.7363 -0.4501  1.1548
  506MOL0     H69768   7.279   0.451   0.450  3.5265 -2.0759 -3.5253
  506MOL0     H69769   7.466   0.253   0.551  0.1337  1.0706  0.5093
  506MOL0     H69770   7.503   0.414   0.505 -0.6943  0.6555  2.4185
  506MOL0     H69771   7.484   0.189   0.323  0.5743  0.0136  5.5489
  506MOL0     H69772   7.369   0.311   0.267 -0.7063  2.3104  0.8470
  506MOL0     H69773   7.569   0.486   0.297  0.6631 -0.0309 -0.6331
  506MOL0     H69774   7.598   0.374   0.161  3.4069 -0.1967  0.2483
  506MOL0     H69775   7.788   0.398   0.300 -1.0403 -1.8503 -4.1196
  506MOL0     H69776   7.705   0.302   0.431 -0.9666 -0.3048  0.4058
  506MOL0     H69777   7.845   0.311   0.080 -1.1978  2.0627  3.1331
  506MOL0     H69778   7.828   0.093  -0.130  1.6290 -1.0314 -0.7823
  506MOL0     H69779   7.831  -0.063  -0.064 -2.4919  1.3693 -0.2189
  506MOL0     H69780   8.052   0.159   0.000 -0.9987  1.3104 -1.5642
  506MOL0     H69781   8.079  -0.004   0.025 -0.0925 -1.0453 -0.8495
  506MOL0     H69782   8.051  -0.029  -0.237  0.3118 -0.6149  1.2413
  506MOL0     H69783   8.059   0.139  -0.247  2.5647 -0.5306 -1.2520
  506MOL0     H69784   8.248   0.140  -0.106 -1.3195 -1.6312  3.9986
  506MOL0     H69785   8.271  -0.040  -0.114  3.1628 -1.3160 -4.8160
  506MOL0     H69786   8.403   0.003  -0.507 -1.4012  2.2473 -0.3292
  506MOL0     H69787   8.686  -0.075  -0.632 -4.5676 -2.1674  1.6179
  506MOL0     H69788   8.715   0.103  -0.671 -0.1911 -1.6598 -3.2188
  506MOL0     H69789   8.566   0.033  -0.699 -0.9210  1.8914  0.9711
  506MOL0     H69790   9.118  -0.079  -0.376 -1.7541 -0.2895 -0.5537
  506MOL0     H69791   9.321  -0.077  -0.476 -0.4771 -0.3753  1.3138
  506MOL0     H69792   9.311  -0.152  -0.876  0.1818 -0.1444 -0.5989
  506MOL0     H69793   9.467  -0.062  -0.903 -0.7595  3.0328  1.7717
  506MOL0     H69794   9.576  -0.223  -0.737  0.0178 -1.1615  1.6470
  506MOL0     H69795   9.423  -0.315  -0.720  0.8048 -0.6376 -0.8793
  506MOL0     H69796   9.444  -0.333  -0.983  0.1438 -1.2498  0.3595
  506MOL0     H69797   9.499  -0.449  -0.861 -1.4007  0.2223  2.0149
  506MOL0     H69798   9.739  -0.376  -0.898  1.6805 -0.2197 -1.6913
  506MOL0     H69799   9.674  -0.242  -0.986  0.2475  0.2116  2.1450
  506MOL0     H69800   9.612  -0.539  -1.065  1.5499 -0.2233  0.6273
  506MOL0     H69801   9.591  -0.388  -1.162  1.2141  4.4365  1.7230
  506MOL0     H69802   9.800  -0.333  -1.168  0.3659  0.4677  1.0332
  506MOL0     H69803   9.760  -0.482  -1.241 -0.3428 -0.7210  0.5767
  506MOL0     H69804   9.860  -0.611  -1.023  1.1218 -2.1758 -2.2940
  506MOL0     H69805   9.931  -0.458  -0.998  2.0632  0.3728 -0.8775
  506MOL0     H69806   9.977  -0.608  -1.258  3.6921 -0.0743 -1.0083
  506MOL0     H69807  10.086  -0.594  -1.132  1.7874  1.2394 -2.2693
  506MOL0     H69808   9.181   0.073  -0.850 -1.8499  0.6159  0.4829
  506MOL0     H69809   8.971   0.105  -0.744  0.2869  0.1832 -0.3944
  506MOL0     H69810   8.718   0.137  -0.161  1.0578  4.4290 -1.8659
  506MOL0     H69811   8.506   0.086  -0.100 -0.2413 -0.4837 -0.4367
  506MOL0     H69812   6.868   0.246   0.727 -0.8169 -0.8521 -0.3442
  506MOL0     H69813   6.668   0.222   0.595  2.1539 -0.4770 -2.4606
  506MOL0     H69814   6.395   0.287   0.315 -1.9871  0.2587 -3.6823
  506MOL0     H69815   6.213   0.235   0.168  1.7184 -2.6028  1.2398
  506MOL0     H69816   5.784   0.372   0.110 -0.5991  1.0834 -0.0005
  506MOL0     H69817   5.798   0.407   0.285 -0.4141 -2.0099  0.0102
  506MOL0     H69818   5.953   0.596   0.220  0.7366  4.1894 -2.9900
  506MOL0     H69819   5.799   0.614   0.137  1.2075  2.7019  2.3989
  506MOL0     H69820   6.000   0.651  -0.009  0.0810 -0.8273  1.0569
  506MOL0     H69821   6.050   0.483   0.014 -0.6119 -0.3385  0.7976
  506MOL0     H69822   5.781   0.579  -0.101 -0.0615 -0.3563 -0.3863
  506MOL0     H69823   5.844   0.414  -0.091 -1.9418  0.3167  0.7871
  506MOL0     H69824   5.999   0.625  -0.431 -0.9105 -1.5889 -0.1514
  506MOL0     H69825   5.952   0.432   0.444  0.0238  0.7638  1.7966
  506MOL0     H69826   6.046   0.416   0.702  0.6179 -2.2464 -2.0540
  506MOL0     H69827   6.186   0.527   0.693 -0.9325  4.0493 -2.1824
  506MOL0     H69828   6.040   0.566   0.612  1.0812  1.0363 -0.8687
  507MOL0     O69829  11.519   9.943   3.920 -0.3697  0.7580 -0.0670
  507MOL0     C69830  11.518   9.848   4.002 -0.6424 -0.5013 -0.0450
  507MOL0     O69831  11.405   9.793   4.055 -0.5571 -0.0232  0.8575
  507MOL0     C69832  11.285   9.862   4.047  0.0384  0.4522 -0.3019
  507MOL0     C69833  11.177   9.836   3.953 -0.1252  0.1665 -0.3239
  507MOL0     C69834  11.060   9.915   3.946  0.2971  0.4660  0.2524
  507MOL0     C69835  11.051  10.040   4.021 -0.1342 -0.1461 -0.2781
  507MOL0     O69836  10.941  10.117   4.006 -0.2171 -0.1665 -0.3815
  507MOL0     C69837  10.953  10.256   4.049  0.8344 -0.1334  0.2410
  507MOL0     C69838  10.817  10.321   4.006  0.9230 -0.5983  0.5373
  507MOL0     C69839  10.690  10.272   4.084 -0.6523 -0.4608 -0.7320
  507MOL0     C69840  10.711  10.258   4.234 -0.7439 -0.5286 -0.5941
  507MOL0     C69841  10.585  10.213   4.296 -0.5597 -0.0315  0.0845
  507MOL0     C69842  10.592  10.223   4.452  0.1332 -0.2769 -0.6880
  507MOL0     C69843  10.449  10.188   4.509  0.2780 -0.3219  0.5441
  507MOL0     C69844  10.453  10.150   4.651  0.0868 -0.8619  1.0656
  507MOL0     N69845  10.506  10.250   4.750  0.3731  0.6201 -0.4076
  507MOL0     C69846  10.518  10.217   4.884  0.5786  0.3109  0.0018
  507MOL0     C69847  10.558  10.334   4.938  1.0587  0.6840  0.9991
  507MOL0     C69848  10.596  10.354   5.078 -0.1610 -0.0370  0.3062
  507MOL0     C69849  10.499  10.407   5.176  0.0627 -0.0420  0.0398
  507MOL0     C69850  10.421  10.541   5.128 -0.0216 -0.0774  0.0386
  507MOL0     C69851  10.342  10.620   5.237 -0.1109  0.2217 -0.1161
  507MOL0     O69852  10.212  10.560   5.261 -0.5012  0.0064  0.1430
  507MOL0     C69853  10.208  10.455   5.347  0.6322  0.3396 -0.7938
  507MOL0     C69854  10.125  10.347   5.318  1.7196 -0.2384  0.0120
  507MOL0     C69855  10.114  10.236   5.404 -0.0448 -0.6315 -0.6838
  507MOL0     C69856  10.038  10.118   5.349 -1.3255 -0.8135  0.3095
  507MOL0     C69857  10.176  10.233   5.524  0.0633  0.3796  0.2204
  507MOL0     C69858  10.174  10.137   5.634 -0.2930  0.4152 -0.2960
  507MOL0     O69859  10.263  10.132   5.740  0.1509 -0.2341  0.5683
  507MOL0     C69860  10.238  10.055   5.855  0.1648 -1.3876 -0.6178
  507MOL0     C69861  10.284  10.104   5.977 -0.4885 -0.7501  0.7206
  507MOL0     C69862  10.249  10.046   6.097 -1.3767  0.3966  0.3110
  507MOL0     C69863  10.190   9.921   6.108  0.0465 -1.0949  0.3436
  507MOL0     O69864  10.145   9.856   6.228  0.2562 -0.6042  0.4534
  507MOL0     C69865  10.107   9.944   6.337 -0.1388 -0.3314 -0.6297
  507MOL0     C69866  10.189   9.900   6.460 -0.6310 -0.3460 -1.2753
  507MOL0     C69867  10.100   9.912   6.588  0.2561 -0.2239 -0.5455
  507MOL0     C69868  10.070  10.047   6.641  0.9464  0.3177 -0.0922
  507MOL0     C69869   9.985  10.043   6.768 -0.2428  0.1869 -0.3207
  507MOL0     C69870   9.938  10.201   6.792 -0.0673 -0.4824 -0.9924
  507MOL0     C69871   9.805  10.210   6.879 -0.4467  0.4103  0.7584
  507MOL0     C69872   9.783  10.342   6.950  1.0209 -0.8490 -0.1292
  507MOL0    Cl69873   9.906  10.355   7.086  0.2790 -0.1972 -0.0323
  507MOL0     C69874  10.171   9.854   5.982 -0.0322  0.6186  0.1559
  507MOL0     C69875  10.190   9.928   5.862 -0.2988  0.3342  0.7624
  507MOL0     O69876  10.083  10.059   5.622 -0.1714 -0.4010  0.6224
  507MOL0     C69877  10.265  10.338   5.552 -0.5379  0.4234  0.0821
  507MOL0     C69878  10.276  10.449   5.470  0.0202 -0.4319 -0.5610
  507MOL0     N69879  10.562  10.427   4.839 -0.8034 -0.3382  0.5748
  507MOL0     N69880  10.539  10.378   4.725  1.1445  0.2510 -0.2352
  507MOL0     C69881  11.166  10.075   4.093 -0.1168  0.2883  0.2232
  507MOL0     C69882  11.272   9.979   4.114 -0.7728 -0.3002 -0.4631
  507MOL0     C69883  11.656   9.804   4.070  1.0338 -0.6156 -0.2874
  507MOL0     C69884  11.651   9.770   4.202  0.4151 -0.3869 -0.1851
  507MOL0     C69885  11.766   9.735   4.269 -0.0396 -0.0039  0.0249
  507MOL0     C69886  11.888   9.731   4.201 -0.1264 -0.0860  0.7662
  507MOL0     O69887  12.013   9.707   4.261  0.2059 -0.2893 -0.6764
  507MOL0     C69888  12.016   9.721   4.402 -0.1699  0.0130  0.0161
  507MOL0     C69889  12.168   9.756   4.427  0.8735 -0.5314 -0.0005
  507MOL0     C69890  12.212   9.903   4.399 -0.1258 -0.5399  0.3427
  507MOL0     C69891  12.307   9.962   4.496 -0.2133  0.2492  0.3798
  507MOL0     C69892  12.263  10.089   4.553 -0.3765  0.1611 -0.5123
  507MOL0     C69893  12.231  10.201   4.591  0.0831  0.3273  0.1049
  507MOL0     C69894  11.899   9.774   4.069  0.0625  0.3479 -0.7266
  507MOL0     C69895  11.782   9.817   3.999  0.1671  0.3134 -0.0156
  507MOL0     C69896  11.801   9.872   3.859 -0.1060 -0.2511 -0.1227
  507MOL0     H69897  11.168   9.751   3.885 -1.9749  0.1879 -0.1448
  507MOL0     H69898  10.980   9.891   3.877  1.8454 -0.9535 -1.1329
  507MOL0     H69899  11.037  10.305   4.000  1.6039  1.3612  2.8418
  507MOL0     H69900  10.957  10.261   4.158 -1.3017  2.7587  0.3189
  507MOL0     H69901  10.822  10.429   4.021  0.9204 -0.7776  2.0213
  507MOL0     H69902  10.788  10.298   3.903  1.1604 -4.0796  1.1281
  507MOL0     H69903  10.608  10.340   4.061  0.4247  0.6991 -1.2830
  507MOL0     H69904  10.658  10.173   4.049 -1.0965 -0.2410 -0.9595
  507MOL0     H69905  10.791  10.185   4.248  1.0517  0.9383 -2.5513
  507MOL0     H69906  10.729  10.360   4.268 -0.8962 -0.5031 -0.5890
  507MOL0     H69907  10.567  10.109   4.268  0.9694  0.3213 -2.6070
  507MOL0     H69908  10.500  10.272   4.260 -0.8742 -1.1855 -1.1775
  507MOL0     H69909  10.666  10.157   4.498  0.1985 -1.0138 -1.8322
  507MOL0     H69910  10.619  10.325   4.483  2.5706 -1.0127 -0.1564
  507MOL0     H69911  10.407  10.111   4.444 -1.3681  0.9577  0.0151
  507MOL0     H69912  10.380  10.273   4.500 -0.5856 -0.8309  1.9906
  507MOL0     H69913  10.355  10.120   4.690 -2.9169  5.5456 -0.1565
  507MOL0     H69914  10.512  10.059   4.666  1.2284  0.2792  4.2197
  507MOL0     H69915  10.502  10.120   4.930 -3.0418  0.9783  0.4283
  507MOL0     H69916  10.689  10.410   5.071  0.0695 -0.4595 -0.0203
  507MOL0     H69917  10.632  10.259   5.119 -2.6576  0.2297  3.5998
  507MOL0     H69918  10.416  10.346   5.212 -2.4114  3.8714  1.6324
  507MOL0     H69919  10.548  10.446   5.266 -3.3199  1.2699  1.4897
  507MOL0     H69920  10.489  10.614   5.083  0.2125  1.2897  2.4328
  507MOL0     H69921  10.359  10.511   5.043 -0.9130 -1.5192  1.1556
  507MOL0     H69922  10.409  10.630   5.323 -1.5314  2.6977  0.8185
  507MOL0     H69923  10.340  10.724   5.205  2.1649  0.0240 -1.1200
  507MOL0     H69924  10.079  10.342   5.219  0.4103 -3.2110  0.6403
  507MOL0     H69925  10.111  10.037   5.349  0.6912  0.8364 -2.5769
  507MOL0     H69926  10.002  10.140   5.248  3.5245  1.7496 -1.1821
  507MOL0     H69927   9.954  10.088   5.413 -0.1752  1.3247  3.0738
  507MOL0     H69928  10.331  10.201   5.979 -2.6562  0.3550  0.5556
  507MOL0     H69929  10.266  10.111   6.183  0.5327  1.2419 -0.6317
  507MOL0     H69930  10.113  10.052   6.323  0.4056 -0.0892  1.1776
  507MOL0     H69931   9.999   9.932   6.350 -0.3676  1.6612 -0.3873
  507MOL0     H69932  10.209   9.793   6.455  2.3283 -0.2700  3.0313
  507MOL0     H69933  10.288   9.943   6.476 -1.0191 -0.3568  1.8606
  507MOL0     H69934  10.138   9.844   6.665 -1.7520 -1.9654 -0.9799
  507MOL0     H69935  10.002   9.871   6.564 -0.3498 -0.2521  1.7208
  507MOL0     H69936  10.011  10.103   6.568  0.5001  2.0589  1.4999
  507MOL0     H69937  10.163  10.105   6.647  0.5355  0.9957 -0.1147
  507MOL0     H69938   9.903   9.971   6.766 -0.6011  0.4704  1.7357
  507MOL0     H69939  10.047  10.017   6.854 -2.0559 -1.2636  0.6226
  507MOL0     H69940   9.921  10.265   6.706  4.3483  5.3145  1.6963
  507MOL0     H69941  10.025  10.247   6.840  1.4060 -3.6062 -0.3714
  507MOL0     H69942   9.807  10.138   6.960 -1.7659 -0.4842  0.0371
  507MOL0     H69943   9.722  10.190   6.810 -2.2020 -0.0194  2.8834
  507MOL0     H69944   9.682  10.339   6.991  0.7558  1.0066 -0.5285
  507MOL0     H69945   9.790  10.425   6.878 -0.0147  0.9815  1.7784
  507MOL0     H69946  10.125   9.756   5.984  2.3172 -0.5133  1.1749
  507MOL0     H69947  10.167   9.889   5.764 -0.2325  0.3649  0.7340
  507MOL0     H69948  10.328  10.337   5.640  1.5482 -2.2548 -1.2680
  507MOL0     H69949  10.351  10.523   5.497 -0.0263 -1.3599  2.5294
  507MOL0     H69950  11.177  10.168   4.147 -0.6644  0.5404 -0.1064
  507MOL0     H69951  11.345  10.007   4.189  1.6534 -1.2023 -2.3483
  507MOL0     H69952  11.561   9.760   4.261  0.1483 -2.4281 -0.8361
  507MOL0     H69953  11.760   9.707   4.373  2.4213  1.6103  0.7006
  507MOL0     H69954  11.960   9.805   4.444  2.1442  0.9040  1.5849
  507MOL0     H69955  11.979   9.635   4.458  2.6269 -0.3367  1.5333
  507MOL0     H69956  12.226   9.695   4.356  1.0715 -0.4761  0.1121
  507MOL0     H69957  12.185   9.732   4.532 -2.1694  3.0301  1.4962
  507MOL0     H69958  12.251   9.909   4.296  0.0650 -1.7629  0.3214
  507MOL0     H69959  12.122   9.961   4.378 -0.1323 -0.7261 -0.1745
  507MOL0     H69960  12.397   9.967   4.434 -1.4854 -0.3040 -1.5911
  507MOL0     H69961  12.321   9.895   4.582  1.8012 -1.0968 -0.8976
  507MOL0     H69962  12.217  10.304   4.617  1.5445  0.1003  1.9330
  507MOL0     H69963  11.998   9.800   4.035  1.9172 -0.0268  3.7174
  507MOL0     H69964  11.905   9.862   3.827  0.3418  0.4651  1.0308
  507MOL0     H69965  11.732   9.821   3.790  0.3039  1.6731 -2.0462
  507MOL0     H69966  11.787   9.980   3.862 -0.2194 -0.2613 -0.2984
  508MOL0     O69967   7.316   9.530  11.333 -0.5056 -0.0913  0.0529
  508MOL0     C69968   7.204   9.588  11.319 -0.1365 -0.4477  0.3789
  508MOL0     O69969   7.180   9.691  11.232  0.1535  0.0618 -0.5455
  508MOL0     C69970   7.276   9.729  11.149  0.3171 -0.4445  0.1143
  508MOL0     C69971   7.375   9.817  11.189 -0.6579 -0.6556  0.5729
  508MOL0     C69972   7.486   9.843  11.114  0.1310  0.7994 -0.9087
  508MOL0     C69973   7.493   9.796  10.986 -0.1488  0.5633 -0.4204
  508MOL0     O69974   7.594   9.846  10.914 -0.0121  0.4816 -0.2679
  508MOL0     C69975   7.623   9.796  10.778  0.4506 -0.2975 -0.1120
  508MOL0     C69976   7.710   9.668  10.785 -0.9573  0.3877  0.0459
  508MOL0     C69977   7.765   9.640  10.641  0.1451 -0.6621  0.1587
  508MOL0     C69978   7.661   9.570  10.558 -0.4164  0.4306 -0.0470
  508MOL0     C69979   7.715   9.477  10.452 -0.0366 -0.2426 -0.8596
  508MOL0     C69980   7.844   9.531  10.381  0.3615 -0.5210  0.3840
  508MOL0     C69981   7.879   9.452  10.257 -0.2279  0.4584  0.0983
  508MOL0     C69982   8.017   9.381  10.267  0.0858 -0.0127 -0.2560
  508MOL0     N69983   8.014   9.257  10.344  0.3533  0.7580  0.0231
  508MOL0     C69984   8.006   9.243  10.482 -0.5105 -1.0270 -0.5851
  508MOL0     C69985   7.997   9.118  10.514 -0.0950  0.7818  0.4738
  508MOL0     C69986   7.967   9.049  10.641  0.0667 -0.5646 -0.4657
  508MOL0     C69987   8.093   9.034  10.729 -0.1879  1.1990 -0.3771
  508MOL0     C69988   8.095   9.148  10.831  0.0964 -0.7207  0.0645
  508MOL0     C69989   8.238   9.195  10.824 -0.1630 -1.2149  0.2195
  508MOL0     O69990   8.264   9.306  10.735  0.1051 -0.1743 -0.0205
  508MOL0     C69991   8.217   9.432  10.744 -0.1099 -0.1250  0.1254
  508MOL0     C69992   8.168   9.497  10.855 -0.5286 -0.3251 -0.3919
  508MOL0     C69993   8.118   9.636  10.852  0.4000 -0.2516 -0.1928
  508MOL0     C69994   8.074   9.687  10.988  0.2593  0.9234  0.0970
  508MOL0     C69995   8.130   9.705  10.729  0.2969 -0.3791 -0.1053
  508MOL0     C69996   8.129   9.851  10.710  0.1521  0.9673  0.7133
  508MOL0     O69997   8.132   9.890  10.577 -0.0968  0.3446 -0.7755
  508MOL0     C69998   8.127  10.023  10.564  0.1536  0.1807 -0.3063
  508MOL0     C69999   8.002  10.100  10.581 -1.1089  0.3446  0.2054
  508MOL0     C70000   8.019  10.239  10.582 -0.1729 -0.1759  0.0028
  508MOL0     C70001   8.135  10.310  10.568  1.7137  0.5071  0.3249
  508MOL0     O70002   8.133  10.446  10.566 -0.0838 -0.5458 -0.2780
  508MOL0     C70003   8.249  10.528  10.559  1.2252 -0.4482  0.6911
  508MOL0     C70004   8.187  10.669  10.573  0.3469  0.2354 -0.2706
  508MOL0     C70005   8.103  10.695  10.705 -0.6323 -0.0062 -0.2776
  508MOL0     C70006   7.947  10.674  10.699 -0.1234 -0.1053 -0.3790
  508MOL0     C70007   7.876  10.717  10.830 -0.0137  0.5225  0.5723
  508MOL0     C70008   7.721  10.712  10.821  0.1570 -0.2240 -0.3277
  508MOL0     C70009   7.647  10.769  10.946 -0.0385 -0.1251 -0.2755
  508MOL0     C70010   7.505  10.731  10.966 -0.4965 -0.9076 -0.1759
  508MOL0    Cl70011   7.421  10.780  10.819 -0.2676  0.2078 -0.3085
  508MOL0     C70012   8.248  10.230  10.555 -0.6272 -0.0042  0.8194
  508MOL0     C70013   8.247  10.087  10.550 -0.7871 -0.2274 -0.2222
  508MOL0     O70014   8.121   9.923  10.811 -0.3147 -0.2953  0.0445
  508MOL0     C70015   8.147   9.625  10.611  0.3886  0.3874 -0.4480
  508MOL0     C70016   8.200   9.495  10.621 -0.8114 -0.0919  0.2053
  508MOL0     N70017   8.006   9.041  10.397  0.1864 -0.2046  0.1247
  508MOL0     N70018   8.022   9.129  10.299 -0.1790 -0.0798 -0.0125
  508MOL0     C70019   7.388   9.716  10.941  0.3896 -0.1576  0.7792
  508MOL0     C70020   7.286   9.674  11.027  0.5201  0.0606  0.0030
  508MOL0     C70021   7.077   9.555  11.404 -0.9888 -0.2674  0.0827
  508MOL0     C70022   6.943   9.590  11.366 -0.0436  0.4967  0.2810
  508MOL0     C70023   6.831   9.563  11.446  0.4363  0.0895  0.3989
  508MOL0     C70024   6.831   9.471  11.546  0.1413 -0.5636  0.0885
  508MOL0     O70025   6.719   9.431  11.602  0.0985 -0.5258 -0.2556
  508MOL0     C70026   6.611   9.381  11.521 -0.0244 -0.6782 -0.6973
  508MOL0     C70027   6.511   9.316  11.620 -0.0363 -0.1832  0.0453
  508MOL0     C70028   6.487   9.397  11.752 -0.7507 -0.6782 -1.0695
  508MOL0     C70029   6.383   9.335  11.838  0.4957  0.4749  0.0303
  508MOL0     C70030   6.441   9.207  11.897  0.2469  0.3065 -0.0869
  508MOL0     C70031   6.465   9.106  11.961  0.2712 -1.2623 -0.4365
  508MOL0     C70032   6.958   9.411  11.578  0.3970 -0.4835  0.6871
  508MOL0     C70033   7.078   9.457  11.510 -0.7752 -0.2337 -0.3193
  508MOL0     C70034   7.204   9.387  11.556  0.3161 -0.0408 -0.9439
  508MOL0     H70035   7.382   9.869  11.284  0.5543  1.1124 -0.4307
  508MOL0     H70036   7.576   9.891  11.153  0.0989  2.4572 -2.7223
  508MOL0     H70037   7.668   9.887  10.737 -0.0467  0.5378  1.1248
  508MOL0     H70038   7.532   9.785  10.719  1.4015  1.6200 -2.0909
  508MOL0     H70039   7.797   9.682  10.850 -0.9428 -1.0881  0.3807
  508MOL0     H70040   7.651   9.581  10.817  0.8112 -1.3652 -1.2003
  508MOL0     H70041   7.789   9.729  10.582 -3.4783 -1.5318 -3.0010
  508MOL0     H70042   7.850   9.571  10.648 -1.3840 -2.6908 -0.5386
  508MOL0     H70043   7.587   9.512  10.613 -0.6829  1.7303  0.9943
  508MOL0     H70044   7.600   9.644  10.505 -1.7706  0.3512  1.3189
  508MOL0     H70045   7.639   9.459  10.375 -0.3341 -0.9842 -0.3971
  508MOL0     H70046   7.736   9.386  10.507  1.6027  1.2230  1.0663
  508MOL0     H70047   7.807   9.629  10.349 -2.9028 -2.0126 -0.8223
  508MOL0     H70048   7.928   9.537  10.450  0.6934 -0.2735 -0.0342
  508MOL0     H70049   7.884   9.517  10.169 -0.4289  0.1813 -0.1174
  508MOL0     H70050   7.798   9.380  10.244  0.4039 -0.6395  1.7784
  508MOL0     H70051   8.055   9.353  10.168  1.7804 -3.4322  1.2048
  508MOL0     H70052   8.091   9.447  10.313  0.3677 -0.1069 -0.5669
  508MOL0     H70053   8.005   9.321  10.558 -0.0067  0.4733 -2.0471
  508MOL0     H70054   7.939   8.945  10.619 -1.5202  0.1513 -2.0426
  508MOL0     H70055   7.887   9.098  10.697 -1.1092 -1.7477 -1.0536
  508MOL0     H70056   8.096   8.940  10.784  0.0124  1.2566 -0.2868
  508MOL0     H70057   8.177   9.025  10.660 -2.7446 -3.0657 -3.4061
  508MOL0     H70058   8.021   9.225  10.808 -1.4231 -2.0781  0.2350
  508MOL0     H70059   8.073   9.117  10.934 -3.0731  4.9911  1.5243
  508MOL0     H70060   8.272   9.235  10.920  3.9574  2.3364 -2.3275
  508MOL0     H70061   8.308   9.113  10.803 -0.2107 -0.5256 -3.2671
  508MOL0     H70062   8.168   9.460  10.958  2.7636  3.7933  1.4046
  508MOL0     H70063   8.043   9.792  10.979 -2.8300  0.0579 -0.4721
  508MOL0     H70064   8.153   9.669  11.061 -0.9956 -2.1561  0.8302
  508MOL0     H70065   7.982   9.636  11.017  0.7222 -0.4687 -0.8060
  508MOL0     H70066   7.903  10.056  10.586 -1.4053  0.3462 -3.5015
  508MOL0     H70067   7.932  10.302  10.589  1.4766  2.2265 -0.0215
  508MOL0     H70068   8.318  10.513  10.642  1.3637  0.2110  0.6991
  508MOL0     H70069   8.293  10.512  10.460 -1.9493 -2.9034 -0.4730
  508MOL0     H70070   8.277  10.732  10.575  0.7391 -0.2919 -0.9295
  508MOL0     H70071   8.123  10.693  10.488  0.2310 -0.0519 -0.2646
  508MOL0     H70072   8.113  10.799  10.735 -0.3487 -0.4905  1.4219
  508MOL0     H70073   8.144  10.633  10.785 -2.0641 -0.8704 -0.1825
  508MOL0     H70074   7.922  10.569  10.684  1.2750 -0.5455  0.2139
  508MOL0     H70075   7.907  10.735  10.617 -1.6550 -0.4396  0.0982
  508MOL0     H70076   7.922  10.668  10.916  2.7465  0.8135 -0.6280
  508MOL0     H70077   7.903  10.822  10.844 -2.1322  1.2449 -0.2864
  508MOL0     H70078   7.683  10.611  10.803 -0.7302 -0.1744  1.0860
  508MOL0     H70079   7.696  10.777  10.736  0.7078  2.5037  1.4728
  508MOL0     H70080   7.666  10.875  10.966 -1.9136  0.0037  1.0926
  508MOL0     H70081   7.695  10.722  11.032 -4.8742  0.0269  2.8867
  508MOL0     H70082   7.471  10.780  11.059  1.0976 -0.0449 -0.0173
  508MOL0     H70083   7.501  10.622  10.974  1.9460 -1.0539 -0.4296
  508MOL0     H70084   8.339  10.283  10.528 -0.7211  0.3435  1.1749
  508MOL0     H70085   8.342  10.039  10.526 -1.4576 -1.8911  0.2778
  508MOL0     H70086   8.135   9.666  10.512 -2.6225 -2.2388 -1.3409
  508MOL0     H70087   8.241   9.452  10.529 -2.1366 -0.1328 -0.3947
  508MOL0     H70088   7.398   9.663  10.846  3.5577 -1.6566  1.8321
  508MOL0     H70089   7.208   9.605  10.993 -1.3800  1.0783  2.0508
  508MOL0     H70090   6.923   9.642  11.273 -0.5886 -0.3397 -0.0865
  508MOL0     H70091   6.738   9.608  11.413  1.1747 -0.1161 -2.1834
  508MOL0     H70092   6.571   9.469  11.471  2.9546  0.4895 -1.2175
  508MOL0     H70093   6.650   9.308  11.449  3.8419  0.1440  0.2904
  508MOL0     H70094   6.532   9.210  11.639 -2.1722 -0.1008  4.1371
  508MOL0     H70095   6.412   9.316  11.574 -0.5091  0.4536  1.0274
  508MOL0     H70096   6.579   9.418  11.807 -3.7176  1.1662  3.9489
  508MOL0     H70097   6.454   9.500  11.733 -0.3818  0.2168  2.5142
  508MOL0     H70098   6.298   9.307  11.775  0.6618 -1.7095  0.7053
  508MOL0     H70099   6.349   9.411  11.910  0.8607  0.0495  0.6565
  508MOL0     H70100   6.495   9.032  12.032 -0.5903 -2.3876 -1.2159
  508MOL0     H70101   6.967   9.334  11.653 -0.8738 -0.4427  0.9017
  508MOL0     H70102   7.184   9.351  11.657  3.4977 -0.1248 -0.2641
  508MOL0     H70103   7.216   9.305  11.485  0.1544 -1.6181  0.7939
  508MOL0     H70104   7.292   9.452  11.554  0.5635 -0.0991  2.6047
  509MOL0     O70105   9.072   9.811   8.084  0.1185  0.8025  0.2923
  509MOL0     C70106   9.003   9.746   8.010  0.3454  0.3529 -0.7003
  509MOL0     O70107   9.012   9.610   7.982  0.8531 -0.5274 -0.3754
  509MOL0     C70108   9.125   9.537   8.005 -0.6127  0.3517  0.3400
  509MOL0     C70109   9.255   9.580   7.957  0.2269 -0.0161 -0.2442
  509MOL0     C70110   9.366   9.502   7.993  0.4334 -0.0013  0.4115
  509MOL0     C70111   9.358   9.372   8.051 -0.0146  0.0540 -0.3408
  509MOL0     O70112   9.473   9.305   8.073  0.4875  0.6031 -0.1079
  509MOL0     C70113   9.479   9.215   8.185  0.7230 -1.1073 -0.0804
  509MOL0     C70114   9.484   9.074   8.148  0.7132 -0.4560  0.9170
  509MOL0     C70115   9.486   8.993   8.280 -0.8527  0.2587  0.4541
  509MOL0     C70116   9.350   8.975   8.354  0.3135 -1.0389  0.6080
  509MOL0     C70117   9.346   8.852   8.446 -0.0494  1.6105  0.1569
  509MOL0     C70118   9.456   8.859   8.555  0.0116 -0.3327  0.5072
  509MOL0     C70119   9.423   8.975   8.649  0.0110  0.7543 -0.6047
  509MOL0     C70120   9.487   8.951   8.786  0.1743  0.5028 -0.4040
  509MOL0     N70121   9.630   8.954   8.776  0.1324 -0.0781  0.3853
  509MOL0     C70122   9.703   9.071   8.747  0.0126 -0.0848  0.1881
  509MOL0     C70123   9.838   9.036   8.729  0.0938 -0.3093  1.0185
  509MOL0     C70124   9.960   9.125   8.705 -0.8722  0.1513 -0.0237
  509MOL0     C70125  10.080   9.065   8.772 -0.0405 -0.1330 -0.1379
  509MOL0     C70126  10.198   9.154   8.734 -0.8441 -0.8447 -0.1314
  509MOL0     C70127  10.324   9.098   8.790 -0.3718  0.4404 -0.2409
  509MOL0     O70128  10.351   8.964   8.785  0.0950  0.0042 -0.0896
  509MOL0     C70129  10.462   8.909   8.840  0.3454 -0.2975 -0.2035
  509MOL0     C70130  10.452   8.768   8.856  0.7668  0.0210 -0.4532
  509MOL0     C70131  10.555   8.692   8.913 -0.9619  0.7971  0.1349
  509MOL0     C70132  10.528   8.536   8.923  0.5839 -0.5902 -0.3019
  509MOL0     C70133  10.670   8.758   8.962 -0.3202 -0.0935 -0.1289
  509MOL0     C70134  10.789   8.695   9.023  0.6800  0.7763 -0.2011
  509MOL0     O70135  10.883   8.781   9.086 -0.2034 -0.6815 -0.0460
  509MOL0     C70136  10.977   8.725   9.175  0.1467 -0.4944  0.6212
  509MOL0     C70137  11.102   8.677   9.133  0.3796 -1.4525 -0.3564
  509MOL0     C70138  11.203   8.630   9.218  1.1085  0.3882 -0.2443
  509MOL0     C70139  11.179   8.634   9.357  0.1007  1.0256 -1.0451
  509MOL0     O70140  11.275   8.592   9.445  0.2561  0.2350 -0.5647
  509MOL0     C70141  11.281   8.455   9.477 -0.1506  0.3850 -0.2258
  509MOL0     C70142  11.423   8.442   9.561  0.3140  0.2852  0.2529
  509MOL0     C70143  11.490   8.309   9.530 -0.0120 -0.5018  0.3686
  509MOL0     C70144  11.402   8.188   9.580 -0.4439 -0.6669  0.0241
  509MOL0     C70145  11.493   8.068   9.601 -0.3856 -0.3064  0.0093
  509MOL0     C70146  11.400   7.944   9.624  0.0125  0.2616 -0.5855
  509MOL0     C70147  11.492   7.823   9.643  0.1909 -0.3879 -0.5594
  509MOL0     C70148  11.405   7.695   9.678 -0.4012 -0.6373  0.3276
  509MOL0    Cl70149  11.528   7.568   9.709  0.4831 -0.3758  0.0792
  509MOL0     C70150  11.063   8.705   9.406 -1.6758 -1.1055 -0.5313
  509MOL0     C70151  10.965   8.750   9.313 -0.1119  0.0324  0.4106
  509MOL0     O70152  10.791   8.572   9.014  0.0133 -0.5887  0.0648
  509MOL0     C70153  10.674   8.902   8.956 -0.2448  0.0468  0.1307
  509MOL0     C70154  10.566   8.973   8.894  0.6877 -0.8372 -0.0502
  509MOL0     N70155   9.833   8.898   8.747 -0.9334 -0.0390  0.1114
  509MOL0     N70156   9.716   8.854   8.777 -0.2100 -0.0492 -0.0480
  509MOL0     C70157   9.225   9.341   8.089 -0.3223 -0.4078  0.1284
  509MOL0     C70158   9.108   9.418   8.074 -0.4772  0.0630 -0.5667
  509MOL0     C70159   8.887   9.819   7.943 -0.4940 -0.3888  0.6477
  509MOL0     C70160   8.801   9.748   7.853  0.4470  0.1768 -0.7064
  509MOL0     C70161   8.695   9.817   7.792 -1.0312  0.0688 -0.1872
  509MOL0     C70162   8.658   9.953   7.809 -1.1223  0.0707 -0.2620
  509MOL0     O70163   8.554  10.001   7.738  0.7290 -0.4404 -0.2778
  509MOL0     C70164   8.503  10.131   7.767 -0.8110 -0.2060  1.1953
  509MOL0     C70165   8.414  10.153   7.885  0.1396 -0.7613 -0.6461
  509MOL0     C70166   8.333  10.037   7.896 -0.0175 -0.1212 -1.0317
  509MOL0     C70167   8.229  10.039   8.012 -0.4221 -0.7667 -0.1758
  509MOL0     C70168   8.108   9.960   7.995 -0.1682  0.2619 -1.0614
  509MOL0     C70169   8.018   9.878   7.993  0.5994  0.8944  0.9199
  509MOL0     C70170   8.749  10.020   7.902  0.0547 -0.6415 -0.7978
  509MOL0     C70171   8.860   9.959   7.956  0.3144  0.0061 -0.9196
  509MOL0     C70172   8.920  10.057   8.065 -0.5346  1.4685 -0.6835
  509MOL0     H70173   9.278   9.665   7.894 -2.2552 -0.8673 -2.4708
  509MOL0     H70174   9.466   9.527   7.962 -0.7219  0.8918 -3.0202
  509MOL0     H70175   9.401   9.232   8.259  0.8645 -2.1089  0.3075
  509MOL0     H70176   9.570   9.241   8.240  0.4560  0.5101 -0.3304
  509MOL0     H70177   9.404   9.036   8.084  0.5499  1.3392  0.0087
  509MOL0     H70178   9.577   9.064   8.092 -0.0849  0.8322 -0.7115
  509MOL0     H70179   9.522   8.891   8.268  1.4639  1.3019 -3.3124
  509MOL0     H70180   9.544   9.051   8.353 -0.3339 -1.5983  1.5884
  509MOL0     H70181   9.318   9.074   8.390 -0.2227 -0.3548 -1.6132
  509MOL0     H70182   9.268   8.961   8.284  0.5420 -1.1695  0.3673
  509MOL0     H70183   9.348   8.754   8.398  1.6947  1.5043  0.3825
  509MOL0     H70184   9.249   8.853   8.498  0.1794 -1.1662  0.7943
  509MOL0     H70185   9.458   8.765   8.611  2.4560 -0.7497 -0.1627
  509MOL0     H70186   9.557   8.876   8.516 -0.4015 -0.5194 -0.6779
  509MOL0     H70187   9.315   8.985   8.667  0.0400  1.4086 -0.7724
  509MOL0     H70188   9.460   9.064   8.598 -1.0348  0.7994 -1.3330
  509MOL0     H70189   9.466   9.034   8.854 -3.4254 -0.3329 -0.2662
  509MOL0     H70190   9.453   8.863   8.842  1.4594  0.8310  0.9621
  509MOL0     H70191   9.666   9.173   8.747 -0.5211 -0.2557 -1.3001
  509MOL0     H70192   9.947   9.230   8.735  3.0939  1.0079 -0.7466
  509MOL0     H70193   9.978   9.133   8.597  2.0630 -0.3294  0.3733
  509MOL0     H70194  10.054   9.068   8.878  1.3799  0.4310  0.2111
  509MOL0     H70195  10.092   8.959   8.748  2.0289 -0.3526  1.5940
  509MOL0     H70196  10.212   9.158   8.625 -0.6834 -1.3854 -0.1346
  509MOL0     H70197  10.190   9.252   8.781 -2.9664 -0.6272 -0.8097
  509MOL0     H70198  10.406   9.165   8.760 -0.7044  0.5278 -0.9806
  509MOL0     H70199  10.314   9.103   8.899 -1.0615 -2.8888 -0.0475
  509MOL0     H70200  10.357   8.723   8.830  0.2742  0.8045 -0.0335
  509MOL0     H70201  10.595   8.472   8.865  1.2331  0.8434 -1.1808
  509MOL0     H70202  10.427   8.515   8.889  0.8025 -0.2676 -1.1829
  509MOL0     H70203  10.531   8.505   9.028 -1.7254 -0.3516 -0.1220
  509MOL0     H70204  11.113   8.684   9.026 -0.0457  0.6216 -0.3055
  509MOL0     H70205  11.292   8.593   9.168 -0.5925 -0.4028 -2.8777
  509MOL0     H70206  11.191   8.428   9.533 -1.6452  0.7779 -2.3030
  509MOL0     H70207  11.282   8.395   9.385 -0.3985  1.7309 -1.1432
  509MOL0     H70208  11.484   8.533   9.552  0.7717 -0.1916 -1.9456
  509MOL0     H70209  11.396   8.444   9.667 -4.5449 -2.9236 -0.5921
  509MOL0     H70210  11.582   8.316   9.589  1.7847 -0.3660 -2.2787
  509MOL0     H70211  11.512   8.307   9.423 -1.7249 -1.3802 -0.0071
  509MOL0     H70212  11.334   8.173   9.496 -2.8831  1.1423  1.5494
  509MOL0     H70213  11.353   8.211   9.675  0.4878 -2.5670  1.0297
  509MOL0     H70214  11.531   8.041   9.502 -2.9585 -0.6308 -0.9787
  509MOL0     H70215  11.570   8.078   9.678 -1.2228  1.5758  0.6588
  509MOL0     H70216  11.339   7.934   9.534 -2.9730 -0.8157  1.4329
  509MOL0     H70217  11.339   7.947   9.715  0.6874 -2.9699  0.0923
  509MOL0     H70218  11.561   7.843   9.726 -0.0969  0.0893 -0.4253
  509MOL0     H70219  11.545   7.818   9.548 -2.1122  2.6931 -2.2244
  509MOL0     H70220  11.332   7.680   9.597 -0.6890  1.2086  0.2047
  509MOL0     H70221  11.337   7.712   9.762 -0.0525 -1.6473  0.8376
  509MOL0     H70222  11.057   8.722   9.513  1.3603 -1.1584 -0.2574
  509MOL0     H70223  10.889   8.811   9.361 -0.3630 -0.9328  1.2585
  509MOL0     H70224  10.760   8.948   9.003  1.0014 -2.6567  0.7050
  509MOL0     H70225  10.583   9.080   8.900 -0.7858 -0.6529  2.8596
  509MOL0     H70226   9.211   9.246   8.140  0.2824 -0.0426  0.9820
  509MOL0     H70227   9.007   9.387   8.100 -1.8526 -0.9649 -5.9915
  509MOL0     H70228   8.805   9.640   7.844 -0.0339  0.1138 -0.1689
  509MOL0     H70229   8.623   9.762   7.732 -0.4269  0.3523 -1.1910
  509MOL0     H70230   8.591  10.196   7.766 -0.2257 -0.9650  1.9251
  509MOL0     H70231   8.454  10.161   7.675  1.9579 -1.3252 -0.7798
  509MOL0     H70232   8.345  10.236   7.867  1.6137  0.6020 -0.2084
  509MOL0     H70233   8.455  10.174   7.984 -0.6396  4.5684 -1.1536
  509MOL0     H70234   8.285  10.016   7.800  1.3218  0.8917 -1.9600
  509MOL0     H70235   8.390   9.946   7.916 -0.4778 -0.6607 -2.0840
  509MOL0     H70236   8.198  10.143   8.010 -0.0635 -0.6612 -0.3759
  509MOL0     H70237   8.280  10.020   8.107  0.0988  1.4760  0.0381
  509MOL0     H70238   7.936   9.810   7.996  0.8023  0.6715  1.6882
  509MOL0     H70239   8.726  10.121   7.935  0.3204 -1.2857  1.5229
  509MOL0     H70240   8.901  10.007   8.160 -3.2050  1.0935 -1.3303
  509MOL0     H70241   9.028  10.078   8.066 -0.5277  1.4740 -1.2492
  509MOL0     H70242   8.866  10.152   8.061  1.1489  2.5801  0.8530
  510MOL0     O70243   8.614   6.049   1.431 -0.3062 -0.3590 -0.1758
  510MOL0     C70244   8.557   5.945   1.463 -0.4474  0.6701  0.0984
  510MOL0     O70245   8.428   5.911   1.421  0.0337 -0.7554  0.3905
  510MOL0     C70246   8.374   5.941   1.292 -0.4815 -0.2581  0.0869
  510MOL0     C70247   8.355   5.834   1.201 -0.3087 -1.0544 -0.5755
  510MOL0     C70248   8.299   5.855   1.073  0.1715  0.0429  0.3467
  510MOL0     C70249   8.260   5.981   1.027 -1.0213  0.5875  0.0542
  510MOL0     O70250   8.209   5.988   0.902  0.0026 -1.0713  0.6027
  510MOL0     C70251   8.197   5.876   0.814 -0.3545 -0.4983 -0.3070
  510MOL0     C70252   8.141   5.925   0.680 -0.6185  0.5436  0.0608
  510MOL0     C70253   8.179   5.839   0.550  0.4515  1.0257 -0.0967
  510MOL0     C70254   8.333   5.829   0.534  0.4038 -0.7571  0.4108
  510MOL0     C70255   8.363   5.769   0.393 -0.5009  0.3296  0.5126
  510MOL0     C70256   8.514   5.776   0.363 -1.0981  0.0082  0.7076
  510MOL0     C70257   8.570   5.923   0.320  0.2139 -0.1153 -0.2305
  510MOL0     C70258   8.712   5.911   0.280  0.7156  0.6521 -0.6695
  510MOL0     N70259   8.720   5.841   0.155  0.4193 -0.2549 -1.4493
  510MOL0     C70260   8.671   5.893   0.033 -0.6415 -0.2494  0.1236
  510MOL0     C70261   8.725   5.800  -0.056  0.4021  0.1451 -0.3115
  510MOL0     C70262   8.689   5.796  -0.202 -0.4631 -0.1681  0.2905
  510MOL0     C70263   8.559   5.864  -0.251  0.1339  0.2851 -0.3835
  510MOL0     C70264   8.447   5.770  -0.198  0.5149 -0.4929  0.9831
  510MOL0     C70265   8.313   5.843  -0.225 -0.4174  0.3325  0.8910
  510MOL0     O70266   8.309   5.884  -0.365  0.4670  0.4895 -0.2757
  510MOL0     C70267   8.235   5.999  -0.401  0.3313  0.2406  0.5044
  510MOL0     C70268   8.154   6.076  -0.309  0.0370  0.0993 -0.7767
  510MOL0     C70269   8.097   6.196  -0.343 -0.1444 -0.5727 -0.4163
  510MOL0     C70270   8.023   6.265  -0.228  0.2493 -0.6489 -0.5247
  510MOL0     C70271   8.112   6.246  -0.471 -0.2579 -0.6732  0.1592
  510MOL0     C70272   8.047   6.377  -0.520  0.6144  0.1169  0.3590
  510MOL0     O70273   8.040   6.378  -0.651  0.2373  0.2088 -0.0597
  510MOL0     C70274   7.979   6.476  -0.714  0.8269 -0.0125  0.0571
  510MOL0     C70275   7.854   6.525  -0.684 -0.0158  0.0145 -0.4155
  510MOL0     C70276   7.792   6.620  -0.767  0.5318  0.2556  0.3561
  510MOL0     C70277   7.863   6.670  -0.881  0.3978 -0.4789  0.1792
  510MOL0     O70278   7.814   6.773  -0.964  0.5275  0.0457 -1.2398
  510MOL0     C70279   7.686   6.822  -0.931  0.1122  0.6719  0.6730
  510MOL0     C70280   7.660   6.945  -1.021 -0.7691 -1.2108 -0.3790
  510MOL0     C70281   7.757   7.056  -0.984 -0.3497  0.0917  0.0327
  510MOL0     C70282   7.754   7.168  -1.080  0.3250 -0.4809 -0.1398
  510MOL0     C70283   7.876   7.259  -1.082  0.4188  0.2193  0.7266
  510MOL0     C70284   7.841   7.384  -1.158 -0.9053  0.2252  0.7105
  510MOL0     C70285   7.955   7.480  -1.179  0.4170 -0.4804 -0.3164
  510MOL0     C70286   7.910   7.616  -1.239 -0.3211 -0.4609  0.2879
  510MOL0    Cl70287   7.799   7.699  -1.120  0.3355  0.2698 -0.3520
  510MOL0     C70288   7.996   6.630  -0.895  0.9731  0.0833  0.9222
  510MOL0     C70289   8.057   6.542  -0.814  0.2395  0.9436 -0.4841
  510MOL0     O70290   8.008   6.460  -0.443 -0.2295 -0.3694  0.2326
  510MOL0     C70291   8.179   6.163  -0.570  0.1225  0.5048 -0.4423
  510MOL0     C70292   8.237   6.045  -0.535 -0.1241  0.0930 -0.4134
  510MOL0     N70293   8.804   5.704   0.017  0.6304 -0.6639 -0.1807
  510MOL0     N70294   8.801   5.732   0.143  0.4084 -0.5752  1.3105
  510MOL0     C70295   8.285   6.088   1.119  0.3659 -0.6049 -0.8245
  510MOL0     C70296   8.334   6.067   1.251  0.4968  0.2286  0.2766
  510MOL0     C70297   8.625   5.867   1.569  0.0570  0.3515  0.6993
  510MOL0     C70298   8.566   5.742   1.597 -0.0245  0.0087  0.0100
  510MOL0     C70299   8.630   5.647   1.672 -0.3194  0.0337  0.4849
  510MOL0     C70300   8.738   5.688   1.750 -0.1086 -0.4902  0.0357
  510MOL0     O70301   8.784   5.610   1.846 -0.6931  0.4470 -0.7112
  510MOL0     C70302   8.760   5.655   1.980 -0.1862 -0.3855  0.6967
  510MOL0     C70303   8.708   5.543   2.065 -0.7701  0.0798 -0.1769
  510MOL0     C70304   8.588   5.460   2.017 -0.1578  0.3521  0.1473
  510MOL0     C70305   8.542   5.346   2.113  0.3132 -0.2898  0.1719
  510MOL0     C70306   8.422   5.282   2.059 -0.3462  0.4512  0.2668
  510MOL0     C70307   8.321   5.231   2.038  0.6037  0.0372 -0.2664
  510MOL0     C70308   8.784   5.818   1.746 -0.0756  0.3352  0.5559
  510MOL0     C70309   8.734   5.907   1.652  0.1419  0.8384 -0.3585
  510MOL0     C70310   8.797   6.045   1.636  1.1423 -0.0699  0.9276
  510MOL0     H70311   8.385   5.735   1.235 -0.9019 -1.4220 -1.1113
  510MOL0     H70312   8.296   5.762   1.018  0.7730 -1.5360  2.8184
  510MOL0     H70313   8.125   5.806   0.856  1.5840 -0.2627  3.8880
  510MOL0     H70314   8.290   5.822   0.798 -0.4071 -1.1265  1.4040
  510MOL0     H70315   8.033   5.940   0.683 -0.3214  2.9436  1.6863
  510MOL0     H70316   8.175   6.029   0.671 -0.7609  0.4866 -1.3853
  510MOL0     H70317   8.130   5.742   0.559  2.8972 -0.6681 -3.0347
  510MOL0     H70318   8.133   5.884   0.462 -4.6297 -0.0393  1.7016
  510MOL0     H70319   8.376   5.927   0.558  0.5645 -0.3601 -1.3592
  510MOL0     H70320   8.377   5.761   0.608 -2.8497 -0.6951  2.6091
  510MOL0     H70321   8.307   5.813   0.310  3.1115  1.6293 -1.4786
  510MOL0     H70322   8.337   5.663   0.390  2.3734 -0.4580 -1.3929
  510MOL0     H70323   8.574   5.752   0.452  2.2295  3.1212 -0.4395
  510MOL0     H70324   8.534   5.712   0.277  3.1346  2.7549 -0.6563
  510MOL0     H70325   8.562   5.989   0.407  2.0373 -0.9400  0.6010
  510MOL0     H70326   8.509   5.960   0.236  2.1708 -3.2468 -3.2647
  510MOL0     H70327   8.758   6.010   0.277  0.1752  1.0940  2.2468
  510MOL0     H70328   8.771   5.868   0.362 -1.6107  0.2417  0.8746
  510MOL0     H70329   8.620   5.987   0.016  1.4235  1.6746  3.5545
  510MOL0     H70330   8.681   5.691  -0.231 -1.2984  0.7560 -3.3512
  510MOL0     H70331   8.778   5.840  -0.248 -0.3298 -1.7480 -1.0467
  510MOL0     H70332   8.545   5.967  -0.217 -1.1195 -0.3946  1.3390
  510MOL0     H70333   8.565   5.841  -0.357 -0.3401 -3.7726  0.3217
  510MOL0     H70334   8.437   5.676  -0.253 -0.5965  1.2832 -2.1309
  510MOL0     H70335   8.453   5.769  -0.089  0.7624  2.4325  1.0647
  510MOL0     H70336   8.223   5.785  -0.202 -0.7076 -0.2368 -1.4404
  510MOL0     H70337   8.318   5.929  -0.157 -2.1213  2.4729 -1.4791
  510MOL0     H70338   8.137   6.054  -0.204 -2.5023 -0.6458 -1.2696
  510MOL0     H70339   8.055   6.369  -0.217 -2.8287  0.6009 -2.1029
  510MOL0     H70340   8.030   6.212  -0.133  1.1528 -0.5066 -0.5089
  510MOL0     H70341   7.920   6.269  -0.266  0.1234 -1.4401 -0.2880
  510MOL0     H70342   7.805   6.490  -0.593  3.5270  2.5773  2.7541
  510MOL0     H70343   7.695   6.656  -0.734  1.0725 -0.1576  2.5879
  510MOL0     H70344   7.599   6.758  -0.952  0.3282  0.4776  0.3505
  510MOL0     H70345   7.681   6.846  -0.825  3.7126 -0.8396  1.3321
  510MOL0     H70346   7.674   6.922  -1.127 -2.0337  3.1731 -1.6825
  510MOL0     H70347   7.556   6.977  -1.011  0.4075  3.4588 -0.8325
  510MOL0     H70348   7.858   7.017  -0.997 -0.8479 -1.0138 -0.6547
  510MOL0     H70349   7.747   7.084  -0.878  0.7186  0.8057 -0.0358
  510MOL0     H70350   7.662   7.225  -1.069  0.8135  0.3429 -0.2197
  510MOL0     H70351   7.755   7.115  -1.175  2.6372  1.0205 -1.0446
  510MOL0     H70352   7.898   7.285  -0.978 -1.2000  1.1549  0.8598
  510MOL0     H70353   7.953   7.203  -1.136 -2.2237 -1.0230 -2.0262
  510MOL0     H70354   7.760   7.437  -1.108 -1.9612 -1.2316  0.6169
  510MOL0     H70355   7.803   7.351  -1.255  1.1375  0.0560 -0.0885
  510MOL0     H70356   8.033   7.438  -1.243  2.3785  1.3323  0.7419
  510MOL0     H70357   8.011   7.496  -1.087 -1.2390  1.9452  0.3609
  510MOL0     H70358   7.869   7.622  -1.340 -2.8620 -2.6549  1.0873
  510MOL0     H70359   7.993   7.686  -1.227  0.8642 -1.5377 -1.2000
  510MOL0     H70360   8.053   6.684  -0.969  2.7389 -0.7954  1.5727
  510MOL0     H70361   8.154   6.505  -0.846 -1.1961  0.0602 -4.3802
  510MOL0     H70362   8.185   6.195  -0.674 -0.5412 -1.8148 -1.2550
  510MOL0     H70363   8.286   5.987  -0.613 -0.0769 -3.5667  2.0509
  510MOL0     H70364   8.258   6.189   1.091  0.2722 -0.4263 -0.1227
  510MOL0     H70365   8.342   6.152   1.317  0.8256  0.6829 -0.3382
  510MOL0     H70366   8.469   5.719   1.555  0.0164  1.0916 -0.7195
  510MOL0     H70367   8.599   5.546   1.697  0.2797  0.0447  1.3527
  510MOL0     H70368   8.840   5.710   2.031 -0.8180 -0.3096  1.6353
  510MOL0     H70369   8.675   5.724   1.973 -0.1514 -0.5293 -3.1630
  510MOL0     H70370   8.687   5.580   2.165  1.5332  0.5430  0.1935
  510MOL0     H70371   8.789   5.471   2.079 -0.4707  0.6732  1.3482
  510MOL0     H70372   8.500   5.514   1.981  1.0097 -0.4617 -4.7325
  510MOL0     H70373   8.624   5.414   1.924 -1.4311  2.4708 -1.4860
  510MOL0     H70374   8.519   5.389   2.211  0.9843  1.7270 -0.5158
  510MOL0     H70375   8.618   5.273   2.143 -1.0535 -1.9805 -0.2724
  510MOL0     H70376   8.226   5.185   2.023 -0.6293  2.9965 -2.1814
  510MOL0     H70377   8.856   5.862   1.814  0.1278  2.4569 -0.9416
  510MOL0     H70378   8.828   6.067   1.533 -1.3258 -1.7846 -0.3010
  510MOL0     H70379   8.723   6.112   1.680  0.5380  0.6394 -1.0525
  510MOL0     H70380   8.878   6.046   1.709  1.7952 -0.4525  0.2169
  511MOL0     O70381   5.961  11.295   8.571  0.7365 -0.3260  0.0087
  511MOL0     C70382   6.064  11.289   8.504 -1.1024 -0.9750  0.1233
  511MOL0     O70383   6.062  11.311   8.367  0.1948 -0.8738  0.2003
  511MOL0     C70384   5.944  11.348   8.289  0.0529  0.5639  0.1641
  511MOL0     C70385   5.960  11.443   8.185 -1.0161  0.4080  0.5231
  511MOL0     C70386   5.854  11.486   8.098  0.3509 -1.1297 -0.4929
  511MOL0     C70387   5.726  11.438   8.122 -0.7628  0.4258  0.1016
  511MOL0     O70388   5.633  11.475   8.024  0.6184 -0.2191 -0.0801
  511MOL0     C70389   5.530  11.391   7.977  0.3244  0.2282  0.3427
  511MOL0     C70390   5.454  11.439   7.859  0.0434 -0.4064  0.0253
  511MOL0     C70391   5.401  11.587   7.895  0.6498 -0.6847 -0.5341
  511MOL0     C70392   5.314  11.637   7.773  0.1935  0.5354 -0.7850
  511MOL0     C70393   5.289  11.786   7.775  1.0194 -0.6376 -0.5728
  511MOL0     C70394   5.203  11.828   7.657  0.8263 -0.0079 -0.9304
  511MOL0     C70395   5.165  11.977   7.689  0.3531 -0.1517  0.4601
  511MOL0     C70396   5.045  12.014   7.605 -0.5062  0.4040 -0.4074
  511MOL0     N70397   5.083  12.012   7.464  0.5347  0.3130 -0.2046
  511MOL0     C70398   4.992  11.972   7.363 -0.6926 -0.0040 -1.1725
  511MOL0     C70399   5.067  11.993   7.252  0.8300 -0.2957  0.1734
  511MOL0     C70400   5.036  11.961   7.106 -0.5145 -0.7411  0.6388
  511MOL0     C70401   4.915  11.880   7.089  0.0319 -0.1879 -0.2201
  511MOL0     C70402   4.869  11.851   6.940  1.4515  0.0529 -0.6139
  511MOL0     C70403   4.752  11.744   6.942 -0.1089  0.2671  0.8079
  511MOL0     O70404   4.649  11.765   7.043  0.4227  0.2512 -0.1395
  511MOL0     C70405   4.574  11.653   7.089 -0.0366 -0.7660  0.4256
  511MOL0     C70406   4.583  11.525   7.021  0.8050 -0.1430  0.1426
  511MOL0     C70407   4.501  11.421   7.073 -0.4693 -1.1230  0.7838
  511MOL0     C70408   4.504  11.293   6.993  0.6431  0.2240  0.7722
  511MOL0     C70409   4.431  11.430   7.198 -0.6981 -0.3057  0.0489
  511MOL0     C70410   4.375  11.316   7.274  0.1041  0.1524 -0.2678
  511MOL0     O70411   4.273  11.356   7.349  0.2106  0.4762 -0.6291
  511MOL0     C70412   4.190  11.263   7.404 -0.3549 -0.7992  0.2177
  511MOL0     C70413   4.226  11.177   7.505 -0.3063  0.1387  0.5714
  511MOL0     C70414   4.135  11.082   7.559 -0.6899  0.1041  0.1876
  511MOL0     C70415   4.002  11.079   7.519 -0.1774  0.6399 -0.2168
  511MOL0     O70416   3.905  10.998   7.563 -0.3870  0.0285 -0.0964
  511MOL0     C70417   3.951  10.866   7.602  0.3026 -0.3607 -0.6602
  511MOL0     C70418   4.006  10.778   7.482  0.6417 -0.8342 -0.4197
  511MOL0     C70419   4.038  10.632   7.510  0.5136  0.4115 -0.1517
  511MOL0     C70420   3.912  10.542   7.520  0.9919  0.5434  1.1050
  511MOL0     C70421   3.946  10.406   7.583 -0.8233  0.6017  0.3529
  511MOL0     C70422   3.846  10.295   7.564 -1.0481  0.4530 -0.3571
  511MOL0     C70423   3.706  10.340   7.586  0.7687  0.0749 -0.1743
  511MOL0     C70424   3.614  10.224   7.578  0.6491 -0.2117 -1.0413
  511MOL0    Cl70425   3.645  10.103   7.715  0.0504 -0.3013  0.4879
  511MOL0     C70426   3.957  11.177   7.430 -0.3670 -0.3500 -0.5688
  511MOL0     C70427   4.050  11.267   7.370 -0.4948  1.1427  0.4665
  511MOL0     O70428   4.400  11.197   7.252  0.4547  0.3940  0.8720
  511MOL0     C70429   4.435  11.557   7.258  0.3099  0.5042 -0.0949
  511MOL0     C70430   4.491  11.667   7.201  0.4586 -1.1270 -0.0437
  511MOL0     N70431   5.191  12.048   7.283 -0.3844 -0.0704 -0.6720
  511MOL0     N70432   5.199  12.058   7.408  0.4832 -0.0759  0.5765
  511MOL0     C70433   5.713  11.336   8.214 -1.0257  0.3388  0.6021
  511MOL0     C70434   5.812  11.297   8.295  0.1196  0.5436  0.4066
  511MOL0     C70435   6.196  11.279   8.574  0.9314 -0.8606  0.2578
  511MOL0     C70436   6.207  11.313   8.711 -0.2385  0.2837  0.3100
  511MOL0     C70437   6.323  11.284   8.779 -0.4592 -0.7638  0.8301
  511MOL0     C70438   6.435  11.237   8.718 -0.1039 -0.1960 -0.8532
  511MOL0     O70439   6.562  11.211   8.779  0.0857  0.0072 -0.2110
  511MOL0     C70440   6.595  11.299   8.889 -0.1065 -0.2784  0.5385
  511MOL0     C70441   6.662  11.216   8.991 -0.4965 -0.9689 -0.5122
  511MOL0     C70442   6.569  11.117   9.061  0.5461  0.4392 -0.2290
  511MOL0     C70443   6.508  11.179   9.182 -0.4818  0.2360  0.0236
  511MOL0     C70444   6.404  11.290   9.149  0.1954  0.7807  0.0648
  511MOL0     C70445   6.319  11.376   9.129 -0.1872  0.1393  0.5008
  511MOL0     C70446   6.428  11.215   8.577 -0.4062 -0.1018 -0.6686
  511MOL0     C70447   6.310  11.233   8.508 -0.5869 -0.0648  0.4519
  511MOL0     C70448   6.309  11.171   8.370  0.7578  0.4828  0.2004
  511MOL0     H70449   6.059  11.481   8.163 -1.3495  0.7651 -0.4397
  511MOL0     H70450   5.867  11.573   8.035  2.6409 -1.1885 -0.1790
  511MOL0     H70451   5.453  11.382   8.054 -0.8639  0.6400 -0.7506
  511MOL0     H70452   5.581  11.298   7.951  0.3918  0.4216 -0.2316
  511MOL0     H70453   5.516  11.442   7.768 -1.2042  1.5245 -0.8286
  511MOL0     H70454   5.372  11.372   7.830 -0.3928 -0.7125  1.8341
  511MOL0     H70455   5.340  11.582   7.986 -1.7688  0.2755 -2.0022
  511MOL0     H70456   5.475  11.668   7.904 -2.7474  2.5585  1.0260
  511MOL0     H70457   5.364  11.605   7.681  1.0899  0.8792 -0.4231
  511MOL0     H70458   5.225  11.574   7.767 -1.3074  2.5217 -0.4764
  511MOL0     H70459   5.386  11.834   7.779  0.8856 -0.3377 -0.9442
  511MOL0     H70460   5.223  11.809   7.860 -1.8622  1.4263 -3.1548
  511MOL0     H70461   5.255  11.815   7.562 -1.7913 -1.6372 -2.2717
  511MOL0     H70462   5.115  11.764   7.645 -0.4356  0.8759  2.5378
  511MOL0     H70463   5.251  12.042   7.670 -0.2209  0.5466  0.2174
  511MOL0     H70464   5.152  12.003   7.794 -1.9070  0.4518  0.0945
  511MOL0     H70465   4.965  11.940   7.612 -0.5916  0.5723  0.6158
  511MOL0     H70466   5.022  12.117   7.634  2.5698  1.7122 -2.1685
  511MOL0     H70467   4.895  11.923   7.361 -0.0307 -1.5452  1.0257
  511MOL0     H70468   5.118  11.913   7.053 -1.7628 -2.6140  0.3049
  511MOL0     H70469   5.016  12.055   7.053 -0.9774  0.0475  2.1336
  511MOL0     H70470   4.947  11.784   7.129 -0.3098  0.2544  1.1614
  511MOL0     H70471   4.826  11.904   7.147 -2.3039 -2.0632 -2.7501
  511MOL0     H70472   4.827  11.945   6.904 -2.4817 -2.4337 -3.3023
  511MOL0     H70473   4.943  11.810   6.870  2.1278 -2.2226  1.3016
  511MOL0     H70474   4.715  11.736   6.839  1.3476  0.4189  0.2433
  511MOL0     H70475   4.809  11.654   6.965  0.1515  0.5887  1.4311
  511MOL0     H70476   4.637  11.515   6.928 -1.9187  1.9166 -1.8139
  511MOL0     H70477   4.561  11.216   7.046 -1.5606 -2.5391 -0.5970
  511MOL0     H70478   4.547  11.311   6.894  2.3860 -1.0963  1.2368
  511MOL0     H70479   4.408  11.242   6.979  0.9772 -0.0774 -0.6215
  511MOL0     H70480   4.329  11.188   7.536 -0.2401  0.9012  0.1095
  511MOL0     H70481   4.181  11.021   7.636  3.5146  0.8386 -1.4879
  511MOL0     H70482   4.029  10.869   7.679  1.2598  3.8772 -1.5319
  511MOL0     H70483   3.865  10.821   7.653  1.1042  1.2630  2.3853
  511MOL0     H70484   3.933  10.790   7.401 -1.3607  1.0416  1.5058
  511MOL0     H70485   4.099  10.817   7.438  0.5293 -0.3465 -0.2351
  511MOL0     H70486   4.099  10.613   7.598  0.4633  1.4226  0.1149
  511MOL0     H70487   4.095  10.584   7.430  1.4233 -0.6623  1.1106
  511MOL0     H70488   3.874  10.539   7.418  4.9357  0.5189 -0.5210
  511MOL0     H70489   3.841  10.585   7.592 -0.8617  0.7430 -0.7464
  511MOL0     H70490   4.048  10.375   7.557 -1.1731  0.3649 -0.7735
  511MOL0     H70491   3.954  10.424   7.690 -1.6753 -0.5433  0.6287
  511MOL0     H70492   3.869  10.215   7.634  0.2151 -0.9632 -2.3119
  511MOL0     H70493   3.852  10.260   7.460  0.2014  1.6293 -0.7091
  511MOL0     H70494   3.668  10.411   7.512  0.8130  2.6875  2.1175
  511MOL0     H70495   3.697  10.388   7.684 -4.3618 -1.1727  0.2337
  511MOL0     H70496   3.617  10.181   7.478 -0.6540  0.2061 -1.2753
  511MOL0     H70497   3.508  10.247   7.592  0.5768 -1.0436 -0.0818
  511MOL0     H70498   3.852  11.184   7.404 -1.1793 -1.7910  1.9671
  511MOL0     H70499   4.022  11.327   7.284  1.2480 -3.1246 -3.5374
  511MOL0     H70500   4.400  11.578   7.359  2.6205  1.4054  0.5779
  511MOL0     H70501   4.478  11.762   7.252 -0.6328 -2.1847  1.7815
  511MOL0     H70502   5.615  11.297   8.242 -0.4996 -2.0966 -0.6389
  511MOL0     H70503   5.791  11.225   8.374  3.3906  0.5245  1.4053
  511MOL0     H70504   6.124  11.362   8.762 -1.6439 -1.0093 -0.6459
  511MOL0     H70505   6.312  11.304   8.885 -0.1393  2.4702  0.3678
  511MOL0     H70506   6.674  11.368   8.858  0.5391 -1.4993 -0.6376
  511MOL0     H70507   6.509  11.354   8.928  1.0106  1.5877  0.5164
  511MOL0     H70508   6.708  11.287   9.060 -0.3435 -1.4944 -0.0654
  511MOL0     H70509   6.748  11.164   8.949  0.4663  2.8219 -3.8700
  511MOL0     H70510   6.490  11.100   8.988 -0.4328 -0.3785  0.9831
  511MOL0     H70511   6.610  11.019   9.083 -2.6657 -1.0180 -0.1473
  511MOL0     H70512   6.589  11.218   9.244  0.4272 -0.6673 -0.5601
  511MOL0     H70513   6.451  11.098   9.229 -0.4486 -1.8639 -3.1879
  511MOL0     H70514   6.241  11.446   9.108 -2.6630 -2.2566  1.1306
  511MOL0     H70515   6.518  11.167   8.541 -0.3403 -1.8969  1.6212
  511MOL0     H70516   6.231  11.096   8.353  0.5943  1.3700 -4.5630
  511MOL0     H70517   6.274  11.248   8.300 -0.3643 -1.2981 -1.2885
  511MOL0     H70518   6.398  11.122   8.328 -0.6633 -0.1943 -2.2359
  512MOL0     O70519   5.109   0.156   4.874  0.3060 -0.2475  0.1290
  512MOL0     C70520   5.037   0.254   4.847  0.0330  0.0525 -0.5326
  512MOL0     O70521   5.071   0.350   4.760  0.0988 -0.4101 -0.2602
  512MOL0     C70522   5.204   0.343   4.707  0.1338  0.1943 -0.4727
  512MOL0     C70523   5.315   0.366   4.793  0.2357 -0.1812  1.6139
  512MOL0     C70524   5.453   0.350   4.747  0.9835  0.5557  0.1505
  512MOL0     C70525   5.469   0.302   4.612 -0.1724  1.6302 -0.9271
  512MOL0     O70526   5.600   0.263   4.586  0.3205 -0.6539 -0.3377
  512MOL0     C70527   5.612   0.141   4.515  0.7342  0.8000  0.0724
  512MOL0     C70528   5.739   0.068   4.566 -0.6026 -0.3291  0.8099
  512MOL0     C70529   5.726   0.016   4.710 -0.5765 -0.0775 -0.5406
  512MOL0     C70530   5.756   0.135   4.810  0.2576  0.1096 -0.4502
  512MOL0     C70531   5.835   0.089   4.940  0.0020  0.0949 -0.0004
  512MOL0     C70532   5.745   0.028   5.047 -1.4334 -0.0310 -0.2112
  512MOL0     C70533   5.815   0.002   5.182  0.1587 -0.7768  0.0020
  512MOL0     C70534   5.957  -0.068   5.154  0.7877  0.1723  0.5440
  512MOL0     N70535   6.001  -0.144   5.271  0.1310  0.7878 -0.0512
  512MOL0     C70536   6.104  -0.093   5.347 -0.1281  0.5671  1.0982
  512MOL0     C70537   6.128  -0.187   5.445  0.5057 -0.2436 -0.1953
  512MOL0     C70538   6.223  -0.165   5.555 -0.2677 -0.0021 -0.1352
  512MOL0     C70539   6.158  -0.101   5.678 -0.9451  0.6820 -0.0460
  512MOL0     C70540   6.115  -0.213   5.774  0.3976 -0.7809  0.1707
  512MOL0     C70541   6.027  -0.148   5.885 -0.0667  0.1532  0.0538
  512MOL0     O70542   6.101  -0.141   6.007 -0.1136  0.3007  0.1763
  512MOL0     C70543   6.104  -0.251   6.091  0.8219  0.3690 -0.4502
  512MOL0     C70544   6.161  -0.235   6.219  0.1311 -0.7644 -0.6896
  512MOL0     C70545   6.158  -0.332   6.319 -0.2696  0.8033  0.6227
  512MOL0     C70546   6.210  -0.297   6.461  0.8874  0.7841 -0.3050
  512MOL0     C70547   6.089  -0.452   6.286  0.1033  0.2391  0.1399
  512MOL0     C70548   6.052  -0.559   6.385  0.6340 -0.4279  0.2912
  512MOL0     O70549   5.952  -0.639   6.354 -0.0164 -0.3559 -0.2106
  512MOL0     C70550   5.915  -0.750   6.424  0.3791  0.4338  0.3616
  512MOL0     C70551   6.009  -0.850   6.438  0.4394  0.3574  1.0284
  512MOL0     C70552   5.990  -0.980   6.497 -0.0008 -0.0820  0.5125
  512MOL0     C70553   5.861  -1.006   6.542  1.0321  0.4570 -0.2571
  512MOL0     O70554   5.848  -1.121   6.613  0.2670  0.5353  0.2606
  512MOL0     C70555   5.946  -1.230   6.613 -0.3807  0.1635 -0.2994
  512MOL0     C70556   5.876  -1.363   6.650 -0.7811  0.4085  0.5537
  512MOL0     C70557   5.977  -1.477   6.631 -1.2138 -0.3394 -0.3534
  512MOL0     C70558   5.987  -1.536   6.491 -0.2410  0.4333 -0.1897
  512MOL0     C70559   6.067  -1.673   6.497  0.5041 -0.3136  0.1891
  512MOL0     C70560   6.116  -1.723   6.354 -0.1960  0.0453  0.2357
  512MOL0     C70561   6.194  -1.859   6.381  0.0469 -0.1709 -0.3398
  512MOL0     C70562   6.217  -1.908   6.236 -0.7012 -0.5415  0.7881
  512MOL0    Cl70563   6.292  -2.065   6.241 -0.0953  0.2741  0.3858
  512MOL0     C70564   5.753  -0.913   6.528 -0.0669  0.6311  0.4909
  512MOL0     C70565   5.777  -0.784   6.462  0.1933  0.1981  0.2042
  512MOL0     O70566   6.116  -0.569   6.485 -0.6056 -0.3393 -0.0988
  512MOL0     C70567   6.042  -0.476   6.154  0.8908 -0.2375 -0.4979
  512MOL0     C70568   6.044  -0.375   6.053 -0.4303  0.4538 -0.8796
  512MOL0     N70569   6.022  -0.278   5.431  0.1230 -0.1463 -0.2713
  512MOL0     N70570   5.953  -0.252   5.325  0.6122  0.6914 -0.9326
  512MOL0     C70571   5.362   0.293   4.524  0.3136  0.5008 -0.3863
  512MOL0     C70572   5.229   0.311   4.577  0.4808 -1.1382 -0.7477
  512MOL0     C70573   4.898   0.265   4.901 -0.1162  0.7087  0.1788
  512MOL0     C70574   4.810   0.364   4.864  0.3538 -0.4208  0.3982
  512MOL0     C70575   4.673   0.359   4.892  0.6326  0.4242  0.3348
  512MOL0     C70576   4.615   0.250   4.957  0.1007 -0.0523  0.1450
  512MOL0     O70577   4.478   0.222   4.966 -0.4024  0.3492 -0.1161
  512MOL0     C70578   4.412   0.210   4.840  0.2398 -0.1484 -0.6651
  512MOL0     C70579   4.307   0.101   4.839  0.4054 -0.6992 -0.0213
  512MOL0     C70580   4.172   0.154   4.889  0.2082 -0.6254 -0.0691
  512MOL0     C70581   4.069   0.045   4.887 -0.3446  0.4229 -0.3263
  512MOL0     C70582   4.093  -0.035   5.005  0.1673 -0.7796 -0.8326
  512MOL0     C70583   4.105  -0.098   5.110 -0.7921  0.6090  0.1911
  512MOL0     C70584   4.708   0.156   5.007  0.7035  0.3095  0.8750
  512MOL0     C70585   4.842   0.167   4.980  0.1561  0.1256  0.2887
  512MOL0     C70586   4.929   0.073   5.064  0.9173 -0.5911  1.1498
  512MOL0     H70587   5.304   0.394   4.898  0.4049 -2.5996  2.3493
  512MOL0     H70588   5.539   0.366   4.812  0.1726 -0.8859  1.6693
  512MOL0     H70589   5.614   0.168   4.409  1.5779  1.3662  0.2172
  512MOL0     H70590   5.523   0.079   4.527 -0.4817  1.8247 -2.6449
  512MOL0     H70591   5.773  -0.008   4.495  0.4235  2.9239 -2.5178
  512MOL0     H70592   5.820   0.141   4.565 -1.0812  0.2577 -1.5785
  512MOL0     H70593   5.635  -0.039   4.734 -0.0555 -0.1760  1.4089
  512MOL0     H70594   5.815  -0.046   4.719  0.5743  1.4740 -0.7418
  512MOL0     H70595   5.807   0.214   4.755  0.2419  0.7285  0.3976
  512MOL0     H70596   5.667   0.185   4.849  0.2225  0.8849 -1.4938
  512MOL0     H70597   5.893   0.171   4.983  0.9170  0.3414 -1.6211
  512MOL0     H70598   5.909   0.010   4.926  0.0448 -0.1755  1.5210
  512MOL0     H70599   5.664   0.101   5.053  0.2617  1.8964  0.2371
  512MOL0     H70600   5.707  -0.068   5.011 -1.7634  1.1480 -3.2820
  512MOL0     H70601   5.758  -0.063   5.249 -0.0820  1.3204  1.9711
  512MOL0     H70602   5.845   0.091   5.237 -0.0493 -0.0564 -1.0288
  512MOL0     H70603   5.964  -0.129   5.063 -0.5485 -2.2215  1.9247
  512MOL0     H70604   6.022   0.019   5.144  0.5899  0.4664  1.6704
  512MOL0     H70605   6.153   0.004   5.347  0.9601  0.0424  0.4007
  512MOL0     H70606   6.303  -0.100   5.518 -0.5817  0.6088  0.2322
  512MOL0     H70607   6.269  -0.263   5.565  3.5146  1.6125  0.1806
  512MOL0     H70608   6.238  -0.051   5.733  0.7984 -2.1460  0.2049
  512MOL0     H70609   6.081  -0.027   5.655 -1.4047  0.1840 -0.1322
  512MOL0     H70610   6.060  -0.295   5.728 -0.8620 -0.0334  0.2974
  512MOL0     H70611   6.200  -0.259   5.825 -1.1018 -1.4617  2.2011
  512MOL0     H70612   6.002  -0.046   5.856 -2.5210 -0.2898  0.3943
  512MOL0     H70613   5.926  -0.189   5.894 -0.8441  2.1727  0.8925
  512MOL0     H70614   6.196  -0.134   6.237  2.1164 -0.9475 -3.0637
  512MOL0     H70615   6.259  -0.200   6.450  1.6823  0.3885 -0.2912
  512MOL0     H70616   6.287  -0.368   6.492  1.3840  2.6498  3.1954
  512MOL0     H70617   6.129  -0.276   6.531  1.7166 -1.5522  1.4730
  512MOL0     H70618   6.108  -0.825   6.401 -0.3530  1.5164 -0.4074
  512MOL0     H70619   6.077  -1.044   6.507 -0.4611 -0.6547  0.9694
  512MOL0     H70620   5.992  -1.249   6.516 -0.4349  0.6823 -0.4311
  512MOL0     H70621   6.021  -1.200   6.687  0.3406 -1.8424 -0.1616
  512MOL0     H70622   5.835  -1.378   6.750  0.6465  0.7026  1.1942
  512MOL0     H70623   5.784  -1.364   6.590  0.5648  3.1291 -1.7783
  512MOL0     H70624   5.953  -1.552   6.707  2.0563 -3.2543 -1.8818
  512MOL0     H70625   6.080  -1.454   6.659  0.7032 -3.7328 -3.6184
  512MOL0     H70626   6.052  -1.469   6.434 -0.2088 -1.0041 -1.9053
  512MOL0     H70627   5.886  -1.540   6.448 -0.6952 -3.9488  0.8514
  512MOL0     H70628   6.160  -1.659   6.552  0.2629 -0.3871  0.6195
  512MOL0     H70629   6.009  -1.751   6.547  3.9252 -1.3485  2.8770
  512MOL0     H70630   6.184  -1.655   6.302  0.5488 -0.7385  0.1529
  512MOL0     H70631   6.028  -1.740   6.292 -0.7736 -4.1953  1.8725
  512MOL0     H70632   6.140  -1.929   6.446  2.3066 -0.3614  1.4712
  512MOL0     H70633   6.292  -1.849   6.428  1.4230 -1.8696 -2.6470
  512MOL0     H70634   6.258  -1.826   6.176 -0.6191  1.2944  3.1871
  512MOL0     H70635   6.126  -1.926   6.178  1.1799  1.9163 -3.4212
  512MOL0     H70636   5.660  -0.960   6.559  0.1375 -1.3372 -1.5995
  512MOL0     H70637   5.697  -0.715   6.440 -0.3703 -0.7351 -0.7579
  512MOL0     H70638   5.987  -0.569   6.139  2.5869 -1.3365 -0.1465
  512MOL0     H70639   5.996  -0.406   5.961 -0.3993  0.0629 -0.7654
  512MOL0     H70640   5.383   0.254   4.425 -1.0848  0.0889 -0.5493
  512MOL0     H70641   5.147   0.280   4.513 -0.7684 -2.0231  1.2270
  512MOL0     H70642   4.845   0.451   4.810 -0.1042  0.6652  1.7973
  512MOL0     H70643   4.599   0.429   4.855  1.5175  0.2795 -1.8268
  512MOL0     H70644   4.356   0.301   4.816  0.0143 -0.5472 -1.6923
  512MOL0     H70645   4.482   0.187   4.759 -0.7297 -3.8502 -0.6312
  512MOL0     H70646   4.343   0.018   4.901  1.4596  1.5224  2.5549
  512MOL0     H70647   4.295   0.052   4.742 -1.6945 -3.9474  1.6834
  512MOL0     H70648   4.175   0.191   4.992  0.2651 -0.5279 -0.1047
  512MOL0     H70649   4.135   0.248   4.845 -3.5606 -0.7872  2.3102
  512MOL0     H70650   4.080  -0.029   4.807 -0.5604 -0.8824  0.8020
  512MOL0     H70651   3.973   0.096   4.879 -1.1560 -1.1798 -1.4608
  512MOL0     H70652   4.129  -0.132   5.208  0.1573 -0.5763 -0.4159
  512MOL0     H70653   4.665   0.068   5.055  2.8672 -2.8200 -2.3655
  512MOL0     H70654   4.978  -0.002   5.001 -1.2437 -1.9010  0.9155
  512MOL0     H70655   5.006   0.130   5.117  1.4226 -0.0028 -0.1595
  512MOL0     H70656   4.858   0.023   5.130 -1.9736  1.6468 -0.0439
  513MOL0     O70657   4.099   5.693   5.645 -0.1632  0.3959  0.1698
  513MOL0     C70658   4.151   5.585   5.630 -0.3350  0.0267  0.5527
  513MOL0     O70659   4.116   5.474   5.685  0.1185 -0.3615 -0.5510
  513MOL0     C70660   4.001   5.462   5.756  0.1895  0.8197  0.6580
  513MOL0     C70661   3.891   5.402   5.698  0.2361 -0.4931  0.9286
  513MOL0     C70662   3.772   5.383   5.774 -0.0815 -0.7077  0.1966
  513MOL0     C70663   3.761   5.416   5.907 -0.8487  0.6480 -0.0057
  513MOL0     O70664   3.650   5.399   5.977  0.5333 -0.6592  0.8246
  513MOL0     C70665   3.648   5.334   6.101 -0.1327 -0.3492 -0.2733
  513MOL0     C70666   3.664   5.183   6.086 -0.8291  0.3086  0.0389
  513MOL0     C70667   3.680   5.105   6.221  0.5311  0.4876  0.5662
  513MOL0     C70668   3.561   5.025   6.275 -0.4335  0.0756 -0.3617
  513MOL0     C70669   3.576   4.936   6.405 -0.3890 -0.7498  0.0578
  513MOL0     C70670   3.656   4.814   6.390 -0.3256  0.2835  0.5635
  513MOL0     C70671   3.611   4.724   6.281  0.0717  0.5443  0.2214
  513MOL0     C70672   3.466   4.660   6.302 -0.1478 -0.3252  0.6369
  513MOL0     N70673   3.451   4.615   6.440 -0.4863  0.6941  0.2549
  513MOL0     C70674   3.501   4.488   6.468 -1.2072 -0.8714 -0.0047
  513MOL0     C70675   3.443   4.450   6.580  0.4235  0.8075 -0.5405
  513MOL0     C70676   3.456   4.312   6.649 -0.2997  0.1302 -1.1096
  513MOL0     C70677   3.323   4.228   6.629  0.5040 -0.0735 -0.9963
  513MOL0     C70678   3.294   4.178   6.494  0.4063 -0.2302  0.2023
  513MOL0     C70679   3.163   4.092   6.488  0.0230  0.9710 -0.2757
  513MOL0     O70680   3.060   4.162   6.534 -0.6969 -0.7551 -0.3444
  513MOL0     C70681   2.951   4.090   6.575 -0.1847 -0.4401  0.1360
  513MOL0     C70682   2.910   3.963   6.538  0.3480  0.0876 -0.5753
  513MOL0     C70683   2.788   3.914   6.594  0.1901  1.0624  0.4265
  513MOL0     C70684   2.743   3.769   6.564  0.0670 -0.2290 -0.4638
  513MOL0     C70685   2.706   3.987   6.681 -0.5477 -0.2587  0.3485
  513MOL0     C70686   2.582   3.934   6.754  0.7647 -0.8393 -0.1132
  513MOL0     O70687   2.546   3.966   6.884 -0.7252 -1.2916  0.4861
  513MOL0     C70688   2.449   3.886   6.947  0.5675 -0.5458  0.1028
  513MOL0     C70689   2.333   3.944   6.986  0.1457  0.4954  0.1139
  513MOL0     C70690   2.229   3.855   7.013 -1.3789 -0.7297  0.0346
  513MOL0     C70691   2.236   3.714   7.026 -0.3505  0.1030 -0.0079
  513MOL0     O70692   2.122   3.654   7.072 -0.3844  0.4018 -0.3820
  513MOL0     C70693   2.122   3.541   7.168  0.2563  0.2490  0.8651
  513MOL0     C70694   1.985   3.493   7.194  0.6459  0.3818 -0.1878
  513MOL0     C70695   1.915   3.578   7.296  0.8032 -0.0684 -0.3774
  513MOL0     C70696   1.954   3.561   7.440  0.0382  0.0429 -0.1384
  513MOL0     C70697   1.891   3.656   7.548 -0.1848  0.9079  0.5914
  513MOL0     C70698   1.946   3.655   7.692  0.6196 -0.2351  1.6796
  513MOL0     C70699   1.867   3.750   7.785  0.3389  0.8092 -0.3286
  513MOL0     C70700   1.958   3.815   7.889  0.2450 -0.9467 -1.1618
  513MOL0    Cl70701   1.849   3.915   7.989  0.1352  0.1096  0.1947
  513MOL0     C70702   2.359   3.662   7.009  0.2969 -0.0079  0.0061
  513MOL0     C70703   2.466   3.746   6.964  0.4734 -0.1901 -0.1330
  513MOL0     O70704   2.501   3.885   6.675  0.4485  0.4977  0.3995
  513MOL0     C70705   2.757   4.114   6.720 -0.3981  0.0543 -0.3435
  513MOL0     C70706   2.873   4.159   6.663  0.3211 -0.9948 -0.0028
  513MOL0     N70707   3.354   4.556   6.627 -0.0233 -0.5339 -0.4848
  513MOL0     N70708   3.350   4.641   6.530  0.2675  0.3066  0.0418
  513MOL0     C70709   3.865   5.488   5.959 -0.5655  0.6482 -0.0984
  513MOL0     C70710   3.989   5.519   5.885 -0.5116  0.4607  0.2182
  513MOL0     C70711   4.276   5.576   5.569  0.2848  0.9867  0.3938
  513MOL0     C70712   4.381   5.660   5.604 -0.1865 -0.1731 -0.3847
  513MOL0     C70713   4.510   5.642   5.555  0.5746 -0.4294  0.0271
  513MOL0     C70714   4.531   5.549   5.454  0.4341  0.7388 -0.6216
  513MOL0     O70715   4.657   5.516   5.400  0.2584  0.4123  0.4284
  513MOL0     C70716   4.748   5.626   5.359 -0.1003 -0.0219 -0.2414
  513MOL0     C70717   4.723   5.665   5.216  0.4112  0.0749  0.5314
  513MOL0     C70718   4.752   5.541   5.132 -0.4593  0.5883  0.4524
  513MOL0     C70719   4.754   5.577   4.983 -0.7865  0.3705  0.3172
  513MOL0     C70720   4.801   5.460   4.907  0.2190 -0.3526  0.9362
  513MOL0     C70721   4.842   5.368   4.845 -0.6637  1.6169 -0.0786
  513MOL0     C70722   4.430   5.463   5.421 -0.2741  0.0271 -0.7471
  513MOL0     C70723   4.303   5.475   5.470  0.5603 -0.7459  0.2132
  513MOL0     C70724   4.208   5.375   5.419  0.7634  0.7822  0.2299
  513MOL0     H70725   3.897   5.358   5.599  1.5659 -0.6608  1.0675
  513MOL0     H70726   3.694   5.335   5.717 -0.4767  1.2812 -1.0540
  513MOL0     H70727   3.556   5.356   6.156  0.3015  0.3722  0.1878
  513MOL0     H70728   3.724   5.381   6.165  0.1183 -2.1578  0.8254
  513MOL0     H70729   3.596   5.136   6.014  0.2517  0.8972 -1.4131
  513MOL0     H70730   3.757   5.166   6.032 -2.0401 -1.2486 -1.6442
  513MOL0     H70731   3.759   5.031   6.210 -1.4777 -1.6595 -0.5200
  513MOL0     H70732   3.718   5.170   6.299 -1.7159  0.3377  1.8778
  513MOL0     H70733   3.488   5.104   6.297 -1.7173 -0.7817 -1.3898
  513MOL0     H70734   3.515   4.963   6.198  1.4546  0.2147 -1.6894
  513MOL0     H70735   3.476   4.917   6.445 -0.4134  4.0840  3.0081
  513MOL0     H70736   3.621   4.997   6.483 -0.3365 -0.2922 -0.3277
  513MOL0     H70737   3.756   4.851   6.368  0.0172 -1.9327 -2.1183
  513MOL0     H70738   3.668   4.758   6.483 -1.1485  0.9179  1.0572
  513MOL0     H70739   3.681   4.640   6.274 -0.0999  0.2097  2.0025
  513MOL0     H70740   3.616   4.772   6.184  2.0840  1.5180  0.7631
  513MOL0     H70741   3.398   4.744   6.286  1.6562  0.9932 -0.4710
  513MOL0     H70742   3.445   4.573   6.239 -0.8436 -0.3678  0.9141
  513MOL0     H70743   3.569   4.420   6.418 -0.2737 -0.1575  0.2603
  513MOL0     H70744   3.463   4.328   6.757  1.5238 -0.2731 -1.1263
  513MOL0     H70745   3.548   4.262   6.616 -0.5399 -0.8556 -0.3129
  513MOL0     H70746   3.315   4.140   6.693  1.1958  0.9228  0.5056
  513MOL0     H70747   3.246   4.299   6.661  0.5209 -0.6025  0.2629
  513MOL0     H70748   3.275   4.266   6.433 -2.9644 -0.3797  0.8293
  513MOL0     H70749   3.373   4.115   6.451 -1.0042 -3.5013  2.0612
  513MOL0     H70750   3.142   4.047   6.390 -3.0912  0.8689  0.3120
  513MOL0     H70751   3.173   4.010   6.560  0.3098 -1.0305 -2.4752
  513MOL0     H70752   2.972   3.903   6.472 -4.1888 -2.4413 -3.0836
  513MOL0     H70753   2.657   3.762   6.497 -0.7934  2.1197  0.2916
  513MOL0     H70754   2.715   3.734   6.663 -1.8682  2.5177  0.0723
  513MOL0     H70755   2.826   3.714   6.518  1.0713 -2.1350  3.2446
  513MOL0     H70756   2.316   4.052   6.983  0.9491  0.6552  0.9655
  513MOL0     H70757   2.137   3.893   7.056 -1.3724  0.2580 -0.7852
  513MOL0     H70758   2.175   3.459   7.118  0.2336 -1.1138  2.9393
  513MOL0     H70759   2.181   3.569   7.256 -0.4004  1.6077  0.8954
  513MOL0     H70760   1.932   3.475   7.100  0.1493 -2.6033  0.5834
  513MOL0     H70761   1.992   3.395   7.243  1.4069  1.7998  2.7696
  513MOL0     H70762   1.806   3.573   7.298  0.7268  1.3502  0.5872
  513MOL0     H70763   1.944   3.681   7.275  1.7838 -0.5154 -1.3067
  513MOL0     H70764   2.062   3.567   7.452  0.0958 -1.5203  0.3800
  513MOL0     H70765   1.930   3.456   7.461 -2.5472  0.3056 -1.3412
  513MOL0     H70766   1.899   3.761   7.520  3.4331  0.7379  0.5713
  513MOL0     H70767   1.785   3.628   7.552 -0.4031  0.9414 -2.7902
  513MOL0     H70768   2.049   3.691   7.680  0.6272 -0.8709 -0.6487
  513MOL0     H70769   1.948   3.551   7.726 -4.4881 -1.7620 -1.4924
  513MOL0     H70770   1.786   3.691   7.829  2.0558 -1.1909  0.3202
  513MOL0     H70771   1.816   3.827   7.726  0.9329  1.7143  0.3108
  513MOL0     H70772   2.034   3.872   7.835  1.3388 -1.0795  0.1753
  513MOL0     H70773   1.998   3.740   7.958 -1.0840 -1.4755 -0.9300
  513MOL0     H70774   2.388   3.560   7.031 -0.7523 -1.0413 -2.9373
  513MOL0     H70775   2.564   3.703   6.942 -0.0179 -0.5450 -1.8197
  513MOL0     H70776   2.699   4.172   6.791 -3.2538 -1.0860 -1.5903
  513MOL0     H70777   2.887   4.264   6.686 -4.3041  0.2578 -1.7800
  513MOL0     H70778   3.857   5.523   6.061 -2.2994  0.1319 -0.0268
  513MOL0     H70779   4.085   5.566   5.903 -0.4029  0.3479 -0.0538
  513MOL0     H70780   4.381   5.741   5.676 -1.5196 -1.7195  1.4276
  513MOL0     H70781   4.598   5.698   5.586  1.1665 -2.1885  1.6877
  513MOL0     H70782   4.723   5.714   5.420 -1.7429 -1.0669  0.6678
  513MOL0     H70783   4.852   5.598   5.378  0.5240  1.9049 -0.5816
  513MOL0     H70784   4.788   5.752   5.204  0.3708  0.2430  1.5020
  513MOL0     H70785   4.617   5.691   5.205  0.1650 -0.9881  0.1911
  513MOL0     H70786   4.853   5.509   5.158  0.1391 -1.4490 -3.6164
  513MOL0     H70787   4.686   5.458   5.157  1.5144 -0.4547  2.6157
  513MOL0     H70788   4.824   5.657   4.959 -0.3918  1.3853  4.1509
  513MOL0     H70789   4.652   5.604   4.955 -1.0501 -0.8337  0.0559
  513MOL0     H70790   4.880   5.287   4.786  0.5071 -1.0377  3.9059
  513MOL0     H70791   4.464   5.397   5.341 -1.5529  0.5297 -1.7293
  513MOL0     H70792   4.163   5.327   5.507  0.1308  2.4371  0.8421
  513MOL0     H70793   4.126   5.424   5.365  0.9450  2.7290  1.6272
  513MOL0     H70794   4.250   5.302   5.349 -2.1230 -3.0684  2.1258
  514MOL0     O70795  10.740   3.990   6.639  0.2059 -0.9121 -0.1401
  514MOL0     C70796  10.644   3.953   6.697 -0.6200  0.3516 -0.1288
  514MOL0     O70797  10.559   3.856   6.644  0.3110 -0.4393 -0.1865
  514MOL0     C70798  10.603   3.777   6.544 -0.7693 -0.7336 -0.0663
  514MOL0     C70799  10.526   3.757   6.430  0.3674  0.3949 -0.3534
  514MOL0     C70800  10.574   3.684   6.325  0.5613 -0.4880 -0.2810
  514MOL0     C70801  10.685   3.602   6.346  0.1256  0.6603  0.5222
  514MOL0     O70802  10.713   3.515   6.247  0.1431 -0.3418  0.3492
  514MOL0     C70803  10.610   3.417   6.204  0.4645 -0.1919 -1.2860
  514MOL0     C70804  10.662   3.310   6.109  0.0323  0.5146  0.1024
  514MOL0     C70805  10.757   3.364   5.998 -1.2776 -0.2569  0.3150
  514MOL0     C70806  10.687   3.474   5.906  0.3932  0.0573 -0.7858
  514MOL0     C70807  10.624   3.421   5.776 -0.1995 -0.4958  1.2576
  514MOL0     C70808  10.545   3.531   5.701  0.1272 -0.3958  0.5060
  514MOL0     C70809  10.448   3.455   5.611 -0.7593 -0.1807  0.8450
  514MOL0     C70810  10.343   3.555   5.548 -0.1904  0.3501  0.4197
  514MOL0     N70811  10.401   3.660   5.460 -0.4537 -0.2419  0.1994
  514MOL0     C70812  10.429   3.790   5.505 -0.4100 -0.5468 -0.2514
  514MOL0     C70813  10.518   3.835   5.419 -0.1070 -0.4127  0.4163
  514MOL0     C70814  10.584   3.971   5.439 -0.3574  0.6353  1.3949
  514MOL0     C70815  10.706   3.961   5.527 -0.4648 -0.0229 -0.0033
  514MOL0     C70816  10.673   3.951   5.676 -0.3631  0.7802 -0.7558
  514MOL0     C70817  10.809   3.908   5.742 -0.4896  0.3085  0.0588
  514MOL0     O70818  10.781   3.871   5.878 -0.1899 -0.2087  0.0903
  514MOL0     C70819  10.791   3.973   5.963  0.1361 -0.5860 -0.0325
  514MOL0     C70820  10.796   4.117   5.937 -0.4847  0.4521  0.5966
  514MOL0     C70821  10.792   4.207   6.044  0.0767 -0.2791  0.4355
  514MOL0     C70822  10.746   4.348   6.009  0.5263 -0.8194  0.2092
  514MOL0     C70823  10.795   4.164   6.179 -0.4198  0.5101  0.1653
  514MOL0     C70824  10.783   4.258   6.287 -0.5164 -0.0552  0.6708
  514MOL0     O70825  10.654   4.276   6.324  0.4301  0.2633 -0.3914
  514MOL0     C70826  10.623   4.356   6.427  0.1468 -0.5349 -1.1679
  514MOL0     C70827  10.603   4.319   6.560  0.4593 -0.3166 -0.2046
  514MOL0     C70828  10.571   4.413   6.661  0.7913  0.0555 -0.4238
  514MOL0     C70829  10.555   4.549   6.636 -0.8149 -0.1416  0.8066
  514MOL0     O70830  10.537   4.650   6.723 -0.2268  0.1210  0.3909
  514MOL0     C70831  10.613   4.648   6.841  0.3456 -0.1386 -0.4726
  514MOL0     C70832  10.530   4.717   6.953 -0.3429 -0.4298 -0.0709
  514MOL0     C70833  10.603   4.766   7.078 -0.4725  0.0211 -0.6879
  514MOL0     C70834  10.726   4.685   7.121  0.0129 -0.5937 -1.2285
  514MOL0     C70835  10.688   4.541   7.160 -0.3456  0.4909 -0.2569
  514MOL0     C70836  10.794   4.470   7.251  0.0374 -0.0541  0.2548
  514MOL0     C70837  10.773   4.518   7.393 -0.3928 -0.0482  0.3236
  514MOL0     C70838  10.871   4.438   7.494 -0.2768  0.2437  0.3921
  514MOL0    Cl70839  10.829   4.260   7.524 -0.1580 -0.2384  0.2104
  514MOL0     C70840  10.583   4.588   6.505 -0.2989 -0.6338  0.8375
  514MOL0     C70841  10.615   4.491   6.401 -0.1577  0.4410 -0.5764
  514MOL0     O70842  10.883   4.324   6.321  0.1162  0.2624 -0.0724
  514MOL0     C70843  10.801   4.033   6.208  0.4475  0.5733 -0.2247
  514MOL0     C70844  10.793   3.938   6.098 -0.0600 -0.1901  0.1185
  514MOL0     N70845  10.532   3.739   5.319 -0.4706 -0.0805  0.0725
  514MOL0     N70846  10.467   3.634   5.343  0.1249  0.0905  0.2053
  514MOL0     C70847  10.757   3.609   6.459 -0.0706 -0.2218  0.1550
  514MOL0     C70848  10.724   3.707   6.555  0.3087  0.0297  0.1205
  514MOL0     C70849  10.604   4.025   6.820  0.0044  0.1301  0.7636
  514MOL0     C70850  10.473   3.993   6.872 -0.5818 -0.2149  0.5982
  514MOL0     C70851  10.435   4.045   6.995  0.6454  0.3974 -0.2427
  514MOL0     C70852  10.527   4.119   7.072 -0.3955 -0.4168  0.2371
  514MOL0     O70853  10.488   4.141   7.194 -0.0569  0.0199 -0.2136
  514MOL0     C70854  10.574   4.104   7.295  0.8899  1.4739  0.2215
  514MOL0     C70855  10.508   4.137   7.430  0.5857 -0.6014 -1.0271
  514MOL0     C70856  10.446   4.280   7.416 -0.4430  1.5548 -0.0622
  514MOL0     C70857  10.429   4.349   7.550 -0.1046  0.2201  0.6339
  514MOL0     C70858  10.415   4.494   7.532 -0.1191 -0.5567  0.3494
  514MOL0     C70859  10.396   4.613   7.499  0.4630 -0.8932  0.1097
  514MOL0     C70860  10.646   4.164   7.020  1.2284  0.8852  0.0086
  514MOL0     C70861  10.682   4.121   6.892  0.4462  0.3838  1.3321
  514MOL0     C70862  10.806   4.177   6.842  0.2980  0.1245  0.6854
  514MOL0     H70863  10.427   3.803   6.435  1.1052  2.1629 -1.2680
  514MOL0     H70864  10.510   3.677   6.238 -0.9256 -0.9708  0.8046
  514MOL0     H70865  10.527   3.458   6.145 -2.5290 -4.4976 -0.5328
  514MOL0     H70866  10.572   3.373   6.296  1.8748  1.5874  0.2452
  514MOL0     H70867  10.717   3.241   6.174 -1.1845  0.8552  1.5566
  514MOL0     H70868  10.582   3.245   6.073  0.4302  0.6959 -1.1617
  514MOL0     H70869  10.842   3.400   6.057 -0.5784 -2.3592  0.6848
  514MOL0     H70870  10.794   3.283   5.934 -0.2081  0.1481  0.4100
  514MOL0     H70871  10.611   3.527   5.964  3.0997  4.9345 -1.2413
  514MOL0     H70872  10.761   3.548   5.877 -0.1259  1.5373  1.3961
  514MOL0     H70873  10.561   3.335   5.799 -5.0922  1.7450 -2.1366
  514MOL0     H70874  10.707   3.396   5.709 -0.5023  0.8346  0.3562
  514MOL0     H70875  10.496   3.600   5.771  1.3288  1.1640 -0.1141
  514MOL0     H70876  10.608   3.602   5.647 -0.0334 -1.8215 -1.6629
  514MOL0     H70877  10.391   3.380   5.667 -0.1492 -2.0929 -0.9652
  514MOL0     H70878  10.502   3.406   5.529 -2.3514  2.0770 -1.7501
  514MOL0     H70879  10.262   3.510   5.491  0.4269  0.5149 -0.6175
  514MOL0     H70880  10.290   3.610   5.626 -1.5914 -2.3264  1.4773
  514MOL0     H70881  10.389   3.844   5.591  2.5759  1.4081  0.0502
  514MOL0     H70882  10.521   4.050   5.482 -0.0215  2.4862 -1.2971
  514MOL0     H70883  10.613   4.005   5.340  0.1751  0.6189  1.5380
  514MOL0     H70884  10.770   3.877   5.497  0.0620  0.2569  0.3168
  514MOL0     H70885  10.754   4.053   5.493  0.6233 -0.8313 -0.7371
  514MOL0     H70886  10.635   4.049   5.707 -1.4859 -0.1255  0.8446
  514MOL0     H70887  10.603   3.870   5.698  0.9524  0.1168  1.3439
  514MOL0     H70888  10.852   3.814   5.707  1.9848  1.4108 -0.0640
  514MOL0     H70889  10.874   3.995   5.727 -0.3125  0.1590 -0.0442
  514MOL0     H70890  10.793   4.152   5.835  0.3536  1.1906  0.8054
  514MOL0     H70891  10.796   4.427   6.067  0.0304 -1.8590  2.1479
  514MOL0     H70892  10.637   4.356   6.003  0.5256  1.2951  1.7389
  514MOL0     H70893  10.784   4.378   5.910 -0.2030  1.5427  0.5809
  514MOL0     H70894  10.607   4.221   6.607  0.3633  0.8643  2.4400
  514MOL0     H70895  10.558   4.382   6.764 -0.2356  0.6734 -0.3505
  514MOL0     H70896  10.641   4.549   6.879 -2.6726 -1.0069 -0.2591
  514MOL0     H70897  10.709   4.700   6.830  1.4096 -1.3635  2.0503
  514MOL0     H70898  10.469   4.797   6.911  1.5662  1.5031  0.6380
  514MOL0     H70899  10.462   4.638   6.985  1.3702 -1.8969  0.1304
  514MOL0     H70900  10.529   4.767   7.158 -0.9954 -0.1279 -1.1693
  514MOL0     H70901  10.632   4.871   7.064 -0.5666 -0.0263 -1.2505
  514MOL0     H70902  10.770   4.732   7.209 -1.6817 -0.5647 -0.3513
  514MOL0     H70903  10.798   4.676   7.039 -0.8801  1.1193 -2.2428
  514MOL0     H70904  10.594   4.530   7.215 -1.5913 -1.5391 -2.6199
  514MOL0     H70905  10.665   4.485   7.069 -2.3888 -3.2871  2.3079
  514MOL0     H70906  10.894   4.501   7.217  0.0536 -1.3974 -1.0149
  514MOL0     H70907  10.774   4.363   7.253  1.6121 -0.3680  0.7218
  514MOL0     H70908  10.669   4.520   7.428 -0.1419 -0.5284  1.1150
  514MOL0     H70909  10.814   4.619   7.396 -0.4583 -0.0432  1.7652
  514MOL0     H70910  10.874   4.489   7.590 -0.4683 -0.2160  0.6475
  514MOL0     H70911  10.970   4.442   7.448  0.5116 -2.9879  1.4837
  514MOL0     H70912  10.591   4.693   6.478  1.7150 -0.5140  1.7666
  514MOL0     H70913  10.640   4.526   6.301  2.9931 -0.8486 -0.3630
  514MOL0     H70914  10.772   3.995   6.305 -0.6755 -0.0148 -0.7712
  514MOL0     H70915  10.776   3.833   6.117 -0.4831 -0.3415 -1.0754
  514MOL0     H70916  10.851   3.565   6.492  1.0290  1.9134  0.0801
  514MOL0     H70917  10.787   3.716   6.643 -0.2544  1.9834  0.3694
  514MOL0     H70918  10.411   3.925   6.815 -4.0330  5.0699 -2.8872
  514MOL0     H70919  10.344   4.008   7.041  0.8284 -1.3184 -1.2073
  514MOL0     H70920  10.584   3.995   7.298  0.1782  1.3907 -0.2703
  514MOL0     H70921  10.674   4.148   7.283  1.2346  0.6266 -0.1289
  514MOL0     H70922  10.582   4.130   7.510  3.3718 -1.2221 -3.4819
  514MOL0     H70923  10.423   4.075   7.460 -1.0398  1.3129 -1.4659
  514MOL0     H70924  10.507   4.340   7.348  1.3248  0.7393  0.7516
  514MOL0     H70925  10.346   4.278   7.371 -0.3931 -1.0063 -0.2215
  514MOL0     H70926  10.515   4.336   7.617  1.1311  1.2888 -0.6734
  514MOL0     H70927  10.335   4.314   7.593 -2.1040  0.9273 -2.8032
  514MOL0     H70928  10.380   4.716   7.476  2.4148 -0.8774 -1.3574
  514MOL0     H70929  10.708   4.235   7.075  2.2947 -0.8714  1.1903
  514MOL0     H70930  10.794   4.204   6.737 -1.7450 -2.7766  0.0523
  514MOL0     H70931  10.846   4.263   6.897  0.4580  0.5447 -0.0663
  514MOL0     H70932  10.873   4.091   6.852 -2.0868 -1.8035  0.9736
  515MOL0     O70933   5.659   1.055   6.406  0.0951 -0.7914  0.5183
  515MOL0     C70934   5.716   1.021   6.508  0.2200 -0.4000 -0.3079
  515MOL0     O70935   5.655   1.027   6.635 -0.5260 -0.1869  0.0762
  515MOL0     C70936   5.528   1.084   6.644 -1.3849 -0.4677 -1.6590
  515MOL0     C70937   5.423   1.019   6.702 -0.8340  0.7688  0.2593
  515MOL0     C70938   5.301   1.078   6.709 -0.4451  0.0852  0.0554
  515MOL0     C70939   5.283   1.214   6.683  0.2547 -0.3323 -1.1614
  515MOL0     O70940   5.163   1.286   6.682 -0.7256  0.0147 -0.4630
  515MOL0     C70941   5.063   1.236   6.774  0.4285 -0.5737  0.1478
  515MOL0     C70942   4.950   1.338   6.789  0.1008 -0.2569  0.1834
  515MOL0     C70943   4.870   1.376   6.666  1.1853 -0.2046  0.6960
  515MOL0     C70944   4.790   1.498   6.698  0.2639  0.2906  0.8978
  515MOL0     C70945   4.741   1.554   6.563 -0.0215 -0.1041 -0.5042
  515MOL0     C70946   4.757   1.702   6.547 -0.4198 -0.0474  0.0797
  515MOL0     C70947   4.677   1.768   6.426 -0.0016  0.4204 -0.2489
  515MOL0     C70948   4.729   1.905   6.395  0.2139 -1.1342 -0.2222
  515MOL0     N70949   4.642   1.965   6.298  1.1577 -0.3299  0.1130
  515MOL0     C70950   4.642   1.958   6.160 -0.3772 -0.0501  0.4418
  515MOL0     C70951   4.551   2.055   6.128  0.0861 -0.4995  0.6943
  515MOL0     C70952   4.544   2.106   5.986 -0.1526  0.5865  0.0364
  515MOL0     C70953   4.543   2.262   5.969  1.2352  0.2476  0.1855
  515MOL0     C70954   4.412   2.316   6.030 -0.6108 -0.4140 -0.0649
  515MOL0     C70955   4.368   2.446   5.960 -0.9213 -0.7439  0.0867
  515MOL0     O70956   4.236   2.438   5.923 -1.1443 -0.4158  0.0613
  515MOL0     C70957   4.141   2.480   6.015 -0.2707 -0.2994  1.3138
  515MOL0     C70958   4.165   2.551   6.140  0.4055 -1.0845 -0.3305
  515MOL0     C70959   4.050   2.584   6.221 -0.5916 -0.1586 -0.2413
  515MOL0     C70960   4.093   2.651   6.355  1.7089  0.6597  0.1207
  515MOL0     C70961   3.917   2.563   6.178  0.3682  0.2384  0.4455
  515MOL0     C70962   3.786   2.597   6.250  0.7930  0.7311 -0.7715
  515MOL0     O70963   3.680   2.517   6.239 -0.5106  0.9456  0.6144
  515MOL0     C70964   3.564   2.503   6.313  0.1240 -0.3304  0.1938
  515MOL0     C70965   3.538   2.570   6.438  0.2856 -0.3288 -0.4553
  515MOL0     C70966   3.409   2.570   6.499 -0.0095  0.4990  0.1320
  515MOL0     C70967   3.308   2.489   6.447  0.0216 -0.1380 -0.2015
  515MOL0     O70968   3.177   2.469   6.486 -0.6484  0.0049  0.7564
  515MOL0     C70969   3.131   2.538   6.596 -0.3744  0.9413  0.4670
  515MOL0     C70970   2.995   2.491   6.654  0.2141 -0.1838 -0.0321
  515MOL0     C70971   2.992   2.344   6.715  0.8190  0.4551  0.6461
  515MOL0     C70972   2.878   2.333   6.823 -0.1422 -1.0106  0.3612
  515MOL0     C70973   2.864   2.191   6.896  0.4204 -0.1723  0.9328
  515MOL0     C70974   3.009   2.139   6.939 -0.3512  0.2699 -0.6156
  515MOL0     C70975   3.001   2.029   7.049  0.6241 -1.1147 -0.7057
  515MOL0     C70976   2.982   2.108   7.175  0.0544  0.2623 -0.4698
  515MOL0    Cl70977   2.905   2.010   7.294  0.5451  0.0316  0.0377
  515MOL0     C70978   3.334   2.417   6.328  0.1413  0.6164 -0.3533
  515MOL0     C70979   3.456   2.431   6.256  0.0088 -0.2468  0.8729
  515MOL0     O70980   3.791   2.694   6.323  0.5374  0.0804 -0.0749
  515MOL0     C70981   3.905   2.500   6.047 -0.4107  0.3416 -0.0098
  515MOL0     C70982   4.017   2.453   5.970  0.5119 -0.3587 -0.9879
  515MOL0     N70983   4.485   2.093   6.240  1.0559  0.0509  0.4966
  515MOL0     N70984   4.537   2.035   6.342 -0.8737 -0.0039  0.0055
  515MOL0     C70985   5.381   1.284   6.625  0.5467  1.0789 -0.2880
  515MOL0     C70986   5.499   1.219   6.609 -0.4683 -0.8534  0.1504
  515MOL0     C70987   5.855   0.971   6.496  0.2543 -0.2769  0.2439
  515MOL0     C70988   5.929   1.024   6.387  0.2086  1.3596  1.1886
  515MOL0     C70989   6.063   1.010   6.379  0.1393  0.0504  0.1963
  515MOL0     C70990   6.140   0.962   6.491 -0.1957 -0.3926 -0.9065
  515MOL0     O70991   6.274   0.958   6.481  0.6961 -0.4476  0.3084
  515MOL0     C70992   6.352   0.908   6.593  0.6883  0.4190  0.0204
  515MOL0     C70993   6.498   0.954   6.588 -0.4966  0.7513  1.3971
  515MOL0     C70994   6.579   0.892   6.478  0.9267 -0.0519  0.3377
  515MOL0     C70995   6.722   0.910   6.511 -1.1515  0.4995  0.6699
  515MOL0     C70996   6.765   0.806   6.620 -0.1983 -0.5409  0.0276
  515MOL0     C70997   6.788   0.723   6.707 -0.3766 -0.2793  0.3294
  515MOL0     C70998   6.066   0.918   6.599 -0.8900 -0.3545  0.4772
  515MOL0     C70999   5.928   0.924   6.606  1.3442  0.2038  0.6127
  515MOL0     C71000   5.871   0.875   6.731  0.5598  0.9082 -0.5048
  515MOL0     H71001   5.436   0.913   6.723  0.5149  1.2553  2.1093
  515MOL0     H71002   5.220   1.018   6.750 -1.2713  2.8947  2.8800
  515MOL0     H71003   5.096   1.213   6.876 -2.4949 -0.2876  1.2789
  515MOL0     H71004   5.029   1.141   6.733 -0.2378  0.5673 -2.1102
  515MOL0     H71005   4.885   1.291   6.864  0.3636  0.0014  0.5784
  515MOL0     H71006   4.996   1.428   6.829  0.6293 -0.3955 -0.1086
  515MOL0     H71007   4.936   1.402   6.582  1.3476 -0.6104  0.6974
  515MOL0     H71008   4.805   1.291   6.645  0.4638 -0.1567  2.5476
  515MOL0     H71009   4.698   1.476   6.754 -0.6688 -0.9439 -1.0453
  515MOL0     H71010   4.851   1.576   6.745  3.3018 -2.3107  1.6268
  515MOL0     H71011   4.634   1.532   6.551 -0.1677  1.8141 -3.7576
  515MOL0     H71012   4.786   1.511   6.474  0.5483 -1.7076  0.5093
  515MOL0     H71013   4.725   1.752   6.639  2.9048  1.0337  0.8117
  515MOL0     H71014   4.863   1.723   6.530 -0.5211 -1.3157 -2.7269
  515MOL0     H71015   4.569   1.776   6.442  0.1434 -1.1039  1.7954
  515MOL0     H71016   4.694   1.719   6.330  0.6688 -0.0517  0.1004
  515MOL0     H71017   4.721   1.966   6.485  0.5201  2.0319 -2.1759
  515MOL0     H71018   4.832   1.902   6.358 -0.5922 -0.0625 -2.8476
  515MOL0     H71019   4.708   1.900   6.096  1.0646  0.6621  1.2334
  515MOL0     H71020   4.459   2.066   5.931 -0.9840  0.9986  0.9980
  515MOL0     H71021   4.631   2.067   5.931 -1.4226 -1.5617 -0.5690
  515MOL0     H71022   4.627   2.307   6.023  0.3775  0.2240  1.5919
  515MOL0     H71023   4.563   2.275   5.862 -1.0105 -2.2488 -0.6476
  515MOL0     H71024   4.330   2.243   6.024  0.7751 -1.9624 -0.7079
  515MOL0     H71025   4.425   2.339   6.136  0.1408  0.2323 -0.2907
  515MOL0     H71026   4.396   2.532   6.022  2.9841 -1.5779 -0.2845
  515MOL0     H71027   4.421   2.456   5.865  0.5010 -1.3272  0.7947
  515MOL0     H71028   4.258   2.594   6.178 -0.8092 -0.4163  2.1135
  515MOL0     H71029   4.022   2.650   6.439  3.4880  2.4608  1.7706
  515MOL0     H71030   4.090   2.759   6.338 -1.5669  0.7362  0.4501
  515MOL0     H71031   4.192   2.621   6.389  1.6989  1.0424  0.5059
  515MOL0     H71032   3.617   2.618   6.495  1.2548 -2.8902  0.5232
  515MOL0     H71033   3.394   2.631   6.588  0.3050 -3.4349  3.1506
  515MOL0     H71034   3.201   2.529   6.680  1.0215  2.4233 -0.4830
  515MOL0     H71035   3.118   2.641   6.562  0.5535  0.8451 -0.2175
  515MOL0     H71036   2.971   2.566   6.729  1.3379 -0.7201  0.8873
  515MOL0     H71037   2.922   2.486   6.572 -2.2368 -1.6880  2.0801
  515MOL0     H71038   3.092   2.311   6.746  0.0238 -2.1534  0.7076
  515MOL0     H71039   2.974   2.284   6.625  3.8658  0.8077 -0.3428
  515MOL0     H71040   2.791   2.390   6.792  2.3217  1.1857 -3.3350
  515MOL0     H71041   2.920   2.391   6.906 -1.0729 -2.7970  2.1630
  515MOL0     H71042   2.787   2.202   6.973 -0.6979 -0.3172 -0.1244
  515MOL0     H71043   2.817   2.117   6.829 -0.4980  0.6616  0.6270
  515MOL0     H71044   3.076   2.220   6.969  1.4184 -0.7470 -1.6672
  515MOL0     H71045   3.053   2.100   6.847  2.4424 -0.6900  0.9975
  515MOL0     H71046   3.099   1.982   7.056  1.5834  0.9571  0.5932
  515MOL0     H71047   2.919   1.960   7.027  0.9140 -1.5531 -0.4149
  515MOL0     H71048   2.919   2.197   7.171  2.4559  2.2839  2.3174
  515MOL0     H71049   3.081   2.140   7.209  0.8188 -2.4608  0.1499
  515MOL0     H71050   3.247   2.369   6.284  0.3265  0.0002 -0.0623
  515MOL0     H71051   3.466   2.376   6.163  0.7988 -0.0455  0.8315
  515MOL0     H71052   3.805   2.477   6.011 -1.9074  1.5924  2.9879
  515MOL0     H71053   4.000   2.410   5.872  1.6348 -1.2283 -0.8220
  515MOL0     H71054   5.383   1.391   6.612  1.2083  1.1933  0.6333
  515MOL0     H71055   5.567   1.286   6.556 -4.6868  3.4638 -0.4902
  515MOL0     H71056   5.892   1.070   6.296  3.4212  1.9971  0.0479
  515MOL0     H71057   6.121   1.063   6.304 -1.5064  4.8546  1.8690
  515MOL0     H71058   6.307   0.948   6.685  0.0949  0.8526 -0.4558
  515MOL0     H71059   6.352   0.798   6.595  2.5374  0.3515  2.8754
  515MOL0     H71060   6.547   0.920   6.680 -0.9994 -0.2145  1.3162
  515MOL0     H71061   6.493   1.063   6.579 -0.9377  0.5215 -3.1801
  515MOL0     H71062   6.563   0.783   6.473  1.2210 -0.3702  3.7774
  515MOL0     H71063   6.562   0.950   6.387  1.8320  2.6300  1.7891
  515MOL0     H71064   6.763   1.006   6.542  2.5279 -1.6736  3.4160
  515MOL0     H71065   6.773   0.888   6.416 -1.8692 -0.2596  0.4434
  515MOL0     H71066   6.789   0.644   6.780  0.2421 -0.9256 -0.3657
  515MOL0     H71067   6.116   0.879   6.687  1.9802 -2.8367 -2.0177
  515MOL0     H71068   5.938   0.822   6.799 -4.8166 -0.8486  4.2547
  515MOL0     H71069   5.863   0.962   6.797  0.0250  1.9265 -1.8511
  515MOL0     H71070   5.775   0.823   6.730 -0.3267  2.3243  1.9508
  516MOL0     O71071   2.162  10.993   5.885  0.4028 -0.4059 -0.3501
  516MOL0     C71072   2.249  11.001   5.967 -0.6634 -0.4987  0.2486
  516MOL0     O71073   2.298  11.117   6.014  0.4630  0.5245  0.3727
  516MOL0     C71074   2.235  11.236   5.993 -0.2923  0.8062  0.5059
  516MOL0     C71075   2.304  11.348   5.962 -0.3666 -0.5655 -0.5618
  516MOL0     C71076   2.238  11.471   5.980  0.5732 -0.1592 -0.3381
  516MOL0     C71077   2.096  11.479   5.997  1.0713  0.8853 -0.2166
  516MOL0     O71078   2.048  11.608   5.993  0.2347 -0.1097 -0.3042
  516MOL0     C71079   1.907  11.627   6.013 -0.6970 -0.4763 -0.0453
  516MOL0     C71080   1.907  11.770   6.044  0.6236 -0.6105  0.7475
  516MOL0     C71081   2.005  11.815   6.158  0.0581  0.6761 -0.4467
  516MOL0     C71082   2.152  11.854   6.117 -1.5464  0.6561 -0.1359
  516MOL0     C71083   2.139  11.971   6.012  0.0057 -0.0027 -0.4361
  516MOL0     C71084   2.269  12.038   5.965 -0.5224  0.3424 -0.3236
  516MOL0     C71085   2.241  12.125   5.832 -0.1754  0.1554  0.1722
  516MOL0     C71086   2.250  12.044   5.705  0.5270  0.4608  0.6553
  516MOL0     N71087   2.256  12.126   5.582 -0.0744 -0.5029 -0.0252
  516MOL0     C71088   2.333  12.240   5.559  0.2097  0.0113 -0.1205
  516MOL0     C71089   2.321  12.265   5.425  0.1137  0.4404  0.0473
  516MOL0     C71090   2.385  12.380   5.342 -0.0817  0.0125  0.0550
  516MOL0     C71091   2.310  12.418   5.211  0.1409  0.1314  0.0261
  516MOL0     C71092   2.392  12.516   5.134  0.2618 -0.4110  0.4494
  516MOL0     C71093   2.378  12.657   5.193 -0.4205 -0.7173  0.2645
  516MOL0     O71094   2.502  12.704   5.264  0.1390  0.4563 -1.0521
  516MOL0     C71095   2.611  12.747   5.185 -0.1044  0.0117  0.3086
  516MOL0     C71096   2.604  12.787   5.048  0.5358  1.0320 -0.1907
  516MOL0     C71097   2.715  12.838   4.972  1.3362  0.1045 -0.3910
  516MOL0     C71098   2.700  12.876   4.822  0.5875  0.6700  0.6400
  516MOL0     C71099   2.834  12.850   5.035 -0.4158  0.2169  0.7274
  516MOL0     C71100   2.964  12.888   4.978 -0.0297 -0.5553 -0.9089
  516MOL0     O71101   3.070  12.815   5.014  0.4855  0.0201 -0.3418
  516MOL0     C71102   3.182  12.843   4.942  0.1645 -0.7506  0.6531
  516MOL0     C71103   3.217  12.768   4.824  1.3274 -0.2024  0.2077
  516MOL0     C71104   3.334  12.802   4.750  0.1372 -0.2436 -0.3003
  516MOL0     C71105   3.420  12.901   4.791  0.3774 -0.6636 -0.5837
  516MOL0     O71106   3.546  12.933   4.741 -0.6333  0.2657 -0.1313
  516MOL0     C71107   3.584  12.887   4.611 -0.0577  0.9370 -0.2773
  516MOL0     C71108   3.527  12.977   4.496 -0.2508  0.4739  0.0845
  516MOL0     C71109   3.622  13.087   4.466 -0.9758 -0.1583  0.6013
  516MOL0     C71110   3.736  13.045   4.370 -0.2362  0.4384 -0.7703
  516MOL0     C71111   3.826  13.165   4.333 -0.3275  0.0273 -0.7913
  516MOL0     C71112   3.763  13.273   4.258  0.6011 -0.2595 -0.2948
  516MOL0     C71113   3.865  13.389   4.243 -0.6684 -0.6363  1.2009
  516MOL0     C71114   3.848  13.497   4.366 -0.3104  0.4709  0.6815
  516MOL0    Cl71115   3.961  13.630   4.335 -0.3890  0.3375  0.2618
  516MOL0     C71116   3.380  12.979   4.902  0.3553 -0.4592 -0.5838
  516MOL0     C71117   3.265  12.948   4.976 -0.5533 -0.6990 -0.7528
  516MOL0     O71118   2.968  12.991   4.905  0.9081 -0.0248 -0.7792
  516MOL0     C71119   2.838  12.812   5.174 -1.1406 -0.1783 -0.6816
  516MOL0     C71120   2.731  12.758   5.246  0.4916 -0.8038  0.1677
  516MOL0     N71121   2.251  12.162   5.369  0.0758  0.5473 -0.1888
  516MOL0     N71122   2.206  12.087   5.465 -0.7809  0.4572 -0.7661
  516MOL0     C71123   2.028  11.363   6.029 -0.7278  0.2113 -0.3629
  516MOL0     C71124   2.094  11.242   6.026  0.3800 -0.0071 -0.4319
  516MOL0     C71125   2.287  10.876   6.060  0.5968  0.5863  1.1816
  516MOL0     C71126   2.423  10.873   6.102  0.3631 -0.0767 -0.1772
  516MOL0     C71127   2.474  10.769   6.179 -0.2632 -0.5212 -0.4867
  516MOL0     C71128   2.392  10.660   6.210  0.3302 -0.1613  0.0793
  516MOL0     O71129   2.451  10.556   6.280 -0.0681  0.4768 -0.1130
  516MOL0     C71130   2.372  10.468   6.352 -0.3480  0.8487  0.3632
  516MOL0     C71131   2.465  10.378   6.441  0.1270 -0.2190  0.2140
  516MOL0     C71132   2.379  10.298   6.545  0.4530  0.1187  0.0677
  516MOL0     C71133   2.461  10.264   6.670  0.0318  0.0162  0.5869
  516MOL0     C71134   2.578  10.181   6.644 -0.9458  0.0892  0.4585
  516MOL0     C71135   2.676  10.103   6.622  0.5266  0.0930 -0.1458
  516MOL0     C71136   2.262  10.660   6.159  0.2034  0.3410 -1.2735
  516MOL0     C71137   2.210  10.764   6.085  0.5731 -0.3066 -0.1550
  516MOL0     C71138   2.065  10.751   6.047  0.0963  0.4426 -0.2714
  516MOL0     H71139   2.405  11.330   5.928 -0.6024 -1.6324 -0.7532
  516MOL0     H71140   2.282  11.566   5.954 -0.5911  0.2935 -0.7339
  516MOL0     H71141   1.865  11.567   6.095  0.9302 -0.9754  0.4772
  516MOL0     H71142   1.841  11.617   5.927 -1.9389  4.0231  0.1287
  516MOL0     H71143   1.923  11.829   5.954 -2.3809  0.7784  1.0125
  516MOL0     H71144   1.810  11.801   6.085  1.4230  2.0850  0.8192
  516MOL0     H71145   1.963  11.909   6.194  3.1981  1.9874  0.1344
  516MOL0     H71146   2.002  11.733   6.230 -0.8371  2.1428  1.2515
  516MOL0     H71147   2.212  11.884   6.204  1.5607  2.2565 -2.6258
  516MOL0     H71148   2.208  11.777   6.065 -1.0489  2.1614 -1.9410
  516MOL0     H71149   2.072  12.047   6.053  1.0135  1.4562 -1.3792
  516MOL0     H71150   2.084  11.933   5.926  0.1829  3.3559 -2.2218
  516MOL0     H71151   2.308  12.104   6.043 -0.2144 -2.1902  1.7961
  516MOL0     H71152   2.352  11.969   5.945  0.0935  0.9858 -0.0115
  516MOL0     H71153   2.306  12.212   5.824 -0.8137  0.5370 -1.2087
  516MOL0     H71154   2.140  12.165   5.837  0.8618  3.2484 -1.2486
  516MOL0     H71155   2.336  11.977   5.704 -2.3775 -3.6421 -1.2495
  516MOL0     H71156   2.160  11.984   5.689  1.2610 -0.4529 -0.0906
  516MOL0     H71157   2.389  12.297   5.632 -0.4223 -0.0093  0.3912
  516MOL0     H71158   2.481  12.341   5.309 -1.2637 -4.2877  1.1273
  516MOL0     H71159   2.409  12.470   5.400  3.1836 -0.1588 -0.8319
  516MOL0     H71160   2.301  12.328   5.149  1.8784  0.1075 -0.2527
  516MOL0     H71161   2.208  12.454   5.229  1.6980  5.0873  0.6580
  516MOL0     H71162   2.499  12.501   5.146  0.7890  3.5041  1.9239
  516MOL0     H71163   2.357  12.504   5.031 -0.4579 -1.0384  0.7515
  516MOL0     H71164   2.353  12.722   5.109  0.1960 -2.6347 -1.4712
  516MOL0     H71165   2.291  12.664   5.259  0.6649  0.9980  1.6249
  516MOL0     H71166   2.513  12.779   4.990  0.0399 -4.1990  0.8050
  516MOL0     H71167   2.707  12.984   4.804  0.5378  0.1988 -2.9338
  516MOL0     H71168   2.602  12.843   4.786 -0.2413  1.5014  2.0435
  516MOL0     H71169   2.767  12.818   4.758  0.0177 -1.4964  1.8904
  516MOL0     H71170   3.162  12.680   4.792 -0.7399  1.6268 -1.6214
  516MOL0     H71171   3.365  12.725   4.680 -0.7111 -3.4450  2.5747
  516MOL0     H71172   3.693  12.884   4.603 -0.0760  0.0722 -0.3501
  516MOL0     H71173   3.566  12.779   4.608  3.7764  0.1019  0.6859
  516MOL0     H71174   3.508  12.927   4.400  0.5464  2.1796 -1.0185
  516MOL0     H71175   3.435  13.023   4.532 -0.2513  2.3143 -2.0450
  516MOL0     H71176   3.675  13.126   4.554 -0.3291  1.4087 -0.4477
  516MOL0     H71177   3.561  13.169   4.428 -1.3031 -0.3722  0.6683
  516MOL0     H71178   3.693  12.997   4.282 -1.7302  2.5340 -1.2717
  516MOL0     H71179   3.808  12.980   4.420  0.2340  0.2497 -1.6662
  516MOL0     H71180   3.864  13.200   4.429 -2.1784 -1.5885  0.6025
  516MOL0     H71181   3.904  13.128   4.266  1.1379  1.9959 -0.2448
  516MOL0     H71182   3.682  13.307   4.323 -0.0401  2.7528 -2.4377
  516MOL0     H71183   3.726  13.237   4.161  0.3346 -0.2480 -0.1964
  516MOL0     H71184   3.836  13.435   4.147  0.9065 -0.5656  0.7369
  516MOL0     H71185   3.969  13.358   4.236  0.3506  2.7308 -2.9053
  516MOL0     H71186   3.852  13.461   4.469 -0.8392  0.2032  0.6166
  516MOL0     H71187   3.747  13.540   4.362 -0.8946 -0.8635  0.3469
  516MOL0     H71188   3.445  13.062   4.929 -1.9464  0.9502  1.0085
  516MOL0     H71189   3.253  13.011   5.064  2.7064 -1.4447  0.3847
  516MOL0     H71190   2.923  12.851   5.230 -2.1327  0.2473  0.5651
  516MOL0     H71191   2.743  12.740   5.352  1.0335 -2.6369 -0.1867
  516MOL0     H71192   1.921  11.351   6.046 -0.6690  2.3457  2.1532
  516MOL0     H71193   2.040  11.154   6.058 -0.7587  0.3570 -1.2870
  516MOL0     H71194   2.480  10.963   6.082 -0.6045  0.4415 -0.6751
  516MOL0     H71195   2.577  10.788   6.208  0.7941 -0.7243 -3.7421
  516MOL0     H71196   2.300  10.524   6.412 -1.5055  1.8217 -1.8276
  516MOL0     H71197   2.310  10.409   6.284 -2.6670 -0.2993  3.2374
  516MOL0     H71198   2.532  10.446   6.495  2.9969 -0.1451 -3.0689
  516MOL0     H71199   2.523  10.306   6.383 -0.1892 -1.7822  1.7740
  516MOL0     H71200   2.285  10.347   6.575  0.5269  0.5492 -0.3904
  516MOL0     H71201   2.350  10.203   6.500  1.4956  0.0223 -0.4161
  516MOL0     H71202   2.390  10.202   6.726  2.5344 -2.5167  1.2056
  516MOL0     H71203   2.485  10.358   6.721 -2.4047  1.6167 -1.0325
  516MOL0     H71204   2.748  10.033   6.585  0.9812  1.6928 -2.5770
  516MOL0     H71205   2.194  10.580   6.187 -0.0412  0.5386 -1.3026
  516MOL0     H71206   2.045  10.715   5.946 -2.1590 -2.3143  1.0089
  516MOL0     H71207   2.020  10.676   6.114 -1.0699 -1.0832 -2.6127
  516MOL0     H71208   2.036  10.856   6.058  2.0454  0.8109  2.1205
  517MOL0     O71209   7.271   5.051  10.299 -0.7898 -0.2213  0.1000
  517MOL0     C71210   7.266   4.943  10.249  0.1367  0.2702 -0.7232
  517MOL0     O71211   7.365   4.859  10.223 -0.0000  1.0470 -0.3290
  517MOL0     C71212   7.500   4.869  10.238 -0.4928  0.9581  0.1836
  517MOL0     C71213   7.570   4.981  10.289 -0.4986  0.5265  0.2152
  517MOL0     C71214   7.711   4.967  10.308  0.5165 -0.7248 -0.3282
  517MOL0     C71215   7.782   4.850  10.278 -0.1420 -0.2987  0.2292
  517MOL0     O71216   7.916   4.838  10.276  0.1481  0.1109 -0.0376
  517MOL0     C71217   8.003   4.922  10.360  0.3961 -1.0123  0.3053
  517MOL0     C71218   8.145   4.884  10.326 -0.1710 -0.4091  0.4150
  517MOL0     C71219   8.268   4.965  10.384  0.5491 -0.7839  0.3505
  517MOL0     C71220   8.309   4.901  10.520  0.2013 -0.8061  0.0472
  517MOL0     C71221   8.407   4.974  10.611 -0.0952  0.0112  0.0149
  517MOL0     C71222   8.334   5.100  10.661  0.0341  0.0183 -0.2281
  517MOL0     C71223   8.431   5.169  10.771 -0.3625  0.4617  0.4546
  517MOL0     C71224   8.577   5.197  10.714 -0.0369 -0.5136  1.1208
  517MOL0     N71225   8.640   5.298  10.795 -0.9011  0.1933  0.8115
  517MOL0     C71226   8.732   5.271  10.897  0.2511  0.8499  0.0745
  517MOL0     C71227   8.725   5.378  10.983 -0.5276 -0.1367  0.1260
  517MOL0     C71228   8.782   5.396  11.123  0.1059  0.0558 -0.4423
  517MOL0     C71229   8.684   5.325  11.215 -0.5588 -0.5253  0.2092
  517MOL0     C71230   8.712   5.346  11.362 -0.3198 -0.0442 -0.0300
  517MOL0     C71231   8.868   5.356  11.389 -0.4241  0.4711 -0.3059
  517MOL0     O71232   8.939   5.236  11.352 -0.4403 -0.2465  0.2684
  517MOL0     C71233   9.058   5.229  11.416 -0.4247  0.2484 -0.5070
  517MOL0     C71234   9.062   5.153  11.535  0.3373  0.6815  0.4126
  517MOL0     C71235   9.181   5.115  11.596 -0.2232 -0.5974  0.1871
  517MOL0     C71236   9.166   5.037  11.724 -0.1362  0.5486  0.1866
  517MOL0     C71237   9.303   5.165  11.538  0.5919 -1.0332  0.6803
  517MOL0     C71238   9.434   5.124  11.594 -0.2130 -0.2942  1.0348
  517MOL0     O71239   9.451   5.097  11.729  0.5608 -0.5689 -0.2960
  517MOL0     C71240   9.570   5.049  11.775 -0.1205 -0.3676  0.8092
  517MOL0     C71241   9.618   5.091  11.905 -0.5767  0.3206  0.1061
  517MOL0     C71242   9.740   5.051  11.952  0.5334 -0.0391 -0.7187
  517MOL0     C71243   9.806   4.938  11.888  0.5432  0.0050 -0.5633
  517MOL0     O71244   9.915   4.879  11.958  0.2054 -0.7440  0.2931
  517MOL0     C71245   9.996   4.955  12.055 -0.5139  0.6865  0.4813
  517MOL0     C71246   9.931   4.922  12.204  0.7663  0.2097 -0.0175
  517MOL0     C71247  10.045   4.977  12.295 -0.3694 -0.3592 -0.0957
  517MOL0     C71248  10.009   5.008  12.443  0.4858 -0.2752 -1.3571
  517MOL0     C71249   9.951   4.880  12.506 -0.5446 -0.3334 -0.6186
  517MOL0     C71250   9.925   4.879  12.660 -0.4745 -0.2117 -0.3393
  517MOL0     C71251  10.044   4.866  12.758  0.0541  0.2822 -0.3732
  517MOL0     C71252  10.011   4.906  12.904 -0.0785  0.5726  0.0023
  517MOL0    Cl71253   9.831   4.871  12.930 -0.7104  0.0121 -0.1632
  517MOL0     C71254   9.754   4.885  11.771  0.1924 -0.3271  0.9397
  517MOL0     C71255   9.640   4.938  11.717 -0.0615 -0.0346  0.3210
  517MOL0     O71256   9.517   5.114  11.504 -0.3290 -0.9637 -0.3341
  517MOL0     C71257   9.291   5.260  11.430  0.2797  0.1207 -0.5477
  517MOL0     C71258   9.170   5.278  11.361  0.1691 -0.3325 -0.3480
  517MOL0     N71259   8.626   5.463  10.937 -0.2304 -0.0281 -0.5075
  517MOL0     N71260   8.583   5.421  10.818  0.0535 -0.4637 -0.1445
  517MOL0     C71261   7.710   4.741  10.232  0.5375  0.3986  0.5381
  517MOL0     C71262   7.567   4.753  10.224 -0.0000  0.1939 -0.0621
  517MOL0     C71263   7.125   4.878  10.243  0.2625  0.6506 -0.1180
  517MOL0     C71264   7.108   4.742  10.221  0.1311 -1.2110 -1.1431
  517MOL0     C71265   6.983   4.674  10.224 -0.5401 -0.4358 -0.6638
  517MOL0     C71266   6.867   4.745  10.245  0.5141 -1.1663  0.9086
  517MOL0     O71267   6.751   4.685  10.214 -0.1993  0.0144  0.2340
  517MOL0     C71268   6.626   4.752  10.227 -0.0451  0.5008 -0.9297
  517MOL0     C71269   6.590   4.738  10.374  1.1157 -0.2336  0.2332
  517MOL0     C71270   6.432   4.737  10.399  0.0746 -0.3478 -0.0034
  517MOL0     C71271   6.399   4.705  10.549 -0.2577 -0.1977 -0.1036
  517MOL0     C71272   6.473   4.797  10.642  0.7729  0.5005 -1.5139
  517MOL0     C71273   6.524   4.861  10.733  0.2366 -0.3901 -0.4187
  517MOL0     C71274   6.877   4.877  10.269 -0.7999 -0.4856 -0.7880
  517MOL0     C71275   7.000   4.951  10.260  0.3363 -0.1179 -0.2871
  517MOL0     C71276   6.986   5.106  10.286 -0.4389  0.6995  0.2086
  517MOL0     H71277   7.525   5.071  10.329 -0.3233  0.5166  0.4430
  517MOL0     H71278   7.761   5.054  10.351 -0.7318 -0.5045  0.7494
  517MOL0     H71279   7.986   4.913  10.467 -0.7445 -1.4230  0.0995
  517MOL0     H71280   7.996   5.028  10.335  0.6175 -0.6031  1.9037
  517MOL0     H71281   8.158   4.782  10.361  5.5572  0.5380  1.9733
  517MOL0     H71282   8.156   4.885  10.217  1.6765 -1.5084  0.5492
  517MOL0     H71283   8.355   4.960  10.318  1.5535  0.7889  1.4992
  517MOL0     H71284   8.229   5.065  10.402 -0.5801 -1.0270 -0.6250
  517MOL0     H71285   8.221   4.881  10.582 -0.2812  2.5308  0.6200
  517MOL0     H71286   8.359   4.804  10.509 -0.3789 -0.9847 -1.1749
  517MOL0     H71287   8.499   4.995  10.554 -0.3870  0.7224 -0.2074
  517MOL0     H71288   8.435   4.912  10.696  1.3395  0.1916 -0.2962
  517MOL0     H71289   8.320   5.164  10.574  3.6171 -0.3956 -1.2861
  517MOL0     H71290   8.239   5.061  10.698  1.0492 -2.4062  0.0371
  517MOL0     H71291   8.435   5.114  10.866  1.2604  1.2589  0.8928
  517MOL0     H71292   8.389   5.263  10.806  0.0841 -0.0704  2.5595
  517MOL0     H71293   8.648   5.114  10.714 -2.7601 -3.1626  4.6556
  517MOL0     H71294   8.566   5.243  10.615 -1.2597  0.4383  1.6684
  517MOL0     H71295   8.786   5.178  10.906 -0.3317  0.1234 -2.9267
  517MOL0     H71296   8.790   5.504  11.136  0.4709  0.2546 -2.0801
  517MOL0     H71297   8.884   5.356  11.128  0.2350  0.4962  0.7461
  517MOL0     H71298   8.580   5.355  11.198 -0.1211  0.2653 -1.2907
  517MOL0     H71299   8.682   5.220  11.185 -0.2986 -0.2669 -0.7616
  517MOL0     H71300   8.663   5.440  11.388  0.2829  1.1582 -2.8458
  517MOL0     H71301   8.670   5.261  11.415  0.8627 -0.7041 -0.1204
  517MOL0     H71302   8.914   5.445  11.345  0.0440  2.4385  3.7136
  517MOL0     H71303   8.882   5.382  11.495  1.1934  3.3493 -1.1225
  517MOL0     H71304   8.964   5.127  11.573 -1.0319  0.4834 -2.9219
  517MOL0     H71305   9.190   4.931  11.715 -0.7714  0.4635 -0.6263
  517MOL0     H71306   9.058   5.036  11.746 -0.4901  1.5452 -1.3295
  517MOL0     H71307   9.214   5.085  11.810  0.2501 -0.5879  0.6145
  517MOL0     H71308   9.570   5.172  11.960 -1.0068  0.4902 -0.5079
  517MOL0     H71309   9.769   5.116  12.034 -3.5829  1.4441 -0.2403
  517MOL0     H71310  10.096   4.911  12.058 -1.0841 -0.6762  3.7317
  517MOL0     H71311  10.009   5.063  12.043 -1.1336  0.6366 -0.7254
  517MOL0     H71312   9.837   4.973  12.228 -0.3767 -2.2919  1.1957
  517MOL0     H71313   9.904   4.819  12.228  0.4571 -0.1833 -1.9252
  517MOL0     H71314  10.086   5.074  12.263 -2.1865  1.3211  2.2504
  517MOL0     H71315  10.136   4.917  12.299  0.9209  1.3877 -1.5335
  517MOL0     H71316   9.945   5.093  12.467 -0.0451 -1.2927  1.2295
  517MOL0     H71317  10.098   5.036  12.500 -0.7337  1.1157 -0.0353
  517MOL0     H71318   9.861   4.862  12.447 -0.2412 -2.9552 -0.3983
  517MOL0     H71319  10.015   4.792  12.499  0.1569 -0.2747  2.9364
  517MOL0     H71320   9.858   4.796  12.686 -0.3632  0.0500  0.8732
  517MOL0     H71321   9.865   4.969  12.674 -1.4830 -0.4034 -2.8877
  517MOL0     H71322  10.121   4.936  12.725 -0.0398 -0.3993 -2.1061
  517MOL0     H71323  10.070   4.760  12.762  3.0027  0.9416  1.4696
  517MOL0     H71324  10.037   5.010  12.925  1.1940  1.3450 -4.3878
  517MOL0     H71325  10.065   4.835  12.966 -1.0470 -2.5370 -2.4236
  517MOL0     H71326   9.814   4.802  11.733  1.0667 -0.3134  2.2115
  517MOL0     H71327   9.604   4.902  11.622  0.9774 -2.6971  0.8562
  517MOL0     H71328   9.377   5.312  11.390 -0.3043  1.2230 -0.4076
  517MOL0     H71329   9.159   5.330  11.266 -2.7610  0.9001  0.5378
  517MOL0     H71330   7.760   4.655  10.189  0.1929  1.0119 -1.1579
  517MOL0     H71331   7.504   4.671  10.189 -2.4614  1.2277  1.6143
  517MOL0     H71332   7.202   4.688  10.222  1.1147  0.4132  0.7732
  517MOL0     H71333   6.979   4.571  10.189  1.8890 -0.4162 -1.1932
  517MOL0     H71334   6.621   4.854  10.188 -1.7259  1.1111  0.7365
  517MOL0     H71335   6.554   4.696  10.166 -1.2446  2.4006 -1.3138
  517MOL0     H71336   6.651   4.805  10.434 -0.2680 -0.9044  2.5345
  517MOL0     H71337   6.619   4.641  10.417  2.7413 -0.0978 -0.4758
  517MOL0     H71338   6.395   4.837  10.375  0.4891 -0.0853  0.4449
  517MOL0     H71339   6.374   4.666  10.338  0.9198 -0.5874 -0.5485
  517MOL0     H71340   6.428   4.602  10.568  0.0595  0.1187  1.2027
  517MOL0     H71341   6.295   4.728  10.574 -0.2402 -3.3728  3.6972
  517MOL0     H71342   6.567   4.926  10.806  0.8837  0.0882 -1.2054
  517MOL0     H71343   6.784   4.930  10.292 -0.2258 -0.0800  0.6789
  517MOL0     H71344   7.044   5.149  10.203  0.6099 -1.6262 -0.3410
  517MOL0     H71345   6.880   5.128  10.272  0.0789  1.8826 -2.5533
  517MOL0     H71346   7.024   5.139  10.383 -0.9438  2.4285 -0.1393
  518MOL0     O71347   6.218   4.157   3.718 -0.6367  0.7186  0.1001
  518MOL0     C71348   6.253   4.088   3.815  0.2116 -0.5761  0.2209
  518MOL0     O71349   6.326   3.976   3.805 -0.7124 -0.6079 -0.8086
  518MOL0     C71350   6.429   3.965   3.719 -0.7743 -0.4376  0.4965
  518MOL0     C71351   6.507   4.070   3.670  0.2406 -0.0736 -0.0946
  518MOL0     C71352   6.627   4.035   3.609  0.6201 -0.3136  0.9809
  518MOL0     C71353   6.684   3.906   3.602 -0.3423 -0.4561  0.3968
  518MOL0     O71354   6.806   3.893   3.535  0.3046  0.5223 -1.3881
  518MOL0     C71355   6.852   3.759   3.520 -0.2518 -0.5034 -0.3540
  518MOL0     C71356   6.993   3.758   3.454  0.2580 -1.1755 -0.4185
  518MOL0     C71357   6.979   3.759   3.298 -0.9580  0.4902 -0.1479
  518MOL0     C71358   6.889   3.881   3.253 -0.5746  0.0368  0.3940
  518MOL0     C71359   6.875   3.887   3.099 -0.6603 -0.6323 -0.2414
  518MOL0     C71360   6.773   3.994   3.074 -0.4149 -0.6413 -0.1431
  518MOL0     C71361   6.762   4.037   2.922  0.4919 -0.6108 -0.1828
  518MOL0     C71362   6.698   3.919   2.844 -0.0943 -0.5671 -0.1058
  518MOL0     N71363   6.703   3.944   2.696 -0.1267  0.2337  0.0737
  518MOL0     C71364   6.740   3.844   2.609 -1.3322 -0.9319  0.2104
  518MOL0     C71365   6.717   3.898   2.485 -0.4516  0.3288  0.2850
  518MOL0     C71366   6.728   3.827   2.353 -0.2353 -0.0373  0.1364
  518MOL0     C71367   6.594   3.790   2.296  0.1203  0.0020 -0.2968
  518MOL0     C71368   6.605   3.703   2.165 -0.4717  0.7580 -1.4750
  518MOL0     C71369   6.636   3.770   2.040  0.4791  0.2171 -0.2035
  518MOL0     O71370   6.606   3.686   1.936  0.0446 -0.8738  0.1588
  518MOL0     C71371   6.585   3.737   1.807  0.2894  0.3220 -0.5198
  518MOL0     C71372   6.643   3.858   1.762 -0.1007  0.4767  0.3922
  518MOL0     C71373   6.605   3.927   1.642  1.1636 -1.1911  0.4255
  518MOL0     C71374   6.699   4.048   1.603  0.7227  0.4376  0.4351
  518MOL0     C71375   6.493   3.880   1.574 -1.0617  0.8497  0.1302
  518MOL0     C71376   6.444   3.943   1.457 -0.3587 -0.3132 -0.5455
  518MOL0     O71377   6.307   3.930   1.429 -0.0309  0.2969  0.0077
  518MOL0     C71378   6.269   3.980   1.304 -0.6793 -1.0682 -0.4192
  518MOL0     C71379   6.312   4.107   1.254  1.4448  0.3452  0.0466
  518MOL0     C71380   6.261   4.163   1.137  0.0350 -0.5029  0.5270
  518MOL0     C71381   6.163   4.095   1.061 -0.0590  0.8648 -0.2042
  518MOL0     O71382   6.103   4.146   0.946 -0.4441  0.5628  0.0684
  518MOL0     C71383   6.164   4.273   0.897 -0.1812 -0.5612 -0.3212
  518MOL0     C71384   6.113   4.293   0.752 -0.5493 -0.2239  0.0646
  518MOL0     C71385   5.963   4.331   0.758  0.2176  0.2182 -0.3973
  518MOL0     C71386   5.892   4.372   0.627 -0.7134  0.2614 -0.3673
  518MOL0     C71387   5.758   4.436   0.641 -0.4078  0.3326  0.3765
  518MOL0     C71388   5.740   4.565   0.719 -0.2160 -0.3124 -0.3216
  518MOL0     C71389   5.712   4.553   0.873  0.7126 -0.3782 -0.4497
  518MOL0     C71390   5.807   4.630   0.951 -1.1147 -0.5634 -0.1179
  518MOL0    Cl71391   5.829   4.796   0.891 -0.2438  0.1064 -0.2775
  518MOL0     C71392   6.119   3.968   1.114 -0.0553 -0.5522 -0.8360
  518MOL0     C71393   6.173   3.915   1.231 -0.5020  0.5531 -0.5949
  518MOL0     O71394   6.539   3.968   1.376  0.7272 -0.8753  0.4179
  518MOL0     C71395   6.433   3.762   1.623  0.6264  0.2254  0.3885
  518MOL0     C71396   6.483   3.688   1.736 -0.2740 -0.6406  0.3837
  518MOL0     N71397   6.681   4.034   2.504 -0.0324 -0.2132  0.0782
  518MOL0     N71398   6.664   4.056   2.626  0.0701  0.6284 -0.1451
  518MOL0     C71399   6.609   3.800   3.662  1.6980  0.2039  0.4449
  518MOL0     C71400   6.475   3.827   3.709 -0.5767  0.1860 -0.2409
  518MOL0     C71401   6.207   4.125   3.953  0.6660 -0.3082 -0.0943
  518MOL0     C71402   6.273   4.066   4.060 -0.7328 -0.2637  0.0418
  518MOL0     C71403   6.240   4.099   4.191 -0.2215  0.0634 -0.3736
  518MOL0     C71404   6.147   4.194   4.229 -0.3405 -0.3303  1.0153
  518MOL0     O71405   6.110   4.242   4.349 -0.7501 -0.3200  0.1019
  518MOL0     C71406   6.124   4.147   4.462  0.3706 -0.3328  0.1047
  518MOL0     C71407   6.112   4.222   4.593 -0.9450 -0.8828  0.3601
  518MOL0     C71408   6.221   4.335   4.615 -0.3693  0.4748  0.5215
  518MOL0     C71409   6.225   4.405   4.749 -0.3345  0.1305  0.5962
  518MOL0     C71410   6.092   4.475   4.759  0.1051 -0.1040 -0.1390
  518MOL0     C71411   5.988   4.541   4.769 -0.5549  0.3827 -0.1272
  518MOL0     C71412   6.083   4.252   4.117  0.0995 -0.0752 -0.3185
  518MOL0     C71413   6.110   4.229   3.980 -0.1495  0.2404  0.2719
  518MOL0     C71414   6.032   4.314   3.872 -0.4671 -0.2647 -0.4666
  518MOL0     H71415   6.468   4.171   3.664 -1.3986 -0.6150  0.7985
  518MOL0     H71416   6.686   4.112   3.559  2.1439  0.0325  3.1386
  518MOL0     H71417   6.786   3.700   3.455  1.0181 -1.4776 -0.8137
  518MOL0     H71418   6.859   3.723   3.623  2.2026  1.9182  0.4332
  518MOL0     H71419   7.046   3.846   3.492 -3.0056  0.8334 -0.1153
  518MOL0     H71420   7.050   3.668   3.479  0.5844 -1.3098 -1.5744
  518MOL0     H71421   7.073   3.778   3.246 -2.3707 -0.9940 -3.5521
  518MOL0     H71422   6.950   3.658   3.266 -0.3502 -0.1279  1.1695
  518MOL0     H71423   6.786   3.869   3.288 -0.5199  2.0931  1.3935
  518MOL0     H71424   6.930   3.974   3.292 -0.5126  0.4159 -0.5344
  518MOL0     H71425   6.832   3.796   3.057  2.6934 -1.9546 -1.0986
  518MOL0     H71426   6.970   3.906   3.048 -1.3653  0.7921 -1.1054
  518MOL0     H71427   6.677   3.963   3.115 -1.6009  0.8101 -1.6770
  518MOL0     H71428   6.797   4.089   3.124 -0.0262 -0.7441 -0.1308
  518MOL0     H71429   6.861   4.064   2.885  1.1321 -1.3179  0.9462
  518MOL0     H71430   6.688   4.116   2.935 -0.8564 -2.2023  2.8772
  518MOL0     H71431   6.749   3.824   2.857 -2.5553 -1.9119  0.4394
  518MOL0     H71432   6.592   3.913   2.871 -0.3814  1.2332 -0.6624
  518MOL0     H71433   6.780   3.748   2.642  1.0629 -0.0558  0.0396
  518MOL0     H71434   6.794   3.743   2.375 -1.3034 -0.4191  2.1066
  518MOL0     H71435   6.771   3.898   2.282  1.7497 -0.6601  0.6685
  518MOL0     H71436   6.537   3.751   2.381  0.5414  2.3192  1.1101
  518MOL0     H71437   6.534   3.878   2.271 -1.3616 -0.6063  0.9485
  518MOL0     H71438   6.681   3.628   2.188 -1.4779  0.3645  0.8905
  518MOL0     H71439   6.512   3.646   2.163  0.4357 -0.8009 -0.5216
  518MOL0     H71440   6.555   3.843   2.041 -2.0076 -2.3603 -1.1162
  518MOL0     H71441   6.735   3.817   2.036  0.0574  1.0534 -3.5909
  518MOL0     H71442   6.721   3.896   1.828 -0.6137 -1.4649  2.2158
  518MOL0     H71443   6.804   4.038   1.631  0.9134  0.2908 -0.2939
  518MOL0     H71444   6.652   4.141   1.636  0.8249  0.6913 -0.1108
  518MOL0     H71445   6.714   4.069   1.496 -0.8208  0.6532  0.2470
  518MOL0     H71446   6.371   4.168   1.321  0.2592  2.0671 -0.4195
  518MOL0     H71447   6.295   4.257   1.094 -1.9692  0.5778  1.1227
  518MOL0     H71448   6.128   4.353   0.962  1.6222 -0.2924  0.3887
  518MOL0     H71449   6.272   4.256   0.897 -0.2601 -2.3190  3.8050
  518MOL0     H71450   6.177   4.368   0.706  4.7198 -2.0832  3.4395
  518MOL0     H71451   6.122   4.198   0.699  0.6208 -0.6439  0.9683
  518MOL0     H71452   5.954   4.419   0.822 -0.4770  0.8665 -1.3558
  518MOL0     H71453   5.907   4.246   0.799 -1.7946  1.3262 -0.7329
  518MOL0     H71454   5.886   4.276   0.574  0.5620 -0.1619  0.2030
  518MOL0     H71455   5.950   4.444   0.569  0.0689  1.0896  1.3642
  518MOL0     H71456   5.711   4.445   0.543 -2.9550  2.0489  1.6590
  518MOL0     H71457   5.690   4.365   0.688 -0.1376  1.8992  3.3482
  518MOL0     H71458   5.665   4.628   0.670 -1.0125  1.0832  2.4437
  518MOL0     H71459   5.832   4.623   0.709  1.6486 -3.2133 -1.1372
  518MOL0     H71460   5.714   4.447   0.899  0.1140 -0.0692  0.9750
  518MOL0     H71461   5.614   4.590   0.905  1.3513  0.8544  0.1398
  518MOL0     H71462   5.899   4.572   0.950 -0.8048 -0.2011  2.2303
  518MOL0     H71463   5.768   4.647   1.052 -4.2005  0.7374 -1.4022
  518MOL0     H71464   6.027   3.920   1.083 -1.7460 -1.2750  4.3985
  518MOL0     H71465   6.134   3.824   1.276  1.7364  0.4353  1.3366
  518MOL0     H71466   6.348   3.725   1.566  0.9667  1.7671 -1.2343
  518MOL0     H71467   6.426   3.599   1.757 -1.5886 -0.3199 -1.5203
  518MOL0     H71468   6.641   3.697   3.677 -2.7909 -1.0230  3.6515
  518MOL0     H71469   6.404   3.753   3.743  1.2547 -1.8578 -0.6626
  518MOL0     H71470   6.350   3.991   4.047  2.2341  2.6827 -0.9175
  518MOL0     H71471   6.295   4.036   4.260 -1.3525 -2.5755 -1.7384
  518MOL0     H71472   6.044   4.072   4.459 -0.4697  0.5457  0.0403
  518MOL0     H71473   6.218   4.094   4.445 -0.0699 -1.5002  1.1273
  518MOL0     H71474   6.109   4.143   4.668  0.1495 -3.2228 -1.9251
  518MOL0     H71475   6.015   4.271   4.578 -0.5130  0.8260  2.4793
  518MOL0     H71476   6.319   4.290   4.597 -1.9594 -2.5440 -1.5466
  518MOL0     H71477   6.201   4.413   4.540 -4.6178 -2.1940 -1.5255
  518MOL0     H71478   6.306   4.477   4.761  2.4530 -2.4667 -0.9546
  518MOL0     H71479   6.246   4.325   4.821  0.9554 -0.3588 -0.2758
  518MOL0     H71480   5.889   4.581   4.765 -0.1027  1.8613  1.9717
  518MOL0     H71481   6.002   4.321   4.135 -1.4459 -1.2594 -2.3329
  518MOL0     H71482   5.955   4.265   3.813 -1.1925 -0.8749  0.9435
  518MOL0     H71483   5.970   4.381   3.933 -0.4331 -1.4005  0.8602
  518MOL0     H71484   6.103   4.376   3.817  1.6028 -0.1301  2.1454
  519MOL0     O71485   5.858   8.901   8.142 -0.3936 -0.2504 -0.1255
  519MOL0     C71486   5.796   8.879   8.248 -0.0397 -0.9406 -0.5836
  519MOL0     O71487   5.664   8.903   8.269 -1.0985  0.0840 -0.0962
  519MOL0     C71488   5.590   8.938   8.162  0.0885 -0.0887  0.2240
  519MOL0     C71489   5.606   9.067   8.108  0.4931  0.8925 -0.2006
  519MOL0     C71490   5.514   9.119   8.020 -0.6257  0.4134 -0.4290
  519MOL0     C71491   5.413   9.033   7.971  0.0392  1.1131 -0.0196
  519MOL0     O71492   5.323   9.077   7.877  1.1129 -0.6553  0.1835
  519MOL0     C71493   5.188   9.073   7.938 -0.3408 -0.0885 -0.0211
  519MOL0     C71494   5.107   9.183   7.871 -0.8361  0.3266 -0.0086
  519MOL0     C71495   4.961   9.185   7.909  0.8558  0.1657  0.2101
  519MOL0     C71496   4.907   9.318   7.854 -0.2279  1.1114 -0.3855
  519MOL0     C71497   4.774   9.369   7.915 -0.5161  0.3016  1.1524
  519MOL0     C71498   4.712   9.494   7.853 -0.2028  0.9025 -0.1152
  519MOL0     C71499   4.780   9.621   7.911  0.2661 -0.7310 -0.3021
  519MOL0     C71500   4.694   9.746   7.891 -0.3022 -0.8251  0.2954
  519MOL0     N71501   4.768   9.867   7.914  0.4936 -0.1341  0.5502
  519MOL0     C71502   4.823   9.901   8.036 -1.2236  0.9650 -0.6898
  519MOL0     C71503   4.898  10.014   8.010  0.7722 -0.3723  0.7479
  519MOL0     C71504   5.000  10.086   8.093 -0.1419 -0.4946  0.3037
  519MOL0     C71505   4.959  10.141   8.230 -0.0756 -0.0559  0.3676
  519MOL0     C71506   5.089  10.175   8.311  0.1904  0.0164  0.2851
  519MOL0     C71507   5.052  10.200   8.462 -0.3923  0.3695  1.0347
  519MOL0     O71508   5.166  10.208   8.548  0.3794 -1.1441  0.6336
  519MOL0     C71509   5.151  10.229   8.679 -0.0290  0.4829 -0.1538
  519MOL0     C71510   5.276  10.214   8.741 -0.1507  0.5838  0.2546
  519MOL0     C71511   5.296  10.232   8.878 -0.4866  0.9033 -0.0784
  519MOL0     C71512   5.442  10.222   8.923  0.4035 -0.1649  0.2309
  519MOL0     C71513   5.186  10.272   8.961 -0.2445 -0.0964  0.2250
  519MOL0     C71514   5.189  10.300   9.104 -0.1060  0.6884  0.4586
  519MOL0     O71515   5.068  10.330   9.163  0.2378 -0.1381  0.8816
  519MOL0     C71516   5.078  10.362   9.298  0.9650  0.3023  0.0418
  519MOL0     C71517   5.066  10.500   9.338  0.4663  0.9153 -0.0078
  519MOL0     C71518   5.088  10.537   9.469  0.5036  0.4140  0.0289
  519MOL0     C71519   5.117  10.437   9.569  0.6296 -0.4189 -1.3191
  519MOL0     O71520   5.147  10.478   9.698  0.7459 -0.3996  0.0130
  519MOL0     C71521   5.207  10.391   9.794  0.1098 -0.6138 -0.7264
  519MOL0     C71522   5.110  10.284   9.850  0.4788 -0.4482 -0.2440
  519MOL0     C71523   4.960  10.333   9.870 -0.0623  0.6620  0.5243
  519MOL0     C71524   4.946  10.351  10.025 -0.0176  0.2845  0.3895
  519MOL0     C71525   4.802  10.387  10.057  0.0359 -0.1034  0.5613
  519MOL0     C71526   4.780  10.344  10.204  0.5838 -0.5153  0.4133
  519MOL0     C71527   4.647  10.386  10.271 -0.6217 -0.0628 -0.1524
  519MOL0     C71528   4.643  10.360  10.415  0.4148 -0.2440 -0.1690
  519MOL0    Cl71529   4.693  10.186  10.459  0.1676 -0.2638 -0.3233
  519MOL0     C71530   5.129  10.301   9.529 -0.0537 -1.0724 -0.1910
  519MOL0     C71531   5.098  10.269   9.399  0.4140 -0.2321 -0.8261
  519MOL0     O71532   5.295  10.300   9.164 -0.3130 -0.2956 -0.1218
  519MOL0     C71533   5.053  10.273   8.892 -0.1551  0.6638  0.0064
  519MOL0     C71534   5.036  10.253   8.756 -0.0479  0.4115 -1.3666
  519MOL0     N71535   4.886  10.048   7.870 -0.2284 -0.3741 -0.4728
  519MOL0     N71536   4.806   9.962   7.821  0.1684  0.5420  1.8572
  519MOL0     C71537   5.403   8.897   8.020  0.5118  0.1573  0.3935
  519MOL0     C71538   5.494   8.859   8.112  0.1374  0.2585 -1.2648
  519MOL0     C71539   5.865   8.832   8.374 -0.2747  0.2233  0.7335
  519MOL0     C71540   5.993   8.775   8.351  0.5294  0.1812 -0.0460
  519MOL0     C71541   6.059   8.716   8.457 -0.8731 -0.3500 -0.1566
  519MOL0     C71542   6.023   8.714   8.589  0.4717  0.2622  0.0074
  519MOL0     O71543   6.086   8.644   8.695 -0.0144 -0.2717 -0.2884
  519MOL0     C71544   6.196   8.571   8.670 -0.6152  0.9446  0.4171
  519MOL0     C71545   6.181   8.446   8.581 -0.5015  0.1711 -0.3546
  519MOL0     C71546   6.288   8.406   8.485 -0.2288 -0.7286 -0.2987
  519MOL0     C71547   6.429   8.423   8.540  0.4753  0.3573 -0.9946
  519MOL0     C71548   6.527   8.444   8.435 -0.3304 -0.8965 -0.8521
  519MOL0     C71549   6.617   8.457   8.357  0.0706 -0.5121  1.0544
  519MOL0     C71550   5.907   8.784   8.620  0.3096 -0.2124 -0.7438
  519MOL0     C71551   5.828   8.845   8.517  0.7244  0.5811  0.7319
  519MOL0     C71552   5.716   8.931   8.564  0.7026  0.8109 -0.7528
  519MOL0     H71553   5.692   9.129   8.130 -0.2446  2.0614 -0.5140
  519MOL0     H71554   5.540   9.216   7.979 -0.6212  0.1940 -0.9465
  519MOL0     H71555   5.191   9.095   8.045  0.9121 -0.1480 -0.0356
  519MOL0     H71556   5.142   8.977   7.916 -0.7949  0.0410  0.3428
  519MOL0     H71557   5.164   9.276   7.886  0.4471 -0.4798  0.2550
  519MOL0     H71558   5.112   9.183   7.762  0.9140  0.4995  0.0319
  519MOL0     H71559   4.904   9.101   7.869 -2.0610  1.9057  0.4768
  519MOL0     H71560   4.951   9.187   8.018 -2.5267 -2.0739  0.0784
  519MOL0     H71561   4.977   9.395   7.887 -0.0214 -0.5573  3.6425
  519MOL0     H71562   4.898   9.300   7.746 -0.5828 -2.1314  0.0639
  519MOL0     H71563   4.789   9.391   8.021  2.5477  2.7997  0.3466
  519MOL0     H71564   4.706   9.283   7.919 -0.7515  0.1520 -2.5931
  519MOL0     H71565   4.705   9.487   7.744 -1.8877 -3.2292  0.0933
  519MOL0     H71566   4.612   9.482   7.895  0.1486 -3.6426 -0.0419
  519MOL0     H71567   4.875   9.631   7.857  0.0407 -1.6282 -0.8828
  519MOL0     H71568   4.809   9.611   8.016  0.0608 -0.3766 -0.2098
  519MOL0     H71569   4.662   9.744   7.786  3.8066  1.4845 -1.2443
  519MOL0     H71570   4.612   9.753   7.964  0.1354  1.8940  0.6216
  519MOL0     H71571   4.806   9.861   8.136 -1.8684  0.7143 -0.8968
  519MOL0     H71572   5.042  10.175   8.045 -2.5827 -0.4694 -2.0619
  519MOL0     H71573   5.086  10.019   8.103  0.1948 -0.1127  0.0277
  519MOL0     H71574   4.895  10.227   8.209  1.4162  0.7122 -1.2696
  519MOL0     H71575   4.908  10.063   8.288 -2.6085  0.9284 -0.4364
  519MOL0     H71576   5.165  10.097   8.310  0.5220  0.3238 -1.5334
  519MOL0     H71577   5.130  10.264   8.262  1.8486  0.4763  2.3933
  519MOL0     H71578   4.985  10.286   8.464  0.4172  1.3364 -3.1501
  519MOL0     H71579   4.994  10.112   8.492  2.3356 -0.9983  2.8034
  519MOL0     H71580   5.358  10.199   8.671 -0.4118  1.6604 -0.2884
  519MOL0     H71581   5.457  10.145   9.000 -0.8651 -1.6314 -0.9264
  519MOL0     H71582   5.467  10.323   8.955  0.9986  1.0977 -3.7139
  519MOL0     H71583   5.505  10.208   8.835 -2.1349 -2.1891 -1.4221
  519MOL0     H71584   5.043  10.568   9.257  0.5719  0.8213 -0.1169
  519MOL0     H71585   5.075  10.643   9.486  0.0021  0.6205 -1.4706
  519MOL0     H71586   5.300  10.342   9.764 -0.4067 -2.1811  0.1207
  519MOL0     H71587   5.243  10.449   9.880 -0.2196 -0.4753 -0.6789
  519MOL0     H71588   5.102  10.197   9.784 -2.5131 -0.2716 -0.2429
  519MOL0     H71589   5.161  10.250   9.942  1.7656  1.5219 -0.1741
  519MOL0     H71590   4.890  10.263   9.823 -0.8977  0.1953  2.3667
  519MOL0     H71591   4.944  10.430   9.821  0.5218  0.4316 -0.1223
  519MOL0     H71592   5.016  10.426  10.064  1.9803 -1.7573  0.9357
  519MOL0     H71593   4.978  10.258  10.071  1.0887 -0.7134 -2.1923
  519MOL0     H71594   4.786  10.493  10.036  1.5652  0.0736  0.1968
  519MOL0     H71595   4.734  10.329   9.994  2.0383 -1.3298 -0.5689
  519MOL0     H71596   4.863  10.390  10.259  3.2548 -1.5395 -2.4684
  519MOL0     H71597   4.785  10.235  10.197  1.0806 -0.4342 -0.7657
  519MOL0     H71598   4.565  10.328  10.229  0.7607 -1.7660 -0.6006
  519MOL0     H71599   4.624  10.492  10.254  0.4910  0.3829  0.9317
  519MOL0     H71600   4.547  10.382  10.462  0.7446  1.1847 -0.1124
  519MOL0     H71601   4.718  10.422  10.465 -0.3103 -2.3979  4.0674
  519MOL0     H71602   5.150  10.223   9.601 -0.0741  1.9960  3.4846
  519MOL0     H71603   5.104  10.162   9.380 -2.4443 -0.5122 -0.7356
  519MOL0     H71604   4.962  10.278   8.951  1.1174  0.8503  2.0571
  519MOL0     H71605   4.935  10.245   8.718 -0.3847 -1.4737 -0.2348
  519MOL0     H71606   5.325   8.830   7.986  1.3393  0.1161 -1.5803
  519MOL0     H71607   5.493   8.757   8.151  1.4801  0.0177 -1.8073
  519MOL0     H71608   6.042   8.783   8.255  1.2000 -1.3876  0.1229
  519MOL0     H71609   6.150   8.663   8.430  1.1067  1.7267  1.9039
  519MOL0     H71610   6.266   8.641   8.623 -0.3554  0.7645  0.5401
  519MOL0     H71611   6.247   8.543   8.762 -1.8611  0.7820  1.0715
  519MOL0     H71612   6.081   8.427   8.541 -1.7225 -1.6124  3.1289
  519MOL0     H71613   6.190   8.372   8.661  0.7105  0.6572 -0.0082
  519MOL0     H71614   6.266   8.302   8.459 -1.1913 -0.4381 -0.6856
  519MOL0     H71615   6.274   8.465   8.394 -1.3327 -1.7471 -0.8135
  519MOL0     H71616   6.457   8.337   8.602  0.9342 -1.0424 -3.0762
  519MOL0     H71617   6.432   8.508   8.609 -2.2298 -0.1308 -0.1486
  519MOL0     H71618   6.695   8.449   8.284  1.3870  0.4575  2.2927
  519MOL0     H71619   5.891   8.798   8.727  1.6478 -0.8857 -0.4355
  519MOL0     H71620   5.699   8.912   8.670  0.8887 -0.7961 -0.9873
  519MOL0     H71621   5.755   9.031   8.545  0.3826  1.0278 -0.2975
  519MOL0     H71622   5.619   8.913   8.515 -1.2350 -2.6301  3.5753
  520MOL0     O71623   3.341   9.884   6.633 -0.7226  0.1640  1.4084
  520MOL0     C71624   3.371   9.771   6.674 -0.7740 -1.3537  0.6231
  520MOL0     O71625   3.445   9.673   6.606  0.3322 -0.4133 -0.0727
  520MOL0     C71626   3.474   9.695   6.475 -0.0759 -0.0039 -0.5638
  520MOL0     C71627   3.574   9.780   6.432 -0.1468  0.4264  0.9557
  520MOL0     C71628   3.581   9.800   6.296 -0.1648  0.3493  0.2748
  520MOL0     C71629   3.502   9.739   6.194 -0.8547 -0.6191 -0.9896
  520MOL0     O71630   3.518   9.764   6.057  1.0099 -0.1191 -0.3035
  520MOL0     C71631   3.636   9.820   6.001  0.0678 -0.2643  0.4429
  520MOL0     C71632   3.620   9.851   5.858  0.1742 -0.4979 -0.1688
  520MOL0     C71633   3.660   9.728   5.765 -0.2084  0.2585  0.4193
  520MOL0     C71634   3.579   9.730   5.641  0.1183  0.8518  0.2008
  520MOL0     C71635   3.615   9.608   5.554 -0.9413 -0.1102 -0.7031
  520MOL0     C71636   3.562   9.639   5.412 -0.7194  0.0031 -0.3642
  520MOL0     C71637   3.574   9.505   5.338  0.0810  0.0486  0.3287
  520MOL0     C71638   3.531   9.518   5.191 -0.5129  0.6291 -0.3354
  520MOL0     N71639   3.387   9.552   5.188 -0.2702 -0.1706  0.0983
  520MOL0     C71640   3.289   9.463   5.225  0.1453 -1.0042  0.7310
  520MOL0     C71641   3.171   9.538   5.227 -0.1412 -0.1835  0.0069
  520MOL0     C71642   3.036   9.499   5.262 -0.6011  0.4984 -0.3695
  520MOL0     C71643   2.959   9.437   5.140  0.2204  0.3323  0.4407
  520MOL0     C71644   3.033   9.321   5.064  0.4204  0.2070 -0.3096
  520MOL0     C71645   3.052   9.199   5.146 -0.2571  0.1865 -0.0856
  520MOL0     O71646   3.112   9.103   5.061 -0.2201 -0.0552  0.4496
  520MOL0     C71647   3.135   8.975   5.112 -0.3895  0.0081  0.1205
  520MOL0     C71648   3.141   8.883   5.017  0.0379  0.2744  0.1373
  520MOL0     C71649   3.180   8.750   5.054 -0.3188  0.1213  0.0643
  520MOL0     C71650   3.192   8.643   4.947 -0.4405 -0.8496  1.0223
  520MOL0     C71651   3.198   8.721   5.196 -0.9165  0.3614 -0.6635
  520MOL0     C71652   3.226   8.592   5.246 -0.7949  0.3136  0.5972
  520MOL0     O71653   3.359   8.567   5.268  0.3674  0.1867  0.4500
  520MOL0     C71654   3.369   8.444   5.328  0.4005 -0.4807 -0.7678
  520MOL0     C71655   3.398   8.429   5.463 -0.3085  0.9348 -0.3784
  520MOL0     C71656   3.412   8.301   5.521  0.4265  0.3585  0.0841
  520MOL0     C71657   3.395   8.187   5.437  0.0331  0.2927  0.3477
  520MOL0     O71658   3.395   8.054   5.480  0.6433  0.0473 -0.8261
  520MOL0     C71659   3.361   8.035   5.620  0.3649  0.5618  0.1909
  520MOL0     C71660   3.321   7.893   5.660 -0.3325  0.2612 -0.2108
  520MOL0     C71661   3.440   7.803   5.651 -1.1591  0.1343 -0.8200
  520MOL0     C71662   3.399   7.658   5.683 -0.0182 -0.4686 -0.7349
  520MOL0     C71663   3.496   7.592   5.777  0.0275  0.7836 -0.0647
  520MOL0     C71664   3.442   7.454   5.822  0.6438 -0.4800  0.7425
  520MOL0     C71665   3.302   7.443   5.885 -0.1521  0.8738 -0.1925
  520MOL0     C71666   3.296   7.527   6.022  0.8527 -0.2711 -0.6625
  520MOL0    Cl71667   3.398   7.453   6.152  0.2822  0.1633  0.0606
  520MOL0     C71668   3.364   8.206   5.302 -0.6429  0.7160  0.7328
  520MOL0     C71669   3.347   8.334   5.245 -0.7828  0.3115 -0.8585
  520MOL0     O71670   3.136   8.511   5.259 -0.4820 -0.1492  0.0923
  520MOL0     C71671   3.162   8.811   5.291 -0.8620 -0.2045 -0.5027
  520MOL0     C71672   3.136   8.945   5.248  0.5685  0.1827  0.2703
  520MOL0     N71673   3.210   9.660   5.183 -0.1889  0.1415 -0.4675
  520MOL0     N71674   3.338   9.670   5.159 -0.0291  0.2878  0.2475
  520MOL0     C71675   3.410   9.652   6.239  0.9732  0.9175 -0.6128
  520MOL0     C71676   3.391   9.632   6.378  0.2799 -0.9200 -0.3983
  520MOL0     C71677   3.335   9.740   6.817 -1.1194 -0.8932  0.3389
  520MOL0     C71678   3.377   9.624   6.868  0.0383  0.3133  0.3736
  520MOL0     C71679   3.350   9.582   6.995 -0.1797 -0.3303  0.4612
  520MOL0     C71680   3.251   9.655   7.070 -0.8506  0.7900 -0.8676
  520MOL0     O71681   3.204   9.627   7.200  0.6396  0.1393 -0.4272
  520MOL0     C71682   3.255   9.517   7.270  0.1451  0.4130 -0.7291
  520MOL0     C71683   3.174   9.518   7.408  0.0477 -0.4183 -0.1842
  520MOL0     C71684   3.245   9.429   7.524  0.0249 -0.2191 -1.1743
  520MOL0     C71685   3.214   9.473   7.663 -0.2905 -0.0411 -0.8624
  520MOL0     C71686   3.293   9.588   7.714 -0.1877  0.0826 -0.5060
  520MOL0     C71687   3.340   9.684   7.765  0.1526 -0.8942 -0.0721
  520MOL0     C71688   3.213   9.780   7.022 -0.3041 -1.2974  0.0194
  520MOL0     C71689   3.261   9.825   6.899  0.6608 -0.0106 -0.0343
  520MOL0     C71690   3.203   9.957   6.860  0.9650  0.1882  0.9099
  520MOL0     H71691   3.628   9.837   6.507  0.1824  0.0459  1.0093
  520MOL0     H71692   3.658   9.871   6.269  2.6695 -2.5942 -0.0432
  520MOL0     H71693   3.721   9.752   6.010  0.3504  0.3291  3.1891
  520MOL0     H71694   3.684   9.908   6.044  3.4240 -0.1846 -3.0225
  520MOL0     H71695   3.513   9.859   5.837  0.0456 -0.7164  0.3908
  520MOL0     H71696   3.676   9.943   5.835 -0.5521 -0.4532 -1.8563
  520MOL0     H71697   3.766   9.737   5.741 -0.8820  1.2061 -2.5860
  520MOL0     H71698   3.641   9.631   5.812  0.4645  0.4192  1.0378
  520MOL0     H71699   3.473   9.729   5.665 -0.2574 -0.9401 -1.2813
  520MOL0     H71700   3.594   9.824   5.587 -5.0783  0.1244 -3.2659
  520MOL0     H71701   3.552   9.526   5.589  0.2635 -0.2358  1.3410
  520MOL0     H71702   3.721   9.578   5.548 -1.4717 -2.8578  1.5381
  520MOL0     H71703   3.464   9.685   5.422 -0.8883 -0.5103  0.4224
  520MOL0     H71704   3.619   9.719   5.365 -0.5504 -0.8620 -1.6945
  520MOL0     H71705   3.516   9.429   5.389  0.4454 -2.0380 -2.1756
  520MOL0     H71706   3.677   9.469   5.327 -0.6373 -1.4507 -2.1270
  520MOL0     H71707   3.585   9.595   5.135  1.5788  1.8508  3.1075
  520MOL0     H71708   3.561   9.424   5.143  1.7636  0.7862  0.7054
  520MOL0     H71709   3.307   9.374   5.284 -2.4277 -1.1400  1.4141
  520MOL0     H71710   2.972   9.578   5.302 -0.5253  0.0696  0.6297
  520MOL0     H71711   3.037   9.428   5.345  1.5212 -0.4152 -1.1024
  520MOL0     H71712   2.861   9.395   5.163  0.4615 -0.9606 -0.7535
  520MOL0     H71713   2.945   9.525   5.077  0.1039  0.3787  0.5305
  520MOL0     H71714   2.968   9.285   4.984  0.8649 -2.4617  0.4594
  520MOL0     H71715   3.127   9.363   5.025 -0.5552  1.5934 -1.2937
  520MOL0     H71716   3.127   9.217   5.223  0.8597 -0.9097 -0.8807
  520MOL0     H71717   2.957   9.161   5.185 -0.8200  0.4097 -1.2106
  520MOL0     H71718   3.122   8.911   4.914  2.7980 -0.9743 -0.8246
  520MOL0     H71719   3.206   8.686   4.848  1.5049 -3.0409  0.2558
  520MOL0     H71720   3.100   8.584   4.946 -0.7060 -0.4326  0.3933
  520MOL0     H71721   3.287   8.592   4.968  1.1014  1.3643 -0.1887
  520MOL0     H71722   3.410   8.521   5.520  0.9719  0.4858  0.1257
  520MOL0     H71723   3.434   8.302   5.627  2.0755 -0.4828 -0.2237
  520MOL0     H71724   3.440   8.074   5.684 -0.4993  2.3321  0.2425
  520MOL0     H71725   3.270   8.091   5.646  1.4263  1.4781  2.1852
  520MOL0     H71726   3.286   7.899   5.764 -0.4046  0.7255 -0.2618
  520MOL0     H71727   3.234   7.873   5.597 -2.3755  2.0281  1.8413
  520MOL0     H71728   3.516   7.836   5.723 -2.4020 -1.4984  1.3667
  520MOL0     H71729   3.477   7.812   5.549 -3.6614 -1.3186 -1.9603
  520MOL0     H71730   3.367   7.601   5.594  0.6448 -0.1746 -1.1661
  520MOL0     H71731   3.312   7.663   5.749  1.1477  0.5911  0.7643
  520MOL0     H71732   3.598   7.582   5.738  0.8932 -0.3965  2.2841
  520MOL0     H71733   3.493   7.652   5.869 -0.3748  0.7500 -0.0559
  520MOL0     H71734   3.516   7.417   5.894  3.3671  3.8670  0.5722
  520MOL0     H71735   3.456   7.393   5.733  0.6052  2.6468 -1.5510
  520MOL0     H71736   3.280   7.337   5.905 -0.6607  1.1060  0.5529
  520MOL0     H71737   3.223   7.471   5.815 -1.0863 -3.2209 -1.0787
  520MOL0     H71738   3.192   7.540   6.052  1.0430  0.4596 -0.2642
  520MOL0     H71739   3.336   7.627   6.000 -0.7657  1.2121  2.3470
  520MOL0     H71740   3.359   8.126   5.229  0.7544 -0.5443  1.9378
  520MOL0     H71741   3.312   8.344   5.142  1.2747 -0.9395 -1.7469
  520MOL0     H71742   3.152   8.770   5.391 -1.3766 -0.3913 -0.6240
  520MOL0     H71743   3.108   9.015   5.326 -0.7422 -2.4007  2.2581
  520MOL0     H71744   3.346   9.603   6.166 -0.7211  1.9051  0.1380
  520MOL0     H71745   3.308   9.572   6.415 -1.3860  2.9153  2.8939
  520MOL0     H71746   3.463   9.581   6.818  0.5316  0.9092  0.7080
  520MOL0     H71747   3.393   9.494   7.041  2.9355  0.8354  0.0292
  520MOL0     H71748   3.242   9.425   7.211  0.7848 -0.1760  0.0332
  520MOL0     H71749   3.361   9.533   7.288 -0.4353  2.9768  0.9913
  520MOL0     H71750   3.079   9.471   7.382  0.3405 -1.3914  0.4076
  520MOL0     H71751   3.159   9.618   7.449  1.4461 -0.5202  0.6460
  520MOL0     H71752   3.212   9.326   7.507 -0.6597  0.0307 -1.3579
  520MOL0     H71753   3.354   9.439   7.514 -0.0120 -0.8558 -2.4017
  520MOL0     H71754   3.225   9.383   7.724 -0.8715  0.1575 -0.4620
  520MOL0     H71755   3.107   9.494   7.670 -0.2753 -0.0946 -0.4320
  520MOL0     H71756   3.383   9.772   7.808  3.4101 -1.2936 -2.2018
  520MOL0     H71757   3.154   9.850   7.079  1.3060  1.5780 -1.6363
  520MOL0     H71758   3.139   9.954   6.771  0.6886  2.4983  0.9586
  520MOL0     H71759   3.132   9.992   6.936  1.0261 -0.7393  1.3951
  520MOL0     H71760   3.286  10.028   6.846  3.6892 -2.6673  1.5436
  521MOL0     O71761   6.629   8.767   9.635  0.3250  0.8011 -0.1456
  521MOL0     C71762   6.590   8.657   9.684  0.0757  0.4163  0.5655
  521MOL0     O71763   6.479   8.639   9.760 -0.6669 -0.0634  0.1013
  521MOL0     C71764   6.399   8.749   9.774 -0.1965  0.0337 -0.4153
  521MOL0     C71765   6.264   8.748   9.750 -0.3686  0.1210 -0.1046
  521MOL0     C71766   6.177   8.847   9.788 -0.1315  0.2688  0.0872
  521MOL0     C71767   6.234   8.963   9.844 -0.2931 -0.5075 -0.1828
  521MOL0     O71768   6.152   9.067   9.870 -0.3796  0.2070 -0.1711
  521MOL0     C71769   6.196   9.207   9.844 -0.5223  0.6667  0.0240
  521MOL0     C71770   6.075   9.296   9.876  0.5134 -0.4371  0.1147
  521MOL0     C71771   6.012   9.266  10.012 -0.1838 -0.3858 -0.9122
  521MOL0     C71772   5.895   9.357  10.027  0.5935  0.5610  0.3581
  521MOL0     C71773   5.921   9.505  10.050  0.5873 -0.5336 -0.5540
  521MOL0     C71774   6.031   9.537  10.147  0.2513  0.6043 -0.0148
  521MOL0     C71775   6.020   9.673  10.211  0.3150  0.3638 -0.4303
  521MOL0     C71776   6.031   9.780  10.107  0.1914  1.0530 -0.0050
  521MOL0     N71777   6.029   9.925  10.150 -0.1856 -0.4926  0.0339
  521MOL0     C71778   6.079  10.030  10.085 -0.0730 -0.2366 -0.2492
  521MOL0     C71779   6.033  10.143  10.142  0.2964 -0.1958  0.1929
  521MOL0     C71780   6.052  10.287  10.090 -0.4598 -1.0012  0.6150
  521MOL0     C71781   6.201  10.333  10.090  0.3716 -0.3440 -0.4714
  521MOL0     C71782   6.221  10.450   9.991  0.9453 -0.7643 -0.0109
  521MOL0     C71783   6.365  10.501   9.985 -0.3076  0.3887 -0.5556
  521MOL0     O71784   6.412  10.543  10.118  0.1577 -0.1447  0.1923
  521MOL0     C71785   6.416  10.683  10.135 -0.7366 -0.4681 -0.5512
  521MOL0     C71786   6.332  10.775  10.074 -0.1710 -0.7104 -0.3765
  521MOL0     C71787   6.348  10.914  10.089 -0.4699  0.6531  0.2907
  521MOL0     C71788   6.256  11.002  10.010 -0.1115  0.4163 -0.7415
  521MOL0     C71789   6.459  10.958  10.165  0.4370  0.2684 -0.5207
  521MOL0     C71790   6.494  11.096  10.183  0.1159 -0.6112  0.4866
  521MOL0     O71791   6.397  11.191  10.178 -0.4771 -0.7476  0.3220
  521MOL0     C71792   6.434  11.323  10.198  0.5962  0.0645  0.9000
  521MOL0     C71793   6.432  11.374  10.329 -0.0245 -0.0464 -0.7279
  521MOL0     C71794   6.449  11.515  10.349 -0.3375  0.6572 -0.0160
  521MOL0     C71795   6.483  11.598  10.247 -0.2377 -0.1879 -0.5112
  521MOL0     O71796   6.498  11.729  10.289  0.0132 -0.4374  0.5643
  521MOL0     C71797   6.540  11.831  10.190 -0.2124  0.3975  0.3972
  521MOL0     C71798   6.580  11.961  10.265 -1.7086 -0.4323 -0.3595
  521MOL0     C71799   6.639  12.067  10.165  1.1679  0.5137  0.1841
  521MOL0     C71800   6.679  12.182  10.248  1.1524 -0.0088  0.0299
  521MOL0     C71801   6.691  12.321  10.185 -0.6364 -0.3656  0.5579
  521MOL0     C71802   6.782  12.307  10.062 -0.2680 -0.1239 -0.0265
  521MOL0     C71803   6.820  12.449  10.003  0.1346 -0.1312  0.1300
  521MOL0     C71804   6.935  12.423   9.906 -0.0013  0.9657  0.3047
  521MOL0    Cl71805   6.947  12.530   9.758  0.2723 -0.1187  0.6779
  521MOL0     C71806   6.493  11.546  10.114 -0.2274 -0.7465  0.2589
  521MOL0     C71807   6.463  11.413  10.093 -0.1818 -0.6002 -0.1993
  521MOL0     O71808   6.611  11.123  10.200  0.3410  0.7001  1.0603
  521MOL0     C71809   6.540  10.862  10.233  1.0052 -0.2664  0.4911
  521MOL0     C71810   6.515  10.728  10.217 -0.8443 -0.3308  0.6001
  521MOL0     N71811   5.952  10.109  10.250  0.0333 -0.3626 -0.2858
  521MOL0     N71812   5.945   9.976  10.249  0.0032  0.4493  0.1339
  521MOL0     C71813   6.369   8.972   9.878 -0.2949  1.3215  0.3098
  521MOL0     C71814   6.455   8.860   9.844  0.3868 -0.8074  0.1328
  521MOL0     C71815   6.666   8.533   9.644  0.0120  0.0477  0.3854
  521MOL0     C71816   6.601   8.404   9.656 -0.4131  0.3274  0.0451
  521MOL0     C71817   6.671   8.284   9.634  0.5202 -0.8790  0.2378
  521MOL0     C71818   6.803   8.287   9.583 -0.4498 -0.1757  0.8788
  521MOL0     O71819   6.873   8.183   9.540  0.5310 -0.1574  0.1245
  521MOL0     C71820   6.903   8.080   9.638  0.7048 -0.6205 -0.5145
  521MOL0     C71821   7.011   7.974   9.600  0.9074  0.4261 -0.3390
  521MOL0     C71822   7.145   8.047   9.563  0.4726 -0.0771 -0.6041
  521MOL0     C71823   7.250   7.952   9.510 -0.3098  0.4187 -0.2281
  521MOL0     C71824   7.295   7.856   9.598  0.5500  0.1559 -0.1959
  521MOL0     C71825   7.332   7.772   9.673 -0.3407 -0.6078  0.6764
  521MOL0     C71826   6.866   8.416   9.568  0.0190 -0.0196  0.3422
  521MOL0     C71827   6.801   8.534   9.593  0.1866 -0.5418 -0.8194
  521MOL0     C71828   6.886   8.663   9.581 -0.0889 -0.1653 -0.0265
  521MOL0     H71829   6.218   8.657   9.715 -3.8266  1.5316  0.3860
  521MOL0     H71830   6.069   8.841   9.782 -0.1301 -1.9798  1.1238
  521MOL0     H71831   6.230   9.206   9.740 -1.4475 -0.7600 -0.3034
  521MOL0     H71832   6.282   9.246   9.899 -1.0699  2.4714 -0.3483
  521MOL0     H71833   6.087   9.404   9.862  0.2088 -0.5029 -0.6911
  521MOL0     H71834   5.999   9.272   9.802  1.0167  0.2825 -0.6469
  521MOL0     H71835   5.973   9.164  10.022 -3.1893  0.9023  3.4874
  521MOL0     H71836   6.077   9.283  10.098 -1.0639  0.0366 -0.3168
  521MOL0     H71837   5.829   9.353   9.939  0.7376 -3.6289  0.2617
  521MOL0     H71838   5.839   9.319  10.112 -0.0936  0.3754 -0.1651
  521MOL0     H71839   5.828   9.556  10.079  0.3860 -2.0412  1.6797
  521MOL0     H71840   5.940   9.540   9.948 -0.8587 -1.5160 -1.2011
  521MOL0     H71841   6.026   9.457  10.221 -3.5483  0.4251 -0.2713
  521MOL0     H71842   6.125   9.528  10.093 -0.0934 -1.2815 -0.3647
  521MOL0     H71843   6.100   9.685  10.284 -0.6414 -1.4977  1.0032
  521MOL0     H71844   5.921   9.681  10.257 -0.0366  0.1505 -1.1191
  521MOL0     H71845   6.125   9.771  10.052 -0.3461 -0.5572 -0.7164
  521MOL0     H71846   5.955   9.752  10.033  1.3429  0.4712 -1.0027
  521MOL0     H71847   6.140  10.033   9.995  0.6783  1.3369  0.2845
  521MOL0     H71848   6.001  10.359  10.155  0.2249 -1.9016  2.1855
  521MOL0     H71849   6.013  10.303   9.989  2.6359 -0.3385 -0.5800
  521MOL0     H71850   6.217  10.355  10.196 -0.3807  0.2351 -0.4719
  521MOL0     H71851   6.273  10.253  10.070  1.9423 -0.0476  3.1765
  521MOL0     H71852   6.185  10.410   9.896 -1.0062  0.0683  0.3337
  521MOL0     H71853   6.148  10.528  10.014  2.0558 -0.1668  1.6720
  521MOL0     H71854   6.414  10.410   9.947 -1.5818  0.7458 -3.2911
  521MOL0     H71855   6.380  10.578   9.909  0.5237  0.9164  0.1288
  521MOL0     H71856   6.247  10.749  10.012  0.7136 -1.5093 -1.2940
  521MOL0     H71857   6.209  10.948   9.926  1.1848 -0.4008 -0.9648
  521MOL0     H71858   6.306  11.089   9.967 -1.5647  0.2068 -3.1111
  521MOL0     H71859   6.191  11.047  10.086  2.8035 -0.6292  2.6226
  521MOL0     H71860   6.398  11.305  10.405 -2.5708  1.0569 -0.7748
  521MOL0     H71861   6.450  11.558  10.449 -0.4797  1.2515 -0.2695
  521MOL0     H71862   6.625  11.798  10.130  1.1852 -0.9315  2.9302
  521MOL0     H71863   6.456  11.842  10.122 -0.7305 -2.9847  0.2993
  521MOL0     H71864   6.502  12.000  10.331 -1.5114  0.1396 -0.4580
  521MOL0     H71865   6.657  11.940  10.340 -0.3790  1.2084 -1.1984
  521MOL0     H71866   6.565  12.100  10.091  0.6328 -0.7241  0.1396
  521MOL0     H71867   6.727  12.027  10.114  2.9890 -0.1666  3.6091
  521MOL0     H71868   6.775  12.155  10.291  0.7755  0.4173  1.1620
  521MOL0     H71869   6.614  12.200  10.334  2.7378 -1.3976  1.6001
  521MOL0     H71870   6.592  12.362  10.162 -0.7824 -0.9068  0.1911
  521MOL0     H71871   6.736  12.384  10.262  0.2825 -0.0815 -0.1879
  521MOL0     H71872   6.728  12.251   9.986  0.6979 -0.8122 -0.2240
  521MOL0     H71873   6.869  12.246  10.089 -3.4548 -3.7177  3.3034
  521MOL0     H71874   6.844  12.518  10.084 -1.6661  1.2750 -0.4638
  521MOL0     H71875   6.735  12.498   9.955  0.2368  0.4736  0.5472
  521MOL0     H71876   6.932  12.326   9.855  0.6288  1.4270 -0.6460
  521MOL0     H71877   7.024  12.445   9.966  0.3934  1.9664 -0.6040
  521MOL0     H71878   6.519  11.611  10.030 -1.7116 -0.8466 -0.2987
  521MOL0     H71879   6.475  11.387   9.988  1.5555 -1.6211  0.2173
  521MOL0     H71880   6.616  10.898  10.302  2.0965 -0.6700 -0.4700
  521MOL0     H71881   6.571  10.653  10.272  0.5994 -0.9344 -1.5419
  521MOL0     H71882   6.408   9.072   9.892 -3.1022  3.3614 -4.1393
  521MOL0     H71883   6.560   8.868   9.869  0.5666  1.3889 -1.0501
  521MOL0     H71884   6.497   8.392   9.683 -0.0876 -1.5747  0.5905
  521MOL0     H71885   6.619   8.189   9.638  1.3723 -1.3503  0.4277
  521MOL0     H71886   6.939   8.127   9.729  2.7729 -0.9913 -1.0911
  521MOL0     H71887   6.811   8.021   9.646 -0.1665  0.8299  0.5255
  521MOL0     H71888   6.963   7.913   9.523 -2.0806 -2.0806  3.1122
  521MOL0     H71889   7.027   7.910   9.687 -2.1189 -1.4877 -1.0160
  521MOL0     H71890   7.130   8.127   9.491  1.1018  0.3381 -0.2831
  521MOL0     H71891   7.172   8.105   9.651 -3.8724  1.0643  0.2529
  521MOL0     H71892   7.331   8.017   9.475 -1.1235  2.3915  1.3048
  521MOL0     H71893   7.207   7.912   9.418  0.8755 -0.7756 -0.2990
  521MOL0     H71894   7.374   7.688   9.724  2.2777 -0.7082 -1.4512
  521MOL0     H71895   6.960   8.412   9.514 -1.3306  1.2629 -2.2515
  521MOL0     H71896   6.904   8.718   9.674  2.0504  0.6214 -0.8434
  521MOL0     H71897   6.987   8.637   9.547 -0.7398 -1.0458 -1.3786
  521MOL0     H71898   6.838   8.730   9.509 -1.3342  0.6070  1.4618
  522MOL0     O71899   9.259   6.624   4.563 -0.9606  0.1229  0.1079
  522MOL0     C71900   9.209   6.732   4.595 -0.0870 -0.2606 -1.1818
  522MOL0     O71901   9.087   6.785   4.566  0.2413 -0.0839 -0.7029
  522MOL0     C71902   9.015   6.712   4.478  0.0947 -0.0954  0.2258
  522MOL0     C71903   8.988   6.763   4.356  1.6422 -0.0392  0.1813
  522MOL0     C71904   8.925   6.683   4.258 -0.0127 -0.5135 -0.0352
  522MOL0     C71905   8.889   6.549   4.289 -0.8316 -1.2713 -0.6823
  522MOL0     O71906   8.830   6.494   4.184  0.7894 -0.4613 -0.3570
  522MOL0     C71907   8.771   6.361   4.199  0.1773 -0.1083 -0.2684
  522MOL0     C71908   8.726   6.313   4.065 -0.2744 -0.3255  0.7527
  522MOL0     C71909   8.681   6.173   4.060 -0.1648  0.3961  0.0142
  522MOL0     C71910   8.548   6.157   4.137  0.4285 -0.5207 -0.1118
  522MOL0     C71911   8.488   6.019   4.116 -0.4874  0.4961  0.0545
  522MOL0     C71912   8.346   6.009   4.171  0.0165 -0.1242 -0.3114
  522MOL0     C71913   8.282   5.869   4.161 -0.1293 -1.5435 -0.6346
  522MOL0     C71914   8.269   5.823   4.024 -0.3367 -0.7580  0.4502
  522MOL0     N71915   8.197   5.699   4.026 -0.6611  0.2387 -0.5248
  522MOL0     C71916   8.244   5.582   4.074 -0.3547 -1.1603 -0.3682
  522MOL0     C71917   8.143   5.494   4.067  0.3578 -0.4382 -0.1761
  522MOL0     C71918   8.145   5.345   4.090 -0.4043 -0.1530  0.4185
  522MOL0     C71919   8.101   5.259   3.969  0.4074  0.2476  0.4562
  522MOL0     C71920   8.197   5.284   3.841  1.2311  0.6094  0.2597
  522MOL0     C71921   8.348   5.239   3.846 -0.4346 -0.5749 -0.4798
  522MOL0     O71922   8.380   5.141   3.945  0.2775 -0.0806  0.3440
  522MOL0     C71923   8.510   5.110   3.957 -0.6158  0.4029 -0.3641
  522MOL0     C71924   8.605   5.118   3.853 -0.4278  1.2955 -0.6899
  522MOL0     C71925   8.742   5.083   3.880  0.1721 -0.8284  0.7168
  522MOL0     C71926   8.836   5.079   3.756 -0.2225  0.4453 -1.4302
  522MOL0     C71927   8.781   5.071   4.014 -0.1469  0.8087 -0.8298
  522MOL0     C71928   8.924   5.068   4.059  0.1356  0.1535  0.9465
  522MOL0     O71929   8.949   5.036   4.187 -0.4069  0.1956  0.3540
  522MOL0     C71930   9.086   5.031   4.218 -1.1980 -0.0707 -0.4674
  522MOL0     C71931   9.157   4.914   4.180 -0.1913  0.3947 -0.6840
  522MOL0     C71932   9.282   4.898   4.226 -0.1474 -0.1350 -1.1720
  522MOL0     C71933   9.345   4.998   4.303  0.2385  0.3101 -0.4240
  522MOL0     O71934   9.477   4.983   4.334  0.2548 -0.3846  0.5982
  522MOL0     C71935   9.555   5.093   4.396  0.0523  0.3601  0.5694
  522MOL0     C71936   9.705   5.075   4.376  0.2859  0.7412  0.6966
  522MOL0     C71937   9.765   5.093   4.228 -0.4010 -0.7202 -0.9463
  522MOL0     C71938   9.913   5.083   4.245 -0.5123 -1.2176  0.8084
  522MOL0     C71939   9.986   5.082   4.105  0.2308 -0.0603  0.3830
  522MOL0     C71940   9.967   5.213   4.030  0.2903 -0.4158 -0.1553
  522MOL0     C71941  10.044   5.209   3.893 -0.0364  0.7385 -0.0322
  522MOL0     C71942  10.051   5.347   3.828  0.0743  0.9192  0.0852
  522MOL0    Cl71943  10.143   5.454   3.937  0.6552 -0.1343 -0.0995
  522MOL0     C71944   9.272   5.108   4.348 -0.4315  0.1793  0.2479
  522MOL0     C71945   9.133   5.122   4.309 -0.6583  0.4983  0.0591
  522MOL0     O71946   9.007   5.082   3.967  0.8285 -0.5150  0.0924
  522MOL0     C71947   8.684   5.066   4.116  0.1026 -0.7342  0.3591
  522MOL0     C71948   8.555   5.087   4.081 -0.5526  0.3058  0.2148
  522MOL0     N71949   8.035   5.560   4.007 -0.2232  1.0365 -0.7814
  522MOL0     N71950   8.064   5.681   3.996  0.0620  0.0413  0.6132
  522MOL0     C71951   8.918   6.493   4.420 -0.6435  0.5080  0.8023
  522MOL0     C71952   8.987   6.574   4.511 -0.3937 -1.0178 -0.6286
  522MOL0     C71953   9.285   6.824   4.687  0.3334  0.1886 -0.8039
  522MOL0     C71954   9.205   6.897   4.782 -0.4790 -0.1669  1.0363
  522MOL0     C71955   9.270   6.973   4.883  0.9055 -0.1605  1.1129
  522MOL0     C71956   9.402   6.968   4.897 -0.3366  0.1134  0.8399
  522MOL0     O71957   9.449   7.034   5.007  0.5853 -0.1001 -0.5180
  522MOL0     C71958   9.596   7.041   5.032 -0.0656  0.3057 -0.4081
  522MOL0     C71959   9.623   7.146   5.145 -0.1413  0.3527  1.1412
  522MOL0     C71960   9.543   7.274   5.128  0.5342 -0.4512  0.1465
  522MOL0     C71961   9.579   7.392   5.223  0.3505 -0.2500 -0.5923
  522MOL0     C71962   9.526   7.364   5.358 -0.1316  0.6248 -0.3944
  522MOL0     C71963   9.505   7.344   5.480  0.0456 -0.6027 -0.6796
  522MOL0     C71964   9.481   6.915   4.795 -0.6071  0.4830 -0.4942
  522MOL0     C71965   9.424   6.836   4.692 -0.2684  0.3055  0.6305
  522MOL0     C71966   9.519   6.763   4.593  0.1957  0.2470 -0.0193
  522MOL0     H71967   9.019   6.864   4.330 -2.4394  2.0109  2.2450
  522MOL0     H71968   8.901   6.721   4.159 -0.9102 -2.1483 -0.4938
  522MOL0     H71969   8.684   6.348   4.265 -0.6899 -2.0758 -1.7071
  522MOL0     H71970   8.852   6.295   4.231  0.6578  0.3344 -0.5642
  522MOL0     H71971   8.652   6.381   4.021  2.0889  1.8202 -0.2051
  522MOL0     H71972   8.808   6.311   3.992 -0.4452  0.8489  0.5110
  522MOL0     H71973   8.664   6.134   3.959  2.2823 -0.7631 -0.0487
  522MOL0     H71974   8.752   6.107   4.112 -0.2728  1.0389  0.9911
  522MOL0     H71975   8.575   6.178   4.240  1.0735 -1.8348  0.0107
  522MOL0     H71976   8.477   6.229   4.096 -0.9934 -1.4878  0.5751
  522MOL0     H71977   8.536   5.938   4.172 -1.1595  0.5210  0.6831
  522MOL0     H71978   8.497   5.992   4.010 -3.0628 -1.7382  0.3129
  522MOL0     H71979   8.347   6.049   4.272 -0.4520  3.9196 -1.7142
  522MOL0     H71980   8.283   6.074   4.110 -5.0713 -3.8206  0.2841
  522MOL0     H71981   8.179   5.879   4.196 -0.1012 -2.4046 -0.2701
  522MOL0     H71982   8.337   5.793   4.217  1.0899  0.0445  0.4264
  522MOL0     H71983   8.214   5.897   3.965  2.3115  0.2003 -0.9787
  522MOL0     H71984   8.365   5.812   3.974 -0.9090  0.9119 -1.1129
  522MOL0     H71985   8.343   5.554   4.111  0.0612  0.2451 -0.3843
  522MOL0     H71986   8.084   5.308   4.173  0.1846 -0.2869  0.7977
  522MOL0     H71987   8.245   5.313   4.120  0.0472  1.7427  1.0916
  522MOL0     H71988   8.093   5.154   4.000  4.6735 -1.1430 -2.2326
  522MOL0     H71989   8.000   5.293   3.944  1.0483  5.2345  3.2644
  522MOL0     H71990   8.164   5.229   3.752 -1.6879  3.3079 -0.4774
  522MOL0     H71991   8.198   5.387   3.806  0.4168  0.0353 -1.5828
  522MOL0     H71992   8.374   5.204   3.746 -0.1192 -0.0296 -0.5950
  522MOL0     H71993   8.413   5.322   3.874  0.6634 -0.6420 -2.6222
  522MOL0     H71994   8.565   5.150   3.758 -5.2786 -0.3921  0.5198
  522MOL0     H71995   8.888   4.984   3.772  0.4661  1.1621  1.0965
  522MOL0     H71996   8.902   5.166   3.768 -2.0412  1.5614  1.5249
  522MOL0     H71997   8.793   5.081   3.656 -2.6940  3.1055 -0.4448
  522MOL0     H71998   9.110   4.855   4.102 -0.6991  0.2260 -0.2532
  522MOL0     H71999   9.341   4.813   4.194 -0.3570  0.2098 -2.5506
  522MOL0     H72000   9.522   5.191   4.361  0.0228  0.2640  0.3280
  522MOL0     H72001   9.518   5.100   4.499 -3.0506 -0.4176 -0.3900
  522MOL0     H72002   9.732   5.164   4.434 -0.5182  1.1818  0.4135
  522MOL0     H72003   9.744   4.987   4.426  1.4817  1.5004  1.1570
  522MOL0     H72004   9.737   5.188   4.183  0.7204  0.6075  1.0141
  522MOL0     H72005   9.716   5.010   4.175 -1.3305 -1.8475  1.4684
  522MOL0     H72006   9.947   4.989   4.289 -1.9021 -1.4509  1.4316
  522MOL0     H72007   9.943   5.163   4.314  1.8694 -0.5880 -0.8165
  522MOL0     H72008  10.090   5.060   4.128  0.7403 -1.6237 -2.8495
  522MOL0     H72009   9.955   5.007   4.031  2.5712 -0.0036 -0.7226
  522MOL0     H72010  10.009   5.293   4.092  2.0835 -0.8542 -0.7305
  522MOL0     H72011   9.860   5.223   4.010  0.2544 -0.3835  0.0506
  522MOL0     H72012  10.004   5.134   3.824 -0.2207  0.6498  0.1682
  522MOL0     H72013  10.146   5.185   3.927 -0.1748  0.1385 -0.0340
  522MOL0     H72014   9.956   5.396   3.805 -1.6667 -1.8450  0.9554
  522MOL0     H72015  10.102   5.333   3.732 -0.6477 -0.7477 -0.0816
  522MOL0     H72016   9.317   5.193   4.399  3.1138 -0.7818 -1.0132
  522MOL0     H72017   9.077   5.205   4.351 -0.9442 -0.7048  2.2258
  522MOL0     H72018   8.713   5.069   4.221  1.6093  0.5969 -0.0542
  522MOL0     H72019   8.473   5.098   4.152 -1.0712 -0.9363 -0.1692
  522MOL0     H72020   8.886   6.392   4.443 -0.7231  0.7575  1.8187
  522MOL0     H72021   9.012   6.526   4.605 -3.4704 -2.0764 -0.2338
  522MOL0     H72022   9.097   6.890   4.784 -0.5460  0.9276  2.2734
  522MOL0     H72023   9.206   7.022   4.955 -0.9646 -2.1963  0.9495
  522MOL0     H72024   9.623   6.941   5.067 -0.0930 -1.3817 -4.6193
  522MOL0     H72025   9.652   7.075   4.944  0.0969  3.4675  0.7905
  522MOL0     H72026   9.728   7.174   5.158 -0.7763  2.8545  1.3045
  522MOL0     H72027   9.596   7.087   5.233 -3.6267  0.0639  0.0545
  522MOL0     H72028   9.555   7.307   5.024 -5.1493  0.7752 -0.4590
  522MOL0     H72029   9.436   7.254   5.132  0.2065  0.0890 -3.1195
  522MOL0     H72030   9.534   7.485   5.187 -3.3320 -1.1281  1.2888
  522MOL0     H72031   9.687   7.406   5.234  0.4582 -2.2369  2.3260
  522MOL0     H72032   9.477   7.332   5.582  1.3776  0.7526 -0.1025
  522MOL0     H72033   9.589   6.913   4.783 -0.8047  1.6314 -3.6784
  522MOL0     H72034   9.620   6.805   4.597  1.1782 -0.8196 -5.4021
  522MOL0     H72035   9.534   6.659   4.622  0.0375 -0.2622 -1.6558
  522MOL0     H72036   9.481   6.766   4.490  0.1987 -0.6949 -0.0499
  523MOL0     O72037   1.293  10.864   7.217 -0.1748 -0.5729  0.1888
  523MOL0     C72038   1.248  10.823   7.109 -0.8094 -0.6221 -0.6829
  523MOL0     O72039   1.255  10.891   6.997  0.6272 -0.2876  0.8504
  523MOL0     C72040   1.299  11.020   7.008 -0.6430 -0.2774  0.0655
  523MOL0     C72041   1.201  11.117   7.018  0.6025  0.2464 -0.0496
  523MOL0     C72042   1.237  11.252   7.030  0.0619 -0.5801  0.3701
  523MOL0     C72043   1.367  11.303   7.030  0.2486  0.2117 -0.4901
  523MOL0     O72044   1.378  11.442   7.035 -0.2620 -0.2785  0.0091
  523MOL0     C72045   1.507  11.509   7.033 -0.0940  1.3023  1.0868
  523MOL0     C72046   1.481  11.661   7.001 -0.1610  0.7965 -0.5065
  523MOL0     C72047   1.605  11.749   6.968  0.3517 -0.2660  0.1263
  523MOL0     C72048   1.567  11.899   6.947  0.9298  0.3144  0.6087
  523MOL0     C72049   1.677  11.991   6.891 -0.6002 -0.0111 -0.0702
  523MOL0     C72050   1.617  12.145   6.883 -0.4820 -0.1047 -0.0277
  523MOL0     C72051   1.689  12.209   6.754 -0.2844  0.2660 -0.3937
  523MOL0     C72052   1.673  12.360   6.757  0.6025 -0.6020  0.9659
  523MOL0     N72053   1.679  12.409   6.614  1.0770  0.5200 -0.3769
  523MOL0     C72054   1.571  12.411   6.531  0.3709 -0.0997  0.4102
  523MOL0     C72055   1.633  12.454   6.412 -0.4049  0.2068 -0.0054
  523MOL0     C72056   1.548  12.465   6.286 -0.8784  0.4278 -1.2846
  523MOL0     C72057   1.609  12.475   6.152  0.4283  0.4512  0.4174
  523MOL0     C72058   1.675  12.607   6.129 -0.4740  0.2423 -0.5026
  523MOL0     C72059   1.669  12.674   5.987 -0.1535  0.8548 -0.3196
  523MOL0     O72060   1.699  12.810   5.992 -0.2530  0.5674  0.2606
  523MOL0     C72061   1.709  12.888   5.884  0.6289  0.1209  0.0360
  523MOL0     C72062   1.739  13.021   5.905 -0.3011 -0.1667  0.2592
  523MOL0     C72063   1.731  13.120   5.804  0.3443 -0.2363 -0.0723
  523MOL0     C72064   1.738  13.263   5.838  0.2865  0.1880  1.1525
  523MOL0     C72065   1.705  13.071   5.670  0.0715 -0.5902  0.2657
  523MOL0     C72066   1.719  13.152   5.537 -0.4052 -0.1288 -0.1101
  523MOL0     O72067   1.783  13.271   5.550  0.3051  0.1655  0.5055
  523MOL0     C72068   1.781  13.372   5.453 -0.4564 -0.0780  0.8892
  523MOL0     C72069   1.875  13.471   5.465 -0.0816  0.0022  0.0301
  523MOL0     C72070   1.889  13.573   5.370 -0.5881 -0.0569 -0.5531
  523MOL0     C72071   1.800  13.577   5.261 -0.1104 -0.2926 -0.8886
  523MOL0     O72072   1.806  13.690   5.178 -0.3412 -0.0911 -0.1629
  523MOL0     C72073   1.718  13.690   5.060 -0.2946 -0.0997 -0.3755
  523MOL0     C72074   1.751  13.823   4.973  0.6223  0.3835  0.1601
  523MOL0     C72075   1.712  13.945   5.044 -0.1240 -0.9445 -0.0382
  523MOL0     C72076   1.651  14.048   4.942 -0.2549 -0.1189 -0.3956
  523MOL0     C72077   1.619  14.191   4.991 -0.7759 -0.6206  0.2657
  523MOL0     C72078   1.721  14.298   4.943  0.7483  0.5032 -0.0761
  523MOL0     C72079   1.691  14.448   4.969 -0.3829  0.5182  0.6281
  523MOL0     C72080   1.727  14.489   5.109 -0.8108 -0.2688  0.3867
  523MOL0    Cl72081   1.729  14.671   5.114 -0.5790  0.4871  0.1482
  523MOL0     C72082   1.703  13.478   5.240  0.0283  0.0222  0.5557
  523MOL0     C72083   1.694  13.375   5.336  1.1660  0.0252  0.5251
  523MOL0     O72084   1.676  13.105   5.431  0.7405 -0.0588  0.3333
  523MOL0     C72085   1.673  12.934   5.649 -0.4408 -0.6706 -0.3981
  523MOL0     C72086   1.677  12.850   5.758  0.2344  0.2044 -0.3191
  523MOL0     N72087   1.770  12.478   6.430  0.6299  0.8028 -0.7753
  523MOL0     N72088   1.794  12.437   6.552 -0.8681  0.5687  0.0190
  523MOL0     C72089   1.470  11.208   7.028  0.5049  0.3077 -1.2358
  523MOL0     C72090   1.434  11.070   7.026  0.4641 -0.1555  0.0920
  523MOL0     C72091   1.187  10.694   7.102 -0.5896  1.1270 -0.1371
  523MOL0     C72092   1.226  10.597   7.195  0.2807 -0.1263  0.0315
  523MOL0     C72093   1.171  10.472   7.204 -0.2112  0.2041  0.3782
  523MOL0     C72094   1.082  10.435   7.102  0.0225  0.0869 -1.0646
  523MOL0     O72095   1.009  10.310   7.098 -0.2190 -0.8772  0.1227
  523MOL0     C72096   1.003  10.225   7.211 -0.9024  0.4694 -0.8632
  523MOL0     C72097   1.132  10.138   7.233 -0.5135 -0.6990 -0.6450
  523MOL0     C72098   1.205  10.090   7.113 -0.5365  1.2127 -0.0645
  523MOL0     C72099   1.241   9.939   7.112 -0.3641 -0.5995 -0.1917
  523MOL0     C72100   1.119   9.851   7.112 -0.9305 -0.0550  1.0887
  523MOL0     C72101   1.018   9.785   7.112  0.1752  1.1203  0.2519
  523MOL0     C72102   1.038  10.524   7.000 -1.0588  0.5016 -0.2438
  523MOL0     C72103   1.088  10.651   6.997 -0.1699 -0.7970 -0.3949
  523MOL0     C72104   1.035  10.740   6.883 -0.5365 -0.2873  0.5524
  523MOL0     H72105   1.103  11.071   7.011  0.8185 -0.4487  1.1272
  523MOL0     H72106   1.158  11.326   7.028 -0.6214 -1.3011  0.1249
  523MOL0     H72107   1.577  11.458   6.967 -3.1466 -1.4026 -0.3677
  523MOL0     H72108   1.558  11.507   7.130 -0.7296  0.8246  1.4200
  523MOL0     H72109   1.419  11.656   6.912 -0.8635 -2.1072  0.0549
  523MOL0     H72110   1.424  11.697   7.088  0.8651 -0.2251  0.6269
  523MOL0     H72111   1.680  11.732   7.047 -0.3251 -3.2786  0.2353
  523MOL0     H72112   1.655  11.710   6.878 -1.3817 -2.4841  0.0404
  523MOL0     H72113   1.484  11.894   6.877  1.2845  0.7991  0.1436
  523MOL0     H72114   1.532  11.940   7.042  3.5152 -1.4929  2.4775
  523MOL0     H72115   1.699  11.964   6.787 -1.9152  1.1528 -0.6878
  523MOL0     H72116   1.774  11.985   6.942 -1.1104 -0.5084  0.8528
  523MOL0     H72117   1.509  12.145   6.865 -0.6372  0.7954  0.8482
  523MOL0     H72118   1.637  12.190   6.980  1.5192  0.1787 -0.5380
  523MOL0     H72119   1.646  12.163   6.664 -1.9494 -1.3657  1.1664
  523MOL0     H72120   1.798  12.209   6.756 -0.1937  1.2744 -2.4853
  523MOL0     H72121   1.578  12.387   6.804  2.2841 -0.9860  4.9609
  523MOL0     H72122   1.748  12.406   6.822  1.5524 -2.9841  1.6818
  523MOL0     H72123   1.467  12.385   6.547  0.2405 -1.0948 -1.6866
  523MOL0     H72124   1.484  12.554   6.290 -2.1720 -0.5066 -0.5124
  523MOL0     H72125   1.476  12.384   6.300  0.6498 -0.8497 -0.4042
  523MOL0     H72126   1.670  12.388   6.125 -0.4988 -0.0538 -0.1478
  523MOL0     H72127   1.527  12.459   6.080  0.3858  1.3798  0.2488
  523MOL0     H72128   1.649  12.681   6.205  1.0555 -0.7151  1.0378
  523MOL0     H72129   1.780  12.585   6.152 -0.5015 -0.2861 -0.8630
  523MOL0     H72130   1.745  12.630   5.923 -0.3149  0.6480 -0.3719
  523MOL0     H72131   1.569  12.664   5.944  0.3206  0.3816 -1.3402
  523MOL0     H72132   1.757  13.046   6.009  0.2942 -0.1671  0.1598
  523MOL0     H72133   1.767  13.283   5.942 -0.9261  0.4129  1.4756
  523MOL0     H72134   1.647  13.322   5.820  1.2200  1.4486  0.4457
  523MOL0     H72135   1.811  13.317   5.778 -0.0470 -1.0239 -0.4250
  523MOL0     H72136   1.934  13.458   5.556  1.5757  1.6965 -0.7322
  523MOL0     H72137   1.954  13.656   5.392 -1.5484  0.8495 -1.0464
  523MOL0     H72138   1.727  13.595   5.006 -0.8311 -0.9509  0.9811
  523MOL0     H72139   1.615  13.700   5.096 -0.5167 -1.1162 -0.6937
  523MOL0     H72140   1.853  13.831   4.934  1.3377  0.4874  1.9581
  523MOL0     H72141   1.691  13.812   4.883 -1.4210 -0.7637  1.5884
  523MOL0     H72142   1.801  13.988   5.091 -0.7768  0.0438  0.3363
  523MOL0     H72143   1.639  13.924   5.123 -1.0035 -1.4831 -0.9836
  523MOL0     H72144   1.555  14.007   4.909 -0.2756 -1.7622  1.4957
  523MOL0     H72145   1.723  14.052   4.860  0.4536  0.2329  0.2312
  523MOL0     H72146   1.520  14.215   4.950 -1.0642 -1.2313  0.5835
  523MOL0     H72147   1.624  14.204   5.100  1.6930  2.8636 -0.1132
  523MOL0     H72148   1.725  14.286   4.834 -0.4264 -2.3948  0.1026
  523MOL0     H72149   1.817  14.278   4.991  0.7813 -0.8889 -0.6641
  523MOL0     H72150   1.588  14.475   4.940 -0.2188  1.3911  0.8160
  523MOL0     H72151   1.756  14.503   4.900 -2.0250  1.1023 -0.5203
  523MOL0     H72152   1.822  14.442   5.137 -0.9510 -4.0669 -4.2237
  523MOL0     H72153   1.646  14.446   5.168 -0.1969 -0.7070  0.9150
  523MOL0     H72154   1.641  13.489   5.152 -0.7016  2.0633  1.2753
  523MOL0     H72155   1.613  13.304   5.322  0.6105  0.2689  2.2670
  523MOL0     H72156   1.650  12.902   5.548  1.2868  4.4414 -2.8151
  523MOL0     H72157   1.646  12.749   5.734 -0.1442  0.7276 -2.1916
  523MOL0     H72158   1.569  11.247   7.045  1.0204 -1.1813 -0.6401
  523MOL0     H72159   1.515  11.001   7.043  3.6370  3.4859  1.3339
  523MOL0     H72160   1.302  10.631   7.265  1.1391  1.8617 -1.7721
  523MOL0     H72161   1.194  10.412   7.291 -1.3462 -1.7620 -0.5918
  523MOL0     H72162   0.992  10.289   7.299 -0.0610 -0.0941 -0.3323
  523MOL0     H72163   0.916  10.158   7.215 -0.6017  0.1191  1.7360
  523MOL0     H72164   1.102  10.061   7.305 -5.9990  0.8866 -0.7935
  523MOL0     H72165   1.208  10.191   7.292  3.6189 -4.0844 -2.3649
  523MOL0     H72166   1.141  10.101   7.026 -0.0602  0.9887 -0.4487
  523MOL0     H72167   1.294  10.151   7.096  0.9899  0.2967  3.5204
  523MOL0     H72168   1.312   9.913   7.192 -1.5182 -0.3992  0.9420
  523MOL0     H72169   1.294   9.928   7.017  0.3515  3.1351 -0.3782
  523MOL0     H72170   0.932   9.726   7.135  2.3937 -1.9764  1.3865
  523MOL0     H72171   0.951  10.502   6.940 -2.8998  2.0066  1.7007
  523MOL0     H72172   1.082  10.709   6.789  4.6418 -0.1270  2.7938
  523MOL0     H72173   0.926  10.743   6.873 -0.7907 -1.7667  2.4075
  523MOL0     H72174   1.053  10.847   6.899 -0.7745 -0.3142  1.0274
  524MOL0     O72175   3.411   8.116   1.474  0.1748  0.2079  0.6282
  524MOL0     C72176   3.359   8.104   1.364 -0.5244  0.1887 -0.7828
  524MOL0     O72177   3.223   8.100   1.347  0.4217  0.4455  0.5532
  524MOL0     C72178   3.151   8.081   1.463  0.1138 -0.4215  0.1191
  524MOL0     C72179   3.109   8.187   1.529  0.3318  0.2078 -0.1584
  524MOL0     C72180   3.040   8.185   1.644 -1.0570 -0.7075  0.0317
  524MOL0     C72181   3.021   8.062   1.706  0.5673  0.1631 -0.5924
  524MOL0     O72182   2.958   8.075   1.827  0.2044 -0.8105 -0.0233
  524MOL0     C72183   2.931   7.974   1.921  0.6735  0.4803  0.1939
  524MOL0     C72184   2.891   8.058   2.039 -1.0863 -0.3911  0.3899
  524MOL0     C72185   2.945   7.985   2.165 -1.1229 -0.4078  0.6759
  524MOL0     C72186   2.950   8.068   2.289 -0.0086 -0.5013  0.1472
  524MOL0     C72187   2.988   7.980   2.414  0.5250  0.1120  0.6479
  524MOL0     C72188   2.892   7.875   2.448  0.5409 -0.3072  0.1986
  524MOL0     C72189   2.921   7.800   2.579  0.5559 -0.2567  0.6252
  524MOL0     C72190   3.053   7.728   2.587  0.1032  1.1914 -0.5615
  524MOL0     N72191   3.065   7.629   2.478  0.0072  0.1839 -0.2115
  524MOL0     C72192   3.117   7.656   2.357 -0.1724  0.9086  0.2036
  524MOL0     C72193   3.106   7.541   2.295  0.2028 -0.4175  0.2148
  524MOL0     C72194   3.146   7.521   2.149  0.0511 -0.8496 -0.3125
  524MOL0     C72195   3.016   7.555   2.065  0.3897 -0.3739 -0.2405
  524MOL0     C72196   3.053   7.613   1.932 -0.3313  0.4294  0.1355
  524MOL0     C72197   3.066   7.507   1.811 -1.1233 -0.2905 -0.3444
  524MOL0     O72198   3.066   7.578   1.687 -0.0309 -0.3159  0.5497
  524MOL0     C72199   3.081   7.498   1.567 -0.3584 -1.3699  0.0651
  524MOL0     C72200   3.058   7.360   1.562 -0.2030  0.7134  1.0836
  524MOL0     C72201   3.058   7.290   1.439 -0.5906 -0.8664  0.0198
  524MOL0     C72202   3.000   7.145   1.444 -0.1848 -0.0746 -0.9874
  524MOL0     C72203   3.099   7.362   1.322  0.4939 -0.3711 -0.9030
  524MOL0     C72204   3.108   7.298   1.190 -1.0639 -0.5751 -1.0716
  524MOL0     O72205   3.125   7.165   1.192 -0.4817  0.2585  0.6650
  524MOL0     C72206   3.144   7.110   1.074 -0.6334 -0.0030  0.7328
  524MOL0     C72207   3.045   7.065   0.998  0.2058 -0.5498 -0.3193
  524MOL0     C72208   3.071   7.005   0.868 -0.8214  0.3417  0.3646
  524MOL0     C72209   3.205   7.010   0.817  0.5975  0.2799 -0.0716
  524MOL0     O72210   3.252   6.955   0.696  0.5135  0.1598  0.1981
  524MOL0     C72211   3.159   6.913   0.598  0.4459 -0.4065  0.6733
  524MOL0     C72212   3.250   6.867   0.482  0.2596 -0.0646  0.5519
  524MOL0     C72213   3.167   6.853   0.349  0.5279 -0.4415  0.8731
  524MOL0     C72214   3.064   6.728   0.341 -0.6454 -0.0324  0.4745
  524MOL0     C72215   3.121   6.595   0.385 -0.4684  0.2873 -0.6764
  524MOL0     C72216   3.042   6.477   0.334  0.2445 -0.1304 -0.3189
  524MOL0     C72217   3.136   6.359   0.311 -0.6308  0.1519 -0.5434
  524MOL0     C72218   3.083   6.230   0.234 -0.0351  0.4914  0.4773
  524MOL0    Cl72219   3.014   6.277   0.066 -0.1795 -0.1804 -0.1000
  524MOL0     C72220   3.304   7.042   0.909 -0.0908  0.3644  0.2307
  524MOL0     C72221   3.277   7.081   1.036 -0.1300 -1.3111 -0.2701
  524MOL0     O72222   3.078   7.371   1.096  0.3922  0.9205  0.2233
  524MOL0     C72223   3.107   7.497   1.329 -0.1478  0.2000 -0.2613
  524MOL0     C72224   3.092   7.566   1.445 -0.0107  0.0434  0.4130
  524MOL0     N72225   3.044   7.451   2.376 -0.1641  0.8791  0.3948
  524MOL0     N72226   3.011   7.510   2.481  0.5430 -0.2420  0.0376
  524MOL0     C72227   3.054   7.942   1.645 -1.3160  0.8065  0.5259
  524MOL0     C72228   3.124   7.955   1.518  0.1362 -0.2002 -0.7940
  524MOL0     C72229   3.448   8.080   1.246  0.3811  0.8470  0.3108
  524MOL0     C72230   3.404   8.007   1.133 -0.2217 -0.1065 -0.3143
  524MOL0     C72231   3.491   7.986   1.022  1.4601  0.0777 -0.0910
  524MOL0     C72232   3.614   8.044   1.011  0.4683 -0.7337  0.3167
  524MOL0     O72233   3.689   8.020   0.897  1.0236 -0.1748 -0.2461
  524MOL0     C72234   3.788   8.105   0.859 -0.8355  0.2399 -0.8692
  524MOL0     C72235   3.924   8.016   0.853  0.5262 -1.3675 -0.6242
  524MOL0     C72236   3.916   7.880   0.776  0.0775  0.5527  0.3511
  524MOL0     C72237   4.057   7.831   0.747 -0.9662 -1.0771 -1.7240
  524MOL0     C72238   4.056   7.747   0.633  0.9365 -0.7878 -0.8161
  524MOL0     C72239   4.054   7.692   0.528 -0.1681  0.0336  0.5785
  524MOL0     C72240   3.651   8.115   1.123 -0.8825  0.1291 -0.3684
  524MOL0     C72241   3.572   8.144   1.237 -0.3266  0.0662 -0.2277
  524MOL0     C72242   3.627   8.238   1.348  0.4336  0.1573  1.1930
  524MOL0     H72243   3.152   8.277   1.486  1.0573  1.3427  2.7543
  524MOL0     H72244   3.011   8.275   1.698 -0.4142  0.0796 -0.9058
  524MOL0     H72245   3.009   7.899   1.935 -1.4474 -2.1014 -0.9782
  524MOL0     H72246   2.851   7.909   1.883  2.0551 -0.7831 -0.6457
  524MOL0     H72247   2.952   8.149   2.034 -2.5547  0.5250 -2.1912
  524MOL0     H72248   2.787   8.090   2.036 -0.6122  1.1536 -0.9916
  524MOL0     H72249   2.878   7.901   2.181  1.4145 -2.7206 -0.1227
  524MOL0     H72250   3.040   7.932   2.155 -0.9947  0.0187 -0.5444
  524MOL0     H72251   3.028   8.145   2.280 -1.7767  1.8441  3.0400
  524MOL0     H72252   2.858   8.127   2.291  0.0216 -0.4325 -0.2934
  524MOL0     H72253   2.989   8.038   2.507 -1.8170  0.0196  0.7743
  524MOL0     H72254   3.084   7.932   2.391 -0.1774 -2.2783  2.3406
  524MOL0     H72255   2.788   7.907   2.442  0.1786 -1.6535 -2.2963
  524MOL0     H72256   2.898   7.807   2.362 -1.6358  1.5923 -1.6099
  524MOL0     H72257   2.849   7.718   2.576  1.9746 -1.6653  2.2899
  524MOL0     H72258   2.902   7.861   2.668 -2.0191  0.9691 -0.6659
  524MOL0     H72259   3.132   7.803   2.579 -1.9799  3.2725 -3.7131
  524MOL0     H72260   3.059   7.665   2.677  1.7983  0.9742 -0.7876
  524MOL0     H72261   3.163   7.745   2.314  1.5179 -1.4270 -3.3542
  524MOL0     H72262   3.178   7.417   2.134  1.3966 -0.5140  0.1078
  524MOL0     H72263   3.230   7.587   2.125  0.5849 -1.7679 -1.0510
  524MOL0     H72264   2.955   7.466   2.044 -0.4338  0.6603 -2.6339
  524MOL0     H72265   2.961   7.630   2.122 -0.0085  0.1407 -1.2854
  524MOL0     H72266   2.982   7.689   1.897 -0.1306 -0.0230 -1.3209
  524MOL0     H72267   3.148   7.667   1.940 -0.7997  1.3861 -0.5649
  524MOL0     H72268   3.160   7.453   1.826  0.9394  2.6397 -1.8034
  524MOL0     H72269   2.987   7.435   1.835 -0.4721  0.1510  3.9512
  524MOL0     H72270   3.026   7.307   1.651  4.1019 -1.5848  1.5203
  524MOL0     H72271   2.915   7.135   1.512 -0.6623  0.9135 -1.4237
  524MOL0     H72272   3.080   7.077   1.475  1.6340  1.9179 -1.0551
  524MOL0     H72273   2.974   7.109   1.344 -0.2044 -1.2775 -0.5645
  524MOL0     H72274   2.940   7.079   1.024 -0.1263 -0.0171 -1.8597
  524MOL0     H72275   3.003   6.949   0.805  2.8620 -2.1955 -1.7259
  524MOL0     H72276   3.108   6.821   0.628  1.2186 -0.5916  1.4687
  524MOL0     H72277   3.086   6.992   0.577  0.3366 -0.5185  0.6303
  524MOL0     H72278   3.325   6.944   0.463 -1.3602  1.6071  0.6170
  524MOL0     H72279   3.303   6.773   0.498 -0.5379 -1.6997 -4.6965
  524MOL0     H72280   3.242   6.838   0.270 -1.5954  0.2516 -1.4091
  524MOL0     H72281   3.121   6.951   0.329 -3.2897 -1.8581  1.9688
  524MOL0     H72282   3.022   6.730   0.240  0.1436 -0.2552  0.1356
  524MOL0     H72283   2.976   6.746   0.404 -1.1910 -0.5906 -0.1103
  524MOL0     H72284   3.223   6.596   0.345 -1.0043  3.5130 -2.3294
  524MOL0     H72285   3.120   6.596   0.494 -2.0294  1.4773 -0.6667
  524MOL0     H72286   3.012   6.501   0.232 -3.2000 -2.5470 -0.0343
  524MOL0     H72287   2.957   6.454   0.399  0.6167  2.2570  1.1544
  524MOL0     H72288   3.172   6.321   0.407 -1.4301  2.3309  0.6830
  524MOL0     H72289   3.231   6.392   0.266  0.6189  2.4703  3.3139
  524MOL0     H72290   3.003   6.178   0.288  0.7662 -0.0899  1.1402
  524MOL0     H72291   3.168   6.162   0.223  1.2640  1.3490  3.8629
  524MOL0     H72292   3.404   7.060   0.872  0.2174  0.4891  1.0923
  524MOL0     H72293   3.362   7.110   1.097  1.7570 -1.4379 -2.6565
  524MOL0     H72294   3.117   7.547   1.233  0.3127 -0.0389 -0.3418
  524MOL0     H72295   3.106   7.674   1.446 -2.7240  0.5572 -1.9338
  524MOL0     H72296   3.024   7.848   1.689  0.4205  0.3890  0.8841
  524MOL0     H72297   3.159   7.865   1.469  0.7996 -1.0641  1.1696
  524MOL0     H72298   3.314   7.950   1.151  0.0427 -0.5141 -0.2799
  524MOL0     H72299   3.460   7.907   0.954  2.2260 -1.9517  1.7990
  524MOL0     H72300   3.759   8.125   0.756 -2.5498 -2.0178 -0.8798
  524MOL0     H72301   3.821   8.193   0.916  2.4499  1.0789 -3.7143
  524MOL0     H72302   3.954   8.000   0.957  0.5912  1.6157 -0.1005
  524MOL0     H72303   3.999   8.077   0.801 -0.9864  0.7541 -0.4540
  524MOL0     H72304   3.859   7.816   0.843 -1.0472  0.4889 -0.6286
  524MOL0     H72305   3.869   7.894   0.678 -1.1376 -0.3175  0.7909
  524MOL0     H72306   4.100   7.792   0.840 -0.4432  1.6859 -0.6819
  524MOL0     H72307   4.120   7.919   0.729 -3.4932  1.3529  0.3377
  524MOL0     H72308   4.074   7.619   0.452 -0.3991 -0.2294  0.7649
  524MOL0     H72309   3.748   8.161   1.113  0.3858 -2.7502 -3.4134
  524MOL0     H72310   3.714   8.289   1.306 -0.9750  1.4144 -0.3388
  524MOL0     H72311   3.555   8.306   1.393  1.6754  0.2881  3.0736
  524MOL0     H72312   3.643   8.170   1.432  0.9955  1.0060  1.7900
  525MOL0     O72313   0.949   3.825   3.688 -0.2684 -0.1563  0.1639
  525MOL0     C72314   1.004   3.915   3.623  0.2380 -0.7626  0.0639
  525MOL0     O72315   0.945   3.986   3.522  0.6029  0.9136  0.4133
  525MOL0     C72316   0.813   3.968   3.505 -0.2644 -0.1199 -0.2759
  525MOL0     C72317   0.716   3.977   3.615 -0.4210  1.0302 -0.2298
  525MOL0     C72318   0.584   3.970   3.588 -0.1458  0.0400 -0.2658
  525MOL0     C72319   0.536   3.971   3.457 -0.5604  0.3597  0.5720
  525MOL0     O72320   0.400   3.978   3.435 -0.1202  0.0751 -0.0203
  525MOL0     C72321   0.332   4.058   3.333  0.6899  1.4386 -0.5644
  525MOL0     C72322   0.228   4.150   3.398  0.3653  0.9483  0.5939
  525MOL0     C72323   0.283   4.250   3.497  0.0981 -0.5580  0.4927
  525MOL0     C72324   0.168   4.341   3.545  0.3528 -0.0718 -0.0631
  525MOL0     C72325   0.211   4.487   3.572 -0.1451 -0.2487  0.4534
  525MOL0     C72326   0.336   4.485   3.663 -0.5649 -1.1237  0.1066
  525MOL0     C72327   0.393   4.628   3.712 -0.2665  1.1721 -0.5605
  525MOL0     C72328   0.431   4.723   3.607 -0.5314 -0.3317 -0.0892
  525MOL0     N72329   0.535   4.664   3.525  0.0675  0.0168 -0.2288
  525MOL0     C72330   0.664   4.635   3.567 -0.3854  0.7075  0.4550
  525MOL0     C72331   0.731   4.587   3.456  0.1922  0.3174  0.3466
  525MOL0     C72332   0.884   4.563   3.439  0.4176 -1.3161  0.8086
  525MOL0     C72333   0.906   4.442   3.354 -0.0064 -0.0377 -0.9079
  525MOL0     C72334   1.055   4.398   3.336 -0.7809 -0.3441  0.0496
  525MOL0     C72335   1.070   4.265   3.260 -0.7741  0.5319  0.0815
  525MOL0     O72336   1.201   4.218   3.258  0.2069  0.3744  0.2095
  525MOL0     C72337   1.244   4.096   3.204  0.2721  0.0774  0.2547
  525MOL0     C72338   1.379   4.064   3.234  0.1641  0.5558  0.8537
  525MOL0     C72339   1.425   3.935   3.193 -0.8782 -0.2507  0.0387
  525MOL0     C72340   1.565   3.902   3.243  0.0322 -0.4958 -0.0548
  525MOL0     C72341   1.340   3.839   3.127  0.9907  0.3732  0.6374
  525MOL0     C72342   1.391   3.705   3.085  0.0217  0.0682  0.5283
  525MOL0     O72343   1.294   3.623   3.033  0.1039  0.3917  0.1499
  525MOL0     C72344   1.316   3.503   2.982  0.2889 -0.7620  0.2626
  525MOL0     C72345   1.227   3.406   3.025  0.9266 -0.9695  0.0048
  525MOL0     C72346   1.235   3.274   2.976  0.0408 -0.1263  0.0877
  525MOL0     C72347   1.313   3.256   2.867 -0.8055  0.3081  0.3479
  525MOL0     O72348   1.302   3.129   2.816  0.5367 -0.4853  0.0686
  525MOL0     C72349   1.394   3.091   2.715 -0.0375  0.3324 -0.4780
  525MOL0     C72350   1.367   2.947   2.682 -0.0660  0.0413  0.1017
  525MOL0     C72351   1.342   2.854   2.803 -0.8934  0.5281 -1.2114
  525MOL0     C72352   1.443   2.882   2.925 -0.0893  0.4290  0.1350
  525MOL0     C72353   1.438   2.761   3.025 -0.2398  0.2147  0.0233
  525MOL0     C72354   1.547   2.658   2.970  0.2491 -0.0617 -0.9350
  525MOL0     C72355   1.538   2.535   3.054  0.2326 -1.0262 -0.6709
  525MOL0     C72356   1.603   2.416   2.976  0.2255  0.3595  0.2639
  525MOL0    Cl72357   1.692   2.293   3.071  0.6856 -0.0902 -0.3797
  525MOL0     C72358   1.400   3.354   2.822  0.4769 -0.4812 -0.0780
  525MOL0     C72359   1.399   3.480   2.884 -0.2957  0.9341  1.0498
  525MOL0     O72360   1.516   3.683   3.084  0.5199 -0.0193  0.2970
  525MOL0     C72361   1.207   3.879   3.095  0.3407 -0.7306  0.4061
  525MOL0     C72362   1.162   4.006   3.137  0.1422 -0.0369 -0.8262
  525MOL0     N72363   0.640   4.579   3.356  0.1379  0.0168  0.8664
  525MOL0     N72364   0.522   4.629   3.395 -0.7826 -0.4222  0.3392
  525MOL0     C72365   0.630   3.975   3.350  0.0403  0.2714  0.0980
  525MOL0     C72366   0.766   3.975   3.376 -0.8429  0.2545 -0.0879
  525MOL0     C72367   1.151   3.939   3.642 -0.2109  0.1697 -0.6154
  525MOL0     C72368   1.219   4.028   3.548 -0.3319 -0.7749 -0.8524
  525MOL0     C72369   1.347   4.079   3.571 -0.4532  0.1053 -1.1679
  525MOL0     C72370   1.427   4.029   3.677 -0.3409  0.7525 -0.8217
  525MOL0     O72371   1.556   4.067   3.719  0.6587 -0.3935  0.5546
  525MOL0     C72372   1.611   4.184   3.657  0.2680 -0.7487  0.5108
  525MOL0     C72373   1.761   4.188   3.668  0.5865  0.1049  0.3124
  525MOL0     C72374   1.821   4.082   3.588  0.3728  0.4708  0.6992
  525MOL0     C72375   1.969   4.064   3.640 -0.1189  0.4603 -0.3929
  525MOL0     C72376   2.048   4.180   3.633  0.7060 -1.4808 -0.0929
  525MOL0     C72377   2.094   4.291   3.613 -0.0432  0.1394  0.2582
  525MOL0     C72378   1.362   3.933   3.761 -0.1238 -0.5368  0.1522
  525MOL0     C72379   1.228   3.899   3.750  0.3760 -0.6679  0.1724
  525MOL0     C72380   1.173   3.823   3.865  0.6021 -0.1339 -0.4766
  525MOL0     H72381   0.755   3.981   3.716 -0.7896 -1.3393  0.0766
  525MOL0     H72382   0.524   3.986   3.677  2.0354  0.7330  1.1624
  525MOL0     H72383   0.292   4.003   3.248  1.1657 -0.7269  0.5389
  525MOL0     H72384   0.409   4.130   3.302  2.0899 -0.5829 -2.0519
  525MOL0     H72385   0.171   4.201   3.320  0.4281 -3.0648 -2.3703
  525MOL0     H72386   0.159   4.078   3.442  0.3506  1.6835  1.8286
  525MOL0     H72387   0.339   4.207   3.581  0.8352 -0.8909 -0.1521
  525MOL0     H72388   0.364   4.307   3.452  1.2972  0.8109  4.0060
  525MOL0     H72389   0.091   4.362   3.471 -1.6006  1.6915  2.3337
  525MOL0     H72390   0.115   4.292   3.627 -2.1324  0.4429 -1.2844
  525MOL0     H72391   0.143   4.563   3.610  0.5313  1.2940 -1.2767
  525MOL0     H72392   0.236   4.529   3.475 -3.9677  0.5835 -0.3021
  525MOL0     H72393   0.312   4.432   3.756  0.7533  0.2724  1.2932
  525MOL0     H72394   0.424   4.442   3.613 -0.1336  0.6622 -0.7312
  525MOL0     H72395   0.477   4.604   3.777 -0.9074  1.4884  0.3944
  525MOL0     H72396   0.332   4.686   3.782  0.0588  2.0799 -1.0069
  525MOL0     H72397   0.341   4.740   3.546 -0.4297 -0.0757 -0.1680
  525MOL0     H72398   0.459   4.815   3.657 -1.5521  0.1067 -0.2910
  525MOL0     H72399   0.706   4.650   3.666  0.4556 -3.2342  0.8473
  525MOL0     H72400   0.911   4.540   3.543 -1.7712 -5.1380  0.7502
  525MOL0     H72401   0.945   4.649   3.410 -0.1640  0.1700  3.6471
  525MOL0     H72402   0.855   4.354   3.393  1.7246 -0.6997 -0.0131
  525MOL0     H72403   0.869   4.463   3.253 -1.9236  1.5002  0.0432
  525MOL0     H72404   1.109   4.471   3.275  0.1080 -2.0032 -1.2226
  525MOL0     H72405   1.097   4.383   3.436 -1.0114 -0.2270  0.1640
  525MOL0     H72406   1.006   4.190   3.307  2.3389 -0.1381  3.7509
  525MOL0     H72407   1.028   4.267   3.159 -0.0837 -2.7105 -0.3695
  525MOL0     H72408   1.438   4.144   3.279 -2.0713  1.5221  2.2197
  525MOL0     H72409   1.605   3.977   3.312 -1.3544 -1.3395  1.7476
  525MOL0     H72410   1.621   3.892   3.149 -2.2074 -0.8998 -1.4137
  525MOL0     H72411   1.558   3.808   3.298  1.7274 -0.0770  0.9627
  525MOL0     H72412   1.155   3.430   3.103 -1.6925 -1.4631 -2.0879
  525MOL0     H72413   1.165   3.204   3.021  0.5577  0.0438  1.2068
  525MOL0     H72414   1.381   3.148   2.622  0.6219  0.3629 -0.5527
  525MOL0     H72415   1.494   3.113   2.751 -0.2424 -1.2393  1.2284
  525MOL0     H72416   1.280   2.941   2.616  0.2168 -1.8456 -0.1580
  525MOL0     H72417   1.452   2.909   2.624 -0.1749  0.4474 -0.3295
  525MOL0     H72418   1.347   2.749   2.772  0.0636 -0.0536  0.6999
  525MOL0     H72419   1.241   2.876   2.837 -0.1594  3.4920 -0.6638
  525MOL0     H72420   1.411   2.964   2.991  0.7794 -0.3775  1.5949
  525MOL0     H72421   1.545   2.901   2.891 -0.9172  3.3675 -1.0117
  525MOL0     H72422   1.470   2.794   3.124  1.1782 -1.4709  0.1892
  525MOL0     H72423   1.337   2.720   3.026 -0.9068  1.7995  1.1924
  525MOL0     H72424   1.649   2.697   2.982 -0.3153  0.9096  1.3439
  525MOL0     H72425   1.521   2.640   2.866 -0.2790  2.2586 -1.2648
  525MOL0     H72426   1.431   2.516   3.067  0.4380 -0.2125  4.3931
  525MOL0     H72427   1.588   2.564   3.147  0.7461  0.4275 -1.3671
  525MOL0     H72428   1.675   2.455   2.903 -1.5888 -0.4271 -2.0641
  525MOL0     H72429   1.532   2.368   2.909  1.2513 -1.8966  0.7015
  525MOL0     H72430   1.461   3.339   2.733 -0.9458 -1.3111 -0.9705
  525MOL0     H72431   1.468   3.557   2.853 -0.2190  1.5508  2.6672
  525MOL0     H72432   1.133   3.820   3.042 -0.0820 -1.7751  2.0891
  525MOL0     H72433   1.066   4.045   3.105 -0.4919 -2.2801 -1.8385
  525MOL0     H72434   0.588   3.972   3.250  0.7792 -2.1585 -0.2218
  525MOL0     H72435   0.831   3.947   3.294 -0.7010 -1.9168  0.6815
  525MOL0     H72436   1.173   4.052   3.453 -0.0999 -0.5064 -0.9020
  525MOL0     H72437   1.385   4.146   3.494  1.0915  1.0889  0.3983
  525MOL0     H72438   1.597   4.180   3.549 -2.6104 -1.6904  0.8464
  525MOL0     H72439   1.565   4.278   3.689  2.6251  1.4220 -2.0016
  525MOL0     H72440   1.791   4.168   3.772  2.4500 -3.9735 -0.7879
  525MOL0     H72441   1.791   4.286   3.631  2.2503  0.1475  1.6621
  525MOL0     H72442   1.770   3.986   3.597 -2.6053  2.0311  1.8309
  525MOL0     H72443   1.838   4.112   3.485 -0.1205  2.8302  1.2581
  525MOL0     H72444   2.017   3.994   3.572 -1.5085  0.1373 -1.0894
  525MOL0     H72445   1.972   4.039   3.746  1.6889  0.7766 -0.3447
  525MOL0     H72446   2.137   4.389   3.611 -3.3161  1.7129  1.4871
  525MOL0     H72447   1.416   3.892   3.846  3.4339  0.1949 -1.5562
  525MOL0     H72448   1.125   3.730   3.832 -3.0969  2.1124 -2.1417
  525MOL0     H72449   1.246   3.812   3.945 -1.5815  2.8653  2.2082
  525MOL0     H72450   1.094   3.878   3.917 -0.1835 -1.9400  0.3475
  526MOL0     O72451   2.174   5.073   1.206 -0.7139 -1.1558  0.3401
  526MOL0     C72452   2.224   4.964   1.206 -0.2932 -0.1800  1.2071
  526MOL0     O72453   2.286   4.911   1.085  0.2565  0.9246 -0.1164
  526MOL0     C72454   2.349   4.785   1.084 -0.2333 -0.1201  1.6327
  526MOL0     C72455   2.462   4.776   1.001  0.0430  0.0224 -0.5762
  526MOL0     C72456   2.523   4.649   0.990 -0.6685 -0.2174 -0.7065
  526MOL0     C72457   2.480   4.536   1.058 -0.0108  0.0115  0.1484
  526MOL0     O72458   2.550   4.415   1.051 -0.0202 -0.3933  0.4315
  526MOL0     C72459   2.608   4.378   0.925 -0.3259 -0.3759 -0.0687
  526MOL0     C72460   2.757   4.397   0.942  0.1161 -0.5147 -0.6462
  526MOL0     C72461   2.828   4.290   1.030 -0.2166  0.3548 -0.8599
  526MOL0     C72462   2.975   4.322   1.046  0.4557 -1.5083  0.1292
  526MOL0     C72463   3.060   4.195   1.060  0.7612  0.5066  0.2973
  526MOL0     C72464   3.211   4.223   1.066  0.0533  0.4776 -0.6109
  526MOL0     C72465   3.250   4.325   1.167  0.3783 -0.9354  0.2638
  526MOL0     C72466   3.401   4.328   1.181  0.2101 -0.4328 -1.2101
  526MOL0     N72467   3.433   4.225   1.282  0.2888  0.9049 -0.0167
  526MOL0     C72468   3.451   4.250   1.414 -0.2337  0.1052  0.4950
  526MOL0     C72469   3.494   4.134   1.465 -0.2130  0.2643 -0.0561
  526MOL0     C72470   3.545   4.125   1.607 -0.7452 -0.2760 -0.6388
  526MOL0     C72471   3.511   4.006   1.697  0.0029  0.5887 -0.9753
  526MOL0     C72472   3.555   4.010   1.836  0.1136 -1.0518  0.8512
  526MOL0     C72473   3.529   3.890   1.932 -0.3850  0.3782 -0.6740
  526MOL0     O72474   3.401   3.911   1.999 -0.5645 -0.0511  0.1977
  526MOL0     C72475   3.387   4.015   2.089  0.7266  0.3724  0.3509
  526MOL0     C72476   3.263   4.021   2.145 -0.8566 -0.7825  0.7593
  526MOL0     C72477   3.240   4.107   2.235  0.5624 -0.0609 -0.4527
  526MOL0     C72478   3.095   4.104   2.275  0.0781  0.3372  0.4757
  526MOL0     C72479   3.333   4.215   2.269  0.0503 -0.2010  0.9685
  526MOL0     C72480   3.295   4.339   2.342  0.2120 -1.1580 -0.4004
  526MOL0     O72481   3.394   4.404   2.394 -0.0787 -0.4770 -0.0081
  526MOL0     C72482   3.379   4.505   2.488 -0.4988 -0.9326 -0.0589
  526MOL0     C72483   3.247   4.527   2.558 -0.0946 -0.4136 -0.1743
  526MOL0     C72484   3.245   4.631   2.652  1.2343 -0.6629  0.2110
  526MOL0     C72485   3.350   4.713   2.674 -0.5206 -1.1947  0.4946
  526MOL0     O72486   3.339   4.817   2.767 -0.6670  0.2391 -0.4644
  526MOL0     C72487   3.443   4.894   2.819 -0.1275 -0.2378 -0.0864
  526MOL0     C72488   3.403   4.976   2.935  0.4814 -0.4279  0.1600
  526MOL0     C72489   3.410   4.879   3.052  0.2854 -0.3914  0.2084
  526MOL0     C72490   3.364   4.954   3.184 -0.3153  0.2832  0.0439
  526MOL0     C72491   3.329   4.858   3.293 -0.1206 -0.4056  0.1284
  526MOL0     C72492   3.197   4.790   3.265  0.4283 -0.3599 -0.3249
  526MOL0     C72493   3.076   4.878   3.286  0.2943  0.0166 -0.6001
  526MOL0     C72494   2.947   4.805   3.331  0.1778 -0.1398 -1.0093
  526MOL0    Cl72495   2.819   4.927   3.367 -0.2071 -0.1159 -0.0779
  526MOL0     C72496   3.476   4.688   2.617  0.7566  0.1076  0.7592
  526MOL0     C72497   3.491   4.587   2.519  0.9553 -0.1665  0.3277
  526MOL0     O72498   3.183   4.392   2.310  0.2013 -0.0010 -0.1757
  526MOL0     C72499   3.465   4.196   2.225  0.2986 -0.4467 -0.2923
  526MOL0     C72500   3.498   4.091   2.128  0.6483 -0.8389  0.1755
  526MOL0     N72501   3.498   4.040   1.365 -0.2075 -0.7077  0.0403
  526MOL0     N72502   3.466   4.094   1.262  0.4036 -0.4393  0.0001
  526MOL0     C72503   2.366   4.547   1.134  0.7294  0.5882 -0.5584
  526MOL0     C72504   2.302   4.670   1.151  0.5592 -0.5324  0.2220
  526MOL0     C72505   2.240   4.889   1.342 -0.5520 -0.4224  0.0769
  526MOL0     C72506   2.357   4.833   1.396 -0.2001  0.0376 -0.1972
  526MOL0     C72507   2.374   4.782   1.528  0.0849 -0.3093  0.8691
  526MOL0     C72508   2.272   4.799   1.622  0.4860  0.1149  0.5217
  526MOL0     O72509   2.268   4.760   1.758 -0.5251 -0.3392 -0.0489
  526MOL0     C72510   2.396   4.718   1.813 -0.2252 -0.1929  0.1851
  526MOL0     C72511   2.362   4.709   1.964  0.4071 -0.0998 -0.2873
  526MOL0     C72512   2.487   4.661   2.050 -0.9759 -0.3231  0.1392
  526MOL0     C72513   2.464   4.530   2.123 -0.6385 -0.0846 -0.1160
  526MOL0     C72514   2.449   4.422   2.026  0.0880 -0.2929  0.9131
  526MOL0     C72515   2.428   4.337   1.944  0.0168 -0.1506 -0.2619
  526MOL0     C72516   2.146   4.836   1.567  0.0412  0.3696  0.0999
  526MOL0     C72517   2.131   4.888   1.438 -0.5468 -0.5689  0.1692
  526MOL0     C72518   1.997   4.956   1.411  0.7506  0.3771  0.5333
  526MOL0     H72519   2.506   4.865   0.957 -1.0126  1.4789  1.1688
  526MOL0     H72520   2.609   4.649   0.924  1.0930  3.2328  1.3100
  526MOL0     H72521   2.566   4.431   0.839  1.8265 -0.8993 -1.5048
  526MOL0     H72522   2.584   4.273   0.905 -3.4185  0.2834 -0.3539
  526MOL0     H72523   2.812   4.390   0.847  4.3684 -1.6332  1.6364
  526MOL0     H72524   2.771   4.499   0.980 -2.7631  0.3821 -1.7427
  526MOL0     H72525   2.776   4.303   1.126  3.0407  0.0248  1.0998
  526MOL0     H72526   2.813   4.194   0.979  1.7443  0.4908 -1.7898
  526MOL0     H72527   3.005   4.364   0.949  2.2673  0.2713  1.3737
  526MOL0     H72528   2.985   4.392   1.130 -0.9938  0.4489 -1.2455
  526MOL0     H72529   3.037   4.125   0.980 -2.2787  1.4722  0.1853
  526MOL0     H72530   3.027   4.137   1.147  0.5083 -0.7923 -0.6369
  526MOL0     H72531   3.264   4.133   1.096  0.4051  1.3742  1.6489
  526MOL0     H72532   3.239   4.257   0.966  0.2125  3.1074  0.2437
  526MOL0     H72533   3.202   4.325   1.265  2.9388 -2.3375  1.6351
  526MOL0     H72534   3.228   4.425   1.128 -0.6220 -0.4662  1.9794
  526MOL0     H72535   3.447   4.313   1.083  3.3730 -1.1472  0.2293
  526MOL0     H72536   3.441   4.427   1.206 -0.5610 -0.5180  0.4846
  526MOL0     H72537   3.429   4.341   1.469 -0.7996  1.5042 -1.8718
  526MOL0     H72538   3.510   4.212   1.665  0.4176 -1.5394  2.1466
  526MOL0     H72539   3.654   4.132   1.607 -0.6139 -1.6541  0.7919
  526MOL0     H72540   3.402   3.996   1.694 -0.1904 -0.7323  3.3575
  526MOL0     H72541   3.553   3.912   1.661  0.5854  0.7868 -0.8290
  526MOL0     H72542   3.663   4.028   1.835 -0.4053  3.0467 -0.8623
  526MOL0     H72543   3.506   4.098   1.879  0.1983 -0.7180  0.2821
  526MOL0     H72544   3.521   3.796   1.877 -2.4633 -2.6636  4.1708
  526MOL0     H72545   3.609   3.876   2.006  0.1556  1.0341 -1.1194
  526MOL0     H72546   3.182   3.956   2.113 -0.4265 -0.0316 -2.1538
  526MOL0     H72547   3.091   4.156   2.371  2.6094  0.0956  0.7953
  526MOL0     H72548   3.063   4.001   2.289 -0.7405  0.5160 -0.0274
  526MOL0     H72549   3.042   4.141   2.187  2.2327  0.2580 -0.9415
  526MOL0     H72550   3.160   4.477   2.519  2.1538 -2.8252 -2.5388
  526MOL0     H72551   3.152   4.664   2.700  1.1225  0.8426 -0.9586
  526MOL0     H72552   3.523   4.827   2.851 -0.6844  0.0628  2.1062
  526MOL0     H72553   3.492   4.952   2.740  1.2731 -0.6516  0.4565
  526MOL0     H72554   3.476   5.057   2.949 -2.0888  2.4835 -1.8811
  526MOL0     H72555   3.302   5.016   2.942  0.9680  1.2174 -1.3966
  526MOL0     H72556   3.514   4.850   3.068  0.7587 -0.0225 -1.9811
  526MOL0     H72557   3.355   4.787   3.027 -3.0888  1.6312 -0.4302
  526MOL0     H72558   3.279   5.010   3.144  0.2710  1.7907  0.8430
  526MOL0     H72559   3.447   5.018   3.216  0.7855 -1.7524  1.5162
  526MOL0     H72560   3.401   4.777   3.305 -0.0639 -0.5356 -0.9433
  526MOL0     H72561   3.321   4.919   3.383 -2.6185  0.0778 -0.3550
  526MOL0     H72562   3.197   4.713   3.343  1.1417 -0.4605 -0.4136
  526MOL0     H72563   3.180   4.736   3.171 -1.7676 -0.1144 -0.1224
  526MOL0     H72564   3.058   4.920   3.187 -1.0325  1.8961  0.3692
  526MOL0     H72565   3.090   4.965   3.351 -4.8704  0.7858 -0.0803
  526MOL0     H72566   2.964   4.738   3.416 -2.8853 -0.8354 -0.8355
  526MOL0     H72567   2.910   4.746   3.247 -2.7721  0.5553 -0.3034
  526MOL0     H72568   3.569   4.739   2.641  0.1045  1.2804  0.9009
  526MOL0     H72569   3.580   4.551   2.467 -1.0580 -3.3180 -1.2250
  526MOL0     H72570   3.544   4.264   2.256 -1.0890  2.5401 -2.6843
  526MOL0     H72571   3.601   4.089   2.095  0.0695  1.5262 -2.1015
  526MOL0     H72572   2.328   4.462   1.189  0.1468  1.9250  1.2192
  526MOL0     H72573   2.211   4.662   1.208 -0.1317 -1.9567 -1.0033
  526MOL0     H72574   2.448   4.822   1.338  0.0347 -0.0194  0.1798
  526MOL0     H72575   2.465   4.738   1.566  0.4698 -0.9710 -0.7402
  526MOL0     H72576   2.425   4.620   1.773 -0.5257  0.2407 -1.1333
  526MOL0     H72577   2.468   4.799   1.794  0.1857 -0.0669  1.9987
  526MOL0     H72578   2.292   4.625   1.967  1.1351 -0.7443 -0.8828
  526MOL0     H72579   2.322   4.805   1.997  2.0723 -0.1276  2.1088
  526MOL0     H72580   2.570   4.655   1.980 -0.9111  0.9721  0.0699
  526MOL0     H72581   2.515   4.739   2.122  0.7607 -1.5550  0.8514
  526MOL0     H72582   2.369   4.530   2.178  1.1915 -3.8665  3.6722
  526MOL0     H72583   2.536   4.508   2.202  0.9603 -0.1640 -1.5481
  526MOL0     H72584   2.411   4.256   1.876  0.4229  1.2006 -2.0814
  526MOL0     H72585   2.064   4.846   1.637 -1.2856 -1.5714 -1.0854
  526MOL0     H72586   1.960   4.973   1.309 -0.6613 -3.3275  0.2544
  526MOL0     H72587   1.912   4.900   1.451 -0.6204  1.0555 -1.2740
  526MOL0     H72588   1.992   5.046   1.472 -1.5148  1.4674 -1.0886
  527MOL0     O72589   8.369   7.479   2.291  0.4879 -0.4343 -0.5408
  527MOL0     C72590   8.361   7.361   2.296 -1.1155 -0.0807 -0.8479
  527MOL0     O72591   8.313   7.286   2.405 -0.1501 -0.3030 -0.5178
  527MOL0     C72592   8.244   7.357   2.510  0.2241  0.2669 -0.4811
  527MOL0     C72593   8.305   7.441   2.605 -0.7465 -0.3994 -0.7740
  527MOL0     C72594   8.236   7.491   2.715 -0.2842 -0.4286 -0.8259
  527MOL0     C72595   8.101   7.447   2.733  0.2318 -0.5350  0.6215
  527MOL0     O72596   8.022   7.480   2.843 -0.1326 -0.0584  0.6131
  527MOL0     C72597   8.050   7.594   2.923 -0.2185  0.3044 -0.3519
  527MOL0     C72598   7.969   7.569   3.046  0.0782 -0.3563 -0.2643
  527MOL0     C72599   8.000   7.686   3.140  0.3612 -0.7946 -0.2286
  527MOL0     C72600   7.892   7.702   3.240  0.0134  0.5183 -0.3270
  527MOL0     C72601   7.914   7.636   3.376 -0.1356  0.5759 -0.5590
  527MOL0     C72602   7.929   7.481   3.376 -0.0391 -0.3711  0.9597
  527MOL0     C72603   7.936   7.418   3.510 -0.5933 -0.1361 -0.6069
  527MOL0     C72604   8.030   7.493   3.611  0.3066 -0.1946  0.3737
  527MOL0     N72605   8.021   7.437   3.747 -0.5758 -0.5392 -0.1302
  527MOL0     C72606   8.003   7.308   3.777 -0.2217  0.1743  0.8569
  527MOL0     C72607   8.003   7.301   3.911 -0.1550  0.0807  0.0513
  527MOL0     C72608   8.004   7.173   3.998 -0.2226 -0.3480  1.0838
  527MOL0     C72609   8.062   7.188   4.144  0.1762  0.6463 -0.4658
  527MOL0     C72610   8.030   7.066   4.226 -0.3330  0.0868  0.7796
  527MOL0     C72611   8.123   7.055   4.350 -0.5335 -0.6771 -0.5435
  527MOL0     O72612   8.261   7.025   4.320  0.1461 -0.4768  0.1614
  527MOL0     C72613   8.345   6.974   4.417  0.8042 -0.6025 -0.8567
  527MOL0     C72614   8.448   6.892   4.378  0.5719  0.0703 -0.8994
  527MOL0     C72615   8.532   6.825   4.471  0.2665  0.1351 -0.6014
  527MOL0     C72616   8.644   6.738   4.414  0.0138 -0.0261 -0.3263
  527MOL0     C72617   8.508   6.850   4.609  0.1468  0.5363  0.1176
  527MOL0     C72618   8.579   6.789   4.720  0.2374  0.0313  0.1817
  527MOL0     O72619   8.586   6.867   4.833  1.0368  0.5315 -0.0680
  527MOL0     C72620   8.673   6.828   4.928 -0.1208  0.4087 -0.4068
  527MOL0     C72621   8.624   6.850   5.064 -0.3978  0.8857  0.0386
  527MOL0     C72622   8.706   6.815   5.172 -0.1126  0.7212 -0.0383
  527MOL0     C72623   8.837   6.773   5.141 -0.9199  0.7814  0.2055
  527MOL0     O72624   8.925   6.723   5.232 -0.2918 -0.4213  0.2077
  527MOL0     C72625   8.891   6.723   5.372 -0.1171 -0.0339  0.2850
  527MOL0     C72626   9.014   6.667   5.437  0.6845 -0.8733  0.3114
  527MOL0     C72627   8.997   6.649   5.594 -0.4062  0.2500  0.1256
  527MOL0     C72628   8.923   6.517   5.613  0.3851 -1.1977  0.5270
  527MOL0     C72629   8.903   6.501   5.760  0.1812  0.6185  0.5545
  527MOL0     C72630   8.863   6.361   5.791 -0.0426 -0.1932  0.2391
  527MOL0     C72631   8.832   6.352   5.940  0.6096 -0.2271  0.8287
  527MOL0     C72632   8.955   6.389   6.034  0.2035  0.5054  0.2481
  527MOL0    Cl72633   9.112   6.301   6.008  0.2029 -0.2119  0.1258
  527MOL0     C72634   8.878   6.753   5.009 -0.2095 -0.8107 -0.6656
  527MOL0     C72635   8.798   6.776   4.901  0.5511  0.6760 -0.2967
  527MOL0     O72636   8.602   6.670   4.706 -0.7196 -1.3464  0.7651
  527MOL0     C72637   8.407   6.949   4.647 -0.2141  0.2781  0.5350
  527MOL0     C72638   8.328   7.009   4.552  0.1020  0.6715  0.2545
  527MOL0     N72639   8.024   7.425   3.959 -0.7235 -0.6345 -0.3231
  527MOL0     N72640   8.025   7.509   3.861 -0.7495 -0.8355  0.3402
  527MOL0     C72641   8.049   7.348   2.649 -0.5990  0.4853  0.1175
  527MOL0     C72642   8.124   7.295   2.550  0.0034  0.2579  0.5198
  527MOL0     C72643   8.372   7.291   2.174  0.4543  0.8238  0.4874
  527MOL0     C72644   8.270   7.201   2.134  0.2831 -0.3694 -0.1928
  527MOL0     C72645   8.277   7.141   2.007 -0.0037  0.2158 -0.1529
  527MOL0     C72646   8.382   7.154   1.918 -0.0289  0.1992 -0.7616
  527MOL0     O72647   8.392   7.099   1.791  0.1732 -0.0304  0.0553
  527MOL0     C72648   8.270   7.047   1.735  0.4916  0.1676  0.4746
  527MOL0     C72649   8.284   6.988   1.585  0.3527 -0.0622  0.2893
  527MOL0     C72650   8.357   7.089   1.492 -0.4963  0.0613 -0.1913
  527MOL0     C72651   8.298   7.104   1.346 -0.7758  0.5785  0.0358
  527MOL0     C72652   8.204   7.223   1.338 -0.0955  0.1868 -0.3416
  527MOL0     C72653   8.116   7.310   1.324  0.0740  0.0799 -0.0094
  527MOL0     C72654   8.480   7.247   1.956  0.1964  0.0681  1.0274
  527MOL0     C72655   8.476   7.321   2.076 -0.3968  0.6891  0.3608
  527MOL0     C72656   8.580   7.430   2.092 -0.4818 -0.1655  0.6409
  527MOL0     H72657   8.405   7.467   2.571 -0.8425 -0.7620 -1.3505
  527MOL0     H72658   8.286   7.566   2.776  1.5513 -2.3537  0.1362
  527MOL0     H72659   8.019   7.684   2.869  0.0497 -1.8583 -4.5214
  527MOL0     H72660   8.152   7.625   2.947 -0.7554  0.0415  2.7844
  527MOL0     H72661   7.861   7.567   3.026 -0.3227 -2.8771  1.6663
  527MOL0     H72662   8.004   7.477   3.094  2.5518  0.8367  0.4118
  527MOL0     H72663   8.097   7.655   3.181 -1.4215 -6.6462  0.6248
  527MOL0     H72664   8.014   7.775   3.078  2.7756 -0.2305  0.9840
  527MOL0     H72665   7.885   7.808   3.266 -3.3777 -0.0901  1.9612
  527MOL0     H72666   7.796   7.667   3.201 -1.0596  0.4544  2.1403
  527MOL0     H72667   7.826   7.645   3.441 -0.6881  0.4410 -1.2752
  527MOL0     H72668   7.998   7.688   3.421 -0.1060  0.1390 -0.0963
  527MOL0     H72669   7.846   7.428   3.331  0.9705 -0.9451 -0.2866
  527MOL0     H72670   8.021   7.457   3.322 -1.0676 -2.5690  0.0703
  527MOL0     H72671   7.986   7.321   3.499 -0.9101 -0.2371 -1.2222
  527MOL0     H72672   7.841   7.399   3.560  1.1265  0.1766  3.1191
  527MOL0     H72673   8.134   7.487   3.576  1.0788  3.8578  1.3961
  527MOL0     H72674   8.010   7.601   3.607  0.9276 -0.0998 -0.7977
  527MOL0     H72675   7.994   7.222   3.711 -1.0072 -0.3957  1.6726
  527MOL0     H72676   8.064   7.107   3.935 -1.1772  2.3466 -2.9751
  527MOL0     H72677   7.900   7.138   4.005 -0.8932  1.1706 -0.4398
  527MOL0     H72678   8.171   7.196   4.133  0.2971  1.5600  1.0892
  527MOL0     H72679   8.025   7.279   4.192  0.8563 -0.2233  1.8292
  527MOL0     H72680   7.923   7.063   4.250 -0.0497  1.0863  2.2942
  527MOL0     H72681   8.061   6.977   4.170  0.2335  1.0218 -0.4415
  527MOL0     H72682   8.111   7.146   4.409  0.2362 -2.2143  2.1300
  527MOL0     H72683   8.086   6.978   4.418 -0.2111 -0.3899 -0.0342
  527MOL0     H72684   8.459   6.868   4.272  1.8401 -1.3679 -0.4879
  527MOL0     H72685   8.610   6.636   4.397 -0.2167  0.2478 -1.6082
  527MOL0     H72686   8.731   6.744   4.480 -2.8150 -0.3250  3.9166
  527MOL0     H72687   8.674   6.769   4.314  0.3484 -3.1558 -1.2836
  527MOL0     H72688   8.535   6.905   5.093 -0.0026  0.7713  1.5273
  527MOL0     H72689   8.663   6.850   5.265 -1.8464  0.5538 -0.7411
  527MOL0     H72690   8.874   6.825   5.408  3.7402  1.5545 -1.7433
  527MOL0     H72691   8.802   6.661   5.389 -0.4003  0.4987  0.7734
  527MOL0     H72692   9.040   6.569   5.396 -0.4691 -2.5576  3.2531
  527MOL0     H72693   9.098   6.736   5.426  3.0630 -3.5407  0.4886
  527MOL0     H72694   8.939   6.733   5.633  0.5161  1.1406 -0.3908
  527MOL0     H72695   9.095   6.647   5.642 -1.1914  2.6791  2.0703
  527MOL0     H72696   8.981   6.435   5.570  1.1318 -0.5958  0.3684
  527MOL0     H72697   8.835   6.523   5.549  1.3917  4.1786 -0.8354
  527MOL0     H72698   8.984   6.523   5.830 -0.5902  1.9681  1.0700
  527MOL0     H72699   8.813   6.556   5.789  0.4923 -0.4769  3.9901
  527MOL0     H72700   8.936   6.292   5.747  1.2752  1.0692  0.3893
  527MOL0     H72701   8.767   6.337   5.744 -0.2509 -0.8726  0.9768
  527MOL0     H72702   8.816   6.245   5.959  0.8114 -0.4405 -0.1544
  527MOL0     H72703   8.741   6.408   5.960  0.7118 -0.9113  3.6829
  527MOL0     H72704   8.922   6.361   6.134 -0.3692  0.1716 -0.0319
  527MOL0     H72705   8.981   6.495   6.041  0.4910  0.4423  0.1864
  527MOL0     H72706   8.980   6.718   4.995 -0.6364 -2.6634  0.4631
  527MOL0     H72707   8.823   6.757   4.797 -2.6030 -0.7790 -0.8900
  527MOL0     H72708   8.375   6.977   4.747 -3.0413 -1.6705  0.2945
  527MOL0     H72709   8.254   7.087   4.563 -0.5499  0.0391  0.3980
  527MOL0     H72710   7.950   7.309   2.673  0.2856 -0.2475  3.0025
  527MOL0     H72711   8.097   7.218   2.478 -1.4154  1.4641 -0.2971
  527MOL0     H72712   8.186   7.195   2.202 -0.6518  2.0556 -1.0381
  527MOL0     H72713   8.201   7.072   1.972  1.8780 -1.7739 -0.5313
  527MOL0     H72714   8.239   6.964   1.798  2.4727  0.8499  2.5001
  527MOL0     H72715   8.188   7.120   1.729 -1.7390 -2.2690 -0.5585
  527MOL0     H72716   8.188   6.957   1.544  0.9002 -0.0545 -1.0611
  527MOL0     H72717   8.352   6.903   1.597 -0.6336 -0.6175  2.3700
  527MOL0     H72718   8.370   7.185   1.543  0.8012  0.2752 -0.8708
  527MOL0     H72719   8.457   7.051   1.469 -0.0132  1.2233 -0.0571
  527MOL0     H72720   8.233   7.024   1.311 -3.6811  3.2740 -1.2764
  527MOL0     H72721   8.381   7.109   1.275 -1.6390 -1.7732 -1.2365
  527MOL0     H72722   8.050   7.394   1.320  0.1568  0.2197  1.1071
  527MOL0     H72723   8.558   7.269   1.883 -1.2788  1.7790 -0.1143
  527MOL0     H72724   8.536   7.530   2.089 -0.8762 -0.3520 -2.0073
  527MOL0     H72725   8.639   7.411   2.182  0.5895  1.0802  0.2464
  527MOL0     H72726   8.652   7.424   2.009 -1.0149  1.5716  0.0090
  528MOL0     O72727   4.611   2.277   6.930 -0.2258 -0.3140 -0.5416
  528MOL0     C72728   4.683   2.304   7.028  1.1909 -0.5156  0.2073
  528MOL0     O72729   4.630   2.301   7.154 -0.2531 -0.2297  0.0246
  528MOL0     C72730   4.499   2.252   7.175 -0.0821  0.6744  1.2359
  528MOL0     C72731   4.397   2.330   7.213  1.4471 -1.0763  0.0354
  528MOL0     C72732   4.258   2.294   7.217 -0.4212 -0.4917 -0.4666
  528MOL0     C72733   4.228   2.164   7.173 -0.1202 -0.1590 -0.6063
  528MOL0     O72734   4.097   2.120   7.166  0.1200 -0.1511  0.1595
  528MOL0     C72735   4.000   2.188   7.086  0.3405 -0.6521  0.8255
  528MOL0     C72736   4.009   2.142   6.943  0.6105 -0.0589  0.2619
  528MOL0     C72737   3.913   2.232   6.858  0.2276 -1.4641 -0.0655
  528MOL0     C72738   3.913   2.183   6.711  0.8502 -0.0284 -0.1025
  528MOL0     C72739   3.811   2.270   6.634  0.3784 -0.1974 -0.6218
  528MOL0     C72740   3.790   2.219   6.492  0.4109  0.7392  0.4524
  528MOL0     C72741   3.905   2.261   6.401  0.6264 -0.1834 -0.0416
  528MOL0     C72742   3.896   2.204   6.258 -0.2284  0.6334 -0.2982
  528MOL0     N72743   3.948   2.072   6.266 -0.8957  0.6128  0.3166
  528MOL0     C72744   4.073   2.031   6.310 -0.4987  1.0681  0.1644
  528MOL0     C72745   4.071   1.892   6.308  0.8344 -0.2345  0.5581
  528MOL0     C72746   4.189   1.829   6.367 -0.4416 -1.6295  0.6376
  528MOL0     C72747   4.179   1.781   6.500  0.3059 -0.4356 -0.9958
  528MOL0     C72748   4.211   1.881   6.609  0.6623  0.1062  0.3931
  528MOL0     C72749   4.176   1.828   6.747 -0.3233 -0.1451 -0.4569
  528MOL0     O72750   4.255   1.716   6.794  0.3959 -0.9383 -0.4646
  528MOL0     C72751   4.365   1.734   6.867  0.6322  0.0576 -0.0171
  528MOL0     C72752   4.414   1.624   6.937 -0.2396  1.0380 -0.5593
  528MOL0     C72753   4.538   1.627   7.011  0.3160  0.0573  0.4035
  528MOL0     C72754   4.585   1.499   7.056  0.1009 -0.1975  0.0550
  528MOL0     C72755   4.621   1.743   7.003  0.2738  0.3406  0.5052
  528MOL0     C72756   4.756   1.771   7.062  0.2942  0.9680 -0.7935
  528MOL0     O72757   4.784   1.900   7.096  0.0250  0.0297  1.0435
  528MOL0     C72758   4.913   1.944   7.128 -0.2736 -0.4014 -1.1743
  528MOL0     C72759   5.021   1.905   7.055 -0.6311 -0.0417 -0.0684
  528MOL0     C72760   5.156   1.937   7.097  0.0268 -0.7017 -0.8089
  528MOL0     C72761   5.178   2.032   7.200 -0.4209  0.1664  0.4604
  528MOL0     O72762   5.311   2.067   7.221 -0.2041 -0.1679 -0.3808
  528MOL0     C72763   5.344   2.210   7.203 -0.5248  0.6324 -0.0784
  528MOL0     C72764   5.451   2.264   7.295  0.5179  1.3073  1.4500
  528MOL0     C72765   5.437   2.229   7.448 -0.3589  0.6396 -0.0692
  528MOL0     C72766   5.570   2.242   7.514  0.2661 -0.6077 -1.1052
  528MOL0     C72767   5.556   2.243   7.672 -1.0436 -0.6768 -0.4693
  528MOL0     C72768   5.701   2.248   7.740 -0.7542 -0.3201  0.3254
  528MOL0     C72769   5.743   2.395   7.722  0.4749 -0.6098  0.3042
  528MOL0     C72770   5.846   2.433   7.833 -0.3145 -0.4080  0.0573
  528MOL0    Cl72771   5.920   2.597   7.797 -0.4593 -0.4256 -0.1914
  528MOL0     C72772   5.060   2.088   7.250 -0.2589 -0.2255 -1.3017
  528MOL0     C72773   4.936   2.043   7.216  0.2377 -0.2171  0.1925
  528MOL0     O72774   4.823   1.667   7.070  0.4073  0.8540 -0.6463
  528MOL0     C72775   4.569   1.849   6.921  1.1321 -0.8530  0.4936
  528MOL0     C72776   4.445   1.847   6.854  0.9390  0.8041  0.2647
  528MOL0     N72777   3.945   1.845   6.268  0.4868  0.8401 -0.0653
  528MOL0     N72778   3.881   1.955   6.241 -0.0090  0.8508  0.0014
  528MOL0     C72779   4.332   2.086   7.125  0.1093  0.1197 -0.8274
  528MOL0     C72780   4.470   2.126   7.131  0.8359  1.1798 -0.2737
  528MOL0     C72781   4.826   2.325   7.014  0.0740  0.7696 -0.1024
  528MOL0     C72782   4.893   2.415   7.101 -0.3814  0.0901 -0.0031
  528MOL0     C72783   5.029   2.437   7.088  0.8396 -0.6393 -0.1430
  528MOL0     C72784   5.098   2.370   6.979 -0.5764 -0.1223 -0.0641
  528MOL0     O72785   5.230   2.382   6.956  0.6349  0.3494 -0.2245
  528MOL0     C72786   5.285   2.511   7.009 -0.9225  0.0709 -0.7476
  528MOL0     C72787   5.431   2.517   6.969  0.3910 -0.6665  0.3657
  528MOL0     C72788   5.444   2.535   6.818 -0.9404 -0.6974  0.6930
  528MOL0     C72789   5.583   2.564   6.781 -0.2527  1.0863 -0.8201
  528MOL0     C72790   5.633   2.698   6.826 -0.0453 -0.3926 -0.7819
  528MOL0     C72791   5.687   2.797   6.874  1.3275  0.0040 -0.5046
  528MOL0     C72792   5.027   2.278   6.901  0.1637 -0.3089  0.6993
  528MOL0     C72793   4.899   2.252   6.913  0.5173  0.3949 -0.3048
  528MOL0     C72794   4.845   2.161   6.817  0.6649  0.5308 -0.2471
  528MOL0     H72795   4.428   2.434   7.211  0.2500 -0.6391  1.9567
  528MOL0     H72796   4.186   2.363   7.259 -0.3759 -1.4626  1.2715
  528MOL0     H72797   4.022   2.295   7.092  1.6179 -0.9873  3.4227
  528MOL0     H72798   3.903   2.161   7.129  0.0794 -1.8710 -0.4254
  528MOL0     H72799   4.113   2.159   6.913  1.3203  0.0366  2.5637
  528MOL0     H72800   3.985   2.036   6.935 -0.3372  0.2367 -0.9560
  528MOL0     H72801   3.808   2.219   6.886 -0.1909 -1.7972 -1.7154
  528MOL0     H72802   3.937   2.339   6.866 -0.1093 -1.4605  1.1702
  528MOL0     H72803   4.014   2.190   6.669 -0.0902  2.8248 -2.2910
  528MOL0     H72804   3.878   2.081   6.699  1.2000 -0.2076  0.3704
  528MOL0     H72805   3.860   2.367   6.649  0.9762 -0.1986 -2.3335
  528MOL0     H72806   3.717   2.271   6.690  2.3008  0.8145  2.8682
  528MOL0     H72807   3.763   2.113   6.492 -0.4020  0.8323  3.9607
  528MOL0     H72808   3.700   2.267   6.452  0.1513 -1.7331 -2.2497
  528MOL0     H72809   3.999   2.230   6.448  0.3662 -2.3880 -0.8313
  528MOL0     H72810   3.901   2.370   6.393  4.3061  0.1797  1.1651
  528MOL0     H72811   3.798   2.193   6.209  0.7547 -1.3000 -2.0133
  528MOL0     H72812   3.956   2.266   6.190  0.5188 -2.4458 -2.7083
  528MOL0     H72813   4.163   2.082   6.339  1.3821 -1.6216 -0.5647
  528MOL0     H72814   4.280   1.890   6.357  0.0865 -2.7365 -3.1498
  528MOL0     H72815   4.200   1.738   6.308 -1.0579 -1.1994 -0.1611
  528MOL0     H72816   4.083   1.733   6.523 -0.5295  0.4453 -2.4877
  528MOL0     H72817   4.238   1.689   6.499 -0.7278 -1.1287 -0.3371
  528MOL0     H72818   4.315   1.913   6.609  0.9388 -0.6551  2.3641
  528MOL0     H72819   4.145   1.967   6.588 -0.5759 -0.7658  0.5805
  528MOL0     H72820   4.194   1.913   6.813  0.1722  0.3593 -1.2316
  528MOL0     H72821   4.069   1.803   6.753 -0.6265  1.4264  2.2357
  528MOL0     H72822   4.346   1.540   6.943 -0.2616  1.1517  1.5082
  528MOL0     H72823   4.679   1.466   7.011  0.3343 -2.0374  1.7754
  528MOL0     H72824   4.502   1.430   7.040  0.0446 -0.0352 -0.3792
  528MOL0     H72825   4.613   1.518   7.160  1.7532  2.6143 -0.7884
  528MOL0     H72826   5.005   1.832   6.976  3.1885 -0.4386 -0.6674
  528MOL0     H72827   5.244   1.890   7.056  1.6277  1.1859  0.3194
  528MOL0     H72828   5.377   2.206   7.098  1.6804 -3.5138  0.5397
  528MOL0     H72829   5.256   2.273   7.213  0.7589  2.2350  1.7871
  528MOL0     H72830   5.532   2.206   7.249 -0.2854  1.8373 -0.7755
  528MOL0     H72831   5.467   2.370   7.271 -0.9187  0.5409 -4.3894
  528MOL0     H72832   5.404   2.126   7.462 -1.9538  1.0521 -0.6093
  528MOL0     H72833   5.364   2.290   7.501  0.9759 -0.4040  3.2023
  528MOL0     H72834   5.625   2.332   7.483  0.8803 -0.3094  0.6944
  528MOL0     H72835   5.631   2.158   7.481  0.7394  0.3753 -2.8854
  528MOL0     H72836   5.487   2.322   7.704 -1.1188  0.2734 -2.7799
  528MOL0     H72837   5.504   2.153   7.704 -1.8440 -0.3040 -0.6941
  528MOL0     H72838   5.774   2.183   7.692 -1.0946  0.7145 -1.6814
  528MOL0     H72839   5.685   2.220   7.844 -1.9938 -2.7345 -0.4494
  528MOL0     H72840   5.663   2.468   7.740  0.9833  0.5728 -1.8567
  528MOL0     H72841   5.785   2.403   7.622 -1.7648  0.9952 -0.6030
  528MOL0     H72842   5.921   2.354   7.846  0.8991  0.9455  1.7899
  528MOL0     H72843   5.806   2.438   7.935 -2.5686 -1.7758 -0.6981
  528MOL0     H72844   5.078   2.167   7.324 -0.9044 -0.5205 -0.8261
  528MOL0     H72845   4.851   2.090   7.265  1.1698  0.0400  1.6196
  528MOL0     H72846   4.631   1.935   6.895 -0.8219  0.6580  0.6028
  528MOL0     H72847   4.413   1.923   6.784 -0.7301  1.4248  1.6454
  528MOL0     H72848   4.301   1.985   7.099  0.4186 -0.4686  0.9400
  528MOL0     H72849   4.543   2.061   7.083 -1.0222 -1.0227 -0.2731
  528MOL0     H72850   4.831   2.462   7.176  0.1214 -2.5243  2.1942
  528MOL0     H72851   5.071   2.496   7.169  1.9108 -0.7009 -0.6234
  528MOL0     H72852   5.228   2.593   6.964  2.3535  1.5914 -2.4998
  528MOL0     H72853   5.282   2.526   7.117 -1.9756  2.6155 -1.0449
  528MOL0     H72854   5.481   2.428   7.008 -2.2307 -1.7782  1.3785
  528MOL0     H72855   5.467   2.607   7.021  2.4653 -2.1224  1.6156
  528MOL0     H72856   5.413   2.443   6.766 -1.5017 -1.3157  2.0886
  528MOL0     H72857   5.387   2.620   6.780  2.8941  2.1457  0.7870
  528MOL0     H72858   5.593   2.576   6.673  4.2620 -2.0560 -0.9899
  528MOL0     H72859   5.655   2.486   6.807  0.3942  1.6705 -0.8450
  528MOL0     H72860   5.728   2.891   6.905 -0.1018  0.1774  1.0187
  528MOL0     H72861   5.072   2.238   6.811 -2.4769  0.2405 -0.9838
  528MOL0     H72862   4.748   2.116   6.841 -0.7420  1.3696 -3.7047
  528MOL0     H72863   4.835   2.209   6.719  1.5584  3.6440  1.0412
  528MOL0     H72864   4.920   2.084   6.800  1.1429  0.9602 -0.1082
  529MOL0     O72865   6.467   0.489   9.469  1.0111 -0.5011  0.8603
  529MOL0     C72866   6.454   0.613   9.477  0.0321 -0.2510 -0.2713
  529MOL0     O72867   6.441   0.701   9.373  0.9971 -0.4583  0.4343
  529MOL0     C72868   6.432   0.657   9.245 -0.3303  0.9416  0.1255
  529MOL0     C72869   6.508   0.726   9.146  0.5363 -0.1009  0.2465
  529MOL0     C72870   6.517   0.688   9.016  0.4808 -0.3747  0.0657
  529MOL0     C72871   6.468   0.563   8.981 -0.0667 -1.2483 -0.7651
  529MOL0     O72872   6.506   0.506   8.864 -0.1316 -0.6438 -0.4358
  529MOL0     C72873   6.454   0.563   8.746 -0.3270 -0.8161  0.0545
  529MOL0     C72874   6.518   0.516   8.617  0.6508  0.6828  0.4703
  529MOL0     C72875   6.655   0.570   8.587 -1.0447 -0.8336 -0.8652
  529MOL0     C72876   6.643   0.724   8.571  0.2184  0.5833 -0.0819
  529MOL0     C72877   6.784   0.783   8.546 -0.9879  0.8233  0.0584
  529MOL0     C72878   6.860   0.722   8.425 -0.0260  0.4687 -1.1260
  529MOL0     C72879   6.923   0.827   8.342  0.1001 -0.6946  0.0637
  529MOL0     C72880   6.972   0.772   8.210 -0.6050  0.5158  0.6319
  529MOL0     N72881   7.041   0.887   8.144 -0.2947 -0.2954  0.0159
  529MOL0     C72882   7.146   0.955   8.201 -0.4678 -0.2055  0.4262
  529MOL0     C72883   7.172   1.052   8.110  0.1122 -0.1812  0.4645
  529MOL0     C72884   7.273   1.166   8.110  0.5864 -0.1335  0.6678
  529MOL0     C72885   7.346   1.163   7.979 -0.1622  0.2499 -1.0505
  529MOL0     C72886   7.467   1.253   7.960 -0.9183 -0.4170 -0.6229
  529MOL0     C72887   7.422   1.404   7.927  0.6059  0.0449 -0.2749
  529MOL0     O72888   7.348   1.425   7.801 -0.2303 -0.3140 -0.6521
  529MOL0     C72889   7.339   1.549   7.742 -0.0475 -0.4902 -0.5635
  529MOL0     C72890   7.393   1.669   7.788 -0.8485  0.5579 -1.0904
  529MOL0     C72891   7.377   1.785   7.722  1.2089  0.4642 -0.1773
  529MOL0     C72892   7.453   1.908   7.779  0.3380 -1.3349 -0.1963
  529MOL0     C72893   7.301   1.787   7.606  0.2396 -0.8779 -0.8118
  529MOL0     C72894   7.265   1.918   7.534 -0.4164 -0.3398  0.4820
  529MOL0     O72895   7.273   2.030   7.607  0.7145 -0.1757  0.0631
  529MOL0     C72896   7.214   2.149   7.570  0.4284  0.5919  0.2539
  529MOL0     C72897   7.304   2.248   7.548 -0.5168  0.2075 -0.0120
  529MOL0     C72898   7.264   2.369   7.506 -0.5247  0.5304  0.1022
  529MOL0     C72899   7.133   2.394   7.484  0.0740 -0.1204  0.5244
  529MOL0     O72900   7.100   2.526   7.448  0.2846 -0.2358 -0.9814
  529MOL0     C72901   6.984   2.565   7.376  0.5771 -0.7392 -0.5871
  529MOL0     C72902   6.941   2.713   7.369 -1.0716 -0.3329 -0.2290
  529MOL0     C72903   6.818   2.749   7.276 -0.5057  0.1439  0.4894
  529MOL0     C72904   6.779   2.892   7.275 -0.7703  0.6618 -1.3245
  529MOL0     C72905   6.673   2.930   7.174 -0.1208  0.7848  0.1293
  529MOL0     C72906   6.720   2.894   7.034 -0.1630 -0.3000  0.8149
  529MOL0     C72907   6.643   2.967   6.923  0.0969  0.0863 -0.7644
  529MOL0     C72908   6.516   2.895   6.885  0.0674  0.0882 -0.4826
  529MOL0    Cl72909   6.441   3.004   6.764 -0.0067 -0.2329  0.5757
  529MOL0     C72910   7.032   2.297   7.513  0.0836  1.2177  2.3148
  529MOL0     C72911   7.075   2.166   7.547 -1.1055 -0.4367 -0.7240
  529MOL0     O72912   7.219   1.904   7.423  0.3543 -0.6448  0.1642
  529MOL0     C72913   7.265   1.665   7.546  0.7103 -0.0483 -0.1917
  529MOL0     C72914   7.280   1.543   7.621 -0.9614 -0.1893  0.2561
  529MOL0     N72915   7.069   1.040   8.015 -1.3362  0.7517  0.6394
  529MOL0     N72916   6.983   0.951   8.044  0.5496 -0.7549  0.5252
  529MOL0     C72917   6.396   0.493   9.071 -0.3580 -0.2145 -0.3646
  529MOL0     C72918   6.374   0.529   9.208 -0.6592 -0.2166 -0.0097
  529MOL0     C72919   6.437   0.651   9.618 -0.4093 -0.0197 -0.3744
  529MOL0     C72920   6.341   0.591   9.694  0.1423  0.7186 -0.3431
  529MOL0     C72921   6.334   0.611   9.833 -0.2492 -0.0732 -0.0126
  529MOL0     C72922   6.407   0.710   9.890  0.1740 -0.3154  0.0563
  529MOL0     O72923   6.393   0.749  10.025  0.4200 -0.0659  0.2433
  529MOL0     C72924   6.284   0.701  10.096  0.6206  0.1621 -0.3841
  529MOL0     C72925   6.186   0.807  10.128 -0.4183  0.5668  0.0692
  529MOL0     C72926   6.267   0.942  10.151  0.0235 -0.1998  0.2141
  529MOL0     C72927   6.171   1.055  10.185 -0.2999 -0.0917  0.6452
  529MOL0     C72928   6.105   1.111  10.063  1.0209  0.1771  0.7672
  529MOL0     C72929   6.066   1.145   9.952  0.5075  0.1705  0.6711
  529MOL0     C72930   6.483   0.791   9.813 -0.7425  0.6680  0.7420
  529MOL0     C72931   6.507   0.766   9.675  0.6001  0.7849 -0.5906
  529MOL0     C72932   6.610   0.848   9.603  0.5921 -1.0235  0.4336
  529MOL0     H72933   6.549   0.816   9.192  0.1475 -0.8688  2.2080
  529MOL0     H72934   6.585   0.747   8.956  1.9839 -0.9661  1.1219
  529MOL0     H72935   6.451   0.672   8.756  2.0364 -0.8742  2.5593
  529MOL0     H72936   6.350   0.528   8.751 -0.3835 -0.7057 -0.3567
  529MOL0     H72937   6.525   0.407   8.619  1.0818  0.6594 -1.0980
  529MOL0     H72938   6.446   0.544   8.539 -0.4774  0.0493  1.2565
  529MOL0     H72939   6.711   0.544   8.677  0.0621  2.0431 -0.5932
  529MOL0     H72940   6.718   0.516   8.516  2.3532 -0.6765  1.7915
  529MOL0     H72941   6.578   0.738   8.484  0.2203  0.8922 -0.0332
  529MOL0     H72942   6.597   0.774   8.656  1.4175 -0.7585  1.4066
  529MOL0     H72943   6.849   0.773   8.634  1.2889  1.4157 -1.4477
  529MOL0     H72944   6.760   0.888   8.528 -0.0761  0.9591 -0.4650
  529MOL0     H72945   6.944   0.661   8.460  0.1228  1.1258 -0.3139
  529MOL0     H72946   6.788   0.662   8.368  0.6734 -2.5403  0.9265
  529MOL0     H72947   7.009   0.872   8.391  1.4274 -1.6947 -1.2371
  529MOL0     H72948   6.850   0.906   8.320  1.0207 -0.0019 -0.6020
  529MOL0     H72949   7.048   0.697   8.231 -2.4183 -1.4473  0.5605
  529MOL0     H72950   6.899   0.729   8.141  1.5742  0.9437 -2.1244
  529MOL0     H72951   7.203   0.934   8.290 -3.6438 -0.3870  2.5907
  529MOL0     H72952   7.342   1.166   8.194 -0.5191 -1.2961  1.6247
  529MOL0     H72953   7.208   1.253   8.123  0.2611 -0.7776  5.0077
  529MOL0     H72954   7.376   1.058   7.970  1.1821  0.7361 -3.1198
  529MOL0     H72955   7.280   1.193   7.897 -1.3497  0.3011 -0.1020
  529MOL0     H72956   7.521   1.240   8.054  3.1310 -0.5104 -2.7804
  529MOL0     H72957   7.535   1.213   7.885  0.1390 -3.3961  1.7403
  529MOL0     H72958   7.352   1.438   8.005 -0.9247 -0.2725 -1.4578
  529MOL0     H72959   7.509   1.469   7.938  0.5514 -0.2806  3.0401
  529MOL0     H72960   7.452   1.665   7.879  1.0778 -0.7723 -2.3124
  529MOL0     H72961   7.384   1.972   7.835 -1.0311 -3.5059  0.7454
  529MOL0     H72962   7.514   1.963   7.708 -0.4700  1.8195  1.3780
  529MOL0     H72963   7.516   1.862   7.856 -0.8352 -1.6152  0.6237
  529MOL0     H72964   7.404   2.218   7.578 -1.5185 -3.4709  0.1339
  529MOL0     H72965   7.333   2.450   7.485 -0.8535  0.5009 -1.1786
  529MOL0     H72966   6.994   2.534   7.271 -0.1290  2.5282 -1.7499
  529MOL0     H72967   6.901   2.513   7.425  2.1843 -1.8799  1.0249
  529MOL0     H72968   6.921   2.749   7.470 -0.2835  2.2742 -0.9130
  529MOL0     H72969   7.026   2.766   7.324 -2.9586  1.8230 -1.4739
  529MOL0     H72970   6.732   2.688   7.304 -2.4553  1.8088 -1.4969
  529MOL0     H72971   6.849   2.719   7.175  2.6107 -4.5960  2.4480
  529MOL0     H72972   6.872   2.950   7.275 -0.1146 -0.3473 -1.1326
  529MOL0     H72973   6.740   2.907   7.376 -0.6982  0.8281 -1.3205
  529MOL0     H72974   6.578   2.886   7.205  0.0406  1.2550  1.3987
  529MOL0     H72975   6.659   3.039   7.175 -0.3285  0.7618  1.1642
  529MOL0     H72976   6.720   2.788   7.010 -0.9230 -0.1687  0.2115
  529MOL0     H72977   6.824   2.929   7.025  0.2440 -1.6910 -0.1179
  529MOL0     H72978   6.715   2.970   6.841  1.6542 -1.3451  0.4688
  529MOL0     H72979   6.623   3.068   6.958  2.3243  0.7855 -1.3384
  529MOL0     H72980   6.447   2.895   6.970 -0.7691  0.0990 -1.1521
  529MOL0     H72981   6.536   2.793   6.851 -1.7832 -0.0263 -1.3297
  529MOL0     H72982   6.928   2.328   7.505  0.0605  1.6120  3.8970
  529MOL0     H72983   7.019   2.075   7.565  1.1149 -1.7886 -0.2206
  529MOL0     H72984   7.197   1.661   7.461 -1.7527 -0.4688  1.6724
  529MOL0     H72985   7.247   1.444   7.594  0.0102 -0.9508  1.7210
  529MOL0     H72986   6.371   0.396   9.029 -1.7928  0.5214 -1.2789
  529MOL0     H72987   6.316   0.462   9.271  2.5887 -3.0708  0.3176
  529MOL0     H72988   6.285   0.505   9.658 -0.8630  0.5656  1.4375
  529MOL0     H72989   6.269   0.540   9.883  0.6279 -1.8538 -1.2708
  529MOL0     H72990   6.225   0.614  10.066 -0.4752 -0.9861  4.3449
  529MOL0     H72991   6.337   0.682  10.189 -0.5716 -0.1891  0.2394
  529MOL0     H72992   6.138   0.783  10.223  0.6298 -2.6101 -0.0918
  529MOL0     H72993   6.104   0.809  10.055 -0.6671 -2.7521  0.1136
  529MOL0     H72994   6.350   0.922  10.219  1.6293 -0.7218 -1.7790
  529MOL0     H72995   6.315   0.965  10.055 -0.7360 -0.8270 -0.3279
  529MOL0     H72996   6.240   1.136  10.210  0.3773  0.1350 -1.6951
  529MOL0     H72997   6.097   1.026  10.260  0.8416 -0.4166  1.6900
  529MOL0     H72998   6.044   1.178   9.853 -1.2425  0.7268  1.2124
  529MOL0     H72999   6.533   0.874   9.861 -3.0655  2.7311 -0.1798
  529MOL0     H73000   6.620   0.952   9.636 -1.4429 -0.2189 -1.2392
  529MOL0     H73001   6.706   0.797   9.598  0.9669 -0.2094 -2.7507
  529MOL0     H73002   6.576   0.868   9.501 -2.1342  1.3127  1.6366
  530MOL0     O73003   8.874  10.487   3.297 -1.2024  0.1620 -0.1535
  530MOL0     C73004   8.795  10.571   3.266  0.6739  0.2745  0.4943
  530MOL0     O73005   8.818  10.698   3.211 -0.5639  0.5156  0.4531
  530MOL0     C73006   8.938  10.746   3.233 -0.4417  0.1553 -0.0947
  530MOL0     C73007   8.971  10.817   3.351  0.7899  0.0137 -0.0559
  530MOL0     C73008   9.089  10.877   3.384  0.4568  0.5899 -0.2472
  530MOL0     C73009   9.186  10.871   3.283 -0.8643  0.0147  0.2952
  530MOL0     O73010   9.317  10.926   3.294  0.3119 -0.5344 -0.0111
  530MOL0     C73011   9.328  11.016   3.405 -0.5702 -0.3389 -0.0776
  530MOL0     C73012   9.251  11.149   3.381 -0.2911  0.0212 -0.0551
  530MOL0     C73013   9.319  11.266   3.311 -0.2710  0.2367 -0.6035
  530MOL0     C73014   9.376  11.214   3.177  0.2208 -0.0743  1.0525
  530MOL0     C73015   9.457  11.330   3.110  0.8146  0.3704  1.1798
  530MOL0     C73016   9.514  11.278   2.979 -0.2370 -0.4552  0.2471
  530MOL0     C73017   9.642  11.196   3.010 -0.0190  0.5106  0.4190
  530MOL0     C73018   9.719  11.171   2.878 -0.1381 -1.0377 -0.4294
  530MOL0     N73019   9.640  11.076   2.790 -0.3739 -0.5061 -0.1519
  530MOL0     C73020   9.607  10.951   2.823 -0.0961  0.1318 -0.0394
  530MOL0     C73021   9.525  10.906   2.724  0.0324  0.3044 -0.0864
  530MOL0     C73022   9.422  10.786   2.738 -0.0102  0.5319 -0.0664
  530MOL0     C73023   9.286  10.838   2.806  0.3594 -0.0855  0.8032
  530MOL0     C73024   9.229  10.960   2.735  0.3500 -0.0363  0.1667
  530MOL0     C73025   9.086  10.997   2.780 -0.5986  0.6858  0.4556
  530MOL0     O73026   9.063  11.120   2.708  1.0764 -0.7163  0.0162
  530MOL0     C73027   8.938  11.143   2.658  0.4137 -0.3947 -0.1178
  530MOL0     C73028   8.932  11.244   2.558 -0.0471 -0.3804  0.0608
  530MOL0     C73029   8.809  11.265   2.483 -0.1204  0.6563 -1.6292
  530MOL0     C73030   8.827  11.367   2.379  0.1796  0.1217  0.4077
  530MOL0     C73031   8.693  11.195   2.521  0.1317  1.4291 -0.1169
  530MOL0     C73032   8.566  11.201   2.446  0.0094 -0.6700  0.0303
  530MOL0     O73033   8.456  11.148   2.503 -0.0451  0.1164 -0.4887
  530MOL0     C73034   8.328  11.164   2.449  0.6751  0.4067  0.4794
  530MOL0     C73035   8.297  11.111   2.320  0.3564  0.2995  0.0258
  530MOL0     C73036   8.170  11.128   2.278 -0.3174  0.3706  0.2592
  530MOL0     C73037   8.077  11.222   2.335  0.8374  0.2966 -0.3706
  530MOL0     O73038   7.947  11.259   2.291  0.1272 -0.1127 -0.8660
  530MOL0     C73039   7.901  11.213   2.164 -0.4697  0.3238  0.1914
  530MOL0     C73040   7.940  11.305   2.055 -0.3105 -0.2507  0.1296
  530MOL0     C73041   7.922  11.453   2.089 -1.0689 -0.8639  0.6470
  530MOL0     C73042   7.941  11.544   1.961  0.1583  0.4996  0.1072
  530MOL0     C73043   8.076  11.558   1.879 -0.1863  0.1259 -0.2927
  530MOL0     C73044   8.059  11.671   1.774  0.7492  0.2548 -0.2394
  530MOL0     C73045   8.182  11.666   1.680 -0.0936 -0.1154 -0.2151
  530MOL0     C73046   8.192  11.803   1.603 -0.3074  0.4009  0.1952
  530MOL0    Cl73047   8.322  11.805   1.480  0.1144  0.0739 -0.1189
  530MOL0     C73048   8.118  11.269   2.459 -0.2018 -0.7480  0.2363
  530MOL0     C73049   8.228  11.225   2.517  0.3159 -0.3213  0.4390
  530MOL0     O73050   8.574  11.247   2.327 -0.1359  1.0709  0.2908
  530MOL0     C73051   8.697  11.114   2.644  1.2422  0.1285  0.3073
  530MOL0     C73052   8.822  11.083   2.701  0.7396 -0.6424  0.5775
  530MOL0     N73053   9.523  11.001   2.623  0.1349  0.0570  0.2498
  530MOL0     N73054   9.603  11.100   2.664 -0.4131  0.3140  0.0977
  530MOL0     C73055   9.160  10.808   3.162  0.2775  0.8357  0.2400
  530MOL0     C73056   9.041  10.736   3.140  0.4673  0.2093  0.5509
  530MOL0     C73057   8.656  10.516   3.285  0.5280  0.4323  0.6896
  530MOL0     C73058   8.646  10.412   3.373 -0.1658  0.5298 -0.0146
  530MOL0     C73059   8.512  10.374   3.408 -0.3933  0.0586 -0.2766
  530MOL0     C73060   8.400  10.422   3.339 -0.6775 -0.5210  0.1105
  530MOL0     O73061   8.277  10.369   3.388 -0.5131  0.1917  0.6504
  530MOL0     C73062   8.149  10.387   3.329 -0.5076  0.4510  0.3459
  530MOL0     C73063   8.069  10.490   3.409  0.7458 -0.0794  0.2690
  530MOL0     C73064   8.022  10.441   3.549 -0.1887 -0.0090  0.4104
  530MOL0     C73065   7.929  10.529   3.628  0.5456  1.0828  0.5890
  530MOL0     C73066   7.803  10.535   3.546  0.3563  0.7465 -0.1697
  530MOL0     C73067   7.702  10.527   3.481 -1.2622 -0.2574  0.5832
  530MOL0     C73068   8.414  10.519   3.243  1.0990  0.3699 -0.0013
  530MOL0     C73069   8.543  10.571   3.216 -0.1610 -0.1135 -1.1463
  530MOL0     C73070   8.542  10.674   3.114  0.1440 -0.8091 -0.0194
  530MOL0     H73071   8.894  10.813   3.427  1.7894  1.4344  1.0944
  530MOL0     H73072   9.097  10.912   3.487  1.0449 -0.4890  0.0805
  530MOL0     H73073   9.431  11.053   3.412 -0.9166  0.7581 -0.6401
  530MOL0     H73074   9.305  10.974   3.503  0.5643 -0.8171  0.0070
  530MOL0     H73075   9.154  11.127   3.337  0.0303  1.2536 -1.4804
  530MOL0     H73076   9.225  11.185   3.481 -2.4252 -0.5806 -0.3485
  530MOL0     H73077   9.242  11.342   3.294 -1.3852 -0.8178 -0.4014
  530MOL0     H73078   9.401  11.306   3.371 -1.2987  0.9260  0.3926
  530MOL0     H73079   9.424  11.116   3.180  0.0012 -0.5355 -3.5314
  530MOL0     H73080   9.302  11.185   3.102  0.5640  1.4751  0.0502
  530MOL0     H73081   9.535  11.373   3.173  1.3539  0.7605  0.2745
  530MOL0     H73082   9.382  11.406   3.086  1.1137  0.1740 -0.5242
  530MOL0     H73083   9.448  11.206   2.930  0.6693 -1.9198  1.1167
  530MOL0     H73084   9.535  11.354   2.904  1.0417  1.0436  2.0323
  530MOL0     H73085   9.624  11.098   3.056  0.4135  1.0340  1.7480
  530MOL0     H73086   9.707  11.239   3.086  0.2317  1.1362 -0.1446
  530MOL0     H73087   9.736  11.266   2.827 -3.0083 -1.5953 -2.7372
  530MOL0     H73088   9.812  11.122   2.907  1.1217  1.2748 -0.3504
  530MOL0     H73089   9.622  10.905   2.920  0.8481 -0.2581 -0.3494
  530MOL0     H73090   9.466  10.705   2.796  2.1468  0.9819 -0.9709
  530MOL0     H73091   9.401  10.741   2.640 -0.1258  1.4635 -0.4790
  530MOL0     H73092   9.212  10.758   2.796 -0.1165  0.3636  0.6892
  530MOL0     H73093   9.313  10.867   2.908 -2.2300  2.0115  0.9986
  530MOL0     H73094   9.299  11.042   2.755 -2.6951  2.2863  2.3693
  530MOL0     H73095   9.218  10.951   2.626 -3.8176  0.0118  0.4333
  530MOL0     H73096   9.023  10.910   2.760 -1.3174  1.6632 -1.9093
  530MOL0     H73097   9.085  11.008   2.889 -2.9853 -6.2242  1.5899
  530MOL0     H73098   9.026  11.291   2.533  0.4649  0.4615  3.1115
  530MOL0     H73099   8.761  11.452   2.400 -0.9368 -0.1483 -1.6896
  530MOL0     H73100   8.795  11.321   2.285 -0.2790  0.4591  0.3973
  530MOL0     H73101   8.930  11.393   2.354 -0.3614 -2.0231 -5.6349
  530MOL0     H73102   8.368  11.051   2.263 -0.2824  2.0500 -2.7786
  530MOL0     H73103   8.149  11.075   2.186 -2.5040  2.0594 -0.2863
  530MOL0     H73104   7.933  11.110   2.148 -2.5792 -0.2575 -0.6625
  530MOL0     H73105   7.792  11.205   2.165 -0.3296 -1.9786  0.7528
  530MOL0     H73106   8.039  11.274   2.021 -0.8600 -0.8493 -0.9886
  530MOL0     H73107   7.873  11.273   1.974  2.0043 -0.7352 -1.6900
  530MOL0     H73108   7.995  11.484   2.165 -0.6731  0.2038 -0.1398
  530MOL0     H73109   7.820  11.454   2.129 -1.7686 -0.1080 -1.0824
  530MOL0     H73110   7.922  11.646   1.997  3.5393  0.9153  1.1089
  530MOL0     H73111   7.862  11.516   1.891 -1.1022 -1.8072  2.2823
  530MOL0     H73112   8.155  11.590   1.948 -2.8056 -0.6919  3.3785
  530MOL0     H73113   8.102  11.466   1.827  0.1875 -0.3633  0.7302
  530MOL0     H73114   8.067  11.747   1.852 -0.3138 -1.4781  1.6599
  530MOL0     H73115   7.958  11.676   1.732  0.3887  0.0998  0.5957
  530MOL0     H73116   8.169  11.586   1.606 -0.5991  0.6001 -0.9196
  530MOL0     H73117   8.272  11.646   1.739  1.8416  2.6237 -1.9852
  530MOL0     H73118   8.188  11.889   1.670 -1.0979 -1.0055  2.0328
  530MOL0     H73119   8.102  11.815   1.541 -1.6935  0.4920  2.1132
  530MOL0     H73120   8.071  11.349   2.517  2.2834  1.7793 -0.9672
  530MOL0     H73121   8.239  11.255   2.620  1.2595 -2.8093  1.1357
  530MOL0     H73122   8.611  11.062   2.685  0.4308  0.7846 -0.5195
  530MOL0     H73123   8.811  11.012   2.783 -2.2363  2.7299  3.4570
  530MOL0     H73124   9.227  10.815   3.077 -3.0772  1.0101 -2.6685
  530MOL0     H73125   9.006  10.698   3.045 -1.8996  0.2418  1.3327
  530MOL0     H73126   8.721  10.369   3.439 -0.4670 -0.2374 -0.1623
  530MOL0     H73127   8.493  10.305   3.490 -0.4648  0.2211 -0.1583
  530MOL0     H73128   8.164  10.416   3.225 -1.9881 -0.8151 -0.2604
  530MOL0     H73129   8.091  10.294   3.324  0.2471 -0.0068 -4.4567
  530MOL0     H73130   7.979  10.519   3.354  0.4398 -1.3051  0.0930
  530MOL0     H73131   8.113  10.587   3.436 -0.7567  0.1883  1.8876
  530MOL0     H73132   7.968  10.347   3.544 -2.9634  1.5563 -1.4493
  530MOL0     H73133   8.118  10.425   3.599  0.8160  0.6992 -1.1799
  530MOL0     H73134   7.963  10.631   3.648  0.7721  0.7986  1.7588
  530MOL0     H73135   7.908  10.477   3.722 -3.4338 -1.2456 -1.2888
  530MOL0     H73136   7.608  10.525   3.431 -0.5691  1.6386 -0.8991
  530MOL0     H73137   8.332  10.562   3.186  1.7306 -2.9257 -3.8207
  530MOL0     H73138   8.591  10.637   3.024  1.7968  0.1865  0.4321
  530MOL0     H73139   8.441  10.711   3.096  0.5856  1.2315  1.3491
  530MOL0     H73140   8.588  10.766   3.151  1.0753 -1.3332  0.1396
  531MOL0     O73141   7.817   3.451  11.217  0.0930 -0.1364 -0.5661
  531MOL0     C73142   7.919   3.396  11.263 -0.7663  0.0161  0.0729
  531MOL0     O73143   7.927   3.254  11.286 -0.4624 -0.1584  0.1209
  531MOL0     C73144   7.831   3.178  11.225 -0.2933  0.6556 -0.4928
  531MOL0     C73145   7.883   3.070  11.151 -0.2076  0.0440 -0.2660
  531MOL0     C73146   7.802   2.989  11.072 -1.2284  0.2559  0.2216
  531MOL0     C73147   7.669   2.990  11.069 -0.2381  0.4104  0.0210
  531MOL0     O73148   7.598   2.897  11.002  0.3501  0.0298  0.3998
  531MOL0     C73149   7.457   2.918  10.986  0.3199 -0.2000  0.3158
  531MOL0     C73150   7.422   2.818  10.873  0.3526 -1.3930 -0.3394
  531MOL0     C73151   7.274   2.810  10.845  0.2445  0.0481  0.2107
  531MOL0     C73152   7.262   2.746  10.707 -0.1609 -0.1219 -0.0113
  531MOL0     C73153   7.121   2.696  10.669  0.3801 -0.8659 -0.3339
  531MOL0     C73154   7.108   2.674  10.513 -0.3448  0.1459  0.4762
  531MOL0     C73155   6.978   2.602  10.470 -0.3451 -1.1891 -0.7070
  531MOL0     C73156   6.846   2.687  10.494 -0.3276  0.1680 -0.4038
  531MOL0     N73157   6.720   2.624  10.458  0.6913 -0.4546 -0.0841
  531MOL0     C73158   6.635   2.648  10.345  0.6968 -0.3007 -0.3358
  531MOL0     C73159   6.536   2.549  10.355 -0.4159  0.2721  0.0349
  531MOL0     C73160   6.417   2.537  10.259  0.5031  0.4355  0.7208
  531MOL0     C73161   6.377   2.392  10.221 -0.2887  0.3130  0.1322
  531MOL0     C73162   6.253   2.372  10.119  0.3909 -0.8099  0.4919
  531MOL0     C73163   6.127   2.462  10.136  0.1066  0.3514 -1.3449
  531MOL0     O73164   6.053   2.421  10.254  0.3679  0.4069  0.8827
  531MOL0     C73165   5.937   2.485  10.290 -1.2789 -0.0895  0.5669
  531MOL0     C73166   5.886   2.461  10.412 -0.6546  0.1740 -0.8813
  531MOL0     C73167   5.772   2.514  10.463 -0.5059 -0.5462  0.1288
  531MOL0     C73168   5.750   2.483  10.605  0.5263  0.5802  0.6307
  531MOL0     C73169   5.705   2.615  10.390 -0.3857 -0.5304  0.3762
  531MOL0     C73170   5.584   2.685  10.441  0.2207  0.6765 -0.5572
  531MOL0     O73171   5.516   2.639  10.553  0.2909 -0.1404  0.3913
  531MOL0     C73172   5.422   2.723  10.608 -0.0112  0.6445 -0.8240
  531MOL0     C73173   5.452   2.856  10.646  0.3146  1.0531  0.3863
  531MOL0     C73174   5.350   2.941  10.688 -1.2512 -0.0412 -0.2592
  531MOL0     C73175   5.224   2.894  10.708  0.2511  0.1712  0.3106
  531MOL0     O73176   5.148   2.979  10.783 -0.1816 -0.6290  0.5998
  531MOL0     C73177   5.034   3.032  10.720  0.3685 -0.2348  1.2939
  531MOL0     C73178   4.986   3.144  10.801  0.2917 -0.6293 -0.4513
  531MOL0     C73179   4.947   3.105  10.946 -0.2294 -0.3784  0.0611
  531MOL0     C73180   4.924   3.233  11.027  0.7137  1.0439  0.5594
  531MOL0     C73181   4.821   3.322  10.983 -1.0854  0.3421  0.8761
  531MOL0     C73182   4.680   3.258  11.001  0.2308  0.3587 -0.0977
  531MOL0     C73183   4.568   3.362  11.015 -0.3179 -0.0847 -0.3110
  531MOL0     C73184   4.582   3.430  11.153  0.2012 -0.2077 -1.0535
  531MOL0    Cl73185   4.463   3.573  11.152  0.1837 -0.6234  0.3050
  531MOL0     C73186   5.196   2.764  10.677  0.2371  0.1964 -0.1092
  531MOL0     C73187   5.294   2.676  10.617  0.3165  0.1110 -0.0435
  531MOL0     O73188   5.552   2.776  10.375  0.2541 -0.1295  0.7081
  531MOL0     C73189   5.754   2.648  10.264 -0.0559 -0.5307 -0.1726
  531MOL0     C73190   5.862   2.583  10.212 -0.2728  1.1663  0.3432
  531MOL0     N73191   6.560   2.468  10.471 -0.1527 -0.5693 -0.4929
  531MOL0     N73192   6.675   2.508  10.514  0.1595 -0.8050  0.1930
  531MOL0     C73193   7.614   3.107  11.151  0.4089 -0.5780  0.4036
  531MOL0     C73194   7.691   3.185  11.238  0.2968  0.3750 -0.1401
  531MOL0     C73195   8.026   3.489  11.316 -0.8534 -0.3591  0.5818
  531MOL0     C73196   8.103   3.429  11.414  0.1050 -0.2140 -0.0416
  531MOL0     C73197   8.210   3.502  11.474 -0.4004 -0.3231  0.6475
  531MOL0     C73198   8.245   3.630  11.439  0.1877 -0.7583  0.0587
  531MOL0     O73199   8.355   3.698  11.493 -0.0574  0.6048  0.4769
  531MOL0     C73200   8.448   3.635  11.589 -0.9288 -0.4265  0.5315
  531MOL0     C73201   8.550   3.741  11.633 -0.3754  0.1491  0.3912
  531MOL0     C73202   8.618   3.792  11.503  0.0921  0.7683 -0.2644
  531MOL0     C73203   8.728   3.899  11.536 -0.3029  0.4964  0.3662
  531MOL0     C73204   8.665   4.022  11.585 -0.6776 -0.4736 -0.4259
  531MOL0     C73205   8.607   4.122  11.628 -0.0330  0.2763  0.0052
  531MOL0     C73206   8.161   3.687  11.337 -0.8550  0.6310 -0.2542
  531MOL0     C73207   8.060   3.622  11.276  0.6656 -0.2351 -0.3606
  531MOL0     C73208   7.980   3.684  11.170  0.2034  0.4133  0.3645
  531MOL0     H73209   7.988   3.043  11.151  0.0041  0.7448 -2.3564
  531MOL0     H73210   7.838   2.911  11.005 -3.0781 -1.5355  1.1767
  531MOL0     H73211   7.449   3.018  10.943  0.7972  0.6853  2.1780
  531MOL0     H73212   7.389   2.905  11.071 -0.8737  0.0958 -0.5731
  531MOL0     H73213   7.483   2.842  10.786  1.4991  6.2735  1.8588
  531MOL0     H73214   7.433   2.716  10.913 -1.3993 -1.5158 -0.0741
  531MOL0     H73215   7.232   2.742  10.919  1.0863 -0.6346  0.0775
  531MOL0     H73216   7.224   2.907  10.856 -0.7423 -0.4123 -0.1113
  531MOL0     H73217   7.299   2.822  10.638  1.2527 -0.5502  0.2575
  531MOL0     H73218   7.317   2.654  10.686  0.1848  0.9054 -4.5386
  531MOL0     H73219   7.051   2.767  10.712  2.0226 -0.6701  2.1922
  531MOL0     H73220   7.111   2.602  10.725  6.2000 -0.8605  1.3653
  531MOL0     H73221   7.124   2.775  10.474 -0.9049  0.0700  0.0246
  531MOL0     H73222   7.195   2.622  10.472 -0.0864  0.0510  1.1281
  531MOL0     H73223   6.973   2.504  10.519 -4.3684 -0.6210  0.4342
  531MOL0     H73224   6.976   2.578  10.363 -3.3457  3.2305 -1.9335
  531MOL0     H73225   6.835   2.717  10.598 -3.6090  1.1969 -0.9193
  531MOL0     H73226   6.855   2.779  10.436  0.5091  1.8111  2.1732
  531MOL0     H73227   6.642   2.720  10.264  0.9537 -2.2020 -2.1000
  531MOL0     H73228   6.447   2.598  10.173 -1.0988  1.4502  0.8358
  531MOL0     H73229   6.329   2.588  10.302 -0.3903 -0.5892  0.1464
  531MOL0     H73230   6.464   2.343  10.176 -0.5106  0.2640 -0.2463
  531MOL0     H73231   6.363   2.340  10.316  2.2793  1.1214  1.0347
  531MOL0     H73232   6.293   2.387  10.018  1.2302 -1.9785  0.6432
  531MOL0     H73233   6.228   2.266  10.125 -2.4096 -0.2041  0.8737
  531MOL0     H73234   6.165   2.563  10.152  0.7815 -0.1920  0.8474
  531MOL0     H73235   6.064   2.453  10.046 -1.8641 -0.0513  0.0139
  531MOL0     H73236   5.950   2.405  10.479 -1.8597 -0.1517  0.0188
  531MOL0     H73237   5.655   2.432  10.623  2.0157 -2.8007 -0.1852
  531MOL0     H73238   5.748   2.580  10.655  1.2987  1.7448 -1.4937
  531MOL0     H73239   5.831   2.420  10.645 -0.0332 -0.4942  0.1229
  531MOL0     H73240   5.550   2.900  10.640  0.4936  0.6226  0.0940
  531MOL0     H73241   5.376   3.043  10.714 -2.0248 -0.0278  0.5144
  531MOL0     H73242   5.060   3.070  10.621  2.4185 -0.1624  1.8078
  531MOL0     H73243   4.957   2.954  10.720  0.5658 -0.5087  3.9424
  531MOL0     H73244   5.056   3.228  10.803 -1.3731  0.8404  2.6653
  531MOL0     H73245   4.902   3.186  10.745  1.2339 -0.1754 -1.5800
  531MOL0     H73246   5.025   3.042  10.989 -0.4778 -0.3548  0.5565
  531MOL0     H73247   4.857   3.043  10.954  0.9667 -2.6009 -2.1328
  531MOL0     H73248   5.016   3.292  11.013  0.3922  1.0442 -2.1550
  531MOL0     H73249   4.911   3.198  11.130  0.7608 -1.9834 -0.3634
  531MOL0     H73250   4.830   3.410  11.048  4.0975  0.3445  0.5558
  531MOL0     H73251   4.826   3.349  10.877  1.7209  0.5730  0.9950
  531MOL0     H73252   4.681   3.187  11.084 -1.4647 -0.3333 -0.6237
  531MOL0     H73253   4.662   3.203  10.909 -0.6467 -1.8111  1.3007
  531MOL0     H73254   4.472   3.310  11.004  0.8958 -1.9654 -3.0450
  531MOL0     H73255   4.579   3.430  10.930 -0.4810  0.9320  0.4603
  531MOL0     H73256   4.678   3.479  11.177 -0.9774  2.3019 -1.0933
  531MOL0     H73257   4.561   3.360  11.235  1.0692  0.3636 -0.3096
  531MOL0     H73258   5.092   2.734  10.687 -0.1609  1.4954 -0.2328
  531MOL0     H73259   5.265   2.580  10.578 -0.9570  0.1188  0.8338
  531MOL0     H73260   5.715   2.725  10.199  2.8190  0.4624 -0.8693
  531MOL0     H73261   5.890   2.596  10.108 -3.3002  3.3826 -0.3244
  531MOL0     H73262   7.506   3.118  11.148  0.5600  1.6572  1.3202
  531MOL0     H73263   7.641   3.252  11.308  0.7047 -0.5055  1.0265
  531MOL0     H73264   8.074   3.335  11.460 -5.8085  0.1825 -2.0247
  531MOL0     H73265   8.275   3.452  11.545  1.9831  0.9683 -0.4990
  531MOL0     H73266   8.397   3.599  11.679 -0.0543 -0.7819  0.8972
  531MOL0     H73267   8.488   3.552  11.530 -2.7983 -1.7531  1.0228
  531MOL0     H73268   8.613   3.691  11.707  0.4128 -0.4349 -0.6478
  531MOL0     H73269   8.492   3.823  11.676  1.6437  1.1540  1.3417
  531MOL0     H73270   8.656   3.700  11.458  0.6986  1.4477 -1.1825
  531MOL0     H73271   8.538   3.833  11.441  0.0806 -0.0688 -0.8199
  531MOL0     H73272   8.789   3.922  11.447  1.2490  0.1905  1.3102
  531MOL0     H73273   8.789   3.866  11.620  0.9372  1.6659 -0.0305
  531MOL0     H73274   8.571   4.215  11.666  0.4119  0.2957  0.3880
  531MOL0     H73275   8.175   3.791  11.309  1.5251  0.1783 -0.9507
  531MOL0     H73276   7.876   3.698  11.201 -0.8055 -0.0363 -2.4891
  531MOL0     H73277   8.000   3.786  11.137  0.2824 -0.1385 -1.3714
  531MOL0     H73278   7.994   3.626  11.078 -1.3871  0.4649  0.0555
  532MOL0     O73279   4.360   2.249   2.948 -1.3477 -0.6379 -0.2648
  532MOL0     C73280   4.318   2.201   3.049  0.2368 -0.8130  0.1729
  532MOL0     O73281   4.387   2.155   3.154  0.1269 -0.7503 -0.1362
  532MOL0     C73282   4.518   2.121   3.159 -0.1878 -0.1700  0.0582
  532MOL0     C73283   4.556   2.031   3.256  0.1458 -0.3315 -0.3866
  532MOL0     C73284   4.680   1.965   3.258  0.0487 -0.6512 -1.3954
  532MOL0     C73285   4.775   1.990   3.151 -0.2952 -0.1394  0.7456
  532MOL0     O73286   4.897   1.920   3.139  0.3693  0.0446  0.1987
  532MOL0     C73287   5.014   1.988   3.098 -0.5769 -0.2006  0.0301
  532MOL0     C73288   5.131   1.878   3.098  0.8173  0.0455  0.3665
  532MOL0     C73289   5.149   1.806   3.232 -0.4964  0.3204  0.1827
  532MOL0     C73290   5.152   1.913   3.350 -0.1725 -1.1229  0.0852
  532MOL0     C73291   5.207   1.845   3.475 -0.1100 -0.4105  0.3757
  532MOL0     C73292   5.355   1.818   3.466 -0.5344  0.6988  0.0673
  532MOL0     C73293   5.404   1.673   3.505  0.5421 -0.2046 -0.4916
  532MOL0     C73294   5.412   1.660   3.652  0.4804  0.0032 -0.2181
  532MOL0     N73295   5.462   1.517   3.687 -0.6791 -0.4960 -0.2828
  532MOL0     C73296   5.587   1.467   3.689 -0.3296 -0.2067  0.5356
  532MOL0     C73297   5.592   1.367   3.773  0.0014  0.3043  0.1440
  532MOL0     C73298   5.708   1.290   3.819 -0.2079  0.5729 -0.8732
  532MOL0     C73299   5.818   1.379   3.879 -1.1919 -0.2303 -0.2825
  532MOL0     C73300   5.925   1.295   3.954 -0.8868  0.0882  0.4707
  532MOL0     C73301   6.068   1.354   3.964 -0.8604 -0.5471 -0.4289
  532MOL0     O73302   6.116   1.383   3.828 -0.5667 -0.0289 -0.7276
  532MOL0     C73303   6.226   1.313   3.796 -0.8507 -0.0788  0.2543
  532MOL0     C73304   6.322   1.390   3.710 -0.3853  0.1766  0.6275
  532MOL0     C73305   6.441   1.337   3.677  0.5773 -0.2835 -0.1397
  532MOL0     C73306   6.530   1.422   3.588 -0.6021  0.2033 -0.4259
  532MOL0     C73307   6.478   1.209   3.714 -0.0505 -0.2115  0.0368
  532MOL0     C73308   6.607   1.143   3.697 -0.4020  0.2068  0.8502
  532MOL0     O73309   6.716   1.223   3.719 -0.6728  0.5785  0.4864
  532MOL0     C73310   6.835   1.187   3.668  0.0569  0.3455 -0.0927
  532MOL0     C73311   6.855   1.149   3.533  0.8291 -0.0701  0.2055
  532MOL0     C73312   6.976   1.089   3.493 -0.3037  0.5521 -0.3803
  532MOL0     C73313   7.092   1.092   3.577 -0.1651 -0.4235 -0.5987
  532MOL0     O73314   7.215   1.033   3.534 -0.2437  0.0791 -0.5963
  532MOL0     C73315   7.347   1.105   3.550 -0.2494  0.4773  1.3520
  532MOL0     C73316   7.369   1.212   3.443 -0.3488 -0.2107 -0.3117
  532MOL0     C73317   7.516   1.253   3.457  0.4765  0.1589 -0.5896
  532MOL0     C73318   7.553   1.377   3.373  0.2732  0.5244  0.4772
  532MOL0     C73319   7.702   1.396   3.374  0.1717 -0.1636  0.6539
  532MOL0     C73320   7.759   1.449   3.518  1.0516  0.3152 -0.3618
  532MOL0     C73321   7.709   1.592   3.562  0.4333 -0.3543  0.2311
  532MOL0     C73322   7.751   1.623   3.699 -0.1785  0.0756  0.0706
  532MOL0    Cl73323   7.658   1.528   3.816  0.0463  0.1037  0.1159
  532MOL0     C73324   7.078   1.147   3.704 -0.8073  0.1326 -1.4603
  532MOL0     C73325   6.948   1.185   3.748 -0.5708 -0.7000 -0.5252
  532MOL0     O73326   6.613   1.022   3.652  0.6788  0.3369 -0.5665
  532MOL0     C73327   6.380   1.128   3.774 -0.0958 -0.3587 -0.6254
  532MOL0     C73328   6.263   1.184   3.825 -0.0335 -0.1362 -0.3189
  532MOL0     N73329   5.463   1.339   3.812  0.7710 -0.8459  1.0825
  532MOL0     N73330   5.383   1.432   3.751 -0.1940 -0.4325  0.0909
  532MOL0     C73331   4.737   2.079   3.049 -0.2858  0.5380 -0.0470
  532MOL0     C73332   4.612   2.135   3.057 -0.6942  0.3153  0.6499
  532MOL0     C73333   4.169   2.195   3.062  0.2060  0.6650 -0.4957
  532MOL0     C73334   4.086   2.218   2.949  1.0723 -0.5122  0.0766
  532MOL0     C73335   3.941   2.205   2.950 -1.3268  0.3420 -0.8466
  532MOL0     C73336   3.880   2.175   3.076 -0.6517 -0.5860  0.1014
  532MOL0     O73337   3.743   2.179   3.070  0.0591 -0.3116  0.1838
  532MOL0     C73338   3.678   2.139   3.186  0.5124 -1.1249 -0.1454
  532MOL0     C73339   3.527   2.142   3.172 -0.2311 -0.9376  0.0896
  532MOL0     C73340   3.483   2.283   3.116  0.5457 -0.0365 -0.2226
  532MOL0     C73341   3.340   2.317   3.153  0.9114  0.3556 -0.2623
  532MOL0     C73342   3.244   2.215   3.112  1.1290 -0.9959  0.0959
  532MOL0     C73343   3.154   2.133   3.101  0.6177 -0.5699  0.7714
  532MOL0     C73344   3.966   2.167   3.190 -0.1822 -0.4596 -0.1511
  532MOL0     C73345   4.107   2.172   3.189  0.8412 -0.1849 -0.5590
  532MOL0     C73346   4.167   2.124   3.325  0.2437 -0.5594  0.5964
  532MOL0     H73347   4.476   2.004   3.324  0.1994  0.5299  0.0276
  532MOL0     H73348   4.708   1.900   3.339 -1.2468 -0.6663 -0.9398
  532MOL0     H73349   5.039   2.077   3.155  3.9603 -1.1993 -0.0425
  532MOL0     H73350   5.007   2.025   2.995  0.1435  2.2880  0.8219
  532MOL0     H73351   5.095   1.800   3.029 -5.2216  0.5733  2.2819
  532MOL0     H73352   5.222   1.924   3.059 -0.9772  0.8559 -3.3353
  532MOL0     H73353   5.067   1.734   3.245  0.9270 -1.6451 -1.1005
  532MOL0     H73354   5.236   1.740   3.227 -0.2620  0.7161 -1.5479
  532MOL0     H73355   5.205   2.001   3.313 -4.1338  1.5303  0.1478
  532MOL0     H73356   5.053   1.953   3.374  0.9317  0.9763  1.4885
  532MOL0     H73357   5.153   1.750   3.489 -0.1041 -0.5667 -0.5897
  532MOL0     H73358   5.187   1.903   3.566 -0.3391 -1.0916  0.7762
  532MOL0     H73359   5.385   1.818   3.361  2.6232  0.0126  0.8675
  532MOL0     H73360   5.403   1.900   3.520 -0.2136  0.5759 -0.0301
  532MOL0     H73361   5.503   1.663   3.461  3.3478  3.0172  4.1851
  532MOL0     H73362   5.336   1.597   3.467 -2.1944  1.2178  1.2030
  532MOL0     H73363   5.472   1.740   3.696 -1.8961  3.0361 -2.0896
  532MOL0     H73364   5.313   1.673   3.695  1.2007  1.9332  0.9710
  532MOL0     H73365   5.673   1.525   3.656  2.0825 -1.9939  3.1799
  532MOL0     H73366   5.756   1.230   3.742  0.8694  2.4371 -1.7269
  532MOL0     H73367   5.670   1.230   3.902 -0.4105  2.2060  0.2627
  532MOL0     H73368   5.869   1.448   3.811 -0.5140 -2.4322 -2.1627
  532MOL0     H73369   5.766   1.433   3.959 -2.0296 -0.6224 -0.5441
  532MOL0     H73370   5.889   1.279   4.056 -0.0349  0.2343  0.7966
  532MOL0     H73371   5.946   1.205   3.895  1.8006  1.1112 -0.2498
  532MOL0     H73372   6.049   1.449   4.014 -4.5707 -0.4099 -1.8341
  532MOL0     H73373   6.131   1.292   4.029 -1.0544  1.6752  2.0627
  532MOL0     H73374   6.297   1.494   3.691 -3.0405 -0.2977  1.1324
  532MOL0     H73375   6.557   1.366   3.498 -2.7796 -1.7840  0.0758
  532MOL0     H73376   6.620   1.450   3.644 -0.6955  0.7225 -0.5252
  532MOL0     H73377   6.480   1.516   3.563 -3.2538 -0.3910  2.2291
  532MOL0     H73378   6.769   1.165   3.468  1.9137  1.2883 -0.9655
  532MOL0     H73379   6.993   1.053   3.392  3.0748 -1.2318  0.6447
  532MOL0     H73380   7.363   1.136   3.654 -0.8996 -0.5315  1.7676
  532MOL0     H73381   7.430   1.036   3.530  1.1863  2.7154 -1.1622
  532MOL0     H73382   7.349   1.189   3.337  0.4455  0.0661 -0.5277
  532MOL0     H73383   7.310   1.301   3.468 -0.5263 -0.5152  0.3578
  532MOL0     H73384   7.582   1.173   3.422  2.9602  1.5191  0.6810
  532MOL0     H73385   7.539   1.273   3.563 -1.1935 -2.5988  0.4031
  532MOL0     H73386   7.497   1.453   3.427  2.1410  2.2563  0.0841
  532MOL0     H73387   7.523   1.362   3.269  0.2049 -0.6522  0.6438
  532MOL0     H73388   7.752   1.306   3.339  0.5284  0.9638 -2.0072
  532MOL0     H73389   7.726   1.464   3.291 -0.4563 -1.5781 -0.7353
  532MOL0     H73390   7.868   1.447   3.523  1.0368  1.4068  0.5134
  532MOL0     H73391   7.739   1.368   3.589  0.7159  0.2873 -0.4873
  532MOL0     H73392   7.600   1.587   3.556  0.4430 -2.3819  0.9351
  532MOL0     H73393   7.753   1.674   3.506 -0.3541 -0.0124  0.0975
  532MOL0     H73394   7.731   1.727   3.725  0.0840  0.3148 -0.6744
  532MOL0     H73395   7.855   1.594   3.717 -0.3545 -1.8126 -1.6513
  532MOL0     H73396   7.155   1.143   3.780 -1.3238 -0.3559 -0.9529
  532MOL0     H73397   6.940   1.224   3.849  2.0936 -1.2506 -0.0327
  532MOL0     H73398   6.400   1.025   3.801  0.7366  0.2916  1.4745
  532MOL0     H73399   6.194   1.129   3.888 -0.9121 -0.0830 -1.2067
  532MOL0     H73400   4.789   2.102   2.957  1.0986 -0.7474  0.3607
  532MOL0     H73401   4.573   2.191   2.972  2.2246  0.6201 -0.5860
  532MOL0     H73402   4.134   2.246   2.855  0.3773  2.7805  0.5703
  532MOL0     H73403   3.883   2.217   2.859  0.1445 -1.2537 -2.0702
  532MOL0     H73404   3.711   2.036   3.208  0.8629 -0.6742  1.6162
  532MOL0     H73405   3.699   2.200   3.274 -0.0779 -1.0994 -0.0197
  532MOL0     H73406   3.476   2.130   3.269 -0.2856  1.9173  0.5135
  532MOL0     H73407   3.504   2.061   3.103 -0.1762 -1.7355  0.9823
  532MOL0     H73408   3.556   2.355   3.156  3.3308 -4.2977  3.2967
  532MOL0     H73409   3.489   2.283   3.007 -2.6267  0.3142 -0.4839
  532MOL0     H73410   3.311   2.403   3.092  0.3506 -0.3807 -1.0557
  532MOL0     H73411   3.338   2.327   3.262 -2.6078 -1.6056 -0.0202
  532MOL0     H73412   3.071   2.065   3.099 -2.5687  2.9426 -1.8365
  532MOL0     H73413   3.912   2.140   3.280  1.3812 -0.0120  0.9650
  532MOL0     H73414   4.210   2.024   3.313  0.5842 -0.6542  2.4188
  532MOL0     H73415   4.256   2.186   3.336  0.3694 -0.3771 -1.1806
  532MOL0     H73416   4.098   2.136   3.409 -1.5253 -1.8413 -0.5620
  533MOL0     O73417   7.252   9.651   0.574 -0.1813 -0.5336 -0.0321
  533MOL0     C73418   7.287   9.560   0.508  0.3910  0.4182  0.0792
  533MOL0     O73419   7.206   9.449   0.485  0.6237 -0.3254  0.5054
  533MOL0     C73420   7.071   9.457   0.524  0.3420  0.7022  0.1327
  533MOL0     C73421   6.970   9.457   0.421 -0.4758  0.9912 -0.6454
  533MOL0     C73422   6.832   9.439   0.457  0.1944  0.1807 -0.6156
  533MOL0     C73423   6.793   9.425   0.586  0.2796  0.1742 -1.1094
  533MOL0     O73424   6.654   9.398   0.605  0.3969  0.0714 -0.1182
  533MOL0     C73425   6.607   9.384   0.738  0.7370 -0.4006  0.7251
  533MOL0     C73426   6.460   9.351   0.739  0.0735  0.6456  0.2710
  533MOL0     C73427   6.403   9.377   0.876 -0.0327 -0.0142 -0.3294
  533MOL0     C73428   6.252   9.387   0.856 -0.2010  0.7028  0.3688
  533MOL0     C73429   6.173   9.385   0.991  0.0209 -0.7113 -0.3140
  533MOL0     C73430   6.021   9.385   0.955 -0.4417  0.4438  0.3979
  533MOL0     C73431   5.940   9.362   1.078 -0.2509 -0.4040  0.2191
  533MOL0     C73432   5.792   9.322   1.050 -1.0697  0.3173 -1.2941
  533MOL0     N73433   5.705   9.441   1.022  0.7207 -0.0575 -0.1783
  533MOL0     C73434   5.720   9.521   0.914 -0.1874  0.3502 -0.3152
  533MOL0     C73435   5.632   9.620   0.942  0.3267 -0.1217  0.7025
  533MOL0     C73436   5.607   9.733   0.847 -0.0754  0.5569  0.5905
  533MOL0     C73437   5.704   9.859   0.884 -0.5923 -0.4491 -1.0212
  533MOL0     C73438   5.647   9.935   1.013 -0.2723 -1.0642 -0.2436
  533MOL0     C73439   5.571  10.052   0.962  0.3029  0.5647  1.0332
  533MOL0     O73440   5.642  10.174   0.940 -0.0405  1.2211 -0.2386
  533MOL0     C73441   5.647  10.262   1.042  0.7436 -0.2126  0.7208
  533MOL0     C73442   5.724  10.382   1.015 -0.4840  0.8613  0.2362
  533MOL0     C73443   5.743  10.480   1.118  0.2828 -0.0062  0.4555
  533MOL0     C73444   5.832  10.601   1.092  0.3707  0.0985  1.0733
  533MOL0     C73445   5.687  10.456   1.243 -0.0936 -0.5756 -0.0390
  533MOL0     C73446   5.698  10.538   1.365  0.6348 -0.1102 -0.5170
  533MOL0     O73447   5.614  10.499   1.465  0.6351  0.4447 -0.3137
  533MOL0     C73448   5.620  10.560   1.585  0.2411 -0.6205  0.4814
  533MOL0     C73449   5.502  10.616   1.630  0.9144 -0.0554  0.6743
  533MOL0     C73450   5.485  10.691   1.755 -0.5823  0.2940 -0.4652
  533MOL0     C73451   5.608  10.721   1.829  0.2606  0.5238  0.2980
  533MOL0     O73452   5.621  10.783   1.950 -0.1477  0.4059  1.1848
  533MOL0     C73453   5.509  10.796   2.034 -1.0891  0.1496 -0.3454
  533MOL0     C73454   5.536  10.895   2.142  0.0822 -0.5738 -0.1244
  533MOL0     C73455   5.647  10.845   2.240  0.4516 -0.1543  0.0963
  533MOL0     C73456   5.584  10.803   2.375  0.2553 -0.6272  0.9272
  533MOL0     C73457   5.683  10.740   2.484  0.1709  0.1235 -0.6685
  533MOL0     C73458   5.788  10.849   2.519 -0.2230 -0.8450 -0.2262
  533MOL0     C73459   5.907  10.795   2.589  0.4271  0.4795  0.2787
  533MOL0     C73460   5.964  10.893   2.690  0.5554 -0.8770 -0.0488
  533MOL0    Cl73461   6.084  10.794   2.761 -0.5408  0.3272 -0.2967
  533MOL0     C73462   5.727  10.686   1.776 -0.0824 -0.1809  0.6045
  533MOL0     C73463   5.734  10.594   1.663 -0.4271 -0.2309 -0.1932
  533MOL0     O73464   5.777  10.635   1.364  0.4722  0.0404 -0.4879
  533MOL0     C73465   5.626  10.335   1.267  0.5422  0.1910 -0.3312
  533MOL0     C73466   5.596  10.248   1.165  0.0042 -0.1314 -0.4812
  533MOL0     N73467   5.564   9.594   1.059 -0.4581 -0.4211 -1.0570
  533MOL0     N73468   5.620   9.496   1.116 -0.1529 -1.0416 -0.1291
  533MOL0     C73469   6.892   9.418   0.695  0.4024 -0.5314 -0.3665
  533MOL0     C73470   7.024   9.438   0.656  1.0016 -0.2773 -0.0819
  533MOL0     C73471   7.412   9.571   0.436 -0.3881  0.8100  0.2068
  533MOL0     C73472   7.417   9.527   0.301  0.4772  0.1074 -0.3352
  533MOL0     C73473   7.534   9.533   0.235  1.3591 -0.5830  1.4017
  533MOL0     C73474   7.657   9.578   0.294  0.6139  0.5135  0.0695
  533MOL0     O73475   7.776   9.566   0.224 -0.6018  0.0148 -0.1645
  533MOL0     C73476   7.873   9.477   0.287  0.2660  0.0027 -0.4342
  533MOL0     C73477   8.019   9.511   0.250  1.1874 -0.2564  0.2975
  533MOL0     C73478   8.121   9.437   0.325 -0.8724  0.3128  0.0179
  533MOL0     C73479   8.268   9.477   0.268  0.4626  0.0870 -0.5063
  533MOL0     C73480   8.310   9.614   0.289 -0.6345  0.7619  0.3445
  533MOL0     C73481   8.347   9.730   0.292  0.1325  0.0065  1.0476
  533MOL0     C73482   7.655   9.616   0.428 -0.1155  0.8338 -1.7117
  533MOL0     C73483   7.530   9.618   0.500 -0.3929 -0.1067 -0.0078
  533MOL0     C73484   7.539   9.686   0.629  0.0593 -0.8543  0.1644
  533MOL0     H73485   7.004   9.471   0.319 -1.2222 -0.4894 -1.1286
  533MOL0     H73486   6.762   9.439   0.374 -2.5987 -1.2227  1.5524
  533MOL0     H73487   6.620   9.478   0.793  1.8907  1.0329 -1.8418
  533MOL0     H73488   6.655   9.300   0.788  2.1337 -0.6273 -0.9007
  533MOL0     H73489   6.401   9.405   0.665  1.1338  2.1844  0.5025
  533MOL0     H73490   6.442   9.245   0.719  0.7926  1.0619 -3.2643
  533MOL0     H73491   6.436   9.294   0.939 -0.4624  2.1904  3.0717
  533MOL0     H73492   6.436   9.474   0.915  0.6933  0.1249 -1.2543
  533MOL0     H73493   6.216   9.477   0.805 -1.1909 -0.0595 -0.3116
  533MOL0     H73494   6.221   9.292   0.812  2.3105 -0.9463  1.8755
  533MOL0     H73495   6.203   9.462   1.063  1.2887 -0.2882 -1.2563
  533MOL0     H73496   6.192   9.290   1.041  0.1120 -1.8134 -2.3480
  533MOL0     H73497   5.999   9.476   0.898 -0.0732  0.3909  0.1698
  533MOL0     H73498   6.000   9.307   0.880  0.3967  0.4273  0.1722
  533MOL0     H73499   5.945   9.451   1.141  0.5267 -1.5698  1.8736
  533MOL0     H73500   5.992   9.278   1.125  0.3964 -1.0827 -1.5946
  533MOL0     H73501   5.788   9.239   0.979 -0.2961 -0.5567 -0.3556
  533MOL0     H73502   5.750   9.282   1.143 -3.8109  1.5569 -1.9030
  533MOL0     H73503   5.783   9.505   0.827 -3.3441 -2.4866 -2.3596
  533MOL0     H73504   5.502   9.760   0.847 -0.3625 -0.4616 -0.4293
  533MOL0     H73505   5.630   9.700   0.745  2.2161  0.6369  1.0144
  533MOL0     H73506   5.806   9.829   0.910 -0.3622  0.8280 -0.3621
  533MOL0     H73507   5.725   9.918   0.795  2.5451  2.1830  1.2229
  533MOL0     H73508   5.575   9.868   1.062 -0.9956 -0.7217 -0.8079
  533MOL0     H73509   5.732   9.961   1.075  0.7013 -1.7000 -1.2757
  533MOL0     H73510   5.512  10.029   0.872 -0.8993  5.3565  0.3003
  533MOL0     H73511   5.490  10.059   1.035  0.9961  0.5840  1.8109
  533MOL0     H73512   5.777  10.398   0.921 -0.8892  1.7508  0.1516
  533MOL0     H73513   5.932  10.595   1.136  1.8366 -0.9568 -2.0576
  533MOL0     H73514   5.775  10.690   1.118  1.2337  1.4066 -1.2622
  533MOL0     H73515   5.851  10.610   0.984 -2.2567 -1.6464  0.3704
  533MOL0     H73516   5.418  10.606   1.561  0.8768 -0.8129  0.8238
  533MOL0     H73517   5.385  10.710   1.792  0.4655 -0.2194  2.9803
  533MOL0     H73518   5.429  10.837   1.972 -0.3201 -0.6342 -1.9193
  533MOL0     H73519   5.495  10.696   2.076  0.2355  0.4050  0.8032
  533MOL0     H73520   5.562  10.995   2.104 -5.8225  1.8241  1.0211
  533MOL0     H73521   5.445  10.899   2.203  1.3933 -2.5583  2.1323
  533MOL0     H73522   5.721  10.922   2.262 -1.7967  2.0157  0.6232
  533MOL0     H73523   5.697  10.763   2.188  1.3843 -1.5070  2.9600
  533MOL0     H73524   5.513  10.723   2.354 -1.5809  0.8390  1.2970
  533MOL0     H73525   5.535  10.893   2.412 -2.2196 -1.7699  0.6014
  533MOL0     H73526   5.630  10.699   2.571 -0.3474 -0.9897 -1.4762
  533MOL0     H73527   5.739  10.658   2.438  1.0546  1.1378 -1.4398
  533MOL0     H73528   5.751  10.932   2.579  2.5383  1.3999 -1.3849
  533MOL0     H73529   5.826  10.893   2.426 -0.9274 -1.6242 -0.9013
  533MOL0     H73530   5.988  10.786   2.515 -1.4993 -1.2523 -1.7592
  533MOL0     H73531   5.888  10.697   2.633 -2.4106  0.7559 -0.1940
  533MOL0     H73532   5.889  10.926   2.763  0.3106  1.4007 -1.2376
  533MOL0     H73533   6.009  10.984   2.651 -1.5886  1.9997  3.4698
  533MOL0     H73534   5.823  10.723   1.810 -0.9063  0.7668  2.0152
  533MOL0     H73535   5.822  10.550   1.619 -1.7888 -1.1004 -2.1847
  533MOL0     H73536   5.589  10.312   1.366  2.4002 -0.7079  0.2166
  533MOL0     H73537   5.524  10.176   1.202 -1.2148  1.8093  1.1735
  533MOL0     H73538   6.874   9.403   0.801  2.1559 -1.1196 -0.1235
  533MOL0     H73539   7.111   9.434   0.722 -0.1301 -2.5774  1.3900
  533MOL0     H73540   7.320   9.503   0.258 -0.3123  1.1162  0.8172
  533MOL0     H73541   7.526   9.496   0.133 -0.8510  0.8654  1.0018
  533MOL0     H73542   7.863   9.486   0.395  4.5816  0.5275  0.0737
  533MOL0     H73543   7.841   9.377   0.256  2.3547 -1.3713  1.5950
  533MOL0     H73544   8.029   9.619   0.263  2.5056 -0.3961  0.6523
  533MOL0     H73545   8.028   9.484   0.144  2.2574 -3.9790  1.1890
  533MOL0     H73546   8.107   9.467   0.429 -0.6849  1.8395 -0.3720
  533MOL0     H73547   8.107   9.329   0.312 -1.1286  0.4832 -1.2429
  533MOL0     H73548   8.265   9.465   0.159 -1.2250 -3.2538 -0.2357
  533MOL0     H73549   8.338   9.401   0.304 -0.9592 -1.3555 -0.6327
  533MOL0     H73550   8.371   9.834   0.280 -0.2406  0.0649  0.7619
  533MOL0     H73551   7.754   9.637   0.466  1.1671 -0.6391 -4.0497
  533MOL0     H73552   7.639   9.670   0.671  0.5694 -0.3522 -0.8161
  533MOL0     H73553   7.514   9.793   0.630  0.6569 -0.6834 -1.2992
  533MOL0     H73554   7.480   9.636   0.706 -0.7845 -1.3954 -0.8056
  534MOL0     O73555   7.467   0.786   5.623  0.0169 -1.1835 -0.2535
  534MOL0     C73556   7.490   0.901   5.661  0.9153 -0.4009  0.3749
  534MOL0     O73557   7.468   1.016   5.589  0.7636  0.5341  0.8830
  534MOL0     C73558   7.431   1.001   5.457 -0.2452  0.0998 -0.8090
  534MOL0     C73559   7.525   1.049   5.368 -0.2871  0.1646  0.5917
  534MOL0     C73560   7.502   1.055   5.230 -0.1262  0.4419  0.2019
  534MOL0     C73561   7.379   1.003   5.183  0.6496 -0.3404  0.0795
  534MOL0     O73562   7.327   1.009   5.053  0.4676  0.2237  0.2088
  534MOL0     C73563   7.398   1.085   4.950  0.0328 -0.6602  0.3945
  534MOL0     C73564   7.313   1.096   4.828  0.2882 -0.2853  0.5757
  534MOL0     C73565   7.186   1.193   4.838 -0.2130  0.1134  0.8718
  534MOL0     C73566   7.092   1.192   4.716 -0.3244  0.1665  0.0444
  534MOL0     C73567   7.157   1.218   4.587  0.1027  0.4382  0.6261
  534MOL0     C73568   7.209   1.363   4.557  0.4360 -0.1889  0.0244
  534MOL0     C73569   7.095   1.464   4.554 -1.3990 -0.1715 -0.0765
  534MOL0     C73570   7.045   1.483   4.420 -0.1935  0.5295  1.3472
  534MOL0     N73571   6.952   1.594   4.424  0.6365 -0.8193 -0.4980
  534MOL0     C73572   6.822   1.586   4.387  0.5453 -0.3139 -0.2342
  534MOL0     C73573   6.780   1.716   4.394 -0.2500 -0.8627  1.0251
  534MOL0     C73574   6.638   1.760   4.368 -0.0972  0.0315  0.2839
  534MOL0     C73575   6.543   1.732   4.477  0.2320  0.8653 -0.9095
  534MOL0     C73576   6.579   1.795   4.612 -0.0882  0.4307 -0.7522
  534MOL0     C73577   6.706   1.754   4.686  0.3510 -0.2337  0.5979
  534MOL0     O73578   6.716   1.613   4.700  0.2135 -0.1281  0.1425
  534MOL0     C73579   6.802   1.571   4.790 -0.3505 -0.5499 -0.0813
  534MOL0     C73580   6.930   1.629   4.821 -0.6690 -0.3312  0.3589
  534MOL0     C73581   7.005   1.603   4.938 -0.0580 -0.2166  0.5809
  534MOL0     C73582   7.121   1.688   4.971 -0.1596 -1.6850 -0.9327
  534MOL0     C73583   6.953   1.503   5.018 -0.5047  0.5653 -0.9407
  534MOL0     C73584   7.005   1.483   5.158  0.0517  0.4122  0.5637
  534MOL0     O73585   6.982   1.357   5.197  0.0494 -0.7305 -0.2817
  534MOL0     C73586   7.004   1.329   5.328 -0.5353 -0.0091 -0.4931
  534MOL0     C73587   6.896   1.334   5.418  1.1546 -0.0836 -0.2013
  534MOL0     C73588   6.912   1.282   5.549 -0.4352  1.1536  0.0841
  534MOL0     C73589   7.024   1.215   5.593  0.4262 -1.2480 -0.7610
  534MOL0     O73590   7.046   1.187   5.727  0.0511  0.0253  1.0423
  534MOL0     C73591   6.948   1.242   5.815 -0.1584  0.6897  0.4764
  534MOL0     C73592   7.025   1.253   5.961 -0.0799  0.2933  0.3795
  534MOL0     C73593   7.086   1.114   6.007  0.7305  0.3105  0.2371
  534MOL0     C73594   6.988   0.990   6.008 -0.0771 -0.1595 -0.5186
  534MOL0     C73595   7.062   0.865   6.052 -0.4182 -0.2140 -0.1984
  534MOL0     C73596   7.174   0.816   5.957 -0.0109  0.6195 -0.3535
  534MOL0     C73597   7.230   0.681   5.991  0.3401  0.8458 -0.4551
  534MOL0     C73598   7.260   0.659   6.143 -0.2826  0.4762 -0.8185
  534MOL0    Cl73599   7.387   0.537   6.161  0.6072  0.0927  0.3713
  534MOL0     C73600   7.133   1.208   5.499 -0.7065 -0.4863  0.2664
  534MOL0     C73601   7.118   1.262   5.372 -0.3890 -0.8170  0.1167
  534MOL0     O73602   7.059   1.572   5.224 -0.1841 -1.2705  0.8869
  534MOL0     C73603   6.830   1.439   4.987  0.0063 -0.2308 -0.3673
  534MOL0     C73604   6.749   1.472   4.877 -0.1350 -0.4489 -0.9472
  534MOL0     N73605   6.893   1.794   4.397  0.0485 -0.3187 -0.2568
  534MOL0     N73606   6.997   1.719   4.419  0.6027 -0.8649  0.1107
  534MOL0     C73607   7.282   0.956   5.272 -0.2604 -0.4184 -0.0584
  534MOL0     C73608   7.315   0.953   5.410  0.7342  0.2322  1.3310
  534MOL0     C73609   7.510   0.915   5.810 -0.1150  0.3416 -0.1983
  534MOL0     C73610   7.494   1.038   5.871 -0.9035 -0.8784  0.6984
  534MOL0     C73611   7.533   1.060   6.004  0.6471  0.6158 -0.1154
  534MOL0     C73612   7.593   0.957   6.083  0.2402  0.0691 -0.2118
  534MOL0     O73613   7.620   0.992   6.210  0.5755  0.2769 -0.6293
  534MOL0     C73614   7.646   0.892   6.307 -0.0820 -0.5588 -0.0636
  534MOL0     C73615   7.706   0.964   6.437  0.1242  0.1076 -0.5278
  534MOL0     C73616   7.678   1.109   6.454 -0.2646 -0.5323 -0.2708
  534MOL0     C73617   7.728   1.152   6.598 -0.4924 -0.9273  0.1691
  534MOL0     C73618   7.865   1.127   6.631 -1.3690 -0.1529 -0.0853
  534MOL0     C73619   7.977   1.098   6.661 -0.5272  0.3741  0.2701
  534MOL0     C73620   7.611   0.834   6.020  0.0142  0.9395  0.9986
  534MOL0     C73621   7.569   0.806   5.884 -0.2607  0.2513  0.5045
  534MOL0     C73622   7.593   0.666   5.833 -0.5511 -0.3340 -0.2915
  534MOL0     H73623   7.619   1.093   5.399  1.3540 -0.2999 -3.1693
  534MOL0     H73624   7.587   1.083   5.168  0.9258 -0.8811  0.9962
  534MOL0     H73625   7.487   1.026   4.927 -0.5656 -1.2019 -0.6185
  534MOL0     H73626   7.433   1.182   4.987 -4.1286  0.3671  2.2212
  534MOL0     H73627   7.383   1.125   4.749  2.8297 -0.9999  2.4277
  534MOL0     H73628   7.265   1.001   4.804 -0.8251  0.8206 -1.9995
  534MOL0     H73629   7.127   1.162   4.924 -0.7078 -0.1212  0.4517
  534MOL0     H73630   7.238   1.288   4.849 -0.4409  0.1307  1.8434
  534MOL0     H73631   7.045   1.093   4.712 -0.5511  0.2499  0.6244
  534MOL0     H73632   7.020   1.274   4.724 -1.1550 -0.3211 -1.8257
  534MOL0     H73633   7.081   1.199   4.510  0.1312  1.4805  0.3122
  534MOL0     H73634   7.240   1.149   4.570  0.2346  0.5406  0.8498
  534MOL0     H73635   7.284   1.388   4.633  1.4801 -1.7768 -0.4324
  534MOL0     H73636   7.256   1.354   4.459 -2.9804 -2.0372 -1.6287
  534MOL0     H73637   7.134   1.558   4.593  0.7704 -1.2541  0.5255
  534MOL0     H73638   7.006   1.442   4.614 -1.6298  2.5192  0.6681
  534MOL0     H73639   7.117   1.506   4.340 -0.6298  0.6714  0.9917
  534MOL0     H73640   7.000   1.389   4.388  0.2368  0.8050 -0.1782
  534MOL0     H73641   6.747   1.509   4.372 -0.1303  0.4455 -0.8434
  534MOL0     H73642   6.602   1.717   4.274  0.1113 -2.3098  1.2298
  534MOL0     H73643   6.645   1.869   4.359 -0.3262  0.0351  0.1552
  534MOL0     H73644   6.447   1.777   4.450 -0.2376  2.3443  2.6250
  534MOL0     H73645   6.540   1.623   4.481  4.4092  0.3829 -4.3869
  534MOL0     H73646   6.584   1.903   4.597  0.3731  0.8805  2.0671
  534MOL0     H73647   6.498   1.776   4.682  2.4082  1.1439  2.5798
  534MOL0     H73648   6.798   1.794   4.642  1.6652 -1.5361  2.0357
  534MOL0     H73649   6.708   1.801   4.785  1.0505  0.5749  0.2198
  534MOL0     H73650   6.969   1.696   4.745 -0.7552 -1.6987 -0.9443
  534MOL0     H73651   7.101   1.765   5.047 -0.9547 -3.0448  0.2743
  534MOL0     H73652   7.157   1.741   4.882  3.8522 -2.6104 -0.0718
  534MOL0     H73653   7.205   1.630   5.012  0.7587  0.6446  0.7762
  534MOL0     H73654   6.796   1.360   5.387  1.2503  1.1614  0.4825
  534MOL0     H73655   6.826   1.292   5.614 -1.2940 -0.3848 -0.7508
  534MOL0     H73656   6.915   1.342   5.786 -1.3919 -0.3186 -1.8641
  534MOL0     H73657   6.854   1.186   5.818  0.9175 -1.2060  2.6078
  534MOL0     H73658   7.110   1.320   5.946  0.3097  0.1965  1.9843
  534MOL0     H73659   6.957   1.292   6.037 -0.7622 -2.4194  1.2653
  534MOL0     H73660   7.119   1.128   6.110 -1.8377  3.5401  0.7830
  534MOL0     H73661   7.168   1.082   5.942 -0.2492 -0.1601 -0.7993
  534MOL0     H73662   6.946   0.963   5.911 -1.0498  2.0054 -0.7522
  534MOL0     H73663   6.902   1.005   6.074 -0.4539  0.8118 -1.2157
  534MOL0     H73664   7.100   0.884   6.153 -1.1201 -0.9837  0.2305
  534MOL0     H73665   6.996   0.778   6.059  2.5607 -2.6302  0.2791
  534MOL0     H73666   7.254   0.891   5.955  0.8384 -0.2631 -0.5994
  534MOL0     H73667   7.128   0.820   5.858 -0.4538  0.1301 -0.1703
  534MOL0     H73668   7.324   0.680   5.935  0.8838 -0.5103  0.4013
  534MOL0     H73669   7.167   0.602   5.949  0.3783  2.2005 -3.2412
  534MOL0     H73670   7.167   0.626   6.190  0.0602  1.3199  0.5309
  534MOL0     H73671   7.293   0.750   6.195  1.1505 -0.7631  0.5641
  534MOL0     H73672   7.229   1.168   5.528  0.5725  2.0089 -0.2922
  534MOL0     H73673   7.199   1.255   5.299  0.5406  1.5705  0.8372
  534MOL0     H73674   6.788   1.360   5.049 -0.1124 -0.0292 -0.1899
  534MOL0     H73675   6.654   1.420   4.869 -0.2453 -0.9564  2.2951
  534MOL0     H73676   7.199   0.896   5.235 -0.1623 -1.4351  1.3071
  534MOL0     H73677   7.256   0.894   5.479 -0.2296 -1.2522 -0.6668
  534MOL0     H73678   7.440   1.119   5.826  0.4710  1.4774  2.9891
  534MOL0     H73679   7.518   1.155   6.054 -1.3532  0.0186  0.5214
  534MOL0     H73680   7.567   0.831   6.353  2.0652 -0.7727  3.7738
  534MOL0     H73681   7.715   0.817   6.269  0.6798 -0.3248  0.8222
  534MOL0     H73682   7.815   0.952   6.439  0.1746  0.5951 -0.3448
  534MOL0     H73683   7.650   0.915   6.518 -2.0425  0.7429 -1.5612
  534MOL0     H73684   7.729   1.173   6.381 -0.6159  1.9503  1.5307
  534MOL0     H73685   7.570   1.117   6.446 -0.3515  0.5519  1.5834
  534MOL0     H73686   7.659   1.119   6.676 -1.6952 -1.7949 -1.2068
  534MOL0     H73687   7.717   1.260   6.609  2.4618 -0.4604 -0.5322
  534MOL0     H73688   8.080   1.074   6.676  0.1678  1.7879 -1.7763
  534MOL0     H73689   7.652   0.750   6.077  1.0124  0.8647  0.1878
  534MOL0     H73690   7.684   0.669   5.772 -0.7073 -2.4421 -0.7017
  534MOL0     H73691   7.606   0.597   5.917 -1.4370 -3.2689 -2.3861
  534MOL0     H73692   7.512   0.628   5.770 -1.8980  2.1845 -0.2175
  535MOL0     O73693   5.806   8.436   0.539 -0.1779 -0.1678 -0.0034
  535MOL0     C73694   5.875   8.340   0.579  0.7726 -0.6924 -0.0004
  535MOL0     O73695   5.859   8.207   0.538 -0.0163 -0.4156 -0.1501
  535MOL0     C73696   5.751   8.163   0.458 -0.0389  0.9606 -0.3627
  535MOL0     C73697   5.753   8.028   0.434 -0.4829  0.5136 -0.4588
  535MOL0     C73698   5.659   7.959   0.353 -0.1504  0.7206  0.0609
  535MOL0     C73699   5.566   8.031   0.284  0.1764 -0.5124 -0.4087
  535MOL0     O73700   5.490   7.970   0.188 -0.2207  0.4304  0.1511
  535MOL0     C73701   5.379   7.898   0.232 -0.2594  0.0423 -0.1801
  535MOL0     C73702   5.335   7.813   0.116  0.6513  0.1358  0.5241
  535MOL0     C73703   5.230   7.705   0.154 -0.1918 -0.4844  0.0515
  535MOL0     C73704   5.189   7.617   0.034  0.6631 -0.4470  0.9205
  535MOL0     C73705   5.057   7.545   0.066 -0.1476  0.0786 -0.1591
  535MOL0     C73706   4.998   7.436  -0.024 -0.6057 -0.4685  1.0728
  535MOL0     C73707   4.871   7.383   0.033  0.6583  0.4716 -0.5595
  535MOL0     C73708   4.778   7.329  -0.074 -0.4654 -0.2778  0.0396
  535MOL0     N73709   4.650   7.277  -0.029 -0.1597 -0.3076  0.3459
  535MOL0     C73710   4.525   7.334  -0.052  1.1838  0.0763 -0.3914
  535MOL0     C73711   4.436   7.237  -0.034 -0.4365  0.8900  0.0279
  535MOL0     C73712   4.286   7.228  -0.016 -0.6311 -0.1829  0.0504
  535MOL0     C73713   4.210   7.244  -0.160 -0.4487 -0.7985 -0.4587
  535MOL0     C73714   4.065   7.246  -0.116  0.4262 -0.6040  0.0501
  535MOL0     C73715   3.981   7.243  -0.248  0.3788 -0.1170  0.4862
  535MOL0     O73716   3.850   7.290  -0.211  0.0048  0.2193 -0.4072
  535MOL0     C73717   3.754   7.294  -0.313 -0.0184 -1.1360  0.1508
  535MOL0     C73718   3.626   7.285  -0.274 -0.4023 -0.6814 -1.3073
  535MOL0     C73719   3.524   7.314  -0.363 -0.3524  0.2179  0.4995
  535MOL0     C73720   3.387   7.317  -0.301 -0.2503  0.1331  0.7216
  535MOL0     C73721   3.550   7.348  -0.504 -0.4424  0.2436  0.7284
  535MOL0     C73722   3.440   7.378  -0.604  0.7096  0.2864 -0.3709
  535MOL0     O73723   3.476   7.383  -0.743 -0.5314  0.0402 -0.1208
  535MOL0     C73724   3.396   7.448  -0.833 -0.1845  0.4755  0.1551
  535MOL0     C73725   3.275   7.390  -0.850 -0.1637 -0.4042  0.1944
  535MOL0     C73726   3.186   7.440  -0.941 -0.8274 -0.4343 -1.4392
  535MOL0     C73727   3.210   7.559  -1.011  0.0938  0.6227  0.0293
  535MOL0     O73728   3.119   7.609  -1.098 -0.0178  0.2558  0.1036
  535MOL0     C73729   2.985   7.614  -1.038 -0.2834 -0.9894  0.2717
  535MOL0     C73730   2.902   7.721  -1.110 -1.3132  0.6085 -0.1346
  535MOL0     C73731   2.971   7.852  -1.137  1.3210  0.7157  0.4384
  535MOL0     C73732   2.867   7.960  -1.122  0.3587  0.1611 -0.7797
  535MOL0     C73733   2.926   8.094  -1.155  0.2512 -0.3405 -0.3439
  535MOL0     C73734   2.829   8.197  -1.227  0.8479 -0.5144 -0.6701
  535MOL0     C73735   2.894   8.337  -1.261  0.5793  0.1706  0.7432
  535MOL0     C73736   2.797   8.420  -1.333 -0.2456  0.5930 -0.2932
  535MOL0    Cl73737   2.893   8.548  -1.411 -0.2828 -0.3326 -0.4847
  535MOL0     C73738   3.334   7.615  -0.993 -0.3870  0.7603  0.0067
  535MOL0     C73739   3.427   7.564  -0.905 -0.0931 -0.0607  0.5463
  535MOL0     O73740   3.336   7.425  -0.560 -0.1419  0.1642 -0.6581
  535MOL0     C73741   3.683   7.333  -0.542 -0.6273  0.7884 -0.1215
  535MOL0     C73742   3.783   7.307  -0.450  0.6604 -0.8670 -1.0299
  535MOL0     N73743   4.510   7.126   0.017 -0.5572  0.5447  0.3788
  535MOL0     N73744   4.636   7.154   0.009  0.4355  0.2363  0.3610
  535MOL0     C73745   5.556   8.169   0.309 -0.3623 -0.2389  0.6854
  535MOL0     C73746   5.649   8.234   0.395  0.2124  0.5324 -0.2146
  535MOL0     C73747   5.997   8.356   0.665  0.7086  0.2532  0.5850
  535MOL0     C73748   6.087   8.246   0.681 -0.4447 -0.0030 -0.6840
  535MOL0     C73749   6.204   8.251   0.754 -0.1399 -0.0712  0.3373
  535MOL0     C73750   6.255   8.374   0.797  1.2609  0.1325  0.4936
  535MOL0     O73751   6.385   8.393   0.842  0.9170  0.4143 -0.1808
  535MOL0     C73752   6.397   8.488   0.947  0.8472  0.0317 -0.1353
  535MOL0     C73753   6.532   8.485   1.011  0.6284  0.1103  0.1836
  535MOL0     C73754   6.532   8.586   1.121  0.1013  0.4570  0.0963
  535MOL0     C73755   6.596   8.726   1.084  0.4044  0.0052  0.3584
  535MOL0     C73756   6.639   8.794   1.208 -0.3355  0.4496  0.4680
  535MOL0     C73757   6.686   8.838   1.310  0.3950 -0.3014  0.0711
  535MOL0     C73758   6.170   8.485   0.781  0.1645 -0.5490 -0.6116
  535MOL0     C73759   6.044   8.472   0.725 -0.0600 -0.2960 -0.2535
  535MOL0     C73760   5.967   8.600   0.725 -0.9242  0.4720 -0.5710
  535MOL0     H73761   5.834   7.969   0.475 -1.7466 -0.9045  0.1317
  535MOL0     H73762   5.677   7.856   0.323 -0.4244  0.6573  0.1087
  535MOL0     H73763   5.303   7.968   0.268  0.0874 -0.0800  0.8366
  535MOL0     H73764   5.407   7.835   0.317 -0.5285  1.2797  0.8735
  535MOL0     H73765   5.282   7.869   0.038  2.1055 -1.0773 -1.4142
  535MOL0     H73766   5.426   7.765   0.079 -0.1646 -0.1374 -1.2235
  535MOL0     H73767   5.289   7.635   0.214  1.1834 -1.9636 -2.8159
  535MOL0     H73768   5.137   7.740   0.200 -0.7410 -0.2671 -1.1981
  535MOL0     H73769   5.177   7.680  -0.055 -1.0884 -0.5768  1.0325
  535MOL0     H73770   5.273   7.549   0.019  1.7197  1.3912 -2.6550
  535MOL0     H73771   4.982   7.623   0.081 -1.5193 -1.4567  1.4024
  535MOL0     H73772   5.062   7.489   0.160  2.6049 -1.5400 -1.1603
  535MOL0     H73773   4.977   7.480  -0.122  0.5419 -1.9292  0.1120
  535MOL0     H73774   5.071   7.356  -0.040 -2.2858 -1.4818 -3.1352
  535MOL0     H73775   4.827   7.475   0.073  1.4813  0.4010  0.5611
  535MOL0     H73776   4.888   7.325   0.124 -1.2378  4.2255  2.4737
  535MOL0     H73777   4.760   7.402  -0.154  0.6744 -0.8279 -0.7314
  535MOL0     H73778   4.843   7.248  -0.107  0.2894  0.7253 -1.0133
  535MOL0     H73779   4.510   7.437  -0.082  2.5610 -0.1855 -2.1911
  535MOL0     H73780   4.269   7.316   0.045 -4.3135  0.4297 -1.5778
  535MOL0     H73781   4.252   7.139   0.038  1.2200 -2.0466 -1.6430
  535MOL0     H73782   4.233   7.337  -0.213 -1.0350  0.4896  1.4468
  535MOL0     H73783   4.225   7.160  -0.229 -0.6393  0.3387 -1.9282
  535MOL0     H73784   4.040   7.162  -0.050  0.0484 -1.5601 -1.2608
  535MOL0     H73785   4.043   7.334  -0.055  1.1397 -0.1588 -0.3168
  535MOL0     H73786   4.033   7.297  -0.327  2.3190 -1.8078  0.5427
  535MOL0     H73787   3.975   7.141  -0.286 -1.3209  0.6639 -1.5273
  535MOL0     H73788   3.607   7.263  -0.170  3.7560  0.8776 -0.0479
  535MOL0     H73789   3.338   7.414  -0.313 -0.1796 -0.0525 -1.4993
  535MOL0     H73790   3.379   7.284  -0.197  2.3039 -0.1578  0.8779
  535MOL0     H73791   3.320   7.257  -0.363  0.9461  1.0353 -1.5579
  535MOL0     H73792   3.241   7.310  -0.786 -1.5700  0.9964  1.2648
  535MOL0     H73793   3.090   7.394  -0.961 -1.0596  0.2759 -2.0031
  535MOL0     H73794   2.933   7.519  -1.045 -1.0354 -0.6320  0.8615
  535MOL0     H73795   2.993   7.642  -0.932 -0.2631 -0.6013  0.1700
  535MOL0     H73796   2.848   7.683  -1.197 -2.8078 -1.0967  1.4376
  535MOL0     H73797   2.824   7.751  -1.039  0.0299  2.5235  0.6085
  535MOL0     H73798   3.014   7.846  -1.237  2.0464 -0.6073  0.8082
  535MOL0     H73799   3.059   7.866  -1.072  0.5565 -0.6012  1.8172
  535MOL0     H73800   2.832   7.963  -1.018  0.8576  0.4330 -0.6174
  535MOL0     H73801   2.781   7.932  -1.183 -3.2853 -0.9898  4.2127
  535MOL0     H73802   2.975   8.144  -1.071  0.1521 -0.7674 -0.0272
  535MOL0     H73803   3.009   8.079  -1.224  0.6852 -1.4708  0.4019
  535MOL0     H73804   2.750   8.228  -1.158 -0.7215 -3.2048 -1.1211
  535MOL0     H73805   2.795   8.156  -1.323  1.4304  1.1209 -1.6365
  535MOL0     H73806   2.970   8.314  -1.337 -1.0074 -1.6082 -0.3989
  535MOL0     H73807   2.939   8.386  -1.175 -0.7794  0.4273  1.3265
  535MOL0     H73808   2.724   8.465  -1.265 -2.1565  0.9783 -2.4494
  535MOL0     H73809   2.744   8.358  -1.407  1.6538  1.2508 -2.3123
  535MOL0     H73810   3.343   7.719  -1.022 -1.3981  0.3219 -2.0950
  535MOL0     H73811   3.521   7.618  -0.907 -1.1587  1.8633 -0.3474
  535MOL0     H73812   3.716   7.357  -0.643 -0.4872  0.0886 -0.2492
  535MOL0     H73813   3.888   7.303  -0.479  0.6255  2.4790 -1.9519
  535MOL0     H73814   5.477   8.225   0.260 -1.4019 -1.3862  1.0010
  535MOL0     H73815   5.645   8.340   0.420 -0.6946 -0.2716  3.7137
  535MOL0     H73816   6.065   8.147   0.642  1.3381 -1.1347  0.9819
  535MOL0     H73817   6.254   8.158   0.779  0.2505 -0.2211 -0.9222
  535MOL0     H73818   6.386   8.592   0.914  0.5831 -0.4556 -1.6727
  535MOL0     H73819   6.326   8.457   1.024 -0.1192  1.8609 -0.2288
  535MOL0     H73820   6.606   8.513   0.935 -0.5714  2.3371 -0.2442
  535MOL0     H73821   6.550   8.385   1.052 -3.3395 -1.5221 -1.5372
  535MOL0     H73822   6.439   8.608   1.174  0.1547  0.8545  0.0332
  535MOL0     H73823   6.594   8.547   1.202 -1.3520  1.6230  1.8703
  535MOL0     H73824   6.529   8.785   1.022 -0.2465 -0.7620  0.3075
  535MOL0     H73825   6.689   8.713   1.029  0.2370  1.4873 -0.3200
  535MOL0     H73826   6.721   8.865   1.408 -1.2005  2.4336  0.0093
  535MOL0     H73827   6.203   8.580   0.821 -1.3364  0.6800 -2.1265
  535MOL0     H73828   5.983   8.637   0.827 -0.2793  0.6165 -0.7181
  535MOL0     H73829   6.002   8.667   0.646  2.1350 -0.0926  0.1720
  535MOL0     H73830   5.860   8.592   0.706 -1.1724 -0.2316  0.9871
  536MOL0     O73831   8.565   6.479   5.388 -0.8732  0.2225  0.2955
  536MOL0     C73832   8.563   6.354   5.415 -0.1291 -0.9180 -0.6237
  536MOL0     O73833   8.500   6.304   5.525 -0.5679  0.5585 -0.6621
  536MOL0     C73834   8.412   6.382   5.584  0.6085 -0.2913  0.0629
  536MOL0     C73835   8.271   6.370   5.567 -0.4736 -0.7870 -0.9084
  536MOL0     C73836   8.179   6.460   5.634 -0.3459  0.4406 -0.5240
  536MOL0     C73837   8.235   6.559   5.718 -0.6146 -0.5629  0.0422
  536MOL0     O73838   8.159   6.660   5.774  0.7748  0.0887  0.7446
  536MOL0     C73839   8.123   6.636   5.909  0.1025  0.1962 -0.4989
  536MOL0     C73840   8.055   6.773   5.967 -0.0233 -0.1704  0.1611
  536MOL0     C73841   8.165   6.883   5.977 -0.3684  0.2638 -0.1463
  536MOL0     C73842   8.108   7.021   6.022  0.1296 -0.8494 -0.0990
  536MOL0     C73843   8.188   7.146   5.993  0.0526 -1.4044  0.0906
  536MOL0     C73844   8.334   7.159   6.040 -0.5701  0.7841 -1.2240
  536MOL0     C73845   8.398   7.285   5.990 -0.5168 -0.1563  0.9158
  536MOL0     C73846   8.539   7.314   6.039 -0.5575  0.5213 -0.4309
  536MOL0     N73847   8.599   7.416   5.958 -0.4347 -1.1465 -0.5908
  536MOL0     C73848   8.628   7.541   5.987 -0.7023  0.7648  0.3801
  536MOL0     C73849   8.683   7.599   5.882 -0.3286  1.0657 -0.3535
  536MOL0     C73850   8.739   7.739   5.871 -0.4191 -0.1542  0.3139
  536MOL0     C73851   8.643   7.842   5.798 -0.5235  0.4598 -0.3653
  536MOL0     C73852   8.617   7.822   5.650  0.9677 -0.7873  0.9028
  536MOL0     C73853   8.507   7.918   5.597  0.3649 -0.5820  0.0745
  536MOL0     O73854   8.577   8.037   5.541  0.3312 -0.3211  0.4531
  536MOL0     C73855   8.513   8.146   5.490  0.8508 -0.2729 -0.2265
  536MOL0     C73856   8.580   8.243   5.416  0.0477  0.5080  0.1053
  536MOL0     C73857   8.520   8.342   5.344  0.1756 -1.1662  0.0853
  536MOL0     C73858   8.615   8.440   5.280 -0.2291  0.9431  0.3474
  536MOL0     C73859   8.384   8.370   5.369 -0.2730 -0.8182  0.1552
  536MOL0     C73860   8.306   8.477   5.295  0.6972  0.4712 -0.5954
  536MOL0     O73861   8.203   8.525   5.385  0.2439 -0.5325 -0.2529
  536MOL0     C73862   8.108   8.627   5.354 -0.2355  0.5856  0.3370
  536MOL0     C73863   8.130   8.732   5.271  0.6201  0.6711 -0.0033
  536MOL0     C73864   8.024   8.823   5.246 -0.1194 -0.6372 -0.0282
  536MOL0     C73865   7.899   8.820   5.319  0.2618 -0.0476  0.0694
  536MOL0     O73866   7.811   8.929   5.295  0.1147  0.7010 -0.6910
  536MOL0     C73867   7.716   8.962   5.397 -1.7207 -0.6081 -1.2546
  536MOL0     C73868   7.579   8.909   5.343  0.2431 -1.3432  0.2063
  536MOL0     C73869   7.478   8.912   5.462  0.3358  0.5424  0.5943
  536MOL0     C73870   7.355   8.817   5.432 -0.9070  0.1885 -0.4272
  536MOL0     C73871   7.231   8.872   5.506  0.4834  0.2678 -0.4354
  536MOL0     C73872   7.169   9.004   5.458 -1.0000  0.0831  0.4516
  536MOL0     C73873   7.042   9.040   5.537 -0.6284  0.4185  0.5515
  536MOL0     C73874   6.955   9.161   5.483 -0.5146 -0.0047 -0.4186
  536MOL0    Cl73875   6.956   9.147   5.309  0.3004  0.5499  0.1667
  536MOL0     C73876   7.885   8.707   5.398  0.1786 -0.0652 -0.5395
  536MOL0     C73877   7.985   8.611   5.411 -0.4504  0.2917 -0.3499
  536MOL0     O73878   8.331   8.521   5.194 -0.3615 -0.4714  0.1734
  536MOL0     C73879   8.318   8.290   5.464  0.0150  0.2486  0.4961
  536MOL0     C73880   8.375   8.173   5.519 -0.9682  0.5249  0.5658
  536MOL0     N73881   8.684   7.511   5.778 -0.0863  0.6198 -0.4659
  536MOL0     N73882   8.635   7.399   5.826  0.0311  0.3440 -0.0433
  536MOL0     C73883   8.373   6.559   5.737  0.1130  0.5754 -0.6190
  536MOL0     C73884   8.462   6.478   5.664 -0.0123  0.2089  0.3523
  536MOL0     C73885   8.633   6.251   5.326  0.0092  0.2781 -0.3049
  536MOL0     C73886   8.626   6.124   5.367  0.5642  0.7440  0.5444
  536MOL0     C73887   8.678   6.024   5.290 -0.8834  0.4761 -0.4320
  536MOL0     C73888   8.747   6.045   5.170  0.2036  0.3246 -0.4942
  536MOL0     O73889   8.814   5.939   5.115  0.5831 -0.2837 -0.8292
  536MOL0     C73890   8.928   5.956   5.036  0.2752 -0.3398 -0.2891
  536MOL0     C73891   9.038   6.016   5.130  0.0410 -0.3579 -0.4736
  536MOL0     C73892   9.170   6.017   5.052  0.9314 -0.0015 -0.0459
  536MOL0     C73893   9.282   6.055   5.156  0.4989  0.2906 -0.0954
  536MOL0     C73894   9.247   6.183   5.219  0.2470  0.4375  1.1590
  536MOL0     C73895   9.218   6.285   5.269  0.5207  0.1496 -0.1511
  536MOL0     C73896   8.748   6.181   5.127  1.3428  0.0997  0.0245
  536MOL0     C73897   8.689   6.286   5.197  0.5107 -1.2588 -0.0803
  536MOL0     C73898   8.692   6.432   5.138  0.2241  0.5220 -0.1422
  536MOL0     H73899   8.224   6.303   5.496  0.7062  0.4793 -2.9590
  536MOL0     H73900   8.074   6.465   5.607 -0.4071 -0.0172 -0.3724
  536MOL0     H73901   8.209   6.630   5.977 -0.0788  0.0025 -0.2901
  536MOL0     H73902   8.064   6.546   5.927  1.4029 -0.1819  2.3043
  536MOL0     H73903   7.976   6.806   5.900  2.3349  2.7706 -1.4387
  536MOL0     H73904   8.012   6.754   6.066 -1.6195  0.6929 -0.3310
  536MOL0     H73905   8.248   6.851   6.041  0.3451 -1.9377 -2.0302
  536MOL0     H73906   8.212   6.892   5.879  2.8653 -1.6438  1.0414
  536MOL0     H73907   8.007   7.036   5.980 -0.0429  1.0115  0.9039
  536MOL0     H73908   8.107   7.018   6.131  0.0648 -0.4050 -0.0871
  536MOL0     H73909   8.135   7.239   6.016 -0.0468 -1.2467 -0.7304
  536MOL0     H73910   8.193   7.135   5.884  1.8152 -0.6720  0.0552
  536MOL0     H73911   8.321   7.177   6.148  0.4073  1.5571 -1.2266
  536MOL0     H73912   8.399   7.072   6.029  0.3510  1.1946  0.5770
  536MOL0     H73913   8.334   7.371   6.014  1.1310  0.6740  2.6535
  536MOL0     H73914   8.410   7.271   5.883 -0.4122 -0.3455  0.9521
  536MOL0     H73915   8.538   7.342   6.145  1.1946  1.4223 -0.6056
  536MOL0     H73916   8.601   7.227   6.020 -1.9433 -0.5042 -0.4296
  536MOL0     H73917   8.602   7.584   6.084 -1.9550  0.4829  0.1902
  536MOL0     H73918   8.836   7.724   5.821  0.4825 -0.2012  1.9951
  536MOL0     H73919   8.775   7.777   5.967  0.2199 -2.4121  1.0360
  536MOL0     H73920   8.548   7.858   5.850  1.0588  3.2227  1.9785
  536MOL0     H73921   8.695   7.936   5.819 -2.1096  1.0344  1.2336
  536MOL0     H73922   8.709   7.836   5.593  1.1786 -1.0450  1.1740
  536MOL0     H73923   8.584   7.720   5.625  0.6727 -0.4458 -0.1272
  536MOL0     H73924   8.448   7.870   5.518 -0.9745 -1.7666  1.6978
  536MOL0     H73925   8.442   7.962   5.673  0.6839  1.9565 -1.0237
  536MOL0     H73926   8.687   8.222   5.416 -0.2007 -1.3555 -2.4964
  536MOL0     H73927   8.720   8.433   5.312 -0.8118  1.8550  2.6704
  536MOL0     H73928   8.579   8.542   5.299 -0.0043  1.3229 -1.1206
  536MOL0     H73929   8.610   8.433   5.171 -2.6351 -0.0228  0.4707
  536MOL0     H73930   8.232   8.745   5.236 -0.1796 -1.1563 -3.5150
  536MOL0     H73931   8.037   8.898   5.169  2.7709 -1.0866 -0.0956
  536MOL0     H73932   7.744   8.913   5.491 -1.1199  0.4836 -0.8548
  536MOL0     H73933   7.705   9.069   5.413 -0.9396 -0.7265  0.2144
  536MOL0     H73934   7.558   8.980   5.263 -0.7523  1.0387  2.4276
  536MOL0     H73935   7.587   8.817   5.284 -0.0402 -0.3025 -1.5314
  536MOL0     H73936   7.437   9.014   5.460  1.0416  0.8200 -0.6631
  536MOL0     H73937   7.522   8.879   5.557  1.5652  0.0131 -0.1448
  536MOL0     H73938   7.381   8.719   5.473  0.5630  2.2627  4.2077
  536MOL0     H73939   7.334   8.818   5.324  1.2472  2.4726 -0.9194
  536MOL0     H73940   7.144   8.808   5.491  0.9792  0.2001 -3.6885
  536MOL0     H73941   7.252   8.870   5.613 -2.4033 -2.2269  0.2279
  536MOL0     H73942   7.144   8.998   5.351 -0.8422  1.0174  0.3498
  536MOL0     H73943   7.243   9.084   5.468 -2.0414  0.9821  1.1617
  536MOL0     H73944   7.071   9.045   5.643 -0.5300  2.0671  0.4734
  536MOL0     H73945   6.986   8.947   5.529  1.1502 -0.5127 -3.1102
  536MOL0     H73946   7.013   9.250   5.511  1.9184 -2.0071  1.3527
  536MOL0     H73947   6.850   9.154   5.513 -1.0810 -3.4460 -2.6136
  536MOL0     H73948   7.784   8.692   5.437 -0.0546  2.9444  0.2220
  536MOL0     H73949   7.956   8.527   5.473 -3.2362  1.3079 -0.1646
  536MOL0     H73950   8.216   8.319   5.484  0.1045  0.5189  0.5600
  536MOL0     H73951   8.308   8.111   5.578  0.1088 -2.0678 -0.7267
  536MOL0     H73952   8.412   6.639   5.800  0.1955 -1.9439  2.8280
  536MOL0     H73953   8.569   6.493   5.678  0.6577 -0.8689 -2.8168
  536MOL0     H73954   8.591   6.085   5.462 -1.1424  2.8304  0.8377
  536MOL0     H73955   8.668   5.922   5.326 -1.4083 -0.0332 -1.9387
  536MOL0     H73956   8.965   5.869   4.980 -2.7397 -1.4375 -0.7684
  536MOL0     H73957   8.901   6.024   4.955 -0.1538 -1.6937 -1.3377
  536MOL0     H73958   9.056   5.964   5.225  0.4580 -1.2978 -1.0487
  536MOL0     H73959   8.998   6.115   5.153  1.6057 -0.1373  1.6102
  536MOL0     H73960   9.188   5.918   5.010  1.2139 -0.9990  2.2708
  536MOL0     H73961   9.180   6.082   4.965  1.9168  0.6826  0.5474
  536MOL0     H73962   9.383   6.057   5.115  1.8967 -2.5714  2.7377
  536MOL0     H73963   9.283   5.985   5.241 -2.1196 -0.8102 -0.8548
  536MOL0     H73964   9.188   6.378   5.313 -0.8424 -0.9840  1.3810
  536MOL0     H73965   8.796   6.203   5.032 -2.5351 -0.7624 -2.3460
  536MOL0     H73966   8.589   6.467   5.122  1.1815  2.8095 -1.9536
  536MOL0     H73967   8.743   6.508   5.199  4.3263 -1.8782 -0.2330
  536MOL0     H73968   8.748   6.435   5.045 -3.7993  1.3383 -2.7920
  537MOL0     O73969  11.414   7.080   4.974  0.4413 -0.1118  0.2125
  537MOL0     C73970  11.417   7.198   4.924  0.2354 -0.0817  0.3254
  537MOL0     O73971  11.506   7.297   4.956  0.2103  0.2478  0.3116
  537MOL0     C73972  11.618   7.283   5.034 -0.1404 -0.5187  0.2647
  537MOL0     C73973  11.698   7.399   5.028 -0.4346 -0.0592  0.0670
  537MOL0     C73974  11.818   7.412   5.107 -0.4339 -0.0981 -0.1112
  537MOL0     C73975  11.863   7.303   5.172 -0.7283 -0.9643  0.5889
  537MOL0     O73976  11.977   7.313   5.243 -0.4152  0.4379 -0.0859
  537MOL0     C73977  11.970   7.306   5.389 -0.2123  0.6534  0.5222
  537MOL0     C73978  12.104   7.314   5.473 -0.5588 -0.0299  0.0783
  537MOL0     C73979  12.206   7.421   5.414  0.1690  0.5042 -0.1272
  537MOL0     C73980  12.342   7.393   5.464 -1.0257  0.1735 -0.3726
  537MOL0     C73981  12.448   7.498   5.426 -0.1423 -0.1917  0.2247
  537MOL0     C73982  12.453   7.631   5.500 -0.2878  0.1554 -0.7103
  537MOL0     C73983  12.546   7.738   5.440 -0.1988  0.4715 -0.2826
  537MOL0     C73984  12.487   7.807   5.322 -0.5760  0.0627 -1.1154
  537MOL0     N73985  12.564   7.917   5.277 -0.6380  0.2161 -0.1406
  537MOL0     C73986  12.566   7.962   5.141 -0.6478  0.6877  0.0064
  537MOL0     C73987  12.661   8.062   5.137 -0.4292  0.6526 -0.6922
  537MOL0     C73988  12.695   8.149   5.026  1.2209  0.3786  0.2108
  537MOL0     C73989  12.683   8.062   4.896  0.8276 -0.1804 -0.7548
  537MOL0     C73990  12.717   8.128   4.762 -0.3511  0.1718 -0.3792
  537MOL0     C73991  12.716   8.024   4.641  1.0615  0.1839 -0.1629
  537MOL0     O73992  12.591   7.967   4.608  0.4405  0.2188  0.0179
  537MOL0     C73993  12.489   8.040   4.554  0.6447 -0.5721 -0.2316
  537MOL0     C73994  12.365   7.977   4.548 -0.2413 -0.0594 -0.4027
  537MOL0     C73995  12.249   8.047   4.522 -0.6791  0.4281  0.6379
  537MOL0     C73996  12.124   7.964   4.523  0.0856  1.2006 -0.1397
  537MOL0     C73997  12.255   8.180   4.478  0.1514  0.7326  0.0329
  537MOL0     C73998  12.127   8.255   4.455  0.0842  0.1784 -0.3108
  537MOL0     O73999  12.120   8.295   4.328  0.5617 -1.0269 -0.1867
  537MOL0     C74000  11.997   8.329   4.282 -0.0155  0.8478 -0.2188
  537MOL0     C74001  11.965   8.459   4.225 -0.1986  0.2412 -0.7989
  537MOL0     C74002  11.836   8.478   4.183 -0.2324 -0.5904 -0.0715
  537MOL0     C74003  11.735   8.379   4.177 -0.1864  0.1442 -0.1153
  537MOL0     O74004  11.608   8.395   4.138  0.5542 -0.1395  0.6838
  537MOL0     C74005  11.551   8.525   4.150  0.0945  0.2943 -0.3431
  537MOL0     C74006  11.401   8.499   4.143 -0.5508  0.2575 -0.2142
  537MOL0     C74007  11.345   8.418   4.250  0.2727 -0.0526  1.5550
  537MOL0     C74008  11.186   8.406   4.253 -1.1635 -0.4662 -0.5192
  537MOL0     C74009  11.149   8.333   4.385  0.2203  0.2158 -0.2028
  537MOL0     C74010  11.000   8.338   4.404 -1.0771 -1.0715  0.6398
  537MOL0     C74011  10.957   8.273   4.542 -0.4998 -0.4759 -0.0671
  537MOL0     C74012  10.820   8.208   4.517  0.7956 -0.5538 -1.3366
  537MOL0    Cl74013  10.849   8.051   4.443 -0.4902  0.4652 -0.1498
  537MOL0     C74014  11.768   8.256   4.237 -0.3606 -0.1309 -0.4471
  537MOL0     C74015  11.898   8.229   4.282 -0.5946 -0.7977  0.8889
  537MOL0     O74016  12.041   8.248   4.546  0.3048 -0.2473  0.8090
  537MOL0     C74017  12.382   8.235   4.463  0.3171  0.2580  0.8911
  537MOL0     C74018  12.495   8.174   4.504  0.0899 -0.2789 -0.7449
  537MOL0     N74019  12.720   8.063   5.264  0.4675  0.9046  1.2530
  537MOL0     N74020  12.665   7.980   5.350  0.2752  0.8109  0.2166
  537MOL0     C74021  11.792   7.177   5.168 -0.2893 -0.1569 -0.5601
  537MOL0     C74022  11.662   7.173   5.107  0.1962 -0.4732 -0.3690
  537MOL0     C74023  11.322   7.228   4.819  0.0446  0.9402  0.4361
  537MOL0     C74024  11.315   7.354   4.769 -0.1747  0.3428 -0.2614
  537MOL0     C74025  11.232   7.391   4.663  0.2381 -0.5061 -0.0469
  537MOL0     C74026  11.127   7.308   4.616 -0.1691  0.2406 -0.3781
  537MOL0     O74027  11.037   7.340   4.514  1.5719  0.5009  0.8390
  537MOL0     C74028  10.980   7.472   4.510 -0.0795 -1.2591 -0.2836
  537MOL0     C74029  10.837   7.482   4.469  0.1426  0.2034 -0.1070
  537MOL0     C74030  10.746   7.371   4.535 -0.6021  0.2907  0.5143
  537MOL0     C74031  10.600   7.431   4.523 -0.5332 -0.5604 -1.0426
  537MOL0     C74032  10.548   7.516   4.633 -0.7479  0.4213 -0.0942
  537MOL0     C74033  10.489   7.577   4.727  0.1129 -0.2957  1.1123
  537MOL0     C74034  11.130   7.177   4.666 -0.7458 -0.2878 -0.5393
  537MOL0     C74035  11.222   7.134   4.765 -0.4049  0.5136 -1.2669
  537MOL0     C74036  11.217   6.982   4.801 -0.4796 -0.4135 -0.3288
  537MOL0     H74037  11.651   7.484   4.978 -3.1545 -1.3143  0.3180
  537MOL0     H74038  11.878   7.502   5.110  2.0060 -1.6515  1.0533
  537MOL0     H74039  11.935   7.209   5.424 -3.0266  1.8119  1.1241
  537MOL0     H74040  11.907   7.391   5.417  1.2473  1.5127  1.3958
  537MOL0     H74041  12.090   7.326   5.581 -2.4564  0.4755 -0.1962
  537MOL0     H74042  12.141   7.212   5.458 -0.6033 -0.2056  1.0891
  537MOL0     H74043  12.202   7.413   5.305 -0.0987 -1.1454 -0.0216
  537MOL0     H74044  12.185   7.522   5.449  1.7135  0.7134  0.2446
  537MOL0     H74045  12.328   7.370   5.570 -0.9795 -2.6674 -0.9106
  537MOL0     H74046  12.369   7.295   5.424  1.1827  1.0172 -1.1046
  537MOL0     H74047  12.435   7.537   5.325  1.6294  0.4215  0.2002
  537MOL0     H74048  12.548   7.454   5.429 -0.6521 -1.4133  0.1600
  537MOL0     H74049  12.351   7.672   5.500  0.6581  2.7100  0.8403
  537MOL0     H74050  12.479   7.611   5.604  0.1281 -1.4518 -1.0970
  537MOL0     H74051  12.635   7.684   5.408 -0.4161  0.7451 -1.3982
  537MOL0     H74052  12.581   7.812   5.513  2.4102 -1.1721  0.2552
  537MOL0     H74053  12.482   7.735   5.240  3.0337 -0.5313 -0.9854
  537MOL0     H74054  12.395   7.860   5.348 -0.7922 -0.8853  0.1240
  537MOL0     H74055  12.496   7.938   5.061  0.7281 -3.0581 -0.2245
  537MOL0     H74056  12.793   8.191   5.049 -0.0851  3.4574  0.6961
  537MOL0     H74057  12.628   8.235   5.030  1.9903  1.0172 -0.2731
  537MOL0     H74058  12.751   7.978   4.914  2.4546  1.3653  0.6792
  537MOL0     H74059  12.586   8.014   4.884  1.2713 -0.9850 -1.2935
  537MOL0     H74060  12.642   8.204   4.740  1.4370  1.0304 -4.3391
  537MOL0     H74061  12.816   8.172   4.773 -0.7439  0.9260  0.3016
  537MOL0     H74062  12.743   8.087   4.556 -1.8797  0.1439 -1.2381
  537MOL0     H74063  12.791   7.945   4.652 -0.1538 -1.7066 -3.8326
  537MOL0     H74064  12.354   7.875   4.581  1.1212 -0.2454 -0.4558
  537MOL0     H74065  12.075   7.961   4.621 -0.2320  0.4909 -0.3143
  537MOL0     H74066  12.140   7.861   4.490 -0.6306  1.9768 -3.2158
  537MOL0     H74067  12.051   8.007   4.454  0.1866 -4.1881 -4.2821
  537MOL0     H74068  12.029   8.546   4.237 -0.7667  0.7420 -1.3389
  537MOL0     H74069  11.797   8.574   4.150  0.7435 -1.5273 -4.7823
  537MOL0     H74070  11.572   8.591   4.235 -0.5004  1.4675 -1.0835
  537MOL0     H74071  11.602   8.579   4.070  0.7448  1.7261  0.9907
  537MOL0     H74072  11.331   8.583   4.152  0.0948  0.6027  2.6950
  537MOL0     H74073  11.389   8.444   4.049  0.7414  2.1583 -1.5651
  537MOL0     H74074  11.379   8.465   4.343 -1.5473 -1.4747  3.0049
  537MOL0     H74075  11.384   8.316   4.249 -0.3209 -0.4055 -2.3739
  537MOL0     H74076  11.151   8.343   4.171 -0.4729 -0.0566 -1.1348
  537MOL0     H74077  11.139   8.504   4.248 -1.2581 -0.5428 -1.2588
  537MOL0     H74078  11.176   8.227   4.373  3.3208  1.1123 -2.3597
  537MOL0     H74079  11.208   8.378   4.465  2.5264 -0.0963 -1.6559
  537MOL0     H74080  10.959   8.283   4.318  1.1381  0.6804 -1.7042
  537MOL0     H74081  10.967   8.443   4.405 -2.9470 -1.6197  1.8803
  537MOL0     H74082  10.956   8.347   4.623 -0.5549  0.6907 -1.1094
  537MOL0     H74083  11.036   8.199   4.555  0.0131 -0.6128 -3.1781
  537MOL0     H74084  10.754   8.263   4.449  0.5115 -1.3333 -1.7120
  537MOL0     H74085  10.772   8.196   4.614  2.3090  0.6514 -0.3997
  537MOL0     H74086  11.686   8.186   4.245 -0.4453  0.1853  2.2496
  537MOL0     H74087  11.929   8.130   4.314 -0.4413 -0.8501  0.5811
  537MOL0     H74088  12.393   8.336   4.426  4.7524 -0.1159  0.6484
  537MOL0     H74089  12.583   8.238   4.504 -0.7846  0.9965  0.9424
  537MOL0     H74090  11.832   7.087   5.212 -0.2638 -0.1959 -0.6624
  537MOL0     H74091  11.610   7.077   5.100  0.0066 -0.3550 -0.6056
  537MOL0     H74092  11.397   7.424   4.784  1.9915 -1.5180 -2.6004
  537MOL0     H74093  11.249   7.486   4.613  0.4878 -0.2820  0.4471
  537MOL0     H74094  10.982   7.510   4.612  3.4326  1.4032 -1.1840
  537MOL0     H74095  11.043   7.541   4.455  0.7142 -1.3747  0.4642
  537MOL0     H74096  10.832   7.464   4.361 -0.2483 -5.2099  0.5026
  537MOL0     H74097  10.807   7.583   4.494  0.0883 -0.4191  2.6499
  537MOL0     H74098  10.755   7.283   4.471 -1.7407  0.8801 -0.4966
  537MOL0     H74099  10.772   7.340   4.637 -2.5930  4.5986  2.5928
  537MOL0     H74100  10.525   7.352   4.513 -1.7158  0.5238 -1.0760
  537MOL0     H74101  10.587   7.491   4.432 -1.8026 -2.1611 -1.9646
  537MOL0     H74102  10.441   7.631   4.806 -1.1369  0.9379 -0.4226
  537MOL0     H74103  11.058   7.102   4.637 -1.0662 -1.0497  2.0245
  537MOL0     H74104  11.315   6.933   4.805  0.3469  0.1629 -5.9591
  537MOL0     H74105  11.162   6.982   4.896  0.3118 -0.3442  0.1463
  537MOL0     H74106  11.164   6.912   4.736 -1.7173 -0.2851  0.5044
  538MOL0     O74107  10.176   2.535   4.853 -0.1789 -0.0603 -0.0034
  538MOL0     C74108  10.205   2.596   4.754 -0.1091  0.7228 -0.2172
  538MOL0     O74109  10.133   2.683   4.696 -0.0742 -0.4812  0.3460
  538MOL0     C74110  10.016   2.718   4.755  0.6287  0.2648 -0.7218
  538MOL0     C74111  10.002   2.819   4.850 -0.9531 -0.4676  0.1221
  538MOL0     C74112   9.881   2.838   4.919  0.8220 -0.6543  1.0266
  538MOL0     C74113   9.769   2.755   4.885 -0.0503  0.6924  0.1261
  538MOL0     O74114   9.652   2.779   4.947 -0.3382 -0.7208  0.4236
  538MOL0     C74115   9.610   2.688   5.051 -0.4601 -0.1473 -0.0440
  538MOL0     C74116   9.455   2.695   5.081 -0.4421 -0.1445  0.5143
  538MOL0     C74117   9.402   2.843   5.100 -0.9398 -0.1775 -0.3733
  538MOL0     C74118   9.469   2.926   5.220  0.1696  0.6720  0.3341
  538MOL0     C74119   9.422   3.078   5.202  0.0288 -0.1653 -0.0572
  538MOL0     C74120   9.509   3.171   5.280  0.0187  0.3021 -0.7240
  538MOL0     C74121   9.643   3.191   5.223  0.0443  0.7341 -0.4239
  538MOL0     C74122   9.640   3.257   5.084 -0.2633  0.3724 -0.1012
  538MOL0     N74123   9.775   3.303   5.044  0.9287 -0.9535  0.1893
  538MOL0     C74124   9.791   3.434   5.019  0.3485 -0.2080 -0.5882
  538MOL0     C74125   9.908   3.432   4.956 -0.7103 -0.7163  0.4628
  538MOL0     C74126   9.973   3.559   4.902  0.2965  0.2379 -0.7451
  538MOL0     C74127   9.980   3.672   5.005  0.2124  0.7391  0.1139
  538MOL0     C74128  10.096   3.644   5.114  0.2280 -0.3672  0.1496
  538MOL0     C74129  10.061   3.718   5.245 -0.8298 -0.5447 -0.4966
  538MOL0     O74130   9.973   3.626   5.324  0.2766 -0.6022  0.0906
  538MOL0     C74131   9.991   3.622   5.459  0.2794 -0.3942 -0.3399
  538MOL0     C74132  10.038   3.733   5.533  0.1257 -0.4816  0.3790
  538MOL0     C74133  10.060   3.729   5.671 -0.1600 -0.5417 -0.8588
  538MOL0     C74134  10.104   3.861   5.736 -0.2796 -0.4308 -0.0782
  538MOL0     C74135  10.035   3.609   5.742 -0.0374 -0.7567 -0.1079
  538MOL0     C74136  10.048   3.596   5.888  0.2124  0.1332  0.4480
  538MOL0     O74137  10.171   3.645   5.944 -0.0504  0.2587  0.0010
  538MOL0     C74138  10.195   3.628   6.075 -0.6785  0.6799  0.1191
  538MOL0     C74139  10.116   3.700   6.162  0.1080 -0.2485 -0.7582
  538MOL0     C74140  10.131   3.689   6.305 -1.0490  0.5645  1.0513
  538MOL0     C74141  10.214   3.593   6.357 -0.9042  0.1185 -0.6781
  538MOL0     O74142  10.233   3.578   6.490  0.2918 -0.1743 -0.1119
  538MOL0     C74143  10.111   3.550   6.560 -0.2890  0.6306  0.2894
  538MOL0     C74144  10.131   3.588   6.708 -0.8202 -1.0802 -0.0219
  538MOL0     C74145   9.998   3.568   6.792  1.1452 -0.8808  0.3001
  538MOL0     C74146  10.041   3.578   6.942  0.0499 -0.2458 -1.2393
  538MOL0     C74147   9.922   3.599   7.035  0.5789 -0.5237  1.1000
  538MOL0     C74148   9.861   3.459   7.055  0.6387 -0.4655  0.5341
  538MOL0     C74149   9.731   3.472   7.137 -0.3066 -0.3712  0.0416
  538MOL0     C74150   9.674   3.334   7.174  0.2141 -0.3990  0.4552
  538MOL0    Cl74151   9.766   3.231   7.267  0.3280 -0.4291 -0.3855
  538MOL0     C74152  10.284   3.513   6.268  1.3167 -0.2346  0.3839
  538MOL0     C74153  10.272   3.527   6.132 -0.5124  0.5871 -0.2872
  538MOL0     O74154   9.971   3.527   5.955 -0.2344  0.0621  0.6480
  538MOL0     C74155   9.989   3.498   5.667  0.1148  0.4193  0.2473
  538MOL0     C74156   9.971   3.504   5.530 -0.0332  0.5902 -0.2265
  538MOL0     N74157   9.958   3.303   4.941 -0.3434  0.0226  0.5483
  538MOL0     N74158   9.884   3.228   5.015  0.4619  0.1968 -0.3560
  538MOL0     C74159   9.786   2.657   4.788  0.1691  0.0088 -0.4694
  538MOL0     C74160   9.904   2.638   4.731 -0.5221  0.3990  0.2449
  538MOL0     C74161  10.340   2.567   4.698 -0.5897  0.8410 -0.5787
  538MOL0     C74162  10.406   2.673   4.633 -0.1950 -0.0866  1.0489
  538MOL0     C74163  10.529   2.656   4.562  0.6445 -0.7238 -0.6550
  538MOL0     C74164  10.578   2.537   4.544 -0.3982 -0.0947 -0.2485
  538MOL0     O74165  10.698   2.514   4.480 -0.0511 -0.4620  0.0407
  538MOL0     C74166  10.756   2.604   4.384  0.3885  0.3898  0.9231
  538MOL0     C74167  10.845   2.705   4.442 -0.1750  0.6814 -0.5861
  538MOL0     C74168  10.934   2.634   4.549  0.2063 -0.6112 -0.0231
  538MOL0     C74169  11.065   2.709   4.571 -0.3456  0.4020 -0.2068
  538MOL0     C74170  11.052   2.820   4.663 -0.3203 -0.2491  0.0599
  538MOL0     C74171  11.041   2.910   4.745 -0.0764 -0.0019  0.0632
  538MOL0     C74172  10.515   2.430   4.603 -0.9613 -0.1435  0.5331
  538MOL0     C74173  10.393   2.437   4.678  0.4314 -0.1795  0.6121
  538MOL0     C74174  10.328   2.313   4.736  0.0036  0.1009 -0.1037
  538MOL0     H74175  10.080   2.894   4.859  0.5645 -1.9872 -0.0310
  538MOL0     H74176   9.871   2.914   4.996  1.3960 -0.4311  0.8831
  538MOL0     H74177   9.674   2.716   5.135  3.1866 -0.1539 -2.6015
  538MOL0     H74178   9.619   2.585   5.016 -1.9095 -0.0416 -0.8223
  538MOL0     H74179   9.407   2.656   4.991  2.1473  1.5883 -1.7964
  538MOL0     H74180   9.429   2.638   5.171 -0.8705 -1.4620 -0.4176
  538MOL0     H74181   9.416   2.901   5.008  1.4681 -0.1502 -0.0707
  538MOL0     H74182   9.296   2.827   5.121 -0.9965 -1.1033 -1.2915
  538MOL0     H74183   9.434   2.886   5.316 -2.1522  1.0232 -0.3074
  538MOL0     H74184   9.578   2.928   5.224  0.1448 -0.0887  2.9126
  538MOL0     H74185   9.318   3.080   5.237 -0.3287 -0.5662 -1.0350
  538MOL0     H74186   9.423   3.108   5.097 -0.9370 -0.5837 -0.2003
  538MOL0     H74187   9.458   3.268   5.274  2.5127  1.6169 -2.1200
  538MOL0     H74188   9.498   3.145   5.386 -1.0244  3.5756  0.0791
  538MOL0     H74189   9.692   3.094   5.213 -1.2988 -0.0153  0.0702
  538MOL0     H74190   9.697   3.253   5.296 -1.4514 -0.7779  2.0880
  538MOL0     H74191   9.606   3.178   5.017 -0.5662 -0.0746  0.5730
  538MOL0     H74192   9.571   3.341   5.096 -1.6827 -0.3928 -2.3327
  538MOL0     H74193   9.723   3.515   5.042 -0.4353 -1.0061 -0.0450
  538MOL0     H74194   9.925   3.595   4.810 -1.6714 -3.0985 -1.1874
  538MOL0     H74195  10.074   3.527   4.873  0.1773 -0.2524 -0.6177
  538MOL0     H74196  10.000   3.767   4.954  2.1099  0.4322  0.2023
  538MOL0     H74197   9.885   3.688   5.056  3.1531  1.4509  6.4208
  538MOL0     H74198  10.099   3.536   5.131 -2.1616 -0.7063 -1.1689
  538MOL0     H74199  10.186   3.682   5.065 -1.1312  0.6499 -1.6748
  538MOL0     H74200  10.156   3.743   5.294 -0.3331 -0.8483 -1.2802
  538MOL0     H74201  10.006   3.812   5.231 -0.1893  1.0876  5.3210
  538MOL0     H74202  10.066   3.828   5.489  1.5413  0.4846  3.1560
  538MOL0     H74203  10.074   3.875   5.841 -1.0043 -0.5771 -0.2554
  538MOL0     H74204  10.069   3.950   5.684 -2.0673 -0.4650  0.9511
  538MOL0     H74205  10.212   3.872   5.738 -0.4795  4.2011 -2.4244
  538MOL0     H74206  10.054   3.785   6.133  1.4184  2.3990  3.2852
  538MOL0     H74207  10.073   3.752   6.372 -2.8707 -0.3661  0.4052
  538MOL0     H74208  10.022   3.601   6.521 -0.3235  1.4768  1.4192
  538MOL0     H74209  10.086   3.446   6.581 -1.4597  0.5677 -1.2543
  538MOL0     H74210  10.206   3.521   6.752 -0.8704 -0.1515  1.5610
  538MOL0     H74211  10.166   3.692   6.709 -0.5069 -1.1435 -2.0071
  538MOL0     H74212   9.946   3.478   6.758 -2.0088  0.3708  1.4572
  538MOL0     H74213   9.933   3.655   6.775  2.6745  0.3294  0.4504
  538MOL0     H74214  10.104   3.667   6.947 -0.8336  0.3428  0.0488
  538MOL0     H74215  10.092   3.486   6.972  0.3811  1.0779  2.9130
  538MOL0     H74216   9.965   3.650   7.121  0.4405  0.1059  0.7973
  538MOL0     H74217   9.835   3.654   6.998  0.9494 -2.5624 -3.6766
  538MOL0     H74218   9.933   3.401   7.114  0.7868 -1.2007 -0.3284
  538MOL0     H74219   9.843   3.410   6.958 -1.5633 -1.4395  1.3900
  538MOL0     H74220   9.657   3.533   7.084  0.2692 -0.6809 -1.1629
  538MOL0     H74221   9.758   3.519   7.232 -0.2093  0.0174 -0.1762
  538MOL0     H74222   9.633   3.270   7.096  1.0464 -2.4267  1.6000
  538MOL0     H74223   9.592   3.369   7.238 -2.8913 -2.8817 -1.8398
  538MOL0     H74224  10.334   3.427   6.310  1.8293 -1.7452 -2.9874
  538MOL0     H74225  10.325   3.452   6.075 -0.0177 -0.1069  1.0494
  538MOL0     H74226   9.965   3.400   5.708  0.1051  0.0813 -0.5316
  538MOL0     H74227   9.917   3.427   5.476 -0.0577  0.0358  0.5577
  538MOL0     H74228   9.705   2.591   4.756  2.6091 -3.5119  0.0885
  538MOL0     H74229   9.921   2.554   4.665  3.2108 -0.4492  1.9975
  538MOL0     H74230  10.362   2.771   4.644 -1.8543 -0.7004  0.1552
  538MOL0     H74231  10.575   2.748   4.527  0.3962 -0.2290  0.2957
  538MOL0     H74232  10.802   2.544   4.305 -2.9184 -1.4576  0.1851
  538MOL0     H74233  10.680   2.664   4.332 -0.2062  0.3071  1.6755
  538MOL0     H74234  10.791   2.784   4.496 -0.2820 -0.5568  1.1718
  538MOL0     H74235  10.911   2.753   4.369 -0.4896  3.6739  0.9252
  538MOL0     H74236  10.877   2.623   4.642  0.6518  0.9309  0.4603
  538MOL0     H74237  10.954   2.530   4.525 -2.7436 -2.0474  3.0173
  538MOL0     H74238  11.104   2.749   4.477  1.7870  0.4715  0.6392
  538MOL0     H74239  11.153   2.651   4.601 -0.5558  0.4481  0.5120
  538MOL0     H74240  11.024   2.993   4.810  1.9148  1.7167 -1.4661
  538MOL0     H74241  10.566   2.336   4.587  1.3937  0.9443  1.2737
  538MOL0     H74242  10.328   2.318   4.845 -0.8144  1.4293 -0.1478
  538MOL0     H74243  10.226   2.287   4.707  0.4222 -5.4798  2.1681
  538MOL0     H74244  10.379   2.224   4.696 -1.4230  0.2487 -2.4399
  539MOL0     O74245   2.555   2.636   9.368  0.2783  0.3710 -0.4015
  539MOL0     C74246   2.609   2.741   9.317  0.3159  0.0713 -0.5921
  539MOL0     O74247   2.684   2.748   9.202  0.6953 -0.5912  0.3052
  539MOL0     C74248   2.724   2.627   9.152 -0.1933 -0.6211 -0.4470
  539MOL0     C74249   2.640   2.540   9.080 -0.0156 -0.0196 -0.8602
  539MOL0     C74250   2.688   2.424   9.019  0.1963  0.4308  0.0429
  539MOL0     C74251   2.822   2.388   9.026 -0.7591 -0.0109  0.4970
  539MOL0     O74252   2.879   2.285   8.957  0.5765  0.2912 -0.2743
  539MOL0     C74253   2.796   2.164   8.944 -0.3322 -1.0832 -0.4911
  539MOL0     C74254   2.889   2.054   8.878 -1.0359 -0.6350 -0.0801
  539MOL0     C74255   2.966   2.101   8.753 -0.0699  0.0784 -0.1668
  539MOL0     C74256   3.045   1.989   8.680 -0.3649  0.4380  0.2004
  539MOL0     C74257   3.080   2.023   8.528 -0.6950 -0.0456 -0.3355
  539MOL0     C74258   3.190   2.138   8.509 -0.9902  0.5548 -0.2891
  539MOL0     C74259   3.336   2.096   8.565 -0.0443  0.1051  0.3605
  539MOL0     C74260   3.453   2.128   8.476 -0.5315  0.1627  0.1496
  539MOL0     N74261   3.588   2.124   8.530 -0.8641 -0.2027 -0.1841
  539MOL0     C74262   3.712   2.117   8.468 -0.8945  0.4390  0.2392
  539MOL0     C74263   3.802   2.179   8.558  0.7271  0.2342  0.1371
  539MOL0     C74264   3.957   2.184   8.544  0.5746 -0.1966  1.6377
  539MOL0     C74265   3.991   2.217   8.389 -0.1697  0.1233  0.5559
  539MOL0     C74266   4.140   2.176   8.360  0.1092 -0.0251  1.1831
  539MOL0     C74267   4.239   2.242   8.457 -0.1158  0.4188  0.2469
  539MOL0     O74268   4.219   2.383   8.465 -0.8759 -0.1517  0.2074
  539MOL0     C74269   4.225   2.469   8.355 -0.3472  1.3267  0.2433
  539MOL0     C74270   4.169   2.602   8.368  0.3687 -0.3267  0.4713
  539MOL0     C74271   4.193   2.698   8.272  0.0681  0.1426 -0.0033
  539MOL0     C74272   4.136   2.837   8.304 -0.1668  0.0053 -0.5709
  539MOL0     C74273   4.272   2.669   8.156 -1.2892 -0.0774 -0.2233
  539MOL0     C74274   4.304   2.761   8.045  0.1825 -0.2114  0.3708
  539MOL0     O74275   4.302   2.893   8.083 -0.3079 -0.1155 -0.1439
  539MOL0     C74276   4.334   2.997   8.002  0.0495 -0.4061 -0.3057
  539MOL0     C74277   4.396   3.103   8.069  0.6622 -1.3397 -1.0283
  539MOL0     C74278   4.433   3.223   8.000 -0.0307  0.0302  0.3275
  539MOL0     C74279   4.431   3.219   7.858  0.7553 -0.0827 -0.1780
  539MOL0     O74280   4.506   3.326   7.808 -0.0429  0.2931  0.4136
  539MOL0     C74281   4.517   3.328   7.661 -0.1016  0.6450 -0.1658
  539MOL0     C74282   4.588   3.454   7.626 -0.7052 -0.8059 -0.0667
  539MOL0     C74283   4.582   3.466   7.472 -0.3162  0.5153  0.1888
  539MOL0     C74284   4.678   3.566   7.427 -0.3350 -0.5675  0.2002
  539MOL0     C74285   4.693   3.554   7.277 -0.0119 -0.4017 -0.0189
  539MOL0     C74286   4.808   3.646   7.228  0.8938  0.8629 -0.2671
  539MOL0     C74287   4.943   3.591   7.270  0.5089 -0.0081 -0.1339
  539MOL0     C74288   5.066   3.673   7.228 -0.3115  0.3086  1.1326
  539MOL0    Cl74289   5.079   3.838   7.304 -0.3764 -0.1318 -0.1305
  539MOL0     C74290   4.362   3.112   7.789 -0.3806  0.0338 -0.2836
  539MOL0     C74291   4.308   3.006   7.866 -0.0604  0.4438  0.5767
  539MOL0     O74292   4.343   2.724   7.934 -0.3744 -0.8851  0.5821
  539MOL0     C74293   4.318   2.538   8.144  0.4782 -0.2821 -0.3735
  539MOL0     C74294   4.295   2.438   8.239  0.7429 -0.3589  0.7358
  539MOL0     N74295   3.737   2.207   8.676  0.2184 -0.2279  0.1657
  539MOL0     N74296   3.608   2.185   8.655 -0.7826  0.6593 -0.1298
  539MOL0     C74297   2.914   2.468   9.100 -0.1893  0.5844  0.1802
  539MOL0     C74298   2.865   2.590   9.148  1.1921 -0.4019 -0.1038
  539MOL0     C74299   2.558   2.863   9.380  0.1855 -0.2719  0.0159
  539MOL0     C74300   2.557   2.860   9.523  0.1343  0.4378 -0.2924
  539MOL0     C74301   2.507   2.972   9.601  0.8931  0.2773  0.5588
  539MOL0     C74302   2.482   3.100   9.531  0.3806  0.2432 -0.0766
  539MOL0     O74303   2.448   3.214   9.610 -0.4380  0.7020  0.6216
  539MOL0     C74304   2.475   3.346   9.569  1.0439 -0.7658  0.8355
  539MOL0     C74305   2.614   3.359   9.517  0.2669 -0.2767  0.5076
  539MOL0     C74306   2.656   3.509   9.477  0.0337 -0.6204  0.2270
  539MOL0     C74307   2.634   3.531   9.326 -0.9095  1.3690 -1.0715
  539MOL0     C74308   2.489   3.527   9.293 -0.1060  0.3264  0.3535
  539MOL0     C74309   2.375   3.506   9.268  0.4834  0.1867  0.6548
  539MOL0     C74310   2.487   3.101   9.392 -1.1195  0.0818  0.5604
  539MOL0     C74311   2.520   2.985   9.320  0.4330 -1.6586  0.0783
  539MOL0     C74312   2.500   3.006   9.171 -1.2117  0.4947 -0.2999
  539MOL0     H74313   2.535   2.565   9.074 -0.1145  0.0696  0.8649
  539MOL0     H74314   2.610   2.369   8.968 -1.9142  1.7977  1.6689
  539MOL0     H74315   2.712   2.178   8.876  1.6028 -3.7860 -3.7509
  539MOL0     H74316   2.765   2.119   9.039  0.7122  1.3482  1.1099
  539MOL0     H74317   2.967   2.025   8.950 -0.1977 -2.6411 -1.6902
  539MOL0     H74318   2.839   1.958   8.866 -0.7747 -0.6041 -1.6207
  539MOL0     H74319   2.906   2.137   8.669  1.2304  0.1979 -1.0687
  539MOL0     H74320   3.036   2.177   8.789 -0.9025 -0.5713  3.1652
  539MOL0     H74321   3.140   1.954   8.721  1.1505 -1.1989 -4.1518
  539MOL0     H74322   2.976   1.906   8.661  0.3935 -0.4594  1.2201
  539MOL0     H74323   2.984   2.053   8.485 -1.6021  1.6299  2.5431
  539MOL0     H74324   3.117   1.936   8.474  2.5831 -1.2767  3.3532
  539MOL0     H74325   3.191   2.167   8.404  0.7148 -1.5549 -0.9435
  539MOL0     H74326   3.161   2.227   8.565 -1.9336 -0.5996  1.1322
  539MOL0     H74327   3.354   1.989   8.574  3.4802  0.3053 -2.1384
  539MOL0     H74328   3.339   2.140   8.666 -0.0119  1.0665 -0.0447
  539MOL0     H74329   3.445   2.061   8.389 -3.7052 -2.3913  2.1364
  539MOL0     H74330   3.440   2.231   8.442  1.8374  1.6751  3.4069
  539MOL0     H74331   3.735   2.072   8.371  0.1397 -1.5017  1.3075
  539MOL0     H74332   3.988   2.082   8.569 -4.4814 -2.6870 -0.6448
  539MOL0     H74333   4.007   2.252   8.613  1.3706 -0.2320  1.1057
  539MOL0     H74334   3.914   2.171   8.326 -1.1604 -1.1560  2.6281
  539MOL0     H74335   3.985   2.323   8.359  0.2455 -0.2246 -0.8180
  539MOL0     H74336   4.164   2.069   8.360  1.3929  0.2040  3.5390
  539MOL0     H74337   4.156   2.221   8.262 -1.9826 -1.3376  0.1652
  539MOL0     H74338   4.234   2.200   8.558  0.2704 -0.6281 -0.1547
  539MOL0     H74339   4.339   2.222   8.420 -1.0864  0.2256 -2.4394
  539MOL0     H74340   4.124   2.631   8.463  1.7935  1.9934  0.5038
  539MOL0     H74341   4.064   2.832   8.386 -1.6272  1.1107 -1.7384
  539MOL0     H74342   4.081   2.879   8.220  0.9741  1.5244 -0.5988
  539MOL0     H74343   4.220   2.905   8.320 -0.3183  0.2258 -0.7009
  539MOL0     H74344   4.398   3.095   8.178  0.0759  0.0091 -0.9032
  539MOL0     H74345   4.488   3.302   8.049 -0.1878  0.7434 -0.6207
  539MOL0     H74346   4.584   3.247   7.630  2.6417  2.8816 -0.4144
  539MOL0     H74347   4.419   3.334   7.612  0.4438  5.5291 -1.0991
  539MOL0     H74348   4.533   3.537   7.672  0.0997 -0.5578  0.4655
  539MOL0     H74349   4.693   3.446   7.656 -0.3780  0.3141 -0.8368
  539MOL0     H74350   4.484   3.510   7.452 -0.1531  1.1989  0.8504
  539MOL0     H74351   4.583   3.366   7.426 -2.1525  0.5997 -0.1313
  539MOL0     H74352   4.774   3.552   7.476 -0.4538 -0.4921  0.4603
  539MOL0     H74353   4.642   3.666   7.453  0.6817 -0.4859  1.3810
  539MOL0     H74354   4.723   3.455   7.245 -0.2267 -0.6819  0.6167
  539MOL0     H74355   4.598   3.566   7.224 -0.2442 -2.3849 -0.1143
  539MOL0     H74356   4.800   3.750   7.264  1.9149  1.4294 -1.5959
  539MOL0     H74357   4.809   3.648   7.119  1.0868 -1.2259 -0.3312
  539MOL0     H74358   4.954   3.488   7.234  1.4949 -0.4612  1.3677
  539MOL0     H74359   4.963   3.581   7.377  3.1150 -1.5490 -0.6870
  539MOL0     H74360   5.074   3.674   7.119  0.1614  1.2735  1.1681
  539MOL0     H74361   5.158   3.617   7.247  0.9211  0.9704 -2.2093
  539MOL0     H74362   4.322   3.115   7.688 -1.3839  3.3097  0.0629
  539MOL0     H74363   4.246   2.927   7.826  0.7995  0.1397 -0.1903
  539MOL0     H74364   4.384   2.515   8.061  1.1101 -1.5739  0.4577
  539MOL0     H74365   4.326   2.334   8.239 -0.7739 -0.8317  0.7749
  539MOL0     H74366   3.018   2.440   9.112  0.2842  1.1960 -2.0149
  539MOL0     H74367   2.938   2.653   9.198  2.6933 -1.3868 -0.9687
  539MOL0     H74368   2.591   2.777   9.584 -3.4220  0.0426  1.4405
  539MOL0     H74369   2.495   2.956   9.708  1.2390 -2.7428  0.2519
  539MOL0     H74370   2.401   3.384   9.498  0.6436 -0.7850  1.2376
  539MOL0     H74371   2.480   3.409   9.659  2.2123  4.0513 -2.1880
  539MOL0     H74372   2.624   3.302   9.424  5.0343  2.6257 -1.1140
  539MOL0     H74373   2.679   3.314   9.594 -2.1071 -2.8338  1.1914
  539MOL0     H74374   2.612   3.590   9.536 -2.7841 -0.8195 -1.4032
  539MOL0     H74375   2.763   3.525   9.496  0.4835 -0.5654 -2.0495
  539MOL0     H74376   2.698   3.463   9.269  2.9989  3.1178  0.8725
  539MOL0     H74377   2.673   3.631   9.305  1.1829  0.9413  0.5375
  539MOL0     H74378   2.276   3.476   9.239 -0.5157  2.7165  1.1752
  539MOL0     H74379   2.462   3.191   9.337 -1.9530 -0.1228  0.6025
  539MOL0     H74380   2.600   3.010   9.127 -0.8365  0.0402  0.5034
  539MOL0     H74381   2.444   2.925   9.122  0.8080  0.0842 -2.0580
  539MOL0     H74382   2.445   3.096   9.143  0.1466  1.6385  0.5850
  540MOL0     O74383   1.439  10.894   7.928  0.5187  0.1127  0.6264
  540MOL0     C74384   1.352  10.965   7.883 -0.4361 -0.7463 -0.2386
  540MOL0     O74385   1.232  10.919   7.834 -0.7425 -0.6079 -0.4984
  540MOL0     C74386   1.237  10.781   7.809  0.8073 -0.1059 -0.3313
  540MOL0     C74387   1.304  10.723   7.703 -0.5967  0.0289 -0.3516
  540MOL0     C74388   1.301  10.589   7.688 -0.2336  0.4062 -0.4300
  540MOL0     C74389   1.236  10.503   7.784  0.2222 -0.8320 -0.8025
  540MOL0     O74390   1.233  10.363   7.759  1.0779  0.3558 -0.4539
  540MOL0     C74391   1.146  10.277   7.846  1.6333 -0.9743  0.5482
  540MOL0     C74392   1.126  10.126   7.814 -0.4540  0.3955  0.4001
  540MOL0     C74393   1.005  10.051   7.869  0.4505  0.1713  0.1793
  540MOL0     C74394   0.952  10.127   7.992  0.2918 -0.3665  0.3860
  540MOL0     C74395   0.831  10.045   8.040 -0.2022 -1.0584  0.0067
  540MOL0     C74396   0.772  10.087   8.179  0.5659 -0.3944 -1.5314
  540MOL0     C74397   0.625  10.040   8.205  0.3513 -0.1515 -0.6005
  540MOL0     C74398   0.510  10.125   8.123 -0.5212 -0.6573 -0.5515
  540MOL0     N74399   0.503  10.255   8.184 -0.4215 -0.4779  0.0748
  540MOL0     C74400   0.536  10.374   8.119 -0.1906  0.0653 -0.4962
  540MOL0     C74401   0.478  10.459   8.206 -0.5752  0.3143 -1.2409
  540MOL0     C74402   0.460  10.605   8.189 -0.0464 -0.4618  1.1271
  540MOL0     C74403   0.557  10.686   8.268  0.2093  0.3862 -0.7418
  540MOL0     C74404   0.556  10.837   8.245  0.4265 -1.1484 -0.3032
  540MOL0     C74405   0.479  10.908   8.345 -0.1640 -0.6954 -0.4066
  540MOL0     O74406   0.455  11.037   8.295  0.0306 -1.1055  0.1921
  540MOL0     C74407   0.419  11.138   8.383 -0.3462  0.0591 -0.5357
  540MOL0     C74408   0.387  11.127   8.516 -0.7440  0.9212 -0.4854
  540MOL0     C74409   0.350  11.240   8.605 -1.4124  0.0847  0.4314
  540MOL0     C74410   0.310  11.200   8.739 -0.0269  0.2249  0.2219
  540MOL0     C74411   0.344  11.370   8.551 -1.1412 -0.5975  0.8062
  540MOL0     C74412   0.290  11.481   8.630  0.1893  0.2123 -0.4745
  540MOL0     O74413   0.223  11.570   8.560  0.4675  0.7922  0.2493
  540MOL0     C74414   0.187  11.677   8.637 -0.1221  0.4595 -0.1837
  540MOL0     C74415   0.080  11.644   8.729 -0.8196 -0.7890  0.3741
  540MOL0     C74416   0.010  11.750   8.792 -0.2862 -0.1866  0.2389
  540MOL0     C74417   0.041  11.885   8.765  0.5735  0.7535  0.0080
  540MOL0     O74418  -0.021  11.986   8.833 -0.4502  0.3650  0.4993
  540MOL0     C74419   0.025  12.120   8.836  0.8638 -0.0736 -0.1440
  540MOL0     C74420  -0.050  12.200   8.724  0.3242  0.5556  0.0227
  540MOL0     C74421  -0.204  12.197   8.732 -0.2690 -0.8625  0.1336
  540MOL0     C74422  -0.287  12.114   8.635 -0.0764  0.0430 -0.0746
  540MOL0     C74423  -0.425  12.180   8.632 -0.0188 -0.6067  0.6953
  540MOL0     C74424  -0.431  12.271   8.503  0.5310  0.6691  0.0824
  540MOL0     C74425  -0.561  12.340   8.491 -0.8725 -0.5594  0.0757
  540MOL0     C74426  -0.544  12.487   8.524 -0.1304  0.1788  0.8531
  540MOL0    Cl74427  -0.488  12.517   8.695 -0.1927  0.4763 -0.1789
  540MOL0     C74428   0.156  11.909   8.688 -0.1471  0.4030  0.9410
  540MOL0     C74429   0.223  11.806   8.615  1.4828  0.6867  0.8460
  540MOL0     O74430   0.324  11.484   8.753  0.7142  0.1334 -0.3500
  540MOL0     C74431   0.366  11.375   8.412 -0.6862 -0.4585 -0.6115
  540MOL0     C74432   0.405  11.270   8.332  0.6228  0.5557  0.0838
  540MOL0     N74433   0.419  10.390   8.310 -0.7909 -0.2222  0.4411
  540MOL0     N74434   0.447  10.269   8.304  1.0249 -0.1778  0.4720
  540MOL0     C74435   1.163  10.564   7.891  0.1893  0.8760  0.2842
  540MOL0     C74436   1.158  10.699   7.893 -0.6710 -0.5967  0.5543
  540MOL0     C74437   1.378  11.114   7.897 -0.4110  0.0343 -0.8531
  540MOL0     C74438   1.503  11.153   7.955  0.0105 -0.6490  0.0680
  540MOL0     C74439   1.541  11.284   7.989  0.1696 -1.3421 -0.1535
  540MOL0     C74440   1.455  11.390   7.972 -0.4935 -0.5918  0.2364
  540MOL0     O74441   1.501  11.512   8.008  0.0677 -0.0998 -0.1693
  540MOL0     C74442   1.442  11.571   8.129 -0.4010 -0.8678 -0.5227
  540MOL0     C74443   1.487  11.715   8.157 -0.0425 -0.1438  0.0356
  540MOL0     C74444   1.631  11.746   8.122  0.1784  0.1507 -0.3932
  540MOL0     C74445   1.681  11.866   8.212 -0.0716  0.4534 -0.5041
  540MOL0     C74446   1.657  11.992   8.154  0.1793 -0.0789 -0.5425
  540MOL0     C74447   1.630  12.087   8.092  0.6778  0.2499  0.3179
  540MOL0     C74448   1.330  11.362   7.909 -0.8768 -0.8890 -0.6040
  540MOL0     C74449   1.286  11.231   7.887  0.0108  0.8898  0.3829
  540MOL0     C74450   1.154  11.214   7.810 -0.0293  0.3101 -0.6447
  540MOL0     H74451   1.362  10.791   7.642  0.9758 -1.2162 -0.3224
  540MOL0     H74452   1.347  10.531   7.609 -2.1048  3.1755 -3.8064
  540MOL0     H74453   1.050  10.329   7.839  2.4467  0.3986 -1.5654
  540MOL0     H74454   1.178  10.280   7.950 -1.9707  0.3282  1.7681
  540MOL0     H74455   1.137  10.124   7.705  1.4039  1.7979  0.5046
  540MOL0     H74456   1.214  10.074   7.852 -0.1242 -0.2157 -1.1241
  540MOL0     H74457   0.926  10.046   7.793  1.9991 -0.5106 -1.4431
  540MOL0     H74458   1.031   9.951   7.905  0.9374  1.2576  3.1059
  540MOL0     H74459   1.019  10.122   8.078 -0.1971  0.3074  0.8195
  540MOL0     H74460   0.922  10.232   7.979 -0.4046 -0.4406  1.3065
  540MOL0     H74461   0.852   9.939   8.054 -1.7597 -1.1966  1.7546
  540MOL0     H74462   0.748  10.064   7.971  2.8088  1.8537 -3.2360
  540MOL0     H74463   0.834  10.045   8.259 -0.4688 -1.8431 -1.4407
  540MOL0     H74464   0.771  10.196   8.187  1.7358 -0.4978  1.7212
  540MOL0     H74465   0.602  10.054   8.311  0.6269 -0.5753 -0.4831
  540MOL0     H74466   0.616   9.934   8.177  1.5805  0.8202 -5.6522
  540MOL0     H74467   0.541  10.131   8.019 -1.0891  2.4081 -0.6265
  540MOL0     H74468   0.410  10.083   8.135  0.0364 -2.3841 -1.5233
  540MOL0     H74469   0.585  10.394   8.024  1.3472 -1.4382 -0.0687
  540MOL0     H74470   0.359  10.627   8.225 -0.2151  0.4122  0.1779
  540MOL0     H74471   0.469  10.635   8.084  1.0304  1.0604  1.6103
  540MOL0     H74472   0.534  10.670   8.373 -1.3632 -0.4791 -1.1818
  540MOL0     H74473   0.658  10.648   8.249  0.0711 -2.3863  2.9944
  540MOL0     H74474   0.653  10.885   8.255 -0.7021  1.2288 -0.0643
  540MOL0     H74475   0.534  10.856   8.139  1.2512 -0.5722 -0.3731
  540MOL0     H74476   0.380  10.865   8.366  0.2888 -1.3168  0.5401
  540MOL0     H74477   0.541  10.911   8.435  0.5454 -0.1040 -0.9113
  540MOL0     H74478   0.381  11.026   8.555 -3.5883  1.3078  0.2290
  540MOL0     H74479   0.244  11.270   8.790 -4.6540 -2.6359 -1.2568
  540MOL0     H74480   0.395  11.179   8.806 -1.5682 -0.4601  2.0561
  540MOL0     H74481   0.253  11.107   8.727 -1.6062  1.4090 -2.2030
  540MOL0     H74482   0.039  11.543   8.736 -0.1061 -1.0320  1.0731
  540MOL0     H74483  -0.077  11.735   8.855 -1.2982  1.1267 -0.7846
  540MOL0     H74484  -0.007  12.177   8.923 -0.8300  0.2189 -0.9257
  540MOL0     H74485   0.135  12.122   8.832  0.9245 -1.7053  0.2402
  540MOL0     H74486  -0.018  12.305   8.729 -1.7407  1.2220 -0.0187
  540MOL0     H74487  -0.017  12.162   8.627  0.4740 -0.2413  0.3777
  540MOL0     H74488  -0.235  12.301   8.721 -1.6466 -1.1389  1.1221
  540MOL0     H74489  -0.243  12.169   8.831 -1.4197  0.6430  0.1571
  540MOL0     H74490  -0.291  12.017   8.685 -1.8720  1.1651  2.1408
  540MOL0     H74491  -0.245  12.104   8.534 -3.0625  0.8072 -1.5291
  540MOL0     H74492  -0.497  12.098   8.618  1.8621 -2.4092  1.0313
  540MOL0     H74493  -0.455  12.228   8.725  2.2356  1.5107  0.4356
  540MOL0     H74494  -0.410  12.213   8.414 -0.5629  1.2993 -0.6108
  540MOL0     H74495  -0.340  12.331   8.512  0.3560  0.8828  0.4791
  540MOL0     H74496  -0.626  12.296   8.568  0.6689 -2.8871  0.1399
  540MOL0     H74497  -0.620  12.322   8.400 -2.7734 -2.5378  1.5799
  540MOL0     H74498  -0.639  12.537   8.503  0.5536  1.3511  0.4617
  540MOL0     H74499  -0.464  12.531   8.464 -0.3961  0.9893  1.0803
  540MOL0     H74500   0.192  12.009   8.664  2.9922 -1.2653 -2.2953
  540MOL0     H74501   0.294  11.822   8.535 -0.6436 -1.9785 -1.8241
  540MOL0     H74502   0.347  11.476   8.377 -0.9247 -0.4476 -0.4552
  540MOL0     H74503   0.406  11.278   8.224  1.1978  1.7916  0.1656
  540MOL0     H74504   1.113  10.516   7.974 -1.1399 -0.1316 -1.0435
  540MOL0     H74505   1.112  10.738   7.983  0.5126  1.6850  0.2538
  540MOL0     H74506   1.579  11.080   7.978  1.0920 -0.8154 -3.4895
  540MOL0     H74507   1.639  11.306   8.029  0.3404 -0.0566 -1.2194
  540MOL0     H74508   1.334  11.574   8.117 -0.4112 -0.1847 -0.2915
  540MOL0     H74509   1.462  11.509   8.218  3.8801 -0.6026 -1.0615
  540MOL0     H74510   1.477  11.749   8.261  1.9873  0.4645  0.0666
  540MOL0     H74511   1.412  11.765   8.095 -0.9222 -1.4261  0.0268
  540MOL0     H74512   1.681  11.650   8.136 -1.7254 -0.7326  0.6547
  540MOL0     H74513   1.640  11.771   8.016 -0.2991  0.4269 -0.3690
  540MOL0     H74514   1.789  11.854   8.228  0.0077 -0.1706 -1.4316
  540MOL0     H74515   1.638  11.859   8.312 -1.6864  0.9668 -1.1385
  540MOL0     H74516   1.617  12.164   8.019  0.0687  0.2451  0.4217
  540MOL0     H74517   1.274  11.452   7.885 -0.7308 -0.5839  0.1685
  540MOL0     H74518   1.168  11.175   7.709  0.1706  0.8753 -0.8372
  540MOL0     H74519   1.082  11.156   7.868 -1.1046  3.7082  1.6766
  540MOL0     H74520   1.111  11.314   7.805 -1.8673  0.1435  4.8777
  541MOL0     O74521  10.725  11.281   2.971 -0.6270  0.0867 -0.0138
  541MOL0     C74522  10.646  11.333   3.048  0.5452 -1.0786 -0.4565
  541MOL0     O74523  10.536  11.413   3.021  0.5809  0.1554 -0.2502
  541MOL0     C74524  10.508  11.442   2.890  1.0592  0.6809 -0.2218
  541MOL0     C74525  10.485  11.344   2.783  0.2253 -0.3952 -0.3778
  541MOL0     C74526  10.410  11.389   2.668  0.3463  0.3285 -0.2415
  541MOL0     C74527  10.377  11.522   2.644 -0.1779  0.3047 -0.7959
  541MOL0     O74528  10.315  11.570   2.537 -0.0676  0.2215  0.0501
  541MOL0     C74529  10.307  11.499   2.412  0.2686 -0.0886  0.7760
  541MOL0     C74530  10.433  11.516   2.330 -0.1970  0.6367  0.6387
  541MOL0     C74531  10.449  11.395   2.234  0.2855 -0.2287  0.2441
  541MOL0     C74532  10.470  11.264   2.304 -0.4005 -1.7242 -0.2460
  541MOL0     C74533  10.494  11.154   2.195 -0.2112 -0.4418 -0.4456
  541MOL0     C74534  10.487  11.016   2.264 -1.1354  0.2749  0.3865
  541MOL0     C74535  10.546  11.006   2.403  0.0121  0.1190 -0.8254
  541MOL0     C74536  10.539  10.861   2.456  0.3544  1.1123 -0.4482
  541MOL0     N74537  10.536  10.856   2.608  0.0937 -0.2584  0.3198
  541MOL0     C74538  10.430  10.805   2.674  0.6339  0.6248 -0.1728
  541MOL0     C74539  10.468  10.825   2.804 -0.2779 -0.1377  0.1034
  541MOL0     C74540  10.382  10.777   2.913 -0.2256 -0.4257  0.9040
  541MOL0     C74541  10.349  10.626   2.898 -0.6423  0.3062  0.3240
  541MOL0     C74542  10.476  10.545   2.920 -0.8038  0.1267  0.7814
  541MOL0     C74543  10.454  10.404   2.866  0.2936 -0.4242  1.6259
  541MOL0     O74544  10.452  10.432   2.724 -0.0554 -0.7152 -0.2354
  541MOL0     C74545  10.468  10.326   2.642  0.2768 -0.3245  0.1918
  541MOL0     C74546  10.499  10.356   2.505 -0.0804 -0.6710 -0.3683
  541MOL0     C74547  10.517  10.255   2.407 -0.8112  1.6057  0.4463
  541MOL0     C74548  10.534  10.298   2.264 -1.1366  0.2731  0.7039
  541MOL0     C74549  10.502  10.126   2.457 -0.2060  0.0189 -0.1287
  541MOL0     C74550  10.522  10.015   2.361  0.0340 -0.6128 -1.0829
  541MOL0     O74551  10.623   9.935   2.389  0.4232  0.4955 -0.3486
  541MOL0     C74552  10.639   9.833   2.307 -1.0669 -0.5290  0.8873
  541MOL0     C74553  10.756   9.828   2.230  0.2560  0.0182  0.0374
  541MOL0     C74554  10.780   9.711   2.154  0.4771  1.3549 -0.2996
  541MOL0     C74555  10.715   9.595   2.167  0.4595 -0.2379  0.6255
  541MOL0     O74556  10.738   9.482   2.090  0.0680 -0.1189 -0.0996
  541MOL0     C74557  10.871   9.446   2.063 -0.1378 -0.2479  0.3606
  541MOL0     C74558  10.920   9.368   2.189 -0.5380  0.0926 -0.0024
  541MOL0     C74559  11.022   9.258   2.145 -0.3418 -0.2732 -0.0234
  541MOL0     C74560  11.049   9.169   2.265  0.4592  0.1658 -1.0854
  541MOL0     C74561  11.143   9.046   2.227 -0.2419  0.7655  0.3433
  541MOL0     C74562  11.125   9.000   2.081 -0.0114 -0.9463  0.5703
  541MOL0     C74563  11.205   8.874   2.041  0.1762  0.2238 -0.2727
  541MOL0     C74564  11.111   8.753   2.038 -0.1581  0.5409  1.4971
  541MOL0    Cl74565  11.199   8.600   1.989 -0.2240 -0.0491  0.0756
  541MOL0     C74566  10.593   9.598   2.234 -0.0088 -0.1207  0.0410
  541MOL0     C74567  10.550   9.720   2.290  0.6146  0.7471  0.0495
  541MOL0     O74568  10.443  10.007   2.264  0.2700  0.0867 -0.4512
  541MOL0     C74569  10.474  10.100   2.588 -0.3148 -0.0273 -0.4271
  541MOL0     C74570  10.459  10.196   2.690  0.0983  0.0404  0.3563
  541MOL0     N74571  10.584  10.900   2.809  0.2495  0.8541 -0.1381
  541MOL0     N74572  10.621  10.926   2.689  0.5372  0.7206 -0.9670
  541MOL0     C74573  10.412  11.618   2.747 -0.1902 -0.2986  0.2911
  541MOL0     C74574  10.474  11.574   2.865  0.1467 -0.7254 -0.4941
  541MOL0     C74575  10.672  11.317   3.196  0.1524  0.8545 -0.1320
  541MOL0     C74576  10.696  11.184   3.241 -0.4873 -0.5983  0.7006
  541MOL0     C74577  10.728  11.147   3.369 -0.9319  0.5932  0.2649
  541MOL0     C74578  10.719  11.239   3.471  0.2363 -0.2243 -0.1636
  541MOL0     O74579  10.732  11.182   3.602 -0.3995 -0.1769 -0.0021
  541MOL0     C74580  10.736  11.267   3.713  0.8897  0.4399 -0.8788
  541MOL0     C74581  10.590  11.299   3.762 -0.5936 -1.2050 -0.7198
  541MOL0     C74582  10.518  11.182   3.830  0.5901  0.4381  0.3224
  541MOL0     C74583  10.379  11.227   3.897 -1.0738 -0.3656 -0.3831
  541MOL0     C74584  10.275  11.277   3.809  0.4040  0.1361  0.7900
  541MOL0     C74585  10.192  11.317   3.732  0.7778  2.1354  0.5131
  541MOL0     C74586  10.682  11.369   3.436 -0.5524  0.3357 -0.3463
  541MOL0     C74587  10.664  11.415   3.302  0.8416 -0.4808  0.2958
  541MOL0     C74588  10.637  11.559   3.293  0.7199 -0.4879 -0.0952
  541MOL0     H74589  10.504  11.237   2.788  0.5491 -0.3332 -0.2405
  541MOL0     H74590  10.387  11.312   2.595 -1.8048  0.4000  0.3167
  541MOL0     H74591  10.235  11.555   2.351  3.6539  3.1073 -0.6552
  541MOL0     H74592  10.262  11.400   2.428  0.4182 -0.0353  1.6159
  541MOL0     H74593  10.425  11.608   2.272  2.3019  0.2260 -0.4828
  541MOL0     H74594  10.519  11.521   2.397  1.4667  1.7654 -1.4889
  541MOL0     H74595  10.360  11.402   2.170  1.7979 -0.8882 -2.0289
  541MOL0     H74596  10.528  11.411   2.160 -0.0566 -5.0340 -1.5095
  541MOL0     H74597  10.553  11.275   2.374 -1.3419  1.8724  0.5198
  541MOL0     H74598  10.378  11.237   2.356 -2.0130 -1.2257 -2.6494
  541MOL0     H74599  10.591  11.179   2.150 -1.3616  2.9046 -1.3522
  541MOL0     H74600  10.419  11.166   2.116  0.1137 -1.4221 -0.9227
  541MOL0     H74601  10.379  10.997   2.270 -1.1604 -0.9964 -2.3617
  541MOL0     H74602  10.534  10.942   2.198 -3.2655  0.4010 -1.3841
  541MOL0     H74603  10.486  11.066   2.472  1.8783  0.1357  0.8883
  541MOL0     H74604  10.648  11.046   2.413 -0.3432  0.8775 -0.1789
  541MOL0     H74605  10.449  10.811   2.421  0.5197 -1.0058  1.8607
  541MOL0     H74606  10.634  10.813   2.431  0.7732  0.7989  1.5763
  541MOL0     H74607  10.342  10.757   2.632 -0.3247  0.6026  1.7870
  541MOL0     H74608  10.288  10.830   2.898  1.8574  3.2818 -0.3427
  541MOL0     H74609  10.422  10.795   3.014 -1.3269  1.3616  1.0771
  541MOL0     H74610  10.281  10.606   2.981 -0.3077  1.5359  0.9126
  541MOL0     H74611  10.298  10.606   2.803 -0.4150 -1.2149  0.5062
  541MOL0     H74612  10.550  10.589   2.853 -0.0050 -3.3904 -0.8802
  541MOL0     H74613  10.499  10.547   3.027 -2.7709 -1.1653  1.2764
  541MOL0     H74614  10.537  10.340   2.899  0.0854  0.0373  3.1094
  541MOL0     H74615  10.357  10.360   2.891  0.6180 -0.9714  1.9300
  541MOL0     H74616  10.522  10.457   2.473  2.7070 -1.7737 -2.3377
  541MOL0     H74617  10.538  10.406   2.246 -1.0351 -0.1403 -2.2833
  541MOL0     H74618  10.466  10.251   2.192 -0.3851 -0.3613  0.3922
  541MOL0     H74619  10.626  10.256   2.222 -0.9784  1.6964 -0.4567
  541MOL0     H74620  10.818   9.917   2.218  1.8505 -0.7395  1.9699
  541MOL0     H74621  10.865   9.712   2.086  0.7553  1.7459  0.0460
  541MOL0     H74622  10.884   9.381   1.976  2.1087  2.5646 -1.6090
  541MOL0     H74623  10.933   9.533   2.040  1.2851 -0.2662  3.6293
  541MOL0     H74624  10.957   9.438   2.264 -1.8045  0.3468  0.4080
  541MOL0     H74625  10.836   9.318   2.237  0.2417 -0.1187  1.1936
  541MOL0     H74626  11.118   9.301   2.117  0.6641 -2.1677  0.3637
  541MOL0     H74627  10.987   9.206   2.055 -2.7940  1.1785  0.0057
  541MOL0     H74628  10.957   9.117   2.295 -1.0177  2.9510 -0.4772
  541MOL0     H74629  11.074   9.232   2.350  0.7602  1.4747 -2.1088
  541MOL0     H74630  11.248   9.071   2.243  0.3968 -2.7338  2.6957
  541MOL0     H74631  11.116   8.957   2.285 -2.4878  2.1730  1.6092
  541MOL0     H74632  11.154   9.080   2.012 -0.7220  0.1863  1.5354
  541MOL0     H74633  11.018   8.979   2.068  0.4304 -1.7192 -2.8974
  541MOL0     H74634  11.290   8.860   2.108  2.0985 -1.7348 -2.9122
  541MOL0     H74635  11.237   8.899   1.939 -3.2912  2.9906 -0.9052
  541MOL0     H74636  11.048   8.784   1.955  1.6231 -0.5951 -0.3567
  541MOL0     H74637  11.063   8.738   2.136  2.2593  1.6222  2.9288
  541MOL0     H74638  10.524   9.516   2.223  0.9606 -1.1104  1.0218
  541MOL0     H74639  10.449   9.723   2.330  1.4200  2.0868  2.2136
  541MOL0     H74640  10.465   9.995   2.614  0.9808  0.2772  1.4296
  541MOL0     H74641  10.436  10.176   2.794 -0.7416  3.0578  0.8525
  541MOL0     H74642  10.376  11.720   2.736 -1.1088 -0.7343 -1.0356
  541MOL0     H74643  10.494  11.650   2.940  0.4676  2.4962 -3.5869
  541MOL0     H74644  10.683  11.103   3.169  1.3293  0.7899 -1.3393
  541MOL0     H74645  10.747  11.041   3.380 -1.7017  0.6657  3.0239
  541MOL0     H74646  10.795  11.218   3.791 -1.3192  0.0397  0.6322
  541MOL0     H74647  10.783  11.365   3.701 -0.8576  1.4281 -0.0564
  541MOL0     H74648  10.531  11.331   3.675 -3.9596 -0.1203  1.7684
  541MOL0     H74649  10.607  11.386   3.825  3.4174  2.3316 -5.7889
  541MOL0     H74650  10.514  11.106   3.752  1.9934 -1.2851  1.8367
  541MOL0     H74651  10.578  11.145   3.913 -1.4809 -3.1412  0.4035
  541MOL0     H74652  10.398  11.300   3.976 -1.2945  0.4825 -1.1018
  541MOL0     H74653  10.328  11.148   3.955 -3.6616  2.1784  1.0573
  541MOL0     H74654  10.106  11.317   3.668 -0.8979  2.3494  2.6576
  541MOL0     H74655  10.657  11.445   3.510 -0.8361  0.3039 -0.4067
  541MOL0     H74656  10.644  11.609   3.390 -2.4584 -0.7443  0.3702
  541MOL0     H74657  10.695  11.616   3.220  0.1721 -1.3786 -1.2531
  541MOL0     H74658  10.535  11.575   3.257  0.7127  0.7084  0.4111
  542MOL0     O74659   2.499  11.420   9.315  0.4440 -0.6871 -0.1795
  542MOL0     C74660   2.521  11.316   9.370 -0.2941  1.0189 -0.1747
  542MOL0     O74661   2.442  11.268   9.468 -0.6873 -0.2812 -0.8471
  542MOL0     C74662   2.339  11.346   9.530 -0.3356 -0.8164  0.4004
  542MOL0     C74663   2.214  11.283   9.558 -0.4673 -1.0840 -0.7737
  542MOL0     C74664   2.109  11.349   9.624 -0.6205  0.0202 -0.1031
  542MOL0     C74665   2.120  11.488   9.646  0.3753 -0.3781 -0.0591
  542MOL0     O74666   2.016  11.572   9.695 -0.1403 -0.5361  0.3551
  542MOL0     C74667   1.893  11.526   9.651  1.2321 -0.3515 -1.1269
  542MOL0     C74668   1.788  11.619   9.716  0.7732  0.7506 -0.4032
  542MOL0     C74669   1.737  11.571   9.852 -0.5903  0.5207  0.2933
  542MOL0     C74670   1.595  11.530   9.859 -0.1262  0.6681 -0.5170
  542MOL0     C74671   1.540  11.508   9.995 -0.4702  0.3041  0.4168
  542MOL0     C74672   1.597  11.381  10.056  0.4537 -0.5259  0.4108
  542MOL0     C74673   1.509  11.329  10.165  0.2619  0.3656 -0.3156
  542MOL0     C74674   1.536  11.380  10.312  0.6990  0.6412 -0.6444
  542MOL0     N74675   1.432  11.329  10.412 -0.3706  0.2742 -0.2484
  542MOL0     C74676   1.315  11.394  10.439  0.7817  0.2173  0.3576
  542MOL0     C74677   1.251  11.313  10.528 -0.6960  0.5808  0.7679
  542MOL0     C74678   1.113  11.347  10.581  0.6148  0.4572 -0.3207
  542MOL0     C74679   1.003  11.360  10.475  0.0303  0.0337  0.2956
  542MOL0     C74680   0.949  11.223  10.430  0.3383 -0.6641  0.0511
  542MOL0     C74681   1.039  11.133  10.345  0.3363 -0.1363  0.1598
  542MOL0     O74682   1.071  11.190  10.215 -0.4138 -0.3078  0.0793
  542MOL0     C74683   1.165  11.130  10.129 -0.4650  0.2161  0.5445
  542MOL0     C74684   1.220  11.206  10.025 -0.0021 -0.9787  0.1016
  542MOL0     C74685   1.313  11.151   9.930 -1.1031 -0.9488 -0.2721
  542MOL0     C74686   1.362  11.237   9.813 -0.5083 -0.4968 -0.7851
  542MOL0     C74687   1.378  11.025   9.969 -1.7022 -0.6829 -0.1591
  542MOL0     C74688   1.488  10.949   9.903  0.1881  0.4846 -0.7965
  542MOL0     O74689   1.484  10.818   9.906  0.2034  0.7901  0.3978
  542MOL0     C74690   1.574  10.746   9.832 -0.2463 -0.5080  0.0190
  542MOL0     C74691   1.565  10.745   9.699 -0.3967 -0.0377  1.4727
  542MOL0     C74692   1.639  10.661   9.612 -0.4531  0.1951 -0.0574
  542MOL0     C74693   1.740  10.587   9.676 -0.5267  0.3631 -0.6993
  542MOL0     O74694   1.826  10.519   9.607 -0.0936  0.2475 -0.3460
  542MOL0     C74695   1.768  10.422   9.521  0.6664 -0.1479  0.1355
  542MOL0     C74696   1.875  10.323   9.463 -0.0695  0.0013 -0.1549
  542MOL0     C74697   1.949  10.236   9.556 -0.3519 -1.3342  1.1201
  542MOL0     C74698   2.033  10.137   9.479  0.2544 -0.3892  0.3467
  542MOL0     C74699   2.164  10.109   9.549  0.3865  0.4261  0.5825
  542MOL0     C74700   2.148  10.022   9.677 -0.4492 -0.6199  0.4225
  542MOL0     C74701   2.136  10.102   9.808 -0.7030 -0.6736 -0.1703
  542MOL0     C74702   2.026  10.040   9.900 -0.8712 -0.2449 -0.6176
  542MOL0    Cl74703   1.866  10.126   9.881  0.0752 -0.3270 -0.0078
  542MOL0     C74704   1.757  10.585   9.817  0.3484  0.4779  0.3424
  542MOL0     C74705   1.667  10.656   9.894  1.0212 -1.5134 -0.9926
  542MOL0     O74706   1.582  11.017   9.864  0.1393 -0.6055 -0.1341
  542MOL0     C74707   1.310  10.946  10.062 -0.5132  1.1817  0.2797
  542MOL0     C74708   1.214  11.001  10.142 -0.0571 -0.2064  0.1733
  542MOL0     N74709   1.328  11.198  10.554  0.2931 -0.1720 -0.6758
  542MOL0     N74710   1.431  11.209  10.476 -0.0460 -0.2314 -0.3166
  542MOL0     C74711   2.239  11.551   9.611 -0.2922 -0.0423  0.3303
  542MOL0     C74712   2.343  11.486   9.543 -0.7422 -1.0113 -0.5623
  542MOL0     C74713   2.628  11.234   9.305 -0.2949  0.7296  0.2173
  542MOL0     C74714   2.691  11.143   9.390 -0.7581 -0.4750  0.1024
  542MOL0     C74715   2.807  11.072   9.350  0.3315  0.5067  0.2190
  542MOL0     C74716   2.863  11.085   9.219  0.3548  0.6574  0.4295
  542MOL0     O74717   2.976  11.013   9.187 -0.2142 -0.7078 -0.4804
  542MOL0     C74718   3.030  11.018   9.055  0.4123 -0.1962 -0.0417
  542MOL0     C74719   3.129  10.901   9.042 -0.6532  0.6520  0.7169
  542MOL0     C74720   3.220  10.926   8.918  0.3488 -0.5406 -0.6487
  542MOL0     C74721   3.344  10.831   8.912 -0.2076  1.1039 -0.1876
  542MOL0     C74722   3.440  10.861   9.020  0.5939 -0.7196 -0.7964
  542MOL0     C74723   3.533  10.861   9.105 -0.6503 -0.1576 -0.1511
  542MOL0     C74724   2.801  11.175   9.133  0.1715  0.5701  1.1891
  542MOL0     C74725   2.689  11.247   9.175 -0.0703  0.5755  0.3374
  542MOL0     C74726   2.629  11.351   9.078 -0.1946  0.3553 -1.3149
  542MOL0     H74727   2.209  11.177   9.539  0.2214 -1.6559  1.8667
  542MOL0     H74728   2.020  11.287   9.633 -1.5921  1.0419 -1.9328
  542MOL0     H74729   1.871  11.422   9.679  0.1032 -0.6120 -2.8042
  542MOL0     H74730   1.881  11.533   9.543  2.4621  0.9779 -1.2035
  542MOL0     H74731   1.840  11.713   9.737 -0.1768  0.7101  2.4956
  542MOL0     H74732   1.714  11.651   9.641  2.0177  1.4297 -1.3808
  542MOL0     H74733   1.803  11.487   9.879  0.0986  0.2116 -2.1361
  542MOL0     H74734   1.765  11.644   9.929  3.8062 -4.0514  3.7388
  542MOL0     H74735   1.542  11.617   9.819  0.3290  1.3185  0.2568
  542MOL0     H74736   1.577  11.443   9.796  0.1365  0.6391 -0.5536
  542MOL0     H74737   1.432  11.495   9.991 -1.0571  4.1802 -2.3087
  542MOL0     H74738   1.552  11.602  10.050  0.7854  1.1452 -1.1722
  542MOL0     H74739   1.613  11.300   9.985  2.3964  0.1752 -0.0023
  542MOL0     H74740   1.698  11.399  10.095  0.0979 -0.7607  1.4842
  542MOL0     H74741   1.513  11.221  10.155  2.2887  0.5068 -1.4758
  542MOL0     H74742   1.402  11.352  10.159  0.6072  1.9629 -0.8222
  542MOL0     H74743   1.638  11.353  10.342 -0.5919 -2.4309  1.3914
  542MOL0     H74744   1.526  11.489  10.314 -2.1178  0.4821 -1.7086
  542MOL0     H74745   1.287  11.493  10.406 -2.2008 -0.2217  1.2750
  542MOL0     H74746   1.123  11.445  10.630  1.4729  1.1727 -1.8288
  542MOL0     H74747   1.075  11.271  10.649 -3.3234  1.9230 -0.6617
  542MOL0     H74748   0.915  11.415  10.509 -2.1735 -1.7465 -2.1241
  542MOL0     H74749   1.050  11.420  10.396 -1.2839  1.1183  0.2931
  542MOL0     H74750   0.898  11.165  10.508  0.2731 -0.3280  0.2620
  542MOL0     H74751   0.865  11.252  10.366  0.6312  2.1943  0.8081
  542MOL0     H74752   1.126  11.101  10.404 -1.1839 -1.7861  1.6334
  542MOL0     H74753   0.994  11.037  10.316  1.5015 -0.5803 -0.2662
  542MOL0     H74754   1.176  11.305  10.029 -1.1367 -1.5101  0.8274
  542MOL0     H74755   1.359  11.344   9.831 -0.3056 -0.4998 -0.7336
  542MOL0     H74756   1.294  11.219   9.728 -1.3379  0.7886 -0.4239
  542MOL0     H74757   1.467  11.222   9.789 -0.5157 -1.4935 -0.2755
  542MOL0     H74758   1.506  10.824   9.655 -2.6506 -1.7331  1.2816
  542MOL0     H74759   1.630  10.660   9.504  2.9470 -0.1055 -0.4606
  542MOL0     H74760   1.702  10.357   9.579  0.5644 -2.1098 -2.0267
  542MOL0     H74761   1.713  10.469   9.438 -2.2692 -2.7518  0.4150
  542MOL0     H74762   1.823  10.271   9.382 -3.2530  1.7018  0.6271
  542MOL0     H74763   1.954  10.385   9.422  2.0357 -1.4996  1.3793
  542MOL0     H74764   1.883  10.186   9.628 -3.7678 -0.9749 -1.5109
  542MOL0     H74765   2.028  10.294   9.606  1.6706 -0.1213 -3.0611
  542MOL0     H74766   2.068  10.177   9.383  1.3114 -0.7100  0.5847
  542MOL0     H74767   1.977  10.043   9.469  1.8796 -1.3129 -0.6398
  542MOL0     H74768   2.222  10.050   9.478  1.2510 -0.2661  1.8237
  542MOL0     H74769   2.212  10.207   9.561 -0.3981  1.0165 -0.8250
  542MOL0     H74770   2.244   9.970   9.685  0.0388 -0.0570 -1.3190
  542MOL0     H74771   2.074   9.942   9.665 -0.7871 -0.1655 -0.5635
  542MOL0     H74772   2.120  10.208   9.784 -2.8927 -0.6925  0.9489
  542MOL0     H74773   2.230  10.093   9.861 -0.4149 -0.9516 -0.7176
  542MOL0     H74774   2.057  10.041  10.005  1.9095 -4.3304 -1.1667
  542MOL0     H74775   2.010   9.936   9.871  0.9488  0.0315 -3.0135
  542MOL0     H74776   1.837  10.523   9.856  0.6130  0.6449  0.0647
  542MOL0     H74777   1.667  10.638  10.001 -3.5775 -0.8544 -0.6787
  542MOL0     H74778   1.334  10.841  10.078  0.0335  1.3135  0.3252
  542MOL0     H74779   1.175  10.938  10.221  0.1908 -0.7195 -0.1073
  542MOL0     H74780   2.240  11.658   9.630 -0.8085  0.4134 -1.9186
  542MOL0     H74781   2.436  11.535   9.517  0.3860 -2.0986  1.2145
  542MOL0     H74782   2.673  11.132   9.496  3.3910  1.0730  1.1642
  542MOL0     H74783   2.852  11.011   9.428 -0.7322 -0.3321  0.1916
  542MOL0     H74784   2.956  11.015   8.975  0.4461  0.7693 -0.1212
  542MOL0     H74785   3.079  11.115   9.043  0.8017 -0.1093  1.9299
  542MOL0     H74786   3.067  10.811   9.036 -1.7620  1.3925  0.6918
  542MOL0     H74787   3.201  10.895   9.124  3.1372 -1.0631 -2.4164
  542MOL0     H74788   3.166  10.910   8.824  0.6547 -1.2167 -0.7138
  542MOL0     H74789   3.266  11.026   8.918  2.2803 -1.3606  1.1602
  542MOL0     H74790   3.388  10.831   8.811  1.7047  1.3399  0.5994
  542MOL0     H74791   3.320  10.727   8.935  3.8490  0.0499  0.1205
  542MOL0     H74792   3.608  10.877   9.180 -0.1173 -0.1374 -0.6784
  542MOL0     H74793   2.837  11.193   9.033 -0.4131 -1.1919  0.6338
  542MOL0     H74794   2.682  11.354   8.982  0.4122  0.2788 -0.9909
  542MOL0     H74795   2.527  11.320   9.056 -0.4407 -1.1635  1.5553
  542MOL0     H74796   2.630  11.451   9.121 -2.4308 -0.6701  1.3818
  543MOL0     O74797   8.717   3.206   5.754 -0.1123  0.1226  1.2310
  543MOL0     C74798   8.816   3.214   5.830 -1.0699  0.2093  0.0792
  543MOL0     O74799   8.868   3.115   5.913 -0.1165  0.6636 -0.5567
  543MOL0     C74800   8.787   3.010   5.928 -1.0543 -0.7286 -0.2029
  543MOL0     C74801   8.704   2.997   6.039  0.6116  0.4675 -0.7130
  543MOL0     C74802   8.605   2.897   6.033  0.0236  0.2330  0.2646
  543MOL0     C74803   8.611   2.800   5.929 -0.7630 -0.0535  0.3349
  543MOL0     O74804   8.507   2.710   5.901  0.3158 -0.7848  0.0424
  543MOL0     C74805   8.466   2.622   6.003  0.3969 -0.6728 -0.0179
  543MOL0     C74806   8.566   2.525   6.045 -0.5578  1.0676  0.4712
  543MOL0     C74807   8.542   2.451   6.178 -0.0538 -1.0390 -0.3993
  543MOL0     C74808   8.535   2.300   6.157  0.1679 -0.7824  0.5119
  543MOL0     C74809   8.492   2.242   6.291  0.9163 -0.0165  0.8957
  543MOL0     C74810   8.443   2.103   6.272  0.5573  0.3650  0.2338
  543MOL0     C74811   8.396   2.042   6.414 -0.3710  0.0334 -0.3554
  543MOL0     C74812   8.281   1.950   6.380  0.9444 -0.4744 -0.4839
  543MOL0     N74813   8.334   1.821   6.331  1.0316 -0.5931 -0.4591
  543MOL0     C74814   8.427   1.738   6.385 -0.3071 -0.1768 -0.6682
  543MOL0     C74815   8.440   1.645   6.283  0.4084 -0.5369  0.1704
  543MOL0     C74816   8.534   1.524   6.274  0.2766  0.2545 -0.4821
  543MOL0     C74817   8.675   1.550   6.216 -0.0649  0.4015 -0.4995
  543MOL0     C74818   8.777   1.435   6.223  1.4507  0.3788 -0.4602
  543MOL0     C74819   8.908   1.473   6.153  0.0124  0.2905  0.0759
  543MOL0     O74820   9.011   1.377   6.188  0.0905  0.6133  0.0184
  543MOL0     C74821   9.077   1.297   6.096 -0.1146 -0.2315 -0.2796
  543MOL0     C74822   9.029   1.255   5.976 -0.4275 -0.1462  0.0212
  543MOL0     C74823   9.089   1.168   5.891 -0.0552  0.8739  0.3192
  543MOL0     C74824   9.014   1.133   5.759 -0.7994  0.0698  0.1279
  543MOL0     C74825   9.208   1.103   5.927 -0.0437  0.3420  0.6860
  543MOL0     C74826   9.279   1.009   5.832 -0.1287  0.1333  0.0772
  543MOL0     O74827   9.217   0.889   5.807  0.1088  0.0681 -0.1560
  543MOL0     C74828   9.295   0.786   5.759 -0.1750 -0.4469 -0.0548
  543MOL0     C74829   9.251   0.709   5.654 -1.3363  0.1557 -0.0121
  543MOL0     C74830   9.320   0.603   5.596 -0.6896  1.0202 -0.1649
  543MOL0     C74831   9.450   0.578   5.653  1.5396  0.1188 -0.5569
  543MOL0     O74832   9.515   0.471   5.604 -0.6019  0.5272  0.4887
  543MOL0     C74833   9.656   0.461   5.630 -0.1142  0.4003 -0.6095
  543MOL0     C74834   9.705   0.354   5.523  1.2448 -0.2646 -0.0233
  543MOL0     C74835   9.851   0.373   5.482  0.9849 -0.0428  1.1186
  543MOL0     C74836   9.856   0.496   5.398 -0.5818  0.0090 -0.0239
  543MOL0     C74837   9.963   0.507   5.303  0.3888 -0.2072  0.6117
  543MOL0     C74838   9.942   0.425   5.169 -0.0849  0.4224  0.5519
  543MOL0     C74839  10.074   0.396   5.096 -0.6721 -0.5910 -0.0831
  543MOL0     C74840  10.158   0.283   5.165  0.1727 -0.5647  0.3173
  543MOL0    Cl74841  10.104   0.121   5.116  0.0943 -0.0405  0.3136
  543MOL0     C74842   9.490   0.652   5.768  0.5829  0.2231 -0.6319
  543MOL0     C74843   9.417   0.754   5.821  0.1221  0.3442 -0.8687
  543MOL0     O74844   9.395   1.032   5.808  0.0908  0.3303 -0.3977
  543MOL0     C74845   9.260   1.138   6.052 -1.0291 -0.9566 -0.3310
  543MOL0     C74846   9.200   1.244   6.133  0.5644 -0.1895  0.0974
  543MOL0     N74847   8.366   1.668   6.174  0.6807  0.7199  0.4176
  543MOL0     N74848   8.298   1.776   6.205  0.1978 -0.0707 -0.0535
  543MOL0     C74849   8.709   2.806   5.831 -0.3305  0.3187 -1.0855
  543MOL0     C74850   8.800   2.913   5.829 -0.1356 -0.5344  0.1836
  543MOL0     C74851   8.884   3.356   5.829 -0.3277 -0.0503  0.2560
  543MOL0     C74852   8.834   3.456   5.749 -0.1556  0.3584  0.5701
  543MOL0     C74853   8.884   3.583   5.753 -0.3324  0.3803  0.1404
  543MOL0     C74854   8.986   3.612   5.846  0.2740 -0.5761  0.6946
  543MOL0     O74855   9.044   3.732   5.879  0.0265 -0.0262  0.1065
  543MOL0     C74856   9.043   3.831   5.770  0.5853  0.7636 -0.4200
  543MOL0     C74857   9.118   3.958   5.809 -0.4217  0.3890 -1.4932
  543MOL0     C74858   9.230   4.007   5.720 -0.0160 -1.2021  0.3064
  543MOL0     C74859   9.353   3.912   5.712  0.2466 -0.1374 -0.0004
  543MOL0     C74860   9.455   3.960   5.807  0.4293 -0.2284 -0.7644
  543MOL0     C74861   9.554   3.998   5.873 -0.0789  0.5712 -0.6395
  543MOL0     C74862   9.029   3.519   5.928  1.0903  0.2691  0.0054
  543MOL0     C74863   8.992   3.382   5.922 -0.5648 -0.7206  1.2903
  543MOL0     C74864   9.061   3.283   6.018 -0.3636  0.2850  0.5881
  543MOL0     H74865   8.706   3.080   6.110 -0.2340  0.9434 -1.2260
  543MOL0     H74866   8.523   2.896   6.105 -1.0065  2.8134 -0.7675
  543MOL0     H74867   8.372   2.576   5.969 -1.0394  1.8012  0.3317
  543MOL0     H74868   8.434   2.683   6.089 -1.9584  1.8361 -2.4585
  543MOL0     H74869   8.576   2.464   5.955 -0.0956  1.2325  0.4113
  543MOL0     H74870   8.664   2.573   6.053 -0.3655  1.1498 -1.7113
  543MOL0     H74871   8.628   2.470   6.242 -0.7696 -1.3721  0.6812
  543MOL0     H74872   8.450   2.487   6.224  0.5770 -1.2262  1.0529
  543MOL0     H74873   8.461   2.299   6.076 -0.2532  1.4719  0.7827
  543MOL0     H74874   8.626   2.252   6.121  1.3589  2.3164 -1.0545
  543MOL0     H74875   8.407   2.295   6.334 -2.4443 -4.6493  0.7043
  543MOL0     H74876   8.573   2.261   6.363  0.6342  4.6368  0.2940
  543MOL0     H74877   8.364   2.104   6.197  1.5415 -2.5619 -0.9718
  543MOL0     H74878   8.524   2.034   6.248  0.4498 -0.0177  0.9350
  543MOL0     H74879   8.341   2.110   6.480 -1.5280 -2.6378  1.6362
  543MOL0     H74880   8.474   1.997   6.477 -0.2913  1.6401  0.7604
  543MOL0     H74881   8.228   1.926   6.472 -2.4086  2.3480 -1.4464
  543MOL0     H74882   8.208   1.994   6.311  1.1625  0.4889 -0.1210
  543MOL0     H74883   8.478   1.741   6.481  1.8462 -2.0589 -1.6790
  543MOL0     H74884   8.488   1.453   6.205 -0.4754 -0.4713  0.7188
  543MOL0     H74885   8.547   1.470   6.369  2.3215  0.7232 -0.4570
  543MOL0     H74886   8.671   1.586   6.113 -1.9422  1.5652 -0.0901
  543MOL0     H74887   8.712   1.634   6.276  0.8686 -0.5496  0.2695
  543MOL0     H74888   8.800   1.398   6.323  4.8328  0.6770 -0.9817
  543MOL0     H74889   8.725   1.356   6.168  2.2482 -0.3556 -0.1849
  543MOL0     H74890   8.892   1.469   6.045 -1.2357 -0.8332  0.2800
  543MOL0     H74891   8.946   1.574   6.173  0.9468 -0.2207  0.9894
  543MOL0     H74892   8.935   1.301   5.950  0.0609 -0.2134 -2.0583
  543MOL0     H74893   8.925   1.193   5.738 -0.2088  0.1393 -2.4969
  543MOL0     H74894   8.990   1.027   5.761 -0.1898 -0.4931 -5.4325
  543MOL0     H74895   9.076   1.155   5.672  0.0206  0.7149  0.8549
  543MOL0     H74896   9.147   0.731   5.630 -1.5031  1.3005  1.5960
  543MOL0     H74897   9.268   0.547   5.518 -0.7110 -0.5485  0.9121
  543MOL0     H74898   9.696   0.561   5.608  1.2094 -0.2681 -1.3738
  543MOL0     H74899   9.680   0.425   5.730  1.6103  0.6988 -0.8771
  543MOL0     H74900   9.683   0.258   5.573  0.7588  0.7019  1.7067
  543MOL0     H74901   9.641   0.370   5.436 -0.1873 -1.5892  0.7364
  543MOL0     H74902   9.895   0.295   5.419 -0.2096 -1.7211  2.2961
  543MOL0     H74903   9.918   0.389   5.567 -0.0439  0.7704  1.7945
  543MOL0     H74904   9.872   0.576   5.470  1.0748 -3.1315  3.4434
  543MOL0     H74905   9.760   0.511   5.348 -1.9166 -0.7385  2.1675
  543MOL0     H74906   9.976   0.613   5.279  3.3099 -0.7807 -0.7951
  543MOL0     H74907  10.057   0.481   5.354 -0.2384 -1.6549  1.0822
  543MOL0     H74908   9.892   0.491   5.098  1.9901 -0.2824 -1.6976
  543MOL0     H74909   9.885   0.332   5.183 -0.8913  0.7012 -0.7209
  543MOL0     H74910  10.127   0.492   5.099  0.5528 -1.1460 -1.7919
  543MOL0     H74911  10.065   0.356   4.994 -0.7333 -0.2811 -0.1995
  543MOL0     H74912  10.169   0.301   5.273 -1.8550 -0.2916  0.5073
  543MOL0     H74913  10.264   0.295   5.141  0.4508  0.0420  1.6872
  543MOL0     H74914   9.575   0.625   5.830 -1.3711 -0.5106  1.9488
  543MOL0     H74915   9.441   0.797   5.918  0.3529 -3.3111  0.8698
  543MOL0     H74916   9.361   1.098   6.063 -0.5596 -0.5820 -2.7156
  543MOL0     H74917   9.251   1.279   6.222 -0.0086 -2.5320  1.4424
  543MOL0     H74918   8.705   2.738   5.747  0.0124  0.0967 -0.9229
  543MOL0     H74919   8.865   2.935   5.745  0.6780  0.1289  0.9726
  543MOL0     H74920   8.759   3.428   5.677  1.1022 -1.2454 -0.1843
  543MOL0     H74921   8.845   3.652   5.679 -0.2570 -0.0398 -0.3038
  543MOL0     H74922   9.097   3.779   5.690 -2.0275 -2.6897 -0.1760
  543MOL0     H74923   8.940   3.844   5.734 -0.4811 -2.1268  1.1909
  543MOL0     H74924   9.171   3.943   5.904 -1.5661  0.3271 -0.8457
  543MOL0     H74925   9.051   4.041   5.835  3.3083  3.0060  0.8433
  543MOL0     H74926   9.186   4.025   5.621 -1.1137  1.4745  1.1971
  543MOL0     H74927   9.261   4.109   5.745  1.7243 -1.1920 -1.5895
  543MOL0     H74928   9.385   3.903   5.608 -1.8959  0.2835 -0.7497
  543MOL0     H74929   9.306   3.819   5.743 -2.0591  0.7081 -0.6815
  543MOL0     H74930   9.636   4.035   5.931 -1.7297  1.5485  1.1666
  543MOL0     H74931   9.087   3.559   6.010 -0.4847  3.2780 -0.2294
  543MOL0     H74932   9.156   3.317   6.061 -1.2240  0.8376  2.1557
  543MOL0     H74933   8.984   3.265   6.094  0.1406 -0.9729  0.8196
  543MOL0     H74934   9.085   3.194   5.959 -1.2815 -1.4466  2.6748
  544MOL0     O74935   0.476   5.863   9.294 -0.9428  0.4149  0.0886
  544MOL0     C74936   0.514   5.834   9.179 -0.5817  0.4224 -0.5320
  544MOL0     O74937   0.507   5.708   9.121  0.5848  0.1225  0.1003
  544MOL0     C74938   0.440   5.608   9.181  0.6566  0.5008  0.1201
  544MOL0     C74939   0.493   5.479   9.204 -0.4637 -0.3063  0.2990
  544MOL0     C74940   0.416   5.374   9.265 -1.6607 -0.0175  0.9848
  544MOL0     C74941   0.284   5.400   9.298  0.9380  0.6635 -0.3132
  544MOL0     O74942   0.224   5.302   9.377 -0.5291  1.0664  0.7364
  544MOL0     C74943   0.090   5.312   9.421  0.4910 -0.4111 -0.1342
  544MOL0     C74944  -0.002   5.285   9.311 -0.3009 -1.0873  0.3455
  544MOL0     C74945  -0.107   5.393   9.304  0.0158 -0.0813 -1.4636
  544MOL0     C74946  -0.147   5.406   9.160 -0.3852  0.4145 -0.6075
  544MOL0     C74947  -0.274   5.496   9.140  0.3063  0.2649 -0.5385
  544MOL0     C74948  -0.397   5.440   9.204  0.9034  0.4187  0.1670
  544MOL0     C74949  -0.534   5.490   9.144 -0.0061 -0.0602 -0.4130
  544MOL0     C74950  -0.647   5.382   9.202  0.0710 -0.0663  0.1948
  544MOL0     N74951  -0.680   5.404   9.345 -0.4355 -0.1703  0.7054
  544MOL0     C74952  -0.762   5.507   9.389 -0.5035 -0.2328 -0.8934
  544MOL0     C74953  -0.749   5.505   9.523 -0.5277  0.2980  1.3240
  544MOL0     C74954  -0.814   5.586   9.620  0.3267  0.9474  0.1197
  544MOL0     C74955  -0.764   5.727   9.661  0.1064  0.2572 -1.6942
  544MOL0     C74956  -0.613   5.753   9.664  0.0553 -0.5021  0.1502
  544MOL0     C74957  -0.566   5.804   9.527 -0.4035  0.9469  1.1397
  544MOL0     O74958  -0.624   5.940   9.494 -0.1121  0.4181  0.1428
  544MOL0     C74959  -0.540   6.050   9.501 -0.5993 -0.7138 -0.9074
  544MOL0     C74960  -0.556   6.146   9.405 -0.7267  0.3188 -0.0300
  544MOL0     C74961  -0.476   6.260   9.403  0.6541  0.1661  0.8044
  544MOL0     C74962  -0.512   6.363   9.292  0.1489  0.9567 -0.8452
  544MOL0     C74963  -0.371   6.279   9.507  0.3047  0.2282  0.1762
  544MOL0     C74964  -0.281   6.394   9.534 -0.4500  0.2182  0.1694
  544MOL0     O74965  -0.197   6.384   9.649  0.5869 -0.1082  0.4148
  544MOL0     C74966  -0.105   6.483   9.684  0.4189  1.5090  0.5678
  544MOL0     C74967  -0.128   6.574   9.796  0.0853 -0.3844 -0.7687
  544MOL0     C74968  -0.037   6.675   9.830  0.7027  0.8184  0.3137
  544MOL0     C74969   0.082   6.694   9.751 -0.3305 -0.0560  1.4869
  544MOL0     O74970   0.171   6.802   9.761 -0.2455 -0.6627 -0.0525
  544MOL0     C74971   0.202   6.859   9.893 -0.4878 -0.6046  0.3906
  544MOL0     C74972   0.347   6.906   9.908  0.9494 -0.2447 -0.0761
  544MOL0     C74973   0.360   7.051   9.967  0.6353  1.3792 -0.2821
  544MOL0     C74974   0.502   7.090  10.022 -0.0083 -0.4196 -1.1673
  544MOL0     C74975   0.503   7.224  10.094 -0.2984  0.9889 -1.4017
  544MOL0     C74976   0.437   7.330  10.020  0.4178 -0.1770  0.4473
  544MOL0     C74977   0.462   7.471  10.078 -0.6150  0.2343 -0.3052
  544MOL0     C74978   0.426   7.576   9.969 -0.2391  0.0575 -0.3306
  544MOL0    Cl74979   0.257   7.556   9.917 -0.0121 -0.0656  0.2059
  544MOL0     C74980   0.096   6.612   9.641 -0.0686  0.5119  0.1182
  544MOL0     C74981   0.009   6.512   9.606 -0.1368  0.2077  0.0556
  544MOL0     O74982  -0.282   6.482   9.446 -0.1807  0.3482 -0.1562
  544MOL0     C74983  -0.363   6.179   9.601  0.4851  1.6247  0.0148
  544MOL0     C74984  -0.444   6.064   9.602  0.0972  0.3834 -0.3571
  544MOL0     N74985  -0.653   5.410   9.552  0.1713 -0.0113 -0.1443
  544MOL0     N74986  -0.614   5.346   9.454  0.4940  0.8349  0.3948
  544MOL0     C74987   0.230   5.520   9.267 -0.9901 -0.0855  0.0152
  544MOL0     C74988   0.307   5.622   9.210 -0.2593 -0.0920  0.0057
  544MOL0     C74989   0.591   5.944   9.111  0.7688  0.5697 -0.4170
  544MOL0     C74990   0.658   5.910   8.994 -1.2430 -0.5268  0.3180
  544MOL0     C74991   0.735   5.997   8.925 -0.7629  0.1994  0.4321
  544MOL0     C74992   0.743   6.126   8.976 -0.1762  0.1139  0.2028
  544MOL0     O74993   0.826   6.208   8.898 -0.9169  1.0162  0.4963
  544MOL0     C74994   0.824   6.350   8.930  0.4476 -0.8324  0.2379
  544MOL0     C74995   0.945   6.418   8.848  0.1928  0.2408 -1.3819
  544MOL0     C74996   0.918   6.419   8.696  0.4860  0.1315  0.8762
  544MOL0     C74997   1.045   6.474   8.623  0.3436  0.6978 -0.2702
  544MOL0     C74998   1.021   6.478   8.477 -0.0234 -0.7135  0.4490
  544MOL0     C74999   1.013   6.463   8.356  0.4798  0.1187  0.3570
  544MOL0     C75000   0.680   6.167   9.090  0.1959  0.4692 -0.2941
  544MOL0     C75001   0.608   6.072   9.162  0.6529  0.6833 -0.3482
  544MOL0     C75002   0.558   6.123   9.298 -0.7847 -0.2258  0.8951
  544MOL0     H75003   0.593   5.465   9.166  0.5642 -1.5415  3.1703
  544MOL0     H75004   0.463   5.278   9.284 -3.7568 -0.8562  2.2865
  544MOL0     H75005   0.074   5.411   9.463 -1.0200  0.0733 -1.7321
  544MOL0     H75006   0.068   5.241   9.502  2.7860 -2.0663 -0.8768
  544MOL0     H75007   0.053   5.281   9.216  0.0918  4.7623 -0.0662
  544MOL0     H75008  -0.036   5.184   9.335  2.3799 -2.3605 -0.7882
  544MOL0     H75009  -0.184   5.362   9.375  0.7001 -1.7372 -1.4024
  544MOL0     H75010  -0.076   5.490   9.342  0.1292  0.1139 -2.0500
  544MOL0     H75011  -0.063   5.447   9.102 -0.8454  1.8097 -0.3339
  544MOL0     H75012  -0.177   5.308   9.122  1.1987 -0.2603 -0.1890
  544MOL0     H75013  -0.291   5.489   9.032 -0.3960 -2.6408 -0.3062
  544MOL0     H75014  -0.256   5.599   9.172 -0.2773  1.0904 -2.6574
  544MOL0     H75015  -0.391   5.331   9.191 -1.4589  0.2214  0.2223
  544MOL0     H75016  -0.387   5.448   9.313 -0.4397 -1.9950  0.5460
  544MOL0     H75017  -0.534   5.486   9.035 -0.3978 -0.7107 -0.3977
  544MOL0     H75018  -0.560   5.591   9.177 -2.3683 -0.5865 -0.4524
  544MOL0     H75019  -0.739   5.407   9.148  0.3899 -0.7818 -0.6991
  544MOL0     H75020  -0.637   5.276   9.177 -0.4534 -0.0252 -0.2004
  544MOL0     H75021  -0.817   5.578   9.329  0.3179  0.0368 -1.3376
  544MOL0     H75022  -0.825   5.519   9.706 -2.6025  0.8988 -0.1801
  544MOL0     H75023  -0.916   5.605   9.586  1.5045  1.0545 -3.8944
  544MOL0     H75024  -0.809   5.791   9.585  0.3329  0.5367 -1.5946
  544MOL0     H75025  -0.821   5.758   9.749 -1.3164  1.0895 -2.8581
  544MOL0     H75026  -0.578   5.834   9.730  2.3628 -1.0713 -0.2919
  544MOL0     H75027  -0.566   5.660   9.697 -0.2150 -0.1678  1.5494
  544MOL0     H75028  -0.458   5.817   9.535 -0.3532  1.1846  0.1343
  544MOL0     H75029  -0.585   5.730   9.449  0.8810  0.8300  0.9217
  544MOL0     H75030  -0.621   6.131   9.319  1.8817 -0.0042 -2.0913
  544MOL0     H75031  -0.437   6.377   9.214  0.4007  2.4770 -0.3657
  544MOL0     H75032  -0.531   6.463   9.333 -0.4116  0.4170  0.2710
  544MOL0     H75033  -0.604   6.337   9.238  0.5920  3.8643 -3.2331
  544MOL0     H75034  -0.211   6.560   9.865  0.6851  0.2076  0.0767
  544MOL0     H75035  -0.061   6.747   9.908 -1.2215 -0.7613  1.2779
  544MOL0     H75036   0.133   6.939   9.922  0.1605  0.0947  0.0247
  544MOL0     H75037   0.188   6.777   9.964 -1.5467 -0.8498 -0.0745
  544MOL0     H75038   0.395   6.827   9.966  0.2372 -0.4151  0.2852
  544MOL0     H75039   0.393   6.910   9.809  1.0346  1.8790 -0.0029
  544MOL0     H75040   0.290   7.049  10.050 -0.2647  0.3431 -1.0400
  544MOL0     H75041   0.326   7.125   9.893 -3.8662 -0.1322  0.0063
  544MOL0     H75042   0.570   7.094   9.936  0.4171  2.3339 -0.8002
  544MOL0     H75043   0.537   7.010  10.088 -0.8304 -1.2807 -1.7460
  544MOL0     H75044   0.458   7.208  10.193  0.9661 -0.2869 -0.9909
  544MOL0     H75045   0.608   7.252  10.108 -1.1111  2.8107  2.5426
  544MOL0     H75046   0.331   7.305  10.010 -0.3541  2.4959  1.2247
  544MOL0     H75047   0.486   7.320   9.923 -1.7520 -0.9809 -0.6312
  544MOL0     H75048   0.570   7.479  10.094 -0.4522 -1.0028 -0.6835
  544MOL0     H75049   0.413   7.482  10.175  0.1046  1.4074 -0.0420
  544MOL0     H75050   0.475   7.557   9.874 -4.2985 -0.4883 -2.5665
  544MOL0     H75051   0.461   7.674  10.002 -2.6187  0.8508  0.0615
  544MOL0     H75052   0.183   6.634   9.580 -0.1990  0.6507 -0.0188
  544MOL0     H75053   0.027   6.453   9.516  1.5130 -0.1896  0.6106
  544MOL0     H75054  -0.288   6.185   9.679 -0.0606  2.2700  0.5062
  544MOL0     H75055  -0.434   5.985   9.676  0.4618 -0.9537 -1.7740
  544MOL0     H75056   0.131   5.552   9.297 -0.3378  1.4846  0.6124
  544MOL0     H75057   0.264   5.717   9.183  0.4165  0.0089 -0.7629
  544MOL0     H75058   0.668   5.808   8.959  1.5575 -0.3450  0.3522
  544MOL0     H75059   0.786   5.955   8.839 -0.5651 -0.3336  0.8052
  544MOL0     H75060   0.733   6.398   8.893  0.1486 -2.5408 -1.4383
  544MOL0     H75061   0.854   6.379   9.031 -0.5188 -0.3733  0.4067
  544MOL0     H75062   1.023   6.346   8.873 -0.7510 -0.5008 -0.4477
  544MOL0     H75063   0.965   6.520   8.884 -1.9038 -0.1308  1.2010
  544MOL0     H75064   0.905   6.314   8.666 -3.7139  0.0529  2.2334
  544MOL0     H75065   0.825   6.457   8.652  0.7743 -0.3252 -0.1654
  544MOL0     H75066   1.135   6.414   8.642 -1.8782 -2.0050  2.7580
  544MOL0     H75067   1.071   6.572   8.664  3.2854 -0.9317  2.1698
  544MOL0     H75068   1.019   6.444   8.251 -1.2091 -0.4947  0.3372
  544MOL0     H75069   0.696   6.264   9.137  0.3649  0.8772 -1.1724
  544MOL0     H75070   0.550   6.231   9.288 -0.3253 -0.0466  2.2785
  544MOL0     H75071   0.463   6.083   9.334 -0.1664 -1.1512  1.5610
  544MOL0     H75072   0.631   6.109   9.378  1.3607  1.9406 -0.5399
  545MOL0     O75073   4.705   9.321   3.478 -0.4519  0.0500 -0.2914
  545MOL0     C75074   4.737   9.434   3.453 -0.2953 -0.2673  0.0897
  545MOL0     O75075   4.862   9.470   3.404 -0.1186 -0.4046 -0.0312
  545MOL0     C75076   4.960   9.373   3.382 -0.4219  0.8748  0.2663
  545MOL0     C75077   5.082   9.371   3.444  0.2515 -0.4073 -0.0490
  545MOL0     C75078   5.193   9.295   3.396  0.4896 -0.2120  0.1012
  545MOL0     C75079   5.175   9.194   3.311  0.5463 -0.6141  0.3883
  545MOL0     O75080   5.284   9.117   3.279 -0.3270 -0.1226  0.2371
  545MOL0     C75081   5.265   8.974   3.279 -0.3480  0.5182  0.1762
  545MOL0     C75082   5.390   8.909   3.212  0.4960  0.0443 -0.1620
  545MOL0     C75083   5.373   8.754   3.197  0.7916 -0.2926  0.3808
  545MOL0     C75084   5.482   8.702   3.105  0.1597  0.3866 -0.6398
  545MOL0     C75085   5.460   8.549   3.097 -0.0195 -0.5704 -0.6995
  545MOL0     C75086   5.523   8.481   2.961  1.1393  0.1865 -0.3558
  545MOL0     C75087   5.508   8.323   2.975 -0.6222 -0.1640 -0.3769
  545MOL0     C75088   5.598   8.251   2.881 -0.5834  0.3020  0.5912
  545MOL0     N75089   5.618   8.101   2.920 -0.3377  0.2315  0.1948
  545MOL0     C75090   5.518   8.011   2.947  0.8138 -0.2204 -0.4979
  545MOL0     C75091   5.589   7.895   2.988 -0.0254 -0.1821 -0.4485
  545MOL0     C75092   5.531   7.765   3.040  0.2867  0.1812  0.3876
  545MOL0     C75093   5.557   7.746   3.182  0.2155  0.0132  0.1490
  545MOL0     C75094   5.687   7.667   3.219 -0.3185  0.4570  0.9535
  545MOL0     C75095   5.659   7.517   3.236  0.0105 -0.7858  1.0442
  545MOL0     O75096   5.616   7.461   3.104  0.0230  0.1648 -1.1409
  545MOL0     C75097   5.667   7.334   3.082 -0.0568 -0.4482 -0.3787
  545MOL0     C75098   5.695   7.238   3.186  0.4151  0.4270  0.0833
  545MOL0     C75099   5.747   7.111   3.152  0.0682  1.3452 -0.0641
  545MOL0     C75100   5.761   7.011   3.262 -0.0207  0.5571  0.6043
  545MOL0     C75101   5.773   7.078   3.017 -1.5656 -0.1423 -0.8114
  545MOL0     C75102   5.851   6.951   2.979  0.4209  0.5635  0.3864
  545MOL0     O75103   5.791   6.875   2.876  0.0849 -0.6676  0.0994
  545MOL0     C75104   5.841   6.755   2.838 -0.0675 -0.0266 -0.0665
  545MOL0     C75105   5.861   6.647   2.926  0.1759  0.3985  0.7440
  545MOL0     C75106   5.864   6.513   2.872  0.0192 -0.7848 -0.6640
  545MOL0     C75107   5.862   6.486   2.735 -0.3006 -0.2873 -0.4358
  545MOL0     O75108   5.864   6.372   2.676  0.8560 -0.1514  0.1339
  545MOL0     C75109   5.895   6.256   2.759 -0.6604 -1.1124  0.2107
  545MOL0     C75110   5.916   6.144   2.671 -0.4746  0.1560  0.6618
  545MOL0     C75111   5.998   6.173   2.548 -1.7081 -0.0955  0.8024
  545MOL0     C75112   6.045   6.049   2.474  0.3714 -0.3527 -0.1472
  545MOL0     C75113   5.942   5.943   2.434 -0.8456  0.6009 -0.6436
  545MOL0     C75114   5.854   5.995   2.322 -0.2636 -1.2630  0.4904
  545MOL0     C75115   5.759   5.887   2.272 -0.3301 -0.8750 -0.2585
  545MOL0     C75116   5.693   5.928   2.138 -0.3109  0.0556  0.1178
  545MOL0    Cl75117   5.591   6.065   2.179 -0.2456  0.4453  0.1184
  545MOL0     C75118   5.861   6.598   2.653  0.3553 -0.1355 -0.2080
  545MOL0     C75119   5.853   6.732   2.699 -0.1751  0.2291  0.4776
  545MOL0     O75120   5.946   6.916   3.041  0.0879  0.6312  0.4447
  545MOL0     C75121   5.743   7.173   2.920  0.4739 -0.5496 -0.8466
  545MOL0     C75122   5.683   7.294   2.953 -0.9098 -0.7845  0.0064
  545MOL0     N75123   5.721   7.918   2.982  0.7221  0.0463  0.9167
  545MOL0     N75124   5.734   8.040   2.937 -0.1904  0.0514 -0.2349
  545MOL0     C75125   5.047   9.171   3.265 -0.3513 -1.3694  0.6583
  545MOL0     C75126   4.942   9.260   3.295  0.3609 -0.1323 -1.0938
  545MOL0     C75127   4.648   9.547   3.464  0.8760 -0.1489  0.1548
  545MOL0     C75128   4.688   9.670   3.442 -1.4914 -0.4641  0.1486
  545MOL0     C75129   4.605   9.772   3.465  0.4418  0.0729  0.1438
  545MOL0     C75130   4.467   9.762   3.490  0.7695 -0.3058 -0.0314
  545MOL0     O75131   4.397   9.882   3.513  0.3179 -0.2394 -0.3548
  545MOL0     C75132   4.259   9.879   3.563 -1.2234  0.0265 -0.3053
  545MOL0     C75133   4.189  10.010   3.546  0.2779  0.4399  0.0816
  545MOL0     C75134   4.056  10.014   3.620  1.0054 -0.3523  0.0830
  545MOL0     C75135   3.965  10.127   3.566 -0.4748  0.2581  1.0062
  545MOL0     C75136   4.024  10.261   3.583 -0.5697 -0.1726  0.0147
  545MOL0     C75137   4.060  10.369   3.622 -0.0494 -0.0907  0.7016
  545MOL0     C75138   4.411   9.632   3.495 -0.1668 -0.2554  0.5137
  545MOL0     C75139   4.502   9.527   3.489  0.1529 -0.6130 -0.1688
  545MOL0     C75140   4.435   9.388   3.504  0.1359 -0.3156  0.1002
  545MOL0     H75141   5.102   9.454   3.511 -0.5307  2.4644 -3.1020
  545MOL0     H75142   5.292   9.323   3.430  1.1092  2.2417 -3.3116
  545MOL0     H75143   5.177   8.948   3.220 -0.8532  2.0695  0.1771
  545MOL0     H75144   5.250   8.934   3.380  0.8944 -0.4772 -0.0179
  545MOL0     H75145   5.386   8.960   3.116 -0.6709  0.5377  0.1268
  545MOL0     H75146   5.477   8.936   3.272  0.4198 -0.3798  0.1472
  545MOL0     H75147   5.378   8.721   3.302  1.5753  0.7685  0.6969
  545MOL0     H75148   5.277   8.730   3.150 -0.1611  1.8782  1.1045
  545MOL0     H75149   5.471   8.732   3.000  0.4338 -0.5609 -0.9433
  545MOL0     H75150   5.585   8.714   3.141  0.1327  0.7208 -0.6670
  545MOL0     H75151   5.352   8.532   3.103 -0.2153  0.4306 -1.0413
  545MOL0     H75152   5.504   8.495   3.181 -1.7227  0.9937  1.3011
  545MOL0     H75153   5.469   8.529   2.880  0.3983 -0.1363 -0.0663
  545MOL0     H75154   5.627   8.514   2.949  1.6353 -1.1456  0.0398
  545MOL0     H75155   5.405   8.287   2.978 -1.5321  2.2531  3.2216
  545MOL0     H75156   5.538   8.286   3.073 -2.6732 -1.6328 -0.2447
  545MOL0     H75157   5.567   8.262   2.776  0.2528  0.1827  0.3208
  545MOL0     H75158   5.698   8.296   2.887  2.1059 -4.8446 -0.1078
  545MOL0     H75159   5.410   8.019   2.942  0.6465 -2.5009 -2.3171
  545MOL0     H75160   5.576   7.683   2.983  1.5693 -1.0062  2.9379
  545MOL0     H75161   5.423   7.774   3.025  0.2432 -0.7670  0.0846
  545MOL0     H75162   5.565   7.842   3.234 -1.4037 -0.6086  1.6265
  545MOL0     H75163   5.469   7.694   3.220  1.7343 -1.6980  1.4603
  545MOL0     H75164   5.764   7.671   3.141 -1.8991  0.9003 -0.6582
  545MOL0     H75165   5.726   7.696   3.317 -0.8140 -3.4617  2.4794
  545MOL0     H75166   5.747   7.470   3.279  0.4820 -1.4985 -0.6058
  545MOL0     H75167   5.582   7.483   3.306 -1.4714 -0.9251 -0.5621
  545MOL0     H75168   5.673   7.256   3.291  0.3817 -1.8785  0.5311
  545MOL0     H75169   5.667   6.968   3.295  0.1328 -0.8595 -0.7394
  545MOL0     H75170   5.807   7.059   3.350 -0.3503 -0.5999  1.4339
  545MOL0     H75171   5.829   6.931   3.230 -0.2094  1.2605 -1.7372
  545MOL0     H75172   5.874   6.650   3.034 -2.8719  0.1683  1.2009
  545MOL0     H75173   5.862   6.433   2.945  1.2066 -0.8487 -0.6862
  545MOL0     H75174   5.980   6.263   2.827 -0.5739 -2.5704  0.2772
  545MOL0     H75175   5.814   6.234   2.829  0.9885  2.0412  3.4300
  545MOL0     H75176   5.971   6.069   2.729  1.2854  0.6973 -0.2534
  545MOL0     H75177   5.820   6.108   2.631  0.5745 -2.8062  0.5641
  545MOL0     H75178   6.074   6.245   2.579 -1.7399 -1.0861  3.3989
  545MOL0     H75179   5.930   6.217   2.475 -0.8744  0.2514  0.2215
  545MOL0     H75180   6.126   5.993   2.522  0.8283  0.2744 -0.1613
  545MOL0     H75181   6.091   6.082   2.381 -0.0157 -2.1680 -1.0118
  545MOL0     H75182   5.989   5.850   2.399 -0.1071  0.8850 -0.4175
  545MOL0     H75183   5.882   5.924   2.524  2.1894  1.2857  1.6894
  545MOL0     H75184   5.916   6.043   2.245  0.3009  0.7537  2.1291
  545MOL0     H75185   5.789   6.076   2.356 -1.6538 -2.3941  0.6164
  545MOL0     H75186   5.676   5.863   2.339  0.4208 -2.6465  0.0873
  545MOL0     H75187   5.815   5.795   2.255  2.4769  0.8501 -0.9662
  545MOL0     H75188   5.624   5.850   2.105 -0.1546 -0.5105  1.0651
  545MOL0     H75189   5.769   5.944   2.061  1.4532  0.6180  1.8742
  545MOL0     H75190   5.868   6.589   2.545 -1.9575  2.5599 -0.7067
  545MOL0     H75191   5.838   6.812   2.628 -0.3153  1.6620  2.0652
  545MOL0     H75192   5.768   7.154   2.816 -1.2066  0.7680 -1.5519
  545MOL0     H75193   5.679   7.365   2.870  0.0826 -0.9370 -0.1782
  545MOL0     H75194   5.030   9.083   3.203 -0.1338 -0.1025 -1.2619
  545MOL0     H75195   4.843   9.247   3.252 -1.6120  1.2095  2.6455
  545MOL0     H75196   4.792   9.688   3.419 -1.9895  1.1700 -0.9905
  545MOL0     H75197   4.654   9.869   3.455  1.3499 -0.4266 -0.3259
  545MOL0     H75198   4.203   9.792   3.528 -0.3441 -0.8519  0.4063
  545MOL0     H75199   4.281   9.866   3.670 -0.3088  1.2445 -0.3201
  545MOL0     H75200   4.188  10.023   3.438  1.5039 -0.0056 -0.0017
  545MOL0     H75201   4.256  10.092   3.576 -0.2889  1.9847 -2.5634
  545MOL0     H75202   3.999   9.921   3.614 -0.0568  0.1232  1.8596
  545MOL0     H75203   4.066  10.037   3.727  0.5464 -0.4652  0.1535
  545MOL0     H75204   3.871  10.120   3.622 -0.2634  0.0593  1.3363
  545MOL0     H75205   3.943  10.108   3.461  1.6735  1.4363  0.2733
  545MOL0     H75206   4.097  10.459   3.668  1.2492 -0.2176 -0.0583
  545MOL0     H75207   4.304   9.617   3.508 -0.3771  1.2001  0.6434
  545MOL0     H75208   4.326   9.394   3.492 -0.1752 -2.3940  1.2404
  545MOL0     H75209   4.467   9.326   3.419 -3.1030  1.7328 -2.8942
  545MOL0     H75210   4.464   9.346   3.601  0.9075 -0.9871 -0.4023
  546MOL0     O75211   6.299   0.736  11.275  0.7708  1.0454 -0.4482
  546MOL0     C75212   6.295   0.819  11.182 -0.0020  1.2494 -0.0517
  546MOL0     O75213   6.302   0.780  11.044  0.7957 -0.5022 -1.4997
  546MOL0     C75214   6.315   0.648  11.017 -0.1468 -0.5479  0.2733
  546MOL0     C75215   6.232   0.594  10.922 -0.3964 -0.5335  0.2040
  546MOL0     C75216   6.256   0.468  10.870  0.5292  0.4911 -0.9352
  546MOL0     C75217   6.360   0.385  10.919  0.8076 -0.5203  0.3375
  546MOL0     O75218   6.395   0.269  10.861 -0.0961  0.9344 -0.7558
  546MOL0     C75219   6.414   0.263  10.717 -0.8783 -0.0123  0.6100
  546MOL0     C75220   6.535   0.183  10.666 -0.6408  0.0421 -0.5756
  546MOL0     C75221   6.667   0.243  10.726 -0.2006  0.0517 -0.3526
  546MOL0     C75222   6.795   0.176  10.663 -0.2566  0.7352  0.0687
  546MOL0     C75223   6.873   0.266  10.559 -0.2856 -0.1159 -0.9859
  546MOL0     C75224   6.944   0.392  10.633 -1.2260  1.2079  0.3836
  546MOL0     C75225   6.979   0.511  10.551 -0.3207  0.5171  0.2050
  546MOL0     C75226   7.057   0.492  10.415  0.7091 -0.1056 -0.3110
  546MOL0     N75227   7.102   0.618  10.365 -0.6118 -0.5870  0.3645
  546MOL0     C75228   7.231   0.678  10.392  0.2274  0.1235  0.3281
  546MOL0     C75229   7.238   0.778  10.301 -0.3125 -0.1768 -0.7262
  546MOL0     C75230   7.370   0.848  10.277 -0.5678  0.0505 -0.2643
  546MOL0     C75231   7.353   0.983  10.328 -1.1890 -0.0891  0.5388
  546MOL0     C75232   7.299   1.004  10.475 -0.7289 -0.3768  0.5717
  546MOL0     C75233   7.385   0.952  10.591  0.0636  0.6325 -0.2994
  546MOL0     O75234   7.522   0.943  10.540 -0.0298 -0.0752  1.0987
  546MOL0     C75235   7.622   0.941  10.629 -0.6817  0.7244  0.9370
  546MOL0     C75236   7.605   0.909  10.766  0.5346  0.8712 -0.2053
  546MOL0     C75237   7.722   0.908  10.852 -0.2562  0.0236  0.8211
  546MOL0     C75238   7.700   0.887  11.001 -0.1552 -0.2262 -0.3446
  546MOL0     C75239   7.852   0.930  10.797  0.5224  0.2292 -0.0587
  546MOL0     C75240   7.974   0.929  10.873 -0.7198  0.4884 -0.0092
  546MOL0     O75241   8.089   0.912  10.800 -0.0647  0.3033 -0.9738
  546MOL0     C75242   8.205   0.931  10.879 -0.0442  0.7003 -0.4908
  546MOL0     C75243   8.236   0.834  10.978  0.3829 -0.2557 -0.9605
  546MOL0     C75244   8.366   0.841  11.039 -0.4919 -0.6426 -0.3360
  546MOL0     C75245   8.462   0.932  11.000 -0.0647  0.1820 -0.1375
  546MOL0     O75246   8.581   0.931  11.069 -0.4771 -0.6328 -0.2913
  546MOL0     C75247   8.680   1.037  11.066 -0.4086  0.0710  0.8555
  546MOL0     C75248   8.798   0.995  11.152  0.6483 -0.0557 -0.3302
  546MOL0     C75249   8.857   1.110  11.227  0.0142 -0.0553  0.2488
  546MOL0     C75250   8.999   1.060  11.250 -0.2515 -0.0780 -0.2259
  546MOL0     C75251   9.087   1.166  11.315  0.4520  0.5244 -0.0283
  546MOL0     C75252   9.238   1.129  11.320 -0.2516  0.3426 -0.0476
  546MOL0     C75253   9.333   1.254  11.317  0.0239  0.6377 -0.4977
  546MOL0     C75254   9.476   1.204  11.322 -0.6851 -1.2463 -0.3702
  546MOL0    Cl75255   9.596   1.334  11.280  0.1025 -0.1510 -0.2164
  546MOL0     C75256   8.435   1.027  10.893 -0.0175  0.2074 -0.2542
  546MOL0     C75257   8.302   1.032  10.840  0.4021  0.1292  0.1512
  546MOL0     O75258   7.969   0.976  10.989 -0.0184  0.3025  0.5055
  546MOL0     C75259   7.858   0.956  10.657  0.4672  1.0878 -0.0823
  546MOL0     C75260   7.750   0.955  10.578  0.2177  1.0438 -0.3635
  546MOL0     N75261   7.119   0.791  10.227  0.1019  0.2863 -0.0986
  546MOL0     N75262   7.042   0.690  10.263  0.2253  1.1164 -0.1768
  546MOL0     C75263   6.428   0.436  11.020 -0.5766 -0.5054  0.0030
  546MOL0     C75264   6.414   0.563  11.070 -0.0524 -0.4160  0.3482
  546MOL0     C75265   6.283   0.965  11.200  0.7471 -0.9388 -0.1379
  546MOL0     C75266   6.319   1.046  11.087  1.1033  0.3750  0.2120
  546MOL0     C75267   6.320   1.192  11.105  0.3256  0.9181 -0.4981
  546MOL0     C75268   6.271   1.254  11.227 -0.8612  0.1945 -0.0554
  546MOL0     O75269   6.298   1.385  11.233  0.3033 -0.4766 -0.3284
  546MOL0     C75270   6.219   1.469  11.319  0.2467 -0.3117 -0.2952
  546MOL0     C75271   6.218   1.616  11.285 -0.5127 -1.0324  0.0008
  546MOL0     C75272   6.150   1.714  11.380 -0.3434  0.0315  0.3677
  546MOL0     C75273   6.219   1.843  11.405 -0.1571 -0.4398  0.6828
  546MOL0     C75274   6.308   1.822  11.517  1.1295 -0.2011  0.4141
  546MOL0     C75275   6.373   1.810  11.617  0.7966 -0.0477  0.5632
  546MOL0     C75276   6.232   1.170  11.327  0.3386 -0.0973 -0.2815
  546MOL0     C75277   6.249   1.026  11.323  0.9515 -0.2028  0.5044
  546MOL0     C75278   6.193   0.955  11.440  1.0856  0.1892 -0.7684
  546MOL0     H75279   6.149   0.643  10.874  2.2697  0.1201 -4.2944
  546MOL0     H75280   6.186   0.432  10.794 -0.3333  1.4547 -0.6100
  546MOL0     H75281   6.428   0.362  10.671 -3.1995 -1.4058 -3.5995
  546MOL0     H75282   6.321   0.215  10.688 -1.1423  1.1223 -0.5461
  546MOL0     H75283   6.526   0.079  10.700  0.3225 -0.1796 -0.9839
  546MOL0     H75284   6.538   0.181  10.557  0.8875 -4.5815 -0.6640
  546MOL0     H75285   6.665   0.346  10.689  1.4225 -0.2315 -1.3017
  546MOL0     H75286   6.654   0.224  10.833  1.5412  2.6116  0.4015
  546MOL0     H75287   6.851   0.140  10.750 -0.6464 -0.5772 -0.2045
  546MOL0     H75288   6.780   0.081  10.611 -1.7404  0.3470  1.1494
  546MOL0     H75289   6.789   0.295  10.495  0.8606  4.7777 -0.6844
  546MOL0     H75290   6.945   0.207  10.502 -0.0106 -1.8008  0.9674
  546MOL0     H75291   6.876   0.430  10.709 -0.3295  0.5955  1.5240
  546MOL0     H75292   7.039   0.361  10.676 -0.5926  0.9673 -1.1063
  546MOL0     H75293   7.041   0.587  10.600 -0.7075  2.8245 -2.6400
  546MOL0     H75294   6.890   0.570  10.527  0.3421  1.2099 -0.6315
  546MOL0     H75295   7.142   0.426  10.435  0.0473 -1.2808 -1.2013
  546MOL0     H75296   6.989   0.449  10.341  0.7044  0.7684 -0.8292
  546MOL0     H75297   7.312   0.640  10.454  1.5323 -2.0394 -2.4683
  546MOL0     H75298   7.381   0.849  10.168  4.0218 -0.8649 -0.0079
  546MOL0     H75299   7.453   0.795  10.323 -0.0301 -0.4390 -1.7310
  546MOL0     H75300   7.448   1.035  10.317 -1.9993  1.0933 -1.2962
  546MOL0     H75301   7.297   1.043  10.256 -0.7379 -1.8165 -1.3364
  546MOL0     H75302   7.297   1.112  10.493 -0.2458 -0.6061  2.1297
  546MOL0     H75303   7.196   0.971  10.484 -1.9247  1.7887 -3.0439
  546MOL0     H75304   7.379   1.011  10.683  1.6973  1.9614 -0.9996
  546MOL0     H75305   7.360   0.849  10.619 -0.7424  1.3039  1.5744
  546MOL0     H75306   7.507   0.895  10.809  1.4855 -1.2240  1.5106
  546MOL0     H75307   7.730   0.969  11.067 -1.5450  0.6708 -0.7974
  546MOL0     H75308   7.745   0.792  11.034 -2.2325 -0.0142  3.6379
  546MOL0     H75309   7.592   0.885  11.016  0.2081 -0.7753  2.9720
  546MOL0     H75310   8.174   0.751  11.010 -0.4269  0.5821 -0.2814
  546MOL0     H75311   8.384   0.763  11.111  0.5656 -1.0282 -0.9867
  546MOL0     H75312   8.717   1.055  10.964 -0.2473  0.2290  0.9412
  546MOL0     H75313   8.627   1.126  11.098 -2.0872 -1.0409  1.3034
  546MOL0     H75314   8.766   0.916  11.221 -3.0169 -0.5092 -2.2963
  546MOL0     H75315   8.878   0.949  11.094  1.1145 -1.8260  1.6283
  546MOL0     H75316   8.793   1.122  11.315 -0.9046 -0.0093 -0.4146
  546MOL0     H75317   8.853   1.204  11.172 -0.2745 -0.6222 -0.7071
  546MOL0     H75318   9.043   1.037  11.152  1.3854  1.8242 -0.0105
  546MOL0     H75319   9.000   0.969  11.310  1.4348 -0.5871 -0.9503
  546MOL0     H75320   9.077   1.254  11.252 -1.9083 -0.9094 -1.8300
  546MOL0     H75321   9.052   1.185  11.417  1.0794 -3.3717  1.0727
  546MOL0     H75322   9.262   1.062  11.236 -0.6737 -2.3640  1.8579
  546MOL0     H75323   9.256   1.064  11.406  0.8134  2.7316  1.6468
  546MOL0     H75324   9.310   1.315  11.405 -1.5753 -1.0975  0.3537
  546MOL0     H75325   9.304   1.309  11.227  1.5869  3.7132  0.7112
  546MOL0     H75326   9.499   1.127  11.247  1.4145  1.1102 -2.3104
  546MOL0     H75327   9.493   1.158  11.420  0.6230  2.9304  1.5533
  546MOL0     H75328   8.495   1.112  10.859 -3.0914  2.7497  0.2140
  546MOL0     H75329   8.269   1.104  10.766 -1.1150  2.1139  2.6354
  546MOL0     H75330   7.951   0.955  10.601  0.9753  0.8764  0.7493
  546MOL0     H75331   7.768   0.978  10.473  0.4486 -0.2067 -0.6124
  546MOL0     H75332   6.507   0.369  11.053 -0.2755 -0.7752 -1.1858
  546MOL0     H75333   6.488   0.595  11.143  0.4913  1.2313 -0.8806
  546MOL0     H75334   6.350   1.009  10.990  1.2390  2.3430 -0.5436
  546MOL0     H75335   6.326   1.260  11.021 -1.8633  3.3104  1.1365
  546MOL0     H75336   6.112   1.446  11.316 -0.2593  1.5864  1.3210
  546MOL0     H75337   6.245   1.460  11.425 -0.2226 -2.5356 -0.3239
  546MOL0     H75338   6.166   1.631  11.190 -0.5747  0.2120  0.2120
  546MOL0     H75339   6.324   1.643  11.274 -0.5561  0.2282  2.1729
  546MOL0     H75340   6.053   1.720  11.331 -1.9746 -0.6688  3.3077
  546MOL0     H75341   6.133   1.663  11.474 -1.4681  0.6924  0.5359
  546MOL0     H75342   6.146   1.923  11.422 -0.3067 -0.3573 -0.3011
  546MOL0     H75343   6.274   1.873  11.315 -1.1308  0.2995  0.3221
  546MOL0     H75344   6.423   1.802  11.711  0.3634 -2.0146  0.6828
  546MOL0     H75345   6.214   1.218  11.423 -1.0955 -0.0574 -0.5456
  546MOL0     H75346   6.136   1.026  11.502  0.9197  2.5608 -3.4294
  546MOL0     H75347   6.128   0.870  11.415 -1.1318  1.3333  0.6809
  546MOL0     H75348   6.275   0.924  11.505  0.6890  1.7683  0.5614
  547MOL0     O75349   7.044   2.727   5.910 -0.2530  0.2706  0.2427
  547MOL0     C75350   7.029   2.679   6.027  0.2561 -0.7616 -0.9718
  547MOL0     O75351   6.914   2.686   6.095  0.5160  0.0343 -0.3717
  547MOL0     C75352   6.810   2.760   6.028 -0.8724 -1.0695 -1.2856
  547MOL0     C75353   6.713   2.698   5.951  0.4534 -0.4321  0.1430
  547MOL0     C75354   6.600   2.766   5.908 -0.2138 -0.1679 -0.1122
  547MOL0     C75355   6.576   2.900   5.944 -0.7558  0.3607 -0.4056
  547MOL0     O75356   6.459   2.957   5.904 -0.0782  0.3404 -0.2531
  547MOL0     C75357   6.395   3.056   5.990 -0.1591  0.3637  1.0808
  547MOL0     C75358   6.255   3.077   5.934  0.2095 -0.2871 -0.9785
  547MOL0     C75359   6.253   3.120   5.797 -0.2405  0.2041 -0.3165
  547MOL0     C75360   6.114   3.123   5.741 -0.4291 -0.7938  0.4414
  547MOL0     C75361   6.113   3.192   5.608 -0.1878 -0.7194  0.3109
  547MOL0     C75362   5.970   3.233   5.574 -0.3116  0.3210 -0.0055
  547MOL0     C75363   5.981   3.325   5.440  0.0415 -0.5756  0.3418
  547MOL0     C75364   5.838   3.335   5.391 -0.3788 -1.2897 -0.4626
  547MOL0     N75365   5.806   3.450   5.297 -0.8993 -0.1493 -1.2895
  547MOL0     C75366   5.679   3.499   5.273  0.4004  0.4131  0.8924
  547MOL0     C75367   5.706   3.610   5.197 -0.2770 -0.3095  0.1292
  547MOL0     C75368   5.620   3.732   5.165  0.3788  0.4719  0.2598
  547MOL0     C75369   5.598   3.814   5.290  0.1281 -0.1934  0.2219
  547MOL0     C75370   5.534   3.945   5.253 -0.2045 -0.2932  0.1421
  547MOL0     C75371   5.485   4.005   5.387  0.5056 -0.1224  0.3448
  547MOL0     O75372   5.465   4.148   5.359 -0.5966  0.3540 -0.0312
  547MOL0     C75373   5.557   4.226   5.417  0.0769 -0.8907 -0.1549
  547MOL0     C75374   5.691   4.196   5.455 -1.4288 -0.7263 -1.3444
  547MOL0     C75375   5.793   4.288   5.482 -0.8032 -0.8303 -1.1203
  547MOL0     C75376   5.921   4.234   5.523 -0.6953  0.3696  0.3476
  547MOL0     C75377   5.766   4.424   5.467  0.1148  0.6687 -0.1045
  547MOL0     C75378   5.876   4.517   5.473  0.2358 -0.0238 -0.0230
  547MOL0     O75379   5.834   4.638   5.502  0.1493  0.2791 -0.3239
  547MOL0     C75380   5.921   4.739   5.548  0.2138 -0.3157  0.6466
  547MOL0     C75381   5.870   4.866   5.532 -0.3255 -0.5821 -0.6514
  547MOL0     C75382   5.938   4.978   5.590 -0.1200  0.4128  0.4257
  547MOL0     C75383   6.058   4.978   5.652 -0.4689 -0.5761 -0.1180
  547MOL0     O75384   6.134   5.082   5.692  0.5773 -1.0909  0.0349
  547MOL0     C75385   6.060   5.190   5.754  0.6072  0.0360 -0.0743
  547MOL0     C75386   6.155   5.279   5.826 -0.4987 -0.1965 -0.2721
  547MOL0     C75387   6.073   5.387   5.898  0.5130 -0.7630 -0.1699
  547MOL0     C75388   6.156   5.506   5.965  0.5329  0.0604 -0.2201
  547MOL0     C75389   6.069   5.610   6.023  0.4787 -0.6798  0.3622
  547MOL0     C75390   5.958   5.567   6.119 -0.2905 -0.9352 -0.3556
  547MOL0     C75391   6.020   5.513   6.254  0.7862  0.0207  0.4077
  547MOL0     C75392   5.910   5.476   6.348 -0.6671 -0.7610 -0.0688
  547MOL0    Cl75393   5.789   5.366   6.286 -0.6934 -0.0895  0.2951
  547MOL0     C75394   6.112   4.850   5.667  0.1311 -1.0717 -1.3365
  547MOL0     C75395   6.041   4.736   5.626 -0.6762  0.3948 -0.4184
  547MOL0     O75396   5.995   4.487   5.460  0.1371 -0.3115 -0.3191
  547MOL0     C75397   5.633   4.463   5.430  0.1184 -0.2339 -0.6997
  547MOL0     C75398   5.535   4.366   5.401 -0.3926 -0.2828  0.2248
  547MOL0     N75399   5.843   3.614   5.177 -0.3569 -1.2079  0.2004
  547MOL0     N75400   5.901   3.522   5.232  0.2356  0.4759 -0.1676
  547MOL0     C75401   6.684   2.965   6.021  0.4149 -0.5618  0.3419
  547MOL0     C75402   6.791   2.891   6.068 -0.6159 -0.6950  0.6527
  547MOL0     C75403   7.152   2.601   6.081 -0.1387 -0.0641 -0.4617
  547MOL0     C75404   7.238   2.559   5.978  0.3873 -0.0507 -0.9725
  547MOL0     C75405   7.357   2.511   6.003 -0.2890  0.3398  0.3285
  547MOL0     C75406   7.407   2.497   6.128  0.4275  0.2425 -0.4767
  547MOL0     O75407   7.536   2.444   6.143  0.2192 -0.4282  1.5355
  547MOL0     C75408   7.573   2.416   6.272 -0.2483  0.2649 -0.2794
  547MOL0     C75409   7.723   2.373   6.275 -0.5968  0.4417  0.9820
  547MOL0     C75410   7.784   2.366   6.419  0.8891 -0.1627  0.1895
  547MOL0     C75411   7.913   2.279   6.429  0.2671 -0.7801  0.1044
  547MOL0     C75412   8.026   2.348   6.375 -0.0622  1.1434 -1.0396
  547MOL0     C75413   8.115   2.408   6.326 -0.1975 -0.0188  0.4226
  547MOL0     C75414   7.329   2.534   6.240 -0.0895  0.7601  0.5538
  547MOL0     C75415   7.201   2.589   6.214 -0.7409 -0.7653  0.1361
  547MOL0     C75416   7.116   2.646   6.322 -0.1845  0.1798  0.4101
  547MOL0     H75417   6.730   2.592   5.930  0.4085 -0.0743 -1.9185
  547MOL0     H75418   6.546   2.697   5.845  0.9754  1.1831 -2.8017
  547MOL0     H75419   6.448   3.152   5.986 -1.2859  0.9615 -0.1772
  547MOL0     H75420   6.387   3.032   6.097  0.5028  1.2483  1.3385
  547MOL0     H75421   6.192   2.990   5.952 -1.7473  0.8241 -2.1704
  547MOL0     H75422   6.208   3.157   5.993 -0.9454 -2.7992  1.7499
  547MOL0     H75423   6.311   3.213   5.796 -1.2870  0.8709 -1.3966
  547MOL0     H75424   6.305   3.046   5.737  0.1761  1.7299 -1.9221
  547MOL0     H75425   6.086   3.019   5.720 -1.4602 -0.0511 -2.4472
  547MOL0     H75426   6.039   3.162   5.811 -0.0530 -1.3886  1.1788
  547MOL0     H75427   6.170   3.133   5.535  1.9612  2.9193 -1.2497
  547MOL0     H75428   6.158   3.289   5.632 -1.2264 -0.6058  1.9696
  547MOL0     H75429   5.924   3.133   5.566  2.9125 -1.2460 -0.6188
  547MOL0     H75430   5.933   3.287   5.662 -2.3021 -3.3373  1.6514
  547MOL0     H75431   6.040   3.280   5.361 -2.8203 -2.0365 -1.0957
  547MOL0     H75432   6.006   3.428   5.469 -0.6001 -0.6194  1.0906
  547MOL0     H75433   5.814   3.238   5.347  0.3077 -1.4274 -0.5514
  547MOL0     H75434   5.784   3.354   5.484  3.2416  1.3899  1.3976
  547MOL0     H75435   5.582   3.469   5.310 -1.3418 -3.3523 -5.2993
  547MOL0     H75436   5.523   3.699   5.126  0.6491  0.5996 -0.5293
  547MOL0     H75437   5.676   3.790   5.092  0.7498  3.2811  2.5931
  547MOL0     H75438   5.516   3.767   5.344 -2.1650  3.7947  0.5714
  547MOL0     H75439   5.688   3.835   5.350  2.1766 -1.1637 -2.3117
  547MOL0     H75440   5.606   4.015   5.210 -1.5878  1.4585  0.5057
  547MOL0     H75441   5.454   3.928   5.180 -1.0851  0.3416  0.9302
  547MOL0     H75442   5.386   3.969   5.415 -1.7035  3.4726 -1.9887
  547MOL0     H75443   5.555   3.988   5.470  0.4184 -1.1245  0.2158
  547MOL0     H75444   5.720   4.092   5.467 -0.6683 -0.3840 -0.1392
  547MOL0     H75445   5.968   4.280   5.610  0.7788  2.1009 -1.2540
  547MOL0     H75446   5.996   4.251   5.445 -0.3961 -0.9630  0.3183
  547MOL0     H75447   5.908   4.126   5.537  0.1256 -0.2008 -2.4593
  547MOL0     H75448   5.775   4.885   5.484 -0.6034 -0.4026 -0.0457
  547MOL0     H75449   5.899   5.072   5.554  0.4248  0.3720 -0.3008
  547MOL0     H75450   6.010   5.249   5.676  1.9908  1.1617 -0.1487
  547MOL0     H75451   5.981   5.155   5.821 -2.2858  3.8235 -1.1457
  547MOL0     H75452   6.217   5.233   5.903  1.0466  2.8337  0.4705
  547MOL0     H75453   6.223   5.326   5.755 -0.8514 -1.3109 -1.3756
  547MOL0     H75454   6.024   5.333   5.979  0.4035 -3.4085 -1.8853
  547MOL0     H75455   6.001   5.428   5.826  0.0840 -1.8008 -0.3500
  547MOL0     H75456   6.226   5.557   5.897  0.4008  0.6807  0.1018
  547MOL0     H75457   6.218   5.456   6.040 -1.5359 -0.3193  1.3192
  547MOL0     H75458   6.121   5.687   6.080 -1.1907  0.8546 -0.0848
  547MOL0     H75459   6.026   5.670   5.942  0.4929 -2.1971 -0.8093
  547MOL0     H75460   5.899   5.493   6.065 -1.3717  0.2368 -0.8506
  547MOL0     H75461   5.893   5.652   6.142  1.6886  0.0845  1.9415
  547MOL0     H75462   6.067   5.601   6.300 -1.0408  0.6973  1.1041
  547MOL0     H75463   6.082   5.425   6.235  1.9801  1.2086 -1.4759
  547MOL0     H75464   5.868   5.569   6.389  1.2782  1.9244 -3.6091
  547MOL0     H75465   5.952   5.424   6.435 -0.7572  3.3520  2.7541
  547MOL0     H75466   6.202   4.835   5.727 -1.7970  0.3059  2.2464
  547MOL0     H75467   6.082   4.643   5.664 -1.7029  1.0135  2.4569
  547MOL0     H75468   5.614   4.569   5.420 -1.3991 -0.4802 -0.5976
  547MOL0     H75469   5.435   4.392   5.367  0.2954  0.5578 -1.2456
  547MOL0     H75470   6.671   3.070   6.046 -0.0636 -0.4805 -0.2215
  547MOL0     H75471   6.863   2.938   6.134 -3.0647  1.4010  2.0269
  547MOL0     H75472   7.212   2.564   5.873  2.4617 -1.5417 -1.6086
  547MOL0     H75473   7.421   2.489   5.918  0.5643 -0.2885  1.1145
  547MOL0     H75474   7.576   2.513   6.322 -0.9941  0.7515 -1.1591
  547MOL0     H75475   7.507   2.341   6.316 -1.0007 -1.3837 -3.8389
  547MOL0     H75476   7.782   2.438   6.211 -2.4037  0.0923 -1.1612
  547MOL0     H75477   7.736   2.269   6.246  1.4807  0.5785  1.2892
  547MOL0     H75478   7.796   2.466   6.462 -1.0648  0.6413 -0.9851
  547MOL0     H75479   7.711   2.328   6.491  3.0643 -1.8548  1.6363
  547MOL0     H75480   7.896   2.178   6.392 -1.2697 -0.7565  0.6947
  547MOL0     H75481   7.926   2.263   6.536  0.2086  0.2202  0.2667
  547MOL0     H75482   8.199   2.460   6.284  0.3612  0.5954  2.1993
  547MOL0     H75483   7.381   2.535   6.335  0.7522  3.6521  0.1367
  547MOL0     H75484   7.086   2.751   6.309 -1.6742 -0.5238 -2.7649
  547MOL0     H75485   7.025   2.589   6.340 -1.6449  2.5628  1.0664
  547MOL0     H75486   7.167   2.642   6.419  1.4668  0.3393 -0.4187
  548MOL0     O75487   4.793   3.433   2.084 -1.3449  0.0595 -0.7102
  548MOL0     C75488   4.712   3.510   2.034 -0.4395 -0.3457  0.3188
  548MOL0     O75489   4.602   3.472   1.970 -0.1357  0.1260 -0.0120
  548MOL0     C75490   4.569   3.337   1.973 -0.5301  0.3506  0.9010
  548MOL0     C75491   4.521   3.274   2.091  0.0010 -0.7693  0.3671
  548MOL0     C75492   4.448   3.153   2.082 -0.3692 -0.4828 -0.1820
  548MOL0     C75493   4.442   3.087   1.961 -0.5969  0.5168 -0.3806
  548MOL0     O75494   4.367   2.970   1.943 -0.0528 -0.1929  0.1331
  548MOL0     C75495   4.413   2.852   2.011  0.5780 -0.5147  0.2546
  548MOL0     C75496   4.320   2.740   1.975 -0.1885  0.0008  0.0825
  548MOL0     C75497   4.190   2.759   2.048  0.1816 -0.9011  0.0452
  548MOL0     C75498   4.093   2.663   1.991 -0.0268  1.0858  0.4183
  548MOL0     C75499   3.967   2.636   2.086  0.2056  1.8614 -0.2846
  548MOL0     C75500   3.875   2.516   2.053 -0.2392  0.0719  0.0067
  548MOL0     C75501   3.935   2.389   1.990  0.0235  0.1402  0.2403
  548MOL0     C75502   3.928   2.371   1.830 -0.6138  0.4998 -0.1752
  548MOL0     N75503   3.997   2.238   1.812  0.2970  0.1037  0.3044
  548MOL0     C75504   4.132   2.226   1.791  0.8645  0.0231  0.9737
  548MOL0     C75505   4.150   2.095   1.769  0.1290  0.4915 -0.2908
  548MOL0     C75506   4.278   2.030   1.734  0.0004 -0.3012 -1.2394
  548MOL0     C75507   4.304   1.994   1.580  0.4570 -0.2047  0.5443
  548MOL0     C75508   4.305   2.104   1.475  0.1002 -0.0115 -0.2229
  548MOL0     C75509   4.348   2.048   1.335  0.0533  0.5850  0.1933
  548MOL0     O75510   4.319   2.142   1.228  1.1979  0.4767  0.4168
  548MOL0     C75511   4.331   2.096   1.097 -0.7189  0.3212  0.3116
  548MOL0     C75512   4.277   2.174   0.998 -0.3680 -0.6996 -0.6914
  548MOL0     C75513   4.299   2.144   0.862  0.8177  1.5449  0.6986
  548MOL0     C75514   4.226   2.232   0.765 -0.4287 -0.3701  0.1934
  548MOL0     C75515   4.382   2.034   0.825  0.8177 -0.0102 -0.0665
  548MOL0     C75516   4.403   1.996   0.683 -1.2123 -0.1097  0.5335
  548MOL0     O75517   4.339   2.055   0.583 -0.1263  0.1340  0.5912
  548MOL0     C75518   4.376   2.011   0.459 -0.8696 -0.1532  0.6349
  548MOL0     C75519   4.352   1.885   0.408  0.0595 -0.2316  0.2419
  548MOL0     C75520   4.383   1.852   0.276 -0.2939 -0.1778  0.1839
  548MOL0     C75521   4.447   1.941   0.190 -0.2720  0.0395 -0.6910
  548MOL0     O75522   4.461   1.907   0.062 -0.2745 -0.6341  0.7289
  548MOL0     C75523   4.360   1.975  -0.024 -0.6412  0.8162  0.1789
  548MOL0     C75524   4.416   2.092  -0.101 -0.5457 -0.6373  0.5668
  548MOL0     C75525   4.320   2.153  -0.207 -0.4648 -0.8316  0.5510
  548MOL0     C75526   4.411   2.245  -0.296 -1.0954  0.3975  0.4094
  548MOL0     C75527   4.361   2.291  -0.423  0.1912 -1.1123  0.4958
  548MOL0     C75528   4.449   2.238  -0.536 -0.3611  0.1061 -0.4008
  548MOL0     C75529   4.394   2.269  -0.670  0.2403 -0.4600  0.0461
  548MOL0     C75530   4.244   2.228  -0.689 -0.8376 -0.9640 -0.3109
  548MOL0    Cl75531   4.210   2.227  -0.856 -0.2118  0.3740 -0.3025
  548MOL0     C75532   4.474   2.071   0.241 -1.2838  0.9964 -0.6713
  548MOL0     C75533   4.447   2.106   0.372 -0.7121  0.2684  0.4530
  548MOL0     O75534   4.492   1.912   0.672 -0.3511 -0.4474  1.0287
  548MOL0     C75535   4.427   1.949   0.928 -0.0787 -0.1998 -0.9844
  548MOL0     C75536   4.403   1.979   1.062 -0.4696  0.0831  0.4031
  548MOL0     N75537   4.030   2.029   1.781 -0.5208  0.1509  0.2708
  548MOL0     N75538   3.936   2.120   1.804 -0.3011 -0.9368 -0.4394
  548MOL0     C75539   4.507   3.141   1.846 -0.9184  0.9145 -0.8482
  548MOL0     C75540   4.571   3.265   1.850 -0.5916 -0.2398 -0.1410
  548MOL0     C75541   4.729   3.658   2.047 -0.1574 -0.0545  0.6256
  548MOL0     C75542   4.697   3.737   1.935  0.1676 -1.0653 -0.4527
  548MOL0     C75543   4.721   3.880   1.947  0.5851  0.1305 -0.4665
  548MOL0     C75544   4.740   3.943   2.072  0.3270  0.0710  0.4953
  548MOL0     O75545   4.758   4.074   2.099 -0.4539  0.0908  0.6861
  548MOL0     C75546   4.671   4.171   2.040 -0.8630  1.0126 -0.9709
  548MOL0     C75547   4.768   4.254   1.963 -0.0032 -0.9618  0.4082
  548MOL0     C75548   4.700   4.364   1.883  0.7126 -0.8545  0.7195
  548MOL0     C75549   4.610   4.317   1.768  0.0038  0.1499 -0.3148
  548MOL0     C75550   4.471   4.293   1.810 -0.9976  0.5308 -0.1527
  548MOL0     C75551   4.354   4.254   1.836  0.3324 -0.1257  0.8956
  548MOL0     C75552   4.773   3.864   2.180  0.7233  0.4688 -0.2164
  548MOL0     C75553   4.779   3.721   2.166  0.5358  0.0421 -0.3782
  548MOL0     C75554   4.813   3.646   2.298 -0.0369  0.1066  1.3798
  548MOL0     H75555   4.553   3.333   2.176  2.8778  0.8875 -1.7138
  548MOL0     H75556   4.402   3.105   2.167 -2.7973 -0.8661 -1.6077
  548MOL0     H75557   4.403   2.861   2.119 -4.9962 -2.0516  0.2083
  548MOL0     H75558   4.517   2.827   1.990  1.0546  0.4044  1.4357
  548MOL0     H75559   4.299   2.721   1.869 -1.5530  3.7514 -0.4717
  548MOL0     H75560   4.366   2.647   2.008  0.3112 -0.6029 -2.1457
  548MOL0     H75561   4.201   2.749   2.157  0.9545 -2.1752 -0.1381
  548MOL0     H75562   4.162   2.863   2.026  0.1361 -1.5223 -3.3750
  548MOL0     H75563   4.063   2.693   1.890  2.4579  0.0684 -0.6991
  548MOL0     H75564   4.143   2.566   1.983 -0.5120  0.7964  0.8824
  548MOL0     H75565   3.899   2.721   2.092 -0.7338  1.2707 -1.9838
  548MOL0     H75566   4.017   2.607   2.180  1.7668 -0.5211 -1.7438
  548MOL0     H75567   3.840   2.479   2.149 -1.2157 -1.4276 -0.8902
  548MOL0     H75568   3.779   2.543   2.009 -1.5765 -0.8889  2.1760
  548MOL0     H75569   3.897   2.298   2.037  0.6594 -1.1745 -1.6606
  548MOL0     H75570   4.039   2.379   2.021  0.0830  1.0130  0.3587
  548MOL0     H75571   3.831   2.369   1.780  0.0269 -0.4692 -1.4474
  548MOL0     H75572   3.988   2.451   1.786  0.7457 -0.6634 -0.5183
  548MOL0     H75573   4.200   2.311   1.791  2.5531 -1.2737  0.2001
  548MOL0     H75574   4.269   1.931   1.778  1.0026 -0.7631 -2.0309
  548MOL0     H75575   4.360   2.084   1.781 -2.6571  1.0072  2.2677
  548MOL0     H75576   4.405   1.950   1.576  0.9153  0.5870  2.3242
  548MOL0     H75577   4.233   1.916   1.551  2.6513 -2.0434 -0.2003
  548MOL0     H75578   4.203   2.141   1.460 -1.0663 -2.3166  1.4681
  548MOL0     H75579   4.380   2.180   1.498  0.4616 -0.4537  0.0634
  548MOL0     H75580   4.456   2.037   1.338  0.3993  0.9464 -4.2295
  548MOL0     H75581   4.313   1.945   1.323 -0.7037  0.7784  0.6950
  548MOL0     H75582   4.218   2.258   1.033  0.8737  0.6017 -1.6135
  548MOL0     H75583   4.170   2.177   0.689  2.1782 -0.8440 -1.5226
  548MOL0     H75584   4.299   2.288   0.706 -3.3537  2.2351 -1.2862
  548MOL0     H75585   4.163   2.301   0.822  1.9092  1.1104  1.1473
  548MOL0     H75586   4.305   1.806   0.465 -0.7191 -1.5064 -2.0073
  548MOL0     H75587   4.346   1.767   0.220  1.7772  0.9866 -3.3064
  548MOL0     H75588   4.326   1.910  -0.105 -2.4123  0.6373  1.0393
  548MOL0     H75589   4.272   2.001   0.035 -0.3050  0.4635  0.8517
  548MOL0     H75590   4.452   2.169  -0.032  2.2884 -1.1943 -0.1550
  548MOL0     H75591   4.499   2.050  -0.158  0.6656  2.8898 -0.5105
  548MOL0     H75592   4.248   2.222  -0.161  0.2886  0.6179 -0.3633
  548MOL0     H75593   4.267   2.084  -0.274  0.6846 -0.4437 -0.8063
  548MOL0     H75594   4.503   2.187  -0.309  0.3849  2.5676  0.5923
  548MOL0     H75595   4.444   2.331  -0.237 -2.0029 -1.0120  3.1067
  548MOL0     H75596   4.259   2.252  -0.427  0.2065 -1.1630  0.5861
  548MOL0     H75597   4.359   2.400  -0.433  1.7360 -1.2719 -2.6362
  548MOL0     H75598   4.462   2.130  -0.534  0.2992  0.1828 -0.4861
  548MOL0     H75599   4.547   2.286  -0.531  0.5257 -1.7184  1.3654
  548MOL0     H75600   4.464   2.206  -0.726  0.4125 -1.6179  1.4926
  548MOL0     H75601   4.409   2.374  -0.697 -1.8979 -0.3099 -0.7765
  548MOL0     H75602   4.178   2.296  -0.635 -0.3305  0.0970 -1.0004
  548MOL0     H75603   4.236   2.124  -0.654 -3.9821 -0.5337  0.5688
  548MOL0     H75604   4.542   2.139   0.191  0.4159 -1.0374 -1.3247
  548MOL0     H75605   4.478   2.199   0.419  0.9247 -1.1407  2.3147
  548MOL0     H75606   4.479   1.857   0.904  0.4090 -0.6563  1.5242
  548MOL0     H75607   4.434   1.905   1.135  0.9823 -1.4762 -1.6723
  548MOL0     H75608   4.483   3.086   1.755 -1.1794 -0.3021 -0.0571
  548MOL0     H75609   4.600   3.304   1.753  0.1082 -2.6447 -0.9659
  548MOL0     H75610   4.670   3.689   1.841  1.5149 -0.8976 -0.9504
  548MOL0     H75611   4.701   3.958   1.875 -3.0252 -1.3929 -1.3571
  548MOL0     H75612   4.595   4.114   1.984 -0.1783 -1.4083  0.4003
  548MOL0     H75613   4.626   4.229   2.121  0.0502  0.6648 -0.1928
  548MOL0     H75614   4.821   4.194   1.888  1.8899  2.8120 -1.5468
  548MOL0     H75615   4.837   4.300   2.033  1.2417 -1.9154 -0.1395
  548MOL0     H75616   4.649   4.438   1.945 -1.8031  0.1475 -2.2882
  548MOL0     H75617   4.779   4.423   1.835  2.7106 -2.5634  1.7318
  548MOL0     H75618   4.655   4.233   1.715 -0.8292  0.9055 -2.3553
  548MOL0     H75619   4.583   4.390   1.691 -3.0387 -0.6776 -0.1422
  548MOL0     H75620   4.263   4.218   1.880 -0.7785  0.3229 -0.9246
  548MOL0     H75621   4.799   3.910   2.275  3.4383  3.3138 -2.1067
  548MOL0     H75622   4.783   3.696   2.391  0.5062 -0.4628  1.8674
  548MOL0     H75623   4.761   3.550   2.291  2.1004 -1.0011 -0.7198
  548MOL0     H75624   4.921   3.629   2.297  0.0526  0.6867  0.7932
  549MOL0     O75625   4.681   1.977  10.669  0.2321 -0.3181 -0.2714
  549MOL0     C75626   4.696   1.927  10.787  1.0304  0.2046 -0.6563
  549MOL0     O75627   4.597   1.917  10.882 -1.2526 -0.1381 -0.4817
  549MOL0     C75628   4.466   1.882  10.868 -0.4496 -0.5043 -0.3816
  549MOL0     C75629   4.411   1.846  10.991 -0.3979 -0.7494 -1.0510
  549MOL0     C75630   4.275   1.814  10.986 -0.4211  0.0081 -0.9001
  549MOL0     C75631   4.203   1.802  10.876  0.2792 -0.0329  0.0767
  549MOL0     O75632   4.068   1.773  10.892  0.1282 -0.2436  1.0937
  549MOL0     C75633   4.010   1.697  10.788  0.0323 -0.6073 -0.4648
  549MOL0     C75634   3.871   1.658  10.832 -0.0756  0.0796  0.3667
  549MOL0     C75635   3.876   1.571  10.967 -0.3868  0.2635  0.1077
  549MOL0     C75636   3.744   1.489  10.969  0.6994 -1.1858  0.9748
  549MOL0     C75637   3.755   1.406  11.083 -0.5950  0.0005 -0.6174
  549MOL0     C75638   3.622   1.361  11.141 -0.6859 -0.2773  0.1721
  549MOL0     C75639   3.590   1.444  11.270  0.7145 -0.2987 -0.9030
  549MOL0     C75640   3.458   1.401  11.340  0.0309 -0.0922  0.3394
  549MOL0     N75641   3.445   1.425  11.483 -0.4362  0.1444  0.1923
  549MOL0     C75642   3.540   1.402  11.583  0.3925 -0.4397  0.2229
  549MOL0     C75643   3.474   1.455  11.693 -0.3509  0.5428  0.8095
  549MOL0     C75644   3.529   1.442  11.837  0.7543  0.6566  0.1102
  549MOL0     C75645   3.481   1.299  11.888  0.7977 -0.6594  0.4544
  549MOL0     C75646   3.544   1.280  12.026  0.6627 -0.0615 -0.8332
  549MOL0     C75647   3.513   1.150  12.090  0.3153 -0.5414  0.7629
  549MOL0     O75648   3.417   1.071  12.012 -0.5358  0.3908  0.4525
  549MOL0     C75649   3.376   0.951  12.069  0.2451 -0.0898  0.4089
  549MOL0     C75650   3.284   0.878  11.988 -0.2965 -0.1377 -0.4616
  549MOL0     C75651   3.235   0.750  12.030  0.0311 -0.7570  1.4665
  549MOL0     C75652   3.132   0.695  11.938 -0.4426  0.2118  0.5590
  549MOL0     C75653   3.285   0.677  12.138  0.4081  0.7164 -0.9647
  549MOL0     C75654   3.244   0.539  12.187  0.4933 -0.1717  0.0377
  549MOL0     O75655   3.356   0.461  12.237 -0.0216  0.4706 -0.0530
  549MOL0     C75656   3.327   0.323  12.249 -1.1211 -0.9409  0.2147
  549MOL0     C75657   3.237   0.276  12.343 -0.3582 -0.8365 -0.3932
  549MOL0     C75658   3.210   0.137  12.354  0.7362  0.5598  0.4990
  549MOL0     C75659   3.262   0.047  12.262 -0.2321  1.1469  0.1367
  549MOL0     O75660   3.229  -0.084  12.257 -0.6772  0.0630 -0.5731
  549MOL0     C75661   3.113  -0.121  12.188  0.6949 -0.5959 -0.1576
  549MOL0     C75662   2.994  -0.122  12.275 -0.8448 -0.0618  0.7352
  549MOL0     C75663   2.995  -0.267  12.340  1.3039  0.4040 -0.3423
  549MOL0     C75664   2.899  -0.262  12.470  0.6282  0.5855 -0.1630
  549MOL0     C75665   2.857  -0.403  12.512 -0.2198 -0.8030 -0.0767
  549MOL0     C75666   2.762  -0.395  12.639  0.1108 -0.2524  0.2870
  549MOL0     C75667   2.731  -0.535  12.692  0.5476  0.0004 -0.3142
  549MOL0     C75668   2.656  -0.536  12.828  0.8215 -0.0991 -0.0440
  549MOL0    Cl75669   2.480  -0.505  12.814  0.4042 -0.4116  0.1677
  549MOL0     C75670   3.377   0.095  12.187 -0.0008  0.6486  0.0873
  549MOL0     C75671   3.406   0.233  12.182 -0.3406  0.0786 -0.0423
  549MOL0     O75672   3.139   0.486  12.162  0.1520  0.2684 -0.2333
  549MOL0     C75673   3.379   0.753  12.219 -0.2249 -0.2515 -0.3841
  549MOL0     C75674   3.421   0.884  12.180 -0.5382 -0.6903 -0.2335
  549MOL0     N75675   3.352   1.507  11.656 -0.2505 -0.0178 -0.7458
  549MOL0     N75676   3.333   1.483  11.530 -0.0830  0.1446 -0.6587
  549MOL0     C75677   4.254   1.851  10.757 -0.3517  0.4857 -0.2317
  549MOL0     C75678   4.389   1.884  10.746  0.2785  0.0135  0.4835
  549MOL0     C75679   4.829   1.881  10.816 -0.6896  0.9882  0.6260
  549MOL0     C75680   4.933   1.925  10.737  0.7602 -0.0043 -0.0238
  549MOL0     C75681   5.068   1.890  10.762  0.2155  1.2807 -0.0853
  549MOL0     C75682   5.105   1.807  10.872  0.7459  0.5859  0.0082
  549MOL0     O75683   5.236   1.794  10.901 -0.9808 -0.0426 -0.7608
  549MOL0     C75684   5.278   1.762  11.024  0.0267 -0.3341 -0.0986
  549MOL0     C75685   5.430   1.753  11.023 -0.3004  0.5274 -0.3045
  549MOL0     C75686   5.511   1.878  10.975  0.0924  0.2282  0.5627
  549MOL0     C75687   5.652   1.885  11.027  0.2098 -0.8144  0.1819
  549MOL0     C75688   5.742   1.787  10.951 -0.1832  0.6100 -0.1128
  549MOL0     C75689   5.816   1.707  10.901 -0.1997 -0.7066  0.2818
  549MOL0     C75690   4.998   1.756  10.948  0.3542  0.2928  0.4193
  549MOL0     C75691   4.863   1.788  10.918 -0.1300  0.5930  0.0067
  549MOL0     C75692   4.761   1.708  10.994  0.3334  0.5534  0.2274
  549MOL0     H75693   4.464   1.834  11.085 -0.8900 -2.0127 -0.9060
  549MOL0     H75694   4.221   1.795  11.078 -0.2370  1.9327 -0.3509
  549MOL0     H75695   4.062   1.601  10.775  2.1460  0.1169  1.9128
  549MOL0     H75696   4.012   1.746  10.690  0.8799  0.4902  0.0800
  549MOL0     H75697   3.814   1.751  10.832  0.5386  0.4857 -1.0138
  549MOL0     H75698   3.832   1.597  10.750  1.6483 -0.7025  0.0671
  549MOL0     H75699   3.960   1.501  10.969 -0.5740  0.0306 -0.1554
  549MOL0     H75700   3.890   1.639  11.052  1.0983  0.4426 -0.2460
  549MOL0     H75701   3.651   1.546  10.975  1.0442  0.0172 -2.7368
  549MOL0     H75702   3.741   1.430  10.876  2.1784  1.4962 -0.9155
  549MOL0     H75703   3.810   1.451  11.166  1.6707 -4.0987  0.4377
  549MOL0     H75704   3.815   1.318  11.058  0.3247 -0.1582  1.8846
  549MOL0     H75705   3.555   1.357  11.054  1.0766  1.1455 -1.3276
  549MOL0     H75706   3.630   1.258  11.177 -3.5172 -0.6521 -0.0693
  549MOL0     H75707   3.594   1.549  11.241 -0.7342  0.5844  1.7190
  549MOL0     H75708   3.666   1.425  11.346  1.2199  3.2865 -0.3372
  549MOL0     H75709   3.382   1.459  11.286  1.2611 -0.8938 -2.4084
  549MOL0     H75710   3.437   1.295  11.323  2.5837 -0.8497  1.5184
  549MOL0     H75711   3.638   1.354  11.582  0.4815 -0.3191 -2.1711
  549MOL0     H75712   3.500   1.522  11.906  0.3482  1.9084 -1.4473
  549MOL0     H75713   3.639   1.442  11.838  0.7677  0.4789  2.0198
  549MOL0     H75714   3.372   1.292  11.886  0.7445  0.1786 -0.2282
  549MOL0     H75715   3.519   1.218  11.824  1.0678  0.5031 -0.9037
  549MOL0     H75716   3.652   1.301  12.022  0.4810  0.8945 -1.0980
  549MOL0     H75717   3.509   1.359  12.093  1.7079 -1.1132  1.0511
  549MOL0     H75718   3.610   1.100  12.084 -0.4308 -1.8835 -0.9055
  549MOL0     H75719   3.478   1.152  12.194  0.3664 -5.7398  1.1703
  549MOL0     H75720   3.247   0.921  11.896  0.0422 -1.6948 -1.3558
  549MOL0     H75721   3.171   0.711  11.837  1.4758  0.5358  1.3166
  549MOL0     H75722   3.028   0.730  11.939 -1.0484 -1.3487 -1.4816
  549MOL0     H75723   3.119   0.587  11.948 -2.2201  0.3477  0.0698
  549MOL0     H75724   3.197   0.350  12.412 -0.2224 -2.1708  1.1468
  549MOL0     H75725   3.142   0.094  12.427  2.7894  1.7212  3.2592
  549MOL0     H75726   3.104  -0.060  12.097 -1.9038 -2.1252 -1.0607
  549MOL0     H75727   3.119  -0.215  12.131  2.0687  0.2143 -1.4257
  549MOL0     H75728   2.986  -0.037  12.343 -1.7503  0.9029 -0.5146
  549MOL0     H75729   2.902  -0.114  12.216  0.0442 -3.4624 -1.3847
  549MOL0     H75730   3.090  -0.292  12.389 -1.4761  0.6338  6.2768
  549MOL0     H75731   2.965  -0.345  12.270 -0.9252 -0.8781  1.8750
  549MOL0     H75732   2.808  -0.214  12.433  1.1854  0.5039 -1.7146
  549MOL0     H75733   2.947  -0.216  12.557  0.9820 -2.4620  1.4032
  549MOL0     H75734   2.789  -0.460  12.449 -3.1778  2.2759  0.0398
  549MOL0     H75735   2.943  -0.467  12.534 -0.8569 -1.7193 -0.1697
  549MOL0     H75736   2.678  -0.326  12.621 -0.7300  0.0295  4.2293
  549MOL0     H75737   2.832  -0.351  12.711 -1.4887 -0.7162  2.2353
  549MOL0     H75738   2.827  -0.578  12.721 -0.3452 -0.2480  2.6265
  549MOL0     H75739   2.690  -0.602  12.615  1.8466  0.7975 -1.7541
  549MOL0     H75740   2.702  -0.451  12.878  0.5920  0.3699 -0.6204
  549MOL0     H75741   2.676  -0.637  12.865  2.2623 -0.4189 -1.5272
  549MOL0     H75742   3.438   0.029  12.127  0.3902  1.1783 -0.1064
  549MOL0     H75743   3.494   0.259  12.125  1.3542 -0.8647  1.9819
  549MOL0     H75744   3.404   0.708  12.314  0.6818  2.9914  1.0710
  549MOL0     H75745   3.493   0.943  12.236 -1.2623  0.9071 -0.9472
  549MOL0     H75746   4.192   1.881  10.673 -0.9256 -1.2471 -0.4816
  549MOL0     H75747   4.439   1.925  10.659  1.1142  2.9385  2.1812
  549MOL0     H75748   4.904   1.980  10.648 -1.4344 -1.0239  0.0051
  549MOL0     H75749   5.144   1.927  10.694 -1.2249 -1.5382 -3.5484
  549MOL0     H75750   5.233   1.843  11.082 -3.3984 -2.5371  0.5873
  549MOL0     H75751   5.237   1.667  11.059 -0.7584 -0.3694 -1.0885
  549MOL0     H75752   5.479   1.674  10.965  3.0726  1.4933  0.9814
  549MOL0     H75753   5.449   1.725  11.127 -0.6300 -0.4590 -0.5048
  549MOL0     H75754   5.510   1.892  10.867 -0.7055  1.6288  0.7220
  549MOL0     H75755   5.454   1.964  11.011 -3.4060 -0.6206 -2.3464
  549MOL0     H75756   5.655   1.872  11.135 -2.9978  1.5000  0.6857
  549MOL0     H75757   5.693   1.984  11.006  1.9648 -1.7019 -0.9028
  549MOL0     H75758   5.878   1.639  10.846 -2.4897 -2.5795 -0.1409
  549MOL0     H75759   5.010   1.677  11.022 -3.6643 -3.9466 -2.8169
  549MOL0     H75760   4.704   1.770  11.064 -0.4690 -0.8902  0.9039
  549MOL0     H75761   4.692   1.658  10.926  0.1927  0.0185  0.7523
  549MOL0     H75762   4.826   1.642  11.052  4.6841  3.7750 -0.4738
  550MOL0     O75763   7.229   9.564   3.552  0.2509 -0.5867 -0.4550
  550MOL0     C75764   7.294   9.555   3.451  0.5887 -0.2254  0.0250
  550MOL0     O75765   7.416   9.486   3.437 -0.4559 -0.8713  0.2593
  550MOL0     C75766   7.435   9.386   3.526  1.6023 -0.1126 -0.2272
  550MOL0     C75767   7.335   9.285   3.552  0.0252 -0.4380  0.3648
  550MOL0     C75768   7.370   9.174   3.643  0.1458  0.4150 -0.1742
  550MOL0     C75769   7.487   9.177   3.727  0.5282  0.6119  0.5959
  550MOL0     O75770   7.522   9.075   3.817 -0.4530  0.3299 -0.1998
  550MOL0     C75771   7.427   8.980   3.863  0.4758 -0.7327  0.6123
  550MOL0     C75772   7.315   9.042   3.934 -0.0905 -0.3536 -0.0447
  550MOL0     C75773   7.224   8.937   3.985  0.0033  0.1882  0.5761
  550MOL0     C75774   7.302   8.838   4.079  1.1348 -0.0011 -0.4014
  550MOL0     C75775   7.212   8.743   4.160 -0.3126  0.1812  0.9214
  550MOL0     C75776   7.095   8.685   4.083  0.5678  0.2214 -0.4694
  550MOL0     C75777   7.027   8.567   4.170  0.1174  0.3863  0.9142
  550MOL0     C75778   6.889   8.535   4.096 -0.4474  0.2970 -0.4313
  550MOL0     N75779   6.783   8.466   4.173 -0.2880 -0.5862 -0.8015
  550MOL0     C75780   6.773   8.329   4.191  0.4158  0.1561 -0.4174
  550MOL0     C75781   6.658   8.327   4.262  0.2198  0.9446 -0.5612
  550MOL0     C75782   6.588   8.199   4.309  0.0309  0.0369  0.0231
  550MOL0     C75783   6.677   8.085   4.363  0.0705  0.2166 -0.4322
  550MOL0     C75784   6.609   7.986   4.463  0.1228  0.1817  0.0429
  550MOL0     C75785   6.697   7.870   4.505  0.5645 -0.6981 -0.2252
  550MOL0     O75786   6.628   7.784   4.599 -0.7470 -0.2443  0.4459
  550MOL0     C75787   6.704   7.698   4.677  0.1004  0.4119 -1.3139
  550MOL0     C75788   6.843   7.660   4.655  0.3706  0.4034 -0.3390
  550MOL0     C75789   6.911   7.585   4.755  0.5256  0.1751 -0.0032
  550MOL0     C75790   7.056   7.560   4.722 -0.1624  0.3549 -0.2726
  550MOL0     C75791   6.829   7.528   4.858 -0.5121  0.9003  0.3651
  550MOL0     C75792   6.872   7.416   4.952 -0.2197  0.0959 -0.5375
  550MOL0     O75793   6.774   7.338   5.019 -0.2407 -0.6526  0.2274
  550MOL0     C75794   6.796   7.256   5.134 -0.1624 -0.6496  0.4660
  550MOL0     C75795   6.703   7.154   5.154  0.3356 -0.2443  0.5619
  550MOL0     C75796   6.704   7.074   5.266  0.8002  0.3574  0.0194
  550MOL0     C75797   6.804   7.099   5.370  0.0593 -0.4986  0.3956
  550MOL0     O75798   6.779   7.036   5.491  0.1555  0.3431  0.8111
  550MOL0     C75799   6.856   7.084   5.602 -0.2109  0.2556  0.1813
  550MOL0     C75800   6.813   7.011   5.721 -0.5024  0.4266  0.4430
  550MOL0     C75801   6.853   6.855   5.706  0.4290  0.0678 -0.2584
  550MOL0     C75802   7.008   6.842   5.730  0.2541 -1.1494 -0.1929
  550MOL0     C75803   7.050   6.690   5.749  0.4966 -0.5496  0.0074
  550MOL0     C75804   7.196   6.678   5.750  0.2720  0.3253  0.2929
  550MOL0     C75805   7.241   6.537   5.771 -0.4039  0.0920  1.3660
  550MOL0     C75806   7.178   6.477   5.891 -0.6474 -0.2327 -0.1161
  550MOL0    Cl75807   7.196   6.581   6.043 -0.0327  0.3164  0.2960
  550MOL0     C75808   6.901   7.204   5.344  0.3876 -0.5843 -1.1111
  550MOL0     C75809   6.900   7.277   5.222  0.4887  0.1026  0.0745
  550MOL0     O75810   6.994   7.392   4.958  0.3110 -1.0438  0.3859
  550MOL0     C75811   6.695   7.558   4.870  0.5271  1.2437  0.7965
  550MOL0     C75812   6.632   7.640   4.782  0.2721  0.5800  0.8413
  550MOL0     N75813   6.599   8.454   4.281  0.1291 -0.0464 -0.4150
  550MOL0     N75814   6.690   8.530   4.233  1.0956 -0.0176 -0.3273
  550MOL0     C75815   7.586   9.279   3.685  0.0839  0.8727  0.2542
  550MOL0     C75816   7.565   9.376   3.587  1.2693  0.1484  0.1272
  550MOL0     C75817   7.219   9.617   3.335 -0.2008 -0.2090 -1.7704
  550MOL0     C75818   7.283   9.601   3.212  0.1219 -0.3307  1.1236
  550MOL0     C75819   7.228   9.657   3.096  0.8817  0.2724 -0.2290
  550MOL0     C75820   7.098   9.716   3.105 -0.3940  0.1205 -0.2314
  550MOL0     O75821   7.043   9.745   2.987 -0.8137 -0.3671  0.1458
  550MOL0     C75822   6.998   9.884   2.970  0.6098  0.4870 -0.4061
  550MOL0     C75823   6.840   9.893   2.968 -0.0100  0.4896 -0.3432
  550MOL0     C75824   6.782   9.811   2.843 -0.6024 -0.6991 -0.2494
  550MOL0     C75825   6.625   9.823   2.826 -0.6243 -0.0616 -0.1414
  550MOL0     C75826   6.550   9.765   2.935 -0.5759 -0.3062 -0.8630
  550MOL0     C75827   6.483   9.708   3.018  0.1163  0.5030 -0.0335
  550MOL0     C75828   7.022   9.722   3.223 -0.1546  0.4990 -0.5766
  550MOL0     C75829   7.089   9.681   3.346 -0.3353  0.1140  0.9104
  550MOL0     C75830   7.018   9.711   3.480 -0.4244 -1.0063  0.3924
  550MOL0     H75831   7.244   9.280   3.493 -0.3387  0.4106  0.8354
  550MOL0     H75832   7.298   9.094   3.654 -0.9852  1.0176 -2.5045
  550MOL0     H75833   7.486   8.942   3.947 -0.7352 -0.4626  1.6146
  550MOL0     H75834   7.405   8.909   3.784  0.1028  0.9165 -0.8282
  550MOL0     H75835   7.348   9.102   4.019 -0.9220 -1.3013  0.9809
  550MOL0     H75836   7.253   9.107   3.872  0.8298  0.4648 -0.1318
  550MOL0     H75837   7.151   8.989   4.047 -1.9739 -0.3913 -1.1411
  550MOL0     H75838   7.187   8.884   3.896 -0.4235  1.4269 -0.0041
  550MOL0     H75839   7.375   8.777   4.025  0.3184 -0.7617 -0.6783
  550MOL0     H75840   7.364   8.897   4.147  1.7717 -1.2928  0.1718
  550MOL0     H75841   7.175   8.813   4.235  2.9274  1.9446  1.0636
  550MOL0     H75842   7.271   8.661   4.202 -0.8132  0.9798  3.3495
  550MOL0     H75843   7.029   8.769   4.060  3.5825  2.0905 -3.3536
  550MOL0     H75844   7.133   8.647   3.988 -2.5069  2.8280 -2.9447
  550MOL0     H75845   7.007   8.609   4.269  0.1366  0.8116  0.7435
  550MOL0     H75846   7.076   8.471   4.157 -0.2390  0.3463 -0.2654
  550MOL0     H75847   6.838   8.621   4.050 -1.3996 -0.9090 -1.7091
  550MOL0     H75848   6.906   8.472   4.008 -0.4828 -1.3896  0.7202
  550MOL0     H75849   6.836   8.248   4.157 -0.3648 -2.0295  2.8914
  550MOL0     H75850   6.519   8.162   4.233 -0.4966  2.2643 -0.6522
  550MOL0     H75851   6.530   8.240   4.393 -1.6568 -1.0920 -0.5335
  550MOL0     H75852   6.699   8.025   4.274  0.8434 -2.8288  1.6815
  550MOL0     H75853   6.771   8.114   4.409 -0.3321  0.8373  0.0231
  550MOL0     H75854   6.584   8.037   4.556 -0.2486  0.8310 -0.4055
  550MOL0     H75855   6.518   7.943   4.417  0.9430 -1.4390 -0.1465
  550MOL0     H75856   6.720   7.804   4.421 -2.0115 -1.2468 -0.5750
  550MOL0     H75857   6.793   7.912   4.536 -0.0440  1.6944 -1.3342
  550MOL0     H75858   6.907   7.697   4.576  0.8747  1.7975  0.6842
  550MOL0     H75859   7.109   7.641   4.671 -0.4996  0.2793 -0.7546
  550MOL0     H75860   7.056   7.487   4.640 -2.1842 -0.9174  0.8002
  550MOL0     H75861   7.115   7.532   4.810 -0.4338  3.7522  1.1175
  550MOL0     H75862   6.633   7.143   5.072  1.6748 -0.1835 -0.6236
  550MOL0     H75863   6.628   6.997   5.274  1.7449 -0.7936 -1.4863
  550MOL0     H75864   6.960   7.066   5.575 -0.0701  0.5054  0.5538
  550MOL0     H75865   6.830   7.189   5.617 -1.1157  0.8408 -4.0583
  550MOL0     H75866   6.871   7.057   5.801  1.4412 -1.3062  0.1284
  550MOL0     H75867   6.708   7.039   5.734  0.4403  3.6272  2.2679
  550MOL0     H75868   6.825   6.803   5.614  0.2747  0.9876 -0.7425
  550MOL0     H75869   6.805   6.793   5.782  1.7142  1.2060  1.5568
  550MOL0     H75870   7.047   6.891   5.820 -1.9063 -0.6384  0.5436
  550MOL0     H75871   7.058   6.893   5.648 -0.3651  1.4482  0.9183
  550MOL0     H75872   7.011   6.651   5.843 -0.2362 -0.6357 -0.3282
  550MOL0     H75873   7.016   6.632   5.663 -0.4253  0.2940 -0.2156
  550MOL0     H75874   7.253   6.732   5.826  3.2187 -0.8757 -0.9327
  550MOL0     H75875   7.231   6.717   5.655  1.1787  2.3025  1.3737
  550MOL0     H75876   7.350   6.534   5.783 -0.3128  0.0448  0.5851
  550MOL0     H75877   7.213   6.479   5.682 -3.5593 -0.6828  2.7238
  550MOL0     H75878   7.225   6.380   5.911 -0.7565 -0.5401 -1.2938
  550MOL0     H75879   7.071   6.456   5.880 -0.6244  0.5752 -2.3325
  550MOL0     H75880   6.975   7.233   5.418 -0.3262  1.7024 -1.2061
  550MOL0     H75881   6.977   7.354   5.215  0.5389  0.0514  0.0618
  550MOL0     H75882   6.637   7.515   4.951  1.6563  0.9953  1.4956
  550MOL0     H75883   6.533   7.681   4.799  0.1827  1.2754 -1.1036
  550MOL0     H75884   7.687   9.280   3.723 -0.1801  1.6220  0.9698
  550MOL0     H75885   7.634   9.458   3.570  0.1207  0.9879 -0.5812
  550MOL0     H75886   7.371   9.538   3.202 -0.6160 -2.1008  4.3640
  550MOL0     H75887   7.291   9.640   3.009 -0.2274 -1.1370 -0.8010
  550MOL0     H75888   7.039   9.953   3.045  0.3408 -0.0400  0.2343
  550MOL0     H75889   7.029   9.925   2.873  0.1724 -0.2884 -0.8810
  550MOL0     H75890   6.809   9.994   2.939 -0.1555  0.4089 -0.4760
  550MOL0     H75891   6.805   9.860   3.066 -0.8420 -1.0555 -1.1163
  550MOL0     H75892   6.809   9.867   2.754 -2.7641  2.5892  0.9537
  550MOL0     H75893   6.810   9.707   2.863  2.1016 -0.2119 -1.1783
  550MOL0     H75894   6.605   9.781   2.727  4.7425 -3.6983 -0.0796
  550MOL0     H75895   6.604   9.931   2.827  0.3735  0.1453  1.0465
  550MOL0     H75896   6.418   9.665   3.092  0.5064 -2.8122 -1.4181
  550MOL0     H75897   6.919   9.755   3.233 -0.3645 -0.2990  0.0105
  550MOL0     H75898   6.990   9.618   3.529  3.2736 -2.6052 -0.2019
  550MOL0     H75899   7.081   9.765   3.552 -0.7680 -1.0782  0.7522
  550MOL0     H75900   6.937   9.775   3.443  0.7506  0.3566  0.0997
  551MOL0     O75901   0.570   5.342   3.971 -0.3314  0.3877  0.0424
  551MOL0     C75902   0.659   5.376   4.054  0.4723  0.7627 -0.5055
  551MOL0     O75903   0.785   5.407   4.027  0.1018  1.2563 -0.1966
  551MOL0     C75904   0.820   5.414   3.895  0.3242  0.1142 -1.0126
  551MOL0     C75905   0.804   5.310   3.802  0.7627  0.0658 -0.0412
  551MOL0     C75906   0.863   5.315   3.681  0.6117  0.1624 -0.3257
  551MOL0     C75907   0.947   5.432   3.641  1.3865  0.6312 -0.9023
  551MOL0     O75908   1.010   5.442   3.521  0.7163 -0.2328 -0.4134
  551MOL0     C75909   0.958   5.356   3.419  0.3505  0.6248 -0.3034
  551MOL0     C75910   1.018   5.398   3.286  0.6652 -0.3968 -0.4686
  551MOL0     C75911   1.169   5.355   3.263 -0.1743 -0.4377  0.0563
  551MOL0     C75912   1.232   5.431   3.142  0.7070  0.4339  0.2319
  551MOL0     C75913   1.342   5.364   3.073  0.5986  0.7064 -0.1751
  551MOL0     C75914   1.445   5.448   3.002  0.4152 -0.1963 -0.4828
  551MOL0     C75915   1.574   5.359   2.979 -0.0817  0.2837 -0.1606
  551MOL0     C75916   1.690   5.437   2.915 -0.9588  0.0904 -0.4531
  551MOL0     N75917   1.718   5.563   3.002 -0.1875  0.5965  0.3393
  551MOL0     C75918   1.750   5.558   3.138  0.2432 -0.5274 -0.1791
  551MOL0     C75919   1.776   5.686   3.169 -0.8991  0.1041 -0.5252
  551MOL0     C75920   1.800   5.726   3.317  0.7802 -0.0816  0.6272
  551MOL0     C75921   1.680   5.791   3.390  0.2072 -0.3302 -0.2258
  551MOL0     C75922   1.677   5.768   3.543 -0.5168 -0.4046  0.5354
  551MOL0     C75923   1.541   5.821   3.595 -0.7124 -0.6545 -0.0418
  551MOL0     O75924   1.526   5.791   3.735  0.3621  0.0993  0.4290
  551MOL0     C75925   1.404   5.806   3.792  0.3792 -0.4386 -0.3310
  551MOL0     C75926   1.297   5.889   3.742 -0.2698  0.2432  0.4721
  551MOL0     C75927   1.173   5.887   3.797  0.0381  0.1636 -0.8044
  551MOL0     C75928   1.062   5.946   3.713  0.3633 -0.7227 -0.6202
  551MOL0     C75929   1.160   5.831   3.928  0.5946 -0.2483 -0.4844
  551MOL0     C75930   1.038   5.832   4.018 -0.3073 -0.5249 -0.1256
  551MOL0     O75931   1.041   5.769   4.139  0.2289  0.1823 -0.7148
  551MOL0     C75932   0.933   5.788   4.222 -0.3019 -0.3026  0.2913
  551MOL0     C75933   0.810   5.719   4.204 -0.5272  0.7381  0.0762
  551MOL0     C75934   0.705   5.740   4.297 -0.1958 -0.6261 -0.2671
  551MOL0     C75935   0.715   5.834   4.401 -0.1539  0.5394  1.2673
  551MOL0     O75936   0.604   5.853   4.480  0.4970 -0.0746  0.4557
  551MOL0     C75937   0.622   5.852   4.625 -0.8439 -0.9038 -0.5924
  551MOL0     C75938   0.490   5.880   4.698 -0.2321  0.1119 -0.0429
  551MOL0     C75939   0.381   5.778   4.672  0.2592  0.7069  0.9623
  551MOL0     C75940   0.268   5.796   4.780  1.4898 -1.1398 -1.1260
  551MOL0     C75941   0.164   5.704   4.733  0.3595 -0.0623 -0.0721
  551MOL0     C75942   0.055   5.717   4.841 -0.5170  0.2619 -0.1056
  551MOL0     C75943  -0.073   5.623   4.799  0.9118 -0.8729  0.2504
  551MOL0     C75944  -0.195   5.667   4.880 -0.0389 -0.0387 -0.5745
  551MOL0    Cl75945  -0.309   5.529   4.897  0.3165 -0.2529 -0.2470
  551MOL0     C75946   0.838   5.898   4.419 -0.7376 -1.0577 -0.9499
  551MOL0     C75947   0.952   5.874   4.341  0.3602  0.2041  0.5421
  551MOL0     O75948   0.941   5.900   3.978 -1.0367  0.4174  0.6027
  551MOL0     C75949   1.265   5.757   3.984  0.7091 -0.1863  0.1065
  551MOL0     C75950   1.387   5.749   3.916  0.1112  0.8590  0.6123
  551MOL0     N75951   1.779   5.762   3.049  0.1428 -0.4481 -0.2789
  551MOL0     N75952   1.757   5.685   2.950 -0.1760 -0.5154  0.7370
  551MOL0     C75953   0.957   5.537   3.736 -1.0062 -0.1346  0.2934
  551MOL0     C75954   0.904   5.526   3.866  0.5209  0.7252 -0.5066
  551MOL0     C75955   0.616   5.373   4.194  0.0001  0.2302  0.6138
  551MOL0     C75956   0.478   5.393   4.227  0.6991  0.9542 -0.1833
  551MOL0     C75957   0.428   5.394   4.359  0.7665  0.2364  0.3456
  551MOL0     C75958   0.518   5.366   4.458 -0.4063 -0.2299 -0.4026
  551MOL0     O75959   0.471   5.361   4.589  0.0011 -0.1217 -0.9226
  551MOL0     C75960   0.375   5.258   4.620  0.2203 -0.4834  0.0665
  551MOL0     C75961   0.289   5.298   4.740 -0.0719 -0.4128  0.4696
  551MOL0     C75962   0.374   5.345   4.860  0.1582 -0.2623 -0.4031
  551MOL0     C75963   0.405   5.227   4.963 -0.9937  0.8158 -0.3729
  551MOL0     C75964   0.281   5.183   5.024  0.3453  1.6632 -0.2222
  551MOL0     C75965   0.169   5.153   5.068  0.9710 -1.5172 -0.2794
  551MOL0     C75966   0.654   5.349   4.428  0.1802 -0.2759  0.0568
  551MOL0     C75967   0.707   5.355   4.300 -0.7412 -0.2375  0.3445
  551MOL0     C75968   0.858   5.354   4.290 -0.0726 -0.3917  0.0844
  551MOL0     H75969   0.755   5.216   3.821  0.7692  0.2962  1.2179
  551MOL0     H75970   0.873   5.228   3.616  2.4593 -0.1367  0.3185
  551MOL0     H75971   0.849   5.361   3.420  0.2718 -0.9275  0.3823
  551MOL0     H75972   0.997   5.257   3.443  1.1062  1.1628  0.7874
  551MOL0     H75973   0.970   5.345   3.203 -0.3444 -0.3655  0.0868
  551MOL0     H75974   1.006   5.507   3.278 -2.4080 -0.3903  2.2771
  551MOL0     H75975   1.231   5.368   3.352 -1.0766  2.3974  0.3559
  551MOL0     H75976   1.177   5.247   3.246 -1.4515 -0.3428 -1.3741
  551MOL0     H75977   1.147   5.446   3.074  0.7830 -1.5839 -0.4027
  551MOL0     H75978   1.257   5.533   3.172 -1.8042  1.5829 -1.2164
  551MOL0     H75979   1.303   5.298   2.995 -0.7143  0.6953  0.4622
  551MOL0     H75980   1.401   5.301   3.140 -0.2435  0.5058  0.4107
  551MOL0     H75981   1.403   5.472   2.904 -1.4722 -1.2803  0.0071
  551MOL0     H75982   1.459   5.546   3.049  1.4244 -0.3334 -0.4759
  551MOL0     H75983   1.555   5.277   2.908  0.8391  0.8323 -1.0704
  551MOL0     H75984   1.606   5.321   3.076  2.3287 -0.5114 -1.1888
  551MOL0     H75985   1.782   5.378   2.917 -2.2743 -2.0638  0.3344
  551MOL0     H75986   1.678   5.461   2.809 -4.1817  3.2572  0.4064
  551MOL0     H75987   1.741   5.476   3.209  0.9743 -0.5636 -0.1205
  551MOL0     H75988   1.892   5.786   3.320  0.6587  0.1106  0.5744
  551MOL0     H75989   1.820   5.630   3.364 -2.9930 -0.9733  0.7390
  551MOL0     H75990   1.680   5.894   3.355  4.1273 -0.6646 -1.6636
  551MOL0     H75991   1.590   5.755   3.339 -0.1493  3.2063 -2.4097
  551MOL0     H75992   1.677   5.659   3.559 -0.4338 -0.5624 -0.4907
  551MOL0     H75993   1.761   5.821   3.589 -0.9326  1.1066 -0.4090
  551MOL0     H75994   1.532   5.927   3.570 -1.1292 -1.1645 -2.2164
  551MOL0     H75995   1.464   5.765   3.540  0.0471 -0.5055 -1.2915
  551MOL0     H75996   1.314   5.930   3.643  0.6157  0.3135  0.6522
  551MOL0     H75997   1.091   6.047   3.684 -4.0114  1.1401  0.6856
  551MOL0     H75998   0.964   5.950   3.760  1.2803  1.9312  1.3179
  551MOL0     H75999   1.036   5.908   3.613 -0.8043  0.2144 -0.6951
  551MOL0     H76000   0.798   5.659   4.114  0.2580  1.9738 -0.8998
  551MOL0     H76001   0.619   5.674   4.289  0.6836 -1.7689 -0.5776
  551MOL0     H76002   0.665   5.758   4.660 -2.9672 -0.8386  2.5865
  551MOL0     H76003   0.682   5.938   4.657  1.3783 -1.1791 -3.5752
  551MOL0     H76004   0.539   5.876   4.796 -1.2355  1.7034  0.5576
  551MOL0     H76005   0.459   5.984   4.699  0.0073  0.1951  1.5250
  551MOL0     H76006   0.421   5.676   4.672 -0.7341  0.2900 -0.0654
  551MOL0     H76007   0.330   5.785   4.576 -1.5447 -2.9991  1.4391
  551MOL0     H76008   0.229   5.897   4.762 -0.8574 -2.0658 -1.5645
  551MOL0     H76009   0.292   5.785   4.886 -2.7333 -2.1891 -0.0993
  551MOL0     H76010   0.119   5.734   4.638 -1.1033 -1.3164  0.1836
  551MOL0     H76011   0.205   5.603   4.727 -3.1481 -1.5502 -1.5949
  551MOL0     H76012   0.010   5.816   4.852 -2.5992 -0.5401 -0.8271
  551MOL0     H76013   0.094   5.691   4.940  0.0913 -2.5835 -0.9814
  551MOL0     H76014  -0.042   5.523   4.831  3.3957 -0.2070  0.0840
  551MOL0     H76015  -0.087   5.633   4.691  0.2168 -0.9582  0.3283
  551MOL0     H76016  -0.254   5.750   4.840 -4.0433 -2.1395  0.4407
  551MOL0     H76017  -0.170   5.688   4.984  0.3335 -2.0780 -0.2054
  551MOL0     H76018   0.850   5.962   4.506  1.8245 -2.0980 -0.4345
  551MOL0     H76019   1.040   5.934   4.363  1.5706 -0.6300 -1.7962
  551MOL0     H76020   1.258   5.694   4.072 -1.3414  0.1439  0.2228
  551MOL0     H76021   1.459   5.683   3.963 -1.0534 -1.1907 -0.3384
  551MOL0     H76022   1.012   5.623   3.698 -1.7902 -0.8255 -2.5781
  551MOL0     H76023   0.919   5.605   3.938  1.2893 -0.5867  0.8423
  551MOL0     H76024   0.426   5.427   4.138  1.2644 -0.6329 -1.1564
  551MOL0     H76025   0.322   5.405   4.384  0.5336 -1.6454  0.3261
  551MOL0     H76026   0.308   5.231   4.538  0.8893  0.0428 -0.6778
  551MOL0     H76027   0.430   5.167   4.645 -0.0082 -1.7852 -3.5121
  551MOL0     H76028   0.233   5.206   4.760  1.2662 -1.3780 -0.0342
  551MOL0     H76029   0.224   5.381   4.711 -0.9717 -1.5202 -0.7853
  551MOL0     H76030   0.461   5.398   4.819  0.5590 -1.9500 -1.8474
  551MOL0     H76031   0.316   5.421   4.912  0.5699 -2.2793  3.3310
  551MOL0     H76032   0.473   5.259   5.043 -0.0705 -0.6012 -0.5425
  551MOL0     H76033   0.457   5.140   4.921 -3.1157 -0.1187 -1.2008
  551MOL0     H76034   0.076   5.127   5.114  0.2145  1.1081 -0.1901
  551MOL0     H76035   0.724   5.330   4.509  2.0278  2.3281 -0.7748
  551MOL0     H76036   0.893   5.253   4.269 -0.3632  0.1678 -4.0592
  551MOL0     H76037   0.897   5.427   4.218 -0.9985 -0.2607 -0.2887
  551MOL0     H76038   0.898   5.392   4.384  0.7407 -0.3438 -0.2675
  552MOL0     O76039   0.552   3.933   4.119  0.6243  0.6101  0.0491
  552MOL0     C76040   0.484   3.835   4.095  0.2555  0.8188 -1.0948
  552MOL0     O76041   0.352   3.819   4.132 -0.7306  0.3747  0.0299
  552MOL0     C76042   0.268   3.909   4.198 -0.7823  0.0691 -0.1672
  552MOL0     C76043   0.308   4.023   4.272 -0.2106 -0.5069  0.5900
  552MOL0     C76044   0.211   4.108   4.341  0.5196 -0.0848 -0.4650
  552MOL0     C76045   0.073   4.080   4.326 -1.1161 -0.0297  1.5001
  552MOL0     O76046  -0.034   4.148   4.368  0.1544  0.1876 -0.0745
  552MOL0     C76047  -0.021   4.283   4.412 -0.1981  0.2419 -1.0025
  552MOL0     C76048  -0.006   4.268   4.569  0.1311 -0.6867  0.2928
  552MOL0     C76049  -0.141   4.246   4.635 -1.1738 -0.0201  0.0156
  552MOL0     C76050  -0.124   4.273   4.784 -0.7000 -0.2772 -0.0745
  552MOL0     C76051  -0.257   4.299   4.857  0.5475  0.0536 -0.4190
  552MOL0     C76052  -0.236   4.324   5.010  1.2210  0.3772 -0.8169
  552MOL0     C76053  -0.352   4.405   5.076 -1.1007  0.8815  0.7799
  552MOL0     C76054  -0.375   4.551   5.031  0.3840  0.1120  0.3666
  552MOL0     N76055  -0.278   4.648   5.062  0.4023 -0.4227  0.4235
  552MOL0     C76056  -0.233   4.667   5.187 -0.3512 -0.2212 -0.7758
  552MOL0     C76057  -0.127   4.746   5.171 -0.6514  0.4480 -0.3384
  552MOL0     C76058  -0.044   4.806   5.284  0.2465 -0.0159 -1.3241
  552MOL0     C76059   0.085   4.727   5.302 -0.2317 -0.4183 -0.1412
  552MOL0     C76060   0.176   4.778   5.413 -0.2139 -0.2631 -0.1589
  552MOL0     C76061   0.289   4.676   5.437 -0.5454 -0.4629 -0.4298
  552MOL0     O76062   0.231   4.545   5.473 -0.8451 -0.3853  0.4536
  552MOL0     C76063   0.197   4.532   5.608  0.6559 -0.0293  0.1249
  552MOL0     C76064   0.128   4.407   5.621  0.0648  0.5827 -0.6099
  552MOL0     C76065   0.100   4.354   5.755  0.3868  0.0013 -0.3664
  552MOL0     C76066   0.022   4.227   5.780  0.0225 -0.5150  0.3720
  552MOL0     C76067   0.135   4.434   5.869 -0.1021  0.7700 -0.0808
  552MOL0     C76068   0.106   4.394   6.001 -0.1813  0.7242 -0.5438
  552MOL0     O76069   0.156   4.277   6.051  0.4631 -0.0720 -0.5222
  552MOL0     C76070   0.130   4.253   6.180  0.4574  0.5182 -0.0277
  552MOL0     C76071   0.232   4.266   6.279  0.2968 -0.6002  0.1021
  552MOL0     C76072   0.213   4.215   6.403  0.4327  0.0817 -0.0005
  552MOL0     C76073   0.090   4.159   6.442 -0.4686 -0.4537  0.7403
  552MOL0     O76074   0.064   4.141   6.575  0.5140  0.4470  0.6781
  552MOL0     C76075  -0.043   4.046   6.612  0.5256 -0.0822  0.1514
  552MOL0     C76076  -0.015   3.894   6.564  0.3512 -0.8853 -0.5822
  552MOL0     C76077   0.104   3.851   6.651  0.3438  0.0779 -0.0232
  552MOL0     C76078   0.121   3.702   6.635  0.8686  0.8082  0.0428
  552MOL0     C76079   0.246   3.639   6.706 -0.1705 -0.5880 -0.3278
  552MOL0     C76080   0.268   3.653   6.856  0.7106  0.6228 -0.5315
  552MOL0     C76081   0.192   3.551   6.933 -0.2217  0.0045  0.3591
  552MOL0     C76082   0.179   3.576   7.084 -0.3706 -0.6956 -0.3895
  552MOL0    Cl76083   0.078   3.725   7.116 -0.4294 -0.3314 -0.0560
  552MOL0     C76084  -0.008   4.144   6.344 -0.0217 -0.4392 -0.5697
  552MOL0     C76085   0.002   4.196   6.214  0.1722 -0.5339 -0.8535
  552MOL0     O76086   0.024   4.460   6.058 -0.3757  0.2625  1.2809
  552MOL0     C76087   0.192   4.560   5.851  0.6812  0.6285 -0.7347
  552MOL0     C76088   0.227   4.604   5.719 -0.8317 -0.0332  0.6891
  552MOL0     N76089  -0.106   4.755   5.036  0.7669 -0.0542 -0.7243
  552MOL0     N76090  -0.195   4.692   4.968 -0.2330  0.8441  0.2696
  552MOL0     C76091   0.045   3.967   4.257 -0.2060  0.7574  0.1930
  552MOL0     C76092   0.133   3.882   4.195  0.8596 -0.4034 -0.9498
  552MOL0     C76093   0.530   3.745   3.992  0.2830 -0.5178 -0.4687
  552MOL0     C76094   0.436   3.673   3.927  1.7303 -0.3819  0.3855
  552MOL0     C76095   0.464   3.594   3.819 -0.5579  0.2584  0.2643
  552MOL0     C76096   0.591   3.590   3.768 -2.0873  0.4278 -0.6468
  552MOL0     O76097   0.619   3.508   3.662  0.5177 -0.8884  0.1811
  552MOL0     C76098   0.547   3.527   3.545 -0.1430 -0.2212  0.6515
  552MOL0     C76099   0.643   3.512   3.423  0.5043 -0.0009  0.3503
  552MOL0     C76100   0.769   3.593   3.447 -0.1636 -0.1426 -0.0041
  552MOL0     C76101   0.866   3.558   3.337 -0.5781  0.3900 -0.1889
  552MOL0     C76102   0.996   3.624   3.345 -1.2082 -0.0656 -0.7555
  552MOL0     C76103   1.105   3.675   3.359  0.7322 -0.2372  0.4931
  552MOL0     C76104   0.692   3.663   3.836 -0.0110  0.1251  0.5399
  552MOL0     C76105   0.667   3.748   3.949 -0.5050  0.6877 -0.4888
  552MOL0     C76106   0.801   3.810   4.006  0.0980 -0.3779 -0.2906
  552MOL0     H76107   0.412   4.050   4.287 -0.2078 -0.0745 -0.1397
  552MOL0     H76108   0.242   4.192   4.402 -0.7461  0.0602 -0.0090
  552MOL0     H76109  -0.109   4.341   4.382  0.6845  1.9221 -0.4797
  552MOL0     H76110   0.074   4.324   4.375  1.5284 -2.4576  0.1572
  552MOL0     H76111   0.051   4.184   4.610  0.8160  0.2795  1.3873
  552MOL0     H76112   0.034   4.362   4.608 -2.1938  1.6235 -2.4635
  552MOL0     H76113  -0.212   4.321   4.599 -1.3566 -0.5294 -0.7216
  552MOL0     H76114  -0.173   4.146   4.601  2.9036 -0.9323 -1.7011
  552MOL0     H76115  -0.061   4.206   4.843 -0.0597  1.9748  1.9857
  552MOL0     H76116  -0.078   4.372   4.789 -1.5413  0.2689 -2.1950
  552MOL0     H76117  -0.323   4.213   4.836  2.1394 -1.2661 -0.1901
  552MOL0     H76118  -0.295   4.387   4.804  1.5617 -0.2168 -1.6464
  552MOL0     H76119  -0.221   4.231   5.065 -0.5661 -0.1413 -1.1288
  552MOL0     H76120  -0.144   4.380   5.032  1.5652 -0.6869  0.6009
  552MOL0     H76121  -0.347   4.404   5.185  0.4583  0.3099  0.7232
  552MOL0     H76122  -0.442   4.347   5.053 -1.5962  2.0686 -0.4672
  552MOL0     H76123  -0.395   4.556   4.924 -0.1876 -2.3963  0.3122
  552MOL0     H76124  -0.473   4.563   5.078 -1.0829 -0.7341 -2.2694
  552MOL0     H76125  -0.265   4.630   5.284 -1.8111  0.1937 -1.0859
  552MOL0     H76126  -0.097   4.823   5.378 -1.2545 -0.1919 -2.1217
  552MOL0     H76127  -0.013   4.907   5.254  0.8797 -0.8067 -3.5894
  552MOL0     H76128   0.041   4.633   5.335  0.9035 -0.5694  1.0098
  552MOL0     H76129   0.143   4.717   5.210  1.1794  1.5580  0.4716
  552MOL0     H76130   0.219   4.878   5.400  1.3051 -0.8809 -0.0527
  552MOL0     H76131   0.120   4.789   5.507 -0.4809  0.6767 -0.4152
  552MOL0     H76132   0.349   4.666   5.347 -0.9469  0.3777 -0.7978
  552MOL0     H76133   0.359   4.716   5.511 -2.0443  1.1334  0.2143
  552MOL0     H76134   0.105   4.349   5.532 -1.5411  2.5030 -1.5173
  552MOL0     H76135  -0.084   4.251   5.785  0.2043  0.0655  3.2593
  552MOL0     H76136   0.055   4.181   5.874 -0.7062 -1.1529  0.3135
  552MOL0     H76137   0.033   4.155   5.699  0.9069 -2.5288  2.1845
  552MOL0     H76138   0.322   4.324   6.261 -0.8694  1.2284 -0.0133
  552MOL0     H76139   0.298   4.230   6.469 -0.1085  0.4519  0.6260
  552MOL0     H76140  -0.044   4.059   6.720  1.7304  4.9052 -0.1862
  552MOL0     H76141  -0.140   4.074   6.570  0.5983  0.6090  0.4493
  552MOL0     H76142  -0.101   3.835   6.596 -1.0916  0.3612 -1.9794
  552MOL0     H76143   0.002   3.877   6.458  0.6221 -0.4829 -0.6072
  552MOL0     H76144   0.088   3.866   6.758 -0.9299  1.1213 -0.3410
  552MOL0     H76145   0.193   3.906   6.621  1.2168 -0.4840  1.4069
  552MOL0     H76146   0.127   3.680   6.528 -0.6303  1.8090 -0.2845
  552MOL0     H76147   0.025   3.655   6.658  2.3436 -1.7400  1.4725
  552MOL0     H76148   0.260   3.535   6.675  0.3332  0.3267 -3.5147
  552MOL0     H76149   0.329   3.695   6.663 -2.0273  1.8581 -0.9229
  552MOL0     H76150   0.252   3.752   6.900 -3.7543 -0.9667  1.9111
  552MOL0     H76151   0.374   3.637   6.880  0.1454  0.4279  2.0586
  552MOL0     H76152   0.234   3.452   6.913  0.2970  0.8874 -3.6865
  552MOL0     H76153   0.087   3.553   6.901 -0.7500 -0.2766  1.9790
  552MOL0     H76154   0.273   3.585   7.139 -1.4737  1.2026  1.3171
  552MOL0     H76155   0.126   3.486   7.117 -2.8518  1.0487  0.6272
  552MOL0     H76156  -0.107   4.111   6.374 -0.5446  2.9832  2.0372
  552MOL0     H76157  -0.069   4.184   6.132  0.1957  2.1437 -1.3687
  552MOL0     H76158   0.218   4.616   5.941  2.6343 -1.6022  0.2020
  552MOL0     H76159   0.285   4.696   5.716 -0.5328 -0.1990 -2.3295
  552MOL0     H76160  -0.058   3.936   4.242 -0.2688 -0.1018  2.1929
  552MOL0     H76161   0.092   3.797   4.143  1.1661 -0.9748 -0.2713
  552MOL0     H76162   0.341   3.644   3.972  2.1010 -2.1068  0.1251
  552MOL0     H76163   0.398   3.518   3.776  1.1894 -1.3143  0.2098
  552MOL0     H76164   0.467   3.452   3.546 -0.8771  0.5061 -0.8078
  552MOL0     H76165   0.509   3.629   3.543 -2.0812 -0.9008 -1.7640
  552MOL0     H76166   0.596   3.545   3.330  3.4966 -0.6393 -1.5336
  552MOL0     H76167   0.657   3.405   3.405  0.1299  0.0849 -0.5100
  552MOL0     H76168   0.742   3.699   3.448  1.3989  0.3154 -1.3053
  552MOL0     H76169   0.819   3.566   3.540  1.3118 -1.9484 -1.2330
  552MOL0     H76170   0.829   3.594   3.241 -1.3620  1.6652  0.5523
  552MOL0     H76171   0.882   3.450   3.338 -4.7070 -0.4069  0.3052
  552MOL0     H76172   1.205   3.712   3.362  0.8090 -0.3995 -0.0831
  552MOL0     H76173   0.792   3.663   3.796  0.5470  1.8798  1.8036
  552MOL0     H76174   0.796   3.824   4.114  0.1501 -0.6265 -0.2555
  552MOL0     H76175   0.886   3.743   3.993  1.3993  1.1631 -0.0774
  552MOL0     H76176   0.816   3.904   3.951  2.0233 -0.0086  0.7546
  553MOL0     O76177   0.085   1.560  10.586 -0.2281  0.3962  0.4461
  553MOL0     C76178   0.144   1.669  10.580  0.1781  0.3560  0.3790
  553MOL0     O76179   0.186   1.744  10.687 -0.5485  0.3281 -0.5136
  553MOL0     C76180   0.169   1.702  10.816 -0.4329 -0.2863  0.6704
  553MOL0     C76181   0.040   1.672  10.866  0.3388 -0.2049  0.2505
  553MOL0     C76182   0.022   1.642  11.006  0.1630 -0.4406 -0.6969
  553MOL0     C76183   0.129   1.636  11.092 -0.1650 -0.4071 -0.3912
  553MOL0     O76184   0.100   1.610  11.226 -0.8103  0.1685 -0.8816
  553MOL0     C76185   0.206   1.599  11.319  0.1179 -0.1563  0.9849
  553MOL0     C76186   0.133   1.533  11.445 -0.6377 -0.1377 -0.0161
  553MOL0     C76187   0.056   1.629  11.530 -0.3421  0.3901  0.4573
  553MOL0     C76188   0.130   1.740  11.607 -0.4879  0.1992  0.0225
  553MOL0     C76189   0.032   1.835  11.678  1.1819 -0.3571  0.4366
  553MOL0     C76190   0.016   1.780  11.821  0.2432 -0.5240 -0.0322
  553MOL0     C76191  -0.084   1.864  11.911  0.5043  0.5896 -0.1431
  553MOL0     C76192  -0.097   1.810  12.052  0.3455 -0.2032  0.2873
  553MOL0     N76193  -0.184   1.685  12.053  0.4531 -0.5652 -0.2595
  553MOL0     C76194  -0.129   1.562  12.074 -0.8172 -0.8259  0.1692
  553MOL0     C76195  -0.234   1.479  12.066  0.2906 -0.1702 -0.5786
  553MOL0     C76196  -0.223   1.334  12.095  0.3508  0.2295 -0.1813
  553MOL0     C76197  -0.218   1.297  12.246  0.5411  0.1077  0.0358
  553MOL0     C76198  -0.312   1.179  12.281  0.6351  0.4191 -0.3963
  553MOL0     C76199  -0.464   1.219  12.272  0.0109 -0.2539  0.3184
  553MOL0     O76200  -0.509   1.319  12.367  0.4276 -0.2680  0.6228
  553MOL0     C76201  -0.639   1.294  12.416  0.5677 -0.7315 -0.3737
  553MOL0     C76202  -0.746   1.301  12.320  0.5544 -0.1068 -0.5118
  553MOL0     C76203  -0.886   1.282  12.355 -0.2513 -0.3416  0.7172
  553MOL0     C76204  -0.980   1.281  12.239 -0.4652 -0.4982 -1.0667
  553MOL0     C76205  -0.913   1.266  12.491 -0.0476  0.4341 -0.4072
  553MOL0     C76206  -1.044   1.247  12.548  1.2803 -0.3774 -0.5997
  553MOL0     O76207  -1.140   1.322  12.494  0.7204 -0.0105 -0.0901
  553MOL0     C76208  -1.243   1.357  12.567  0.1778  0.2590  0.1137
  553MOL0     C76209  -1.368   1.335  12.508  0.3917 -0.1971  1.2549
  553MOL0     C76210  -1.476   1.383  12.574 -0.3057  0.9707 -0.9044
  553MOL0     C76211  -1.464   1.436  12.701 -0.2197  0.0882 -0.6179
  553MOL0     O76212  -1.571   1.483  12.774  0.2654 -0.1163 -0.0953
  553MOL0     C76213  -1.679   1.543  12.698 -0.0754  0.4210  0.0546
  553MOL0     C76214  -1.778   1.626  12.785 -0.9671 -0.4158 -0.2971
  553MOL0     C76215  -1.723   1.757  12.853 -0.3292  0.3720  0.5138
  553MOL0     C76216  -1.820   1.818  12.957 -0.0381  0.5779  0.1934
  553MOL0     C76217  -1.758   1.961  12.983 -0.0519  0.2973  0.3039
  553MOL0     C76218  -1.846   2.033  13.085  0.3000 -0.3018  0.2989
  553MOL0     C76219  -1.975   2.098  13.033  0.0774 -0.3251  0.3739
  553MOL0     C76220  -2.031   2.192  13.135  1.1514 -0.7085 -0.0021
  553MOL0    Cl76221  -2.179   2.261  13.071  0.3787  0.1357  0.1491
  553MOL0     C76222  -1.345   1.453  12.759 -0.7569 -0.3991 -0.6428
  553MOL0     C76223  -1.230   1.415  12.691  0.5557  1.0576  0.4204
  553MOL0     O76224  -1.064   1.182  12.656  0.2832 -0.4050  0.3275
  553MOL0     C76225  -0.818   1.286  12.584  0.2239 -0.1637  0.0306
  553MOL0     C76226  -0.682   1.291  12.549 -0.0760  0.6305 -0.3507
  553MOL0     N76227  -0.344   1.552  12.028  0.0473  1.2018 -0.5104
  553MOL0     N76228  -0.316   1.675  12.032 -0.4544  0.1944 -1.3575
  553MOL0     C76229   0.258   1.672  11.043 -0.0135 -0.3015 -0.6241
  553MOL0     C76230   0.281   1.700  10.905  0.2139  0.6721 -0.1134
  553MOL0     C76231   0.167   1.726  10.444  0.0804  0.9774  1.0082
  553MOL0     C76232   0.194   1.862  10.438 -1.1366  0.9880  0.6189
  553MOL0     C76233   0.224   1.934  10.324 -1.0763 -0.0247 -0.2083
  553MOL0     C76234   0.234   1.869  10.196  0.8972  0.9403 -0.7626
  553MOL0     O76235   0.273   1.937  10.087  0.7932 -0.0537  0.3409
  553MOL0     C76236   0.292   2.072  10.081 -1.2391 -0.6680 -0.2158
  553MOL0     C76237   0.370   2.089   9.946  0.3222  0.4056 -0.3243
  553MOL0     C76238   0.286   2.055   9.818 -0.5113  0.7641  0.1865
  553MOL0     C76239   0.326   2.120   9.692 -1.1199  0.3862  0.4064
  553MOL0     C76240   0.307   2.267   9.682 -0.5485 -0.0065  0.7729
  553MOL0     C76241   0.310   2.390   9.693  0.8734  0.4632 -0.4683
  553MOL0     C76242   0.213   1.728  10.199  1.0439  0.8771  0.0630
  553MOL0     C76243   0.169   1.653  10.313 -0.8849 -0.1832 -1.0076
  553MOL0     C76244   0.144   1.508  10.291  0.9581  0.1323  0.6867
  553MOL0     H76245  -0.049   1.678  10.805 -0.0007  1.1444  0.8557
  553MOL0     H76246  -0.081   1.626  11.035  0.7458  0.5408  2.2062
  553MOL0     H76247   0.246   1.696  11.349 -0.3892 -0.0187  1.2210
  553MOL0     H76248   0.287   1.532  11.288 -0.3057 -0.2319 -0.0226
  553MOL0     H76249   0.061   1.452  11.432 -0.6877 -0.0463 -0.3074
  553MOL0     H76250   0.210   1.502  11.517 -1.9229 -0.2373  1.3523
  553MOL0     H76251  -0.010   1.690  11.467 -1.0305  1.5165  2.1942
  553MOL0     H76252   0.003   1.569  11.605 -2.1286  0.3249 -0.7902
  553MOL0     H76253   0.204   1.703  11.680 -1.5377 -0.3310  0.8454
  553MOL0     H76254   0.190   1.801  11.539 -0.0786  2.7672  2.5104
  553MOL0     H76255  -0.069   1.826  11.638 -0.5528 -2.9347  4.7121
  553MOL0     H76256   0.057   1.941  11.671 -0.7568  0.0200 -2.9155
  553MOL0     H76257  -0.033   1.682  11.814  0.4709 -0.6086 -0.4609
  553MOL0     H76258   0.113   1.760  11.868 -1.2907 -2.1375  2.7098
  553MOL0     H76259  -0.183   1.873  11.864  1.1797  1.4027 -1.4835
  553MOL0     H76260  -0.044   1.965  11.922 -0.6446  0.9310  1.1321
  553MOL0     H76261  -0.002   1.776  12.094  1.3730  0.2097 -1.5751
  553MOL0     H76262  -0.147   1.880  12.118  0.4427 -0.0962  0.2487
  553MOL0     H76263  -0.026   1.549  12.108 -0.8178  1.8998  1.4826
  553MOL0     H76264  -0.125   1.301  12.061  0.2324 -0.6388  0.2809
  553MOL0     H76265  -0.298   1.284  12.032  2.9666 -1.9886 -1.7425
  553MOL0     H76266  -0.120   1.268  12.285  0.7208 -0.9729 -1.1238
  553MOL0     H76267  -0.241   1.382  12.310  0.2111  2.2169 -2.6908
  553MOL0     H76268  -0.282   1.094  12.219 -0.3717 -1.0531  1.0158
  553MOL0     H76269  -0.291   1.141  12.382 -0.1600 -2.4258 -1.2123
  553MOL0     H76270  -0.494   1.247  12.171  2.4240 -1.0792 -0.7053
  553MOL0     H76271  -0.515   1.128  12.306 -0.2034 -0.7808 -1.3198
  553MOL0     H76272  -0.711   1.316  12.218  3.1547 -1.3901  0.0999
  553MOL0     H76273  -0.923   1.298  12.147 -0.6076 -1.5801 -1.3772
  553MOL0     H76274  -1.039   1.368  12.268  2.9608  0.9600  2.3164
  553MOL0     H76275  -1.037   1.187  12.243  1.0049 -1.3894  1.2833
  553MOL0     H76276  -1.382   1.295  12.408 -1.5902 -2.9203  2.4995
  553MOL0     H76277  -1.561   1.359  12.511 -1.2692 -1.0024  0.9928
  553MOL0     H76278  -1.637   1.608  12.621  2.3657 -2.9424 -1.7048
  553MOL0     H76279  -1.734   1.458  12.655  0.0799 -2.1281  4.2319
  553MOL0     H76280  -1.860   1.643  12.715 -2.3462 -3.5856  0.3681
  553MOL0     H76281  -1.834   1.566  12.858 -3.4519 -1.8510 -3.1400
  553MOL0     H76282  -1.707   1.832  12.776 -2.9749 -0.0225 -0.5499
  553MOL0     H76283  -1.625   1.748  12.900  0.0271  0.5637 -0.1902
  553MOL0     H76284  -1.843   1.764  13.049 -0.4227 -2.1276 -1.3672
  553MOL0     H76285  -1.912   1.819  12.897  0.3059  2.9327 -0.3889
  553MOL0     H76286  -1.651   1.950  13.004  0.2377 -2.0931 -1.8763
  553MOL0     H76287  -1.759   2.026  12.895 -0.4355  0.6234  0.5456
  553MOL0     H76288  -1.791   2.119  13.122 -0.3995  1.5376 -2.6140
  553MOL0     H76289  -1.877   1.969  13.169  0.2683  2.0546  2.1649
  553MOL0     H76290  -2.051   2.024  13.007  0.2022 -0.4051  0.2336
  553MOL0     H76291  -1.943   2.153  12.944  0.4740  0.6620  1.0974
  553MOL0     H76292  -1.965   2.276  13.161 -1.8314  1.6425  0.6357
  553MOL0     H76293  -2.060   2.138  13.225  0.0443 -0.2392 -0.0484
  553MOL0     H76294  -1.338   1.502  12.855  1.6936  4.1124 -2.7528
  553MOL0     H76295  -1.134   1.450  12.726  1.3078 -0.5815  0.1017
  553MOL0     H76296  -0.850   1.268  12.686 -1.7745 -1.8030 -0.7929
  553MOL0     H76297  -0.616   1.285  12.636 -1.0747  1.8660  0.5343
  553MOL0     H76298   0.334   1.687  11.118 -0.7051 -2.8506  0.7008
  553MOL0     H76299   0.366   1.748  10.858  0.1603 -0.5117 -1.4788
  553MOL0     H76300   0.202   1.919  10.531  3.9036  0.4704  0.7857
  553MOL0     H76301   0.233   2.040  10.346 -1.2412 -0.6734  3.5676
  553MOL0     H76302   0.197   2.126  10.076 -1.8688 -1.8514 -2.1360
  553MOL0     H76303   0.356   2.114  10.159 -0.8740  3.9372 -2.6762
  553MOL0     H76304   0.454   2.019   9.953 -0.2842 -0.2418  0.6991
  553MOL0     H76305   0.406   2.192   9.940 -0.1191  0.5754 -0.0452
  553MOL0     H76306   0.304   1.951   9.788 -0.0533  0.4826  1.3899
  553MOL0     H76307   0.179   2.068   9.840 -0.6663 -1.9127  1.4503
  553MOL0     H76308   0.276   2.071   9.608  1.1278  0.4066 -1.0275
  553MOL0     H76309   0.429   2.090   9.672 -1.9134 -0.6095 -2.6796
  553MOL0     H76310   0.314   2.497   9.694 -3.1043  0.7926  0.7831
  553MOL0     H76311   0.224   1.676  10.104 -4.3596 -2.4618  0.8685
  553MOL0     H76312   0.192   1.445  10.366 -0.1070 -1.0188  0.4358
  553MOL0     H76313   0.038   1.480  10.293  0.5124  1.6919  0.6935
  553MOL0     H76314   0.186   1.491  10.192  3.5355  3.3016  1.0445
  554MOL0     O76315   6.763  10.016   4.884  0.4770 -0.0428 -0.3043
  554MOL0     C76316   6.806   9.962   4.784  0.4573 -0.5328 -0.3489
  554MOL0     O76317   6.740   9.954   4.658 -0.2075 -0.0469  0.0135
  554MOL0     C76318   6.632  10.023   4.615 -0.2278  0.0516  0.7316
  554MOL0     C76319   6.590   9.986   4.491  0.0204  0.2090 -0.3016
  554MOL0     C76320   6.484  10.043   4.427 -0.0958  0.0798  0.4263
  554MOL0     C76321   6.401  10.136   4.491 -0.5711  0.2388  0.6083
  554MOL0     O76322   6.296  10.189   4.429  0.3888 -0.5050  0.3354
  554MOL0     C76323   6.266  10.155   4.289 -1.0013  0.0627 -0.6520
  554MOL0     C76324   6.123  10.193   4.230 -0.4432  0.7130  0.0363
  554MOL0     C76325   6.089  10.344   4.227  0.1643  0.1578  0.3862
  554MOL0     C76326   6.161  10.408   4.110  0.7347 -0.2142 -0.5144
  554MOL0     C76327   6.134  10.556   4.093 -0.9306  0.8209 -0.0285
  554MOL0     C76328   6.244  10.629   4.012  0.2945  0.4976  0.2101
  554MOL0     C76329   6.236  10.577   3.862  0.3822 -0.4680  0.3602
  554MOL0     C76330   6.315  10.671   3.767  0.1761  0.3374  1.0891
  554MOL0     N76331   6.283  10.669   3.625  0.3101 -0.8539 -0.6210
  554MOL0     C76332   6.199  10.755   3.562 -0.4729  0.4922 -0.3969
  554MOL0     C76333   6.184  10.698   3.450  0.2298  0.3736  1.0371
  554MOL0     C76334   6.093  10.739   3.342  0.4626 -1.0669 -0.0332
  554MOL0     C76335   6.065  10.625   3.237 -0.5076 -0.4316  0.5006
  554MOL0     C76336   6.152  10.639   3.115 -0.1849  0.3369  0.7056
  554MOL0     C76337   6.205  10.509   3.058 -0.2274  0.1656 -0.4180
  554MOL0     O76338   6.115  10.449   2.968  0.0776  0.0809  0.3741
  554MOL0     C76339   6.130  10.473   2.829  0.0730 -0.8328 -0.9630
  554MOL0     C76340   6.022  10.439   2.750  0.2508 -0.6778 -0.8507
  554MOL0     C76341   6.022  10.440   2.610  1.7549 -0.3736 -1.1325
  554MOL0     C76342   5.909  10.362   2.547  0.1643 -0.2297 -0.2543
  554MOL0     C76343   6.128  10.498   2.544  0.0079 -0.7713 -0.7041
  554MOL0     C76344   6.131  10.532   2.401  0.5461  0.8013 -0.6116
  554MOL0     O76345   6.229  10.602   2.351  1.3990  0.0435  0.7311
  554MOL0     C76346   6.199  10.679   2.242 -0.3433 -0.6169 -0.9511
  554MOL0     C76347   6.072  10.732   2.208  0.8055 -0.5658 -0.0834
  554MOL0     C76348   6.054  10.822   2.096  0.5953  1.0007 -0.1351
  554MOL0     C76349   6.157  10.858   2.012 -0.3866 -0.4508  0.5031
  554MOL0     O76350   6.150  10.947   1.899  0.3799 -0.0676  0.2757
  554MOL0     C76351   6.026  10.972   1.832  0.0803 -0.2501  0.0126
  554MOL0     C76352   6.042  10.978   1.683  0.5916 -0.2626  0.2590
  554MOL0     C76353   6.022  10.837   1.615  1.1601  0.5067 -0.1784
  554MOL0     C76354   6.065  10.832   1.457 -0.4285  0.0283 -0.3011
  554MOL0     C76355   6.122  10.698   1.403  0.7652 -0.2476 -0.3141
  554MOL0     C76356   6.241  10.651   1.478  0.0768  0.5255 -0.9873
  554MOL0     C76357   6.355  10.756   1.503  0.0436  0.3171 -0.4629
  554MOL0     C76358   6.478  10.695   1.558 -0.1340 -0.1187 -1.3702
  554MOL0    Cl76359   6.447  10.636   1.727  0.1594 -0.6275 -0.3589
  554MOL0     C76360   6.283  10.795   2.037 -0.5824  0.2175 -0.2447
  554MOL0     C76361   6.299  10.704   2.147 -0.6759  0.2930  0.0362
  554MOL0     O76362   6.050  10.473   2.328  0.0511 -0.1951 -0.2971
  554MOL0     C76363   6.240  10.525   2.624 -0.4314  0.1212  0.2329
  554MOL0     C76364   6.248  10.510   2.762 -0.6724  0.0768 -0.4261
  554MOL0     N76365   6.287  10.606   3.421  0.2523 -0.9192  0.4673
  554MOL0     N76366   6.330  10.580   3.537  0.2730 -0.3406 -0.0098
  554MOL0     C76367   6.433  10.163   4.624 -0.3306 -0.7232 -0.5050
  554MOL0     C76368   6.556  10.117   4.685  0.1280 -0.2968 -0.4433
  554MOL0     C76369   6.946   9.907   4.787  0.0362 -0.1492  0.6586
  554MOL0     C76370   6.988   9.821   4.689  0.6095 -0.8245  0.4479
  554MOL0     C76371   7.117   9.777   4.684 -0.3023 -0.2625  0.0322
  554MOL0     C76372   7.201   9.797   4.794  0.0735 -0.1278  0.7667
  554MOL0     O76373   7.334   9.741   4.790  0.2731 -0.4719 -0.6791
  554MOL0     C76374   7.428   9.833   4.720 -0.0137  0.9817 -0.3840
  554MOL0     C76375   7.567   9.819   4.780  0.2141  0.6083  0.7968
  554MOL0     C76376   7.554   9.822   4.933  0.6446 -0.2337 -0.1986
  554MOL0     C76377   7.693   9.844   5.003 -0.2428  0.1314  0.9419
  554MOL0     C76378   7.783   9.738   4.951  0.2144 -0.2349  0.3967
  554MOL0     C76379   7.858   9.650   4.907  0.4117 -0.7935 -0.5037
  554MOL0     C76380   7.159   9.884   4.892 -0.3471  0.5593 -0.2946
  554MOL0     C76381   7.038   9.938   4.891 -0.4511  0.3325 -0.4003
  554MOL0     C76382   7.022  10.015   5.013 -0.1799  0.6267 -0.1987
  554MOL0     H76383   6.655   9.911   4.448  0.6255 -0.1578  1.2170
  554MOL0     H76384   6.482  10.016   4.322  1.0109  2.0599 -0.1650
  554MOL0     H76385   6.278  10.046   4.283 -0.2977  0.1244 -0.3436
  554MOL0     H76386   6.345  10.205   4.233 -0.0329  2.3923  2.5242
  554MOL0     H76387   6.106  10.148   4.132 -2.3391 -3.3871  2.0224
  554MOL0     H76388   6.053  10.139   4.295  0.4429 -2.1791 -1.2452
  554MOL0     H76389   5.980  10.349   4.223  0.1666 -0.3773 -1.7383
  554MOL0     H76390   6.120  10.395   4.318  0.6402  0.6807 -0.0637
  554MOL0     H76391   6.268  10.393   4.123  1.3079  3.2340 -0.3303
  554MOL0     H76392   6.135  10.359   4.016 -0.0106  2.0354 -1.5486
  554MOL0     H76393   6.145  10.603   4.191 -1.3953 -0.1038  0.4744
  554MOL0     H76394   6.041  10.572   4.038  0.3375  0.5412 -2.3891
  554MOL0     H76395   6.229  10.737   4.014 -0.0177  0.4464  0.8192
  554MOL0     H76396   6.340  10.612   4.061  0.0389  0.6791  0.7855
  554MOL0     H76397   6.130  10.573   3.834  0.4209  1.8180 -0.2964
  554MOL0     H76398   6.275  10.474   3.863  3.0557  0.4664  2.3383
  554MOL0     H76399   6.289  10.774   3.795 -0.4087  0.6426 -0.4635
  554MOL0     H76400   6.421  10.666   3.794  0.7878  2.1264 -0.7173
  554MOL0     H76401   6.164  10.844   3.612 -4.2850 -1.1891  0.2510
  554MOL0     H76402   6.145  10.822   3.293  1.1069 -1.5647 -0.2080
  554MOL0     H76403   6.001  10.779   3.386  0.0689 -0.4932 -1.3014
  554MOL0     H76404   6.088  10.523   3.270 -0.2491 -0.1516  1.2034
  554MOL0     H76405   5.957  10.620   3.222 -0.7294  2.2482  0.8149
  554MOL0     H76406   6.098  10.689   3.035 -2.6346 -3.1539 -0.0729
  554MOL0     H76407   6.241  10.698   3.139  0.4896  1.4139 -3.6019
  554MOL0     H76408   6.306  10.511   3.016  0.0642 -1.2810  0.1326
  554MOL0     H76409   6.226  10.431   3.132  0.2146  2.4029  1.9839
  554MOL0     H76410   5.929  10.399   2.791 -0.8918  0.7436 -1.9232
  554MOL0     H76411   5.943  10.296   2.466  1.1472  0.1726 -0.1889
  554MOL0     H76412   5.830  10.422   2.500  0.3150  1.0008  1.0156
  554MOL0     H76413   5.858  10.296   2.618  0.3474 -1.3013 -1.0817
  554MOL0     H76414   5.979  10.700   2.255 -0.4672 -0.5150 -2.4059
  554MOL0     H76415   5.957  10.868   2.084 -0.3145 -0.7180  0.3999
  554MOL0     H76416   5.966  10.882   1.848 -0.1553 -0.2257 -0.7189
  554MOL0     H76417   5.979  11.062   1.871  1.0941  0.5907 -0.6577
  554MOL0     H76418   5.967  11.046   1.642  1.5758 -0.7102 -2.5923
  554MOL0     H76419   6.129  11.036   1.649 -1.2251  2.3107 -0.2844
  554MOL0     H76420   5.920  10.808   1.639  1.7730 -1.0390  0.6884
  554MOL0     H76421   6.081  10.762   1.668 -1.7579 -0.0513  2.5724
  554MOL0     H76422   6.147  10.901   1.437  0.9603 -1.9024 -1.6667
  554MOL0     H76423   5.989  10.876   1.391 -2.5995  1.3400  2.8164
  554MOL0     H76424   6.049  10.618   1.390  1.0060 -0.6131  0.5333
  554MOL0     H76425   6.147  10.734   1.302 -2.4118  0.7831 -0.8325
  554MOL0     H76426   6.294  10.569   1.429 -0.6112  0.6474 -1.9621
  554MOL0     H76427   6.200  10.616   1.573 -3.4408  1.0469 -2.1556
  554MOL0     H76428   6.328  10.841   1.567  1.6677  0.5290 -0.0157
  554MOL0     H76429   6.375  10.811   1.410  1.9996  0.0829 -0.2175
  554MOL0     H76430   6.546  10.781   1.562 -0.4270  0.1516  3.1159
  554MOL0     H76431   6.517  10.616   1.494  0.5261  0.2083 -1.3807
  554MOL0     H76432   6.366  10.809   1.968 -1.7064  0.7885 -1.5219
  554MOL0     H76433   6.400  10.671   2.169 -0.9237  0.2991  1.2094
  554MOL0     H76434   6.335  10.560   2.587 -0.3694  0.0316  0.3065
  554MOL0     H76435   6.346  10.536   2.800  2.2649 -3.6808 -4.3364
  554MOL0     H76436   6.370  10.237   4.673 -2.8625 -1.1918 -2.7885
  554MOL0     H76437   6.581  10.139   4.788  0.4681 -0.1483 -0.5543
  554MOL0     H76438   6.912   9.796   4.616  0.6514 -0.7425  0.3758
  554MOL0     H76439   7.144   9.719   4.597 -1.3938  1.1726 -1.3118
  554MOL0     H76440   7.431   9.804   4.614 -1.2043  0.6984 -0.3481
  554MOL0     H76441   7.401   9.938   4.725 -5.3044 -0.1006 -0.6231
  554MOL0     H76442   7.634   9.898   4.744  0.4378 -0.3667 -1.0704
  554MOL0     H76443   7.613   9.725   4.746  0.0063  0.2227  1.5671
  554MOL0     H76444   7.480   9.893   4.970 -2.3457 -2.4250 -1.5580
  554MOL0     H76445   7.512   9.729   4.971  1.4690 -0.3232  0.5272
  554MOL0     H76446   7.689   9.833   5.112  1.9331 -2.6866  0.8587
  554MOL0     H76447   7.735   9.944   4.990 -0.0819  0.1777  1.7102
  554MOL0     H76448   7.919   9.572   4.866  1.1025 -0.9231  0.7030
  554MOL0     H76449   7.229   9.886   4.975  2.1094  0.0675 -2.2415
  554MOL0     H76450   7.114  10.067   5.039 -1.5004  3.5548 -0.9829
  554MOL0     H76451   6.953  10.099   5.002  2.0177  2.4445 -0.9106
  554MOL0     H76452   6.987   9.955   5.097 -1.4147  1.2062 -0.2802
  555MOL0     O76453   9.961   4.561   3.631 -0.2761 -0.3694 -0.3765
  555MOL0     C76454   9.851   4.610   3.600 -0.2978  0.5072 -0.5479
  555MOL0     O76455   9.735   4.543   3.637  0.6394  0.8594  0.4319
  555MOL0     C76456   9.750   4.445   3.728  0.7056  0.0987 -0.4941
  555MOL0     C76457   9.715   4.313   3.689  0.8434  0.4304  0.0918
  555MOL0     C76458   9.715   4.216   3.776  0.0412 -0.1747  0.3706
  555MOL0     C76459   9.741   4.230   3.915 -1.2556 -0.9706  0.9806
  555MOL0     O76460   9.765   4.134   4.004  0.8032  0.1890 -0.6255
  555MOL0     C76461   9.812   4.000   3.961  0.8297  0.2978  0.1983
  555MOL0     C76462   9.936   3.966   4.044  0.4815  0.0981  1.4944
  555MOL0     C76463   9.976   3.813   4.022  1.0377  0.5292  0.2185
  555MOL0     C76464  10.132   3.799   4.035  0.3344 -0.1295  0.9398
  555MOL0     C76465  10.169   3.650   4.016  0.1429 -0.1093  0.9538
  555MOL0     C76466  10.318   3.635   4.025  0.3456 -0.1723 -0.3434
  555MOL0     C76467  10.350   3.487   4.003  0.6694  0.0478  0.4094
  555MOL0     C76468  10.432   3.456   3.882  0.6167  0.5753 -0.1919
  555MOL0     N76469  10.451   3.312   3.850 -0.3548 -0.0668 -0.8221
  555MOL0     C76470  10.510   3.265   3.740  0.1231 -1.0672  0.2402
  555MOL0     C76471  10.512   3.139   3.768 -0.2954  0.4542 -0.3560
  555MOL0     C76472  10.591   3.035   3.683  0.3694 -0.7787  0.7293
  555MOL0     C76473  10.565   2.888   3.708 -1.0911 -0.2401 -0.2699
  555MOL0     C76474  10.632   2.792   3.607 -0.3839  0.3033 -0.5038
  555MOL0     C76475  10.553   2.661   3.600  0.0995  0.3801  0.0080
  555MOL0     O76476  10.571   2.598   3.479 -0.6023 -1.1128  0.5050
  555MOL0     C76477  10.673   2.504   3.463 -0.3231 -0.1419 -0.4440
  555MOL0     C76478  10.678   2.433   3.344 -0.3297 -0.1158  0.2351
  555MOL0     C76479  10.784   2.351   3.303 -0.6816 -1.0742 -0.9524
  555MOL0     C76480  10.776   2.296   3.168 -0.1560  0.1448  0.9271
  555MOL0     C76481  10.890   2.330   3.394 -0.8154 -0.4303 -0.2426
  555MOL0     C76482  11.014   2.250   3.364  0.9814 -0.6572 -0.8094
  555MOL0     O76483  11.039   2.243   3.233 -0.3400 -0.3040 -0.1136
  555MOL0     C76484  11.134   2.171   3.167 -0.2788  0.8618 -0.6837
  555MOL0     C76485  11.236   2.096   3.236 -0.8211  0.4919  0.0913
  555MOL0     C76486  11.328   2.032   3.152  0.3197  0.4601 -0.3477
  555MOL0     C76487  11.325   2.051   3.017  0.9622  0.0468  0.6913
  555MOL0     O76488  11.417   1.995   2.933  0.0278  0.2817 -0.0168
  555MOL0     C76489  11.372   1.886   2.838 -0.2360 -1.0018  0.4928
  555MOL0     C76490  11.476   1.853   2.726  0.7562  0.5061  0.2253
  555MOL0     C76491  11.585   1.771   2.792  0.7860  0.9060  0.2837
  555MOL0     C76492  11.659   1.682   2.688  0.0760  0.5218  0.2121
  555MOL0     C76493  11.752   1.581   2.750 -0.2114 -0.2631 -0.6716
  555MOL0     C76494  11.871   1.637   2.831  1.2275  0.7987 -0.3085
  555MOL0     C76495  11.945   1.748   2.756  0.1413  0.2893  0.0299
  555MOL0     C76496  12.080   1.768   2.823  0.5799 -0.4102 -0.2366
  555MOL0    Cl76497  12.159   1.902   2.752 -0.4444  0.3158  0.6534
  555MOL0     C76498  11.228   2.131   2.963 -0.1664  0.1158  0.2387
  555MOL0     C76499  11.126   2.178   3.033  0.3577 -0.0214 -1.3367
  555MOL0     O76500  11.096   2.229   3.456  0.7437 -1.3601  1.1729
  555MOL0     C76501  10.879   2.393   3.527 -0.5628  0.2359  0.9564
  555MOL0     C76502  10.781   2.486   3.555  0.3573 -0.2036  0.6058
  555MOL0     N76503  10.437   3.107   3.871  0.5772  0.3755 -0.5712
  555MOL0     N76504  10.401   3.213   3.929 -0.0329  0.4449 -0.2291
  555MOL0     C76505   9.780   4.367   3.951  0.7978 -0.0613  0.5385
  555MOL0     C76506   9.779   4.474   3.864 -0.7168 -0.0360  0.9709
  555MOL0     C76507   9.857   4.740   3.531  0.0441 -0.4171 -0.8683
  555MOL0     C76508   9.976   4.810   3.535 -0.2970 -0.2900  0.2453
  555MOL0     C76509   9.988   4.945   3.485 -0.2771  0.5685 -1.0847
  555MOL0     C76510   9.872   5.003   3.435 -0.4658 -0.1615  0.2293
  555MOL0     O76511   9.884   5.114   3.358  0.6493 -1.0886 -0.4027
  555MOL0     C76512   9.942   5.234   3.416 -0.2971 -0.1640  0.2151
  555MOL0     C76513   9.870   5.360   3.363 -0.3273  0.0081 -0.3268
  555MOL0     C76514   9.728   5.359   3.422  0.1219  0.5454  0.9601
  555MOL0     C76515   9.700   5.412   3.560  0.2832  0.1253 -0.0560
  555MOL0     C76516   9.564   5.463   3.591  0.7732  0.6576  0.1560
  555MOL0     C76517   9.450   5.492   3.608  0.2661  0.0549  0.7440
  555MOL0     C76518   9.758   4.927   3.420  0.1954 -0.1742  0.6758
  555MOL0     C76519   9.744   4.804   3.476  1.1481 -0.4113 -0.1592
  555MOL0     C76520   9.610   4.738   3.470  0.9915  0.9402 -0.0053
  555MOL0     H76521   9.673   4.289   3.592 -1.1610  0.2984  0.9252
  555MOL0     H76522   9.680   4.118   3.746  1.2773 -0.9357  1.3322
  555MOL0     H76523   9.835   3.992   3.855 -1.8750  2.2928 -0.6455
  555MOL0     H76524   9.728   3.933   3.982 -0.4155  0.3222 -3.9270
  555MOL0     H76525  10.022   4.027   4.018  0.3992  0.2234  1.5171
  555MOL0     H76526   9.910   3.982   4.149  0.4503  4.0548  1.0461
  555MOL0     H76527   9.933   3.751   4.101  4.0674 -1.5285  0.4234
  555MOL0     H76528   9.949   3.781   3.921  2.6169  0.5318 -0.2317
  555MOL0     H76529  10.180   3.852   3.952  0.0227 -0.2190  0.7005
  555MOL0     H76530  10.179   3.845   4.122  1.1073 -1.8171  1.4453
  555MOL0     H76531  10.133   3.616   3.919  0.6105  0.5782  0.5330
  555MOL0     H76532  10.116   3.597   4.096 -4.3069  4.2913  1.3981
  555MOL0     H76533  10.346   3.697   3.939 -2.1812 -0.2179 -1.2720
  555MOL0     H76534  10.365   3.660   4.120  0.3371 -0.5920 -0.2286
  555MOL0     H76535  10.252   3.438   4.004 -0.2944  1.8594 -0.1647
  555MOL0     H76536  10.403   3.440   4.086 -0.1143 -3.0537 -0.6844
  555MOL0     H76537  10.366   3.492   3.803 -1.4317 -0.3495  1.0288
  555MOL0     H76538  10.521   3.520   3.886  0.2926  0.9816  0.7680
  555MOL0     H76539  10.554   3.322   3.659  0.9037 -0.0672  1.3288
  555MOL0     H76540  10.698   3.052   3.696  0.4426 -0.0479 -0.6961
  555MOL0     H76541  10.574   3.054   3.577 -0.5418 -5.2134 -0.0949
  555MOL0     H76542  10.612   2.880   3.807 -2.8229  3.0564  0.9864
  555MOL0     H76543  10.461   2.857   3.720 -0.5848 -2.7346 -1.6815
  555MOL0     H76544  10.621   2.833   3.507 -0.3430 -1.1335 -1.1163
  555MOL0     H76545  10.737   2.770   3.629 -0.4124 -2.1550 -2.4787
  555MOL0     H76546  10.575   2.588   3.679 -0.0889 -1.9562 -1.9633
  555MOL0     H76547  10.445   2.675   3.602  0.0851  1.5314 -3.2615
  555MOL0     H76548  10.614   2.468   3.264 -0.2284 -0.6446 -0.0799
  555MOL0     H76549  10.797   2.188   3.168 -0.6340  0.0483  0.4046
  555MOL0     H76550  10.845   2.354   3.106 -1.9029  1.7755  0.4087
  555MOL0     H76551  10.673   2.308   3.133 -0.8179 -2.9435  1.4867
  555MOL0     H76552  11.229   2.077   3.343 -0.9027 -0.1095 -0.0175
  555MOL0     H76553  11.410   1.979   3.199  0.0534  0.6284  0.3208
  555MOL0     H76554  11.343   1.792   2.887  0.4515 -2.3839 -1.6322
  555MOL0     H76555  11.279   1.924   2.795 -1.0876 -1.1387  2.1156
  555MOL0     H76556  11.427   1.799   2.644  0.9657 -4.8943  3.1611
  555MOL0     H76557  11.518   1.949   2.696 -2.1710  1.8802  0.1030
  555MOL0     H76558  11.536   1.705   2.865 -0.5325  2.8588  1.2352
  555MOL0     H76559  11.658   1.830   2.849  0.3258  0.3839  1.4652
  555MOL0     H76560  11.714   1.757   2.630  1.5432 -0.6075  0.0889
  555MOL0     H76561  11.601   1.633   2.610  0.9113  1.6687 -1.1881
  555MOL0     H76562  11.693   1.518   2.817 -0.9463 -2.6617 -3.3754
  555MOL0     H76563  11.788   1.513   2.673  1.2732 -1.3658  0.9214
  555MOL0     H76564  11.930   1.547   2.849 -4.9822 -3.7023  1.3539
  555MOL0     H76565  11.824   1.667   2.925 -1.1545 -0.1689 -1.1059
  555MOL0     H76566  11.893   1.844   2.761 -0.0582  0.1174  3.0324
  555MOL0     H76567  11.958   1.724   2.650 -1.3625 -0.2249 -0.0713
  555MOL0     H76568  12.151   1.688   2.805  2.3408  0.8912  0.5861
  555MOL0     H76569  12.059   1.768   2.930  2.1577 -2.2953  0.1136
  555MOL0     H76570  11.236   2.158   2.858 -2.3601 -1.6297 -0.4579
  555MOL0     H76571  11.045   2.234   2.986  1.1303 -0.2243 -2.9749
  555MOL0     H76572  10.942   2.356   3.608 -0.3672  1.0545  1.1922
  555MOL0     H76573  10.775   2.521   3.657 -0.8908  1.2574  0.0776
  555MOL0     H76574   9.815   4.381   4.053  2.9684 -0.6399 -0.0765
  555MOL0     H76575   9.811   4.574   3.890  1.8551 -0.3051 -0.6940
  555MOL0     H76576  10.064   4.758   3.573 -1.1784 -1.6269  0.5237
  555MOL0     H76577  10.082   4.998   3.496  1.2821 -2.0667 -0.8369
  555MOL0     H76578   9.952   5.247   3.524 -0.5552  1.7409  0.0451
  555MOL0     H76579  10.042   5.243   3.373  0.0803  0.9039  1.2587
  555MOL0     H76580   9.864   5.355   3.254  0.7866  1.1023 -0.4675
  555MOL0     H76581   9.917   5.457   3.381  2.8622 -1.2946 -0.8859
  555MOL0     H76582   9.660   5.417   3.359  0.1454 -0.2187  0.2117
  555MOL0     H76583   9.691   5.256   3.412  1.6886  0.0149  0.3546
  555MOL0     H76584   9.769   5.497   3.568  1.0303 -0.2212 -2.1932
  555MOL0     H76585   9.730   5.334   3.630  0.6584  2.0597  2.0583
  555MOL0     H76586   9.349   5.526   3.619 -0.5648 -1.4932 -1.3705
  555MOL0     H76587   9.682   4.963   3.352  1.6469  0.4621 -0.6820
  555MOL0     H76588   9.576   4.708   3.569  0.0761 -1.9716 -1.1057
  555MOL0     H76589   9.535   4.796   3.414  0.3709 -1.6922 -2.0975
  555MOL0     H76590   9.618   4.646   3.411 -1.7821 -0.3714  1.4799
  556MOL0     O76591   3.686  11.125   6.536 -0.0740  0.7650 -0.5457
  556MOL0     C76592   3.748  11.027   6.573 -0.3028  0.0081  0.6662
  556MOL0     O76593   3.689  10.905   6.590  0.5023 -0.3378 -0.3369
  556MOL0     C76594   3.590  10.860   6.508  0.2268 -1.1932  0.1583
  556MOL0     C76595   3.536  10.922   6.389 -0.6838 -0.2346 -0.3293
  556MOL0     C76596   3.424  10.870   6.325 -1.0144  0.4982 -0.7130
  556MOL0     C76597   3.364  10.748   6.367  0.4713 -0.0367 -0.9380
  556MOL0     O76598   3.260  10.683   6.307 -0.6290 -0.3491  0.3550
  556MOL0     C76599   3.175  10.761   6.216 -0.0885 -0.9684  1.0061
  556MOL0     C76600   3.236  10.799   6.086 -0.2726  0.3551 -0.0024
  556MOL0     C76601   3.149  10.782   5.965  0.1667 -0.3971 -1.0159
  556MOL0     C76602   3.143  10.644   5.914 -0.0193  1.1021  0.0640
  556MOL0     C76603   3.093  10.638   5.767 -0.3963 -0.2821  0.0428
  556MOL0     C76604   3.118  10.508   5.706 -0.6973  0.1468  0.7827
  556MOL0     C76605   3.034  10.511   5.577 -0.1719  0.1604  0.0987
  556MOL0     C76606   3.052  10.366   5.514  0.8285  0.4364  0.0955
  556MOL0     N76607   2.982  10.349   5.385  0.2005  0.7449 -0.8537
  556MOL0     C76608   3.020  10.405   5.261  0.6652 -0.1528 -0.1452
  556MOL0     C76609   2.928  10.360   5.171  0.1587  0.0942 -0.1068
  556MOL0     C76610   2.922  10.397   5.022 -0.2555 -0.0076 -0.6208
  556MOL0     C76611   2.815  10.504   5.012 -0.4888 -0.2707 -0.9850
  556MOL0     C76612   2.808  10.528   4.866  0.0452 -0.5468  0.2042
  556MOL0     C76613   2.781  10.678   4.833  0.1684 -0.1359 -0.4183
  556MOL0     O76614   2.675  10.727   4.924  0.3156  0.7710  0.2571
  556MOL0     C76615   2.581  10.809   4.863  0.0322  0.0030  0.0907
  556MOL0     C76616   2.601  10.913   4.786  0.1261  0.3672 -0.2224
  556MOL0     C76617   2.502  11.001   4.757  1.1269 -0.0299 -0.4414
  556MOL0     C76618   2.539  11.124   4.682 -0.3826 -1.2891  0.4513
  556MOL0     C76619   2.370  10.974   4.809 -0.1603 -0.2339 -0.2467
  556MOL0     C76620   2.258  11.066   4.799 -0.0279  0.1438 -0.2608
  556MOL0     O76621   2.149  11.029   4.870  0.9740  0.1701 -0.3656
  556MOL0     C76622   2.060  11.130   4.900  0.7566 -0.0456 -0.6869
  556MOL0     C76623   1.990  11.202   4.802 -1.4205 -0.2768  0.0854
  556MOL0     C76624   1.900  11.300   4.832  0.8090  0.4322 -0.8075
  556MOL0     C76625   1.875  11.344   4.958 -0.9002 -0.2396 -0.2469
  556MOL0     O76626   1.805  11.455   5.000  0.0064  0.1242 -0.0504
  556MOL0     C76627   1.723  11.512   4.899  0.2747 -0.5500  0.3680
  556MOL0     C76628   1.646  11.626   4.961 -0.2090 -0.0545  0.1722
  556MOL0     C76629   1.539  11.576   5.046  0.7810 -0.4015  0.1981
  556MOL0     C76630   1.417  11.512   4.972  1.1704  0.2759  0.4615
  556MOL0     C76631   1.321  11.438   5.071  0.0163 -0.0469  0.2717
  556MOL0     C76632   1.374  11.301   5.124 -0.1123 -0.6533  0.1984
  556MOL0     C76633   1.260  11.205   5.161  0.4420  0.5848  0.6690
  556MOL0     C76634   1.307  11.066   5.129 -0.2888 -0.8182 -0.7274
  556MOL0    Cl76635   1.203  10.933   5.189 -0.2707  0.1281  0.3400
  556MOL0     C76636   1.953  11.277   5.062 -0.1739  0.1657  0.5358
  556MOL0     C76637   2.039  11.173   5.040 -0.2691 -0.6416  0.2853
  556MOL0     O76638   2.267  11.160   4.730  0.0414 -0.2101 -0.5023
  556MOL0     C76639   2.348  10.849   4.870 -0.5985  0.3375 -0.3841
  556MOL0     C76640   2.456  10.767   4.904 -0.1089 -0.4387  0.0270
  556MOL0     N76641   2.845  10.269   5.243  1.3405 -0.3112  0.8127
  556MOL0     N76642   2.867  10.280   5.361  0.0333  0.5759 -0.2688
  556MOL0     C76643   3.421  10.691   6.481 -0.5110  0.4350  0.0907
  556MOL0     C76644   3.520  10.752   6.559  0.5610 -0.6309  0.4488
  556MOL0     C76645   3.897  11.038   6.623 -0.8842 -0.0670  0.4732
  556MOL0     C76646   3.966  11.161   6.613  0.5727 -0.3673  0.3044
  556MOL0     C76647   4.100  11.176   6.654 -0.4347  0.3505  0.7485
  556MOL0     C76648   4.173  11.065   6.673  0.6735  0.8945 -0.0372
  556MOL0     O76649   4.308  11.050   6.712  0.8167  0.1605  0.2446
  556MOL0     C76650   4.393  11.148   6.661 -0.8384 -0.3841  0.1249
  556MOL0     C76651   4.535  11.101   6.646 -0.2157 -0.5072 -0.0010
  556MOL0     C76652   4.547  10.965   6.572 -0.7237  0.3030  0.6990
  556MOL0     C76653   4.693  10.926   6.567  0.1974 -0.8694  0.0274
  556MOL0     C76654   4.772  11.003   6.479  0.7378 -0.2516  0.9021
  556MOL0     C76655   4.837  11.071   6.402 -0.1935  0.2621 -0.7284
  556MOL0     C76656   4.101  10.941   6.672 -0.8252  0.7150  0.6525
  556MOL0     C76657   3.969  10.926   6.656 -0.7884 -0.2952  0.9296
  556MOL0     C76658   3.927  10.780   6.654 -1.3628 -0.3494 -0.1985
  556MOL0     H76659   3.586  11.008   6.347  2.6168 -1.6743  0.3196
  556MOL0     H76660   3.385  10.923   6.238 -3.4241  0.0483  0.0197
  556MOL0     H76661   3.126  10.843   6.269  1.5458  0.1622  0.8390
  556MOL0     H76662   3.102  10.680   6.200 -0.4524 -0.3297 -0.7879
  556MOL0     H76663   3.253  10.907   6.083  3.3582 -0.0020  1.8983
  556MOL0     H76664   3.330  10.746   6.069  0.5054  1.6550  0.2001
  556MOL0     H76665   3.045  10.817   5.976 -1.7095 -5.3635 -0.6661
  556MOL0     H76666   3.197  10.852   5.896 -1.5824  3.1143  0.9805
  556MOL0     H76667   3.247  10.609   5.912 -0.5061 -0.7966  2.9341
  556MOL0     H76668   3.083  10.576   5.975  1.1213 -0.7111 -0.7434
  556MOL0     H76669   3.141  10.719   5.711 -2.6739  0.0272 -1.5969
  556MOL0     H76670   2.988  10.661   5.751  0.6123  4.1139 -1.8492
  556MOL0     H76671   3.226  10.502   5.691 -0.6912 -3.0845  1.4907
  556MOL0     H76672   3.081  10.428   5.771 -2.7442 -1.8667 -2.5845
  556MOL0     H76673   3.074  10.590   5.512 -2.0793  0.4507 -0.7844
  556MOL0     H76674   2.927  10.530   5.586 -0.3943 -1.4164  1.2107
  556MOL0     H76675   3.155  10.367   5.479  1.4573  2.2666  1.7771
  556MOL0     H76676   3.046  10.278   5.578 -0.8344 -1.3459 -2.3501
  556MOL0     H76677   3.096  10.480   5.242 -0.3918  1.1337  0.5939
  556MOL0     H76678   2.915  10.307   4.959  1.5303 -0.7644  0.1773
  556MOL0     H76679   3.021  10.435   4.993 -0.7176  0.7953 -1.1796
  556MOL0     H76680   2.721  10.470   5.057 -0.3079  0.6270  0.1284
  556MOL0     H76681   2.834  10.592   5.074 -2.6233  1.0528 -2.0945
  556MOL0     H76682   2.901  10.494   4.819  1.1959 -0.0887  2.0091
  556MOL0     H76683   2.732  10.468   4.817 -0.7041 -0.0209  0.6998
  556MOL0     H76684   2.872  10.737   4.845 -0.3124  0.6611 -0.6103
  556MOL0     H76685   2.745  10.677   4.730 -1.8568  0.7211  0.2335
  556MOL0     H76686   2.704  10.924   4.751 -0.1279 -1.4790 -1.6859
  556MOL0     H76687   2.526  11.215   4.742 -4.1609  0.4505 -2.4782
  556MOL0     H76688   2.479  11.142   4.592  1.5384  1.0475 -0.4846
  556MOL0     H76689   2.643  11.110   4.651 -0.3118 -2.3273  1.1264
  556MOL0     H76690   2.004  11.177   4.698  1.5593 -2.1315  0.8152
  556MOL0     H76691   1.829  11.347   4.765 -2.8665 -0.6090  2.0396
  556MOL0     H76692   1.788  11.560   4.825 -0.3634  1.8537  1.2451
  556MOL0     H76693   1.651  11.447   4.848 -0.5825 -1.2040  2.3051
  556MOL0     H76694   1.711  11.690   5.021 -0.5690  1.1301 -0.6764
  556MOL0     H76695   1.600  11.690   4.885 -1.4865 -2.0075 -0.7868
  556MOL0     H76696   1.513  11.674   5.087  0.0011 -0.3727 -0.3462
  556MOL0     H76697   1.574  11.512   5.127  0.9331 -1.4582 -0.6719
  556MOL0     H76698   1.450  11.436   4.900 -2.9121  0.6511 -2.1411
  556MOL0     H76699   1.363  11.592   4.920 -0.4669 -0.4595  0.9443
  556MOL0     H76700   1.277  11.503   5.148  3.1285 -1.4818  3.5185
  556MOL0     H76701   1.238  11.415   5.002 -1.9990 -0.7909  2.7890
  556MOL0     H76702   1.439  11.305   5.211 -0.5959 -1.7188  0.6294
  556MOL0     H76703   1.442  11.266   5.046  0.0491 -1.3645  0.6528
  556MOL0     H76704   1.179  11.216   5.089 -0.3519 -3.2359  0.7659
  556MOL0     H76705   1.244  11.217   5.269 -1.9724  1.1326  0.3100
  556MOL0     H76706   1.393  11.036   5.190 -1.0627 -4.1825 -1.0924
  556MOL0     H76707   1.332  11.058   5.023  2.1596  0.3759 -0.3087
  556MOL0     H76708   1.952  11.315   5.164  2.1677  0.0375  0.6534
  556MOL0     H76709   2.084  11.115   5.120 -0.7023 -1.8761 -0.3399
  556MOL0     H76710   2.245  10.822   4.888 -0.3373 -0.8859 -0.6175
  556MOL0     H76711   2.430  10.682   4.966 -0.4152  0.3575  1.0266
  556MOL0     H76712   3.389  10.594   6.517  0.9006  0.2419  0.9063
  556MOL0     H76713   3.553  10.702   6.649  0.8839 -0.6352  0.3299
  556MOL0     H76714   3.913  11.247   6.574 -0.4672 -0.5521  1.2722
  556MOL0     H76715   4.142  11.276   6.655 -1.0607  0.7995 -3.1258
  556MOL0     H76716   4.370  11.189   6.562 -0.2751  1.5532  0.7466
  556MOL0     H76717   4.393  11.236   6.726  1.7666  2.7166 -3.6302
  556MOL0     H76718   4.569  11.075   6.747  0.0985 -0.0835  0.0044
  556MOL0     H76719   4.606  11.179   6.619  2.0613 -2.3833  0.2628
  556MOL0     H76720   4.499  10.891   6.636  3.5069 -0.7626  2.9925
  556MOL0     H76721   4.500  10.968   6.473 -1.4933 -2.8453  0.8800
  556MOL0     H76722   4.693  10.820   6.538 -0.0378 -1.4353  1.9028
  556MOL0     H76723   4.739  10.932   6.666  2.4591  1.6267 -1.0767
  556MOL0     H76724   4.888  11.135   6.334 -0.6814  1.7018  0.1993
  556MOL0     H76725   4.159  10.851   6.688 -3.9300 -1.6309 -0.2475
  556MOL0     H76726   3.928  10.737   6.553  0.9294  0.1700 -0.4658
  556MOL0     H76727   3.991  10.720   6.719 -0.7609 -0.0859 -0.5375
  556MOL0     H76728   3.827  10.775   6.696 -1.3581  2.4172  0.3201
  557MOL0     O76729   5.165   7.806  11.020 -0.4332 -0.1204 -0.1923
  557MOL0     C76730   5.229   7.878  11.097  0.5906  0.1062  0.4805
  557MOL0     O76731   5.203   8.012  11.105  0.4639 -0.3834  0.4041
  557MOL0     C76732   5.122   8.085  11.014  0.8941 -0.3867 -0.4836
  557MOL0     C76733   5.170   8.203  10.974  0.3384 -0.3515  0.1206
  557MOL0     C76734   5.095   8.284  10.893  0.6830 -0.7792 -0.4633
  557MOL0     C76735   4.969   8.242  10.843 -0.3746  0.5824 -0.3009
  557MOL0     O76736   4.894   8.318  10.761 -0.7756 -0.1321 -0.3514
  557MOL0     C76737   4.952   8.404  10.664  0.3948  0.7605  0.1159
  557MOL0     C76738   4.973   8.540  10.721  0.6751 -0.0902  0.5191
  557MOL0     C76739   5.052   8.630  10.629  0.1050 -0.3038  0.5166
  557MOL0     C76740   5.087   8.768  10.696 -0.3216 -0.0193  0.2084
  557MOL0     C76741   4.977   8.864  10.648 -0.1286  0.8751  0.9847
  557MOL0     C76742   4.993   8.995  10.713 -0.4804 -0.2236 -0.4972
  557MOL0     C76743   4.865   9.068  10.682 -0.9786 -0.0316 -0.8224
  557MOL0     C76744   4.853   9.209  10.755  0.2096 -0.2086  0.5566
  557MOL0     N76745   4.876   9.215  10.898 -0.9776 -0.1744  0.2551
  557MOL0     C76746   4.795   9.151  10.995 -0.2998  0.2171  1.0172
  557MOL0     C76747   4.855   9.174  11.112  0.2925  0.4066  0.3617
  557MOL0     C76748   4.802   9.117  11.241  0.1217  0.1611 -0.4133
  557MOL0     C76749   4.884   9.171  11.361 -0.6159 -0.1817 -0.5624
  557MOL0     C76750   5.003   9.078  11.401  0.1718 -0.3143  0.9059
  557MOL0     C76751   5.080   9.132  11.520 -0.4347  0.5421  0.4940
  557MOL0     O76752   5.132   9.263  11.488 -0.2699  0.6087  0.4663
  557MOL0     C76753   5.246   9.315  11.552 -0.0003  0.1664  1.3219
  557MOL0     C76754   5.270   9.285  11.682 -0.6172 -0.9355  0.2186
  557MOL0     C76755   5.376   9.344  11.752  0.1202 -0.4698 -0.0396
  557MOL0     C76756   5.398   9.299  11.894 -0.5346  0.6097  0.0556
  557MOL0     C76757   5.458   9.439  11.689  1.1147  0.2178  0.0677
  557MOL0     C76758   5.567   9.518  11.750  0.2262 -0.2503  0.5517
  557MOL0     O76759   5.647   9.464  11.847  0.2067  0.4981  0.2009
  557MOL0     C76760   5.734   9.538  11.920  0.1793  0.5540 -1.2802
  557MOL0     C76761   5.703   9.655  11.986 -0.1869 -0.1875  0.1452
  557MOL0     C76762   5.807   9.706  12.071  0.0358  0.1957  0.5145
  557MOL0     C76763   5.938   9.641  12.095 -0.0956 -0.2750 -0.4764
  557MOL0     O76764   6.037   9.699  12.176 -0.0497  0.1938 -0.3942
  557MOL0     C76765   6.083   9.821  12.121 -0.8363  0.5485  1.3128
  557MOL0     C76766   6.194   9.878  12.214 -0.8214  0.5268 -0.7271
  557MOL0     C76767   6.310   9.785  12.256  0.4588  0.0818  1.8752
  557MOL0     C76768   6.408   9.744  12.153  0.7610 -0.7501 -0.5016
  557MOL0     C76769   6.483   9.856  12.081  0.4942 -0.2189 -0.0682
  557MOL0     C76770   6.575   9.800  11.973  0.6329 -0.0566 -0.0337
  557MOL0     C76771   6.502   9.780  11.846  0.0409 -0.0633 -0.3626
  557MOL0     C76772   6.602   9.747  11.733  0.0261 -0.2330  0.3247
  557MOL0    Cl76773   6.517   9.772  11.570 -0.3202  0.3683 -0.0075
  557MOL0     C76774   5.955   9.529  12.024  0.1732  0.2160  1.0729
  557MOL0     C76775   5.857   9.478  11.937 -0.9056 -0.0079 -0.0059
  557MOL0     O76776   5.579   9.637  11.711 -0.3473 -0.4115  0.4579
  557MOL0     C76777   5.431   9.457  11.550 -1.0639 -0.7076  0.0503
  557MOL0     C76778   5.325   9.401  11.486  0.4945  0.3093 -0.5077
  557MOL0     N76779   4.982   9.240  11.092  1.0851  0.1316  0.7286
  557MOL0     N76780   4.984   9.260  10.965  0.6028  0.2645 -0.2555
  557MOL0     C76781   4.918   8.119  10.890 -0.4982 -0.2166  0.0208
  557MOL0     C76782   4.997   8.045  10.973  0.6483  0.8625 -0.1362
  557MOL0     C76783   5.340   7.824  11.170 -1.2835  0.2319 -1.5185
  557MOL0     C76784   5.418   7.912  11.238 -0.0303 -0.2046  0.1547
  557MOL0     C76785   5.529   7.870  11.311  0.3708 -0.8530  0.7574
  557MOL0     C76786   5.568   7.740  11.331  0.6091  1.0861  0.2238
  557MOL0     O76787   5.675   7.694  11.405 -0.1973  0.0332 -0.5805
  557MOL0     C76788   5.761   7.781  11.475 -1.4454  1.3807 -0.4777
  557MOL0     C76789   5.879   7.701  11.543 -0.5584  0.3261  0.3995
  557MOL0     C76790   5.930   7.759  11.676  0.2987 -0.8340  0.8379
  557MOL0     C76791   5.968   7.908  11.667  0.1792 -0.3532 -0.7586
  557MOL0     C76792   6.073   7.956  11.753  0.2049  0.7433 -0.5793
  557MOL0     C76793   6.164   8.006  11.820  0.1203 -0.3222  0.0719
  557MOL0     C76794   5.495   7.647  11.257 -0.1890  0.0176  0.0764
  557MOL0     C76795   5.384   7.685  11.176 -0.9997  0.1275  0.5063
  557MOL0     C76796   5.308   7.568  11.112  0.1477 -0.3766 -0.0831
  557MOL0     H76797   5.268   8.243  10.997  1.6351 -2.6370 -1.0346
  557MOL0     H76798   5.144   8.380  10.877  1.5456 -1.1077  0.1027
  557MOL0     H76799   4.883   8.407  10.579 -1.1879  1.2547  1.3551
  557MOL0     H76800   5.051   8.363  10.644 -0.2608 -0.4356 -0.7703
  557MOL0     H76801   4.875   8.583  10.743  0.8778 -0.3560  2.0800
  557MOL0     H76802   5.017   8.538  10.822  0.0641  0.3868  0.8020
  557MOL0     H76803   5.138   8.566  10.607  0.6589 -0.3117  2.4532
  557MOL0     H76804   5.012   8.663  10.533  0.5163 -0.5665  0.2518
  557MOL0     H76805   5.098   8.761  10.804  1.5992 -1.5111 -0.0301
  557MOL0     H76806   5.184   8.804  10.662  0.7204 -2.7603  0.0168
  557MOL0     H76807   4.876   8.824  10.657  1.0173 -2.1481  1.4743
  557MOL0     H76808   4.991   8.878  10.540 -1.5760 -1.0198  0.5106
  557MOL0     H76809   5.016   8.975  10.818  1.0966 -0.7704 -0.9205
  557MOL0     H76810   5.070   9.061  10.674 -5.0159  5.4638 -1.2837
  557MOL0     H76811   4.789   8.999  10.720  3.1255 -3.1167  2.7209
  557MOL0     H76812   4.850   9.072  10.574 -0.8889 -0.0438 -0.8358
  557MOL0     H76813   4.920   9.281  10.708 -0.7093  1.6027  1.8730
  557MOL0     H76814   4.753   9.247  10.730  0.0516 -1.2021 -0.3621
  557MOL0     H76815   4.706   9.092  10.976 -0.5603  0.8952  0.0357
  557MOL0     H76816   4.806   9.008  11.245  4.2397  0.2018  0.9257
  557MOL0     H76817   4.700   9.154  11.257 -0.1402 -0.6378 -0.1621
  557MOL0     H76818   4.912   9.276  11.348 -2.9770  0.5282 -0.3725
  557MOL0     H76819   4.822   9.168  11.451  0.0576  1.0129 -0.0375
  557MOL0     H76820   4.969   8.976  11.423  3.0958 -0.8996  3.3408
  557MOL0     H76821   5.058   9.075  11.306 -4.0968 -2.4663 -1.8080
  557MOL0     H76822   5.010   9.152  11.602 -0.3991 -0.6573  0.8405
  557MOL0     H76823   5.153   9.057  11.552 -2.1173 -1.3529  0.0545
  557MOL0     H76824   5.215   9.207  11.734 -1.1761  0.2453  1.4648
  557MOL0     H76825   5.336   9.215  11.926 -0.2734  1.0804  1.9134
  557MOL0     H76826   5.380   9.387  11.955 -2.9096  0.5816 -0.5178
  557MOL0     H76827   5.501   9.264  11.907 -1.4102 -3.7568 -2.5853
  557MOL0     H76828   5.608   9.704  11.966 -1.0548 -3.0291 -3.8385
  557MOL0     H76829   5.797   9.804  12.118  5.5372  1.0878  0.5746
  557MOL0     H76830   6.112   9.807  12.016 -0.4090  2.0411  1.2063
  557MOL0     H76831   6.003   9.895  12.110 -1.3432 -0.2204 -0.7480
  557MOL0     H76832   6.234   9.969  12.168 -0.4756  0.3219 -0.8348
  557MOL0     H76833   6.144   9.915  12.304 -0.7311  0.2262 -0.5520
  557MOL0     H76834   6.264   9.699  12.306 -2.3411 -0.4106 -1.1989
  557MOL0     H76835   6.367   9.840  12.331 -2.0620  2.5215  2.1420
  557MOL0     H76836   6.367   9.664  12.091  0.0976 -0.9600  0.1944
  557MOL0     H76837   6.483   9.679  12.199 -2.1280 -0.9430  4.7150
  557MOL0     H76838   6.408   9.924  12.040  1.8289  1.6305  0.3737
  557MOL0     H76839   6.531   9.923  12.153 -2.2053 -0.4411  2.0756
  557MOL0     H76840   6.623   9.709  12.012 -1.3657 -1.1886 -0.0470
  557MOL0     H76841   6.655   9.873  11.958 -0.3008  0.6649 -1.7416
  557MOL0     H76842   6.441   9.862  11.807  1.4704  0.5345 -1.4173
  557MOL0     H76843   6.433   9.698  11.866 -1.8794  1.2034 -1.4709
  557MOL0     H76844   6.633   9.642  11.738  0.2808 -0.5016 -3.6198
  557MOL0     H76845   6.687   9.815  11.730 -0.2135  0.0383 -0.4338
  557MOL0     H76846   6.050   9.477  12.030  0.3600  0.2407 -1.0781
  557MOL0     H76847   5.882   9.385  11.886 -0.0255  0.0719  0.2629
  557MOL0     H76848   5.483   9.531  11.490 -0.6027  0.4510  1.8111
  557MOL0     H76849   5.310   9.431  11.382 -0.6078 -1.1021 -0.7731
  557MOL0     H76850   4.828   8.080  10.843 -0.4807 -1.9092  1.3038
  557MOL0     H76851   4.949   7.952  11.004 -0.1803  1.7539  1.4166
  557MOL0     H76852   5.400   8.019  11.244  0.6721 -0.1446  2.0991
  557MOL0     H76853   5.588   7.948  11.359  3.8869 -0.3192 -3.7908
  557MOL0     H76854   5.800   7.855  11.405  0.7764  3.3459  2.5902
  557MOL0     H76855   5.717   7.824  11.565  1.8827 -1.8950  3.1349
  557MOL0     H76856   5.967   7.686  11.479 -0.8162 -1.1560  0.3389
  557MOL0     H76857   5.840   7.603  11.574  0.8391 -0.8733 -1.3624
  557MOL0     H76858   5.859   7.743  11.757  0.1480  1.7819  1.3127
  557MOL0     H76859   6.021   7.704  11.704  1.2902  0.0713 -0.4707
  557MOL0     H76860   5.879   7.972  11.679  1.7838  2.4925 -2.7824
  557MOL0     H76861   5.991   7.923  11.561 -0.8419 -1.4323 -1.1640
  557MOL0     H76862   6.227   8.067  11.882 -1.9683  1.6805  0.3607
  557MOL0     H76863   5.517   7.542  11.272 -4.2311 -1.2186 -1.3035
  557MOL0     H76864   5.299   7.560  11.004 -0.6386 -0.2911 -0.0305
  557MOL0     H76865   5.354   7.471  11.133  1.5798 -0.3097 -2.5406
  557MOL0     H76866   5.208   7.580  11.155  0.0650  0.0157 -0.3766
  558MOL0     O76867   9.134   7.011   8.384 -0.3479 -0.1965  0.0854
  558MOL0     C76868   9.102   6.931   8.291  1.2396 -0.5670 -0.2844
  558MOL0     O76869   9.067   6.801   8.304  0.1764  0.1082 -0.1313
  558MOL0     C76870   9.050   6.759   8.437 -0.1995 -0.1539 -0.8089
  558MOL0     C76871   8.927   6.721   8.478  0.0280 -0.1051 -0.8858
  558MOL0     C76872   8.904   6.693   8.615 -0.1394 -0.1225 -0.4624
  558MOL0     C76873   9.010   6.702   8.710  0.5550 -1.2162  0.4898
  558MOL0     O76874   8.976   6.695   8.844 -0.0028 -0.6759 -0.8177
  558MOL0     C76875   9.063   6.749   8.942 -0.0569  0.3075  1.0227
  558MOL0     C76876   9.165   6.648   8.979  0.0553 -0.2465 -0.3687
  558MOL0     C76877   9.094   6.526   9.057  0.0737 -0.7600 -0.1873
  558MOL0     C76878   9.019   6.566   9.185 -0.0602  0.0866 -0.9107
  558MOL0     C76879   8.960   6.447   9.265 -0.8029 -0.6044 -0.2382
  558MOL0     C76880   8.836   6.381   9.207  0.2520  0.4622  0.1360
  558MOL0     C76881   8.731   6.332   9.308  0.2661 -0.0441 -0.6350
  558MOL0     C76882   8.778   6.199   9.370  0.9350 -0.3753  0.3344
  558MOL0     N76883   8.676   6.148   9.458  0.2726  0.2874 -0.4371
  558MOL0     C76884   8.673   6.182   9.588 -0.4307  0.2019  0.2643
  558MOL0     C76885   8.559   6.120   9.635 -0.3114  0.1961  0.3433
  558MOL0     C76886   8.507   6.151   9.775 -0.1922 -0.2911  0.2270
  558MOL0     C76887   8.577   6.049   9.869 -0.7654 -0.1847 -0.7679
  558MOL0     C76888   8.528   6.063  10.011 -0.9304  0.1420 -0.6585
  558MOL0     C76889   8.560   6.187  10.091  0.0137  0.3482  0.6429
  558MOL0     O76890   8.706   6.190  10.079  0.2717 -0.0645 -0.0557
  558MOL0     C76891   8.756   6.314  10.055 -0.2511 -0.0340  0.2899
  558MOL0     C76892   8.818   6.334   9.933  0.8771  0.5623 -0.2575
  558MOL0     C76893   8.875   6.451   9.894  0.9956  0.3235 -0.6573
  558MOL0     C76894   8.954   6.460   9.763 -0.1882  0.1693 -0.1838
  558MOL0     C76895   8.854   6.567   9.974 -0.7439  0.0438 -0.2154
  558MOL0     C76896   8.901   6.706   9.936  0.3908  0.2074  1.1264
  558MOL0     O76897   8.995   6.776  10.016  0.3737  0.1853 -0.3275
  558MOL0     C76898   9.017   6.913   9.995 -0.0756  0.1062  0.6416
  558MOL0     C76899   9.032   6.971   9.867  0.0185  0.6077 -1.0393
  558MOL0     C76900   9.070   7.106   9.854  0.7409  0.4262 -1.2086
  558MOL0     C76901   9.120   7.174   9.962  0.1934 -0.7793 -0.6049
  558MOL0     O76902   9.160   7.296   9.936  0.7508  0.2127  0.5256
  558MOL0     C76903   9.277   7.347  10.000 -0.8762 -0.7275 -0.0111
  558MOL0     C76904   9.361   7.421   9.890  0.2953 -0.7936 -0.7432
  558MOL0     C76905   9.304   7.556   9.842 -0.7790 -0.8962  1.4339
  558MOL0     C76906   9.327   7.657   9.948  0.2830  0.7515 -0.3651
  558MOL0     C76907   9.271   7.791   9.895 -1.1503  0.4369 -0.5800
  558MOL0     C76908   9.124   7.808   9.916  0.3220 -0.0021  0.3961
  558MOL0     C76909   9.099   7.828  10.072 -0.5239 -0.1177  0.0773
  558MOL0     C76910   9.024   7.704  10.118  0.3199  0.0128  0.1423
  558MOL0    Cl76911   8.967   7.737  10.284  0.2629 -0.0942  0.1945
  558MOL0     C76912   9.114   7.121  10.093 -0.0002  0.7223 -0.0362
  558MOL0     C76913   9.067   6.991  10.102  0.5337  0.3203  0.8498
  558MOL0     O76914   8.844   6.756   9.838  0.0535 -0.4596 -0.2177
  558MOL0     C76915   8.799   6.550  10.106  0.3545  0.4277 -0.5587
  558MOL0     C76916   8.740   6.422  10.145 -0.5857  0.0652  0.1929
  558MOL0     N76917   8.505   6.047   9.527  0.6451  0.3601  0.1758
  558MOL0     N76918   8.581   6.060   9.422  0.1858 -0.4453  0.3626
  558MOL0     C76919   9.141   6.722   8.658  0.6515 -0.3311 -0.7568
  558MOL0     C76920   9.158   6.738   8.522  0.0562 -0.0583  0.3461
  558MOL0     C76921   9.120   6.972   8.151  0.4189 -0.4758  0.3736
  558MOL0     C76922   9.020   6.922   8.066  0.1527 -0.2838 -0.5345
  558MOL0     C76923   9.029   6.954   7.924  0.5226  0.0148 -0.8529
  558MOL0     C76924   9.140   7.028   7.865  0.4346  0.2745 -0.8884
  558MOL0     O76925   9.133   7.057   7.730 -0.3312  0.1237 -0.3698
  558MOL0     C76926   9.249   7.111   7.668  0.9321 -0.0747  0.3617
  558MOL0     C76927   9.206   7.154   7.525  1.1096 -0.1257  0.5002
  558MOL0     C76928   9.321   7.234   7.455 -0.4625 -0.1794 -0.0263
  558MOL0     C76929   9.451   7.157   7.453 -0.4811 -0.1884  0.1287
  558MOL0     C76930   9.528   7.182   7.584 -0.3454  0.2843  0.2170
  558MOL0     C76931   9.582   7.212   7.687  0.3529  0.2882  0.4106
  558MOL0     C76932   9.231   7.074   7.954  0.0740  0.5487 -0.3773
  558MOL0     C76933   9.222   7.053   8.098  0.6853  0.6280 -0.1417
  558MOL0     C76934   9.334   7.101   8.181  0.1647  0.6782  0.5800
  558MOL0     H76935   8.838   6.724   8.416 -0.5321 -0.5001 -0.1181
  558MOL0     H76936   8.803   6.673   8.649  0.0513 -0.2136  0.0663
  558MOL0     H76937   8.999   6.780   9.026 -1.2653  1.2936 -0.2185
  558MOL0     H76938   9.119   6.833   8.901 -1.6000 -0.5567 -3.3932
  558MOL0     H76939   9.226   6.605   8.898  0.9086 -1.6097  0.9394
  558MOL0     H76940   9.234   6.684   9.055  1.5336 -3.2369 -0.1414
  558MOL0     H76941   9.026   6.462   9.001 -0.8973  1.6173 -1.8645
  558MOL0     H76942   9.178   6.461   9.083  2.3231  1.3835 -1.5999
  558MOL0     H76943   9.086   6.616   9.256  0.2530 -0.6953 -0.6474
  558MOL0     H76944   8.928   6.624   9.165 -1.7585 -2.1648 -0.0729
  558MOL0     H76945   8.926   6.494   9.358  0.8696 -0.6575  0.4303
  558MOL0     H76946   9.039   6.374   9.283  2.2235  2.4914 -0.0134
  558MOL0     H76947   8.790   6.454   9.140 -1.1057 -1.1095 -0.6976
  558MOL0     H76948   8.884   6.301   9.152  1.9174 -0.1453  2.3181
  558MOL0     H76949   8.636   6.312   9.257  0.6774 -3.9118 -0.1502
  558MOL0     H76950   8.707   6.422   9.365 -1.9706  1.1649 -3.2621
  558MOL0     H76951   8.799   6.132   9.286 -0.5423  3.3717 -3.3858
  558MOL0     H76952   8.870   6.213   9.428 -0.5144  1.4766  2.3413
  558MOL0     H76953   8.745   6.234   9.649 -2.7857 -1.8577  5.4192
  558MOL0     H76954   8.399   6.138   9.789 -0.2813 -0.2195 -0.3899
  558MOL0     H76955   8.537   6.249   9.816 -0.0360 -1.8762  4.4353
  558MOL0     H76956   8.555   5.946   9.837  1.3029 -1.1823  0.8335
  558MOL0     H76957   8.686   6.059   9.866 -0.8285  2.3992  1.8980
  558MOL0     H76958   8.419   6.060  10.019 -0.9514  0.7201 -0.6838
  558MOL0     H76959   8.577   5.984  10.069 -2.5333 -0.8282 -0.5615
  558MOL0     H76960   8.514   6.272  10.040 -1.2420  0.9367  2.6467
  558MOL0     H76961   8.529   6.188  10.196 -0.8851  1.3789  0.3941
  558MOL0     H76962   8.825   6.240   9.881 -0.5362  0.8334 -0.9998
  558MOL0     H76963   9.060   6.459   9.789 -0.1621  1.2703 -0.1812
  558MOL0     H76964   8.925   6.546   9.702 -3.0540 -0.5124  0.0890
  558MOL0     H76965   8.927   6.378   9.696 -1.3532 -0.1375  0.6405
  558MOL0     H76966   9.009   6.908   9.781  0.8247 -1.6982  0.3223
  558MOL0     H76967   9.079   7.149   9.754  1.7339  3.4627  0.0760
  558MOL0     H76968   9.249   7.412  10.083 -1.6607 -1.4460  0.3070
  558MOL0     H76969   9.337   7.268  10.046  0.3824 -0.0398 -0.4234
  558MOL0     H76970   9.458   7.441   9.935 -0.9227  3.7875  0.2931
  558MOL0     H76971   9.372   7.354   9.804 -2.1756  1.7611 -3.2758
  558MOL0     H76972   9.197   7.531   9.832  0.0115 -3.8622 -2.0563
  558MOL0     H76973   9.351   7.592   9.750  3.4880  2.4821  4.5243
  558MOL0     H76974   9.433   7.670   9.972  0.5608 -0.5245 -0.8293
  558MOL0     H76975   9.276   7.626  10.040 -0.2065  1.4238 -0.3977
  558MOL0     H76976   9.320   7.871   9.951 -2.6839  1.9076 -1.2412
  558MOL0     H76977   9.299   7.805   9.790  3.2990 -2.5555 -0.0443
  558MOL0     H76978   9.068   7.729   9.865 -0.1483  1.8625 -2.1860
  558MOL0     H76979   9.090   7.901   9.868 -0.2214  0.0874  0.9364
  558MOL0     H76980   9.044   7.921  10.092  0.6879  0.4954  0.7528
  558MOL0     H76981   9.193   7.841  10.128  0.8942  2.5117 -2.6042
  558MOL0     H76982   9.094   7.621  10.128  1.4059  0.9430  0.5022
  558MOL0     H76983   8.940   7.677  10.053 -1.3218  0.5248  1.9372
  558MOL0     H76984   9.151   7.173  10.180  0.5409  0.3043 -0.0120
  558MOL0     H76985   9.060   6.957  10.205 -0.5697  2.0089  1.3811
  558MOL0     H76986   8.784   6.635  10.170 -2.1978 -1.8399  2.1390
  558MOL0     H76987   8.688   6.400  10.238 -3.3854 -2.6580 -1.8092
  558MOL0     H76988   9.227   6.733   8.723  0.2166  1.3652 -0.4024
  558MOL0     H76989   9.260   6.766   8.496  1.5962 -3.3386  2.2764
  558MOL0     H76990   8.941   6.856   8.099 -0.4141  1.5274  1.9704
  558MOL0     H76991   8.953   6.912   7.859 -0.4904 -0.0340  0.3427
  558MOL0     H76992   9.278   7.204   7.718  4.2637 -1.3939  1.1605
  558MOL0     H76993   9.337   7.047   7.665  1.3077  0.4621 -1.3380
  558MOL0     H76994   9.117   7.216   7.532  1.5225  0.9952 -2.4532
  558MOL0     H76995   9.169   7.068   7.468  0.2853  0.0603  0.7511
  558MOL0     H76996   9.284   7.259   7.356 -1.5337 -0.1628  0.3618
  558MOL0     H76997   9.335   7.327   7.511 -1.2135 -0.2047  0.2246
  558MOL0     H76998   9.516   7.194   7.373  0.1138 -1.5696 -0.0446
  558MOL0     H76999   9.434   7.052   7.428 -1.7162  0.4862 -2.1688
  558MOL0     H77000   9.621   7.230   7.785 -0.0044  0.9663  0.4344
  558MOL0     H77001   9.311   7.140   7.921  3.0263 -1.6314  1.9134
  558MOL0     H77002   9.387   7.025   8.240 -0.8244 -0.1776  0.3826
  558MOL0     H77003   9.410   7.147   8.117 -0.4407 -1.7306 -2.0771
  558MOL0     H77004   9.291   7.173   8.251 -1.0809 -1.1207  1.7687
  559MOL0     O77005   2.355   2.480  11.035  0.3841 -0.1933 -0.6195
  559MOL0     C77006   2.332   2.502  10.922 -0.2082 -0.8955 -0.0607
  559MOL0     O77007   2.209   2.518  10.870  0.5255  0.1367  0.5336
  559MOL0     C77008   2.100   2.550  10.951  0.3488  0.1002 -0.7038
  559MOL0     C77009   2.033   2.666  10.916 -0.1735 -0.4167 -0.1342
  559MOL0     C77010   1.907   2.701  10.969  0.2105 -0.0149 -0.5924
  559MOL0     C77011   1.841   2.619  11.057  0.3553  0.5738 -0.8914
  559MOL0     O77012   1.733   2.656  11.125 -0.7783 -0.0231 -0.3908
  559MOL0     C77013   1.619   2.704  11.056 -0.2548 -0.2134  0.0083
  559MOL0     C77014   1.542   2.790  11.156  0.3822 -1.2748  0.3355
  559MOL0     C77015   1.444   2.713  11.249  0.4211  0.5185  0.7759
  559MOL0     C77016   1.511   2.594  11.326 -0.1617  0.6274 -0.3318
  559MOL0     C77017   1.408   2.509  11.404  0.8571 -0.0399 -0.9648
  559MOL0     C77018   1.346   2.560  11.531  0.4288  1.0147  0.0312
  559MOL0     C77019   1.258   2.471  11.621  0.3840 -0.4143  0.4296
  559MOL0     C77020   1.316   2.342  11.692  0.8695  0.3605 -0.0781
  559MOL0     N77021   1.414   2.360  11.801  0.2780 -0.5704 -0.3203
  559MOL0     C77022   1.395   2.322  11.932  0.4829  0.5559  0.5090
  559MOL0     C77023   1.508   2.353  11.998 -0.1570 -0.1643  0.7834
  559MOL0     C77024   1.549   2.334  12.138 -0.3650 -0.4534 -0.5671
  559MOL0     C77025   1.619   2.454  12.205 -0.6733 -0.2541  0.3534
  559MOL0     C77026   1.771   2.479  12.168 -0.3830  0.1129  0.0084
  559MOL0     C77027   1.834   2.595  12.245 -0.2754  0.0771  0.7633
  559MOL0     O77028   1.841   2.562  12.389  0.6270 -0.0483 -0.3329
  559MOL0     C77029   1.952   2.558  12.468 -0.7133 -0.8679  0.2968
  559MOL0     C77030   2.082   2.567  12.424  0.4382 -0.3490  0.7942
  559MOL0     C77031   2.180   2.583  12.525  0.5897  0.1022  0.1153
  559MOL0     C77032   2.320   2.613  12.480  0.8129 -0.4645  0.2631
  559MOL0     C77033   2.147   2.581  12.666 -0.3310  0.3420 -0.5010
  559MOL0     C77034   2.241   2.596  12.780 -0.6506  0.7565  0.4556
  559MOL0     O77035   2.372   2.557  12.760 -0.1037 -0.5678  0.0547
  559MOL0     C77036   2.445   2.563  12.877 -0.7954  0.1166  0.5105
  559MOL0     C77037   2.525   2.460  12.920  0.5677  0.8110 -0.0493
  559MOL0     C77038   2.612   2.471  13.037  0.0164  0.6824  0.4046
  559MOL0     C77039   2.632   2.591  13.103  0.5430  0.3715  0.3917
  559MOL0     O77040   2.726   2.610  13.202 -0.4815  0.2387 -0.1281
  559MOL0     C77041   2.806   2.496  13.250  1.0997  0.1299 -0.2164
  559MOL0     C77042   2.882   2.543  13.374 -0.6928 -0.6823 -0.0100
  559MOL0     C77043   2.991   2.640  13.341 -1.0220 -0.5300 -0.1002
  559MOL0     C77044   3.033   2.713  13.473  0.0673  0.3032  0.2261
  559MOL0     C77045   3.176   2.770  13.447 -0.8715 -0.2104 -0.2071
  559MOL0     C77046   3.289   2.664  13.461 -0.2084  0.4282 -0.2736
  559MOL0     C77047   3.325   2.613  13.599  0.0899  0.3065 -0.2753
  559MOL0     C77048   3.405   2.700  13.690  0.0727  0.4843 -0.4381
  559MOL0    Cl77049   3.569   2.754  13.640  0.2935 -0.1255 -0.2939
  559MOL0     C77050   2.555   2.699  13.056 -0.5333 -0.2246  0.3308
  559MOL0     C77051   2.466   2.688  12.941 -1.3084 -0.4309 -0.3481
  559MOL0     O77052   2.190   2.634  12.888 -0.5242 -0.0112  0.2391
  559MOL0     C77053   2.014   2.566  12.702 -0.0680  0.5634 -0.5881
  559MOL0     C77054   1.916   2.555  12.605  0.1398 -0.1973  0.2067
  559MOL0     N77055   1.586   2.420  11.903 -0.4077  0.1147 -0.2467
  559MOL0     N77056   1.534   2.436  11.792 -0.1151 -0.1341  0.7139
  559MOL0     C77057   1.907   2.501  11.095  0.0478  0.0225  0.0881
  559MOL0     C77058   2.034   2.470  11.046  0.2942  0.0871 -0.2227
  559MOL0     C77059   2.449   2.532  10.840  0.0237 -1.0393 -0.2930
  559MOL0     C77060   2.423   2.625  10.739 -0.1679 -1.0246 -0.7590
  559MOL0     C77061   2.527   2.677  10.661 -0.4092  0.1385 -0.3185
  559MOL0     C77062   2.652   2.632  10.665  0.2404 -0.2473  0.5471
  559MOL0     O77063   2.728   2.687  10.571 -0.3165 -0.5964  0.4111
  559MOL0     C77064   2.866   2.702  10.595 -0.1638 -0.5754  0.3692
  559MOL0     C77065   2.923   2.742  10.464  0.0496  0.3767  0.3564
  559MOL0     C77066   3.067   2.784  10.482 -0.3674 -0.9222 -0.1621
  559MOL0     C77067   3.133   2.833  10.355 -0.0807  0.5008 -0.8121
  559MOL0     C77068   3.102   2.750  10.236 -0.3538 -0.4586 -0.6814
  559MOL0     C77069   3.078   2.683  10.140 -0.7310 -0.0601  0.4876
  559MOL0     C77070   2.676   2.527  10.756  0.6361 -0.1480 -0.0417
  559MOL0     C77071   2.582   2.478  10.845 -0.4632  0.7382 -0.5605
  559MOL0     C77072   2.613   2.366  10.947  0.2405 -0.1467  0.0168
  559MOL0     H77073   2.077   2.736  10.846 -0.3218  2.8633  2.7492
  559MOL0     H77074   1.853   2.788  10.933 -2.4901 -0.3006  2.3309
  559MOL0     H77075   1.566   2.616  11.020 -2.2532  1.1541 -0.5865
  559MOL0     H77076   1.652   2.766  10.972 -3.4789 -0.5643 -1.6821
  559MOL0     H77077   1.598   2.862  11.217 -1.9999  0.3960  0.6600
  559MOL0     H77078   1.472   2.851  11.099  0.0570  2.5131  4.2642
  559MOL0     H77079   1.378   2.771  11.314  2.1439 -0.3960  3.5256
  559MOL0     H77080   1.380   2.665  11.174  0.4249  3.4459 -1.3012
  559MOL0     H77081   1.559   2.522  11.259  0.3006  0.6035  0.0155
  559MOL0     H77082   1.591   2.630  11.393  0.5691 -0.2541 -0.7093
  559MOL0     H77083   1.454   2.419  11.445  2.6380  2.0742  2.1033
  559MOL0     H77084   1.330   2.480  11.333  0.7325  0.5016 -1.0556
  559MOL0     H77085   1.428   2.591  11.596 -0.1788  1.5423  0.5610
  559MOL0     H77086   1.294   2.653  11.507  0.2664  0.3828 -2.3140
  559MOL0     H77087   1.173   2.447  11.555  1.6497  0.7433 -1.7583
  559MOL0     H77088   1.225   2.536  11.702  1.7235  2.5988 -1.2730
  559MOL0     H77089   1.234   2.284  11.735  2.2075  1.0060  3.6249
  559MOL0     H77090   1.361   2.280  11.613  1.6415  1.6032 -0.6296
  559MOL0     H77091   1.303   2.279  11.969 -1.7572  3.4085 -1.2772
  559MOL0     H77092   1.623   2.253  12.143 -0.9794 -1.0422 -0.8513
  559MOL0     H77093   1.459   2.330  12.200  1.3618  1.1722  2.2180
  559MOL0     H77094   1.581   2.544  12.156  1.0476  0.2791 -0.0753
  559MOL0     H77095   1.613   2.467  12.313  2.3749  0.8238  0.4999
  559MOL0     H77096   1.829   2.393  12.201  1.5820  1.6622  0.8576
  559MOL0     H77097   1.789   2.484  12.060  3.0204  0.5231  0.4849
  559MOL0     H77098   1.936   2.611  12.210 -0.5306  1.4256  0.5832
  559MOL0     H77099   1.779   2.689  12.236  3.6680  2.6026  0.5439
  559MOL0     H77100   2.120   2.569  12.323  0.8077  1.2422  0.9374
  559MOL0     H77101   2.379   2.524  12.503 -0.0515 -0.6457  1.9026
  559MOL0     H77102   2.359   2.698  12.536 -0.5658 -0.5986  1.4895
  559MOL0     H77103   2.322   2.638  12.373  0.2009  0.3417  0.4297
  559MOL0     H77104   2.497   2.362  12.882 -3.2187  1.4600  0.7173
  559MOL0     H77105   2.663   2.379  13.064 -1.7046  0.1128  1.9546
  559MOL0     H77106   2.736   2.417  13.277  2.2399 -1.1719 -0.9419
  559MOL0     H77107   2.881   2.465  13.177 -0.7100 -0.0182 -2.1292
  559MOL0     H77108   2.813   2.588  13.447 -3.1578 -2.2151 -1.2462
  559MOL0     H77109   2.936   2.462  13.424  1.8943  1.2295  0.4953
  559MOL0     H77110   2.964   2.720  13.271  0.4789  0.7550  0.7250
  559MOL0     H77111   3.069   2.575  13.300 -1.2644  0.0541 -1.5278
  559MOL0     H77112   3.037   2.644  13.558  0.7144 -0.4900 -0.4338
  559MOL0     H77113   2.962   2.795  13.493  2.6610  2.4640  1.2449
  559MOL0     H77114   3.167   2.819  13.350  0.3865  1.3537  0.4224
  559MOL0     H77115   3.204   2.839  13.527 -0.4134  2.4499 -2.5416
  559MOL0     H77116   3.378   2.720  13.429  2.6247 -1.8914  2.7766
  559MOL0     H77117   3.275   2.576  13.398  2.5896 -0.3156  0.0173
  559MOL0     H77118   3.370   2.515  13.582  0.5890  0.3692  0.6542
  559MOL0     H77119   3.227   2.590  13.643 -0.1500 -2.7209 -2.0975
  559MOL0     H77120   3.430   2.639  13.777 -2.0775 -1.7185 -1.2231
  559MOL0     H77121   3.348   2.787  13.724  4.2665  2.5470  2.0048
  559MOL0     H77122   2.582   2.793  13.104  0.4015 -1.9105  3.3771
  559MOL0     H77123   2.413   2.779  12.918  0.4762  0.4592 -1.1248
  559MOL0     H77124   1.974   2.549  12.801  0.4062 -2.5193 -0.8418
  559MOL0     H77125   1.810   2.541  12.625 -0.1672 -0.1623 -1.2548
  559MOL0     H77126   1.876   2.444  11.182 -0.6698  1.3924  0.7589
  559MOL0     H77127   2.079   2.372  11.062 -3.9549 -1.8401  1.3083
  559MOL0     H77128   2.327   2.676  10.734  0.9446  1.4810  1.3571
  559MOL0     H77129   2.499   2.759  10.597 -0.1054  1.3122  0.9977
  559MOL0     H77130   2.881   2.785  10.665 -1.4397  2.9549 -3.2262
  559MOL0     H77131   2.901   2.607  10.638  0.2362  1.3580  4.9561
  559MOL0     H77132   2.879   2.836  10.430  1.4112  1.3101  1.0603
  559MOL0     H77133   2.901   2.664  10.390 -3.9161  1.9639 -0.3956
  559MOL0     H77134   3.074   2.862  10.558  1.6006  1.2890 -2.4141
  559MOL0     H77135   3.123   2.696  10.517 -2.0279 -2.6457 -1.6467
  559MOL0     H77136   3.241   2.839  10.374  0.4181 -0.1846 -3.1208
  559MOL0     H77137   3.096   2.935  10.337 -0.6869  0.1991 -1.3036
  559MOL0     H77138   3.059   2.619  10.056 -0.8208 -0.3124  0.6964
  559MOL0     H77139   2.776   2.485  10.751  1.8243  2.2859  1.2154
  559MOL0     H77140   2.572   2.400  11.043 -1.6169  0.4640 -0.9590
  559MOL0     H77141   2.569   2.270  10.916 -1.7632  0.3267  1.2118
  559MOL0     H77142   2.721   2.360  10.966  0.3638  2.3761  0.4684
  560MOL0     O77143   8.478   4.752  10.171 -0.2144 -0.4381  0.7582
  560MOL0     C77144   8.587   4.742  10.115  0.2068  0.1159  0.4110
  560MOL0     O77145   8.617   4.760   9.984 -0.0711  0.1073 -0.1682
  560MOL0     C77146   8.539   4.815   9.889  0.2290  0.1326  0.1957
  560MOL0     C77147   8.402   4.846   9.896  0.2564 -0.0357 -1.1649
  560MOL0     C77148   8.330   4.909   9.789  0.2313  0.5918 -0.0898
  560MOL0     C77149   8.398   4.944   9.668  0.0462 -0.5511 -0.5348
  560MOL0     O77150   8.350   5.008   9.551  0.3021  0.3233  0.1366
  560MOL0     C77151   8.247   5.111   9.577  0.4162  0.4588 -0.4583
  560MOL0     C77152   8.220   5.183   9.455 -0.2656  0.6006  0.4746
  560MOL0     C77153   8.081   5.165   9.407  0.5925  0.5533  0.7193
  560MOL0     C77154   8.064   5.224   9.264  0.4985  0.4396  0.0060
  560MOL0     C77155   7.928   5.247   9.203  0.1270 -0.1923 -0.5358
  560MOL0     C77156   7.932   5.305   9.058  0.0137 -0.2368  0.1091
  560MOL0     C77157   7.995   5.447   9.039 -0.4641  0.1890  0.6855
  560MOL0     C77158   7.900   5.558   9.068  0.3734 -0.8803 -0.4018
  560MOL0     N77159   7.763   5.535   9.011 -0.6464  1.0040 -0.6807
  560MOL0     C77160   7.735   5.525   8.878  0.2997  0.3639 -0.8732
  560MOL0     C77161   7.608   5.463   8.875 -0.2551 -0.6070 -0.4727
  560MOL0     C77162   7.535   5.434   8.748  0.8932 -0.2292  0.1255
  560MOL0     C77163   7.465   5.298   8.747 -0.4428  0.0258 -0.5828
  560MOL0     C77164   7.365   5.280   8.638 -0.0075  0.4580  0.4609
  560MOL0     C77165   7.430   5.272   8.495  0.2293 -0.3371  0.3653
  560MOL0     O77166   7.456   5.137   8.441 -0.4237 -0.2491  0.0955
  560MOL0     C77167   7.522   5.124   8.320  0.4729  1.5439  0.3186
  560MOL0     C77168   7.570   5.232   8.247  0.9159  1.0553  0.1253
  560MOL0     C77169   7.621   5.209   8.121  0.2566 -0.2728  1.6570
  560MOL0     C77170   7.674   5.338   8.059  0.1575  0.3900 -0.9153
  560MOL0     C77171   7.648   5.080   8.064  0.4098 -1.1940  0.3960
  560MOL0     C77172   7.718   5.049   7.934 -1.1702 -0.0516  0.4538
  560MOL0     O77173   7.804   5.148   7.894  0.1214  0.0589  0.0463
  560MOL0     C77174   7.890   5.137   7.785 -0.4473 -0.6344 -0.5482
  560MOL0     C77175   7.860   5.214   7.674  0.6804 -0.0711 -0.7070
  560MOL0     C77176   7.943   5.202   7.562 -0.2559  0.5342 -0.0630
  560MOL0     C77177   8.037   5.100   7.544  0.4104 -0.1109  0.1046
  560MOL0     O77178   8.094   5.081   7.423 -0.3185  0.1234  0.0559
  560MOL0     C77179   8.222   5.015   7.418  0.3875 -0.6501  0.3393
  560MOL0     C77180   8.275   5.032   7.273  0.1015 -0.0656 -0.1694
  560MOL0     C77181   8.389   4.949   7.239 -0.2284 -0.1215 -0.2104
  560MOL0     C77182   8.430   4.984   7.093  0.3980 -0.4276 -0.5367
  560MOL0     C77183   8.566   4.892   7.072  0.1543 -0.0100  0.3021
  560MOL0     C77184   8.624   4.899   6.933 -0.1624 -0.4802 -0.1414
  560MOL0     C77185   8.751   4.817   6.909 -0.3760 -0.2580 -0.8519
  560MOL0     C77186   8.864   4.878   6.995  0.7372 -0.1727  0.3704
  560MOL0    Cl77187   9.028   4.829   6.961 -0.4416 -0.0678 -0.0023
  560MOL0     C77188   8.059   5.020   7.657  0.8768  0.2121 -0.2692
  560MOL0     C77189   7.991   5.041   7.779 -0.0968 -0.3935  0.2277
  560MOL0     O77190   7.719   4.939   7.886 -0.4530 -0.6027 -0.0012
  560MOL0     C77191   7.610   4.975   8.148  0.2050  0.3992  0.7457
  560MOL0     C77192   7.542   4.992   8.267  1.0534  0.6874 -0.0438
  560MOL0     N77193   7.579   5.441   9.005  0.5775  1.2449 -0.2757
  560MOL0     N77194   7.668   5.485   9.086  0.5391  0.4085  0.3094
  560MOL0     C77195   8.538   4.910   9.660  0.1286 -0.4403  0.2742
  560MOL0     C77196   8.610   4.858   9.768  0.1037  0.6859 -0.8946
  560MOL0     C77197   8.688   4.685  10.192 -0.8667  0.5673 -0.9936
  560MOL0     C77198   8.826   4.712  10.155  1.0637 -0.2983  0.1221
  560MOL0     C77199   8.929   4.658  10.228 -0.9408 -0.7482 -0.7503
  560MOL0     C77200   8.917   4.578  10.346 -0.7437 -0.1131  0.5416
  560MOL0     O77201   9.014   4.534  10.422  0.4036  0.0707  0.4604
  560MOL0     C77202   9.149   4.588  10.411  0.1153  0.4813 -1.0166
  560MOL0     C77203   9.174   4.738  10.447 -0.2468 -0.0184 -0.6426
  560MOL0     C77204   9.327   4.768  10.431 -0.2330  0.4438 -1.0699
  560MOL0     C77205   9.393   4.824  10.555 -0.0877 -0.3772 -0.0835
  560MOL0     C77206   9.533   4.857  10.532  0.2205 -0.4224 -0.4294
  560MOL0     C77207   9.651   4.896  10.513  0.1405 -0.4132 -0.0021
  560MOL0     C77208   8.783   4.548  10.374 -1.7352  0.6515 -0.8030
  560MOL0     C77209   8.668   4.592  10.301 -0.5458  0.0616 -0.4529
  560MOL0     C77210   8.526   4.541  10.344 -0.1737  0.5608 -0.2300
  560MOL0     H77211   8.349   4.829   9.990  0.8694  1.5606 -0.5053
  560MOL0     H77212   8.223   4.924   9.789 -0.0812 -1.3323 -0.7931
  560MOL0     H77213   8.295   5.182   9.644 -2.5901  0.0676  2.3901
  560MOL0     H77214   8.165   5.064   9.632  1.2040  1.0003  1.2451
  560MOL0     H77215   8.229   5.292   9.466  1.1225  0.3414  2.2506
  560MOL0     H77216   8.284   5.142   9.376 -3.5454 -3.7914 -0.2804
  560MOL0     H77217   8.064   5.059   9.388  0.8480  0.4234  1.2179
  560MOL0     H77218   7.998   5.196   9.471 -1.0627 -1.3082 -0.3984
  560MOL0     H77219   8.118   5.319   9.255  4.3519 -1.6987 -2.3625
  560MOL0     H77220   8.117   5.153   9.200  0.1157  0.0258  0.1462
  560MOL0     H77221   7.868   5.313   9.267 -1.4330  1.1255 -3.2153
  560MOL0     H77222   7.883   5.147   9.209 -1.8380  0.4908 -2.6370
  560MOL0     H77223   8.004   5.251   8.997  0.1475  0.8423 -0.7075
  560MOL0     H77224   7.841   5.298   8.998 -0.0129 -0.3533  0.1630
  560MOL0     H77225   8.019   5.454   8.932  0.0680  0.5069  0.8232
  560MOL0     H77226   8.087   5.457   9.097  0.3566 -2.4024 -0.0061
  560MOL0     H77227   7.886   5.573   9.175 -0.7047 -2.1081 -0.3495
  560MOL0     H77228   7.939   5.649   9.021 -0.2133 -0.4617 -0.0828
  560MOL0     H77229   7.790   5.562   8.792 -1.1065 -0.7134 -2.3238
  560MOL0     H77230   7.597   5.452   8.660 -1.3227  0.1040 -1.4647
  560MOL0     H77231   7.458   5.511   8.740 -0.8875 -2.0113 -0.7968
  560MOL0     H77232   7.539   5.218   8.741 -1.8353 -1.2193 -1.9826
  560MOL0     H77233   7.407   5.287   8.839  0.3516  3.5805  0.5209
  560MOL0     H77234   7.296   5.196   8.650 -2.2498  2.1182 -0.1567
  560MOL0     H77235   7.301   5.368   8.642 -0.9272 -0.2341  3.8733
  560MOL0     H77236   7.360   5.320   8.426  0.3745 -3.3532 -2.0886
  560MOL0     H77237   7.516   5.338   8.479 -1.2719  1.1204 -2.4643
  560MOL0     H77238   7.556   5.334   8.279 -0.3014  1.1207 -0.5462
  560MOL0     H77239   7.782   5.333   8.075  0.7832  3.1128 -3.3602
  560MOL0     H77240   7.639   5.425   8.116  2.3882 -0.0542  1.2650
  560MOL0     H77241   7.651   5.354   7.953 -0.5688  1.7490 -0.5738
  560MOL0     H77242   7.786   5.293   7.668  2.8633  2.4982  2.6375
  560MOL0     H77243   7.917   5.258   7.473 -2.6345 -0.2825  0.0512
  560MOL0     H77244   8.295   5.058   7.487 -0.6751  2.5267 -0.3564
  560MOL0     H77245   8.230   4.907   7.431  0.6386 -0.4248  2.3430
  560MOL0     H77246   8.199   5.014   7.196  0.1458 -3.9886  0.4898
  560MOL0     H77247   8.314   5.134   7.270  1.4072 -0.5533 -0.6483
  560MOL0     H77248   8.346   4.848   7.239  0.6234 -0.4979  0.2595
  560MOL0     H77249   8.472   4.952   7.311 -1.3413  0.2495  1.1010
  560MOL0     H77250   8.462   5.088   7.092 -0.4616 -0.1669 -1.6443
  560MOL0     H77251   8.349   4.963   7.023 -1.5755 -0.2483  1.5507
  560MOL0     H77252   8.639   4.926   7.146  0.4897  1.0712 -0.5070
  560MOL0     H77253   8.539   4.788   7.095 -2.3025  0.1153 -1.6106
  560MOL0     H77254   8.642   5.002   6.901 -0.1974 -0.3522  0.2407
  560MOL0     H77255   8.545   4.859   6.869  0.4824 -1.3414 -0.4178
  560MOL0     H77256   8.783   4.820   6.804  2.2419 -0.7189 -0.1350
  560MOL0     H77257   8.743   4.716   6.948 -0.5047  0.8877  2.4416
  560MOL0     H77258   8.844   4.852   7.099 -0.8991 -2.9202 -0.5146
  560MOL0     H77259   8.857   4.986   6.986  1.7006 -0.1595 -0.4134
  560MOL0     H77260   8.125   4.935   7.672 -2.1875 -2.0202  1.7986
  560MOL0     H77261   8.011   4.982   7.868 -0.4597 -4.0088 -1.9026
  560MOL0     H77262   7.640   4.878   8.108 -2.2846 -1.5551  3.2199
  560MOL0     H77263   7.522   4.898   8.318 -1.2304  1.0197 -0.2104
  560MOL0     H77264   8.595   4.923   9.569  0.7829 -3.6854  0.0872
  560MOL0     H77265   8.717   4.845   9.754  0.0640  1.1237 -1.6321
  560MOL0     H77266   8.849   4.785  10.078 -1.3260  1.8345  1.2843
  560MOL0     H77267   9.028   4.687  10.194 -1.3311 -0.5583 -1.7674
  560MOL0     H77268   9.202   4.531  10.488  1.7199 -0.1720 -2.5347
  560MOL0     H77269   9.190   4.561  10.313  0.3540  0.7240 -0.9847
  560MOL0     H77270   9.143   4.757  10.550  0.5373 -1.3527 -0.1187
  560MOL0     H77271   9.123   4.803  10.376  0.3265 -0.7136 -1.7185
  560MOL0     H77272   9.387   4.680  10.405  1.9536  1.0486  1.6084
  560MOL0     H77273   9.344   4.834  10.345  1.7240  0.7112 -0.5036
  560MOL0     H77274   9.385   4.750  10.635  3.1625  1.7211  2.4515
  560MOL0     H77275   9.347   4.920  10.578  1.4245  0.9260 -2.1071
  560MOL0     H77276   9.744   4.929  10.472  0.8421 -3.1358 -0.8486
  560MOL0     H77277   8.767   4.481  10.458 -2.6490  0.9567 -0.7254
  560MOL0     H77278   8.532   4.466  10.423 -4.0453  0.5567  0.2736
  560MOL0     H77279   8.477   4.628  10.389  3.9184  2.0948  1.7610
  560MOL0     H77280   8.471   4.494  10.262 -2.8174  1.4288  0.9299
  561MOL0     O77281   7.432   4.628   2.353 -0.2647  0.0923 -0.3564
  561MOL0     C77282   7.375   4.526   2.381  0.2518 -0.1109  0.4032
  561MOL0     O77283   7.434   4.413   2.442 -0.4682 -0.4239 -0.2733
  561MOL0     C77284   7.558   4.441   2.500 -0.2684  0.6958  0.1848
  561MOL0     C77285   7.578   4.425   2.637  0.4557 -0.6125 -0.4143
  561MOL0     C77286   7.704   4.425   2.693  1.1245  0.5983  1.0233
  561MOL0     C77287   7.817   4.459   2.618  0.7327  0.0950 -0.0584
  561MOL0     O77288   7.931   4.454   2.690 -0.4803 -0.2991 -0.1348
  561MOL0     C77289   8.043   4.522   2.638  0.0438 -0.3106 -0.0214
  561MOL0     C77290   8.105   4.605   2.751 -0.5472 -0.4518 -0.2497
  561MOL0     C77291   8.121   4.520   2.883  1.0402 -0.7964  0.6289
  561MOL0     C77292   8.237   4.572   2.973  0.3823 -0.3962  0.5266
  561MOL0     C77293   8.235   4.506   3.111  0.1295 -0.2612 -0.5131
  561MOL0     C77294   8.265   4.360   3.094  0.3980  0.0713 -1.0741
  561MOL0     C77295   8.305   4.307   3.233  0.8755  0.5031  0.3884
  561MOL0     C77296   8.347   4.164   3.214  0.5775 -0.9843  0.5571
  561MOL0     N77297   8.441   4.113   3.319 -0.5325 -0.2184  0.3045
  561MOL0     C77298   8.429   4.153   3.448  0.5577  0.1493  0.2945
  561MOL0     C77299   8.529   4.089   3.514  0.7920 -0.5636  0.1529
  561MOL0     C77300   8.569   4.113   3.656 -0.1124 -1.4639 -0.7676
  561MOL0     C77301   8.550   3.993   3.739  1.0662  0.3408 -0.0018
  561MOL0     C77302   8.651   3.998   3.855 -0.2444 -0.4561 -0.1322
  561MOL0     C77303   8.780   3.924   3.831 -0.3461 -0.8307 -0.1010
  561MOL0     O77304   8.876   3.952   3.932  1.2153  0.5116 -0.2762
  561MOL0     C77305   9.008   3.904   3.910  0.2851 -0.4120  0.5338
  561MOL0     C77306   9.113   3.981   3.968 -0.6224  1.3436 -0.0703
  561MOL0     C77307   9.251   3.945   3.959 -0.1780 -0.0667  0.2027
  561MOL0     C77308   9.349   4.040   4.033 -0.3358  0.8081 -0.2497
  561MOL0     C77309   9.285   3.835   3.882  0.2926 -0.0812 -0.4744
  561MOL0     C77310   9.426   3.793   3.854 -0.0698 -0.3235  0.3688
  561MOL0     O77311   9.454   3.672   3.910 -0.5036  0.1190  0.4177
  561MOL0     C77312   9.572   3.619   3.876 -0.5410 -0.1598 -0.4892
  561MOL0     C77313   9.636   3.625   3.749  0.2334 -0.2966 -0.3952
  561MOL0     C77314   9.770   3.583   3.722 -0.0729 -0.2968  0.3282
  561MOL0     C77315   9.834   3.512   3.827 -0.2063  0.0881  0.6325
  561MOL0     O77316   9.956   3.453   3.805  0.2379  0.4077 -0.3594
  561MOL0     C77317   9.974   3.343   3.896 -0.1086  1.0190  0.0974
  561MOL0     C77318  10.074   3.245   3.829 -0.4109  0.0066 -0.8728
  561MOL0     C77319  10.085   3.115   3.910  0.3127  0.3464 -1.1077
  561MOL0     C77320  10.117   3.004   3.809  0.0179 -0.2039  0.0839
  561MOL0     C77321  10.195   2.885   3.874 -0.3375  0.1876 -0.6335
  561MOL0     C77322  10.092   2.820   3.977  0.0838  0.8584 -0.2409
  561MOL0     C77323  10.081   2.669   3.983 -0.2875  0.6850 -0.9273
  561MOL0     C77324  10.011   2.606   3.868 -0.3786  0.1441  0.2843
  561MOL0    Cl77325  10.046   2.438   3.897  0.0141 -0.0786  0.0836
  561MOL0     C77326   9.782   3.523   3.958 -0.7653 -0.0092 -0.3132
  561MOL0     C77327   9.648   3.564   3.975 -0.2700  0.5447  0.9928
  561MOL0     O77328   9.504   3.872   3.809  0.3029 -0.0354 -0.2879
  561MOL0     C77329   9.185   3.758   3.828  0.5569  0.1901  0.1374
  561MOL0     C77330   9.050   3.787   3.845  0.7179 -0.6814 -0.6132
  561MOL0     N77331   8.590   4.011   3.420 -0.0194  0.0241 -0.5577
  561MOL0     N77332   8.545   4.028   3.304  0.6098  0.3167 -0.2737
  561MOL0     C77333   7.804   4.459   2.480 -0.0308  0.1780  0.0019
  561MOL0     C77334   7.669   4.446   2.422 -0.5650  0.2167 -0.2591
  561MOL0     C77335   7.227   4.503   2.347 -0.1391  0.0397 -0.6155
  561MOL0     C77336   7.187   4.397   2.266 -0.2494 -0.6611 -0.2930
  561MOL0     C77337   7.051   4.377   2.245  0.2698  0.3633  0.3266
  561MOL0     C77338   6.945   4.466   2.291 -0.1963 -1.2603  0.6625
  561MOL0     O77339   6.811   4.462   2.304 -0.2624 -0.2586 -0.5469
  561MOL0     C77340   6.745   4.357   2.249 -0.6967 -1.5009 -0.2115
  561MOL0     C77341   6.599   4.390   2.217  0.2730  0.0591 -0.4609
  561MOL0     C77342   6.501   4.430   2.334  0.1025  0.0104 -0.1693
  561MOL0     C77343   6.514   4.330   2.457  0.2497 -0.4560  0.2692
  561MOL0     C77344   6.397   4.337   2.545 -0.6193  0.0987 -0.4027
  561MOL0     C77345   6.308   4.343   2.626  0.4639  1.0296  0.5679
  561MOL0     C77346   6.994   4.566   2.364  0.4210 -1.4165  0.4795
  561MOL0     C77347   7.130   4.591   2.398  0.0764 -0.2981  0.8090
  561MOL0     C77348   7.154   4.702   2.491  0.2888  0.2341  0.2486
  561MOL0     H77349   7.496   4.384   2.695 -0.2390 -4.4618 -3.6430
  561MOL0     H77350   7.719   4.413   2.800  0.7529 -3.7437  0.7869
  561MOL0     H77351   8.020   4.597   2.562  2.7788  1.4557  0.7832
  561MOL0     H77352   8.105   4.451   2.583 -0.4135  0.9012 -2.2400
  561MOL0     H77353   8.198   4.646   2.710  1.0899 -0.7727  2.8851
  561MOL0     H77354   8.040   4.689   2.775  2.2469  1.3427  1.7525
  561MOL0     H77355   8.020   4.505   2.922  0.9553  0.1432  0.7852
  561MOL0     H77356   8.149   4.421   2.846  0.2741 -0.1434 -1.9479
  561MOL0     H77357   8.336   4.556   2.929  0.7721  0.7480  0.9643
  561MOL0     H77358   8.212   4.677   2.992 -1.8376 -0.6591 -0.5116
  561MOL0     H77359   8.136   4.503   3.158 -0.1514 -0.2505 -1.1010
  561MOL0     H77360   8.301   4.555   3.184 -0.2503 -1.9521  1.0504
  561MOL0     H77361   8.204   4.293   3.033 -0.6054  2.2892 -2.6303
  561MOL0     H77362   8.354   4.359   3.030  2.3754 -1.4589  1.5233
  561MOL0     H77363   8.220   4.313   3.303  0.1273 -0.5451 -0.4097
  561MOL0     H77364   8.386   4.366   3.276  0.5001  1.9434 -0.7849
  561MOL0     H77365   8.267   4.089   3.221  0.3975 -0.6508  3.9878
  561MOL0     H77366   8.394   4.155   3.116 -3.0360 -0.8960 -1.3590
  561MOL0     H77367   8.358   4.223   3.490  0.6029  0.5318 -0.2470
  561MOL0     H77368   8.524   4.196   3.712 -0.8056 -4.4374  3.6810
  561MOL0     H77369   8.673   4.145   3.647 -1.1054  4.8090  3.4534
  561MOL0     H77370   8.448   3.999   3.777  0.6994  3.3364 -1.1802
  561MOL0     H77371   8.554   3.898   3.684 -0.7819  2.3863 -4.1595
  561MOL0     H77372   8.676   4.104   3.863  3.6734 -1.1225 -1.3921
  561MOL0     H77373   8.602   3.965   3.947  3.2409 -4.4711  0.6151
  561MOL0     H77374   8.760   3.816   3.830  1.8136 -1.2962  0.3348
  561MOL0     H77375   8.813   3.949   3.730 -1.8685 -0.6780 -0.5739
  561MOL0     H77376   9.090   4.072   4.023  0.4099  1.1691  0.6706
  561MOL0     H77377   9.383   4.112   3.959  0.1941 -0.3456 -1.1545
  561MOL0     H77378   9.437   3.988   4.072 -0.1575 -0.0131 -1.6891
  561MOL0     H77379   9.306   4.081   4.125  1.4877  0.7778  0.6749
  561MOL0     H77380   9.583   3.678   3.671 -0.5534  0.3653  0.5540
  561MOL0     H77381   9.820   3.589   3.626  1.8954  1.6724  1.3834
  561MOL0     H77382  10.013   3.380   3.991  0.8948  1.7371 -0.5723
  561MOL0     H77383   9.887   3.291   3.936  0.9125 -0.3531  0.6316
  561MOL0     H77384  10.039   3.225   3.727 -0.9466  0.4161 -0.7728
  561MOL0     H77385  10.167   3.304   3.822 -3.1531  5.3777  1.6236
  561MOL0     H77386   9.991   3.101   3.964  0.1428  1.0069 -1.2148
  561MOL0     H77387  10.168   3.119   3.981  1.4354 -0.3123 -2.3573
  561MOL0     H77388  10.177   3.040   3.725 -1.9274  1.5541 -0.6353
  561MOL0     H77389  10.028   2.964   3.760  0.4595 -1.5949  0.3483
  561MOL0     H77390  10.240   2.813   3.806  3.5124  1.8290 -0.1064
  561MOL0     H77391  10.279   2.912   3.939 -0.3414  1.9953 -1.3111
  561MOL0     H77392   9.992   2.859   3.953 -0.0872 -0.4015 -1.7266
  561MOL0     H77393  10.114   2.850   4.080 -0.5548  1.5952 -0.3101
  561MOL0     H77394  10.032   2.633   4.075  0.4848  0.5064 -0.5804
  561MOL0     H77395  10.180   2.624   3.983 -1.1275 -1.3605  0.5373
  561MOL0     H77396  10.059   2.649   3.780 -0.3958 -1.0533 -0.3371
  561MOL0     H77397   9.902   2.610   3.861 -0.3560 -1.3022 -2.0841
  561MOL0     H77398   9.841   3.509   4.048 -0.1205  1.1661 -0.5323
  561MOL0     H77399   9.605   3.570   4.074  3.6780 -1.8105  3.1016
  561MOL0     H77400   9.221   3.681   3.761  1.6477  0.3361  0.5350
  561MOL0     H77401   8.973   3.729   3.794 -0.7461  1.8916 -1.5299
  561MOL0     H77402   7.882   4.468   2.405 -1.6810 -0.3656 -1.8829
  561MOL0     H77403   7.659   4.447   2.314  0.7832 -0.5329 -0.4204
  561MOL0     H77404   7.248   4.316   2.228  0.1996 -0.5158  0.1089
  561MOL0     H77405   7.021   4.288   2.190  1.9148 -1.0753  1.6220
  561MOL0     H77406   6.792   4.332   2.153  1.7071  0.2733  0.4354
  561MOL0     H77407   6.741   4.274   2.321 -0.1300  0.3783  2.0985
  561MOL0     H77408   6.555   4.297   2.178 -1.8048  0.9153 -0.3121
  561MOL0     H77409   6.600   4.467   2.139 -2.4249  0.1924 -0.4769
  561MOL0     H77410   6.523   4.531   2.371 -2.4870  1.2074 -1.5674
  561MOL0     H77411   6.400   4.429   2.291  0.5166 -3.0764 -1.3444
  561MOL0     H77412   6.602   4.362   2.514  0.3896  0.9484 -0.6754
  561MOL0     H77413   6.513   4.230   2.412 -0.9418 -1.4804  2.4103
  561MOL0     H77414   6.234   4.351   2.702 -1.8500  0.5511 -1.5103
  561MOL0     H77415   6.922   4.627   2.418  2.5145  1.6851  0.0313
  561MOL0     H77416   7.193   4.660   2.584 -0.8276 -0.0285  0.6157
  561MOL0     H77417   7.223   4.783   2.468 -0.5431  1.3362  1.4367
  561MOL0     H77418   7.056   4.743   2.520 -0.8405 -1.7002 -0.6398
  562MOL0     O77419   9.139  10.122   6.517  0.1099  0.4875 -0.5189
  562MOL0     C77420   9.145  10.101   6.637  0.5373  1.2018  0.0227
  562MOL0     O77421   9.052  10.129   6.729  0.3000  0.4135  0.8204
  562MOL0     C77422   8.932  10.169   6.691 -0.0973  0.5741  0.1994
  562MOL0     C77423   8.825  10.111   6.764  0.3722  0.3311 -0.3683
  562MOL0     C77424   8.691  10.147   6.743  0.0478 -0.1556 -0.2211
  562MOL0     C77425   8.656  10.241   6.648 -0.3221 -0.0037 -0.6337
  562MOL0     O77426   8.523  10.268   6.623 -0.4157  0.4659  0.2663
  562MOL0     C77427   8.486  10.390   6.553  0.6277 -0.1356 -0.4952
  562MOL0     C77428   8.337  10.405   6.586 -0.5374 -0.1156  0.4979
  562MOL0     C77429   8.255  10.298   6.513  0.0377 -0.1333  0.0162
  562MOL0     C77430   8.107  10.324   6.498  0.3464 -0.2804  0.2442
  562MOL0     C77431   8.014  10.205   6.446  0.3810  0.6007 -0.5617
  562MOL0     C77432   7.880  10.249   6.382  0.4970  0.2341 -0.7858
  562MOL0     C77433   7.834  10.143   6.275 -0.5700  1.6399  0.0738
  562MOL0     C77434   7.721  10.187   6.191 -0.5971  0.1436  0.3834
  562MOL0     N77435   7.586  10.195   6.242 -0.4365 -0.2752 -0.3704
  562MOL0     C77436   7.525  10.119   6.340  0.6129  1.4027 -0.2783
  562MOL0     C77437   7.403  10.171   6.361 -0.0252  0.7790 -0.5478
  562MOL0     C77438   7.296  10.137   6.467  0.2095  0.3814  0.8867
  562MOL0     C77439   7.162  10.117   6.391  0.1785 -0.4734 -0.2102
  562MOL0     C77440   7.166   9.991   6.303  0.3766 -0.0597  0.3472
  562MOL0     C77441   7.013   9.964   6.252 -0.0554  0.8048 -0.5426
  562MOL0     O77442   6.979  10.056   6.146  0.2171 -0.1794 -0.8123
  562MOL0     C77443   6.841  10.072   6.127  0.4754 -0.4298 -0.3757
  562MOL0     C77444   6.812  10.196   6.067 -0.4361 -0.1984  1.0722
  562MOL0     C77445   6.677  10.228   6.029 -0.1844 -0.0455 -0.3164
  562MOL0     C77446   6.674  10.360   5.966 -0.4492  0.0127 -0.6187
  562MOL0     C77447   6.569  10.137   6.070  0.4134  0.4902 -0.0543
  562MOL0     C77448   6.426  10.171   6.061 -0.6251 -0.1436  0.2496
  562MOL0     O77449   6.338  10.062   6.072 -0.7213 -0.5246  0.4614
  562MOL0     C77450   6.215  10.092   6.115 -0.3566  0.0182 -0.2071
  562MOL0     C77451   6.171  10.201   6.193 -0.1290  0.4150 -0.4099
  562MOL0     C77452   6.031  10.224   6.213  0.5745  0.5850  0.4768
  562MOL0     C77453   5.937  10.130   6.164  0.4183 -0.1046  0.1195
  562MOL0     O77454   5.803  10.142   6.189  0.1295 -0.3342 -0.1648
  562MOL0     C77455   5.757  10.252   6.261  0.9600 -1.0340 -0.2813
  562MOL0     C77456   5.595  10.273   6.254  0.5520  0.8024  0.4871
  562MOL0     C77457   5.550  10.388   6.332 -0.7542 -1.2787  0.3784
  562MOL0     C77458   5.400  10.420   6.317 -0.6296  0.4852  0.3671
  562MOL0     C77459   5.367  10.562   6.383  0.0548  0.9899  0.1380
  562MOL0     C77460   5.227  10.610   6.393  0.1589  0.5761 -0.9480
  562MOL0     C77461   5.140  10.494   6.463 -0.5085 -0.1039  1.0092
  562MOL0     C77462   5.163  10.494   6.607  0.8603 -0.6563 -0.1736
  562MOL0    Cl77463   5.081  10.368   6.692  0.2892  0.4236  0.2099
  562MOL0     C77464   5.983  10.028   6.081 -0.2236 -0.4999 -0.0864
  562MOL0     C77465   6.115  10.015   6.053 -0.1569 -0.1369 -0.3637
  562MOL0     O77466   6.390  10.290   6.027  0.3133  0.0030  0.1093
  562MOL0     C77467   6.604  10.023   6.134  1.4441 -0.5644 -0.7386
  562MOL0     C77468   6.735   9.987   6.157 -0.1810  0.3370  0.1185
  562MOL0     N77469   7.395  10.272   6.270 -0.8670  0.0222 -0.0948
  562MOL0     N77470   7.503  10.290   6.205  0.2648 -0.0932  0.7603
  562MOL0     C77471   8.757  10.296   6.572 -0.0228  0.2279  0.6788
  562MOL0     C77472   8.897  10.258   6.593 -0.2286  1.2665 -0.4729
  562MOL0     C77473   9.266  10.024   6.679  0.4788  0.8119  0.1321
  562MOL0     C77474   9.330   9.931   6.598 -0.0401 -0.0820  0.9742
  562MOL0     C77475   9.443   9.863   6.651  0.2129 -0.0780 -0.3654
  562MOL0     C77476   9.497   9.891   6.774 -0.1452 -0.2578  0.4385
  562MOL0     O77477   9.608   9.828   6.832 -0.0188  0.6538 -0.3126
  562MOL0     C77478   9.653   9.704   6.768 -0.2207  0.3467  0.4244
  562MOL0     C77479   9.771   9.658   6.851  0.0769  0.5373  0.3266
  562MOL0     C77480   9.844   9.527   6.795 -0.1456 -0.2976  0.3550
  562MOL0     C77481   9.982   9.557   6.744  0.1109  0.4176 -0.0221
  562MOL0     C77482   9.983   9.565   6.597  0.0965 -0.0949 -0.4323
  562MOL0     C77483  10.003   9.572   6.474  0.1508 -0.3889 -1.1718
  562MOL0     C77484   9.443   9.990   6.850 -0.1733 -0.5057 -0.0562
  562MOL0     C77485   9.324  10.053   6.806 -0.6033  0.1611 -0.9892
  562MOL0     C77486   9.268  10.162   6.901 -0.2508 -0.1405 -0.0912
  562MOL0     H77487   8.857  10.044   6.843  1.4834  0.5760 -0.5952
  562MOL0     H77488   8.609  10.101   6.797  0.4268  0.9132  1.3333
  562MOL0     H77489   8.507  10.379   6.446  0.6505  0.1660 -0.5215
  562MOL0     H77490   8.541  10.477   6.589  0.0127 -0.2349  0.7328
  562MOL0     H77491   8.321  10.404   6.694 -1.6512  0.6204  0.3607
  562MOL0     H77492   8.315  10.504   6.545  1.5283  1.0527  2.0464
  562MOL0     H77493   8.298  10.281   6.414 -1.7322  0.4151 -0.8966
  562MOL0     H77494   8.266  10.203   6.567  1.6808  0.4094  0.6976
  562MOL0     H77495   8.069  10.357   6.595 -0.5736 -3.5528  1.1212
  562MOL0     H77496   8.088  10.407   6.429  0.6990 -1.0519 -0.8263
  562MOL0     H77497   7.989  10.154   6.540 -0.6383  0.8944 -0.6704
  562MOL0     H77498   8.079  10.148   6.379  0.2045  1.0916 -1.1523
  562MOL0     H77499   7.799  10.264   6.454 -0.3651  0.5074 -1.7967
  562MOL0     H77500   7.892  10.342   6.327  0.7890 -1.7516 -4.4247
  562MOL0     H77501   7.822  10.048   6.328  0.5463  0.4752 -1.6469
  562MOL0     H77502   7.924  10.128   6.214 -0.7413  1.7888 -0.2186
  562MOL0     H77503   7.744  10.282   6.143 -1.2906 -0.8170 -1.9772
  562MOL0     H77504   7.707  10.118   6.107 -1.2639  0.3793  0.2965
  562MOL0     H77505   7.561  10.031   6.392 -4.6144 -1.4467 -0.8411
  562MOL0     H77506   7.295  10.220   6.538 -2.9169 -2.1840  4.1978
  562MOL0     H77507   7.320  10.039   6.509  0.3911 -0.4711 -1.0835
  562MOL0     H77508   7.076  10.124   6.457 -0.9311  0.3171 -1.6735
  562MOL0     H77509   7.144  10.203   6.325  1.3121 -0.1603 -0.1314
  562MOL0     H77510   7.226  10.005   6.213  2.6618 -0.4458  1.7464
  562MOL0     H77511   7.197   9.898   6.351  0.2361 -2.0994 -3.2052
  562MOL0     H77512   6.992   9.858   6.233 -0.4648  0.6344  0.7040
  562MOL0     H77513   6.936   9.987   6.327 -1.4544 -1.0298 -1.3172
  562MOL0     H77514   6.889  10.266   6.037  1.2952 -1.9770  1.1688
  562MOL0     H77515   6.651  10.439   6.037  0.9591  0.0870 -0.2117
  562MOL0     H77516   6.597  10.369   5.889 -1.5067 -1.7355  0.1753
  562MOL0     H77517   6.772  10.385   5.924 -0.1418  0.8033  0.5273
  562MOL0     H77518   6.235  10.278   6.234  3.1741 -1.7699 -1.1018
  562MOL0     H77519   6.011  10.311   6.273  0.7987  0.3213  0.9424
  562MOL0     H77520   5.779  10.231   6.366 -1.9796 -0.3792  0.5420
  562MOL0     H77521   5.799  10.347   6.225 -0.1445 -1.0563 -1.7394
  562MOL0     H77522   5.569  10.273   6.148  0.0679 -3.0254  0.4590
  562MOL0     H77523   5.550  10.180   6.290  3.7619 -1.0989 -0.0196
  562MOL0     H77524   5.594  10.479   6.289 -0.9483 -1.7763 -0.9066
  562MOL0     H77525   5.580  10.376   6.437 -0.5414 -2.4958  0.1911
  562MOL0     H77526   5.348  10.333   6.357  2.0409 -0.4442  2.0382
  562MOL0     H77527   5.377  10.435   6.211 -1.8780  1.8672  0.8028
  562MOL0     H77528   5.410  10.565   6.484  1.0389 -2.5624 -0.0488
  562MOL0     H77529   5.423  10.630   6.318  0.1620 -1.5428 -2.6266
  562MOL0     H77530   5.187  10.638   6.295 -1.0441  0.4536 -0.5156
  562MOL0     H77531   5.222  10.702   6.452 -2.3865  1.3313 -2.1899
  562MOL0     H77532   5.145  10.389   6.432 -2.7933 -0.7038  2.4457
  562MOL0     H77533   5.037  10.526   6.446 -0.1399  0.6004 -0.0220
  562MOL0     H77534   5.128  10.588   6.649 -0.1151 -2.3257  3.0740
  562MOL0     H77535   5.268  10.478   6.635  0.6764  0.4830  1.2523
  562MOL0     H77536   5.913   9.966   6.025  0.2933 -1.5178  0.3652
  562MOL0     H77537   6.146   9.950   5.972 -0.1360 -0.4150 -0.1365
  562MOL0     H77538   6.532   9.956   6.181 -0.2351 -0.2046 -2.6158
  562MOL0     H77539   6.771   9.895   6.203  0.9300  0.3761 -0.6280
  562MOL0     H77540   8.726  10.374   6.503 -0.4486 -1.0203 -0.6013
  562MOL0     H77541   8.977  10.294   6.528 -0.4063  1.4084 -0.6133
  562MOL0     H77542   9.295   9.912   6.497 -0.4560  0.1305  1.0775
  562MOL0     H77543   9.494   9.797   6.581 -0.9383 -0.5340 -0.8000
  562MOL0     H77544   9.574   9.629   6.765  0.8914 -0.8558 -2.4022
  562MOL0     H77545   9.691   9.735   6.669  1.1786  2.0108  1.4095
  562MOL0     H77546   9.729   9.646   6.952  2.1485  2.0960  1.4723
  562MOL0     H77547   9.843   9.739   6.864  2.3219 -1.2497 -0.3810
  562MOL0     H77548   9.851   9.453   6.876  0.8049  0.9042  1.4186
  562MOL0     H77549   9.778   9.483   6.720  1.8342 -0.9023 -1.0931
  562MOL0     H77550  10.044   9.468   6.762  0.0515 -0.4297 -3.2941
  562MOL0     H77551  10.025   9.649   6.785  0.1717  0.2384  0.3230
  562MOL0     H77552  10.023   9.564   6.369 -0.8088 -0.2018 -1.3832
  562MOL0     H77553   9.490  10.034   6.937 -3.3282  3.2061  0.0671
  562MOL0     H77554   9.251  10.257   6.849  0.9700  1.9265  2.9808
  562MOL0     H77555   9.177  10.124   6.948  0.0427 -0.5734  0.1339
  562MOL0     H77556   9.337  10.190   6.982 -0.4007  2.7890 -0.8677
  563MOL0     O77557  10.948   8.626   0.386 -0.0176  0.1379  0.3620
  563MOL0     C77558  10.904   8.537   0.461  0.0048  0.0205 -0.9630
  563MOL0     O77559  10.790   8.541   0.534 -0.7537 -0.3649 -0.5657
  563MOL0     C77560  10.710   8.649   0.510 -0.0974  0.4052 -0.1878
  563MOL0     C77561  10.692   8.735   0.613 -0.2159  0.1519  0.0184
  563MOL0     C77562  10.597   8.842   0.588 -0.1017  0.1940 -0.0900
  563MOL0     C77563  10.533   8.862   0.464  0.1717 -0.1808  0.3381
  563MOL0     O77564  10.443   8.961   0.451 -0.8332  0.2017 -0.3158
  563MOL0     C77565  10.347   8.960   0.345  0.0251  0.0930 -0.1869
  563MOL0     C77566  10.286   9.093   0.323  0.2762  0.5672 -0.4462
  563MOL0     C77567  10.202   9.115   0.195 -0.0911 -0.2000  0.2793
  563MOL0     C77568  10.066   9.183   0.220  0.5837 -0.1991 -0.3819
  563MOL0     C77569   9.973   9.109   0.320  0.5615 -1.2121 -0.5780
  563MOL0     C77570   9.831   9.172   0.306  0.4091 -0.2590 -0.1093
  563MOL0     C77571   9.714   9.104   0.388 -0.4700 -0.7904 -0.9274
  563MOL0     C77572   9.584   9.158   0.348  0.2934  0.6534  0.7159
  563MOL0     N77573   9.485   9.102   0.438 -0.3886 -0.8448  0.4920
  563MOL0     C77574   9.459   8.976   0.472  0.1191  0.2256  0.9499
  563MOL0     C77575   9.390   8.985   0.584  0.5914  0.4349  0.6040
  563MOL0     C77576   9.339   8.887   0.683  0.1561  0.4268  0.1605
  563MOL0     C77577   9.191   8.884   0.665 -0.4484  0.1342 -0.5962
  563MOL0     C77578   9.129   8.787   0.762  0.0759  0.2621 -0.1532
  563MOL0     C77579   8.974   8.814   0.765  0.6983  0.1157  0.2041
  563MOL0     O77580   8.902   8.748   0.664  0.5304  0.2750  0.4268
  563MOL0     C77581   8.896   8.611   0.682 -0.5330 -0.4071 -0.6050
  563MOL0     C77582   8.934   8.541   0.795 -0.6088  0.4239 -0.6797
  563MOL0     C77583   8.947   8.399   0.792  0.4410  1.1154  0.3248
  563MOL0     C77584   9.001   8.321   0.909  0.1259 -0.2908 -0.4279
  563MOL0     C77585   8.890   8.330   0.685  0.3904 -0.3331 -0.1152
  563MOL0     C77586   8.860   8.185   0.678 -0.4841  0.6248  0.2240
  563MOL0     O77587   8.854   8.124   0.557  0.9655  0.4146  0.1376
  563MOL0     C77588   8.821   7.992   0.549  0.2751 -0.4477 -0.3776
  563MOL0     C77589   8.687   7.965   0.583 -0.2661  0.2346 -0.0764
  563MOL0     C77590   8.634   7.833   0.566  0.4107 -0.9484  0.0680
  563MOL0     C77591   8.722   7.732   0.528  0.2916  0.4202 -0.2259
  563MOL0     O77592   8.694   7.600   0.529 -0.2460  0.5452 -0.3695
  563MOL0     C77593   8.561   7.569   0.479  0.2489 -0.7195  0.2779
  563MOL0     C77594   8.433   7.560   0.568 -0.4975 -0.6574  0.6091
  563MOL0     C77595   8.475   7.519   0.707  0.6679  0.0237 -0.2685
  563MOL0     C77596   8.493   7.368   0.713 -0.0119  0.3894  1.1839
  563MOL0     C77597   8.564   7.335   0.843 -0.0679 -0.1265  0.4584
  563MOL0     C77598   8.590   7.182   0.855  0.0111 -0.8940  0.0108
  563MOL0     C77599   8.653   7.166   1.003  0.1253 -0.5788  0.5698
  563MOL0     C77600   8.696   7.025   1.017  0.4191  0.0617 -0.5095
  563MOL0    Cl77601   8.838   7.000   0.916 -0.2372  0.0661  0.3407
  563MOL0     C77602   8.857   7.761   0.500 -0.2606  0.1272  0.2612
  563MOL0     C77603   8.905   7.889   0.509  0.1033  0.7254  0.2611
  563MOL0     O77604   8.843   8.129   0.791  0.3903 -0.5419 -0.1274
  563MOL0     C77605   8.846   8.402   0.575  0.0975 -0.0796  0.3553
  563MOL0     C77606   8.845   8.541   0.571 -0.0113  0.1234 -0.3691
  563MOL0     N77607   9.371   9.115   0.625  0.2455  0.0043 -0.2949
  563MOL0     N77608   9.434   9.186   0.535  0.1382  0.0821  0.8513
  563MOL0     C77609  10.558   8.771   0.363  0.6718 -0.5713  0.5351
  563MOL0     C77610  10.638   8.665   0.387 -0.2484  0.6202 -0.6794
  563MOL0     C77611  10.986   8.408   0.452 -0.8307 -0.7347  0.6919
  563MOL0     C77612  11.064   8.379   0.568  0.6507  0.8167  1.0326
  563MOL0     C77613  11.137   8.261   0.571 -0.4685 -0.9578  0.0960
  563MOL0     C77614  11.150   8.175   0.467 -0.0997  1.0652  1.1497
  563MOL0     O77615  11.245   8.070   0.471  0.5323  0.1082 -0.3167
  563MOL0     C77616  11.207   7.947   0.415  0.5741  0.6473  0.6531
  563MOL0     C77617  11.275   7.845   0.494  0.9548  0.7992 -0.0176
  563MOL0     C77618  11.435   7.842   0.466  0.0909  0.1112 -0.7303
  563MOL0     C77619  11.505   7.761   0.561 -0.6952  0.0206 -0.8600
  563MOL0     C77620  11.449   7.750   0.702 -0.3855 -0.6032  0.6117
  563MOL0     C77621  11.400   7.759   0.814 -0.6811  0.3808  0.3633
  563MOL0     C77622  11.073   8.203   0.354 -0.2398 -0.5509 -0.0079
  563MOL0     C77623  10.985   8.316   0.351 -0.2750 -0.2331  0.5796
  563MOL0     C77624  10.921   8.346   0.228  0.2603  0.7827  1.4869
  563MOL0     H77625  10.719   8.728   0.718 -1.5098 -0.0522  0.3655
  563MOL0     H77626  10.576   8.910   0.669  1.3906  3.3841 -2.1991
  563MOL0     H77627  10.258   8.904   0.374 -0.1825  0.7269  0.4312
  563MOL0     H77628  10.381   8.921   0.249  0.2280 -1.9749  0.6783
  563MOL0     H77629  10.221   9.119   0.408  0.4059 -1.9888  0.5086
  563MOL0     H77630  10.349   9.183   0.332 -0.6288  1.0904  1.1941
  563MOL0     H77631  10.258   9.179   0.127  3.1339  0.7650  3.5846
  563MOL0     H77632  10.194   9.020   0.141  0.9949 -1.8583  2.8637
  563MOL0     H77633  10.077   9.285   0.259  1.6039  0.9431 -3.4064
  563MOL0     H77634  10.007   9.205   0.131 -1.8183  0.4615  1.2621
  563MOL0     H77635  10.012   9.108   0.423  1.2995  0.6394 -0.8025
  563MOL0     H77636   9.981   9.006   0.282  0.9413 -1.5829  0.4506
  563MOL0     H77637   9.844   9.277   0.334  2.2518 -0.2581 -0.8007
  563MOL0     H77638   9.804   9.170   0.200 -1.8880  0.7590  0.3915
  563MOL0     H77639   9.737   9.139   0.489  3.7949 -0.7440 -1.7356
  563MOL0     H77640   9.719   8.995   0.376  4.0682 -0.7507 -0.9940
  563MOL0     H77641   9.584   9.266   0.362 -1.4666  0.3340  4.3040
  563MOL0     H77642   9.558   9.134   0.244 -1.0136 -0.8253  1.3508
  563MOL0     H77643   9.488   8.886   0.420  0.1730  0.3906  0.6929
  563MOL0     H77644   9.368   8.913   0.785  1.1154  1.5731 -0.3851
  563MOL0     H77645   9.386   8.790   0.664  2.1362  1.4501 -0.3916
  563MOL0     H77646   9.146   8.978   0.698 -2.7679 -1.9336  2.8908
  563MOL0     H77647   9.157   8.847   0.568 -0.8419 -0.5674 -0.2063
  563MOL0     H77648   9.161   8.690   0.723 -2.5829  0.4771 -3.2772
  563MOL0     H77649   9.181   8.795   0.858  0.6913 -2.2296 -0.2119
  563MOL0     H77650   8.933   8.788   0.862  0.1139 -0.9683 -0.3167
  563MOL0     H77651   8.962   8.922   0.751  0.6333  0.3762  2.1045
  563MOL0     H77652   8.955   8.589   0.889 -1.5395  0.5952 -0.5497
  563MOL0     H77653   8.911   8.294   0.965  0.5339 -2.4743 -0.7313
  563MOL0     H77654   9.064   8.388   0.969  2.1991 -0.4253 -2.3398
  563MOL0     H77655   9.047   8.224   0.888 -0.5985 -0.5842 -0.6985
  563MOL0     H77656   8.626   8.048   0.617  0.4373  1.9199 -2.5933
  563MOL0     H77657   8.527   7.822   0.581  0.0220 -2.3968 -2.9897
  563MOL0     H77658   8.531   7.641   0.403 -4.0426  1.5151  3.6496
  563MOL0     H77659   8.569   7.466   0.442  1.4009 -1.0644  1.4121
  563MOL0     H77660   8.378   7.654   0.557  1.6508  0.6162  0.1297
  563MOL0     H77661   8.363   7.485   0.528 -0.2235 -0.7869  0.3691
  563MOL0     H77662   8.408   7.556   0.785  2.2128  0.2247  0.9901
  563MOL0     H77663   8.570   7.570   0.721  0.5898  0.6748 -1.8391
  563MOL0     H77664   8.548   7.330   0.627  0.1554 -0.9988  1.8626
  563MOL0     H77665   8.392   7.324   0.712 -0.5170  1.5374  0.6414
  563MOL0     H77666   8.652   7.398   0.858  0.0250 -0.4753  1.5064
  563MOL0     H77667   8.496   7.365   0.924 -1.1531 -1.3763  0.0479
  563MOL0     H77668   8.657   7.150   0.775 -0.6950 -0.5891 -0.7141
  563MOL0     H77669   8.503   7.120   0.834 -0.1066 -1.4760  1.9728
  563MOL0     H77670   8.565   7.188   1.064 -0.8541  2.1733 -1.6123
  563MOL0     H77671   8.736   7.235   1.019 -0.5605  1.0576 -2.2317
  563MOL0     H77672   8.615   6.954   0.995 -2.0978  2.2944  0.9231
  563MOL0     H77673   8.734   7.002   1.117  2.4541  0.8766 -1.0441
  563MOL0     H77674   8.927   7.681   0.481 -3.4049 -3.1347  1.3411
  563MOL0     H77675   9.010   7.910   0.492  0.1360 -0.3037 -1.0455
  563MOL0     H77676   8.791   8.353   0.495 -1.5620  0.5806  1.0317
  563MOL0     H77677   8.826   8.606   0.487  1.4057  0.1945 -0.6567
  563MOL0     H77678  10.524   8.774   0.260  1.9992 -1.5267  0.0437
  563MOL0     H77679  10.656   8.603   0.299 -1.7770 -2.0775  0.7973
  563MOL0     H77680  11.072   8.448   0.651 -0.5838  0.2374  1.6625
  563MOL0     H77681  11.208   8.238   0.650  1.3909 -0.2943 -1.2969
  563MOL0     H77682  11.098   7.943   0.421  0.2817 -0.0584 -2.8922
  563MOL0     H77683  11.238   7.956   0.311 -0.1434  1.8105  0.5166
  563MOL0     H77684  11.233   7.745   0.477 -0.6428  0.7852  3.1671
  563MOL0     H77685  11.251   7.856   0.600  0.8252 -0.4573  0.0979
  563MOL0     H77686  11.462   7.807   0.366  2.0022 -2.2069  0.4821
  563MOL0     H77687  11.461   7.948   0.474  2.8297 -0.4936 -0.6369
  563MOL0     H77688  11.610   7.792   0.564 -1.2529  2.0458  1.5703
  563MOL0     H77689  11.515   7.659   0.524  2.3135  1.0606 -3.2697
  563MOL0     H77690  11.370   7.770   0.916 -2.0556 -1.1318  0.1583
  563MOL0     H77691  11.096   8.152   0.261 -0.8194  2.0118 -1.6540
  563MOL0     H77692  10.828   8.403   0.241 -0.8556 -0.7200  0.4700
  563MOL0     H77693  10.978   8.394   0.148 -0.7027 -3.5212 -2.1928
  563MOL0     H77694  10.894   8.250   0.183  3.5031 -0.0398  1.0378
  564MOL0     O77695   0.378   0.671   4.006 -0.8374  0.2739 -0.8231
  564MOL0     C77696   0.459   0.581   3.994  0.5251  0.9646  0.7234
  564MOL0     O77697   0.442   0.470   3.912  0.0192 -0.1203 -0.4320
  564MOL0     C77698   0.358   0.495   3.808 -0.0909  0.6362 -0.5106
  564MOL0     C77699   0.223   0.465   3.823 -0.2587 -0.5736  0.3481
  564MOL0     C77700   0.134   0.479   3.719  0.7289  0.7265  0.1816
  564MOL0     C77701   0.167   0.513   3.595 -0.3263 -0.1475 -0.2463
  564MOL0     O77702   0.076   0.505   3.503 -0.2643 -0.1495  0.8370
  564MOL0     C77703   0.111   0.520   3.360  0.1843 -0.2515  0.2299
  564MOL0     C77704  -0.006   0.467   3.274 -0.3413  0.0836 -0.7166
  564MOL0     C77705  -0.036   0.318   3.305  0.7144 -0.1822 -0.8987
  564MOL0     C77706  -0.138   0.242   3.225  0.0555 -0.3491  0.3135
  564MOL0     C77707  -0.088   0.140   3.131 -0.3748  0.0207  0.6106
  564MOL0     C77708  -0.056   0.005   3.194  0.1358 -0.0046  0.1257
  564MOL0     C77709  -0.026  -0.113   3.094  1.0017 -0.2362 -0.0665
  564MOL0     C77710   0.016  -0.243   3.161 -0.5020  0.2245  0.3912
  564MOL0     N77711   0.057  -0.337   3.051 -0.9103  0.5101 -0.3543
  564MOL0     C77712  -0.026  -0.416   2.979  0.2603 -0.6203  0.2753
  564MOL0     C77713   0.043  -0.462   2.877 -0.0909 -0.3647  0.9699
  564MOL0     C77714  -0.011  -0.554   2.776  0.2200 -0.1715 -0.0503
  564MOL0     C77715  -0.011  -0.496   2.636 -0.6500  0.1682  0.0077
  564MOL0     C77716   0.129  -0.457   2.570  0.1458  0.5707 -0.5559
  564MOL0     C77717   0.212  -0.587   2.539 -0.6730 -0.1768 -0.6076
  564MOL0     O77718   0.145  -0.696   2.484  0.5942  0.2050 -0.2810
  564MOL0     C77719   0.221  -0.803   2.438  0.8101 -0.2479 -0.4842
  564MOL0     C77720   0.152  -0.894   2.366 -0.0574 -0.4644 -0.3369
  564MOL0     C77721   0.224  -1.005   2.311  0.1040  0.6403 -0.4071
  564MOL0     C77722   0.138  -1.112   2.237 -0.3583 -0.1317  0.4696
  564MOL0     C77723   0.364  -1.021   2.348  0.9536  0.6942 -0.7333
  564MOL0     C77724   0.442  -1.144   2.318  0.1595  0.3687  0.3521
  564MOL0     O77725   0.566  -1.171   2.381  0.3271 -0.8259 -0.7530
  564MOL0     C77726   0.615  -1.298   2.348  0.3702 -0.3829 -0.4387
  564MOL0     C77727   0.695  -1.323   2.241 -0.5069 -0.1473 -0.1436
  564MOL0     C77728   0.767  -1.440   2.219 -0.3790 -0.1266  0.1898
  564MOL0     C77729   0.761  -1.545   2.304 -0.2826 -0.9191 -0.1299
  564MOL0     O77730   0.842  -1.663   2.290 -0.0209 -0.9994 -0.4837
  564MOL0     C77731   0.898  -1.687   2.164  0.4866 -0.3027  0.4642
  564MOL0     C77732   0.930  -1.829   2.142  0.1704  0.0233  0.0991
  564MOL0     C77733   0.804  -1.915   2.134  0.1095 -0.7869 -1.1931
  564MOL0     C77734   0.694  -1.881   2.024  0.0645 -0.2804 -0.5093
  564MOL0     C77735   0.597  -2.003   2.000  0.5654 -0.0098 -1.2731
  564MOL0     C77736   0.652  -2.105   1.903  0.1036  0.3110 -0.6435
  564MOL0     C77737   0.581  -2.245   1.897 -0.0314 -0.3559 -0.8502
  564MOL0     C77738   0.458  -2.251   1.804 -0.7883  0.5841  0.0391
  564MOL0    Cl77739   0.330  -2.151   1.870 -0.0663 -0.0009 -0.1050
  564MOL0     C77740   0.685  -1.523   2.420 -0.9661  0.3718 -0.0747
  564MOL0     C77741   0.607  -1.408   2.438 -0.9486 -0.0974  0.2927
  564MOL0     O77742   0.403  -1.221   2.237  0.0842  0.2552  0.2016
  564MOL0     C77743   0.425  -0.923   2.424  0.0392 -0.0544 -0.6402
  564MOL0     C77744   0.358  -0.811   2.464 -0.4004  0.1317  0.4027
  564MOL0     N77745   0.177  -0.413   2.887  0.2769 -0.9023  0.8351
  564MOL0     N77746   0.177  -0.347   2.991  0.1484  0.0624 -1.3832
  564MOL0     C77747   0.307   0.538   3.580  0.6681 -0.4312  0.3663
  564MOL0     C77748   0.401   0.538   3.684  0.9046  0.5740  0.4428
  564MOL0     C77749   0.585   0.594   4.068  0.0698  0.5803  0.7674
  564MOL0     C77750   0.696   0.510   4.027 -1.1347  0.4855 -0.0456
  564MOL0     C77751   0.819   0.526   4.080 -0.2841 -0.0618 -0.3289
  564MOL0     C77752   0.841   0.623   4.181 -0.1417 -0.3252  0.6351
  564MOL0     O77753   0.970   0.611   4.229  0.0801  0.4159 -0.0469
  564MOL0     C77754   1.044   0.732   4.241 -0.0638 -0.6547  0.3171
  564MOL0     C77755   1.117   0.757   4.106  0.9135  1.5565  0.0056
  564MOL0     C77756   1.225   0.650   4.078  0.2270 -0.1747 -0.3137
  564MOL0     C77757   1.336   0.686   3.978  0.3470  0.5495  0.4389
  564MOL0     C77758   1.271   0.699   3.850 -0.5395 -0.3831  0.3227
  564MOL0     C77759   1.228   0.719   3.736  1.9532 -0.6132  0.3289
  564MOL0     C77760   0.737   0.694   4.229 -0.5886 -0.0136  0.5347
  564MOL0     C77761   0.608   0.684   4.179  0.1599  0.2903  0.3413
  564MOL0     C77762   0.506   0.774   4.240  0.6810  0.4081 -0.2862
  564MOL0     H77763   0.183   0.434   3.919 -2.6483 -0.5723 -0.5777
  564MOL0     H77764   0.029   0.464   3.744  1.1515  0.4008  1.8901
  564MOL0     H77765   0.195   0.460   3.324 -0.9244 -2.0009  0.4241
  564MOL0     H77766   0.121   0.623   3.324  0.0915  0.0955  1.1587
  564MOL0     H77767  -0.098   0.526   3.276  0.3625  1.3286 -2.5956
  564MOL0     H77768   0.027   0.476   3.170 -2.7265  1.9949 -1.3881
  564MOL0     H77769   0.059   0.265   3.299  0.8564 -0.0412 -0.0162
  564MOL0     H77770  -0.065   0.321   3.411 -2.6243 -0.1741 -1.6944
  564MOL0     H77771  -0.202   0.202   3.305  2.0617 -0.8415  1.7557
  564MOL0     H77772  -0.190   0.316   3.164 -1.0059 -1.2899  0.0306
  564MOL0     H77773  -0.005   0.169   3.066 -1.2128  1.8110  0.3097
  564MOL0     H77774  -0.163   0.134   3.052 -1.2990  3.7074  1.0440
  564MOL0     H77775   0.032   0.024   3.255  0.2173 -3.9915  1.5773
  564MOL0     H77776  -0.138  -0.022   3.262  0.5260 -0.6809  0.3433
  564MOL0     H77777   0.060  -0.086   3.032  3.5870 -1.8975  2.5246
  564MOL0     H77778  -0.119  -0.112   3.036  0.8409  0.7384  0.1774
  564MOL0     H77779   0.097  -0.216   3.228 -0.2497 -0.4139  0.3510
  564MOL0     H77780  -0.056  -0.302   3.218  1.4411 -0.5970  2.1072
  564MOL0     H77781  -0.134  -0.425   2.993 -0.0287  2.8299  1.2817
  564MOL0     H77782  -0.120  -0.562   2.780 -0.2104  2.3269 -2.9394
  564MOL0     H77783   0.033  -0.654   2.781 -0.3694 -0.6680 -2.8039
  564MOL0     H77784  -0.070  -0.568   2.579  3.0221 -4.2635  1.1207
  564MOL0     H77785  -0.074  -0.407   2.641 -2.9884 -1.4304  1.3953
  564MOL0     H77786   0.114  -0.408   2.473  0.6136 -0.1232 -0.9947
  564MOL0     H77787   0.177  -0.380   2.630 -1.2042  2.5438 -1.8583
  564MOL0     H77788   0.288  -0.561   2.465 -0.2073 -1.1307 -0.4844
  564MOL0     H77789   0.264  -0.621   2.629 -0.9852  2.0039  0.4645
  564MOL0     H77790   0.048  -0.877   2.338 -0.1284 -1.7175 -0.8920
  564MOL0     H77791   0.142  -1.201   2.300  0.7290 -0.3222  0.1509
  564MOL0     H77792   0.176  -1.141   2.138 -0.8874  1.8032 -0.3608
  564MOL0     H77793   0.034  -1.082   2.220 -0.4794 -0.2990  0.9162
  564MOL0     H77794   0.697  -1.231   2.182 -3.6496  0.8551  1.0916
  564MOL0     H77795   0.828  -1.452   2.131 -0.6783 -1.1687  0.1168
  564MOL0     H77796   0.843  -1.650   2.076  1.8845  1.0276  0.0948
  564MOL0     H77797   0.996  -1.640   2.151 -0.4449  2.2029  1.8564
  564MOL0     H77798   0.972  -1.820   2.041 -0.6144 -2.2519 -0.4896
  564MOL0     H77799   1.001  -1.855   2.221  1.1317  1.2665 -0.3092
  564MOL0     H77800   0.759  -1.906   2.234  2.2400  2.6365 -0.3864
  564MOL0     H77801   0.831  -2.020   2.121  0.2608 -0.5786 -2.6999
  564MOL0     H77802   0.747  -1.839   1.938  2.6863 -1.6382  0.3322
  564MOL0     H77803   0.638  -1.799   2.070  0.5126  0.4545 -1.2552
  564MOL0     H77804   0.567  -2.057   2.090  0.2856 -1.2988 -2.1160
  564MOL0     H77805   0.505  -1.960   1.961 -1.3333 -0.0715  2.6728
  564MOL0     H77806   0.754  -2.132   1.931 -0.0739 -1.5122 -1.6575
  564MOL0     H77807   0.647  -2.057   1.805 -4.3632  2.5501  0.3862
  564MOL0     H77808   0.562  -2.285   1.996 -1.1250 -0.1024 -0.9428
  564MOL0     H77809   0.657  -2.307   1.848 -0.5790  0.2189 -2.5112
  564MOL0     H77810   0.416  -2.351   1.801  0.6902 -0.1082  0.9312
  564MOL0     H77811   0.502  -2.217   1.710  2.2209  0.6888  1.3582
  564MOL0     H77812   0.689  -1.604   2.491  1.9065 -1.0241 -1.6393
  564MOL0     H77813   0.541  -1.406   2.524 -0.5242  0.1234  0.6191
  564MOL0     H77814   0.530  -0.933   2.448 -0.1461  0.7065  0.6310
  564MOL0     H77815   0.417  -0.746   2.527  0.3582  0.9628 -1.1130
  564MOL0     H77816   0.346   0.567   3.484  0.1071 -0.9432 -0.0236
  564MOL0     H77817   0.505   0.554   3.656  1.1063 -1.1036  0.0834
  564MOL0     H77818   0.685   0.454   3.934 -1.4084  0.1816  0.1685
  564MOL0     H77819   0.893   0.452   4.051 -1.9352 -0.7372 -3.2482
  564MOL0     H77820   0.981   0.818   4.266  2.7692  1.1150  1.9442
  564MOL0     H77821   1.108   0.725   4.329 -1.1423 -3.2413  0.9998
  564MOL0     H77822   1.146   0.862   4.101  1.3241  1.4287 -0.2873
  564MOL0     H77823   1.045   0.746   4.024  0.9363 -0.0006  0.1589
  564MOL0     H77824   1.281   0.642   4.171 -0.2953  0.3756  0.0558
  564MOL0     H77825   1.180   0.553   4.057 -1.5182 -0.1693  2.8145
  564MOL0     H77826   1.405   0.601   3.981 -0.9734 -0.5708  0.2645
  564MOL0     H77827   1.392   0.778   3.996  0.9568  0.4276 -0.7832
  564MOL0     H77828   1.184   0.723   3.638 -1.2269  3.2556  1.6200
  564MOL0     H77829   0.740   0.773   4.304 -1.3444 -0.8171  1.4345
  564MOL0     H77830   0.492   0.867   4.184  1.5456  1.8080  1.7029
  564MOL0     H77831   0.410   0.722   4.252  1.5196 -1.2287 -0.4518
  564MOL0     H77832   0.536   0.806   4.340  0.6622 -3.1136  0.9606
  565MOL0     O77833   6.146   8.663   1.286  0.2273 -0.1380  0.1303
  565MOL0     C77834   6.041   8.593   1.300 -1.0129  0.0081 -0.8998
  565MOL0     O77835   5.940   8.591   1.218 -1.3469  0.3068  0.5693
  565MOL0     C77836   5.878   8.477   1.171 -0.2244  0.6358  0.0423
  565MOL0     C77837   5.905   8.426   1.053  0.5748 -0.3352  0.3135
  565MOL0     C77838   5.837   8.312   0.990  0.0172 -0.3536 -0.1979
  565MOL0     C77839   5.724   8.264   1.062 -0.2536  0.6830 -0.3517
  565MOL0     O77840   5.646   8.168   1.009  0.1412 -0.6080  0.0985
  565MOL0     C77841   5.583   8.212   0.883 -0.6057  1.7179  0.6129
  565MOL0     C77842   5.499   8.104   0.825 -0.0076  0.2921 -0.2592
  565MOL0     C77843   5.428   8.170   0.707  0.5631 -0.1650  0.4662
  565MOL0     C77844   5.323   8.079   0.633 -0.1715 -0.2681  0.2060
  565MOL0     C77845   5.237   8.156   0.519  0.2170  0.3546 -0.3615
  565MOL0     C77846   5.132   8.248   0.587 -0.6745  0.2218 -0.0051
  565MOL0     C77847   5.077   8.362   0.508  0.5041  0.7474  0.3493
  565MOL0     C77848   5.054   8.311   0.355 -0.1383  0.3393 -0.5219
  565MOL0     N77849   5.002   8.423   0.275  0.7573  0.7907 -0.2525
  565MOL0     C77850   4.976   8.428   0.136  0.2992 -0.4333 -0.3533
  565MOL0     C77851   4.931   8.554   0.116  0.1002 -0.3556 -0.3128
  565MOL0     C77852   4.899   8.626  -0.003  0.6070  0.2057  0.1297
  565MOL0     C77853   4.807   8.563  -0.097  0.6794  0.2355  0.5310
  565MOL0     C77854   4.772   8.658  -0.217 -0.6513 -1.0828 -0.0423
  565MOL0     C77855   4.898   8.642  -0.317  0.2640  0.0845 -0.9600
  565MOL0     O77856   4.928   8.504  -0.348 -0.5826 -0.7743 -0.2900
  565MOL0     C77857   4.829   8.434  -0.417  0.1175 -0.0534 -0.5423
  565MOL0     C77858   4.798   8.301  -0.367  0.7796  0.4290 -0.4326
  565MOL0     C77859   4.694   8.228  -0.422 -0.3358 -0.8274  0.4184
  565MOL0     C77860   4.668   8.095  -0.355 -0.6537  0.3540 -0.4432
  565MOL0     C77861   4.632   8.279  -0.546 -1.0233 -0.1284  0.3456
  565MOL0     C77862   4.540   8.200  -0.631 -0.1307 -0.4237  0.7280
  565MOL0     O77863   4.486   8.259  -0.749 -0.0249  0.5536 -0.1007
  565MOL0     C77864   4.393   8.201  -0.829 -0.9622  0.0934  0.2924
  565MOL0     C77865   4.430   8.155  -0.959 -0.3621 -0.7344 -1.2586
  565MOL0     C77866   4.337   8.109  -1.048  0.4821 -0.9172 -0.0580
  565MOL0     C77867   4.201   8.107  -1.018 -0.9006 -1.2706 -0.5181
  565MOL0     O77868   4.120   8.063  -1.112  0.1008  0.5109 -0.0090
  565MOL0     C77869   3.976   8.080  -1.099  0.0360 -0.0842  0.0946
  565MOL0     C77870   3.899   8.001  -1.202 -0.8744  0.0969  0.3348
  565MOL0     C77871   3.928   8.032  -1.349  0.3605  0.1229  0.6085
  565MOL0     C77872   3.804   7.968  -1.420  0.0599 -0.0632 -0.3617
  565MOL0     C77873   3.810   7.981  -1.579  0.0523  0.2944 -0.4457
  565MOL0     C77874   3.742   7.861  -1.641  0.3580 -0.6482 -0.2468
  565MOL0     C77875   3.759   7.864  -1.792 -0.4041 -0.1094  0.1426
  565MOL0     C77876   3.660   7.766  -1.874  0.3548 -0.1717 -0.0939
  565MOL0    Cl77877   3.662   7.594  -1.819  0.0849  0.0781 -0.1420
  565MOL0     C77878   4.166   8.165  -0.893  0.1441 -0.0210 -0.8115
  565MOL0     C77879   4.258   8.209  -0.798  0.5117  0.0621  1.3181
  565MOL0     O77880   4.500   8.093  -0.589 -0.3001  1.3354 -0.6061
  565MOL0     C77881   4.671   8.407  -0.599 -0.1647 -1.4615 -0.0602
  565MOL0     C77882   4.769   8.480  -0.533  0.4543 -0.2398 -0.6450
  565MOL0     N77883   4.915   8.616   0.236 -0.0469  0.9820  0.1270
  565MOL0     N77884   4.959   8.541   0.330 -0.3018  0.0848 -0.3566
  565MOL0     C77885   5.691   8.321   1.195 -0.6000 -0.8173  0.2384
  565MOL0     C77886   5.775   8.425   1.252  0.4228  0.1326 -0.2831
  565MOL0     C77887   6.052   8.498   1.412  0.1628 -0.1074 -0.6824
  565MOL0     C77888   5.952   8.509   1.507 -0.4858 -0.1694 -0.4127
  565MOL0     C77889   5.947   8.432   1.621 -0.1421  0.0758  0.0923
  565MOL0     C77890   6.036   8.330   1.642  0.2137 -0.1592 -0.4119
  565MOL0     O77891   6.028   8.231   1.735  0.1396  0.3335 -0.3661
  565MOL0     C77892   5.920   8.226   1.817  0.5366  1.0448 -1.0979
  565MOL0     C77893   5.799   8.164   1.740  0.1406  0.5249  0.0223
  565MOL0     C77894   5.828   8.009   1.700  0.5270 -0.6149 -0.6501
  565MOL0     C77895   5.709   7.944   1.629  1.5552 -0.6539  0.6489
  565MOL0     C77896   5.700   7.996   1.493  0.7451 -0.1948 -0.2950
  565MOL0     C77897   5.677   8.039   1.383 -0.1414  0.6239 -0.2102
  565MOL0     C77898   6.140   8.311   1.544 -0.0445 -0.1549 -0.4354
  565MOL0     C77899   6.156   8.403   1.434  0.0231  0.4136 -0.4757
  565MOL0     C77900   6.250   8.359   1.328  0.5726 -0.2855 -0.4701
  565MOL0     H77901   5.982   8.477   0.996 -0.0277  2.7189  1.9822
  565MOL0     H77902   5.878   8.267   0.900  1.9334  2.0057 -0.5957
  565MOL0     H77903   5.659   8.239   0.810 -0.7702 -0.0195 -0.2445
  565MOL0     H77904   5.529   8.304   0.909  1.0291  3.1070 -0.7119
  565MOL0     H77905   5.562   8.024   0.784 -1.4474  0.1245 -2.2715
  565MOL0     H77906   5.437   8.059   0.903  0.3062 -0.0767 -0.2133
  565MOL0     H77907   5.381   8.255   0.758 -0.8368  0.2388 -1.3625
  565MOL0     H77908   5.497   8.213   0.634  1.5414  4.5216  3.6895
  565MOL0     H77909   5.388   8.006   0.585 -0.1170 -1.0261  1.3875
  565MOL0     H77910   5.259   8.032   0.708 -0.3181  0.4931  0.5681
  565MOL0     H77911   5.177   8.087   0.459  0.4711 -0.2008  0.0160
  565MOL0     H77912   5.307   8.210   0.454  0.1617 -2.0740 -2.6077
  565MOL0     H77913   5.052   8.191   0.635 -0.0528 -0.8405 -0.1917
  565MOL0     H77914   5.187   8.288   0.673  2.5227 -5.0366  0.8637
  565MOL0     H77915   5.148   8.445   0.507 -0.3259  1.4741  0.5254
  565MOL0     H77916   4.981   8.394   0.550 -2.8563 -3.1516 -3.3629
  565MOL0     H77917   5.151   8.274   0.322 -0.4868 -0.1842 -0.9786
  565MOL0     H77918   4.984   8.227   0.345  0.2098  0.0626 -0.6148
  565MOL0     H77919   5.002   8.351   0.064  0.2220  0.6260 -1.5599
  565MOL0     H77920   4.989   8.657  -0.057  2.4137 -1.6382  1.9226
  565MOL0     H77921   4.850   8.719   0.029  3.0150  0.2955  4.1406
  565MOL0     H77922   4.839   8.465  -0.133 -0.5822  0.2170 -0.6278
  565MOL0     H77923   4.713   8.548  -0.044  0.6614 -3.1026 -0.2141
  565MOL0     H77924   4.679   8.620  -0.260 -0.6243 -0.8882 -0.2757
  565MOL0     H77925   4.764   8.762  -0.183  2.0162 -1.3564  1.8135
  565MOL0     H77926   4.866   8.695  -0.407  1.8592  0.7869 -1.1345
  565MOL0     H77927   4.983   8.699  -0.280 -0.4837  1.1136 -0.7643
  565MOL0     H77928   4.862   8.252  -0.294 -0.1077 -3.1424 -1.8863
  565MOL0     H77929   4.670   8.009  -0.423 -1.1823 -1.2583  1.4884
  565MOL0     H77930   4.570   8.107  -0.307 -1.4271  3.6521 -2.5208
  565MOL0     H77931   4.742   8.062  -0.282 -1.0494  1.7916  0.6478
  565MOL0     H77932   4.531   8.130  -0.990  0.1664 -1.5975  0.9183
  565MOL0     H77933   4.383   8.070  -1.138 -0.9724 -2.0481 -0.3309
  565MOL0     H77934   3.955   8.035  -1.001  1.8061 -1.5399 -0.1346
  565MOL0     H77935   3.949   8.186  -1.100  3.3943  0.8768 -0.2603
  565MOL0     H77936   3.907   7.893  -1.185 -1.9770 -0.6257 -2.9907
  565MOL0     H77937   3.798   8.029  -1.172 -0.5427  0.4196  1.1928
  565MOL0     H77938   4.015   7.971  -1.375 -0.5548 -1.5328  1.2517
  565MOL0     H77939   3.930   8.137  -1.378  1.1601 -0.1201 -0.2711
  565MOL0     H77940   3.716   8.014  -1.374  1.8415  0.6703  2.5525
  565MOL0     H77941   3.796   7.861  -1.396  3.0977 -0.2001  0.4429
  565MOL0     H77942   3.756   8.070  -1.614 -1.1872 -0.4682 -0.5263
  565MOL0     H77943   3.909   8.014  -1.612  1.7053  1.0277  4.4036
  565MOL0     H77944   3.639   7.865  -1.607  1.3809  0.5855  3.1578
  565MOL0     H77945   3.799   7.774  -1.605  0.4547 -0.7160 -0.5608
  565MOL0     H77946   3.863   7.837  -1.811  0.0784  2.4748 -1.4891
  565MOL0     H77947   3.740   7.957  -1.846  2.1590  0.0091 -0.6877
  565MOL0     H77948   3.692   7.770  -1.979  0.4243 -0.9881 -0.1097
  565MOL0     H77949   3.562   7.814  -1.873  0.3877  0.0950  3.4851
  565MOL0     H77950   4.059   8.174  -0.876  0.4291 -0.1924  1.4234
  565MOL0     H77951   4.245   8.265  -0.705  5.5747 -0.3811  2.5771
  565MOL0     H77952   4.638   8.445  -0.695 -0.1240 -0.5316  0.2774
  565MOL0     H77953   4.805   8.574  -0.573 -1.4011  0.4748 -0.7413
  565MOL0     H77954   5.601   8.298   1.249 -1.2476  1.2864  0.1410
  565MOL0     H77955   5.748   8.459   1.351  0.2020  1.8243 -0.8872
  565MOL0     H77956   5.879   8.588   1.500  1.2382  1.7928  2.1217
  565MOL0     H77957   5.861   8.442   1.686  0.1169 -1.1410  0.6545
  565MOL0     H77958   5.958   8.170   1.903 -0.6225  0.6003 -0.8640
  565MOL0     H77959   5.894   8.320   1.866 -0.7912  1.1761 -1.9932
  565MOL0     H77960   5.788   8.216   1.645  0.2415 -2.0704 -1.5065
  565MOL0     H77961   5.711   8.154   1.805 -1.3080 -0.5418 -1.9982
  565MOL0     H77962   5.913   7.997   1.632 -0.8933 -0.5027 -2.5228
  565MOL0     H77963   5.847   7.952   1.791 -1.2322  1.0892  0.8590
  565MOL0     H77964   5.611   7.952   1.675  1.0510 -6.0917  1.0903
  565MOL0     H77965   5.737   7.838   1.625 -0.9029 -1.3296  0.0425
  565MOL0     H77966   5.660   8.076   1.284 -1.3342  2.8596  0.7639
  565MOL0     H77967   6.207   8.226   1.546 -0.5183 -0.5164  0.8120
  565MOL0     H77968   6.281   8.447   1.270  2.6046 -0.2981  0.4891
  565MOL0     H77969   6.334   8.302   1.368 -0.5870  0.0758  2.8471
  565MOL0     H77970   6.191   8.299   1.259 -1.3579  1.7604 -0.7320
  566MOL0     O77971   6.295   8.505  10.346  0.0915 -0.5242 -0.0931
  566MOL0     C77972   6.271   8.529  10.228  0.7293  0.1735 -0.2736
  566MOL0     O77973   6.353   8.522  10.118  0.5071  0.1188 -0.1763
  566MOL0     C77974   6.479   8.480  10.139 -0.3482 -0.4022  0.1058
  566MOL0     C77975   6.575   8.588  10.133 -0.3988 -0.1594 -0.0540
  566MOL0     C77976   6.710   8.561  10.145  0.9249 -0.5134  0.0649
  566MOL0     C77977   6.755   8.427  10.158 -0.4148 -0.6422  0.4715
  566MOL0     O77978   6.882   8.376  10.169 -0.3737 -0.1211 -0.3044
  566MOL0     C77979   6.993   8.460  10.131  0.4655 -0.8498 -0.1716
  566MOL0     C77980   7.020   8.458   9.972 -0.1083  0.1359 -0.8545
  566MOL0     C77981   7.077   8.325   9.929 -0.1250  1.0519 -0.7321
  566MOL0     C77982   7.200   8.336   9.846  0.6128  0.0025  0.4715
  566MOL0     C77983   7.168   8.399   9.714  0.0670  0.3037  0.3382
  566MOL0     C77984   7.287   8.417   9.629  0.0283 -0.7153  0.6013
  566MOL0     C77985   7.251   8.468   9.491  0.3741 -0.8054 -0.2211
  566MOL0     C77986   7.376   8.461   9.404  0.5902  0.0565 -0.1755
  566MOL0     N77987   7.355   8.500   9.270  0.1570 -0.1660  0.2884
  566MOL0     C77988   7.423   8.611   9.212 -0.1202  0.2403  0.5537
  566MOL0     C77989   7.362   8.620   9.084 -0.4575  0.3426 -0.3638
  566MOL0     C77990   7.397   8.722   8.974 -0.1104  1.0360 -1.2135
  566MOL0     C77991   7.403   8.656   8.840 -0.0790 -0.0641 -0.9010
  566MOL0     C77992   7.418   8.763   8.725  0.1899  0.9314  0.5325
  566MOL0     C77993   7.277   8.804   8.663 -0.3299 -0.2814 -0.0507
  566MOL0     O77994   7.197   8.875   8.756  0.5419 -0.1846  0.1432
  566MOL0     C77995   7.221   9.006   8.777 -0.5548  0.1683  0.3320
  566MOL0     C77996   7.284   9.099   8.687  0.3969 -0.1929 -0.8585
  566MOL0     C77997   7.277   9.239   8.699  0.1742  0.5464  0.8538
  566MOL0     C77998   7.305   9.326   8.582 -0.5314 -0.0787  0.8632
  566MOL0     C77999   7.226   9.289   8.818 -0.4587 -0.6840 -0.6664
  566MOL0     C78000   7.224   9.444   8.850  0.4604  0.7091 -0.9780
  566MOL0     O78001   7.122   9.472   8.940 -1.2229 -0.5159 -0.8320
  566MOL0     C78002   7.100   9.604   8.972 -0.0380 -0.2412  0.3211
  566MOL0     C78003   7.134   9.653   9.100  0.8494 -0.2648 -0.1319
  566MOL0     C78004   7.122   9.786   9.130  0.2945 -0.0593 -0.2601
  566MOL0     C78005   7.069   9.872   9.038  0.2150 -0.0021  0.9798
  566MOL0     O78006   7.047  10.003   9.091 -0.5811 -0.0172  0.1603
  566MOL0     C78007   6.978  10.103   9.010 -0.0957  0.0711 -0.9398
  566MOL0     C78008   7.061  10.175   8.911  0.2972  0.1088 -0.1654
  566MOL0     C78009   6.977  10.213   8.789 -0.4253 -0.0321 -0.1092
  566MOL0     C78010   7.079  10.260   8.683  0.5515 -0.1307  0.8105
  566MOL0     C78011   7.012  10.320   8.556 -0.0263  0.3111 -1.3427
  566MOL0     C78012   7.115  10.380   8.468 -0.0933 -0.4235  0.0645
  566MOL0     C78013   7.055  10.421   8.332 -0.9143 -0.7550 -0.0183
  566MOL0     C78014   7.153  10.403   8.212  0.4342 -0.3147 -0.3425
  566MOL0    Cl78015   7.282  10.531   8.215  0.0963  0.0406  0.2178
  566MOL0     C78016   7.038   9.832   8.910  0.3175 -0.4043  0.2998
  566MOL0     C78017   7.052   9.699   8.876  0.3218  0.6153 -0.2156
  566MOL0     O78018   7.314   9.521   8.815 -0.4617  0.0248 -1.0001
  566MOL0     C78019   7.171   9.203   8.917 -0.0246  0.3216 -0.1925
  566MOL0     C78020   7.174   9.063   8.898 -0.1376  0.3493  0.0725
  566MOL0     N78021   7.264   8.526   9.075 -0.2533 -0.0924 -0.4818
  566MOL0     N78022   7.261   8.454   9.189 -0.2712 -0.3002  0.2465
  566MOL0     C78023   6.661   8.321  10.152  0.2943  0.5043 -0.4879
  566MOL0     C78024   6.527   8.351  10.148  0.2141  0.7968  0.4921
  566MOL0     C78025   6.142   8.591  10.198  0.4105 -0.5199 -0.0505
  566MOL0     C78026   6.135   8.716  10.129  0.4988 -0.2655  0.0059
  566MOL0     C78027   6.003   8.779  10.118 -1.3883 -0.5901 -0.8586
  566MOL0     C78028   5.893   8.728  10.182 -0.5795  0.1499 -0.7127
  566MOL0     O78029   5.769   8.773  10.187 -0.0815 -0.4134 -0.7225
  566MOL0     C78030   5.746   8.901  10.116 -0.4533  0.7193 -1.0186
  566MOL0     C78031   5.598   8.904  10.116  0.0259  0.3781  0.4173
  566MOL0     C78032   5.548   9.032  10.049 -1.0572  1.0112 -0.7755
  566MOL0     C78033   5.562   9.162  10.120 -0.1258 -0.1626 -0.4762
  566MOL0     C78034   5.552   9.279  10.034 -0.0617  0.1243 -0.0149
  566MOL0     C78035   5.548   9.366   9.951  0.2970  0.9223  0.7241
  566MOL0     C78036   5.905   8.605  10.245  0.6311 -0.6126  0.7168
  566MOL0     C78037   6.024   8.543  10.258  0.4117  0.1427  0.2420
  566MOL0     C78038   6.016   8.400  10.310 -0.6958 -0.7527 -0.6735
  566MOL0     H78039   6.543   8.690  10.113 -0.0558 -0.7247 -4.4687
  566MOL0     H78040   6.782   8.643  10.147 -1.3347  1.5978  1.4414
  566MOL0     H78041   7.074   8.416  10.191  0.0843 -0.8630  0.3391
  566MOL0     H78042   6.970   8.562  10.161  0.2672 -1.4919  2.0049
  566MOL0     H78043   6.943   8.494   9.904 -0.9099  0.8231  0.3679
  566MOL0     H78044   7.101   8.531   9.972 -0.5330  0.8787  3.2636
  566MOL0     H78045   7.089   8.257  10.014 -2.2990  1.9208  0.3543
  566MOL0     H78046   6.995   8.275   9.877  0.5023  1.1270 -1.8254
  566MOL0     H78047   7.270   8.402   9.898 -1.9759  2.8885  0.6019
  566MOL0     H78048   7.252   8.240   9.834  0.7549 -0.0700  1.5418
  566MOL0     H78049   7.118   8.495   9.732 -0.1237  0.2652  0.0168
  566MOL0     H78050   7.099   8.329   9.666 -0.0557 -1.4778  2.9168
  566MOL0     H78051   7.348   8.497   9.673 -0.1496 -0.3730  0.2368
  566MOL0     H78052   7.334   8.319   9.633  0.2945 -0.5989  3.9410
  566MOL0     H78053   7.216   8.571   9.498 -1.2567 -1.3205 -0.3549
  566MOL0     H78054   7.174   8.398   9.456  0.4582 -1.3782  0.6994
  566MOL0     H78055   7.454   8.527   9.444  0.0425  0.0862  0.8718
  566MOL0     H78056   7.409   8.357   9.399  2.9098  0.4531  3.2651
  566MOL0     H78057   7.505   8.670   9.252  0.6867 -0.3186 -0.2419
  566MOL0     H78058   7.489   8.779   8.991 -0.5765  2.1800 -2.3582
  566MOL0     H78059   7.311   8.789   8.964 -2.3105 -1.4667 -0.4937
  566MOL0     H78060   7.487   8.585   8.837 -0.8585 -1.0121 -0.8698
  566MOL0     H78061   7.311   8.600   8.821 -1.0314  1.2694 -0.3663
  566MOL0     H78062   7.466   8.853   8.764 -0.4030  1.5720 -0.1894
  566MOL0     H78063   7.482   8.728   8.644  0.1181  0.0271  0.8561
  566MOL0     H78064   7.277   8.862   8.569  0.9592 -0.7834 -0.3836
  566MOL0     H78065   7.214   8.720   8.636 -0.8794  0.1958 -0.2839
  566MOL0     H78066   7.337   9.069   8.597  0.1302  3.6183 -2.4399
  566MOL0     H78067   7.326   9.269   8.491  3.3459  0.8855  0.9506
  566MOL0     H78068   7.394   9.385   8.605 -1.0870  0.1013  2.7454
  566MOL0     H78069   7.223   9.393   8.557  0.6434  0.3269 -2.4574
  566MOL0     H78070   7.167   9.592   9.184 -2.0821 -0.7017  0.8374
  566MOL0     H78071   7.157   9.813   9.229  0.1368  2.2602 -0.7672
  566MOL0     H78072   6.890  10.049   8.975 -1.0067  0.0320  1.2525
  566MOL0     H78073   6.926  10.174   9.074  0.0295 -1.4512  0.9429
  566MOL0     H78074   7.121  10.259   8.946 -1.8055  1.4679  0.3700
  566MOL0     H78075   7.135  10.101   8.879 -2.0205 -3.3124  1.6997
  566MOL0     H78076   6.906  10.293   8.806 -0.8549  0.4315 -3.3523
  566MOL0     H78077   6.912  10.135   8.748  0.5811 -0.1846 -1.5094
  566MOL0     H78078   7.137  10.172   8.654 -0.0602 -0.1184 -0.5043
  566MOL0     H78079   7.148  10.332   8.729  0.5131 -0.8910  2.1070
  566MOL0     H78080   6.953  10.239   8.512 -1.4345  0.2148  0.6302
  566MOL0     H78081   6.931  10.388   8.582  1.1520  1.7873 -1.4052
  566MOL0     H78082   7.198  10.309   8.457 -2.4389 -3.5889  1.3453
  566MOL0     H78083   7.143  10.466   8.529  2.2820  0.8426 -2.5604
  566MOL0     H78084   7.032  10.527   8.342  0.3214 -0.2372 -2.0514
  566MOL0     H78085   6.967  10.359   8.311 -3.1404  1.5963  1.7059
  566MOL0     H78086   7.107  10.416   8.113  3.1231  0.0383 -1.6511
  566MOL0     H78087   7.186  10.298   8.215  0.0770 -0.4524  3.7646
  566MOL0     H78088   6.991   9.890   8.830  0.4182 -2.1157 -1.0498
  566MOL0     H78089   7.025   9.669   8.776 -1.8457 -0.9201  0.7320
  566MOL0     H78090   7.133   9.246   9.009 -0.9974 -1.5119  0.3205
  566MOL0     H78091   7.141   8.991   8.972  1.8419 -1.3318 -0.5679
  566MOL0     H78092   6.685   8.216  10.147 -1.6739  0.0579 -4.4654
  566MOL0     H78093   6.453   8.272  10.149 -0.8106  1.7291  0.4389
  566MOL0     H78094   6.219   8.738  10.064 -0.4201 -1.7020 -1.7647
  566MOL0     H78095   5.995   8.874  10.065  1.8782  0.4744  0.2537
  566MOL0     H78096   5.785   8.992  10.163 -0.4713 -0.4212  1.3660
  566MOL0     H78097   5.783   8.895  10.013 -1.4131 -2.0672 -1.2889
  566MOL0     H78098   5.544   8.906  10.211  1.0622  1.6864  1.0009
  566MOL0     H78099   5.570   8.826  10.044  0.3763  1.5001 -1.0007
  566MOL0     H78100   5.606   9.033   9.957 -2.1793  0.4523 -1.5172
  566MOL0     H78101   5.446   9.015  10.012 -0.1369  0.2879 -3.1465
  566MOL0     H78102   5.657   9.159  10.175 -0.8434 -4.3735  0.8946
  566MOL0     H78103   5.484   9.149  10.196  1.6399 -2.3179  1.1012
  566MOL0     H78104   5.541   9.447   9.880 -3.8410  0.0677 -0.0981
  566MOL0     H78105   5.819   8.550  10.283 -1.1175  1.2148 -0.3925
  566MOL0     H78106   5.928   8.352  10.267  0.5818 -3.2744 -0.6385
  566MOL0     H78107   6.098   8.334  10.278 -0.9224 -1.1259 -0.4895
  566MOL0     H78108   6.016   8.409  10.419  2.4400  0.8308 -0.6655
  567MOL0     O78109   3.331   3.174   7.331  0.4549 -0.1925  0.0446
  567MOL0     C78110   3.357   3.175   7.209 -0.2167 -0.1480  0.3288
  567MOL0     O78111   3.331   3.286   7.122 -0.3258  0.0467  0.8477
  567MOL0     C78112   3.297   3.410   7.171 -0.6881  0.1809 -0.1074
  567MOL0     C78113   3.179   3.479   7.116 -0.2296  1.3759 -0.9446
  567MOL0     C78114   3.144   3.610   7.149  0.0625 -0.7644 -0.5450
  567MOL0     C78115   3.225   3.663   7.263 -0.5415 -0.5060 -0.3029
  567MOL0     O78116   3.196   3.773   7.336  0.1550  0.0558 -0.9882
  567MOL0     C78117   3.101   3.868   7.286 -0.0329 -0.1226  0.4075
  567MOL0     C78118   3.124   3.998   7.349  0.6619 -0.3916 -0.0243
  567MOL0     C78119   3.024   4.112   7.329  0.8939  0.1437  0.0843
  567MOL0     C78120   3.077   4.237   7.397 -0.4128  0.3863  0.1662
  567MOL0     C78121   2.986   4.347   7.367 -0.5321  0.3885 -0.9619
  567MOL0     C78122   3.019   4.480   7.443 -0.5160  0.3247 -0.2846
  567MOL0     C78123   2.888   4.550   7.460 -0.2764  0.3267 -0.4327
  567MOL0     C78124   2.897   4.696   7.514  0.1510  0.4720  0.3194
  567MOL0     N78125   2.790   4.788   7.465  0.1962  0.0595 -0.4085
  567MOL0     C78126   2.802   4.879   7.361 -0.9009  0.5702 -0.7879
  567MOL0     C78127   2.692   4.950   7.359  0.2887  0.7235 -0.2883
  567MOL0     C78128   2.677   5.064   7.275  1.1312 -0.6446 -0.0030
  567MOL0     C78129   2.667   5.035   7.119 -0.1943 -0.4618 -0.6221
  567MOL0     C78130   2.595   5.149   7.041  0.0984 -0.5422 -1.5194
  567MOL0     C78131   2.589   5.286   7.115  0.1198 -0.8285 -0.3859
  567MOL0     O78132   2.726   5.332   7.146 -0.0272  0.4888  0.1669
  567MOL0     C78133   2.737   5.452   7.221  0.2560  0.0384 -0.0678
  567MOL0     C78134   2.865   5.479   7.253  0.3656 -0.2127  0.4556
  567MOL0     C78135   2.900   5.588   7.335  0.5848  0.1811  0.4251
  567MOL0     C78136   3.044   5.622   7.345  0.6288 -1.3985 -0.3547
  567MOL0     C78137   2.796   5.671   7.387  0.6898 -0.8968  0.2038
  567MOL0     C78138   2.840   5.785   7.480 -0.3508  0.1469  0.7063
  567MOL0     O78139   2.948   5.774   7.563 -0.3016 -0.1011  0.8517
  567MOL0     C78140   2.995   5.868   7.643  0.0050 -0.7001  0.4457
  567MOL0     C78141   3.137   5.883   7.642  0.6360 -0.3179 -0.3670
  567MOL0     C78142   3.195   5.980   7.714 -0.3276  0.6741 -0.0771
  567MOL0     C78143   3.119   6.067   7.800  1.0874 -0.0064 -0.5249
  567MOL0     O78144   3.178   6.146   7.892  0.5010 -0.5413 -0.2412
  567MOL0     C78145   3.320   6.137   7.909  0.2425 -0.7677 -0.3895
  567MOL0     C78146   3.366   6.216   8.033 -0.1133 -0.2394 -0.5179
  567MOL0     C78147   3.521   6.205   8.054  0.5254 -0.9213 -0.8023
  567MOL0     C78148   3.567   6.072   8.113  0.7400  0.0665 -0.4876
  567MOL0     C78149   3.712   6.034   8.078  0.6949  0.3466  0.1324
  567MOL0     C78150   3.726   5.981   7.934  1.0078  0.0802  0.2681
  567MOL0     C78151   3.682   5.833   7.923 -0.4728 -0.6787  0.7774
  567MOL0     C78152   3.755   5.742   8.023  0.3777 -0.3069  1.1943
  567MOL0    Cl78153   3.906   5.711   7.953  0.3658 -0.1592  0.2089
  567MOL0     C78154   2.982   6.064   7.801 -0.6776  0.0789 -0.0377
  567MOL0     C78155   2.917   5.962   7.719 -0.3828  0.2099 -0.3014
  567MOL0     O78156   2.764   5.890   7.469  0.3641  0.2621 -0.8512
  567MOL0     C78157   2.661   5.640   7.353  0.6875 -0.3887 -0.4283
  567MOL0     C78158   2.636   5.533   7.267 -0.2911  0.2974 -0.3085
  567MOL0     N78159   2.598   4.887   7.453 -0.5370 -0.1232  0.3956
  567MOL0     N78160   2.663   4.791   7.518  0.8228  0.1206 -0.3711
  567MOL0     C78161   3.341   3.600   7.306  0.3139 -0.2852  0.2579
  567MOL0     C78162   3.380   3.479   7.257 -0.2033  0.2978  0.0346
  567MOL0     C78163   3.360   3.041   7.147  0.7147 -0.5590 -0.7159
  567MOL0     C78164   3.307   2.926   7.206  0.0089 -0.3073 -0.2635
  567MOL0     C78165   3.324   2.798   7.145 -1.1139  0.9306  0.9000
  567MOL0     C78166   3.418   2.784   7.036  0.6485 -0.9483 -0.0210
  567MOL0     O78167   3.463   2.662   6.991  0.1421 -0.1188  0.5554
  567MOL0     C78168   3.429   2.540   7.064  0.4946  0.7112 -0.4954
  567MOL0     C78169   3.508   2.418   7.022 -0.8426  0.3288 -0.0242
  567MOL0     C78170   3.499   2.292   7.113 -0.9615 -1.0475 -0.0700
  567MOL0     C78171   3.377   2.204   7.080  0.5935 -0.1293 -0.3366
  567MOL0     C78172   3.359   2.119   7.193 -0.5185  0.5853  0.4626
  567MOL0     C78173   3.347   2.035   7.283  0.6293 -0.7321  0.2038
  567MOL0     C78174   3.451   2.904   6.972  0.8036 -0.3315  0.1609
  567MOL0     C78175   3.425   3.027   7.026 -0.8143  0.3252 -0.2426
  567MOL0     C78176   3.498   3.137   6.941  0.1477  0.4745 -1.1632
  567MOL0     H78177   3.110   3.430   7.048 -0.0525  2.6131 -2.0670
  567MOL0     H78178   3.053   3.649   7.105  0.5441 -0.7388 -1.5439
  567MOL0     H78179   2.997   3.841   7.305 -1.0006  2.2505 -0.9999
  567MOL0     H78180   3.122   3.879   7.179  0.8405  0.8536  0.6622
  567MOL0     H78181   3.125   3.978   7.457  2.0745  0.5770  0.1723
  567MOL0     H78182   3.227   4.034   7.339  0.5228  0.3474  1.0358
  567MOL0     H78183   3.015   4.143   7.225 -0.6375 -0.4012  0.0353
  567MOL0     H78184   2.928   4.081   7.372  1.2523 -1.1066  0.0359
  567MOL0     H78185   3.080   4.228   7.506 -0.1372 -1.4820  0.0345
  567MOL0     H78186   3.179   4.254   7.361 -0.5725 -0.9295 -1.0039
  567MOL0     H78187   2.887   4.311   7.398  0.1071 -1.2350 -0.6729
  567MOL0     H78188   2.972   4.357   7.259  1.6927 -4.8802 -2.0559
  567MOL0     H78189   3.068   4.454   7.537  0.9687 -2.1562 -1.6516
  567MOL0     H78190   3.072   4.555   7.384  0.0952 -2.2319 -3.2360
  567MOL0     H78191   2.811   4.494   7.512  1.3271 -1.7668 -0.1693
  567MOL0     H78192   2.852   4.560   7.357  1.3470 -3.2542 -1.4988
  567MOL0     H78193   2.905   4.689   7.623  0.7632  3.2114  0.5335
  567MOL0     H78194   2.989   4.729   7.465  0.4527  1.1879  1.3290
  567MOL0     H78195   2.895   4.907   7.313  0.5061 -2.5566 -0.2032
  567MOL0     H78196   2.753   5.140   7.297 -0.8073  1.7005 -0.8732
  567MOL0     H78197   2.582   5.100   7.316  1.8961 -0.5807  1.7961
  567MOL0     H78198   2.765   5.020   7.073  0.4035 -2.9619  1.2596
  567MOL0     H78199   2.612   4.946   7.087  2.7725 -2.2483 -1.1277
  567MOL0     H78200   2.651   5.159   6.948  0.8007 -0.4122 -1.0969
  567MOL0     H78201   2.494   5.125   7.009 -0.8420  1.7890 -0.5431
  567MOL0     H78202   2.538   5.342   7.037  0.8882 -1.0021 -1.0319
  567MOL0     H78203   2.529   5.291   7.206  3.3141  2.4895  1.8025
  567MOL0     H78204   2.949   5.420   7.217  0.3655 -1.8026  2.7955
  567MOL0     H78205   3.077   5.719   7.305  1.6574 -1.9191 -0.7847
  567MOL0     H78206   3.097   5.554   7.279 -0.1011  0.1334 -2.6413
  567MOL0     H78207   3.068   5.606   7.450  1.0517  1.7196  0.1295
  567MOL0     H78208   3.186   5.813   7.574 -2.3760 -0.3159 -2.7560
  567MOL0     H78209   3.304   5.982   7.710 -0.2555 -0.7246 -4.5058
  567MOL0     H78210   3.356   6.035   7.924 -0.9443 -0.7173  3.9894
  567MOL0     H78211   3.358   6.193   7.823 -0.6586  3.7487  1.8277
  567MOL0     H78212   3.352   6.324   8.020  0.4781  0.0938  1.2717
  567MOL0     H78213   3.312   6.179   8.120  0.1491 -1.4438 -0.8577
  567MOL0     H78214   3.557   6.282   8.123 -1.0531 -0.0392 -0.9110
  567MOL0     H78215   3.569   6.211   7.956  0.1077 -0.0751 -0.9636
  567MOL0     H78216   3.506   5.983   8.093  0.4690 -0.7945  3.3045
  567MOL0     H78217   3.572   6.071   8.222 -0.5725 -0.9977 -0.4127
  567MOL0     H78218   3.771   6.125   8.084  0.2618  0.5877  4.8650
  567MOL0     H78219   3.755   5.967   8.154  2.6115 -0.0969 -1.2685
  567MOL0     H78220   3.833   5.988   7.911  1.2307  0.2736  1.2890
  567MOL0     H78221   3.665   6.041   7.867  0.9751  2.5801  2.3634
  567MOL0     H78222   3.689   5.800   7.819  0.8149 -2.3736  1.3531
  567MOL0     H78223   3.575   5.823   7.944 -0.3543 -0.6062  1.4438
  567MOL0     H78224   3.704   5.646   8.035 -1.0335 -0.0964 -2.1088
  567MOL0     H78225   3.769   5.782   8.124 -1.3339 -1.3948  1.9152
  567MOL0     H78226   2.907   6.119   7.857 -0.4871  0.8942 -0.5742
  567MOL0     H78227   2.809   5.955   7.705 -0.4725  0.8380  0.0817
  567MOL0     H78228   2.573   5.690   7.392 -0.2633 -2.1913 -0.1518
  567MOL0     H78229   2.530   5.519   7.245  0.1052  0.9219 -2.9209
  567MOL0     H78230   3.393   3.644   7.390 -2.2397  1.8661  0.8740
  567MOL0     H78231   3.474   3.437   7.291  0.4005  1.1348 -0.5574
  567MOL0     H78232   3.268   2.933   7.307 -1.7540  0.0685 -0.9228
  567MOL0     H78233   3.264   2.724   7.197 -0.2520 -1.3915 -1.2292
  567MOL0     H78234   3.438   2.555   7.172 -0.2618  0.0782 -0.3310
  567MOL0     H78235   3.322   2.533   7.043  0.0828 -0.0894  1.6058
  567MOL0     H78236   3.612   2.449   7.011 -1.2912  1.1267 -6.7703
  567MOL0     H78237   3.492   2.393   6.916  2.2453 -0.6062 -0.3687
  567MOL0     H78238   3.595   2.240   7.103  1.0984  2.6978 -1.7947
  567MOL0     H78239   3.490   2.328   7.216 -0.7635  2.1908 -1.0662
  567MOL0     H78240   3.378   2.150   6.985  1.6472 -1.0185  0.1563
  567MOL0     H78241   3.295   2.276   7.075  0.1847 -0.4156  1.5771
  567MOL0     H78242   3.339   1.969   7.366 -2.6601  0.4484  0.9865
  567MOL0     H78243   3.516   2.894   6.886  2.5955  6.6343  0.1541
  567MOL0     H78244   3.544   3.212   7.005 -1.6437 -0.4568  1.3457
  567MOL0     H78245   3.575   3.087   6.881 -0.7371  1.4632 -3.2463
  567MOL0     H78246   3.434   3.188   6.868  0.6281  2.4640 -0.2505
  568MOL0     O78247   1.383   8.153   6.852  0.6582 -0.0995  0.2733
  568MOL0     C78248   1.285   8.224   6.834 -0.0516  0.3371 -0.6374
  568MOL0     O78249   1.155   8.182   6.851  0.3215 -0.0993  0.8490
  568MOL0     C78250   1.112   8.059   6.858  0.3967 -0.4851  0.5425
  568MOL0     C78251   0.971   8.052   6.861  0.3834 -0.3895 -0.8267
  568MOL0     C78252   0.907   7.938   6.864 -0.1053  0.6554  0.0542
  568MOL0     C78253   0.980   7.815   6.866 -1.1342 -0.1978 -0.3031
  568MOL0     O78254   0.917   7.696   6.873 -0.1199 -0.2453 -0.1348
  568MOL0     C78255   0.932   7.625   6.991  0.0618  0.4397 -0.6154
  568MOL0     C78256   0.930   7.476   6.963 -0.7624 -0.2885 -1.2967
  568MOL0     C78257   0.927   7.406   7.097 -0.1412 -0.1324  0.3960
  568MOL0     C78258   0.906   7.255   7.061 -0.4092 -0.0731  0.4676
  568MOL0     C78259   0.903   7.165   7.182 -0.2814 -0.5143 -0.4620
  568MOL0     C78260   1.043   7.108   7.208 -0.7214  0.1933  0.3389
  568MOL0     C78261   1.031   7.011   7.329 -0.4709 -0.7061 -0.6265
  568MOL0     C78262   1.072   7.076   7.459 -0.4252  0.1785  0.5553
  568MOL0     N78263   1.057   6.970   7.560 -0.3374 -0.0828  0.6671
  568MOL0     C78264   0.963   6.973   7.662 -0.9495  0.1356  0.1077
  568MOL0     C78265   0.971   6.846   7.719  0.0498 -0.0446 -0.0742
  568MOL0     C78266   0.887   6.785   7.828 -0.0567 -0.3776  0.4177
  568MOL0     C78267   0.960   6.725   7.949  0.8158 -0.0963  0.7773
  568MOL0     C78268   0.843   6.671   8.040 -0.0504  0.3073 -0.9585
  568MOL0     C78269   0.783   6.527   8.013 -1.1844  0.5726 -0.1530
  568MOL0     O78270   0.909   6.456   7.978 -0.1062  0.8532 -0.5870
  568MOL0     C78271   0.901   6.322   7.995  0.5500 -0.1074  0.5906
  568MOL0     C78272   0.792   6.241   8.015  0.6204  0.1754 -0.2237
  568MOL0     C78273   0.808   6.095   8.021  1.4168  0.2578 -0.7437
  568MOL0     C78274   0.681   6.013   8.061  0.4974  0.1540 -0.5719
  568MOL0     C78275   0.933   6.051   7.996  0.3354 -0.5712  0.1399
  568MOL0     C78276   0.955   5.912   8.001 -0.7751  0.2642  0.7038
  568MOL0     O78277   1.007   5.847   7.888  0.0265 -0.5530  0.4027
  568MOL0     C78278   1.044   5.709   7.886 -0.3355  0.1415  1.6789
  568MOL0     C78279   1.166   5.656   7.832  1.3666  0.2986 -0.5134
  568MOL0     C78280   1.184   5.518   7.828  0.9360 -0.5879 -1.3808
  568MOL0     C78281   1.090   5.433   7.877 -0.7016  0.2876  0.4538
  568MOL0     O78282   1.114   5.302   7.880  0.1586 -0.5752  0.4805
  568MOL0     C78283   1.012   5.206   7.914 -0.8846 -0.2393  0.0451
  568MOL0     C78284   1.070   5.066   7.905  0.4003 -0.2109  0.3485
  568MOL0     C78285   1.069   5.001   7.762  0.0078 -0.2530 -0.8876
  568MOL0     C78286   1.162   4.880   7.755  1.0134 -0.2043 -0.6033
  568MOL0     C78287   1.159   4.808   7.623 -1.0990 -0.0899 -0.7780
  568MOL0     C78288   1.236   4.891   7.509 -0.2530  0.0383  0.0436
  568MOL0     C78289   1.250   4.825   7.366  0.1621  0.8015  0.4631
  568MOL0     C78290   1.116   4.804   7.297  0.3553  0.0304  0.0144
  568MOL0    Cl78291   1.066   4.943   7.190  0.0703  0.5985  0.0955
  568MOL0     C78292   0.976   5.483   7.941  0.6079  0.2126 -0.1750
  568MOL0     C78293   0.953   5.623   7.950 -0.6485 -0.0560 -0.1365
  568MOL0     O78294   0.932   5.864   8.107  0.3379  0.6624 -0.6234
  568MOL0     C78295   1.042   6.131   7.956 -0.2971  0.4360  0.0086
  568MOL0     C78296   1.018   6.266   7.949  0.4140  0.3891  0.1094
  568MOL0     N78297   1.067   6.774   7.649 -0.1668  0.5857 -0.3808
  568MOL0     N78298   1.114   6.848   7.561 -0.9545 -0.1214 -0.1540
  568MOL0     C78299   1.123   7.825   6.848 -0.9806  0.6164 -0.2745
  568MOL0     C78300   1.186   7.944   6.845  0.8095 -0.0382  0.1905
  568MOL0     C78301   1.295   8.369   6.795  0.4474  0.0926  0.1812
  568MOL0     C78302   1.177   8.449   6.762  0.2271 -0.8888  0.3292
  568MOL0     C78303   1.187   8.592   6.730 -0.4857 -1.0845 -0.0326
  568MOL0     C78304   1.316   8.652   6.729 -0.2058  0.8354  0.0877
  568MOL0     O78305   1.305   8.787   6.688 -0.1950  0.0510  0.1846
  568MOL0     C78306   1.406   8.870   6.750 -0.5540  0.2953 -0.7775
  568MOL0     C78307   1.427   8.997   6.666 -1.1467  0.0627 -0.5345
  568MOL0     C78308   1.315   9.095   6.694 -0.5000  0.4657 -0.8206
  568MOL0     C78309   1.323   9.216   6.617 -0.0545 -0.7922 -0.1548
  568MOL0     C78310   1.422   9.321   6.666  0.9334  0.6304  1.0754
  568MOL0     C78311   1.504   9.391   6.717 -0.3925  0.3440 -0.4588
  568MOL0     C78312   1.430   8.567   6.744  0.1338  0.0205 -0.4689
  568MOL0     C78313   1.428   8.432   6.785  0.7175 -0.1140 -0.3541
  568MOL0     C78314   1.565   8.364   6.804  0.7360  0.4628 -0.5583
  568MOL0     H78315   0.904   8.138   6.870 -2.3243 -2.2543 -1.8345
  568MOL0     H78316   0.799   7.950   6.856  0.0645  2.0355 -0.3601
  568MOL0     H78317   0.852   7.647   7.063  0.4596  3.2878 -0.9328
  568MOL0     H78318   1.028   7.642   7.040 -2.0223  1.7035  3.4566
  568MOL0     H78319   0.846   7.456   6.897  0.9243 -0.2802 -3.5783
  568MOL0     H78320   1.020   7.449   6.907  0.9211 -1.8626  1.8858
  568MOL0     H78321   1.026   7.422   7.141 -0.4503  0.1855  0.9804
  568MOL0     H78322   0.851   7.442   7.166 -0.6688  2.0153 -1.2078
  568MOL0     H78323   0.818   7.249   6.997 -1.0061 -0.7988  1.3252
  568MOL0     H78324   0.989   7.219   6.999 -0.1518 -0.0977  0.8248
  568MOL0     H78325   0.830   7.090   7.153 -1.3408  1.2097 -2.5386
  568MOL0     H78326   0.859   7.220   7.265 -0.5453  1.2427 -1.7087
  568MOL0     H78327   1.073   7.046   7.123 -2.8107  0.4323 -0.6438
  568MOL0     H78328   1.112   7.191   7.222 -2.0708  1.8855 -2.3598
  568MOL0     H78329   1.092   6.922   7.314  3.4587  1.7016 -0.4858
  568MOL0     H78330   0.925   6.984   7.327 -0.4981 -0.5786 -1.1209
  568MOL0     H78331   1.180   7.090   7.445 -0.0774 -1.9940  0.5918
  568MOL0     H78332   1.015   7.164   7.488 -2.7367 -1.1482  0.3205
  568MOL0     H78333   0.897   7.053   7.693  0.0540 -0.3907  4.1237
  568MOL0     H78334   0.826   6.706   7.783 -3.0465  0.5501  2.5211
  568MOL0     H78335   0.811   6.858   7.854  0.4677  0.8374 -1.2326
  568MOL0     H78336   1.029   6.645   7.921  0.7526  0.6961 -1.8361
  568MOL0     H78337   1.015   6.797   8.010  1.5050 -0.6610  0.8373
  568MOL0     H78338   0.876   6.675   8.144 -0.0677  0.4921 -0.9613
  568MOL0     H78339   0.756   6.738   8.036 -1.3248 -1.2833 -1.2220
  568MOL0     H78340   0.724   6.504   8.103 -0.5846  2.2861  0.7298
  568MOL0     H78341   0.717   6.533   7.927  0.2254  2.7046 -1.1643
  568MOL0     H78342   0.691   6.265   8.048  0.4361 -1.3532  0.3903
  568MOL0     H78343   0.693   5.987   8.167  3.1318 -1.0417 -1.0949
  568MOL0     H78344   0.672   5.923   8.000  3.8968 -1.5819  1.2060
  568MOL0     H78345   0.589   6.073   8.058  0.1919 -0.3657 -2.2927
  568MOL0     H78346   1.239   5.722   7.786 -0.1394  0.9328 -2.1220
  568MOL0     H78347   1.274   5.468   7.793  2.1227  1.4634 -1.3841
  568MOL0     H78348   0.962   5.228   8.009  0.6358  0.0754  0.7974
  568MOL0     H78349   0.936   5.212   7.836 -0.6872 -0.4350 -0.1621
  568MOL0     H78350   1.170   5.069   7.951  0.1891 -1.0172  0.8806
  568MOL0     H78351   1.018   5.000   7.975  0.7903  2.7811  3.7482
  568MOL0     H78352   1.103   5.083   7.699  0.0608  0.7088  0.3386
  568MOL0     H78353   0.968   4.977   7.728  0.8444 -2.4960 -1.9158
  568MOL0     H78354   1.111   4.823   7.833  1.6553 -0.6824 -0.5255
  568MOL0     H78355   1.258   4.915   7.792  1.3181 -1.8133  0.2567
  568MOL0     H78356   1.205   4.709   7.625 -0.3766  0.2624  0.4624
  568MOL0     H78357   1.055   4.784   7.598 -0.7970  1.2319 -3.7512
  568MOL0     H78358   1.339   4.911   7.541 -0.5503 -0.5232  1.4500
  568MOL0     H78359   1.191   4.990   7.503 -1.6154 -0.6405 -1.8904
  568MOL0     H78360   1.290   4.723   7.368 -3.9845 -1.1060 -1.2889
  568MOL0     H78361   1.323   4.883   7.308  0.4110 -0.2178 -0.2800
  568MOL0     H78362   1.036   4.795   7.371 -2.4274  1.6852 -2.5295
  568MOL0     H78363   1.121   4.720   7.228 -3.4137 -0.7506  0.4818
  568MOL0     H78364   0.896   5.432   7.994  0.6488  1.2794  0.9821
  568MOL0     H78365   0.858   5.658   7.990 -0.3759  1.2978 -0.6325
  568MOL0     H78366   1.139   6.086   7.938 -1.4044 -1.3852 -1.8444
  568MOL0     H78367   1.096   6.327   7.905  0.0594  0.0172 -1.0670
  568MOL0     H78368   1.183   7.735   6.838 -1.1352  0.3892  0.7581
  568MOL0     H78369   1.295   7.942   6.846  0.8260  0.6697  0.4872
  568MOL0     H78370   1.086   8.393   6.746 -0.6837  0.5528  0.3156
  568MOL0     H78371   1.101   8.654   6.709  0.2269  0.3028  0.9816
  568MOL0     H78372   1.373   8.884   6.853  1.6844 -0.6814  0.1352
  568MOL0     H78373   1.500   8.817   6.761 -0.5863  0.3900 -0.0296
  568MOL0     H78374   1.452   8.970   6.563  2.6535  2.7756 -0.5647
  568MOL0     H78375   1.514   9.050   6.705 -0.1255 -1.4924 -0.6203
  568MOL0     H78376   1.218   9.049   6.680 -0.1224 -0.6886  0.1794
  568MOL0     H78377   1.311   9.124   6.799  1.3820  0.8454 -0.8108
  568MOL0     H78378   1.223   9.261   6.618 -0.4720 -1.6509 -1.0723
  568MOL0     H78379   1.325   9.194   6.510  1.2615 -0.6919 -0.1645
  568MOL0     H78380   1.575   9.460   6.757 -0.5736  1.7633 -2.4376
  568MOL0     H78381   1.527   8.610   6.721  0.2293 -0.2471 -0.5725
  568MOL0     H78382   1.572   8.330   6.908  0.9909 -2.3468 -1.4149
  568MOL0     H78383   1.578   8.266   6.758 -0.8493 -0.4492  0.8444
  568MOL0     H78384   1.648   8.434   6.786  1.9991 -0.2380  2.0639
  569MOL0     O78385   0.093   6.698   8.781  0.2266  0.7143  0.0805
  569MOL0     C78386   0.093   6.808   8.736 -0.1545 -0.3015 -0.1943
  569MOL0     O78387   0.116   6.848   8.605 -0.3436 -0.0701  0.4637
  569MOL0     C78388   0.108   6.760   8.504 -1.0359 -0.1570 -0.4473
  569MOL0     C78389   0.042   6.814   8.395  0.0636  0.3768 -0.2066
  569MOL0     C78390   0.011   6.735   8.279  0.2836  0.4221 -0.5534
  569MOL0     C78391   0.047   6.599   8.273 -0.9287  0.1712 -0.6507
  569MOL0     O78392   0.008   6.531   8.162 -0.0049  0.5800  0.3577
  569MOL0     C78393  -0.018   6.387   8.168  0.1215 -0.1728  0.2432
  569MOL0     C78394  -0.152   6.347   8.233 -0.1885 -0.2935  0.1853
  569MOL0     C78395  -0.155   6.198   8.241  0.0603  0.5768  0.1794
  569MOL0     C78396  -0.303   6.154   8.266 -0.3468  0.5880  0.0059
  569MOL0     C78397  -0.310   6.008   8.294  0.0569  0.9349 -0.0425
  569MOL0     C78398  -0.450   5.957   8.318 -0.1746  0.1482 -0.2879
  569MOL0     C78399  -0.454   5.811   8.365 -0.0517  0.0971 -0.4682
  569MOL0     C78400  -0.383   5.796   8.501 -0.0862 -0.0399  1.1555
  569MOL0     N78401  -0.406   5.655   8.562 -0.1554  0.9080 -0.2035
  569MOL0     C78402  -0.380   5.538   8.500  0.8661  0.3509  0.1605
  569MOL0     C78403  -0.427   5.442   8.583 -0.3081 -0.8667 -0.2646
  569MOL0     C78404  -0.420   5.300   8.550  0.2361 -1.6836  0.2539
  569MOL0     C78405  -0.369   5.226   8.668  0.5647  0.0930 -0.7357
  569MOL0     C78406  -0.221   5.257   8.710  0.0663 -0.1420  1.4898
  569MOL0     C78407  -0.175   5.149   8.812 -0.2019  0.0864  0.0999
  569MOL0     O78408  -0.172   5.010   8.769 -0.0974 -0.0837 -0.1918
  569MOL0     C78409  -0.093   4.968   8.669 -1.3768 -1.1117  0.6913
  569MOL0     C78410   0.040   5.013   8.660 -0.4648 -0.7623 -0.2298
  569MOL0     C78411   0.116   4.974   8.550 -0.4384 -0.3638  0.0409
  569MOL0     C78412   0.260   5.026   8.534  0.4597  0.1071 -0.2984
  569MOL0     C78413   0.059   4.878   8.456 -0.7605 -0.6395 -0.1850
  569MOL0     C78414   0.134   4.834   8.329 -0.4205  0.3764  0.1271
  569MOL0     O78415   0.053   4.773   8.233 -0.3166  0.1744 -0.8434
  569MOL0     C78416   0.082   4.656   8.174 -0.2464  0.1748 -0.0597
  569MOL0     C78417  -0.017   4.621   8.081 -0.3040 -0.1331  0.4075
  569MOL0     C78418  -0.009   4.493   8.014 -0.1815  0.3951 -0.1611
  569MOL0     C78419   0.099   4.403   8.043 -0.1565  0.8135 -0.3176
  569MOL0     O78420   0.100   4.283   7.980 -0.5971  0.0526  0.8151
  569MOL0     C78421   0.229   4.222   7.970  0.2699  0.1409  0.4815
  569MOL0     C78422   0.225   4.122   7.850 -0.2506  0.1212 -0.4465
  569MOL0     C78423   0.111   4.025   7.850  0.2794 -0.0767 -0.1743
  569MOL0     C78424   0.101   3.958   7.717 -0.5580 -1.0577  0.3941
  569MOL0     C78425   0.007   3.849   7.720 -0.1727 -0.1092 -0.4096
  569MOL0     C78426   0.014   3.759   7.603  0.2617  0.2219 -0.2718
  569MOL0     C78427   0.106   3.635   7.618 -0.0618  0.0323 -0.4636
  569MOL0     C78428   0.097   3.549   7.486  0.4727 -0.0618 -0.1524
  569MOL0    Cl78429   0.145   3.372   7.527  0.2017 -0.5636 -0.2987
  569MOL0     C78430   0.186   4.441   8.149  0.0258  0.2618  0.5153
  569MOL0     C78431   0.175   4.561   8.218 -0.5443 -0.2816 -0.1217
  569MOL0     O78432   0.253   4.853   8.320 -0.0515  0.1872  0.9127
  569MOL0     C78433  -0.063   4.825   8.474 -0.4385  0.2099 -0.5717
  569MOL0     C78434  -0.139   4.874   8.581 -0.6884 -0.3478 -0.3141
  569MOL0     N78435  -0.474   5.502   8.701 -0.3803 -0.0230  0.7229
  569MOL0     N78436  -0.457   5.629   8.684  0.4938 -0.0613 -0.6022
  569MOL0     C78437   0.120   6.548   8.387  0.4981 -0.2593  0.0618
  569MOL0     C78438   0.149   6.632   8.494 -0.6843  0.1676 -0.4786
  569MOL0     C78439   0.060   6.919   8.823  0.6768 -0.7828 -0.0864
  569MOL0     C78440   0.155   7.018   8.835  0.1425 -0.4868 -0.5588
  569MOL0     C78441   0.135   7.129   8.915  0.4271 -0.1370  0.4848
  569MOL0     C78442   0.020   7.145   8.986  0.0398 -0.4198 -0.3760
  569MOL0     O78443   0.035   7.257   9.063  0.5599 -0.2239  0.7982
  569MOL0     C78444  -0.073   7.282   9.150  0.1982 -0.6898 -0.1252
  569MOL0     C78445  -0.102   7.430   9.168  0.1694 -0.8060 -0.3583
  569MOL0     C78446  -0.012   7.503   9.273 -0.6059  0.5061  0.8252
  569MOL0     C78447   0.133   7.483   9.230  0.2274  0.3033  0.7687
  569MOL0     C78448   0.216   7.579   9.292 -1.1685 -0.3597 -0.0986
  569MOL0     C78449   0.294   7.655   9.345 -0.5613 -0.2272 -0.2570
  569MOL0     C78450  -0.082   7.053   8.977  0.1101  0.7380  1.1305
  569MOL0     C78451  -0.064   6.930   8.897  0.6149 -0.1458  0.6091
  569MOL0     C78452  -0.172   6.828   8.873 -0.0565 -1.0716 -0.5802
  569MOL0     H78453   0.019   6.920   8.395  0.3647  0.4711  1.4339
  569MOL0     H78454  -0.026   6.779   8.187  0.3348 -0.2971 -0.9275
  569MOL0     H78455   0.069   6.344   8.219  1.0684  1.5832  0.2053
  569MOL0     H78456  -0.020   6.343   8.068  1.9706  1.5561 -0.6466
  569MOL0     H78457  -0.149   6.396   8.330 -1.2704  2.3419 -1.0220
  569MOL0     H78458  -0.246   6.385   8.193 -2.2608 -1.5062  3.5306
  569MOL0     H78459  -0.120   6.149   8.150  0.3274  1.3084 -0.1158
  569MOL0     H78460  -0.097   6.158   8.324 -1.0183  2.0072  1.6853
  569MOL0     H78461  -0.329   6.202   8.361 -0.6233 -0.2385  0.3618
  569MOL0     H78462  -0.375   6.171   8.185  1.6680 -5.4179 -3.7738
  569MOL0     H78463  -0.249   6.000   8.385 -0.8377  2.6666  0.7706
  569MOL0     H78464  -0.267   5.950   8.212 -2.8309  1.6670 -2.2366
  569MOL0     H78465  -0.496   6.012   8.402  1.1565 -0.4326  0.8556
  569MOL0     H78466  -0.510   5.974   8.228 -1.2789 -1.0649  0.1848
  569MOL0     H78467  -0.416   5.742   8.289 -1.4798  1.3535 -2.4131
  569MOL0     H78468  -0.556   5.776   8.381 -0.4805  0.4540 -2.2826
  569MOL0     H78469  -0.276   5.798   8.478  0.0905 -0.3953  1.9216
  569MOL0     H78470  -0.398   5.872   8.578 -1.5508 -0.9940  1.8637
  569MOL0     H78471  -0.350   5.522   8.397  2.6689  1.6667  0.4307
  569MOL0     H78472  -0.344   5.288   8.473  0.1228  0.6725 -0.2967
  569MOL0     H78473  -0.517   5.279   8.505  0.0687  1.5004 -1.1235
  569MOL0     H78474  -0.435   5.240   8.754 -0.1778  1.8377 -1.5392
  569MOL0     H78475  -0.372   5.122   8.636  0.9773 -0.0748 -0.2575
  569MOL0     H78476  -0.159   5.268   8.620 -0.6895 -2.3138  0.6182
  569MOL0     H78477  -0.219   5.361   8.742  0.3803  0.6151 -0.7831
  569MOL0     H78478  -0.075   5.177   8.847 -0.5805 -0.5176  1.7596
  569MOL0     H78479  -0.237   5.150   8.902 -0.5492 -1.2367 -0.1017
  569MOL0     H78480   0.066   5.091   8.730 -1.0899  2.2869 -3.1642
  569MOL0     H78481   0.273   5.103   8.611  0.8811 -0.5854  0.3462
  569MOL0     H78482   0.271   5.076   8.438 -1.5419 -0.8663 -1.1047
  569MOL0     H78483   0.329   4.943   8.552 -3.6117 -3.2435  1.4728
  569MOL0     H78484  -0.103   4.687   8.083  1.9115  3.0027  1.1360
  569MOL0     H78485  -0.095   4.472   7.951 -1.5855 -2.0056  2.3351
  569MOL0     H78486   0.301   4.302   7.948  0.2703 -0.5374 -2.3985
  569MOL0     H78487   0.254   4.165   8.060 -0.3803  1.8851  1.8226
  569MOL0     H78488   0.221   4.186   7.762  1.6485  1.6540  0.5179
  569MOL0     H78489   0.320   4.069   7.847 -2.1020 -3.4764 -0.9757
  569MOL0     H78490   0.023   4.090   7.853  1.5819  1.9387 -2.3608
  569MOL0     H78491   0.114   3.955   7.934  0.8757  0.6675  0.4454
  569MOL0     H78492   0.197   3.915   7.687  0.0876 -1.1727  2.4398
  569MOL0     H78493   0.077   4.025   7.634  2.2318 -3.0279 -2.2069
  569MOL0     H78494   0.032   3.796   7.812  2.1949  0.5313 -0.6069
  569MOL0     H78495  -0.092   3.893   7.732  0.0060 -0.2077  1.9218
  569MOL0     H78496   0.053   3.808   7.513  3.4897 -2.0726 -0.3053
  569MOL0     H78497  -0.090   3.729   7.592 -0.6473  3.2749 -0.8416
  569MOL0     H78498   0.066   3.573   7.700 -0.3021 -3.4472 -2.9574
  569MOL0     H78499   0.209   3.666   7.634 -0.0764 -0.4405  0.7015
  569MOL0     H78500   0.157   3.592   7.405  2.0251  1.0226  1.4920
  569MOL0     H78501  -0.007   3.542   7.455  1.1861  3.2520 -4.1577
  569MOL0     H78502   0.277   4.385   8.165  0.0466  0.2664  0.4109
  569MOL0     H78503   0.236   4.594   8.301 -0.0924  1.7123 -1.1748
  569MOL0     H78504  -0.105   4.766   8.393 -0.3263 -0.5986 -0.0485
  569MOL0     H78505  -0.231   4.818   8.591 -0.1402 -2.2305 -4.2058
  569MOL0     H78506   0.160   6.447   8.389 -0.3646 -0.6335 -0.9099
  569MOL0     H78507   0.210   6.598   8.578  3.8300  3.2998 -2.0929
  569MOL0     H78508   0.250   7.012   8.783  1.2372 -4.0520  1.5766
  569MOL0     H78509   0.228   7.182   8.934  2.6636 -3.5129  0.0485
  569MOL0     H78510  -0.169   7.243   9.115  0.4998 -0.6021 -1.0781
  569MOL0     H78511  -0.054   7.230   9.244 -0.8823 -1.2810 -0.2145
  569MOL0     H78512  -0.202   7.450   9.207  0.3209  1.8216 -1.1065
  569MOL0     H78513  -0.104   7.482   9.071 -1.3785 -0.3634 -0.1166
  569MOL0     H78514  -0.039   7.609   9.271  0.3516  0.8193  2.4604
  569MOL0     H78515  -0.028   7.452   9.368  1.1186  0.3277  1.0600
  569MOL0     H78516   0.152   7.500   9.124  0.8263 -1.2226  0.6106
  569MOL0     H78517   0.171   7.382   9.250 -1.0221 -0.4932 -0.6752
  569MOL0     H78518   0.369   7.723   9.382 -0.9960  0.0672  0.0995
  569MOL0     H78519  -0.175   7.055   9.033  0.3330 -2.4565  1.8214
  569MOL0     H78520  -0.221   6.849   8.777 -0.3283 -0.7197 -0.3639
  569MOL0     H78521  -0.136   6.725   8.869 -2.0572 -1.8230 -0.7379
  569MOL0     H78522  -0.246   6.836   8.953  0.0141 -6.0298  0.3248
  570MOL0     O78523   4.503   8.928  10.856 -1.0604 -0.1251 -0.0325
  570MOL0     C78524   4.442   8.822  10.841  0.2354 -1.2370 -0.8040
  570MOL0     O78525   4.432   8.751  10.719 -0.3558  0.5451  0.1968
  570MOL0     C78526   4.512   8.789  10.616  1.0108  0.1731 -0.0686
  570MOL0     C78527   4.478   8.910  10.543  0.2656 -0.0353 -0.1767
  570MOL0     C78528   4.554   8.936  10.424 -1.0634 -1.0015 -0.5703
  570MOL0     C78529   4.663   8.850  10.392 -0.1517 -0.1225 -0.5573
  570MOL0     O78530   4.744   8.876  10.280 -0.9344 -0.8397 -0.3148
  570MOL0     C78531   4.691   8.865  10.148  0.2069 -0.2210 -0.4024
  570MOL0     C78532   4.691   8.714  10.102 -0.7902 -0.4810 -0.2697
  570MOL0     C78533   4.827   8.646  10.106  0.4666  0.8025  0.3428
  570MOL0     C78534   4.806   8.492  10.097  0.2281  0.5050 -0.1667
  570MOL0     C78535   4.926   8.423  10.036 -0.7357 -0.3507 -0.6844
  570MOL0     C78536   4.911   8.273  10.032 -0.1247 -0.1154 -0.7023
  570MOL0     C78537   5.021   8.193   9.958 -0.1650  0.6408 -0.3830
  570MOL0     C78538   5.160   8.190  10.021 -0.1478 -0.2035 -0.2264
  570MOL0     N78539   5.269   8.140   9.925  0.1917 -0.2190  0.5846
  570MOL0     C78540   5.379   8.214   9.889 -0.3410 -0.0135 -0.5074
  570MOL0     C78541   5.439   8.143   9.793 -0.1660  0.5099 -0.8733
  570MOL0     C78542   5.557   8.179   9.714 -0.6417 -0.4393  0.7571
  570MOL0     C78543   5.687   8.116   9.760 -0.0491  1.0749 -0.1246
  570MOL0     C78544   5.808   8.105   9.654 -0.2677  0.0059 -0.2554
  570MOL0     C78545   5.913   7.994   9.690  0.1006 -0.3060 -0.3068
  570MOL0     O78546   5.924   7.883   9.593 -0.4191  0.0769  0.0015
  570MOL0     C78547   6.023   7.777   9.604  1.0033 -0.9445 -0.4065
  570MOL0     C78548   6.117   7.763   9.705 -0.2639  0.4652 -0.7126
  570MOL0     C78549   6.206   7.655   9.696 -0.0488 -0.1773 -0.2199
  570MOL0     C78550   6.314   7.661   9.798 -0.1329  0.4920 -0.4251
  570MOL0     C78551   6.193   7.549   9.594  0.0213  1.2555 -0.6626
  570MOL0     C78552   6.257   7.422   9.584 -0.2697  0.0341  0.1843
  570MOL0     O78553   6.217   7.330   9.497 -0.0051  0.2052 -0.5864
  570MOL0     C78554   6.333   7.263   9.454 -0.5352 -0.1811 -1.0282
  570MOL0     C78555   6.415   7.330   9.359 -0.5416 -0.0254 -0.6637
  570MOL0     C78556   6.531   7.270   9.317  0.1574 -0.2096 -0.1698
  570MOL0     C78557   6.576   7.143   9.371  0.2785  0.3923  0.0953
  570MOL0     O78558   6.675   7.071   9.317  0.1894  0.2731  0.6138
  570MOL0     C78559   6.779   7.129   9.239  0.5929 -0.1591  0.0781
  570MOL0     C78560   6.753   7.120   9.093  0.6352 -0.7197 -0.7903
  570MOL0     C78561   6.819   7.219   9.003 -0.3613 -0.4201  1.6119
  570MOL0     C78562   6.772   7.366   9.009  0.0410  0.1004  0.6331
  570MOL0     C78563   6.852   7.439   8.909  0.5509 -0.4383 -0.1488
  570MOL0     C78564   6.803   7.585   8.890 -0.2124  0.1562  0.5748
  570MOL0     C78565   6.861   7.642   8.761  1.2824  0.1434  0.2268
  570MOL0     C78566   6.844   7.791   8.752  0.1290 -0.4578 -0.0761
  570MOL0    Cl78567   6.943   7.900   8.871  0.1012 -0.5159 -0.0213
  570MOL0     C78568   6.494   7.081   9.461  1.1791  0.7350 -0.5391
  570MOL0     C78569   6.367   7.140   9.503  0.0595 -0.3597  0.6990
  570MOL0     O78570   6.353   7.409   9.663  0.5087 -0.6584  0.0577
  570MOL0     C78571   6.080   7.561   9.508 -0.4604  0.6530 -0.2351
  570MOL0     C78572   5.997   7.672   9.522  0.8442  0.4774  0.9799
  570MOL0     N78573   5.377   8.017   9.786 -0.1543 -0.4380 -0.2596
  570MOL0     N78574   5.266   8.022   9.862 -0.4868 -0.6128 -0.2260
  570MOL0     C78575   4.691   8.734  10.463 -0.0941  0.3887 -0.1113
  570MOL0     C78576   4.610   8.706  10.572 -0.2981 -0.0896  0.4056
  570MOL0     C78577   4.399   8.750  10.957 -0.8062  0.4589  0.9276
  570MOL0     C78578   4.312   8.636  10.946 -0.7568 -0.3638 -0.2013
  570MOL0     C78579   4.289   8.542  11.051 -0.7956 -0.2507  0.2773
  570MOL0     C78580   4.342   8.574  11.175 -0.0988  1.1250 -0.1455
  570MOL0     O78581   4.323   8.472  11.268 -0.2896 -0.0883 -0.7053
  570MOL0     C78582   4.445   8.445  11.345  0.9949  0.3806  0.4724
  570MOL0     C78583   4.430   8.318  11.424  0.7301 -0.1949 -0.1101
  570MOL0     C78584   4.559   8.277  11.505  0.1211  0.1810 -0.0159
  570MOL0     C78585   4.541   8.154  11.599 -0.6107  0.9643  0.0356
  570MOL0     C78586   4.479   8.045  11.516  1.1350  0.2235 -0.7126
  570MOL0     C78587   4.423   7.949  11.456  0.0990 -0.2235  0.6964
  570MOL0     C78588   4.409   8.693  11.200  0.7301  0.2530 -0.4057
  570MOL0     C78589   4.440   8.771  11.094 -0.3281 -0.1418  1.1165
  570MOL0     C78590   4.530   8.887  11.136  0.2642 -0.1949 -0.2501
  570MOL0     H78591   4.410   8.986  10.580 -0.0956 -0.1808 -0.5267
  570MOL0     H78592   4.548   9.034  10.378  0.5819  0.9419  2.9545
  570MOL0     H78593   4.746   8.934  10.083  0.3010  0.2253  0.1475
  570MOL0     H78594   4.589   8.905  10.139  0.6319  0.8317 -0.6900
  570MOL0     H78595   4.629   8.664  10.177  0.2317  0.1831  1.0571
  570MOL0     H78596   4.653   8.706  10.000  1.3723  1.4148 -1.3110
  570MOL0     H78597   4.891   8.666  10.019 -0.2411  0.2478 -0.3195
  570MOL0     H78598   4.872   8.664  10.204  0.1398 -2.1255  1.1256
  570MOL0     H78599   4.791   8.446  10.195 -1.3586 -1.6569 -1.3339
  570MOL0     H78600   4.717   8.475  10.036  0.5401  0.5576 -0.6440
  570MOL0     H78601   5.014   8.445  10.098 -4.3326  2.2779  4.1826
  570MOL0     H78602   4.949   8.460   9.935  0.4109  0.6741 -0.0827
  570MOL0     H78603   4.917   8.257  10.140  0.4504 -4.1873 -1.1756
  570MOL0     H78604   4.815   8.242   9.989  0.1344  0.1179 -1.4585
  570MOL0     H78605   5.028   8.228   9.854 -0.7303  0.2758 -0.5518
  570MOL0     H78606   4.996   8.087   9.957 -1.1171  0.8424  0.1743
  570MOL0     H78607   5.182   8.289  10.064 -0.5320 -0.8324  1.5156
  570MOL0     H78608   5.162   8.122  10.107 -0.8189 -0.1091 -0.1270
  570MOL0     H78609   5.413   8.314   9.913  2.0449 -0.6803 -0.8510
  570MOL0     H78610   5.573   8.287   9.724  1.0211 -0.4086 -1.4043
  570MOL0     H78611   5.543   8.155   9.608  0.2627  1.9472  0.0142
  570MOL0     H78612   5.718   8.178   9.845  0.4676  0.0146  0.4722
  570MOL0     H78613   5.678   8.013   9.794  0.6169  0.7307 -0.9934
  570MOL0     H78614   5.763   8.090   9.556  0.2481 -3.9981 -0.0596
  570MOL0     H78615   5.851   8.205   9.665 -2.5081  0.8973  1.0165
  570MOL0     H78616   6.010   8.040   9.711  1.3526 -3.2885  0.9858
  570MOL0     H78617   5.872   7.955   9.783  2.1532 -1.5502  0.1300
  570MOL0     H78618   6.117   7.846   9.776 -1.2647  0.9534 -1.2639
  570MOL0     H78619   6.328   7.763   9.834  1.0194  0.6846 -1.3446
  570MOL0     H78620   6.413   7.642   9.756  1.0096  0.7622  1.9473
  570MOL0     H78621   6.290   7.590   9.878  2.0857  0.6270  0.4302
  570MOL0     H78622   6.385   7.430   9.329  0.8270  0.8635  0.7691
  570MOL0     H78623   6.595   7.332   9.255 -1.6404  1.3306 -0.6168
  570MOL0     H78624   6.797   7.233   9.270  1.0854 -0.4472  0.7785
  570MOL0     H78625   6.867   7.066   9.252 -0.0399 -1.4102 -1.4233
  570MOL0     H78626   6.749   7.015   9.064  1.0259 -0.3936 -2.0770
  570MOL0     H78627   6.647   7.145   9.083  0.6958 -1.1320 -2.9547
  570MOL0     H78628   6.800   7.183   8.901 -0.7257  0.8519  1.2175
  570MOL0     H78629   6.927   7.219   9.024  0.0819  0.6907 -0.4057
  570MOL0     H78630   6.794   7.415   9.105  0.9796  1.6848 -0.3551
  570MOL0     H78631   6.668   7.389   8.983  0.4784  0.7237 -0.6040
  570MOL0     H78632   6.956   7.444   8.944  0.1879  1.3759  0.8258
  570MOL0     H78633   6.850   7.388   8.813 -0.8493 -1.9414  0.6468
  570MOL0     H78634   6.835   7.648   8.973  0.7812 -0.3917  0.6167
  570MOL0     H78635   6.694   7.573   8.887 -0.2692  0.7399  0.1661
  570MOL0     H78636   6.813   7.601   8.672 -0.3765 -1.7193  1.8868
  570MOL0     H78637   6.964   7.610   8.779  0.0040 -3.2172  2.5451
  570MOL0     H78638   6.739   7.819   8.756  0.4338  0.7752 -0.1341
  570MOL0     H78639   6.871   7.823   8.651  1.4019  0.1245  0.4156
  570MOL0     H78640   6.521   6.980   9.489  1.3256  0.5206 -1.4167
  570MOL0     H78641   6.310   7.103   9.588  0.4701  2.5962  2.4368
  570MOL0     H78642   6.059   7.480   9.439  1.6055 -0.6354  0.5943
  570MOL0     H78643   5.900   7.677   9.472  1.4507 -1.4130 -0.5137
  570MOL0     H78644   4.763   8.665  10.422 -1.0988 -0.8834  0.2014
  570MOL0     H78645   4.624   8.617  10.632 -0.0860  0.3930  1.0820
  570MOL0     H78646   4.262   8.624  10.850 -3.4269  3.2085  0.5470
  570MOL0     H78647   4.234   8.449  11.042  2.6827 -2.5428  0.5585
  570MOL0     H78648   4.529   8.437  11.274  0.2523 -0.5796 -0.3312
  570MOL0     H78649   4.470   8.528  11.412 -1.1989  1.1644  0.3772
  570MOL0     H78650   4.409   8.241  11.349  3.3094  0.3160 -1.4689
  570MOL0     H78651   4.343   8.332  11.488 -0.1052  2.5387 -1.6661
  570MOL0     H78652   4.629   8.252  11.425 -1.0666  0.1533 -1.0741
  570MOL0     H78653   4.589   8.363  11.566  0.0915  1.0468 -1.1985
  570MOL0     H78654   4.473   8.191  11.677 -2.9410  0.1564 -1.5062
  570MOL0     H78655   4.636   8.126  11.645 -0.7924  1.4043  0.7049
  570MOL0     H78656   4.387   7.868  11.396  1.1989 -1.7535  2.0178
  570MOL0     H78657   4.449   8.722  11.296 -1.7571  3.4114 -0.1710
  570MOL0     H78658   4.501   8.980  11.086 -1.4727 -0.0406  0.9595
  570MOL0     H78659   4.519   8.909  11.243  2.2455 -0.9111  0.1343
  570MOL0     H78660   4.634   8.865  11.112  0.2002 -0.6245 -0.1338
  571MOL0     O78661   6.909   8.507   1.134  0.4150 -0.5615  0.4074
  571MOL0     C78662   6.998   8.458   1.191 -0.2479 -0.0545 -0.1383
  571MOL0     O78663   7.010   8.327   1.227  0.1391 -0.5752 -0.1849
  571MOL0     C78664   6.893   8.255   1.232 -0.1712  0.1506 -0.4863
  571MOL0     C78665   6.782   8.293   1.308  0.1054  0.1171 -0.2209
  571MOL0     C78666   6.664   8.217   1.292  0.3472  0.5567 -0.0822
  571MOL0     C78667   6.654   8.106   1.211 -0.4001  0.2731 -0.6940
  571MOL0     O78668   6.550   8.022   1.210  0.3414  0.3493  0.3600
  571MOL0     C78669   6.411   8.078   1.199 -0.2283 -0.0110  0.3464
  571MOL0     C78670   6.356   8.014   1.074 -0.9758 -0.1666 -0.3140
  571MOL0     C78671   6.221   8.049   1.040  1.1521 -0.2006 -0.1146
  571MOL0     C78672   6.099   8.026   1.132  0.7338  1.0544  0.2224
  571MOL0     C78673   6.058   7.875   1.133  0.2779  0.1626 -0.1519
  571MOL0     C78674   5.935   7.841   1.225 -0.7018 -0.2813 -1.0801
  571MOL0     C78675   5.945   7.694   1.278  0.3319  0.2487 -0.3425
  571MOL0     C78676   5.866   7.604   1.193 -0.5029  0.8861  0.5471
  571MOL0     N78677   5.927   7.467   1.200  0.1993 -0.6601  0.0122
  571MOL0     C78678   5.920   7.380   1.305 -0.0033 -0.2052 -0.0167
  571MOL0     C78679   6.020   7.284   1.280 -0.8522 -0.5741 -0.4262
  571MOL0     C78680   6.030   7.148   1.353 -0.5591 -0.4384 -0.1182
  571MOL0     C78681   6.168   7.135   1.410 -0.8091  0.2474 -0.2025
  571MOL0     C78682   6.169   7.201   1.548  0.2573 -0.2538 -0.4703
  571MOL0     C78683   6.300   7.207   1.623 -1.0836  0.4658  0.1837
  571MOL0     O78684   6.356   7.074   1.646 -0.0818  0.0652 -0.3640
  571MOL0     C78685   6.479   7.081   1.709 -0.4022 -0.0799 -0.2612
  571MOL0     C78686   6.494   7.004   1.823 -0.7838 -0.1488 -0.8640
  571MOL0     C78687   6.616   6.975   1.881  0.2364  0.6604 -0.8913
  571MOL0     C78688   6.626   6.873   1.990  0.2198  0.0054  0.5849
  571MOL0     C78689   6.735   7.040   1.827  0.4951  1.0250 -0.2792
  571MOL0     C78690   6.872   7.028   1.884 -0.8271 -0.1768 -0.1542
  571MOL0     O78691   6.979   7.065   1.806  0.5261 -0.4445  0.2513
  571MOL0     C78692   7.100   7.093   1.868 -0.1307 -0.6744 -0.3033
  571MOL0     C78693   7.218   7.015   1.847 -0.5067 -0.3492 -0.3274
  571MOL0     C78694   7.343   7.057   1.894 -0.4086  0.4853 -1.2421
  571MOL0     C78695   7.360   7.179   1.970 -0.6836 -0.1817 -0.0006
  571MOL0     O78696   7.487   7.220   1.999 -0.5746 -0.6129  0.0180
  571MOL0     C78697   7.513   7.318   2.090 -0.3948 -0.4782 -0.0629
  571MOL0     C78698   7.659   7.304   2.138  0.2112  0.3554 -0.2659
  571MOL0     C78699   7.698   7.412   2.241  0.8379 -1.4333 -0.2256
  571MOL0     C78700   7.853   7.413   2.250 -0.7426 -0.5212 -0.0248
  571MOL0     C78701   7.900   7.485   2.374  1.2153 -0.6251  0.2016
  571MOL0     C78702   7.848   7.625   2.379  0.9552  0.1839  0.0225
  571MOL0     C78703   7.914   7.721   2.486 -0.1787  0.7815 -0.4915
  571MOL0     C78704   8.053   7.776   2.463  0.6602  0.1959 -0.0343
  571MOL0    Cl78705   8.121   7.867   2.620 -0.3930  0.0941 -0.0853
  571MOL0     C78706   7.243   7.248   2.000  0.5312 -0.0615 -0.9009
  571MOL0     C78707   7.115   7.214   1.944  0.5975 -0.9016  0.6945
  571MOL0     O78708   6.884   7.012   2.006 -0.8433 -0.0734  0.1445
  571MOL0     C78709   6.710   7.121   1.713 -0.6413 -0.1941 -0.3884
  571MOL0     C78710   6.583   7.142   1.649 -0.2714 -1.3397  1.3708
  571MOL0     N78711   6.105   7.332   1.185  0.5503  0.7074  0.3942
  571MOL0     N78712   6.037   7.433   1.125  0.4698  0.3104 -0.1649
  571MOL0     C78713   6.762   8.065   1.143  0.5477  0.5970  0.8128
  571MOL0     C78714   6.881   8.143   1.150  0.2087 -0.7427 -0.0371
  571MOL0     C78715   7.124   8.537   1.208  0.2129 -0.2918  0.2374
  571MOL0     C78716   7.252   8.469   1.217  0.7990  0.2900 -0.0353
  571MOL0     C78717   7.369   8.535   1.249 -0.9494 -0.2910 -0.1773
  571MOL0     C78718   7.371   8.675   1.263  0.1715 -0.8248 -0.6123
  571MOL0     O78719   7.479   8.750   1.301 -0.0043 -0.1298  0.7391
  571MOL0     C78720   7.612   8.688   1.313  0.9164  0.4028 -0.9270
  571MOL0     C78721   7.708   8.789   1.371 -0.2375 -0.5630  0.7082
  571MOL0     C78722   7.826   8.736   1.449  0.3753  1.3217 -0.3367
  571MOL0     C78723   7.831   8.749   1.600 -0.2856 -0.8932 -0.8334
  571MOL0     C78724   7.789   8.883   1.655 -0.0867 -0.1070 -0.4905
  571MOL0     C78725   7.775   8.991   1.702  0.1219  0.1410 -0.1394
  571MOL0     C78726   7.253   8.747   1.234  0.0413  0.6763  1.0885
  571MOL0     C78727   7.135   8.677   1.208 -0.5334  0.2203 -1.0552
  571MOL0     C78728   7.025   8.774   1.174  1.0386 -0.5630  0.1027
  571MOL0     H78729   6.790   8.383   1.368  1.2786  0.4190 -0.8109
  571MOL0     H78730   6.574   8.241   1.349 -1.6003 -2.1077 -1.7925
  571MOL0     H78731   6.419   8.186   1.189 -2.7270  0.6205  3.4853
  571MOL0     H78732   6.358   8.049   1.291  1.4624 -0.2002  1.2994
  571MOL0     H78733   6.409   8.055   0.988 -0.7561 -1.7513 -0.9585
  571MOL0     H78734   6.369   7.906   1.078  1.8296  0.1341  0.0480
  571MOL0     H78735   6.213   8.157   1.021  0.8144  0.0935  1.5343
  571MOL0     H78736   6.202   7.989   0.951 -0.0733 -4.3898  2.6990
  571MOL0     H78737   6.119   8.060   1.234  1.0460 -1.0579  0.9270
  571MOL0     H78738   6.015   8.075   1.083 -0.1477  0.6352  1.2566
  571MOL0     H78739   6.153   7.825   1.152  0.3711  0.0557 -0.8931
  571MOL0     H78740   6.031   7.835   1.035 -0.2194  0.1878 -0.0282
  571MOL0     H78741   5.922   7.912   1.308 -0.1728 -1.2237 -0.1695
  571MOL0     H78742   5.837   7.849   1.178 -0.9721 -1.3327 -0.7264
  571MOL0     H78743   5.891   7.699   1.373  2.9632 -1.4807  1.3603
  571MOL0     H78744   6.047   7.670   1.309 -1.2242 -0.9585  4.8578
  571MOL0     H78745   5.757   7.614   1.200 -0.7664 -0.3951 -0.9781
  571MOL0     H78746   5.871   7.629   1.087  2.1867  0.9845  0.6400
  571MOL0     H78747   5.843   7.376   1.381 -0.5015 -4.9705 -0.4522
  571MOL0     H78748   6.012   7.075   1.274  0.8754  1.1887 -2.0490
  571MOL0     H78749   5.951   7.130   1.426  0.6722  0.3235  1.4594
  571MOL0     H78750   6.207   7.035   1.427 -1.8934 -0.0377  0.7307
  571MOL0     H78751   6.240   7.188   1.347 -0.7845  1.2127  0.6089
  571MOL0     H78752   6.142   7.307   1.542 -1.2204 -0.5566  0.3188
  571MOL0     H78753   6.095   7.150   1.610  1.5700 -2.3880 -0.5700
  571MOL0     H78754   6.374   7.257   1.560 -0.1524  0.1970  1.0314
  571MOL0     H78755   6.291   7.255   1.721 -2.5192 -0.6754  0.6478
  571MOL0     H78756   6.411   6.943   1.857 -1.0141  1.1235  0.9948
  571MOL0     H78757   6.723   6.822   1.999  1.7173  2.8096  1.3487
  571MOL0     H78758   6.541   6.805   1.977 -2.0246  1.9446  3.8667
  571MOL0     H78759   6.606   6.918   2.088 -2.7264  0.2432 -0.0253
  571MOL0     H78760   7.219   6.923   1.788 -2.0401 -1.4897  1.3237
  571MOL0     H78761   7.435   7.001   1.884 -0.4054  0.3551 -0.5186
  571MOL0     H78762   7.512   7.420   2.052  0.8150 -0.4431 -0.0507
  571MOL0     H78763   7.453   7.306   2.181 -0.2598  0.3165  0.1401
  571MOL0     H78764   7.668   7.206   2.184 -2.3077  1.3815  2.8059
  571MOL0     H78765   7.716   7.322   2.047 -2.1659 -1.5801 -2.2900
  571MOL0     H78766   7.654   7.387   2.338 -0.2318  2.5967  0.4910
  571MOL0     H78767   7.664   7.509   2.203 -1.2747 -1.1716  2.0861
  571MOL0     H78768   7.892   7.467   2.163 -2.1556  0.3645 -0.1398
  571MOL0     H78769   7.882   7.307   2.250 -2.3905 -1.0917  2.7105
  571MOL0     H78770   7.858   7.424   2.455  0.6322 -0.1032  0.3038
  571MOL0     H78771   8.009   7.484   2.384  1.2157  0.5878  0.4319
  571MOL0     H78772   7.747   7.601   2.414  0.8819  0.6799  0.1640
  571MOL0     H78773   7.833   7.682   2.286 -2.2694  1.0004  0.9040
  571MOL0     H78774   7.918   7.657   2.574 -1.4755  0.3264 -0.7407
  571MOL0     H78775   7.848   7.806   2.501 -0.3927  0.6044 -0.4306
  571MOL0     H78776   8.056   7.854   2.387  0.3182  0.8122  0.5678
  571MOL0     H78777   8.124   7.702   2.425  1.3206  0.7048  0.1841
  571MOL0     H78778   7.241   7.339   2.060  0.7769 -1.2178  0.9558
  571MOL0     H78779   7.029   7.274   1.973  0.0350 -1.7077  0.7374
  571MOL0     H78780   6.792   7.158   1.652 -1.9143  2.7488 -0.4891
  571MOL0     H78781   6.567   7.195   1.556 -1.8078 -1.1528  1.7128
  571MOL0     H78782   6.762   7.976   1.080 -0.8445 -0.6153  2.4383
  571MOL0     H78783   6.968   8.102   1.099 -1.2429 -2.6288 -1.0943
  571MOL0     H78784   7.249   8.360   1.212 -1.8724  0.2588  0.5441
  571MOL0     H78785   7.452   8.473   1.281  0.8998  2.5675  0.9310
  571MOL0     H78786   7.607   8.601   1.379 -2.2150 -0.6849 -2.3624
  571MOL0     H78787   7.649   8.654   1.216  2.5906  0.8339 -0.4746
  571MOL0     H78788   7.657   8.863   1.433 -0.2503 -0.1278  0.1874
  571MOL0     H78789   7.740   8.849   1.285 -1.8735  0.2797  0.6458
  571MOL0     H78790   7.832   8.628   1.435 -0.0935  1.5266 -2.3843
  571MOL0     H78791   7.920   8.777   1.412  0.5166  0.9208 -0.4261
  571MOL0     H78792   7.934   8.720   1.624  0.6083 -0.0407 -3.3213
  571MOL0     H78793   7.767   8.683   1.659 -1.4512 -0.4006 -1.5147
  571MOL0     H78794   7.771   9.097   1.722 -0.3090  0.1675 -0.3551
  571MOL0     H78795   7.244   8.854   1.250 -3.6311  0.8243 -0.8534
  571MOL0     H78796   7.034   8.879   1.200 -2.8711  0.1659 -0.8553
  571MOL0     H78797   7.007   8.761   1.067 -1.0908  1.6063  0.1269
  571MOL0     H78798   6.933   8.754   1.230  0.0967  0.4735 -1.0247
  572MOL0     O78799  11.013   4.138  10.298  0.1911  0.1168  0.0985
  572MOL0     C78800  11.060   4.033  10.345  0.3626 -0.0442  0.3025
  572MOL0     O78801  11.188   4.009  10.382  0.5480  0.2487 -0.4134
  572MOL0     C78802  11.281   4.107  10.375  0.3863 -0.2507  0.1398
  572MOL0     C78803  11.403   4.057  10.360 -0.4145  0.3167 -0.7770
  572MOL0     C78804  11.516   4.148  10.333  0.7414 -1.1765 -0.5718
  572MOL0     C78805  11.504   4.293  10.357 -1.3581  0.4076  0.2322
  572MOL0     O78806  11.616   4.366  10.338  0.1245  0.5715  0.1443
  572MOL0     C78807  11.676   4.366  10.465 -0.6232  0.6245 -0.0159
  572MOL0     C78808  11.829   4.384  10.434  0.2550  0.3502  0.9476
  572MOL0     C78809  11.862   4.519  10.368  0.4080  0.0643  0.4176
  572MOL0     C78810  12.009   4.540  10.333  0.1876  0.4667 -0.6667
  572MOL0     C78811  12.027   4.672  10.267 -0.1740  0.3491 -1.1586
  572MOL0     C78812  12.162   4.685  10.204  0.4360  0.2490 -0.7081
  572MOL0     C78813  12.212   4.821  10.237  0.5400 -0.1663 -0.0007
  572MOL0     C78814  12.325   4.869  10.145  1.1501 -0.5855  0.0835
  572MOL0     N78815  12.286   4.869  10.001 -0.1898  0.2088  0.6292
  572MOL0     C78816  12.342   4.786   9.903  1.1028  0.2160 -0.0890
  572MOL0     C78817  12.271   4.830   9.789 -0.3496 -0.2314 -0.2321
  572MOL0     C78818  12.285   4.789   9.647  0.0761 -0.4875  0.3288
  572MOL0     C78819  12.212   4.659   9.609  0.2558  0.2941  0.8680
  572MOL0     C78820  12.067   4.648   9.649 -0.1745  0.0606 -0.1015
  572MOL0     C78821  12.055   4.593   9.788 -0.8660  0.0486  0.1152
  572MOL0     O78822  11.918   4.562   9.820  0.1843 -0.1458 -0.2101
  572MOL0     C78823  11.845   4.655   9.895  0.3055  0.4493 -1.7601
  572MOL0     C78824  11.730   4.599   9.954 -1.0368  0.3463 -0.3332
  572MOL0     C78825  11.653   4.661  10.048  0.5790  0.8168 -0.1011
  572MOL0     C78826  11.521   4.583  10.083  0.0918  0.1644 -0.0624
  572MOL0     C78827  11.694   4.783  10.096  0.5442 -1.3544 -0.4072
  572MOL0     C78828  11.617   4.853  10.214  0.4120  0.7838  1.5418
  572MOL0     O78829  11.620   4.990  10.212  0.5886 -1.0241  0.3095
  572MOL0     C78830  11.586   5.068  10.318 -0.6559  0.1774  0.6328
  572MOL0     C78831  11.650   5.190  10.336  0.4050  0.6601 -0.8271
  572MOL0     C78832  11.613   5.280  10.432  1.2234 -0.4412 -0.3474
  572MOL0     C78833  11.500   5.249  10.513 -0.2325 -0.4168  0.2881
  572MOL0     O78834  11.478   5.346  10.612  0.2520 -0.0349  0.4693
  572MOL0     C78835  11.414   5.310  10.735  0.5489  0.0827 -0.5452
  572MOL0     C78836  11.505   5.238  10.833  0.1824 -0.3317  0.6861
  572MOL0     C78837  11.635   5.307  10.834 -0.3082 -0.5854 -0.1119
  572MOL0     C78838  11.717   5.211  10.919  0.6261  1.3939 -0.5056
  572MOL0     C78839  11.859   5.276  10.950 -0.5412 -0.1207  0.3598
  572MOL0     C78840  11.961   5.182  11.012 -0.6216 -0.0080  0.4455
  572MOL0     C78841  12.078   5.262  11.062 -0.2143  0.5207  0.4978
  572MOL0     C78842  12.178   5.283  10.950  0.3809  0.1079  0.2190
  572MOL0    Cl78843  12.315   5.389  11.009  0.2306 -0.1603  0.3140
  572MOL0     C78844  11.436   5.122  10.501  0.2025 -0.7390  0.2068
  572MOL0     C78845  11.467   5.044  10.396 -0.3546  0.7959  1.2709
  572MOL0     O78846  11.571   4.785  10.298 -0.6096  0.1308  0.0981
  572MOL0     C78847  11.804   4.844  10.030  1.5598 -0.2663  0.3116
  572MOL0     C78848  11.885   4.780   9.934 -0.1053 -0.1032  0.8042
  572MOL0     N78849  12.180   4.925   9.829 -0.5309  0.1282 -0.9103
  572MOL0     N78850  12.202   4.962   9.943  0.4108 -0.2616  0.0668
  572MOL0     C78851  11.379   4.342  10.379  0.0651 -0.8309  0.2656
  572MOL0     C78852  11.268   4.248  10.379 -0.2305 -0.4531 -0.3898
  572MOL0     C78853  10.956   3.925  10.360 -0.7880 -0.3200 -0.3660
  572MOL0     C78854  11.009   3.796  10.350  0.6648  0.5088 -0.1493
  572MOL0     C78855  10.929   3.687  10.384  0.0961 -0.2114  0.6205
  572MOL0     C78856  10.795   3.699  10.409  0.0436  0.8186  0.4802
  572MOL0     O78857  10.729   3.578  10.425 -0.6401 -0.5432 -0.1409
  572MOL0     C78858  10.591   3.582  10.420 -0.1672  0.5891 -0.6231
  572MOL0     C78859  10.539   3.439  10.447 -0.7314 -0.9184  0.7831
  572MOL0     C78860  10.389   3.434  10.482  0.2922 -0.7021 -0.3918
  572MOL0     C78861  10.337   3.290  10.529 -0.8140 -0.1198  0.0316
  572MOL0     C78862  10.249   3.305  10.643  0.0943  1.5515  1.5827
  572MOL0     C78863  10.167   3.301  10.737 -0.6754  0.0360  0.4779
  572MOL0     C78864  10.739   3.825  10.407 -0.5412 -0.1922 -0.8199
  572MOL0     C78865  10.819   3.944  10.386 -0.3793  0.8341 -0.3498
  572MOL0     C78866  10.752   4.077  10.402  0.5937 -0.3435 -0.1016
  572MOL0     H78867  11.417   3.950  10.365 -0.2166  0.3791  3.7827
  572MOL0     H78868  11.619   4.120  10.317  0.3554 -1.1810 -3.8431
  572MOL0     H78869  11.671   4.270  10.519 -1.0576 -1.2577 -3.1194
  572MOL0     H78870  11.637   4.453  10.518 -0.5503 -0.9600  2.8560
  572MOL0     H78871  11.882   4.377  10.530  0.6883 -0.7844  0.6351
  572MOL0     H78872  11.860   4.307  10.364  2.0390  0.8092  1.1690
  572MOL0     H78873  11.797   4.531  10.280 -0.5933  0.2860  1.1684
  572MOL0     H78874  11.820   4.593  10.436  0.5025  0.7834 -0.2878
  572MOL0     H78875  12.068   4.521  10.423  1.3984 -1.5792 -1.8200
  572MOL0     H78876  12.038   4.463  10.261  0.2013 -1.3769  1.2186
  572MOL0     H78877  12.011   4.755  10.336  2.2873  0.5435 -0.7127
  572MOL0     H78878  11.946   4.678  10.194 -2.5842 -2.6358  1.0332
  572MOL0     H78879  12.226   4.604  10.240 -1.1759 -0.3185  1.0345
  572MOL0     H78880  12.160   4.671  10.095  2.9795 -0.0604 -0.7651
  572MOL0     H78881  12.247   4.822  10.340 -1.6809 -3.0864  0.9067
  572MOL0     H78882  12.133   4.897  10.231 -1.4220 -2.2256 -2.5402
  572MOL0     H78883  12.357   4.972  10.164  0.7318 -0.2467 -0.9965
  572MOL0     H78884  12.418   4.814  10.156  0.3025 -2.5665 -1.8323
  572MOL0     H78885  12.418   4.708   9.912  1.3459  0.4372 -0.2115
  572MOL0     H78886  12.390   4.787   9.614 -0.1380  1.1049 -0.5995
  572MOL0     H78887  12.241   4.866   9.583  2.2954  0.5653 -0.0446
  572MOL0     H78888  12.205   4.648   9.500 -1.9628 -0.3531  1.0334
  572MOL0     H78889  12.269   4.574   9.649  3.0374  2.4845  1.8985
  572MOL0     H78890  12.031   4.751   9.659  1.9978  0.8021  0.7383
  572MOL0     H78891  12.007   4.586   9.582 -0.5849  1.0253 -0.6592
  572MOL0     H78892  12.113   4.500   9.788  2.2406  1.8526  0.1513
  572MOL0     H78893  12.096   4.659   9.865 -0.6227  0.0503 -0.0149
  572MOL0     H78894  11.699   4.503   9.915  3.0338 -1.5739  0.6946
  572MOL0     H78895  11.511   4.541  10.184 -0.1737  1.1636  0.3410
  572MOL0     H78896  11.498   4.507  10.007  1.6905 -0.8205  0.4020
  572MOL0     H78897  11.438   4.654  10.084 -0.3321 -0.3287  0.5815
  572MOL0     H78898  11.738   5.200  10.274 -0.1079  1.1962 -1.4878
  572MOL0     H78899  11.671   5.372  10.433  0.3504  0.1715 -2.0210
  572MOL0     H78900  11.389   5.405  10.782  1.0931 -0.0062 -0.0554
  572MOL0     H78901  11.320   5.260  10.712  1.3612 -1.5045 -0.5575
  572MOL0     H78902  11.454   5.235  10.929  0.7813 -1.0231  0.9888
  572MOL0     H78903  11.518   5.135  10.800 -1.8324  0.5937 -3.9223
  572MOL0     H78904  11.632   5.402  10.888  1.6359 -0.7244  0.3329
  572MOL0     H78905  11.685   5.334  10.740 -2.4553  0.2972 -1.0509
  572MOL0     H78906  11.736   5.114  10.872  0.8762  0.3956  1.5433
  572MOL0     H78907  11.668   5.194  11.016  1.0093 -2.6203 -0.8542
  572MOL0     H78908  11.898   5.325  10.860 -1.1768 -0.3391 -0.0417
  572MOL0     H78909  11.846   5.361  11.019  2.0934  1.1332 -0.5349
  572MOL0     H78910  11.992   5.109  10.937  2.9045 -0.7370  2.4178
  572MOL0     H78911  11.910   5.119  11.085 -1.6487  0.3124  0.0256
  572MOL0     H78912  12.125   5.200  11.138  0.5399 -0.0097 -0.3872
  572MOL0     H78913  12.060   5.357  11.114  1.8553  0.1479  2.0107
  572MOL0     H78914  12.129   5.331  10.865  1.4076  1.4055  0.3289
  572MOL0     H78915  12.208   5.182  10.920  0.1384  0.5517 -1.6123
  572MOL0     H78916  11.351   5.091  10.561 -0.9702  1.5059 -0.1836
  572MOL0     H78917  11.403   4.959  10.375  1.2063 -0.2094  0.3198
  572MOL0     H78918  11.827   4.947  10.055  0.4533  0.1168 -0.1783
  572MOL0     H78919  11.969   4.834   9.890 -2.6566  2.9136 -0.7961
  572MOL0     H78920  11.370   4.448  10.403  1.0256 -1.0750  1.8748
  572MOL0     H78921  11.172   4.297  10.383  0.9739  1.9993  0.2835
  572MOL0     H78922  11.115   3.780  10.338  0.4990 -0.2415 -0.7091
  572MOL0     H78923  10.969   3.586  10.387  1.3831  0.3158  1.8038
  572MOL0     H78924  10.549   3.647  10.496 -0.9049  0.9699 -1.3482
  572MOL0     H78925  10.553   3.618  10.324 -1.4976 -0.5690 -0.5649
  572MOL0     H78926  10.599   3.403  10.531  0.3693 -1.0261 -0.0283
  572MOL0     H78927  10.554   3.382  10.355 -2.1360 -0.3935  0.1912
  572MOL0     H78928  10.351   3.507  10.555 -2.9167 -0.5257 -2.0675
  572MOL0     H78929  10.332   3.472  10.398 -1.1366  0.4448  1.0343
  572MOL0     H78930  10.424   3.234  10.562 -0.9408 -0.6026 -0.4352
  572MOL0     H78931  10.297   3.235  10.443  1.6460 -0.8183 -0.7469
  572MOL0     H78932  10.109   3.293  10.827 -1.8139 -1.1176 -0.3314
  572MOL0     H78933  10.640   3.843  10.448 -0.8469 -0.2745 -1.5056
  572MOL0     H78934  10.789   4.123  10.494 -1.2301 -3.6132  2.5156
  572MOL0     H78935  10.770   4.143  10.317  2.6231 -0.3202  0.3089
  572MOL0     H78936  10.644   4.060  10.410  0.3171  0.7388 -1.2685
  573MOL0     O78937  10.449   6.872   4.285 -0.4935  0.6090 -0.4291
  573MOL0     C78938  10.332   6.844   4.315 -0.2646  0.6475 -0.0014
  573MOL0     O78939  10.219   6.854   4.239 -0.1956  0.6017  0.5381
  573MOL0     C78940  10.246   6.844   4.100  0.3747 -0.2048 -0.7516
  573MOL0     C78941  10.317   6.946   4.030 -0.7891  0.7892  0.1342
  573MOL0     C78942  10.340   6.917   3.895  0.1607  0.0720 -0.8249
  573MOL0     C78943  10.288   6.803   3.828  0.5844 -0.6082  0.2785
  573MOL0     O78944  10.305   6.784   3.693 -0.3486  0.0016  0.0670
  573MOL0     C78945  10.184   6.784   3.621 -0.3187  0.3361 -0.5490
  573MOL0     C78946  10.194   6.893   3.516  1.0407 -0.1396 -0.1111
  573MOL0     C78947  10.072   6.907   3.426  0.0022 -0.1098 -0.0065
  573MOL0     C78948  10.101   7.023   3.326  0.6292 -0.0545 -0.5170
  573MOL0     C78949   9.972   7.050   3.249  0.2018  0.1447  0.0044
  573MOL0     C78950   9.880   6.934   3.206 -0.3966 -0.4567 -0.3551
  573MOL0     C78951   9.758   6.984   3.137 -0.8456  0.6706 -0.1989
  573MOL0     C78952   9.683   7.105   3.198  1.0457 -0.2450 -0.3415
  573MOL0     N78953   9.552   7.114   3.139  0.9179  0.3152 -0.4603
  573MOL0     C78954   9.540   7.116   3.006 -0.7890 -0.1930 -0.6124
  573MOL0     C78955   9.413   7.144   2.978 -0.3765 -1.4264  0.4387
  573MOL0     C78956   9.356   7.181   2.845 -0.2004 -0.7801 -0.5088
  573MOL0     C78957   9.443   7.265   2.750  0.4972  0.6959  0.2631
  573MOL0     C78958   9.440   7.415   2.765 -0.7578  0.7398  0.6453
  573MOL0     C78959   9.516   7.467   2.888  0.4382  0.4618 -0.2381
  573MOL0     O78960   9.654   7.429   2.879 -0.7243 -0.4546 -0.2523
  573MOL0     C78961   9.736   7.445   2.983  0.5807  0.9981 -1.3976
  573MOL0     C78962   9.871   7.449   2.960  0.2989  0.4835 -0.3776
  573MOL0     C78963   9.966   7.441   3.064 -0.2151  0.3732  0.2144
  573MOL0     C78964  10.114   7.438   3.020 -0.4451  0.1644 -0.3009
  573MOL0     C78965   9.929   7.457   3.199  0.0389 -0.1818  0.6470
  573MOL0     C78966  10.023   7.456   3.327  0.4152  0.7129 -0.5960
  573MOL0     O78967  10.157   7.443   3.320 -0.5637 -0.1921  0.7140
  573MOL0     C78968  10.232   7.401   3.429  0.6704 -0.0925  0.7699
  573MOL0     C78969  10.184   7.332   3.541  0.6449  0.7181 -0.1808
  573MOL0     C78970  10.259   7.284   3.644 -0.6426 -0.0057  1.0889
  573MOL0     C78971  10.397   7.309   3.641 -0.7729  0.3009 -0.4121
  573MOL0     O78972  10.481   7.270   3.741 -0.1799 -0.1227  0.0620
  573MOL0     C78973  10.443   7.283   3.880  0.6438 -0.1837 -0.0221
  573MOL0     C78974  10.565   7.288   3.971  0.1059  0.5814  0.0145
  573MOL0     C78975  10.645   7.162   3.968 -0.5248  0.1182 -0.0509
  573MOL0     C78976  10.768   7.159   4.064  0.1273  0.6203  0.6272
  573MOL0     C78977  10.841   7.024   4.042 -0.2805  0.2137  0.6248
  573MOL0     C78978  10.960   7.010   4.141  0.4013 -0.5606  0.5063
  573MOL0     C78979  10.928   6.979   4.288  0.1686 -0.0637  0.5557
  573MOL0     C78980  11.045   6.972   4.389 -0.2652  0.2995 -0.1104
  573MOL0    Cl78981  11.189   6.886   4.322 -0.0008 -0.5744 -0.0468
  573MOL0     C78982  10.455   7.377   3.524 -0.7088 -0.2660 -0.0028
  573MOL0     C78983  10.368   7.426   3.428 -0.1913 -0.9436 -0.8505
  573MOL0     O78984   9.960   7.489   3.427 -0.0668 -0.5627 -0.2853
  573MOL0     C78985   9.789   7.450   3.220 -0.2260 -1.0251 -0.4457
  573MOL0     C78986   9.699   7.441   3.115 -0.4631 -0.5326  0.9178
  573MOL0     N78987   9.345   7.145   3.102 -0.1022  0.1804  0.1723
  573MOL0     N78988   9.427   7.126   3.199 -0.4196  0.1162  0.3971
  573MOL0     C78989  10.214   6.715   3.903 -0.4571  0.2001  0.0220
  573MOL0     C78990  10.195   6.732   4.039 -0.4810  0.4328 -0.0854
  573MOL0     C78991  10.308   6.813   4.454  0.3810 -0.9482 -0.1277
  573MOL0     C78992  10.187   6.867   4.519 -0.1183  0.4542  0.0698
  573MOL0     C78993  10.149   6.846   4.653  0.2583  0.0566 -0.2020
  573MOL0     C78994  10.250   6.784   4.731 -0.1049 -0.5775  0.7003
  573MOL0     O78995  10.247   6.763   4.865  0.8260  0.3985  0.3550
  573MOL0     C78996  10.148   6.820   4.941 -0.3595 -0.8348  0.5861
  573MOL0     C78997  10.170   6.796   5.094  0.3187  0.3585 -0.4489
  573MOL0     C78998  10.312   6.836   5.131 -0.5104 -0.0989 -0.0730
  573MOL0     C78999  10.360   6.818   5.272  0.1536 -1.0669 -1.1391
  573MOL0     C79000  10.266   6.858   5.378  1.7988 -0.7220  0.4279
  573MOL0     C79001  10.193   6.881   5.473  0.0167  0.3124  0.1089
  573MOL0     C79002  10.371   6.743   4.667 -0.0568 -1.4881  0.0911
  573MOL0     C79003  10.395   6.749   4.536 -0.6081  0.5989  0.8703
  573MOL0     C79004  10.516   6.674   4.472 -1.0828  0.2021  0.2164
  573MOL0     H79005  10.375   7.020   4.085 -0.7084  1.0164 -0.2498
  573MOL0     H79006  10.403   6.975   3.829  2.2527 -1.0637  0.0589
  573MOL0     H79007  10.096   6.803   3.683  0.6896 -1.3416  1.5423
  573MOL0     H79008  10.169   6.690   3.568  4.1920 -2.6733  2.6978
  573MOL0     H79009  10.207   6.987   3.570  1.3916 -0.2136 -0.0687
  573MOL0     H79010  10.278   6.875   3.449  1.2881 -0.4440  0.2720
  573MOL0     H79011  10.069   6.814   3.368  0.9595 -1.0739  1.4447
  573MOL0     H79012   9.975   6.928   3.471 -1.6531  3.2218 -4.3465
  573MOL0     H79013  10.133   7.108   3.388  1.8729 -0.7050 -0.2188
  573MOL0     H79014  10.182   7.000   3.256  0.2846 -3.5290  0.0212
  573MOL0     H79015   9.993   7.104   3.156  2.9549  1.9590  1.5215
  573MOL0     H79016   9.921   7.130   3.303 -0.5711  0.4275 -1.0947
  573MOL0     H79017   9.933   6.870   3.134 -1.5256 -2.5323  0.5773
  573MOL0     H79018   9.845   6.868   3.286  2.8574 -0.2907  1.3823
  573MOL0     H79019   9.695   6.895   3.129 -2.1945  1.4446  1.3106
  573MOL0     H79020   9.787   7.021   3.038  2.2646 -0.7869  0.0304
  573MOL0     H79021   9.663   7.105   3.305 -1.3310  2.4032 -0.6746
  573MOL0     H79022   9.741   7.198   3.193  3.5565 -1.2337  4.3542
  573MOL0     H79023   9.623   7.113   2.936 -1.0725 -1.4448 -0.9200
  573MOL0     H79024   9.261   7.233   2.861 -0.4167 -1.5087  0.7692
  573MOL0     H79025   9.333   7.085   2.797 -2.3917  0.0336 -1.2264
  573MOL0     H79026   9.548   7.236   2.744 -0.6085 -3.7787 -0.9489
  573MOL0     H79027   9.401   7.227   2.656 -2.4679 -0.4873  1.9137
  573MOL0     H79028   9.497   7.443   2.677  1.0794 -0.3655  1.4293
  573MOL0     H79029   9.340   7.459   2.760 -0.9067  0.6122  1.9868
  573MOL0     H79030   9.498   7.574   2.900 -1.9087  0.1408 -0.4625
  573MOL0     H79031   9.473   7.424   2.979  1.5463  1.6969  0.9038
  573MOL0     H79032   9.898   7.449   2.855 -1.4790 -0.8802 -0.8921
  573MOL0     H79033  10.165   7.354   3.068  0.8129 -0.3513 -2.4145
  573MOL0     H79034  10.164   7.526   3.062  1.4729 -1.6333  1.4209
  573MOL0     H79035  10.118   7.429   2.911 -1.6698 -0.1837 -0.3333
  573MOL0     H79036  10.079   7.304   3.545  0.0075  2.7481 -1.1831
  573MOL0     H79037  10.216   7.224   3.724  1.1324 -0.5343  1.6896
  573MOL0     H79038  10.393   7.379   3.894  0.7270 -0.5052  3.2036
  573MOL0     H79039  10.388   7.191   3.903  0.1681 -0.9284 -3.5635
  573MOL0     H79040  10.625   7.373   3.938 -0.3629  0.1395 -2.1433
  573MOL0     H79041  10.538   7.315   4.073  0.6219  3.4139 -0.5225
  573MOL0     H79042  10.672   7.121   3.870  2.4760 -0.8064  1.0429
  573MOL0     H79043  10.571   7.086   3.996 -0.7387  0.1211 -0.5960
  573MOL0     H79044  10.736   7.173   4.168 -2.2312  1.5070 -0.1597
  573MOL0     H79045  10.838   7.240   4.039 -0.6795  0.5469 -2.1800
  573MOL0     H79046  10.777   6.936   4.045  0.9355 -0.7056  0.4874
  573MOL0     H79047  10.887   7.040   3.944 -1.9120  3.3771  0.2206
  573MOL0     H79048  11.002   7.111   4.131 -1.1374  0.2069  1.4747
  573MOL0     H79049  11.044   6.945   4.114  1.4834  1.2461 -0.7448
  573MOL0     H79050  10.864   6.890   4.284  1.1760 -0.7607 -0.6708
  573MOL0     H79051  10.860   7.059   4.321 -0.4028 -0.3576  0.1057
  573MOL0     H79052  11.009   6.900   4.463 -0.5203 -1.1773 -1.6124
  573MOL0     H79053  11.082   7.067   4.429 -0.3306 -0.1430  1.0338
  573MOL0     H79054  10.562   7.392   3.519 -0.5561 -1.3714 -0.3485
  573MOL0     H79055  10.418   7.491   3.357  1.1996  0.2488  1.1214
  573MOL0     H79056   9.749   7.456   3.321 -0.3768 -1.9284 -0.4449
  573MOL0     H79057   9.593   7.444   3.138 -0.8039  2.4647 -0.5303
  573MOL0     H79058  10.161   6.643   3.841  4.2297 -1.6036 -2.4294
  573MOL0     H79059  10.132   6.663   4.096 -2.7413  3.5898  1.5823
  573MOL0     H79060  10.113   6.929   4.468  0.4481  2.6066  1.6862
  573MOL0     H79061  10.052   6.889   4.673  0.8867  2.1889 -1.4466
  573MOL0     H79062  10.167   6.926   4.923 -0.4639 -1.2638 -2.5226
  573MOL0     H79063  10.053   6.788   4.897 -0.5208 -0.4232  0.6218
  573MOL0     H79064  10.147   6.693   5.123 -0.1496  0.7336  0.5708
  573MOL0     H79065  10.097   6.858   5.148  1.8254 -0.0220  2.1889
  573MOL0     H79066  10.394   6.794   5.073 -1.0169 -2.0466  0.5616
  573MOL0     H79067  10.310   6.945   5.117  0.6233  0.0743  0.9541
  573MOL0     H79068  10.454   6.872   5.284  0.1775 -1.2779 -0.3082
  573MOL0     H79069  10.382   6.714   5.298  1.1474 -0.1394  2.1431
  573MOL0     H79070  10.130   6.906   5.556  0.0015 -1.9194  0.8165
  573MOL0     H79071  10.448   6.699   4.730  1.0166 -1.1582 -0.9509
  573MOL0     H79072  10.558   6.605   4.547 -0.3237  1.7048  1.2188
  573MOL0     H79073  10.486   6.615   4.385 -1.3021 -1.3396  1.2886
  573MOL0     H79074  10.599   6.741   4.451 -0.4330  0.4579  3.1266
  574MOL0     O79075   0.215   2.014   2.196 -1.8606  0.7301  0.3797
  574MOL0     C79076   0.208   1.897   2.174 -0.1734  0.6411  0.4930
  574MOL0     O79077   0.324   1.806   2.158  0.1075 -0.2604 -0.2837
  574MOL0     C79078   0.442   1.869   2.193 -0.4345  0.5304  0.4012
  574MOL0     C79079   0.511   1.951   2.110  0.7869 -0.9553 -0.3221
  574MOL0     C79080   0.626   2.015   2.148 -0.0919  0.4458  0.0063
  574MOL0     C79081   0.673   2.006   2.282  0.5663 -0.1467  0.1878
  574MOL0     O79082   0.799   2.060   2.293  0.3759 -0.3597  0.0923
  574MOL0     C79083   0.809   2.162   2.392  0.2656 -0.2159 -0.1688
  574MOL0     C79084   0.955   2.219   2.400 -0.0106  0.2008  0.4674
  574MOL0     C79085   1.049   2.103   2.436  0.5156  0.7113 -1.0045
  574MOL0     C79086   1.124   2.038   2.324 -0.3719  1.0280  0.7873
  574MOL0     C79087   1.152   1.893   2.375 -0.0265  0.0437  0.7430
  574MOL0     C79088   1.247   1.893   2.502  0.3230 -1.6943 -0.0621
  574MOL0     C79089   1.322   1.763   2.529  0.2147 -0.2461  0.4098
  574MOL0     C79090   1.222   1.650   2.559  1.5765  0.7377  0.0519
  574MOL0     N79091   1.297   1.519   2.551 -0.0758  1.5356  0.7343
  574MOL0     C79092   1.356   1.473   2.664 -0.0361  0.7431 -0.3005
  574MOL0     C79093   1.399   1.353   2.619  0.1202 -1.1836  0.1726
  574MOL0     C79094   1.471   1.261   2.704 -0.8122 -0.1040 -0.0683
  574MOL0     C79095   1.606   1.307   2.773  0.5094 -1.0305 -0.9326
  574MOL0     C79096   1.723   1.353   2.686 -0.0398 -0.2032 -0.4804
  574MOL0     C79097   1.712   1.494   2.614 -0.3392  0.2575  0.3433
  574MOL0     O79098   1.675   1.593   2.712 -0.4536 -0.2917 -0.5925
  574MOL0     C79099   1.683   1.724   2.675 -0.5122 -0.4402 -0.1439
  574MOL0     C79100   1.709   1.812   2.774  0.4515 -0.4442 -1.4522
  574MOL0     C79101   1.705   1.954   2.752 -0.7443  0.0876  0.6287
  574MOL0     C79102   1.723   2.047   2.858 -0.5797 -0.2544  0.3558
  574MOL0     C79103   1.685   1.995   2.613  0.9996 -0.7301 -0.6579
  574MOL0     C79104   1.660   2.139   2.581 -0.5676 -0.6768 -0.1941
  574MOL0     O79105   1.574   2.161   2.476  0.7862 -0.0472  0.2377
  574MOL0     C79106   1.498   2.278   2.470  0.1778 -0.3902  0.0237
  574MOL0     C79107   1.513   2.392   2.552  0.4576  0.2913  0.5974
  574MOL0     C79108   1.439   2.516   2.515 -0.6796  0.0621  0.1766
  574MOL0     C79109   1.356   2.521   2.405 -0.2756 -0.4012 -0.5079
  574MOL0     O79110   1.305   2.647   2.376 -0.1868 -0.0904  1.1468
  574MOL0     C79111   1.255   2.674   2.246  0.1089 -0.1534 -0.2415
  574MOL0     C79112   1.106   2.708   2.244  0.0286  0.6574  0.2738
  574MOL0     C79113   1.059   2.674   2.104 -0.5830 -0.9792  0.0797
  574MOL0     C79114   1.102   2.779   1.998 -0.0956 -0.5459  0.2118
  574MOL0     C79115   1.062   2.763   1.847  0.3354 -0.6107 -0.1304
  574MOL0     C79116   0.911   2.758   1.812  0.4249  0.1534  0.6170
  574MOL0     C79117   0.835   2.866   1.886  0.3164 -0.2369 -0.0246
  574MOL0     C79118   0.701   2.894   1.817  0.4131 -0.1265  0.4207
  574MOL0    Cl79119   0.738   2.995   1.670 -0.2312  0.0716  0.5099
  574MOL0     C79120   1.341   2.399   2.333 -0.8686 -1.3484  0.5981
  574MOL0     C79121   1.412   2.280   2.361 -0.7207 -0.3835 -0.4001
  574MOL0     O79122   1.727   2.225   2.634  0.2450 -0.2918  0.0248
  574MOL0     C79123   1.664   1.901   2.510 -0.8828 -0.4630 -0.1184
  574MOL0     C79124   1.676   1.769   2.542 -0.0718 -0.1975 -0.6441
  574MOL0     N79125   1.371   1.335   2.488 -0.5833  0.5355  0.4066
  574MOL0     N79126   1.289   1.430   2.450 -0.2420  0.5379  0.0587
  574MOL0     C79127   0.591   1.934   2.373 -0.1223 -0.4137  0.1082
  574MOL0     C79128   0.479   1.864   2.329 -0.2996 -0.4928  0.5318
  574MOL0     C79129   0.078   1.859   2.128  0.7387  0.1992 -1.0216
  574MOL0     C79130   0.072   1.757   2.034  0.5063 -0.4593 -0.5616
  574MOL0     C79131  -0.052   1.696   2.001 -0.2448  0.4239 -0.7807
  574MOL0     C79132  -0.170   1.735   2.061 -0.3565 -0.4128  0.0674
  574MOL0     O79133  -0.290   1.679   2.030  0.0602  0.8945 -0.5105
  574MOL0     C79134  -0.287   1.555   1.974 -0.0351  0.5292 -0.3712
  574MOL0     C79135  -0.423   1.488   2.006  0.7777 -0.3933  0.2244
  574MOL0     C79136  -0.446   1.484   2.162  0.2531  0.3095 -0.1640
  574MOL0     C79137  -0.565   1.395   2.179 -0.1434 -0.3501 -0.1544
  574MOL0     C79138  -0.615   1.391   2.313 -1.1784  0.9776 -0.1230
  574MOL0     C79139  -0.673   1.374   2.422  0.3305  0.0190  0.8502
  574MOL0     C79140  -0.161   1.835   2.164 -0.0037 -0.1947 -0.4478
  574MOL0     C79141  -0.047   1.906   2.192 -0.9408 -0.2361  0.4863
  574MOL0     C79142  -0.059   2.012   2.289 -0.2924  0.5517 -0.3518
  574MOL0     H79143   0.468   1.960   2.011  0.0165 -1.8596 -0.0923
  574MOL0     H79144   0.689   2.052   2.067 -1.9633 -0.8787 -2.2038
  574MOL0     H79145   0.809   2.121   2.493  1.6023 -1.0246 -0.4773
  574MOL0     H79146   0.729   2.236   2.400 -0.2602 -1.0115  3.6033
  574MOL0     H79147   0.985   2.280   2.315  3.9976 -2.0069  0.0702
  574MOL0     H79148   0.959   2.291   2.483  0.4163  2.2483 -1.2497
  574MOL0     H79149   1.124   2.137   2.508 -1.6356 -1.3419  2.4738
  574MOL0     H79150   0.993   2.030   2.494  0.5561  2.0979  0.8638
  574MOL0     H79151   1.062   2.036   2.234  0.7864 -0.2749 -0.0164
  574MOL0     H79152   1.217   2.090   2.298  0.5686 -1.5644 -1.5627
  574MOL0     H79153   1.185   1.838   2.286 -1.4819  3.0984 -1.8971
  574MOL0     H79154   1.061   1.843   2.408 -0.9838 -1.9086 -4.0311
  574MOL0     H79155   1.320   1.974   2.496 -2.7465  1.5366  1.9564
  574MOL0     H79156   1.189   1.921   2.590 -0.3300  0.0577 -1.0091
  574MOL0     H79157   1.388   1.764   2.616  0.7367 -2.5498  0.1193
  574MOL0     H79158   1.381   1.735   2.442 -1.6197  2.0867 -1.7433
  574MOL0     H79159   1.179   1.662   2.659 -0.7387 -2.0546 -0.4688
  574MOL0     H79160   1.138   1.636   2.491  1.5807 -0.6509  0.3048
  574MOL0     H79161   1.367   1.514   2.764 -0.1646  0.6737 -0.2581
  574MOL0     H79162   1.492   1.171   2.644 -1.3802 -0.2632 -0.0348
  574MOL0     H79163   1.405   1.234   2.787  1.1804  2.1949  2.4311
  574MOL0     H79164   1.571   1.388   2.837 -1.4412 -0.3805 -2.7451
  574MOL0     H79165   1.635   1.225   2.840 -2.4392 -1.8255 -0.4922
  574MOL0     H79166   1.812   1.360   2.750  0.8382  1.3558 -1.8022
  574MOL0     H79167   1.738   1.278   2.608  0.0489 -2.5519  1.6412
  574MOL0     H79168   1.801   1.525   2.559 -0.7659  0.9691  0.0421
  574MOL0     H79169   1.628   1.489   2.544  1.4998 -2.5043 -1.8693
  574MOL0     H79170   1.711   1.783   2.879 -0.0806 -0.4847 -1.4464
  574MOL0     H79171   1.630   2.103   2.866 -1.0188 -1.2887  5.5547
  574MOL0     H79172   1.810   2.111   2.840 -1.0705  0.9382  1.9946
  574MOL0     H79173   1.733   2.002   2.957 -1.3276  1.3597  1.1895
  574MOL0     H79174   1.551   2.387   2.654 -1.5467 -0.5776  1.3516
  574MOL0     H79175   1.435   2.607   2.573 -0.5021  2.3329 -3.0751
  574MOL0     H79176   1.294   2.766   2.201 -2.9163  0.4595 -1.8900
  574MOL0     H79177   1.283   2.598   2.173 -1.3620 -0.7312 -0.2365
  574MOL0     H79178   1.048   2.642   2.310  0.5746 -0.8145 -0.6610
  574MOL0     H79179   1.092   2.815   2.259  1.3878  1.2237 -1.9897
  574MOL0     H79180   0.951   2.670   2.118 -0.3918  1.3317  3.6078
  574MOL0     H79181   1.092   2.576   2.070 -0.9500 -1.0685 -0.0245
  574MOL0     H79182   1.210   2.790   1.991  0.1799 -2.3828  0.9536
  574MOL0     H79183   1.061   2.873   2.035 -1.3622 -0.9466 -0.1131
  574MOL0     H79184   1.094   2.854   1.794 -0.4558 -1.0006 -1.3184
  574MOL0     H79185   1.109   2.675   1.803 -4.3269 -1.9564 -3.1194
  574MOL0     H79186   0.874   2.658   1.837  1.6277  0.0119  1.9575
  574MOL0     H79187   0.911   2.768   1.703  0.5280  2.3045  0.7750
  574MOL0     H79188   0.903   2.952   1.883 -1.8764  1.6644  0.9949
  574MOL0     H79189   0.823   2.830   1.988  2.2346 -0.2479  0.2319
  574MOL0     H79190   0.627   2.948   1.877 -0.8491  0.8713 -1.9170
  574MOL0     H79191   0.654   2.800   1.786  1.0089 -0.6931  1.1896
  574MOL0     H79192   1.282   2.402   2.242 -2.6645  3.6885  1.6177
  574MOL0     H79193   1.395   2.198   2.292 -0.0016 -0.0494 -0.9877
  574MOL0     H79194   1.627   1.938   2.415 -1.9521  1.3870  0.9493
  574MOL0     H79195   1.659   1.696   2.463  0.4616  0.1453 -1.0851
  574MOL0     H79196   0.617   1.937   2.478 -0.7074  1.1812  0.2271
  574MOL0     H79197   0.426   1.808   2.406 -1.5465 -1.0233 -0.6609
  574MOL0     H79198   0.161   1.720   1.983 -0.1650 -0.4810 -1.7421
  574MOL0     H79199  -0.030   1.628   1.919  1.9616  0.8309 -0.5828
  574MOL0     H79200  -0.258   1.565   1.869  0.8141 -0.1347 -0.2070
  574MOL0     H79201  -0.215   1.493   2.027  1.3417  1.4206 -1.1591
  574MOL0     H79202  -0.420   1.382   1.977  3.2532 -0.0619 -0.9844
  574MOL0     H79203  -0.503   1.533   1.947 -0.0265 -0.9352  0.8853
  574MOL0     H79204  -0.357   1.441   2.210  2.8383  2.9125 -2.3142
  574MOL0     H79205  -0.462   1.587   2.196  1.4059  0.4380  0.0598
  574MOL0     H79206  -0.521   1.303   2.139  1.7264  0.0783  0.8242
  574MOL0     H79207  -0.647   1.427   2.114 -2.1359 -2.3851  1.2064
  574MOL0     H79208  -0.727   1.371   2.515  3.8154 -1.6046  3.0359
  574MOL0     H79209  -0.252   1.853   2.221 -0.1705 -0.4944 -0.6120
  574MOL0     H79210  -0.016   2.100   2.239 -5.1512  3.1944 -0.5958
  574MOL0     H79211  -0.161   2.033   2.324 -0.0707 -0.1863  0.7825
  574MOL0     H79212   0.000   1.994   2.379 -0.6875  1.0564  0.0184
  575MOL0     O79213   9.194   9.518   6.656 -0.5610 -0.0640  0.4649
  575MOL0     C79214   9.141   9.623   6.683 -0.1881 -0.1675  1.0103
  575MOL0     O79215   9.085   9.703   6.593 -0.1940 -0.7128  0.5733
  575MOL0     C79216   9.087   9.674   6.455  0.8506 -0.3520 -0.2159
  575MOL0     C79217   8.997   9.747   6.388  0.4970  0.6320 -0.9145
  575MOL0     C79218   8.984   9.751   6.251 -0.1921 -0.0013  0.0592
  575MOL0     C79219   9.086   9.691   6.175 -0.3487 -0.4189 -0.0921
  575MOL0     O79220   9.071   9.703   6.036  0.3646 -0.1248  0.2477
  575MOL0     C79221   9.129   9.598   5.959 -0.6227  0.1790 -0.3142
  575MOL0     C79222   9.071   9.589   5.825 -0.0222 -0.2098  0.2136
  575MOL0     C79223   9.164   9.656   5.712 -0.3204  0.0991 -0.9013
  575MOL0     C79224   9.102   9.651   5.575  0.5239  0.1397  0.0413
  575MOL0     C79225   9.193   9.714   5.469  0.0067 -0.0951 -0.3107
  575MOL0     C79226   9.152   9.687   5.323 -0.4024  0.8020  0.2754
  575MOL0     C79227   9.217   9.786   5.230  0.2903 -0.2896 -0.0598
  575MOL0     C79228   9.179   9.763   5.081 -0.4331 -0.3614  0.5442
  575MOL0     N79229   9.260   9.854   4.987 -0.0383  0.4017 -0.8593
  575MOL0     C79230   9.207   9.909   4.875 -1.4556  0.0759  0.2300
  575MOL0     C79231   9.311   9.989   4.839  1.0530  1.0284 -1.4397
  575MOL0     C79232   9.303  10.099   4.744 -0.8778 -0.4266  0.2500
  575MOL0     C79233   9.396  10.058   4.631  0.6900 -0.4977  0.4100
  575MOL0     C79234   9.423  10.176   4.540  0.4484 -0.2568 -0.2006
  575MOL0     C79235   9.533  10.149   4.443 -0.7961  0.7191 -0.2072
  575MOL0     O79236   9.507  10.209   4.316  0.3145  0.1951 -0.3904
  575MOL0     C79237   9.593  10.182   4.213 -1.2670 -0.8014 -0.3134
  575MOL0     C79238   9.548  10.219   4.084  0.4612  0.7499 -0.2129
  575MOL0     C79239   9.641  10.210   3.970 -0.0294 -0.0291 -0.4787
  575MOL0     C79240   9.581  10.280   3.856 -0.4963  0.5889  0.6537
  575MOL0     C79241   9.763  10.143   3.975 -0.5452 -0.0455  0.9480
  575MOL0     C79242   9.852  10.119   3.869  0.4859  0.0662 -0.6228
  575MOL0     O79243   9.955  10.042   3.908 -0.1484  0.1232 -0.1226
  575MOL0     C79244  10.063  10.029   3.827  0.1661 -0.6426  0.1407
  575MOL0     C79245  10.099   9.899   3.814  0.5782 -0.3746  0.3946
  575MOL0     C79246  10.219   9.870   3.747 -0.6600  0.9584  0.9733
  575MOL0     C79247  10.302   9.971   3.696 -0.0033  1.5146  0.4138
  575MOL0     O79248  10.424   9.936   3.639 -0.3996 -0.6784 -1.3134
  575MOL0     C79249  10.515  10.032   3.593 -0.2097 -0.9588  0.1436
  575MOL0     C79250  10.656   9.971   3.577  0.6161 -0.8451  0.1549
  575MOL0     C79251  10.778  10.059   3.553 -0.3668 -0.0191  0.5443
  575MOL0     C79252  10.910   9.983   3.550 -0.5285  0.3229  0.0464
  575MOL0     C79253  11.016  10.105   3.544  0.6567 -0.2566 -0.5517
  575MOL0     C79254  11.156  10.066   3.603 -0.1031  0.5909 -0.6087
  575MOL0     C79255  11.252  10.187   3.633 -0.2177 -0.3530 -0.3865
  575MOL0     C79256  11.348  10.142   3.740 -0.0040  0.3540  0.0553
  575MOL0    Cl79257  11.474  10.263   3.764 -0.5835  0.3278  0.5197
  575MOL0     C79258  10.252  10.101   3.699  0.0841  0.0957 -0.8316
  575MOL0     C79259  10.143  10.130   3.778 -0.5954 -0.0876 -0.6090
  575MOL0     O79260   9.833  10.152   3.758 -0.7637  0.1876  0.1863
  575MOL0     C79261   9.790  10.089   4.106  1.6546 -0.3646  0.2114
  575MOL0     C79262   9.711  10.121   4.215  0.3369  0.5548  0.4681
  575MOL0     N79263   9.419   9.966   4.915 -0.1474 -0.2111  0.6753
  575MOL0     N79264   9.389   9.891   5.010  0.4948 -0.3353 -0.1220
  575MOL0     C79265   9.190   9.637   6.248 -0.4722 -0.5996  0.4830
  575MOL0     C79266   9.192   9.615   6.388 -0.1968  0.4723 -0.7222
  575MOL0     C79267   9.137   9.671   6.825 -0.1172  0.5574  0.5790
  575MOL0     C79268   9.042   9.767   6.862 -0.2809  0.8953 -1.0216
  575MOL0     C79269   9.021   9.803   6.994  0.7393  0.2615 -0.0866
  575MOL0     C79270   9.084   9.736   7.106  0.5212 -0.0443  0.4118
  575MOL0     O79271   9.066   9.767   7.238 -0.4727 -0.1409  0.5284
  575MOL0     C79272   9.012   9.888   7.291 -1.3252  0.7028 -0.7189
  575MOL0     C79273   8.881   9.847   7.362  0.1125  0.0169 -0.3593
  575MOL0     C79274   8.806   9.965   7.430 -0.2269  0.1582 -0.3449
  575MOL0     C79275   8.717  10.039   7.327  0.1323 -0.5658 -0.3234
  575MOL0     C79276   8.652  10.153   7.383 -0.1715  0.8184 -0.4715
  575MOL0     C79277   8.597  10.241   7.442 -0.1671  0.8771  1.1176
  575MOL0     C79278   9.168   9.634   7.069 -0.6794  0.3896 -0.4666
  575MOL0     C79279   9.201   9.601   6.931  0.4175 -0.4077  0.0377
  575MOL0     C79280   9.294   9.483   6.901 -0.2356 -0.3241  0.3213
  575MOL0     H79281   8.933   9.810   6.449  0.8275 -1.5237  1.8427
  575MOL0     H79282   8.900   9.796   6.198  0.7755  0.6388 -0.9786
  575MOL0     H79283   9.099   9.501   6.002 -1.8451  0.4977 -0.4116
  575MOL0     H79284   9.237   9.603   5.947 -0.9499  3.4348 -3.6186
  575MOL0     H79285   9.052   9.484   5.799 -2.2445 -0.5754  2.8061
  575MOL0     H79286   8.971   9.632   5.819 -0.0713 -0.4177 -0.5869
  575MOL0     H79287   9.183   9.755   5.754  1.2010 -2.2728  5.0295
  575MOL0     H79288   9.263   9.611   5.716  0.5273  1.6148  5.1915
  575MOL0     H79289   9.070   9.549   5.555 -1.5610  0.5551  1.0376
  575MOL0     H79290   9.013   9.714   5.574  3.2334  4.3825 -0.3527
  575MOL0     H79291   9.294   9.674   5.479  0.0801  0.5149  1.8175
  575MOL0     H79292   9.187   9.822   5.482 -0.4976 -0.3405  1.9101
  575MOL0     H79293   9.166   9.586   5.285  1.0487  1.8739 -2.2629
  575MOL0     H79294   9.043   9.697   5.323 -0.6976 -0.4592 -4.4579
  575MOL0     H79295   9.326   9.779   5.232  0.3728 -0.5426 -2.2387
  575MOL0     H79296   9.182   9.886   5.258 -0.5532 -0.2202 -1.2817
  575MOL0     H79297   9.200   9.661   5.050 -1.9568 -0.2009 -1.1171
  575MOL0     H79298   9.072   9.769   5.062 -0.1688  0.3411 -0.8698
  575MOL0     H79299   9.111   9.891   4.827  0.5452  1.5494 -5.1609
  575MOL0     H79300   9.330  10.187   4.803 -2.2845 -1.1263  2.0587
  575MOL0     H79301   9.202  10.114   4.705 -1.7894 -0.5141  2.4359
  575MOL0     H79302   9.497  10.029   4.662  1.8321  2.7499  0.0394
  575MOL0     H79303   9.350   9.975   4.575 -3.1685  0.4784  1.8059
  575MOL0     H79304   9.327  10.193   4.492 -2.0034 -2.4573  3.4267
  575MOL0     H79305   9.456  10.258   4.604  3.4163 -0.5781 -1.1448
  575MOL0     H79306   9.628  10.185   4.484 -0.8832  0.0359  0.5952
  575MOL0     H79307   9.534  10.041   4.430 -4.5138  0.8312 -3.4841
  575MOL0     H79308   9.454  10.269   4.064  0.5337  0.6438 -0.8112
  575MOL0     H79309   9.472  10.271   3.863 -0.3404 -0.8156  1.8597
  575MOL0     H79310   9.613  10.251   3.755  2.9242  3.7292  0.6421
  575MOL0     H79311   9.608  10.385   3.866  0.1416  0.3241  1.9726
  575MOL0     H79312  10.026   9.830   3.856 -0.1734 -0.5978 -1.1886
  575MOL0     H79313  10.245   9.766   3.732  1.8320  1.6259  0.2062
  575MOL0     H79314  10.477  10.070   3.498 -1.5462  0.2225  1.1121
  575MOL0     H79315  10.526  10.112   3.666 -1.9610 -1.4202  0.9623
  575MOL0     H79316  10.670   9.907   3.665 -2.1508  1.0766  2.1634
  575MOL0     H79317  10.650   9.916   3.482 -0.7271  0.2645 -0.4232
  575MOL0     H79318  10.770  10.129   3.637  1.6570  1.8351 -0.7286
  575MOL0     H79319  10.758  10.112   3.460  3.3290  1.3948  0.3788
  575MOL0     H79320  10.905   9.926   3.457  1.4711  0.7730 -0.3720
  575MOL0     H79321  10.909   9.938   3.649 -1.5846  1.3258  0.5251
  575MOL0     H79322  11.025  10.158   3.448  0.4158  0.7183 -0.0460
  575MOL0     H79323  10.979  10.179   3.615  1.7309 -1.9775  1.9205
  575MOL0     H79324  11.191   9.989   3.533 -1.4538  1.7962 -2.7494
  575MOL0     H79325  11.140  10.016   3.698 -0.3732  2.8597  0.6198
  575MOL0     H79326  11.196  10.276   3.663 -2.2126 -2.1234  1.4461
  575MOL0     H79327  11.319  10.210   3.550  1.5626 -1.1285  0.7880
  575MOL0     H79328  11.403  10.056   3.701 -0.1388  1.3953 -2.6168
  575MOL0     H79329  11.296  10.097   3.825 -0.8574  0.4255 -0.4136
  575MOL0     H79330  10.289  10.185   3.640  2.4840 -1.3931 -1.5988
  575MOL0     H79331  10.115  10.235   3.770  0.4434  0.1953 -0.6699
  575MOL0     H79332   9.878  10.030   4.132  3.1617  0.4173 -2.6085
  575MOL0     H79333   9.738  10.071   4.307  0.0727 -2.3350 -0.9109
  575MOL0     H79334   9.268   9.602   6.182  0.6816  1.0232  0.9221
  575MOL0     H79335   9.283   9.579   6.434 -0.4896  1.6303  0.8494
  575MOL0     H79336   9.000   9.823   6.779 -0.5750  0.3291 -1.2645
  575MOL0     H79337   8.967   9.894   7.014 -1.2578 -1.0055  0.5264
  575MOL0     H79338   9.090   9.925   7.359 -0.4237 -3.1276  0.5586
  575MOL0     H79339   8.984   9.961   7.215 -2.5294 -0.0834 -1.0442
  575MOL0     H79340   8.898   9.762   7.429  0.9563  0.1429 -0.3992
  575MOL0     H79341   8.818   9.797   7.288 -1.4460  2.2105 -0.5979
  575MOL0     H79342   8.738   9.933   7.509 -0.5983  4.9580  1.5796
  575MOL0     H79343   8.882  10.035   7.464 -1.0019  1.2682 -0.8433
  575MOL0     H79344   8.638   9.975   7.287 -0.5405  1.6734 -2.9075
  575MOL0     H79345   8.778  10.075   7.244 -2.0566 -0.7619 -2.1258
  575MOL0     H79346   8.539  10.309   7.501 -1.0973  0.2651  0.9263
  575MOL0     H79347   9.226   9.598   7.154 -3.6448 -1.5032  0.9241
  575MOL0     H79348   9.380   9.515   6.841  1.7935 -2.4475  1.9016
  575MOL0     H79349   9.335   9.452   6.998  0.1574  1.9045  0.9333
  575MOL0     H79350   9.246   9.401   6.847 -0.2505 -0.7744  0.9947
  576MOL0     O79351  10.419   0.960   0.704  0.3393 -0.3782 -0.0543
  576MOL0     C79352  10.353   0.853   0.722 -0.0096 -0.2558  0.1464
  576MOL0     O79353  10.371   0.736   0.649  0.3507 -0.6719 -0.6236
  576MOL0     C79354  10.464   0.742   0.558  0.2417  0.6695  0.7675
  576MOL0     C79355  10.428   0.803   0.434 -0.6916 -0.2885  0.0728
  576MOL0     C79356  10.524   0.815   0.333 -0.6948 -0.6082  0.3892
  576MOL0     C79357  10.641   0.739   0.346 -0.2952 -0.8705  0.1224
  576MOL0     O79358  10.712   0.728   0.233 -0.8573 -0.6452  0.0514
  576MOL0     C79359  10.833   0.652   0.234 -0.7081  0.6902  0.7347
  576MOL0     C79360  10.912   0.703   0.116 -0.2705  0.8891  0.7225
  576MOL0     C79361  11.048   0.623   0.110  1.2195  0.4353 -0.1173
  576MOL0     C79362  11.161   0.691   0.031  0.0544  0.5122 -0.4787
  576MOL0     C79363  11.289   0.603   0.047  0.0986  0.0597 -0.5911
  576MOL0     C79364  11.395   0.653  -0.059 -0.3846 -0.6043  0.5264
  576MOL0     C79365  11.427   0.546  -0.173 -0.5917  0.0871  0.4125
  576MOL0     C79366  11.495   0.418  -0.113  0.6794 -0.5033 -0.4529
  576MOL0     N79367  11.498   0.311  -0.215  0.4657  0.3496 -0.2206
  576MOL0     C79368  11.587   0.298  -0.318 -0.0255  0.0060 -0.7237
  576MOL0     C79369  11.558   0.179  -0.380 -0.2883 -0.4462  0.7935
  576MOL0     C79370  11.638   0.130  -0.499 -0.0650  0.4369  0.2170
  576MOL0     C79371  11.615  -0.020  -0.519  0.6457 -0.1399 -1.1949
  576MOL0     C79372  11.485  -0.043  -0.596  0.3910 -0.3240 -0.5759
  576MOL0     C79373  11.450  -0.190  -0.607  0.1359 -0.2837 -0.8389
  576MOL0     O79374  11.384  -0.221  -0.729  0.1221 -0.6885  0.0030
  576MOL0     C79375  11.252  -0.208  -0.745  0.9154 -1.2364  0.8729
  576MOL0     C79376  11.153  -0.184  -0.634 -0.0036 -0.7692  0.1182
  576MOL0     C79377  11.019  -0.174  -0.667 -0.2785 -0.2104 -0.1486
  576MOL0     C79378  10.925  -0.170  -0.549  0.0790  0.2154  0.1612
  576MOL0     C79379  10.979  -0.174  -0.809 -1.0024 -0.3592  0.4226
  576MOL0     C79380  10.834  -0.155  -0.845  0.9503 -0.1567 -0.1946
  576MOL0     O79381  10.790  -0.225  -0.945  0.8896 -0.0258  1.1499
  576MOL0     C79382  10.661  -0.221  -0.975 -0.0205 -0.2233  0.2290
  576MOL0     C79383  10.551  -0.266  -0.900  0.1957 -0.0727  0.5967
  576MOL0     C79384  10.417  -0.226  -0.923 -0.4610 -0.3595  0.2321
  576MOL0     C79385  10.390  -0.135  -1.020  0.0192 -0.0532 -0.9042
  576MOL0     O79386  10.271  -0.066  -1.040  0.4849 -0.6602  0.1221
  576MOL0     C79387  10.150  -0.120  -0.977  0.5284  0.4266 -0.6956
  576MOL0     C79388  10.049  -0.013  -0.986  0.8152  0.5150 -0.1627
  576MOL0     C79389   9.909  -0.078  -0.978 -0.9624 -0.5584  0.0088
  576MOL0     C79390   9.789   0.025  -0.989 -0.7303  0.3113 -0.1981
  576MOL0     C79391   9.763   0.094  -0.847  0.3110  0.0781  0.1683
  576MOL0     C79392   9.659   0.206  -0.853 -0.3285 -0.2313 -0.6064
  576MOL0     C79393   9.644   0.273  -0.711 -0.1070  0.5338 -0.1451
  576MOL0     C79394   9.520   0.362  -0.707  0.0648  0.6425 -1.0413
  576MOL0    Cl79395   9.554   0.511  -0.810  0.2081  0.1453  0.0593
  576MOL0     C79396  10.498  -0.096  -1.109  0.4709  0.5615 -0.3977
  576MOL0     C79397  10.630  -0.149  -1.090  0.1856  0.3755  0.4477
  576MOL0     O79398  10.762  -0.074  -0.772 -0.9891  0.1802 -0.2327
  576MOL0     C79399  11.072  -0.212  -0.910  0.0536  0.0090  0.2419
  576MOL0     C79400  11.203  -0.232  -0.872 -0.9321 -0.0225  0.1779
  576MOL0     N79401  11.443   0.134  -0.336  1.2254  0.2963 -0.0723
  576MOL0     N79402  11.418   0.205  -0.233  0.1111  0.1680 -0.0014
  576MOL0     C79403  10.682   0.698   0.472 -0.4890  0.5857 -1.5651
  576MOL0     C79404  10.597   0.692   0.584 -0.0411  0.1059  1.3649
  576MOL0     C79405  10.279   0.845   0.856 -0.6799  0.4720  0.1735
  576MOL0     C79406  10.305   0.929   0.960 -0.0006 -0.7141  0.2659
  576MOL0     C79407  10.232   0.939   1.077 -0.2738  0.1223  0.7894
  576MOL0     C79408  10.137   0.845   1.107 -0.0793  0.0497  0.5072
  576MOL0     O79409  10.056   0.848   1.217 -0.0639  0.5963  0.3468
  576MOL0     C79410  10.056   0.955   1.310  0.3281  0.6472 -0.5299
  576MOL0     C79411   9.972   0.910   1.431  0.1762 -0.2090 -0.2557
  576MOL0     C79412  10.041   0.801   1.516 -0.4563  0.1093 -0.4879
  576MOL0     C79413  10.016   0.813   1.660  0.5846 -0.1953  1.0518
  576MOL0     C79414   9.865   0.821   1.691 -0.2003 -0.7382 -0.1716
  576MOL0     C79415   9.748   0.829   1.726  1.0501  0.6948  0.1386
  576MOL0     C79416  10.114   0.751   1.007 -0.5604  0.1384  0.2208
  576MOL0     C79417  10.182   0.747   0.885 -0.2632 -0.8585 -1.5051
  576MOL0     C79418  10.131   0.640   0.800  0.4935  0.1963  0.3967
  576MOL0     H79419  10.325   0.834   0.422 -1.5994 -2.5039  1.4133
  576MOL0     H79420  10.519   0.861   0.235  1.2560 -0.8631  0.1455
  576MOL0     H79421  10.821   0.545   0.214 -0.6673  0.4794  1.7796
  576MOL0     H79422  10.897   0.661   0.322  1.8074  3.6675 -1.1488
  576MOL0     H79423  10.850   0.682   0.029 -1.5376  2.3394  1.2244
  576MOL0     H79424  10.950   0.804   0.130 -1.6779  1.2272  2.4473
  576MOL0     H79425  11.071   0.595   0.213 -1.5914 -2.0177 -0.0377
  576MOL0     H79426  11.027   0.530   0.056  0.3613 -0.2925  1.4038
  576MOL0     H79427  11.136   0.710  -0.074  1.8805  1.6532 -0.7521
  576MOL0     H79428  11.181   0.783   0.086 -0.3162  0.7354 -0.7104
  576MOL0     H79429  11.258   0.498   0.038  0.0571 -0.3283  2.8933
  576MOL0     H79430  11.325   0.617   0.149  0.9301 -2.4673 -0.4563
  576MOL0     H79431  11.356   0.745  -0.103 -1.1136 -1.4044 -0.5560
  576MOL0     H79432  11.482   0.679   0.002 -2.3564  0.5949  2.9920
  576MOL0     H79433  11.507   0.586  -0.237  0.1700 -1.6637  0.2187
  576MOL0     H79434  11.337   0.520  -0.229  0.6123 -0.1082 -1.5288
  576MOL0     H79435  11.600   0.429  -0.083 -0.4717  0.7158  3.7293
  576MOL0     H79436  11.452   0.380  -0.021  2.1574 -0.8682  0.1219
  576MOL0     H79437  11.671   0.355  -0.355  0.1998 -0.9358 -1.7372
  576MOL0     H79438  11.741   0.162  -0.480 -0.1093  0.0361  1.2191
  576MOL0     H79439  11.619   0.195  -0.585  3.7375  1.4796 -0.0234
  576MOL0     H79440  11.695  -0.071  -0.573  2.1467  2.7633 -1.9123
  576MOL0     H79441  11.606  -0.073  -0.424  1.3366 -0.7870 -1.4809
  576MOL0     H79442  11.405   0.007  -0.540  1.0749 -2.3681  2.4677
  576MOL0     H79443  11.497   0.005  -0.694 -0.5040 -0.2497 -0.6516
  576MOL0     H79444  11.536  -0.254  -0.581  1.5498  0.7581 -2.6759
  576MOL0     H79445  11.378  -0.221  -0.532  1.4622 -1.4069  0.0348
  576MOL0     H79446  11.179  -0.170  -0.530  1.2786 -1.1776 -0.1264
  576MOL0     H79447  10.976  -0.219  -0.465 -1.0820  2.3250  2.2083
  576MOL0     H79448  10.830  -0.212  -0.582  0.5144 -0.7334  0.0655
  576MOL0     H79449  10.928  -0.064  -0.521  1.6422  0.1141  0.4726
  576MOL0     H79450  10.571  -0.330  -0.814  3.1388  0.0151  0.0692
  576MOL0     H79451  10.338  -0.253  -0.854  0.0388  1.7893  1.7320
  576MOL0     H79452  10.119  -0.209  -1.032  0.6437 -2.7922  3.8523
  576MOL0     H79453  10.162  -0.144  -0.871  1.9093 -1.0072 -1.1426
  576MOL0     H79454  10.078   0.042  -0.895  1.1008 -0.8958  0.6239
  576MOL0     H79455  10.048   0.053  -1.073  0.5011 -1.3964 -1.6797
  576MOL0     H79456   9.896  -0.140  -0.889 -0.5149 -1.1282 -0.3140
  576MOL0     H79457   9.911  -0.148  -1.062  0.3478 -0.8670  0.2670
  576MOL0     H79458   9.710  -0.044  -1.020  1.5081 -1.8697 -1.4101
  576MOL0     H79459   9.800   0.099  -1.069 -0.1187 -0.1270 -0.5266
  576MOL0     H79460   9.740   0.015  -0.774 -0.0422  1.4392  1.5717
  576MOL0     H79461   9.854   0.145  -0.817 -0.4307  0.6300  1.5697
  576MOL0     H79462   9.560   0.169  -0.882  1.0699 -2.6850 -2.6804
  576MOL0     H79463   9.684   0.288  -0.920 -0.6209  2.5643  2.4195
  576MOL0     H79464   9.729   0.336  -0.686 -0.8341  1.2328  0.6351
  576MOL0     H79465   9.646   0.192  -0.638 -0.8969 -1.1103 -1.8551
  576MOL0     H79466   9.512   0.395  -0.603  4.4010 -0.1537 -0.2766
  576MOL0     H79467   9.432   0.313  -0.750  0.1346  1.2009 -1.8361
  576MOL0     H79468  10.480  -0.015  -1.179  0.8139  1.5630  0.6468
  576MOL0     H79469  10.712  -0.109  -1.148  0.7452  1.2087  1.7566
  576MOL0     H79470  11.036  -0.241  -1.008 -0.0135  1.2813 -0.1286
  576MOL0     H79471  11.267  -0.260  -0.955 -1.1595  1.0593 -0.3904
  576MOL0     H79472  10.775   0.646   0.493 -0.6481 -0.5560 -3.4175
  576MOL0     H79473  10.637   0.657   0.678  0.4181 -0.5052  0.9576
  576MOL0     H79474  10.374   1.013   0.959  0.7418 -1.2105  2.9077
  576MOL0     H79475  10.253   1.018   1.147  0.0320 -2.2362  3.5286
  576MOL0     H79476  10.149   0.986   1.357 -0.2826  1.0636  0.4420
  576MOL0     H79477  10.011   1.046   1.268  2.3280  1.2713 -1.4103
  576MOL0     H79478   9.873   0.872   1.402  0.4442  1.2189 -3.4445
  576MOL0     H79479   9.953   1.001   1.488 -2.4348 -0.0730 -1.2029
  576MOL0     H79480   9.999   0.705   1.484 -0.8714  0.7780 -2.0883
  576MOL0     H79481  10.150   0.798   1.502 -0.4397 -0.2067 -0.3082
  576MOL0     H79482  10.057   0.907   1.697  0.8994 -0.2817  0.9206
  576MOL0     H79483  10.062   0.735   1.722 -2.0045 -2.6557  0.0829
  576MOL0     H79484   9.645   0.842   1.752  1.0826 -0.8832  1.2159
  576MOL0     H79485  10.050   0.668   1.038 -0.2325 -0.2608 -0.1463
  576MOL0     H79486  10.046   0.587   0.844  2.6101 -2.1192  1.9618
  576MOL0     H79487  10.100   0.677   0.702  2.6134  0.3192 -0.2807
  576MOL0     H79488  10.217   0.573   0.791  1.6135  1.7411 -0.9666
  577MOL0     O79489   6.346   3.463   0.680 -0.4240  0.8400  0.6476
  577MOL0     C79490   6.237   3.517   0.664 -0.4090 -0.3447 -0.0726
  577MOL0     O79491   6.213   3.646   0.694 -0.1523 -0.1967 -0.7073
  577MOL0     C79492   6.314   3.733   0.733  0.4298  0.1853  0.4054
  577MOL0     C79493   6.306   3.795   0.866 -0.0681 -0.5873 -0.5032
  577MOL0     C79494   6.420   3.868   0.912  0.7597  0.5463 -0.0895
  577MOL0     C79495   6.530   3.899   0.837  0.4163 -0.2322 -0.3626
  577MOL0     O79496   6.648   3.943   0.895  0.2628  0.4677  0.7892
  577MOL0     C79497   6.648   4.080   0.931 -0.2005 -0.2281 -0.3831
  577MOL0     C79498   6.788   4.133   0.928 -0.4582  0.3064  0.0767
  577MOL0     C79499   6.893   4.056   1.010 -0.6775  0.1789  0.7185
  577MOL0     C79500   6.857   4.076   1.161  0.0004 -0.0515 -0.5512
  577MOL0     C79501   6.935   3.980   1.255  0.6310 -1.1915 -0.6060
  577MOL0     C79502   6.935   3.829   1.248 -0.0165  0.0033  0.3214
  577MOL0     C79503   7.001   3.748   1.360  0.1005 -0.5241  0.4490
  577MOL0     C79504   6.952   3.790   1.501 -0.0283 -0.2259  0.7343
  577MOL0     N79505   6.925   3.666   1.574  0.0923  0.4723  0.5633
  577MOL0     C79506   6.806   3.598   1.600  0.0264  0.3702 -0.5996
  577MOL0     C79507   6.848   3.494   1.686 -0.6367  0.6088 -0.3353
  577MOL0     C79508   6.769   3.400   1.775  0.2411  0.6544  0.3700
  577MOL0     C79509   6.639   3.348   1.699  0.5476  0.1136  0.8192
  577MOL0     C79510   6.530   3.296   1.802 -0.1568 -0.1731 -0.2802
  577MOL0     C79511   6.403   3.240   1.736 -0.2692  0.1152  0.8488
  577MOL0     O79512   6.300   3.332   1.700  0.2246  0.5035 -0.0376
  577MOL0     C79513   6.199   3.356   1.795 -0.1170  0.2612 -0.3640
  577MOL0     C79514   6.100   3.447   1.758  0.4852 -0.9006  0.5630
  577MOL0     C79515   5.993   3.485   1.838  0.6878  0.4542  0.0858
  577MOL0     C79516   5.897   3.586   1.783  0.5007  0.6616 -0.4187
  577MOL0     C79517   5.979   3.426   1.967 -0.0827 -0.6987 -0.1357
  577MOL0     C79518   5.869   3.466   2.061  0.7220  1.4944 -0.4622
  577MOL0     O79519   5.861   3.589   2.126 -0.9038  0.4148  0.4418
  577MOL0     C79520   5.963   3.683   2.109  0.1453 -0.5687  1.1201
  577MOL0     C79521   5.928   3.798   2.052  0.1561  0.0956  0.7707
  577MOL0     C79522   6.021   3.890   2.029 -0.6270 -0.3515 -1.2969
  577MOL0     C79523   6.160   3.868   2.050 -0.6427 -1.6032 -0.4987
  577MOL0     O79524   6.261   3.970   2.025  0.7314 -0.0293  0.2460
  577MOL0     C79525   6.237   4.098   1.957 -0.3455  0.1710 -0.1388
  577MOL0     C79526   6.226   4.060   1.809 -0.8380  0.7416  0.3857
  577MOL0     C79527   6.231   4.174   1.705 -0.0833  0.1471 -0.1040
  577MOL0     C79528   6.356   4.265   1.719  0.8168  0.5633 -0.0509
  577MOL0     C79529   6.366   4.357   1.596 -0.0469 -0.9131  0.7901
  577MOL0     C79530   6.499   4.430   1.585 -0.2574  0.3705  0.3068
  577MOL0     C79531   6.519   4.479   1.438 -0.1205  0.2537 -0.3852
  577MOL0     C79532   6.665   4.527   1.419 -0.1837 -1.1925  0.2052
  577MOL0    Cl79533   6.676   4.619   1.268  0.2016 -0.1029  0.0657
  577MOL0     C79534   6.203   3.746   2.095  0.1462  0.8874 -0.2296
  577MOL0     C79535   6.097   3.654   2.130 -0.6519 -0.3537  0.2263
  577MOL0     O79536   5.794   3.377   2.095  0.0467  0.5554 -0.8153
  577MOL0     C79537   6.069   3.331   1.994 -0.7642  0.7438  0.3525
  577MOL0     C79538   6.182   3.294   1.911  0.2315  0.1581 -0.2203
  577MOL0     N79539   6.989   3.501   1.696 -0.0263  0.5940  0.0652
  577MOL0     N79540   7.031   3.606   1.633 -0.0282 -0.3077 -0.3705
  577MOL0     C79541   6.529   3.855   0.703  0.6408 -0.2904  0.0149
  577MOL0     C79542   6.425   3.769   0.658  0.5355 -0.2277  0.7799
  577MOL0     C79543   6.124   3.425   0.629  1.0701 -0.1055  0.0168
  577MOL0     C79544   6.154   3.299   0.567 -0.0147 -0.3768 -1.1514
  577MOL0     C79545   6.061   3.208   0.530 -0.1181 -0.0985 -0.0156
  577MOL0     C79546   5.927   3.237   0.552  1.0696 -1.2219 -0.6515
  577MOL0     O79547   5.824   3.153   0.521 -0.0819  0.3626  0.1915
  577MOL0     C79548   5.854   3.019   0.486  0.4195 -0.6060  0.4767
  577MOL0     C79549   5.728   2.936   0.443 -0.6876 -0.1105 -0.0682
  577MOL0     C79550   5.629   2.925   0.567 -0.3198  0.1345  0.0724
  577MOL0     C79551   5.514   2.824   0.551 -0.6596 -0.1025  0.0897
  577MOL0     C79552   5.422   2.838   0.658  0.5437 -0.5283 -0.4079
  577MOL0     C79553   5.340   2.831   0.752 -0.2479 -0.4410 -0.0662
  577MOL0     C79554   5.887   3.358   0.604  0.1223 -0.7057  0.2755
  577MOL0     C79555   5.982   3.457   0.639  0.1548 -0.2403  0.3249
  577MOL0     C79556   5.935   3.574   0.708  0.1713 -0.5168 -0.2696
  577MOL0     H79557   6.213   3.788   0.921 -2.3149 -0.2783 -3.9466
  577MOL0     H79558   6.419   3.913   1.011 -2.0275  1.5974 -0.5253
  577MOL0     H79559   6.594   4.099   1.024 -1.3277 -0.9213 -0.8710
  577MOL0     H79560   6.606   4.137   0.847  2.1453 -1.6344 -2.6463
  577MOL0     H79561   6.824   4.150   0.826 -3.9969  2.4960 -0.9867
  577MOL0     H79562   6.792   4.235   0.967 -2.1630  0.4059  0.0892
  577MOL0     H79563   6.891   3.947   0.995  2.2270 -0.2780  2.8549
  577MOL0     H79564   6.993   4.099   0.999 -1.1249  1.2553  0.8110
  577MOL0     H79565   6.876   4.181   1.187 -2.7934  0.1379  1.2378
  577MOL0     H79566   6.751   4.065   1.189  0.2815  0.8561  1.0106
  577MOL0     H79567   6.889   4.000   1.353 -1.6917 -2.4316 -1.3702
  577MOL0     H79568   7.037   4.018   1.266 -0.7654  3.5625 -1.3605
  577MOL0     H79569   6.831   3.795   1.244  0.3527 -1.4742  1.9603
  577MOL0     H79570   6.984   3.803   1.155  0.7266 -0.1627  0.7537
  577MOL0     H79571   7.109   3.748   1.348  0.4173 -2.9492  2.4980
  577MOL0     H79572   6.962   3.650   1.331  0.3689  0.1214 -2.3995
  577MOL0     H79573   7.028   3.852   1.549 -0.2231  0.1416  0.5779
  577MOL0     H79574   6.856   3.842   1.504  0.8283  1.4135  0.9403
  577MOL0     H79575   6.703   3.623   1.579 -1.3437 -2.7350  1.5578
  577MOL0     H79576   6.747   3.454   1.867  0.8334  1.5799 -0.0187
  577MOL0     H79577   6.828   3.311   1.799 -1.8456 -1.5001 -1.8640
  577MOL0     H79578   6.591   3.421   1.634  0.2410 -2.5643 -2.1752
  577MOL0     H79579   6.667   3.268   1.630  4.1649  0.4636  1.6820
  577MOL0     H79580   6.575   3.220   1.866  0.6079 -0.1536 -0.7877
  577MOL0     H79581   6.498   3.372   1.875  0.2991  0.5596 -0.8275
  577MOL0     H79582   6.441   3.204   1.639  4.9235  0.8713  2.2882
  577MOL0     H79583   6.359   3.152   1.782 -0.6459  0.9817  2.1934
  577MOL0     H79584   6.102   3.476   1.653 -1.8383 -0.3879  0.6107
  577MOL0     H79585   5.801   3.560   1.830  1.1058 -1.8570 -0.4388
  577MOL0     H79586   5.879   3.588   1.675 -2.9140  1.6363  0.0387
  577MOL0     H79587   5.929   3.683   1.820 -2.6294  1.4023  0.7010
  577MOL0     H79588   5.821   3.808   2.036  0.1455 -1.0419 -0.0137
  577MOL0     H79589   5.987   3.987   1.991 -1.3421 -0.3941 -0.7945
  577MOL0     H79590   6.145   4.139   1.999 -1.2025 -3.1208  1.5725
  577MOL0     H79591   6.323   4.165   1.955 -1.5772  1.9394  1.4896
  577MOL0     H79592   6.306   3.991   1.782 -0.6265  0.3528  1.9545
  577MOL0     H79593   6.143   3.988   1.804 -0.3545  0.2312 -0.8619
  577MOL0     H79594   6.134   4.224   1.719 -0.8610 -1.8001  2.1924
  577MOL0     H79595   6.237   4.133   1.604 -0.5974 -1.7501  0.5898
  577MOL0     H79596   6.440   4.197   1.735  0.4727  0.3091  0.6910
  577MOL0     H79597   6.366   4.332   1.805  2.2861  0.5568 -0.1972
  577MOL0     H79598   6.361   4.293   1.507  3.4277 -1.3499  0.7980
  577MOL0     H79599   6.276   4.420   1.598  0.8898  0.5633 -0.6403
  577MOL0     H79600   6.583   4.364   1.610  1.9629  2.1717 -1.9273
  577MOL0     H79601   6.504   4.514   1.655  1.3402  0.8837 -0.3990
  577MOL0     H79602   6.438   4.548   1.414  0.1816  0.4872 -0.7521
  577MOL0     H79603   6.514   4.384   1.384  2.9787 -1.5069  2.0480
  577MOL0     H79604   6.722   4.434   1.417 -2.8896 -2.9733  0.4828
  577MOL0     H79605   6.692   4.589   1.505 -0.8107 -0.5467 -0.0556
  577MOL0     H79606   6.307   3.715   2.096 -0.5214 -1.4797 -0.4369
  577MOL0     H79607   6.137   3.562   2.171 -1.0765 -0.8063 -0.3697
  577MOL0     H79608   6.062   3.289   2.094  3.5568  2.0920  1.4204
  577MOL0     H79609   6.246   3.214   1.945 -1.3444 -2.3630 -2.7508
  577MOL0     H79610   6.609   3.860   0.630 -0.6277 -0.9724 -1.4983
  577MOL0     H79611   6.425   3.743   0.553  1.1274  0.4714  0.6004
  577MOL0     H79612   6.257   3.268   0.553  0.1075 -2.2245  2.5676
  577MOL0     H79613   6.096   3.116   0.485 -0.5723  0.2869 -1.1995
  577MOL0     H79614   5.929   3.023   0.406  0.4212 -0.2471  0.4954
  577MOL0     H79615   5.906   2.968   0.567 -1.2032  3.1107  4.2229
  577MOL0     H79616   5.762   2.834   0.423  0.6817 -0.2094  2.3827
  577MOL0     H79617   5.672   2.977   0.359  0.3113  0.2924 -0.5557
  577MOL0     H79618   5.680   2.900   0.660 -3.1673  0.6417  1.9193
  577MOL0     H79619   5.573   3.019   0.575  0.1076  0.2425  2.4249
  577MOL0     H79620   5.559   2.724   0.552 -0.7012 -0.2171 -2.3475
  577MOL0     H79621   5.462   2.838   0.456  0.8729  2.9501 -0.4292
  577MOL0     H79622   5.261   2.819   0.823 -0.0495  2.3399  0.7449
  577MOL0     H79623   5.785   3.382   0.634  1.2764  2.6891  1.9784
  577MOL0     H79624   5.828   3.580   0.730  0.7982  2.6582  2.6988
  577MOL0     H79625   5.997   3.568   0.798  1.0739  0.9232 -0.7625
  577MOL0     H79626   5.964   3.664   0.652  1.5513 -1.7825 -1.7181
  578MOL0     O79627   0.606   1.349   7.657  0.0121  0.1163 -0.7148
  578MOL0     C79628   0.567   1.443   7.725 -0.8187  0.6777 -0.2995
  578MOL0     O79629   0.600   1.460   7.857 -0.6586 -0.0291 -0.5913
  578MOL0     C79630   0.672   1.365   7.918  0.5448  0.6784 -0.4339
  578MOL0     C79631   0.623   1.234   7.926  0.6836 -0.6974 -0.6874
  578MOL0     C79632   0.698   1.133   7.980  0.0447  0.5704 -0.3743
  578MOL0     C79633   0.828   1.153   8.028 -0.4051 -0.0719  0.3564
  578MOL0     O79634   0.892   1.033   8.074 -0.0883 -0.6143 -0.5982
  578MOL0     C79635   1.026   1.049   8.125  0.0505  0.0911  0.6731
  578MOL0     C79636   1.074   0.923   8.189  0.2136  0.3497 -0.8346
  578MOL0     C79637   1.221   0.925   8.236  0.0996 -0.3891  0.2743
  578MOL0     C79638   1.262   0.776   8.256 -0.4550  0.0317  0.5084
  578MOL0     C79639   1.400   0.752   8.320 -0.2861  0.1371 -0.2752
  578MOL0     C79640   1.392   0.718   8.470  0.5401  0.1032  0.0900
  578MOL0     C79641   1.333   0.830   8.555  0.3737 -0.1333 -0.4251
  578MOL0     C79642   1.349   0.810   8.710  0.4540 -0.2893 -0.0228
  578MOL0     N79643   1.340   0.933   8.789  0.2123 -0.3186 -0.3886
  578MOL0     C79644   1.220   0.995   8.815 -0.2900  0.1760 -0.4554
  578MOL0     C79645   1.251   1.108   8.878 -0.1106  0.4447  0.1152
  578MOL0     C79646   1.163   1.175   8.973 -0.1380  0.0706  1.2535
  578MOL0     C79647   1.155   1.091   9.098  1.4491  0.5900  0.5594
  578MOL0     C79648   1.277   1.103   9.186 -0.3385 -0.4620  0.5088
  578MOL0     C79649   1.295   1.241   9.256 -0.1255 -0.3793  0.8968
  578MOL0     O79650   1.417   1.238   9.335 -0.1979 -0.2515 -0.1862
  578MOL0     C79651   1.431   1.164   9.448 -0.1837 -1.1139  0.6100
  578MOL0     C79652   1.320   1.140   9.535 -0.3692 -0.4212  0.0884
  578MOL0     C79653   1.335   1.100   9.666 -0.4466  0.1469  0.0987
  578MOL0     C79654   1.200   1.073   9.734  0.4463 -0.6302  0.2654
  578MOL0     C79655   1.465   1.059   9.710  0.5804 -0.1184  0.3955
  578MOL0     C79656   1.494   1.001   9.844  0.9487 -0.6807  0.3205
  578MOL0     O79657   1.618   0.957   9.869 -0.2701  1.2175 -0.1257
  578MOL0     C79658   1.650   0.919   9.998 -0.5343  0.2900  0.0196
  578MOL0     C79659   1.724   0.803  10.034 -0.0290  0.7410 -0.3220
  578MOL0     C79660   1.757   0.766  10.166 -0.2085  0.4387 -0.5281
  578MOL0     C79661   1.717   0.852  10.267 -0.2062 -0.2485 -0.1665
  578MOL0     O79662   1.757   0.813  10.389 -0.2780 -1.2518 -0.1003
  578MOL0     C79663   1.648   0.774  10.467  1.5527 -0.0957  0.0750
  578MOL0     C79664   1.691   0.745  10.612  0.2165  0.2451 -0.1448
  578MOL0     C79665   1.563   0.700  10.695 -0.2108 -0.6546  0.1955
  578MOL0     C79666   1.614   0.648  10.826 -0.2915 -0.1727 -0.8541
  578MOL0     C79667   1.625   0.761  10.932  0.3771  0.0405 -0.2005
  578MOL0     C79668   1.681   0.697  11.068  0.1336  0.1962 -0.5764
  578MOL0     C79669   1.704   0.804  11.174  0.3981 -0.5695 -0.7622
  578MOL0     C79670   1.808   0.781  11.284 -0.0191  0.4680 -0.1378
  578MOL0    Cl79671   1.758   0.646  11.381 -0.2428 -0.1161  0.0068
  578MOL0     C79672   1.656   0.968  10.241  0.7169  0.3444  0.7911
  578MOL0     C79673   1.622   1.006  10.111  0.4318  0.5742  0.1688
  578MOL0     O79674   1.399   0.996   9.925  0.1422 -0.2077 -0.0258
  578MOL0     C79675   1.574   1.100   9.621  0.1670  0.5590 -0.4554
  578MOL0     C79676   1.553   1.150   9.493  0.2539 -0.4785  0.0811
  578MOL0     N79677   1.389   1.125   8.867 -0.8182 -0.0728 -0.3388
  578MOL0     N79678   1.434   1.021   8.818 -0.2736  0.3587  0.9093
  578MOL0     C79679   0.874   1.287   8.034 -0.6577 -0.2353  0.1801
  578MOL0     C79680   0.793   1.394   7.989 -0.6067  0.0524  0.4433
  578MOL0     C79681   0.480   1.544   7.657  0.3843  0.0341 -0.4129
  578MOL0     C79682   0.473   1.671   7.717 -0.4816 -0.2683 -0.0569
  578MOL0     C79683   0.399   1.772   7.660 -0.0473 -0.0926  0.8511
  578MOL0     C79684   0.309   1.740   7.555 -0.0048  0.4031 -1.0825
  578MOL0     O79685   0.234   1.845   7.502 -0.0874 -0.3979 -0.2084
  578MOL0     C79686   0.119   1.820   7.415  0.0036 -0.3987  0.7641
  578MOL0     C79687   0.026   1.935   7.400 -0.0288 -0.0593 -0.5628
  578MOL0     C79688   0.087   2.074   7.357 -0.0548  0.5053  0.1014
  578MOL0     C79689   0.060   2.090   7.204 -0.1915  0.4895 -0.9855
  578MOL0     C79690   0.151   2.014   7.120  0.3743  1.2118  0.4478
  578MOL0     C79691   0.227   1.954   7.038 -0.4866 -0.1166 -0.6718
  578MOL0     C79692   0.309   1.613   7.511 -0.5503  0.4462  0.2699
  578MOL0     C79693   0.394   1.513   7.554 -0.7214 -0.4147  0.7749
  578MOL0     C79694   0.368   1.374   7.497  0.4484 -0.4537  0.0769
  578MOL0     H79695   0.524   1.210   7.891  0.4423 -0.7747  0.0172
  578MOL0     H79696   0.655   1.034   7.968 -2.2522  1.6041 -1.4358
  578MOL0     H79697   1.037   1.131   8.196  1.9452  0.6008 -0.1311
  578MOL0     H79698   1.095   1.070   8.042  0.6528  0.4715  1.2620
  578MOL0     H79699   1.008   0.893   8.272 -1.9067  0.1818 -2.4955
  578MOL0     H79700   1.071   0.847   8.111 -0.6648 -1.7968  1.1752
  578MOL0     H79701   1.285   0.952   8.152  0.0899 -2.1369 -0.3326
  578MOL0     H79702   1.254   0.984   8.323  1.2731 -1.4769  0.6032
  578MOL0     H79703   1.187   0.736   8.325  0.8346 -2.6807  0.4734
  578MOL0     H79704   1.260   0.719   8.163  0.8761 -0.2079  0.6108
  578MOL0     H79705   1.464   0.839   8.304  1.1816 -1.0420 -1.0035
  578MOL0     H79706   1.439   0.667   8.263  3.1855  0.8199  0.8733
  578MOL0     H79707   1.325   0.634   8.489 -2.6911  1.9025 -2.2677
  578MOL0     H79708   1.494   0.697   8.502  1.0462  2.9758  0.6533
  578MOL0     H79709   1.225   0.846   8.541 -0.3736 -0.3681  3.8722
  578MOL0     H79710   1.383   0.923   8.527 -0.5068  0.2948 -0.6088
  578MOL0     H79711   1.272   0.739   8.742  2.8065 -2.8081  0.4803
  578MOL0     H79712   1.446   0.765   8.731  1.4524  1.4185 -0.7817
  578MOL0     H79713   1.120   0.955   8.797 -0.2372  0.0317 -0.4237
  578MOL0     H79714   1.064   1.185   8.927 -0.2129 -0.3184  1.3238
  578MOL0     H79715   1.194   1.280   8.979 -3.2175  1.5266 -3.1171
  578MOL0     H79716   1.055   1.102   9.141  1.5823 -2.2838  1.8450
  578MOL0     H79717   1.159   0.988   9.062 -2.9010  1.5516 -3.6457
  578MOL0     H79718   1.269   1.023   9.261 -1.5779 -1.6761 -0.8523
  578MOL0     H79719   1.359   1.077   9.119 -0.2996  0.1933  0.2966
  578MOL0     H79720   1.304   1.332   9.195 -0.7669  1.0675  2.8562
  578MOL0     H79721   1.206   1.254   9.318  0.6274 -0.1923  1.9755
  578MOL0     H79722   1.217   1.156   9.504 -0.0097  2.1296 -0.0074
  578MOL0     H79723   1.116   1.088   9.665  0.8007  0.7774  0.1230
  578MOL0     H79724   1.177   1.157   9.799  4.2514  0.5583  0.3420
  578MOL0     H79725   1.200   0.974   9.781 -1.7248 -1.4607 -1.2832
  578MOL0     H79726   1.749   0.734   9.954  0.0124 -0.8696  1.0322
  578MOL0     H79727   1.804   0.668  10.176 -3.4607 -1.0253  2.4274
  578MOL0     H79728   1.567   0.847  10.464 -0.2571 -1.9552  0.9332
  578MOL0     H79729   1.599   0.682  10.435 -0.1661  0.9621 -0.5119
  578MOL0     H79730   1.770   0.669  10.608  0.7506  0.8441 -2.1766
  578MOL0     H79731   1.726   0.839  10.656 -1.0604  1.3379 -1.3556
  578MOL0     H79732   1.524   0.614  10.639  1.0824  0.5052 -2.7269
  578MOL0     H79733   1.489   0.780  10.701 -1.0306 -1.4930  1.9742
  578MOL0     H79734   1.707   0.592  10.819 -0.5454 -0.6821 -0.2648
  578MOL0     H79735   1.543   0.572  10.860 -0.3691 -0.6086 -1.9487
  578MOL0     H79736   1.669   0.848  10.881 -0.9705 -0.2672 -1.9734
  578MOL0     H79737   1.519   0.784  10.945  0.1845 -0.3687 -0.9919
  578MOL0     H79738   1.757   0.618  11.061 -1.2496 -1.6274  2.5462
  578MOL0     H79739   1.595   0.639  11.105  0.0697  0.0944 -0.8883
  578MOL0     H79740   1.607   0.825  11.220  0.0338 -2.9087 -0.3233
  578MOL0     H79741   1.754   0.890  11.129  0.7632  0.8872  2.1632
  578MOL0     H79742   1.814   0.868  11.351 -1.9329 -0.4807  1.3522
  578MOL0     H79743   1.907   0.763  11.241  0.6466  3.6282 -0.1757
  578MOL0     H79744   1.621   1.038  10.317 -0.0329  2.2286 -1.1715
  578MOL0     H79745   1.578   1.106  10.107  1.9761  1.2585 -0.4384
  578MOL0     H79746   1.673   1.073   9.656 -0.3495 -3.3445 -1.4511
  578MOL0     H79747   1.638   1.187   9.437  0.5225 -3.7498 -1.9401
  578MOL0     H79748   0.965   1.309   8.089 -1.2279  2.2314  0.2846
  578MOL0     H79749   0.829   1.496   7.979  1.0319 -0.6592 -2.0400
  578MOL0     H79750   0.549   1.696   7.791 -0.0365  0.3933 -0.7175
  578MOL0     H79751   0.394   1.878   7.682 -1.8427 -0.2101  1.0923
  578MOL0     H79752   0.147   1.790   7.314 -2.0303  0.5048 -0.1220
  578MOL0     H79753   0.065   1.749   7.479 -0.2525  2.6596  4.2384
  578MOL0     H79754  -0.023   1.952   7.496 -2.4060 -2.0699 -1.3123
  578MOL0     H79755  -0.069   1.916   7.351 -0.3215 -0.8330  0.2857
  578MOL0     H79756   0.027   2.142   7.419 -1.8760 -2.2981  1.5949
  578MOL0     H79757   0.194   2.089   7.377 -0.3334  0.0539  2.1052
  578MOL0     H79758   0.071   2.197   7.187 -1.4687  1.9317  5.0134
  578MOL0     H79759  -0.044   2.059   7.192  0.6421 -3.3760  0.3532
  578MOL0     H79760   0.300   1.909   6.973 -1.0708  1.3090 -2.3816
  578MOL0     H79761   0.251   1.582   7.425  0.9343 -1.0874 -0.2367
  578MOL0     H79762   0.270   1.358   7.450 -0.5252 -2.4363  2.5117
  578MOL0     H79763   0.449   1.350   7.428  0.2036  1.0140 -0.7580
  578MOL0     H79764   0.367   1.300   7.578 -0.6632  0.9014  1.3529
  579MOL0     O79765   7.181   8.325   5.587  0.0774  0.4390 -0.3929
  579MOL0     C79766   7.075   8.348   5.653 -0.2295 -0.7005 -0.3608
  579MOL0     O79767   7.049   8.289   5.778  0.0194  0.2214  1.3634
  579MOL0     C79768   7.140   8.192   5.824  0.2791 -0.3920  0.4265
  579MOL0     C79769   7.278   8.212   5.852 -0.8946  0.1446  0.2675
  579MOL0     C79770   7.357   8.106   5.893 -0.0136 -0.0640 -0.6699
  579MOL0     C79771   7.309   7.972   5.911 -0.6853  0.5931 -0.8369
  579MOL0     O79772   7.405   7.885   5.963  0.7658  0.2055 -0.2759
  579MOL0     C79773   7.359   7.769   6.031  0.3838  0.2886  0.0314
  579MOL0     C79774   7.454   7.750   6.155  0.4402  0.1279  0.0751
  579MOL0     C79775   7.606   7.770   6.120 -0.1959  0.6546 -0.9431
  579MOL0     C79776   7.679   7.749   6.247  0.2206  0.4225 -0.5398
  579MOL0     C79777   7.829   7.737   6.212  0.0029  0.0945 -0.1123
  579MOL0     C79778   7.914   7.729   6.346 -0.0590  0.4739 -0.3307
  579MOL0     C79779   8.060   7.748   6.311 -0.7648  0.0495  0.4792
  579MOL0     C79780   8.143   7.726   6.437 -0.3107 -0.5532  1.2580
  579MOL0     N79781   8.224   7.834   6.493 -0.0221  0.5817  1.1121
  579MOL0     C79782   8.184   7.970   6.509 -0.2283 -0.4244 -0.2671
  579MOL0     C79783   8.274   8.033   6.580 -0.3731  0.8132  0.2331
  579MOL0     C79784   8.285   8.180   6.592 -0.1383 -0.5091  0.6106
  579MOL0     C79785   8.255   8.216   6.734 -0.8652 -0.7363 -0.4465
  579MOL0     C79786   8.241   8.365   6.751 -0.9113 -0.0554  0.1692
  579MOL0     C79787   8.212   8.412   6.886 -0.5741 -0.5863 -0.7281
  579MOL0     O79788   8.331   8.432   6.963  0.2962  0.2609  0.1640
  579MOL0     C79789   8.324   8.466   7.094  0.3746 -0.1896 -0.7828
  579MOL0     C79790   8.197   8.467   7.172 -0.1453 -0.1029  1.0956
  579MOL0     C79791   8.197   8.470   7.318 -0.0125 -0.1794 -0.4854
  579MOL0     C79792   8.055   8.488   7.375 -0.3818  0.2388 -0.3378
  579MOL0     C79793   8.318   8.470   7.392 -0.6569 -0.3200  0.3246
  579MOL0     C79794   8.330   8.478   7.538 -0.0262 -0.2719  0.6863
  579MOL0     O79795   8.457   8.496   7.591  0.2307 -0.8971  0.6874
  579MOL0     C79796   8.457   8.559   7.714 -0.9445  0.1689 -1.2259
  579MOL0     C79797   8.488   8.475   7.832 -0.2065 -0.2669  0.2225
  579MOL0     C79798   8.496   8.526   7.959 -0.4922  1.0206 -0.4923
  579MOL0     C79799   8.486   8.659   7.978 -0.5830  0.5160  0.4023
  579MOL0     O79800   8.522   8.700   8.101 -0.0141 -0.2919  0.0378
  579MOL0     C79801   8.468   8.818   8.161  0.1108 -0.5820 -0.1535
  579MOL0     C79802   8.332   8.772   8.217 -0.0013 -0.4469  0.0890
  579MOL0     C79803   8.349   8.659   8.326  0.8145  0.1136 -0.8952
  579MOL0     C79804   8.207   8.618   8.374  0.0904 -0.3158 -0.5907
  579MOL0     C79805   8.217   8.512   8.482  0.0079 -0.2380  0.0227
  579MOL0     C79806   8.263   8.579   8.618 -0.0595 -0.2744 -0.5742
  579MOL0     C79807   8.251   8.460   8.713  0.8364 -0.6117  0.3867
  579MOL0     C79808   8.330   8.482   8.839  0.4849  0.9113 -0.2777
  579MOL0    Cl79809   8.500   8.536   8.806  0.2680  0.2527  0.2402
  579MOL0     C79810   8.460   8.755   7.874 -0.7411 -0.5453  0.2165
  579MOL0     C79811   8.435   8.692   7.747 -0.8122 -0.2570 -0.3770
  579MOL0     O79812   8.232   8.463   7.609 -0.5933  0.5945 -0.1821
  579MOL0     C79813   8.440   8.465   7.316 -0.1651  0.7977 -0.0638
  579MOL0     C79814   8.441   8.471   7.173 -0.1143  0.8488 -0.4028
  579MOL0     N79815   8.369   7.934   6.611 -0.0370 -0.2852 -0.2652
  579MOL0     N79816   8.339   7.811   6.559 -0.5281  0.3421 -0.8162
  579MOL0     C79817   7.168   7.964   5.889 -0.4132 -0.9729  0.5054
  579MOL0     C79818   7.086   8.070   5.853  0.1878 -0.1473  0.0767
  579MOL0     C79819   6.971   8.436   5.605  0.6504  0.1115 -0.8521
  579MOL0     C79820   7.007   8.530   5.511 -0.7755 -0.5982  1.3964
  579MOL0     C79821   6.916   8.628   5.472  0.4040  0.3073 -1.6514
  579MOL0     C79822   6.786   8.641   5.527 -1.0751 -0.1912 -0.6730
  579MOL0     O79823   6.695   8.745   5.504 -0.1767 -0.2437  0.0606
  579MOL0     C79824   6.719   8.844   5.409 -0.6073 -0.1157  0.1970
  579MOL0     C79825   6.705   8.784   5.273 -0.1655 -0.1377  0.1472
  579MOL0     C79826   6.550   8.759   5.250 -0.6622  0.0728 -0.7461
  579MOL0     C79827   6.479   8.882   5.237  0.0470 -0.1979  0.1139
  579MOL0     C79828   6.351   8.858   5.169 -0.1037  0.0609  0.0514
  579MOL0     C79829   6.241   8.823   5.120 -0.7520 -0.3740 -0.9156
  579MOL0     C79830   6.748   8.536   5.604 -0.3910  0.1811  0.0686
  579MOL0     C79831   6.836   8.433   5.650 -0.4049 -0.3702  0.0227
  579MOL0     C79832   6.770   8.327   5.729 -0.2423  0.1430  0.0728
  579MOL0     H79833   7.334   8.299   5.820  0.5250 -1.8953 -3.4717
  579MOL0     H79834   7.463   8.124   5.906  0.4917 -1.3311 -2.5869
  579MOL0     H79835   7.382   7.688   5.961  3.6652  1.4792 -0.4439
  579MOL0     H79836   7.252   7.767   6.052 -0.0544  3.2346 -1.3654
  579MOL0     H79837   7.427   7.816   6.238  1.4896  0.6539  0.0243
  579MOL0     H79838   7.437   7.651   6.197  2.1482  0.1223  0.8469
  579MOL0     H79839   7.642   7.691   6.053 -0.1049 -1.1252  1.1167
  579MOL0     H79840   7.614   7.874   6.084 -1.0561  1.0365 -0.0741
  579MOL0     H79841   7.673   7.835   6.314 -2.0645 -1.3775  1.7815
  579MOL0     H79842   7.648   7.659   6.300  1.5384 -0.7258 -1.6177
  579MOL0     H79843   7.860   7.822   6.150 -0.6894  0.5569  0.1597
  579MOL0     H79844   7.864   7.649   6.157  2.3567 -0.3169  1.8918
  579MOL0     H79845   7.879   7.802   6.419  0.8665  1.5451 -0.9255
  579MOL0     H79846   7.889   7.631   6.387  0.2550  1.9260  3.7507
  579MOL0     H79847   8.070   7.848   6.267  1.6417 -0.1763  0.3687
  579MOL0     H79848   8.091   7.683   6.230 -3.5038 -0.2643 -0.4206
  579MOL0     H79849   8.092   7.683   6.524  0.7574 -1.4525  1.4634
  579MOL0     H79850   8.209   7.645   6.404 -0.2467 -0.9980  2.4354
  579MOL0     H79851   8.089   8.015   6.479 -0.7508 -1.9534 -1.0532
  579MOL0     H79852   8.227   8.236   6.519  0.9409  0.4553  0.4610
  579MOL0     H79853   8.389   8.202   6.566 -0.0704 -0.4169  0.9542
  579MOL0     H79854   8.167   8.166   6.775 -0.2107 -2.7159 -1.3496
  579MOL0     H79855   8.336   8.170   6.791 -1.7266 -1.4865  0.1938
  579MOL0     H79856   8.326   8.414   6.702 -2.2975  0.4172 -1.9028
  579MOL0     H79857   8.145   8.374   6.699 -1.4007 -0.1146  1.0443
  579MOL0     H79858   8.159   8.507   6.870  1.0590 -0.1220 -4.4538
  579MOL0     H79859   8.152   8.341   6.944  2.4404 -2.3261  0.4384
  579MOL0     H79860   8.104   8.463   7.117 -1.3972  0.2604  3.0681
  579MOL0     H79861   8.025   8.403   7.438 -0.8004  1.5340  1.2671
  579MOL0     H79862   7.985   8.488   7.291 -0.9088  0.7042  0.0975
  579MOL0     H79863   8.046   8.583   7.428 -1.1953  1.0834 -1.9095
  579MOL0     H79864   8.516   8.371   7.817  1.0769  0.2185 -0.9012
  579MOL0     H79865   8.523   8.470   8.049 -0.1761 -2.7716 -2.7384
  579MOL0     H79866   8.519   8.855   8.250  2.1540  1.9439 -2.2081
  579MOL0     H79867   8.472   8.912   8.104 -0.2339  0.1158  0.9411
  579MOL0     H79868   8.279   8.860   8.252 -0.9011 -1.1423  0.5096
  579MOL0     H79869   8.269   8.729   8.139  0.6470  0.0736 -0.7423
  579MOL0     H79870   8.413   8.698   8.406  0.4685  1.1944 -1.1290
  579MOL0     H79871   8.408   8.576   8.286  2.3803  0.6521  0.1661
  579MOL0     H79872   8.150   8.591   8.284  1.0850  0.5484 -1.5134
  579MOL0     H79873   8.164   8.707   8.422  1.6919 -1.5644  3.5628
  579MOL0     H79874   8.121   8.464   8.506  0.2326 -2.1924 -2.5567
  579MOL0     H79875   8.286   8.432   8.456  0.3676  0.3272 -0.7798
  579MOL0     H79876   8.185   8.648   8.653 -0.8077 -0.4149 -1.9023
  579MOL0     H79877   8.364   8.620   8.623  0.4296 -1.5383  2.0597
  579MOL0     H79878   8.301   8.381   8.656  1.3566  1.5293 -2.3604
  579MOL0     H79879   8.150   8.428   8.739  1.2814 -2.6037 -0.1568
  579MOL0     H79880   8.334   8.392   8.902  2.0328  0.4512 -0.9796
  579MOL0     H79881   8.284   8.566   8.892 -0.0393  0.6900 -0.3716
  579MOL0     H79882   8.462   8.863   7.876 -0.3778 -0.5605  1.4960
  579MOL0     H79883   8.405   8.756   7.665 -0.4876  0.7259  0.2472
  579MOL0     H79884   8.540   8.468   7.360 -0.7387  2.7823  1.2627
  579MOL0     H79885   8.543   8.467   7.138  1.1661  2.6021  2.7513
  579MOL0     H79886   7.122   7.866   5.893 -0.9984 -1.0475 -3.6956
  579MOL0     H79887   6.979   8.058   5.837  0.3926 -0.4960 -1.1324
  579MOL0     H79888   7.107   8.534   5.469 -1.6852 -0.5143 -0.9080
  579MOL0     H79889   6.935   8.700   5.393 -4.5310  2.2138 -1.4675
  579MOL0     H79890   6.658   8.933   5.424  0.3683  0.4873  0.6388
  579MOL0     H79891   6.819   8.888   5.408 -0.6437 -0.0308  0.3254
  579MOL0     H79892   6.755   8.687   5.264  0.9799  0.5153 -0.8739
  579MOL0     H79893   6.740   8.852   5.195 -1.0155 -2.7759 -2.7491
  579MOL0     H79894   6.538   8.702   5.158 -0.8119  1.0463 -1.3456
  579MOL0     H79895   6.510   8.705   5.337  0.8895 -1.8651 -1.1454
  579MOL0     H79896   6.531   8.960   5.180 -1.5466 -0.3896 -1.6846
  579MOL0     H79897   6.455   8.924   5.336 -1.6420  1.4397 -0.9212
  579MOL0     H79898   6.153   8.794   5.065 -0.9024 -1.6899 -0.0387
  579MOL0     H79899   6.643   8.530   5.633 -0.3356 -0.4080  0.1638
  579MOL0     H79900   6.758   8.367   5.831  1.8199  1.6769 -0.2003
  579MOL0     H79901   6.673   8.301   5.686  0.5425 -1.2639 -0.9184
  579MOL0     H79902   6.827   8.234   5.732  1.5758  1.2075  0.4761
  580MOL0     O79903   0.529   9.397   5.427  0.1257  0.6448 -0.5893
  580MOL0     C79904   0.454   9.428   5.514  0.0797  0.4510  0.1916
  580MOL0     O79905   0.386   9.342   5.592  0.1102  0.1840 -0.1725
  580MOL0     C79906   0.418   9.207   5.584  0.4419 -0.7602 -0.4682
  580MOL0     C79907   0.532   9.144   5.544 -0.6374 -0.1552 -0.1615
  580MOL0     C79908   0.547   9.007   5.544  0.2612  0.0453  1.0670
  580MOL0     C79909   0.431   8.931   5.579 -0.6148 -0.0516 -0.0706
  580MOL0     O79910   0.424   8.793   5.573  0.1275  0.6193  0.7858
  580MOL0     C79911   0.393   8.731   5.701 -0.5848  0.3652  0.2093
  580MOL0     C79912   0.503   8.647   5.752 -0.6168  0.2593 -0.1515
  580MOL0     C79913   0.634   8.718   5.781 -0.0725  0.4598  0.5198
  580MOL0     C79914   0.745   8.711   5.674 -0.4598 -0.1071 -0.5720
  580MOL0     C79915   0.883   8.794   5.717  0.9275 -1.2065 -0.2327
  580MOL0     C79916   0.852   8.933   5.763 -0.3563  0.3233  0.0021
  580MOL0     C79917   0.973   9.019   5.761  0.0776  0.0463 -1.4649
  580MOL0     C79918   0.954   9.172   5.780 -0.9661 -0.5270  0.0060
  580MOL0     N79919   1.088   9.238   5.778  0.4286  0.9798 -0.4674
  580MOL0     C79920   1.157   9.247   5.664 -0.6121 -0.5202 -0.4984
  580MOL0     C79921   1.290   9.269   5.702 -0.6383 -0.0001  0.4658
  580MOL0     C79922   1.404   9.296   5.611 -0.6117 -0.7892  0.3566
  580MOL0     C79923   1.446   9.445   5.627  0.6863 -0.2012 -0.2371
  580MOL0     C79924   1.532   9.500   5.514  0.6184  0.3547  1.0364
  580MOL0     C79925   1.638   9.574   5.572 -0.4139 -0.2835 -0.4640
  580MOL0     O79926   1.714   9.494   5.670 -0.6974  0.3770 -0.2020
  580MOL0     C79927   1.821   9.430   5.617 -0.1867 -0.0788  0.6425
  580MOL0     C79928   1.935   9.487   5.566 -0.4757 -0.4872  0.3134
  580MOL0     C79929   2.043   9.410   5.517  0.0964 -0.4593 -0.0505
  580MOL0     C79930   2.165   9.482   5.458  0.7822  0.5607 -0.9699
  580MOL0     C79931   2.025   9.270   5.517 -0.1490  0.3833 -0.5480
  580MOL0     C79932   2.125   9.166   5.465  1.0340 -0.4020  0.3478
  580MOL0     O79933   2.102   9.042   5.497  0.7349  1.4423 -0.4425
  580MOL0     C79934   2.176   8.935   5.436  0.4672 -0.1621 -0.6765
  580MOL0     C79935   2.261   8.861   5.524 -0.4776 -0.4640 -0.4673
  580MOL0     C79936   2.357   8.759   5.480 -0.6335  0.0399  0.2345
  580MOL0     C79937   2.366   8.746   5.339  0.5547  0.4384  0.0881
  580MOL0     O79938   2.440   8.648   5.274  0.3690 -0.8718 -0.1052
  580MOL0     C79939   2.511   8.553   5.351 -0.6484 -0.9683 -0.2417
  580MOL0     C79940   2.654   8.602   5.398  0.0145  0.1110 -0.6332
  580MOL0     C79941   2.768   8.513   5.344 -0.0267 -0.7780 -0.0838
  580MOL0     C79942   2.804   8.393   5.430  0.1706 -0.4240 -0.5506
  580MOL0     C79943   2.906   8.296   5.368  0.8744  0.3668  0.7464
  580MOL0     C79944   2.983   8.210   5.466 -0.8159 -0.0179  0.3233
  580MOL0     C79945   2.892   8.145   5.571 -0.4016 -0.1683  0.1097
  580MOL0     C79946   2.926   8.007   5.627 -0.3911 -0.5259 -0.1674
  580MOL0    Cl79947   2.962   7.898   5.489 -0.1548 -0.1309  0.4700
  580MOL0     C79948   2.283   8.827   5.253 -0.3926  0.2338 -0.7400
  580MOL0     C79949   2.193   8.911   5.308  0.6819  0.0101 -0.0559
  580MOL0     O79950   2.223   9.203   5.404 -0.5715 -0.4872  0.6372
  580MOL0     C79951   1.903   9.214   5.575  0.0204  0.2112  0.2035
  580MOL0     C79952   1.807   9.288   5.622 -0.4805  0.8223 -0.5140
  580MOL0     N79953   1.291   9.276   5.842 -0.3874 -0.3532 -0.0019
  580MOL0     N79954   1.171   9.258   5.878 -0.4014 -0.7310 -0.3954
  580MOL0     C79955   0.314   8.998   5.609 -0.2863  0.4672 -0.5113
  580MOL0     C79956   0.309   9.135   5.629 -0.6927 -0.3759 -0.3255
  580MOL0     C79957   0.401   9.569   5.510  0.5222 -0.8400  0.9649
  580MOL0     C79958   0.306   9.615   5.604 -0.8718 -0.0048 -0.3835
  580MOL0     C79959   0.234   9.738   5.587  0.2628 -0.1221  0.3727
  580MOL0     C79960   0.251   9.833   5.485  0.0458  0.3748  0.3648
  580MOL0     O79961   0.191   9.960   5.486  0.2157 -0.2185 -0.0183
  580MOL0     C79962   0.255  10.065   5.408  0.1753 -0.1626 -0.4456
  580MOL0     C79963   0.177  10.201   5.421  0.1277  0.1139 -0.0285
  580MOL0     C79964   0.262  10.317   5.373 -0.7206 -0.0967  0.2639
  580MOL0     C79965   0.231  10.451   5.431 -0.5023 -0.2185 -0.4059
  580MOL0     C79966   0.299  10.564   5.376 -0.3208 -0.3633  0.5530
  580MOL0     C79967   0.348  10.671   5.327  0.0090 -0.7163  0.5526
  580MOL0     C79968   0.344   9.786   5.398  0.2739  0.0514 -0.2268
  580MOL0     C79969   0.415   9.658   5.402  0.2473 -0.3051  0.0975
  580MOL0     C79970   0.509   9.631   5.292  0.6119 -0.7108 -0.0349
  580MOL0     H79971   0.625   9.195   5.519  0.1452 -0.7281  1.5123
  580MOL0     H79972   0.639   8.963   5.506  0.1415 -0.2218  1.0813
  580MOL0     H79973   0.310   8.663   5.684 -0.8581  1.2745 -2.5337
  580MOL0     H79974   0.385   8.813   5.774  1.1192 -0.1992  1.0822
  580MOL0     H79975   0.473   8.592   5.842  0.2058 -0.5320 -0.3399
  580MOL0     H79976   0.521   8.569   5.677  0.4581  0.7009 -0.3724
  580MOL0     H79977   0.603   8.822   5.793 -1.6405  0.1886 -0.7791
  580MOL0     H79978   0.682   8.685   5.873  1.2294 -3.2110 -1.2452
  580MOL0     H79979   0.763   8.604   5.658 -1.0221 -0.8112  2.8882
  580MOL0     H79980   0.718   8.749   5.575  0.2395  2.4901  0.1671
  580MOL0     H79981   0.943   8.805   5.627 -2.1489  1.4318 -2.1424
  580MOL0     H79982   0.937   8.740   5.796 -0.0645 -0.9556  0.6525
  580MOL0     H79983   0.775   8.964   5.692 -1.2136 -2.4545 -0.3808
  580MOL0     H79984   0.806   8.912   5.860 -2.0496  1.3368 -0.5476
  580MOL0     H79985   1.033   9.007   5.670  1.4319  1.4987 -0.8201
  580MOL0     H79986   1.032   8.983   5.846 -2.0148 -1.5541 -0.5927
  580MOL0     H79987   0.887   9.222   5.710  0.8071  1.9712 -0.0279
  580MOL0     H79988   0.909   9.193   5.877 -0.1931 -2.2910  0.7847
  580MOL0     H79989   1.120   9.240   5.562  0.1014 -0.0551 -0.7984
  580MOL0     H79990   1.385   9.276   5.505  1.3527 -1.5176  0.1026
  580MOL0     H79991   1.496   9.239   5.626  2.8046  1.2156 -7.4673
  580MOL0     H79992   1.353   9.500   5.607  0.9022 -0.3295 -1.6708
  580MOL0     H79993   1.486   9.463   5.727  2.0668 -0.0346 -0.7882
  580MOL0     H79994   1.570   9.427   5.441 -1.5574 -0.9160  1.0937
  580MOL0     H79995   1.477   9.574   5.456 -0.0591  1.5031  3.0599
  580MOL0     H79996   1.703   9.601   5.488 -0.0482 -0.4097 -0.2216
  580MOL0     H79997   1.602   9.671   5.605 -0.2478 -0.5542  0.5473
  580MOL0     H79998   1.947   9.595   5.562  1.0050 -0.6611 -1.9845
  580MOL0     H79999   2.249   9.468   5.527 -2.0930  0.8597  2.9793
  580MOL0     H80000   2.143   9.589   5.467  5.7648  1.9219 -2.0166
  580MOL0     H80001   2.182   9.451   5.355  0.0470 -0.4415 -0.8161
  580MOL0     H80002   2.257   8.886   5.630  0.1198 -0.2826 -0.4812
  580MOL0     H80003   2.424   8.705   5.547  0.0918  1.1236  0.3970
  580MOL0     H80004   2.454   8.520   5.439  3.9371 -2.8871  2.3780
  580MOL0     H80005   2.528   8.463   5.291 -3.0579 -2.3944  1.0582
  580MOL0     H80006   2.681   8.705   5.371  0.1295 -0.1423 -1.5102
  580MOL0     H80007   2.661   8.589   5.507 -1.6921  2.1203 -0.2212
  580MOL0     H80008   2.853   8.580   5.328 -0.0843 -0.1396  2.0553
  580MOL0     H80009   2.742   8.488   5.241 -0.9359  1.0232 -0.3228
  580MOL0     H80010   2.710   8.337   5.440  1.0843 -1.5831  4.3004
  580MOL0     H80011   2.845   8.416   5.529  3.1637 -0.0053 -1.7939
  580MOL0     H80012   2.849   8.226   5.305 -0.5489 -0.0367  2.3996
  580MOL0     H80013   2.980   8.349   5.308  0.6768  1.0648  1.1153
  580MOL0     H80014   3.048   8.268   5.531 -0.6917 -3.0735  3.1948
  580MOL0     H80015   3.047   8.138   5.414  1.2810  0.9062  1.5151
  580MOL0     H80016   2.793   8.129   5.528 -0.6800  0.4902  0.4846
  580MOL0     H80017   2.870   8.221   5.647 -1.5545  0.8778 -1.2183
  580MOL0     H80018   2.848   7.961   5.689 -0.9564  1.6088  0.8192
  580MOL0     H80019   3.020   8.006   5.684  0.5693  0.2839 -1.6774
  580MOL0     H80020   2.299   8.818   5.146  1.7788  0.4828 -0.4735
  580MOL0     H80021   2.138   8.967   5.233  0.8783  0.3110  0.0241
  580MOL0     H80022   1.874   9.109   5.577 -0.7869  0.2732 -2.6666
  580MOL0     H80023   1.723   9.243   5.672 -0.4153  2.0285  0.7446
  580MOL0     H80024   0.226   8.940   5.635  0.2418  0.9013  2.6676
  580MOL0     H80025   0.229   9.197   5.666  1.4744  0.5504  3.3611
  580MOL0     H80026   0.270   9.547   5.681 -2.1047 -0.6033 -1.4478
  580MOL0     H80027   0.173   9.774   5.669  2.5337  3.8542  0.5616
  580MOL0     H80028   0.359  10.073   5.442  0.2249  2.2002 -0.9586
  580MOL0     H80029   0.250  10.032   5.304 -0.0518 -1.3479 -0.0712
  580MOL0     H80030   0.161  10.214   5.528 -1.1858  0.5707 -0.2546
  580MOL0     H80031   0.081  10.199   5.367 -1.0812  1.0348  1.9837
  580MOL0     H80032   0.368  10.292   5.391 -0.0166  0.8128 -2.2206
  580MOL0     H80033   0.246  10.329   5.265 -1.8700 -1.3028  0.2797
  580MOL0     H80034   0.259  10.441   5.537 -1.5814  1.2934  0.0653
  580MOL0     H80035   0.127  10.484   5.425  0.4260  3.2541  0.2185
  580MOL0     H80036   0.405  10.751   5.284 -2.6798  1.0095 -0.0571
  580MOL0     H80037   0.365   9.858   5.320  1.1583  1.2108  1.0266
  580MOL0     H80038   0.609   9.624   5.334  1.4686 -0.6567 -1.9751
  580MOL0     H80039   0.489   9.535   5.241  1.1253  0.1535 -1.9511
  580MOL0     H80040   0.520   9.724   5.237  1.5430  0.2787  1.7433
  581MOL0     O80041   5.362   4.944   2.949 -0.1062 -0.4872  0.7108
  581MOL0     C80042   5.278   5.028   2.909 -0.2053  0.5485 -0.5698
  581MOL0     O80043   5.203   5.114   2.987 -1.1120 -0.1030  0.4568
  581MOL0     C80044   5.246   5.143   3.109 -0.2890  0.4698  0.1143
  581MOL0     C80045   5.185   5.080   3.216 -0.5619  0.5812  0.6517
  581MOL0     C80046   5.217   5.107   3.348  0.1049 -0.5670 -0.2007
  581MOL0     C80047   5.323   5.202   3.381  0.1756  0.2518 -0.6311
  581MOL0     O80048   5.361   5.225   3.508 -0.4873  0.5693  0.6421
  581MOL0     C80049   5.496   5.275   3.522  0.2273 -0.6491  0.3766
  581MOL0     C80050   5.530   5.250   3.665 -0.8199  0.5594  0.1174
  581MOL0     C80051   5.650   5.326   3.724  1.5356  0.1808  1.4853
  581MOL0     C80052   5.658   5.340   3.878  0.3226  0.7293  0.7606
  581MOL0     C80053   5.559   5.441   3.925 -0.2898 -0.4530  0.0846
  581MOL0     C80054   5.580   5.458   4.081 -0.4544 -0.6026 -0.1002
  581MOL0     C80055   5.469   5.534   4.135  0.7371  0.9679 -0.6952
  581MOL0     C80056   5.464   5.555   4.287 -0.0579 -0.7157  0.0898
  581MOL0     N80057   5.346   5.636   4.308  0.8030  0.1102  1.0038
  581MOL0     C80058   5.342   5.769   4.279 -0.0385  0.4624 -0.5964
  581MOL0     C80059   5.212   5.799   4.286  0.1185 -1.3004 -0.6365
  581MOL0     C80060   5.151   5.938   4.261  0.7946 -1.0447  0.2268
  581MOL0     C80061   5.151   6.018   4.383 -0.6935  0.6968 -1.2767
  581MOL0     C80062   5.036   5.969   4.476  0.3206  0.0678 -1.1247
  581MOL0     C80063   5.012   6.083   4.583 -0.4566 -0.1109 -0.5345
  581MOL0     O80064   5.130   6.128   4.667  0.7628 -0.7236 -0.6205
  581MOL0     C80065   5.164   6.052   4.771 -0.3736 -0.9660  0.4896
  581MOL0     C80066   5.283   6.093   4.839  0.7825  0.8269 -0.7089
  581MOL0     C80067   5.328   6.013   4.950 -0.1755 -0.3876  0.1952
  581MOL0     C80068   5.460   6.058   5.003  0.1475 -0.6607  0.7412
  581MOL0     C80069   5.257   5.888   4.977  0.3049 -0.8444 -0.7962
  581MOL0     C80070   5.289   5.794   5.098 -0.6532 -0.3799  0.4391
  581MOL0     O80071   5.198   5.709   5.150 -0.4768  0.2096  0.1044
  581MOL0     C80072   5.186   5.696   5.282 -1.5444  0.1850 -0.3313
  581MOL0     C80073   5.238   5.783   5.381  0.0659 -0.3968 -0.3975
  581MOL0     C80074   5.236   5.740   5.519  0.4394 -0.5968 -1.0524
  581MOL0     C80075   5.173   5.631   5.563 -0.6719  0.4567 -1.1743
  581MOL0     O80076   5.156   5.609   5.696 -0.5511 -0.6866  0.6398
  581MOL0     C80077   5.132   5.481   5.743  0.2598 -0.1225  0.7431
  581MOL0     C80078   5.164   5.490   5.886 -0.6779  0.5538 -0.5577
  581MOL0     C80079   5.079   5.593   5.961  0.3703 -0.5080  0.5051
  581MOL0     C80080   5.119   5.573   6.115  1.0530 -0.1637  0.4346
  581MOL0     C80081   5.024   5.662   6.195 -0.0498  0.1508  0.2493
  581MOL0     C80082   5.011   5.623   6.348  0.0817 -0.8658 -0.5214
  581MOL0     C80083   4.892   5.522   6.360  0.4454 -0.1212  0.2557
  581MOL0     C80084   4.923   5.400   6.456  0.3937  0.4616  0.9799
  581MOL0    Cl80085   5.011   5.439   6.614  0.1648  0.2509  0.0430
  581MOL0     C80086   5.110   5.550   5.467  0.3677  0.7207 -0.2537
  581MOL0     C80087   5.113   5.580   5.331 -0.3374  0.7709  0.2589
  581MOL0     O80088   5.403   5.790   5.128 -0.5966  0.8693 -0.2647
  581MOL0     C80089   5.147   5.847   4.905 -0.1052  0.2299 -0.8331
  581MOL0     C80090   5.094   5.931   4.808 -0.3573 -0.2931 -0.0109
  581MOL0     N80091   5.138   5.684   4.327 -0.3555  0.0450  0.2606
  581MOL0     N80092   5.226   5.593   4.328 -0.1205  0.6794  0.1298
  581MOL0     C80093   5.384   5.263   3.268 -1.0865  0.2857  0.6541
  581MOL0     C80094   5.354   5.232   3.136 -1.2871 -0.1790  0.5132
  581MOL0     C80095   5.222   5.015   2.774 -0.5846  0.5182  0.1996
  581MOL0     C80096   5.244   4.888   2.718  0.6079 -1.0160  0.5242
  581MOL0     C80097   5.205   4.873   2.581 -0.2552 -0.2269 -0.4701
  581MOL0     C80098   5.152   4.974   2.499 -0.1387 -0.3914 -0.0012
  581MOL0     O80099   5.127   4.955   2.368 -0.0509  0.0009 -0.1948
  581MOL0     C80100   4.996   4.902   2.355  0.3929 -0.5931 -0.2270
  581MOL0     C80101   4.889   5.013   2.349 -0.0197  0.3593 -0.1239
  581MOL0     C80102   4.744   4.952   2.340 -0.2716 -0.7053  0.1448
  581MOL0     C80103   4.643   5.068   2.312 -0.8075 -0.6636  1.3391
  581MOL0     C80104   4.630   5.154   2.438 -0.0537  0.4702 -0.0432
  581MOL0     C80105   4.612   5.221   2.535 -0.6622  0.3858 -0.3616
  581MOL0     C80106   5.146   5.091   2.562  0.2038  0.7359  0.4817
  581MOL0     C80107   5.173   5.116   2.691 -0.6334 -0.0294  0.8050
  581MOL0     C80108   5.169   5.265   2.726 -0.7107  0.5659  0.5392
  581MOL0     H80109   5.103   5.011   3.196  0.8786 -2.1143  3.2655
  581MOL0     H80110   5.174   5.057   3.434 -0.0959 -2.2086 -1.2194
  581MOL0     H80111   5.506   5.381   3.498  1.2950 -1.6865 -4.9826
  581MOL0     H80112   5.574   5.232   3.458  1.6470 -0.3774  1.8707
  581MOL0     H80113   5.440   5.264   3.724 -1.2914 -4.8180  1.1413
  581MOL0     H80114   5.564   5.147   3.679  0.9395  1.4459  3.2809
  581MOL0     H80115   5.746   5.284   3.691 -0.1171 -2.4618 -0.4430
  581MOL0     H80116   5.639   5.428   3.687 -1.4634 -0.9441 -1.1566
  581MOL0     H80117   5.634   5.242   3.922 -4.9946  1.3438 -0.1711
  581MOL0     H80118   5.760   5.363   3.909  1.1190 -0.3929 -0.8564
  581MOL0     H80119   5.460   5.397   3.908  0.1915 -0.4071 -3.7760
  581MOL0     H80120   5.566   5.537   3.873 -1.9345  0.2109  1.0292
  581MOL0     H80121   5.612   5.367   4.134  0.8503  0.4068  0.9026
  581MOL0     H80122   5.667   5.524   4.085  2.1043 -3.7473  1.1642
  581MOL0     H80123   5.389   5.462   4.114  1.3804 -0.3702  1.1948
  581MOL0     H80124   5.452   5.623   4.074 -2.0632  0.7987 -0.3235
  581MOL0     H80125   5.451   5.459   4.338 -1.5285 -2.3532 -3.1175
  581MOL0     H80126   5.558   5.605   4.313  0.3034 -0.7785 -1.0317
  581MOL0     H80127   5.427   5.832   4.256  0.9041 -0.9398 -1.0835
  581MOL0     H80128   5.054   5.934   4.211  1.1887 -0.5176 -0.6050
  581MOL0     H80129   5.215   5.998   4.196 -0.3304  0.3214  0.3331
  581MOL0     H80130   5.249   5.999   4.429 -1.0125 -3.7526 -2.0460
  581MOL0     H80131   5.137   6.124   4.358  0.0827  1.2023  0.3130
  581MOL0     H80132   4.947   5.949   4.415 -0.8621  3.2035 -0.6247
  581MOL0     H80133   5.063   5.874   4.523 -2.6445  0.5540  1.8964
  581MOL0     H80134   4.974   6.161   4.517 -1.7329 -1.6490 -1.6852
  581MOL0     H80135   4.925   6.067   4.647 -1.5866  3.7047 -0.8610
  581MOL0     H80136   5.342   6.180   4.812  2.8048  0.3987  1.9797
  581MOL0     H80137   5.481   6.015   5.102 -0.4784  1.8971  2.0766
  581MOL0     H80138   5.458   6.165   5.021  2.0003 -0.5499  0.5481
  581MOL0     H80139   5.546   6.028   4.943  0.9164 -2.2862  2.5131
  581MOL0     H80140   5.288   5.877   5.359 -0.5599 -0.2740 -1.3361
  581MOL0     H80141   5.280   5.807   5.592  2.5925 -0.6627 -2.2138
  581MOL0     H80142   5.026   5.452   5.743  0.7939 -2.2359  0.1612
  581MOL0     H80143   5.193   5.405   5.694  1.8350 -0.9161  3.6599
  581MOL0     H80144   5.154   5.389   5.927  0.1154 -0.8730 -3.6221
  581MOL0     H80145   5.268   5.518   5.905 -0.6308 -1.4283  2.9450
  581MOL0     H80146   4.975   5.566   5.943 -0.3102  1.5120  1.1924
  581MOL0     H80147   5.099   5.694   5.924  1.9338 -1.1963 -0.6545
  581MOL0     H80148   5.227   5.583   6.133  1.5363 -2.6796 -0.6879
  581MOL0     H80149   5.094   5.471   6.146  2.9030 -0.5825  0.6934
  581MOL0     H80150   5.067   5.763   6.194  2.9357 -1.0144  1.1864
  581MOL0     H80151   4.923   5.655   6.154 -0.5239  0.0686  1.4047
  581MOL0     H80152   4.993   5.714   6.407  1.2792 -1.4655  0.8298
  581MOL0     H80153   5.105   5.592   6.395  0.6699  3.3955  1.6314
  581MOL0     H80154   4.854   5.480   6.266  0.4329 -0.0045  0.2092
  581MOL0     H80155   4.808   5.575   6.404 -1.1074  0.0980 -2.7017
  581MOL0     H80156   4.994   5.335   6.404  0.2059  0.0007  1.2923
  581MOL0     H80157   4.832   5.346   6.484  1.0233  0.4639  3.2092
  581MOL0     H80158   5.062   5.460   5.505  0.9408  0.6671  0.3700
  581MOL0     H80159   5.068   5.511   5.260 -0.3628 -2.4107  3.1075
  581MOL0     H80160   5.121   5.742   4.916  2.7960 -0.4473  0.6183
  581MOL0     H80161   5.009   5.889   4.755 -1.5802  2.9248 -0.8276
  581MOL0     H80162   5.469   5.329   3.278 -1.5489  1.1293 -0.7316
  581MOL0     H80163   5.406   5.287   3.058 -0.3716 -0.1446  1.1399
  581MOL0     H80164   5.265   4.794   2.769 -1.0764 -1.9026 -0.2995
  581MOL0     H80165   5.207   4.772   2.540 -0.8826 -1.4244  2.1775
  581MOL0     H80166   4.989   4.848   2.260  3.1233 -1.8712  0.1943
  581MOL0     H80167   4.961   4.831   2.431  0.8507 -1.2149 -0.5828
  581MOL0     H80168   4.906   5.079   2.263 -1.4369  2.9701  1.4301
  581MOL0     H80169   4.896   5.071   2.442  0.2255 -0.3197  0.2832
  581MOL0     H80170   4.732   4.865   2.275  0.9431 -0.0923 -0.9584
  581MOL0     H80171   4.725   4.916   2.442  2.2493  0.8287  1.2592
  581MOL0     H80172   4.547   5.027   2.279  0.6883 -1.6062 -2.3542
  581MOL0     H80173   4.668   5.122   2.220  2.2257 -2.3940  1.0255
  581MOL0     H80174   4.579   5.283   2.616 -1.6885 -0.1112 -0.3787
  581MOL0     H80175   5.095   5.165   2.501 -0.4516  1.5674  1.9780
  581MOL0     H80176   5.070   5.299   2.697 -1.5264 -2.5263 -0.7392
  581MOL0     H80177   5.186   5.277   2.833  4.5764  0.4471  0.0178
  581MOL0     H80178   5.256   5.304   2.672  0.2928 -0.3840  1.4244
  582MOL0     O80179   3.475  10.927   8.125  0.2774 -0.2563  0.0563
  582MOL0     C80180   3.416  11.024   8.171 -0.2339  0.1394  0.1256
  582MOL0     O80181   3.282  11.041   8.168  0.6502  0.2110  0.0354
  582MOL0     C80182   3.207  10.995   8.064 -0.1744 -0.1627 -0.6676
  582MOL0     C80183   3.078  10.953   8.087 -0.4452  0.2823 -0.4749
  582MOL0     C80184   2.996  10.905   7.979 -0.1300  0.3110  1.1809
  582MOL0     C80185   3.042  10.901   7.846  0.3104  0.6866 -0.7993
  582MOL0     O80186   2.955  10.858   7.744 -0.4419 -0.2809 -0.9963
  582MOL0     C80187   2.981  10.910   7.607 -0.4697 -1.5716  0.3167
  582MOL0     C80188   2.933  11.052   7.597  0.0559 -0.0958  0.5718
  582MOL0     C80189   3.008  11.118   7.480 -0.9310 -0.1310 -0.2663
  582MOL0     C80190   2.994  11.265   7.492  0.4485  0.9697 -0.5797
  582MOL0     C80191   3.055  11.344   7.376 -0.3505  0.7418  0.2156
  582MOL0     C80192   3.058  11.493   7.400 -0.4080 -0.4746 -0.1534
  582MOL0     C80193   3.151  11.543   7.511 -0.1278  0.3736  0.7725
  582MOL0     C80194   3.174  11.702   7.504  0.0073 -0.1407 -0.5592
  582MOL0     N80195   3.047  11.778   7.512 -0.2632 -0.2153  0.4653
  582MOL0     C80196   2.973  11.821   7.406 -0.7458  0.4607 -1.1122
  582MOL0     C80197   2.873  11.888   7.463 -0.3025  0.6207  0.9478
  582MOL0     C80198   2.767  11.978   7.385 -0.6926 -0.0140 -0.1512
  582MOL0     C80199   2.752  12.119   7.442  0.0616  0.1140 -0.0059
  582MOL0     C80200   2.881  12.200   7.445 -0.2352  0.2650 -0.5082
  582MOL0     C80201   2.916  12.264   7.315 -0.1574  0.2308  0.0512
  582MOL0     O80202   3.031  12.346   7.334  0.1541  0.2605 -1.3895
  582MOL0     C80203   3.077  12.421   7.222  0.7248 -0.9666 -0.0856
  582MOL0     C80204   3.175  12.509   7.251 -0.0006 -0.8184 -0.2614
  582MOL0     C80205   3.239  12.591   7.154  0.2226 -0.5919 -0.0786
  582MOL0     C80206   3.359  12.688   7.190 -1.5171  0.0893 -0.3256
  582MOL0     C80207   3.186  12.589   7.022  0.7570 -0.4595  0.0252
  582MOL0     C80208   3.248  12.655   6.899  0.8986  0.2494  1.2514
  582MOL0     O80209   3.387  12.668   6.904 -0.6846  0.9364 -0.0180
  582MOL0     C80210   3.446  12.743   6.793 -0.0335  1.0096 -1.1945
  582MOL0     C80211   3.458  12.883   6.802 -0.0036 -0.1515  0.2691
  582MOL0     C80212   3.496  12.960   6.697 -0.2713  0.3489 -0.0303
  582MOL0     C80213   3.502  12.906   6.568 -0.2728  0.8172 -0.0216
  582MOL0     O80214   3.514  12.979   6.453  1.5627  0.4344  0.2334
  582MOL0     C80215   3.481  13.119   6.462 -0.1948  1.1914 -0.1205
  582MOL0     C80216   3.513  13.202   6.331 -0.6477  0.4326 -0.5269
  582MOL0     C80217   3.626  13.135   6.241  0.8430 -0.3937  0.5766
  582MOL0     C80218   3.575  13.032   6.138 -0.2451  0.3724  0.5624
  582MOL0     C80219   3.491  13.093   6.014 -0.3065  0.4230 -0.5564
  582MOL0     C80220   3.552  13.215   5.943  0.3049  0.8541 -0.1080
  582MOL0     C80221   3.661  13.175   5.848  0.0404 -0.2722  0.4921
  582MOL0     C80222   3.754  13.285   5.801  0.0086 -1.2242  0.3193
  582MOL0    Cl80223   3.858  13.208   5.681  0.4623  0.0097 -0.0233
  582MOL0     C80224   3.486  12.765   6.556  0.9712  0.7278 -0.0916
  582MOL0     C80225   3.474  12.686   6.674 -0.1431 -0.0022  0.3134
  582MOL0     O80226   3.175  12.678   6.802  0.3666 -0.1008 -1.1222
  582MOL0     C80227   3.079  12.492   6.996 -0.4663 -0.5574 -0.2602
  582MOL0     C80228   3.037  12.406   7.090  0.6853  0.4332  0.2010
  582MOL0     N80229   2.890  11.892   7.598  0.3763 -0.0884  0.3211
  582MOL0     N80230   2.999  11.836   7.627 -0.2789  0.4877  0.1198
  582MOL0     C80231   3.179  10.935   7.825  0.5900  0.1755  0.0685
  582MOL0     C80232   3.253  10.989   7.932 -0.5791  0.9200  0.1833
  582MOL0     C80233   3.493  11.138   8.224  0.0943  0.7600 -0.6214
  582MOL0     C80234   3.579  11.095   8.328 -0.9097  0.5110  0.8394
  582MOL0     C80235   3.659  11.186   8.409 -0.2359 -0.0778 -0.1342
  582MOL0     C80236   3.633  11.322   8.387 -0.4480  0.2080  0.3111
  582MOL0     O80237   3.695  11.415   8.460 -0.3381 -0.2517  0.3674
  582MOL0     C80238   3.627  11.439   8.583 -0.2969 -0.0474  0.2796
  582MOL0     C80239   3.573  11.579   8.603 -0.1840 -0.5010 -0.5984
  582MOL0     C80240   3.525  11.616   8.741 -0.3823 -0.1971  0.4545
  582MOL0     C80241   3.501  11.772   8.741 -0.1726 -0.9197 -0.8206
  582MOL0     C80242   3.549  11.834   8.865 -0.1633 -0.8518 -0.5346
  582MOL0     C80243   3.581  11.900   8.967  0.1549 -0.1672  1.4473
  582MOL0     C80244   3.542  11.364   8.285  0.3629 -0.1150  0.0713
  582MOL0     C80245   3.474  11.274   8.199 -0.2910  0.6144  0.1427
  582MOL0     C80246   3.402  11.323   8.073 -0.4446 -0.6275  0.2328
  582MOL0     H80247   3.036  10.975   8.185 -3.6716 -2.0191 -1.1640
  582MOL0     H80248   2.894  10.877   8.005 -0.2844  2.7524  3.6949
  582MOL0     H80249   2.924  10.857   7.530  0.7930  0.0824 -1.8423
  582MOL0     H80250   3.084  10.891   7.579 -0.4771  0.5885 -1.4125
  582MOL0     H80251   2.828  11.052   7.567  0.7159  0.8241 -2.0034
  582MOL0     H80252   2.943  11.103   7.693  1.0648 -2.3356  1.7368
  582MOL0     H80253   3.115  11.094   7.486 -1.0133 -0.1724  3.1724
  582MOL0     H80254   2.972  11.081   7.384 -1.8676  2.2423 -0.9061
  582MOL0     H80255   2.887  11.281   7.508  0.0460 -1.5117 -0.4314
  582MOL0     H80256   3.052  11.289   7.582  0.5233  0.4303 -0.4815
  582MOL0     H80257   3.000  11.333   7.282  1.3057 -1.6000 -0.5917
  582MOL0     H80258   3.155  11.303   7.355 -1.3184 -1.5014 -0.2643
  582MOL0     H80259   3.098  11.540   7.309  0.5109 -2.5467 -0.8826
  582MOL0     H80260   2.959  11.528   7.429 -0.4035 -2.3921  2.5144
  582MOL0     H80261   3.253  11.505   7.517  0.5140  1.9481  0.2972
  582MOL0     H80262   3.102  11.530   7.608 -0.1361 -0.3258  0.6757
  582MOL0     H80263   3.233  11.729   7.592  1.3947 -0.9056 -1.2169
  582MOL0     H80264   3.225  11.729   7.411  1.7082 -1.1246  0.0393
  582MOL0     H80265   2.995  11.810   7.300 -1.1361  0.9425 -1.2473
  582MOL0     H80266   2.676  11.918   7.376  0.1688 -1.5657  1.0229
  582MOL0     H80267   2.814  11.997   7.288  3.2470 -4.2169  0.6125
  582MOL0     H80268   2.681  12.170   7.376 -1.0261 -1.0705  0.2179
  582MOL0     H80269   2.707  12.124   7.541  2.7737  0.9824  1.2934
  582MOL0     H80270   2.872  12.274   7.526  1.5447  0.0911 -0.1213
  582MOL0     H80271   2.959  12.141   7.493  1.0941  0.7253 -2.0331
  582MOL0     H80272   2.948  12.183   7.249  1.3028  0.1248  0.8296
  582MOL0     H80273   2.824  12.313   7.284 -1.9335 -2.8614 -0.0274
  582MOL0     H80274   3.209  12.517   7.354  1.8493 -1.1922 -0.8098
  582MOL0     H80275   3.359  12.711   7.297  1.5727 -0.6564 -0.0725
  582MOL0     H80276   3.329  12.779   7.136 -2.4062 -1.0932 -1.9187
  582MOL0     H80277   3.454  12.646   7.157 -1.5213 -0.6245  0.5457
  582MOL0     H80278   3.443  12.922   6.903  2.8925 -3.2367  2.0804
  582MOL0     H80279   3.519  13.064   6.716  3.0505 -0.3162  0.1857
  582MOL0     H80280   3.382  13.140   6.503  0.6879  0.8073  2.4090
  582MOL0     H80281   3.544  13.154   6.545 -0.0966 -3.6385  2.1922
  582MOL0     H80282   3.421  13.213   6.274  0.2744  1.3117 -1.8789
  582MOL0     H80283   3.545  13.304   6.351 -1.3195  0.4006  0.8700
  582MOL0     H80284   3.693  13.081   6.308 -0.7418 -0.4672  2.1765
  582MOL0     H80285   3.688  13.216   6.202  0.7018 -0.0172  1.1221
  582MOL0     H80286   3.514  12.949   6.176 -2.2454  0.9264 -1.2932
  582MOL0     H80287   3.660  12.980   6.092 -0.5232  1.2952 -1.0236
  582MOL0     H80288   3.474  13.023   5.932  0.4911  1.2263 -1.4269
  582MOL0     H80289   3.395  13.122   6.057 -0.7091 -1.1093 -0.3633
  582MOL0     H80290   3.577  13.293   6.015 -1.9742 -0.4345  2.2512
  582MOL0     H80291   3.472  13.254   5.879  1.7504  2.4777 -1.0310
  582MOL0     H80292   3.631  13.137   5.751  1.8716  3.6081 -1.8653
  582MOL0     H80293   3.723  13.102   5.901  1.9378  0.1304 -1.0376
  582MOL0     H80294   3.825  13.320   5.876  0.6451  1.0150 -1.2436
  582MOL0     H80295   3.705  13.374   5.761  2.5068 -0.0039 -0.2360
  582MOL0     H80296   3.499  12.718   6.459 -1.3069  0.6239 -0.3949
  582MOL0     H80297   3.467  12.578   6.669  0.6778 -0.0592  0.3250
  582MOL0     H80298   3.041  12.485   6.895 -3.7261  0.7265  0.7450
  582MOL0     H80299   2.966  12.328   7.064 -0.5172  1.5316  0.0777
  582MOL0     H80300   3.230  10.931   7.729  1.0938  1.5795  0.2460
  582MOL0     H80301   3.354  11.028   7.923 -1.0526  3.0179  2.5418
  582MOL0     H80302   3.617  10.994   8.341  1.2689  1.4312  2.0993
  582MOL0     H80303   3.726  11.150   8.487  0.2635 -0.2471 -0.6361
  582MOL0     H80304   3.544  11.370   8.601 -1.6237  1.7942  1.5966
  582MOL0     H80305   3.700  11.431   8.665 -1.6741  1.5980  1.7571
  582MOL0     H80306   3.480  11.592   8.546 -0.3375  3.5240  0.2665
  582MOL0     H80307   3.653  11.643   8.564  2.9046 -3.4881  0.3018
  582MOL0     H80308   3.436  11.560   8.770 -1.9750  0.8756 -2.0256
  582MOL0     H80309   3.597  11.602   8.822 -0.0559  2.3289  0.6997
  582MOL0     H80310   3.394  11.789   8.722 -0.6621 -0.3741  1.9105
  582MOL0     H80311   3.554  11.822   8.660 -1.1885  2.1492  0.2286
  582MOL0     H80312   3.619  11.952   9.052  3.3998 -1.7389  1.1080
  582MOL0     H80313   3.527  11.470   8.265  1.4635 -0.0579 -0.5202
  582MOL0     H80314   3.429  11.269   7.982  0.3175 -1.8639  1.1489
  582MOL0     H80315   3.297  11.345   8.096 -0.2572  1.3394 -0.6652
  582MOL0     H80316   3.442  11.419   8.040  1.3691 -1.7783 -1.0919
  583MOL0     O80317   4.647   7.991   5.059  0.3602  0.0534 -0.5373
  583MOL0     C80318   4.553   8.074   5.064 -0.5029  0.2715  0.1463
  583MOL0     O80319   4.573   8.209   5.046  0.4016 -0.5301 -0.3240
  583MOL0     C80320   4.695   8.272   5.064  0.0038  0.1721  0.0685
  583MOL0     C80321   4.725   8.386   4.984 -0.5693 -0.1432  0.4182
  583MOL0     C80322   4.833   8.463   5.021  0.5375 -0.4474  0.1339
  583MOL0     C80323   4.909   8.439   5.135 -0.3317 -0.7976 -0.4892
  583MOL0     O80324   5.031   8.503   5.143  0.2770 -0.5209 -0.7032
  583MOL0     C80325   5.147   8.445   5.212 -0.5096  0.2970  0.3190
  583MOL0     C80326   5.268   8.535   5.224  0.0187  0.0486 -0.4170
  583MOL0     C80327   5.334   8.582   5.092  0.9570  0.7675 -0.0191
  583MOL0     C80328   5.459   8.646   5.118 -1.0995 -0.2411 -0.2940
  583MOL0     C80329   5.577   8.560   5.076  0.4515 -0.4989 -1.0230
  583MOL0     C80330   5.590   8.441   5.175 -0.7162 -0.1981 -0.2292
  583MOL0     C80331   5.711   8.366   5.124  0.1884  0.0848 -0.1737
  583MOL0     C80332   5.672   8.222   5.175  0.9940 -0.2714  0.6275
  583MOL0     N80333   5.792   8.136   5.159 -0.2646 -0.6246  0.2042
  583MOL0     C80334   5.835   8.066   5.047  0.2479  0.7302  0.0484
  583MOL0     C80335   5.944   7.994   5.095  0.1630 -0.0760 -0.2362
  583MOL0     C80336   6.035   7.903   5.026  0.1170  0.2426  0.1606
  583MOL0     C80337   5.969   7.801   4.937 -0.6118 -0.2602  0.1636
  583MOL0     C80338   6.069   7.726   4.845  0.0348  0.0194  0.6052
  583MOL0     C80339   5.997   7.610   4.780  0.2736  0.2829 -0.5007
  583MOL0     O80340   5.950   7.523   4.883  0.4981 -0.1687  0.0478
  583MOL0     C80341   6.000   7.399   4.882  0.7484  0.0629  0.5452
  583MOL0     C80342   6.139   7.378   4.909 -0.5096 -0.8525  0.3491
  583MOL0     C80343   6.188   7.251   4.900 -0.2078  0.3666  0.3199
  583MOL0     C80344   6.344   7.245   4.902  0.4135 -0.1307  0.6533
  583MOL0     C80345   6.105   7.137   4.884 -0.0583  0.4138  0.5536
  583MOL0     C80346   6.147   6.996   4.881 -0.5847 -0.1678 -1.1457
  583MOL0     O80347   6.045   6.901   4.883 -0.3701  0.1693 -0.2125
  583MOL0     C80348   6.070   6.774   4.828 -0.2986  0.5669  0.5237
  583MOL0     C80349   6.000   6.664   4.874  1.7351 -0.2930  0.8782
  583MOL0     C80350   6.002   6.539   4.811 -0.1525  0.0734  0.5054
  583MOL0     C80351   6.095   6.509   4.715 -0.0976 -0.0237 -0.8010
  583MOL0     O80352   6.113   6.378   4.666 -0.3383 -0.0847 -0.8517
  583MOL0     C80353   6.016   6.316   4.593 -0.1308  1.1921 -0.1091
  583MOL0     C80354   6.038   6.164   4.610 -0.6690 -0.1461 -0.0077
  583MOL0     C80355   6.021   6.109   4.755 -0.7005  0.3096 -0.1245
  583MOL0     C80356   6.052   5.960   4.775 -0.9950  0.7471 -0.8629
  583MOL0     C80357   5.978   5.872   4.685 -0.1145 -0.7363  0.5683
  583MOL0     C80358   6.021   5.720   4.704  0.3406  0.0062  0.5668
  583MOL0     C80359   5.932   5.634   4.603 -0.0444 -0.3068 -0.6792
  583MOL0     C80360   5.982   5.492   4.606 -0.1318 -0.1212 -0.1930
  583MOL0    Cl80361   6.128   5.477   4.499  0.2768  0.1809  0.0913
  583MOL0     C80362   6.184   6.606   4.685  0.2282 -0.0209 -0.2359
  583MOL0     C80363   6.164   6.738   4.728 -0.4251  0.0365  0.2770
  583MOL0     O80364   6.269   6.965   4.889  0.0631  0.3012 -0.6157
  583MOL0     C80365   5.974   7.161   4.849  0.2761 -0.3564  0.4712
  583MOL0     C80366   5.922   7.288   4.838 -0.3217  1.5374 -0.6872
  583MOL0     N80367   5.967   8.032   5.226  0.1150 -0.7960 -0.3874
  583MOL0     N80368   5.877   8.124   5.266  0.6566  1.0079  0.1041
  583MOL0     C80369   4.877   8.330   5.218  0.0705  0.1019 -0.5142
  583MOL0     C80370   4.769   8.249   5.176 -0.0418 -0.2174 -0.1444
  583MOL0     C80371   4.426   8.021   5.106  0.3270  0.4831 -0.2033
  583MOL0     C80372   4.393   7.886   5.076  0.2241 -0.1906 -0.2372
  583MOL0     C80373   4.283   7.831   5.133  1.1427 -0.1426 -0.1150
  583MOL0     C80374   4.180   7.904   5.202 -0.9370 -0.6184 -0.0008
  583MOL0     O80375   4.064   7.862   5.270  0.6112 -0.2619 -0.2000
  583MOL0     C80376   4.008   7.730   5.234  0.1330  0.3753  1.0618
  583MOL0     C80377   3.851   7.732   5.227  0.2169  0.4245 -0.4703
  583MOL0     C80378   3.817   7.813   5.098 -0.3619  0.4471  0.4254
  583MOL0     C80379   3.677   7.789   5.040  0.2671  0.5107 -0.5250
  583MOL0     C80380   3.583   7.821   5.144 -0.5477 -0.2030 -1.1127
  583MOL0     C80381   3.497   7.848   5.228 -0.7349 -0.9569 -0.6053
  583MOL0     C80382   4.203   8.041   5.216  0.7226  0.2466 -0.2764
  583MOL0     C80383   4.318   8.098   5.167 -0.3173  0.3855  0.8039
  583MOL0     C80384   4.333   8.241   5.208 -0.0185  0.3361 -0.7994
  583MOL0     H80385   4.659   8.418   4.904 -0.2963 -0.8014 -0.0730
  583MOL0     H80386   4.864   8.540   4.950 -0.1371 -0.1986  0.0981
  583MOL0     H80387   5.172   8.359   5.149 -2.8895  0.1372 -0.4895
  583MOL0     H80388   5.119   8.416   5.314  0.0475  3.0612  1.3608
  583MOL0     H80389   5.259   8.625   5.286  1.0347  1.6126 -2.4318
  583MOL0     H80390   5.343   8.481   5.284 -0.0636  0.8214  0.3994
  583MOL0     H80391   5.350   8.498   5.025  1.8947  2.8689 -2.6177
  583MOL0     H80392   5.262   8.646   5.041 -0.1279  1.2525  1.9911
  583MOL0     H80393   5.479   8.732   5.054 -1.2055 -0.6860 -0.9344
  583MOL0     H80394   5.474   8.677   5.222  3.6257 -0.1689 -0.7843
  583MOL0     H80395   5.673   8.612   5.067 -0.5224  1.3904 -1.0214
  583MOL0     H80396   5.541   8.520   4.980  0.9846 -0.6827 -1.1491
  583MOL0     H80397   5.610   8.472   5.279  2.8826 -4.6866  0.7171
  583MOL0     H80398   5.499   8.381   5.169  0.8866 -3.2645  2.5768
  583MOL0     H80399   5.806   8.391   5.173  1.0907 -1.3146 -1.1303
  583MOL0     H80400   5.721   8.372   5.015 -1.8839  0.3175 -0.3964
  583MOL0     H80401   5.651   8.225   5.283  1.7326 -1.3487  0.8191
  583MOL0     H80402   5.586   8.173   5.129  1.4846  1.3821 -2.2853
  583MOL0     H80403   5.794   8.062   4.947  1.9321 -1.5157 -0.6443
  583MOL0     H80404   6.115   7.862   5.089  0.1455 -2.0118 -1.2214
  583MOL0     H80405   6.095   7.960   4.954  3.3891 -0.1059  2.3861
  583MOL0     H80406   5.907   7.732   4.994  1.6153 -0.6545  2.2435
  583MOL0     H80407   5.897   7.852   4.872 -2.0786  0.1181  2.0017
  583MOL0     H80408   6.101   7.796   4.767  1.1160 -1.2022 -0.0960
  583MOL0     H80409   6.154   7.688   4.903 -0.0417  1.3146  1.6203
  583MOL0     H80410   5.909   7.649   4.728  0.2808  1.5726  0.3999
  583MOL0     H80411   6.055   7.558   4.703 -0.9733  0.2006 -1.4154
  583MOL0     H80412   6.203   7.464   4.927  0.7655 -1.1552 -2.2480
  583MOL0     H80413   6.390   7.343   4.888 -0.6046 -0.0219 -2.7433
  583MOL0     H80414   6.387   7.186   4.821  0.1810  0.8364 -0.2034
  583MOL0     H80415   6.372   7.191   4.992 -1.3511 -2.6624 -0.2112
  583MOL0     H80416   5.920   6.678   4.946  1.4382 -1.3719  0.7792
  583MOL0     H80417   5.926   6.463   4.829  0.7565 -0.8650  0.4347
  583MOL0     H80418   5.915   6.348   4.621  0.2405  0.8446  1.7961
  583MOL0     H80419   6.028   6.337   4.487 -0.2528  0.8086 -0.1985
  583MOL0     H80420   5.971   6.110   4.543 -2.0727 -2.3056  2.9010
  583MOL0     H80421   6.144   6.151   4.584 -0.4136  0.5454  0.6322
  583MOL0     H80422   5.916   6.128   4.777 -0.9196  0.5758 -1.2866
  583MOL0     H80423   6.073   6.164   4.833  0.7365  2.5968 -2.5413
  583MOL0     H80424   6.032   5.939   4.880  1.7479  1.3029 -0.1441
  583MOL0     H80425   6.160   5.941   4.771 -1.0044  0.2531  0.5888
  583MOL0     H80426   5.873   5.880   4.713 -0.1232 -3.2340  1.6014
  583MOL0     H80427   5.990   5.901   4.580  2.7284  0.5889  1.1638
  583MOL0     H80428   5.999   5.695   4.808  2.5983 -2.3211  0.5794
  583MOL0     H80429   6.126   5.718   4.675 -0.0543 -1.0283 -0.9223
  583MOL0     H80430   5.933   5.672   4.500  0.9023  1.2879 -0.1289
  583MOL0     H80431   5.828   5.637   4.635  0.6751  1.0230  1.8745
  583MOL0     H80432   5.891   5.444   4.569 -0.1902  0.6370 -1.0722
  583MOL0     H80433   5.998   5.465   4.711  0.9298  0.1392 -0.2764
  583MOL0     H80434   6.265   6.576   4.619 -0.4466  0.5313 -1.3188
  583MOL0     H80435   6.228   6.813   4.682 -1.8112  1.1326  0.0656
  583MOL0     H80436   5.913   7.079   4.812  1.6440 -0.8276 -0.8646
  583MOL0     H80437   5.817   7.291   4.810 -0.6934 -1.1806  0.1854
  583MOL0     H80438   4.917   8.305   5.315  1.9359 -0.4958 -1.3868
  583MOL0     H80439   4.749   8.167   5.244  0.8781  1.1821  1.9144
  583MOL0     H80440   4.463   7.819   5.029  1.0672 -0.3302  1.1613
  583MOL0     H80441   4.260   7.726   5.118  1.1039 -0.0506 -0.7074
  583MOL0     H80442   4.045   7.702   5.135  1.5129 -1.9148  2.1244
  583MOL0     H80443   4.051   7.655   5.301 -1.5158 -1.2951  0.3408
  583MOL0     H80444   3.804   7.777   5.315 -1.5305 -2.7868  0.3807
  583MOL0     H80445   3.814   7.630   5.221  1.4551  0.0248 -1.7742
  583MOL0     H80446   3.839   7.918   5.120 -0.6021  0.2330  1.7717
  583MOL0     H80447   3.897   7.786   5.028  1.1177 -0.4551  2.3534
  583MOL0     H80448   3.664   7.684   5.013  2.8850 -0.5849  1.9861
  583MOL0     H80449   3.674   7.853   4.951 -0.3883  2.6004  0.9033
  583MOL0     H80450   3.417   7.870   5.296 -0.0080 -1.4699  0.4453
  583MOL0     H80451   4.125   8.075   5.283 -0.2404 -2.2820  0.0012
  583MOL0     H80452   4.272   8.271   5.294  2.3547  1.0332  0.7567
  583MOL0     H80453   4.436   8.262   5.240 -0.6030  3.1173 -0.4701
  583MOL0     H80454   4.310   8.319   5.135  3.0930  2.8223  0.6009
  584MOL0     O80455  10.805   1.863   9.303 -0.4055 -0.4570 -0.8251
  584MOL0     C80456  10.703   1.918   9.318  0.0479 -0.1913 -0.5880
  584MOL0     O80457  10.578   1.855   9.306 -0.6739 -0.6240  0.1792
  584MOL0     C80458  10.577   1.725   9.342  0.6919  0.1291  0.2445
  584MOL0     C80459  10.578   1.624   9.246 -0.1293  0.2833 -0.0649
  584MOL0     C80460  10.563   1.487   9.280 -0.9560 -0.0103 -0.2325
  584MOL0     C80461  10.553   1.452   9.417 -0.4284 -0.0658 -0.2621
  584MOL0     O80462  10.554   1.324   9.459 -0.2386  0.5950  0.2625
  584MOL0     C80463  10.606   1.223   9.368 -0.7352  0.2964  0.1992
  584MOL0     C80464  10.649   1.103   9.452 -0.1242 -0.3626 -0.4228
  584MOL0     C80465  10.710   0.991   9.356  0.7518  1.1915  0.5237
  584MOL0     C80466  10.746   0.863   9.427  0.7350  0.3782 -0.0747
  584MOL0     C80467  10.761   0.745   9.330  0.1515  0.2301 -0.5668
  584MOL0     C80468  10.812   0.617   9.395  1.1882  0.7832 -0.1767
  584MOL0     C80469  10.794   0.507   9.297  0.2874  0.2861 -0.0786
  584MOL0     C80470  10.834   0.369   9.356  0.0403  0.3921  0.0229
  584MOL0     N80471  10.723   0.296   9.426  0.6373 -0.4825  0.0103
  584MOL0     C80472  10.674   0.323   9.560  0.0354  0.2736  0.3845
  584MOL0     C80473  10.557   0.256   9.565 -0.1423  1.0587  0.6654
  584MOL0     C80474  10.452   0.224   9.665  0.0456 -0.1675 -0.7833
  584MOL0     C80475  10.322   0.294   9.639 -0.0920 -0.0426 -0.0949
  584MOL0     C80476  10.352   0.443   9.666  1.1621  0.5301  0.3506
  584MOL0     C80477  10.367   0.516   9.540  0.1709 -0.5150  0.6096
  584MOL0     O80478  10.350   0.654   9.572  0.2994 -1.1811  0.1536
  584MOL0     C80479  10.343   0.743   9.472 -0.9926 -0.0720  0.6662
  584MOL0     C80480  10.385   0.726   9.341  0.2308 -0.2523  0.4365
  584MOL0     C80481  10.338   0.826   9.244  0.2012  1.1650 -0.0973
  584MOL0     C80482  10.389   0.805   9.104 -0.5502 -0.4343 -0.5321
  584MOL0     C80483  10.300   0.955   9.294 -0.2687  0.3791  0.4669
  584MOL0     C80484  10.278   1.073   9.215 -0.1341 -0.1919  0.6410
  584MOL0     O80485  10.178   1.155   9.265  0.6267  0.8403 -0.9682
  584MOL0     C80486  10.122   1.234   9.170 -0.4726 -0.0490 -1.1044
  584MOL0     C80487  10.153   1.368   9.159  0.7635 -0.3515  0.4047
  584MOL0     C80488  10.075   1.448   9.076 -0.0043  0.0291  0.8317
  584MOL0     C80489   9.972   1.394   8.988  0.2523 -0.4862 -0.7782
  584MOL0     O80490   9.888   1.464   8.901 -0.0054  0.2554  0.5584
  584MOL0     C80491   9.945   1.582   8.838  1.0092 -0.6831 -0.2059
  584MOL0     C80492   9.842   1.674   8.792  1.0123  0.0007  0.3086
  584MOL0     C80493   9.764   1.599   8.687  0.2112  0.1826  0.5501
  584MOL0     C80494   9.637   1.674   8.660 -0.2216  0.5865  0.3738
  584MOL0     C80495   9.553   1.593   8.555  0.3881  0.4466  0.5964
  584MOL0     C80496   9.428   1.670   8.515 -0.5098  0.2599 -0.7829
  584MOL0     C80497   9.315   1.588   8.450  0.2429  0.0230 -0.1211
  584MOL0     C80498   9.195   1.658   8.381  0.1806  1.1582 -0.7025
  584MOL0    Cl80499   9.239   1.742   8.235  0.3456 -0.2119  0.4293
  584MOL0     C80500   9.931   1.263   9.018  0.2595 -0.0502  0.7399
  584MOL0     C80501  10.007   1.186   9.104  0.4853  0.1477  0.5805
  584MOL0     O80502  10.336   1.098   9.113  0.4688  0.2823  0.1003
  584MOL0     C80503  10.280   0.973   9.432 -1.0960  0.4841  0.1606
  584MOL0     C80504  10.307   0.865   9.514  0.0323 -0.5521 -0.3529
  584MOL0     N80505  10.521   0.205   9.434  0.6603  0.2727  0.9436
  584MOL0     N80506  10.626   0.230   9.354  0.6858  0.7443 -0.6008
  584MOL0     C80507  10.557   1.554   9.509  1.9398  0.0842  0.2126
  584MOL0     C80508  10.565   1.690   9.473 -0.3073  0.2094  0.2333
  584MOL0     C80509  10.711   2.065   9.336  0.1387  0.0917  0.1062
  584MOL0     C80510  10.661   2.146   9.236 -0.5414 -0.5342  0.1532
  584MOL0     C80511  10.699   2.284   9.227 -0.4136  1.0940  0.0905
  584MOL0     C80512  10.763   2.343   9.338 -0.4428  0.5899  0.1558
  584MOL0     O80513  10.791   2.475   9.339 -0.7635 -0.4101  0.7109
  584MOL0     C80514  10.731   2.540   9.453 -0.6966 -0.7416 -0.1862
  584MOL0     C80515  10.634   2.659   9.412  0.1744 -0.4536 -0.0205
  584MOL0     C80516  10.693   2.758   9.315 -0.2320 -0.6725  0.1963
  584MOL0     C80517  10.592   2.829   9.226 -0.4554 -0.0763  0.8473
  584MOL0     C80518  10.507   2.906   9.314 -0.4135 -0.4644  0.3642
  584MOL0     C80519  10.432   2.980   9.372 -0.3268 -0.0888  0.6218
  584MOL0     C80520  10.808   2.253   9.442  0.2316 -0.6614 -0.3578
  584MOL0     C80521  10.790   2.112   9.446  0.2004 -0.2246 -0.8979
  584MOL0     C80522  10.828   2.026   9.575  0.2120  0.2426  0.4052
  584MOL0     H80523  10.601   1.651   9.143  1.9499  0.8493  0.4939
  584MOL0     H80524  10.557   1.405   9.208 -1.3896 -0.9107  0.7996
  584MOL0     H80525  10.680   1.255   9.295  0.0674 -2.0197 -0.1001
  584MOL0     H80526  10.517   1.196   9.310 -0.0153 -1.4816 -0.1383
  584MOL0     H80527  10.722   1.135   9.527  0.4517 -0.8841 -0.7502
  584MOL0     H80528  10.565   1.049   9.496 -0.5731 -0.3092 -1.1909
  584MOL0     H80529  10.628   0.970   9.287 -0.3339  1.3760  1.7208
  584MOL0     H80530  10.799   1.025   9.302  1.3259 -1.9842 -0.7325
  584MOL0     H80531  10.848   0.887   9.460  0.6211  1.1092 -0.2353
  584MOL0     H80532  10.683   0.865   9.516  1.2509  1.5916  0.2968
  584MOL0     H80533  10.842   0.782   9.265  1.9974 -1.2183  0.8190
  584MOL0     H80534  10.669   0.732   9.273 -0.3141 -1.2176  0.4630
  584MOL0     H80535  10.915   0.621   9.432  1.4696 -2.4396 -0.3560
  584MOL0     H80536  10.753   0.582   9.481  2.4563  1.8055  1.1711
  584MOL0     H80537  10.863   0.515   9.212 -0.8657 -0.1415 -1.0917
  584MOL0     H80538  10.690   0.506   9.263 -0.2738  1.4857  1.4854
  584MOL0     H80539  10.875   0.305   9.277 -1.1481 -1.2079  0.6382
  584MOL0     H80540  10.907   0.384   9.436  1.1360 -3.1403 -0.1316
  584MOL0     H80541  10.728   0.356   9.648  0.5567 -0.1675  0.2373
  584MOL0     H80542  10.493   0.255   9.761 -0.9059  3.4919 -1.4309
  584MOL0     H80543  10.445   0.115   9.675  0.4199 -0.1587 -0.3761
  584MOL0     H80544  10.279   0.261   9.544  2.4297 -2.3464 -0.5698
  584MOL0     H80545  10.249   0.259   9.712 -1.9915 -0.7491 -2.2459
  584MOL0     H80546  10.258   0.483   9.705  1.1324  0.2196  0.5926
  584MOL0     H80547  10.430   0.474   9.736  1.6279  2.4911 -0.9398
  584MOL0     H80548  10.466   0.495   9.498  0.6745 -1.3664  2.1528
  584MOL0     H80549  10.289   0.498   9.466  0.9839 -2.0135  0.0634
  584MOL0     H80550  10.452   0.648   9.307  0.2362  0.1896 -0.6121
  584MOL0     H80551  10.453   0.892   9.084 -1.0060 -0.3315 -1.5628
  584MOL0     H80552  10.317   0.806   9.022 -0.2671  1.1565 -0.8069
  584MOL0     H80553  10.457   0.720   9.097 -0.7911 -0.7796  1.0058
  584MOL0     H80554  10.236   1.402   9.221  2.0601 -3.4493  0.5613
  584MOL0     H80555  10.119   1.546   9.060 -0.9382  0.3553  0.1538
  584MOL0     H80556  10.008   1.648   8.899  1.2202  1.0890 -2.2273
  584MOL0     H80557  10.015   1.559   8.757  1.0818 -0.5753 -0.1760
  584MOL0     H80558   9.770   1.699   8.870  0.1701  1.4174 -0.8850
  584MOL0     H80559   9.879   1.765   8.745  1.3606 -0.0206  0.5333
  584MOL0     H80560   9.755   1.493   8.713 -0.7019 -0.1968 -1.1556
  584MOL0     H80561   9.812   1.608   8.589 -1.5119  1.2089 -0.2400
  584MOL0     H80562   9.670   1.771   8.620  1.6784 -0.5947 -1.1121
  584MOL0     H80563   9.598   1.682   8.762  2.1110  2.2445  1.2492
  584MOL0     H80564   9.605   1.575   8.461 -0.3290 -0.1143  0.2957
  584MOL0     H80565   9.530   1.494   8.597 -1.1869 -0.6190 -2.4702
  584MOL0     H80566   9.463   1.759   8.462 -0.2881  0.3144 -0.5502
  584MOL0     H80567   9.381   1.699   8.610  3.5956  2.0024  0.9673
  584MOL0     H80568   9.292   1.520   8.532  1.9556 -1.5758 -0.8816
  584MOL0     H80569   9.357   1.522   8.374  0.9868 -0.8378  1.0005
  584MOL0     H80570   9.150   1.736   8.444 -1.1601  0.7782 -1.1451
  584MOL0     H80571   9.118   1.587   8.349 -3.7065  5.4851 -2.1192
  584MOL0     H80572   9.840   1.227   8.970 -0.1537  1.2022  0.5474
  584MOL0     H80573   9.975   1.082   9.107 -1.1766  0.6415  1.0630
  584MOL0     H80574  10.240   1.065   9.474  2.2193  2.2134 -0.1259
  584MOL0     H80575  10.278   0.856   9.618 -4.3677  1.9204 -1.0888
  584MOL0     H80576  10.520   1.527   9.607 -2.1287 -0.7206 -1.3445
  584MOL0     H80577  10.564   1.766   9.550  0.6154  0.3242  0.1365
  584MOL0     H80578  10.617   2.109   9.143 -1.6565 -1.6308  1.0862
  584MOL0     H80579  10.679   2.328   9.130 -0.3464 -1.9113 -1.3808
  584MOL0     H80580  10.681   2.479   9.528 -2.0589  3.2397  2.4430
  584MOL0     H80581  10.818   2.587   9.499  0.1050 -1.2571 -1.1328
  584MOL0     H80582  10.603   2.714   9.501 -0.8898  1.0237 -1.2423
  584MOL0     H80583  10.560   2.600   9.355 -1.1425  0.6014  0.5577
  584MOL0     H80584  10.741   2.834   9.378  0.1525 -1.2511  0.6071
  584MOL0     H80585  10.770   2.719   9.248  0.7398  2.7697 -0.9083
  584MOL0     H80586  10.527   2.764   9.166  0.4184  3.3500 -4.5227
  584MOL0     H80587  10.643   2.902   9.164  0.3983  0.8141  2.5275
  584MOL0     H80588  10.359   3.040   9.421 -3.2699 -2.4185 -0.6134
  584MOL0     H80589  10.848   2.290   9.536  2.3063 -5.3921  0.9611
  584MOL0     H80590  10.795   2.076   9.667  1.4190  0.0888  0.9298
  584MOL0     H80591  10.802   1.919   9.576 -1.6602  0.6468  1.7080
  584MOL0     H80592  10.937   2.019   9.574  0.2826  0.9562 -1.8188
  585MOL0     O80593   4.352   4.020  11.402  0.6392  0.2301  0.1573
  585MOL0     C80594   4.371   3.899  11.424 -0.2152  0.3147 -0.0053
  585MOL0     O80595   4.302   3.801  11.369 -0.1822 -0.0934 -0.1991
  585MOL0     C80596   4.214   3.829  11.257  0.7162  0.8319 -0.2407
  585MOL0     C80597   4.112   3.735  11.232  0.3323  0.1151  0.1149
  585MOL0     C80598   4.033   3.732  11.116 -0.3024 -0.5818  0.6869
  585MOL0     C80599   4.052   3.834  11.019 -0.2365 -0.1082 -0.5068
  585MOL0     O80600   3.981   3.832  10.900  0.1465  0.0367 -0.4402
  585MOL0     C80601   3.844   3.858  10.918  0.4129 -0.6822 -0.4634
  585MOL0     C80602   3.788   3.900  10.782 -0.1246  0.3469 -0.4789
  585MOL0     C80603   3.636   3.915  10.809 -0.1250  0.4273 -0.1519
  585MOL0     C80604   3.567   3.961  10.688 -0.1897 -1.0990  0.2400
  585MOL0     C80605   3.418   3.934  10.720  0.0930  0.8810 -0.1054
  585MOL0     C80606   3.313   3.985  10.621  0.2846  0.3785 -0.2836
  585MOL0     C80607   3.166   3.936  10.631  0.7030  0.4785  0.5129
  585MOL0     C80608   3.102   3.946  10.769  1.2581  0.2560  0.7144
  585MOL0     N80609   3.064   4.082  10.814  1.3194  0.4268 -0.2911
  585MOL0     C80610   3.149   4.176  10.851 -0.1195  0.4343  0.0904
  585MOL0     C80611   3.064   4.275  10.881  0.4050 -0.7209  0.0693
  585MOL0     C80612   3.103   4.415  10.929  1.9630 -0.9770  0.5364
  585MOL0     C80613   3.061   4.427  11.083 -0.2665  0.1087  0.7309
  585MOL0     C80614   3.157   4.360  11.172  0.7684  0.2751  0.0904
  585MOL0     C80615   3.118   4.354  11.319 -0.3870  0.0468  0.2594
  585MOL0     O80616   3.013   4.255  11.327 -0.8233 -0.7219  0.3001
  585MOL0     C80617   2.913   4.262  11.414 -0.7486  0.2116  0.1533
  585MOL0     C80618   2.831   4.150  11.428  0.2583 -0.2615 -0.2105
  585MOL0     C80619   2.713   4.153  11.499 -0.4389 -0.3083 -0.1570
  585MOL0     C80620   2.638   4.028  11.504  0.6394  0.2550 -0.0367
  585MOL0     C80621   2.679   4.263  11.578  0.0157  1.0130  0.0414
  585MOL0     C80622   2.555   4.266  11.660  0.3061 -0.6267  1.1338
  585MOL0     O80623   2.498   4.393  11.658 -0.5695  0.4377 -0.0940
  585MOL0     C80624   2.370   4.393  11.697  0.0915  0.0522 -0.1942
  585MOL0     C80625   2.328   4.373  11.831 -0.3989 -0.4615 -0.6198
  585MOL0     C80626   2.198   4.368  11.868  0.2817 -0.2901  0.0522
  585MOL0     C80627   2.097   4.382  11.774  0.5099  0.2668 -0.1593
  585MOL0     O80628   1.966   4.375  11.821 -0.2599  0.2220  0.4379
  585MOL0     C80629   1.880   4.452  11.744  1.3789  0.1959  0.2887
  585MOL0     C80630   1.752   4.492  11.824 -0.6115  1.1945  0.0210
  585MOL0     C80631   1.769   4.589  11.938 -0.4957 -0.5598 -0.6617
  585MOL0     C80632   1.696   4.723  11.914  0.5550 -0.2795 -0.5338
  585MOL0     C80633   1.539   4.714  11.915 -0.4291 -0.1741  0.0192
  585MOL0     C80634   1.472   4.645  12.028 -0.2636  0.7692  0.6504
  585MOL0     C80635   1.330   4.692  12.048  0.8401  0.0340  0.3756
  585MOL0     C80636   1.253   4.615  12.158 -0.2370 -0.2925  0.3197
  585MOL0    Cl80637   1.078   4.650  12.142 -0.3453  0.4863  0.1248
  585MOL0     C80638   2.135   4.415  11.640  0.3545 -1.5615 -0.0988
  585MOL0     C80639   2.273   4.434  11.608 -0.3502  0.6744  0.7932
  585MOL0     O80640   2.506   4.173  11.718  0.3367  0.2271 -0.6389
  585MOL0     C80641   2.762   4.375  11.574 -0.5566 -0.5880  0.8415
  585MOL0     C80642   2.875   4.377  11.484 -0.2451  0.2864  0.0968
  585MOL0     N80643   2.932   4.242  10.876  0.6438  0.0884 -0.0973
  585MOL0     N80644   2.934   4.123  10.829 -0.0153 -0.5250  0.7471
  585MOL0     C80645   4.142   3.934  11.036 -0.0555  0.9960  0.3748
  585MOL0     C80646   4.227   3.928  11.150  0.5991 -1.0119  0.0928
  585MOL0     C80647   4.468   3.851  11.528 -0.0137 -0.1948  0.1114
  585MOL0     C80648   4.503   3.714  11.525 -0.5782  0.4176 -0.4762
  585MOL0     C80649   4.588   3.665  11.623  0.2179 -0.6638 -0.1445
  585MOL0     C80650   4.651   3.755  11.721  0.2055  0.3793  0.7988
  585MOL0     O80651   4.751   3.718  11.813  0.5762 -0.2473  0.8649
  585MOL0     C80652   4.880   3.698  11.752  1.1710  0.1000 -1.1790
  585MOL0     C80653   4.973   3.656  11.865  0.1381  0.1191  0.8751
  585MOL0     C80654   4.936   3.534  11.942 -0.1118 -1.0787  0.0802
  585MOL0     C80655   4.920   3.413  11.859 -0.5685  0.7382 -0.0346
  585MOL0     C80656   4.886   3.297  11.942  0.2451  0.5788  0.4622
  585MOL0     C80657   4.872   3.205  12.020  1.4396 -1.0670  0.1406
  585MOL0     C80658   4.625   3.894  11.714  0.3617 -0.7154  0.4951
  585MOL0     C80659   4.521   3.932  11.626 -0.5749 -0.2830  0.4456
  585MOL0     C80660   4.465   4.066  11.657  0.1365 -0.2783 -0.1089
  585MOL0     H80661   4.096   3.666  11.315  0.9033  1.9619  1.8482
  585MOL0     H80662   3.959   3.655  11.098  2.6644 -2.9086 -3.0988
  585MOL0     H80663   3.820   3.936  10.990  0.1996 -1.1346 -0.0369
  585MOL0     H80664   3.788   3.765  10.935  0.7112 -1.2128 -2.1176
  585MOL0     H80665   3.833   3.995  10.751 -2.1732  1.9592  1.1704
  585MOL0     H80666   3.808   3.820  10.710 -0.7741  0.3414 -0.6587
  585MOL0     H80667   3.591   3.824  10.850  2.8727 -1.7585 -1.3305
  585MOL0     H80668   3.624   3.993  10.885 -0.1661  1.5741 -1.3006
  585MOL0     H80669   3.581   4.066  10.662  0.1736 -1.1778  0.1177
  585MOL0     H80670   3.604   3.895  10.609  2.0637 -1.6820  1.7078
  585MOL0     H80671   3.398   3.949  10.827  0.9294 -2.1679  0.5689
  585MOL0     H80672   3.422   3.827  10.698  5.2183  0.1009  2.8772
  585MOL0     H80673   3.314   4.094  10.628  1.2748  0.3547 -0.0293
  585MOL0     H80674   3.342   3.963  10.518  0.7514  0.0480 -0.0838
  585MOL0     H80675   3.164   3.829  10.606 -2.9601  0.1868  1.5222
  585MOL0     H80676   3.105   3.995  10.562  2.6204  1.0668 -0.7364
  585MOL0     H80677   3.013   3.884  10.779  1.0481  0.4722  0.1793
  585MOL0     H80678   3.178   3.912  10.840  1.7620 -2.3936 -0.9498
  585MOL0     H80679   3.258   4.177  10.848  0.0474 -1.8987 -4.8158
  585MOL0     H80680   3.041   4.485  10.872  0.2447 -1.0258  2.2288
  585MOL0     H80681   3.208   4.446  10.925  1.4015  1.5157  2.2544
  585MOL0     H80682   3.061   4.534  11.105  0.8402  0.2845 -0.0273
  585MOL0     H80683   2.957   4.394  11.094  0.0218 -1.4788 -0.7691
  585MOL0     H80684   3.158   4.256  11.136 -1.6701 -0.0980  0.8843
  585MOL0     H80685   3.256   4.406  11.172  1.2062 -0.6036 -1.6846
  585MOL0     H80686   3.199   4.327  11.388  0.7445  0.9622 -0.6806
  585MOL0     H80687   3.085   4.452  11.355  1.2039  0.5066  0.5208
  585MOL0     H80688   2.874   4.060  11.386  0.3382 -0.8418  1.0730
  585MOL0     H80689   2.546   4.019  11.562  0.0448  2.0712 -0.6336
  585MOL0     H80690   2.712   3.957  11.543 -1.6208 -1.7081  0.9769
  585MOL0     H80691   2.615   3.988  11.405  1.5153  0.2904 -0.2639
  585MOL0     H80692   2.406   4.355  11.905  1.9400 -1.9691 -3.2596
  585MOL0     H80693   2.180   4.344  11.973  2.3862 -0.2288  0.4703
  585MOL0     H80694   1.933   4.538  11.702 -0.1922  1.3446  0.5750
  585MOL0     H80695   1.845   4.389  11.661 -2.7454  2.8313 -0.2570
  585MOL0     H80696   1.684   4.528  11.747 -1.4272  1.3574  0.8018
  585MOL0     H80697   1.708   4.404  11.871 -2.9159  2.1226 -0.2717
  585MOL0     H80698   1.875   4.616  11.943 -0.5932 -0.3654  0.8268
  585MOL0     H80699   1.748   4.546  12.036 -0.4028 -0.6899 -0.6988
  585MOL0     H80700   1.732   4.764  11.819  0.9735  1.1125  0.1973
  585MOL0     H80701   1.727   4.799  11.985  2.0122  1.8496 -3.2284
  585MOL0     H80702   1.501   4.816  11.906 -1.5181 -0.4717  0.9947
  585MOL0     H80703   1.500   4.679  11.819 -2.4695  0.2104  0.6672
  585MOL0     H80704   1.533   4.685  12.110  1.7957  2.6920 -1.6684
  585MOL0     H80705   1.484   4.537  12.019  2.5988  1.1784 -2.1488
  585MOL0     H80706   1.278   4.679  11.953  0.7126  4.3476 -0.3200
  585MOL0     H80707   1.332   4.797  12.080  4.3104 -0.9386  4.4471
  585MOL0     H80708   1.285   4.645  12.258 -1.0905  0.8619  0.2701
  585MOL0     H80709   1.259   4.507  12.140  1.0905 -0.1193 -0.3971
  585MOL0     H80710   2.057   4.430  11.566  0.2727  4.4718  0.6903
  585MOL0     H80711   2.303   4.471  11.510 -0.6599 -0.5182  0.2326
  585MOL0     H80712   2.731   4.470  11.616 -0.4106 -0.1283 -0.0525
  585MOL0     H80713   2.929   4.470  11.490  0.7827 -0.3315  0.6817
  585MOL0     H80714   4.161   4.005  10.956  0.7215  0.0210 -0.3205
  585MOL0     H80715   4.315   3.992  11.143 -1.4649  2.0234 -0.1813
  585MOL0     H80716   4.460   3.643  11.456 -0.1314  1.6099 -2.0330
  585MOL0     H80717   4.606   3.558  11.625 -0.7081 -0.8194  0.1096
  585MOL0     H80718   4.890   3.621  11.675  3.2671  1.2233 -2.1302
  585MOL0     H80719   4.915   3.787  11.699 -1.3062  1.5767 -0.4960
  585MOL0     H80720   4.978   3.733  11.942  1.4749 -0.7250  1.6555
  585MOL0     H80721   5.071   3.642  11.820 -1.9474 -2.8779 -3.5463
  585MOL0     H80722   5.021   3.516  12.009 -0.6260 -3.1463  0.2506
  585MOL0     H80723   4.853   3.556  12.011 -0.0924 -1.8020  0.3460
  585MOL0     H80724   5.008   3.398  11.796 -0.6836  1.1010 -0.2855
  585MOL0     H80725   4.835   3.433  11.793  1.5466  2.2530 -2.4384
  585MOL0     H80726   4.860   3.135  12.100  0.5927  0.2339  1.2001
  585MOL0     H80727   4.657   3.959  11.795 -0.3268 -0.8252  0.8600
  585MOL0     H80728   4.509   4.101  11.750 -1.7808  0.6578  0.5008
  585MOL0     H80729   4.455   4.142  11.579 -2.8702  1.4014  1.7275
  585MOL0     H80730   4.360   4.054  11.686 -0.7605  3.0908 -1.4498
  586MOL0     O80731   6.122   6.120   6.560  0.1063  0.4430 -0.3235
  586MOL0     C80732   6.230   6.176   6.554 -0.6634  0.1513 -0.0385
  586MOL0     O80733   6.350   6.121   6.524 -0.4378 -0.0992  0.0161
  586MOL0     C80734   6.354   5.988   6.493  0.1789 -0.4485  0.2852
  586MOL0     C80735   6.399   5.947   6.375  0.5650  0.7979  0.1269
  586MOL0     C80736   6.409   5.810   6.337  0.2488  0.1922  0.7859
  586MOL0     C80737   6.371   5.710   6.434  0.4041 -0.1082  0.5720
  586MOL0     O80738   6.389   5.589   6.396  1.0556  0.1451  0.7788
  586MOL0     C80739   6.430   5.488   6.497  0.6779  0.5828  1.1060
  586MOL0     C80740   6.335   5.369   6.480 -0.1244 -0.2167 -0.5923
  586MOL0     C80741   6.367   5.237   6.564  0.2860  0.1651  0.2533
  586MOL0     C80742   6.492   5.162   6.508 -0.3858  0.6299  0.4927
  586MOL0     C80743   6.554   5.065   6.608  0.1186 -0.8471  0.8113
  586MOL0     C80744   6.473   4.938   6.623 -0.0230  0.6164 -0.8990
  586MOL0     C80745   6.558   4.840   6.714 -0.4326 -0.2309 -0.4891
  586MOL0     C80746   6.478   4.730   6.783  0.1665 -0.3160  0.8582
  586MOL0     N80747   6.418   4.619   6.695 -0.0920 -0.6171  0.2406
  586MOL0     C80748   6.315   4.633   6.601 -0.1281  0.0467 -0.9428
  586MOL0     C80749   6.287   4.506   6.565 -0.8992 -0.2330  0.4628
  586MOL0     C80750   6.202   4.457   6.448 -0.0659 -0.2880  0.0740
  586MOL0     C80751   6.253   4.523   6.319  0.3634  0.5975 -0.8747
  586MOL0     C80752   6.335   4.421   6.239  0.2548  0.4631  0.6832
  586MOL0     C80753   6.376   4.480   6.105 -0.2252 -1.0415  0.2454
  586MOL0     O80754   6.471   4.392   6.041  0.4611  0.4125 -0.1396
  586MOL0     C80755   6.426   4.266   5.998  0.8610 -0.1201 -0.6449
  586MOL0     C80756   6.290   4.230   5.977  0.0693  0.2794  0.4999
  586MOL0     C80757   6.256   4.098   5.937 -0.3253 -0.2710  0.4070
  586MOL0     C80758   6.113   4.060   5.916  0.6881  0.1708  0.2857
  586MOL0     C80759   6.368   4.005   5.913 -0.3544 -0.6500  0.7293
  586MOL0     C80760   6.358   3.853   5.871 -0.6408 -0.4616 -0.1337
  586MOL0     O80761   6.467   3.813   5.798  0.3299 -0.1441 -0.1159
  586MOL0     C80762   6.516   3.680   5.789  0.0975 -0.1592  0.3308
  586MOL0     C80763   6.638   3.673   5.727  0.2228 -0.7998 -0.6316
  586MOL0     C80764   6.723   3.565   5.735  0.1055  0.6232 -0.2289
  586MOL0     C80765   6.684   3.446   5.797  0.6688 -0.1788  0.5211
  586MOL0     O80766   6.761   3.336   5.815 -0.4415 -0.2364 -0.0013
  586MOL0     C80767   6.891   3.329   5.761 -0.9517  0.4959  0.4218
  586MOL0     C80768   6.944   3.194   5.747  0.8053  0.5942  0.3727
  586MOL0     C80769   7.002   3.133   5.874  1.2191 -0.2163 -1.1114
  586MOL0     C80770   7.149   3.154   5.893  0.4718 -0.7004 -0.1588
  586MOL0     C80771   7.171   3.142   6.044  0.1119  0.4966  0.2312
  586MOL0     C80772   7.200   3.007   6.090  0.2446  0.6898 -0.2698
  586MOL0     C80773   7.247   2.995   6.238 -0.5695 -0.2469 -0.5452
  586MOL0     C80774   7.401   3.030   6.253 -0.0987  0.2504  0.3052
  586MOL0    Cl80775   7.492   2.888   6.171  0.0697 -0.1003 -0.0930
  586MOL0     C80776   6.556   3.447   5.851  0.6621  0.1244 -0.5302
  586MOL0     C80777   6.478   3.560   5.857 -0.1897  0.0648  0.3396
  586MOL0     O80778   6.259   3.788   5.889 -0.1601  0.1217 -0.3408
  586MOL0     C80779   6.498   4.048   5.926 -0.6595 -0.1400  0.3438
  586MOL0     C80780   6.531   4.177   5.971 -0.5839  0.3704 -0.1576
  586MOL0     N80781   6.349   4.429   6.653  0.1853 -0.1336  0.0425
  586MOL0     N80782   6.437   4.492   6.717 -0.5067  0.0951  0.8804
  586MOL0     C80783   6.307   5.753   6.550 -0.2770  0.9290  0.0266
  586MOL0     C80784   6.301   5.889   6.579  0.2653 -0.4748  0.7108
  586MOL0     C80785   6.216   6.326   6.579 -1.3585 -0.4466  0.5382
  586MOL0     C80786   6.103   6.394   6.532 -1.0023  0.1318 -0.1653
  586MOL0     C80787   6.091   6.531   6.551 -0.0344 -0.0851 -0.0206
  586MOL0     C80788   6.191   6.606   6.600  0.0212 -0.3912  0.3638
  586MOL0     O80789   6.172   6.744   6.600  0.3763  0.4038  0.3458
  586MOL0     C80790   6.206   6.818   6.486  0.1826  0.4847  0.2273
  586MOL0     C80791   6.358   6.827   6.486 -0.0708 -0.1168  0.5643
  586MOL0     C80792   6.406   6.917   6.381  0.8158  0.0245 -0.6477
  586MOL0     C80793   6.364   7.057   6.393  0.0026 -0.0427 -0.2670
  586MOL0     C80794   6.418   7.124   6.508 -0.0931  0.6785 -0.0710
  586MOL0     C80795   6.449   7.179   6.611 -0.5467  0.9306 -0.4567
  586MOL0     C80796   6.308   6.547   6.643 -0.7998  0.5472  0.7380
  586MOL0     C80797   6.318   6.407   6.634 -0.1930  0.0223  0.2192
  586MOL0     C80798   6.418   6.351   6.713  0.1748 -0.2472 -0.3247
  586MOL0     H80799   6.433   6.022   6.304 -1.3612  3.0655  1.4760
  586MOL0     H80800   6.428   5.780   6.235 -2.4704  0.6310  0.0550
  586MOL0     H80801   6.426   5.524   6.600 -0.6740  0.4115  1.1260
  586MOL0     H80802   6.533   5.462   6.470 -0.3419  1.5126 -5.5002
  586MOL0     H80803   6.237   5.408   6.509  0.8377  1.7947  0.1491
  586MOL0     H80804   6.328   5.335   6.376 -2.9762 -1.2398 -0.1379
  586MOL0     H80805   6.379   5.261   6.670 -2.2627  1.8863  0.2257
  586MOL0     H80806   6.279   5.173   6.561 -0.5435  1.2674  0.4142
  586MOL0     H80807   6.471   5.110   6.414 -0.2548  1.2392  0.1190
  586MOL0     H80808   6.566   5.238   6.484  0.7816 -0.0572  1.7769
  586MOL0     H80809   6.555   5.112   6.707 -0.7143  0.7815  0.0932
  586MOL0     H80810   6.657   5.043   6.579  1.3923 -2.1419  5.5231
  586MOL0     H80811   6.373   4.962   6.661  0.9118  2.0747  0.8292
  586MOL0     H80812   6.454   4.891   6.527 -0.2240 -0.2565 -0.4449
  586MOL0     H80813   6.605   4.906   6.788 -2.0230  3.3514 -2.4339
  586MOL0     H80814   6.636   4.801   6.648 -1.6933 -1.4811 -1.3008
  586MOL0     H80815   6.559   4.677   6.834  0.7892  1.1318  1.4147
  586MOL0     H80816   6.401   4.766   6.851  1.2002 -2.1668  3.1559
  586MOL0     H80817   6.261   4.715   6.556  0.8200 -0.1295 -2.4567
  586MOL0     H80818   6.105   4.505   6.466  0.7556  2.4424 -2.1054
  586MOL0     H80819   6.191   4.348   6.445  2.0966 -0.5233 -1.9806
  586MOL0     H80820   6.164   4.547   6.260 -0.5757 -0.1148  0.1962
  586MOL0     H80821   6.299   4.619   6.341  1.0794  0.2645 -0.9011
  586MOL0     H80822   6.429   4.401   6.292  0.1289  0.0097  0.7470
  586MOL0     H80823   6.286   4.323   6.237  1.4746 -0.1883  1.0674
  586MOL0     H80824   6.282   4.490   6.048  0.0083 -1.7761 -0.2850
  586MOL0     H80825   6.423   4.575   6.130 -2.3038 -0.4171  2.1637
  586MOL0     H80826   6.215   4.307   5.967 -0.9133 -0.1599  3.3214
  586MOL0     H80827   6.096   3.972   5.854 -0.6798  0.3791  0.3485
  586MOL0     H80828   6.063   4.141   5.863  0.4819  0.1703  0.4769
  586MOL0     H80829   6.051   4.056   6.006 -1.2384  4.9463 -0.5487
  586MOL0     H80830   6.673   3.753   5.661  0.8954 -0.6687 -0.1270
  586MOL0     H80831   6.817   3.574   5.682 -1.3209 -0.0807 -3.0883
  586MOL0     H80832   6.892   3.362   5.656  2.6206 -3.3958 -1.0710
  586MOL0     H80833   6.971   3.381   5.814  1.1207 -2.3605  0.3359
  586MOL0     H80834   6.848   3.144   5.727  1.3626 -0.6385  0.6895
  586MOL0     H80835   7.013   3.187   5.662 -2.6801  2.8130 -3.0018
  586MOL0     H80836   6.965   3.031   5.872  0.0366  0.1909 -0.8498
  586MOL0     H80837   6.938   3.175   5.952 -0.3636 -1.6579 -1.5986
  586MOL0     H80838   7.174   3.256   5.863 -0.8236 -0.5121 -0.6746
  586MOL0     H80839   7.193   3.083   5.822 -0.6937 -1.5391 -0.0731
  586MOL0     H80840   7.251   3.211   6.071  0.7207  0.2959 -0.9747
  586MOL0     H80841   7.086   3.193   6.090 -1.8529 -1.8316 -0.5758
  586MOL0     H80842   7.276   2.963   6.025  1.9348 -0.2505  2.2109
  586MOL0     H80843   7.114   2.942   6.068  0.1577  0.8572 -0.4309
  586MOL0     H80844   7.225   2.894   6.274 -2.2683  0.6801  1.2416
  586MOL0     H80845   7.204   3.065   6.310 -0.9739 -2.2995  1.3186
  586MOL0     H80846   7.425   3.031   6.359 -2.3804 -0.3402  0.8784
  586MOL0     H80847   7.430   3.124   6.205  0.6299 -0.7128 -1.2314
  586MOL0     H80848   6.514   3.363   5.907  0.8447 -0.0679 -0.6786
  586MOL0     H80849   6.384   3.549   5.910 -2.6443  1.4201 -3.3600
  586MOL0     H80850   6.576   3.981   5.893 -0.3812 -0.4533  1.6263
  586MOL0     H80851   6.635   4.204   5.989  0.4075 -3.4398  0.8405
  586MOL0     H80852   6.263   5.689   6.626  1.2993  1.4760  1.4488
  586MOL0     H80853   6.255   5.915   6.674 -2.0640 -0.8508 -0.2441
  586MOL0     H80854   6.020   6.339   6.487 -0.8860  0.0319 -0.2591
  586MOL0     H80855   5.997   6.579   6.527  1.0051  2.0302 -0.1253
  586MOL0     H80856   6.176   6.764   6.396 -2.6918 -0.6202  1.6871
  586MOL0     H80857   6.156   6.915   6.482 -2.6259 -0.7854  1.3285
  586MOL0     H80858   6.399   6.726   6.473 -1.0497 -0.7956  2.4339
  586MOL0     H80859   6.388   6.863   6.585 -0.9977 -1.6760  1.4607
  586MOL0     H80860   6.515   6.915   6.382  0.8211 -0.7732  1.1244
  586MOL0     H80861   6.368   6.873   6.288 -2.5867 -0.1998  0.6877
  586MOL0     H80862   6.256   7.075   6.394  0.2810  1.9633  0.9771
  586MOL0     H80863   6.398   7.112   6.304  0.0873  2.1372  1.0373
  586MOL0     H80864   6.483   7.226   6.701 -0.4737  0.1331 -0.0627
  586MOL0     H80865   6.395   6.599   6.682  1.3981 -2.6600  0.4719
  586MOL0     H80866   6.518   6.349   6.670  1.1093 -3.5102  1.6035
  586MOL0     H80867   6.429   6.415   6.800  1.3598  0.1911 -0.7808
  586MOL0     H80868   6.397   6.246   6.738  2.2776 -0.9580 -1.2705
  587MOL0     O80869   3.388   5.717   7.429 -0.0114  0.0921 -0.0178
  587MOL0     C80870   3.460   5.645   7.362 -1.4366 -0.1887 -0.9190
  587MOL0     O80871   3.464   5.635   7.227  0.0954 -0.1354 -0.3213
  587MOL0     C80872   3.368   5.702   7.149 -0.4336  0.0827  0.4067
  587MOL0     C80873   3.270   5.636   7.080  0.3024 -0.8883  0.9244
  587MOL0     C80874   3.177   5.705   6.999  0.3803 -0.4359 -1.3918
  587MOL0     C80875   3.189   5.846   6.989  0.4525 -0.4021  0.6946
  587MOL0     O80876   3.089   5.895   6.915 -0.4982  0.4101 -0.5189
  587MOL0     C80877   3.055   6.028   6.950 -0.4909  1.4069 -0.1172
  587MOL0     C80878   2.935   6.067   6.860  1.0567 -0.3262  0.2845
  587MOL0     C80879   2.846   6.163   6.943  0.1536 -0.1032 -0.0802
  587MOL0     C80880   2.714   6.208   6.871  0.3652 -0.5261  0.7544
  587MOL0     C80881   2.618   6.307   6.956  0.3991  0.4443  0.4021
  587MOL0     C80882   2.634   6.453   6.928 -0.0868 -0.5293 -0.0569
  587MOL0     C80883   2.530   6.515   7.011 -0.6590 -0.2714  0.0180
  587MOL0     C80884   2.502   6.660   6.983 -0.9018  0.1069  0.1399
  587MOL0     N80885   2.471   6.695   6.846 -0.2109 -0.2342  0.6739
  587MOL0     C80886   2.543   6.774   6.757 -0.1829 -0.3100 -0.2884
  587MOL0     C80887   2.465   6.805   6.650 -0.3909 -0.5052 -0.0905
  587MOL0     C80888   2.504   6.886   6.529  0.6386 -0.4057  0.0912
  587MOL0     C80889   2.521   7.035   6.569 -0.3184 -0.2826 -0.2297
  587MOL0     C80890   2.667   7.077   6.605 -0.0438  1.1351 -0.7164
  587MOL0     C80891   2.676   7.221   6.645 -0.3952  0.0375  0.6284
  587MOL0     O80892   2.619   7.254   6.778 -0.1105 -0.4952 -0.2620
  587MOL0     C80893   2.687   7.240   6.897 -1.8497  0.7528 -1.3392
  587MOL0     C80894   2.820   7.203   6.908 -0.0759 -0.0343  0.0807
  587MOL0     C80895   2.889   7.203   7.029  0.1780 -0.1023 -0.3144
  587MOL0     C80896   3.041   7.185   7.012  0.4955 -0.7802 -1.2402
  587MOL0     C80897   2.816   7.227   7.152 -0.2670  1.6131  0.3994
  587MOL0     C80898   2.881   7.253   7.283 -0.4892 -1.6029  0.8543
  587MOL0     O80899   2.817   7.229   7.396  0.0530  0.5172  0.1349
  587MOL0     C80900   2.882   7.185   7.515  0.0887 -0.5328  0.3272
  587MOL0     C80901   3.019   7.149   7.519 -0.6858  0.2797 -0.7305
  587MOL0     C80902   3.055   7.074   7.634 -0.8325 -0.0094  0.1428
  587MOL0     C80903   2.974   7.045   7.740 -0.6822  0.4227  0.3308
  587MOL0     O80904   3.020   7.003   7.864  0.8323  0.5039  0.4085
  587MOL0     C80905   3.135   6.925   7.871  0.6508 -0.0829  0.2261
  587MOL0     C80906   3.122   6.792   7.789  0.3437  0.2767 -0.1672
  587MOL0     C80907   3.007   6.705   7.850 -0.1809  0.2853 -0.7290
  587MOL0     C80908   3.023   6.560   7.816  0.3856  0.0930 -0.1735
  587MOL0     C80909   2.894   6.490   7.833 -0.4414  0.7921  0.5569
  587MOL0     C80910   2.889   6.450   7.979  0.2005 -0.1810 -0.0993
  587MOL0     C80911   2.779   6.352   8.011  0.4993 -0.5523  0.3278
  587MOL0     C80912   2.780   6.300   8.152  0.0581 -0.2232  1.2122
  587MOL0    Cl80913   2.794   6.425   8.271 -0.1378 -0.6242  0.4781
  587MOL0     C80914   2.839   7.076   7.724 -0.8942  1.1088  0.6690
  587MOL0     C80915   2.798   7.151   7.614 -0.5544  0.7113  0.0322
  587MOL0     O80916   2.980   7.324   7.273  0.2827 -0.3548 -0.2653
  587MOL0     C80917   2.677   7.253   7.146  0.1754  0.4541  0.1543
  587MOL0     C80918   2.614   7.267   7.019  0.3172  0.5869 -1.0728
  587MOL0     N80919   2.346   6.744   6.671 -0.0894 -0.7751  0.5781
  587MOL0     N80920   2.352   6.675   6.789 -0.1333 -0.3961  0.0357
  587MOL0     C80921   3.290   5.915   7.050  0.1362 -0.5166  0.2155
  587MOL0     C80922   3.385   5.836   7.132 -0.4806 -0.4952 -0.1746
  587MOL0     C80923   3.551   5.552   7.430 -0.3223 -0.4443 -0.4407
  587MOL0     C80924   3.660   5.507   7.359 -0.7498 -0.0023  0.1058
  587MOL0     C80925   3.763   5.434   7.424 -0.8496  0.6235  0.9498
  587MOL0     C80926   3.747   5.396   7.555 -0.3141  0.6659 -0.2674
  587MOL0     O80927   3.843   5.326   7.626  0.2163  0.1001 -0.0679
  587MOL0     C80928   3.892   5.399   7.747  0.9392 -0.5079  0.3245
  587MOL0     C80929   4.041   5.376   7.782 -0.2992 -0.3119  0.0207
  587MOL0     C80930   4.069   5.223   7.802  0.2564  0.3779 -0.1831
  587MOL0     C80931   4.215   5.203   7.820  0.1656 -0.5286  0.1171
  587MOL0     C80932   4.261   5.076   7.874 -0.1866 -0.0578 -0.3429
  587MOL0     C80933   4.305   4.973   7.915 -0.3204  0.2281 -0.6844
  587MOL0     C80934   3.623   5.418   7.622  0.0343 -1.0345  1.3375
  587MOL0     C80935   3.523   5.495   7.561 -1.1526  0.4939  0.1885
  587MOL0     C80936   3.416   5.534   7.655  0.2235 -0.7032  0.2408
  587MOL0     H80937   3.245   5.531   7.091  2.1770 -1.3737  0.8085
  587MOL0     H80938   3.091   5.652   6.961 -1.2443 -0.3106  1.7806
  587MOL0     H80939   3.135   6.099   6.928  0.1533  0.2064 -1.8061
  587MOL0     H80940   3.036   6.037   7.058  0.1427  4.1359 -0.1667
  587MOL0     H80941   2.963   6.104   6.761 -0.2875 -1.4679 -0.5707
  587MOL0     H80942   2.873   5.978   6.842  0.6278  0.3001 -1.6258
  587MOL0     H80943   2.817   6.119   7.039 -0.1795 -1.2311 -0.6865
  587MOL0     H80944   2.910   6.251   6.959  0.9023 -0.3364 -1.5865
  587MOL0     H80945   2.744   6.269   6.785  2.0213 -1.9102  0.2913
  587MOL0     H80946   2.657   6.117   6.847 -0.7580  0.2862  0.2498
  587MOL0     H80947   2.640   6.301   7.063  0.9924  0.8973  0.3132
  587MOL0     H80948   2.514   6.273   6.953 -0.3838  2.4247  2.4100
  587MOL0     H80949   2.734   6.477   6.965  0.5265  0.9006 -2.4336
  587MOL0     H80950   2.618   6.480   6.823 -2.0765 -0.5468  0.2095
  587MOL0     H80951   2.566   6.506   7.114 -0.1033  0.2940 -0.1218
  587MOL0     H80952   2.433   6.465   7.002 -0.3472 -0.8145 -0.4114
  587MOL0     H80953   2.413   6.682   7.043 -2.1577 -2.5687 -0.6007
  587MOL0     H80954   2.584   6.719   7.024 -0.4674 -1.5691  1.8338
  587MOL0     H80955   2.648   6.799   6.755 -0.0252 -0.9622 -1.7901
  587MOL0     H80956   2.415   6.881   6.465 -0.1894  0.2608  1.1547
  587MOL0     H80957   2.585   6.833   6.479  0.8135  0.3213 -0.4008
  587MOL0     H80958   2.482   7.097   6.488 -0.3984  0.1533  0.1369
  587MOL0     H80959   2.458   7.048   6.658  0.8490 -1.4750  0.8161
  587MOL0     H80960   2.717   7.015   6.680 -3.0052 -0.0579  0.4306
  587MOL0     H80961   2.727   7.079   6.514 -0.8071  1.2082 -1.2303
  587MOL0     H80962   2.779   7.258   6.639  0.2644 -1.8719 -3.4537
  587MOL0     H80963   2.615   7.279   6.574  0.5855  2.1792  1.4414
  587MOL0     H80964   2.870   7.166   6.819 -0.8203 -1.4155  0.2025
  587MOL0     H80965   3.077   7.130   6.924  1.8449  0.0590 -1.2424
  587MOL0     H80966   3.073   7.135   7.103  3.2615 -0.1613 -1.7815
  587MOL0     H80967   3.095   7.279   6.999 -0.3974 -0.1336 -0.4308
  587MOL0     H80968   3.084   7.159   7.433  0.1070  0.1077 -0.1630
  587MOL0     H80969   3.163   7.061   7.628 -0.8058  1.0006 -2.6710
  587MOL0     H80970   3.219   6.981   7.829  0.8290 -1.7304 -1.8190
  587MOL0     H80971   3.144   6.903   7.977  1.8205  1.1381  0.4041
  587MOL0     H80972   3.122   6.813   7.682  0.9396 -0.0093 -0.2233
  587MOL0     H80973   3.219   6.743   7.802  0.5905  0.1607 -2.2180
  587MOL0     H80974   2.912   6.755   7.827  0.8202  1.6118 -2.1441
  587MOL0     H80975   3.021   6.711   7.958 -0.0410 -1.3945 -0.6310
  587MOL0     H80976   3.108   6.518   7.872 -1.0110  0.4920  2.4186
  587MOL0     H80977   3.045   6.548   7.710  1.1624 -1.0880  0.0988
  587MOL0     H80978   2.810   6.547   7.791 -0.8935 -1.6150 -2.1324
  587MOL0     H80979   2.891   6.406   7.763 -2.6600 -0.5365  2.1377
  587MOL0     H80980   2.901   6.543   8.036 -0.6713 -0.5762  0.7565
  587MOL0     H80981   2.984   6.400   7.997  2.3363  3.1925 -0.9113
  587MOL0     H80982   2.801   6.270   7.942  1.9080  0.8084 -0.9049
  587MOL0     H80983   2.681   6.393   7.985  1.0596  0.0855 -0.8422
  587MOL0     H80984   2.869   6.238   8.170  1.2984  1.0147 -0.2713
  587MOL0     H80985   2.692   6.238   8.168 -1.1725  1.0063 -0.3784
  587MOL0     H80986   2.767   7.060   7.804 -0.2306  2.3976  1.5628
  587MOL0     H80987   2.693   7.181   7.613  0.0317  3.2582 -3.2157
  587MOL0     H80988   2.629   7.289   7.236  1.0096 -0.5622  1.0386
  587MOL0     H80989   2.510   7.297   7.019 -0.2717 -1.2232  0.9294
  587MOL0     H80990   3.316   6.020   7.046  3.4374 -1.1692  1.1373
  587MOL0     H80991   3.464   5.898   7.175  1.2405  0.6621 -4.4362
  587MOL0     H80992   3.674   5.521   7.252 -0.3319 -2.3302 -0.1944
  587MOL0     H80993   3.855   5.412   7.371 -2.5261 -2.1299 -1.1058
  587MOL0     H80994   3.880   5.506   7.729 -1.3290 -0.7429  0.1611
  587MOL0     H80995   3.836   5.368   7.835  1.1366 -0.6992  0.3834
  587MOL0     H80996   4.060   5.439   7.870  2.9008 -1.3809  0.2506
  587MOL0     H80997   4.095   5.400   7.690  1.3857 -0.0624  1.0211
  587MOL0     H80998   4.029   5.196   7.900  2.2707  0.1525  0.6244
  587MOL0     H80999   4.025   5.150   7.733 -2.4732  1.0149  0.7545
  587MOL0     H81000   4.248   5.274   7.896  1.4999 -0.6029 -0.3670
  587MOL0     H81001   4.268   5.226   7.727 -1.5152 -0.9316 -0.9852
  587MOL0     H81002   4.355   4.882   7.941  0.1394  0.7067  0.1227
  587MOL0     H81003   3.618   5.379   7.723 -2.1623 -1.1706  1.2064
  587MOL0     H81004   3.320   5.538   7.602 -0.5322  0.2030  1.6209
  587MOL0     H81005   3.401   5.466   7.740 -2.0265 -1.0078 -0.3197
  587MOL0     H81006   3.425   5.639   7.684 -0.9115 -0.1808 -1.1602
  588MOL0     O81007   7.745   8.957   0.163 -0.1157 -0.1854  0.3464
  588MOL0     C81008   7.843   8.904   0.208  0.0690 -0.1184 -0.6533
  588MOL0     O81009   7.838   8.783   0.280 -0.5639  0.3940  0.3856
  588MOL0     C81010   7.713   8.739   0.314 -0.0608  0.9985 -0.2549
  588MOL0     C81011   7.636   8.668   0.224  0.1747  0.2266 -0.4055
  588MOL0     C81012   7.504   8.635   0.278 -0.3159 -0.4571  0.3117
  588MOL0     C81013   7.461   8.665   0.406  0.1348 -0.1958 -0.1703
  588MOL0     O81014   7.332   8.652   0.452 -0.1175  0.0979  0.5617
  588MOL0     C81015   7.230   8.569   0.396 -0.0087  0.1426  0.6436
  588MOL0     C81016   7.219   8.417   0.426 -0.2016 -0.3271  0.0367
  588MOL0     C81017   7.335   8.336   0.365  0.2597 -0.6910  0.3365
  588MOL0     C81018   7.313   8.184   0.377 -0.4226  0.7992 -0.2308
  588MOL0     C81019   7.424   8.107   0.304  0.2466 -0.1098 -0.0802
  588MOL0     C81020   7.392   7.954   0.305  0.0558  0.8382  0.3395
  588MOL0     C81021   7.499   7.887   0.224 -0.4558  0.3297 -0.2324
  588MOL0     C81022   7.479   7.893   0.076  0.0515  0.1994 -0.4486
  588MOL0     N81023   7.571   7.794   0.009 -0.1856 -0.8216 -0.1703
  588MOL0     C81024   7.552   7.658   0.008 -0.6418  1.1167  0.0906
  588MOL0     C81025   7.614   7.614  -0.108 -0.0700 -0.9858 -0.6509
  588MOL0     C81026   7.619   7.481  -0.184  0.4462  0.3284  0.3706
  588MOL0     C81027   7.527   7.469  -0.305  0.0620  0.5912 -0.0629
  588MOL0     C81028   7.383   7.490  -0.263 -0.7579 -0.1803  0.1586
  588MOL0     C81029   7.284   7.494  -0.377  0.7032 -0.2293  0.0580
  588MOL0     O81030   7.317   7.579  -0.474 -0.0142 -0.0592 -0.1146
  588MOL0     C81031   7.342   7.708  -0.438  0.0981  0.6420  0.2509
  588MOL0     C81032   7.425   7.776  -0.526  0.0012 -0.3909 -0.3340
  588MOL0     C81033   7.450   7.913  -0.516  0.4839  0.1681  0.4856
  588MOL0     C81034   7.554   7.968  -0.609 -0.0363  0.0993 -0.4737
  588MOL0     C81035   7.403   7.975  -0.397  0.0271  0.2546 -0.4182
  588MOL0     C81036   7.446   8.111  -0.359  0.3953 -0.3393 -0.8869
  588MOL0     O81037   7.465   8.131  -0.221  0.9732 -0.1414  1.3096
  588MOL0     C81038   7.545   8.229  -0.172  0.8922 -0.8839 -0.0850
  588MOL0     C81039   7.506   8.286  -0.047 -0.4719  0.9188 -0.0651
  588MOL0     C81040   7.595   8.372   0.020  0.3190  0.1681  0.2647
  588MOL0     C81041   7.720   8.401  -0.043  0.1305 -0.1658 -0.0689
  588MOL0     O81042   7.817   8.478   0.028 -0.5802 -0.2065 -0.5515
  588MOL0     C81043   7.870   8.425   0.148  0.0414  0.2973  0.1300
  588MOL0     C81044   7.997   8.496   0.179  0.0868 -0.7829  0.1650
  588MOL0     C81045   8.108   8.448   0.090 -0.5511  0.1820  0.4583
  588MOL0     C81046   8.239   8.528   0.105  0.1726 -1.1769  0.7592
  588MOL0     C81047   8.338   8.505  -0.008  0.2288  0.5350  0.0110
  588MOL0     C81048   8.479   8.566   0.030  1.1410 -0.2396 -0.3373
  588MOL0     C81049   8.493   8.723   0.026  0.0848  0.6217  0.3347
  588MOL0     C81050   8.482   8.785  -0.111 -0.4950  0.3190 -0.1986
  588MOL0    Cl81051   8.586   8.697  -0.225 -0.2872 -0.1659 -0.2654
  588MOL0     C81052   7.751   8.355  -0.177 -0.6844  0.3168 -0.5147
  588MOL0     C81053   7.666   8.268  -0.233  0.4075  0.0911  0.6429
  588MOL0     O81054   7.442   8.206  -0.443  0.0587  0.1361 -0.6595
  588MOL0     C81055   7.325   7.901  -0.308  0.2335  0.1637  0.0085
  588MOL0     C81056   7.296   7.768  -0.334  0.1317 -0.7826 -0.5581
  588MOL0     N81057   7.695   7.721  -0.152  0.0008  0.4474  0.2577
  588MOL0     N81058   7.663   7.820  -0.082  0.4042 -0.4381 -0.2119
  588MOL0     C81059   7.542   8.745   0.490  0.4537 -0.0117 -0.5893
  588MOL0     C81060   7.666   8.781   0.436  0.4214 -0.1893 -0.2784
  588MOL0     C81061   7.973   8.977   0.189  0.0503  0.7696  0.3337
  588MOL0     C81062   8.076   8.933   0.277  0.0637 -0.0285 -0.8745
  588MOL0     C81063   8.206   8.970   0.244  0.1838 -0.0783 -0.0918
  588MOL0     C81064   8.241   9.068   0.147  0.1870  1.1264  0.5304
  588MOL0     O81065   8.368   9.117   0.144 -0.4328  0.2476 -0.1773
  588MOL0     C81066   8.413   9.183   0.028  0.2165 -0.6787 -0.2724
  588MOL0     C81067   8.559   9.188   0.020  0.1941 -0.4811 -0.5366
  588MOL0     C81068   8.619   9.299   0.114 -0.5275  0.0124  0.5610
  588MOL0     C81069   8.761   9.346   0.076 -0.2749  0.6537 -0.0633
  588MOL0     C81070   8.769   9.416  -0.056 -1.1832 -0.0541 -0.1259
  588MOL0     C81071   8.765   9.474  -0.161 -0.6551  0.5605  0.0148
  588MOL0     C81072   8.136   9.117   0.065 -0.3793 -0.3847 -0.3089
  588MOL0     C81073   8.007   9.083   0.087 -0.4487 -0.5059  0.1009
  588MOL0     C81074   7.895   9.159   0.009  0.5137 -0.0379 -0.6164
  588MOL0     H81075   7.664   8.643   0.122 -2.3374 -0.6730 -0.9390
  588MOL0     H81076   7.429   8.594   0.212 -0.8751  1.6392 -0.4393
  588MOL0     H81077   7.235   8.589   0.288  1.2588  1.8421  0.9795
  588MOL0     H81078   7.135   8.610   0.432  0.2690  4.9944 -3.1058
  588MOL0     H81079   7.216   8.402   0.534  2.0072  0.6866  0.3106
  588MOL0     H81080   7.118   8.387   0.400 -1.9632  5.5780 -1.4476
  588MOL0     H81081   7.340   8.365   0.260 -0.6259 -0.3359  0.3890
  588MOL0     H81082   7.426   8.363   0.419  0.9844 -1.5137 -0.4317
  588MOL0     H81083   7.315   8.146   0.479  3.5716 -1.3892 -0.9102
  588MOL0     H81084   7.214   8.160   0.337 -0.3146 -2.8659  1.3685
  588MOL0     H81085   7.516   8.137   0.355  1.4878 -1.2689 -1.5142
  588MOL0     H81086   7.430   8.138   0.199  1.1243  0.3113  0.0813
  588MOL0     H81087   7.376   7.915   0.406 -3.5047 -1.1393 -0.8084
  588MOL0     H81088   7.297   7.936   0.254  1.1357 -0.4780 -1.3692
  588MOL0     H81089   7.495   7.781   0.249 -1.7595  0.2844 -0.5825
  588MOL0     H81090   7.603   7.899   0.258 -0.2985 -3.1388  0.8994
  588MOL0     H81091   7.377   7.861   0.052 -1.1771  0.5998  3.5214
  588MOL0     H81092   7.493   7.993   0.032 -0.9183  1.9500  2.9169
  588MOL0     H81093   7.491   7.597   0.074 -1.1760 -0.1907 -1.5476
  588MOL0     H81094   7.614   7.394  -0.118  2.8230 -2.0170 -2.2536
  588MOL0     H81095   7.721   7.462  -0.219  0.2559 -1.6696  0.8036
  588MOL0     H81096   7.550   7.546  -0.380  0.9909 -0.0192 -0.4178
  588MOL0     H81097   7.535   7.370  -0.350  0.8032  1.0692 -1.0218
  588MOL0     H81098   7.368   7.395  -0.212  0.4522  0.3687  1.6074
  588MOL0     H81099   7.369   7.573  -0.193 -0.7275  1.6881 -1.9154
  588MOL0     H81100   7.279   7.394  -0.420 -0.3796 -0.9992  1.8515
  588MOL0     H81101   7.185   7.525  -0.341  2.3779  3.4245  2.0635
  588MOL0     H81102   7.469   7.722  -0.608  2.1113 -0.0480  0.5089
  588MOL0     H81103   7.527   8.062  -0.659 -0.1149 -0.8131 -2.1876
  588MOL0     H81104   7.565   7.906  -0.698 -0.7791 -0.3981 -0.2335
  588MOL0     H81105   7.637   7.979  -0.539  0.4423  0.2925 -1.0679
  588MOL0     H81106   7.416   8.242  -0.006 -2.0161 -0.5317 -4.3737
  588MOL0     H81107   7.564   8.405   0.119 -1.3484  0.5302 -0.3367
  588MOL0     H81108   7.801   8.451   0.229  1.9509  2.7113  1.1034
  588MOL0     H81109   7.879   8.317   0.144 -1.2561  0.1176  1.2046
  588MOL0     H81110   7.989   8.604   0.168 -0.1871 -0.8946 -0.7483
  588MOL0     H81111   8.026   8.456   0.277  3.6555 -2.0442 -1.2425
  588MOL0     H81112   8.072   8.449  -0.013 -2.2820 -1.1505  0.9967
  588MOL0     H81113   8.133   8.346   0.120 -1.1971 -0.1838 -0.2264
  588MOL0     H81114   8.287   8.511   0.201 -0.5727  2.3756  1.8981
  588MOL0     H81115   8.222   8.636   0.114  2.5581 -0.4554 -1.8919
  588MOL0     H81116   8.348   8.398  -0.030  1.3182  0.3264  1.3995
  588MOL0     H81117   8.296   8.553  -0.097  1.8637  1.0764 -0.4925
  588MOL0     H81118   8.556   8.511  -0.025  1.0365  1.4809 -2.3215
  588MOL0     H81119   8.499   8.531   0.131  2.1568 -5.7053 -2.1015
  588MOL0     H81120   8.591   8.760   0.058 -0.0181  1.1318  0.0714
  588MOL0     H81121   8.421   8.771   0.093 -0.3238  0.3956  0.0595
  588MOL0     H81122   8.508   8.891  -0.104  3.6895 -0.5595 -0.0085
  588MOL0     H81123   8.380   8.775  -0.150 -1.2427 -0.0625  1.7185
  588MOL0     H81124   7.845   8.394  -0.215 -1.6737  3.2004 -0.2462
  588MOL0     H81125   7.693   8.217  -0.325  1.0128 -0.4643  1.1177
  588MOL0     H81126   7.300   7.945  -0.212 -0.2305 -0.2810  0.0984
  588MOL0     H81127   7.234   7.714  -0.264 -1.5700  4.3355  2.4506
  588MOL0     H81128   7.501   8.788   0.581  3.0655  1.1068  0.1339
  588MOL0     H81129   7.736   8.839   0.496 -0.8144 -0.0066  1.0319
  588MOL0     H81130   8.052   8.850   0.343  0.8208  0.4623  0.0554
  588MOL0     H81131   8.290   8.938   0.304  0.9603  0.5667 -0.8087
  588MOL0     H81132   8.376   9.138  -0.064 -0.8271  1.1975 -0.8171
  588MOL0     H81133   8.366   9.281   0.018  0.3845 -0.5709 -0.0289
  588MOL0     H81134   8.575   9.223  -0.082  0.8177  0.4747 -0.1279
  588MOL0     H81135   8.618   9.097   0.030  1.1873 -0.0053 -1.8732
  588MOL0     H81136   8.548   9.382   0.125  0.3908  0.7884  0.7440
  588MOL0     H81137   8.637   9.254   0.212 -0.1868 -5.1930 -1.5791
  588MOL0     H81138   8.827   9.258   0.070  0.1516  0.8807  1.0114
  588MOL0     H81139   8.795   9.417   0.152  1.4324  1.0893 -1.1758
  588MOL0     H81140   8.757   9.539  -0.246  2.0581 -0.5651 -1.2384
  588MOL0     H81141   8.158   9.198  -0.005 -1.5207  1.7174  1.6246
  588MOL0     H81142   7.942   9.231  -0.059 -2.7628  2.7360 -0.1809
  588MOL0     H81143   7.837   9.085  -0.047 -1.6772 -0.4812  2.0557
  588MOL0     H81144   7.831   9.210   0.080  1.6139  0.5889 -0.0482
  589MOL0     O81145   2.765   8.337  11.441  0.5832  0.0684 -0.1169
  589MOL0     C81146   2.648   8.305  11.466  0.6400  0.3332 -0.1634
  589MOL0     O81147   2.607   8.221  11.568 -0.2270  0.0318 -0.2616
  589MOL0     C81148   2.708   8.159  11.641  0.6865  0.0028  0.3893
  589MOL0     C81149   2.817   8.096  11.593 -0.0226  0.0798  0.6729
  589MOL0     C81150   2.910   8.037  11.674 -0.8319 -0.0397  1.2603
  589MOL0     C81151   2.905   8.041  11.813 -0.0663 -1.3393  0.1719
  589MOL0     O81152   3.002   7.979  11.887  0.0140 -0.4639  0.7899
  589MOL0     C81153   2.960   7.918  12.006 -0.9350  0.2989 -0.2431
  589MOL0     C81154   2.958   7.758  11.964 -0.0899 -0.1718 -0.1565
  589MOL0     C81155   2.867   7.712  11.852 -0.0512 -0.1484  0.5696
  589MOL0     C81156   2.858   7.562  11.856  0.7331 -0.2281 -0.3221
  589MOL0     C81157   2.723   7.510  11.794  0.1411  0.1914 -0.0916
  589MOL0     C81158   2.677   7.372  11.848  0.0198 -0.1289 -0.9992
  589MOL0     C81159   2.540   7.326  11.785 -1.4867 -0.0528 -0.3254
  589MOL0     C81160   2.515   7.181  11.846  0.0490 -0.0530 -0.2790
  589MOL0     N81161   2.401   7.113  11.795  0.0450  0.2293  0.4779
  589MOL0     C81162   2.305   7.051  11.875 -0.0034 -1.2369 -0.3237
  589MOL0     C81163   2.233   6.979  11.786 -0.4427 -1.3288  0.6811
  589MOL0     C81164   2.104   6.897  11.799 -0.6266 -0.0635 -0.2795
  589MOL0     C81165   1.982   6.918  11.709 -0.3847  0.8253 -0.1399
  589MOL0     C81166   1.938   7.066  11.705 -0.3165  0.5277  0.1950
  589MOL0     C81167   1.816   7.091  11.630 -0.3862 -0.1360  0.1742
  589MOL0     O81168   1.695   7.027  11.678  0.0776  0.3543  0.2278
  589MOL0     C81169   1.569   7.041  11.611 -0.4240 -0.5096  0.2516
  589MOL0     C81170   1.549   7.123  11.506 -0.2559 -0.7574 -1.2018
  589MOL0     C81171   1.421   7.140  11.445 -0.5185 -0.0789 -0.0838
  589MOL0     C81172   1.405   7.250  11.340  0.0601  0.2924 -0.2330
  589MOL0     C81173   1.305   7.067  11.496  0.1811  1.2238  0.3987
  589MOL0     C81174   1.170   7.061  11.422  1.1255 -0.0065  0.5986
  589MOL0     O81175   1.163   7.083  11.285 -0.7958 -0.3432  0.5997
  589MOL0     C81176   1.049   7.128  11.216  0.1536 -0.3196 -0.0455
  589MOL0     C81177   0.936   7.180  11.281 -0.9051 -0.0068 -0.2064
  589MOL0     C81178   0.828   7.236  11.219 -0.4232  0.8235  0.5501
  589MOL0     C81179   0.830   7.235  11.077 -0.6289 -0.7616 -0.3202
  589MOL0     O81180   0.724   7.284  11.009  0.0941 -0.4337 -0.1229
  589MOL0     C81181   0.638   7.374  11.078 -0.1750  0.2289  1.1495
  589MOL0     C81182   0.581   7.471  10.975  0.6428  0.2192  1.3289
  589MOL0     C81183   0.450   7.538  11.019  0.1296 -0.4033 -0.2509
  589MOL0     C81184   0.376   7.628  10.921  0.2698  0.2033  1.0494
  589MOL0     C81185   0.272   7.724  10.979 -1.1974 -0.0280  0.1609
  589MOL0     C81186   0.147   7.656  11.030  0.4923 -0.4605 -0.5136
  589MOL0     C81187   0.065   7.585  10.916 -0.6386  0.7190  0.1815
  589MOL0     C81188   0.064   7.656  10.784 -0.8558 -0.1881  0.3737
  589MOL0    Cl81189  -0.057   7.586  10.670 -0.1960  0.2358 -0.1495
  589MOL0     C81190   0.928   7.178  11.009 -0.1531 -0.1225 -0.0830
  589MOL0     C81191   1.042   7.132  11.079 -0.2046 -0.1603  0.6429
  589MOL0     O81192   1.071   7.044  11.495 -0.1166 -0.2844 -0.2531
  589MOL0     C81193   1.331   6.984  11.605  0.7391 -0.0737 -0.0288
  589MOL0     C81194   1.461   6.966  11.656  0.0386  0.6720  0.2364
  589MOL0     N81195   2.282   7.003  11.662 -0.5955  0.4523  0.0794
  589MOL0     N81196   2.382   7.084  11.663  0.3900 -0.3032  0.1668
  589MOL0     C81197   2.787   8.106  11.864  0.2753  0.8238  0.2356
  589MOL0     C81198   2.681   8.161  11.779 -0.1723  0.9529  0.0887
  589MOL0     C81199   2.536   8.374  11.390 -0.0773  0.9221  0.5638
  589MOL0     C81200   2.422   8.418  11.458 -0.9595 -0.0303 -0.6878
  589MOL0     C81201   2.331   8.504  11.398  0.2475 -0.8221  0.1616
  589MOL0     C81202   2.339   8.542  11.259  0.1143 -0.5457 -0.0885
  589MOL0     O81203   2.234   8.602  11.193  0.4776 -0.5592  0.5484
  589MOL0     C81204   2.238   8.745  11.221  0.9174 -0.3836  0.4131
  589MOL0     C81205   2.162   8.825  11.108  0.1258  0.5001  0.6860
  589MOL0     C81206   2.009   8.792  11.098 -0.6260  0.2910  0.2804
  589MOL0     C81207   1.950   8.831  10.965  0.6694 -0.1884  0.2397
  589MOL0     C81208   1.856   8.735  10.905 -0.9491 -0.2788  0.9975
  589MOL0     C81209   1.797   8.657  10.839  0.0817  0.0088  0.1202
  589MOL0     C81210   2.444   8.490  11.187  0.2345 -0.1991 -0.0637
  589MOL0     C81211   2.540   8.404  11.248  0.0994  0.4409  1.1605
  589MOL0     C81212   2.644   8.356  11.157 -0.4982  0.1235  0.1222
  589MOL0     H81213   2.838   8.098  11.486 -6.0404 -1.8138 -0.9334
  589MOL0     H81214   2.988   7.978  11.627  1.6117  3.7816  0.0400
  589MOL0     H81215   2.860   7.940  12.043 -0.7590  0.6884  0.0150
  589MOL0     H81216   3.043   7.921  12.078  0.0760 -0.5611 -1.3445
  589MOL0     H81217   3.057   7.726  11.932  1.4455  1.8055  2.2175
  589MOL0     H81218   2.929   7.698  12.051 -2.7668  0.8043 -0.2784
  589MOL0     H81219   2.776   7.766  11.879 -2.4286 -2.4752 -2.0751
  589MOL0     H81220   2.894   7.745  11.751 -2.0171 -2.1109 -0.6794
  589MOL0     H81221   2.943   7.506  11.817  1.7160  1.3455 -0.5511
  589MOL0     H81222   2.854   7.529  11.960 -4.2827 -1.7661 -0.7336
  589MOL0     H81223   2.714   7.521  11.686 -1.9440  2.0995  0.1916
  589MOL0     H81224   2.645   7.581  11.824  0.1503  1.3721 -2.6059
  589MOL0     H81225   2.762   7.304  11.832  3.3433  2.3744  3.5268
  589MOL0     H81226   2.665   7.371  11.957  1.2362  0.2081 -0.8459
  589MOL0     H81227   2.545   7.320  11.676  1.4605 -1.1163 -0.2393
  589MOL0     H81228   2.460   7.395  11.810 -0.3455  0.4555  2.2445
  589MOL0     H81229   2.599   7.115  11.826  0.2298  0.3511 -0.8741
  589MOL0     H81230   2.518   7.198  11.954  0.2075  1.2988 -0.4732
  589MOL0     H81231   2.283   7.065  11.980 -1.2685  2.4929 -0.9329
  589MOL0     H81232   2.077   6.884  11.905  2.0905 -0.7164  0.3954
  589MOL0     H81233   2.139   6.798  11.769 -3.0709 -0.4027 -2.4378
  589MOL0     H81234   2.019   6.881  11.613  0.0725 -0.4582  0.4992
  589MOL0     H81235   1.895   6.853  11.726 -0.7621  0.3238 -3.4218
  589MOL0     H81236   1.920   7.112  11.802 -2.1387  0.1547  0.0671
  589MOL0     H81237   2.014   7.132  11.662 -1.7548  0.5423 -2.5636
  589MOL0     H81238   1.797   7.199  11.634 -2.4092 -0.4755  1.9899
  589MOL0     H81239   1.833   7.064  11.526 -0.6028 -0.5106  0.2326
  589MOL0     H81240   1.633   7.186  11.479 -1.7124  1.7297 -0.2913
  589MOL0     H81241   1.493   7.314  11.353 -0.1699  0.2829  1.6790
  589MOL0     H81242   1.315   7.308  11.363  0.1459  1.1089 -1.8436
  589MOL0     H81243   1.407   7.212  11.238 -2.8225  0.5260 -0.4537
  589MOL0     H81244   0.932   7.183  11.390  1.6504 -3.5762  0.1682
  589MOL0     H81245   0.750   7.286  11.277 -2.0567 -2.2094  1.1821
  589MOL0     H81246   0.552   7.318  11.116  0.8662 -0.8118  2.0547
  589MOL0     H81247   0.689   7.433  11.155  1.1069  0.7322 -0.0437
  589MOL0     H81248   0.652   7.546  10.939  1.4137 -1.6946 -1.5062
  589MOL0     H81249   0.548   7.411  10.890 -1.5688 -1.7803  3.4533
  589MOL0     H81250   0.466   7.585  11.117  1.3644 -2.9462  0.8494
  589MOL0     H81251   0.381   7.454  11.032  0.9795 -1.6300 -2.9802
  589MOL0     H81252   0.330   7.570  10.840 -4.7861  2.8079  1.7187
  589MOL0     H81253   0.458   7.686  10.876 -0.1769  0.1141  0.1033
  589MOL0     H81254   0.317   7.775  11.065  0.9258 -3.5656  1.3494
  589MOL0     H81255   0.255   7.796  10.898  0.5809 -1.5742 -1.7069
  589MOL0     H81256   0.083   7.736  11.068  0.2056 -1.5298  1.4241
  589MOL0     H81257   0.167   7.592  11.117 -0.7647 -0.2916 -0.0903
  589MOL0     H81258  -0.042   7.580  10.936 -0.9739 -0.1048 -1.6693
  589MOL0     H81259   0.105   7.483  10.909  1.0923  1.3851 -0.1114
  589MOL0     H81260   0.162   7.641  10.738 -0.5148  0.8686  0.7279
  589MOL0     H81261   0.056   7.763  10.806  2.1807  0.3918 -0.8847
  589MOL0     H81262   0.926   7.181  10.900 -0.3866  2.0342 -0.0514
  589MOL0     H81263   1.130   7.111  11.019 -0.1478 -1.3941  1.1280
  589MOL0     H81264   1.253   6.917  11.639  0.3094 -0.8809 -2.4255
  589MOL0     H81265   1.476   6.897  11.738  1.4518  1.6648  0.8602
  589MOL0     H81266   2.772   8.115  11.971 -2.0950  2.4147 -0.1477
  589MOL0     H81267   2.597   8.202  11.834  1.4711 -0.9676  4.5452
  589MOL0     H81268   2.416   8.408  11.566 -2.4063  2.4649 -0.4526
  589MOL0     H81269   2.246   8.526  11.462 -2.1677 -3.4556 -1.8700
  589MOL0     H81270   2.194   8.771  11.317  1.2203  1.5996  0.0564
  589MOL0     H81271   2.341   8.780  11.236  0.6146 -0.2988  2.4733
  589MOL0     H81272   2.218   8.824  11.014 -0.9056  2.6044 -0.0030
  589MOL0     H81273   2.180   8.928  11.139 -0.5114  2.3629 -4.1832
  589MOL0     H81274   2.002   8.687  11.130 -0.7012  0.3715  0.5288
  589MOL0     H81275   1.954   8.849  11.173  1.8058 -0.2800  2.6324
  589MOL0     H81276   2.034   8.842  10.896  2.6691  3.2264  2.8831
  589MOL0     H81277   1.902   8.929  10.965  3.1576  1.2133  3.1925
  589MOL0     H81278   1.756   8.578  10.778  1.4741 -2.6448  2.4037
  589MOL0     H81279   2.448   8.522  11.083  0.0763  0.9669  0.2755
  589MOL0     H81280   2.730   8.423  11.162  1.9294 -2.8190  1.9342
  589MOL0     H81281   2.682   8.259  11.192  0.5068  0.9452  1.4109
  589MOL0     H81282   2.613   8.335  11.054 -0.2867 -2.9319  0.5841
  590MOL0     O81283   1.096  11.046   6.497 -0.2837 -0.3051 -0.6226
  590MOL0     C81284   1.201  11.092   6.539 -0.4252  0.7768  0.7694
  590MOL0     O81285   1.317  11.033   6.530 -0.1577 -0.3572 -0.0456
  590MOL0     C81286   1.325  10.897   6.555 -0.6807 -0.8041 -0.0979
  590MOL0     C81287   1.344  10.858   6.691  0.2473  0.3121  0.5411
  590MOL0     C81288   1.351  10.720   6.725  0.0711 -0.1391 -0.7783
  590MOL0     C81289   1.347  10.624   6.620  0.4164  0.1333  0.3938
  590MOL0     O81290   1.360  10.482   6.629 -0.1007  0.4036  0.2122
  590MOL0     C81291   1.293  10.431   6.748 -0.3212  0.7556  0.9752
  590MOL0     C81292   1.272  10.274   6.752  1.1006 -0.7287  0.8746
  590MOL0     C81293   1.131  10.228   6.704  0.4616 -0.9424 -0.0840
  590MOL0     C81294   1.086  10.080   6.739  1.6408 -0.5812 -0.2015
  590MOL0     C81295   1.181   9.964   6.702 -0.3132  0.7388  0.3464
  590MOL0     C81296   1.110   9.825   6.709 -0.2890 -0.1887 -0.8721
  590MOL0     C81297   1.217   9.721   6.698  0.3137 -0.4154  1.0679
  590MOL0     C81298   1.164   9.580   6.745  0.0140 -0.6317  0.5870
  590MOL0     N81299   1.075   9.522   6.654  0.4365  1.1502  0.1644
  590MOL0     C81300   1.086   9.495   6.518  0.3947  0.3965 -0.6336
  590MOL0     C81301   0.989   9.401   6.486 -0.3141 -0.1400 -0.0906
  590MOL0     C81302   0.975   9.361   6.348  0.2980  0.7941 -0.4182
  590MOL0     C81303   0.828   9.322   6.310  0.1940  0.0637 -0.3922
  590MOL0     C81304   0.824   9.205   6.215 -0.4566 -1.1515  0.1491
  590MOL0     C81305   0.681   9.199   6.135  0.3622  0.2953 -0.2625
  590MOL0     O81306   0.673   9.103   6.027 -0.6192 -0.0478 -0.2847
  590MOL0     C81307   0.557   9.029   6.035  0.1395 -0.8537  0.4507
  590MOL0     C81308   0.426   9.090   6.011  0.8661 -0.3719 -0.1999
  590MOL0     C81309   0.312   9.012   6.029  0.0878 -0.1403  0.2071
  590MOL0     C81310   0.172   9.071   6.016  0.6992 -0.6896  0.0950
  590MOL0     C81311   0.328   8.877   6.063  0.0777  0.9722  0.8101
  590MOL0     C81312   0.211   8.774   6.076 -0.2767 -0.0756 -0.6204
  590MOL0     O81313   0.215   8.693   6.190 -0.0346  0.0545  0.4240
  590MOL0     C81314   0.129   8.585   6.195  0.1469  0.7713 -0.2175
  590MOL0     C81315   0.128   8.491   6.092  0.2173  0.6800  0.0376
  590MOL0     C81316   0.065   8.366   6.098  0.1093  0.2971 -0.5586
  590MOL0     C81317  -0.007   8.344   6.217 -0.0507  0.6385  0.6987
  590MOL0     O81318  -0.077   8.230   6.253  0.3335 -0.1790 -0.0848
  590MOL0     C81319  -0.007   8.116   6.205 -0.1732  0.6044  0.7531
  590MOL0     C81320  -0.078   7.998   6.270 -0.3882  1.1170  0.2667
  590MOL0     C81321  -0.055   7.994   6.416  0.1658  0.2329  0.3932
  590MOL0     C81322  -0.071   7.854   6.476  0.3578  0.3916  0.1255
  590MOL0     C81323  -0.053   7.871   6.625  0.2437 -1.4360 -0.3654
  590MOL0     C81324  -0.019   7.735   6.682  0.5696  0.1011  0.3641
  590MOL0     C81325  -0.036   7.736   6.830 -0.0674 -0.3089  0.1964
  590MOL0     C81326  -0.004   7.593   6.881 -0.9972 -0.4349 -0.0030
  590MOL0    Cl81327  -0.008   7.587   7.063  0.1218  0.1584  0.1742
  590MOL0     C81328  -0.028   8.442   6.315 -0.8385 -0.4789 -0.6113
  590MOL0     C81329   0.053   8.561   6.310 -0.2688  0.9488 -0.3069
  590MOL0     O81330   0.121   8.777   5.995 -0.7819  0.2208  0.5633
  590MOL0     C81331   0.457   8.822   6.069 -0.5628 -0.5215  1.2901
  590MOL0     C81332   0.581   8.900   6.057 -0.1028  0.5872 -0.3504
  590MOL0     N81333   0.917   9.385   6.600 -0.1838 -0.5912  0.4124
  590MOL0     N81334   0.966   9.463   6.696 -0.1906  0.7028 -0.4588
  590MOL0     C81335   1.333  10.667   6.491 -0.9090 -0.5812 -0.6208
  590MOL0     C81336   1.320  10.804   6.455 -0.6949 -0.4374 -0.0860
  590MOL0     C81337   1.213  11.237   6.575  0.3383  0.0453  0.1866
  590MOL0     C81338   1.334  11.295   6.579 -0.1387 -0.2711 -0.3275
  590MOL0     C81339   1.344  11.438   6.598 -0.5902  0.4054 -0.1101
  590MOL0     C81340   1.234  11.512   6.619  0.5332 -0.2467 -0.0325
  590MOL0     O81341   1.257  11.643   6.640  0.2455 -0.9369  0.2309
  590MOL0     C81342   1.158  11.748   6.644 -0.7637  0.7615  0.0044
  590MOL0     C81343   1.181  11.840   6.525  0.4621  0.1365 -0.7888
  590MOL0     C81344   1.326  11.899   6.530  0.0277 -0.7886 -0.7652
  590MOL0     C81345   1.317  12.024   6.439 -1.2368  0.7729  0.0230
  590MOL0     C81346   1.453  12.046   6.383  0.0591  0.2787  0.0020
  590MOL0     C81347   1.567  12.047   6.337  0.0251 -0.5694 -0.5639
  590MOL0     C81348   1.110  11.447   6.614 -0.2072 -0.4543  0.1439
  590MOL0     C81349   1.104  11.313   6.614  0.3654  0.2843  0.7496
  590MOL0     C81350   0.961  11.259   6.628  0.5854  0.7707 -0.2248
  590MOL0     H81351   1.350  10.943   6.758  1.6204  2.9021 -2.5678
  590MOL0     H81352   1.355  10.684   6.828  1.2798 -0.7841 -1.0247
  590MOL0     H81353   1.193  10.474   6.759 -1.1272 -0.9913  0.8041
  590MOL0     H81354   1.352  10.440   6.840  2.4187  0.5988 -0.6354
  590MOL0     H81355   1.347  10.220   6.692 -1.5547 -1.4834 -2.0178
  590MOL0     H81356   1.273  10.250   6.859 -0.0589 -0.6825  0.9082
  590MOL0     H81357   1.060  10.297   6.752 -0.0172 -1.7209  0.3504
  590MOL0     H81358   1.146  10.228   6.596 -1.3915 -0.6654 -0.3813
  590MOL0     H81359   1.051  10.065   6.841  0.6721 -0.2296 -0.4687
  590MOL0     H81360   0.990  10.076   6.685  0.4866 -0.2700  1.7422
  590MOL0     H81361   1.271   9.965   6.763  0.1609  0.9132 -0.3405
  590MOL0     H81362   1.214   9.970   6.598  3.6124 -1.0219  1.3058
  590MOL0     H81363   1.073   9.812   6.811  0.9201 -0.3378 -0.4250
  590MOL0     H81364   1.032   9.816   6.634 -0.5603 -0.5430 -0.5510
  590MOL0     H81365   1.299   9.736   6.769  0.6722 -0.5170  0.6814
  590MOL0     H81366   1.263   9.715   6.599 -1.3959 -0.9667  0.2702
  590MOL0     H81367   1.248   9.510   6.735  0.2319 -0.3848  0.6915
  590MOL0     H81368   1.135   9.572   6.850 -1.1991  0.0970  0.3261
  590MOL0     H81369   1.166   9.534   6.455  1.0945  2.6513  1.4927
  590MOL0     H81370   1.032   9.269   6.331 -0.8025 -0.2084  1.0876
  590MOL0     H81371   1.011   9.445   6.288  0.5134  1.1612  0.2182
  590MOL0     H81372   0.769   9.308   6.401 -1.3703  2.4897 -0.9506
  590MOL0     H81373   0.781   9.407   6.259 -0.5798 -2.4012 -4.1483
  590MOL0     H81374   0.897   9.215   6.135 -1.0904 -0.8379 -0.3958
  590MOL0     H81375   0.835   9.120   6.283  0.3481 -0.4885  0.8556
  590MOL0     H81376   0.613   9.183   6.219  0.4866 -0.1983 -0.2526
  590MOL0     H81377   0.635   9.293   6.104 -1.4767 -1.0133 -1.7111
  590MOL0     H81378   0.410   9.195   5.989  3.5078  0.0992 -0.2219
  590MOL0     H81379   0.124   9.021   5.931 -2.4702 -4.1428  3.4711
  590MOL0     H81380   0.173   9.179   6.001  1.7800 -0.5228  1.1364
  590MOL0     H81381   0.111   9.041   6.102  0.0057 -1.0317 -0.5041
  590MOL0     H81382   0.191   8.518   6.007  1.6847 -0.4364  0.7271
  590MOL0     H81383   0.072   8.300   6.012  0.2618  0.6458 -0.8149
  590MOL0     H81384  -0.026   8.098   6.099  1.8469  0.8809  0.2942
  590MOL0     H81385   0.103   8.115   6.211  0.2474 -0.8441 -3.6264
  590MOL0     H81386  -0.184   7.988   6.248 -0.5630  0.6344  1.2707
  590MOL0     H81387  -0.021   7.913   6.230  0.4319  1.6164  0.3412
  590MOL0     H81388  -0.141   8.053   6.447 -1.1512 -0.4245 -1.7634
  590MOL0     H81389   0.039   8.045   6.439  0.7618  0.0593 -1.4727
  590MOL0     H81390  -0.003   7.782   6.428  0.4133  0.2724  0.3819
  590MOL0     H81391  -0.177   7.827   6.468  0.2749 -0.1106  2.3053
  590MOL0     H81392   0.019   7.949   6.648 -0.7286 -0.6173 -0.0463
  590MOL0     H81393  -0.150   7.906   6.661  1.1433  1.0333 -0.2138
  590MOL0     H81394   0.086   7.718   6.660  0.7900  0.6006  0.9736
  590MOL0     H81395  -0.083   7.657   6.640 -0.4383 -0.4352  2.7113
  590MOL0     H81396  -0.136   7.772   6.854 -0.0514 -0.8752  1.1485
  590MOL0     H81397   0.033   7.806   6.877  2.9367 -2.8995 -0.0423
  590MOL0     H81398   0.097   7.570   6.847 -0.1340  1.3353  1.1775
  590MOL0     H81399  -0.063   7.510   6.841  0.0651 -0.8914 -0.6660
  590MOL0     H81400  -0.084   8.413   6.403  1.9968 -0.4617  1.3466
  590MOL0     H81401   0.049   8.639   6.385  0.4081  0.7758 -0.0856
  590MOL0     H81402   0.471   8.717   6.093  1.1149 -0.8176 -0.6916
  590MOL0     H81403   0.678   8.852   6.068 -0.6124 -1.6617 -3.8550
  590MOL0     H81404   1.332  10.592   6.414 -0.9418 -3.4446  1.9745
  590MOL0     H81405   1.289  10.830   6.355 -2.4944  1.9217  0.9878
  590MOL0     H81406   1.421  11.230   6.577 -1.3603 -1.9619 -1.8498
  590MOL0     H81407   1.442  11.485   6.603  0.3452 -1.3685 -0.7719
  590MOL0     H81408   1.052  11.722   6.640 -1.0517  1.7544  0.6516
  590MOL0     H81409   1.180  11.793   6.741 -1.8116 -2.5768  1.9661
  590MOL0     H81410   1.102  11.915   6.525 -0.6258 -0.9731 -0.0241
  590MOL0     H81411   1.158  11.784   6.434 -1.2215  0.2868 -0.4846
  590MOL0     H81412   1.350  11.938   6.629 -0.0351  2.4658 -1.9122
  590MOL0     H81413   1.390  11.820   6.489  1.8246 -0.2862  0.9346
  590MOL0     H81414   1.292  12.114   6.495  1.5493  1.2613  0.6298
  590MOL0     H81415   1.242  12.009   6.360  1.1111 -2.9720 -1.7763
  590MOL0     H81416   1.663  12.052   6.288  2.0415  2.5149  3.1961
  590MOL0     H81417   1.010  11.489   6.617  0.3387  1.0967 -1.4694
  590MOL0     H81418   0.901  11.252   6.536 -0.6520  2.1921  0.4365
  590MOL0     H81419   0.975  11.157   6.665  1.4755  1.4780  1.5191
  590MOL0     H81420   0.912  11.322   6.703  1.3064 -0.3589  1.2432
  591MOL0     O81421   6.951   8.914   1.874 -0.5981  0.5378 -0.6565
  591MOL0     C81422   6.837   8.921   1.834 -0.0641  0.1491  1.2706
  591MOL0     O81423   6.771   8.814   1.777  0.1598  0.2490  0.4620
  591MOL0     C81424   6.833   8.693   1.763 -0.3944  0.6509 -0.0690
  591MOL0     C81425   6.891   8.648   1.640  1.1700 -0.0595  0.7741
  591MOL0     C81426   6.948   8.524   1.618  0.4030  0.5001  0.1142
  591MOL0     C81427   6.961   8.436   1.730  1.1683  0.4469  0.2592
  591MOL0     O81428   7.009   8.310   1.731  0.1512 -0.2055 -0.3079
  591MOL0     C81429   6.910   8.208   1.686 -0.0824 -0.4532  0.0425
  591MOL0     C81430   6.968   8.075   1.715  0.7080 -0.0889  0.2167
  591MOL0     C81431   6.937   7.972   1.608 -0.0034 -0.3060  0.2080
  591MOL0     C81432   6.789   7.941   1.597  0.3643  0.1670 -0.6133
  591MOL0     C81433   6.755   7.832   1.495  0.3686 -0.6560 -0.2917
  591MOL0     C81434   6.606   7.800   1.504 -0.4109  0.4908 -0.0269
  591MOL0     C81435   6.561   7.694   1.410 -0.5290 -1.4439 -0.7864
  591MOL0     C81436   6.517   7.564   1.473  0.1412 -0.4845 -0.6732
  591MOL0     N81437   6.630   7.497   1.540 -0.6631  0.6485  0.7290
  591MOL0     C81438   6.666   7.500   1.672 -0.2473  0.1627  0.0758
  591MOL0     C81439   6.791   7.444   1.677 -0.2905 -0.1793  0.3097
  591MOL0     C81440   6.868   7.437   1.801  0.8099  1.3364 -0.4207
  591MOL0     C81441   6.954   7.555   1.844  0.1542 -0.4102 -0.2489
  591MOL0     C81442   7.051   7.579   1.737  0.2555 -0.1622  0.6671
  591MOL0     C81443   7.151   7.704   1.770 -0.3626 -0.0614  0.6090
  591MOL0     O81444   7.261   7.654   1.853  0.2544 -0.4983 -0.5986
  591MOL0     C81445   7.329   7.750   1.920  0.4271 -0.3521 -0.2116
  591MOL0     C81446   7.375   7.720   2.044 -0.4775  0.1145 -0.1694
  591MOL0     C81447   7.446   7.812   2.129  0.3284 -0.7319 -0.1856
  591MOL0     C81448   7.483   7.759   2.261  0.5893  0.8771  0.4794
  591MOL0     C81449   7.470   7.944   2.096 -0.3403  1.9959 -0.4813
  591MOL0     C81450   7.546   8.045   2.177  0.4716 -0.2456  0.0022
  591MOL0     O81451   7.548   8.039   2.310 -0.1672 -0.5331  0.1773
  591MOL0     C81452   7.617   8.142   2.368  0.1445 -0.2540  0.6068
  591MOL0     C81453   7.559   8.268   2.391 -0.3586  0.0916 -0.1270
  591MOL0     C81454   7.643   8.366   2.439 -0.7854 -0.4033 -0.4548
  591MOL0     C81455   7.778   8.343   2.455 -0.5439  0.2057 -0.5469
  591MOL0     O81456   7.873   8.439   2.475 -0.2343  0.0993  0.1568
  591MOL0     C81457   7.860   8.563   2.415 -0.1961  0.5532  0.1989
  591MOL0     C81458   8.001   8.635   2.435  0.8453 -0.3282 -0.1597
  591MOL0     C81459   8.042   8.663   2.581 -0.2357 -1.1523 -0.5465
  591MOL0     C81460   8.016   8.808   2.612 -0.2561  0.0190  0.0462
  591MOL0     C81461   8.053   8.861   2.745  0.1130 -0.7219 -0.7165
  591MOL0     C81462   8.198   8.849   2.786 -0.4104  1.2237 -0.1177
  591MOL0     C81463   8.255   8.957   2.886  0.3286 -0.1254  1.2253
  591MOL0     C81464   8.193   8.932   3.026  0.1007  0.0312 -1.2095
  591MOL0    Cl81465   8.275   9.031   3.151 -0.0801 -0.0089 -0.2165
  591MOL0     C81466   7.835   8.215   2.430 -0.1209  0.4371 -0.1866
  591MOL0     C81467   7.749   8.113   2.393 -0.4693 -0.5629 -0.4903
  591MOL0     O81468   7.588   8.131   2.105  0.2509  0.5359 -0.4434
  591MOL0     C81469   7.428   7.980   1.966  0.8048 -0.1137 -0.0548
  591MOL0     C81470   7.360   7.886   1.878 -0.0439 -0.1806  0.4113
  591MOL0     N81471   6.810   7.390   1.548 -0.4284 -0.2768  0.2461
  591MOL0     N81472   6.712   7.425   1.473  0.2934  1.1458  0.2120
  591MOL0     C81473   6.915   8.484   1.858  0.5514  0.6157  0.8388
  591MOL0     C81474   6.850   8.607   1.866 -1.0352 -0.5077 -0.8586
  591MOL0     C81475   6.764   9.048   1.822  0.1925  0.1746  0.8450
  591MOL0     C81476   6.680   9.064   1.704  0.2752  0.0397 -0.8999
  591MOL0     C81477   6.603   9.176   1.692 -0.6280 -1.4907  0.2571
  591MOL0     C81478   6.616   9.284   1.788  0.2193 -0.0578  0.1131
  591MOL0     O81479   6.541   9.402   1.801  0.7412 -0.0564  0.2916
  591MOL0     C81480   6.463   9.442   1.688 -0.3542 -0.1563  0.7153
  591MOL0     C81481   6.537   9.542   1.601  1.1385  0.1465 -0.4799
  591MOL0     C81482   6.450   9.590   1.486 -0.4532  0.5836  0.1736
  591MOL0     C81483   6.531   9.655   1.380  0.7470 -0.6629  1.0052
  591MOL0     C81484   6.431   9.695   1.278  0.0194 -0.5209  0.3810
  591MOL0     C81485   6.358   9.759   1.199 -0.1415 -0.2866 -0.3199
  591MOL0     C81486   6.715   9.271   1.882 -0.3737  0.1584  0.6245
  591MOL0     C81487   6.773   9.156   1.913 -0.8779 -0.6094 -0.2427
  591MOL0     C81488   6.866   9.161   2.037 -0.2942  0.4639  0.7552
  591MOL0     H81489   6.880   8.711   1.552  0.7418  3.6284  3.2635
  591MOL0     H81490   6.973   8.479   1.523  0.1157 -1.6296  0.9770
  591MOL0     H81491   6.894   8.214   1.578 -1.5078  1.0364  0.3033
  591MOL0     H81492   6.821   8.220   1.748 -0.7629 -0.2428 -0.9561
  591MOL0     H81493   7.077   8.086   1.720  0.7322  2.1536 -2.7972
  591MOL0     H81494   6.922   8.038   1.808  2.3767  0.8619  1.4798
  591MOL0     H81495   6.966   8.022   1.515  1.4297  1.4271  1.5103
  591MOL0     H81496   6.998   7.882   1.621  1.9445  0.0454 -4.4549
  591MOL0     H81497   6.745   7.903   1.689 -1.0990  2.1991 -0.3976
  591MOL0     H81498   6.729   8.027   1.565  1.1371  1.1690  0.5439
  591MOL0     H81499   6.808   7.740   1.520  0.2580  0.2598  4.1632
  591MOL0     H81500   6.773   7.864   1.392 -2.3030 -1.8352 -1.2188
  591MOL0     H81501   6.572   7.775   1.605  0.3058 -0.2689  0.0469
  591MOL0     H81502   6.557   7.895   1.483 -2.4838 -1.0803 -3.1584
  591MOL0     H81503   6.635   7.668   1.334 -0.0001 -0.6098 -0.5649
  591MOL0     H81504   6.472   7.724   1.354 -2.0796 -5.1011 -0.5843
  591MOL0     H81505   6.442   7.564   1.553  0.3847  2.7327 -0.3362
  591MOL0     H81506   6.480   7.507   1.387  1.1350  1.0667 -2.1700
  591MOL0     H81507   6.620   7.553   1.754  0.4179 -1.5120  1.5989
  591MOL0     H81508   6.931   7.348   1.789 -0.2394  0.4166  0.7199
  591MOL0     H81509   6.789   7.409   1.871  2.5837 -2.2469  0.4025
  591MOL0     H81510   6.882   7.632   1.872 -0.7088 -1.9161  2.0709
  591MOL0     H81511   6.999   7.521   1.938  0.5368 -0.6493 -0.5132
  591MOL0     H81512   7.112   7.490   1.723  2.5062  1.1844  1.4031
  591MOL0     H81513   6.997   7.598   1.643 -0.5207  0.2088  1.1723
  591MOL0     H81514   7.192   7.758   1.685 -0.4080  0.2448  0.7796
  591MOL0     H81515   7.094   7.780   1.825  0.8322  1.7573 -0.5715
  591MOL0     H81516   7.360   7.622   2.088  3.7491  0.6489  3.1262
  591MOL0     H81517   7.591   7.772   2.274  1.0955 -1.1916 -1.1441
  591MOL0     H81518   7.463   7.652   2.269  0.6935  0.8557  0.4510
  591MOL0     H81519   7.433   7.816   2.340 -1.7209 -1.8718  1.1512
  591MOL0     H81520   7.454   8.294   2.377 -0.5261 -0.7596 -0.5549
  591MOL0     H81521   7.603   8.467   2.436 -1.8403 -0.7262  1.2104
  591MOL0     H81522   7.837   8.551   2.309 -0.2902  2.4764 -0.0302
  591MOL0     H81523   7.777   8.616   2.462 -0.5730  0.7941 -0.7343
  591MOL0     H81524   8.080   8.576   2.387  0.4571 -0.3591 -0.7663
  591MOL0     H81525   7.998   8.728   2.377  2.7194  0.1119  0.3730
  591MOL0     H81526   8.151   8.656   2.590  0.1298  3.4713  1.7734
  591MOL0     H81527   7.992   8.595   2.650  0.6518  1.4245  2.9180
  591MOL0     H81528   7.910   8.822   2.594  0.1393  1.2704 -1.4685
  591MOL0     H81529   8.073   8.872   2.544  0.4211 -0.7808 -0.1588
  591MOL0     H81530   8.042   8.970   2.749  0.4709 -0.6490 -1.5734
  591MOL0     H81531   7.983   8.825   2.820 -2.0694  1.9929 -1.2831
  591MOL0     H81532   8.249   8.856   2.689 -2.4866 -0.6278 -1.4487
  591MOL0     H81533   8.206   8.746   2.821  0.6182  1.5773  0.7314
  591MOL0     H81534   8.232   9.056   2.847  1.0079 -0.5561 -0.3411
  591MOL0     H81535   8.364   8.942   2.880 -0.0983 -3.3344 -0.6854
  591MOL0     H81536   8.211   8.828   3.057 -1.2910 -0.0071 -0.4299
  591MOL0     H81537   8.086   8.957   3.023  0.3128  1.7153  1.4994
  591MOL0     H81538   7.943   8.207   2.445 -0.3813  1.8107  3.1353
  591MOL0     H81539   7.782   8.010   2.389 -2.5057 -1.2233 -1.9620
  591MOL0     H81540   7.433   8.084   1.935 -3.9726  0.6219  0.8793
  591MOL0     H81541   7.322   7.924   1.783  0.9684 -1.5877 -0.5951
  591MOL0     H81542   6.920   8.412   1.939 -1.9293 -1.7224 -0.9275
  591MOL0     H81543   6.831   8.636   1.969  5.1340  0.5195  0.3515
  591MOL0     H81544   6.663   8.985   1.631 -1.0714  0.3044 -0.9042
  591MOL0     H81545   6.528   9.164   1.615  1.6922 -0.5643 -2.3330
  591MOL0     H81546   6.436   9.349   1.638 -4.0929  0.1757  1.7999
  591MOL0     H81547   6.368   9.491   1.715  0.1283  1.1384  0.1176
  591MOL0     H81548   6.623   9.496   1.551  1.0895 -1.7672  1.0472
  591MOL0     H81549   6.565   9.621   1.671  0.1276  0.4046 -0.3488
  591MOL0     H81550   6.395   9.501   1.455  0.8559  0.2969 -1.4911
  591MOL0     H81551   6.378   9.666   1.519 -1.4738  0.2744 -1.2309
  591MOL0     H81552   6.603   9.589   1.329  3.8518  2.4809  0.9635
  591MOL0     H81553   6.581   9.741   1.423  0.1330 -1.0411  2.5485
  591MOL0     H81554   6.302   9.820   1.130  1.2851  1.8501  0.3046
  591MOL0     H81555   6.730   9.359   1.944  0.5597 -1.2009  2.3921
  591MOL0     H81556   6.818   9.226   2.110 -1.0154  0.6865  0.1012
  591MOL0     H81557   6.874   9.061   2.081 -2.0697 -0.8850 -1.6848
  591MOL0     H81558   6.961   9.200   1.999 -0.4222 -0.3004 -0.4000
  592MOL0     O81559   5.274   4.836  10.292  0.5439  0.5958 -0.5934
  592MOL0     C81560   5.193   4.919  10.255 -0.8356 -0.2207  0.5535
  592MOL0     O81561   5.141   5.017  10.334 -0.2694 -0.9119  0.1060
  592MOL0     C81562   5.176   5.026  10.472  0.7430  0.6163  0.2367
  592MOL0     C81563   5.156   4.915  10.555  0.4963  0.1960  0.1648
  592MOL0     C81564   5.173   4.930  10.691  0.4651  0.5235 -0.8341
  592MOL0     C81565   5.207   5.049  10.753 -0.3453  0.7797  0.3994
  592MOL0     O81566   5.219   5.073  10.886  0.0763  0.0922  0.5406
  592MOL0     C81567   5.181   4.964  10.970  0.3324 -0.0251 -0.4805
  592MOL0     C81568   5.202   5.006  11.119 -0.5810 -0.3547  0.0087
  592MOL0     C81569   5.352   5.014  11.151 -0.1302  0.4322 -0.4371
  592MOL0     C81570   5.379   5.007  11.300  0.1991  0.3518  0.8573
  592MOL0     C81571   5.530   4.991  11.333 -0.3676 -0.2018 -0.3829
  592MOL0     C81572   5.557   4.954  11.478  0.2980  0.1785 -1.2699
  592MOL0     C81573   5.701   4.951  11.501 -0.5774 -0.0922  0.3399
  592MOL0     C81574   5.778   4.842  11.443  0.2147  0.2104 -0.0838
  592MOL0     N81575   5.916   4.864  11.472  0.5383 -0.0028 -0.3342
  592MOL0     C81576   5.986   4.843  11.588  0.5280 -0.1782  0.1867
  592MOL0     C81577   6.108   4.884  11.559 -0.6403  1.0580  0.7925
  592MOL0     C81578   6.219   4.906  11.652  0.1444 -0.2419 -1.1404
  592MOL0     C81579   6.322   4.787  11.665  0.7499  0.2777 -0.3669
  592MOL0     C81580   6.424   4.815  11.773  0.4989  0.7032  0.5956
  592MOL0     C81581   6.496   4.688  11.815 -0.3357 -0.0315 -0.2862
  592MOL0     O81582   6.588   4.705  11.923  0.0484  0.7528  0.4610
  592MOL0     C81583   6.716   4.740  11.904  0.0195 -0.3661  0.3168
  592MOL0     C81584   6.780   4.774  11.783  0.1905 -0.3949  0.0639
  592MOL0     C81585   6.919   4.791  11.767  0.4603  0.4118 -0.4207
  592MOL0     C81586   6.974   4.790  11.633 -0.2814  0.7716 -0.3375
  592MOL0     C81587   6.997   4.801  11.880 -0.2885 -0.4867 -0.3078
  592MOL0     C81588   7.141   4.844  11.874 -0.8298 -0.3015  0.4140
  592MOL0     O81589   7.216   4.814  11.986 -0.0947 -0.0168  0.4543
  592MOL0     C81590   7.353   4.850  11.988 -0.7239 -0.5530 -0.7262
  592MOL0     C81591   7.397   4.970  12.031 -0.3467  0.1577 -0.3039
  592MOL0     C81592   7.534   5.002  12.013 -0.2579 -0.5782 -0.0676
  592MOL0     C81593   7.625   4.908  11.971 -0.4593  0.5406  0.1441
  592MOL0     O81594   7.749   4.949  11.963 -0.1614 -0.0894 -0.8678
  592MOL0     C81595   7.857   4.854  11.951 -0.4352  0.2298  0.0331
  592MOL0     C81596   7.990   4.930  11.946  0.0911 -0.0232  0.2751
  592MOL0     C81597   8.064   4.922  11.808  0.2430 -1.0551  0.7884
  592MOL0     C81598   8.153   5.039  11.777  0.4402 -0.9860 -0.0766
  592MOL0     C81599   8.171   5.043  11.625 -0.8311 -0.2378 -0.3106
  592MOL0     C81600   8.275   5.150  11.574 -0.2699  1.2399 -0.2019
  592MOL0     C81601   8.218   5.244  11.458  0.4833 -0.3617  0.3236
  592MOL0     C81602   8.323   5.331  11.386 -0.9002 -0.5356 -0.2475
  592MOL0    Cl81603   8.393   5.440  11.514 -0.1876 -0.1730 -0.4106
  592MOL0     C81604   7.586   4.777  11.952 -0.1698 -0.1704 -0.1927
  592MOL0     C81605   7.442   4.757  11.940 -0.3402  0.0920 -0.4646
  592MOL0     O81606   7.184   4.920  11.782  0.1037  0.4400 -0.2394
  592MOL0     C81607   6.929   4.785  12.008 -0.4465  0.6686  0.5029
  592MOL0     C81608   6.793   4.759  12.012 -0.6902 -0.2359 -0.2376
  592MOL0     N81609   6.122   4.913  11.430  0.1740  0.4066 -0.0560
  592MOL0     N81610   6.006   4.895  11.375  0.3524 -0.4771  1.1237
  592MOL0     C81611   5.242   5.157  10.664 -0.0687  0.9060  0.2871
  592MOL0     C81612   5.227   5.140  10.523 -0.3756  0.2942 -1.0060
  592MOL0     C81613   5.135   4.908  10.126 -0.0530 -0.3666  0.5815
  592MOL0     C81614   5.096   5.026  10.067 -0.1522 -0.8641  0.4552
  592MOL0     C81615   5.039   5.035   9.943  0.3633  0.6003  0.1847
  592MOL0     C81616   5.004   4.914   9.873  0.3427 -0.6196  0.3447
  592MOL0     O81617   4.946   4.928   9.749  0.2133  0.5232 -0.3951
  592MOL0     C81618   4.831   4.846   9.716 -1.0420  0.0240 -1.3152
  592MOL0     C81619   4.702   4.888   9.793 -0.3269 -0.6417  0.1007
  592MOL0     C81620   4.672   5.040   9.794  0.0287 -0.9806  0.3858
  592MOL0     C81621   4.690   5.108   9.660 -0.1202  1.1970 -0.1369
  592MOL0     C81622   4.596   5.077   9.550  0.1717  0.2507  0.0676
  592MOL0     C81623   4.540   5.039   9.452  0.1967 -0.1127  0.8477
  592MOL0     C81624   5.037   4.795   9.933 -0.3112  0.2304 -0.0162
  592MOL0     C81625   5.114   4.790  10.063  0.0838 -0.2950 -0.0262
  592MOL0     C81626   5.138   4.654  10.110 -0.6567  0.2654  0.1647
  592MOL0     H81627   5.116   4.827  10.506  2.8853 -0.0403 -1.5252
  592MOL0     H81628   5.151   4.838  10.745  1.4610 -0.1802 -1.5913
  592MOL0     H81629   5.243   4.874  10.957 -1.5891 -1.1030 -3.3190
  592MOL0     H81630   5.073   4.951  10.956 -0.3818  4.7993 -1.1341
  592MOL0     H81631   5.151   5.100  11.140  0.6797  0.9523 -2.3326
  592MOL0     H81632   5.153   4.931  11.182  0.8332 -1.2130  0.1242
  592MOL0     H81633   5.407   4.934  11.100 -1.4781  0.1726 -1.5452
  592MOL0     H81634   5.392   5.106  11.108  0.4394  0.3868 -0.0248
  592MOL0     H81635   5.347   5.100  11.348  2.1199  1.2122  0.5702
  592MOL0     H81636   5.327   4.922  11.344 -2.8233 -0.1621 -3.0701
  592MOL0     H81637   5.573   5.090  11.314 -3.1142  0.9815 -0.9722
  592MOL0     H81638   5.567   4.912  11.267 -1.9253 -2.3031  1.1080
  592MOL0     H81639   5.503   5.020  11.547  1.6703  2.3099 -2.1330
  592MOL0     H81640   5.518   4.854  11.500 -0.2780  0.8951  1.2937
  592MOL0     H81641   5.701   4.933  11.609  1.6394 -3.0717 -0.0445
  592MOL0     H81642   5.756   5.044  11.486  1.3789 -0.8658  2.1657
  592MOL0     H81643   5.748   4.746  11.485 -2.6647  1.1390  0.1992
  592MOL0     H81644   5.759   4.833  11.335  0.3403 -0.2965 -0.0659
  592MOL0     H81645   5.944   4.811  11.683 -1.6871 -1.1807 -1.0410
  592MOL0     H81646   6.171   4.910  11.749  1.3114  1.1270 -0.5906
  592MOL0     H81647   6.264   5.004  11.634 -1.0423  0.7690  1.0313
  592MOL0     H81648   6.262   4.699  11.692 -1.7774  1.1423 -2.7040
  592MOL0     H81649   6.364   4.764  11.567  0.7248  0.9854 -0.5495
  592MOL0     H81650   6.490   4.892  11.731 -1.4479  1.9833 -0.2602
  592MOL0     H81651   6.371   4.854  11.861 -1.7334 -1.9834  0.5682
  592MOL0     H81652   6.429   4.610  11.852 -1.5092 -0.0796 -2.3229
  592MOL0     H81653   6.546   4.659  11.722  0.0244 -2.4801  0.6055
  592MOL0     H81654   6.718   4.770  11.694 -0.2195  1.2893  0.2371
  592MOL0     H81655   6.912   4.734  11.563 -2.5366  2.6657  0.0145
  592MOL0     H81656   7.073   4.745  11.645 -1.1733 -0.8141  1.5189
  592MOL0     H81657   6.980   4.899  11.620  4.4710  0.8858  0.9610
  592MOL0     H81658   7.322   5.044  12.058 -1.4143 -1.3232  0.9650
  592MOL0     H81659   7.570   5.099  12.045 -1.8028 -0.3165  0.9737
  592MOL0     H81660   7.857   4.788  12.038 -1.0164 -0.6300 -0.5952
  592MOL0     H81661   7.847   4.795  11.859  2.1093 -1.9787  1.0280
  592MOL0     H81662   7.973   5.032  11.981 -0.9940 -0.9451  2.6143
  592MOL0     H81663   8.047   4.898  12.033 -1.4132  1.1098  1.7344
  592MOL0     H81664   7.985   4.915  11.733  0.0478 -1.5785  1.0402
  592MOL0     H81665   8.126   4.834  11.793  0.9648 -0.3874 -0.3208
  592MOL0     H81666   8.248   5.020  11.828  2.4154  2.5692 -2.0613
  592MOL0     H81667   8.101   5.130  11.806 -2.5830 -2.7079  0.2649
  592MOL0     H81668   8.209   4.949  11.583  2.9312  1.2219 -0.5044
  592MOL0     H81669   8.074   5.058  11.576 -0.6747  1.0398 -0.2527
  592MOL0     H81670   8.366   5.096  11.544 -1.3590 -0.9527  0.2209
  592MOL0     H81671   8.323   5.206  11.655  0.7942  1.9082 -1.2711
  592MOL0     H81672   8.138   5.308  11.496 -2.3104 -2.3283 -1.7830
  592MOL0     H81673   8.180   5.182  11.376  2.5437  1.2079 -1.9346
  592MOL0     H81674   8.284   5.395  11.307  0.8103  0.1719 -0.5593
  592MOL0     H81675   8.407   5.281  11.337 -0.2618  1.6821 -1.6010
  592MOL0     H81676   7.651   4.693  11.927 -0.3327  0.1680 -1.8774
  592MOL0     H81677   7.413   4.657  11.911  5.9171 -0.9694 -5.4491
  592MOL0     H81678   6.978   4.768  12.104 -0.1532 -3.0523 -0.1520
  592MOL0     H81679   6.740   4.744  12.105  1.2575  2.3738  1.4371
  592MOL0     H81680   5.270   5.254  10.705  4.6302  0.0097 -0.2543
  592MOL0     H81681   5.260   5.220  10.457 -0.1591 -0.1770 -1.4654
  592MOL0     H81682   5.121   5.125  10.103 -3.9866  0.4586 -0.0069
  592MOL0     H81683   5.006   5.127   9.895 -2.6230 -0.8398 -0.7905
  592MOL0     H81684   4.815   4.835   9.609  0.3705  0.7181 -1.6123
  592MOL0     H81685   4.851   4.748   9.759  1.2706  2.1151  3.1086
  592MOL0     H81686   4.719   4.860   9.897  0.4098 -0.5984 -0.0070
  592MOL0     H81687   4.612   4.834   9.762 -1.4586 -0.3931  2.6972
  592MOL0     H81688   4.576   5.068   9.837 -1.3937  1.1553 -3.6329
  592MOL0     H81689   4.753   5.091   9.847 -0.8482 -0.2745  1.0675
  592MOL0     H81690   4.794   5.094   9.629  0.4397  0.2526  2.0000
  592MOL0     H81691   4.678   5.215   9.681  1.0519  1.0306  1.6598
  592MOL0     H81692   4.493   4.997   9.366  0.0756  2.7138 -0.5838
  592MOL0     H81693   5.005   4.702   9.888 -1.6244  0.2514  0.8431
  592MOL0     H81694   5.241   4.632  10.080 -0.0383 -0.2743  2.5000
  592MOL0     H81695   5.137   4.641  10.218  2.0506 -0.8774  0.1468
  592MOL0     H81696   5.067   4.578  10.076 -3.5428  2.4954  0.7932
  593MOL0     O81697  10.963   5.644   5.905  0.4600  0.3231  0.1365
  593MOL0     C81698  10.844   5.658   5.895 -0.6051  0.0813  0.1963
  593MOL0     O81699  10.773   5.720   5.989  0.3062 -0.4385 -0.0103
  593MOL0     C81700  10.834   5.808   6.074  0.7904 -0.0593 -1.0731
  593MOL0     C81701  10.742   5.836   6.185 -0.2100  0.3048  1.2387
  593MOL0     C81702  10.787   5.933   6.284 -0.2079 -0.0110  0.2092
  593MOL0     C81703  10.908   5.997   6.270  0.2651  0.1258 -0.2028
  593MOL0     O81704  10.956   6.084   6.372  0.0854 -0.2208 -0.2571
  593MOL0     C81705  10.864   6.183   6.420 -0.1393 -0.5510  0.3697
  593MOL0     C81706  10.939   6.286   6.515 -0.1600  0.5675  0.6018
  593MOL0     C81707  10.837   6.386   6.560  0.5013  0.1603 -0.3415
  593MOL0     C81708  10.898   6.473   6.661  0.6490 -0.5250 -0.7049
  593MOL0     C81709  10.798   6.571   6.713 -0.1431  0.5810  0.8530
  593MOL0     C81710  10.863   6.658   6.813  0.4990 -0.4640  0.4473
  593MOL0     C81711  10.765   6.738   6.896  0.8050 -0.2546  0.3146
  593MOL0     C81712  10.830   6.859   6.954 -0.3408 -0.1495 -0.3259
  593MOL0     N81713  10.846   6.977   6.864 -0.2095 -0.1149 -1.1924
  593MOL0     C81714  10.784   7.102   6.900  0.1745  0.8530 -0.0368
  593MOL0     C81715  10.811   7.180   6.790  0.2980  0.4977  0.0314
  593MOL0     C81716  10.773   7.323   6.772 -1.0311 -0.5659  1.3805
  593MOL0     C81717  10.666   7.336   6.662 -0.3775 -0.9046 -0.4280
  593MOL0     C81718  10.532   7.275   6.699  0.4904  1.0168 -0.6781
  593MOL0     C81719  10.423   7.380   6.695  0.2070  1.0720  0.5027
  593MOL0     O81720  10.308   7.306   6.741  0.9205 -0.2905  0.0145
  593MOL0     C81721  10.234   7.216   6.662  0.3063 -0.0359 -0.6000
  593MOL0     C81722  10.170   7.101   6.717  0.0739  1.0255 -0.6535
  593MOL0     C81723  10.103   6.992   6.648  0.2663 -1.0546  1.5721
  593MOL0     C81724  10.026   6.880   6.711  0.1534  0.7537 -0.9560
  593MOL0     C81725  10.096   7.014   6.507 -1.1044 -0.2790 -0.7465
  593MOL0     C81726  10.018   6.943   6.405  0.0333  0.5395  0.0189
  593MOL0     O81727   9.947   7.016   6.314  0.3659  0.0920 -0.1326
  593MOL0     C81728   9.868   7.119   6.362  0.0017  0.2052  1.1333
  593MOL0     C81729   9.894   7.250   6.307  0.0547 -0.6594  0.7685
  593MOL0     C81730   9.797   7.352   6.340  1.0156 -0.2151  0.2650
  593MOL0     C81731   9.673   7.321   6.405  0.3608  0.4335  0.4430
  593MOL0     O81732   9.565   7.404   6.427 -0.7488  0.7325 -0.3201
  593MOL0     C81733   9.596   7.524   6.491  0.1564  0.6100  0.1171
  593MOL0     C81734   9.532   7.535   6.625  1.0916  1.2336 -0.6718
  593MOL0     C81735   9.375   7.514   6.624  0.0988  0.1315 -0.1117
  593MOL0     C81736   9.333   7.363   6.597 -0.2009 -0.3550  0.1993
  593MOL0     C81737   9.205   7.316   6.661  0.5302  0.4182  0.6499
  593MOL0     C81738   9.158   7.182   6.593  0.2366  0.0956 -0.1330
  593MOL0     C81739   9.234   7.056   6.636 -0.6397  1.4750  0.0873
  593MOL0     C81740   9.232   7.016   6.780  0.1205  0.0978  0.0581
  593MOL0    Cl81741   9.059   6.995   6.821  0.1607  0.3200 -0.1667
  593MOL0     C81742   9.656   7.193   6.453  0.2040  0.5150  1.2292
  593MOL0     C81743   9.750   7.090   6.435  0.7134  0.2598  0.9681
  593MOL0     O81744  10.035   6.822   6.393 -0.4329 -0.2386  0.3290
  593MOL0     C81745  10.164   7.131   6.451  0.5420  0.9460  0.2719
  593MOL0     C81746  10.217   7.225   6.523  0.0943 -0.6104  0.0067
  593MOL0     N81747  10.892   7.101   6.712  0.0561  0.7407 -0.1983
  593MOL0     N81748  10.903   6.983   6.747 -0.1651  1.5217  0.4412
  593MOL0     C81749  10.987   5.964   6.169  1.4238  0.0407  0.0732
  593MOL0     C81750  10.954   5.879   6.060  0.4214 -0.2201 -0.4797
  593MOL0     C81751  10.777   5.582   5.783  1.3135  0.6414  0.4583
  593MOL0     C81752  10.851   5.529   5.677 -0.4518  0.2258  0.7886
  593MOL0     C81753  10.798   5.467   5.563  0.2214  0.5382 -0.3999
  593MOL0     C81754  10.660   5.433   5.561  0.3462 -0.2918  0.3159
  593MOL0     O81755  10.596   5.379   5.456 -0.2175  0.4734  0.3204
  593MOL0     C81756  10.675   5.341   5.337 -0.2894 -0.3033 -0.5493
  593MOL0     C81757  10.579   5.255   5.248 -0.4238  0.8443 -0.0592
  593MOL0     C81758  10.469   5.334   5.184 -0.1063 -0.9450  0.3019
  593MOL0     C81759  10.371   5.270   5.092 -0.0747 -0.6952  0.4492
  593MOL0     C81760  10.431   5.234   4.958  0.7433  0.3576  0.5523
  593MOL0     C81761  10.459   5.221   4.849 -0.4638 -0.2953  0.3621
  593MOL0     C81762  10.581   5.487   5.661 -0.3251  0.2076 -0.2943
  593MOL0     C81763  10.636   5.559   5.768  0.8568 -0.5822 -0.2478
  593MOL0     C81764  10.535   5.603   5.876 -0.5987 -0.3821 -0.3386
  593MOL0     H81765  10.652   5.775   6.189 -0.0844 -0.3242 -2.4518
  593MOL0     H81766  10.729   5.952   6.374 -1.8725  0.3081 -0.8808
  593MOL0     H81767  10.802   6.135   6.496 -0.5871  0.8712  0.9429
  593MOL0     H81768  10.792   6.212   6.343 -3.1217  1.6908  3.6390
  593MOL0     H81769  10.999   6.235   6.591  0.0255  0.0668  0.1330
  593MOL0     H81770  11.012   6.344   6.457 -1.6910  2.4050  0.4153
  593MOL0     H81771  10.817   6.439   6.466  1.3213 -3.2517 -2.6326
  593MOL0     H81772  10.756   6.323   6.599 -0.9329 -0.2051 -3.5954
  593MOL0     H81773  10.937   6.425   6.751 -0.9805  1.3500  1.1062
  593MOL0     H81774  10.980   6.522   6.606  1.1836 -2.4646 -1.7312
  593MOL0     H81775  10.717   6.514   6.760 -0.2019 -0.8390 -0.8695
  593MOL0     H81776  10.752   6.619   6.626  0.8460  4.0064  2.0352
  593MOL0     H81777  10.929   6.602   6.880  0.4695 -0.9089  0.1156
  593MOL0     H81778  10.936   6.723   6.765 -0.2804  0.3958  0.4004
  593MOL0     H81779  10.711   6.683   6.973  0.1910  3.3587  2.7061
  593MOL0     H81780  10.686   6.770   6.828  1.1001  0.3257  0.2345
  593MOL0     H81781  10.788   6.894   7.049  1.1282  0.3160  0.1959
  593MOL0     H81782  10.931   6.829   6.985 -0.2416 -0.2216 -0.7174
  593MOL0     H81783  10.724   7.117   6.989  0.2000 -0.0047  0.1327
  593MOL0     H81784  10.855   7.386   6.735 -0.9162 -1.4337  0.0775
  593MOL0     H81785  10.739   7.353   6.871  0.5669  1.1893  1.4627
  593MOL0     H81786  10.658   7.441   6.633  2.7133 -0.6101 -0.4804
  593MOL0     H81787  10.709   7.293   6.571 -1.0824 -0.3292 -1.0470
  593MOL0     H81788  10.506   7.198   6.625 -2.3044 -0.2392  1.4309
  593MOL0     H81789  10.535   7.221   6.794 -0.5808  0.4560 -0.9406
  593MOL0     H81790  10.448   7.458   6.767  2.2761  0.9030  0.0142
  593MOL0     H81791  10.412   7.422   6.595 -0.0849 -4.0573 -1.9921
  593MOL0     H81792  10.159   7.099   6.825 -1.8647 -0.3738 -0.8091
  593MOL0     H81793   9.922   6.876   6.676 -0.5931 -1.5900  1.2231
  593MOL0     H81794  10.020   6.891   6.820 -0.4069 -0.6112 -0.8267
  593MOL0     H81795  10.071   6.782   6.692  0.9908  0.8827  0.2468
  593MOL0     H81796   9.983   7.266   6.246 -0.8592 -2.9964 -1.3511
  593MOL0     H81797   9.801   7.451   6.296  1.7144 -1.3700 -2.4685
  593MOL0     H81798   9.704   7.537   6.505  0.1765  0.2406  0.3402
  593MOL0     H81799   9.557   7.606   6.430 -0.8192  1.5803  1.9572
  593MOL0     H81800   9.576   7.459   6.691 -1.6788  1.6213  1.8713
  593MOL0     H81801   9.556   7.632   6.670 -1.0875  0.9760  1.2779
  593MOL0     H81802   9.339   7.587   6.551  1.2257  3.1221  2.1369
  593MOL0     H81803   9.334   7.545   6.720  1.8619  4.4693 -0.5532
  593MOL0     H81804   9.415   7.301   6.634  2.5461  2.1072 -1.2986
  593MOL0     H81805   9.322   7.350   6.489  4.3144  1.8897 -0.7706
  593MOL0     H81806   9.204   7.307   6.770  0.6215  1.1497  0.7191
  593MOL0     H81807   9.128   7.391   6.640  1.5179  1.1878 -0.3561
  593MOL0     H81808   9.164   7.194   6.484  1.2712  1.8864  0.0732
  593MOL0     H81809   9.054   7.161   6.622  0.5960  1.1092  2.0946
  593MOL0     H81810   9.337   7.063   6.600 -0.7592  0.0612 -0.5822
  593MOL0     H81811   9.183   6.978   6.579  2.0942 -0.3720 -0.0221
  593MOL0     H81812   9.277   7.096   6.840  3.1162 -1.9271  0.7409
  593MOL0     H81813   9.273   6.916   6.798 -2.4742 -1.1257 -0.4359
  593MOL0     H81814   9.564   7.173   6.506 -0.8411 -1.3339 -1.1306
  593MOL0     H81815   9.740   6.988   6.468  3.3317 -0.7201 -0.9541
  593MOL0     H81816  10.169   7.143   6.343 -0.8299 -1.3984 -0.1340
  593MOL0     H81817  10.263   7.307   6.470 -0.3726  0.7459  1.5967
  593MOL0     H81818  11.082   6.016   6.166  1.2465  0.5748  2.2965
  593MOL0     H81819  11.029   5.865   5.983 -0.5423  0.7106 -1.6402
  593MOL0     H81820  10.960   5.537   5.673 -0.2606 -1.6324  1.1167
  593MOL0     H81821  10.855   5.435   5.476  0.7503  0.4226 -0.0185
  593MOL0     H81822  10.717   5.425   5.281 -1.0684  0.2497 -0.3327
  593MOL0     H81823  10.754   5.266   5.348 -1.1806 -1.6842 -2.7906
  593MOL0     H81824  10.530   5.176   5.306  1.9309 -0.5664  0.1038
  593MOL0     H81825  10.635   5.207   5.168 -1.8004  1.0319 -1.1807
  593MOL0     H81826  10.408   5.360   5.271 -2.8245 -1.2128 -1.3950
  593MOL0     H81827  10.515   5.419   5.133  1.6576 -2.0386 -0.0045
  593MOL0     H81828  10.276   5.319   5.073 -0.8893 -2.6476 -0.8438
  593MOL0     H81829  10.339   5.178   5.142  0.4252 -1.2932 -0.2910
  593MOL0     H81830  10.452   5.206   4.743 -1.7988 -0.0518  0.3890
  593MOL0     H81831  10.475   5.470   5.642 -1.0290  2.3381  1.2876
  593MOL0     H81832  10.560   5.705   5.906 -2.9616  0.5192 -1.1943
  593MOL0     H81833  10.431   5.607   5.841  0.0472  2.7848 -2.2813
  593MOL0     H81834  10.521   5.534   5.960  0.5530 -0.9524 -0.5864
  594MOL0     O81835   6.040  10.659   0.745  0.8621  0.0851 -0.5086
  594MOL0     C81836   6.083  10.542   0.756  0.3697  0.4471  0.4157
  594MOL0     O81837   6.186  10.506   0.833  0.0623  1.0076  0.2135
  594MOL0     C81838   6.258  10.602   0.900 -0.1634  0.5535  0.3017
  594MOL0     C81839   6.204  10.705   0.990  0.2756 -0.6677  0.1626
  594MOL0     C81840   6.297  10.789   1.051  0.1494  0.4058 -0.6055
  594MOL0     C81841   6.436  10.790   1.018  0.1202 -0.9159 -0.0930
  594MOL0     O81842   6.509  10.890   1.080  0.5169  0.1748 -0.5293
  594MOL0     C81843   6.655  10.867   1.086 -0.2781 -0.0350 -0.3645
  594MOL0     C81844   6.713  10.939   1.215  0.7257  0.1788 -1.3106
  594MOL0     C81845   6.680  11.094   1.220 -0.0781 -0.4129  0.4427
  594MOL0     C81846   6.753  11.170   1.117 -0.1962 -0.2742 -0.5621
  594MOL0     C81847   6.900  11.220   1.159 -0.0299  1.1738 -0.5436
  594MOL0     C81848   6.892  11.310   1.282  0.2065 -0.1338  1.2105
  594MOL0     C81849   7.016  11.399   1.283 -0.8872  0.1411  0.0798
  594MOL0     C81850   7.005  11.514   1.381  0.0576 -0.1498 -0.5373
  594MOL0     N81851   7.007  11.475   1.522  0.8152  0.6067  0.3548
  594MOL0     C81852   7.118  11.419   1.566 -0.1664 -0.4101 -0.3005
  594MOL0     C81853   7.101  11.372   1.691  0.2895 -0.1008  0.2035
  594MOL0     C81854   7.181  11.292   1.798  0.3356  0.5445  0.1383
  594MOL0     C81855   7.331  11.275   1.760  0.2097  0.7694  0.4303
  594MOL0     C81856   7.395  11.411   1.749 -0.1315  0.0165  0.1863
  594MOL0     C81857   7.539  11.419   1.759 -0.0581 -0.6683 -0.5738
  594MOL0     O81858   7.607  11.328   1.683 -0.4911 -0.2617  0.0687
  594MOL0     C81859   7.667  11.387   1.573 -0.0086  0.0531  1.4811
  594MOL0     C81860   7.617  11.373   1.448 -0.1024  0.3862 -0.6479
  594MOL0     C81861   7.675  11.419   1.331 -0.2878 -0.6460  0.8890
  594MOL0     C81862   7.607  11.373   1.197  0.0405  0.3518 -0.2167
  594MOL0     C81863   7.795  11.495   1.343  0.4253 -0.9745  0.1264
  594MOL0     C81864   7.864  11.556   1.229  0.3872 -0.7652  0.1989
  594MOL0     O81865   7.970  11.634   1.265 -0.5667  0.4238 -0.4845
  594MOL0     C81866   8.040  11.706   1.182  0.0796 -0.8122 -0.5283
  594MOL0     C81867   8.178  11.697   1.197 -0.0668 -0.4194 -0.5659
  594MOL0     C81868   8.269  11.780   1.127  0.4097  0.2410  0.2211
  594MOL0     C81869   8.216  11.874   1.035 -0.3980 -0.1103  0.1732
  594MOL0     O81870   8.310  11.957   0.960  0.0648 -0.6238 -0.7973
  594MOL0     C81871   8.270  11.980   0.824  0.1478  1.2556  0.4724
  594MOL0     C81872   8.388  12.029   0.753  0.0771  0.1629  0.6252
  594MOL0     C81873   8.415  12.180   0.772 -0.2586  0.4515 -0.4920
  594MOL0     C81874   8.561  12.224   0.735 -0.1067  0.2992  0.2668
  594MOL0     C81875   8.575  12.374   0.738 -0.4332  0.4586  0.5630
  594MOL0     C81876   8.711  12.419   0.677 -1.2503 -0.0910  0.2776
  594MOL0     C81877   8.733  12.567   0.708  0.0519 -0.3329 -0.7137
  594MOL0     C81878   8.651  12.650   0.605  0.8164 -1.1793 -0.1364
  594MOL0    Cl81879   8.740  12.710   0.470 -0.2246  0.3388 -0.2011
  594MOL0     C81880   8.078  11.885   1.021  0.1231  0.2586  0.3795
  594MOL0     C81881   7.988  11.810   1.100 -0.0822 -0.1820  0.3329
  594MOL0     O81882   7.825  11.526   1.116 -0.4976 -0.4763 -0.1436
  594MOL0     C81883   7.833  11.527   1.471 -0.4054 -0.3707  0.4833
  594MOL0     C81884   7.781  11.464   1.579  1.2662 -0.2158  0.0433
  594MOL0     N81885   6.967  11.379   1.711  0.0836  0.7980  0.2657
  594MOL0     N81886   6.904  11.434   1.610  0.5445 -1.5185 -0.6339
  594MOL0     C81887   6.485  10.689   0.939 -0.5500  0.0743 -0.3142
  594MOL0     C81888   6.397  10.597   0.879  0.4287 -0.3504 -0.4627
  594MOL0     C81889   6.020  10.429   0.676  0.2364 -0.4872 -0.3983
  594MOL0     C81890   6.008  10.308   0.743  0.1795 -0.2359  0.3463
  594MOL0     C81891   5.953  10.197   0.682 -0.2526  0.2913  0.3759
  594MOL0     C81892   5.895  10.211   0.553  0.0675 -0.0395 -0.1933
  594MOL0     O81893   5.840  10.103   0.491  0.2326 -0.7897 -0.3551
  594MOL0     C81894   5.719  10.141   0.419 -0.3771 -0.3523  0.6108
  594MOL0     C81895   5.647  10.016   0.371 -0.1789  0.0389 -0.9421
  594MOL0     C81896   5.510   9.995   0.435  0.2051  0.1942  0.8932
  594MOL0     C81897   5.506   9.953   0.585  0.2723 -0.3542  0.0127
  594MOL0     C81898   5.372   9.980   0.626  0.6011  0.0614 -1.5552
  594MOL0     C81899   5.260  10.014   0.666 -0.6429  0.1509  0.7484
  594MOL0     C81900   5.901  10.342   0.491 -0.6209  0.3311  0.4433
  594MOL0     C81901   5.960  10.447   0.553 -0.3969 -0.4924  0.0629
  594MOL0     C81902   5.980  10.578   0.481 -0.2950 -0.7871  1.2192
  594MOL0     H81903   6.097  10.720   1.003  0.0895  0.2982 -2.0697
  594MOL0     H81904   6.265  10.874   1.111 -2.1392 -0.7276 -0.0906
  594MOL0     H81905   6.714  10.900   1.000 -0.8872  4.5354  0.7436
  594MOL0     H81906   6.665  10.760   1.109  0.1087 -0.0391 -0.5366
  594MOL0     H81907   6.666  10.898   1.305  1.5791  0.8877 -0.5270
  594MOL0     H81908   6.821  10.923   1.214  0.8415  0.7766 -3.1282
  594MOL0     H81909   6.572  11.108   1.206 -0.1373  0.1577  1.3660
  594MOL0     H81910   6.697  11.129   1.323 -1.4078  3.3327 -0.4473
  594MOL0     H81911   6.755  11.113   1.023 -1.0060 -0.4360 -0.4831
  594MOL0     H81912   6.700  11.260   1.085  0.6174  1.5034  2.6415
  594MOL0     H81913   6.953  11.265   1.073  3.9597 -2.6148 -0.4068
  594MOL0     H81914   6.962  11.133   1.182 -1.2232 -0.1207 -2.0391
  594MOL0     H81915   6.801  11.369   1.269 -0.0025 -0.9403 -1.9895
  594MOL0     H81916   6.883  11.257   1.377 -3.1217  1.8024  2.1331
  594MOL0     H81917   7.028  11.447   1.185 -1.6068  0.8903  0.3478
  594MOL0     H81918   7.107  11.343   1.301 -1.4488 -0.7272  0.2533
  594MOL0     H81919   7.086  11.584   1.359  1.8097 -1.2470  2.0218
  594MOL0     H81920   6.914  11.570   1.355  2.4153  3.3513 -1.9969
  594MOL0     H81921   7.212  11.398   1.516 -0.9143 -1.3614 -1.3800
  594MOL0     H81922   7.134  11.194   1.805  1.7576 -0.6096 -3.7172
  594MOL0     H81923   7.167  11.329   1.899 -2.9999 -0.3731  0.1276
  594MOL0     H81924   7.376  11.215   1.840 -2.2291 -0.7994  0.7180
  594MOL0     H81925   7.346  11.225   1.663 -1.0601 -0.2863  0.7613
  594MOL0     H81926   7.377  11.452   1.649 -0.5413 -2.0800 -0.6484
  594MOL0     H81927   7.363  11.480   1.828  2.4042  0.6415  0.7476
  594MOL0     H81928   7.568  11.521   1.731 -0.1764  0.0123  1.5955
  594MOL0     H81929   7.567  11.407   1.864  0.0523  0.6594 -0.4333
  594MOL0     H81930   7.531  11.308   1.433  2.5452 -3.6174 -0.0845
  594MOL0     H81931   7.505  11.333   1.201 -0.6230  1.4510 -3.1429
  594MOL0     H81932   7.670  11.301   1.144 -0.5583  1.5057 -2.6346
  594MOL0     H81933   7.600  11.459   1.129 -0.5912 -0.2036 -0.8651
  594MOL0     H81934   8.230  11.626   1.260  0.9258  0.7201 -0.0592
  594MOL0     H81935   8.375  11.776   1.150  0.2207 -2.0193  0.9392
  594MOL0     H81936   8.243  11.885   0.777 -0.6854  1.1935  1.0523
  594MOL0     H81937   8.179  12.041   0.815 -0.5821  0.0398 -0.8263
  594MOL0     H81938   8.469  11.970   0.794 -0.9923 -3.4509 -1.9465
  594MOL0     H81939   8.389  12.011   0.645  1.3100 -1.5884  0.8923
  594MOL0     H81940   8.393  12.199   0.877 -0.7340 -2.3877  0.0146
  594MOL0     H81941   8.347  12.245   0.715  1.6334  2.7078 -0.3377
  594MOL0     H81942   8.592  12.198   0.633  3.9136  0.4855  1.2801
  594MOL0     H81943   8.635  12.172   0.797 -3.5387 -4.2361  1.0674
  594MOL0     H81944   8.487  12.414   0.687  0.8836 -0.7926 -2.9522
  594MOL0     H81945   8.580  12.410   0.842 -1.3024  1.3142  0.3269
  594MOL0     H81946   8.711  12.403   0.568 -3.5123 -1.2564  0.3893
  594MOL0     H81947   8.791  12.359   0.722 -0.1784  1.0467 -0.0574
  594MOL0     H81948   8.831  12.615   0.701 -0.8137  1.7510  0.5447
  594MOL0     H81949   8.708  12.593   0.811  5.1069  0.2962  0.6030
  594MOL0     H81950   8.596  12.730   0.654 -0.2481 -0.9487 -1.6595
  594MOL0     H81951   8.581  12.579   0.560 -1.1466  0.9421 -0.5730
  594MOL0     H81952   8.029  11.967   0.968  2.7260  1.3619 -0.4695
  594MOL0     H81953   7.884  11.819   1.070  0.6438  1.9834 -1.8956
  594MOL0     H81954   7.925  11.581   1.492 -0.8689  2.0958 -2.8863
  594MOL0     H81955   7.830  11.478   1.675 -0.3287  1.2597  0.7149
  594MOL0     H81956   6.582  10.693   0.890 -0.3741  0.0322  0.0252
  594MOL0     H81957   6.443  10.514   0.827 -0.2484 -1.6723  0.9803
  594MOL0     H81958   6.059  10.298   0.838 -3.6883 -5.1297  2.3537
  594MOL0     H81959   5.951  10.097   0.723  2.1591 -0.6129 -1.4866
  594MOL0     H81960   5.655  10.193   0.491 -0.0733  0.6731  0.1560
  594MOL0     H81961   5.733  10.198   0.326  1.8291  2.0818  2.2992
  594MOL0     H81962   5.709   9.929   0.393 -0.2346 -0.3921 -2.3839
  594MOL0     H81963   5.638  10.028   0.262  1.0030 -2.3510 -1.3663
  594MOL0     H81964   5.455  10.088   0.415 -2.2787 -1.1160  1.1853
  594MOL0     H81965   5.464   9.915   0.376  0.6222  1.3683 -1.1001
  594MOL0     H81966   5.572  10.015   0.647  0.1993  2.3856 -2.3695
  594MOL0     H81967   5.514   9.845   0.592 -0.6309 -0.6062 -2.0486
  594MOL0     H81968   5.173  10.036   0.725 -0.1952 -0.5407  1.7036
  594MOL0     H81969   5.857  10.354   0.393 -1.7869 -1.0426  0.7718
  594MOL0     H81970   6.083  10.615   0.478  0.3144 -2.4496  0.5345
  594MOL0     H81971   5.954  10.579   0.374  1.2565 -0.0744  0.8234
  594MOL0     H81972   5.927  10.655   0.538  3.0060  1.6373  1.2918
  595MOL0     O81973   7.221   0.699   1.902 -1.6520  0.7225  0.7369
  595MOL0     C81974   7.274   0.637   1.988  0.3763  0.3554 -1.1307
  595MOL0     O81975   7.193   0.573   2.082  0.0111  0.2079 -0.0536
  595MOL0     C81976   7.056   0.581   2.073 -0.3225 -0.1738  0.3414
  595MOL0     C81977   6.978   0.661   2.154  0.2750 -0.3486 -0.9462
  595MOL0     C81978   6.838   0.674   2.149 -0.2106 -0.4493 -0.3017
  595MOL0     C81979   6.778   0.617   2.031  0.5456  0.0497 -0.7931
  595MOL0     O81980   6.643   0.620   2.010  0.2801 -0.4388  0.3103
  595MOL0     C81981   6.560   0.724   2.063  0.4902 -0.1288 -0.6442
  595MOL0     C81982   6.452   0.751   1.964 -0.0155 -0.1913 -0.0399
  595MOL0     C81983   6.513   0.773   1.817  0.1836  0.6391  0.0439
  595MOL0     C81984   6.410   0.760   1.702 -1.0815 -0.2550  0.0022
  595MOL0     C81985   6.461   0.823   1.579  0.0184 -0.0415  0.2910
  595MOL0     C81986   6.366   0.802   1.464 -0.0567  0.5783 -0.0104
  595MOL0     C81987   6.410   0.863   1.333 -0.6205 -0.1198 -0.2216
  595MOL0     C81988   6.511   0.774   1.268 -0.1674 -0.1076 -0.4435
  595MOL0     N81989   6.547   0.819   1.135  0.9857 -0.2783  0.4312
  595MOL0     C81990   6.629   0.921   1.108  1.1863  0.1175 -0.1958
  595MOL0     C81991   6.619   0.929   0.974 -0.1374  0.0964 -0.9293
  595MOL0     C81992   6.678   1.037   0.883 -0.2052  0.0159  0.8295
  595MOL0     C81993   6.751   0.973   0.768 -0.0616  0.6450 -0.8540
  595MOL0     C81994   6.883   0.918   0.819 -0.3287 -0.0632  0.3062
  595MOL0     C81995   6.973   0.856   0.708  0.3464 -0.8837 -0.5949
  595MOL0     O81996   7.098   0.831   0.783 -0.0854  0.2022 -0.3483
  595MOL0     C81997   7.211   0.795   0.716  0.5122 -0.4794  0.1152
  595MOL0     C81998   7.218   0.775   0.581  0.0438 -0.0876 -0.4909
  595MOL0     C81999   7.340   0.769   0.516  0.6406  0.3386  1.2801
  595MOL0     C82000   7.335   0.749   0.367 -1.0903  0.1560 -0.1789
  595MOL0     C82001   7.466   0.783   0.582  0.6114 -0.3430 -1.3847
  595MOL0     C82002   7.606   0.766   0.525 -0.7552 -0.3343  0.8014
  595MOL0     O82003   7.708   0.773   0.615 -0.5958  0.6193 -0.0728
  595MOL0     C82004   7.834   0.786   0.567  0.6662 -0.6403 -0.0884
  595MOL0     C82005   7.908   0.910   0.575 -0.9367  0.1408  0.1686
  595MOL0     C82006   8.041   0.913   0.543  0.1066  0.2768  1.1620
  595MOL0     C82007   8.108   0.801   0.498 -0.8752  0.8753 -0.5409
  595MOL0     O82008   8.236   0.791   0.443  0.1112 -0.4866  0.4948
  595MOL0     C82009   8.307   0.921   0.453 -0.2213 -0.5832 -0.1329
  595MOL0     C82010   8.431   0.915   0.360  0.5823 -0.0236 -0.0908
  595MOL0     C82011   8.384   0.919   0.214 -0.2750  0.5336  0.1763
  595MOL0     C82012   8.504   0.939   0.121  0.2809  0.2816 -0.0109
  595MOL0     C82013   8.516   1.079   0.068  0.0886 -0.3587 -1.4779
  595MOL0     C82014   8.421   1.107  -0.051  0.2553 -0.6925  0.1693
  595MOL0     C82015   8.418   1.252  -0.107 -1.0812 -0.3155  0.0661
  595MOL0     C82016   8.324   1.282  -0.237 -0.3442 -0.6451 -0.7636
  595MOL0    Cl82017   8.154   1.274  -0.183 -0.1575 -0.5001 -0.1029
  595MOL0     C82018   8.036   0.672   0.502 -1.0250 -0.4545  0.1430
  595MOL0     C82019   7.901   0.669   0.527  0.0060  0.2652 -0.0371
  595MOL0     O82020   7.616   0.734   0.406 -0.4984 -0.0453  0.0216
  595MOL0     C82021   7.447   0.776   0.720  0.2351  0.8022 -0.9679
  595MOL0     C82022   7.327   0.781   0.790  0.1041 -0.1984  0.0545
  595MOL0     N82023   6.545   0.824   0.919  0.1920 -0.1424  0.4637
  595MOL0     N82024   6.506   0.759   1.019 -0.1456  0.7415 -0.6500
  595MOL0     C82025   6.854   0.537   1.944 -0.3689  0.0846 -0.0556
  595MOL0     C82026   6.990   0.529   1.965 -0.0129 -0.4948  0.6709
  595MOL0     C82027   7.424   0.617   2.000 -0.5966 -0.4805 -0.3594
  595MOL0     C82028   7.467   0.563   2.121 -0.2863 -0.3725 -0.2523
  595MOL0     C82029   7.600   0.548   2.146 -0.2512 -0.3724 -0.6395
  595MOL0     C82030   7.702   0.578   2.047 -0.9328 -0.0707 -0.6974
  595MOL0     O82031   7.841   0.557   2.063  0.4111  0.1425  0.1018
  595MOL0     C82032   7.900   0.544   2.193 -0.6727  0.1847  0.2825
  595MOL0     C82033   7.954   0.413   2.227 -0.6404 -0.3773  0.4166
  595MOL0     C82034   7.853   0.319   2.270  0.0942 -0.4868  0.3335
  595MOL0     C82035   7.905   0.197   2.334  0.9855 -0.7115  0.8130
  595MOL0     C82036   7.806   0.097   2.367 -0.1606 -0.1680 -0.2953
  595MOL0     C82037   7.723   0.017   2.404 -0.3654  0.6521  0.4842
  595MOL0     C82038   7.656   0.619   1.926 -0.4431 -0.0389  0.5562
  595MOL0     C82039   7.523   0.636   1.899  0.5007 -0.3771  1.0325
  595MOL0     C82040   7.478   0.689   1.755  0.6406 -0.5207  0.3738
  595MOL0     H82041   7.026   0.709   2.240  0.0521  0.0286 -1.0295
  595MOL0     H82042   6.794   0.731   2.230  2.9152  2.1940 -0.2310
  595MOL0     H82043   6.622   0.813   2.083 -2.3338  1.6861  0.7132
  595MOL0     H82044   6.526   0.705   2.166  1.0308  1.2041 -0.1872
  595MOL0     H82045   6.375   0.673   1.963  0.6644 -0.8536 -0.6741
  595MOL0     H82046   6.402   0.841   2.001 -0.7760  0.7107 -2.9685
  595MOL0     H82047   6.564   0.869   1.830 -0.6567  1.3136 -1.3966
  595MOL0     H82048   6.586   0.696   1.790 -1.5366 -0.5119 -1.4923
  595MOL0     H82049   6.385   0.656   1.681 -1.1717 -0.0386 -1.0190
  595MOL0     H82050   6.318   0.809   1.738 -1.5685  0.4372 -2.0451
  595MOL0     H82051   6.555   0.774   1.553  1.1389  2.9543 -1.8696
  595MOL0     H82052   6.478   0.930   1.599  2.0761 -0.3050  0.2102
  595MOL0     H82053   6.332   0.698   1.451 -0.5004  0.4500  1.9270
  595MOL0     H82054   6.276   0.861   1.483  1.0252  1.8677  1.3476
  595MOL0     H82055   6.448   0.966   1.337  1.7972 -1.0138  1.9496
  595MOL0     H82056   6.314   0.851   1.281 -1.3599 -6.0734  1.8181
  595MOL0     H82057   6.595   0.774   1.338 -1.3474 -0.3526  1.0344
  595MOL0     H82058   6.490   0.666   1.266  2.3622 -0.6557 -0.4772
  595MOL0     H82059   6.674   0.992   1.177  3.4640  0.7533 -2.1801
  595MOL0     H82060   6.740   1.114   0.930 -0.0686  1.7691 -1.9882
  595MOL0     H82061   6.588   1.085   0.844 -0.0722  0.4631  1.0580
  595MOL0     H82062   6.677   0.898   0.739  1.0616 -1.2850  1.0589
  595MOL0     H82063   6.774   1.043   0.687 -3.0892  3.7232  0.6792
  595MOL0     H82064   6.940   1.005   0.852  2.0047 -0.5815 -1.9798
  595MOL0     H82065   6.860   0.839   0.891 -1.3021 -0.8875 -0.8670
  595MOL0     H82066   6.932   0.765   0.664 -3.4275  1.2748 -1.9661
  595MOL0     H82067   7.001   0.934   0.637  0.2098 -1.2795 -1.0837
  595MOL0     H82068   7.129   0.773   0.519  2.1193 -0.1930 -3.6815
  595MOL0     H82069   7.345   0.843   0.313  0.0439 -0.2880 -0.7682
  595MOL0     H82070   7.237   0.708   0.340 -1.2299  0.8147 -0.6787
  595MOL0     H82071   7.408   0.675   0.335  0.5512  2.3858 -1.9064
  595MOL0     H82072   7.864   1.004   0.608 -0.0312  0.4728  0.4641
  595MOL0     H82073   8.101   1.003   0.538 -0.6785  0.7440 -1.4143
  595MOL0     H82074   8.246   1.003   0.413 -0.4423  1.4290  3.8249
  595MOL0     H82075   8.333   0.950   0.555 -1.0202 -0.0051 -0.0853
  595MOL0     H82076   8.492   1.004   0.380 -1.3035  1.1176  0.9799
  595MOL0     H82077   8.487   0.823   0.373  0.1360 -0.2119  0.5327
  595MOL0     H82078   8.315   1.003   0.202  0.0274  1.0225  1.6143
  595MOL0     H82079   8.353   0.815   0.196 -0.2690 -0.0949  3.2122
  595MOL0     H82080   8.522   0.869   0.039  1.4838 -3.2124  2.9661
  595MOL0     H82081   8.592   0.928   0.185  1.2432  0.4826 -1.2654
  595MOL0     H82082   8.486   1.144   0.151 -0.8873 -2.4650 -0.0837
  595MOL0     H82083   8.622   1.097   0.048  0.6086 -0.5490  0.8133
  595MOL0     H82084   8.318   1.082  -0.022 -0.0474  2.3054  2.1175
  595MOL0     H82085   8.457   1.039  -0.128  2.5117  0.0265  0.5313
  595MOL0     H82086   8.519   1.278  -0.142 -1.3685 -0.6296 -1.0497
  595MOL0     H82087   8.381   1.314  -0.025 -0.4664  0.3723 -0.1638
  595MOL0     H82088   8.336   1.212  -0.320  0.8506 -2.1021  0.5750
  595MOL0     H82089   8.360   1.378  -0.276  0.0793  0.1726  1.5192
  595MOL0     H82090   8.086   0.587   0.456  2.4638  1.9470 -0.9076
  595MOL0     H82091   7.852   0.573   0.519 -0.8063  0.7610 -1.1972
  595MOL0     H82092   7.538   0.753   0.774 -0.9608 -2.2478 -0.0199
  595MOL0     H82093   7.319   0.808   0.895 -1.7408  0.8348 -0.3118
  595MOL0     H82094   6.810   0.493   1.855 -0.4406  1.6765 -0.8462
  595MOL0     H82095   7.049   0.477   1.891 -0.0187  4.7409 -3.6437
  595MOL0     H82096   7.394   0.526   2.192 -2.2285  1.4204 -1.1920
  595MOL0     H82097   7.625   0.500   2.240 -2.8831 -1.3381 -0.3764
  595MOL0     H82098   7.986   0.612   2.187 -1.3347  1.0523  0.4635
  595MOL0     H82099   7.847   0.581   2.281  1.7905  2.1519  1.0819
  595MOL0     H82100   8.023   0.424   2.311 -1.1822 -0.8468  0.9385
  595MOL0     H82101   8.017   0.367   2.151 -1.4972  0.2275 -0.6718
  595MOL0     H82102   7.781   0.368   2.336 -0.2510 -1.4726  0.7186
  595MOL0     H82103   7.795   0.290   2.181 -0.4701 -1.1757  0.9039
  595MOL0     H82104   7.955   0.223   2.428 -0.6853 -0.0589  1.5752
  595MOL0     H82105   7.979   0.155   2.265 -0.3238  1.9816 -2.4867
  595MOL0     H82106   7.648  -0.054   2.434 -2.4044  2.9496  1.1165
  595MOL0     H82107   7.731   0.642   1.851 -0.2563  0.9242  1.0116
  595MOL0     H82108   7.413   0.612   1.712  1.4120 -0.2052 -1.4613
  595MOL0     H82109   7.417   0.780   1.755  3.9933  1.9631 -1.4756
  595MOL0     H82110   7.567   0.708   1.694 -0.5897 -2.4669 -2.2352
  596MOL0     O82111  10.888   9.950   9.158 -0.2064  0.4252  0.2586
  596MOL0     C82112  10.932   9.950   9.043 -0.5118  0.0878 -0.6127
  596MOL0     O82113  11.065   9.970   9.015  1.1186  0.5437  0.3471
  596MOL0     C82114  11.154  10.018   9.105 -0.3096 -0.0709  0.5544
  596MOL0     C82115  11.126  10.131   9.174 -0.2754  0.2420 -0.0339
  596MOL0     C82116  11.228  10.178   9.259 -0.0133 -0.4368 -0.0075
  596MOL0     C82117  11.356  10.122   9.277 -0.0079 -0.4329  0.6177
  596MOL0     O82118  11.445  10.156   9.380 -0.7298  0.2379 -0.1945
  596MOL0     C82119  11.451  10.285   9.442  0.7719  0.3965  0.4311
  596MOL0     C82120  11.488  10.402   9.347  0.0201  0.1018  0.5825
  596MOL0     C82121  11.473  10.543   9.413  0.2075 -0.4328 -0.6254
  596MOL0     C82122  11.545  10.555   9.552 -0.5060  0.7328  0.1632
  596MOL0     C82123  11.507  10.693   9.619  0.8357 -0.6646 -0.3730
  596MOL0     C82124  11.536  10.826   9.545  0.1053  0.6126 -0.6265
  596MOL0     C82125  11.666  10.858   9.467  0.4458  0.9612 -0.2940
  596MOL0     C82126  11.796  10.852   9.547  0.0308  0.3331  0.7228
  596MOL0     N82127  11.898  10.921   9.464  0.7536  0.9111  0.2890
  596MOL0     C82128  11.959  10.875   9.347  0.0161  0.7336  0.4129
  596MOL0     C82129  12.052  10.960   9.314  0.0521  0.5014 -0.5584
  596MOL0     C82130  12.151  10.947   9.208  0.8253  0.7388 -0.2817
  596MOL0     C82131  12.285  10.918   9.277  0.4112 -0.2702  0.2994
  596MOL0     C82132  12.381  10.899   9.152 -0.7172  0.9629 -0.2839
  596MOL0     C82133  12.518  10.875   9.201 -1.0413  0.1771 -0.3349
  596MOL0     O82134  12.580  10.764   9.151 -0.5644  0.8462 -0.3239
  596MOL0     C82135  12.652  10.762   9.030 -0.4517 -1.1291 -0.6882
  596MOL0     C82136  12.652  10.879   8.948  0.1725  0.4488 -0.6868
  596MOL0     C82137  12.724  10.879   8.832  0.1406 -0.6182  0.6235
  596MOL0     C82138  12.690  10.998   8.737  0.5958 -0.3855 -0.2461
  596MOL0     C82139  12.821  10.783   8.800 -0.8991 -0.2534  0.1058
  596MOL0     C82140  12.922  10.792   8.686  0.8574 -0.1925  0.1039
  596MOL0     O82141  12.989  10.673   8.656  0.5580 -0.3009  0.2764
  596MOL0     C82142  13.056  10.663   8.531  0.8587 -0.1485 -0.8531
  596MOL0     C82143  13.171  10.605   8.536  0.7889 -0.0802 -0.0638
  596MOL0     C82144  13.249  10.582   8.420 -0.3886 -0.6751  0.1729
  596MOL0     C82145  13.204  10.630   8.296 -0.0207 -0.7616  0.3881
  596MOL0     O82146  13.270  10.588   8.181 -0.1722 -0.1845  0.2804
  596MOL0     C82147  13.257  10.661   8.064  0.4914 -0.3453  0.3663
  596MOL0     C82148  13.165  10.585   7.979 -0.1692 -0.5238  0.5429
  596MOL0     C82149  13.223  10.448   7.937  0.4000 -0.4638 -0.2800
  596MOL0     C82150  13.116  10.373   7.859 -0.1364 -0.4115 -0.4884
  596MOL0     C82151  13.186  10.243   7.807 -0.1418  0.6264 -0.8324
  596MOL0     C82152  13.087  10.155   7.736  0.5260  0.5203 -0.5222
  596MOL0     C82153  13.160  10.052   7.649  0.3677 -0.2889 -0.4468
  596MOL0     C82154  13.058   9.961   7.574 -0.5970  0.6846  0.7273
  596MOL0    Cl82155  12.886  10.018   7.565  0.1417  0.1600 -0.0012
  596MOL0     C82156  13.086  10.700   8.286 -0.7375  0.4506  0.4487
  596MOL0     C82157  13.013  10.711   8.411 -0.4391 -0.4624  0.6430
  596MOL0     O82158  12.958  10.900   8.644  0.1253  0.0743  0.0301
  596MOL0     C82159  12.824  10.671   8.882  0.8302  0.6722 -0.6466
  596MOL0     C82160  12.728  10.658   8.990  0.0507  0.2979 -1.0282
  596MOL0     N82161  12.052  11.056   9.422  0.3343 -0.4379  1.3274
  596MOL0     N82162  11.957  11.037   9.504 -0.9726  0.3538  0.3185
  596MOL0     C82163  11.381  10.006   9.203  0.9899  0.2323  0.6820
  596MOL0     C82164  11.280   9.952   9.119  0.7258 -0.0294  0.7445
  596MOL0     C82165  10.851   9.923   8.929  0.1221 -0.5262 -0.1419
  596MOL0     C82166  10.887   9.986   8.809 -0.2075  0.3230 -0.5512
  596MOL0     C82167  10.809   9.970   8.697  0.6438 -0.3540  0.2923
  596MOL0     C82168  10.691   9.885   8.701  0.7992 -0.2702 -0.5532
  596MOL0     O82169  10.620   9.882   8.587 -0.0198  0.3657  0.5300
  596MOL0     C82170  10.486   9.821   8.590 -0.7858  0.2807 -1.2005
  596MOL0     C82171  10.439   9.816   8.440  0.6130  0.1899  0.2290
  596MOL0     C82172  10.456   9.943   8.349  0.3588  0.8303  0.7155
  596MOL0     C82173  10.363  10.060   8.392  0.1618 -1.1095 -0.7144
  596MOL0     C82174  10.390  10.168   8.292 -0.5265  0.1316 -0.1802
  596MOL0     C82175  10.407  10.254   8.200  0.3904 -0.0129 -0.7924
  596MOL0     C82176  10.657   9.838   8.823 -0.5023  0.3931 -0.4956
  596MOL0     C82177  10.730   9.851   8.941  0.5759 -0.0010 -0.2464
  596MOL0     C82178  10.667   9.811   9.080  0.4941 -0.3227  0.7224
  596MOL0     H82179  11.032  10.176   9.144  0.0440 -0.9028 -3.1189
  596MOL0     H82180  11.212  10.274   9.307 -0.3692 -0.4178 -0.1590
  596MOL0     H82181  11.537  10.283   9.509  1.0507  0.7035  0.0875
  596MOL0     H82182  11.360  10.309   9.498  1.4135  1.5058  1.0315
  596MOL0     H82183  11.597  10.392   9.338  0.0973  0.0805  1.4536
  596MOL0     H82184  11.430  10.409   9.255  1.3760  2.3057 -0.1864
  596MOL0     H82185  11.516  10.623   9.352  1.2166 -0.7890 -0.4100
  596MOL0     H82186  11.368  10.568   9.432  0.1332 -2.5649  2.3790
  596MOL0     H82187  11.512  10.492   9.635  1.1283  1.6723  1.5987
  596MOL0     H82188  11.653  10.540   9.540 -0.6985 -0.4025 -0.3505
  596MOL0     H82189  11.564  10.705   9.711 -1.1140  1.0423  0.6882
  596MOL0     H82190  11.399  10.693   9.636  1.0664 -0.9825  1.1695
  596MOL0     H82191  11.453  10.835   9.475 -2.2525 -1.6637  1.6349
  596MOL0     H82192  11.528  10.900   9.625  7.1410 -1.1684  2.5252
  596MOL0     H82193  11.655  10.962   9.436  0.1709  0.6537 -1.2633
  596MOL0     H82194  11.674  10.807   9.371  1.1627 -0.6033  0.5630
  596MOL0     H82195  11.775  10.912   9.636 -2.9139 -0.7021  0.8409
  596MOL0     H82196  11.814  10.753   9.591 -1.8833  0.5110  2.0154
  596MOL0     H82197  11.935  10.789   9.286  4.3688  1.9472 -3.5904
  596MOL0     H82198  12.149  11.045   9.159 -1.0079  0.3818 -0.9974
  596MOL0     H82199  12.110  10.884   9.128 -0.8379  3.1062 -1.4086
  596MOL0     H82200  12.326  10.996   9.342 -1.1089  0.0828  0.8680
  596MOL0     H82201  12.289  10.829   9.340 -0.7702 -1.3507 -1.0763
  596MOL0     H82202  12.351  10.814   9.090 -1.7940  1.7531 -0.8698
  596MOL0     H82203  12.380  10.987   9.088  2.7879 -1.1081 -3.6372
  596MOL0     H82204  12.586  10.958   9.179  2.3960 -2.3293 -0.0690
  596MOL0     H82205  12.519  10.882   9.310 -1.0988 -1.5418 -0.1936
  596MOL0     H82206  12.576  10.956   8.955 -0.8347 -0.5991  0.1298
  596MOL0     H82207  12.685  10.971   8.631  2.7827  2.2069 -1.1277
  596MOL0     H82208  12.772  11.071   8.744  0.5603 -0.3634 -0.0486
  596MOL0     H82209  12.609  11.066   8.764  0.1466  0.1215 -2.6666
  596MOL0     H82210  13.195  10.570   8.636 -0.3012 -1.1462 -0.1587
  596MOL0     H82211  13.346  10.534   8.410  0.5482  1.1383  0.0388
  596MOL0     H82212  13.238  10.768   8.079 -0.0015 -0.2938 -0.5211
  596MOL0     H82213  13.358  10.665   8.022 -0.3987  1.5687 -1.7920
  596MOL0     H82214  13.071  10.567   8.032 -0.7796 -1.4489 -0.7890
  596MOL0     H82215  13.145  10.649   7.893 -0.0440 -4.0633 -2.3367
  596MOL0     H82216  13.247  10.388   8.025 -2.3318 -0.1048  0.8138
  596MOL0     H82217  13.303  10.478   7.869  1.6169 -0.0043  1.2984
  596MOL0     H82218  13.082  10.434   7.775 -0.0703  0.7167  0.2946
  596MOL0     H82219  13.029  10.355   7.922  0.5513 -0.3058  0.5086
  596MOL0     H82220  13.272  10.275   7.747 -0.1028 -0.4570 -1.3763
  596MOL0     H82221  13.230  10.188   7.890  1.9553  2.7075 -0.4572
  596MOL0     H82222  13.021  10.221   7.680  1.0659  1.1573 -0.4321
  596MOL0     H82223  13.025  10.103   7.809  3.4955 -1.5490  0.7574
  596MOL0     H82224  13.234   9.997   7.708  0.5206  1.1379  0.7595
  596MOL0     H82225  13.216  10.097   7.566 -0.9328 -1.0946 -1.8121
  596MOL0     H82226  13.066   9.861   7.616  0.0129 -0.1404 -1.2241
  596MOL0     H82227  13.097   9.949   7.472  1.5215  1.1784  1.4205
  596MOL0     H82228  13.037  10.735   8.196  0.5278  3.8586  0.9166
  596MOL0     H82229  12.915  10.757   8.399  0.0765  0.1111 -2.1642
  596MOL0     H82230  12.893  10.588   8.875  0.1056 -0.1827  1.4122
  596MOL0     H82231  12.734  10.582   9.066 -3.4827  0.1601 -0.7314
  596MOL0     H82232  11.483   9.971   9.217  1.2748  0.3167 -0.9916
  596MOL0     H82233  11.301   9.860   9.066 -0.5351  1.2511 -2.2192
  596MOL0     H82234  10.973  10.052   8.806 -0.8897  1.2757  0.2948
  596MOL0     H82235  10.836  10.015   8.603 -0.5698 -0.9292 -0.3508
  596MOL0     H82236  10.498   9.719   8.629 -0.1539  0.2199 -1.5375
  596MOL0     H82237  10.416   9.875   8.654 -1.8052 -1.8354 -0.4432
  596MOL0     H82238  10.336   9.780   8.436  0.3819  0.7372  0.9462
  596MOL0     H82239  10.490   9.738   8.383 -1.0659 -0.2748 -0.7006
  596MOL0     H82240  10.562   9.964   8.363  1.0260 -2.0238  0.5444
  596MOL0     H82241  10.451   9.927   8.241  2.9683  1.4193  0.4400
  596MOL0     H82242  10.389  10.098   8.491  2.7101 -2.2729 -0.8772
  596MOL0     H82243  10.255  10.040   8.387  0.2442 -1.3161 -1.8235
  596MOL0     H82244  10.410  10.322   8.117 -3.0773  1.0155 -0.2069
  596MOL0     H82245  10.567   9.778   8.836 -0.0121 -0.8683 -2.3819
  596MOL0     H82246  10.644   9.906   9.129 -2.3353  0.1618 -1.3112
  596MOL0     H82247  10.567   9.768   9.063 -0.4636  1.1871  2.1864
  596MOL0     H82248  10.733   9.743   9.135 -0.4329 -2.3853 -0.5777
  597MOL0     O82249   8.119   2.280   5.013 -0.3049 -0.7698 -0.8877
  597MOL0     C82250   8.039   2.245   5.101  0.1581 -0.6472  0.0863
  597MOL0     O82251   7.900   2.282   5.093  0.2362  0.3071 -0.4889
  597MOL0     C82252   7.843   2.353   4.993 -0.1100 -0.8177  0.7001
  597MOL0     C82253   7.847   2.299   4.863 -0.0995 -0.1322 -0.6523
  597MOL0     C82254   7.791   2.370   4.761  1.2766 -0.5483 -0.8823
  597MOL0     C82255   7.715   2.485   4.778  0.3797 -1.7215 -0.1519
  597MOL0     O82256   7.667   2.546   4.665 -0.4756  0.0191 -0.0418
  597MOL0     C82257   7.527   2.539   4.650  0.2162 -0.2980 -0.5082
  597MOL0     C82258   7.509   2.601   4.523  0.3310 -0.2579  1.1802
  597MOL0     C82259   7.366   2.602   4.472  0.7938  0.0296 -0.0218
  597MOL0     C82260   7.303   2.472   4.415 -0.4913 -0.6334  0.3543
  597MOL0     C82261   7.160   2.498   4.369 -0.3196 -0.3877  0.1590
  597MOL0     C82262   7.118   2.371   4.280  0.5959  0.3107  0.1623
  597MOL0     C82263   6.970   2.373   4.260  0.2341  0.6571  0.9338
  597MOL0     C82264   6.948   2.467   4.143 -1.0832 -0.6147 -0.1390
  597MOL0     N82265   6.804   2.460   4.104  0.9747 -0.4251  0.0633
  597MOL0     C82266   6.694   2.492   4.185 -0.3362  1.5222  0.0054
  597MOL0     C82267   6.600   2.489   4.099 -0.8694 -0.2767 -0.9239
  597MOL0     C82268   6.448   2.514   4.115  0.1961  0.2828 -0.3107
  597MOL0     C82269   6.392   2.432   4.226  0.7775 -0.6310 -0.2697
  597MOL0     C82270   6.237   2.444   4.215  0.1797 -0.0862 -0.0955
  597MOL0     C82271   6.165   2.362   4.332  0.5584 -0.4227  0.3643
  597MOL0     O82272   6.040   2.435   4.343 -0.2510 -0.2256  0.1640
  597MOL0     C82273   5.938   2.396   4.258 -0.2703 -0.5317  0.1651
  597MOL0     C82274   5.807   2.441   4.285 -0.5986  0.3187 -0.1970
  597MOL0     C82275   5.702   2.424   4.201  0.5083  0.0566  0.5546
  597MOL0     C82276   5.568   2.488   4.239  0.2159 -0.6900  0.0925
  597MOL0     C82277   5.715   2.339   4.092 -0.8628  0.1978  1.0981
  597MOL0     C82278   5.602   2.293   4.008  0.3214  0.1195 -0.7955
  597MOL0     O82279   5.484   2.244   4.072 -0.2419 -0.2442  0.0880
  597MOL0     C82280   5.395   2.158   4.006 -0.2231  0.0156  0.0912
  597MOL0     C82281   5.262   2.187   4.032  0.3010  0.2423  1.0610
  597MOL0     C82282   5.157   2.105   3.981  0.4872 -0.0301 -0.0132
  597MOL0     C82283   5.191   1.996   3.906  0.3015 -0.1282 -0.3780
  597MOL0     O82284   5.104   1.929   3.831 -0.4591 -0.1070 -0.1647
  597MOL0     C82285   4.970   1.917   3.882 -0.1886  0.0818  0.4457
  597MOL0     C82286   4.890   1.799   3.830 -0.1236  0.4738  0.2605
  597MOL0     C82287   4.947   1.667   3.882  0.3562 -0.6554 -0.8152
  597MOL0     C82288   4.926   1.543   3.797  0.4713  0.3883  0.7167
  597MOL0     C82289   4.990   1.421   3.878  0.5385 -0.1357 -0.7749
  597MOL0     C82290   5.052   1.322   3.790 -0.6631  0.0710 -0.4726
  597MOL0     C82291   5.106   1.195   3.863  0.3458  0.2184 -0.7578
  597MOL0     C82292   5.175   1.101   3.766  0.2284  0.3576  0.0005
  597MOL0    Cl82293   5.167   0.934   3.834  0.0247 -0.0668  0.1002
  597MOL0     C82294   5.324   1.983   3.857 -0.2582  0.7838 -1.1548
  597MOL0     C82295   5.430   2.053   3.923  0.7222  0.0911 -0.6659
  597MOL0     O82296   5.624   2.297   3.885  0.0739 -0.5547  0.0200
  597MOL0     C82297   5.844   2.289   4.061 -0.2971 -0.0154  0.9352
  597MOL0     C82298   5.951   2.319   4.145 -0.3092 -0.1275  0.4367
  597MOL0     N82299   6.644   2.470   3.973  0.0932 -0.2152  1.4121
  597MOL0     N82300   6.771   2.455   3.973 -0.0852 -0.0545  0.6112
  597MOL0     C82301   7.703   2.535   4.912 -0.2190  0.5068  0.3141
  597MOL0     C82302   7.771   2.472   5.017  0.9948 -0.3619 -0.0354
  597MOL0     C82303   8.071   2.174   5.231  0.1739 -0.0346  0.2839
  597MOL0     C82304   7.967   2.138   5.318  0.8941 -1.0955 -0.3357
  597MOL0     C82305   8.000   2.076   5.433 -0.6467  0.5806 -0.9827
  597MOL0     C82306   8.132   2.019   5.466  1.0813 -0.6289  0.2418
  597MOL0     O82307   8.164   1.954   5.577  0.0790 -0.0223 -0.2867
  597MOL0     C82308   8.072   1.964   5.686  0.3907 -0.5564  0.7196
  597MOL0     C82309   8.130   1.952   5.824  0.1635 -0.1384 -0.2707
  597MOL0     C82310   8.206   1.813   5.850 -0.5925  0.6678  0.5386
  597MOL0     C82311   8.114   1.708   5.907  0.4392  0.0841 -0.1640
  597MOL0     C82312   8.018   1.671   5.810 -0.0178 -0.0334  0.3211
  597MOL0     C82313   7.939   1.608   5.741 -0.9624  0.0816 -0.6248
  597MOL0     C82314   8.229   2.044   5.368 -0.3565 -0.6572  0.2557
  597MOL0     C82315   8.203   2.128   5.256 -0.3634  1.2087  0.3954
  597MOL0     C82316   8.321   2.152   5.155 -0.4670  0.4016 -0.1446
  597MOL0     H82317   7.897   2.206   4.842 -1.3634 -0.8883 -0.4464
  597MOL0     H82318   7.809   2.322   4.665 -1.3880 -2.8091 -0.3866
  597MOL0     H82319   7.472   2.591   4.729  0.5050  1.3444 -1.3580
  597MOL0     H82320   7.488   2.436   4.646 -1.3857  0.1687  1.5432
  597MOL0     H82321   7.552   2.701   4.535 -0.5862  0.4214 -0.8290
  597MOL0     H82322   7.570   2.542   4.454 -0.3078  0.9004 -0.4376
  597MOL0     H82323   7.289   2.616   4.549 -1.0704 -2.2403 -1.3307
  597MOL0     H82324   7.343   2.688   4.410  0.9823  0.0846 -0.0178
  597MOL0     H82325   7.358   2.446   4.324  0.5961  2.4963 -0.0135
  597MOL0     H82326   7.305   2.387   4.483  0.8017 -1.2522 -0.4135
  597MOL0     H82327   7.176   2.588   4.311  1.7552 -1.7866 -1.6081
  597MOL0     H82328   7.095   2.514   4.456  0.4536  0.1437  0.6519
  597MOL0     H82329   7.175   2.365   4.188  0.2475 -1.4191  0.0371
  597MOL0     H82330   7.137   2.281   4.339  0.7988  0.6696  0.6552
  597MOL0     H82331   6.920   2.405   4.351  0.1805  0.2386  1.0542
  597MOL0     H82332   6.936   2.273   4.232 -0.7660  1.3715 -0.5381
  597MOL0     H82333   6.970   2.569   4.177  1.0175 -1.3379  0.8220
  597MOL0     H82334   7.012   2.450   4.057 -0.0343  0.8258  0.3138
  597MOL0     H82335   6.688   2.511   4.292 -4.1625  1.7735 -0.1043
  597MOL0     H82336   6.395   2.507   4.020 -0.5416  1.6692 -0.0343
  597MOL0     H82337   6.440   2.614   4.158 -0.1755  0.1886 -0.1582
  597MOL0     H82338   6.415   2.326   4.217 -0.9630 -0.9558 -1.2664
  597MOL0     H82339   6.421   2.466   4.326 -3.6319 -4.3550  2.7290
  597MOL0     H82340   6.206   2.548   4.232  0.9163 -0.2189  2.3831
  597MOL0     H82341   6.203   2.412   4.116 -1.9179 -1.9253  1.1264
  597MOL0     H82342   6.164   2.255   4.309 -2.7292 -0.4511  0.1281
  597MOL0     H82343   6.215   2.381   4.427  2.0690 -0.6635 -0.3516
  597MOL0     H82344   5.807   2.510   4.369 -1.8495 -0.0139  0.0985
  597MOL0     H82345   5.576   2.558   4.322  0.6289  0.9957 -1.3179
  597MOL0     H82346   5.492   2.413   4.261 -0.3155  0.1944  1.3989
  597MOL0     H82347   5.539   2.551   4.155  0.2700  2.3888  2.1928
  597MOL0     H82348   5.226   2.262   4.102 -0.7197  1.2176 -0.4464
  597MOL0     H82349   5.056   2.138   4.002  0.9369  1.2792  0.1619
  597MOL0     H82350   4.974   1.909   3.991  1.0551 -0.3552  0.3853
  597MOL0     H82351   4.915   2.004   3.846 -3.5713 -2.2316 -0.4053
  597MOL0     H82352   4.781   1.808   3.840 -0.2785  2.5823 -2.1816
  597MOL0     H82353   4.892   1.803   3.721 -4.4562  0.2311  0.0026
  597MOL0     H82354   4.907   1.651   3.983  2.5208  0.1187  0.2483
  597MOL0     H82355   5.053   1.680   3.907  0.1515 -2.2324  1.1798
  597MOL0     H82356   4.973   1.546   3.698  2.7393  2.6372  1.7385
  597MOL0     H82357   4.819   1.539   3.776  0.6381  2.2812 -0.8680
  597MOL0     H82358   5.066   1.457   3.948 -0.6916  1.0975 -0.0150
  597MOL0     H82359   4.909   1.376   3.937  0.4971  1.6548  0.6186
  597MOL0     H82360   5.132   1.370   3.733  0.6271  3.5460  3.6885
  597MOL0     H82361   4.979   1.281   3.720 -0.4165 -0.5346 -0.3856
  597MOL0     H82362   5.029   1.134   3.912  0.7151  0.9232  0.7679
  597MOL0     H82363   5.179   1.220   3.940 -0.9865  1.9424  0.0062
  597MOL0     H82364   5.280   1.124   3.744  1.4888 -3.5901  0.9660
  597MOL0     H82365   5.113   1.101   3.676 -1.3586 -4.5439  0.7585
  597MOL0     H82366   5.352   1.918   3.775 -2.4364  2.0862 -3.0565
  597MOL0     H82367   5.535   2.027   3.913  1.2981  2.1217 -0.3066
  597MOL0     H82368   5.864   2.234   3.970  0.9560  3.5461 -1.1499
  597MOL0     H82369   6.050   2.282   4.120 -0.5960  0.2604 -1.4634
  597MOL0     H82370   7.646   2.626   4.925  1.6423  1.9851 -1.1122
  597MOL0     H82371   7.770   2.515   5.117 -2.1114  2.3971 -1.0652
  597MOL0     H82372   7.863   2.167   5.304  0.7200 -2.6047 -2.7235
  597MOL0     H82373   7.915   2.058   5.498  1.0159 -2.9954  0.4737
  597MOL0     H82374   8.031   2.065   5.689 -0.7129 -0.9972  1.2692
  597MOL0     H82375   7.985   1.899   5.668 -0.3411  0.1462  1.5943
  597MOL0     H82376   8.057   1.962   5.904 -1.8701  1.5782 -2.2053
  597MOL0     H82377   8.210   2.027   5.830  1.4116 -1.4157 -0.2257
  597MOL0     H82378   8.261   1.778   5.762  0.2829 -1.0032  1.6911
  597MOL0     H82379   8.284   1.826   5.925 -0.0698  1.5731 -0.1395
  597MOL0     H82380   8.069   1.744   6.001  2.1560  2.2855 -0.0899
  597MOL0     H82381   8.170   1.616   5.927  3.0474  1.4295 -0.8505
  597MOL0     H82382   7.858   1.554   5.697 -2.5842 -0.2492  2.4688
  597MOL0     H82383   8.321   1.993   5.395 -0.3046 -0.2256  0.9237
  597MOL0     H82384   8.315   2.098   5.060 -0.8004 -0.4728  0.3653
  597MOL0     H82385   8.330   2.259   5.135 -0.0693  0.5747  0.9052
  597MOL0     H82386   8.417   2.118   5.196 -0.9675 -0.6116  0.2148
  598MOL0     O82387   0.551   1.997   7.863  0.5495 -0.8475 -0.0539
  598MOL0     C82388   0.622   2.097   7.846  0.4195  0.1740 -0.0298
  598MOL0     O82389   0.748   2.094   7.792  0.5000  0.2497  0.1577
  598MOL0     C82390   0.803   1.981   7.756 -0.5469  0.1930  0.7973
  598MOL0     C82391   0.743   1.871   7.692  0.2296 -0.5004 -0.1471
  598MOL0     C82392   0.790   1.743   7.680  0.2401  0.5355  1.8051
  598MOL0     C82393   0.922   1.712   7.720 -0.0557 -0.0903  1.3083
  598MOL0     O82394   0.993   1.599   7.686 -0.2380  0.3142  0.9078
  598MOL0     C82395   0.921   1.486   7.641 -0.6929 -0.3040  0.6425
  598MOL0     C82396   0.999   1.366   7.669  0.3434 -0.2542 -1.0700
  598MOL0     C82397   0.971   1.243   7.591  0.9586  1.2238  0.3523
  598MOL0     C82398   1.028   1.118   7.657 -0.3812  0.6696 -0.3393
  598MOL0     C82399   1.004   0.990   7.574  0.0815 -1.3630 -0.5530
  598MOL0     C82400   0.859   0.963   7.545 -0.1469 -0.0587  0.1819
  598MOL0     C82401   0.773   0.975   7.664 -0.5609 -0.4977  0.1897
  598MOL0     C82402   0.644   0.883   7.674  0.4948 -0.1937  0.1802
  598MOL0     N82403   0.554   0.891   7.562 -0.4606 -0.3476 -0.4004
  598MOL0     C82404   0.499   1.005   7.510  0.1423  1.1000 -0.4029
  598MOL0     C82405   0.468   0.977   7.376  1.5485  0.3451  0.1516
  598MOL0     C82406   0.407   1.066   7.265 -0.5163  0.5670  0.4454
  598MOL0     C82407   0.526   1.115   7.178  0.0076  0.0945 -0.3364
  598MOL0     C82408   0.596   0.998   7.096 -0.9725  0.0936  0.3122
  598MOL0     C82409   0.670   1.046   6.975  0.3991 -0.9501 -0.5662
  598MOL0     O82410   0.729   1.174   6.986 -0.3691  0.4222 -0.4608
  598MOL0     C82411   0.849   1.189   7.060  0.1693  0.6296  0.8152
  598MOL0     C82412   0.929   1.080   7.105  0.3845  0.0200  1.1659
  598MOL0     C82413   1.056   1.114   7.160 -0.4448  1.3534 -0.5896
  598MOL0     C82414   1.147   0.991   7.168  0.6638 -0.0579 -0.5651
  598MOL0     C82415   1.093   1.245   7.186 -0.4680  0.3053 -1.4335
  598MOL0     C82416   1.212   1.277   7.257  0.2390 -0.8164  0.1609
  598MOL0     O82417   1.258   1.200   7.362  0.3095  0.1017  0.3221
  598MOL0     C82418   1.345   1.263   7.453 -0.9026 -0.9570 -0.3815
  598MOL0     C82419   1.304   1.385   7.510  0.0590 -0.5515 -0.5963
  598MOL0     C82420   1.399   1.466   7.573  0.0906 -0.1605 -0.7525
  598MOL0     C82421   1.535   1.422   7.597  0.6522  0.3038  0.7925
  598MOL0     O82422   1.611   1.496   7.689 -0.4471 -0.2392  0.7298
  598MOL0     C82423   1.739   1.428   7.720  0.4650  0.4044 -0.2148
  598MOL0     C82424   1.778   1.501   7.854 -0.1670 -0.4032 -0.6141
  598MOL0     C82425   1.687   1.450   7.969  0.5549 -0.7591  0.9559
  598MOL0     C82426   1.746   1.460   8.109 -0.4569 -0.2825  0.6966
  598MOL0     C82427   1.822   1.598   8.133  0.2380 -0.0613  0.1461
  598MOL0     C82428   1.726   1.722   8.141 -0.3710  0.3058 -0.1763
  598MOL0     C82429   1.622   1.698   8.253 -0.0309 -0.3019 -0.4217
  598MOL0     C82430   1.514   1.802   8.224 -0.1573 -0.3277 -0.3846
  598MOL0    Cl82431   1.559   1.955   8.287 -0.1276 -0.2190 -0.2534
  598MOL0     C82432   1.568   1.296   7.545  0.6601 -0.4131 -0.1985
  598MOL0     C82433   1.476   1.219   7.481  0.2620 -0.1138  0.4553
  598MOL0     O82434   1.274   1.373   7.204  0.3240  0.0110  0.4054
  598MOL0     C82435   1.008   1.349   7.141  0.3531  0.6922 -0.3901
  598MOL0     C82436   0.881   1.323   7.085  0.3435  0.3954  0.4526
  598MOL0     N82437   0.495   0.837   7.359  0.6394 -0.8120  0.0616
  598MOL0     N82438   0.561   0.798   7.460 -0.4563  0.2313 -0.3320
  598MOL0     C82439   0.999   1.821   7.772  1.3368  0.3682 -0.1670
  598MOL0     C82440   0.930   1.949   7.804 -0.6894  0.4753 -1.0272
  598MOL0     C82441   0.575   2.222   7.895  0.5017  0.3048  0.6197
  598MOL0     C82442   0.659   2.307   7.968  0.9675  0.5955  0.6227
  598MOL0     C82443   0.636   2.443   7.996 -0.3888 -0.0034  0.2626
  598MOL0     C82444   0.512   2.497   7.955 -0.8123  0.9998  0.5864
  598MOL0     O82445   0.468   2.624   7.980 -0.1899 -0.1951 -0.1256
  598MOL0     C82446   0.557   2.716   8.050 -0.1025 -0.7111  0.1763
  598MOL0     C82447   0.496   2.859   8.060 -0.4126  0.6080  0.4632
  598MOL0     C82448   0.470   2.910   7.914  0.1572 -0.1503 -0.2795
  598MOL0     C82449   0.366   3.015   7.911  0.0503  0.3936  0.5344
  598MOL0     C82450   0.369   3.078   7.779  0.3554  0.8612  0.5244
  598MOL0     C82451   0.385   3.153   7.685  0.0458  0.6187 -0.3506
  598MOL0     C82452   0.422   2.410   7.888 -0.4357  0.1441 -0.2182
  598MOL0     C82453   0.454   2.275   7.853  1.2730  0.4008  0.5427
  598MOL0     C82454   0.350   2.204   7.774  0.6132  0.5924 -0.0919
  598MOL0     H82455   0.649   1.908   7.653  0.1604  2.8391  2.6667
  598MOL0     H82456   0.740   1.674   7.612  0.2071  0.9388  1.4171
  598MOL0     H82457   0.905   1.497   7.533 -0.5875 -0.1062  0.6466
  598MOL0     H82458   0.822   1.467   7.684 -0.7866 -0.2811  0.4420
  598MOL0     H82459   1.105   1.395   7.668  1.0723 -1.9248  3.6265
  598MOL0     H82460   0.980   1.339   7.773 -0.1138  0.9835 -0.8173
  598MOL0     H82461   0.863   1.242   7.579  1.1165  2.8222 -1.7078
  598MOL0     H82462   1.011   1.269   7.493 -0.7945  1.2670 -0.3703
  598MOL0     H82463   1.137   1.128   7.664 -0.3975  1.3680 -0.9737
  598MOL0     H82464   0.996   1.109   7.762  0.7193 -1.1501 -0.1127
  598MOL0     H82465   1.037   0.904   7.633  3.4361 -1.9564 -3.0036
  598MOL0     H82466   1.061   0.995   7.481 -0.5349  1.3512 -0.8745
  598MOL0     H82467   0.833   1.040   7.471  2.7300  1.8813  1.0460
  598MOL0     H82468   0.848   0.869   7.490  1.1887  1.4155 -2.8588
  598MOL0     H82469   0.746   1.081   7.660  3.2845  0.6887 -5.1146
  598MOL0     H82470   0.829   0.961   7.757  0.6625  2.2595 -0.0337
  598MOL0     H82471   0.679   0.780   7.681  3.1243  0.6747  1.7054
  598MOL0     H82472   0.589   0.915   7.763  1.4740 -0.5016  0.9133
  598MOL0     H82473   0.491   1.101   7.562  0.6184  0.2675  1.2833
  598MOL0     H82474   0.356   1.147   7.319  0.9153  1.8343 -0.0087
  598MOL0     H82475   0.336   1.012   7.203 -0.4579  1.8920 -0.8198
  598MOL0     H82476   0.495   1.183   7.098  0.7474 -0.7342 -1.3578
  598MOL0     H82477   0.603   1.172   7.231  0.5644  3.0276 -3.8647
  598MOL0     H82478   0.661   0.946   7.168  1.4388  1.5731 -0.6584
  598MOL0     H82479   0.516   0.928   7.070 -0.8528 -0.8148  2.2095
  598MOL0     H82480   0.751   0.979   6.947  2.8538  0.8834  1.5792
  598MOL0     H82481   0.588   1.041   6.903 -3.3657  2.4370  2.9747
  598MOL0     H82482   0.903   0.977   7.082 -1.6365  0.9266 -1.1791
  598MOL0     H82483   1.247   1.015   7.132  0.3653  1.8265 -0.2266
  598MOL0     H82484   1.103   0.917   7.100  0.2851 -0.0735 -0.3036
  598MOL0     H82485   1.157   0.942   7.265 -1.9270  0.3032 -0.0399
  598MOL0     H82486   1.199   1.412   7.503  0.2576  0.7587  0.8541
  598MOL0     H82487   1.362   1.559   7.615 -1.6549  1.1746 -4.8161
  598MOL0     H82488   1.749   1.320   7.732 -1.2311  0.2932  0.4009
  598MOL0     H82489   1.802   1.464   7.638 -1.0313  0.9444 -1.1611
  598MOL0     H82490   1.881   1.468   7.869 -0.9504 -2.0493  1.8013
  598MOL0     H82491   1.784   1.610   7.848 -1.6618  0.3544  5.1535
  598MOL0     H82492   1.652   1.346   7.964 -3.2960  0.2835  2.6471
  598MOL0     H82493   1.594   1.508   7.964 -0.0126 -1.6779  0.5135
  598MOL0     H82494   1.833   1.396   8.124  2.6033  2.8022 -2.1825
  598MOL0     H82495   1.669   1.430   8.182 -1.7845 -0.1256 -0.5838
  598MOL0     H82496   1.861   1.588   8.234 -2.7364  3.0592  1.7850
  598MOL0     H82497   1.907   1.603   8.064 -0.2730 -0.1744 -0.5109
  598MOL0     H82498   1.686   1.755   8.044 -0.7032  0.3320 -0.0326
  598MOL0     H82499   1.791   1.803   8.175  3.1237 -2.3319  0.0488
  598MOL0     H82500   1.661   1.715   8.354  0.3953 -2.1089 -0.2547
  598MOL0     H82501   1.575   1.600   8.240 -0.2243 -0.2091 -0.4336
  598MOL0     H82502   1.427   1.761   8.276 -0.0814  2.6027  2.3363
  598MOL0     H82503   1.481   1.813   8.120 -2.0373  0.4334  0.2566
  598MOL0     H82504   1.672   1.264   7.555 -0.2164 -2.8335  2.6515
  598MOL0     H82505   1.510   1.126   7.437 -1.4750  0.2942 -2.0161
  598MOL0     H82506   1.039   1.449   7.169  0.3935 -0.0523  2.5984
  598MOL0     H82507   0.817   1.402   7.045  2.4615  0.8234 -2.4856
  598MOL0     H82508   1.105   1.813   7.794  1.5814  0.4529 -1.2922
  598MOL0     H82509   0.986   2.025   7.857  1.2467 -2.5796  1.7074
  598MOL0     H82510   0.755   2.261   7.992 -0.0090 -1.4913  0.7746
  598MOL0     H82511   0.724   2.488   8.042 -1.3463  2.2114  0.0450
  598MOL0     H82512   0.568   2.682   8.153 -0.2104 -2.9151 -0.4630
  598MOL0     H82513   0.653   2.727   7.999  0.0469  4.6405  1.1062
  598MOL0     H82514   0.563   2.925   8.116  0.2202  0.9843 -0.7006
  598MOL0     H82515   0.402   2.835   8.110  0.0302 -3.6362 -0.3255
  598MOL0     H82516   0.559   2.952   7.866 -0.4434 -0.1618 -1.4429
  598MOL0     H82517   0.437   2.824   7.855 -2.0746 -0.4640  1.2980
  598MOL0     H82518   0.397   3.093   7.980 -0.2927 -0.5638  1.7996
  598MOL0     H82519   0.268   2.967   7.925  0.2415  0.3602  1.8607
  598MOL0     H82520   0.402   3.226   7.609  1.2222 -1.3228 -2.0405
  598MOL0     H82521   0.327   2.448   7.852 -0.1325 -0.8192 -2.1346
  598MOL0     H82522   0.310   2.119   7.830  2.0591  0.2422  0.4551
  598MOL0     H82523   0.260   2.265   7.759 -0.4142 -0.4030  1.6163
  598MOL0     H82524   0.399   2.167   7.684  1.9235  1.0805  0.3908
  599MOL0     O82525   7.669   3.362   7.545  0.3790 -0.2940 -0.7099
  599MOL0     C82526   7.647   3.239   7.568  0.1887  0.2423  0.4029
  599MOL0     O82527   7.531   3.197   7.625 -0.1872  0.0971 -0.7511
  599MOL0     C82528   7.449   3.290   7.684  1.0890 -0.1205  0.3034
  599MOL0     C82529   7.432   3.295   7.828  0.0996  0.6955 -0.2332
  599MOL0     C82530   7.332   3.370   7.883 -0.1448 -0.2314 -0.2138
  599MOL0     C82531   7.256   3.448   7.803  0.0082  0.1160  0.3656
  599MOL0     O82532   7.164   3.527   7.861  0.0677 -0.4010 -0.0435
  599MOL0     C82533   7.038   3.464   7.867  0.3057  0.4643  0.8921
  599MOL0     C82534   6.930   3.564   7.889  0.4994 -0.3226  0.0560
  599MOL0     C82535   6.913   3.663   7.776  0.4483  0.6090  0.2871
  599MOL0     C82536   6.829   3.780   7.829  0.0107 -0.5469 -0.6502
  599MOL0     C82537   6.839   3.917   7.747  0.2384 -0.4483 -0.1973
  599MOL0     C82538   6.738   4.018   7.804  1.0416  0.3109  0.1326
  599MOL0     C82539   6.769   4.100   7.928  0.3223  0.3107 -0.2144
  599MOL0     C82540   6.660   4.205   7.944  0.7309  0.0634  0.1929
  599MOL0     N82541   6.695   4.286   8.070 -0.0511 -0.3629 -0.3402
  599MOL0     C82542   6.683   4.420   8.082 -0.8362  0.3517  0.3664
  599MOL0     C82543   6.690   4.444   8.217 -0.8158  0.1070  0.5798
  599MOL0     C82544   6.657   4.570   8.279 -1.2307 -0.9124  0.1830
  599MOL0     C82545   6.511   4.624   8.259 -0.6384 -0.1061 -1.3596
  599MOL0     C82546   6.403   4.529   8.298 -0.1381  0.5221 -1.0173
  599MOL0     C82547   6.258   4.580   8.298  0.0030  0.7709 -0.3167
  599MOL0     O82548   6.224   4.630   8.168 -0.1360 -0.4967 -0.2126
  599MOL0     C82549   6.246   4.761   8.141  0.5172 -0.6391  0.5564
  599MOL0     C82550   6.284   4.857   8.233  0.6014 -0.4369  1.1881
  599MOL0     C82551   6.296   4.996   8.194  0.5745 -0.0030 -0.1124
  599MOL0     C82552   6.330   5.097   8.301 -0.3214 -0.4365 -1.3040
  599MOL0     C82553   6.270   5.030   8.061 -0.4761  0.4713  0.3081
  599MOL0     C82554   6.253   5.167   8.002  0.7685  0.1706 -0.3532
  599MOL0     O82555   6.131   5.196   7.943  0.1118  0.4192 -0.8169
  599MOL0     C82556   6.103   5.327   7.919 -0.3073  0.8052  0.4107
  599MOL0     C82557   6.139   5.388   7.798 -0.0071  0.6423  0.3634
  599MOL0     C82558   6.106   5.525   7.778  0.3574  0.4538  0.3176
  599MOL0     C82559   6.044   5.598   7.880  0.2953  0.1509 -1.0903
  599MOL0     O82560   6.003   5.727   7.862 -0.1614  0.3092  0.1887
  599MOL0     C82561   5.859   5.742   7.825 -0.0183  0.1203  0.4051
  599MOL0     C82562   5.829   5.889   7.806 -0.4299 -1.0035 -0.3623
  599MOL0     C82563   5.835   5.976   7.935 -0.5360  0.4181  0.4916
  599MOL0     C82564   5.728   5.949   8.033 -0.0099  0.6616 -1.1144
  599MOL0     C82565   5.725   6.045   8.155 -0.1762  0.2856  0.1373
  599MOL0     C82566   5.601   6.022   8.252  0.4691 -0.2463 -0.6204
  599MOL0     C82567   5.583   5.875   8.310  0.2162  0.6917  0.0375
  599MOL0     C82568   5.428   5.870   8.341 -0.0802  0.0497  0.4271
  599MOL0    Cl82569   5.391   5.720   8.426 -0.3346  0.0423  0.0223
  599MOL0     C82570   6.007   5.538   8.000 -0.4571 -0.1410 -0.5232
  599MOL0     C82571   6.040   5.402   8.017 -1.2087 -1.3869  0.0449
  599MOL0     O82572   6.334   5.252   8.047 -0.1291  0.4014  0.0852
  599MOL0     C82573   6.226   4.929   7.970 -0.5851  0.3623 -0.2183
  599MOL0     C82574   6.213   4.792   8.011 -0.6959  0.8045 -0.2071
  599MOL0     N82575   6.721   4.326   8.284 -0.4598  0.4262  0.0694
  599MOL0     N82576   6.720   4.232   8.193  0.4781  0.0926 -1.6377
  599MOL0     C82577   7.266   3.449   7.657  1.5039 -0.3254 -0.2920
  599MOL0     C82578   7.362   3.370   7.602 -0.3081  0.2998  0.2473
  599MOL0     C82579   7.716   3.140   7.482  0.9359 -0.0042  0.9412
  599MOL0     C82580   7.778   3.178   7.364 -0.1466  0.4979 -0.1578
  599MOL0     C82581   7.838   3.086   7.285  0.4348 -0.0200 -0.3334
  599MOL0     C82582   7.822   2.950   7.309  0.2018  0.1287 -0.5097
  599MOL0     O82583   7.835   2.846   7.220  0.0101 -0.1172 -0.1969
  599MOL0     C82584   7.955   2.855   7.135  0.7517  0.4792  0.0247
  599MOL0     C82585   7.925   2.862   6.982 -0.0388 -1.0480 -0.2791
  599MOL0     C82586   8.059   2.898   6.906  0.4044  0.0881 -0.2518
  599MOL0     C82587   8.052   2.892   6.761  0.1675 -0.2770 -0.0525
  599MOL0     C82588   7.947   2.980   6.710 -0.2137  0.8822  0.7720
  599MOL0     C82589   7.848   3.042   6.686 -0.0279  0.2672  0.3033
  599MOL0     C82590   7.768   2.906   7.422  1.1822 -0.8019  0.6565
  599MOL0     C82591   7.714   2.998   7.513 -0.5286 -0.3149 -0.1275
  599MOL0     C82592   7.693   2.939   7.649  0.4756  0.0828  0.0337
  599MOL0     H82593   7.493   3.236   7.896 -1.2084 -1.0122 -0.4707
  599MOL0     H82594   7.327   3.371   7.991  0.1243 -1.0044 -0.1851
  599MOL0     H82595   7.035   3.392   7.949 -0.2134 -0.8308 -0.2181
  599MOL0     H82596   7.019   3.397   7.782  1.9008 -2.9506  2.9976
  599MOL0     H82597   6.831   3.518   7.896 -0.2429  0.6073 -2.8597
  599MOL0     H82598   6.960   3.620   7.978 -0.5207 -0.3901  0.4517
  599MOL0     H82599   7.009   3.708   7.750  0.2527 -0.8608 -3.6509
  599MOL0     H82600   6.872   3.611   7.689 -2.1424  0.4499  1.5005
  599MOL0     H82601   6.725   3.748   7.832 -0.6441  1.4372  2.4557
  599MOL0     H82602   6.838   3.801   7.936 -3.1405 -1.4383 -0.1198
  599MOL0     H82603   6.814   3.881   7.647  0.5213 -3.6572  0.7627
  599MOL0     H82604   6.938   3.963   7.756  0.1293 -0.1266 -0.6367
  599MOL0     H82605   6.720   4.091   7.724 -0.1859  0.9312  0.9508
  599MOL0     H82606   6.645   3.967   7.828  2.7691 -2.2017  1.9409
  599MOL0     H82607   6.869   4.146   7.924  1.3292 -1.7840 -0.2976
  599MOL0     H82608   6.760   4.030   8.011 -0.6812  0.1930 -0.4160
  599MOL0     H82609   6.667   4.268   7.855  3.9701 -0.7156 -0.2140
  599MOL0     H82610   6.566   4.151   7.962 -0.2266  0.6236 -2.6121
  599MOL0     H82611   6.671   4.492   8.002  2.2364 -1.5489 -2.0447
  599MOL0     H82612   6.730   4.642   8.241 -2.7396 -0.8019 -2.8860
  599MOL0     H82613   6.682   4.561   8.385  2.0115  2.7277 -0.0541
  599MOL0     H82614   6.504   4.714   8.320 -2.6609 -2.9508  3.1434
  599MOL0     H82615   6.493   4.643   8.153 -1.4375 -1.2342 -1.4371
  599MOL0     H82616   6.420   4.439   8.238  3.7807 -0.0106  0.5869
  599MOL0     H82617   6.427   4.495   8.399  2.4521  0.4395 -1.5962
  599MOL0     H82618   6.193   4.494   8.317  0.6048  0.8029  2.1860
  599MOL0     H82619   6.241   4.647   8.383  0.5962  0.3305  0.1557
  599MOL0     H82620   6.312   4.839   8.336  2.4131  0.7073  0.9328
  599MOL0     H82621   6.279   5.192   8.281  3.6770  2.1602 -0.2190
  599MOL0     H82622   6.438   5.112   8.292 -0.1517 -0.7963  0.0215
  599MOL0     H82623   6.314   5.071   8.406  4.6747 -0.8036 -0.3873
  599MOL0     H82624   6.167   5.337   7.707 -1.6039 -0.9855  0.7279
  599MOL0     H82625   6.101   5.559   7.675  3.1498 -3.3706 -1.3128
  599MOL0     H82626   5.852   5.690   7.729  1.5743 -1.4452  1.0719
  599MOL0     H82627   5.791   5.703   7.902 -1.0730 -2.5483 -1.6993
  599MOL0     H82628   5.885   5.944   7.730 -0.0049 -0.6533  0.1958
  599MOL0     H82629   5.731   5.896   7.759  0.5982  1.2074 -2.3542
  599MOL0     H82630   5.830   6.081   7.908 -0.3915  0.5179  0.8500
  599MOL0     H82631   5.934   5.961   7.980  0.6275 -3.2893 -2.6765
  599MOL0     H82632   5.752   5.849   8.070  0.1400  1.1224  0.0828
  599MOL0     H82633   5.627   5.962   7.992 -1.1655  1.3552  1.7262
  599MOL0     H82634   5.814   6.032   8.218  0.3489  0.8992 -0.4624
  599MOL0     H82635   5.722   6.148   8.118 -1.3475 -0.0338 -0.7342
  599MOL0     H82636   5.520   6.049   8.183 -1.8764  2.0288  2.7454
  599MOL0     H82637   5.603   6.089   8.338  0.5726  0.5049 -1.1990
  599MOL0     H82638   5.637   5.871   8.404  1.9585 -2.2140 -0.9739
  599MOL0     H82639   5.606   5.794   8.240 -0.8754 -0.5005  1.0033
  599MOL0     H82640   5.382   5.880   8.243  0.6510  1.9985  0.2501
  599MOL0     H82641   5.389   5.951   8.402 -3.2247 -0.1013 -1.2160
  599MOL0     H82642   5.944   5.582   8.077 -2.5266 -1.7715 -1.1677
  599MOL0     H82643   6.001   5.343   8.099  2.5582 -2.7251  1.0772
  599MOL0     H82644   6.189   4.956   7.871  1.5074  2.8006 -0.4355
  599MOL0     H82645   6.178   4.711   7.948 -1.3038  0.4694  0.5469
  599MOL0     H82646   7.190   3.508   7.606  1.1497 -0.5647 -0.0530
  599MOL0     H82647   7.374   3.368   7.494  0.9762  1.4767  0.3344
  599MOL0     H82648   7.767   3.282   7.335  0.9591  1.4509  2.4931
  599MOL0     H82649   7.871   3.118   7.187 -0.4472 -0.0683 -0.6488
  599MOL0     H82650   8.000   2.950   7.165 -1.0116  0.8142  1.8792
  599MOL0     H82651   8.014   2.764   7.147 -0.2553 -0.1703  0.1523
  599MOL0     H82652   7.862   2.947   6.954  1.3230  0.1783  0.2474
  599MOL0     H82653   7.877   2.769   6.953  2.2470 -2.7042  0.9367
  599MOL0     H82654   8.098   2.997   6.930  1.0067  0.0085 -0.8671
  599MOL0     H82655   8.139   2.830   6.937 -1.5596 -2.7902 -1.0409
  599MOL0     H82656   8.041   2.786   6.736  0.9212 -0.8581  1.8539
  599MOL0     H82657   8.146   2.923   6.715 -0.5045  3.8640  0.9811
  599MOL0     H82658   7.762   3.098   6.655 -0.7825 -0.1520  1.5639
  599MOL0     H82659   7.754   2.802   7.449 -2.9600 -0.2704  1.1641
  599MOL0     H82660   7.788   2.893   7.680 -0.6572 -1.4010  1.4733
  599MOL0     H82661   7.676   3.016   7.724 -0.3824 -0.5152  0.4763
  599MOL0     H82662   7.616   2.861   7.657  1.7545 -1.1051  1.6963
  600MOL0     O82663   5.141   2.951   7.158  0.0840  0.0889 -0.0219
  600MOL0     C82664   5.169   2.835   7.188 -0.0444 -0.9707 -0.0394
  600MOL0     O82665   5.068   2.737   7.198  0.7496  0.5547 -0.4083
  600MOL0     C82666   4.938   2.768   7.161  0.5470  1.3890  0.2814
  600MOL0     C82667   4.840   2.754   7.259 -0.8297 -0.2574  0.2571
  600MOL0     C82668   4.703   2.767   7.224 -0.3616  1.1120 -0.0394
  600MOL0     C82669   4.667   2.787   7.089 -0.2974 -1.0263  0.1434
  600MOL0     O82670   4.532   2.777   7.062  0.2677 -0.3484  0.4086
  600MOL0     C82671   4.476   2.828   6.941  0.3367 -0.6160  0.5016
  600MOL0     C82672   4.328   2.776   6.933 -0.2240 -0.1972 -0.3402
  600MOL0     C82673   4.330   2.638   6.853  0.1983 -0.1943  0.1434
  600MOL0     C82674   4.193   2.582   6.816  0.0097 -0.8076 -0.7855
  600MOL0     C82675   4.214   2.470   6.717  0.5783  0.7974 -0.1524
  600MOL0     C82676   4.303   2.358   6.773  0.2518 -0.0194  0.0421
  600MOL0     C82677   4.333   2.241   6.685  0.0189  0.2699  0.6615
  600MOL0     C82678   4.367   2.275   6.542 -0.3744  0.0906  0.1609
  600MOL0     N82679   4.475   2.366   6.515 -0.9094 -0.3992 -0.0502
  600MOL0     C82680   4.606   2.379   6.560  0.0382  0.2325 -0.0733
  600MOL0     C82681   4.664   2.487   6.506  0.8375 -1.3668  0.4978
  600MOL0     C82682   4.814   2.523   6.500 -0.6115 -0.3190 -0.3109
  600MOL0     C82683   4.895   2.548   6.636 -0.9487  0.0005  0.0899
  600MOL0     C82684   5.038   2.600   6.623  0.8945 -0.6902  0.2146
  600MOL0     C82685   5.142   2.499   6.576 -0.0946  0.3715  0.5206
  600MOL0     O82686   5.268   2.556   6.529  0.4995 -0.1412  0.8104
  600MOL0     C82687   5.277   2.628   6.403  0.3172 -0.2581  0.3792
  600MOL0     C82688   5.163   2.648   6.325  0.0234  0.4449  0.2178
  600MOL0     C82689   5.170   2.722   6.207  0.5781  0.5907  0.5655
  600MOL0     C82690   5.038   2.756   6.149 -0.6286 -0.6247 -0.5498
  600MOL0     C82691   5.291   2.780   6.154  0.9468  0.3379 -0.2196
  600MOL0     C82692   5.302   2.867   6.035 -0.2435 -0.6989  0.3208
  600MOL0     O82693   5.186   2.901   5.971 -0.2992 -0.7037 -0.1777
  600MOL0     C82694   5.185   2.980   5.849 -0.8081  0.6664 -0.7433
  600MOL0     C82695   5.284   2.949   5.752  0.5331  0.3591  0.1196
  600MOL0     C82696   5.297   3.024   5.636 -0.4328 -0.2250 -0.0289
  600MOL0     C82697   5.205   3.135   5.619 -0.1414  0.1438 -0.4579
  600MOL0     O82698   5.204   3.217   5.505 -0.0471 -0.1213 -0.6488
  600MOL0     C82699   5.219   3.142   5.389 -0.7965 -0.5232 -1.1317
  600MOL0     C82700   5.210   3.242   5.277 -0.1004  0.3808  0.0292
  600MOL0     C82701   5.245   3.177   5.146  0.7510 -1.4622  0.0939
  600MOL0     C82702   5.349   3.250   5.058 -0.0535  0.5787  0.5782
  600MOL0     C82703   5.406   3.160   4.941  0.0786 -0.3796 -0.4474
  600MOL0     C82704   5.493   3.249   4.855 -0.4613 -0.2661 -0.8030
  600MOL0     C82705   5.617   3.318   4.930 -0.3135 -0.8099  0.1697
  600MOL0     C82706   5.739   3.346   4.844 -0.6584  0.1758 -0.5064
  600MOL0    Cl82707   5.704   3.450   4.703  0.0541 -0.2751  0.0503
  600MOL0     C82708   5.107   3.159   5.719 -0.0023 -0.5552 -0.6273
  600MOL0     C82709   5.096   3.086   5.830 -0.4029 -0.2104 -0.8022
  600MOL0     O82710   5.413   2.913   6.008 -0.2218 -0.8719 -0.2421
  600MOL0     C82711   5.403   2.749   6.237 -0.3192  0.9820 -0.2537
  600MOL0     C82712   5.398   2.679   6.366  0.9404 -0.1752 -0.6525
  600MOL0     N82713   4.565   2.545   6.415 -0.0893  0.4243 -0.1174
  600MOL0     N82714   4.456   2.471   6.428 -0.4180  0.2532  0.3140
  600MOL0     C82715   4.768   2.803   6.996 -0.1514 -0.1735  0.0132
  600MOL0     C82716   4.904   2.798   7.032  1.4631 -0.1491 -0.1087
  600MOL0     C82717   5.307   2.806   7.230 -1.0991 -0.7157 -0.5232
  600MOL0     C82718   5.321   2.738   7.357 -0.1513  0.0690 -0.0983
  600MOL0     C82719   5.447   2.716   7.416  0.8905  0.1513  0.3942
  600MOL0     C82720   5.559   2.762   7.351 -0.7359  0.1514  0.0786
  600MOL0     O82721   5.677   2.757   7.410 -0.0785  0.4291 -0.1783
  600MOL0     C82722   5.725   2.619   7.441 -0.6053  0.3186  0.3437
  600MOL0     C82723   5.768   2.536   7.306  0.2346 -0.2134  0.6008
  600MOL0     C82724   5.886   2.593   7.229  0.1109  0.2215 -0.3262
  600MOL0     C82725   5.913   2.513   7.093  0.3194  0.9731 -0.2426
  600MOL0     C82726   5.931   2.370   7.103 -0.0318 -0.5948 -0.3717
  600MOL0     C82727   5.953   2.254   7.111  0.4237 -0.7495  0.2182
  600MOL0     C82728   5.549   2.840   7.235 -0.7531 -0.0740  0.6188
  600MOL0     C82729   5.422   2.872   7.175 -0.2886 -0.0630 -0.9128
  600MOL0     C82730   5.441   2.960   7.050  0.1426  0.2083  0.7536
  600MOL0     H82731   4.874   2.735   7.360  2.4182 -0.7290 -0.8104
  600MOL0     H82732   4.623   2.752   7.295 -1.9959  1.1400 -1.7813
  600MOL0     H82733   4.531   2.805   6.850 -1.4116  2.7128 -1.6103
  600MOL0     H82734   4.478   2.938   6.947 -1.1728 -0.5761  0.8930
  600MOL0     H82735   4.285   2.769   7.034  3.7094 -0.2921  1.5277
  600MOL0     H82736   4.274   2.846   6.869  0.4141  2.0865  1.4790
  600MOL0     H82737   4.382   2.657   6.759  0.0941 -0.7221 -0.0215
  600MOL0     H82738   4.386   2.571   6.919  0.3658 -0.0754  0.1237
  600MOL0     H82739   4.130   2.554   6.901  0.9113 -0.1888  0.1111
  600MOL0     H82740   4.130   2.651   6.759  0.4015 -0.8858 -1.3220
  600MOL0     H82741   4.256   2.507   6.623  0.8641 -0.7955 -0.6825
  600MOL0     H82742   4.120   2.421   6.692  0.1211  0.7005  1.6255
  600MOL0     H82743   4.399   2.401   6.804  0.7028 -1.3222  0.5212
  600MOL0     H82744   4.264   2.316   6.866  2.6446  1.1386  1.6779
  600MOL0     H82745   4.241   2.184   6.671 -0.7486  1.7162 -0.4502
  600MOL0     H82746   4.419   2.187   6.726 -0.7489  0.0775  2.0455
  600MOL0     H82747   4.401   2.185   6.491 -0.6524  0.6616 -1.0724
  600MOL0     H82748   4.282   2.320   6.489 -0.3080 -0.2041 -0.1974
  600MOL0     H82749   4.661   2.319   6.632 -1.4493 -0.0204  0.8839
  600MOL0     H82750   4.832   2.615   6.444  0.0196 -1.0777 -1.3846
  600MOL0     H82751   4.873   2.451   6.443 -2.4127  0.4869 -3.4104
  600MOL0     H82752   4.835   2.620   6.693 -0.0984  1.6357 -0.9983
  600MOL0     H82753   4.901   2.452   6.688 -1.4748  1.1697  2.4136
  600MOL0     H82754   5.045   2.689   6.561 -1.6801  0.4350  1.3975
  600MOL0     H82755   5.064   2.635   6.723  0.2844  1.0756 -0.2139
  600MOL0     H82756   5.160   2.425   6.655  3.9288  1.1206  0.4966
  600MOL0     H82757   5.102   2.442   6.491 -2.8942  1.8441  0.7268
  600MOL0     H82758   5.066   2.613   6.357  0.3660  1.4098  2.4733
  600MOL0     H82759   5.025   2.864   6.146  3.3050  0.1543  2.0997
  600MOL0     H82760   4.963   2.718   6.219 -0.1031  0.0132  0.3848
  600MOL0     H82761   5.034   2.724   6.045  4.1666  0.6475 -1.3650
  600MOL0     H82762   5.337   2.856   5.770  2.3363  1.6375  1.7678
  600MOL0     H82763   5.382   3.002   5.572  0.8588  1.5905  0.9689
  600MOL0     H82764   5.319   3.101   5.372  0.7508  1.5622  2.0217
  600MOL0     H82765   5.141   3.067   5.375 -2.5471  0.6642  1.4036
  600MOL0     H82766   5.105   3.271   5.270  0.0869  1.1689  0.3073
  600MOL0     H82767   5.271   3.332   5.290  1.8338  0.0007 -4.5118
  600MOL0     H82768   5.148   3.178   5.096  1.9733  2.6646 -2.7509
  600MOL0     H82769   5.287   3.077   5.158  0.2994 -1.5221  1.2532
  600MOL0     H82770   5.422   3.280   5.133 -0.3944  0.2631  1.0469
  600MOL0     H82771   5.302   3.339   5.016  0.1443  2.1485  3.4307
  600MOL0     H82772   5.473   3.082   4.980 -2.3381 -2.5550 -0.4190
  600MOL0     H82773   5.327   3.123   4.876  2.3516 -2.2637 -2.3412
  600MOL0     H82774   5.440   3.331   4.806 -1.7919 -0.9625 -0.5939
  600MOL0     H82775   5.538   3.179   4.784 -0.0864 -1.6307  0.7122
  600MOL0     H82776   5.658   3.255   5.009  1.9129  1.0514  0.6039
  600MOL0     H82777   5.586   3.414   4.972  0.7973  0.0062 -0.8097
  600MOL0     H82778   5.772   3.250   4.804 -0.8613 -0.4943  0.8781
  600MOL0     H82779   5.819   3.394   4.901 -0.9572  1.3500 -1.0474
  600MOL0     H82780   5.031   3.235   5.701  0.3425  0.8463  3.0476
  600MOL0     H82781   5.015   3.113   5.898 -1.0007 -0.8759 -1.2322
  600MOL0     H82782   5.495   2.796   6.204 -0.7931  0.3053 -2.6898
  600MOL0     H82783   5.492   2.662   6.417  0.8753  0.8036 -0.1844
  600MOL0     H82784   4.734   2.804   6.893 -0.6748 -0.6073  0.1761
  600MOL0     H82785   4.980   2.798   6.954  2.0664 -2.5376  0.4182
  600MOL0     H82786   5.225   2.709   7.399 -1.2584  0.1746 -2.3677
  600MOL0     H82787   5.448   2.665   7.512 -0.3459 -0.9119 -0.1212
  600MOL0     H82788   5.813   2.628   7.505 -0.5475 -0.5801  0.4026
  600MOL0     H82789   5.651   2.560   7.496  0.7047 -1.7227  0.0194
  600MOL0     H82790   5.679   2.535   7.242  0.1974 -0.6552  0.6547
  600MOL0     H82791   5.791   2.432   7.330 -0.7889 -0.9906 -1.4920
  600MOL0     H82792   5.872   2.698   7.203 -1.1833 -0.2010 -1.4514
  600MOL0     H82793   5.979   2.595   7.286  1.1023  1.2646 -1.9034
  600MOL0     H82794   5.999   2.560   7.044  1.2092 -0.7657 -0.4081
  600MOL0     H82795   5.830   2.518   7.021  0.3152  2.4369 -0.1627
  600MOL0     H82796   5.968   2.151   7.133  2.5008 -1.0843 -2.2138
  600MOL0     H82797   5.636   2.886   7.191 -1.6428  0.3239 -0.7875
  600MOL0     H82798   5.538   3.011   7.057 -0.1376  0.7986  0.3672
  600MOL0     H82799   5.431   2.899   6.960 -0.5407 -1.6641  2.0379
  600MOL0     H82800   5.358   3.031   7.039  1.1682  1.0365 -2.9166
  601MOL0     O82801   8.759   5.091   7.465 -0.1746  0.5992 -0.0993
  601MOL0     C82802   8.796   5.205   7.497 -0.0597  0.1464  0.1701
  601MOL0     O82803   8.732   5.284   7.594 -0.5028 -0.1769 -0.8598
  601MOL0     C82804   8.643   5.222   7.673  0.0322  0.5473 -0.0689
  601MOL0     C82805   8.677   5.138   7.775 -0.3072  0.5083 -0.5719
  601MOL0     C82806   8.585   5.062   7.849  0.2070  0.0279  1.2591
  601MOL0     C82807   8.450   5.077   7.825 -1.3179 -0.1765 -0.3995
  601MOL0     O82808   8.352   5.008   7.884 -0.2388  0.3616  0.3624
  601MOL0     C82809   8.374   4.927   7.991 -0.8633 -0.6419 -0.1853
  601MOL0     C82810   8.252   4.938   8.079  0.1083 -0.2051 -0.6601
  601MOL0     C82811   8.241   4.844   8.200  0.0863  0.2755 -0.4931
  601MOL0     C82812   8.344   4.873   8.310  0.0176 -0.3579 -0.3652
  601MOL0     C82813   8.320   4.785   8.425 -0.3501 -0.7490 -0.1998
  601MOL0     C82814   8.431   4.766   8.524 -0.1348 -0.1648 -0.6912
  601MOL0     C82815   8.385   4.652   8.613 -0.8390 -0.2814  0.3865
  601MOL0     C82816   8.476   4.620   8.730 -0.1073  0.3864 -0.1672
  601MOL0     N82817   8.604   4.549   8.700  0.9444  0.1334  0.0747
  601MOL0     C82818   8.622   4.417   8.653  0.0013 -0.0459 -0.0665
  601MOL0     C82819   8.757   4.401   8.634 -0.5386  1.0343  0.1545
  601MOL0     C82820   8.813   4.260   8.593  0.2270 -0.2580 -0.7333
  601MOL0     C82821   8.831   4.259   8.449 -1.1255  0.3449  0.2975
  601MOL0     C82822   8.947   4.351   8.399  0.9086 -0.2677 -0.4631
  601MOL0     C82823   8.955   4.353   8.245 -0.1659 -0.1678  0.0076
  601MOL0     O82824   9.072   4.435   8.203  1.0664  0.5062  0.5759
  601MOL0     C82825   9.087   4.465   8.063  0.1481 -0.0913  0.1858
  601MOL0     C82826   9.206   4.522   8.012  0.1248  0.8590 -0.2414
  601MOL0     C82827   9.226   4.570   7.885 -0.3501 -0.3249  0.0572
  601MOL0     C82828   9.363   4.636   7.859  0.1112  0.0273 -1.1213
  601MOL0     C82829   9.114   4.579   7.796  0.1188  0.0530 -0.2647
  601MOL0     C82830   9.125   4.644   7.659  0.1643 -0.0304  0.7938
  601MOL0     O82831   9.247   4.703   7.622  0.7013  0.2433 -0.7242
  601MOL0     C82832   9.266   4.775   7.513 -0.6684 -0.3836  0.0730
  601MOL0     C82833   9.208   4.763   7.382  0.2876  0.2173  0.0776
  601MOL0     C82834   9.247   4.859   7.279 -0.0243  0.1423  0.1291
  601MOL0     C82835   9.360   4.938   7.293  0.3297  0.2760  0.1954
  601MOL0     O82836   9.397   5.020   7.180 -1.1248  0.3031  1.0721
  601MOL0     C82837   9.380   4.963   7.045  0.1995 -0.2847 -0.9252
  601MOL0     C82838   9.462   5.030   6.931  0.3041 -0.8326 -0.1307
  601MOL0     C82839   9.588   5.110   6.970  0.2538 -0.0073  0.0815
  601MOL0     C82840   9.627   5.202   6.853  0.4444  0.5345  0.2779
  601MOL0     C82841   9.570   5.342   6.871  0.1177 -0.2510 -1.3200
  601MOL0     C82842   9.595   5.415   6.728  0.2490 -0.5646  0.2684
  601MOL0     C82843   9.740   5.436   6.702  0.5337 -0.7785  0.7841
  601MOL0     C82844   9.754   5.539   6.592  0.7211  0.0944 -0.2951
  601MOL0    Cl82845   9.930   5.554   6.555  0.3453 -0.1561 -0.2175
  601MOL0     C82846   9.423   4.935   7.417 -0.2752 -0.9392 -0.2769
  601MOL0     C82847   9.376   4.861   7.523  0.2452  0.6881  0.2313
  601MOL0     O82848   9.029   4.631   7.582  0.1875 -0.0510 -0.0398
  601MOL0     C82849   8.990   4.517   7.843  0.9270 -0.3167 -0.0175
  601MOL0     C82850   8.979   4.473   7.971  0.1316  0.7664  0.0970
  601MOL0     N82851   8.812   4.526   8.666 -1.0372  0.2808 -0.2821
  601MOL0     N82852   8.720   4.608   8.708 -0.3952 -0.9763  0.5750
  601MOL0     C82853   8.412   5.175   7.733  0.3437  0.0402 -0.7731
  601MOL0     C82854   8.509   5.240   7.654 -0.4964 -0.1929 -0.0140
  601MOL0     C82855   8.882   5.284   7.401  1.1017  0.2998 -0.0577
  601MOL0     C82856   8.843   5.414   7.371 -0.0810 -0.5115  0.1134
  601MOL0     C82857   8.930   5.499   7.293  0.9114 -0.2382 -0.0712
  601MOL0     C82858   9.055   5.464   7.253  0.0080  1.1482  0.4678
  601MOL0     O82859   9.127   5.562   7.187  0.0857 -0.3760  0.2373
  601MOL0     C82860   9.224   5.524   7.081  0.7374  0.4695 -0.7186
  601MOL0     C82861   9.227   5.632   6.968  1.2267 -0.3266 -0.2682
  601MOL0     C82862   9.091   5.647   6.888 -1.0385  0.9989 -0.1356
  601MOL0     C82863   9.115   5.733   6.766  0.0339  0.3194 -0.4671
  601MOL0     C82864   8.998   5.745   6.686  0.4087  0.2700 -0.2255
  601MOL0     C82865   8.903   5.742   6.607  0.8530  0.6239  0.3567
  601MOL0     C82866   9.099   5.329   7.287 -0.8881 -0.4298  0.5543
  601MOL0     C82867   9.015   5.243   7.362 -0.3668  0.5818  0.2503
  601MOL0     C82868   9.061   5.110   7.401 -0.7636  0.5889 -0.3688
  601MOL0     H82869   8.783   5.129   7.799  0.0424  2.4238 -1.1606
  601MOL0     H82870   8.614   4.991   7.925  1.3439 -1.0531 -0.1412
  601MOL0     H82871   8.458   4.959   8.052 -3.1797  0.4046  2.7177
  601MOL0     H82872   8.396   4.825   7.957 -0.3440 -0.8048  0.6179
  601MOL0     H82873   8.234   5.035   8.127 -1.7868 -1.0083  0.3740
  601MOL0     H82874   8.167   4.917   8.013 -1.9586  0.9358  1.4922
  601MOL0     H82875   8.142   4.863   8.241  0.3050  3.0677 -1.0186
  601MOL0     H82876   8.253   4.746   8.152  1.7445  1.1251 -1.9861
  601MOL0     H82877   8.447   4.847   8.281 -0.0527 -1.9512  0.6772
  601MOL0     H82878   8.332   4.979   8.334  1.5287 -0.5365  1.3918
  601MOL0     H82879   8.281   4.688   8.391 -1.9366 -1.5395  3.4146
  601MOL0     H82880   8.240   4.832   8.482 -1.4925 -2.4463 -0.3395
  601MOL0     H82881   8.517   4.734   8.464 -0.5051  2.0400 -2.5365
  601MOL0     H82882   8.443   4.862   8.574  0.3880 -0.6145  0.0618
  601MOL0     H82883   8.377   4.562   8.551 -2.5478  0.2629 -0.2317
  601MOL0     H82884   8.288   4.682   8.653 -1.4401  1.1608 -1.9407
  601MOL0     H82885   8.507   4.716   8.772 -3.4354  2.0602 -1.2228
  601MOL0     H82886   8.423   4.562   8.806 -1.8656  1.5478 -0.4362
  601MOL0     H82887   8.551   4.337   8.640 -0.3892  0.6203 -2.5381
  601MOL0     H82888   8.745   4.182   8.629  1.1211 -0.0956  1.4726
  601MOL0     H82889   8.910   4.241   8.641 -0.5102  2.5339  2.2500
  601MOL0     H82890   8.863   4.155   8.438 -2.0427 -0.0191  1.0352
  601MOL0     H82891   8.735   4.275   8.398  0.5025  1.1281 -2.7952
  601MOL0     H82892   8.922   4.452   8.432 -4.3595 -1.9960  1.9975
  601MOL0     H82893   9.040   4.309   8.438 -0.9121 -3.0512  1.2118
  601MOL0     H82894   8.971   4.255   8.200 -0.5674 -1.5840  2.7647
  601MOL0     H82895   8.860   4.405   8.225  0.6078  0.8091 -1.3244
  601MOL0     H82896   9.284   4.540   8.085 -0.6395  0.8857  0.5883
  601MOL0     H82897   9.354   4.743   7.842 -0.6132 -0.1358 -1.8203
  601MOL0     H82898   9.417   4.584   7.779  1.3676 -0.5906  0.0775
  601MOL0     H82899   9.422   4.628   7.951 -1.3876 -2.0570 -0.2613
  601MOL0     H82900   9.129   4.691   7.361  1.0485 -0.6578  0.0972
  601MOL0     H82901   9.198   4.857   7.182 -1.0499 -1.6740  0.6385
  601MOL0     H82902   9.423   4.862   7.047  4.0903  1.1562  1.4477
  601MOL0     H82903   9.271   4.959   7.037  0.2007  0.3901 -1.4401
  601MOL0     H82904   9.496   4.963   6.852  1.8666 -1.5934  1.1145
  601MOL0     H82905   9.392   5.100   6.885 -0.2913 -0.9387  0.5949
  601MOL0     H82906   9.664   5.036   6.998  1.0611 -0.0865 -2.1164
  601MOL0     H82907   9.569   5.162   7.064 -1.0173  0.3948 -0.3724
  601MOL0     H82908   9.583   5.174   6.756  0.7675  1.4035 -0.1253
  601MOL0     H82909   9.735   5.212   6.845  0.2372  2.2316 -0.9235
  601MOL0     H82910   9.462   5.338   6.889  0.5365  0.4797  2.1134
  601MOL0     H82911   9.624   5.389   6.954 -1.6411 -1.0620  0.3709
  601MOL0     H82912   9.543   5.510   6.712  3.0500  0.8394 -1.0341
  601MOL0     H82913   9.562   5.352   6.645 -1.0917  1.1117 -0.5214
  601MOL0     H82914   9.792   5.343   6.677 -0.1475 -1.2398  1.0438
  601MOL0     H82915   9.782   5.474   6.796  0.1226 -1.0096  1.0698
  601MOL0     H82916   9.710   5.635   6.621  0.0481 -0.3419  0.1643
  601MOL0     H82917   9.692   5.508   6.508 -1.2535  3.0229 -0.0830
  601MOL0     H82918   9.510   4.994   7.443 -0.6005 -1.3141  1.8719
  601MOL0     H82919   9.437   4.865   7.613  1.9213  0.1264 -0.8493
  601MOL0     H82920   8.901   4.517   7.782  0.0146 -0.7547  1.2806
  601MOL0     H82921   8.889   4.415   7.988 -0.4829  0.7055 -2.8583
  601MOL0     H82922   8.307   5.184   7.708 -0.2704 -2.8086  0.4802
  601MOL0     H82923   8.487   5.312   7.575  0.9038 -1.7988 -1.9736
  601MOL0     H82924   8.752   5.465   7.402 -0.1383  1.2614 -2.6176
  601MOL0     H82925   8.895   5.600   7.271 -1.0960 -1.0262 -0.7445
  601MOL0     H82926   9.323   5.517   7.127  0.9642  2.4797 -0.8262
  601MOL0     H82927   9.190   5.435   7.026 -0.6990  0.7678 -0.3700
  601MOL0     H82928   9.300   5.600   6.893 -0.7044 -1.1379 -1.9041
  601MOL0     H82929   9.253   5.731   7.006  2.3467  0.0116 -1.7963
  601MOL0     H82930   9.044   5.553   6.857 -1.2523  1.6853 -1.9991
  601MOL0     H82931   9.018   5.704   6.946 -1.3667  1.3110 -0.8423
  601MOL0     H82932   9.186   5.678   6.704  0.6320  0.0984  0.4012
  601MOL0     H82933   9.166   5.825   6.797 -1.5066  1.1432 -0.3032
  601MOL0     H82934   8.823   5.746   6.537  1.3209 -0.8075 -0.3016
  601MOL0     H82935   9.194   5.296   7.247 -1.8155 -2.4411 -0.1150
  601MOL0     H82936   9.167   5.094   7.382  0.0484  0.6279  3.3923
  601MOL0     H82937   9.042   5.093   7.507  2.6504  5.2165  1.3068
  601MOL0     H82938   9.016   5.037   7.332 -0.3594  0.5548 -0.6022
  602MOL0     O82939  10.048   2.664  10.641 -0.5186  0.0679  0.3324
  602MOL0     C82940   9.973   2.769  10.634 -1.3534  0.2861 -0.1634
  602MOL0     O82941  10.014   2.900  10.665  0.3221 -0.0608  0.0157
  602MOL0     C82942  10.113   2.911  10.753 -0.2414 -0.3158  0.0762
  602MOL0     C82943  10.120   2.834  10.873 -0.3470  0.2525 -0.1215
  602MOL0     C82944  10.230   2.846  10.958  0.2449 -0.1070 -0.4421
  602MOL0     C82945  10.345   2.925  10.920  0.1042  0.6197 -0.5002
  602MOL0     O82946  10.462   2.935  10.991  0.0824 -0.8069 -0.0247
  602MOL0     C82947  10.468   2.882  11.126  0.1995 -0.8196  0.0137
  602MOL0     C82948  10.492   2.739  11.107 -0.4527  0.3577 -0.5679
  602MOL0     C82949  10.474   2.658  11.234 -0.6278  0.3427 -0.2928
  602MOL0     C82950  10.551   2.714  11.353  0.0397 -0.5477  1.9819
  602MOL0     C82951  10.529   2.625  11.475  0.0200 -1.1853  0.2289
  602MOL0     C82952  10.568   2.684  11.608  0.1705  0.1441 -0.5132
  602MOL0     C82953  10.478   2.806  11.641  0.0884  0.7558  0.4224
  602MOL0     C82954  10.490   2.860  11.787 -0.1833 -0.3531 -0.0655
  602MOL0     N82955  10.618   2.910  11.828  0.0119 -0.2761  0.9207
  602MOL0     C82956  10.695   2.853  11.930 -1.3358 -0.4043  0.6235
  602MOL0     C82957  10.797   2.941  11.937 -0.4428 -0.2471  0.9594
  602MOL0     C82958  10.905   2.935  12.041  0.0108 -0.1297  0.1286
  602MOL0     C82959  10.866   3.046  12.141  0.1613 -0.4563  0.1451
  602MOL0     C82960  10.973   3.073  12.250  0.0926  0.7224  0.8110
  602MOL0     C82961  10.924   3.171  12.357 -0.7606 -0.2744  1.2417
  602MOL0     O82962  11.032   3.206  12.442 -0.4113  0.2371 -0.5096
  602MOL0     C82963  11.147   3.269  12.401  0.1436  0.0110 -0.0504
  602MOL0     C82964  11.252   3.273  12.498 -0.0123  0.5792 -0.4745
  602MOL0     C82965  11.369   3.343  12.469 -0.1840 -0.0293  0.0292
  602MOL0     C82966  11.467   3.368  12.578  0.3456 -0.3751 -0.3417
  602MOL0     C82967  11.396   3.396  12.341 -0.7518  0.0465  0.9680
  602MOL0     C82968  11.521   3.454  12.297  0.3021 -0.3681  0.1676
  602MOL0     O82969  11.588   3.545  12.380  0.2917  0.3413  0.5296
  602MOL0     C82970  11.718   3.559  12.340 -0.4991 -0.1043  0.5751
  602MOL0     C82971  11.745   3.666  12.261 -0.6343 -0.1771 -0.4220
  602MOL0     C82972  11.879   3.681  12.222 -1.0915 -0.1550  0.3277
  602MOL0     C82973  11.980   3.594  12.273 -0.3989  0.0670  0.0290
  602MOL0     O82974  12.117   3.613  12.277  0.0742  0.1527  0.5035
  602MOL0     C82975  12.192   3.674  12.171 -0.0630 -0.0407  0.3382
  602MOL0     C82976  12.238   3.813  12.206 -0.1291 -0.9899  0.5514
  602MOL0     C82977  12.299   3.904  12.101 -0.0590  0.5973 -0.4286
  602MOL0     C82978  12.458   3.901  12.108  0.3479  1.1784  0.5016
  602MOL0     C82979  12.529   3.991  12.005  1.0420 -0.7452 -0.5176
  602MOL0     C82980  12.673   3.934  11.970  1.1767  0.0675  0.2119
  602MOL0     C82981  12.765   3.902  12.087  0.5040  0.0036  0.3979
  602MOL0     C82982  12.881   3.820  12.047  0.2326  0.1485  0.2994
  602MOL0    Cl82983  13.011   3.825  12.170  0.0123  0.0593 -0.0534
  602MOL0     C82984  11.942   3.495  12.368  0.3503 -0.5438 -0.0863
  602MOL0     C82985  11.814   3.478  12.393 -0.2570 -0.1435  0.3844
  602MOL0     O82986  11.543   3.428  12.180  0.2792 -0.1869 -0.3929
  602MOL0     C82987  11.293   3.396  12.247  0.4750  0.0098  0.7351
  602MOL0     C82988  11.172   3.334  12.275 -0.3151 -0.8969 -0.1317
  602MOL0     N82989  10.786   3.037  11.836 -0.2878  0.2684 -0.6197
  602MOL0     N82990  10.676   3.012  11.771  0.2883 -0.6989  0.6975
  602MOL0     C82991  10.353   2.973  10.789 -0.2790 -0.3743 -0.6663
  602MOL0     C82992  10.233   2.980  10.712 -0.4486 -0.7151  0.2133
  602MOL0     C82993   9.844   2.746  10.581 -0.0554 -0.1188 -0.1103
  602MOL0     C82994   9.782   2.858  10.518 -0.0735  0.5242 -0.3367
  602MOL0     C82995   9.653   2.861  10.472  0.3646  0.2648  0.2232
  602MOL0     C82996   9.568   2.752  10.475 -0.9928  0.1420 -1.3281
  602MOL0     O82997   9.435   2.770  10.440  0.7769 -0.5545 -0.2441
  602MOL0     C82998   9.357   2.658  10.426 -0.0239  0.6610 -0.4942
  602MOL0     C82999   9.278   2.615  10.556 -0.2232 -0.2704 -1.1448
  602MOL0     C83000   9.219   2.722  10.643 -0.2415 -0.2311 -0.0856
  602MOL0     C83001   9.139   2.665  10.759 -0.5217  0.3056  0.6901
  602MOL0     C83002   9.082   2.769  10.848  0.3122 -0.7507  0.3049
  602MOL0     C83003   9.045   2.873  10.897 -0.0307  0.8884 -0.2100
  602MOL0     C83004   9.633   2.635  10.539  0.1042 -0.0698  0.1301
  602MOL0     C83005   9.764   2.633  10.590 -0.3894 -0.2856  0.4901
  602MOL0     C83006   9.801   2.498  10.650 -0.1248  0.2485 -0.2797
  602MOL0     H83007  10.037   2.768  10.898 -0.1773  0.0135 -0.1884
  602MOL0     H83008  10.208   2.800  11.053  0.7782 -2.6792 -1.4734
  602MOL0     H83009  10.380   2.910  11.184  0.0238 -1.2366 -0.0396
  602MOL0     H83010  10.557   2.920  11.177  2.5983 -2.4500 -2.6479
  602MOL0     H83011  10.422   2.694  11.036 -1.1705 -2.8072  1.9634
  602MOL0     H83012  10.597   2.727  11.076 -0.4588  0.2248 -0.5367
  602MOL0     H83013  10.366   2.655  11.250 -0.5835  0.2763 -0.0072
  602MOL0     H83014  10.505   2.558  11.205 -1.1077  0.8704 -2.9203
  602MOL0     H83015  10.654   2.711  11.316 -0.3823 -2.0047  0.8224
  602MOL0     H83016  10.512   2.816  11.357 -0.8755 -0.7301 -0.4869
  602MOL0     H83017  10.581   2.531  11.454  1.3861  0.1636 -3.1859
  602MOL0     H83018  10.424   2.598  11.487 -0.3904 -0.7123 -1.9438
  602MOL0     H83019  10.558   2.604  11.681  0.7424 -0.7340 -1.3643
  602MOL0     H83020  10.671   2.720  11.608  0.6988 -0.8845 -4.4084
  602MOL0     H83021  10.378   2.767  11.619 -0.1466  0.2889  2.1840
  602MOL0     H83022  10.490   2.892  11.574  1.3319  0.8696  0.7644
  602MOL0     H83023  10.407   2.930  11.798  1.0787  0.8425  2.6424
  602MOL0     H83024  10.479   2.771  11.849 -0.9512  1.0144  1.8363
  602MOL0     H83025  10.677   2.764  11.989 -0.2048 -0.8507  0.3341
  602MOL0     H83026  11.005   2.946  11.998 -0.4677  0.7402 -0.7884
  602MOL0     H83027  10.900   2.837  12.090  2.5559 -0.4058 -0.0651
  602MOL0     H83028  10.876   3.135  12.079  3.1044 -0.7408  0.0527
  602MOL0     H83029  10.765   3.032  12.181 -0.6137  0.4381 -1.3969
  602MOL0     H83030  10.993   2.985  12.312 -3.6972  0.6304  2.1937
  602MOL0     H83031  11.070   3.093  12.203  0.1816  0.9675  1.0972
  602MOL0     H83032  10.892   3.265  12.311  3.8710  0.9525 -0.0659
  602MOL0     H83033  10.835   3.121  12.396 -2.0880 -0.6656 -1.9496
  602MOL0     H83034  11.237   3.225  12.595  1.0342 -2.1810 -1.5709
  602MOL0     H83035  11.568   3.336  12.551  0.9664 -1.5674  2.9318
  602MOL0     H83036  11.434   3.328  12.675  0.8748  4.8502  2.3583
  602MOL0     H83037  11.469   3.477  12.592 -0.9521 -0.2137 -1.2171
  602MOL0     H83038  11.659   3.726  12.232 -0.8290 -1.4714 -2.7709
  602MOL0     H83039  11.905   3.765  12.158  1.3081 -1.2346 -0.2096
  602MOL0     H83040  12.279   3.610  12.157  0.6317  1.1129 -0.8853
  602MOL0     H83041  12.127   3.673  12.082 -1.1989 -3.0685  1.0675
  602MOL0     H83042  12.150   3.873  12.234  2.0672  1.9662  1.6198
  602MOL0     H83043  12.303   3.798  12.292  2.0168  2.1238 -0.3694
  602MOL0     H83044  12.261   4.005  12.120 -0.3174 -0.0013  2.6665
  602MOL0     H83045  12.268   3.863  12.005 -0.1537 -4.1126  1.3575
  602MOL0     H83046  12.493   3.799  12.097 -1.4269  0.5813  0.0386
  602MOL0     H83047  12.484   3.927  12.211 -0.2087  0.1861  0.9029
  602MOL0     H83048  12.469   3.992  11.913  0.3988  1.3384 -0.1470
  602MOL0     H83049  12.536   4.091  12.051  0.2495  0.5826 -3.0726
  602MOL0     H83050  12.720   4.001  11.897 -1.0127  0.2703 -1.1151
  602MOL0     H83051  12.653   3.843  11.912  0.7908  0.8264 -0.8800
  602MOL0     H83052  12.701   3.850  12.159 -1.3322  3.5300  1.5645
  602MOL0     H83053  12.801   3.997  12.126  0.4753  0.5324 -0.8321
  602MOL0     H83054  12.923   3.857  11.953 -1.2166 -0.2610 -0.5443
  602MOL0     H83055  12.858   3.713  12.046  0.2091  0.1045  2.2150
  602MOL0     H83056  12.020   3.440  12.420  0.3456  0.3295  0.8779
  602MOL0     H83057  11.792   3.402  12.467  0.5904 -1.4494 -0.6554
  602MOL0     H83058  11.307   3.417  12.142 -0.7229  5.1806  1.3314
  602MOL0     H83059  11.087   3.364  12.214 -0.4335 -0.8043  0.0777
  602MOL0     H83060  10.444   3.010  10.742  0.8996 -1.2962  0.8271
  602MOL0     H83061  10.231   3.030  10.616  3.6622 -2.4706 -1.0115
  602MOL0     H83062   9.829   2.956  10.520 -0.9313  1.0077  3.2055
  602MOL0     H83063   9.606   2.949  10.429  1.4061 -0.2028 -2.0111
  602MOL0     H83064   9.282   2.690  10.353  0.4214 -0.1455 -1.3164
  602MOL0     H83065   9.418   2.572  10.398  2.5752  2.4450 -0.6949
  602MOL0     H83066   9.349   2.566  10.624 -0.9522 -0.1924 -0.3095
  602MOL0     H83067   9.203   2.540  10.529  1.0118 -1.8373 -0.3931
  602MOL0     H83068   9.298   2.778  10.693 -1.9816  0.6124  1.8819
  602MOL0     H83069   9.140   2.780  10.594 -1.7605  0.5883  3.0496
  602MOL0     H83070   9.196   2.586  10.809  0.0528  0.2748 -0.0035
  602MOL0     H83071   9.047   2.615  10.725 -2.0381  0.4620  4.1401
  602MOL0     H83072   9.004   2.964  10.937  4.0247  2.9220 -0.1174
  602MOL0     H83073   9.583   2.540  10.553  2.5484 -1.5005 -0.2522
  602MOL0     H83074   9.815   2.431  10.564 -3.4677  0.3939 -1.0612
  602MOL0     H83075   9.888   2.507  10.716 -1.1591  1.8384  0.9422
  602MOL0     H83076   9.723   2.458  10.714  1.6637  1.8290  3.1426
  603MOL0     O83077   0.357   7.585   6.095 -0.4326  0.0486  0.2290
  603MOL0     C83078   0.348   7.636   6.207 -0.0071  0.3320  0.5877
  603MOL0     O83079   0.321   7.766   6.236  0.3006 -0.3060  0.3730
  603MOL0     C83080   0.297   7.851   6.137  0.1128 -0.5214  0.1781
  603MOL0     C83081   0.194   7.833   6.041 -0.0657  0.6040 -0.8282
  603MOL0     C83082   0.179   7.918   5.933 -0.0501  0.0483 -0.3418
  603MOL0     C83083   0.256   8.029   5.912  0.7587 -0.1874 -0.5068
  603MOL0     O83084   0.226   8.112   5.803  0.6097 -0.1683 -0.5479
  603MOL0     C83085   0.290   8.240   5.815 -0.0007  0.3925 -0.0163
  603MOL0     C83086   0.237   8.321   5.697  1.1187 -0.0009 -0.0185
  603MOL0     C83087   0.079   8.321   5.678 -0.2637  0.2365 -0.1428
  603MOL0     C83088   0.022   8.400   5.567 -0.8708  0.6980  1.0257
  603MOL0     C83089   0.030   8.549   5.560 -0.1638 -0.2398 -0.4055
  603MOL0     C83090  -0.042   8.620   5.675 -0.4250  1.2407  0.2793
  603MOL0     C83091  -0.066   8.754   5.618  0.0881  0.2793 -0.8503
  603MOL0     C83092  -0.141   8.844   5.723 -0.4024 -0.2720  0.2870
  603MOL0     N83093  -0.172   8.981   5.672 -0.0883 -0.5957 -0.1112
  603MOL0     C83094  -0.269   9.000   5.569 -0.8017  0.2051  0.3800
  603MOL0     C83095  -0.253   9.127   5.528 -0.1138 -0.8789 -0.2521
  603MOL0     C83096  -0.308   9.184   5.404  0.5949 -0.3087 -0.8648
  603MOL0     C83097  -0.268   9.110   5.278 -0.4495  0.0694 -0.1263
  603MOL0     C83098  -0.329   9.188   5.163 -0.2736 -0.2966  0.3916
  603MOL0     C83099  -0.294   9.138   5.015  0.2719 -0.6891  0.2309
  603MOL0     O83100  -0.318   8.994   4.997 -0.2881 -0.0290 -0.5850
  603MOL0     C83101  -0.429   8.948   4.925 -0.5802  0.2298 -0.4891
  603MOL0     C83102  -0.428   8.816   4.886  0.0353 -0.2004  0.7758
  603MOL0     C83103  -0.531   8.757   4.814 -0.5705  0.7412 -0.5074
  603MOL0     C83104  -0.497   8.612   4.775 -0.3650 -0.2216  1.0854
  603MOL0     C83105  -0.639   8.835   4.769  0.6917 -0.3581 -0.0185
  603MOL0     C83106  -0.755   8.774   4.698  0.3842  0.6031  0.8974
  603MOL0     O83107  -0.745   8.649   4.655  0.4442  0.3679  0.4946
  603MOL0     C83108  -0.836   8.594   4.566  0.2108  0.0168  0.2935
  603MOL0     C83109  -0.929   8.511   4.620  0.2621  0.0503  0.6156
  603MOL0     C83110  -1.032   8.470   4.540  0.0904 -0.0736  0.6107
  603MOL0     C83111  -1.032   8.491   4.398  0.2711 -0.3002  0.6096
  603MOL0     O83112  -1.131   8.451   4.309  0.0641  1.0601 -0.8815
  603MOL0     C83113  -1.244   8.372   4.353 -0.2272  0.5453  0.5967
  603MOL0     C83114  -1.237   8.252   4.261 -0.8176 -0.9419 -0.6700
  603MOL0     C83115  -1.348   8.261   4.157  0.5212  0.6315  0.0365
  603MOL0     C83116  -1.374   8.135   4.074  0.2002  0.1305  0.1484
  603MOL0     C83117  -1.436   8.042   4.168  0.1253 -0.2389  0.3326
  603MOL0     C83118  -1.483   7.912   4.099  0.1805 -0.9748  0.1507
  603MOL0     C83119  -1.599   7.938   4.002  0.0272  0.4270 -0.7907
  603MOL0     C83120  -1.691   7.821   3.990  0.3069  0.3933  0.1097
  603MOL0    Cl83121  -1.730   7.759   4.159 -0.1784  1.0157 -0.2831
  603MOL0     C83122  -0.929   8.568   4.346  0.0693  0.3653 -0.5587
  603MOL0     C83123  -0.824   8.613   4.431  0.3444 -0.3040  0.6408
  603MOL0     O83124  -0.854   8.845   4.677  0.4706  0.6976 -0.2473
  603MOL0     C83125  -0.638   8.968   4.801  0.1811 -0.8252 -0.5174
  603MOL0     C83126  -0.531   9.028   4.875 -0.2105 -0.2161  0.3050
  603MOL0     N83127  -0.139   9.176   5.599  0.0250  0.5394  0.4027
  603MOL0     N83128  -0.087   9.081   5.670 -0.6758 -0.3364  0.2429
  603MOL0     C83129   0.357   8.054   6.019 -0.9087  0.0510  0.7995
  603MOL0     C83130   0.375   7.969   6.115  0.2428 -0.1826 -0.6193
  603MOL0     C83131   0.341   7.535   6.319 -1.3162 -1.1994  0.9889
  603MOL0     C83132   0.259   7.577   6.420  0.4367 -0.4567 -0.2929
  603MOL0     C83133   0.235   7.487   6.525 -0.1250  0.0477 -1.5136
  603MOL0     C83134   0.301   7.366   6.541  0.4547 -0.2004  0.3138
  603MOL0     O83135   0.289   7.276   6.637  0.2417 -0.7049 -0.1388
  603MOL0     C83136   0.195   7.300   6.745 -0.6930  0.4713  0.7910
  603MOL0     C83137   0.179   7.183   6.840 -0.1952 -0.7894  0.0668
  603MOL0     C83138   0.315   7.153   6.899  0.9681  0.8513 -0.7369
  603MOL0     C83139   0.297   7.031   7.002  0.5477  0.4914 -0.4746
  603MOL0     C83140   0.425   7.013   7.057 -0.3493  0.5953  0.1014
  603MOL0     C83141   0.534   7.005   7.107  0.0053  0.3719 -0.2666
  603MOL0     C83142   0.393   7.330   6.439 -0.3716 -0.2427  2.0536
  603MOL0     C83143   0.393   7.404   6.318 -0.4099  0.2869 -0.8341
  603MOL0     C83144   0.449   7.335   6.197  0.2736  0.5217 -0.5958
  603MOL0     H83145   0.145   7.737   6.051  3.2359 -0.9810  3.1307
  603MOL0     H83146   0.112   7.897   5.851 -1.1405 -0.6048  0.6934
  603MOL0     H83147   0.396   8.214   5.809  0.1452  0.3390  2.2558
  603MOL0     H83148   0.264   8.293   5.907  2.8531  1.1145  0.4802
  603MOL0     H83149   0.260   8.427   5.713 -2.4379  1.2284 -1.8364
  603MOL0     H83150   0.277   8.303   5.597  1.0960  0.5367 -0.1301
  603MOL0     H83151   0.044   8.220   5.656 -0.1329  0.8108 -3.4803
  603MOL0     H83152   0.032   8.358   5.770 -0.4476 -0.1485 -0.0801
  603MOL0     H83153   0.073   8.360   5.479  0.0031  1.1747  1.3037
  603MOL0     H83154  -0.084   8.373   5.559 -1.0873  0.8492  2.9387
  603MOL0     H83155  -0.019   8.582   5.468  0.8058  0.6455 -0.6306
  603MOL0     H83156   0.135   8.580   5.565  0.7012 -2.3383 -3.0625
  603MOL0     H83157  -0.137   8.575   5.703 -0.6777  1.3744 -0.3705
  603MOL0     H83158   0.017   8.627   5.767 -1.3684 -1.4994  1.1945
  603MOL0     H83159  -0.130   8.742   5.530 -1.1857 -0.1504  0.1053
  603MOL0     H83160   0.030   8.801   5.592  0.0355  1.9842  1.6866
  603MOL0     H83161  -0.237   8.810   5.761 -2.7581  3.7858 -1.4190
  603MOL0     H83162  -0.075   8.853   5.810 -1.5796  2.4507  1.0092
  603MOL0     H83163  -0.341   8.930   5.528 -0.2103  0.0098 -0.3570
  603MOL0     H83164  -0.283   9.290   5.394  2.6758 -0.7865 -1.3692
  603MOL0     H83165  -0.416   9.175   5.418  0.7536 -0.6620  0.2637
  603MOL0     H83166  -0.159   9.111   5.263 -0.5983 -2.3444 -1.9574
  603MOL0     H83167  -0.302   9.006   5.277  0.9063 -0.4033 -0.1560
  603MOL0     H83168  -0.438   9.196   5.163 -0.5026 -2.1538  2.8650
  603MOL0     H83169  -0.297   9.292   5.168  0.5319 -0.4729 -0.7903
  603MOL0     H83170  -0.354   9.185   4.937  1.2792 -2.1268 -1.5007
  603MOL0     H83171  -0.188   9.161   5.000 -0.3759  1.9170 -0.8850
  603MOL0     H83172  -0.342   8.761   4.924 -0.7508 -1.3122  1.0013
  603MOL0     H83173  -0.408   8.578   4.829  1.2406  2.9908  0.7363
  603MOL0     H83174  -0.475   8.623   4.669  1.0457  3.8407  1.5996
  603MOL0     H83175  -0.577   8.540   4.792 -0.2932 -0.3694  0.7990
  603MOL0     H83176  -0.940   8.485   4.725 -0.2608  1.2929  0.8857
  603MOL0     H83177  -1.109   8.414   4.593 -0.2000 -0.7479 -0.4656
  603MOL0     H83178  -1.236   8.328   4.453  0.3962  0.3604  0.4699
  603MOL0     H83179  -1.335   8.432   4.345  2.4940  5.2668  1.1513
  603MOL0     H83180  -1.139   8.245   4.212 -1.2039 -0.2189 -1.5619
  603MOL0     H83181  -1.255   8.166   4.327  2.2637  0.3089  2.1096
  603MOL0     H83182  -1.318   8.341   4.088 -2.8887  2.5970  0.5931
  603MOL0     H83183  -1.445   8.288   4.200  0.0050  0.7106 -1.1361
  603MOL0     H83184  -1.282   8.095   4.029  0.4044 -0.1934  0.8435
  603MOL0     H83185  -1.441   8.165   3.993 -1.1145 -0.5066  0.9738
  603MOL0     H83186  -1.359   8.000   4.233 -1.4463 -3.7941  0.1483
  603MOL0     H83187  -1.513   8.079   4.236 -0.7258  1.0665 -1.2476
  603MOL0     H83188  -1.500   7.833   4.172 -0.7997 -0.0862  0.9125
  603MOL0     H83189  -1.397   7.878   4.041  1.3582  0.0944  1.1907
  603MOL0     H83190  -1.557   7.971   3.907  0.9634 -0.1200 -0.5935
  603MOL0     H83191  -1.659   8.016   4.049 -0.4037 -0.6875  0.5975
  603MOL0     H83192  -1.638   7.744   3.934 -1.1229 -0.0446 -0.7139
  603MOL0     H83193  -1.788   7.847   3.945 -1.8819  1.5132  4.8604
  603MOL0     H83194  -0.931   8.581   4.239  0.3190  2.1980 -0.3874
  603MOL0     H83195  -0.735   8.665   4.399  0.6875 -2.1938 -1.7317
  603MOL0     H83196  -0.724   9.032   4.788  0.8115  0.1991  0.2517
  603MOL0     H83197  -0.545   9.134   4.896 -2.2173 -0.2270 -0.7764
  603MOL0     H83198   0.416   8.145   6.020  0.4632 -0.7658 -0.7370
  603MOL0     H83199   0.456   7.985   6.185 -1.2815 -0.8408  1.3864
  603MOL0     H83200   0.202   7.669   6.422  0.1792 -0.6271  0.2664
  603MOL0     H83201   0.152   7.503   6.592  0.4566  1.5304 -1.1098
  603MOL0     H83202   0.235   7.383   6.804  2.7440  1.0735 -2.0164
  603MOL0     H83203   0.102   7.330   6.695 -0.0571  1.5817  0.2396
  603MOL0     H83204   0.137   7.092   6.798 -2.2272  0.8659 -1.7455
  603MOL0     H83205   0.109   7.209   6.921  0.1733 -1.4854  0.6186
  603MOL0     H83206   0.385   7.110   6.826 -0.4940 -0.6808 -1.2894
  603MOL0     H83207   0.367   7.231   6.956 -1.8649  1.5845  1.0101
  603MOL0     H83208   0.263   6.936   6.959 -0.9907 -1.9369  5.1026
  603MOL0     H83209   0.220   7.061   7.074  2.4495 -0.5066  2.1643
  603MOL0     H83210   0.634   6.987   7.142  1.8832 -0.7319 -5.3508
  603MOL0     H83211   0.426   7.227   6.448 -1.7676 -0.6370  2.9173
  603MOL0     H83212   0.368   7.327   6.124 -1.1639  2.0822  0.7447
  603MOL0     H83213   0.537   7.381   6.153 -0.3553  1.6311 -0.7244
  603MOL0     H83214   0.468   7.233   6.233  0.4333 -0.0733 -2.2891
  604MOL0     O83215   0.564   8.768   6.707  0.8028  0.3121 -0.0164
  604MOL0     C83216   0.598   8.891   6.693  0.8472 -1.1095 -0.3498
  604MOL0     O83217   0.704   8.946   6.742  0.0663  0.5511  0.4490
  604MOL0     C83218   0.808   8.884   6.811  0.9678  0.5317  1.1166
  604MOL0     C83219   0.806   8.760   6.875  0.5419  0.4136 -0.0074
  604MOL0     C83220   0.922   8.715   6.951 -0.6139  1.3873  0.3476
  604MOL0     C83221   1.036   8.790   6.949 -0.6404 -0.7760 -0.0113
  604MOL0     O83222   1.148   8.763   7.024 -0.2799 -0.3253  0.1121
  604MOL0     C83223   1.160   8.638   7.107 -0.7931 -0.3681 -0.3403
  604MOL0     C83224   1.285   8.632   7.183 -0.5460  0.3310 -0.2831
  604MOL0     C83225   1.406   8.616   7.083 -0.9598 -0.1948  0.5919
  604MOL0     C83226   1.548   8.654   7.133 -0.8324  0.0020 -0.8260
  604MOL0     C83227   1.647   8.690   7.017  0.8000  0.1441 -0.6823
  604MOL0     C83228   1.773   8.749   7.074  0.3108  0.2601  0.0571
  604MOL0     C83229   1.868   8.758   6.961 -1.3003  0.0230  0.7968
  604MOL0     C83230   1.994   8.819   7.023 -0.4730 -0.1531 -0.2787
  604MOL0     N83231   2.104   8.824   6.919  0.2555 -0.4985 -0.2246
  604MOL0     C83232   2.150   8.935   6.856 -0.5375 -0.3187  0.0711
  604MOL0     C83233   2.229   8.888   6.754 -0.6874 -0.2986  0.6270
  604MOL0     C83234   2.289   8.981   6.646 -0.3072 -0.3745  0.0280
  604MOL0     C83235   2.403   8.916   6.579 -0.3899 -0.6746 -0.0098
  604MOL0     C83236   2.480   8.995   6.471  0.0951  1.0094 -0.3927
  604MOL0     C83237   2.578   9.094   6.530 -0.3088 -0.8158  0.1533
  604MOL0     O83238   2.515   9.212   6.577 -0.3324 -0.3246 -0.9663
  604MOL0     C83239   2.526   9.335   6.510 -0.2297 -0.6548 -0.2182
  604MOL0     C83240   2.537   9.457   6.582  0.3630  0.0201  0.1398
  604MOL0     C83241   2.540   9.583   6.520  0.4134 -0.1306  0.4899
  604MOL0     C83242   2.539   9.707   6.604  0.0108  0.1956  0.0224
  604MOL0     C83243   2.540   9.590   6.381 -0.7680  0.1645 -0.3777
  604MOL0     C83244   2.563   9.711   6.299  0.0980  0.1738  0.0279
  604MOL0     O83245   2.473   9.737   6.197 -0.7780  0.2085  0.0716
  604MOL0     C83246   2.499   9.849   6.119 -0.2867 -0.1580 -0.0949
  604MOL0     C83247   2.560   9.832   6.002 -0.7633 -0.3493  0.8653
  604MOL0     C83248   2.605   9.945   5.933 -1.0212  0.5927 -0.3136
  604MOL0     C83249   2.570  10.082   5.969  0.5406  0.3470  0.8077
  604MOL0     O83250   2.584  10.199   5.894  0.1087 -0.5057  0.8446
  604MOL0     C83251   2.693  10.208   5.794  1.0797 -0.4802  0.5015
  604MOL0     C83252   2.636  10.268   5.664 -0.1729 -1.1139  0.8627
  604MOL0     C83253   2.589  10.159   5.555  1.0966  0.1624  0.4081
  604MOL0     C83254   2.515  10.213   5.433  0.2348 -0.1645 -0.0881
  604MOL0     C83255   2.490  10.112   5.327  0.3538  0.6483  0.6563
  604MOL0     C83256   2.418  10.184   5.208 -0.3558 -0.6272 -0.2906
  604MOL0     C83257   2.404  10.087   5.093  0.4246  0.4586 -0.1475
  604MOL0     C83258   2.323  10.134   4.967  1.0889  0.1423 -0.6594
  604MOL0    Cl83259   2.320   9.992   4.854  0.3143 -0.1511 -0.0960
  604MOL0     C83260   2.505  10.091   6.094 -0.5575  0.4442  0.5291
  604MOL0     C83261   2.475   9.977   6.163 -0.6509  0.2119 -0.8257
  604MOL0     O83262   2.665   9.780   6.324  1.5852  0.2583  0.3432
  604MOL0     C83263   2.529   9.474   6.313  0.5043 -0.2106 -0.1455
  604MOL0     C83264   2.518   9.348   6.378  0.1841  0.1833  0.4047
  604MOL0     N83265   2.233   8.750   6.754 -0.7036 -0.3110  0.1204
  604MOL0     N83266   2.147   8.714   6.847 -0.2536  0.2692  0.8344
  604MOL0     C83267   1.040   8.917   6.874  0.1739  0.2672  0.5702
  604MOL0     C83268   0.921   8.966   6.816 -0.4822 -0.2934 -0.0618
  604MOL0     C83269   0.495   8.970   6.616  0.4372 -0.0329 -0.1763
  604MOL0     C83270   0.437   8.923   6.487 -1.0606 -0.8206 -0.3635
  604MOL0     C83271   0.346   8.999   6.422 -1.0952 -0.0423 -0.3770
  604MOL0     C83272   0.321   9.136   6.457  0.2467  0.3757 -0.4286
  604MOL0     O83273   0.237   9.207   6.364 -0.3753  0.2597  0.0974
  604MOL0     C83274   0.258   9.340   6.352  0.1979 -0.2481  0.5252
  604MOL0     C83275   0.167   9.420   6.448 -0.3972 -0.8355 -1.2586
  604MOL0     C83276   0.022   9.430   6.411  0.5950  0.3998 -0.4718
  604MOL0     C83277  -0.051   9.566   6.434  0.6160 -0.6850 -0.1681
  604MOL0     C83278  -0.186   9.562   6.381 -0.5266  0.5054 -0.1803
  604MOL0     C83279  -0.295   9.541   6.334  0.6963  0.2825 -0.0724
  604MOL0     C83280   0.384   9.187   6.566  0.2572 -0.0729  0.0409
  604MOL0     C83281   0.469   9.109   6.645  0.1558  0.2163  0.2832
  604MOL0     C83282   0.521   9.190   6.761  0.3891 -0.2844 -1.2073
  604MOL0     H83283   0.719   8.696   6.869  1.3719 -0.8532  0.8949
  604MOL0     H83284   0.923   8.627   7.015 -2.4059  2.7177  2.3876
  604MOL0     H83285   1.176   8.552   7.042  0.7710 -0.4068  0.0728
  604MOL0     H83286   1.071   8.609   7.164 -1.1830 -0.6043 -1.0604
  604MOL0     H83287   1.295   8.722   7.245 -0.9946 -1.3312  2.3692
  604MOL0     H83288   1.280   8.554   7.259  1.7110  0.1654 -0.2304
  604MOL0     H83289   1.415   8.509   7.061  1.7095 -0.1518  1.1778
  604MOL0     H83290   1.378   8.667   6.990 -3.9691  0.3342  1.6615
  604MOL0     H83291   1.537   8.738   7.202  1.1638  0.5206 -1.0788
  604MOL0     H83292   1.593   8.561   7.169 -2.6215 -0.8576 -0.6879
  604MOL0     H83293   1.603   8.763   6.950 -1.0330  0.9265  1.2649
  604MOL0     H83294   1.660   8.589   6.977 -3.8975 -2.8601  4.0294
  604MOL0     H83295   1.747   8.844   7.123 -0.5045 -0.4393  1.0270
  604MOL0     H83296   1.811   8.679   7.148  0.1915 -1.3010 -1.3107
  604MOL0     H83297   1.825   8.823   6.883 -0.5187  0.0435  0.3708
  604MOL0     H83298   1.885   8.660   6.916 -0.0829  0.8414 -0.6462
  604MOL0     H83299   1.963   8.922   7.041  1.6782  0.8955 -2.1131
  604MOL0     H83300   2.026   8.778   7.120 -0.5569  0.0818 -0.1529
  604MOL0     H83301   2.123   9.038   6.877  0.1955 -0.2033  0.4743
  604MOL0     H83302   2.314   9.081   6.681 -1.2923 -0.0154 -0.2640
  604MOL0     H83303   2.208   8.999   6.574  0.4705 -2.4463 -1.4637
  604MOL0     H83304   2.476   8.873   6.648  1.4880 -0.1499 -1.5647
  604MOL0     H83305   2.366   8.828   6.526  1.3369 -1.2375 -0.3526
  604MOL0     H83306   2.521   8.904   6.426 -1.1380  1.9925 -3.8129
  604MOL0     H83307   2.414   9.048   6.402 -0.7609  2.3412  1.3557
  604MOL0     H83308   2.620   9.053   6.622 -0.0260  2.5507  1.6932
  604MOL0     H83309   2.662   9.120   6.465 -0.5157 -0.4740  0.0189
  604MOL0     H83310   2.543   9.452   6.690  0.0127  0.9236  0.2094
  604MOL0     H83311   2.561   9.697   6.710 -3.2549  0.9983  0.8951
  604MOL0     H83312   2.437   9.747   6.591  0.5001  1.3854 -0.3316
  604MOL0     H83313   2.605   9.789   6.575 -0.1662  0.4522  0.3376
  604MOL0     H83314   2.582   9.733   5.962 -1.2228  0.2341 -0.9080
  604MOL0     H83315   2.655   9.936   5.837 -1.9230 -1.1950 -0.6680
  604MOL0     H83316   2.776  10.269   5.829  0.4817 -0.0023  1.0929
  604MOL0     H83317   2.750  10.116   5.777  1.5906  0.2998 -2.5807
  604MOL0     H83318   2.562  10.345   5.688 -1.4639 -1.9217 -0.3576
  604MOL0     H83319   2.724  10.320   5.624 -2.1419  2.5839  0.8578
  604MOL0     H83320   2.520  10.096   5.611 -0.3055  2.4113  1.3855
  604MOL0     H83321   2.668  10.096   5.515  1.3009 -0.2242  1.3905
  604MOL0     H83322   2.568  10.303   5.401  1.7211 -0.7209  0.7259
  604MOL0     H83323   2.420  10.247   5.474  0.2949 -1.6877  1.4305
  604MOL0     H83324   2.589  10.072   5.306  2.0611  2.3693  4.4919
  604MOL0     H83325   2.431  10.030   5.370  1.6742 -0.7913 -0.1938
  604MOL0     H83326   2.478  10.269   5.173  0.5473 -0.1265  2.2735
  604MOL0     H83327   2.321  10.224   5.236 -0.5907  0.2184 -2.1525
  604MOL0     H83328   2.369   9.989   5.127  3.6465 -0.5172  0.7022
  604MOL0     H83329   2.506  10.063   5.062 -0.0303  1.4939 -2.7080
  604MOL0     H83330   2.355  10.223   4.912 -1.9742  1.1447 -1.0212
  604MOL0     H83331   2.219  10.151   4.997  1.9848  2.0659  1.6561
  604MOL0     H83332   2.479  10.191   6.126 -5.1879 -0.2679 -0.3434
  604MOL0     H83333   2.444   9.991   6.266  1.1324  0.9815 -0.3509
  604MOL0     H83334   2.495   9.483   6.211  0.5738 -2.3805 -0.4149
  604MOL0     H83335   2.493   9.265   6.312 -1.5982  0.2170  0.9968
  604MOL0     H83336   1.137   8.962   6.857  1.4992 -2.3992  0.4880
  604MOL0     H83337   0.910   9.058   6.761  1.0126 -0.9977 -1.6109
  604MOL0     H83338   0.461   8.822   6.453 -0.5920 -0.9475  0.3365
  604MOL0     H83339   0.298   8.949   6.339  1.8575 -1.1877 -1.5366
  604MOL0     H83340   0.365   9.364   6.356  0.6121 -0.7259 -3.5804
  604MOL0     H83341   0.227   9.365   6.250 -2.1728 -2.1767  0.6786
  604MOL0     H83342   0.214   9.519   6.444  0.0657 -1.0904 -2.4447
  604MOL0     H83343   0.173   9.383   6.551 -4.3550 -1.8389 -1.2216
  604MOL0     H83344   0.000   9.401   6.308 -0.3894  0.8218 -0.3945
  604MOL0     H83345  -0.029   9.359   6.476  1.5798  2.0789  2.3269
  604MOL0     H83346   0.006   9.650   6.392 -1.1552 -0.1999 -1.7519
  604MOL0     H83347  -0.067   9.597   6.538  1.4356  0.3718 -0.3350
  604MOL0     H83348  -0.380   9.539   6.268  0.1954  1.4537  0.5037
  604MOL0     H83349   0.368   9.294   6.574 -1.7281 -0.3803  0.7894
  604MOL0     H83350   0.623   9.225   6.744  0.7614 -0.5530  0.3366
  604MOL0     H83351   0.470   9.285   6.778  0.4006 -0.1971 -1.6377
  604MOL0     H83352   0.529   9.128   6.850  2.0014  1.2212 -0.2486
  605MOL0     O83353  11.061   0.066   7.773  0.0242 -0.5504  1.0113
  605MOL0     C83354  11.098   0.019   7.668  0.2397 -0.2014 -0.2572
  605MOL0     O83355  11.186   0.078   7.583 -0.9647 -0.1005 -0.8054
  605MOL0     C83356  11.285   0.164   7.617 -0.5824  0.1024 -0.0349
  605MOL0     C83357  11.419   0.138   7.584  0.5006 -0.1521 -0.7160
  605MOL0     C83358  11.517   0.227   7.612 -0.8270 -0.7447 -1.1616
  605MOL0     C83359  11.491   0.347   7.682 -0.3943  0.7465 -0.4664
  605MOL0     O83360  11.580   0.443   7.724 -1.1793 -0.2619 -0.1362
  605MOL0     C83361  11.727   0.420   7.715  0.2390 -0.3329 -0.5144
  605MOL0     C83362  11.814   0.516   7.807 -0.7661 -0.3026  0.3008
  605MOL0     C83363  11.955   0.517   7.771 -0.4090 -0.5175  0.1189
  605MOL0     C83364  12.050   0.416   7.832  0.5139 -0.2220  0.0560
  605MOL0     C83365  12.192   0.474   7.830  0.6391  0.2037  0.5326
  605MOL0     C83366  12.298   0.374   7.884 -1.1124  0.0026  0.5195
  605MOL0     C83367  12.427   0.446   7.850 -0.7869  0.5610 -0.5188
  605MOL0     C83368  12.541   0.354   7.891 -0.6594 -1.0269  0.0639
  605MOL0     N83369  12.573   0.242   7.798 -0.5580  0.8849 -0.5095
  605MOL0     C83370  12.672   0.234   7.708 -0.8374 -1.1279  0.1275
  605MOL0     C83371  12.662   0.119   7.644  0.7083 -0.5579  0.6573
  605MOL0     C83372  12.731   0.092   7.501  0.6233 -0.9179 -0.7049
  605MOL0     C83373  12.822  -0.037   7.507 -0.1387 -0.0022  0.1256
  605MOL0     C83374  12.891  -0.072   7.370  0.6469 -0.4525 -0.8083
  605MOL0     C83375  12.961  -0.205   7.375  0.5390 -0.8446 -0.1076
  605MOL0     O83376  12.998  -0.258   7.502  0.0191  0.5197 -0.2001
  605MOL0     C83377  13.034  -0.397   7.504 -0.1362  0.4517  0.6066
  605MOL0     C83378  13.098  -0.446   7.619  1.2200  0.8528 -0.1932
  605MOL0     C83379  13.143  -0.579   7.645 -0.7441 -0.3904  0.3335
  605MOL0     C83380  13.240  -0.607   7.757 -0.2306 -0.3288  0.1548
  605MOL0     C83381  13.125  -0.666   7.524 -1.1211 -1.2233  0.1397
  605MOL0     C83382  13.181  -0.811   7.511  0.7102  0.0006  0.4032
  605MOL0     O83383  13.116  -0.888   7.418  0.5781 -0.4605 -0.0786
  605MOL0     C83384  13.159  -1.021   7.408  0.1339 -0.1944 -0.5705
  605MOL0     C83385  13.288  -1.041   7.371 -0.1811 -0.1854  0.0650
  605MOL0     C83386  13.340  -1.163   7.333 -0.3377  0.3337  0.8055
  605MOL0     C83387  13.259  -1.278   7.342  0.5173  0.9394 -0.0024
  605MOL0     O83388  13.292  -1.406   7.307 -0.2375  0.3128  0.1675
  605MOL0     C83389  13.427  -1.442   7.264  1.0916  0.2784  0.1426
  605MOL0     C83390  13.427  -1.597   7.250 -0.5539 -0.1138 -0.0352
  605MOL0     C83391  13.562  -1.663   7.223  0.0756 -0.8827 -0.4797
  605MOL0     C83392  13.560  -1.809   7.250 -0.3470  0.8916 -0.0894
  605MOL0     C83393  13.702  -1.879   7.232 -0.6823 -0.2036 -0.0677
  605MOL0     C83394  13.715  -2.017   7.297  0.5942 -0.0832  0.7556
  605MOL0     C83395  13.619  -2.131   7.240 -0.0163 -0.0578  0.0523
  605MOL0     C83396  13.645  -2.248   7.328 -0.6328  0.8880  0.4479
  605MOL0    Cl83397  13.559  -2.232   7.485  0.3734 -0.5241  0.5023
  605MOL0     C83398  13.118  -1.261   7.381 -0.7659 -0.6874 -1.0107
  605MOL0     C83399  13.073  -1.129   7.406 -0.1542  1.1241 -0.8000
  605MOL0     O83400  13.266  -0.850   7.593  0.3184 -0.2606 -0.5741
  605MOL0     C83401  13.086  -0.610   7.401  0.1452 -0.5582  0.3376
  605MOL0     C83402  13.038  -0.474   7.389 -0.5542  0.7600 -0.0917
  605MOL0     N83403  12.562   0.048   7.702 -0.0438 -0.5534  0.2042
  605MOL0     N83404  12.518   0.119   7.807 -0.4408  0.1430  0.0985
  605MOL0     C83405  11.358   0.384   7.700  0.9020  0.4455  0.4290
  605MOL0     C83406  11.250   0.294   7.667  0.2137 -0.6401 -0.1639
  605MOL0     C83407  11.041  -0.106   7.622  0.2479  0.5123 -0.4629
  605MOL0     C83408  11.064  -0.143   7.490 -0.7233  0.0994 -0.7044
  605MOL0     C83409  11.009  -0.264   7.435  0.4348  0.0021  0.2347
  605MOL0     C83410  10.930  -0.350   7.515  0.9304  0.4787 -0.8334
  605MOL0     O83411  10.882  -0.458   7.454 -0.3361  0.1041 -0.4783
  605MOL0     C83412  10.850  -0.570   7.537 -0.0733 -0.4210  0.0662
  605MOL0     C83413  10.699  -0.607   7.536  0.5596 -0.7492  0.2700
  605MOL0     C83414  10.642  -0.716   7.629 -0.7582  0.3686  0.1998
  605MOL0     C83415  10.508  -0.761   7.586 -0.3458 -1.3507 -0.0734
  605MOL0     C83416  10.473  -0.876   7.670  0.1161 -0.3432  0.2642
  605MOL0     C83417  10.454  -0.983   7.726 -0.0835 -1.1300  0.2375
  605MOL0     C83418  10.894  -0.307   7.644  0.1018 -0.4891  0.1508
  605MOL0     C83419  10.948  -0.188   7.697 -0.1547 -0.3694  0.2085
  605MOL0     C83420  10.904  -0.160   7.835 -0.5047 -0.4730 -0.4503
  605MOL0     H83421  11.445   0.053   7.522 -3.1337 -1.5709 -0.5600
  605MOL0     H83422  11.623   0.214   7.591 -0.8698 -0.6943 -1.4056
  605MOL0     H83423  11.758   0.425   7.610  0.8137 -0.4493 -0.3497
  605MOL0     H83424  11.753   0.319   7.748  2.4226  0.3807  0.0825
  605MOL0     H83425  11.779   0.619   7.800  3.1549  1.2026  0.0781
  605MOL0     H83426  11.805   0.480   7.910 -3.6104  1.3986  0.7440
  605MOL0     H83427  11.959   0.511   7.662  1.0630  1.6035 -0.0115
  605MOL0     H83428  11.984   0.622   7.784  0.7243 -0.4826 -2.1998
  605MOL0     H83429  12.016   0.383   7.931 -2.7819 -0.7399 -1.1114
  605MOL0     H83430  12.042   0.324   7.772  0.2130 -0.3446  0.2752
  605MOL0     H83431  12.202   0.572   7.878  0.8821  0.3610  0.1665
  605MOL0     H83432  12.216   0.494   7.725  1.6303 -0.8578  0.5311
  605MOL0     H83433  12.288   0.372   7.993 -2.8333  0.2142  0.3958
  605MOL0     H83434  12.293   0.273   7.843 -0.8680 -0.2748  1.1682
  605MOL0     H83435  12.430   0.544   7.899 -0.8096  0.1340  0.3646
  605MOL0     H83436  12.439   0.466   7.743  2.6455  2.3190  0.0485
  605MOL0     H83437  12.633   0.413   7.892 -0.7439 -0.8802  1.9534
  605MOL0     H83438  12.512   0.312   7.987  1.1736 -0.0046  1.1273
  605MOL0     H83439  12.723   0.325   7.676 -0.9474 -0.9544  0.4422
  605MOL0     H83440  12.788   0.180   7.471 -1.2342  0.0388 -1.5693
  605MOL0     H83441  12.647   0.085   7.432 -1.5876  0.4128  1.6500
  605MOL0     H83442  12.884  -0.020   7.595  0.8259  0.7818 -0.6841
  605MOL0     H83443  12.758  -0.124   7.523 -0.1730 -0.2010 -0.9988
  605MOL0     H83444  12.805  -0.054   7.305 -2.5489  2.8522  3.6930
  605MOL0     H83445  12.961   0.011   7.354 -1.9909  2.1266  0.1740
  605MOL0     H83446  12.893  -0.271   7.320  0.1642 -0.7460  0.2352
  605MOL0     H83447  13.055  -0.206   7.319 -0.3773 -1.0871 -1.6886
  605MOL0     H83448  13.105  -0.378   7.704  2.1789 -0.0501  0.4802
  605MOL0     H83449  13.257  -0.533   7.837  1.4390 -1.0703  0.5255
  605MOL0     H83450  13.328  -0.661   7.722 -0.6173 -0.6509 -0.3275
  605MOL0     H83451  13.200  -0.691   7.814 -0.9145 -1.5235 -2.0125
  605MOL0     H83452  13.345  -0.950   7.357 -1.5975  1.3835  3.4858
  605MOL0     H83453  13.444  -1.157   7.304 -0.0466  2.2721  2.0618
  605MOL0     H83454  13.445  -1.383   7.174 -1.4263  2.5387  0.9780
  605MOL0     H83455  13.495  -1.410   7.344  0.5952 -0.8187  1.0293
  605MOL0     H83456  13.385  -1.632   7.345 -2.6779 -0.6744 -1.1118
  605MOL0     H83457  13.364  -1.630   7.167  0.3348 -1.3588 -0.2554
  605MOL0     H83458  13.636  -1.619   7.291 -0.7884  0.6369 -0.4722
  605MOL0     H83459  13.590  -1.641   7.120  0.1124 -1.9221 -0.6944
  605MOL0     H83460  13.478  -1.843   7.186  1.6490 -0.8006 -1.8753
  605MOL0     H83461  13.526  -1.821   7.353 -1.5369  2.8068 -0.2203
  605MOL0     H83462  13.734  -1.882   7.128  0.6949  0.6599  0.2949
  605MOL0     H83463  13.771  -1.803   7.271 -0.6290 -0.3192  0.0649
  605MOL0     H83464  13.696  -2.021   7.405 -1.6030  0.5587  0.4482
  605MOL0     H83465  13.816  -2.051   7.272 -0.2712 -1.2067 -1.5259
  605MOL0     H83466  13.642  -2.155   7.136 -1.1673 -2.4057  0.2578
  605MOL0     H83467  13.514  -2.102   7.226  0.2958 -0.2426 -3.9825
  605MOL0     H83468  13.753  -2.251   7.346 -0.5175  2.6168  0.3029
  605MOL0     H83469  13.612  -2.344   7.290  0.8217  0.2854  0.6371
  605MOL0     H83470  13.054  -1.348   7.378 -2.1574  0.2990 -1.1010
  605MOL0     H83471  12.973  -1.113   7.445  0.5530  0.7674  1.3177
  605MOL0     H83472  13.083  -0.667   7.309 -0.1819  2.2431 -1.5240
  605MOL0     H83473  12.996  -0.450   7.292 -0.4750  1.7247  0.1006
  605MOL0     H83474  11.335   0.486   7.731 -0.8460  0.6681 -1.3721
  605MOL0     H83475  11.146   0.323   7.683  0.4320 -0.6661  1.4510
  605MOL0     H83476  11.121  -0.079   7.423 -2.1058  2.0908 -0.0591
  605MOL0     H83477  11.039  -0.273   7.331  4.3496  0.2575  1.1892
  605MOL0     H83478  10.900  -0.659   7.498  0.0564 -0.5271  0.4637
  605MOL0     H83479  10.891  -0.565   7.639  0.6582 -0.4502 -0.2167
  605MOL0     H83480  10.674  -0.631   7.432  0.4363 -2.3130  0.6356
  605MOL0     H83481  10.635  -0.523   7.565  1.4351 -0.1775  0.5814
  605MOL0     H83482  10.704  -0.806   7.623  0.0937  0.8103  1.8107
  605MOL0     H83483  10.648  -0.678   7.731  0.0896  0.1495  0.2330
  605MOL0     H83484  10.518  -0.773   7.478  2.0925  1.6728 -0.3178
  605MOL0     H83485  10.441  -0.677   7.610  1.6239 -0.3443  2.4428
  605MOL0     H83486  10.432  -1.074   7.780 -1.4848  0.7565  3.1673
  605MOL0     H83487  10.826  -0.368   7.703 -0.4914  0.8734  0.9354
  605MOL0     H83488  10.835  -0.232   7.878  0.6598 -1.1293  0.3868
  605MOL0     H83489  10.992  -0.170   7.900 -2.1982 -0.9582  1.8705
  605MOL0     H83490  10.862  -0.059   7.837  2.9637  1.1657 -1.7213
  606MOL0     O83491   9.740   0.766   4.650  0.0990 -0.2057  0.4523
  606MOL0     C83492   9.792   0.852   4.723  0.2868  0.4661  0.1103
  606MOL0     O83493   9.867   0.953   4.685  0.2838  0.6819  0.5294
  606MOL0     C83494   9.900   0.933   4.553 -0.4209 -0.0554 -0.1089
  606MOL0     C83495   9.829   1.002   4.453 -0.0631  0.5221  0.1266
  606MOL0     C83496   9.859   0.986   4.313  0.1170  0.9525 -0.7216
  606MOL0     C83497   9.961   0.902   4.286  0.4824 -0.5978  0.4476
  606MOL0     O83498   9.991   0.879   4.155  0.2720 -1.4062  0.6408
  606MOL0     C83499  10.129   0.882   4.117 -0.0592 -0.0652  0.8560
  606MOL0     C83500  10.120   0.838   3.962 -0.1707  0.4191  0.4634
  606MOL0     C83501  10.122   0.685   3.954  0.9240 -0.6435  0.1228
  606MOL0     C83502  10.119   0.643   3.810 -0.6857 -0.5193 -0.1386
  606MOL0     C83503  10.237   0.698   3.731 -0.1550  0.1865  0.1809
  606MOL0     C83504  10.267   0.612   3.608 -0.1754 -0.0242 -0.6726
  606MOL0     C83505  10.375   0.666   3.519  0.7400 -1.3417 -0.2002
  606MOL0     C83506  10.440   0.578   3.414  0.6757 -0.5010 -0.2035
  606MOL0     N83507  10.555   0.641   3.357 -0.0680  0.0529 -0.2002
  606MOL0     C83508  10.550   0.702   3.230 -1.3004 -0.4940 -0.7529
  606MOL0     C83509  10.680   0.732   3.202  0.5623  0.0348 -0.2534
  606MOL0     C83510  10.729   0.815   3.089 -0.7711 -1.2191 -0.6936
  606MOL0     C83511  10.855   0.767   3.038  0.7948 -0.0281  0.0378
  606MOL0     C83512  10.919   0.867   2.942 -0.2862 -0.2309  0.2998
  606MOL0     C83513  11.059   0.811   2.895  0.0538 -0.1367  0.4142
  606MOL0     O83514  11.043   0.683   2.848 -0.0033  0.0304 -0.6861
  606MOL0     C83515  11.162   0.611   2.827 -0.6462 -1.3797 -0.0969
  606MOL0     C83516  11.291   0.671   2.842 -0.8586  0.1717 -0.2460
  606MOL0     C83517  11.408   0.598   2.827  0.6762  0.4496 -0.0204
  606MOL0     C83518  11.533   0.664   2.860 -0.6231 -0.0397 -0.8630
  606MOL0     C83519  11.406   0.464   2.786 -0.0676 -0.3546  0.2880
  606MOL0     C83520  11.523   0.373   2.761 -0.4458 -0.3368 -0.4789
  606MOL0     O83521  11.508   0.240   2.767  0.6995 -0.1498 -0.8745
  606MOL0     C83522  11.604   0.155   2.721 -0.5798 -0.2000 -0.2574
  606MOL0     C83523  11.707   0.171   2.627  0.7083  0.1885 -0.4039
  606MOL0     C83524  11.768   0.062   2.562 -0.0604 -0.0759 -0.1451
  606MOL0     C83525  11.729  -0.073   2.601  0.3858  0.3977 -0.7086
  606MOL0     O83526  11.790  -0.180   2.547 -0.1086 -0.3179  0.1650
  606MOL0     C83527  11.934  -0.181   2.548  0.2084 -0.0832  0.5506
  606MOL0     C83528  11.999  -0.306   2.492 -0.0792  0.8639  0.1176
  606MOL0     C83529  11.965  -0.312   2.336  0.2177  0.2494 -0.5608
  606MOL0     C83530  12.049  -0.431   2.287 -0.2537 -0.3107 -0.5623
  606MOL0     C83531  12.031  -0.477   2.138 -0.3526  0.2700 -0.0278
  606MOL0     C83532  11.899  -0.538   2.114 -0.1075  1.2281  0.0071
  606MOL0     C83533  11.905  -0.644   1.994 -0.8120 -0.1544 -0.3867
  606MOL0     C83534  11.937  -0.792   2.038 -0.2562 -0.3345 -0.0819
  606MOL0    Cl83535  11.964  -0.903   1.901  0.1237 -0.5215  0.3584
  606MOL0     C83536  11.641  -0.086   2.707  1.0246 -0.5105 -0.4170
  606MOL0     C83537  11.570   0.022   2.755 -0.1227 -0.0472 -0.2026
  606MOL0     O83538  11.628   0.427   2.723 -0.5649 -0.1316  0.1041
  606MOL0     C83539  11.274   0.405   2.771 -0.4000 -0.8580  0.4592
  606MOL0     C83540  11.156   0.474   2.799 -0.5694  0.2808 -0.0634
  606MOL0     N83541  10.760   0.671   3.300  0.5825  0.0592 -0.0792
  606MOL0     N83542  10.688   0.606   3.382  0.1707 -0.4522  0.2948
  606MOL0     C83543  10.039   0.838   4.384  0.4356  0.0677 -0.0383
  606MOL0     C83544  10.011   0.856   4.524 -0.1902 -0.6189  0.1453
  606MOL0     C83545   9.754   0.852   4.863 -0.2995  1.1768  0.3900
  606MOL0     C83546   9.805   0.962   4.941  0.4875  0.1279 -0.1824
  606MOL0     C83547   9.775   0.983   5.073  0.1065  0.6081  0.9970
  606MOL0     C83548   9.696   0.895   5.143  0.0991 -0.0784 -0.4503
  606MOL0     O83549   9.678   0.918   5.273 -0.6361 -0.2897  0.4964
  606MOL0     C83550   9.617   0.816   5.359  0.2016 -1.0008  1.0330
  606MOL0     C83551   9.624   0.878   5.501  0.2847  0.3941 -0.1257
  606MOL0     C83552   9.763   0.870   5.566 -0.9490 -0.4351 -0.1783
  606MOL0     C83553   9.747   0.923   5.700 -0.1094 -0.3360 -0.0287
  606MOL0     C83554   9.878   0.915   5.761 -0.4045 -0.3612 -0.2336
  606MOL0     C83555   9.995   0.902   5.789 -0.5015 -0.3773 -0.2771
  606MOL0     C83556   9.652   0.775   5.078  1.1379 -1.2523 -1.1207
  606MOL0     C83557   9.685   0.753   4.944  0.9526  0.0385  0.1695
  606MOL0     C83558   9.624   0.636   4.877  0.2547 -0.3804  0.2228
  606MOL0     H83559   9.760   1.081   4.481  2.4706  2.6773  0.6893
  606MOL0     H83560   9.819   1.042   4.229  0.5935 -2.2340 -3.2431
  606MOL0     H83561  10.200   0.811   4.159 -0.2770 -0.9266 -0.1895
  606MOL0     H83562  10.165   0.985   4.127  0.8217  0.3034 -3.8594
  606MOL0     H83563  10.033   0.878   3.910  1.2917  0.2096 -2.3332
  606MOL0     H83564  10.203   0.892   3.916 -0.8930  2.0598  1.0151
  606MOL0     H83565  10.218   0.645   3.987  0.4751 -1.1566  0.8306
  606MOL0     H83566  10.036   0.640   4.005  0.5343  1.0319  1.0059
  606MOL0     H83567  10.111   0.534   3.803 -0.5492 -0.4221 -2.2142
  606MOL0     H83568  10.027   0.686   3.768 -2.6244 -2.6510  1.6002
  606MOL0     H83569  10.332   0.692   3.785 -0.8137 -2.3504  1.1928
  606MOL0     H83570  10.230   0.803   3.700 -0.5503  0.4272  1.0423
  606MOL0     H83571  10.307   0.520   3.649  1.1782  0.2803 -1.2566
  606MOL0     H83572  10.175   0.595   3.551 -0.9323  0.3825  0.3940
  606MOL0     H83573  10.454   0.703   3.585  1.7810 -1.6437 -1.2386
  606MOL0     H83574  10.338   0.757   3.472  0.4669 -1.4358 -0.1672
  606MOL0     H83575  10.461   0.481   3.460  3.4039 -0.6261 -1.5507
  606MOL0     H83576  10.372   0.567   3.329 -0.6814  0.3490  0.7261
  606MOL0     H83577  10.472   0.734   3.162  2.8037  2.2742 -4.7412
  606MOL0     H83578  10.741   0.920   3.117  1.9636 -1.4384 -0.8427
  606MOL0     H83579  10.658   0.816   3.005  0.1968 -0.0689 -1.5299
  606MOL0     H83580  10.928   0.751   3.118  2.6642  0.1024 -1.5587
  606MOL0     H83581  10.840   0.666   2.997 -0.3165 -0.7633  2.1120
  606MOL0     H83582  10.858   0.873   2.852 -1.4705 -0.3214  1.0659
  606MOL0     H83583  10.929   0.967   2.985 -2.2973 -0.0850  0.5356
  606MOL0     H83584  11.100   0.877   2.819 -0.6709  0.4533  0.5195
  606MOL0     H83585  11.132   0.808   2.977 -0.1757  0.4230  0.6496
  606MOL0     H83586  11.307   0.776   2.863 -0.0877  0.4507 -2.0556
  606MOL0     H83587  11.584   0.676   2.764 -0.4827  4.1921 -0.4355
  606MOL0     H83588  11.595   0.602   2.925 -1.2070  0.3265  0.0779
  606MOL0     H83589  11.516   0.753   2.921 -0.0119 -0.8483  0.5311
  606MOL0     H83590  11.738   0.265   2.582 -0.9028  0.4743 -1.0042
  606MOL0     H83591  11.852   0.081   2.495  0.5065  4.8909  1.6037
  606MOL0     H83592  11.976  -0.107   2.479  0.8278 -0.2421  0.7496
  606MOL0     H83593  11.960  -0.153   2.651 -2.7428  3.4606  0.5284
  606MOL0     H83594  12.108  -0.309   2.496  0.0178  1.4012 -1.3467
  606MOL0     H83595  11.964  -0.393   2.549  0.4669  0.7406  0.2651
  606MOL0     H83596  11.981  -0.219   2.282 -0.7358  1.5987  1.3463
  606MOL0     H83597  11.859  -0.333   2.319  0.0360  3.0192 -3.7549
  606MOL0     H83598  12.014  -0.512   2.352 -0.4593 -0.9909 -1.5085
  606MOL0     H83599  12.157  -0.413   2.294 -0.6952  2.4729  0.2438
  606MOL0     H83600  12.048  -0.397   2.066 -0.0554 -1.2822 -1.7391
  606MOL0     H83601  12.104  -0.557   2.127 -0.9243 -0.9035  3.4792
  606MOL0     H83602  11.832  -0.459   2.080 -0.6634  0.7619  0.0005
  606MOL0     H83603  11.862  -0.581   2.207 -0.8960  3.5589  0.8267
  606MOL0     H83604  11.969  -0.590   1.924 -0.6567  0.5200  0.2603
  606MOL0     H83605  11.802  -0.647   1.956 -1.3879 -3.6951  1.0168
  606MOL0     H83606  11.857  -0.833   2.101 -0.2273 -1.2032 -0.5916
  606MOL0     H83607  12.028  -0.782   2.097 -0.0851  2.8380 -0.7074
  606MOL0     H83608  11.617  -0.186   2.744 -1.6781  0.8712  1.9917
  606MOL0     H83609  11.485   0.002   2.820  1.4137  2.3004  2.8059
  606MOL0     H83610  11.262   0.301   2.742 -2.6458 -1.1532  2.2259
  606MOL0     H83611  11.063   0.419   2.808 -0.3350  0.0033  0.7873
  606MOL0     H83612  10.102   0.755   4.352 -1.6373 -1.7940  0.4169
  606MOL0     H83613  10.056   0.792   4.599 -1.4767  0.2623  1.7356
  606MOL0     H83614   9.882   1.028   4.902  0.5006  1.3283  1.7672
  606MOL0     H83615   9.817   1.070   5.122  2.6963 -1.8219  3.4669
  606MOL0     H83616   9.509   0.809   5.343 -0.6090  1.3446  4.3376
  606MOL0     H83617   9.664   0.717   5.364 -0.7127 -1.3868  3.9840
  606MOL0     H83618   9.547   0.825   5.557  1.5027 -1.0463  0.2566
  606MOL0     H83619   9.596   0.983   5.498  0.7353  0.5137 -0.3469
  606MOL0     H83620   9.805   0.770   5.579 -0.5628 -0.3105 -0.4600
  606MOL0     H83621   9.834   0.938   5.517 -1.7029  2.0124  1.8869
  606MOL0     H83622   9.669   0.876   5.760 -1.3169  0.7035 -0.7409
  606MOL0     H83623   9.729   1.031   5.702  0.1749 -0.2669  2.5894
  606MOL0     H83624  10.095   0.873   5.815 -1.2347 -1.7137  1.2030
  606MOL0     H83625   9.597   0.699   5.132  1.5788 -0.3698  0.6431
  606MOL0     H83626   9.552   0.584   4.940  1.1065 -0.8543  0.8235
  606MOL0     H83627   9.582   0.661   4.779  1.4056  0.2708 -0.1326
  606MOL0     H83628   9.702   0.564   4.850 -0.9171 -0.9078 -2.0159
  607MOL0     O83629  11.308   9.004   1.198  0.2092  0.0846 -0.8423
  607MOL0     C83630  11.278   8.999   1.320  1.1705  0.2098  0.2170
  607MOL0     O83631  11.262   9.106   1.402 -0.4196  0.6832 -0.3006
  607MOL0     C83632  11.278   9.235   1.355  0.3182 -0.0124 -0.3732
  607MOL0     C83633  11.403   9.289   1.345 -0.3731 -0.5468 -0.1373
  607MOL0     C83634  11.420   9.417   1.300  0.5943 -0.3975 -1.0636
  607MOL0     C83635  11.313   9.498   1.261  0.2392  0.3827  0.6991
  607MOL0     O83636  11.341   9.631   1.236  0.1769  0.7750 -0.1543
  607MOL0     C83637  11.247   9.692   1.142  0.3282  0.9560  0.1302
  607MOL0     C83638  11.333   9.766   1.033  0.1780  0.7709 -0.8096
  607MOL0     C83639  11.253   9.808   0.910  0.7333 -1.2370 -0.4845
  607MOL0     C83640  11.197   9.713   0.809 -0.0928  0.1602 -0.3716
  607MOL0     C83641  11.089   9.767   0.721  0.0293 -0.3284 -1.0765
  607MOL0     C83642  11.016   9.656   0.640  0.3009  0.0585  0.5482
  607MOL0     C83643  11.108   9.590   0.540  0.8591  0.7869  0.2854
  607MOL0     C83644  11.021   9.498   0.447  0.1826  1.3617  0.2598
  607MOL0     N83645  11.085   9.419   0.350 -0.7136  0.4285 -0.1294
  607MOL0     C83646  11.099   9.279   0.358  0.9362 -0.1666  0.3146
  607MOL0     C83647  11.195   9.245   0.272 -0.1016  0.1242  1.0656
  607MOL0     C83648  11.234   9.100   0.224 -0.3822  0.0499 -0.5235
  607MOL0     C83649  11.234   9.088   0.072 -0.1059  0.1769 -0.1362
  607MOL0     C83650  11.246   8.936   0.041  0.5024  0.3770 -0.4215
  607MOL0     C83651  11.247   8.921  -0.103 -0.0954  0.4678  1.3711
  607MOL0     O83652  11.373   8.960  -0.161 -0.5509 -0.3468 -0.0201
  607MOL0     C83653  11.477   8.872  -0.173 -0.4566  0.1669 -0.0214
  607MOL0     C83654  11.614   8.906  -0.142 -0.1033  0.5950 -0.5237
  607MOL0     C83655  11.733   8.838  -0.178 -0.0343  0.2242  0.4166
  607MOL0     C83656  11.865   8.919  -0.166  0.5894  0.6852 -0.0457
  607MOL0     C83657  11.712   8.712  -0.239  0.7485  1.1470  0.5563
  607MOL0     C83658  11.836   8.631  -0.288  0.2982 -0.3214 -0.2994
  607MOL0     O83659  11.942   8.624  -0.207 -0.0461 -0.6397  0.3891
  607MOL0     C83660  12.054   8.550  -0.255 -0.7861  0.2928 -0.0939
  607MOL0     C83661  12.050   8.415  -0.230 -0.6707  0.3337  0.1226
  607MOL0     C83662  12.155   8.342  -0.287  0.2359  0.6533 -1.4297
  607MOL0     C83663  12.257   8.397  -0.370 -0.6043 -0.0610 -0.7404
  607MOL0     O83664  12.369   8.329  -0.419  1.0118  0.4431 -1.1765
  607MOL0     C83665  12.388   8.190  -0.366 -0.7818 -0.0228  0.3787
  607MOL0     C83666  12.487   8.134  -0.466  0.3514  0.7784  0.2975
  607MOL0     C83667  12.444   8.138  -0.613  0.5294 -0.1332 -0.4661
  607MOL0     C83668  12.479   8.011  -0.695  0.1994  0.2994 -0.1869
  607MOL0     C83669  12.432   8.006  -0.839 -1.2432  0.6574 -0.4839
  607MOL0     C83670  12.529   8.088  -0.943 -0.1332  0.0907 -0.2795
  607MOL0     C83671  12.479   8.058  -1.090  0.5366 -0.2845 -0.0297
  607MOL0     C83672  12.552   8.138  -1.200 -0.1238 -0.0901 -0.0892
  607MOL0    Cl83673  12.729   8.094  -1.212 -0.2484 -0.5821  0.4315
  607MOL0     C83674  12.256   8.527  -0.381 -0.3915 -0.2233 -0.3859
  607MOL0     C83675  12.159   8.604  -0.324  0.4010 -0.4838  0.1779
  607MOL0     O83676  11.810   8.557  -0.380  0.8139  0.1710 -0.9924
  607MOL0     C83677  11.578   8.658  -0.256  0.3033 -0.7006 -0.2564
  607MOL0     C83678  11.467   8.737  -0.222  0.5417 -0.1966  1.2628
  607MOL0     N83679  11.231   9.365   0.204  0.2270 -1.0197  1.0054
  607MOL0     N83680  11.171   9.462   0.255  0.4692 -0.1260  0.0193
  607MOL0     C83681  11.191   9.449   1.292  0.3516  0.2385 -0.8877
  607MOL0     C83682  11.169   9.318   1.340  0.1582  0.6930  0.9041
  607MOL0     C83683  11.241   8.868   1.390  0.8555 -0.3781  0.6065
  607MOL0     C83684  11.168   8.876   1.507  0.5748 -0.0502 -0.0819
  607MOL0     C83685  11.146   8.760   1.588 -0.6659 -0.3297 -0.1326
  607MOL0     C83686  11.200   8.633   1.545  0.2804  0.5198 -0.9806
  607MOL0     O83687  11.183   8.525   1.631  0.1795 -0.3590  0.1367
  607MOL0     C83688  11.217   8.389   1.603 -0.0616  0.5334  0.0666
  607MOL0     C83689  11.118   8.324   1.507  0.3574 -1.3397  0.2222
  607MOL0     C83690  10.977   8.315   1.580  0.4272  1.3091  0.9797
  607MOL0     C83691  10.947   8.169   1.630 -0.0522  0.4939 -0.8103
  607MOL0     C83692  11.041   8.127   1.733  0.8212  0.0690 -0.1642
  607MOL0     C83693  11.094   8.074   1.827  0.7195  0.6772  0.4628
  607MOL0     C83694  11.270   8.634   1.427 -0.8231 -0.6803 -0.7387
  607MOL0     C83695  11.292   8.745   1.345  0.0156  0.4470 -0.2636
  607MOL0     C83696  11.373   8.714   1.226  0.0071 -0.5836  0.1398
  607MOL0     H83697  11.484   9.225   1.379 -1.2911 -0.1153  3.2191
  607MOL0     H83698  11.513   9.469   1.319  0.0204 -0.1900  1.4813
  607MOL0     H83699  11.184   9.771   1.184 -0.9416  0.5689 -0.9653
  607MOL0     H83700  11.184   9.623   1.085  1.8609  1.7750 -2.7681
  607MOL0     H83701  11.399   9.842   1.075  2.2070 -0.6277 -1.3576
  607MOL0     H83702  11.399   9.688   0.995 -1.6751 -1.0941 -0.3777
  607MOL0     H83703  11.176   9.883   0.932  2.5477  0.1341  1.6162
  607MOL0     H83704  11.326   9.857   0.844  2.4823 -4.0561 -0.7837
  607MOL0     H83705  11.275   9.659   0.754  0.1320  1.6736 -1.6432
  607MOL0     H83706  11.142   9.635   0.861  1.0605 -0.2384  0.2953
  607MOL0     H83707  11.126   9.853   0.665 -0.5451  0.5066 -0.1917
  607MOL0     H83708  11.013   9.801   0.792  0.9493 -0.4146 -0.0321
  607MOL0     H83709  10.996   9.576   0.712  2.2670  1.0168  2.2814
  607MOL0     H83710  10.932   9.704   0.589  2.4403  2.3730 -1.0265
  607MOL0     H83711  11.181   9.536   0.601  1.0107  2.5323  1.7223
  607MOL0     H83712  11.148   9.675   0.483 -1.7359  0.7992 -1.7221
  607MOL0     H83713  10.956   9.435   0.509  1.9597 -2.0227 -1.0773
  607MOL0     H83714  10.955   9.560   0.385 -0.9309  0.0373  0.0804
  607MOL0     H83715  11.046   9.205   0.417 -0.3999  0.2021 -0.3699
  607MOL0     H83716  11.159   9.031   0.264 -0.4070  0.4893  0.2087
  607MOL0     H83717  11.321   9.059   0.276 -1.5047 -1.7907 -0.0045
  607MOL0     H83718  11.138   9.118   0.028  0.0343  1.4192  0.3834
  607MOL0     H83719  11.318   9.140   0.026 -1.5224  3.3863  0.6446
  607MOL0     H83720  11.343   8.899   0.077  1.0989  1.9782 -0.3250
  607MOL0     H83721  11.161   8.888   0.089 -0.6061  3.4504  0.9434
  607MOL0     H83722  11.222   8.824  -0.148  0.3703  2.7136 -4.7595
  607MOL0     H83723  11.173   8.980  -0.159 -1.1004 -2.2682 -0.4130
  607MOL0     H83724  11.624   9.002  -0.092  0.2671  1.6749 -2.5852
  607MOL0     H83725  11.915   8.886  -0.075  0.0861  1.7285  0.6253
  607MOL0     H83726  11.845   9.026  -0.155 -0.4348  0.8246 -2.5318
  607MOL0     H83727  11.924   8.902  -0.256  2.5592  2.0427  0.9357
  607MOL0     H83728  11.971   8.360  -0.181 -2.0883 -0.7720 -3.1104
  607MOL0     H83729  12.141   8.236  -0.266 -1.3836  0.7142 -2.0934
  607MOL0     H83730  12.441   8.196  -0.271  1.8503 -2.1101 -0.8192
  607MOL0     H83731  12.293   8.136  -0.364 -0.7075 -0.1248  1.3215
  607MOL0     H83732  12.588   8.176  -0.465  0.9819 -0.6503 -0.2780
  607MOL0     H83733  12.497   8.026  -0.451  1.1802  0.8043  0.0034
  607MOL0     H83734  12.495   8.225  -0.656 -0.4686  0.5569 -0.2725
  607MOL0     H83735  12.336   8.149  -0.620  0.0821 -3.2392 -0.0370
  607MOL0     H83736  12.430   7.925  -0.647  1.2263  0.7782  1.8680
  607MOL0     H83737  12.588   8.001  -0.689  0.3012 -0.0311 -2.0288
  607MOL0     H83738  12.426   7.903  -0.877 -1.6252  0.1933  0.7579
  607MOL0     H83739  12.333   8.052  -0.836 -1.0549  1.0847 -0.7725
  607MOL0     H83740  12.634   8.058  -0.936 -0.4981 -1.4673 -1.0435
  607MOL0     H83741  12.531   8.193  -0.912 -0.2726  0.0092  0.0138
  607MOL0     H83742  12.375   8.094  -1.086 -0.0773 -2.0827  2.6378
  607MOL0     H83743  12.477   7.952  -1.117 -0.4984 -0.4797  0.7424
  607MOL0     H83744  12.544   8.245  -1.176 -3.0346 -0.3772  0.5919
  607MOL0     H83745  12.503   8.128  -1.297  0.4272  1.6773 -0.5775
  607MOL0     H83746  12.342   8.572  -0.428  2.1278 -0.1273  3.8427
  607MOL0     H83747  12.162   8.712  -0.334 -0.0712 -0.3412  1.4185
  607MOL0     H83748  11.572   8.559  -0.300  1.9925 -0.0681 -2.0636
  607MOL0     H83749  11.376   8.705  -0.273  0.6898  0.0754  0.8220
  607MOL0     H83750  11.109   9.519   1.305  0.0159  0.3407 -3.1719
  607MOL0     H83751  11.072   9.272   1.358  1.1715 -2.0360 -0.1535
  607MOL0     H83752  11.122   8.966   1.548 -1.1346 -1.0338  0.2558
  607MOL0     H83753  11.087   8.762   1.679  0.2220  0.4679  0.4504
  607MOL0     H83754  11.320   8.389   1.566  0.0892  5.3405 -0.1593
  607MOL0     H83755  11.221   8.344   1.702  1.0402  2.7050  1.1002
  607MOL0     H83756  11.161   8.227   1.481  0.7965 -1.3697  1.0165
  607MOL0     H83757  11.115   8.388   1.419  2.4416  2.0063  2.3209
  607MOL0     H83758  10.968   8.379   1.668 -3.0151  0.6668  1.2199
  607MOL0     H83759  10.899   8.340   1.507  0.2267 -2.2000 -0.2203
  607MOL0     H83760  10.956   8.104   1.543 -1.5868  0.2611 -0.8302
  607MOL0     H83761  10.848   8.165   1.678 -0.6892  2.3387 -1.8859
  607MOL0     H83762  11.131   8.009   1.904  0.3701  1.3049  1.1708
  607MOL0     H83763  11.328   8.547   1.395 -1.6964 -0.7271 -2.3231
  607MOL0     H83764  11.469   8.767   1.231 -0.6912  0.6199  1.4024
  607MOL0     H83765  11.401   8.610   1.207 -0.7688 -1.0167  1.2441
  607MOL0     H83766  11.319   8.753   1.139 -1.8701  2.8542  2.6072
  608MOL0     O83767   8.966   4.107   7.028  0.4753  0.4043 -0.4416
  608MOL0     C83768   8.856   4.158   7.003 -0.6343 -0.5959  0.1000
  608MOL0     O83769   8.757   4.111   6.909  0.4382 -0.1190 -0.7549
  608MOL0     C83770   8.772   3.973   6.879  0.0055 -0.6082  0.1831
  608MOL0     C83771   8.803   3.871   6.975  0.1326  0.5712  0.1549
  608MOL0     C83772   8.809   3.740   6.936 -0.2624 -0.2288 -1.5980
  608MOL0     C83773   8.779   3.696   6.810 -0.8942  1.1062  1.3218
  608MOL0     O83774   8.791   3.569   6.762 -0.0854 -0.0808  1.0149
  608MOL0     C83775   8.879   3.494   6.839 -0.0219 -0.1499  0.0686
  608MOL0     C83776   8.908   3.370   6.755 -0.1009 -0.2757  0.8923
  608MOL0     C83777   8.792   3.271   6.739  0.1605 -0.5658 -0.4303
  608MOL0     C83778   8.744   3.213   6.878  0.0565 -0.2995 -0.0433
  608MOL0     C83779   8.712   3.065   6.887 -0.2951  0.4624 -0.5224
  608MOL0     C83780   8.724   3.022   7.035 -0.2355 -0.4137  0.0764
  608MOL0     C83781   8.685   2.872   7.049 -0.0542 -1.3573  0.2216
  608MOL0     C83782   8.798   2.788   6.983  0.2262  0.4068 -0.1547
  608MOL0     N83783   8.794   2.645   7.007 -0.0787 -1.2553 -0.5306
  608MOL0     C83784   8.679   2.569   7.031 -0.0546  0.0878 -0.0744
  608MOL0     C83785   8.731   2.440   7.041  0.4059  0.3280  0.5644
  608MOL0     C83786   8.654   2.311   7.048 -0.1967  1.2685  0.3131
  608MOL0     C83787   8.592   2.256   6.916  0.0490 -0.5539  0.1071
  608MOL0     C83788   8.444   2.276   6.930 -0.0421  0.0729  0.4729
  608MOL0     C83789   8.362   2.234   6.808  0.6711 -0.2438 -0.0972
  608MOL0     O83790   8.367   2.092   6.782  0.0888 -0.2329 -0.5840
  608MOL0     C83791   8.285   2.005   6.848 -0.0523  1.0361 -0.9691
  608MOL0     C83792   8.207   2.021   6.966 -0.8690  1.4128 -0.9914
  608MOL0     C83793   8.138   1.919   7.035  0.5447  0.0592 -0.6271
  608MOL0     C83794   8.091   1.932   7.179 -0.4118  0.1226 -0.4194
  608MOL0     C83795   8.131   1.789   6.971  0.3638 -0.1829  1.3514
  608MOL0     C83796   8.057   1.671   7.022  0.6278  0.4822  1.1309
  608MOL0     O83797   8.106   1.550   7.015  1.1120  0.5952  0.2808
  608MOL0     C83798   8.032   1.435   7.042  0.6059 -0.3653  0.7663
  608MOL0     C83799   8.060   1.363   7.154  0.3957  0.2441  0.0794
  608MOL0     C83800   7.995   1.236   7.180 -0.1904 -0.2981  0.4987
  608MOL0     C83801   7.909   1.182   7.085 -0.2558 -0.1837 -0.1836
  608MOL0     O83802   7.841   1.066   7.113 -0.2382 -0.6527 -0.0870
  608MOL0     C83803   7.715   1.027   7.062 -0.1202 -0.6568  0.4492
  608MOL0     C83804   7.681   0.889   7.115  0.1154  0.2095 -0.3321
  608MOL0     C83805   7.528   0.869   7.128 -0.0988  0.0672 -1.0873
  608MOL0     C83806   7.477   0.722   7.154  0.7972 -0.1410 -0.1691
  608MOL0     C83807   7.313   0.730   7.158  0.5505 -0.0598 -0.0665
  608MOL0     C83808   7.235   0.592   7.186 -0.1842 -1.4491  0.1337
  608MOL0     C83809   7.239   0.558   7.332 -0.9278 -0.6914  0.4880
  608MOL0     C83810   7.227   0.409   7.354 -0.3585 -0.3214 -0.3564
  608MOL0    Cl83811   7.061   0.348   7.342 -0.3129 -0.1248 -0.1607
  608MOL0     C83812   7.885   1.258   6.969 -0.3520 -1.0222 -0.0841
  608MOL0     C83813   7.945   1.376   6.954  0.6903 -0.5367  0.3782
  608MOL0     O83814   7.941   1.699   7.061  0.1770  0.5912 -0.1262
  608MOL0     C83815   8.193   1.781   6.840 -1.0871 -0.0967 -0.1682
  608MOL0     C83816   8.271   1.882   6.783  0.2778 -0.3512  0.1031
  608MOL0     N83817   8.868   2.449   7.051  0.5702 -1.0485  0.2121
  608MOL0     N83818   8.907   2.575   7.028 -0.0787 -0.8272 -0.8629
  608MOL0     C83819   8.758   3.797   6.713 -0.4890  0.3819  0.2320
  608MOL0     C83820   8.761   3.936   6.745  0.0477  0.7398 -0.2034
  608MOL0     C83821   8.833   4.290   7.058 -0.2411 -0.9187 -0.5929
  608MOL0     C83822   8.707   4.351   7.038  0.4517  0.7581 -0.3478
  608MOL0     C83823   8.662   4.458   7.112  0.6434  0.0715 -0.9167
  608MOL0     C83824   8.758   4.540   7.185  1.1595 -0.4946  0.0333
  608MOL0     O83825   8.707   4.657   7.226  0.0121 -0.6052 -0.4642
  608MOL0     C83826   8.762   4.699   7.353 -0.2895 -0.9870 -0.7965
  608MOL0     C83827   8.737   4.610   7.470 -0.4484 -0.1370  0.1008
  608MOL0     C83828   8.592   4.592   7.495 -1.0440  0.7605  0.1625
  608MOL0     C83829   8.507   4.723   7.517 -0.3086  0.3106  0.4945
  608MOL0     C83830   8.386   4.694   7.598  0.6450  0.9170  0.1316
  608MOL0     C83831   8.284   4.670   7.666 -0.0507  0.3888 -0.0494
  608MOL0     C83832   8.890   4.500   7.182 -0.5136  0.7155  0.4977
  608MOL0     C83833   8.928   4.371   7.135  0.6340  0.3907 -0.4566
  608MOL0     C83834   9.072   4.337   7.156 -0.5132  0.6737  0.4600
  608MOL0     H83835   8.817   3.891   7.080 -0.5354 -1.8490  0.7710
  608MOL0     H83836   8.841   3.675   7.017 -0.0666  1.3436 -0.3777
  608MOL0     H83837   8.821   3.467   6.928 -1.5504  1.3288 -0.4436
  608MOL0     H83838   8.973   3.540   6.870 -0.3712 -1.4521  3.5973
  608MOL0     H83839   8.940   3.400   6.655  2.2203 -0.5301  1.5037
  608MOL0     H83840   8.985   3.316   6.811 -2.6471 -0.9280  4.0789
  608MOL0     H83841   8.707   3.307   6.681 -0.8304  1.0331  1.8693
  608MOL0     H83842   8.840   3.190   6.684  1.6331  0.9216 -1.4314
  608MOL0     H83843   8.838   3.224   6.932 -1.2355  2.7565  1.8116
  608MOL0     H83844   8.676   3.280   6.931 -0.1115 -0.6447  0.1806
  608MOL0     H83845   8.774   3.014   6.814  1.8213  2.0035  0.1029
  608MOL0     H83846   8.606   3.048   6.862  0.0000 -0.4800 -1.1937
  608MOL0     H83847   8.817   3.062   7.078 -0.3775  2.4390 -1.9951
  608MOL0     H83848   8.647   3.083   7.083 -0.3129  1.0188 -1.7347
  608MOL0     H83849   8.591   2.849   6.997 -0.0306 -1.3234  0.1644
  608MOL0     H83850   8.669   2.850   7.155 -0.3109  1.8149  0.9463
  608MOL0     H83851   8.792   2.794   6.874  1.5223 -1.7692 -0.4205
  608MOL0     H83852   8.895   2.826   7.017 -0.0426 -0.3295  1.5042
  608MOL0     H83853   8.573   2.591   7.038 -0.6008 -1.9871 -0.8997
  608MOL0     H83854   8.575   2.319   7.124 -0.0566  2.7252  0.3218
  608MOL0     H83855   8.723   2.231   7.078 -2.3769 -1.4503 -1.3727
  608MOL0     H83856   8.628   2.318   6.833 -0.9445 -0.3979 -0.2167
  608MOL0     H83857   8.632   2.156   6.899  3.7200  0.9316 -1.0179
  608MOL0     H83858   8.418   2.212   7.015 -0.6792  0.6886  0.7562
  608MOL0     H83859   8.415   2.380   6.947 -0.3762 -0.0519  0.6731
  608MOL0     H83860   8.257   2.264   6.807  0.7245  0.0170 -2.5387
  608MOL0     H83861   8.399   2.294   6.725  1.8863 -0.8291 -0.0052
  608MOL0     H83862   8.188   2.123   6.998 -0.2448  1.3515 -0.4157
  608MOL0     H83863   7.987   1.900   7.182  0.1271 -1.7159  0.4290
  608MOL0     H83864   8.101   2.036   7.211  0.0669 -0.3772  1.1355
  608MOL0     H83865   8.146   1.867   7.248  0.5339 -0.6538 -1.8587
  608MOL0     H83866   8.137   1.395   7.223 -1.1667  2.5815  0.8367
  608MOL0     H83867   8.029   1.186   7.270  1.5568 -3.7272 -1.8752
  608MOL0     H83868   7.639   1.103   7.083  1.0127  0.3241  1.1364
  608MOL0     H83869   7.715   1.026   6.952 -1.2176 -0.1591  0.4258
  608MOL0     H83870   7.733   0.808   7.062 -0.6740 -1.0814  0.7995
  608MOL0     H83871   7.724   0.874   7.215 -0.1258  3.8395  0.4565
  608MOL0     H83872   7.491   0.888   7.026 -0.7714 -1.3513 -1.1365
  608MOL0     H83873   7.495   0.936   7.207  0.2418  0.1678 -1.0267
  608MOL0     H83874   7.512   0.694   7.254 -0.1000  2.0806  0.8304
  608MOL0     H83875   7.518   0.657   7.076  0.8487  0.5457 -0.7222
  608MOL0     H83876   7.278   0.805   7.229  0.1827 -2.0162  1.9304
  608MOL0     H83877   7.282   0.767   7.059  2.2680 -0.3946 -0.7667
  608MOL0     H83878   7.284   0.512   7.131 -1.4476 -2.2251  0.1069
  608MOL0     H83879   7.132   0.595   7.150 -0.6524 -1.4921  1.4127
  608MOL0     H83880   7.168   0.619   7.390 -0.5181 -0.8656  1.1928
  608MOL0     H83881   7.340   0.577   7.370 -0.8936 -3.4434  1.9915
  608MOL0     H83882   7.267   0.404   7.456  2.3582 -0.1494 -1.3478
  608MOL0     H83883   7.300   0.366   7.285  1.1619 -2.0967  2.1844
  608MOL0     H83884   7.810   1.220   6.900 -0.3174 -3.7991  1.2670
  608MOL0     H83885   7.926   1.415   6.854  0.9751 -3.1125 -0.7746
  608MOL0     H83886   8.185   1.688   6.785  0.7485 -1.8448  2.2575
  608MOL0     H83887   8.316   1.855   6.688 -0.9803  1.4529 -1.0642
  608MOL0     H83888   8.742   3.768   6.610  2.0963 -0.7854  0.0742
  608MOL0     H83889   8.736   4.003   6.664 -1.6613  1.2778  0.7211
  608MOL0     H83890   8.627   4.289   6.998 -0.4433 -0.5579  3.0906
  608MOL0     H83891   8.558   4.486   7.097  0.5597 -0.3363 -1.1111
  608MOL0     H83892   8.867   4.731   7.350 -0.6432  0.3607  0.3034
  608MOL0     H83893   8.724   4.796   7.387  4.5829  0.7931  0.3905
  608MOL0     H83894   8.782   4.651   7.561 -2.1578 -0.1923  1.0154
  608MOL0     H83895   8.774   4.512   7.441 -1.3346 -0.0408 -1.5286
  608MOL0     H83896   8.559   4.545   7.402 -0.5940  1.9529 -0.6239
  608MOL0     H83897   8.571   4.518   7.572 -1.6486 -0.1843 -0.8875
  608MOL0     H83898   8.490   4.745   7.411 -1.9015 -2.7531 -0.0209
  608MOL0     H83899   8.558   4.807   7.565 -4.4964  3.9974 -0.8005
  608MOL0     H83900   8.205   4.645   7.734 -1.8003  4.3423 -0.3509
  608MOL0     H83901   8.967   4.561   7.228  2.2495  1.4099 -4.3868
  608MOL0     H83902   9.113   4.305   7.060  1.5184  1.1470  1.1320
  608MOL0     H83903   9.129   4.427   7.180 -0.4904  1.5330 -2.4513
  608MOL0     H83904   9.073   4.260   7.234 -0.5418 -0.9581 -1.0993
  609MOL0     O83905   8.855   2.043   1.943 -0.5577  0.3393 -0.5309
  609MOL0     C83906   8.753   2.031   2.004  0.8908 -0.1408  1.0863
  609MOL0     O83907   8.675   1.922   2.008 -0.3041 -0.2865  0.1100
  609MOL0     C83908   8.718   1.800   1.963 -0.5220 -0.4735  0.1904
  609MOL0     C83909   8.643   1.728   1.865  0.8514  0.3649  0.1207
  609MOL0     C83910   8.675   1.609   1.819 -0.4812 -0.2202 -0.2966
  609MOL0     C83911   8.794   1.548   1.862 -0.3932  0.2737  0.5660
  609MOL0     O83912   8.819   1.427   1.799  0.5383  0.3211  0.0087
  609MOL0     C83913   8.918   1.338   1.856 -0.2603 -0.5233 -0.5919
  609MOL0     C83914   8.840   1.262   1.960 -0.4443  0.8252 -0.3773
  609MOL0     C83915   8.924   1.129   1.990  0.1923 -0.3077  0.3573
  609MOL0     C83916   9.060   1.144   2.059 -1.0208 -0.1050 -0.3254
  609MOL0     C83917   9.083   1.251   2.166 -0.0966  0.0255  0.4602
  609MOL0     C83918   9.223   1.245   2.229 -0.3019  0.1032 -0.0138
  609MOL0     C83919   9.281   1.375   2.284 -0.1001 -0.5051 -0.0761
  609MOL0     C83920   9.406   1.336   2.358  0.3633 -0.5699 -0.6153
  609MOL0     N83921   9.387   1.274   2.498 -0.2646 -0.5617  0.0530
  609MOL0     C83922   9.316   1.325   2.601 -0.1012  0.1493 -0.0674
  609MOL0     C83923   9.321   1.227   2.697  0.3366 -0.1760 -0.2496
  609MOL0     C83924   9.262   1.257   2.834  1.1782  0.3376 -0.2243
  609MOL0     C83925   9.112   1.293   2.814  0.3242  1.0195 -0.1003
  609MOL0     C83926   9.040   1.285   2.950 -0.1751 -0.4793  0.4175
  609MOL0     C83927   8.897   1.334   2.958  0.4079 -1.0092 -0.7111
  609MOL0     O83928   8.892   1.473   2.951  0.0801 -0.5786 -0.3840
  609MOL0     C83929   8.766   1.541   2.950 -0.2485 -1.0764 -0.1985
  609MOL0     C83930   8.778   1.681   2.945  1.4283  0.4510 -0.3655
  609MOL0     C83931   8.663   1.763   2.947  0.1945 -1.2476 -0.3123
  609MOL0     C83932   8.681   1.911   2.934 -0.4077  0.6264  0.6103
  609MOL0     C83933   8.535   1.700   2.945  0.5805  0.0088  0.1224
  609MOL0     C83934   8.403   1.773   2.952 -0.0472 -0.2481 -0.1890
  609MOL0     O83935   8.293   1.698   2.962  1.1238  0.1105  0.4110
  609MOL0     C83936   8.183   1.748   3.030 -1.2537  0.2166 -0.2243
  609MOL0     C83937   8.056   1.707   2.996  1.3227 -0.0328  0.1634
  609MOL0     C83938   7.941   1.714   3.083 -0.6458  0.8806 -0.2354
  609MOL0     C83939   7.950   1.787   3.198 -0.6963  0.1157 -0.7786
  609MOL0     O83940   7.830   1.801   3.268  0.4757 -0.1301  1.1488
  609MOL0     C83941   7.793   1.935   3.307  1.2969  1.2251 -0.7504
  609MOL0     C83942   7.647   1.930   3.347 -0.6506 -0.1612 -0.4719
  609MOL0     C83943   7.558   1.844   3.251 -0.0494  0.2035 -0.3733
  609MOL0     C83944   7.409   1.875   3.264  0.0964  0.6072 -1.2336
  609MOL0     C83945   7.329   1.774   3.168  0.0886  0.7118  0.0362
  609MOL0     C83946   7.187   1.809   3.138  0.2905  1.5883 -0.5173
  609MOL0     C83947   7.102   1.844   3.259 -0.2978 -0.5298  0.7299
  609MOL0     C83948   6.950   1.844   3.225 -0.3102  0.1792  0.6376
  609MOL0    Cl83949   6.908   1.966   3.089 -0.2969  0.4261 -0.0110
  609MOL0     C83950   8.076   1.842   3.236 -0.3731 -0.5326 -0.2093
  609MOL0     C83951   8.185   1.815   3.154  0.1161  0.6954 -0.1611
  609MOL0     O83952   8.400   1.892   2.948  0.1670 -0.4672  0.3045
  609MOL0     C83953   8.523   1.557   2.937 -0.1366 -0.3442 -0.0398
  609MOL0     C83954   8.642   1.484   2.939  0.9167  0.1499 -0.1851
  609MOL0     N83955   9.400   1.123   2.656 -0.0999  0.8718 -0.1155
  609MOL0     N83956   9.435   1.151   2.535  0.3611 -0.6401 -0.0083
  609MOL0     C83957   8.881   1.619   1.951 -0.0503 -0.4936  0.1865
  609MOL0     C83958   8.840   1.741   2.008  0.4492 -0.9852 -0.2698
  609MOL0     C83959   8.696   2.160   2.050  0.2498 -0.2514 -0.0216
  609MOL0     C83960   8.770   2.243   2.138 -0.4966  1.1026  0.0490
  609MOL0     C83961   8.717   2.363   2.188 -0.6536  0.2206 -0.1213
  609MOL0     C83962   8.594   2.407   2.150  0.1995  0.0810 -0.8225
  609MOL0     O83963   8.525   2.517   2.195 -0.3918  0.0270 -0.5569
  609MOL0     C83964   8.586   2.650   2.175  0.3383 -0.2177 -0.1534
  609MOL0     C83965   8.552   2.729   2.038 -0.4984 -0.8828 -0.8163
  609MOL0     C83966   8.396   2.749   2.017 -0.0636  0.5574  0.8391
  609MOL0     C83967   8.359   2.849   1.900  0.0491  0.2275  0.7260
  609MOL0     C83968   8.328   2.765   1.780 -0.7428  0.4745 -0.3200
  609MOL0     C83969   8.309   2.724   1.664  0.3660  0.1188 -0.5869
  609MOL0     C83970   8.514   2.318   2.085  0.4576  1.3378 -0.0331
  609MOL0     C83971   8.558   2.199   2.031 -0.7817  0.6543 -0.3606
  609MOL0     C83972   8.467   2.107   1.956 -0.9714  0.9907 -0.0024
  609MOL0     H83973   8.559   1.787   1.828 -2.0605 -1.7824  2.7024
  609MOL0     H83974   8.616   1.563   1.740 -2.2045  2.4273 -0.6627
  609MOL0     H83975   9.005   1.389   1.897 -3.0052  0.1890  5.2807
  609MOL0     H83976   8.953   1.264   1.783  2.5609  0.7186 -0.5893
  609MOL0     H83977   8.828   1.309   2.058  2.9153 -1.2598  1.2323
  609MOL0     H83978   8.746   1.222   1.921  0.2750 -4.1141  2.0180
  609MOL0     H83979   8.865   1.064   2.055  0.4746  0.6967  1.6409
  609MOL0     H83980   8.935   1.067   1.900 -1.9799 -1.8928  1.1073
  609MOL0     H83981   9.071   1.055   2.122 -1.3913 -1.2551 -1.7996
  609MOL0     H83982   9.129   1.159   1.975 -0.2152 -0.0969  0.3276
  609MOL0     H83983   9.008   1.244   2.245 -1.3694  0.9484 -0.6113
  609MOL0     H83984   9.070   1.351   2.124 -0.5961 -0.8994 -1.7685
  609MOL0     H83985   9.213   1.183   2.318 -1.9405  0.6557  0.2267
  609MOL0     H83986   9.289   1.204   2.153  0.1758 -0.3089  0.6138
  609MOL0     H83987   9.208   1.430   2.344 -0.3619 -0.6712 -0.2420
  609MOL0     H83988   9.306   1.448   2.206 -0.3304  0.6568  0.9100
  609MOL0     H83989   9.458   1.266   2.292 -0.5114 -1.0000 -0.8673
  609MOL0     H83990   9.474   1.421   2.368 -0.3341  0.0050 -0.6964
  609MOL0     H83991   9.264   1.419   2.614  1.1109  0.8685 -0.2960
  609MOL0     H83992   9.316   1.335   2.887 -0.9082  0.8686  1.2690
  609MOL0     H83993   9.271   1.163   2.889 -3.1906 -0.6530 -0.8007
  609MOL0     H83994   9.109   1.397   2.780  0.0379  1.8806  2.4091
  609MOL0     H83995   9.077   1.218   2.742  3.5133 -1.1299  0.3800
  609MOL0     H83996   9.052   1.179   2.975 -1.2892 -0.7557 -0.1677
  609MOL0     H83997   9.097   1.352   3.015  1.7865 -1.2912 -0.3838
  609MOL0     H83998   8.840   1.284   2.878 -0.2415 -1.5409  0.0667
  609MOL0     H83999   8.850   1.313   3.055  1.3529  5.8243  1.7609
  609MOL0     H84000   8.879   1.720   2.950  2.0461 -1.1945  3.1960
  609MOL0     H84001   8.785   1.933   2.908 -1.0805  2.7349 -0.5138
  609MOL0     H84002   8.673   1.949   3.037  1.4226 -0.1537  1.0887
  609MOL0     H84003   8.617   1.962   2.862 -0.9387  0.5589  1.0233
  609MOL0     H84004   8.037   1.651   2.905 -1.6088 -0.9221  1.1859
  609MOL0     H84005   7.848   1.675   3.044  0.6949 -0.5260 -2.2091
  609MOL0     H84006   7.853   1.975   3.389  0.0643  1.7833 -0.0951
  609MOL0     H84007   7.807   1.998   3.219 -1.5215  3.2753  0.1496
  609MOL0     H84008   7.654   1.877   3.443  0.4603  0.6921 -0.0711
  609MOL0     H84009   7.609   2.029   3.371 -0.3808 -0.3075  0.6360
  609MOL0     H84010   7.587   1.741   3.273  1.1748 -0.1846 -3.2756
  609MOL0     H84011   7.587   1.864   3.147  1.3172  1.4245  0.2060
  609MOL0     H84012   7.388   1.982   3.253 -0.8044  0.8805  2.0865
  609MOL0     H84013   7.386   1.846   3.367  2.2525  2.2171 -0.2267
  609MOL0     H84014   7.383   1.779   3.073 -0.0035  3.6356  0.0623
  609MOL0     H84015   7.318   1.674   3.211 -1.2893 -0.5771 -3.0356
  609MOL0     H84016   7.147   1.721   3.086  1.2816  1.1261 -0.5064
  609MOL0     H84017   7.189   1.888   3.063 -0.4327  0.9383 -1.2365
  609MOL0     H84018   7.129   1.943   3.299  0.3139  0.0162 -0.9490
  609MOL0     H84019   7.119   1.761   3.328  1.7259 -0.3068  0.5590
  609MOL0     H84020   6.887   1.864   3.312  0.0314  0.1226  0.9003
  609MOL0     H84021   6.932   1.744   3.185  2.1226  0.5828 -1.8245
  609MOL0     H84022   8.088   1.892   3.331 -1.7258 -0.2010 -0.2045
  609MOL0     H84023   8.284   1.844   3.187 -0.4503 -0.8129  3.3276
  609MOL0     H84024   8.427   1.507   2.934  0.2838 -1.2102  0.5804
  609MOL0     H84025   8.629   1.376   2.946 -1.6506  0.4722  1.4701
  609MOL0     H84026   8.974   1.580   1.991  0.8830  0.4561 -0.9864
  609MOL0     H84027   8.888   1.796   2.088 -0.3274 -0.3783 -0.2107
  609MOL0     H84028   8.873   2.210   2.145 -0.1882  1.6522 -1.4230
  609MOL0     H84029   8.782   2.427   2.246  2.2588 -2.2888 -0.3832
  609MOL0     H84030   8.571   2.713   2.263 -1.8663  0.9115 -1.2578
  609MOL0     H84031   8.692   2.632   2.159  0.6784  0.4534  1.1657
  609MOL0     H84032   8.605   2.675   1.959 -1.0791 -0.7035 -1.3314
  609MOL0     H84033   8.590   2.828   2.066 -1.4954 -1.2916  2.4194
  609MOL0     H84034   8.358   2.648   1.997  0.9582  0.1472  0.8915
  609MOL0     H84035   8.354   2.788   2.111 -0.4764 -0.3800  1.0592
  609MOL0     H84036   8.443   2.916   1.882  0.9936 -0.5167  2.1686
  609MOL0     H84037   8.270   2.905   1.930 -2.1087 -0.5487 -3.4140
  609MOL0     H84038   8.296   2.703   1.560  3.1257 -0.0094 -0.9773
  609MOL0     H84039   8.409   2.345   2.080  0.5094  1.4054 -0.7877
  609MOL0     H84040   8.504   2.102   1.853  1.8356 -1.6694  0.9879
  609MOL0     H84041   8.471   2.005   1.997 -1.7061 -0.0844 -2.3880
  609MOL0     H84042   8.365   2.145   1.969 -1.8049 -1.0250 -0.1942
  610MOL0     O84043  11.453   7.645   5.983  0.8226 -0.1272  0.0268
  610MOL0     C84044  11.398   7.623   6.089 -0.3687  0.0736  0.6053
  610MOL0     O84045  11.285   7.684   6.129  0.7768  0.1208  0.4898
  610MOL0     C84046  11.221   7.760   6.032  0.1233 -0.3006 -1.3583
  610MOL0     C84047  11.087   7.734   6.008  0.5003 -0.3162 -0.3952
  610MOL0     C84048  11.003   7.820   5.939  0.6288 -0.4885 -0.0842
  610MOL0     C84049  11.061   7.929   5.874  0.4724 -0.8166  0.5674
  610MOL0     O84050  10.992   8.006   5.781 -0.6327 -0.3993 -0.8982
  610MOL0     C84051  10.942   8.132   5.828  0.7377 -0.1541  0.3507
  610MOL0     C84052  10.843   8.206   5.730  0.6101  0.1888  0.8798
  610MOL0     C84053  10.737   8.301   5.794 -0.3767 -0.0081 -0.0469
  610MOL0     C84054  10.636   8.353   5.681  0.0964 -0.0518 -1.1398
  610MOL0     C84055  10.550   8.473   5.725 -0.2928  0.3701  0.2552
  610MOL0     C84056  10.441   8.491   5.624 -0.0811  0.6112  0.5333
  610MOL0     C84057  10.341   8.601   5.664  0.4073 -0.3773  0.6156
  610MOL0     C84058  10.214   8.560   5.731 -0.1367  0.0780 -0.4621
  610MOL0     N84059  10.240   8.489   5.866 -0.1809 -0.3257 -0.3894
  610MOL0     C84060  10.262   8.354   5.875 -0.9389  0.1037 -0.3818
  610MOL0     C84061  10.293   8.333   6.004 -0.3699 -0.7979  0.1090
  610MOL0     C84062  10.313   8.185   6.035  0.2246 -0.4618 -0.7409
  610MOL0     C84063  10.462   8.151   6.012  0.8192  1.5741  0.9698
  610MOL0     C84064  10.478   7.999   6.012 -0.3206 -0.6216  0.1104
  610MOL0     C84065  10.615   7.955   5.973  0.1073 -0.5976 -0.0902
  610MOL0     O84066  10.716   8.003   6.067  0.3767  0.1747  0.4095
  610MOL0     C84067  10.764   7.915   6.165  0.8341  0.6737 -0.0665
  610MOL0     C84068  10.887   7.941   6.233 -0.6307 -0.6955  0.4832
  610MOL0     C84069  10.938   7.851   6.325 -0.0662  0.3930 -0.2244
  610MOL0     C84070  11.070   7.887   6.388  0.4640  0.0660 -0.1013
  610MOL0     C84071  10.872   7.733   6.357  0.2216  0.0146 -0.4511
  610MOL0     C84072  10.922   7.631   6.452 -0.1743  0.6068 -0.1791
  610MOL0     O84073  11.049   7.649   6.507 -0.5067 -1.1518  0.5841
  610MOL0     C84074  11.097   7.551   6.594  0.5138  0.6257  0.0643
  610MOL0     C84075  11.089   7.415   6.570  0.2273  1.0547  0.6763
  610MOL0     C84076  11.147   7.315   6.654  0.4183  0.9340  0.2441
  610MOL0     C84077  11.214   7.354   6.770 -0.2800 -0.3653  0.1792
  610MOL0     O84078  11.284   7.273   6.856  0.1688 -0.4214 -0.1759
  610MOL0     C84079  11.256   7.129   6.852 -0.6958  0.7036 -0.5602
  610MOL0     C84080  11.273   7.086   7.006 -0.0489  0.4719 -0.3394
  610MOL0     C84081  11.233   6.934   7.007 -0.5148 -0.7247 -1.0800
  610MOL0     C84082  11.353   6.846   6.982 -0.1444  0.4734 -0.4152
  610MOL0     C84083  11.329   6.698   7.011 -0.5650 -0.0921 -0.6724
  610MOL0     C84084  11.214   6.639   6.932  0.0963  0.0109  1.0469
  610MOL0     C84085  11.241   6.495   6.918  0.2707  0.0148 -1.0874
  610MOL0     C84086  11.324   6.449   6.794 -1.3877  0.7473 -0.4739
  610MOL0    Cl84087  11.272   6.520   6.641  0.0270 -0.0259  0.0883
  610MOL0     C84088  11.202   7.491   6.806 -0.7673 -0.4262  0.7397
  610MOL0     C84089  11.158   7.592   6.716  0.2158 -1.1047  0.4510
  610MOL0     O84090  10.840   7.539   6.477 -0.7445  0.0071 -1.0161
  610MOL0     C84091  10.740   7.722   6.301 -0.2728  0.7686 -0.1065
  610MOL0     C84092  10.690   7.809   6.204 -0.7007  0.1899  0.3695
  610MOL0     N84093  10.269   8.448   6.075  0.2731  0.5381  0.1925
  610MOL0     N84094  10.252   8.540   5.991 -0.0178  0.0466 -0.2144
  610MOL0     C84095  11.199   7.954   5.883  0.0663 -0.4278 -0.5397
  610MOL0     C84096  11.278   7.871   5.973  0.2978  0.1553  0.0400
  610MOL0     C84097  11.451   7.519   6.185  0.3582 -0.0046 -0.0148
  610MOL0     C84098  11.412   7.507   6.316  0.9004 -0.9489 -0.4667
  610MOL0     C84099  11.445   7.397   6.393  1.0238  0.0674  0.5523
  610MOL0     C84100  11.527   7.297   6.346 -0.5131 -0.0471  0.0169
  610MOL0     O84101  11.561   7.194   6.433  0.4232 -0.5036  0.0155
  610MOL0     C84102  11.651   7.089   6.377 -0.1417 -0.6157 -0.8906
  610MOL0     C84103  11.643   6.982   6.480 -0.7882 -0.2842 -0.9385
  610MOL0     C84104  11.496   6.941   6.518 -0.7344  1.2407 -0.1367
  610MOL0     C84105  11.476   6.800   6.573  0.3063  0.3915  0.3688
  610MOL0     C84106  11.574   6.773   6.680  0.5066 -0.0865 -0.4630
  610MOL0     C84107  11.641   6.777   6.780  0.2086 -0.2523 -0.5087
  610MOL0     C84108  11.575   7.311   6.221  0.1061  0.4933  0.3226
  610MOL0     C84109  11.540   7.421   6.141  1.0154 -0.6312  1.3192
  610MOL0     C84110  11.613   7.419   6.008  0.2336 -0.4402  0.4344
  610MOL0     H84111  11.038   7.655   6.064 -2.4071  1.1270 -0.7004
  610MOL0     H84112  10.900   7.793   5.920  0.2366 -0.1558  1.4350
  610MOL0     H84113  11.022   8.205   5.843  0.4996  0.0194  0.7947
  610MOL0     H84114  10.886   8.123   5.921 -0.8284  2.8407 -0.1875
  610MOL0     H84115  10.903   8.264   5.660 -1.0285  0.8250 -0.0721
  610MOL0     H84116  10.787   8.126   5.680  0.9769 -1.4724  2.9917
  610MOL0     H84117  10.700   8.247   5.882 -1.4651  0.4317 -0.2177
  610MOL0     H84118  10.787   8.391   5.831 -2.3965  1.8083 -1.4891
  610MOL0     H84119  10.680   8.377   5.583 -0.4403  0.9604 -1.1393
  610MOL0     H84120  10.569   8.269   5.658 -1.1926  0.5628  0.2375
  610MOL0     H84121  10.598   8.570   5.742 -0.5308  0.5031  0.1845
  610MOL0     H84122  10.501   8.439   5.817 -2.1709  0.6730 -0.5661
  610MOL0     H84123  10.475   8.499   5.520 -3.1932 -0.1582 -0.6566
  610MOL0     H84124  10.381   8.399   5.621 -0.4062  0.8390 -1.2338
  610MOL0     H84125  10.305   8.651   5.573 -0.2438 -2.3056 -0.2530
  610MOL0     H84126  10.393   8.680   5.719 -2.3316  2.3104 -0.3928
  610MOL0     H84127  10.150   8.648   5.745 -1.3467 -0.9008  0.4373
  610MOL0     H84128  10.162   8.489   5.666 -2.3948  0.7051  0.5405
  610MOL0     H84129  10.260   8.274   5.801 -0.2460 -0.3438  0.0698
  610MOL0     H84130  10.248   8.127   5.969 -1.3152  2.1441 -1.6534
  610MOL0     H84131  10.306   8.155   6.140 -2.0336  0.8779 -0.4595
  610MOL0     H84132  10.487   8.194   5.915 -1.0876 -0.9460 -0.7623
  610MOL0     H84133  10.522   8.197   6.091  0.1082  1.5201  1.5576
  610MOL0     H84134  10.461   7.974   6.117  0.1451 -2.4556 -0.2222
  610MOL0     H84135  10.402   7.955   5.947  1.4680 -2.5590 -0.7856
  610MOL0     H84136  10.624   7.847   5.963  1.8654 -0.4614 -0.2425
  610MOL0     H84137  10.645   7.999   5.878  0.6109 -1.1059 -0.1747
  610MOL0     H84138  10.942   8.032   6.209  2.6329 -2.4188  0.9134
  610MOL0     H84139  11.083   7.995   6.379  1.6412  0.0555  1.2455
  610MOL0     H84140  11.154   7.827   6.350  0.6163 -1.0576  1.8738
  610MOL0     H84141  11.079   7.885   6.497  2.1830  2.4670 -0.1147
  610MOL0     H84142  11.031   7.384   6.483  0.5353  1.5755  0.2795
  610MOL0     H84143  11.123   7.212   6.626 -2.5848  1.5198  0.3257
  610MOL0     H84144  11.156   7.101   6.818 -0.3663 -1.3077 -0.0082
  610MOL0     H84145  11.320   7.086   6.775  0.5361  0.7063  0.4225
  610MOL0     H84146  11.373   7.097   7.049 -0.2482  0.5951  0.0999
  610MOL0     H84147  11.201   7.151   7.057 -0.0379 -1.1007  1.8298
  610MOL0     H84148  11.148   6.907   6.944 -0.1372 -0.7323 -1.5946
  610MOL0     H84149  11.199   6.921   7.110  0.6131  2.8033 -0.1345
  610MOL0     H84150  11.435   6.872   7.050  0.3174 -0.6894 -0.5079
  610MOL0     H84151  11.384   6.865   6.879 -2.1387  1.2108 -0.9266
  610MOL0     H84152  11.419   6.639   6.992  2.0083  3.7440 -1.5342
  610MOL0     H84153  11.307   6.679   7.117 -0.5113  3.8892  0.2166
  610MOL0     H84154  11.202   6.678   6.830 -2.7137 -1.0641  0.8850
  610MOL0     H84155  11.122   6.659   6.987 -0.7541 -0.1405 -0.2822
  610MOL0     H84156  11.147   6.441   6.903  0.5114 -0.7090 -0.0588
  610MOL0     H84157  11.288   6.454   7.007  1.8253  1.3251 -1.2629
  610MOL0     H84158  11.308   6.341   6.798 -0.8679  0.6991  1.1652
  610MOL0     H84159  11.433   6.457   6.798 -1.2445 -1.2901  2.0386
  610MOL0     H84160  11.244   7.512   6.904  1.7582 -0.9388 -0.1717
  610MOL0     H84161  11.163   7.698   6.739 -2.2647  0.0178 -3.2677
  610MOL0     H84162  10.676   7.637   6.322 -0.5175  1.6100  3.0432
  610MOL0     H84163  10.591   7.778   6.170 -0.4770 -0.0685 -0.0490
  610MOL0     H84164  11.242   8.034   5.823  2.4697 -2.4084 -1.6414
  610MOL0     H84165  11.384   7.892   5.989  0.3656 -0.9257  1.1237
  610MOL0     H84166  11.344   7.575   6.365  2.1582 -0.6189  0.8834
  610MOL0     H84167  11.415   7.383   6.496 -1.6586 -0.5373 -0.2096
  610MOL0     H84168  11.621   7.053   6.279  2.7850 -0.8711 -1.7610
  610MOL0     H84169  11.756   7.118   6.369 -1.2263  3.5938 -2.7911
  610MOL0     H84170  11.700   7.017   6.566  2.4302  0.3380 -3.1370
  610MOL0     H84171  11.702   6.901   6.437 -0.7611 -1.5334  1.3214
  610MOL0     H84172  11.463   7.012   6.595 -6.0799 -1.3984  0.4597
  610MOL0     H84173  11.423   6.955   6.438 -0.2993 -2.9471 -1.5131
  610MOL0     H84174  11.492   6.727   6.492  2.7443  0.9475  0.2543
  610MOL0     H84175  11.374   6.787   6.608  0.0732  0.6135 -0.2139
  610MOL0     H84176  11.697   6.784   6.871 -2.0868  0.6663  0.9135
  610MOL0     H84177  11.644   7.238   6.179 -2.3182 -1.0592 -1.1930
  610MOL0     H84178  11.663   7.515   5.993  1.9705 -1.2303  0.9303
  610MOL0     H84179  11.696   7.348   6.003  1.9463  1.5980 -2.0177
  610MOL0     H84180  11.543   7.400   5.926 -0.4656 -2.0409  1.3494
  611MOL0     O84181  10.443  10.438   9.028  0.2475 -0.1156 -0.5774
  611MOL0     C84182  10.332  10.388   9.047 -0.0586  0.3140 -0.2892
  611MOL0     O84183  10.228  10.422   9.127 -0.1346  0.4684 -1.2576
  611MOL0     C84184  10.248  10.527   9.208 -0.2497  0.0641  0.0313
  611MOL0     C84185  10.309  10.498   9.329  0.6053  0.2147 -0.0772
  611MOL0     C84186  10.336  10.605   9.420  0.8013  0.4948  0.5209
  611MOL0     C84187  10.293  10.737   9.389  0.6880 -0.2762 -0.0260
  611MOL0     O84188  10.307  10.837   9.480  0.0249  0.1255  0.3795
  611MOL0     C84189  10.301  10.822   9.621  0.0597  0.5371  0.7462
  611MOL0     C84190  10.409  10.915   9.681  0.0079  0.1795 -0.3109
  611MOL0     C84191  10.437  10.904   9.834  0.0724  0.2416  0.3060
  611MOL0     C84192  10.540  11.001   9.890  0.8029 -0.3360  0.0431
  611MOL0     C84193  10.524  10.997  10.037  0.3651 -0.5326 -0.5072
  611MOL0     C84194  10.644  11.074  10.112  0.1046  0.2014  0.3510
  611MOL0     C84195  10.691  11.009  10.248  1.0787 -0.4537  0.8385
  611MOL0     C84196  10.578  10.990  10.353  1.0556  0.2021  0.0031
  611MOL0     N84197  10.510  10.860  10.328  0.0862  1.5795  0.1675
  611MOL0     C84198  10.373  10.845  10.273 -0.4540 -0.5645 -1.0812
  611MOL0     C84199  10.338  10.718  10.288  0.2274 -1.0589 -1.5630
  611MOL0     C84200  10.207  10.653  10.247 -0.0115  0.5648 -0.2385
  611MOL0     C84201  10.213  10.551  10.139 -0.6012  0.3325 -0.3392
  611MOL0     C84202  10.240  10.615  10.001  0.3963  0.1194  0.3521
  611MOL0     C84203  10.117  10.664   9.926 -0.1805 -0.0784  0.0969
  611MOL0     O84204  10.091  10.788   9.979 -0.1034 -0.1525  0.5699
  611MOL0     C84205   9.997  10.868   9.922 -0.5235 -0.2736 -0.0368
  611MOL0     C84206   9.994  11.004   9.964 -0.0827 -0.0938 -0.1000
  611MOL0     C84207   9.910  11.103   9.917 -0.4314  0.0243  1.0672
  611MOL0     C84208   9.927  11.245   9.960  0.3757  1.2620  0.7518
  611MOL0     C84209   9.811  11.065   9.822  0.5235 -0.5542 -0.2214
  611MOL0     C84210   9.709  11.164   9.763 -0.3243  0.0527 -0.0334
  611MOL0     O84211   9.649  11.137   9.639 -0.1232 -0.0440 -0.1988
  611MOL0     C84212   9.558  11.233   9.588 -0.1843  0.7911 -0.1550
  611MOL0     C84213   9.438  11.185   9.534  0.1541  0.7316  0.8790
  611MOL0     C84214   9.348  11.278   9.478  0.0427 -0.6200 -0.1617
  611MOL0     C84215   9.382  11.418   9.483  0.3236  1.1150  0.4811
  611MOL0     O84216   9.302  11.508   9.429 -0.1692 -0.4318 -0.0212
  611MOL0     C84217   9.183  11.481   9.361 -0.1009 -0.0756  1.1032
  611MOL0     C84218   9.144  11.603   9.273  0.3325 -0.3044 -0.9914
  611MOL0     C84219   9.102  11.728   9.350 -0.6658  0.5267 -0.4099
  611MOL0     C84220   8.971  11.787   9.285  1.1081 -0.3054 -0.7576
  611MOL0     C84221   8.920  11.907   9.360 -0.5846  1.1142  1.0841
  611MOL0     C84222   8.822  11.999   9.275 -0.3980  0.3819  0.1588
  611MOL0     C84223   8.840  12.133   9.339 -0.2999 -0.0776  0.1991
  611MOL0     C84224   8.722  12.228   9.315  0.0505  0.7372 -0.1899
  611MOL0    Cl84225   8.596  12.172   9.422  0.5480 -0.1541  0.2234
  611MOL0     C84226   9.498  11.458   9.541 -0.2786 -0.7194 -0.4701
  611MOL0     C84227   9.590  11.374   9.595 -0.6531  0.7413  0.6597
  611MOL0     O84228   9.672  11.254   9.841 -1.0088  0.8842 -0.1283
  611MOL0     C84229   9.814  10.930   9.778  0.1427 -0.0825  0.8272
  611MOL0     C84230   9.897  10.827   9.830  0.4411 -0.3442  0.0173
  611MOL0     N84231  10.445  10.650  10.356 -0.3351 -0.6963 -0.2234
  611MOL0     N84232  10.535  10.740  10.386  0.1104 -0.1963 -0.6055
  611MOL0     C84233  10.231  10.764   9.272  0.3887 -0.1556  0.8463
  611MOL0     C84234  10.210  10.655   9.179 -0.1877 -0.1481  1.1162
  611MOL0     C84235  10.293  10.268   8.975 -0.7796  0.1079  0.7211
  611MOL0     C84236  10.161  10.262   8.923 -1.0323  0.4735  0.3075
  611MOL0     C84237  10.120  10.163   8.828  0.1853 -0.4522 -0.0259
  611MOL0     C84238  10.216  10.063   8.789 -0.4381  0.4097  1.0185
  611MOL0     O84239  10.198   9.974   8.685  0.2298 -0.3187  0.5556
  611MOL0     C84240  10.075   9.915   8.680  0.5219 -0.8629  0.3830
  611MOL0     C84241  10.096   9.795   8.591 -1.0557 -0.2814  0.1275
  611MOL0     C84242   9.981   9.693   8.580 -0.3714  0.3337 -0.1576
  611MOL0     C84243  10.018   9.553   8.523 -0.1506 -0.0371  0.3592
  611MOL0     C84244  10.160   9.513   8.544 -0.9130  0.4931  0.4040
  611MOL0     C84245  10.271   9.470   8.550 -0.2146 -0.6089 -0.4410
  611MOL0     C84246  10.336  10.069   8.850 -0.1344 -0.7096 -0.3270
  611MOL0     C84247  10.386  10.172   8.933 -0.7769 -0.5222 -0.7273
  611MOL0     C84248  10.535  10.158   8.976 -0.1151  0.1811 -0.3346
  611MOL0     H84249  10.308  10.395   9.364 -2.6625 -0.0711 -0.7504
  611MOL0     H84250  10.390  10.574   9.509  1.1414 -1.5390 -0.3405
  611MOL0     H84251  10.316  10.719   9.655 -0.6306 -0.1175 -0.8231
  611MOL0     H84252  10.202  10.855   9.654 -0.0681  1.0069 -0.0711
  611MOL0     H84253  10.500  10.888   9.628 -0.2910  0.5623 -1.0423
  611MOL0     H84254  10.394  11.021   9.657  2.0036  0.7542  0.7943
  611MOL0     H84255  10.337  10.921   9.876  0.7604 -0.9925  2.6080
  611MOL0     H84256  10.474  10.803   9.854 -1.5615 -1.6149 -4.6830
  611MOL0     H84257  10.639  10.956   9.872  0.3357 -1.4765  0.2510
  611MOL0     H84258  10.525  11.101   9.848 -4.4320 -0.1725  1.6584
  611MOL0     H84259  10.532  10.893  10.070 -0.0831  0.2261  2.2407
  611MOL0     H84260  10.430  11.036  10.075  0.7062  0.8722 -1.0185
  611MOL0     H84261  10.729  11.076  10.043 -0.4631  0.1503 -0.3589
  611MOL0     H84262  10.607  11.175  10.135 -0.9739  0.2403 -1.3813
  611MOL0     H84263  10.757  11.088  10.285  0.9529  0.5446 -0.9507
  611MOL0     H84264  10.746  10.918  10.221  0.2542 -0.4242 -1.0559
  611MOL0     H84265  10.621  10.988  10.454  2.2384 -0.7406 -0.4879
  611MOL0     H84266  10.510  11.075  10.351  1.2076  0.3189 -1.8691
  611MOL0     H84267  10.302  10.924  10.249 -1.8913 -2.2553 -2.6690
  611MOL0     H84268  10.140  10.737  10.227  2.7637  3.4903  1.7329
  611MOL0     H84269  10.162  10.601  10.332  1.1488  2.1474  1.4244
  611MOL0     H84270  10.298  10.485  10.161 -1.2586 -0.4353 -0.0742
  611MOL0     H84271  10.128  10.483  10.134 -0.5739  0.3286 -0.8298
  611MOL0     H84272  10.321  10.687  10.004  1.4246 -0.9932  0.1898
  611MOL0     H84273  10.283  10.530   9.947  1.1519 -0.5730  1.9732
  611MOL0     H84274  10.137  10.654   9.819 -0.3459  0.0423  0.0547
  611MOL0     H84275  10.031  10.601   9.953 -1.1769  1.2655  0.1811
  611MOL0     H84276  10.070  11.033  10.036 -0.7109  1.2544  0.0509
  611MOL0     H84277   9.835  11.262  10.018  0.2430  0.9238  0.6449
  611MOL0     H84278   9.927  11.323   9.884 -3.9461 -1.0708 -2.0297
  611MOL0     H84279  10.007  11.248  10.034 -1.0719 -2.6013  2.7978
  611MOL0     H84280   9.415  11.079   9.531  1.4036  0.4097  2.0231
  611MOL0     H84281   9.256  11.242   9.436  0.7741 -1.9508 -0.6798
  611MOL0     H84282   9.191  11.398   9.289 -0.4029  0.7589  0.0758
  611MOL0     H84283   9.104  11.457   9.432 -0.5917 -0.8033  0.3390
  611MOL0     H84284   9.228  11.624   9.205 -0.7313  2.5468 -1.5782
  611MOL0     H84285   9.062  11.581   9.205 -0.3902  1.6636 -0.8347
  611MOL0     H84286   9.186  11.797   9.356  0.2548 -0.6869  2.2056
  611MOL0     H84287   9.071  11.711   9.453  0.3066  0.4075 -0.1289
  611MOL0     H84288   8.887  11.717   9.283  1.1320 -0.3341 -0.7290
  611MOL0     H84289   8.998  11.812   9.182  1.3419 -0.9106 -0.8468
  611MOL0     H84290   8.873  11.883   9.455  1.4473 -0.4105  1.7777
  611MOL0     H84291   9.011  11.968   9.369  1.4220 -1.7684  1.8448
  611MOL0     H84292   8.720  11.958   9.272  0.8697 -3.0441  0.0173
  611MOL0     H84293   8.860  11.996   9.173 -1.1498 -1.7455 -0.1198
  611MOL0     H84294   8.935  12.180   9.312 -0.6465  1.2062  1.1144
  611MOL0     H84295   8.851  12.120   9.447  2.3117  0.5456  0.0720
  611MOL0     H84296   8.680  12.219   9.214 -2.4036 -0.5434  0.8674
  611MOL0     H84297   8.741  12.334   9.335  1.8814  0.2513  0.9199
  611MOL0     H84298   9.520  11.563   9.531 -1.6299 -0.3960 -0.2262
  611MOL0     H84299   9.688  11.405   9.631  0.1948 -0.8929 -0.1099
  611MOL0     H84300   9.746  10.893   9.702  1.0641 -1.6439  0.7051
  611MOL0     H84301   9.889  10.725   9.793 -1.6829  0.0895 -0.8340
  611MOL0     H84302  10.189  10.864   9.261 -0.1517 -0.0940  2.9289
  611MOL0     H84303  10.175  10.669   9.077  0.9699 -0.5543  0.6495
  611MOL0     H84304  10.091  10.340   8.951  0.3991  0.8565  3.2342
  611MOL0     H84305  10.020  10.167   8.787 -1.0121 -2.6321  2.4018
  611MOL0     H84306  10.038   9.885   8.779 -1.6651  1.1786  0.2660
  611MOL0     H84307  10.000   9.976   8.630  0.7342 -0.8203  0.1168
  611MOL0     H84308  10.185   9.742   8.625 -0.2104  1.3595  0.5754
  611MOL0     H84309  10.116   9.829   8.489 -1.2413 -4.0166 -1.3029
  611MOL0     H84310   9.938   9.664   8.677 -2.2595  0.5928 -0.8702
  611MOL0     H84311   9.897   9.736   8.525  1.2415  0.9208 -2.2830
  611MOL0     H84312  10.009   9.564   8.414 -0.5487  0.2810  0.4233
  611MOL0     H84313   9.951   9.477   8.563  0.6753 -0.4590  0.9616
  611MOL0     H84314  10.369   9.428   8.553  0.6430  1.3625  0.6385
  611MOL0     H84315  10.419  10.010   8.813  0.8556 -0.0990  0.8230
  611MOL0     H84316  10.587  10.250   8.947 -2.3421  1.0417 -1.8976
  611MOL0     H84317  10.545  10.142   9.083  2.3045 -1.0689 -0.6600
  611MOL0     H84318  10.579  10.066   8.935  0.2154  0.1073  0.1770
  612MOL0     O84319   0.740   6.222   2.667  0.4895  0.6017 -0.2171
  612MOL0     C84320   0.691   6.106   2.672 -0.2635 -0.5095 -0.8810
  612MOL0     O84321   0.682   6.033   2.790 -0.0170  0.9827 -0.2364
  612MOL0     C84322   0.743   6.070   2.906 -0.0164 -0.6052  0.1119
  612MOL0     C84323   0.880   6.087   2.915 -0.0113 -0.7031  0.2090
  612MOL0     C84324   0.955   6.151   3.018 -0.4017  0.8231  0.5361
  612MOL0     C84325   0.882   6.203   3.125  0.2306 -0.5137 -0.5202
  612MOL0     O84326   0.933   6.268   3.231 -0.3903 -0.3044 -0.2127
  612MOL0     C84327   1.063   6.324   3.217 -0.8769 -0.8115 -0.9902
  612MOL0     C84328   1.055   6.470   3.274  0.0515 -0.3440  0.9939
  612MOL0     C84329   1.178   6.547   3.251  0.5446  0.8748  0.9775
  612MOL0     C84330   1.156   6.695   3.277  0.4979 -0.5891 -0.1553
  612MOL0     C84331   1.274   6.782   3.237  0.3879 -0.1676  0.0918
  612MOL0     C84332   1.245   6.931   3.240  0.0483 -0.0490 -0.2110
  612MOL0     C84333   1.163   6.972   3.114 -0.2738  0.3398 -0.8618
  612MOL0     C84334   1.240   7.045   3.004 -0.0150 -1.3536  0.0271
  612MOL0     N84335   1.346   6.957   2.942  0.5346 -0.3933  0.1452
  612MOL0     C84336   1.470   6.937   2.993 -0.2739 -0.3914 -0.4533
  612MOL0     C84337   1.528   6.870   2.894  0.1595  0.1791  0.6630
  612MOL0     C84338   1.674   6.837   2.892  0.2246 -0.1005 -0.2360
  612MOL0     C84339   1.720   6.706   2.831 -0.6286  0.3982  1.4592
  612MOL0     C84340   1.687   6.588   2.927  0.9124 -0.2763  0.2275
  612MOL0     C84341   1.552   6.575   3.007 -0.5560 -1.7896  0.7032
  612MOL0     O84342   1.556   6.463   3.095 -0.0754  0.4593 -0.1734
  612MOL0     C84343   1.608   6.467   3.224 -1.0652 -0.3537  0.6525
  612MOL0     C84344   1.583   6.357   3.315  0.4930  0.3288  0.1765
  612MOL0     C84345   1.628   6.343   3.443  0.2619  0.1719 -1.0429
  612MOL0     C84346   1.613   6.205   3.510 -0.3012 -0.8370  0.2990
  612MOL0     C84347   1.703   6.455   3.497 -0.4728  1.1498 -0.1872
  612MOL0     C84348   1.759   6.455   3.632 -0.6762 -0.7895 -0.6972
  612MOL0     O84349   1.879   6.531   3.648  0.5471 -0.1428  0.6728
  612MOL0     C84350   1.953   6.525   3.762 -1.3989  0.2443  1.3551
  612MOL0     C84351   2.027   6.638   3.800 -0.2873 -0.9232 -0.2917
  612MOL0     C84352   2.107   6.632   3.914 -0.3762  0.1007  0.6361
  612MOL0     C84353   2.124   6.519   3.988 -0.5103  0.3394  0.0627
  612MOL0     O84354   2.203   6.519   4.097  0.3703 -0.0454 -0.0697
  612MOL0     C84355   2.343   6.484   4.066 -0.1981 -0.7864  0.5256
  612MOL0     C84356   2.436   6.604   4.025  0.7229 -0.0506 -0.3840
  612MOL0     C84357   2.572   6.564   3.992 -0.2213  0.3935 -0.3266
  612MOL0     C84358   2.664   6.666   3.925  0.1905 -0.9437  0.4563
  612MOL0     C84359   2.796   6.601   3.872 -0.8067 -0.2793  0.4285
  612MOL0     C84360   2.795   6.510   3.743  0.1137  0.7459  0.0778
  612MOL0     C84361   2.940   6.485   3.700 -0.1948 -1.1146  0.1580
  612MOL0     C84362   3.002   6.359   3.736 -0.0753 -0.3794 -0.5062
  612MOL0    Cl84363   3.168   6.351   3.664 -0.2592  0.2091 -0.1884
  612MOL0     C84364   2.047   6.408   3.951 -0.3632 -0.4225  0.2478
  612MOL0     C84365   1.954   6.406   3.845  0.2766 -0.8250  0.6570
  612MOL0     O84366   1.688   6.409   3.715 -0.8052  0.1359 -0.3680
  612MOL0     C84367   1.715   6.570   3.414 -0.2156 -0.1512  0.4480
  612MOL0     C84368   1.672   6.576   3.279 -0.4612  0.6893 -0.4362
  612MOL0     N84369   1.445   6.839   2.790 -0.2448 -0.5377  0.7484
  612MOL0     N84370   1.330   6.901   2.816 -0.1864  0.6940 -0.9913
  612MOL0     C84371   0.745   6.186   3.125 -0.2377  0.8665 -0.3554
  612MOL0     C84372   0.671   6.118   3.024  0.0617  0.3310 -0.1087
  612MOL0     C84373   0.639   6.060   2.541 -0.2352 -0.0195 -0.5093
  612MOL0     C84374   0.590   6.159   2.456 -0.0750  0.0025  0.8300
  612MOL0     C84375   0.534   6.135   2.333  0.7313 -0.0101  0.4672
  612MOL0     C84376   0.527   6.000   2.290 -0.4989 -0.5163  0.6538
  612MOL0     O84377   0.472   5.954   2.175 -0.1037  0.4702  1.1959
  612MOL0     C84378   0.426   6.031   2.053 -0.2120 -0.0512 -0.2718
  612MOL0     C84379   0.280   6.068   2.051 -0.6756 -0.6490  0.3469
  612MOL0     C84380   0.233   6.119   2.186  0.1045  0.3691  0.1220
  612MOL0     C84381   0.081   6.126   2.208  0.1043 -0.3304  0.1894
  612MOL0     C84382   0.037   6.219   2.107  0.1045 -0.6750  0.0888
  612MOL0     C84383   0.014   6.309   2.033 -0.1429  0.1517  1.0269
  612MOL0     C84384   0.583   5.904   2.376  0.0699 -0.2618 -0.6428
  612MOL0     C84385   0.636   5.929   2.500  0.0712  0.2435 -0.0232
  612MOL0     C84386   0.710   5.814   2.563 -0.9890 -0.5516 -1.6284
  612MOL0     H84387   0.941   6.049   2.833  0.7052 -2.0594  1.3253
  612MOL0     H84388   1.063   6.154   3.004 -0.1998  1.0379  1.9307
  612MOL0     H84389   1.101   6.336   3.115  2.8861 -1.2360  0.1798
  612MOL0     H84390   1.137   6.273   3.279 -2.0069 -1.5415 -0.2174
  612MOL0     H84391   0.967   6.528   3.243  0.8790  0.6225  0.3885
  612MOL0     H84392   1.052   6.455   3.382 -0.1225 -1.5993  0.8274
  612MOL0     H84393   1.251   6.506   3.322 -0.9858 -0.5346  1.7959
  612MOL0     H84394   1.205   6.529   3.146  1.1676 -0.4359  1.3375
  612MOL0     H84395   1.066   6.726   3.223  0.1436 -2.4279 -0.6780
  612MOL0     H84396   1.137   6.715   3.383 -2.3511  2.7201 -1.0838
  612MOL0     H84397   1.317   6.748   3.143  0.4823 -1.2615  0.5228
  612MOL0     H84398   1.349   6.756   3.313  0.7821 -3.2483 -1.2037
  612MOL0     H84399   1.199   6.945   3.339  3.7950  0.5615  1.6030
  612MOL0     H84400   1.337   6.990   3.237  1.2438 -1.9012 -2.0840
  612MOL0     H84401   1.090   7.041   3.157 -2.2279 -1.8486 -0.4646
  612MOL0     H84402   1.119   6.878   3.078  0.1928 -0.1627 -0.1428
  612MOL0     H84403   1.173   7.096   2.934  0.6273 -0.8274 -0.2177
  612MOL0     H84404   1.287   7.135   3.045 -2.4719 -0.9975  2.3945
  612MOL0     H84405   1.519   6.964   3.086  0.9309 -0.9250 -0.9216
  612MOL0     H84406   1.714   6.859   2.992 -0.8535  2.3605 -0.2573
  612MOL0     H84407   1.731   6.912   2.838  0.3456 -0.8011 -1.0957
  612MOL0     H84408   1.660   6.685   2.742 -0.3134 -0.5978  1.4756
  612MOL0     H84409   1.828   6.702   2.812 -1.0836 -0.2358 -1.4275
  612MOL0     H84410   1.693   6.497   2.866 -0.9974 -0.5543  0.3914
  612MOL0     H84411   1.763   6.590   3.006  0.6954 -1.0379  0.4593
  612MOL0     H84412   1.544   6.677   3.045  0.8821 -0.6713 -1.6836
  612MOL0     H84413   1.469   6.563   2.936  1.4560  2.3897 -2.8812
  612MOL0     H84414   1.536   6.266   3.277  1.5735  0.0679 -0.5740
  612MOL0     H84415   1.696   6.190   3.580 -0.8754  1.1986  1.4886
  612MOL0     H84416   1.615   6.121   3.440  3.6975 -2.2527  1.8284
  612MOL0     H84417   1.519   6.198   3.566 -1.5215 -1.9237 -1.7521
  612MOL0     H84418   2.035   6.710   3.720  1.6515 -2.2074 -1.3193
  612MOL0     H84419   2.159   6.722   3.944  0.9772 -0.9523  1.5618
  612MOL0     H84420   2.380   6.430   4.154  0.4692 -2.0711 -0.5192
  612MOL0     H84421   2.347   6.409   3.987  0.8484 -1.3875  1.1226
  612MOL0     H84422   2.394   6.665   3.944  0.3834  1.1492  0.6512
  612MOL0     H84423   2.433   6.674   4.109 -1.7677  0.2546 -0.6545
  612MOL0     H84424   2.566   6.480   3.922 -1.6805 -0.2772  0.5572
  612MOL0     H84425   2.620   6.529   4.084 -4.0809 -1.5492  1.1868
  612MOL0     H84426   2.703   6.741   3.994 -2.6380  2.0351 -0.8779
  612MOL0     H84427   2.623   6.722   3.841  0.5778 -0.0327  0.8616
  612MOL0     H84428   2.869   6.682   3.861  1.3112 -1.7024  2.9074
  612MOL0     H84429   2.827   6.543   3.959 -0.4112 -2.3384 -1.0062
  612MOL0     H84430   2.739   6.561   3.664 -0.4370 -0.6692 -0.4738
  612MOL0     H84431   2.746   6.414   3.759 -2.6914  2.0735  0.0395
  612MOL0     H84432   3.011   6.558   3.740 -0.1406  0.0138 -1.8682
  612MOL0     H84433   2.932   6.486   3.591  3.1667 -2.2704 -0.2037
  612MOL0     H84434   2.938   6.278   3.701 -3.1365  0.8429  1.8406
  612MOL0     H84435   2.995   6.357   3.845  1.3265  0.8201 -0.3534
  612MOL0     H84436   2.076   6.322   4.010  0.4988  0.5747  1.3218
  612MOL0     H84437   1.901   6.314   3.824 -1.0416 -0.0515  0.4195
  612MOL0     H84438   1.759   6.662   3.450  1.1257 -0.7662  0.4744
  612MOL0     H84439   1.682   6.668   3.223 -0.6279  0.5764 -0.6492
  612MOL0     H84440   0.681   6.219   3.206 -2.2884 -1.9841 -0.6387
  612MOL0     H84441   0.569   6.098   3.055  0.8552 -0.7863  1.9867
  612MOL0     H84442   0.589   6.267   2.469 -2.3229  0.0316  0.9164
  612MOL0     H84443   0.513   6.215   2.263 -0.0114  0.4177  1.1608
  612MOL0     H84444   0.480   6.126   2.060  2.1944 -1.3469 -0.1161
  612MOL0     H84445   0.450   5.977   1.961 -1.9505  0.6987 -1.2054
  612MOL0     H84446   0.237   5.972   2.021  0.0506 -1.5583  2.0557
  612MOL0     H84447   0.246   6.136   1.972  1.0884 -1.0706 -0.8224
  612MOL0     H84448   0.278   6.060   2.267  1.8914  2.1891  0.5323
  612MOL0     H84449   0.275   6.219   2.193 -0.7884  0.6428  2.9276
  612MOL0     H84450   0.081   6.160   2.312 -1.4186  2.8073 -0.7164
  612MOL0     H84451   0.036   6.026   2.205 -0.7694  0.0648 -1.8435
  612MOL0     H84452  -0.019   6.387   1.967 -3.8687 -0.3619  2.0980
  612MOL0     H84453   0.591   5.805   2.333 -3.8781 -0.4224 -1.4051
  612MOL0     H84454   0.752   5.752   2.483  2.9297  0.0194 -0.2332
  612MOL0     H84455   0.795   5.843   2.626 -2.9389  1.3172  0.3101
  612MOL0     H84456   0.645   5.743   2.616 -0.4169 -0.9289 -1.4242
  613MOL0     O84457   9.434   0.749   4.221 -0.1870  0.5108  0.0350
  613MOL0     C84458   9.485   0.853   4.173 -0.2155 -0.1519  0.0839
  613MOL0     O84459   9.512   0.969   4.237 -0.1556 -0.6700  0.2573
  613MOL0     C84460   9.481   0.979   4.369  0.5631 -0.3705 -0.0366
  613MOL0     C84461   9.450   1.108   4.409  0.2319 -0.6599 -0.3251
  613MOL0     C84462   9.396   1.127   4.541  0.1116  0.4078 -0.4453
  613MOL0     C84463   9.392   1.023   4.632  0.3785  0.7208 -0.3958
  613MOL0     O84464   9.352   1.061   4.761  0.5179 -0.5792  0.1819
  613MOL0     C84465   9.437   1.020   4.873  0.4391  0.3055  0.5025
  613MOL0     C84466   9.366   1.043   5.012 -0.1368 -0.1104 -0.2500
  613MOL0     C84467   9.425   1.170   5.088 -0.3514 -0.1774  0.2820
  613MOL0     C84468   9.347   1.299   5.055 -0.4200  0.2645 -0.2366
  613MOL0     C84469   9.435   1.419   5.093  0.1305 -0.2836  0.5780
  613MOL0     C84470   9.379   1.553   5.037  0.0648  0.9214  0.7857
  613MOL0     C84471   9.446   1.681   5.078 -0.7690 -0.4100  0.9044
  613MOL0     C84472   9.410   1.719   5.231 -0.0017 -0.2652  0.2418
  613MOL0     N84473   9.277   1.785   5.238 -0.0418 -0.7009 -0.2290
  613MOL0     C84474   9.260   1.920   5.211 -1.0973 -0.1372 -0.2871
  613MOL0     C84475   9.128   1.937   5.225  0.5840  0.0448  0.9953
  613MOL0     C84476   9.069   2.073   5.207  0.2490 -0.1635 -0.5187
  613MOL0     C84477   8.951   2.071   5.102 -0.8635  0.7838  0.7536
  613MOL0     C84478   8.999   2.054   4.950  0.6769  0.5312 -0.2227
  613MOL0     C84479   9.083   1.942   4.900 -0.0574 -0.3028  0.0440
  613MOL0     O84480   9.120   1.982   4.767  0.0971  0.4307  0.2739
  613MOL0     C84481   9.158   1.889   4.671 -0.8561  0.1455  0.1026
  613MOL0     C84482   9.162   1.749   4.704  0.6383  0.1589 -0.0567
  613MOL0     C84483   9.206   1.654   4.601 -0.0009  0.2333  0.6695
  613MOL0     C84484   9.203   1.504   4.635  0.4273 -0.1060  0.1061
  613MOL0     C84485   9.251   1.701   4.473  0.2271 -1.3745 -0.1550
  613MOL0     C84486   9.320   1.615   4.375  0.2656 -0.3130 -0.0682
  613MOL0     O84487   9.407   1.688   4.284  0.6274  0.8143 -0.4714
  613MOL0     C84488   9.505   1.625   4.213  0.1472 -0.0878  0.6254
  613MOL0     C84489   9.573   1.702   4.126 -1.2946  0.3043 -0.5968
  613MOL0     C84490   9.667   1.646   4.040 -0.6516  0.5283 -0.9816
  613MOL0     C84491   9.712   1.519   4.037 -0.3856  0.4708  1.1883
  613MOL0     O84492   9.800   1.465   3.943 -0.6342  0.2489  0.2161
  613MOL0     C84493   9.837   1.325   3.932  0.7047  0.0147 -0.1011
  613MOL0     C84494   9.960   1.315   3.853  0.4897 -0.8958  0.3404
  613MOL0     C84495  10.058   1.420   3.906  0.5285 -0.1588 -0.1650
  613MOL0     C84496  10.203   1.397   3.860  0.3182 -0.4272  0.1170
  613MOL0     C84497  10.270   1.286   3.944 -0.0280  0.5640  1.0668
  613MOL0     C84498  10.421   1.247   3.908  0.6202 -0.0861 -0.0925
  613MOL0     C84499  10.461   1.128   3.995 -0.6219  0.1650 -0.4504
  613MOL0     C84500  10.578   1.056   3.919  0.6854 -0.0823 -1.3955
  613MOL0    Cl84501  10.521   0.915   3.826 -0.2243  0.0358 -0.0371
  613MOL0     C84502   9.659   1.443   4.143  0.5062 -0.5905 -0.7862
  613MOL0     C84503   9.559   1.496   4.230 -0.3085  0.3623 -0.4182
  613MOL0     O84504   9.330   1.493   4.400 -0.1086  0.1427  0.5446
  613MOL0     C84505   9.234   1.841   4.453  0.2522 -0.6680  0.5749
  613MOL0     C84506   9.180   1.927   4.540 -0.2747 -0.6644  0.6452
  613MOL0     N84507   9.065   1.821   5.250  0.2834  0.4421  0.9167
  613MOL0     N84508   9.159   1.733   5.255  0.3063  0.6532 -0.1387
  613MOL0     C84509   9.423   0.891   4.592 -0.3003  0.0459 -0.3889
  613MOL0     C84510   9.472   0.870   4.465  0.4856  0.3405 -0.2123
  613MOL0     C84511   9.518   0.843   4.028 -0.5619 -0.7245  0.5185
  613MOL0     C84512   9.656   0.849   4.002 -0.4636  0.4807  0.5419
  613MOL0     C84513   9.708   0.848   3.871  0.4609  0.7913 -0.9711
  613MOL0     C84514   9.610   0.835   3.766  0.0749  0.3924 -0.3516
  613MOL0     O84515   9.666   0.834   3.635  0.2483 -0.8932  0.0099
  613MOL0     C84516   9.603   0.733   3.551  0.1642  1.1939  0.5369
  613MOL0     C84517   9.697   0.653   3.465 -0.4828  0.1212 -0.1224
  613MOL0     C84518   9.793   0.572   3.551  0.1610  0.1679  0.0361
  613MOL0     C84519   9.862   0.456   3.477 -0.4530 -0.3325  0.0090
  613MOL0     C84520   9.939   0.507   3.361 -0.5709 -0.2499 -0.6128
  613MOL0     C84521  10.009   0.552   3.275  0.5692  0.1581 -0.3339
  613MOL0     C84522   9.472   0.834   3.791  0.6005 -0.7422  0.1170
  613MOL0     C84523   9.429   0.834   3.923  0.2785  1.0523  0.1606
  613MOL0     C84524   9.279   0.816   3.943 -0.5660 -0.1851 -0.1082
  613MOL0     H84525   9.437   1.182   4.330 -1.0709 -0.4744  0.0539
  613MOL0     H84526   9.370   1.228   4.571  0.0680  0.7865 -1.6904
  613MOL0     H84527   9.535   1.068   4.868 -0.8946  3.0938 -1.0071
  613MOL0     H84528   9.454   0.912   4.874 -1.3298 -0.0127  2.1835
  613MOL0     H84529   9.258   1.051   5.003 -0.0824 -1.3156 -3.0049
  613MOL0     H84530   9.381   0.954   5.075  1.1711 -0.9770 -1.7160
  613MOL0     H84531   9.414   1.145   5.194  1.4055 -0.4604  0.4355
  613MOL0     H84532   9.533   1.180   5.069 -0.6342  1.9921 -0.4360
  613MOL0     H84533   9.329   1.300   4.947 -0.2096  4.0350 -0.3851
  613MOL0     H84534   9.253   1.297   5.111 -0.3428 -2.5950 -0.0784
  613MOL0     H84535   9.531   1.410   5.043 -1.2456  0.5110 -2.4632
  613MOL0     H84536   9.453   1.428   5.200  1.0252 -1.7907  0.5825
  613MOL0     H84537   9.381   1.548   4.928 -1.2357  0.7770  0.7579
  613MOL0     H84538   9.277   1.560   5.077 -0.7057 -1.9365 -0.4147
  613MOL0     H84539   9.439   1.764   5.007  0.6576 -0.1626  1.0121
  613MOL0     H84540   9.554   1.666   5.070 -0.4083  2.5478 -2.0809
  613MOL0     H84541   9.417   1.630   5.294  3.0489  0.7589  1.4993
  613MOL0     H84542   9.474   1.793   5.279 -2.8683  1.8331  1.0815
  613MOL0     H84543   9.343   1.986   5.189 -0.1663 -1.2454 -0.2157
  613MOL0     H84544   9.136   2.152   5.173  0.7017  0.5601  1.8733
  613MOL0     H84545   9.023   2.105   5.301  2.0506  1.1361 -0.0236
  613MOL0     H84546   8.886   1.987   5.129  0.7536 -2.3370 -3.8124
  613MOL0     H84547   8.898   2.165   5.121  1.5223  2.0633  1.5061
  613MOL0     H84548   8.907   2.057   4.891 -0.1028  1.8188  0.9871
  613MOL0     H84549   9.055   2.148   4.935  2.6806 -0.4864  0.5170
  613MOL0     H84550   9.172   1.923   4.961  2.0690  1.3215 -2.3533
  613MOL0     H84551   9.020   1.853   4.900  1.5947 -1.5923 -2.3095
  613MOL0     H84552   9.131   1.709   4.800  3.7378  0.0514  1.0096
  613MOL0     H84553   9.299   1.462   4.665  0.0021 -0.2150  1.4053
  613MOL0     H84554   9.164   1.450   4.548  1.0388 -1.0682  0.4199
  613MOL0     H84555   9.138   1.489   4.722  0.2742 -0.9435 -0.1442
  613MOL0     H84556   9.550   1.807   4.108 -0.1253  1.7425  4.5853
  613MOL0     H84557   9.698   1.719   3.965  0.0578  0.7137 -0.5118
  613MOL0     H84558   9.839   1.289   4.035 -2.8126 -2.0773 -0.5905
  613MOL0     H84559   9.762   1.267   3.876  2.2986  0.8726 -3.4081
  613MOL0     H84560  10.007   1.217   3.856 -0.4250 -1.3441  0.3487
  613MOL0     H84561   9.930   1.336   3.750 -2.0792 -0.3417  1.1276
  613MOL0     H84562  10.063   1.423   4.015  1.2252  0.5002 -0.2124
  613MOL0     H84563  10.023   1.518   3.875  0.6496 -0.1415 -0.2478
  613MOL0     H84564  10.254   1.493   3.868  1.3696 -0.8161 -1.5345
  613MOL0     H84565  10.194   1.366   3.755 -1.1587 -0.5043  0.2325
  613MOL0     H84566  10.255   1.299   4.052 -0.8924 -0.2904  1.0578
  613MOL0     H84567  10.207   1.200   3.919 -2.2789  1.6983  2.4648
  613MOL0     H84568  10.487   1.332   3.926  1.0309 -0.8521  2.5791
  613MOL0     H84569  10.432   1.210   3.806 -3.5279 -1.2115 -0.2782
  613MOL0     H84570  10.368   1.076   4.019 -1.2970  1.0002 -1.1854
  613MOL0     H84571  10.502   1.166   4.089  3.0385  1.2374 -2.2765
  613MOL0     H84572  10.658   1.028   3.988 -0.7482  0.1813  0.4414
  613MOL0     H84573  10.623   1.130   3.851  1.8432  0.4481 -0.1088
  613MOL0     H84574   9.698   1.346   4.170 -1.5269 -2.4118 -3.7095
  613MOL0     H84575   9.539   1.421   4.305  0.4673  0.5108 -0.0567
  613MOL0     H84576   9.264   1.873   4.353  0.8109 -0.2792  0.8621
  613MOL0     H84577   9.164   2.032   4.521  0.8382 -0.6632 -0.3529
  613MOL0     H84578   9.407   0.805   4.655 -1.3705  0.3189 -0.2678
  613MOL0     H84579   9.507   0.769   4.443  0.6705  0.6262 -1.2813
  613MOL0     H84580   9.719   0.870   4.087 -0.3093 -1.5312  0.9882
  613MOL0     H84581   9.815   0.854   3.859  0.9990 -0.1732  2.2948
  613MOL0     H84582   9.552   0.651   3.602 -1.5007  0.6757 -1.8076
  613MOL0     H84583   9.538   0.786   3.481 -3.1865 -0.3558  2.2613
  613MOL0     H84584   9.743   0.723   3.394  0.7653 -0.6464 -0.1160
  613MOL0     H84585   9.647   0.585   3.396 -0.7730  1.4891 -1.3341
  613MOL0     H84586   9.859   0.644   3.600 -0.6428  0.9870 -0.0423
  613MOL0     H84587   9.725   0.524   3.621 -1.3139 -0.4759 -1.7448
  613MOL0     H84588   9.783   0.389   3.442 -1.5274  1.2247 -0.6922
  613MOL0     H84589   9.926   0.409   3.551 -0.0375 -1.4249 -1.0013
  613MOL0     H84590  10.076   0.591   3.202  2.4391  0.1939  1.3178
  613MOL0     H84591   9.403   0.833   3.707  0.7838 -1.1107 -0.0355
  613MOL0     H84592   9.227   0.880   3.872  1.7515  3.7835  1.4597
  613MOL0     H84593   9.246   0.712   3.939 -0.2100 -0.2856 -0.4699
  613MOL0     H84594   9.236   0.862   4.032 -1.1892 -0.0295 -0.4819
  614MOL0     O84595  11.379   2.649   2.907 -0.2056 -0.1645  0.5556
  614MOL0     C84596  11.316   2.611   2.999  1.1470  0.5217  0.0890
  614MOL0     O84597  11.362   2.557   3.111 -1.1589 -0.3489  0.2279
  614MOL0     C84598  11.491   2.504   3.110 -0.5434 -0.0026  0.2923
  614MOL0     C84599  11.501   2.368   3.111  0.1854 -0.7766  0.2804
  614MOL0     C84600  11.626   2.302   3.105 -0.7595 -1.4888  0.4721
  614MOL0     C84601  11.738   2.379   3.089 -0.0870  0.3217  0.3806
  614MOL0     O84602  11.866   2.330   3.091 -0.2046 -0.1014  0.0230
  614MOL0     C84603  11.897   2.194   3.121 -0.6443  0.7223  0.2223
  614MOL0     C84604  12.050   2.169   3.077 -0.5306 -0.2651  1.1113
  614MOL0     C84605  12.146   2.219   3.187 -0.5554 -0.0934  0.2159
  614MOL0     C84606  12.291   2.195   3.143 -0.5446  0.4923  0.2258
  614MOL0     C84607  12.410   2.238   3.223 -0.1451  0.0472 -0.7015
  614MOL0     C84608  12.410   2.391   3.265  0.0802  0.2392 -0.3393
  614MOL0     C84609  12.546   2.426   3.329 -0.0718  0.1421  1.0338
  614MOL0     C84610  12.552   2.371   3.477 -0.1653  0.2319 -0.0935
  614MOL0     N84611  12.653   2.439   3.561  0.4278  0.4346  0.8306
  614MOL0     C84612  12.628   2.525   3.662 -0.2908 -0.3767 -0.3152
  614MOL0     C84613  12.751   2.538   3.719 -0.2452  0.6998 -0.1954
  614MOL0     C84614  12.796   2.604   3.844 -0.1990 -0.2487  0.2047
  614MOL0     C84615  12.911   2.702   3.805  0.2822 -0.0112  0.1552
  614MOL0     C84616  12.868   2.829   3.732 -0.1864 -1.7031 -0.8668
  614MOL0     C84617  12.991   2.929   3.702 -0.3436 -0.1432  0.3054
  614MOL0     O84618  13.035   2.967   3.824  0.9507  0.3935 -0.2343
  614MOL0     C84619  13.142   3.051   3.834 -0.0564 -0.3578 -0.1245
  614MOL0     C84620  13.189   3.090   3.963  0.4613 -0.1516  0.6014
  614MOL0     C84621  13.302   3.171   3.986 -0.2129  0.7929  0.1984
  614MOL0     C84622  13.341   3.212   4.121 -0.0261 -0.2075 -0.4672
  614MOL0     C84623  13.370   3.229   3.866 -0.0048 -0.0562  0.3445
  614MOL0     C84624  13.487   3.327   3.860 -0.0557 -0.0079 -0.5195
  614MOL0     O84625  13.535   3.365   3.733 -0.1794 -0.3573 -0.3028
  614MOL0     C84626  13.636   3.462   3.728 -0.4782 -1.1030  0.6253
  614MOL0     C84627  13.620   3.575   3.643  0.1047 -0.3749  0.1423
  614MOL0     C84628  13.723   3.669   3.638 -0.2631  0.1168 -1.1982
  614MOL0     C84629  13.847   3.642   3.701 -0.1118 -0.7634 -0.4635
  614MOL0     O84630  13.951   3.736   3.706 -0.4651  0.1904  0.1917
  614MOL0     C84631  13.945   3.852   3.626  0.2236 -0.0006 -0.4947
  614MOL0     C84632  14.075   3.931   3.637  0.3408 -1.1494 -0.5728
  614MOL0     C84633  14.060   4.067   3.570  0.1759  0.1303  0.3486
  614MOL0     C84634  14.180   4.104   3.476  0.2840  0.0083  0.2923
  614MOL0     C84635  14.292   4.188   3.542  0.6228 -0.5489 -0.3378
  614MOL0     C84636  14.256   4.329   3.554  0.3237 -0.3375 -0.6722
  614MOL0     C84637  14.367   4.402   3.623 -0.6161  0.9145 -1.1366
  614MOL0     C84638  14.347   4.426   3.777  0.4965  0.0054  0.0339
  614MOL0    Cl84639  14.189   4.506   3.821 -0.3618  0.0007 -0.2788
  614MOL0     C84640  13.859   3.533   3.785  0.0484 -0.3149 -0.0454
  614MOL0     C84641  13.758   3.442   3.788 -0.5936  0.2638 -0.4382
  614MOL0     O84642  13.528   3.380   3.966 -0.1944  0.1337 -0.3608
  614MOL0     C84643  13.307   3.203   3.740  0.2483 -1.0881  0.2659
  614MOL0     C84644  13.205   3.112   3.724 -1.0206 -0.4548 -0.1933
  614MOL0     N84645  12.838   2.450   3.660 -0.7127 -0.7806  0.2600
  614MOL0     N84646  12.783   2.392   3.563 -0.7513  0.4487  0.2717
  614MOL0     C84647  11.728   2.520   3.090  0.1015  0.4226  0.6990
  614MOL0     C84648  11.610   2.587   3.093  0.8890  0.1561 -1.0064
  614MOL0     C84649  11.170   2.664   2.994 -1.4672  0.4951 -0.8809
  614MOL0     C84650  11.079   2.592   3.083  0.5048 -0.1090  0.2218
  614MOL0     C84651  10.943   2.626   3.085  0.3274  0.5178  0.5139
  614MOL0     C84652  10.889   2.727   3.016  0.8145 -0.0370 -0.2617
  614MOL0     O84653  10.752   2.749   3.014  0.6008  0.4555  0.3390
  614MOL0     C84654  10.728   2.882   3.052  0.0558  0.8505  0.1949
  614MOL0     C84655  10.575   2.876   3.085  0.1891 -0.0585  0.5800
  614MOL0     C84656  10.545   2.804   3.217 -0.1505  0.2130 -0.1164
  614MOL0     C84657  10.391   2.806   3.263  0.3813 -0.1668  0.2221
  614MOL0     C84658  10.342   2.677   3.323  0.0815  0.2880  0.6375
  614MOL0     C84659  10.282   2.587   3.367 -0.1994  0.3710  0.6811
  614MOL0     C84660  10.972   2.793   2.926 -0.2334 -0.3427  0.2823
  614MOL0     C84661  11.117   2.770   2.919  0.0305  0.2914  0.2641
  614MOL0     C84662  11.204   2.873   2.837  0.3016  0.4886  0.3973
  614MOL0     H84663  11.410   2.313   3.134 -0.1308 -1.3055 -2.0248
  614MOL0     H84664  11.610   2.196   3.121 -2.0085 -1.0965  2.0963
  614MOL0     H84665  11.833   2.128   3.062  2.8318 -1.0572 -1.9094
  614MOL0     H84666  11.884   2.177   3.229 -0.7063  0.7038  0.2118
  614MOL0     H84667  12.068   2.062   3.063  5.4505  0.8923 -4.8929
  614MOL0     H84668  12.065   2.214   2.979 -0.3207 -1.9571  0.3250
  614MOL0     H84669  12.124   2.322   3.215  2.5270  0.6328  0.2801
  614MOL0     H84670  12.129   2.153   3.272 -2.6258 -2.3307 -1.7750
  614MOL0     H84671  12.301   2.092   3.106 -0.2780  0.6904 -0.2788
  614MOL0     H84672  12.293   2.250   3.048  1.4936  3.6715  1.9407
  614MOL0     H84673  12.509   2.211   3.183 -0.0278  0.6230 -0.8130
  614MOL0     H84674  12.403   2.182   3.316 -1.4852  0.5006 -0.5088
  614MOL0     H84675  12.407   2.432   3.164  1.0297 -1.4001 -1.0645
  614MOL0     H84676  12.321   2.431   3.315 -1.2077 -1.0279 -1.5204
  614MOL0     H84677  12.561   2.535   3.332 -0.3104  0.1425  2.8999
  614MOL0     H84678  12.629   2.385   3.271 -0.4176 -2.4042  2.2047
  614MOL0     H84679  12.457   2.387   3.529  0.3022  1.8146  0.3410
  614MOL0     H84680  12.568   2.263   3.480 -0.8758  0.1023 -0.6159
  614MOL0     H84681  12.536   2.564   3.704  0.3003  0.6361  0.0804
  614MOL0     H84682  12.824   2.527   3.916  1.6866 -0.2847 -0.5142
  614MOL0     H84683  12.717   2.666   3.888 -0.4042 -0.6545  0.4162
  614MOL0     H84684  12.959   2.730   3.899 -2.1209  2.4695  0.7804
  614MOL0     H84685  12.986   2.650   3.745  0.9476 -0.0564  1.0248
  614MOL0     H84686  12.829   2.797   3.636 -2.3951  0.2333 -0.7033
  614MOL0     H84687  12.791   2.883   3.788  2.3250 -0.2022  1.3903
  614MOL0     H84688  13.074   2.874   3.656 -1.9653 -0.3831 -2.5707
  614MOL0     H84689  12.958   3.014   3.642  3.3053  0.0151 -1.8233
  614MOL0     H84690  13.147   3.060   4.058 -0.5847  0.4239  0.3266
  614MOL0     H84691  13.281   3.171   4.203 -1.9990 -1.6022 -2.5092
  614MOL0     H84692  13.342   3.322   4.122  2.7645 -0.1506 -0.9762
  614MOL0     H84693  13.448   3.199   4.139  0.2763  1.4808 -0.8093
  614MOL0     H84694  13.546   3.593   3.566 -0.4588  0.1633  0.8033
  614MOL0     H84695  13.713   3.765   3.589  1.7316  0.3440 -1.2656
  614MOL0     H84696  13.929   3.826   3.522 -1.9287 -1.3413  0.1069
  614MOL0     H84697  13.871   3.925   3.663  1.6094  0.1138  2.3252
  614MOL0     H84698  14.100   3.945   3.743 -2.2213 -0.2076 -0.0270
  614MOL0     H84699  14.158   3.871   3.600  2.0132  0.2989  0.6312
  614MOL0     H84700  14.049   4.143   3.648 -3.1254  1.7990 -1.5034
  614MOL0     H84701  13.960   4.066   3.526 -0.5030 -1.2581  1.8552
  614MOL0     H84702  14.128   4.151   3.391  0.3995 -3.0795 -1.6333
  614MOL0     H84703  14.221   4.008   3.444  0.3549 -0.3366  1.3766
  614MOL0     H84704  14.301   4.147   3.644 -1.6447  2.0595  1.0137
  614MOL0     H84705  14.390   4.171   3.495  1.3824 -0.5350  1.1739
  614MOL0     H84706  14.157   4.339   3.600  0.6041  2.4449 -0.4831
  614MOL0     H84707  14.242   4.368   3.453 -3.7632 -0.6423 -0.3799
  614MOL0     H84708  14.383   4.496   3.569  2.1553  0.6187 -0.9857
  614MOL0     H84709  14.463   4.351   3.614  1.1676  3.6822  0.7237
  614MOL0     H84710  14.428   4.481   3.826 -0.8716  2.4849 -0.2972
  614MOL0     H84711  14.342   4.330   3.828  1.5612 -0.0104  0.1258
  614MOL0     H84712  13.957   3.517   3.829  0.9925 -1.5572 -2.4054
  614MOL0     H84713  13.773   3.350   3.844  0.9743  0.7643  0.0173
  614MOL0     H84714  13.336   3.247   3.645 -0.1762  2.4463  1.6235
  614MOL0     H84715  13.168   3.097   3.623 -0.8115  1.5039 -0.6034
  614MOL0     H84716  11.826   2.566   3.092 -1.0522  3.1867 -1.0952
  614MOL0     H84717  11.599   2.694   3.079 -1.0711 -0.4113 -7.0246
  614MOL0     H84718  11.113   2.511   3.146  2.2476  0.6085  0.2712
  614MOL0     H84719  10.879   2.568   3.150  1.5020 -1.6702 -0.1961
  614MOL0     H84720  10.780   2.905   3.145 -1.9960 -0.6698  1.8180
  614MOL0     H84721  10.751   2.955   2.975  0.8605  2.1226  1.5894
  614MOL0     H84722  10.520   2.823   3.005  0.8064 -1.7994  1.2620
  614MOL0     H84723  10.546   2.979   3.105 -0.1403  0.4975 -2.2245
  614MOL0     H84724  10.578   2.700   3.224  0.2914  0.2188 -1.7337
  614MOL0     H84725  10.608   2.858   3.288 -0.1537 -0.9027  0.7661
  614MOL0     H84726  10.340   2.847   3.175  3.6698  1.4503 -1.1067
  614MOL0     H84727  10.389   2.884   3.340 -3.5390  0.7459 -0.5794
  614MOL0     H84728  10.260   2.486   3.396  2.3779 -1.4360 -2.8403
  614MOL0     H84729  10.921   2.867   2.865  0.3893 -1.6620 -1.9986
  614MOL0     H84730  11.271   2.937   2.894  0.8960  1.9237 -1.7918
  614MOL0     H84731  11.258   2.831   2.751  1.3583 -0.5535  1.5212
  614MOL0     H84732  11.131   2.942   2.795 -0.6637 -1.8496 -2.1234
  615MOL0     O84733   8.119   6.259   6.526 -0.1549 -0.5746 -0.1975
  615MOL0     C84734   8.090   6.202   6.628  0.1887  0.2869  0.3803
  615MOL0     O84735   8.172   6.155   6.724 -0.1185 -0.4697 -0.9784
  615MOL0     C84736   8.297   6.134   6.678  0.6867 -0.0541 -1.8438
  615MOL0     C84737   8.385   6.230   6.633 -0.7470 -0.8790 -1.0047
  615MOL0     C84738   8.508   6.194   6.583 -0.0406 -1.0293  0.4297
  615MOL0     C84739   8.552   6.062   6.570 -0.7868  0.3962  0.2437
  615MOL0     O84740   8.672   6.012   6.526 -0.7361  0.0667 -0.2634
  615MOL0     C84741   8.748   6.111   6.448 -0.1588 -0.1711  1.1947
  615MOL0     C84742   8.856   6.044   6.358 -0.0890  0.0270  0.3089
  615MOL0     C84743   8.783   5.964   6.246  0.4387  0.5549 -0.0078
  615MOL0     C84744   8.874   5.908   6.146  0.2904  0.4182  0.2406
  615MOL0     C84745   8.820   5.901   6.008 -0.7211  0.1885 -0.3037
  615MOL0     C84746   8.925   5.867   5.903  0.2230 -0.1191 -0.2340
  615MOL0     C84747   8.962   5.714   5.903 -0.1369 -0.4411  0.7127
  615MOL0     C84748   9.042   5.661   5.788  0.0257 -0.9682 -0.2659
  615MOL0     N84749   8.967   5.593   5.677 -0.3157  0.2839 -0.1846
  615MOL0     C84750   8.911   5.645   5.568  0.5608 -0.3445  0.6398
  615MOL0     C84751   8.878   5.549   5.484  0.1439 -0.2400  0.6097
  615MOL0     C84752   8.822   5.554   5.351 -0.7630  0.4630 -0.1049
  615MOL0     C84753   8.899   5.649   5.261 -1.0062  0.1725  0.4002
  615MOL0     C84754   9.002   5.601   5.159 -0.0765  0.0461 -0.1295
  615MOL0     C84755   9.128   5.536   5.222 -0.3931 -0.7479  0.3852
  615MOL0     O84756   9.182   5.435   5.138  0.1425 -0.2467 -0.0454
  615MOL0     C84757   9.240   5.467   5.015  0.4227 -0.2907  0.6189
  615MOL0     C84758   9.266   5.364   4.930 -1.2896  0.3497 -0.9421
  615MOL0     C84759   9.324   5.384   4.804  0.1166 -0.7389  0.1580
  615MOL0     C84760   9.338   5.262   4.716  0.5392  0.9285  0.3658
  615MOL0     C84761   9.373   5.515   4.763  0.8417 -0.2314 -0.7006
  615MOL0     C84762   9.427   5.547   4.628 -0.1227 -0.1362 -0.2815
  615MOL0     O84763   9.487   5.445   4.563 -0.1246 -0.0491  0.5488
  615MOL0     C84764   9.560   5.495   4.460 -0.7454  0.3150  0.0730
  615MOL0     C84765   9.705   5.503   4.478 -0.5364  0.2894  0.1274
  615MOL0     C84766   9.785   5.551   4.376  0.3610 -0.5595  0.4372
  615MOL0     C84767   9.728   5.580   4.249 -0.3442  0.2634 -0.3978
  615MOL0     O84768   9.812   5.600   4.140 -0.2579 -0.6012 -0.4573
  615MOL0     C84769   9.768   5.640   4.008  0.1513 -0.1980 -0.0904
  615MOL0     C84770   9.857   5.737   3.938 -0.1956  0.8189 -0.1111
  615MOL0     C84771   9.796   5.805   3.819 -0.3973 -0.6205  1.1777
  615MOL0     C84772   9.906   5.836   3.722 -0.0953 -0.0372  0.2928
  615MOL0     C84773   9.845   5.876   3.580 -1.5067 -0.5077  0.5992
  615MOL0     C84774   9.788   5.762   3.503 -0.0360  1.1986  0.9835
  615MOL0     C84775   9.715   5.810   3.371  0.1467 -0.3075  0.4244
  615MOL0     C84776   9.676   5.687   3.277  0.5148 -0.2551 -0.2364
  615MOL0    Cl84777   9.569   5.728   3.163  0.0651 -0.0245 -0.0289
  615MOL0     C84778   9.589   5.548   4.231 -0.1663  0.1169 -0.1831
  615MOL0     C84779   9.514   5.512   4.334 -0.1071 -0.0904 -0.2023
  615MOL0     O84780   9.402   5.661   4.577 -0.4631 -0.1953  0.2852
  615MOL0     C84781   9.347   5.624   4.855 -0.1805  0.5019 -0.1272
  615MOL0     C84782   9.283   5.599   4.976 -0.7243 -0.3054  0.5071
  615MOL0     N84783   8.918   5.427   5.542  0.2504  0.4665 -0.0210
  615MOL0     N84784   8.979   5.458   5.652 -0.4657 -0.5689 -0.0139
  615MOL0     C84785   8.471   5.960   6.619 -0.2698 -0.1794  0.4087
  615MOL0     C84786   8.345   6.002   6.683  0.0145  0.0124 -0.8786
  615MOL0     C84787   7.949   6.194   6.657 -1.1896 -0.1932 -0.0178
  615MOL0     C84788   7.919   6.085   6.746 -0.0801  0.4901  0.0894
  615MOL0     C84789   7.791   6.055   6.789  0.4145 -0.2924 -0.0471
  615MOL0     C84790   7.682   6.129   6.737  0.5645 -0.1555 -0.6198
  615MOL0     O84791   7.550   6.084   6.766 -0.0612 -0.4617  0.0056
  615MOL0     C84792   7.432   6.149   6.711  0.5979  0.2204 -1.0222
  615MOL0     C84793   7.332   6.123   6.820 -0.2807  0.0297 -0.6070
  615MOL0     C84794   7.284   5.974   6.832  0.4982  0.4049  0.0265
  615MOL0     C84795   7.210   5.929   6.958  0.4992 -0.3223 -0.4401
  615MOL0     C84796   7.178   5.788   6.943 -0.4136 -0.1415  0.3921
  615MOL0     C84797   7.166   5.674   6.927 -0.7133  0.1247  0.3247
  615MOL0     C84798   7.712   6.236   6.653  0.1938 -0.5146 -0.3429
  615MOL0     C84799   7.839   6.271   6.611  0.8543  0.1604 -0.4702
  615MOL0     C84800   7.844   6.385   6.516 -0.8154  0.1337  0.6738
  615MOL0     H84801   8.366   6.337   6.632  2.3700 -0.1737  1.0273
  615MOL0     H84802   8.559   6.278   6.536  0.3308 -2.5326 -2.0191
  615MOL0     H84803   8.791   6.180   6.521 -2.4853  0.4702  2.0413
  615MOL0     H84804   8.683   6.165   6.379  1.5067  1.1504  0.5864
  615MOL0     H84805   8.912   6.125   6.309 -1.5103  1.8832  1.5853
  615MOL0     H84806   8.918   5.987   6.427 -2.6469 -0.9944  1.9436
  615MOL0     H84807   8.727   5.888   6.301 -0.6605  3.3538  3.0805
  615MOL0     H84808   8.705   6.025   6.199 -1.1649 -0.5467  1.1259
  615MOL0     H84809   8.963   5.971   6.146  0.6049 -0.0274  0.0233
  615MOL0     H84810   8.916   5.814   6.180 -0.1504  0.2673  0.3832
  615MOL0     H84811   8.795   6.005   5.986 -0.4929  0.2665 -0.1945
  615MOL0     H84812   8.738   5.828   6.008  0.9537 -1.8050  0.0858
  615MOL0     H84813   8.883   5.904   5.808 -2.5900 -1.1904  0.4764
  615MOL0     H84814   9.018   5.923   5.911 -0.6342  1.3768 -0.3020
  615MOL0     H84815   8.869   5.657   5.907 -1.5469  1.3531 -2.6038
  615MOL0     H84816   9.024   5.697   5.992  3.8886  0.4498 -1.6709
  615MOL0     H84817   9.108   5.739   5.746 -3.0290  1.5877 -0.7000
  615MOL0     H84818   9.115   5.587   5.820  2.5026  0.7865 -1.4831
  615MOL0     H84819   8.890   5.751   5.555 -0.1052 -0.0038  3.8205
  615MOL0     H84820   8.721   5.597   5.350  0.1438  2.8666  1.2435
  615MOL0     H84821   8.819   5.453   5.310  1.2158 -0.0798  0.9544
  615MOL0     H84822   8.813   5.689   5.205 -3.2136 -3.8016  0.6114
  615MOL0     H84823   8.937   5.739   5.311 -0.3322  1.2932 -1.9504
  615MOL0     H84824   8.949   5.531   5.094 -1.7478 -0.1178  1.3545
  615MOL0     H84825   9.033   5.688   5.099 -0.1301 -0.2954 -0.6567
  615MOL0     H84826   9.200   5.617   5.239 -1.4842  0.9553 -2.2557
  615MOL0     H84827   9.098   5.505   5.322  0.5247  0.7863  1.1815
  615MOL0     H84828   9.239   5.266   4.966  0.3670  0.4904  0.8649
  615MOL0     H84829   9.290   5.281   4.619  1.4152  0.7013 -0.1267
  615MOL0     H84830   9.306   5.171   4.768 -0.3870  2.6780  3.0016
  615MOL0     H84831   9.444   5.242   4.697  0.4585 -1.2813  1.8138
  615MOL0     H84832   9.744   5.467   4.573 -1.2479 -0.0046  0.3085
  615MOL0     H84833   9.893   5.548   4.376  0.4886  1.5974 -1.1337
  615MOL0     H84834   9.754   5.549   3.950 -3.2701 -0.1995  0.5331
  615MOL0     H84835   9.672   5.693   4.016  0.4882  0.6018 -1.1978
  615MOL0     H84836   9.888   5.815   4.008 -2.3256  0.5597  1.1884
  615MOL0     H84837   9.944   5.679   3.904 -2.3061 -1.3724 -2.1449
  615MOL0     H84838   9.726   5.885   3.845 -2.2994 -2.2819  1.3795
  615MOL0     H84839   9.732   5.731   3.770 -1.6504 -1.1637  3.4603
  615MOL0     H84840   9.965   5.749   3.692  1.3202  0.6212  1.0801
  615MOL0     H84841   9.969   5.919   3.757  0.8922  0.3339 -2.1220
  615MOL0     H84842   9.777   5.961   3.593  2.9638  3.5717  0.3434
  615MOL0     H84843   9.918   5.922   3.513 -1.0960 -0.9431  0.7454
  615MOL0     H84844   9.724   5.710   3.575  0.9364  0.1504  1.1088
  615MOL0     H84845   9.869   5.695   3.474 -2.0843 -0.2588 -1.7820
  615MOL0     H84846   9.774   5.876   3.307  0.0069  0.9553  1.5705
  615MOL0     H84847   9.620   5.856   3.400  0.2780  1.4481 -1.6909
  615MOL0     H84848   9.627   5.615   3.343  1.3572  0.6601  1.4632
  615MOL0     H84849   9.761   5.635   3.232  0.6446  0.1997 -0.5147
  615MOL0     H84850   9.543   5.564   4.134 -1.1468 -2.1617 -0.1367
  615MOL0     H84851   9.408   5.495   4.318  0.0313 -0.6911 -0.5205
  615MOL0     H84852   9.362   5.729   4.832  1.0712  1.1713  3.1134
  615MOL0     H84853   9.274   5.675   5.052  1.0788 -1.5158  2.0304
  615MOL0     H84854   8.513   5.862   6.636 -0.4466  0.2308  4.1642
  615MOL0     H84855   8.292   5.914   6.717 -1.1664  0.2168 -2.0775
  615MOL0     H84856   7.997   6.019   6.783  0.4212  1.6709  1.2162
  615MOL0     H84857   7.774   5.983   6.868  3.9958  1.2120  2.3434
  615MOL0     H84858   7.462   6.254   6.713 -0.5364  0.5701  1.4354
  615MOL0     H84859   7.396   6.118   6.613 -0.3311 -0.3109 -0.5232
  615MOL0     H84860   7.245   6.186   6.795 -0.6500 -0.3693 -0.3505
  615MOL0     H84861   7.374   6.173   6.908  1.2259  3.5785 -3.1173
  615MOL0     H84862   7.226   5.955   6.741 -0.8005  1.2730  0.6339
  615MOL0     H84863   7.373   5.913   6.814  0.8161  1.1189 -0.8803
  615MOL0     H84864   7.113   5.976   6.973  0.1715 -1.3701  0.8194
  615MOL0     H84865   7.262   5.963   7.048 -3.7538  2.9368  1.1114
  615MOL0     H84866   7.161   5.568   6.908 -1.9073  0.5064 -1.7588
  615MOL0     H84867   7.626   6.298   6.627 -1.8389 -2.4247  1.3397
  615MOL0     H84868   7.744   6.427   6.500 -2.5391 -3.9512 -0.7191
  615MOL0     H84869   7.909   6.469   6.543 -0.3596  0.8507 -2.2419
  615MOL0     H84870   7.892   6.342   6.428 -1.7044  0.1225  0.1819
  616MOL0     O84871   6.079   4.705   6.790  0.1467  0.0161 -0.1415
  616MOL0     C84872   6.011   4.655   6.884  0.0817 -0.1149 -0.8918
  616MOL0     O84873   6.018   4.697   7.013  0.3349 -0.0745  0.4148
  616MOL0     C84874   6.117   4.784   7.047 -0.2894 -0.1868 -0.2752
  616MOL0     C84875   6.242   4.739   7.083  1.6203 -0.1798 -0.1564
  616MOL0     C84876   6.330   4.822   7.150  0.1847  0.5601  0.5390
  616MOL0     C84877   6.299   4.954   7.181  0.5647 -0.2693 -0.5721
  616MOL0     O84878   6.374   5.041   7.255 -0.3050  0.3641 -0.4614
  616MOL0     C84879   6.456   5.148   7.201  0.8497 -0.0790  0.9128
  616MOL0     C84880   6.540   5.225   7.309 -0.2931 -0.4971  0.9288
  616MOL0     C84881   6.457   5.274   7.428  0.6348 -0.1474  0.3093
  616MOL0     C84882   6.555   5.359   7.518  0.1804 -0.7143  0.0238
  616MOL0     C84883   6.481   5.425   7.639 -0.1706  1.3107 -0.0573
  616MOL0     C84884   6.558   5.543   7.702  0.8865 -0.2254 -0.1677
  616MOL0     C84885   6.462   5.622   7.804  0.5371  0.8801  0.0624
  616MOL0     C84886   6.537   5.731   7.878  0.3465 -0.4099  0.9151
  616MOL0     N84887   6.582   5.685   8.007  0.1712 -0.9608  0.1836
  616MOL0     C84888   6.500   5.675   8.120  0.2456  0.4708 -0.1939
  616MOL0     C84889   6.576   5.701   8.230 -0.2960 -0.0848  0.2474
  616MOL0     C84890   6.524   5.692   8.366  0.0308 -0.4982  1.0908
  616MOL0     C84891   6.442   5.566   8.388 -0.4200 -0.0031 -1.0902
  616MOL0     C84892   6.506   5.425   8.361 -0.6747 -0.3122  0.3605
  616MOL0     C84893   6.658   5.411   8.403  0.1441 -0.1053 -0.0193
  616MOL0     O84894   6.719   5.278   8.390 -0.6581  0.3341  0.1491
  616MOL0     C84895   6.684   5.172   8.464  0.5936  0.3797 -0.4712
  616MOL0     C84896   6.596   5.167   8.578 -0.3511  0.1491 -0.0099
  616MOL0     C84897   6.554   5.044   8.627 -0.8481  0.0603  0.1326
  616MOL0     C84898   6.464   5.035   8.746  0.7754 -1.3318  0.1211
  616MOL0     C84899   6.604   4.925   8.570  0.8587 -0.5152 -1.0897
  616MOL0     C84900   6.545   4.785   8.598 -1.1924  0.1844  0.1963
  616MOL0     O84901   6.629   4.679   8.612 -0.1675  0.2282  0.0612
  616MOL0     C84902   6.596   4.545   8.643 -0.8048  1.2319 -0.0499
  616MOL0     C84903   6.703   4.457   8.627  0.3395  0.0075 -0.3721
  616MOL0     C84904   6.679   4.319   8.648  0.5679 -0.4516 -0.3082
  616MOL0     C84905   6.557   4.268   8.700  0.3281 -0.5226  0.3006
  616MOL0     O84906   6.539   4.148   8.749 -0.3671  0.5486  0.4418
  616MOL0     C84907   6.595   4.036   8.675  0.1340 -0.8766 -0.5065
  616MOL0     C84908   6.556   3.918   8.762 -0.6417  0.6270 -0.2873
  616MOL0     C84909   6.526   3.799   8.674  0.0302  0.1835 -0.0686
  616MOL0     C84910   6.510   3.676   8.763  0.9079 -0.0022 -0.0613
  616MOL0     C84911   6.435   3.566   8.682  0.5781 -0.5931 -0.3086
  616MOL0     C84912   6.505   3.440   8.696 -0.6476  1.7353  0.5673
  616MOL0     C84913   6.465   3.336   8.587  0.5721  0.3541 -0.2046
  616MOL0     C84914   6.521   3.191   8.603  0.2281  0.3019 -0.9784
  616MOL0    Cl84915   6.417   3.099   8.722 -0.0940  0.3920 -0.2241
  616MOL0     C84916   6.448   4.362   8.713  0.3778  0.9484  0.0391
  616MOL0     C84917   6.472   4.491   8.686 -0.3491 -0.7098  0.1104
  616MOL0     O84918   6.424   4.780   8.586 -0.5601 -0.5669  0.4429
  616MOL0     C84919   6.705   4.934   8.476 -0.1903  0.9703 -0.4964
  616MOL0     C84920   6.732   5.053   8.417  0.7875 -0.3304 -0.0537
  616MOL0     N84921   6.709   5.713   8.185 -0.2941  0.2368  0.1592
  616MOL0     N84922   6.713   5.701   8.052 -0.5570  0.2448  0.3015
  616MOL0     C84923   6.181   5.004   7.127  0.1411 -0.0502  0.8028
  616MOL0     C84924   6.088   4.919   7.059  0.4149 -0.4418  0.1895
  616MOL0     C84925   5.899   4.561   6.850 -0.2742  0.4221 -0.1548
  616MOL0     C84926   5.883   4.450   6.932 -0.3713 -0.4857 -0.4640
  616MOL0     C84927   5.763   4.381   6.939 -0.8301  0.3503  0.0032
  616MOL0     C84928   5.662   4.410   6.846  0.3396  0.0181 -0.6507
  616MOL0     O84929   5.562   4.322   6.843  0.0969 -0.3789  0.3949
  616MOL0     C84930   5.443   4.361   6.781  0.7226  0.0297 -0.7233
  616MOL0     C84931   5.337   4.252   6.787  0.0910  0.1635 -0.9312
  616MOL0     C84932   5.289   4.231   6.931 -0.0391  0.8701  0.4778
  616MOL0     C84933   5.168   4.150   6.924  0.3092  0.9293  0.1161
  616MOL0     C84934   5.199   4.005   6.932 -0.6408  0.0379  0.5163
  616MOL0     C84935   5.227   3.884   6.932 -0.5302 -0.2857  0.8207
  616MOL0     C84936   5.685   4.511   6.744  0.4105  0.1596  0.2199
  616MOL0     C84937   5.801   4.593   6.743 -0.1001  0.6461  0.3470
  616MOL0     C84938   5.799   4.716   6.664 -0.3092  0.2693 -0.2085
  616MOL0     H84939   6.250   4.631   7.074 -1.8561 -0.4406 -1.6427
  616MOL0     H84940   6.432   4.788   7.165  1.0478  1.3552 -2.7358
  616MOL0     H84941   6.394   5.225   7.155  2.2483 -0.0164 -0.9960
  616MOL0     H84942   6.510   5.107   7.115 -3.2221  0.1010 -1.9843
  616MOL0     H84943   6.629   5.170   7.342  3.5743  3.0004 -2.5262
  616MOL0     H84944   6.588   5.305   7.251 -0.4211 -2.6927 -2.5053
  616MOL0     H84945   6.370   5.334   7.401 -0.2554 -1.3210  0.5166
  616MOL0     H84946   6.414   5.192   7.486 -1.9178  0.1549 -1.0158
  616MOL0     H84947   6.634   5.295   7.556 -0.1190 -0.7582  0.5869
  616MOL0     H84948   6.602   5.434   7.454  1.5659 -2.3778 -0.9678
  616MOL0     H84949   6.445   5.349   7.710 -2.9666  1.5932 -1.0486
  616MOL0     H84950   6.388   5.473   7.607 -1.7031 -0.8369  0.8416
  616MOL0     H84951   6.643   5.507   7.761  0.0430  0.7189  1.7152
  616MOL0     H84952   6.592   5.613   7.625  1.2166 -2.8046 -2.5090
  616MOL0     H84953   6.409   5.556   7.873 -2.0517  2.5996 -0.1215
  616MOL0     H84954   6.384   5.676   7.749 -2.3611 -2.6641  0.3631
  616MOL0     H84955   6.623   5.764   7.819  0.8628 -2.8434  0.1983
  616MOL0     H84956   6.472   5.819   7.890  0.4098 -0.3184  0.6000
  616MOL0     H84957   6.393   5.654   8.115  0.1727  0.5669  0.7348
  616MOL0     H84958   6.465   5.783   8.379 -0.0963 -0.1922 -1.2773
  616MOL0     H84959   6.599   5.691   8.446 -1.0325 -5.5221  2.4159
  616MOL0     H84960   6.414   5.571   8.494  1.6139 -1.2391 -0.4385
  616MOL0     H84961   6.341   5.566   8.346 -0.3819 -3.0319 -1.3993
  616MOL0     H84962   6.453   5.344   8.412 -0.6651  1.1408  2.8214
  616MOL0     H84963   6.502   5.414   8.252  0.1963  0.8582  0.1862
  616MOL0     H84964   6.724   5.471   8.340  0.5557  0.6821  1.1423
  616MOL0     H84965   6.666   5.444   8.507 -2.7024  1.6800 -0.2656
  616MOL0     H84966   6.560   5.256   8.628 -2.7978  0.7351 -2.5580
  616MOL0     H84967   6.396   4.950   8.741 -1.2127  0.1746  0.4454
  616MOL0     H84968   6.402   5.120   8.717  4.3388  1.1032 -1.0873
  616MOL0     H84969   6.513   5.063   8.840  0.1756 -1.4058  0.4603
  616MOL0     H84970   6.792   4.511   8.597 -0.6316  2.2541  0.6278
  616MOL0     H84971   6.766   4.258   8.628  1.3466 -0.1977  1.9933
  616MOL0     H84972   6.563   4.021   8.572  0.9953  2.0530 -1.2971
  616MOL0     H84973   6.703   4.053   8.681 -0.0131  0.1749 -0.6149
  616MOL0     H84974   6.637   3.894   8.831 -0.6366 -2.2117 -1.1741
  616MOL0     H84975   6.478   3.946   8.834  0.8501  0.6913  1.3633
  616MOL0     H84976   6.608   3.778   8.604 -0.8085 -0.6290 -0.8269
  616MOL0     H84977   6.432   3.811   8.620  0.9058  1.2229 -1.4298
  616MOL0     H84978   6.443   3.708   8.843  2.3209  1.7075  0.5060
  616MOL0     H84979   6.606   3.642   8.803 -0.5341 -2.2697  1.6957
  616MOL0     H84980   6.332   3.562   8.721 -0.4636 -2.0552 -2.9760
  616MOL0     H84981   6.429   3.587   8.575  0.6417  3.7624  0.3289
  616MOL0     H84982   6.494   3.399   8.797 -2.5065 -0.1347 -0.3033
  616MOL0     H84983   6.612   3.458   8.686 -0.4756  0.6766  0.3258
  616MOL0     H84984   6.499   3.360   8.486  1.9349 -0.9682 -0.1071
  616MOL0     H84985   6.356   3.328   8.583  0.5388  0.3061  0.6655
  616MOL0     H84986   6.629   3.186   8.619  0.3725 -1.4051 -2.2325
  616MOL0     H84987   6.517   3.137   8.508  0.9369 -0.6322 -0.4877
  616MOL0     H84988   6.355   4.312   8.740  1.6057  0.3621  3.8326
  616MOL0     H84989   6.404   4.574   8.703  3.0231  2.3329 -0.0568
  616MOL0     H84990   6.755   4.845   8.439 -0.0954  1.6132 -1.9641
  616MOL0     H84991   6.806   5.076   8.342  1.0989  1.9851  0.8839
  616MOL0     H84992   6.152   5.107   7.146  1.4356 -0.3431  5.5422
  616MOL0     H84993   5.989   4.954   7.028  1.4297  1.0207 -1.6216
  616MOL0     H84994   5.958   4.430   7.008  1.8764 -1.2073 -2.7309
  616MOL0     H84995   5.750   4.294   7.004  1.4873  0.2600  0.4259
  616MOL0     H84996   5.399   4.451   6.826 -1.3169 -0.1784 -2.1897
  616MOL0     H84997   5.470   4.364   6.675  0.9788  0.8921 -0.6462
  616MOL0     H84998   5.373   4.151   6.765  0.0936 -1.1393  3.8757
  616MOL0     H84999   5.257   4.277   6.717  2.3297  0.0517 -3.6999
  616MOL0     H85000   5.366   4.184   6.993 -2.0160  0.0981  2.5032
  616MOL0     H85001   5.251   4.326   6.969 -3.8506  0.1999 -1.2215
  616MOL0     H85002   5.111   4.162   6.832  2.4188  0.7332 -1.3120
  616MOL0     H85003   5.109   4.174   7.012 -2.5440 -0.1622 -1.3808
  616MOL0     H85004   5.281   3.792   6.921 -0.7561 -0.4494  1.0742
  616MOL0     H85005   5.612   4.528   6.666 -0.6553 -2.5419  0.5283
  616MOL0     H85006   5.865   4.796   6.700 -1.9249  2.3902 -1.7084
  616MOL0     H85007   5.826   4.703   6.558 -0.0991  1.0676 -0.2635
  616MOL0     H85008   5.696   4.749   6.654 -0.7617 -1.1420 -0.4815
  617MOL0     O85009   8.097  10.683   6.522  0.7458 -0.2459  0.6647
  617MOL0     C85010   8.151  10.724   6.625  0.4961 -0.3450 -0.2524
  617MOL0     O85011   8.260  10.798   6.634 -0.2192 -0.0930  0.0285
  617MOL0     C85012   8.331  10.824   6.516  0.0879 -0.1751  0.2379
  617MOL0     C85013   8.266  10.881   6.403 -0.2659 -0.1552  0.3815
  617MOL0     C85014   8.336  10.926   6.288  0.1785 -0.5991 -0.8337
  617MOL0     C85015   8.478  10.921   6.287  0.0689  0.0764 -0.3612
  617MOL0     O85016   8.543  10.952   6.172 -0.1383 -0.1812 -0.3664
  617MOL0     C85017   8.671  10.885   6.153 -0.2156 -0.2427 -0.2827
  617MOL0     C85018   8.668  10.725   6.146 -0.2948 -1.1284  0.4033
  617MOL0     C85019   8.569  10.663   6.044 -0.4921  0.2547 -1.2431
  617MOL0     C85020   8.445  10.582   6.098 -1.2969  0.5616 -0.3360
  617MOL0     C85021   8.388  10.489   5.988  0.7720 -0.6099 -0.7818
  617MOL0     C85022   8.269  10.554   5.925  1.1287 -1.2562 -0.1262
  617MOL0     C85023   8.137  10.580   6.007 -1.1073  0.2215 -0.0748
  617MOL0     C85024   8.096  10.468   6.100  0.8806  0.4657 -0.2233
  617MOL0     N85025   8.076  10.346   6.021 -0.5469  0.4228 -0.9345
  617MOL0     C85026   8.145  10.229   6.047 -0.5931  0.0213  0.3687
  617MOL0     C85027   8.088  10.131   5.970 -0.0754 -0.0622 -0.8459
  617MOL0     C85028   8.125   9.989   5.949 -0.0220  0.1430 -0.6715
  617MOL0     C85029   8.150   9.949   5.804 -0.5509 -0.4067  0.9810
  617MOL0     C85030   8.161   9.796   5.786 -0.0999  0.1120  0.8766
  617MOL0     C85031   8.194   9.754   5.639  0.3352 -1.2365  0.1110
  617MOL0     O85032   8.208   9.612   5.632 -0.4474 -0.1750 -0.5144
  617MOL0     C85033   8.309   9.573   5.549  0.2090 -0.6530 -0.7876
  617MOL0     C85034   8.424   9.525   5.596  0.0522  0.8801 -0.6876
  617MOL0     C85035   8.532   9.486   5.515 -0.4347 -0.0096 -0.2158
  617MOL0     C85036   8.651   9.441   5.592  0.4973  1.1274  0.1690
  617MOL0     C85037   8.532   9.504   5.371  0.0136  0.1147 -0.4772
  617MOL0     C85038   8.633   9.455   5.278  0.0863 -0.1070 -0.3479
  617MOL0     O85039   8.645   9.510   5.163  0.6774  0.2042  0.0522
  617MOL0     C85040   8.744   9.474   5.079  0.3135 -0.0862 -0.2594
  617MOL0     C85041   8.877   9.502   5.108 -0.6085 -0.7211 -0.9834
  617MOL0     C85042   8.982   9.488   5.016 -0.3663 -0.2827 -0.5304
  617MOL0     C85043   8.954   9.442   4.885  0.2022  0.0235  0.0650
  617MOL0     O85044   9.046   9.424   4.794 -0.9437  0.3693  0.7807
  617MOL0     C85045   9.110   9.544   4.745  0.5333 -0.1641  0.7311
  617MOL0     C85046   9.105   9.567   4.595 -0.4326 -0.0344  1.1441
  617MOL0     C85047   8.961   9.596   4.536  0.0254 -0.8933 -0.0378
  617MOL0     C85048   8.955   9.643   4.393  0.2661  0.9220 -0.5055
  617MOL0     C85049   9.005   9.785   4.364 -0.0029 -0.3360  0.5981
  617MOL0     C85050   9.008   9.811   4.212 -0.3574  0.6451 -0.4721
  617MOL0     C85051   9.021   9.958   4.174  0.2017  0.0311  0.5844
  617MOL0     C85052   9.137  10.035   4.241 -0.0033  0.1541 -0.2328
  617MOL0    Cl85053   9.155  10.190   4.174  0.3864 -0.3348  0.2084
  617MOL0     C85054   8.825   9.422   4.858  0.1707 -0.2679  0.3529
  617MOL0     C85055   8.719   9.430   4.946 -0.4159 -0.4215 -0.4383
  617MOL0     O85056   8.702   9.362   5.315  0.0689  0.1446 -0.2526
  617MOL0     C85057   8.419   9.572   5.328 -0.1408 -0.1623  0.4282
  617MOL0     C85058   8.309   9.598   5.410  0.3206  0.6934 -0.6457
  617MOL0     N85059   7.967  10.182   5.920 -0.4745  0.0001  0.4149
  617MOL0     N85060   7.965  10.314   5.947  0.3095 -0.8818 -0.6113
  617MOL0     C85061   8.543  10.880   6.407  1.1353  0.3090  0.0028
  617MOL0     C85062   8.474  10.834   6.526  0.1983  0.0459 -0.4882
  617MOL0     C85063   8.083  10.669   6.750 -0.5968  0.2692  0.1999
  617MOL0     C85064   7.947  10.617   6.740 -0.2917  0.8477 -0.0159
  617MOL0     C85065   7.886  10.555   6.850  0.3612 -0.0345 -1.0806
  617MOL0     C85066   7.946  10.539   6.972 -1.0555  0.4867  0.4919
  617MOL0     O85067   7.891  10.485   7.083 -0.0993 -0.2437  0.0643
  617MOL0     C85068   7.765  10.416   7.081  0.3942  0.0308  0.7808
  617MOL0     C85069   7.756  10.341   7.203  0.3832 -0.1635  0.5597
  617MOL0     C85070   7.639  10.227   7.216  0.2566  0.0985  0.0316
  617MOL0     C85071   7.651  10.140   7.344 -0.9220 -0.3651  1.1051
  617MOL0     C85072   7.679  10.232   7.456  1.2040  0.0626  0.2520
  617MOL0     C85073   7.700  10.311   7.549 -0.1605 -0.9658 -0.3180
  617MOL0     C85074   8.078  10.582   6.985 -0.7762  0.0614  0.3116
  617MOL0     C85075   8.146  10.650   6.878 -0.0686 -0.2750 -1.1367
  617MOL0     C85076   8.286  10.712   6.906 -0.4011  0.6692  0.9049
  617MOL0     H85077   8.161  10.909   6.404  0.1266  1.4541  0.0842
  617MOL0     H85078   8.290  10.976   6.204  0.6762 -0.2040 -0.8736
  617MOL0     H85079   8.736  10.933   6.227  0.1479  2.8063 -2.3889
  617MOL0     H85080   8.716  10.927   6.063  1.2246 -0.8005  0.1470
  617MOL0     H85081   8.767  10.704   6.107 -0.3550 -0.0812 -0.3756
  617MOL0     H85082   8.652  10.684   6.246 -1.6551  2.7739  1.9983
  617MOL0     H85083   8.528  10.739   5.976 -4.3638 -1.3067 -0.8982
  617MOL0     H85084   8.625  10.584   5.994 -0.2289 -0.0921 -0.4146
  617MOL0     H85085   8.462  10.525   6.190 -0.5937  2.7929  0.9931
  617MOL0     H85086   8.376  10.658   6.135 -0.7164  2.3840 -2.7578
  617MOL0     H85087   8.357  10.394   6.034 -2.9841  1.7227  2.0471
  617MOL0     H85088   8.457  10.455   5.910  1.0614 -2.8353  0.3560
  617MOL0     H85089   8.303  10.648   5.880  1.2028 -0.4758  1.4937
  617MOL0     H85090   8.228  10.486   5.849  1.2047 -1.0744 -0.3303
  617MOL0     H85091   8.057  10.616   5.943 -2.1019  0.3437  1.1950
  617MOL0     H85092   8.160  10.671   6.063 -0.7162  1.7298 -2.5430
  617MOL0     H85093   8.176  10.458   6.174  0.3161  1.7501  0.5975
  617MOL0     H85094   8.012  10.504   6.160  1.6708  2.4467 -0.2096
  617MOL0     H85095   8.237  10.208   6.101 -0.0821 -0.6494 -0.7326
  617MOL0     H85096   8.049   9.917   5.983  0.0584  0.5121  0.3352
  617MOL0     H85097   8.209   9.963   6.015 -2.1275 -1.5794  1.5334
  617MOL0     H85098   8.075   9.989   5.735 -0.8052 -1.4124  0.6627
  617MOL0     H85099   8.244   9.991   5.766 -1.7783 -0.1566 -2.0058
  617MOL0     H85100   8.237   9.763   5.858  2.3453  0.3613 -1.4273
  617MOL0     H85101   8.067   9.749   5.816  0.9796 -1.7677  1.4422
  617MOL0     H85102   8.116   9.784   5.569  1.0804  1.5846  0.3729
  617MOL0     H85103   8.284   9.811   5.614 -1.0676  1.8164  1.4707
  617MOL0     H85104   8.419   9.492   5.699 -1.3215  1.0479 -0.6752
  617MOL0     H85105   8.652   9.333   5.572 -0.8550  1.1537 -0.1120
  617MOL0     H85106   8.636   9.456   5.699 -0.9379 -0.3188  0.2090
  617MOL0     H85107   8.748   9.485   5.566  2.0910 -1.1722  1.8442
  617MOL0     H85108   8.913   9.524   5.208 -0.9779 -2.4237 -0.4368
  617MOL0     H85109   9.088   9.508   5.034 -0.0976 -2.0300  0.0195
  617MOL0     H85110   9.067   9.628   4.801  1.3904 -0.2293  1.5225
  617MOL0     H85111   9.216   9.559   4.769  0.1623 -0.2297  2.5552
  617MOL0     H85112   9.155   9.661   4.569 -0.9683  0.4792  1.9173
  617MOL0     H85113   9.146   9.483   4.539 -1.7944  1.0245 -1.6388
  617MOL0     H85114   8.909   9.668   4.600 -1.5263  0.4598 -2.6605
  617MOL0     H85115   8.907   9.503   4.558  0.1585 -1.0266 -0.2760
  617MOL0     H85116   8.860   9.639   4.339  0.5656 -1.4199 -0.9489
  617MOL0     H85117   9.024   9.577   4.339  0.2545  1.3304 -1.0278
  617MOL0     H85118   8.936   9.850   4.418 -0.4944  1.8529 -2.3867
  617MOL0     H85119   9.109   9.803   4.395 -0.0606 -0.9996  1.2104
  617MOL0     H85120   8.921   9.778   4.153  0.0864  0.5498 -1.0900
  617MOL0     H85121   9.098   9.764   4.170  0.8572  1.4158  1.1625
  617MOL0     H85122   8.927  10.007   4.201  0.8974  0.5757  2.1336
  617MOL0     H85123   9.035   9.961   4.066  1.0576 -1.1953  0.6441
  617MOL0     H85124   9.232   9.982   4.230 -0.8105 -1.0943 -1.5707
  617MOL0     H85125   9.120  10.051   4.348  3.0606  0.9107  0.2209
  617MOL0     H85126   8.814   9.398   4.753  3.0087 -0.2030 -0.0478
  617MOL0     H85127   8.621   9.407   4.905 -1.0529  0.6290  0.4691
  617MOL0     H85128   8.424   9.607   5.225  1.5826 -1.4863  0.0197
  617MOL0     H85129   8.229   9.654   5.363 -1.1862  0.8271  1.9045
  617MOL0     H85130   8.651  10.875   6.398  1.3216  3.3935 -0.3686
  617MOL0     H85131   8.523  10.801   6.617  1.6594 -0.1972 -1.3316
  617MOL0     H85132   7.891  10.646   6.652  0.4429 -1.2081 -1.2145
  617MOL0     H85133   7.780  10.531   6.847  0.5704 -0.9394 -1.4377
  617MOL0     H85134   7.682  10.486   7.074 -0.1274 -0.7234 -2.0190
  617MOL0     H85135   7.749  10.359   6.989 -2.6210  2.4484 -0.3684
  617MOL0     H85136   7.734  10.417   7.279 -1.8212 -0.2866  0.1017
  617MOL0     H85137   7.857  10.301   7.218  1.5006  1.5851 -1.7361
  617MOL0     H85138   7.540  10.273   7.218  0.7393  1.2407 -0.9798
  617MOL0     H85139   7.646  10.170   7.123 -0.6941  1.6158 -1.0156
  617MOL0     H85140   7.733  10.072   7.324  0.4974  1.4982  0.2231
  617MOL0     H85141   7.557  10.088   7.362 -1.5852  0.4641  0.2215
  617MOL0     H85142   7.730  10.380   7.624  1.3979 -0.3969 -1.4152
  617MOL0     H85143   8.142  10.560   7.070 -0.2457  1.1806  0.2303
  617MOL0     H85144   8.353  10.671   6.829 -2.9433  0.8557 -1.5805
  617MOL0     H85145   8.279  10.821   6.899  0.0974  0.6852  0.6047
  617MOL0     H85146   8.327  10.680   7.002 -1.5285 -0.9225  0.8816
  618MOL0     O85147   5.989   7.517   8.443  0.7586  1.1562  0.2693
  618MOL0     C85148   6.044   7.512   8.334  0.0281  0.7152 -0.4694
  618MOL0     O85149   6.095   7.398   8.279  0.8231  0.0345 -0.2601
  618MOL0     C85150   6.093   7.275   8.338  0.4082 -0.2812 -0.7896
  618MOL0     C85151   6.191   7.251   8.443  0.3135 -0.5864 -0.2818
  618MOL0     C85152   6.197   7.123   8.503  0.5353  0.3389 -0.7200
  618MOL0     C85153   6.125   7.016   8.449  0.4457 -0.1838  0.8898
  618MOL0     O85154   6.157   6.896   8.511  0.1033 -0.1553 -0.5828
  618MOL0     C85155   6.194   6.776   8.429  0.1327  0.4808  0.0806
  618MOL0     C85156   6.348   6.765   8.396 -1.2787 -0.8188  0.0828
  618MOL0     C85157   6.418   6.682   8.506  0.3014  0.3510  0.2958
  618MOL0     C85158   6.567   6.701   8.492  0.5952  0.7568  0.3557
  618MOL0     C85159   6.658   6.666   8.613  0.8425  0.3538  0.9855
  618MOL0     C85160   6.642   6.514   8.648  0.4400 -0.0906 -0.4628
  618MOL0     C85161   6.710   6.485   8.781  0.0548 -0.0503  0.0531
  618MOL0     C85162   6.613   6.497   8.904  1.0839  0.5625 -0.4900
  618MOL0     N85163   6.684   6.527   9.036 -0.6100 -0.4632  0.6460
  618MOL0     C85164   6.744   6.653   9.064  0.4941  0.0072 -0.7390
  618MOL0     C85165   6.799   6.627   9.188 -0.8034  0.0728  0.5811
  618MOL0     C85166   6.895   6.730   9.257 -0.0652  0.2575  0.0183
  618MOL0     C85167   6.920   6.716   9.410 -0.5647  0.5340 -0.4665
  618MOL0     C85168   6.833   6.812   9.489 -0.4987  0.2807  0.1701
  618MOL0     C85169   6.842   6.787   9.642 -0.1139  0.1998 -0.5596
  618MOL0     O85170   6.728   6.835   9.711 -1.3638 -0.0356 -0.8162
  618MOL0     C85171   6.614   6.758   9.709  0.2330  0.1204  0.5865
  618MOL0     C85172   6.582   6.644   9.636 -0.8583  0.2456  0.5709
  618MOL0     C85173   6.450   6.593   9.619 -0.8803 -0.9409 -0.4450
  618MOL0     C85174   6.428   6.473   9.530 -1.0055 -0.1859  0.2832
  618MOL0     C85175   6.344   6.651   9.695  0.1205  0.0609 -0.2416
  618MOL0     C85176   6.197   6.604   9.689  1.0184  0.2457 -0.2903
  618MOL0     O85177   6.099   6.677   9.753 -0.2636 -0.0102  0.0142
  618MOL0     C85178   5.970   6.634   9.771 -0.4158  0.0913 -0.8147
  618MOL0     C85179   5.930   6.501   9.794  0.2744 -0.0064  0.2956
  618MOL0     C85180   5.790   6.481   9.823 -0.6245  0.3039  0.1223
  618MOL0     C85181   5.702   6.586   9.835 -0.1062 -0.7411 -0.0141
  618MOL0     O85182   5.564   6.563   9.841  0.9600 -0.2513  0.2129
  618MOL0     C85183   5.511   6.557   9.979 -0.2079 -0.0812  0.5830
  618MOL0     C85184   5.512   6.700  10.037  0.1876 -0.1618 -0.7772
  618MOL0     C85185   5.422   6.792   9.959  0.7141  0.8657 -0.1575
  618MOL0     C85186   5.270   6.751   9.976  0.7919  0.6743 -0.1521
  618MOL0     C85187   5.173   6.847   9.919  1.0663  0.2925  0.4580
  618MOL0     C85188   5.024   6.808   9.934 -1.2264  0.1829 -0.9088
  618MOL0     C85189   4.936   6.906   9.864 -0.4721  0.4585 -0.3420
  618MOL0     C85190   4.784   6.872   9.861  1.1616 -0.6571  0.1623
  618MOL0    Cl85191   4.761   6.707   9.776 -0.0885  0.1047 -0.2311
  618MOL0     C85192   5.748   6.718   9.819  0.6958 -0.8363  0.1112
  618MOL0     C85193   5.882   6.743   9.791  0.1840  0.1783  0.6405
  618MOL0     O85194   6.180   6.501   9.626  0.3208 -0.5631  0.5352
  618MOL0     C85195   6.373   6.772   9.765 -0.1684 -0.0266  0.5035
  618MOL0     C85196   6.502   6.816   9.767 -0.0221 -0.9338  0.0047
  618MOL0     N85197   6.774   6.497   9.224  0.4534  0.0990  0.1171
  618MOL0     N85198   6.699   6.437   9.132 -0.8777 -0.0592 -0.2426
  618MOL0     C85199   6.033   7.032   8.352  0.3825 -0.0399 -1.1725
  618MOL0     C85200   6.007   7.161   8.300 -1.1975  0.2916 -0.8995
  618MOL0     C85201   6.051   7.637   8.258  0.5550 -0.4247  0.2824
  618MOL0     C85202   5.974   7.745   8.295  0.4547 -0.1860  0.6604
  618MOL0     C85203   5.961   7.866   8.223  0.3476 -0.8252  0.0502
  618MOL0     C85204   6.021   7.882   8.099  0.0181 -0.0588  0.2329
  618MOL0     O85205   6.023   8.007   8.028  0.3782  0.4672 -0.0193
  618MOL0     C85206   5.937   8.106   8.081 -0.2312  0.3573  0.1452
  618MOL0     C85207   5.946   8.221   7.975  0.0876  0.6868 -0.0262
  618MOL0     C85208   5.859   8.344   8.018 -0.2569 -0.2955 -0.3316
  618MOL0     C85209   5.953   8.430   8.100  0.4633  0.4788 -0.3721
  618MOL0     C85210   6.063   8.489   8.017  0.1547 -0.4295 -1.3245
  618MOL0     C85211   6.153   8.530   7.947  0.1262  0.5166  0.3767
  618MOL0     C85212   6.100   7.775   8.052  0.1799  0.1342 -0.5290
  618MOL0     C85213   6.117   7.653   8.133 -0.1010 -0.1449 -0.4624
  618MOL0     C85214   6.211   7.554   8.068  0.1152 -0.1413 -0.7782
  618MOL0     H85215   6.266   7.323   8.474  1.6115 -1.5222 -1.1335
  618MOL0     H85216   6.260   7.104   8.589 -0.1992 -3.4763 -0.8280
  618MOL0     H85217   6.137   6.766   8.336  2.2000 -0.8095 -1.1452
  618MOL0     H85218   6.169   6.687   8.488  0.0215 -0.6154 -1.5567
  618MOL0     H85219   6.361   6.705   8.305 -1.8014 -1.4305  0.4054
  618MOL0     H85220   6.394   6.863   8.380  0.6883 -1.4241  1.6228
  618MOL0     H85221   6.401   6.723   8.606  1.6954  0.4181  0.5236
  618MOL0     H85222   6.383   6.579   8.506 -1.2915  0.8561  0.6653
  618MOL0     H85223   6.603   6.635   8.412  0.3769 -1.2109  1.8276
  618MOL0     H85224   6.586   6.802   8.454 -1.3517  1.1337  0.2909
  618MOL0     H85225   6.624   6.729   8.696 -0.4725  1.6377 -0.4735
  618MOL0     H85226   6.761   6.693   8.587 -0.0993  3.4146 -0.0436
  618MOL0     H85227   6.536   6.486   8.641  0.8966 -1.7262 -1.2265
  618MOL0     H85228   6.695   6.461   8.568 -2.4370 -2.0001 -1.2659
  618MOL0     H85229   6.795   6.552   8.787  1.1870 -0.7351 -4.6944
  618MOL0     H85230   6.744   6.381   8.775  1.1749  0.3836 -1.4780
  618MOL0     H85231   6.541   6.576   8.882 -1.8655 -1.7338  0.3713
  618MOL0     H85232   6.557   6.404   8.916  3.9379 -1.4649 -1.5722
  618MOL0     H85233   6.743   6.747   9.008  1.8482  0.6553  0.2880
  618MOL0     H85234   6.850   6.828   9.238 -1.5817 -0.3067  0.5272
  618MOL0     H85235   6.990   6.722   9.204 -0.3019  2.2825 -0.8228
  618MOL0     H85236   6.902   6.612   9.438 -0.0762  0.2168 -1.3033
  618MOL0     H85237   7.021   6.752   9.433 -0.8811  1.9331 -1.1308
  618MOL0     H85238   6.859   6.915   9.464  2.5432 -0.6265 -0.8693
  618MOL0     H85239   6.734   6.777   9.457 -0.4753 -0.8534  1.2500
  618MOL0     H85240   6.856   6.683   9.670 -1.0183  0.4023  0.6840
  618MOL0     H85241   6.937   6.824   9.682  0.2491 -0.0535 -1.1604
  618MOL0     H85242   6.662   6.594   9.582 -0.4474 -1.9886  3.0801
  618MOL0     H85243   6.356   6.494   9.450  0.1980 -1.9318 -1.3477
  618MOL0     H85244   6.395   6.390   9.593 -1.7244 -0.2780 -0.2035
  618MOL0     H85245   6.523   6.433   9.495 -1.1687 -0.2256 -0.1156
  618MOL0     H85246   6.004   6.422   9.793  0.6154  0.3132 -0.3011
  618MOL0     H85247   5.759   6.379   9.840  1.0926 -0.0162  1.5782
  618MOL0     H85248   5.411   6.514   9.993  0.6434 -2.1847  0.5456
  618MOL0     H85249   5.568   6.483  10.037 -1.2535 -0.4334  1.2005
  618MOL0     H85250   5.486   6.691  10.142 -0.2806 -0.9469 -0.9568
  618MOL0     H85251   5.612   6.745  10.035 -0.6187  2.1381  2.6231
  618MOL0     H85252   5.440   6.775   9.852 -0.6431 -0.8600 -0.1547
  618MOL0     H85253   5.428   6.898   9.984 -0.7681  1.6038 -2.5710
  618MOL0     H85254   5.252   6.740  10.084  0.7530 -0.8583 -0.2792
  618MOL0     H85255   5.255   6.652   9.931  1.4252 -0.0484  1.1649
  618MOL0     H85256   5.191   6.949   9.953  1.7529  0.1464  0.5456
  618MOL0     H85257   5.191   6.852   9.811 -1.3265 -0.6292 -0.0553
  618MOL0     H85258   4.998   6.820  10.040  0.3727  4.0409 -0.7996
  618MOL0     H85259   4.993   6.706   9.909 -1.6111 -0.0123  0.2905
  618MOL0     H85260   4.962   6.911   9.758  0.5943  1.8719 -0.0356
  618MOL0     H85261   4.942   7.001   9.918 -0.3141  1.0706 -1.4079
  618MOL0     H85262   4.720   6.941   9.804  0.0104 -1.5486  0.3368
  618MOL0     H85263   4.740   6.882   9.960  2.4739 -0.2725  0.7220
  618MOL0     H85264   5.676   6.798   9.833  1.1516 -0.4409  0.2161
  618MOL0     H85265   5.917   6.846   9.791 -0.2315  0.4004 -2.4680
  618MOL0     H85266   6.295   6.833   9.809 -0.3428  2.1808 -2.5570
  618MOL0     H85267   6.533   6.898   9.830  0.6438 -0.4149 -0.9724
  618MOL0     H85268   5.966   6.949   8.330 -0.2292 -0.1580  0.8946
  618MOL0     H85269   5.937   7.197   8.225 -0.6450  1.7868 -0.7322
  618MOL0     H85270   5.926   7.749   8.393  1.9270 -2.5423  1.5465
  618MOL0     H85271   5.892   7.934   8.271  1.9609 -0.1515  1.5265
  618MOL0     H85272   5.833   8.073   8.087 -0.1662  0.2552  0.8291
  618MOL0     H85273   5.974   8.140   8.178  0.8503 -3.0576  1.0958
  618MOL0     H85274   5.894   8.181   7.888  1.6338 -2.0369  0.2017
  618MOL0     H85275   6.050   8.245   7.954  0.1788 -0.7339 -1.3771
  618MOL0     H85276   5.813   8.404   7.939 -1.2944  0.6352  0.9365
  618MOL0     H85277   5.781   8.300   8.080 -1.3583 -0.1526 -1.5838
  618MOL0     H85278   5.995   8.372   8.183 -0.0618 -1.0583 -1.1361
  618MOL0     H85279   5.900   8.516   8.143  2.4185  3.0725 -2.7570
  618MOL0     H85280   6.235   8.564   7.887 -0.2043  1.3087  0.3652
  618MOL0     H85281   6.161   7.796   7.965 -4.1370  2.3157 -3.4088
  618MOL0     H85282   6.271   7.597   7.988  1.3126  1.1141  0.7241
  618MOL0     H85283   6.290   7.520   8.136 -1.1491  1.3642  1.5925
  618MOL0     H85284   6.153   7.471   8.025 -1.8709  1.6455 -1.7388
  619MOL0     O85285   4.589  10.353   1.334  0.3456  0.5390  0.4180
  619MOL0     C85286   4.556  10.452   1.271  0.3159  0.3048 -0.7489
  619MOL0     O85287   4.434  10.451   1.200  0.2671  0.7346  0.1973
  619MOL0     C85288   4.357  10.337   1.196 -0.3123  0.4827  0.3071
  619MOL0     C85289   4.325  10.272   1.078  0.2219  0.9782  0.2422
  619MOL0     C85290   4.229  10.165   1.085 -1.0023 -0.1862 -0.0271
  619MOL0     C85291   4.181  10.122   1.208  0.0090 -0.6475  0.4412
  619MOL0     O85292   4.083  10.018   1.220  0.0203 -0.6122 -0.4097
  619MOL0     C85293   4.015   9.970   1.111  0.7995  0.1068  0.6158
  619MOL0     C85294   4.089   9.857   1.042  0.1804 -0.8454  0.7280
  619MOL0     C85295   4.145   9.759   1.152 -0.8569  0.0559  0.2421
  619MOL0     C85296   4.175   9.617   1.095 -0.5757  0.2600  0.7302
  619MOL0     C85297   4.213   9.519   1.204 -0.4904 -0.3198  0.3617
  619MOL0     C85298   4.253   9.390   1.131  0.2810 -0.2411  0.0155
  619MOL0     C85299   4.239   9.271   1.234 -0.0074  0.1679  0.4830
  619MOL0     C85300   4.294   9.137   1.188 -1.2340  0.7359  0.3336
  619MOL0     N85301   4.443   9.154   1.199  0.2247  0.1728  0.1958
  619MOL0     C85302   4.513   9.125   1.309 -0.4666  0.2782  0.4084
  619MOL0     C85303   4.640   9.124   1.267  0.2690  0.8322 -0.2091
  619MOL0     C85304   4.750   9.082   1.369 -0.2802  0.7958  0.3429
  619MOL0     C85305   4.838   8.971   1.309 -1.0402  0.3364 -1.0164
  619MOL0     C85306   4.924   8.897   1.420  0.1187 -1.0017 -0.9931
  619MOL0     C85307   5.024   8.806   1.343  0.2558 -0.9970 -0.2316
  619MOL0     O85308   4.957   8.712   1.251 -0.5961 -0.0646 -0.3470
  619MOL0     C85309   4.896   8.600   1.310  0.3592 -0.8430  0.7679
  619MOL0     C85310   4.914   8.544   1.440  0.2499 -1.0230 -1.0569
  619MOL0     C85311   4.853   8.421   1.482  0.8377 -0.5655  0.2664
  619MOL0     C85312   4.883   8.375   1.616 -0.1601  0.0994 -0.1313
  619MOL0     C85313   4.772   8.352   1.386  0.0468 -0.3005 -0.6638
  619MOL0     C85314   4.692   8.229   1.421 -0.1511 -0.8547 -0.9140
  619MOL0     O85315   4.581   8.207   1.336 -0.1147  0.2140  0.4007
  619MOL0     C85316   4.514   8.092   1.328 -1.0743 -0.2887 -0.1243
  619MOL0     C85317   4.458   8.036   1.441  0.1176 -0.3113 -0.8559
  619MOL0     C85318   4.364   7.931   1.439 -0.3910  1.0333  0.7887
  619MOL0     C85319   4.340   7.865   1.320 -0.7829 -0.5234  0.9760
  619MOL0     O85320   4.259   7.753   1.311 -0.1326 -0.5808 -0.9794
  619MOL0     C85321   4.242   7.679   1.187  0.1097  0.1558 -0.0603
  619MOL0     C85322   4.123   7.585   1.198  0.2086  0.3245  0.2759
  619MOL0     C85323   4.103   7.514   1.057  0.6442  0.2945 -0.5200
  619MOL0     C85324   4.227   7.449   1.000 -0.0930  0.1518  0.4845
  619MOL0     C85325   4.185   7.341   0.888  0.3660 -0.1482  0.1254
  619MOL0     C85326   4.176   7.411   0.756 -0.0039 -0.2234  0.9815
  619MOL0     C85327   4.209   7.304   0.651  0.1542  0.6187  0.9175
  619MOL0     C85328   4.113   7.190   0.651 -0.3442 -0.1273  0.2385
  619MOL0    Cl85329   4.172   7.075   0.543 -0.0104  0.3124 -0.0416
  619MOL0     C85330   4.401   7.920   1.204  0.4089  0.1460  1.0526
  619MOL0     C85331   4.487   8.032   1.204 -0.5449  0.2051 -0.4377
  619MOL0     O85332   4.724   8.158   1.520 -0.3964 -0.4526 -0.0552
  619MOL0     C85333   4.757   8.410   1.262  0.5036  0.7159  0.2488
  619MOL0     C85334   4.816   8.526   1.217 -0.8834 -0.1971 -0.6683
  619MOL0     N85335   4.645   9.158   1.134 -0.1291 -0.3568 -0.6811
  619MOL0     N85336   4.530   9.160   1.098  0.6470 -0.8102 -0.0606
  619MOL0     C85337   4.227  10.176   1.327 -0.2122 -0.5142  0.2243
  619MOL0     C85338   4.316  10.280   1.318 -0.0423  0.0357 -0.2975
  619MOL0     C85339   4.641  10.571   1.269  0.1599 -0.7470 -0.1206
  619MOL0     C85340   4.740  10.571   1.366 -0.8562 -0.0726 -0.0827
  619MOL0     C85341   4.828  10.680   1.383 -0.1797  0.3395  0.6381
  619MOL0     C85342   4.817  10.789   1.294 -0.9973  0.2308  0.6942
  619MOL0     O85343   4.911  10.895   1.307 -0.6493  0.1722  1.1506
  619MOL0     C85344   5.044  10.867   1.368  0.2910 -0.9676 -0.1507
  619MOL0     C85345   5.145  10.976   1.338  1.0698 -0.2805  1.6061
  619MOL0     C85346   5.103  11.117   1.359 -0.1545 -0.1113 -0.1969
  619MOL0     C85347   5.122  11.149   1.507 -0.0629 -0.0298 -0.7309
  619MOL0     C85348   5.260  11.200   1.542 -0.5235 -0.4475 -0.2200
  619MOL0     C85349   5.361  11.260   1.577 -0.3247  0.1124  0.0017
  619MOL0     C85350   4.724  10.785   1.188 -0.4213  0.1606  0.2040
  619MOL0     C85351   4.629  10.679   1.181 -1.2706  0.0581  0.4666
  619MOL0     C85352   4.547  10.685   1.055  0.4384 -0.8291  0.2361
  619MOL0     H85353   4.352  10.304   0.978 -4.8152 -1.9904 -2.5011
  619MOL0     H85354   4.202  10.117   0.992  0.7678 -3.3257  0.9595
  619MOL0     H85355   3.982  10.046   1.040 -1.2159 -0.7901  0.5259
  619MOL0     H85356   3.925   9.923   1.153  2.3330 -1.7498  2.0209
  619MOL0     H85357   4.024   9.793   0.982 -0.2005  1.7537 -1.8800
  619MOL0     H85358   4.170   9.906   0.988 -1.2991  0.9007 -0.0102
  619MOL0     H85359   4.226   9.795   1.216  0.0098 -1.1421 -0.1559
  619MOL0     H85360   4.058   9.743   1.217 -2.9185  0.8654 -2.1687
  619MOL0     H85361   4.093   9.575   1.036 -0.6015  0.6628  0.4752
  619MOL0     H85362   4.263   9.629   1.031 -0.8744  2.7484  0.6751
  619MOL0     H85363   4.126   9.496   1.267  0.3049  0.0228  1.6178
  619MOL0     H85364   4.293   9.562   1.265  1.6240 -1.1685 -1.6459
  619MOL0     H85365   4.191   9.373   1.042 -0.3253 -0.2963  0.4428
  619MOL0     H85366   4.361   9.402   1.114 -0.0072 -0.8546 -2.6049
  619MOL0     H85367   4.130   9.267   1.223  0.2063 -1.9191 -1.6836
  619MOL0     H85368   4.266   9.305   1.335  2.5684  1.7226 -0.6317
  619MOL0     H85369   4.252   9.059   1.252 -1.7633 -1.6093 -2.6451
  619MOL0     H85370   4.263   9.113   1.085  1.3791 -1.1225 -0.1314
  619MOL0     H85371   4.479   9.080   1.401 -0.8297 -0.1138  0.0843
  619MOL0     H85372   4.708   9.057   1.467 -1.4329  0.1260 -0.3056
  619MOL0     H85373   4.811   9.169   1.395  0.1744  0.2910  0.9984
  619MOL0     H85374   4.771   8.899   1.260 -4.2889  2.5786 -0.2086
  619MOL0     H85375   4.905   9.019   1.237 -1.1110  2.9878  0.5907
  619MOL0     H85376   4.971   8.969   1.487 -2.5171 -0.2467  0.1411
  619MOL0     H85377   4.856   8.835   1.479  1.0168 -1.3721 -0.3197
  619MOL0     H85378   5.097   8.865   1.287 -1.4050 -0.9890 -2.5591
  619MOL0     H85379   5.083   8.748   1.414  1.7926 -1.3290 -1.7148
  619MOL0     H85380   4.984   8.599   1.503 -2.3789  1.2735  0.0737
  619MOL0     H85381   4.797   8.340   1.673 -1.0937  1.9655 -0.3294
  619MOL0     H85382   4.931   8.442   1.688 -1.3515  0.3486  0.4520
  619MOL0     H85383   4.956   8.293   1.613  2.0525  1.9565  0.4978
  619MOL0     H85384   4.485   8.086   1.533 -0.0115 -1.3486 -0.2487
  619MOL0     H85385   4.314   7.889   1.525  0.5144 -0.0271  0.8220
  619MOL0     H85386   4.225   7.740   1.099  1.6780  0.6387 -0.0456
  619MOL0     H85387   4.337   7.627   1.173  0.7886  1.1175  0.8734
  619MOL0     H85388   4.150   7.507   1.269 -0.1163  1.2765  1.4919
  619MOL0     H85389   4.037   7.641   1.236  1.1074  1.3980  0.8299
  619MOL0     H85390   4.065   7.577   0.976 -0.6161  2.1585  1.4239
  619MOL0     H85391   4.028   7.435   1.064  1.3675 -0.4595 -0.9551
  619MOL0     H85392   4.269   7.398   1.087 -1.4748 -0.0417  1.0756
  619MOL0     H85393   4.296   7.522   0.957 -1.5940  0.5385 -1.4487
  619MOL0     H85394   4.256   7.258   0.893 -0.3804 -0.8367 -0.3978
  619MOL0     H85395   4.090   7.298   0.923  1.3672 -0.7240  2.3036
  619MOL0     H85396   4.244   7.494   0.738 -2.8644  1.8920 -0.8661
  619MOL0     H85397   4.070   7.438   0.747 -0.2299 -0.4634  2.5324
  619MOL0     H85398   4.311   7.274   0.678 -0.2826  1.5900  3.9854
  619MOL0     H85399   4.213   7.351   0.552  0.6177 -1.6147 -0.2012
  619MOL0     H85400   4.014   7.223   0.617 -2.0691 -0.8312  4.0823
  619MOL0     H85401   4.111   7.133   0.744 -1.4964 -3.6807 -1.7640
  619MOL0     H85402   4.389   7.870   1.108  3.7370 -1.3766  1.2711
  619MOL0     H85403   4.531   8.070   1.113  0.6452 -1.0019 -0.4027
  619MOL0     H85404   4.706   8.348   1.188  2.8127 -0.3733 -0.5091
  619MOL0     H85405   4.796   8.568   1.119  0.6264 -3.2792 -2.4306
  619MOL0     H85406   4.201  10.135   1.424  2.5915  0.2345  1.3967
  619MOL0     H85407   4.346  10.319   1.415 -1.8746 -0.5160  0.5383
  619MOL0     H85408   4.754  10.480   1.423  0.9146 -0.2827 -0.8054
  619MOL0     H85409   4.899  10.685   1.464 -1.3074 -0.4223  1.7181
  619MOL0     H85410   5.033  10.851   1.476  2.0517 -0.8774  0.0671
  619MOL0     H85411   5.086  10.776   1.325  0.5502 -0.5934 -0.7091
  619MOL0     H85412   5.156  10.968   1.229  0.6933 -1.7320  1.6511
  619MOL0     H85413   5.235  10.963   1.398  1.5028 -0.2558  0.9696
  619MOL0     H85414   5.164  11.195   1.313  1.0698  0.3246  2.0323
  619MOL0     H85415   5.001  11.137   1.324  0.3578  2.3584 -0.4507
  619MOL0     H85416   5.095  11.065   1.572 -1.3319 -0.5620 -1.9011
  619MOL0     H85417   5.051  11.227   1.535  1.2164  0.9266 -0.0222
  619MOL0     H85418   5.447  11.299   1.628 -0.1816 -1.1675  0.7782
  619MOL0     H85419   4.729  10.871   1.122  0.8361 -0.3659 -0.4089
  619MOL0     H85420   4.574  10.772   0.996 -1.5876 -0.1331  0.2710
  619MOL0     H85421   4.568  10.590   1.005  2.4252  0.8203 -2.2592
  619MOL0     H85422   4.443  10.700   1.086  1.0873  0.6975  1.8347
  620MOL0     O85423   0.052   9.438   2.870  0.1013 -0.3929  0.0028
  620MOL0     C85424   0.131   9.426   2.777  0.0583 -0.5171  0.1449
  620MOL0     O85425   0.171   9.528   2.695  0.0454 -1.0389  0.8427
  620MOL0     C85426   0.117   9.656   2.710 -0.1259  0.2529  0.2288
  620MOL0     C85427   0.036   9.723   2.813 -0.5706  0.0314  0.4273
  620MOL0     C85428   0.013   9.860   2.804 -0.0507 -0.2746  0.2177
  620MOL0     C85429   0.061   9.942   2.696  0.2296 -0.4625 -0.3690
  620MOL0     O85430   0.047  10.080   2.707  0.3301 -0.0425  0.1151
  620MOL0     C85431   0.088  10.160   2.598  0.0518 -0.7207  0.6572
  620MOL0     C85432   0.236  10.196   2.599 -0.1270 -0.4313  0.1973
  620MOL0     C85433   0.273  10.292   2.710 -1.1971  0.0514  0.0616
  620MOL0     C85434   0.215  10.430   2.707 -1.0729  0.3296  0.1058
  620MOL0     C85435   0.285  10.509   2.813 -0.8573 -0.5425 -0.1194
  620MOL0     C85436   0.224  10.651   2.825 -0.1213  0.4998  0.6058
  620MOL0     C85437   0.183  10.675   2.974 -0.8060 -0.7881  0.7432
  620MOL0     C85438   0.040  10.608   2.988  0.3464 -0.6517 -0.1622
  620MOL0     N85439  -0.001  10.610   3.129 -0.7100 -0.3424  0.0775
  620MOL0     C85440  -0.006  10.507   3.219  0.6711  0.2700 -0.6471
  620MOL0     C85441  -0.059  10.555   3.329  0.1067 -0.2615  0.4745
  620MOL0     C85442  -0.084  10.467   3.452  0.0265  0.7049  0.4572
  620MOL0     C85443  -0.183  10.549   3.551 -0.2527  0.1434 -0.0954
  620MOL0     C85444  -0.312  10.579   3.470  0.6440 -0.4393  0.2845
  620MOL0     C85445  -0.415  10.668   3.538  0.1813 -0.1325 -0.4566
  620MOL0     O85446  -0.448  10.595   3.653  0.3857 -0.1855  0.1800
  620MOL0     C85447  -0.486  10.661   3.767  0.7073  0.3627  0.2463
  620MOL0     C85448  -0.574  10.769   3.766  0.7218  0.7191  0.3106
  620MOL0     C85449  -0.638  10.825   3.873 -0.6254 -0.3248  0.5866
  620MOL0     C85450  -0.731  10.938   3.851  0.4855  0.1427 -0.2538
  620MOL0     C85451  -0.586  10.788   3.996 -0.5302 -0.3413 -0.3838
  620MOL0     C85452  -0.615  10.862   4.124  0.7223 -0.6000  0.4492
  620MOL0     O85453  -0.609  10.787   4.232  0.0911  0.1697 -0.8943
  620MOL0     C85454  -0.662  10.828   4.358 -0.5258 -0.3926 -0.3764
  620MOL0     C85455  -0.624  10.751   4.471 -0.0845  0.3436  0.2064
  620MOL0     C85456  -0.677  10.783   4.593  0.3834  0.0686 -0.2734
  620MOL0     C85457  -0.771  10.886   4.609 -0.2865 -0.4681  0.1553
  620MOL0     O85458  -0.830  10.896   4.732 -0.8372 -0.1250  0.3091
  620MOL0     C85459  -0.973  10.882   4.728  0.6221  0.3333 -0.3604
  620MOL0     C85460  -1.024  10.915   4.863  0.1123 -0.5140 -0.2549
  620MOL0     C85461  -1.171  10.887   4.898  1.0443  0.0779  0.4373
  620MOL0     C85462  -1.214  10.956   5.035  0.0078  0.6487 -0.0648
  620MOL0     C85463  -1.365  10.951   5.060  0.4411 -0.5071  0.6369
  620MOL0     C85464  -1.423  10.807   5.086  0.2110  0.0224 -0.1585
  620MOL0     C85465  -1.575  10.793   5.075  0.0303 -0.2100 -0.2564
  620MOL0     C85466  -1.650  10.729   5.185  0.5241  0.4319  0.0898
  620MOL0    Cl85467  -1.629  10.825   5.330  0.3474 -0.0819  0.4333
  620MOL0     C85468  -0.809  10.971   4.500  0.0807  0.1792 -0.4781
  620MOL0     C85469  -0.751  10.944   4.375 -0.5386  0.6605  0.3186
  620MOL0     O85470  -0.621  10.988   4.122  0.2501 -0.2462  0.1078
  620MOL0     C85471  -0.505  10.677   4.006  0.8847 -0.1274 -0.5850
  620MOL0     C85472  -0.457  10.613   3.893 -0.2997 -0.9163  0.4831
  620MOL0     N85473  -0.068  10.698   3.317  0.2369 -0.8903 -0.1373
  620MOL0     N85474  -0.039  10.720   3.186 -0.7125  0.3514 -0.7754
  620MOL0     C85475   0.130   9.878   2.594 -0.5997  0.6349 -0.4137
  620MOL0     C85476   0.157   9.739   2.598  0.4704  0.0371  0.1642
  620MOL0     C85477   0.184   9.292   2.751  0.5892  0.1348  1.2609
  620MOL0     C85478   0.231   9.267   2.619  0.6984  0.2710 -0.4799
  620MOL0     C85479   0.288   9.145   2.585 -0.6887  0.6630 -0.5683
  620MOL0     C85480   0.280   9.038   2.675  1.6046 -0.9987 -0.1724
  620MOL0     O85481   0.315   8.904   2.645 -0.0162  0.8117 -0.3885
  620MOL0     C85482   0.353   8.873   2.517 -0.7375 -0.6571 -0.6779
  620MOL0     C85483   0.363   8.717   2.537 -1.1103 -0.0931 -0.1954
  620MOL0     C85484   0.368   8.644   2.397 -0.0470 -0.9792  0.0370
  620MOL0     C85485   0.351   8.496   2.394  0.8457  0.0568  0.0903
  620MOL0     C85486   0.469   8.420   2.447  0.1854 -0.0989 -0.3900
  620MOL0     C85487   0.575   8.378   2.491  0.9491  0.0698  0.1016
  620MOL0     C85488   0.249   9.066   2.809 -0.1569 -0.2493 -0.0490
  620MOL0     C85489   0.203   9.194   2.849 -0.2979  0.9015 -0.3328
  620MOL0     C85490   0.161   9.213   2.990 -0.0266 -0.1882 -1.0566
  620MOL0     H85491  -0.009   9.671   2.897 -2.0410 -0.6591 -0.7371
  620MOL0     H85492  -0.044   9.897   2.889 -0.6877 -2.3029  0.7365
  620MOL0     H85493   0.030  10.252   2.591 -0.9486 -1.4305 -5.7926
  620MOL0     H85494   0.052  10.116   2.505 -0.3821 -1.1679  1.0328
  620MOL0     H85495   0.300  10.108   2.611 -2.0713 -1.5834  3.3050
  620MOL0     H85496   0.261  10.247   2.505  0.3270  2.0157  1.5524
  620MOL0     H85497   0.247  10.242   2.804 -0.2925 -1.2091 -0.3215
  620MOL0     H85498   0.382  10.301   2.713 -1.2437  0.6327  2.4395
  620MOL0     H85499   0.240  10.466   2.607 -0.7371 -1.1365 -0.3595
  620MOL0     H85500   0.109  10.411   2.727 -0.5638 -1.6540  1.1706
  620MOL0     H85501   0.387  10.522   2.774 -1.2972  2.3079 -0.5404
  620MOL0     H85502   0.282  10.457   2.909  2.3841 -0.9184 -0.0945
  620MOL0     H85503   0.313  10.714   2.836  1.4607 -1.9974  4.5634
  620MOL0     H85504   0.151  10.667   2.746  0.7812  1.3016 -0.0800
  620MOL0     H85505   0.174  10.784   2.982 -2.3587 -0.9153  1.0613
  620MOL0     H85506   0.254  10.636   3.047 -0.5725 -0.7703  0.5279
  620MOL0     H85507  -0.033  10.656   2.922  1.2134  1.2539  0.1849
  620MOL0     H85508   0.037  10.502   2.961  0.0505 -0.7611  0.2898
  620MOL0     H85509   0.025  10.403   3.212  0.8408  0.3526 -1.2175
  620MOL0     H85510   0.014  10.448   3.497  0.5086  0.9813 -0.4508
  620MOL0     H85511  -0.131  10.374   3.416 -1.3638 -0.1431  4.0579
  620MOL0     H85512  -0.208  10.487   3.638 -0.0510 -1.1524 -0.9281
  620MOL0     H85513  -0.126  10.636   3.585 -0.1073  0.2225 -0.5389
  620MOL0     H85514  -0.295  10.630   3.374 -2.3456  0.9836  0.4189
  620MOL0     H85515  -0.358  10.480   3.456  2.5780 -1.2511 -0.8132
  620MOL0     H85516  -0.375  10.767   3.560  1.5401 -0.8110  0.2091
  620MOL0     H85517  -0.499  10.686   3.470  0.9655  1.9248 -0.9491
  620MOL0     H85518  -0.608  10.796   3.666 -2.2431 -2.5046  0.2728
  620MOL0     H85519  -0.831  10.917   3.888  0.6144 -1.7387 -0.8700
  620MOL0     H85520  -0.750  10.956   3.745  0.4608 -1.3476 -0.5158
  620MOL0     H85521  -0.705  11.027   3.909 -3.4454 -1.1589  4.1768
  620MOL0     H85522  -0.571  10.657   4.458 -2.6670 -1.0185 -1.1996
  620MOL0     H85523  -0.664  10.717   4.679 -1.7796 -0.2113 -0.0942
  620MOL0     H85524  -1.034  10.929   4.650  0.6473  0.0486 -0.5522
  620MOL0     H85525  -0.995  10.775   4.722 -3.6495  0.8957  1.5077
  620MOL0     H85526  -0.960  10.856   4.929  1.5183  2.8278  1.5934
  620MOL0     H85527  -1.009  11.022   4.878  1.7667 -0.7521 -0.0064
  620MOL0     H85528  -1.187  10.780   4.910  0.3578  0.0768 -0.4197
  620MOL0     H85529  -1.243  10.928   4.827 -1.0399 -0.3417  2.2105
  620MOL0     H85530  -1.196  11.064   5.044  2.2004  0.2037  1.8296
  620MOL0     H85531  -1.151  10.910   5.111  3.0731  1.0987 -2.1122
  620MOL0     H85532  -1.383  11.012   5.149  1.6270 -0.8663  1.1375
  620MOL0     H85533  -1.403  11.000   4.969  2.6246 -1.7542 -1.0409
  620MOL0     H85534  -1.396  10.764   5.183  1.9396 -0.1578 -0.6894
  620MOL0     H85535  -1.388  10.739   5.008 -2.5033 -0.7419 -0.8384
  620MOL0     H85536  -1.590  10.745   4.977  2.5766  2.0505 -1.8892
  620MOL0     H85537  -1.618  10.891   5.057  2.4921  0.7299 -1.4644
  620MOL0     H85538  -1.622  10.624   5.191 -0.2280  0.1585 -0.8472
  620MOL0     H85539  -1.756  10.719   5.160 -0.4494  0.6820  3.6386
  620MOL0     H85540  -0.887  11.046   4.510  0.9917  1.0933 -0.0300
  620MOL0     H85541  -0.788  10.996   4.287 -1.4534  1.3225  1.0668
  620MOL0     H85542  -0.488  10.638   4.106 -1.3288 -3.0356 -1.2035
  620MOL0     H85543  -0.393  10.526   3.902  2.3732  0.2099 -4.0781
  620MOL0     H85544   0.176   9.944   2.521  0.9861  1.4646  1.2716
  620MOL0     H85545   0.199   9.691   2.511  3.0661 -1.5665  2.1610
  620MOL0     H85546   0.213   9.343   2.543 -2.2410 -1.9642 -2.1951
  620MOL0     H85547   0.330   9.125   2.487  2.0331 -3.0857  1.0960
  620MOL0     H85548   0.273   8.899   2.448  0.7067 -1.0664 -2.5685
  620MOL0     H85549   0.452   8.914   2.496  0.1788 -2.6732 -0.5467
  620MOL0     H85550   0.277   8.680   2.593 -0.8943 -0.8485 -0.3410
  620MOL0     H85551   0.454   8.694   2.594 -0.2977  1.0890 -0.9867
  620MOL0     H85552   0.289   8.692   2.339  1.9282  2.0492 -0.3543
  620MOL0     H85553   0.458   8.661   2.338 -1.3723 -1.3014 -2.1944
  620MOL0     H85554   0.340   8.476   2.287  3.5061 -1.9418  0.0810
  620MOL0     H85555   0.261   8.464   2.447  0.8472  1.5371  1.0383
  620MOL0     H85556   0.665   8.339   2.533  0.7278 -1.7768 -1.0185
  620MOL0     H85557   0.261   8.979   2.872 -0.6508 -0.5334 -0.3356
  620MOL0     H85558   0.052   9.202   2.990  0.0258 -1.1031  0.9102
  620MOL0     H85559   0.212   9.140   3.053  1.3933  2.4412  1.0410
  620MOL0     H85560   0.182   9.310   3.036 -2.5856  0.6829 -1.5345
  621MOL0     O85561   4.784   6.255   1.252  0.2528 -0.5041  0.1236
  621MOL0     C85562   4.673   6.297   1.285 -0.4534  0.2087 -0.2921
  621MOL0     O85563   4.618   6.412   1.238 -0.0230  0.6617 -0.0513
  621MOL0     C85564   4.695   6.506   1.159  0.1848 -0.0582 -0.7493
  621MOL0     C85565   4.838   6.520   1.151 -0.1099  0.1307 -0.6568
  621MOL0     C85566   4.898   6.610   1.069  0.6390  0.0715 -0.6302
  621MOL0     C85567   4.814   6.689   0.985 -0.0598  0.0960  0.0367
  621MOL0     O85568   4.862   6.757   0.877  0.4972 -0.3865  0.0381
  621MOL0     C85569   5.000   6.777   0.853 -0.0450  0.0180  0.3459
  621MOL0     C85570   5.001   6.829   0.712 -0.3480  0.4962  0.9083
  621MOL0     C85571   4.910   6.949   0.669 -0.2896 -0.4280  0.0438
  621MOL0     C85572   4.852   6.925   0.534 -0.9182  0.1007 -0.9376
  621MOL0     C85573   4.760   7.046   0.504 -0.0725 -0.5601  0.4636
  621MOL0     C85574   4.661   7.011   0.402  0.7898  0.3854  0.5036
  621MOL0     C85575   4.613   7.138   0.324  0.1493 -0.2221 -0.5126
  621MOL0     C85576   4.532   7.231   0.418 -0.8085  0.3036 -1.3858
  621MOL0     N85577   4.483   7.339   0.337  0.0250  0.0867 -0.1418
  621MOL0     C85578   4.354   7.362   0.289 -0.8061 -0.8935  0.0048
  621MOL0     C85579   4.350   7.495   0.261 -0.1425 -0.2982 -0.6869
  621MOL0     C85580   4.229   7.572   0.229  0.0118 -0.4662  0.0370
  621MOL0     C85581   4.232   7.642   0.095 -0.4578 -0.1842 -0.3221
  621MOL0     C85582   4.092   7.703   0.062 -0.4046 -0.5404  0.9101
  621MOL0     C85583   4.084   7.796  -0.059  0.3578  0.1917  0.4697
  621MOL0     O85584   4.163   7.722  -0.155  0.4479  0.7536  0.2402
  621MOL0     C85585   4.109   7.737  -0.275  1.4807 -0.2566 -0.6316
  621MOL0     C85586   4.167   7.826  -0.364  0.4660 -0.2092  0.6078
  621MOL0     C85587   4.114   7.848  -0.491 -0.6414  0.1068 -0.2888
  621MOL0     C85588   4.178   7.953  -0.583 -0.6981  0.6053 -0.1249
  621MOL0     C85589   4.000   7.772  -0.532  0.2269 -0.1347 -0.0182
  621MOL0     C85590   3.928   7.796  -0.668 -0.9552  0.7454 -0.1046
  621MOL0     O85591   3.791   7.772  -0.668 -0.0166  0.0600 -0.3401
  621MOL0     C85592   3.721   7.799  -0.778  0.2159 -0.3259  0.4079
  621MOL0     C85593   3.594   7.859  -0.749 -0.2542  1.2075 -0.5825
  621MOL0     C85594   3.515   7.894  -0.860  0.3516  0.3738  0.3158
  621MOL0     C85595   3.555   7.892  -0.996 -0.0269 -0.2769  0.2330
  621MOL0     O85596   3.472   7.943  -1.089  0.8040 -0.5371 -0.5629
  621MOL0     C85597   3.466   7.868  -1.217  0.2647 -0.5858 -0.0360
  621MOL0     C85598   3.351   7.911  -1.309  0.0012 -0.3529 -1.3927
  621MOL0     C85599   3.304   7.804  -1.415 -0.3317  1.1293  0.1722
  621MOL0     C85600   3.268   7.868  -1.549  0.3658  0.9144  0.3215
  621MOL0     C85601   3.217   7.769  -1.654  0.1318 -0.1905  0.9151
  621MOL0     C85602   3.096   7.673  -1.623  0.9231 -0.0764 -0.3450
  621MOL0     C85603   2.947   7.750  -1.625 -0.0147 -0.2820 -0.2341
  621MOL0     C85604   2.898   7.780  -1.772 -0.8329 -0.0224  0.3606
  621MOL0    Cl85605   2.865   7.629  -1.863  0.5761 -0.2980  0.3131
  621MOL0     C85606   3.673   7.817  -1.019 -0.9094  0.4996 -0.7224
  621MOL0     C85607   3.750   7.767  -0.915  0.5962 -0.0600 -0.3547
  621MOL0     O85608   3.993   7.846  -0.763  0.2519  1.4029 -0.1420
  621MOL0     C85609   3.936   7.692  -0.436 -0.1883  0.5048 -0.1292
  621MOL0     C85610   3.991   7.672  -0.308 -0.2903  1.1424 -0.1608
  621MOL0     N85611   4.477   7.555   0.283  0.5564 -0.6984  0.0087
  621MOL0     N85612   4.549   7.465   0.328  0.8644 -0.2687 -0.1027
  621MOL0     C85613   4.678   6.690   1.001 -1.0338  0.6013 -0.6523
  621MOL0     C85614   4.619   6.597   1.089  0.7664  0.2458 -0.5798
  621MOL0     C85615   4.581   6.220   1.378  0.0726  0.2518  0.2721
  621MOL0     C85616   4.444   6.254   1.378  0.0488 -0.7340 -0.4740
  621MOL0     C85617   4.356   6.180   1.458 -0.0957  0.2375 -0.4663
  621MOL0     C85618   4.395   6.075   1.543 -0.3477 -0.1219  0.4905
  621MOL0     O85619   4.305   6.022   1.624  0.9488  0.0578  0.5067
  621MOL0     C85620   4.348   5.998   1.758  0.2843 -0.7352  0.2962
  621MOL0     C85621   4.420   6.110   1.833  0.9546  0.4472 -0.1071
  621MOL0     C85622   4.321   6.227   1.856  0.0904 -0.3216  0.2816
  621MOL0     C85623   4.389   6.359   1.900 -0.0279 -0.7173  0.3595
  621MOL0     C85624   4.465   6.416   1.788 -0.9368 -0.2428  0.1935
  621MOL0     C85625   4.541   6.432   1.691  0.5241  0.6769  0.3814
  621MOL0     C85626   4.529   6.054   1.541  0.5672 -0.3244 -0.4101
  621MOL0     C85627   4.626   6.120   1.460  0.8228  0.4086 -0.8053
  621MOL0     C85628   4.773   6.088   1.482 -0.0148 -0.0788 -0.3303
  621MOL0     H85629   4.918   6.463   1.197  2.4016  3.6674 -0.2617
  621MOL0     H85630   5.006   6.618   1.058  1.0969 -1.1644  2.2192
  621MOL0     H85631   5.058   6.685   0.861  0.0518 -0.1183 -1.3773
  621MOL0     H85632   5.053   6.842   0.923 -2.1812  1.4200  0.7388
  621MOL0     H85633   5.106   6.857   0.698  0.0796 -1.5765 -0.4174
  621MOL0     H85634   4.997   6.746   0.642  0.1152  1.4378 -0.2730
  621MOL0     H85635   4.830   6.962   0.743  0.2641  1.6197  0.3506
  621MOL0     H85636   4.976   7.036   0.673  0.4335 -0.9931  0.7289
  621MOL0     H85637   4.929   6.914   0.457 -1.7383  0.4994 -1.8331
  621MOL0     H85638   4.795   6.832   0.521 -0.5250  0.0078 -2.1757
  621MOL0     H85639   4.832   7.116   0.460  0.4736 -0.9054  0.7956
  621MOL0     H85640   4.718   7.095   0.593  0.5346 -0.0832  0.4974
  621MOL0     H85641   4.699   6.956   0.316  0.2422  3.0826 -1.6212
  621MOL0     H85642   4.578   6.961   0.453 -0.1805  2.3965  1.0158
  621MOL0     H85643   4.537   7.097   0.256  1.5489 -1.4831 -1.3814
  621MOL0     H85644   4.700   7.186   0.278  1.7871 -0.0239  2.5372
  621MOL0     H85645   4.455   7.174   0.471  0.3296  0.2600  0.3362
  621MOL0     H85646   4.600   7.268   0.496 -1.6273 -0.1763 -0.4177
  621MOL0     H85647   4.271   7.292   0.288 -1.4621 -0.1407 -1.0905
  621MOL0     H85648   4.220   7.658   0.296  1.8059 -0.6537  0.5743
  621MOL0     H85649   4.150   7.498   0.247 -2.4609  2.1835  0.7974
  621MOL0     H85650   4.308   7.721   0.097 -0.0326 -0.5979 -0.1430
  621MOL0     H85651   4.262   7.564   0.025  0.4531 -2.8562  2.8019
  621MOL0     H85652   4.020   7.621   0.061  1.9893 -2.8876 -2.4843
  621MOL0     H85653   4.056   7.764   0.146 -0.1979  2.4324 -1.0128
  621MOL0     H85654   3.980   7.812  -0.089  0.2196 -3.3493 -1.3772
  621MOL0     H85655   4.127   7.894  -0.035  0.0427 -0.2772  3.3511
  621MOL0     H85656   4.253   7.883  -0.331  1.1061 -0.6829 -0.1968
  621MOL0     H85657   4.108   8.034  -0.606  1.2108  1.8671 -1.7727
  621MOL0     H85658   4.201   7.901  -0.677 -2.4680 -1.1470  0.3314
  621MOL0     H85659   4.270   7.995  -0.542  0.0503 -1.0357 -0.0493
  621MOL0     H85660   3.557   7.881  -0.649 -1.6610 -3.6827  0.2695
  621MOL0     H85661   3.424   7.949  -0.838  1.2985  1.5397  1.4278
  621MOL0     H85662   3.556   7.897  -1.270  1.9248 -1.9282  1.9025
  621MOL0     H85663   3.469   7.759  -1.207  1.2356 -0.7750 -2.0567
  621MOL0     H85664   3.268   7.942  -1.244  0.9422 -2.5019  1.0392
  621MOL0     H85665   3.376   8.000  -1.366 -1.7575 -0.8182 -2.9572
  621MOL0     H85666   3.214   7.746  -1.389  0.6024 -0.9094 -0.9275
  621MOL0     H85667   3.384   7.730  -1.421 -1.8621 -0.5951  0.0554
  621MOL0     H85668   3.360   7.913  -1.588  0.4156  0.8874  0.4074
  621MOL0     H85669   3.191   7.946  -1.549  0.4947  1.1270 -2.0980
  621MOL0     H85670   3.198   7.814  -1.751  1.3158 -0.0962  0.7189
  621MOL0     H85671   3.304   7.707  -1.676  0.0736  0.3693 -1.0431
  621MOL0     H85672   3.116   7.633  -1.524  0.8898  1.5276  0.3377
  621MOL0     H85673   3.108   7.594  -1.697  0.7916  0.9624 -1.5140
  621MOL0     H85674   2.955   7.844  -1.571  2.5349 -1.4017  1.5293
  621MOL0     H85675   2.871   7.685  -1.580 -1.1021  1.3375  0.3521
  621MOL0     H85676   2.976   7.839  -1.821 -1.1089  2.2433  2.4472
  621MOL0     H85677   2.811   7.845  -1.754 -0.5516  0.3794  0.2737
  621MOL0     H85678   3.694   7.783  -1.120 -0.5584 -4.2502  0.7173
  621MOL0     H85679   3.830   7.699  -0.942 -0.8430 -1.5187 -1.1479
  621MOL0     H85680   3.848   7.633  -0.460  0.8073 -1.1929  0.3052
  621MOL0     H85681   3.946   7.604  -0.236  1.0274  0.8069  0.3906
  621MOL0     H85682   4.618   6.737   0.923 -4.1822 -0.3333  1.0017
  621MOL0     H85683   4.510   6.597   1.091  0.7220  0.5880 -2.0126
  621MOL0     H85684   4.395   6.336   1.326  0.8786  1.1831  1.6096
  621MOL0     H85685   4.257   6.221   1.473  0.3777  0.3837  2.8989
  621MOL0     H85686   4.266   5.971   1.826  0.7826 -1.2858  0.6888
  621MOL0     H85687   4.417   5.913   1.759 -1.1464 -2.0403  3.2944
  621MOL0     H85688   4.505   6.140   1.772  0.9938 -0.6764 -0.6323
  621MOL0     H85689   4.469   6.073   1.924  0.0620  0.4665  0.4006
  621MOL0     H85690   4.257   6.250   1.770  2.3982 -2.7021 -2.2539
  621MOL0     H85691   4.258   6.199   1.941 -1.0061  1.6338  0.2003
  621MOL0     H85692   4.455   6.324   1.980 -1.1596 -5.2027 -0.3727
  621MOL0     H85693   4.311   6.431   1.924  1.3815  1.7216 -1.8485
  621MOL0     H85694   4.609   6.414   1.610 -1.8553 -1.1560 -1.3074
  621MOL0     H85695   4.565   5.973   1.604 -1.3171 -0.9772 -0.0960
  621MOL0     H85696   4.810   6.165   1.550 -0.6580  1.6767 -1.8844
  621MOL0     H85697   4.783   5.992   1.534 -2.6457 -1.2258 -1.7517
  621MOL0     H85698   4.842   6.076   1.398  3.2012  1.5746  1.8729
  622MOL0     O85699   5.698   2.350   5.119 -0.4691  0.3482 -0.1422
  622MOL0     C85700   5.791   2.289   5.059 -0.4419 -0.5099 -0.1472
  622MOL0     O85701   5.790   2.235   4.936 -0.7929 -0.5635  0.1819
  622MOL0     C85702   5.677   2.241   4.859  0.1005  0.6612  0.1147
  622MOL0     C85703   5.681   2.312   4.736 -0.7005 -0.9762 -0.0316
  622MOL0     C85704   5.572   2.301   4.646  0.7069  0.2875 -0.3138
  622MOL0     C85705   5.459   2.223   4.674 -0.5201 -0.5813 -1.0009
  622MOL0     O85706   5.363   2.223   4.579  0.3688  0.1961  0.3777
  622MOL0     C85707   5.220   2.196   4.624 -0.5473 -0.6989 -0.4578
  622MOL0     C85708   5.115   2.252   4.527  0.0517 -0.1525  0.1019
  622MOL0     C85709   5.112   2.174   4.386  0.1665  0.6942 -0.2432
  622MOL0     C85710   5.036   2.253   4.287 -0.6392 -1.1959 -0.0535
  622MOL0     C85711   4.884   2.259   4.315  0.4602 -0.2401  0.2029
  622MOL0     C85712   4.804   2.331   4.207  0.2458  0.0382  0.1095
  622MOL0     C85713   4.646   2.321   4.213  0.0732 -0.4404 -0.9879
  622MOL0     C85714   4.588   2.384   4.348  0.8540  1.1505 -0.3313
  622MOL0     N85715   4.598   2.280   4.452  0.1319 -0.0560  0.2151
  622MOL0     C85716   4.539   2.150   4.452 -0.5107 -0.2661 -0.1990
  622MOL0     C85717   4.601   2.087   4.561  0.4063  0.5111 -0.0408
  622MOL0     C85718   4.596   1.945   4.613 -0.1298 -0.0732 -0.1499
  622MOL0     C85719   4.503   1.949   4.738  0.0933  0.2780  0.3198
  622MOL0     C85720   4.495   1.812   4.799  0.4204  0.6222 -0.9154
  622MOL0     C85721   4.475   1.822   4.952 -0.5150 -0.3595 -1.2082
  622MOL0     O85722   4.585   1.885   5.023  0.2563 -0.5238  0.3101
  622MOL0     C85723   4.552   1.974   5.111 -0.6934 -0.9462 -0.3082
  622MOL0     C85724   4.496   1.927   5.226  0.5981 -0.1842 -0.1365
  622MOL0     C85725   4.428   2.016   5.310  0.4977  0.9079 -0.6813
  622MOL0     C85726   4.361   1.951   5.434  1.1166  0.0333 -0.6354
  622MOL0     C85727   4.431   2.157   5.286  0.2944 -0.3968 -0.2512
  622MOL0     C85728   4.373   2.258   5.374 -0.3160 -0.6141  0.0069
  622MOL0     O85729   4.427   2.388   5.375  0.3944 -1.5875 -0.5325
  622MOL0     C85730   4.342   2.477   5.447  0.0673  0.3486 -0.1058
  622MOL0     C85731   4.233   2.533   5.377 -0.4129  0.2964 -1.0693
  622MOL0     C85732   4.144   2.612   5.449 -1.2304 -0.5071 -0.3471
  622MOL0     C85733   4.159   2.634   5.588  0.4154  0.6656  0.3821
  622MOL0     O85734   4.077   2.696   5.673 -0.1751  0.0292  0.5974
  622MOL0     C85735   3.936   2.716   5.627  0.5702 -0.1583  0.6937
  622MOL0     C85736   3.855   2.826   5.704 -0.8207  0.5087 -0.3231
  622MOL0     C85737   3.788   2.778   5.835 -0.7216  0.8203  0.0878
  622MOL0     C85738   3.680   2.860   5.896  0.5645 -0.2619 -0.0137
  622MOL0     C85739   3.622   2.799   6.031 -0.7517  0.2102  0.1473
  622MOL0     C85740   3.483   2.847   6.070  0.5997 -0.9540  0.9461
  622MOL0     C85741   3.464   3.003   6.087  0.5772 -1.2269  0.0974
  622MOL0     C85742   3.311   3.035   6.097  0.6315  0.4221  0.0822
  622MOL0    Cl85743   3.311   3.200   6.152 -0.0142 -0.2890  0.2940
  622MOL0     C85744   4.268   2.578   5.648  0.5975  0.1084 -0.0898
  622MOL0     C85745   4.364   2.499   5.582  0.7676  0.0982 -0.2198
  622MOL0     O85746   4.276   2.216   5.441 -0.6823 -0.1844 -0.7815
  622MOL0     C85747   4.492   2.196   5.166 -0.2147  0.4718  0.4748
  622MOL0     C85748   4.549   2.108   5.081  0.4261  0.2573  0.0876
  622MOL0     N85749   4.675   2.177   4.638  0.1595 -0.3225 -0.1733
  622MOL0     N85750   4.672   2.292   4.569 -0.3442 -0.8291 -0.1227
  622MOL0     C85751   5.456   2.160   4.798 -1.4259 -0.3330  0.4265
  622MOL0     C85752   5.568   2.153   4.883 -0.1987  0.2742 -0.2323
  622MOL0     C85753   5.921   2.278   5.128 -0.3270 -0.0480 -0.2073
  622MOL0     C85754   6.036   2.315   5.050 -0.7118 -0.2990 -0.8964
  622MOL0     C85755   6.159   2.319   5.104  0.0743  0.0343  0.0095
  622MOL0     C85756   6.179   2.267   5.232  0.0825 -0.1388 -0.1646
  622MOL0     O85757   6.310   2.260   5.290  0.3832 -0.1994  0.3613
  622MOL0     C85758   6.406   2.210   5.207 -0.4825  0.2018  1.0164
  622MOL0     C85759   6.518   2.176   5.308  0.3447 -0.0563 -0.3098
  622MOL0     C85760   6.543   2.275   5.421 -0.6526 -0.5763 -0.9445
  622MOL0     C85761   6.686   2.286   5.468 -0.5996 -0.1146 -0.8919
  622MOL0     C85762   6.719   2.412   5.546  0.3163  0.4596 -0.2881
  622MOL0     C85763   6.745   2.526   5.587  0.3355 -0.7276  0.0222
  622MOL0     C85764   6.069   2.245   5.310  0.4973  0.3208 -0.5689
  622MOL0     C85765   5.939   2.263   5.264 -0.1622 -0.1039  0.0041
  622MOL0     C85766   5.826   2.263   5.364 -0.3982  0.3197 -0.5305
  622MOL0     H85767   5.771   2.368   4.715  0.0585 -1.5234  1.6414
  622MOL0     H85768   5.576   2.360   4.555  1.4607  2.1649  0.8883
  622MOL0     H85769   5.197   2.250   4.717 -1.1405 -1.3355 -0.2191
  622MOL0     H85770   5.199   2.091   4.647  0.3718 -0.5294  1.3872
  622MOL0     H85771   5.014   2.233   4.564 -0.1563 -1.7295 -1.1613
  622MOL0     H85772   5.131   2.359   4.508  0.7266 -0.1902  0.4317
  622MOL0     H85773   5.213   2.148   4.354 -0.2201 -2.7608  0.9818
  622MOL0     H85774   5.052   2.084   4.400  0.3385  0.8972  2.1560
  622MOL0     H85775   5.066   2.358   4.278 -3.0110 -0.5386 -1.2559
  622MOL0     H85776   5.058   2.213   4.187  0.6969  2.3799 -1.3378
  622MOL0     H85777   4.871   2.312   4.410  1.9006  0.2440  0.1547
  622MOL0     H85778   4.853   2.155   4.330  1.9975 -0.3859  2.9702
  622MOL0     H85779   4.831   2.437   4.208  2.6340 -0.4820 -0.8778
  622MOL0     H85780   4.832   2.290   4.109  3.0711  0.6762  0.5521
  622MOL0     H85781   4.616   2.217   4.200 -3.1344  0.3913 -0.9927
  622MOL0     H85782   4.617   2.376   4.123 -1.4635  0.0568 -0.2225
  622MOL0     H85783   4.643   2.475   4.375  1.1706  0.7872  0.2628
  622MOL0     H85784   4.482   2.410   4.341  0.7790  1.2658  0.9559
  622MOL0     H85785   4.486   2.096   4.374  1.2214 -0.2688 -1.4295
  622MOL0     H85786   4.694   1.919   4.655 -0.5056 -0.9134  0.2294
  622MOL0     H85787   4.562   1.873   4.538 -2.6277  0.4297  0.4272
  622MOL0     H85788   4.536   2.024   4.811  0.5237  2.7497 -2.2102
  622MOL0     H85789   4.408   1.979   4.692 -0.7000 -1.9913  0.3862
  622MOL0     H85790   4.408   1.758   4.760 -1.8638  3.2443  0.2630
  622MOL0     H85791   4.584   1.750   4.784 -1.3691 -2.0778 -1.0349
  622MOL0     H85792   4.380   1.870   4.977  0.2151 -1.2672  4.7181
  622MOL0     H85793   4.457   1.723   4.995 -0.5126 -0.0766 -0.5434
  622MOL0     H85794   4.512   1.821   5.241  0.8679  0.0304  1.1746
  622MOL0     H85795   4.408   1.858   5.465 -1.5089 -1.1857 -0.0083
  622MOL0     H85796   4.257   1.933   5.407  0.4480 -0.6667  2.1089
  622MOL0     H85797   4.374   2.021   5.517  0.6239  0.3792 -0.8430
  622MOL0     H85798   4.219   2.486   5.280  1.0472 -1.4696 -0.4755
  622MOL0     H85799   4.054   2.637   5.394 -0.4305  1.6167 -0.8069
  622MOL0     H85800   3.936   2.739   5.520  0.9782 -0.3558  0.6507
  622MOL0     H85801   3.884   2.621   5.643 -0.4348  0.1917 -0.3529
  622MOL0     H85802   3.931   2.901   5.728  1.3658 -1.6503 -0.0645
  622MOL0     H85803   3.780   2.869   5.636 -0.8956 -1.0516 -1.2957
  622MOL0     H85804   3.873   2.762   5.902 -0.5583 -1.0666 -0.5271
  622MOL0     H85805   3.745   2.679   5.816  1.9280 -0.6858  1.4489
  622MOL0     H85806   3.599   2.866   5.823 -0.1051 -2.0453  0.5296
  622MOL0     H85807   3.710   2.965   5.904  1.2482 -0.2860 -1.8545
  622MOL0     H85808   3.612   2.691   6.020 -1.5772  0.4198 -1.5456
  622MOL0     H85809   3.703   2.818   6.102 -1.6434 -0.0126  1.2537
  622MOL0     H85810   3.470   2.809   6.172  0.1704 -0.7816  0.9578
  622MOL0     H85811   3.403   2.815   6.002 -0.7217  5.0603 -0.8694
  622MOL0     H85812   3.515   3.062   6.011  1.3828  1.4978  2.5818
  622MOL0     H85813   3.521   3.030   6.176 -0.5809  1.0751  0.2139
  622MOL0     H85814   3.268   2.987   6.186 -1.4977  1.6176 -0.2401
  622MOL0     H85815   3.249   3.006   6.011 -1.5360  0.2824  1.5907
  622MOL0     H85816   4.285   2.591   5.754  0.5449 -0.1675 -0.0481
  622MOL0     H85817   4.446   2.454   5.636  0.1378  0.0794  0.7455
  622MOL0     H85818   4.474   2.298   5.132 -1.8817 -0.5688 -2.1111
  622MOL0     H85819   4.592   2.138   4.986 -2.5359  0.2330 -1.3820
  622MOL0     H85820   5.370   2.102   4.830 -0.6738 -2.3734 -1.0022
  622MOL0     H85821   5.546   2.113   4.981 -1.6382  2.8743  0.6089
  622MOL0     H85822   6.017   2.353   4.950 -3.3555  0.9291 -0.0309
  622MOL0     H85823   6.249   2.348   5.052  0.4096  1.5225  1.3564
  622MOL0     H85824   6.375   2.114   5.163  1.1292 -0.2278  0.7316
  622MOL0     H85825   6.438   2.270   5.121 -1.9015 -0.7505 -0.2310
  622MOL0     H85826   6.604   2.155   5.244  0.7951  0.0100  0.2716
  622MOL0     H85827   6.471   2.089   5.354 -0.3688  0.0488 -0.8301
  622MOL0     H85828   6.512   2.374   5.386 -0.1738  0.6553  1.8779
  622MOL0     H85829   6.487   2.244   5.509  0.2246  0.1199 -0.1194
  622MOL0     H85830   6.745   2.285   5.376 -1.7265 -0.0249 -1.6293
  622MOL0     H85831   6.715   2.193   5.520 -1.2827  0.2428  0.1728
  622MOL0     H85832   6.769   2.627   5.611  0.1352 -0.5046 -0.6856
  622MOL0     H85833   6.079   2.239   5.418  2.5319 -1.0814 -0.7945
  622MOL0     H85834   5.857   2.291   5.466 -1.4747  3.4329 -0.9366
  622MOL0     H85835   5.751   2.339   5.338  0.8964  1.7495 -0.2102
  622MOL0     H85836   5.795   2.158   5.371  0.9982 -0.0435  0.9696
  623MOL0     O85837   0.106   8.879   7.365  0.3376 -0.3279 -0.4960
  623MOL0     C85838  -0.005   8.838   7.366  0.1668 -0.3263  0.1588
  623MOL0     O85839  -0.039   8.721   7.427 -0.4530  0.7872 -0.1400
  623MOL0     C85840   0.058   8.641   7.476 -0.6046 -0.7703  0.7162
  623MOL0     C85841   0.171   8.602   7.409  0.3454 -0.0795  0.3882
  623MOL0     C85842   0.264   8.521   7.464 -0.2367 -0.0368  0.0290
  623MOL0     C85843   0.251   8.473   7.586  0.4573  0.3353 -0.4836
  623MOL0     O85844   0.353   8.408   7.642 -0.6707 -0.0798  0.1329
  623MOL0     C85845   0.367   8.372   7.779  0.5815 -0.3737  0.1315
  623MOL0     C85846   0.509   8.425   7.816 -0.2044  0.0672 -0.6845
  623MOL0     C85847   0.537   8.380   7.962  0.1877  0.2343  0.2018
  623MOL0     C85848   0.494   8.246   8.015 -0.4791  0.4622 -0.2155
  623MOL0     C85849   0.553   8.196   8.148  0.0648 -0.5912 -0.5037
  623MOL0     C85850   0.546   8.289   8.266  0.1832 -0.4053 -0.6612
  623MOL0     C85851   0.638   8.234   8.376 -1.0066  0.3961 -0.5255
  623MOL0     C85852   0.636   8.334   8.486  0.5315 -0.7213 -0.5161
  623MOL0     N85853   0.693   8.284   8.611  0.6796  0.1320  0.1130
  623MOL0     C85854   0.815   8.261   8.650 -0.6882  1.4542  0.0943
  623MOL0     C85855   0.812   8.213   8.779 -0.2953 -0.8543  0.0141
  623MOL0     C85856   0.941   8.176   8.863  0.3246  0.2664  0.0071
  623MOL0     C85857   0.977   8.305   8.951 -0.7518  0.2067 -0.2123
  623MOL0     C85858   1.101   8.279   9.026  0.1366 -0.5534 -0.5380
  623MOL0     C85859   1.139   8.406   9.107  0.9622  0.0791  0.2796
  623MOL0     O85860   1.049   8.427   9.213  0.6175 -0.2345 -0.3970
  623MOL0     C85861   1.093   8.520   9.312  0.0443 -0.0060  0.1725
  623MOL0     C85862   1.029   8.643   9.320  0.1687  0.1973  0.1722
  623MOL0     C85863   1.067   8.735   9.417 -0.1066 -0.2334  0.4148
  623MOL0     C85864   1.010   8.878   9.416  0.3155  0.2747  0.1106
  623MOL0     C85865   1.168   8.698   9.512  0.3077  0.3963  0.8006
  623MOL0     C85866   1.217   8.785   9.623  0.3255 -0.3540  1.6834
  623MOL0     O85867   1.300   8.726   9.713  0.1329 -0.3941  0.6401
  623MOL0     C85868   1.350   8.794   9.821  0.8109 -0.1183  0.5113
  623MOL0     C85869   1.276   8.839   9.936 -0.1645  1.1477  0.0566
  623MOL0     C85870   1.326   8.929  10.026 -0.2902 -0.1071  0.0468
  623MOL0     C85871   1.461   8.953  10.031  0.0182 -0.9045  0.5512
  623MOL0     O85872   1.523   9.027  10.116  0.5412 -0.4312  0.2928
  623MOL0     C85873   1.464   9.144  10.166  0.7863 -0.5240 -0.4910
  623MOL0     C85874   1.576   9.235  10.222  0.3260 -0.2425  0.5465
  623MOL0     C85875   1.650   9.297  10.102  0.2180  0.8774  0.4560
  623MOL0     C85876   1.766   9.382  10.144 -0.2723 -0.3646  0.6811
  623MOL0     C85877   1.844   9.444  10.025  0.0220  0.3996 -0.1906
  623MOL0     C85878   1.948   9.533  10.076 -0.1357 -0.8916 -0.5357
  623MOL0     C85879   2.055   9.458  10.152 -0.3740  0.7295 -0.7729
  623MOL0     C85880   2.176   9.534  10.168 -0.0341  0.0291 -0.1694
  623MOL0    Cl85881   2.241   9.567   9.998 -0.0514  0.0021  0.1394
  623MOL0     C85882   1.544   8.888   9.938  0.4938  0.2087 -0.3869
  623MOL0     C85883   1.485   8.807   9.838  0.5844  0.6699  0.3046
  623MOL0     O85884   1.178   8.905   9.621 -0.0815  0.5189 -0.9643
  623MOL0     C85885   1.227   8.575   9.515  0.1102 -0.0355  0.2965
  623MOL0     C85886   1.192   8.481   9.411  0.1190 -0.0297  0.4782
  623MOL0     N85887   0.679   8.202   8.815 -0.4742  0.7498  0.3967
  623MOL0     N85888   0.614   8.246   8.714  0.1002 -0.4611 -0.3145
  623MOL0     C85889   0.138   8.510   7.665  0.8806 -0.8445 -0.0378
  623MOL0     C85890   0.040   8.592   7.600  1.0394  0.2451  0.4841
  623MOL0     C85891  -0.107   8.896   7.270 -0.3558 -0.3716 -0.3928
  623MOL0     C85892  -0.083   8.894   7.131  0.2519 -1.1603 -0.4703
  623MOL0     C85893  -0.180   8.942   7.039 -0.7575 -0.1526  0.0282
  623MOL0     C85894  -0.299   8.997   7.084 -0.4835 -0.0328  0.4091
  623MOL0     O85895  -0.408   9.010   7.001  0.0200 -0.2612  0.7211
  623MOL0     C85896  -0.408   8.931   6.891 -0.1262  0.3472  0.5598
  623MOL0     C85897  -0.554   8.927   6.827 -0.3634  1.0444 -0.2864
  623MOL0     C85898  -0.599   9.072   6.783  0.0682 -0.4567  0.3929
  623MOL0     C85899  -0.747   9.076   6.775  0.4792 -0.0839 -0.1236
  623MOL0     C85900  -0.806   9.193   6.696  0.2564 -0.2207 -0.4819
  623MOL0     C85901  -0.857   9.281   6.634 -0.8697 -0.1527  0.9761
  623MOL0     C85902  -0.314   9.008   7.224  0.6792  0.1374 -1.3914
  623MOL0     C85903  -0.222   8.959   7.318  0.1180  0.1296 -0.2318
  623MOL0     C85904  -0.253   8.982   7.460  0.4287  0.2227 -0.0940
  623MOL0     H85905   0.190   8.633   7.306  0.2018 -0.4951  0.2335
  623MOL0     H85906   0.355   8.502   7.407  0.3475 -0.0244  0.9389
  623MOL0     H85907   0.353   8.265   7.789  0.3633 -0.2946  0.7043
  623MOL0     H85908   0.295   8.412   7.851 -2.0825 -4.1351 -0.2095
  623MOL0     H85909   0.580   8.396   7.737  1.1861 -0.8075  0.8323
  623MOL0     H85910   0.525   8.533   7.815  0.2809  0.0036 -1.6965
  623MOL0     H85911   0.644   8.360   7.964  0.1762  0.1130 -0.3683
  623MOL0     H85912   0.524   8.467   8.027 -2.4978 -0.1642  0.3068
  623MOL0     H85913   0.386   8.225   8.013  0.0561 -3.3723  2.1388
  623MOL0     H85914   0.543   8.185   7.938  0.5285  1.4661 -0.3973
  623MOL0     H85915   0.662   8.187   8.137  0.4588 -0.3788  2.4601
  623MOL0     H85916   0.504   8.100   8.169 -0.2004 -0.7360 -1.7433
  623MOL0     H85917   0.596   8.383   8.240 -0.6286 -0.3847 -2.2701
  623MOL0     H85918   0.443   8.308   8.295  1.0242  1.4793  1.2994
  623MOL0     H85919   0.743   8.229   8.347 -1.2101 -1.5552 -1.0466
  623MOL0     H85920   0.604   8.137   8.415 -1.0330  2.1499  4.4545
  623MOL0     H85921   0.679   8.431   8.458 -0.2217 -0.1728  0.1752
  623MOL0     H85922   0.529   8.354   8.498  0.4899 -1.3018  0.1783
  623MOL0     H85923   0.902   8.284   8.590  0.3938  1.7554  1.7239
  623MOL0     H85924   1.027   8.147   8.801 -1.7246  0.2372 -3.0731
  623MOL0     H85925   0.933   8.089   8.929  3.7857 -1.3305 -1.3866
  623MOL0     H85926   0.998   8.384   8.877 -1.5154 -1.1374 -1.9406
  623MOL0     H85927   0.896   8.341   9.015  0.4675  0.8284  1.0194
  623MOL0     H85928   1.092   8.199   9.100  0.2036  0.5245  0.6700
  623MOL0     H85929   1.190   8.257   8.965  1.5390 -1.8994  1.8273
  623MOL0     H85930   1.242   8.397   9.141  0.8046 -1.5423  0.3829
  623MOL0     H85931   1.132   8.490   9.037  0.0339 -1.9502 -2.2115
  623MOL0     H85932   0.947   8.657   9.250 -0.1783  2.2749  0.9259
  623MOL0     H85933   0.970   8.911   9.513 -3.2768 -0.2547 -1.0552
  623MOL0     H85934   0.925   8.884   9.347  2.9590  0.3965 -3.3805
  623MOL0     H85935   1.079   8.956   9.381  0.8705  0.0179  0.6248
  623MOL0     H85936   1.170   8.818   9.927  0.4022 -0.9577 -3.6719
  623MOL0     H85937   1.253   8.975  10.092 -0.0657  0.5098 -0.1229
  623MOL0     H85938   1.402   9.192  10.089  0.7663 -0.7382 -0.6067
  623MOL0     H85939   1.407   9.108  10.253 -0.1959 -2.4328 -1.8626
  623MOL0     H85940   1.538   9.325  10.272  2.0412  1.7590 -1.5585
  623MOL0     H85941   1.641   9.171  10.282  1.4437  1.3100  1.0664
  623MOL0     H85942   1.588   9.367  10.044 -1.0804  0.9659  1.9010
  623MOL0     H85943   1.697   9.218  10.043 -0.2869 -0.3221  1.6236
  623MOL0     H85944   1.831   9.330  10.215 -2.0719 -1.4000  1.6391
  623MOL0     H85945   1.726   9.462  10.206  1.7060  1.8130 -0.7051
  623MOL0     H85946   1.880   9.365   9.958  0.8577 -0.7048  1.5098
  623MOL0     H85947   1.786   9.508   9.957  1.9942 -0.7649 -3.1616
  623MOL0     H85948   1.896   9.607  10.137  0.3616  0.1153 -1.3028
  623MOL0     H85949   1.988   9.583   9.987  0.4989 -1.5827 -0.6469
  623MOL0     H85950   2.068   9.364  10.098  1.5842  1.9561 -2.6026
  623MOL0     H85951   2.025   9.429  10.253  1.3596 -1.8269 -0.8873
  623MOL0     H85952   2.260   9.500  10.230 -1.2838 -0.3833  1.3658
  623MOL0     H85953   2.147   9.623  10.224  0.2078 -1.2282  2.0782
  623MOL0     H85954   1.652   8.896   9.952  0.2007  2.0794  1.1632
  623MOL0     H85955   1.551   8.760   9.765  0.3091 -0.9464  1.0602
  623MOL0     H85956   1.310   8.543   9.577 -0.9489  0.1694  1.8977
  623MOL0     H85957   1.261   8.398   9.413  2.8182  2.0664  0.5223
  623MOL0     H85958   0.113   8.459   7.757 -0.3573  0.5429  0.4475
  623MOL0     H85959  -0.046   8.625   7.658 -0.0982 -0.3219 -0.8440
  623MOL0     H85960   0.010   8.846   7.104  0.6187  0.0754 -1.5214
  623MOL0     H85961  -0.156   8.947   6.933  0.3518  0.8854  0.2999
  623MOL0     H85962  -0.342   8.967   6.812 -1.7159  0.3071 -0.8336
  623MOL0     H85963  -0.389   8.827   6.917 -1.2986 -0.0375 -0.0801
  623MOL0     H85964  -0.625   8.878   6.894  0.7085  0.1975  0.2638
  623MOL0     H85965  -0.553   8.882   6.728 -1.9360  2.6924 -1.1099
  623MOL0     H85966  -0.564   9.154   6.846  1.6918 -1.1573  0.4520
  623MOL0     H85967  -0.566   9.101   6.682  0.2553  1.9805  1.0821
  623MOL0     H85968  -0.791   9.084   6.874 -0.5490 -0.9946 -0.4756
  623MOL0     H85969  -0.798   8.984   6.742  0.0647  0.2610 -0.4497
  623MOL0     H85970  -0.910   9.342   6.564 -1.1733 -2.8717 -1.3401
  623MOL0     H85971  -0.413   9.041   7.253  1.5302  0.9988  0.7396
  623MOL0     H85972  -0.194   9.072   7.479  0.2396  0.7747 -1.8892
  623MOL0     H85973  -0.361   8.986   7.478  0.9755  0.4811  4.1462
  623MOL0     H85974  -0.222   8.902   7.527 -1.6157 -3.1885 -2.8833
  624MOL0     O85975   2.760   1.184  11.182  0.1474 -0.2476  0.6829
  624MOL0     C85976   2.811   1.212  11.290 -0.4610  0.0102  0.1288
  624MOL0     O85977   2.927   1.276  11.302  0.5585 -0.0643  0.0853
  624MOL0     C85978   2.977   1.351  11.197  0.4188 -0.3013  0.6561
  624MOL0     C85979   2.894   1.434  11.129 -0.2595  0.3247  0.3383
  624MOL0     C85980   2.941   1.511  11.021 -0.6313 -1.1392  0.3472
  624MOL0     C85981   3.080   1.502  10.989 -0.3719 -0.0179  0.5034
  624MOL0     O85982   3.147   1.570  10.888 -0.0905 -0.4881  0.1477
  624MOL0     C85983   3.055   1.631  10.784 -0.3006  0.7424  0.0405
  624MOL0     C85984   3.139   1.719  10.699  0.1016  0.3310  0.5087
  624MOL0     C85985   3.058   1.795  10.593  0.5300  1.5741 -0.9282
  624MOL0     C85986   3.119   1.933  10.568 -0.4021  0.9220 -0.0636
  624MOL0     C85987   3.037   1.995  10.459  0.4709 -0.1020 -0.6663
  624MOL0     C85988   3.094   2.123  10.397  0.7304 -0.0741  0.0758
  624MOL0     C85989   3.106   2.242  10.489 -0.3629 -0.4350 -0.9467
  624MOL0     C85990   3.164   2.356  10.413  0.4772 -0.3784  0.1406
  624MOL0     N85991   3.296   2.335  10.352 -0.2269 -0.4309 -0.6165
  624MOL0     C85992   3.326   2.322  10.220  0.3799  0.0313 -0.5446
  624MOL0     C85993   3.466   2.305  10.222 -0.6094  0.7180 -0.3578
  624MOL0     C85994   3.560   2.294  10.101  0.7976  0.2870  0.5777
  624MOL0     C85995   3.518   2.171  10.016 -0.1613 -0.1893 -0.0883
  624MOL0     C85996   3.638   2.121   9.933  0.3828 -0.6417  0.2527
  624MOL0     C85997   3.683   2.210   9.811  0.2605  0.0902 -0.0093
  624MOL0     O85998   3.579   2.207   9.712 -0.5956 -0.2401  0.2662
  624MOL0     C85999   3.563   2.311   9.632  0.5517 -0.8060  0.8691
  624MOL0     C86000   3.665   2.392   9.584 -0.0864 -0.7828  0.4808
  624MOL0     C86001   3.640   2.495   9.496  0.3401 -0.1428 -0.1255
  624MOL0     C86002   3.753   2.582   9.465 -0.4440  0.2076 -0.1576
  624MOL0     C86003   3.507   2.524   9.450 -1.9584  0.4617  0.1711
  624MOL0     C86004   3.464   2.624   9.353 -0.4932  1.5526  1.2698
  624MOL0     O86005   3.562   2.685   9.271  0.2318 -0.1595 -0.3551
  624MOL0     C86006   3.529   2.796   9.196  0.2173  0.0627 -0.5607
  624MOL0     C86007   3.515   2.796   9.059  0.1332 -0.4867 -0.7008
  624MOL0     C86008   3.464   2.910   8.994  1.0286  0.7383 -0.2331
  624MOL0     C86009   3.419   3.013   9.075  0.3990  0.0230  0.3406
  624MOL0     O86010   3.354   3.122   9.014 -0.1560 -0.2762  0.2718
  624MOL0     C86011   3.221   3.094   8.965  0.1200  1.1325  0.2066
  624MOL0     C86012   3.169   3.219   8.904  0.1470  0.6762  0.3563
  624MOL0     C86013   3.241   3.259   8.778  0.2167 -0.1924  0.0409
  624MOL0     C86014   3.213   3.404   8.731 -0.8276 -0.3930  0.5956
  624MOL0     C86015   3.316   3.435   8.625 -0.2053 -0.1251  0.2994
  624MOL0     C86016   3.315   3.575   8.563 -0.2708  0.1936  0.7421
  624MOL0     C86017   3.432   3.659   8.621  0.6965  0.6614  0.4581
  624MOL0     C86018   3.430   3.798   8.577 -0.0294 -0.7725  0.0915
  624MOL0    Cl86019   3.460   3.819   8.398  0.4976  0.1934  0.3938
  624MOL0     C86020   3.446   3.022   9.211  1.0714  0.7793  0.3516
  624MOL0     C86021   3.500   2.910   9.276 -0.6751 -0.6386  0.0233
  624MOL0     O86022   3.346   2.657   9.357  0.6943 -0.1409  0.2145
  624MOL0     C86023   3.405   2.441   9.500 -0.4414 -0.1998  0.4925
  624MOL0     C86024   3.435   2.335   9.580  0.2517 -0.1815  0.2037
  624MOL0     N86025   3.513   2.307  10.345  0.1039 -0.5802 -0.1694
  624MOL0     N86026   3.414   2.324  10.430  1.2678 -0.1578 -0.0208
  624MOL0     C86027   3.160   1.432  11.068 -0.9123  0.3512 -0.3535
  624MOL0     C86028   3.121   1.354  11.175  0.4178  0.9270 -0.5818
  624MOL0     C86029   2.735   1.173  11.410  0.3447 -0.9375  0.3174
  624MOL0     C86030   2.758   1.240  11.529  0.6400  0.4344  0.2240
  624MOL0     C86031   2.688   1.195  11.642 -0.9759 -0.2344  0.2635
  624MOL0     C86032   2.604   1.086  11.642  0.5311  0.5706  0.2151
  624MOL0     O86033   2.549   1.056  11.766  0.4792 -0.2971  0.1521
  624MOL0     C86034   2.494   0.924  11.779 -0.2976  0.3500  0.6570
  624MOL0     C86035   2.471   0.892  11.928  0.0491 -0.3498 -0.9657
  624MOL0     C86036   2.325   0.940  11.959 -0.4851 -0.0600  1.0161
  624MOL0     C86037   2.304   0.963  12.111 -0.1497 -1.2454  0.4155
  624MOL0     C86038   2.289   0.840  12.180 -0.2938  0.2338 -0.4383
  624MOL0     C86039   2.285   0.729  12.234  0.7165  0.2858 -0.5625
  624MOL0     C86040   2.579   1.015  11.526 -0.0449 -1.0557 -0.0769
  624MOL0     C86041   2.646   1.058  11.404  0.1849  0.5328  0.6471
  624MOL0     C86042   2.639   0.966  11.285  0.0504 -0.1192 -0.4884
  624MOL0     H86043   2.788   1.437  11.154 -0.3409 -1.9420  0.4926
  624MOL0     H86044   2.876   1.561  10.951  2.5301 -1.2132 -2.9838
  624MOL0     H86045   2.975   1.680  10.840 -1.6594 -0.1575 -1.0412
  624MOL0     H86046   3.003   1.560  10.720 -1.2288 -0.7934  2.3454
  624MOL0     H86047   3.189   1.792  10.764  0.8274  0.5980 -0.3420
  624MOL0     H86048   3.208   1.647  10.655 -1.0557  0.2668 -1.3113
  624MOL0     H86049   3.049   1.744  10.497 -0.4703  0.1012 -0.0822
  624MOL0     H86050   2.956   1.809  10.631  0.4532  0.7278 -0.8118
  624MOL0     H86051   3.100   1.994  10.656 -0.1356  1.1092 -0.1360
  624MOL0     H86052   3.225   1.926  10.541 -0.2742  3.0173 -0.2364
  624MOL0     H86053   2.939   2.011  10.503 -0.5166 -0.8331 -2.4673
  624MOL0     H86054   3.033   1.919  10.380  0.2885 -1.1720  0.3510
  624MOL0     H86055   3.193   2.092  10.360  0.8131 -0.1858  0.3830
  624MOL0     H86056   3.034   2.156  10.312  1.5736  3.9227  0.8505
  624MOL0     H86057   3.167   2.222  10.577 -0.3303  1.9637 -0.3628
  624MOL0     H86058   3.003   2.266  10.518 -1.3839 -2.2027 -2.8355
  624MOL0     H86059   3.097   2.410  10.345  0.2071 -1.7007 -0.6784
  624MOL0     H86060   3.178   2.435  10.487  1.0172  0.1878 -0.5507
  624MOL0     H86061   3.257   2.326  10.136  0.4899 -0.6978 -0.6756
  624MOL0     H86062   3.660   2.295  10.146  0.0925  2.2699  2.2620
  624MOL0     H86063   3.553   2.385  10.040  1.2738 -0.5165 -0.7205
  624MOL0     H86064   3.504   2.086  10.085  1.4859  0.0078  0.5238
  624MOL0     H86065   3.424   2.186   9.963 -0.9388 -1.6195  0.7987
  624MOL0     H86066   3.719   2.095  10.002  0.3624 -2.0330 -0.2095
  624MOL0     H86067   3.618   2.028   9.879 -0.7408  0.6675 -1.7009
  624MOL0     H86068   3.704   2.313   9.843 -3.0327  0.3655  1.7307
  624MOL0     H86069   3.777   2.174   9.768  2.7024  2.5424  2.8881
  624MOL0     H86070   3.764   2.361   9.616  0.6798 -2.9311 -3.3279
  624MOL0     H86071   3.845   2.540   9.507 -0.9225  0.5153  1.2309
  624MOL0     H86072   3.744   2.678   9.517  1.1900  0.7319 -0.7683
  624MOL0     H86073   3.774   2.591   9.357  0.6557 -1.1873 -0.0914
  624MOL0     H86074   3.554   2.724   8.987  2.4467 -0.5101  0.4962
  624MOL0     H86075   3.441   2.913   8.888  0.3693 -2.7709 -0.2872
  624MOL0     H86076   3.221   3.017   8.887 -2.1298 -0.0446  1.2846
  624MOL0     H86077   3.163   3.058   9.050  0.8220  1.7486  0.9698
  624MOL0     H86078   3.061   3.211   8.890 -0.1680  2.0411  1.7537
  624MOL0     H86079   3.190   3.294   8.980 -0.3508  0.5225  0.6449
  624MOL0     H86080   3.201   3.191   8.703  0.0481  0.9009 -0.8897
  624MOL0     H86081   3.350   3.259   8.789  0.3371 -0.5444 -1.0325
  624MOL0     H86082   3.217   3.475   8.814 -0.1576 -1.6333  1.6663
  624MOL0     H86083   3.112   3.407   8.689 -0.2344 -0.7229 -0.9212
  624MOL0     H86084   3.417   3.404   8.655 -0.2456 -0.5834 -0.0244
  624MOL0     H86085   3.297   3.368   8.541  1.6213  3.0288 -2.9421
  624MOL0     H86086   3.218   3.625   8.574 -0.6144  0.1188 -1.5604
  624MOL0     H86087   3.327   3.571   8.455  2.0567  1.4072  0.8930
  624MOL0     H86088   3.524   3.610   8.587  0.2581 -0.6340  1.0353
  624MOL0     H86089   3.420   3.656   8.730 -0.1219  2.3267  0.4473
  624MOL0     H86090   3.513   3.848   8.627 -0.7708 -0.1771  0.7447
  624MOL0     H86091   3.336   3.841   8.613  1.6336  2.0904  1.3393
  624MOL0     H86092   3.401   3.105   9.264 -2.9140 -1.0247  0.1140
  624MOL0     H86093   3.495   2.912   9.385 -2.0197 -0.9022 -0.0202
  624MOL0     H86094   3.302   2.461   9.474 -0.0102  1.3073 -0.2081
  624MOL0     H86095   3.359   2.263   9.610 -0.0301  1.2371  3.3314
  624MOL0     H86096   3.268   1.435  11.059 -0.5359  0.7866  2.8805
  624MOL0     H86097   3.191   1.300  11.237  2.7080  1.0854 -2.8341
  624MOL0     H86098   2.838   1.311  11.545  0.2082  0.9744  0.0130
  624MOL0     H86099   2.713   1.247  11.734 -2.3774 -0.2282  0.6605
  624MOL0     H86100   2.407   0.918  11.714  0.8574 -2.9961 -0.7899
  624MOL0     H86101   2.571   0.858  11.736  0.7192  0.0440  2.7947
  624MOL0     H86102   2.540   0.953  11.987  1.9476 -2.3286 -1.0358
  624MOL0     H86103   2.497   0.788  11.947 -1.1961 -0.5188 -0.0167
  624MOL0     H86104   2.316   1.042  11.919  2.0592  0.3205  1.2042
  624MOL0     H86105   2.248   0.877  11.915 -0.4786 -0.4104  1.5074
  624MOL0     H86106   2.220   1.029  12.135 -0.0389 -1.2683  0.8762
  624MOL0     H86107   2.389   1.022  12.145 -2.0386  1.1813  1.1914
  624MOL0     H86108   2.289   0.627  12.266 -1.8902  0.8661  2.0351
  624MOL0     H86109   2.506   0.936  11.519 -0.6467 -0.3524 -2.8423
  624MOL0     H86110   2.584   1.014  11.204 -2.1365  1.1731  1.6414
  624MOL0     H86111   2.745   0.951  11.261  0.2516  3.4131 -2.5182
  624MOL0     H86112   2.579   0.875  11.299 -1.8400  1.1812  0.2088
  625MOL0     O86113   8.459   7.797   0.227 -0.0657  0.7084 -0.5561
  625MOL0     C86114   8.471   7.778   0.102 -0.1936 -0.2217 -1.2375
  625MOL0     O86115   8.486   7.655   0.043 -0.2935  0.0819  0.6857
  625MOL0     C86116   8.452   7.539   0.102  0.3663  0.0503 -0.6620
  625MOL0     C86117   8.343   7.519   0.191  0.4899  0.2995  0.0249
  625MOL0     C86118   8.331   7.400   0.263  0.0884  0.3187 -0.0477
  625MOL0     C86119   8.416   7.295   0.234  0.1971 -0.2328  0.2492
  625MOL0     O86120   8.411   7.177   0.292  0.5015  0.6982 -0.2827
  625MOL0     C86121   8.284   7.110   0.290 -0.3841  0.1153  0.0579
  625MOL0     C86122   8.306   6.974   0.355  0.0934  0.5548  0.0947
  625MOL0     C86123   8.379   6.892   0.256  0.8949 -0.2043 -0.8878
  625MOL0     C86124   8.388   6.745   0.297  0.2590  0.5264  0.4856
  625MOL0     C86125   8.463   6.666   0.197 -0.0730  0.6115 -0.0146
  625MOL0     C86126   8.506   6.544   0.259  0.4035  0.4195  0.7771
  625MOL0     C86127   8.576   6.455   0.146  0.5959 -0.5144 -0.3119
  625MOL0     C86128   8.479   6.405   0.032 -0.0966 -0.2803 -0.4521
  625MOL0     N86129   8.400   6.292   0.074 -0.3106 -0.2129 -0.2466
  625MOL0     C86130   8.291   6.304   0.158  0.6731  0.5457  0.1817
  625MOL0     C86131   8.227   6.187   0.144 -0.5286  0.0622  0.3401
  625MOL0     C86132   8.098   6.145   0.216  0.0984 -1.0217 -0.2687
  625MOL0     C86133   7.995   6.065   0.123  0.3725 -0.1741 -0.1454
  625MOL0     C86134   7.857   6.038   0.181 -0.2719 -0.5373 -0.9165
  625MOL0     C86135   7.840   5.955   0.313 -1.1632 -0.7880 -0.0438
  625MOL0     O86136   7.903   5.827   0.284 -0.4466  0.8051  0.3965
  625MOL0     C86137   7.895   5.726   0.377  0.0056  0.2139 -0.1131
  625MOL0     C86138   7.835   5.743   0.502 -0.2661  0.9129 -0.4409
  625MOL0     C86139   7.837   5.644   0.601 -0.0233  1.3517  0.9080
  625MOL0     C86140   7.763   5.681   0.733  0.3210  0.3367  0.9296
  625MOL0     C86141   7.905   5.523   0.574 -0.3645 -0.7177  0.1317
  625MOL0     C86142   7.910   5.406   0.662 -0.1480 -0.3254 -0.2692
  625MOL0     O86143   7.983   5.297   0.620  0.2638  0.2155 -0.6173
  625MOL0     C86144   7.971   5.193   0.703 -0.2995  0.0257  0.9064
  625MOL0     C86145   7.864   5.099   0.706  0.3232  0.2942 -0.4346
  625MOL0     C86146   7.870   4.992   0.803  0.2682  0.1294 -0.1157
  625MOL0     C86147   7.964   4.984   0.906 -0.6859  0.0959 -0.2663
  625MOL0     O86148   7.952   4.889   1.001 -0.3242 -0.1956  0.3837
  625MOL0     C86149   8.042   4.892   1.123 -0.7116 -0.2050 -0.2497
  625MOL0     C86150   8.174   4.816   1.098 -1.0044 -0.2995  0.1911
  625MOL0     C86151   8.268   4.828   1.209  0.2686 -0.1410  0.3314
  625MOL0     C86152   8.359   4.949   1.184 -0.1907 -0.1543  0.8530
  625MOL0     C86153   8.441   4.989   1.308  0.8449 -0.3766  0.2318
  625MOL0     C86154   8.544   4.888   1.357  0.2383  0.2736 -0.3091
  625MOL0     C86155   8.596   4.921   1.499  0.5944 -0.5885  0.3630
  625MOL0     C86156   8.590   4.796   1.581  0.7018 -0.3075 -0.2315
  625MOL0    Cl86157   8.423   4.758   1.639  0.6309  0.5756 -0.3734
  625MOL0     C86158   8.065   5.079   0.895  0.3227  0.6229  0.4159
  625MOL0     C86159   8.067   5.177   0.797 -0.5742  1.1047 -0.5008
  625MOL0     O86160   7.855   5.413   0.769 -0.3147 -0.4723 -0.0994
  625MOL0     C86161   7.969   5.510   0.445  0.1074  0.1825  0.1140
  625MOL0     C86162   7.960   5.607   0.347  0.0967 -0.6475  1.0227
  625MOL0     N86163   8.294   6.110   0.059 -0.0136  0.7436  0.2219
  625MOL0     N86164   8.405   6.166   0.017 -0.1520 -0.2816  0.6192
  625MOL0     C86165   8.517   7.318   0.144  0.1615 -0.7781 -0.3927
  625MOL0     C86166   8.542   7.435   0.076  0.2701  0.2119  0.9778
  625MOL0     C86167   8.527   7.900   0.049  0.6959  0.0612  0.8283
  625MOL0     C86168   8.630   7.886  -0.043  0.4451  0.0146  0.2800
  625MOL0     C86169   8.675   7.993  -0.118 -0.5322  0.3137 -0.1344
  625MOL0     C86170   8.630   8.121  -0.095  0.1464 -0.3886  0.3117
  625MOL0     O86171   8.664   8.230  -0.167  0.4178 -0.7794  0.2927
  625MOL0     C86172   8.800   8.234  -0.222 -0.8514  0.2699 -0.3316
  625MOL0     C86173   8.825   8.365  -0.301  0.2013 -0.2651  0.5777
  625MOL0     C86174   8.710   8.400  -0.407 -0.5688  0.2590 -0.0361
  625MOL0     C86175   8.705   8.305  -0.516 -0.9540 -0.6535  0.5889
  625MOL0     C86176   8.619   8.333  -0.635  0.6478 -0.1876  0.5572
  625MOL0     C86177   8.552   8.353  -0.734 -0.4911 -0.3520 -0.6077
  625MOL0     C86178   8.533   8.144   0.004 -0.2808 -0.1857 -0.6386
  625MOL0     C86179   8.473   8.029   0.066  0.7989 -0.4229  0.2915
  625MOL0     C86180   8.360   8.068   0.160 -0.3109  0.5205  0.5412
  625MOL0     H86181   8.281   7.605   0.216 -0.1510 -0.1377 -0.0444
  625MOL0     H86182   8.254   7.395   0.340 -1.3075  3.4742 -1.0688
  625MOL0     H86183   8.254   7.102   0.185  1.2034 -0.2852 -0.3929
  625MOL0     H86184   8.213   7.166   0.352  1.1966  1.2090  0.9621
  625MOL0     H86185   8.356   6.985   0.452 -0.8633 -1.0693  0.8226
  625MOL0     H86186   8.212   6.921   0.369 -0.0357 -0.3744 -3.4072
  625MOL0     H86187   8.317   6.892   0.166 -2.3540 -0.0724  1.1870
  625MOL0     H86188   8.475   6.943   0.241  1.6066 -1.0531  0.5296
  625MOL0     H86189   8.442   6.752   0.392  1.4440  1.7352 -0.2492
  625MOL0     H86190   8.287   6.707   0.319  0.7438 -0.2122  1.5081
  625MOL0     H86191   8.543   6.720   0.145  0.4421  0.1442  0.2832
  625MOL0     H86192   8.389   6.643   0.120 -1.1455 -1.6600  1.5971
  625MOL0     H86193   8.579   6.566   0.337 -0.2097 -0.6660  1.6846
  625MOL0     H86194   8.433   6.486   0.315  0.0328 -0.7867 -0.8588
  625MOL0     H86195   8.626   6.371   0.194  0.5797 -0.7045 -0.6197
  625MOL0     H86196   8.649   6.517   0.092 -4.3502  1.8768 -5.3417
  625MOL0     H86197   8.416   6.478  -0.021 -0.0257 -1.5244 -2.3658
  625MOL0     H86198   8.546   6.366  -0.045 -1.4560 -2.9544 -0.4072
  625MOL0     H86199   8.261   6.393   0.213 -1.5863 -1.7696  3.0402
  625MOL0     H86200   8.060   6.237   0.261 -0.4487 -1.3342 -0.0877
  625MOL0     H86201   8.137   6.089   0.301  0.3434 -2.3114 -1.1946
  625MOL0     H86202   7.979   6.130   0.036  0.2888  1.1627  0.8380
  625MOL0     H86203   8.040   5.975   0.080 -0.0514  0.2150 -1.4435
  625MOL0     H86204   7.817   6.138   0.201 -0.0892 -0.7362  0.5729
  625MOL0     H86205   7.796   5.986   0.105  0.1115 -0.5490 -1.2171
  625MOL0     H86206   7.900   5.998   0.395 -0.3683 -1.1507 -0.4231
  625MOL0     H86207   7.736   5.946   0.345 -1.7497  1.9769 -0.8738
  625MOL0     H86208   7.766   5.824   0.522 -2.6306 -1.5137  2.1336
  625MOL0     H86209   7.677   5.618   0.759 -0.9317  1.5050 -0.2212
  625MOL0     H86210   7.728   5.785   0.730  0.3423  0.3777 -2.7731
  625MOL0     H86211   7.829   5.678   0.820 -0.0429  0.8971  1.2332
  625MOL0     H86212   7.787   5.099   0.629 -0.8509 -0.6147  0.6841
  625MOL0     H86213   7.789   4.919   0.808  2.4480 -2.4647 -0.1111
  625MOL0     H86214   8.055   4.992   1.165 -0.7072 -1.1346  2.0780
  625MOL0     H86215   7.993   4.839   1.204 -0.3939 -0.1955 -0.0495
  625MOL0     H86216   8.150   4.710   1.102 -0.7529 -0.5076 -2.2815
  625MOL0     H86217   8.217   4.848   1.003 -0.3947  0.0113  0.5628
  625MOL0     H86218   8.336   4.743   1.222  2.8966  1.6358 -0.8691
  625MOL0     H86219   8.208   4.847   1.299  1.1788  1.9012  0.5665
  625MOL0     H86220   8.304   5.040   1.158  0.0734  0.1325  1.2879
  625MOL0     H86221   8.429   4.930   1.101 -0.5216 -1.2754  0.8168
  625MOL0     H86222   8.483   5.088   1.285  0.8010 -0.4581 -0.2134
  625MOL0     H86223   8.374   5.006   1.392  0.0449 -1.7230 -0.0984
  625MOL0     H86224   8.625   4.880   1.285 -2.8846  1.9981 -4.4732
  625MOL0     H86225   8.498   4.789   1.364  0.0843  0.4629  1.8634
  625MOL0     H86226   8.533   4.994   1.551  0.0634  1.1227 -2.4103
  625MOL0     H86227   8.697   4.963   1.493 -0.7254  3.0750  1.0064
  625MOL0     H86228   8.645   4.816   1.673 -1.9061 -0.1089  1.3855
  625MOL0     H86229   8.623   4.705   1.530  1.0964 -1.1905  1.5143
  625MOL0     H86230   8.144   5.072   0.969  2.4832 -1.7704 -1.9351
  625MOL0     H86231   8.151   5.243   0.782  0.2333 -0.3815 -2.9978
  625MOL0     H86232   8.015   5.420   0.406  0.4986  0.8795 -1.0908
  625MOL0     H86233   7.985   5.595   0.242 -1.5425 -1.4388  0.6923
  625MOL0     H86234   8.590   7.237   0.142  2.3832  1.0742  0.7037
  625MOL0     H86235   8.627   7.430   0.009  0.4991  1.5714  1.1328
  625MOL0     H86236   8.681   7.795  -0.073 -1.2694 -0.0884 -2.7781
  625MOL0     H86237   8.760   7.981  -0.183 -0.4140 -0.9442  0.2271
  625MOL0     H86238   8.889   8.231  -0.159  2.6430 -1.8735 -4.7432
  625MOL0     H86239   8.815   8.163  -0.304  1.7037  3.3656 -2.8373
  625MOL0     H86240   8.920   8.352  -0.354  0.1180  0.6351  0.1754
  625MOL0     H86241   8.831   8.452  -0.234  0.0014  1.6313 -1.7415
  625MOL0     H86242   8.612   8.412  -0.361  0.1553  3.7002  0.9370
  625MOL0     H86243   8.750   8.496  -0.443  1.7376 -0.6801 -0.1892
  625MOL0     H86244   8.673   8.206  -0.481 -4.4516  0.2122  0.2801
  625MOL0     H86245   8.799   8.293  -0.569 -2.1252 -1.2776 -1.4559
  625MOL0     H86246   8.499   8.389  -0.820  0.9672  1.4250 -0.8387
  625MOL0     H86247   8.502   8.245   0.026  1.8367  0.3671  0.0443
  625MOL0     H86248   8.273   8.002   0.165 -1.4952  1.5750 -3.0128
  625MOL0     H86249   8.409   8.084   0.256  2.8706  0.1057 -0.9015
  625MOL0     H86250   8.328   8.167   0.127  1.4715  0.7722 -0.5290
  626MOL0     O86251   6.512   7.286   1.266  0.1506  0.2562 -0.1921
  626MOL0     C86252   6.608   7.249   1.188 -0.2125 -0.3211  0.6481
  626MOL0     O86253   6.652   7.320   1.077 -0.4818 -0.1447 -1.0134
  626MOL0     C86254   6.587   7.440   1.054 -0.7242  0.2531 -0.2102
  626MOL0     C86255   6.663   7.555   1.022 -1.0380  0.0981 -1.1453
  626MOL0     C86256   6.599   7.663   0.960  0.2109  0.2838  0.2067
  626MOL0     C86257   6.459   7.660   0.938  1.2906  0.0991  1.2627
  626MOL0     O86258   6.397   7.766   0.876  0.7862 -0.0573  1.0164
  626MOL0     C86259   6.429   7.807   0.742 -0.5093 -0.0839  0.4598
  626MOL0     C86260   6.311   7.879   0.671 -0.5510 -0.5462 -0.2337
  626MOL0     C86261   6.201   7.784   0.622  0.2123 -1.0504  0.5422
  626MOL0     C86262   6.248   7.696   0.504  0.0392 -0.3366  0.5248
  626MOL0     C86263   6.153   7.588   0.464 -0.1382  0.1007 -0.3800
  626MOL0     C86264   6.195   7.510   0.335  0.5986 -0.2093  0.4011
  626MOL0     C86265   6.095   7.390   0.303 -0.5507 -0.5720 -0.3533
  626MOL0     C86266   6.127   7.312   0.182  0.0377  0.4635  1.2605
  626MOL0     N86267   6.274   7.274   0.175 -0.4418  0.8407  0.6374
  626MOL0     C86268   6.333   7.165   0.236  0.1956 -0.0551 -0.0301
  626MOL0     C86269   6.467   7.194   0.236 -0.6691  0.1245  0.3884
  626MOL0     C86270   6.568   7.101   0.292  0.6935  0.0387  0.1215
  626MOL0     C86271   6.564   6.961   0.234  0.0213 -0.1243  0.9774
  626MOL0     C86272   6.575   6.962   0.083 -0.6645  0.1716 -0.2032
  626MOL0     C86273   6.693   7.037   0.025 -0.5815 -1.2673  1.1652
  626MOL0     O86274   6.717   7.002  -0.119  0.1295 -0.3112  0.0668
  626MOL0     C86275   6.604   6.989  -0.200 -0.3872  0.0137  0.2561
  626MOL0     C86276   6.602   6.884  -0.296 -0.3412  0.4294 -0.0348
  626MOL0     C86277   6.509   6.869  -0.402  0.9836 -0.4773 -0.3247
  626MOL0     C86278   6.533   6.760  -0.514  0.0157  0.2113 -0.2026
  626MOL0     C86279   6.405   6.964  -0.408  0.5537 -1.5555 -0.4970
  626MOL0     C86280   6.300   6.965  -0.509 -0.5642  1.3052  0.1989
  626MOL0     O86281   6.268   7.078  -0.568  0.0973 -0.8434 -0.2141
  626MOL0     C86282   6.151   7.080  -0.640  0.2542  0.2306  0.2386
  626MOL0     C86283   6.040   7.117  -0.563 -0.6678 -0.2749  0.0165
  626MOL0     C86284   5.916   7.097  -0.624  0.7267  0.6555 -0.7629
  626MOL0     C86285   5.898   7.037  -0.748 -0.4396  1.0957  0.0706
  626MOL0     O86286   5.773   7.031  -0.801  0.2346  0.3276  0.7761
  626MOL0     C86287   5.740   7.084  -0.932  0.8889 -0.1679 -0.8018
  626MOL0     C86288   5.725   7.230  -0.931  0.8880  0.0836 -0.0578
  626MOL0     C86289   5.619   7.294  -0.840 -0.3045  0.4325 -1.4557
  626MOL0     C86290   5.592   7.429  -0.880 -0.0955 -0.9641  0.5625
  626MOL0     C86291   5.490   7.491  -0.793  0.6321 -0.8560 -0.6375
  626MOL0     C86292   5.454   7.639  -0.821 -0.3713 -0.4105 -0.6280
  626MOL0     C86293   5.579   7.736  -0.809 -0.3713 -0.5991  0.1276
  626MOL0     C86294   5.626   7.762  -0.665 -0.1150  0.4244 -0.5070
  626MOL0    Cl86295   5.719   7.623  -0.600  0.5970 -0.3692  0.4336
  626MOL0     C86296   6.008   7.017  -0.826  0.6776  0.6644 -0.7161
  626MOL0     C86297   6.141   7.050  -0.781 -0.0161 -0.7187  0.1350
  626MOL0     O86298   6.258   6.849  -0.541  0.1006  0.1230  0.5393
  626MOL0     C86299   6.403   7.072  -0.312 -0.3292 -0.2134  0.1090
  626MOL0     C86300   6.500   7.083  -0.213  0.8006  0.6025  0.9680
  626MOL0     N86301   6.494   7.306   0.167  0.0952  0.2833  0.5472
  626MOL0     N86302   6.379   7.349   0.129 -0.7106 -0.7175  0.3612
  626MOL0     C86303   6.389   7.553   0.975  0.7017  0.8266  0.0600
  626MOL0     C86304   6.446   7.441   1.032 -0.5835 -0.3078  0.4410
  626MOL0     C86305   6.683   7.126   1.222  0.2167 -0.4161 -0.1203
  626MOL0     C86306   6.618   7.012   1.266 -0.2298 -0.5180 -0.3004
  626MOL0     C86307   6.691   6.896   1.296  1.0828 -0.1321  0.1944
  626MOL0     C86308   6.830   6.885   1.297  0.4379  0.3722 -0.5867
  626MOL0     O86309   6.902   6.777   1.347 -0.2928  0.8059 -0.0604
  626MOL0     C86310   7.009   6.794   1.450  0.4220 -1.1459  0.5107
  626MOL0     C86311   6.932   6.840   1.578  0.0292  0.5666  0.5851
  626MOL0     C86312   6.832   6.733   1.620 -0.6699  0.4240  0.5129
  626MOL0     C86313   6.891   6.616   1.696 -0.3015  0.7978  0.2264
  626MOL0     C86314   6.897   6.638   1.843  0.0961  0.2418 -0.3342
  626MOL0     C86315   6.922   6.650   1.962  0.8738 -0.4007 -1.0266
  626MOL0     C86316   6.900   6.994   1.252  0.2186 -0.1434 -0.2929
  626MOL0     C86317   6.826   7.115   1.217 -0.1977 -0.3724  0.2967
  626MOL0     C86318   6.907   7.229   1.164 -0.1875 -0.6334  0.0780
  626MOL0     H86319   6.771   7.548   1.016 -1.1776 -0.9528 -3.7540
  626MOL0     H86320   6.666   7.744   0.931 -1.0717  0.8631 -1.2766
  626MOL0     H86321   6.466   7.727   0.677 -1.1957 -2.5443  2.8931
  626MOL0     H86322   6.506   7.883   0.754  0.9629 -1.8893  3.9647
  626MOL0     H86323   6.259   7.941   0.745 -2.1963 -0.2763 -1.5509
  626MOL0     H86324   6.346   7.935   0.583  2.4182 -1.4325  0.2772
  626MOL0     H86325   6.182   7.718   0.707  0.5334 -0.2357  1.2596
  626MOL0     H86326   6.108   7.831   0.589  1.8174  1.6435 -0.4893
  626MOL0     H86327   6.271   7.759   0.417 -0.5109 -2.5492 -1.3130
  626MOL0     H86328   6.343   7.646   0.527 -1.6258 -3.4919  1.0532
  626MOL0     H86329   6.052   7.630   0.450 -0.8586 -1.1121  0.9509
  626MOL0     H86330   6.144   7.522   0.550 -0.2659 -0.7919 -1.0607
  626MOL0     H86331   6.198   7.572   0.246  0.1221  1.3539  1.4374
  626MOL0     H86332   6.297   7.472   0.347 -0.3815 -2.9733  0.8034
  626MOL0     H86333   5.993   7.428   0.315 -0.2417 -0.5642  3.2177
  626MOL0     H86334   6.101   7.319   0.386 -0.8278  1.4653  1.4823
  626MOL0     H86335   6.067   7.222   0.168 -1.1965  1.5752 -1.5086
  626MOL0     H86336   6.103   7.377   0.097 -3.9346 -1.7864  0.4159
  626MOL0     H86337   6.285   7.078   0.279  0.1913  0.4342  0.9861
  626MOL0     H86338   6.540   7.088   0.397 -2.1995 -1.9926 -0.8115
  626MOL0     H86339   6.665   7.152   0.292  0.8306 -0.1850 -1.3776
  626MOL0     H86340   6.644   6.897   0.273 -1.6201 -3.5787 -0.8461
  626MOL0     H86341   6.470   6.918   0.270 -0.2433  2.6226  4.0144
  626MOL0     H86342   6.585   6.855   0.060  0.1612  0.0760  0.5472
  626MOL0     H86343   6.474   6.981   0.047 -0.7824  1.7791  0.8993
  626MOL0     H86344   6.673   7.145   0.018  2.1898 -0.7839 -2.9227
  626MOL0     H86345   6.783   7.030   0.087  0.4829 -3.4439 -0.4954
  626MOL0     H86346   6.688   6.817  -0.306 -0.6826 -0.4159  2.0631
  626MOL0     H86347   6.641   6.744  -0.521 -0.2148 -0.7080 -3.3112
  626MOL0     H86348   6.488   6.797  -0.606 -3.0264 -1.1616  0.6063
  626MOL0     H86349   6.490   6.664  -0.483  0.2421 -1.4281 -4.3479
  626MOL0     H86350   6.041   7.150  -0.460 -0.0938  0.7722 -0.3046
  626MOL0     H86351   5.829   7.122  -0.564  1.9417  0.1816  1.2789
  626MOL0     H86352   5.807   7.050  -1.011  0.6470 -0.3644 -0.9249
  626MOL0     H86353   5.637   7.052  -0.952 -0.0668  2.0400  0.2089
  626MOL0     H86354   5.824   7.267  -0.905 -0.1226  3.3518 -0.3243
  626MOL0     H86355   5.695   7.263  -1.031  0.2597 -1.6607 -0.4794
  626MOL0     H86356   5.652   7.287  -0.736  0.8176 -0.7290 -1.8683
  626MOL0     H86357   5.522   7.246  -0.851 -0.7280  1.5680 -2.9570
  626MOL0     H86358   5.556   7.432  -0.984  0.3658  1.2855  0.4253
  626MOL0     H86359   5.685   7.486  -0.875  0.5375 -2.0208  1.1408
  626MOL0     H86360   5.394   7.441  -0.815  0.2397 -0.3338 -0.1414
  626MOL0     H86361   5.506   7.462  -0.688  1.1985 -1.3932 -0.8702
  626MOL0     H86362   5.367   7.677  -0.766  0.4630  2.1442 -0.9968
  626MOL0     H86363   5.426   7.648  -0.927  1.2501  0.3650 -1.0110
  626MOL0     H86364   5.558   7.835  -0.850  1.8460  0.3071  1.0448
  626MOL0     H86365   5.665   7.700  -0.866 -0.2787 -1.7857  0.9646
  626MOL0     H86366   5.551   7.798  -0.595  0.3220  1.9832 -0.7991
  626MOL0     H86367   5.694   7.846  -0.682 -0.8268  0.5018 -3.5247
  626MOL0     H86368   5.990   6.979  -0.927  1.7372  1.5562 -1.2496
  626MOL0     H86369   6.226   7.024  -0.843 -0.5017  0.6427 -1.1735
  626MOL0     H86370   6.328   7.150  -0.314 -0.4892 -0.3166  1.5695
  626MOL0     H86371   6.497   7.176  -0.157  0.2591  1.5158 -0.5255
  626MOL0     H86372   6.285   7.541   0.945  0.8198 -1.5201  0.3732
  626MOL0     H86373   6.383   7.353   1.043 -0.9474 -0.1562 -0.3518
  626MOL0     H86374   6.510   7.008   1.272 -0.1606 -0.5989  1.6613
  626MOL0     H86375   6.646   6.802   1.328  0.5820 -1.2066 -3.1924
  626MOL0     H86376   7.069   6.704   1.460  0.0873 -1.4309  0.0315
  626MOL0     H86377   7.088   6.865   1.424  0.8804 -1.9488 -0.3415
  626MOL0     H86378   6.890   6.941   1.573  0.2939  0.6943  0.8893
  626MOL0     H86379   6.996   6.851   1.666 -2.6752 -0.0504  2.7989
  626MOL0     H86380   6.757   6.769   1.690 -0.1008  1.3597  0.6666
  626MOL0     H86381   6.791   6.688   1.529 -1.2190 -3.5210  2.4737
  626MOL0     H86382   6.990   6.590   1.657 -0.3238  0.7734  0.1854
  626MOL0     H86383   6.817   6.538   1.676  1.1104 -0.2276 -1.3154
  626MOL0     H86384   6.933   6.670   2.067 -0.6180  0.2161 -0.9651
  626MOL0     H86385   7.008   7.000   1.253  0.2519 -0.6378  0.5668
  626MOL0     H86386   6.901   7.220   1.055  2.0694  0.7035 -0.2222
  626MOL0     H86387   6.876   7.327   1.199 -0.7190 -1.5481  2.3433
  626MOL0     H86388   7.013   7.212   1.188  0.6493  0.0627 -2.7363
  627MOL0     O86389   4.948   5.207   5.779 -0.2274 -0.6791  0.0836
  627MOL0     C86390   4.913   5.179   5.667 -0.0853  0.0972 -0.2479
  627MOL0     O86391   4.787   5.169   5.627  1.0577  0.1443  0.5973
  627MOL0     C86392   4.686   5.174   5.726 -0.1747 -0.4233 -0.2770
  627MOL0     C86393   4.684   5.103   5.844 -0.5508 -0.1610  0.8607
  627MOL0     C86394   4.578   5.114   5.927 -0.4447 -0.3110  0.1603
  627MOL0     C86395   4.475   5.200   5.904  0.3766  0.5020 -0.9298
  627MOL0     O86396   4.371   5.195   5.988  0.6215  1.0150  0.4739
  627MOL0     C86397   4.254   5.267   5.958 -0.0239 -0.8037 -0.2536
  627MOL0     C86398   4.140   5.212   6.049 -0.0789  0.0707 -0.6981
  627MOL0     C86399   4.140   5.283   6.184 -0.5555 -1.1678 -0.2488
  627MOL0     C86400   4.051   5.234   6.294  0.2899 -0.1797  0.3432
  627MOL0     C86401   4.111   5.142   6.393  0.0070 -0.7518 -0.0923
  627MOL0     C86402   3.999   5.088   6.482  0.3370  0.1315  0.1286
  627MOL0     C86403   4.038   4.987   6.591 -0.6501  0.2195 -0.5081
  627MOL0     C86404   4.138   5.043   6.694 -0.5993 -0.4163  0.4629
  627MOL0     N86405   4.190   4.935   6.784 -0.1964 -0.4103  0.3191
  627MOL0     C86406   4.250   4.816   6.753  0.9203  0.4379 -0.7154
  627MOL0     C86407   4.248   4.743   6.864  0.1509  1.0081 -0.3967
  627MOL0     C86408   4.291   4.592   6.885 -0.2616 -0.4043  0.5935
  627MOL0     C86409   4.372   4.564   7.011  0.6180  0.5369 -0.3956
  627MOL0     C86410   4.422   4.418   7.006 -0.2739 -0.3320  0.4721
  627MOL0     C86411   4.536   4.390   7.102 -0.4152 -0.0839  0.7121
  627MOL0     O86412   4.487   4.380   7.234 -0.6584 -0.3227 -0.3741
  627MOL0     C86413   4.452   4.264   7.295  0.0844  0.0556 -0.3598
  627MOL0     C86414   4.450   4.131   7.237 -0.1050 -1.2780  0.3094
  627MOL0     C86415   4.409   4.017   7.302 -0.0655  0.0539  0.3168
  627MOL0     C86416   4.405   3.891   7.233  0.1531  0.3225 -0.1781
  627MOL0     C86417   4.368   4.026   7.442  0.2754  0.4758  0.3207
  627MOL0     C86418   4.324   3.921   7.526 -0.8146  0.9393 -0.9450
  627MOL0     O86419   4.265   3.812   7.465 -0.4947 -0.9877  0.1589
  627MOL0     C86420   4.226   3.703   7.529  0.8593 -0.5511  0.2095
  627MOL0     C86421   4.273   3.656   7.654 -0.0625  0.6041 -0.3430
  627MOL0     C86422   4.218   3.540   7.718 -0.0764 -0.2608  1.5512
  627MOL0     C86423   4.098   3.481   7.663 -0.1245  0.3400  0.0790
  627MOL0     O86424   4.049   3.370   7.727  0.1242 -0.2178 -0.1979
  627MOL0     C86425   4.019   3.246   7.655 -0.5296 -0.2944  0.4171
  627MOL0     C86426   3.984   3.126   7.749  0.6718  0.9383  0.1667
  627MOL0     C86427   3.942   3.007   7.643  0.7065 -0.1589 -0.1454
  627MOL0     C86428   3.906   2.875   7.720 -0.3564  0.8098 -0.1068
  627MOL0     C86429   3.877   2.754   7.625  0.3054  1.3970  0.0486
  627MOL0     C86430   3.815   2.636   7.712 -0.3076  0.3888  0.0370
  627MOL0     C86431   3.733   2.534   7.629  0.4198 -0.4197 -0.5808
  627MOL0     C86432   3.836   2.440   7.562 -0.0480  0.2452 -0.2496
  627MOL0    Cl86433   3.746   2.302   7.489 -0.4127  0.1709  0.4382
  627MOL0     C86434   4.045   3.540   7.549  0.0914  0.6865  0.3727
  627MOL0     C86435   4.106   3.640   7.482  0.0066 -0.2840 -0.0271
  627MOL0     O86436   4.335   3.938   7.645  0.5982 -0.3738 -0.3096
  627MOL0     C86437   4.387   4.154   7.502  0.3424 -0.6797  0.2764
  627MOL0     C86438   4.421   4.270   7.436  0.8608  0.5231  0.2009
  627MOL0     N86439   4.183   4.810   6.967  0.5227  0.8387 -0.2497
  627MOL0     N86440   4.151   4.929   6.922 -0.2101 -0.4305  0.5330
  627MOL0     C86441   4.481   5.272   5.780 -0.3563 -0.7482 -2.1404
  627MOL0     C86442   4.579   5.257   5.695 -0.6205  0.6925  0.2125
  627MOL0     C86443   5.021   5.156   5.560  0.8353  0.0124 -0.5777
  627MOL0     C86444   4.971   5.168   5.425 -0.1829  0.0317  0.2185
  627MOL0     C86445   5.061   5.156   5.324  0.1707 -0.3896  0.9375
  627MOL0     C86446   5.196   5.126   5.346 -0.8903  0.3846  0.5993
  627MOL0     O86447   5.289   5.111   5.244 -0.4590 -0.5656  0.0168
  627MOL0     C86448   5.253   5.150   5.111 -0.9816 -0.0574  0.5049
  627MOL0     C86449   5.257   5.306   5.095  0.4796  0.1949  0.1262
  627MOL0     C86450   5.211   5.352   4.960 -0.5267 -1.0915  0.3100
  627MOL0     C86451   5.268   5.272   4.846 -0.2660 -1.2567 -0.1268
  627MOL0     C86452   5.227   5.337   4.722  1.3892  0.9362 -0.0952
  627MOL0     C86453   5.180   5.404   4.632 -0.2398  0.4591 -0.1977
  627MOL0     C86454   5.247   5.117   5.478  0.1288  0.1132  0.6258
  627MOL0     C86455   5.158   5.125   5.585 -0.6514  0.0771  0.6593
  627MOL0     C86456   5.229   5.102   5.718 -0.3391 -0.4313 -0.7097
  627MOL0     H86457   4.765   5.032   5.853  0.1695  0.6209  0.6172
  627MOL0     H86458   4.593   5.070   6.025  2.3728 -1.4966 -0.6647
  627MOL0     H86459   4.224   5.246   5.855 -0.7277 -2.2034  0.2096
  627MOL0     H86460   4.262   5.375   5.975  0.1009 -1.0849  1.7053
  627MOL0     H86461   4.051   5.233   5.990  0.3556  0.4209 -1.2345
  627MOL0     H86462   4.154   5.104   6.059 -1.9245 -0.1545 -0.2541
  627MOL0     H86463   4.242   5.294   6.220 -0.3462  3.4034 -1.5201
  627MOL0     H86464   4.115   5.387   6.162  1.8453 -0.1957  1.2616
  627MOL0     H86465   4.026   5.323   6.353  1.2369  0.5965 -0.3815
  627MOL0     H86466   3.961   5.196   6.245 -1.3501  1.3069  2.0136
  627MOL0     H86467   4.173   5.204   6.459 -2.7266  0.6722  1.3202
  627MOL0     H86468   4.168   5.063   6.344  0.6057  0.3910 -1.3142
  627MOL0     H86469   3.932   5.169   6.513  1.2029  1.3821 -1.1512
  627MOL0     H86470   3.935   5.030   6.414  3.1164 -1.3658 -1.3731
  627MOL0     H86471   4.095   4.903   6.550  0.8702 -0.0608  1.9265
  627MOL0     H86472   3.958   4.942   6.651  1.7427 -0.5149  2.4410
  627MOL0     H86473   4.216   5.109   6.656 -0.5852 -1.8090 -2.1004
  627MOL0     H86474   4.073   5.108   6.753 -0.4568  0.7100 -0.5876
  627MOL0     H86475   4.296   4.784   6.660  1.1576 -2.7086  0.3362
  627MOL0     H86476   4.357   4.552   6.808 -3.0983 -1.2398 -1.5290
  627MOL0     H86477   4.200   4.532   6.884 -1.5344  1.4468  1.4847
  627MOL0     H86478   4.461   4.628   7.016  1.7436 -0.2180 -5.1797
  627MOL0     H86479   4.297   4.570   7.090  1.0115  0.0712  0.0188
  627MOL0     H86480   4.339   4.352   7.031  0.3827 -1.2284  0.3262
  627MOL0     H86481   4.457   4.401   6.904 -1.2771  3.6763 -0.7363
  627MOL0     H86482   4.601   4.305   7.077 -1.9933 -2.3252  3.6041
  627MOL0     H86483   4.599   4.479   7.104 -1.4745  0.7212 -0.2244
  627MOL0     H86484   4.477   4.126   7.132  1.8412 -2.4601  0.8317
  627MOL0     H86485   4.459   3.806   7.275  4.0590  0.5836 -4.0585
  627MOL0     H86486   4.441   3.892   7.130 -0.7347  1.6121 -0.5024
  627MOL0     H86487   4.298   3.869   7.233  0.0218  0.6035  2.4519
  627MOL0     H86488   4.359   3.704   7.700  0.2022  0.1197 -0.3222
  627MOL0     H86489   4.270   3.505   7.807  0.5828 -1.9706  0.5566
  627MOL0     H86490   3.934   3.261   7.588 -1.2155  1.2766  1.5804
  627MOL0     H86491   4.107   3.210   7.601 -0.0270 -1.5878  2.0175
  627MOL0     H86492   4.074   3.101   7.808 -0.4561 -1.5629  0.9872
  627MOL0     H86493   3.909   3.153   7.824 -0.8459 -0.5058 -0.7679
  627MOL0     H86494   4.030   2.987   7.581  0.5178 -1.3100 -0.0476
  627MOL0     H86495   3.874   3.020   7.559  0.2647 -3.5123 -0.4398
  627MOL0     H86496   3.814   2.888   7.778  0.9030 -2.5891  3.1288
  627MOL0     H86497   3.973   2.844   7.801 -0.2855  3.0246  0.7530
  627MOL0     H86498   3.808   2.769   7.542 -0.2340 -1.9752 -0.2818
  627MOL0     H86499   3.973   2.717   7.588 -0.2579  0.4158 -0.4805
  627MOL0     H86500   3.743   2.675   7.785  0.1479 -0.7268  1.1230
  627MOL0     H86501   3.887   2.587   7.777  0.8867  2.8003  0.6537
  627MOL0     H86502   3.660   2.585   7.566 -0.2953  0.4771  0.9302
  627MOL0     H86503   3.674   2.470   7.695  2.7209  0.2226  2.3136
  627MOL0     H86504   3.905   2.391   7.632 -1.5478  1.2678  2.0779
  627MOL0     H86505   3.894   2.499   7.492  2.9854 -2.2903 -0.0935
  627MOL0     H86506   3.945   3.520   7.512  0.1505  3.1632 -1.3685
  627MOL0     H86507   4.073   3.689   7.391  3.7524  2.9689  0.1137
  627MOL0     H86508   4.369   4.173   7.608 -2.3891  2.4787 -0.5859
  627MOL0     H86509   4.422   4.371   7.477  0.5450  1.9833 -3.1234
  627MOL0     H86510   4.404   5.345   5.759 -0.3579 -0.1232 -0.1741
  627MOL0     H86511   4.565   5.318   5.606 -1.8249 -0.0628 -0.1332
  627MOL0     H86512   4.867   5.189   5.403 -0.4813 -2.5662 -1.2594
  627MOL0     H86513   5.034   5.170   5.220  2.6140  0.7911  0.3866
  627MOL0     H86514   5.328   5.096   5.051 -1.5658  1.3840 -1.6376
  627MOL0     H86515   5.158   5.110   5.074 -1.1365  0.2313  0.5933
  627MOL0     H86516   5.363   5.329   5.111  0.6835 -1.3249  1.2297
  627MOL0     H86517   5.197   5.351   5.175  1.4708 -0.4510  1.2795
  627MOL0     H86518   5.102   5.350   4.970 -0.4896 -2.4110  0.6354
  627MOL0     H86519   5.241   5.456   4.946  0.4173 -1.1553  1.6936
  627MOL0     H86520   5.231   5.170   4.832 -1.9826 -0.4945 -1.4935
  627MOL0     H86521   5.376   5.257   4.853 -0.4727 -1.7244  4.2056
  627MOL0     H86522   5.131   5.453   4.550  1.4223  3.5427  0.4927
  627MOL0     H86523   5.355   5.106   5.484  0.3358  0.0182 -2.2197
  627MOL0     H86524   5.334   5.134   5.712 -0.9550  1.9028  0.1878
  627MOL0     H86525   5.198   5.177   5.792 -1.8834  0.6179 -2.3593
  627MOL0     H86526   5.225   5.002   5.764  2.8068 -0.4843 -0.2813
  628MOL0     O86527   0.828   4.141   2.987 -0.0573  0.7779  0.7188
  628MOL0     C86528   0.720   4.096   2.969  1.5859  0.6002  0.1494
  628MOL0     O86529   0.687   3.968   2.934 -0.9582  0.0428  0.1046
  628MOL0     C86530   0.797   3.904   2.877 -0.2181  0.3019 -0.7855
  628MOL0     C86531   0.835   3.779   2.930 -0.1813 -0.3980 -0.2084
  628MOL0     C86532   0.920   3.694   2.856 -0.5661  0.9901  0.1067
  628MOL0     C86533   0.977   3.738   2.731 -0.1531 -0.0435  0.6437
  628MOL0     O86534   1.046   3.643   2.657 -0.0371  0.0316 -0.2013
  628MOL0     C86535   1.133   3.677   2.551 -0.4739  0.4433  0.6348
  628MOL0     C86536   1.214   3.547   2.512  0.2174 -0.4339  0.1833
  628MOL0     C86537   1.141   3.412   2.507 -0.4071 -0.5904 -0.2776
  628MOL0     C86538   1.034   3.415   2.391  0.9691 -0.2558 -0.2222
  628MOL0     C86539   0.888   3.444   2.444 -0.2046 -0.0968  0.4753
  628MOL0     C86540   0.798   3.499   2.338 -0.3467  0.3416  0.3212
  628MOL0     C86541   0.645   3.521   2.365 -0.0284 -0.8685 -0.1648
  628MOL0     C86542   0.626   3.629   2.479  0.1279 -0.1668  0.0597
  628MOL0     N86543   0.481   3.653   2.491 -0.3986  0.0609  0.1011
  628MOL0     C86544   0.409   3.764   2.464 -0.3287 -0.5753  0.1197
  628MOL0     C86545   0.282   3.734   2.499  0.2890 -0.6967  0.2118
  628MOL0     C86546   0.166   3.824   2.495  1.1152 -0.8893  0.5125
  628MOL0     C86547   0.178   3.933   2.599  0.0443  0.1951  0.7687
  628MOL0     C86548   0.062   4.036   2.583 -0.1576  0.1338  0.8366
  628MOL0     C86549   0.095   4.165   2.634 -0.2714 -0.9111 -0.7970
  628MOL0     O86550  -0.008   4.266   2.621 -0.1423  0.0213  0.7650
  628MOL0     C86551   0.013   4.401   2.653 -0.0285  0.1265 -1.4493
  628MOL0     C86552   0.127   4.452   2.708 -0.1855 -0.5039 -0.1897
  628MOL0     C86553   0.132   4.583   2.757  0.6695  0.2538  0.0737
  628MOL0     C86554   0.266   4.622   2.806 -0.9578  0.2377 -1.2631
  628MOL0     C86555   0.022   4.675   2.735  1.7230 -0.5151  0.0509
  628MOL0     C86556   0.026   4.817   2.779 -0.4512  0.0061  0.2872
  628MOL0     O86557   0.148   4.865   2.819 -0.3068  0.2149  0.1383
  628MOL0     C86558   0.149   4.996   2.866 -0.8901 -0.8215 -0.2875
  628MOL0     C86559   0.060   5.042   2.973 -0.2568  0.7994  0.7063
  628MOL0     C86560   0.070   5.171   3.025  0.4261  0.6483  0.1823
  628MOL0     C86561   0.159   5.269   2.982 -0.0228 -1.0405 -0.2930
  628MOL0     O86562   0.152   5.400   3.030 -0.2287  0.3181 -0.2164
  628MOL0     C86563   0.028   5.473   3.046  0.0034 -0.4988 -0.4258
  628MOL0     C86564   0.026   5.582   2.928 -0.7033  0.1235  0.4203
  628MOL0     C86565   0.120   5.695   2.958 -0.2784 -0.3509  0.0822
  628MOL0     C86566   0.100   5.817   2.879 -0.4224 -0.6906 -0.1504
  628MOL0     C86567   0.218   5.925   2.897 -0.4463  0.1540  0.3593
  628MOL0     C86568   0.191   6.032   2.794  0.1284  0.5237  0.3138
  628MOL0     C86569   0.296   6.136   2.784  0.2105 -0.2698 -0.2889
  628MOL0     C86570   0.280   6.222   2.662 -0.3967  0.5090  0.4403
  628MOL0    Cl86571   0.145   6.327   2.663  0.2341  0.1269  0.0954
  628MOL0     C86572   0.246   5.233   2.880  0.5030  0.0125  0.2188
  628MOL0     C86573   0.243   5.100   2.825 -1.6462  0.7328  0.0244
  628MOL0     O86574  -0.069   4.892   2.752  0.3614 -0.5580 -0.2078
  628MOL0     C86575  -0.094   4.615   2.686  0.3876 -0.2272 -0.5037
  628MOL0     C86576  -0.093   4.482   2.632  0.5849 -0.6693 -0.5103
  628MOL0     N86577   0.276   3.609   2.561  1.0179  0.1366 -0.7279
  628MOL0     N86578   0.396   3.565   2.551 -0.4897 -0.0682  0.5622
  628MOL0     C86579   0.933   3.863   2.681  0.1382  0.3243 -0.0225
  628MOL0     C86580   0.854   3.946   2.761 -0.5492  0.2055  0.8713
  628MOL0     C86581   0.598   4.187   2.988  0.2706 -0.2844  0.1423
  628MOL0     C86582   0.603   4.303   3.074 -0.1679  0.4546 -0.5893
  628MOL0     C86583   0.490   4.381   3.113 -0.7366  0.9482 -0.9701
  628MOL0     C86584   0.368   4.358   3.037 -0.3073  0.1567  0.1154
  628MOL0     O86585   0.260   4.441   3.047 -0.5322  0.1527  0.1663
  628MOL0     C86586   0.256   4.557   3.143 -0.4475 -0.3412  0.4889
  628MOL0     C86587   0.113   4.610   3.141 -0.2948 -0.3061  0.7065
  628MOL0     C86588   0.018   4.515   3.221  0.8194 -0.3838 -1.0788
  628MOL0     C86589  -0.125   4.576   3.210  0.4499  0.2428  0.5895
  628MOL0     C86590  -0.175   4.547   3.076  0.9417  0.5960  1.0146
  628MOL0     C86591  -0.234   4.529   2.965  0.1713  0.1197  0.4766
  628MOL0     C86592   0.361   4.247   2.950  0.5329  0.0951 -0.1018
  628MOL0     C86593   0.469   4.172   2.923 -0.2117 -0.0990  0.3873
  628MOL0     C86594   0.446   4.062   2.819  0.2226 -0.1765 -0.2486
  628MOL0     H86595   0.799   3.750   3.028  2.2383  2.0332  1.5477
  628MOL0     H86596   0.934   3.597   2.902  0.6396  1.4007  0.6355
  628MOL0     H86597   1.192   3.761   2.587  2.4965 -1.6406  0.9821
  628MOL0     H86598   1.076   3.696   2.459 -1.5950 -2.1209  0.7102
  628MOL0     H86599   1.262   3.562   2.415  2.6871 -0.5350  1.3167
  628MOL0     H86600   1.293   3.544   2.587  1.5028  1.1558 -1.0441
  628MOL0     H86601   1.215   3.337   2.475  2.3600  2.2046 -0.9398
  628MOL0     H86602   1.098   3.399   2.607  1.9256  0.1901  0.9000
  628MOL0     H86603   1.062   3.503   2.332 -0.2243  0.5565  0.3752
  628MOL0     H86604   1.023   3.329   2.325 -2.8404  2.6232 -3.8648
  628MOL0     H86605   0.894   3.518   2.524  4.0319 -0.8629  1.0540
  628MOL0     H86606   0.848   3.351   2.487 -0.9665 -0.1292 -0.2830
  628MOL0     H86607   0.848   3.591   2.307  1.5169 -0.1444  1.7054
  628MOL0     H86608   0.807   3.423   2.259  1.4308  1.1680 -0.3289
  628MOL0     H86609   0.601   3.428   2.401 -1.9042  0.0774  0.0864
  628MOL0     H86610   0.592   3.554   2.275 -1.5663 -3.3267 -0.2709
  628MOL0     H86611   0.655   3.577   2.571 -0.3106 -6.3228 -2.8337
  628MOL0     H86612   0.687   3.720   2.480 -0.5015  0.2587  0.4333
  628MOL0     H86613   0.451   3.860   2.434 -0.4025 -1.3973 -2.9117
  628MOL0     H86614   0.081   3.760   2.516 -0.0760  0.5756  0.3383
  628MOL0     H86615   0.153   3.872   2.398 -0.0611 -1.6814  0.2599
  628MOL0     H86616   0.175   3.883   2.696 -0.6999  0.3263  0.8199
  628MOL0     H86617   0.273   3.980   2.575 -0.0408 -0.0610 -0.1246
  628MOL0     H86618   0.037   4.057   2.479  0.7810  1.0908  0.7852
  628MOL0     H86619  -0.030   4.002   2.630 -0.2924  1.3584  1.5175
  628MOL0     H86620   0.096   4.147   2.742 -0.2008  1.3873 -0.3646
  628MOL0     H86621   0.182   4.208   2.584 -1.9484  1.2036 -2.0640
  628MOL0     H86622   0.220   4.397   2.703  0.8268  1.2127 -1.4885
  628MOL0     H86623   0.334   4.545   2.843 -0.9145  2.5260  4.3605
  628MOL0     H86624   0.266   4.680   2.899  2.3059  0.6250 -1.3899
  628MOL0     H86625   0.324   4.676   2.730  2.4971  1.5089  1.9421
  628MOL0     H86626  -0.013   4.966   3.000  0.8460 -1.4535 -2.1267
  628MOL0     H86627  -0.003   5.199   3.101  1.4314  0.4291  1.2423
  628MOL0     H86628  -0.054   5.401   3.037  0.0741 -0.7654  0.8589
  628MOL0     H86629   0.019   5.538   3.134  1.7739  0.1691 -0.6990
  628MOL0     H86630   0.059   5.527   2.840 -0.0066  0.8974  0.1844
  628MOL0     H86631  -0.076   5.618   2.914 -1.0415 -0.3597  1.4749
  628MOL0     H86632   0.224   5.664   2.945 -0.2913 -0.2329 -0.3041
  628MOL0     H86633   0.099   5.724   3.061  1.3660 -3.2299  1.3471
  628MOL0     H86634   0.003   5.859   2.908 -0.7487 -2.7213  2.0266
  628MOL0     H86635   0.093   5.794   2.773  0.3378  0.9056 -0.5653
  628MOL0     H86636   0.230   5.953   3.001  2.8893 -2.5417  0.8809
  628MOL0     H86637   0.310   5.872   2.872  0.0865  1.6585 -1.0745
  628MOL0     H86638   0.093   6.079   2.813 -0.8022 -0.5792 -1.5174
  628MOL0     H86639   0.174   5.987   2.696 -1.5314  0.8187  0.4278
  628MOL0     H86640   0.391   6.083   2.770  0.9804  1.3981 -1.7495
  628MOL0     H86641   0.300   6.196   2.876  0.0166 -1.4604  0.5202
  628MOL0     H86642   0.254   6.149   2.585  1.8784  0.2771 -0.1544
  628MOL0     H86643   0.375   6.275   2.648 -1.7619  3.0314  0.0162
  628MOL0     H86644   0.333   5.290   2.848  2.4195 -2.7438  0.2168
  628MOL0     H86645   0.312   5.077   2.744 -0.7346 -2.4551  1.5333
  628MOL0     H86646  -0.182   4.678   2.699  1.2493  0.5063  3.0117
  628MOL0     H86647  -0.188   4.444   2.596  0.0537  1.3775 -1.4091
  628MOL0     H86648   0.955   3.890   2.578 -2.2003  1.3863 -0.3163
  628MOL0     H86649   0.833   4.046   2.725 -0.4088 -0.6431 -1.8505
  628MOL0     H86650   0.698   4.316   3.124 -0.5073  0.9802 -0.0576
  628MOL0     H86651   0.499   4.452   3.195  0.0784 -1.2024  0.9176
  628MOL0     H86652   0.281   4.521   3.243  0.7867 -3.3084 -0.7817
  628MOL0     H86653   0.323   4.636   3.106 -0.5425  0.5980  2.2062
  628MOL0     H86654   0.080   4.620   3.038  0.3082 -0.8143  0.4542
  628MOL0     H86655   0.118   4.715   3.168  1.1517 -0.0281 -0.5437
  628MOL0     H86656   0.021   4.411   3.187  0.3573 -0.4935 -0.7902
  628MOL0     H86657   0.055   4.514   3.323  1.4969  0.2058 -1.3107
  628MOL0     H86658  -0.120   4.686   3.209  0.2897  0.2917  2.5848
  628MOL0     H86659  -0.191   4.530   3.283  1.4773 -2.9518 -0.3439
  628MOL0     H86660  -0.278   4.528   2.867  1.4192  3.3810 -0.2537
  628MOL0     H86661   0.268   4.229   2.896  0.2021  1.8956 -0.2184
  628MOL0     H86662   0.442   3.960   2.858 -2.8953  0.3970  1.2848
  628MOL0     H86663   0.356   4.075   2.759  0.7854  0.7281 -0.9331
  628MOL0     H86664   0.534   4.064   2.753 -0.2095  0.8642 -0.8246
  629MOL0     O86665   0.725   5.638   5.774 -0.7481 -0.0920  0.2589
  629MOL0     C86666   0.700   5.645   5.652 -0.0178 -0.5124 -0.9250
  629MOL0     O86667   0.647   5.546   5.578 -0.4932 -0.6443 -0.2514
  629MOL0     C86668   0.552   5.476   5.653 -0.4178 -0.2054  0.7170
  629MOL0     C86669   0.581   5.339   5.685  0.0212 -0.0942  0.4328
  629MOL0     C86670   0.479   5.258   5.729  0.0424 -0.1818 -0.3289
  629MOL0     C86671   0.354   5.310   5.750  0.9168  0.1316  0.4403
  629MOL0     O86672   0.262   5.227   5.808 -0.0438 -0.3661  0.1245
  629MOL0     C86673   0.125   5.242   5.760  1.2368  0.9655  0.1174
  629MOL0     C86674   0.075   5.101   5.782 -0.0073 -0.4551  0.1156
  629MOL0     C86675   0.049   5.049   5.923  0.3013  1.1912  0.5644
  629MOL0     C86676  -0.064   5.111   5.993  0.4296 -0.2719 -0.6000
  629MOL0     C86677  -0.065   5.071   6.146  0.2318 -0.3279 -0.9624
  629MOL0     C86678  -0.182   5.137   6.232  0.8584 -0.8260 -0.0785
  629MOL0     C86679  -0.198   5.079   6.379 -0.1945  0.9244  1.3089
  629MOL0     C86680  -0.234   4.928   6.374  0.2604 -0.1761 -0.3337
  629MOL0     N86681  -0.374   4.908   6.334  0.0705  0.1154 -0.3457
  629MOL0     C86682  -0.414   4.888   6.202  1.1026 -0.0637 -0.2058
  629MOL0     C86683  -0.545   4.844   6.216  0.2113 -0.7640  0.0043
  629MOL0     C86684  -0.648   4.805   6.112 -0.5539 -0.3475 -0.8462
  629MOL0     C86685  -0.791   4.786   6.158  1.1660 -0.5399  1.1358
  629MOL0     C86686  -0.888   4.761   6.043  0.6292 -0.2150  0.0476
  629MOL0     C86687  -1.026   4.738   6.091  0.7720 -0.4026 -0.0825
  629MOL0     O86688  -1.062   4.865   6.152  0.1116 -0.1821  0.3313
  629MOL0     C86689  -1.191   4.856   6.192 -0.5783 -0.3172  0.0158
  629MOL0     C86690  -1.300   4.886   6.102  0.2416 -0.0019  0.7664
  629MOL0     C86691  -1.432   4.863   6.144  0.7291 -0.3521  0.4382
  629MOL0     C86692  -1.544   4.874   6.038 -0.2671  0.8302 -0.1532
  629MOL0     C86693  -1.453   4.815   6.273  0.7629  0.5304 -0.5057
  629MOL0     C86694  -1.587   4.797   6.336  0.4212 -0.3341  0.9501
  629MOL0     O86695  -1.626   4.666   6.384 -0.1767 -0.0002  0.6752
  629MOL0     C86696  -1.737   4.681   6.464  0.3733 -0.5717 -1.2428
  629MOL0     C86697  -1.851   4.630   6.419  0.0360 -0.5064  0.3600
  629MOL0     C86698  -1.961   4.621   6.499 -0.7218  0.0198  0.1126
  629MOL0     C86699  -1.967   4.686   6.621  1.1477 -0.4705 -0.7327
  629MOL0     O86700  -2.085   4.686   6.692  0.0004  0.5750  0.1977
  629MOL0     C86701  -2.174   4.571   6.675  0.5850 -0.6910 -0.3824
  629MOL0     C86702  -2.309   4.589   6.736  0.0249  0.2009 -0.8491
  629MOL0     C86703  -2.429   4.537   6.647  0.0946 -0.6092  0.0056
  629MOL0     C86704  -2.545   4.527   6.742  0.0446  0.3634 -0.4861
  629MOL0     C86705  -2.670   4.477   6.673  0.3667  0.4762 -0.0858
  629MOL0     C86706  -2.662   4.342   6.601 -0.2968  0.0799  0.2212
  629MOL0     C86707  -2.755   4.340   6.481 -0.2050 -0.0998 -0.0688
  629MOL0     C86708  -2.670   4.328   6.353  0.8268  0.1640 -0.0012
  629MOL0    Cl86709  -2.634   4.489   6.306  0.2166 -0.3849  0.1332
  629MOL0     C86710  -1.846   4.755   6.662  0.9372  0.2193 -0.3591
  629MOL0     C86711  -1.733   4.745   6.590 -0.3721 -0.1680 -0.2139
  629MOL0     O86712  -1.650   4.900   6.335 -0.5680  0.0999  0.0370
  629MOL0     C86713  -1.347   4.801   6.362  0.1882 -0.0616 -0.4103
  629MOL0     C86714  -1.218   4.813   6.324  0.3186  0.2411  0.2917
  629MOL0     N86715  -0.572   4.821   6.352  0.1042 -0.4706  0.8673
  629MOL0     N86716  -0.464   4.854   6.423  0.6207  0.0733  0.0921
  629MOL0     C86717   0.325   5.443   5.713 -0.5298 -0.1378 -0.1696
  629MOL0     C86718   0.423   5.532   5.657 -0.9259 -0.1817 -0.4082
  629MOL0     C86719   0.736   5.763   5.566 -0.9139  0.6216  0.7791
  629MOL0     C86720   0.676   5.772   5.437  0.1150 -0.1078 -0.8681
  629MOL0     C86721   0.701   5.875   5.344 -0.3776  1.0121  0.1368
  629MOL0     C86722   0.789   5.981   5.393 -0.7103  0.4050  0.6378
  629MOL0     O86723   0.826   6.069   5.296 -0.0825 -0.0230  0.3878
  629MOL0     C86724   0.961   6.038   5.236 -0.2972 -0.0279  0.2482
  629MOL0     C86725   1.008   6.123   5.114  1.0844 -0.0843  0.3897
  629MOL0     C86726   1.021   6.272   5.151  0.6986 -0.4797 -0.5831
  629MOL0     C86727   1.079   6.350   5.035  0.6922 -0.5264  0.3802
  629MOL0     C86728   1.224   6.369   5.060  0.8999  0.2807  1.4019
  629MOL0     C86729   1.337   6.363   5.078 -0.0692 -0.0865 -0.7092
  629MOL0     C86730   0.844   5.983   5.518  0.2675 -0.3936 -0.1085
  629MOL0     C86731   0.814   5.874   5.608 -0.2217  0.8348 -0.2722
  629MOL0     C86732   0.862   5.895   5.753  0.9157  0.5127  0.1190
  629MOL0     H86733   0.677   5.297   5.658 -0.5535 -1.4915  0.4420
  629MOL0     H86734   0.492   5.151   5.737 -1.9610 -0.5154 -0.9345
  629MOL0     H86735   0.119   5.273   5.655 -1.3179 -4.1127 -1.6237
  629MOL0     H86736   0.066   5.310   5.822  1.6201 -0.3507  2.0307
  629MOL0     H86737  -0.008   5.092   5.711  1.5683 -0.3191 -1.8492
  629MOL0     H86738   0.157   5.041   5.740  4.1175  3.6601  1.4734
  629MOL0     H86739   0.026   4.943   5.928 -3.2322  1.8249  0.1957
  629MOL0     H86740   0.144   5.069   5.974  0.0485  2.8794  0.4478
  629MOL0     H86741  -0.052   5.220   5.991 -1.2138 -0.0429  0.4284
  629MOL0     H86742  -0.162   5.092   5.950  0.4201  1.7964 -1.6369
  629MOL0     H86743   0.038   5.079   6.182  0.7044  0.8901 -2.4808
  629MOL0     H86744  -0.079   4.963   6.154  0.0750 -0.2129  0.5951
  629MOL0     H86745  -0.177   5.246   6.237 -4.2807 -0.3954  2.8278
  629MOL0     H86746  -0.279   5.118   6.185  0.0240 -1.6045  1.8485
  629MOL0     H86747  -0.279   5.131   6.431 -0.9048 -2.1284  3.5075
  629MOL0     H86748  -0.099   5.088   6.424 -0.0386  0.4377  1.0719
  629MOL0     H86749  -0.163   4.873   6.312  0.6803  2.2405 -2.1271
  629MOL0     H86750  -0.223   4.900   6.479  5.0670  0.5449 -0.4392
  629MOL0     H86751  -0.372   4.901   6.103 -2.6847 -0.5121 -2.0411
  629MOL0     H86752  -0.611   4.717   6.059  1.6829 -0.0548  0.1341
  629MOL0     H86753  -0.655   4.882   6.035 -0.7012 -0.1683 -0.6537
  629MOL0     H86754  -0.794   4.702   6.227  0.7172 -0.7226  0.8962
  629MOL0     H86755  -0.806   4.886   6.199  0.2748 -0.0067 -0.3993
  629MOL0     H86756  -0.894   4.848   5.977 -3.3418  2.0303  2.9429
  629MOL0     H86757  -0.855   4.676   5.983  0.3509 -0.5893  0.4177
  629MOL0     H86758  -1.095   4.714   6.009  0.7939  0.3839 -0.3355
  629MOL0     H86759  -1.012   4.650   6.155  1.7935 -1.4674 -1.6910
  629MOL0     H86760  -1.274   4.910   5.999  3.1509 -2.0593  0.8904
  629MOL0     H86761  -1.494   4.876   5.941 -1.0377  0.6754 -0.5646
  629MOL0     H86762  -1.612   4.960   6.039 -3.3905 -1.2735 -3.5867
  629MOL0     H86763  -1.612   4.789   6.030 -1.3986  1.8741 -5.4410
  629MOL0     H86764  -1.858   4.597   6.316 -1.9122  3.4620 -1.0062
  629MOL0     H86765  -2.047   4.580   6.447 -0.6154  0.6829 -0.6210
  629MOL0     H86766  -2.200   4.555   6.570  1.9951  3.9035 -1.6438
  629MOL0     H86767  -2.127   4.486   6.726 -3.0917 -1.1663  2.6561
  629MOL0     H86768  -2.309   4.546   6.837 -1.0976  0.5611 -0.6749
  629MOL0     H86769  -2.315   4.697   6.752  1.1031  0.0764  0.5714
  629MOL0     H86770  -2.404   4.440   6.601  1.6622 -1.0425  1.6477
  629MOL0     H86771  -2.466   4.601   6.567  0.8199 -2.4432 -1.9140
  629MOL0     H86772  -2.561   4.622   6.792  0.0077 -0.3865  0.9641
  629MOL0     H86773  -2.534   4.448   6.817 -0.4661  1.2166  0.4976
  629MOL0     H86774  -2.745   4.473   6.752 -1.4505  1.0747 -1.6897
  629MOL0     H86775  -2.710   4.551   6.604 -2.4401 -2.1435 -1.4853
  629MOL0     H86776  -2.687   4.263   6.671 -1.1766 -0.2241 -0.4194
  629MOL0     H86777  -2.565   4.308   6.565  1.1084  3.5811  0.2441
  629MOL0     H86778  -2.818   4.429   6.472  0.7058  0.4114 -2.0628
  629MOL0     H86779  -2.820   4.253   6.492 -2.5590  1.4303 -1.3137
  629MOL0     H86780  -2.738   4.282   6.280  2.7977  0.3341 -2.0507
  629MOL0     H86781  -2.584   4.261   6.354 -1.2246 -2.6874 -0.5991
  629MOL0     H86782  -1.846   4.806   6.757  2.7527 -0.0697 -0.1791
  629MOL0     H86783  -1.635   4.776   6.625 -1.5200 -0.4594  3.7779
  629MOL0     H86784  -1.364   4.762   6.462 -3.3087 -1.2749 -1.3393
  629MOL0     H86785  -1.143   4.795   6.400 -2.2788  1.7090  3.4499
  629MOL0     H86786   0.222   5.479   5.721  0.6034  4.0882 -1.8192
  629MOL0     H86787   0.402   5.631   5.618  2.8662  0.6555 -0.7673
  629MOL0     H86788   0.603   5.695   5.415  0.1450 -1.2676  2.5247
  629MOL0     H86789   0.661   5.876   5.243 -1.7015  0.2438  0.6274
  629MOL0     H86790   1.039   6.044   5.313 -0.0194  2.2344 -0.1319
  629MOL0     H86791   0.951   5.932   5.210 -1.8699 -0.6975  3.1552
  629MOL0     H86792   0.929   6.105   5.040  1.1207  0.8173  0.1171
  629MOL0     H86793   1.100   6.077   5.078  0.3820 -2.5790  1.5323
  629MOL0     H86794   0.920   6.304   5.181  0.9580  1.1374 -1.3465
  629MOL0     H86795   1.089   6.292   5.234 -1.7843  1.1177  1.2252
  629MOL0     H86796   1.039   6.451   5.026  4.6324  1.1984 -0.1289
  629MOL0     H86797   1.071   6.299   4.939  0.1598  5.5967 -3.3255
  629MOL0     H86798   1.442   6.354   5.100 -0.0715 -0.9343 -0.9927
  629MOL0     H86799   0.917   6.057   5.549 -0.0077  0.6290 -1.8195
  629MOL0     H86800   0.772   5.904   5.815  2.6687 -1.1891  3.1261
  629MOL0     H86801   0.918   5.807   5.785 -0.0487 -1.6445 -3.5035
  629MOL0     H86802   0.924   5.982   5.773 -0.3002  0.9639  2.2879
  630MOL0     O86803  10.845   3.038   2.709  0.5313  0.6346 -0.4139
  630MOL0     C86804  10.791   2.969   2.616 -0.3635  0.3666 -0.5571
  630MOL0     O86805  10.846   2.949   2.486  0.2097  0.0990  0.5697
  630MOL0     C86806  10.961   3.003   2.450  0.7138  0.1182  0.1615
  630MOL0     C86807  10.948   3.100   2.353  0.5773 -0.2257 -0.2250
  630MOL0     C86808  11.059   3.171   2.311 -0.5361 -0.0325 -0.1226
  630MOL0     C86809  11.184   3.154   2.366 -0.4922 -0.2092  0.1030
  630MOL0     O86810  11.286   3.229   2.317 -0.4098 -0.8273 -0.4371
  630MOL0     C86811  11.416   3.176   2.323  0.5410  0.7575  1.1596
  630MOL0     C86812  11.512   3.226   2.216  0.2822  0.5467 -0.4275
  630MOL0     C86813  11.474   3.173   2.075 -0.4361  0.9178  1.2447
  630MOL0     C86814  11.555   3.044   2.030 -0.7247  0.8168  0.0957
  630MOL0     C86815  11.528   2.983   1.891  0.3985 -0.6522  0.8275
  630MOL0     C86816  11.520   3.088   1.773 -1.1147 -0.1669 -0.1982
  630MOL0     C86817  11.500   3.022   1.645 -0.2599 -0.7373  0.2893
  630MOL0     C86818  11.545   3.119   1.521  0.6722 -0.1821 -0.0939
  630MOL0     N86819  11.489   3.069   1.391  0.0607  0.4587 -0.3205
  630MOL0     C86820  11.555   3.044   1.279  0.2046  0.2360  0.0480
  630MOL0     C86821  11.474   2.993   1.186 -0.3263 -0.1666 -0.3973
  630MOL0     C86822  11.510   2.927   1.060 -0.3663 -0.2627  0.6324
  630MOL0     C86823  11.576   3.036   0.970 -0.9666  0.1195  0.5631
  630MOL0     C86824  11.679   2.967   0.868 -0.7311  0.2766 -0.8124
  630MOL0     C86825  11.727   3.075   0.776  0.3443  0.9359  0.2447
  630MOL0     O86826  11.824   3.023   0.694 -0.4577 -0.2240  0.3322
  630MOL0     C86827  11.898   3.116   0.619 -0.0408 -0.1402  0.8610
  630MOL0     C86828  12.015   3.086   0.549 -0.6793  0.0064 -0.9531
  630MOL0     C86829  12.080   3.171   0.458  0.4755 -0.3738 -0.2658
  630MOL0     C86830  12.194   3.115   0.380  0.2206 -0.4001  0.0736
  630MOL0     C86831  12.025   3.301   0.437 -0.1970 -0.2612 -0.9044
  630MOL0     C86832  12.087   3.400   0.343  0.6441  1.1050  0.3799
  630MOL0     O86833  11.998   3.495   0.293 -0.0819 -0.4040 -0.0792
  630MOL0     C86834  12.042   3.568   0.191  0.2446 -0.0627  0.2244
  630MOL0     C86835  12.033   3.520   0.060 -0.4862  0.4192 -0.1214
  630MOL0     C86836  12.093   3.587  -0.051 -0.7748  0.3307  0.4402
  630MOL0     C86837  12.160   3.709  -0.026 -0.7521 -0.0377  0.2101
  630MOL0     O86838  12.201   3.791  -0.127  0.2799  0.3661 -0.6024
  630MOL0     C86839  12.109   3.812  -0.227 -0.4268 -0.8435 -0.5103
  630MOL0     C86840  11.984   3.887  -0.179  0.4148  0.3256  0.3172
  630MOL0     C86841  11.868   3.832  -0.255  0.0334 -0.2228 -0.7634
  630MOL0     C86842  11.858   3.890  -0.402 -0.6056  0.9200 -0.6176
  630MOL0     C86843  11.743   3.822  -0.473 -0.0440 -0.6588 -0.5847
  630MOL0     C86844  11.718   3.893  -0.602 -1.4140  0.0202  0.3049
  630MOL0     C86845  11.647   4.034  -0.580  0.0007  0.8002  0.5042
  630MOL0     C86846  11.738   4.150  -0.599 -0.1365 -0.1673  0.3362
  630MOL0    Cl86847  11.812   4.155  -0.771 -0.5343  0.5794 -0.0164
  630MOL0     C86848  12.169   3.756   0.114  0.2357  0.4901  0.5622
  630MOL0     C86849  12.099   3.688   0.210 -0.6536  0.2766  0.1288
  630MOL0     O86850  12.207   3.395   0.324  0.4455 -0.4483 -0.3826
  630MOL0     C86851  11.909   3.339   0.515  0.2627 -0.4612  0.8076
  630MOL0     C86852  11.842   3.247   0.590 -0.2235 -0.1411 -0.4257
  630MOL0     N86853  11.346   3.001   1.245 -0.0457  0.0906 -0.5001
  630MOL0     N86854  11.360   3.036   1.368 -0.0140  0.5848 -0.0497
  630MOL0     C86855  11.197   3.055   2.470 -0.9825 -1.2826  0.0961
  630MOL0     C86856  11.084   2.979   2.503  0.6145  0.3318  0.6428
  630MOL0     C86857  10.659   2.901   2.642 -0.3439  0.2414 -0.1116
  630MOL0     C86858  10.587   2.941   2.756  0.1993 -0.6706  0.1425
  630MOL0     C86859  10.449   2.908   2.774 -0.5450  0.7158  0.2122
  630MOL0     C86860  10.390   2.811   2.691 -0.6013 -0.7756 -0.2517
  630MOL0     O86861  10.260   2.777   2.714 -0.4653 -0.1258  0.7552
  630MOL0     C86862  10.249   2.706   2.841 -0.0959  1.1338 -0.1957
  630MOL0     C86863  10.097   2.692   2.885 -0.3281 -0.2830 -0.2874
  630MOL0     C86864  10.009   2.810   2.913  0.3113  0.2119  0.1322
  630MOL0     C86865  10.051   2.892   3.031 -0.9054 -0.2036  0.0943
  630MOL0     C86866  10.029   2.825   3.158  0.0085  0.3758  0.6844
  630MOL0     C86867  10.021   2.795   3.276  0.7880  0.1058  0.0536
  630MOL0     C86868  10.465   2.759   2.583  0.2588 -0.2796 -0.2980
  630MOL0     C86869  10.594   2.802   2.555 -0.7765  0.5658 -0.5943
  630MOL0     C86870  10.667   2.716   2.448 -0.4912  0.8080 -0.6895
  630MOL0     H86871  10.847   3.119   2.317 -1.1189 -1.9860  3.1551
  630MOL0     H86872  11.040   3.251   2.240 -0.3059  0.4846  0.3959
  630MOL0     H86873  11.412   3.067   2.309 -3.1619  0.8709  0.5146
  630MOL0     H86874  11.463   3.200   2.419 -0.4056  0.6861  1.6513
  630MOL0     H86875  11.503   3.335   2.213  0.0336  0.5052 -1.6302
  630MOL0     H86876  11.610   3.190   2.248  0.1484 -0.2200 -0.8710
  630MOL0     H86877  11.366   3.153   2.080 -0.4303  0.6164  0.3715
  630MOL0     H86878  11.489   3.251   2.000 -3.9723  0.2312 -0.3795
  630MOL0     H86879  11.663   3.054   2.043 -0.7263 -0.5088  1.4072
  630MOL0     H86880  11.529   2.962   2.098 -0.1734 -0.0949 -0.7746
  630MOL0     H86881  11.433   2.930   1.892 -0.7001  1.2260  0.6206
  630MOL0     H86882  11.605   2.909   1.871  0.3294 -0.9315  1.5470
  630MOL0     H86883  11.440   3.161   1.790  0.2682  1.2321  0.6048
  630MOL0     H86884  11.613   3.145   1.772  0.7040 -2.8967  0.5551
  630MOL0     H86885  11.398   2.984   1.633 -1.0352  1.1834  0.4842
  630MOL0     H86886  11.574   2.940   1.643  0.2367 -0.3108  0.8550
  630MOL0     H86887  11.507   3.221   1.533  2.5501  1.2048 -4.2632
  630MOL0     H86888  11.654   3.121   1.512  0.8075  0.7641  1.3649
  630MOL0     H86889  11.662   3.060   1.264  0.5041 -2.3313 -1.0847
  630MOL0     H86890  11.425   2.884   1.006 -0.2923  1.9415 -1.4191
  630MOL0     H86891  11.586   2.852   1.082  1.4008  1.7611  1.7852
  630MOL0     H86892  11.498   3.072   0.902  0.7269  3.2654  0.0840
  630MOL0     H86893  11.628   3.115   1.025 -3.0912  0.7337  1.7714
  630MOL0     H86894  11.771   2.934   0.916  0.3762  0.4964 -2.7100
  630MOL0     H86895  11.640   2.885   0.807  0.0660 -0.7432  0.0398
  630MOL0     H86896  11.643   3.117   0.721 -0.1949 -1.0619 -0.5261
  630MOL0     H86897  11.769   3.151   0.843  1.9710 -0.7264  1.1887
  630MOL0     H86898  12.044   2.983   0.570 -0.4369 -0.0309 -1.4618
  630MOL0     H86899  12.280   3.178   0.405 -0.4382  0.9832 -0.9842
  630MOL0     H86900  12.188   3.129   0.271  0.1585  2.7324  0.3921
  630MOL0     H86901  12.216   3.012   0.410  0.8093 -0.0417  0.9060
  630MOL0     H86902  11.968   3.435   0.045  0.0417  0.2538 -1.7482
  630MOL0     H86903  12.061   3.566  -0.152  0.1496  0.4959  0.1075
  630MOL0     H86904  12.149   3.882  -0.301 -1.5903 -0.6225 -0.9681
  630MOL0     H86905  12.092   3.714  -0.273  0.4249 -2.2250  1.9505
  630MOL0     H86906  11.947   3.860  -0.080 -3.0777 -1.0041 -1.1851
  630MOL0     H86907  11.998   3.996  -0.176  0.4250  0.3624 -0.6487
  630MOL0     H86908  11.779   3.845  -0.193 -0.0014 -0.0644 -0.8476
  630MOL0     H86909  11.875   3.723  -0.262 -1.7663 -0.5073  0.8385
  630MOL0     H86910  11.942   3.855  -0.461 -0.5862 -1.6478  0.8022
  630MOL0     H86911  11.849   3.999  -0.405 -2.3062  0.8084 -3.6239
  630MOL0     H86912  11.772   3.720  -0.500  0.1344  0.1119 -3.7613
  630MOL0     H86913  11.656   3.834  -0.408 -0.5696  0.1993 -1.4199
  630MOL0     H86914  11.657   3.821  -0.657 -1.7439  2.3952 -2.7568
  630MOL0     H86915  11.810   3.905  -0.661 -2.0137 -2.3367 -1.2342
  630MOL0     H86916  11.597   4.036  -0.483  1.1255 -3.9696  1.4352
  630MOL0     H86917  11.578   4.027  -0.664  0.2273 -2.6091  0.4661
  630MOL0     H86918  11.816   4.147  -0.522  1.2948 -3.7314 -1.0102
  630MOL0     H86919  11.676   4.237  -0.576 -0.5005 -0.4603  0.4750
  630MOL0     H86920  12.216   3.853   0.123  0.8811  0.2028  0.3231
  630MOL0     H86921  12.084   3.732   0.309  0.7753  2.8650 -0.7253
  630MOL0     H86922  11.862   3.437   0.515 -0.7343 -0.7694  4.6607
  630MOL0     H86923  11.740   3.280   0.609 -1.0412 -1.6424 -1.9139
  630MOL0     H86924  11.287   3.034   2.528 -0.7416  0.0025  0.2198
  630MOL0     H86925  11.096   2.898   2.575 -1.2350  0.1178  0.7655
  630MOL0     H86926  10.612   3.013   2.834 -1.2911  1.7068 -1.4461
  630MOL0     H86927  10.398   2.955   2.857 -3.1470 -0.8675 -0.4038
  630MOL0     H86928  10.289   2.607   2.818  0.7604  1.0545  1.4888
  630MOL0     H86929  10.304   2.739   2.929  1.0106  0.7458 -0.7231
  630MOL0     H86930  10.095   2.623   2.970  1.0192  1.5627  1.3221
  630MOL0     H86931  10.053   2.635   2.802  0.7393 -2.2204  0.4324
  630MOL0     H86932  10.005   2.879   2.828 -0.7970 -2.3524 -2.0387
  630MOL0     H86933   9.908   2.778   2.942  0.2164  2.1284  2.1219
  630MOL0     H86934  10.004   2.991   3.029  0.2810  0.5428 -4.5279
  630MOL0     H86935  10.156   2.913   3.010 -0.0032 -2.4109  2.0059
  630MOL0     H86936  10.002   2.768   3.377  0.7746  3.6735  1.1470
  630MOL0     H86937  10.418   2.687   2.517 -0.3893 -0.3901  0.2812
  630MOL0     H86938  10.613   2.624   2.424 -2.2373  1.0579  1.9862
  630MOL0     H86939  10.692   2.775   2.359 -0.2262  1.3403 -0.2676
  630MOL0     H86940  10.757   2.675   2.494 -0.7165  0.5752 -0.4622
  631MOL0     O86941   1.664   2.326   8.043 -0.3498  1.5754 -0.8081
  631MOL0     C86942   1.733   2.326   8.149  0.4105  0.5104 -0.0899
  631MOL0     O86943   1.857   2.271   8.164 -0.2398 -0.4397 -0.1667
  631MOL0     C86944   1.907   2.189   8.067 -0.3480  0.0763 -0.9511
  631MOL0     C86945   2.035   2.221   8.014 -0.2207 -0.1284 -0.2451
  631MOL0     C86946   2.107   2.132   7.929 -0.1320  0.7641  0.1608
  631MOL0     C86947   2.040   2.013   7.889  0.8318  0.8507 -0.2359
  631MOL0     O86948   2.098   1.941   7.797 -0.9896 -0.1932 -0.2223
  631MOL0     C86949   2.026   1.845   7.719  0.1801 -0.0697 -0.1260
  631MOL0     C86950   2.109   1.784   7.609 -0.1578  0.0385 -0.1550
  631MOL0     C86951   2.017   1.702   7.529 -0.3255  0.0303  0.6365
  631MOL0     C86952   2.119   1.622   7.440 -0.4749 -0.1993 -0.4343
  631MOL0     C86953   2.046   1.578   7.325  0.3352  0.8035  0.3193
  631MOL0     C86954   1.923   1.485   7.355 -0.1607  0.0525 -0.3465
  631MOL0     C86955   1.853   1.448   7.224 -0.6085 -0.4325 -0.0200
  631MOL0     C86956   1.731   1.355   7.252 -0.3939 -0.1312  0.1744
  631MOL0     N86957   1.712   1.277   7.125 -0.0322 -0.3801  0.2307
  631MOL0     C86958   1.639   1.328   7.021  0.9506 -0.4121  0.0718
  631MOL0     C86959   1.668   1.238   6.926 -0.4426 -0.1411 -0.0392
  631MOL0     C86960   1.616   1.238   6.782  0.5478  0.1007  0.6237
  631MOL0     C86961   1.475   1.162   6.779 -0.6301 -0.3228  0.4581
  631MOL0     C86962   1.391   1.179   6.656  0.6317 -0.2518  1.3757
  631MOL0     C86963   1.253   1.110   6.687 -0.2281 -0.0109 -0.4499
  631MOL0     O86964   1.272   0.967   6.693  0.5988 -0.5736  0.1103
  631MOL0     C86965   1.160   0.899   6.719  0.2068  0.6852 -0.1072
  631MOL0     C86966   1.183   0.770   6.763  1.1184 -0.4539 -0.2910
  631MOL0     C86967   1.073   0.685   6.812 -0.4539 -0.4126 -0.5136
  631MOL0     C86968   1.110   0.550   6.880  0.4277 -0.3858 -0.7445
  631MOL0     C86969   0.942   0.730   6.792  1.0272 -0.2086 -0.5981
  631MOL0     C86970   0.814   0.655   6.827  0.7424 -0.1103 -0.3661
  631MOL0     O86971   0.693   0.728   6.842  0.2942 -0.3507 -0.4494
  631MOL0     C86972   0.604   0.674   6.935  0.3742  0.8146 -0.1549
  631MOL0     C86973   0.642   0.619   7.062 -0.1769  0.1651  0.3182
  631MOL0     C86974   0.540   0.555   7.136  0.3480 -0.4541 -0.1340
  631MOL0     C86975   0.405   0.537   7.092 -0.0056  0.4228 -0.3274
  631MOL0     O86976   0.307   0.477   7.168 -0.0762  0.2327 -0.4762
  631MOL0     C86977   0.247   0.562   7.261 -0.3031  0.6667 -0.5199
  631MOL0     C86978   0.112   0.510   7.274 -0.3316 -0.0529  0.6064
  631MOL0     C86979   0.049   0.580   7.398  0.4932  0.0645 -0.1996
  631MOL0     C86980   0.002   0.721   7.366 -0.1030 -1.2652 -0.4870
  631MOL0     C86981  -0.058   0.793   7.489 -0.5628  0.0882  0.1488
  631MOL0     C86982  -0.209   0.757   7.504  0.6693 -0.1213  0.3327
  631MOL0     C86983  -0.269   0.850   7.617  0.0012  0.4746  1.3586
  631MOL0     C86984  -0.418   0.834   7.636  0.5406 -0.7581 -0.2769
  631MOL0    Cl86985  -0.461   0.658   7.678 -0.4839 -0.3802  0.0824
  631MOL0     C86986   0.375   0.595   6.968 -0.1529  0.0264 -0.6509
  631MOL0     C86987   0.474   0.653   6.887  0.3958  0.4104  0.3733
  631MOL0     O86988   0.818   0.538   6.820 -0.3397  0.1823 -0.0300
  631MOL0     C86989   0.926   0.864   6.747  0.4581  0.0915  0.0804
  631MOL0     C86990   1.032   0.943   6.711 -0.1946  0.8739  0.5541
  631MOL0     N86991   1.760   1.140   6.962 -0.7474 -0.7304 -0.6758
  631MOL0     N86992   1.782   1.171   7.085  0.6314 -0.2224  0.5429
  631MOL0     C86993   1.914   1.981   7.953 -0.0949 -0.5890 -0.1065
  631MOL0     C86994   1.848   2.064   8.041  0.5467  0.4705  0.4532
  631MOL0     C86995   1.700   2.433   8.243 -0.2765  0.3713  0.8476
  631MOL0     C86996   1.649   2.562   8.208 -1.4598 -0.1698 -0.1408
  631MOL0     C86997   1.624   2.664   8.296 -0.5514 -0.0070  0.2517
  631MOL0     C86998   1.645   2.642   8.429  0.3085 -0.8366  0.4576
  631MOL0     O86999   1.645   2.730   8.528  0.2554  0.3575 -0.1729
  631MOL0     C87000   1.577   2.863   8.511 -0.1969 -0.2974  0.0299
  631MOL0     C87001   1.426   2.859   8.520  0.1648  1.3611  0.1874
  631MOL0     C87002   1.379   2.833   8.666  0.2457 -0.3103 -0.3014
  631MOL0     C87003   1.237   2.771   8.681 -0.1192 -0.1021  0.3937
  631MOL0     C87004   1.181   2.824   8.807  0.6007  0.3179  0.2250
  631MOL0     C87005   1.125   2.858   8.912  0.3561 -0.6423 -0.0631
  631MOL0     C87006   1.692   2.524   8.469  0.5357  1.0656  0.5709
  631MOL0     C87007   1.720   2.413   8.379 -0.1874  0.6656 -0.3372
  631MOL0     C87008   1.762   2.278   8.439  0.5759 -0.2141  0.0330
  631MOL0     H87009   2.084   2.308   8.056 -0.9085  0.1711 -0.0493
  631MOL0     H87010   2.206   2.157   7.891 -0.2944  1.7870  0.3797
  631MOL0     H87011   1.940   1.895   7.673  0.7820  0.9286 -0.1859
  631MOL0     H87012   1.998   1.767   7.791  0.5866  1.1290  1.3698
  631MOL0     H87013   2.154   1.865   7.550 -0.5456  2.2405  2.3987
  631MOL0     H87014   2.189   1.719   7.647  0.7149  0.4846 -1.1526
  631MOL0     H87015   1.969   1.627   7.593 -0.1405 -1.2263 -0.6356
  631MOL0     H87016   1.943   1.761   7.475  2.2267  3.6563  0.7768
  631MOL0     H87017   2.201   1.689   7.411 -2.1896  1.3834 -1.8511
  631MOL0     H87018   2.158   1.544   7.506  3.7432  3.7580  2.3838
  631MOL0     H87019   2.107   1.532   7.246  0.5117  0.6706  0.5337
  631MOL0     H87020   2.014   1.671   7.278  0.9650 -0.4977 -2.9751
  631MOL0     H87021   1.953   1.385   7.388 -2.0484 -0.0289  1.2799
  631MOL0     H87022   1.854   1.526   7.429  0.4316  1.4356 -0.5293
  631MOL0     H87023   1.931   1.407   7.159  0.9973 -0.8729  2.0770
  631MOL0     H87024   1.806   1.537   7.179  0.5696 -0.6939 -1.9045
  631MOL0     H87025   1.732   1.293   7.342 -4.2398  1.5054  1.5702
  631MOL0     H87026   1.644   1.420   7.269 -0.8404 -0.5960 -0.2488
  631MOL0     H87027   1.564   1.406   7.019  3.6321  2.3556 -0.3197
  631MOL0     H87028   1.685   1.190   6.711  0.9612 -1.7273  2.1681
  631MOL0     H87029   1.603   1.344   6.762  3.8612  0.6565  0.8849
  631MOL0     H87030   1.507   1.059   6.797 -2.5166 -1.4675 -2.0682
  631MOL0     H87031   1.422   1.204   6.865  1.1968  2.9365  0.1526
  631MOL0     H87032   1.388   1.285   6.626  3.0459 -0.1544  1.2451
  631MOL0     H87033   1.433   1.142   6.562 -1.0165  0.9561  0.0856
  631MOL0     H87034   1.222   1.151   6.783  2.6179 -0.7114  0.8707
  631MOL0     H87035   1.175   1.139   6.616  1.4223  0.1561 -2.2811
  631MOL0     H87036   1.282   0.727   6.773 -0.3088 -3.5776  1.9508
  631MOL0     H87037   1.215   0.528   6.858  0.5047  1.0088 -1.9243
  631MOL0     H87038   1.046   0.469   6.843  0.5026 -0.4398 -0.7564
  631MOL0     H87039   1.096   0.562   6.988  1.2317  2.3362 -0.8786
  631MOL0     H87040   0.742   0.625   7.103  0.4361 -1.0967 -0.9024
  631MOL0     H87041   0.564   0.518   7.235  2.3745  2.7931  0.7435
  631MOL0     H87042   0.296   0.537   7.356 -3.6198  0.0370  1.1509
  631MOL0     H87043   0.269   0.666   7.236  1.8317  0.1269 -1.1566
  631MOL0     H87044   0.051   0.520   7.184 -2.6919 -1.4416  1.9415
  631MOL0     H87045   0.122   0.402   7.285  1.7759 -0.0014 -0.3261
  631MOL0     H87046   0.117   0.567   7.483  2.6851 -2.1803 -2.1090
  631MOL0     H87047  -0.042   0.524   7.424  1.0676 -1.3980 -1.1571
  631MOL0     H87048  -0.060   0.735   7.277  1.0285  0.7090 -1.0233
  631MOL0     H87049   0.092   0.780   7.348 -0.5685 -1.1370 -2.5946
  631MOL0     H87050  -0.012   0.773   7.587 -2.0489 -1.5241  0.5658
  631MOL0     H87051  -0.058   0.901   7.472 -1.5626  0.5840  2.8449
  631MOL0     H87052  -0.215   0.649   7.516 -1.1615  0.2358  4.0863
  631MOL0     H87053  -0.265   0.784   7.413  0.3375  1.0050  0.8461
  631MOL0     H87054  -0.237   0.951   7.589  0.3028  0.8845  3.0881
  631MOL0     H87055  -0.223   0.828   7.713  0.9703 -0.7560  0.6435
  631MOL0     H87056  -0.484   0.869   7.556 -0.3042  0.5563  0.9450
  631MOL0     H87057  -0.446   0.889   7.726 -1.8556 -2.2233 -0.0442
  631MOL0     H87058   0.267   0.602   6.964 -0.1593 -0.0809 -0.6808
  631MOL0     H87059   0.453   0.692   6.788  3.1617 -1.0157 -0.8751
  631MOL0     H87060   0.825   0.903   6.742 -0.1967 -1.5047  0.2271
  631MOL0     H87061   1.007   1.034   6.658  1.3908 -0.3600 -2.6198
  631MOL0     H87062   1.871   1.889   7.914  0.2339  0.5139 -3.4236
  631MOL0     H87063   1.751   2.049   8.087  0.7247  1.8421  1.3493
  631MOL0     H87064   1.654   2.584   8.102 -1.7044  0.2966 -0.0555
  631MOL0     H87065   1.600   2.761   8.253 -2.0980  0.5378  2.1812
  631MOL0     H87066   1.623   2.931   8.583  0.0591  0.9593 -1.2709
  631MOL0     H87067   1.620   2.901   8.418 -0.6756 -2.2739 -1.0552
  631MOL0     H87068   1.393   2.778   8.454  1.9074  2.1755 -1.8001
  631MOL0     H87069   1.371   2.942   8.474 -1.3418 -1.4940 -3.7433
  631MOL0     H87070   1.453   2.767   8.712 -1.5695 -3.6848 -1.7767
  631MOL0     H87071   1.394   2.923   8.725 -1.1631 -0.5879  0.5301
  631MOL0     H87072   1.242   2.662   8.674 -1.1375 -0.1587  0.4584
  631MOL0     H87073   1.177   2.799   8.594  0.2780 -1.5143 -0.3798
  631MOL0     H87074   1.062   2.908   8.983 -0.7419  0.8528 -1.9471
  631MOL0     H87075   1.701   2.500   8.574 -3.2888 -0.8184  0.6805
  631MOL0     H87076   1.870   2.262   8.434  0.9329  2.2250 -3.6867
  631MOL0     H87077   1.726   2.267   8.542 -0.1386 -4.1965 -0.4710
  631MOL0     H87078   1.725   2.184   8.398 -2.7335  0.4998  1.0844
  632MOL0     O87079   4.258   7.322   6.291 -0.1508 -0.8265  0.4959
  632MOL0     C87080   4.365   7.328   6.225 -0.2308  0.3016  0.0143
  632MOL0     O87081   4.495   7.355   6.273  0.2110 -0.1143  0.2247
  632MOL0     C87082   4.517   7.379   6.409  0.5660  0.2580  0.4743
  632MOL0     C87083   4.629   7.325   6.471 -0.3172  0.8729 -0.2262
  632MOL0     C87084   4.648   7.339   6.610 -0.1215 -0.0832  0.8627
  632MOL0     C87085   4.573   7.436   6.684 -0.2871 -0.1419  0.1671
  632MOL0     O87086   4.616   7.460   6.810  0.2750 -0.1866  0.0271
  632MOL0     C87087   4.521   7.545   6.884  0.1347 -1.2248 -0.0054
  632MOL0     C87088   4.591   7.589   7.021  0.1001  0.4430  0.4589
  632MOL0     C87089   4.718   7.667   6.991  0.0739  0.7599  0.0702
  632MOL0     C87090   4.708   7.813   6.967 -0.2526 -0.5080  0.6259
  632MOL0     C87091   4.845   7.880   6.939 -0.3125  0.1630  0.3095
  632MOL0     C87092   4.938   7.890   7.062  0.3225 -0.1875  0.2898
  632MOL0     C87093   4.886   7.996   7.155  0.1603 -0.3128  0.4860
  632MOL0     C87094   4.978   8.056   7.255 -0.1925 -0.3849  1.0697
  632MOL0     N87095   5.073   8.147   7.184 -0.0615  0.0023 -0.5666
  632MOL0     C87096   5.213   8.143   7.203  0.2205 -0.8167 -1.0077
  632MOL0     C87097   5.257   8.240   7.123  0.7692 -0.5264 -0.0213
  632MOL0     C87098   5.395   8.292   7.098  0.0041 -0.3927 -0.4093
  632MOL0     C87099   5.481   8.307   7.230  0.0552 -0.4298  0.3328
  632MOL0     C87100   5.630   8.318   7.194  0.1373 -0.4629 -0.0995
  632MOL0     C87101   5.672   8.446   7.120  0.1253  1.1520  0.3732
  632MOL0     O87102   5.812   8.448   7.133  0.1594 -0.0139 -0.6597
  632MOL0     C87103   5.863   8.575   7.136 -0.2511  0.5929  0.0274
  632MOL0     C87104   5.826   8.674   7.049  0.0573  0.5046  0.2305
  632MOL0     C87105   5.872   8.800   7.073 -0.3973 -0.1490  0.5561
  632MOL0     C87106   5.816   8.907   6.974  0.0407 -0.4824 -0.0238
  632MOL0     C87107   5.954   8.832   7.179 -0.2101 -0.1999 -0.5081
  632MOL0     C87108   6.020   8.967   7.210 -0.9943  0.6423 -0.3952
  632MOL0     O87109   6.047   9.052   7.110 -0.0431  0.2175  0.7335
  632MOL0     C87110   6.126   9.159   7.130  0.1696 -0.4634 -0.1641
  632MOL0     C87111   6.229   9.188   7.031  0.2566  0.0925  0.4386
  632MOL0     C87112   6.333   9.283   7.052  0.2907 -0.2942  0.1605
  632MOL0     C87113   6.318   9.377   7.161  0.2113  0.3589  0.0384
  632MOL0     O87114   6.403   9.485   7.165  0.3264 -0.3620 -0.4394
  632MOL0     C87115   6.340   9.603   7.213  0.6663 -0.1462  0.7188
  632MOL0     C87116   6.416   9.729   7.210 -0.6260 -0.9694 -0.1254
  632MOL0     C87117   6.354   9.842   7.287  0.2245 -0.0627  0.1556
  632MOL0     C87118   6.414   9.978   7.251 -0.2460  0.3810  0.2602
  632MOL0     C87119   6.331  10.097   7.309 -0.5530  0.5207 -0.1123
  632MOL0     C87120   6.419  10.231   7.319 -1.2007  0.3033 -0.6045
  632MOL0     C87121   6.328  10.356   7.363  0.7101  0.0969 -0.2337
  632MOL0     C87122   6.274  10.408   7.228 -0.3600  0.1678  0.6261
  632MOL0    Cl87123   6.399  10.508   7.151  0.5157  0.5610  0.2265
  632MOL0     C87124   6.201   9.366   7.240 -0.0593 -0.1829  0.5833
  632MOL0     C87125   6.114   9.259   7.227  0.3326 -0.4781 -0.9021
  632MOL0     O87126   6.074   8.983   7.322  0.1721  1.1529  0.2324
  632MOL0     C87127   5.993   8.730   7.268 -0.1438  0.2911  0.5559
  632MOL0     C87128   5.940   8.606   7.251  0.5106 -0.2869  1.0047
  632MOL0     N87129   5.156   8.305   7.064 -0.1520  0.8425 -0.2059
  632MOL0     N87130   5.042   8.256   7.103  0.3218 -1.0089  0.2477
  632MOL0     C87131   4.466   7.496   6.614 -0.0767  0.4993 -0.2157
  632MOL0     C87132   4.434   7.461   6.476 -0.1245 -0.4025 -0.5358
  632MOL0     C87133   4.375   7.282   6.091 -0.0806  0.7720  0.3095
  632MOL0     C87134   4.473   7.193   6.052 -0.4493 -0.5848 -1.2113
  632MOL0     C87135   4.491   7.155   5.920  1.1846  1.5611  0.1873
  632MOL0     C87136   4.399   7.202   5.824 -0.0199 -1.0629 -0.7050
  632MOL0     O87137   4.425   7.176   5.681  0.0791  0.6934 -0.1572
  632MOL0     C87138   4.559   7.146   5.655  0.0668  0.0415  0.4989
  632MOL0     C87139   4.578   7.126   5.501  0.1601 -0.0830 -0.7725
  632MOL0     C87140   4.716   7.166   5.466  0.7560  0.1002  1.5753
  632MOL0     C87141   4.834   7.086   5.509 -0.6295  0.6254 -0.5298
  632MOL0     C87142   4.787   6.946   5.530 -0.5642  0.6110  0.1853
  632MOL0     C87143   4.737   6.837   5.550 -0.1348  0.7918  0.1827
  632MOL0     C87144   4.294   7.289   5.866  0.5806 -1.2981 -0.5055
  632MOL0     C87145   4.283   7.329   5.996  0.5632 -0.6119  0.2813
  632MOL0     C87146   4.146   7.405   6.028  0.3357 -0.5923 -0.0042
  632MOL0     H87147   4.697   7.265   6.412 -3.8016 -2.4086 -1.3346
  632MOL0     H87148   4.740   7.291   6.641  0.0034 -0.7710 -0.4978
  632MOL0     H87149   4.428   7.491   6.903  0.2819 -0.8636  1.9265
  632MOL0     H87150   4.485   7.635   6.833 -0.6407 -1.7270 -0.3677
  632MOL0     H87151   4.512   7.644   7.073  0.7270  1.1203  0.6941
  632MOL0     H87152   4.603   7.502   7.086 -3.6909  0.2823  1.1967
  632MOL0     H87153   4.764   7.668   7.090 -0.0537 -1.3864  0.1883
  632MOL0     H87154   4.788   7.616   6.924 -1.2326 -2.1804  0.8042
  632MOL0     H87155   4.647   7.841   6.880  1.0805 -3.5740 -1.4991
  632MOL0     H87156   4.659   7.854   7.055  0.2810  1.1068  0.1989
  632MOL0     H87157   4.831   7.976   6.890  1.3822  0.3847  0.2005
  632MOL0     H87158   4.902   7.816   6.871  0.5335  2.5264 -1.3292
  632MOL0     H87159   4.949   7.795   7.115 -0.7866 -2.2549 -2.8952
  632MOL0     H87160   5.028   7.926   7.010 -0.2842  1.3947  0.2908
  632MOL0     H87161   4.814   7.949   7.223 -1.7112  1.2090 -0.3670
  632MOL0     H87162   4.836   8.067   7.089  1.5696  0.8525  0.6170
  632MOL0     H87163   4.923   8.115   7.328  1.4962 -0.3043  2.3481
  632MOL0     H87164   5.035   7.975   7.304 -0.4111  0.2581  2.4430
  632MOL0     H87165   5.263   8.078   7.274  1.3217  0.8843 -0.1676
  632MOL0     H87166   5.393   8.385   7.041  3.1676  1.4317  2.1123
  632MOL0     H87167   5.446   8.219   7.034 -1.2020 -0.2562 -1.5612
  632MOL0     H87168   5.461   8.404   7.278  1.7156 -0.0993  0.4155
  632MOL0     H87169   5.468   8.221   7.296  4.5632 -1.5199  0.1101
  632MOL0     H87170   5.689   8.322   7.286 -2.4254  1.4789  1.6150
  632MOL0     H87171   5.666   8.230   7.140  2.2125  1.2781 -1.7495
  632MOL0     H87172   5.633   8.441   7.018 -1.5610 -1.4022  1.0616
  632MOL0     H87173   5.623   8.523   7.180  0.7214  0.5074  1.7499
  632MOL0     H87174   5.753   8.654   6.971  1.5551 -3.3541 -0.3875
  632MOL0     H87175   5.879   8.911   6.884  2.2875 -2.9443  1.3190
  632MOL0     H87176   5.816   9.005   7.023 -3.6406 -0.5577  0.3484
  632MOL0     H87177   5.714   8.892   6.939 -0.5327  1.9083  0.4394
  632MOL0     H87178   6.267   9.106   6.972 -1.1496 -0.4466  0.2486
  632MOL0     H87179   6.423   9.292   6.992  0.4132 -0.4557  0.3164
  632MOL0     H87180   6.244   9.612   7.161  0.2324 -3.7748  0.6405
  632MOL0     H87181   6.333   9.589   7.321  0.5530  0.2670  0.7669
  632MOL0     H87182   6.515   9.711   7.252 -0.1691  0.6352 -0.4713
  632MOL0     H87183   6.430   9.758   7.105  1.5418 -0.3703  0.2884
  632MOL0     H87184   6.375   9.823   7.393  4.6033  3.6207  0.2720
  632MOL0     H87185   6.247   9.841   7.268  0.5802 -1.6517 -2.1640
  632MOL0     H87186   6.424   9.993   7.143 -2.4081 -0.8260 -0.1662
  632MOL0     H87187   6.520   9.989   7.276 -0.0490  0.3920 -0.5693
  632MOL0     H87188   6.243  10.122   7.249 -1.8696  2.2339  2.3451
  632MOL0     H87189   6.294  10.079   7.410  1.2294 -1.1931  0.3124
  632MOL0     H87190   6.490  10.253   7.239  0.3121  0.7859  0.8141
  632MOL0     H87191   6.485  10.205   7.402  1.6460 -0.0194 -2.8064
  632MOL0     H87192   6.387  10.437   7.408 -3.3872  3.3276 -0.0430
  632MOL0     H87193   6.239  10.333   7.423  0.0902 -0.9254 -1.5002
  632MOL0     H87194   6.191  10.474   7.254 -1.0666 -0.2740 -0.4452
  632MOL0     H87195   6.229  10.342   7.154  1.3884 -0.5459  0.1503
  632MOL0     H87196   6.177   9.430   7.325 -1.9030 -2.1793  1.6630
  632MOL0     H87197   6.039   9.260   7.305  0.4171  0.0567 -0.8210
  632MOL0     H87198   6.070   8.746   7.343  2.8667  0.4927 -2.3145
  632MOL0     H87199   5.955   8.521   7.318 -4.4324 -0.9206  1.7001
  632MOL0     H87200   4.399   7.572   6.655 -1.0904 -0.0090 -0.8826
  632MOL0     H87201   4.351   7.516   6.433 -1.8987 -1.2769  1.6215
  632MOL0     H87202   4.553   7.167   6.120 -1.2071 -1.8302 -0.7689
  632MOL0     H87203   4.579   7.095   5.900 -0.2495 -1.0895  1.3961
  632MOL0     H87204   4.613   7.231   5.698 -0.8519 -0.2422  2.2717
  632MOL0     H87205   4.583   7.048   5.696 -2.8667 -0.0521  2.2150
  632MOL0     H87206   4.512   7.190   5.442 -0.4983 -0.7443 -0.7643
  632MOL0     H87207   4.546   7.025   5.472 -2.9063 -0.0831  1.9852
  632MOL0     H87208   4.721   7.174   5.357  2.5935  3.4073  1.7486
  632MOL0     H87209   4.730   7.272   5.491 -0.5080  0.4774  0.7686
  632MOL0     H87210   4.891   7.121   5.596 -0.6600 -1.1814  0.2716
  632MOL0     H87211   4.903   7.092   5.424 -0.9856 -2.4073 -1.1648
  632MOL0     H87212   4.678   6.756   5.587 -1.3407  1.6751  0.2569
  632MOL0     H87213   4.243   7.317   5.775  1.4358 -3.2700 -1.6430
  632MOL0     H87214   4.112   7.468   5.945  0.5991 -1.0127 -0.4400
  632MOL0     H87215   4.065   7.335   6.046 -0.5220  0.5802  0.8472
  632MOL0     H87216   4.161   7.477   6.109 -0.8456 -1.5966  1.1433
  633MOL0     O87217   9.774   8.682   9.028 -0.1089 -0.0601 -0.0280
  633MOL0     C87218   9.806   8.593   8.948  0.0320  0.3456 -0.1348
  633MOL0     O87219   9.935   8.557   8.914 -0.0514 -0.0179  0.2042
  633MOL0     C87220  10.025   8.604   9.005 -0.6097 -0.0638 -0.4433
  633MOL0     C87221  10.089   8.510   9.078 -0.0526  0.7913 -0.4193
  633MOL0     C87222  10.182   8.546   9.176 -0.0446  0.2060  0.0864
  633MOL0     C87223  10.231   8.678   9.188 -0.1876  0.5171 -0.0532
  633MOL0     O87224  10.335   8.692   9.276  0.6471 -0.9355  0.0396
  633MOL0     C87225  10.412   8.814   9.269  0.0173 -0.1723  0.2462
  633MOL0     C87226  10.525   8.794   9.364 -0.6683  0.1226 -1.3541
  633MOL0     C87227  10.483   8.743   9.508  0.4801  0.1719 -0.4308
  633MOL0     C87228  10.441   8.859   9.605  0.4749 -0.4891 -0.3340
  633MOL0     C87229  10.429   8.814   9.751  0.9483  0.4161  0.0575
  633MOL0     C87230  10.347   8.924   9.833  0.0105  0.8747 -0.2109
  633MOL0     C87231  10.370   8.916   9.984 -0.3789 -0.0782  0.8002
  633MOL0     C87232  10.297   9.012  10.069  0.5659  0.5494 -0.0476
  633MOL0     N87233  10.344   9.015  10.205  0.4553 -0.3163  0.0851
  633MOL0     C87234  10.420   9.105  10.265  0.7652 -0.3684  0.5077
  633MOL0     C87235  10.470   9.053  10.378  0.4620  0.9288 -0.2588
  633MOL0     C87236  10.552   9.125  10.482  0.7068 -0.3785 -0.7299
  633MOL0     C87237  10.514   9.097  10.630 -0.1287 -0.5559  0.2099
  633MOL0     C87238  10.391   9.195  10.671 -0.4806  0.3907 -0.5723
  633MOL0     C87239  10.387   9.202  10.817 -0.3622 -0.2363  0.9090
  633MOL0     O87240  10.297   9.312  10.850 -0.2768  0.6013  0.5650
  633MOL0     C87241  10.280   9.347  10.983  0.3697  0.9722  0.5095
  633MOL0     C87242  10.174   9.432  11.011  0.8388 -0.2474  0.5651
  633MOL0     C87243  10.145   9.470  11.146  0.0026  0.5703  0.4596
  633MOL0     C87244  10.027   9.564  11.173  0.1571  0.0851 -0.2694
  633MOL0     C87245  10.226   9.415  11.249 -0.3843  0.1269  0.8561
  633MOL0     C87246  10.225   9.477  11.379  0.0279 -0.4474  0.0261
  633MOL0     O87247  10.304   9.589  11.412  0.2047 -0.5061  0.1898
  633MOL0     C87248  10.278   9.654  11.531 -0.0513 -0.2358 -0.3360
  633MOL0     C87249  10.160   9.721  11.556  0.5612 -0.0604  0.1452
  633MOL0     C87250  10.145   9.784  11.670 -0.4664 -0.3348  0.5428
  633MOL0     C87251  10.245   9.802  11.763 -0.0923 -0.1574 -0.0620
  633MOL0     O87252  10.224   9.877  11.874  0.2216  0.2664  0.6270
  633MOL0     C87253  10.256   9.818  12.002  0.7565  0.5139 -0.2863
  633MOL0     C87254  10.240   9.928  12.106  0.1720 -0.2939  0.4692
  633MOL0     C87255  10.091   9.970  12.127  0.6379  0.4037  0.6794
  633MOL0     C87256   9.995   9.857  12.177 -0.4297  0.3465 -1.1859
  633MOL0     C87257   9.861   9.903  12.245 -0.4936  0.2577  1.3683
  633MOL0     C87258   9.774   9.780  12.262 -0.7474  0.5094 -1.1402
  633MOL0     C87259   9.669   9.809  12.366 -0.7701 -0.3134 -0.6002
  633MOL0     C87260   9.554   9.712  12.369 -1.2355  0.0964  0.0132
  633MOL0    Cl87261   9.428   9.752  12.481  0.3418 -0.2549 -0.3071
  633MOL0     C87262  10.366   9.729  11.742  0.4968 -0.5933 -0.4310
  633MOL0     C87263  10.382   9.649  11.631  0.4125 -0.3383  0.7386
  633MOL0     O87264  10.156   9.417  11.459  0.3630  0.3568  0.0886
  633MOL0     C87265  10.318   9.306  11.224  1.1140 -0.4075  0.0596
  633MOL0     C87266  10.348   9.286  11.090  0.7155 -0.2340 -0.3656
  633MOL0     N87267  10.427   8.919  10.379  0.3715 -0.1810  0.0056
  633MOL0     N87268  10.347   8.894  10.276 -0.3005 -0.4507  0.0098
  633MOL0     C87269  10.176   8.777   9.105 -0.7450  0.1585 -0.2053
  633MOL0     C87270  10.075   8.742   9.016 -0.2339 -0.0626  0.6133
  633MOL0     C87271   9.701   8.525   8.882  0.6923  0.5332  0.2021
  633MOL0     C87272   9.577   8.581   8.875  0.6951 -0.2088  0.7583
  633MOL0     C87273   9.479   8.534   8.787  1.2700 -0.5486  0.4228
  633MOL0     C87274   9.503   8.411   8.725  0.1777 -0.6959 -0.2890
  633MOL0     O87275   9.405   8.352   8.654  0.5971  0.6843  0.3888
  633MOL0     C87276   9.420   8.366   8.513  0.0406 -0.2677  0.2677
  633MOL0     C87277   9.275   8.378   8.456 -0.9306  0.3943 -0.0614
  633MOL0     C87278   9.216   8.512   8.493 -0.0720  0.7183  0.2415
  633MOL0     C87279   9.111   8.486   8.602  0.3130  0.8465 -0.1488
  633MOL0     C87280   9.058   8.611   8.642 -0.0160  0.7775 -0.7658
  633MOL0     C87281   9.012   8.713   8.686 -0.1951  0.2983 -1.0022
  633MOL0     C87282   9.621   8.339   8.745  0.0748  0.8504  0.3942
  633MOL0     C87283   9.721   8.394   8.819 -0.3184  0.5425 -0.0508
  633MOL0     C87284   9.848   8.315   8.819 -0.2668  0.5404 -0.4943
  633MOL0     H87285  10.070   8.406   9.057 -2.1572  1.2418 -0.9313
  633MOL0     H87286  10.237   8.465   9.225  1.9429 -0.2401 -2.6499
  633MOL0     H87287  10.360   8.902   9.308  1.2802 -0.2238  2.1609
  633MOL0     H87288  10.449   8.841   9.170  1.0407  2.2018  1.2008
  633MOL0     H87289  10.606   8.732   9.325 -0.3638  1.9484 -3.8555
  633MOL0     H87290  10.579   8.888   9.372  0.9708 -0.9033  5.6799
  633MOL0     H87291  10.404   8.669   9.499 -0.2615  0.5196  2.2397
  633MOL0     H87292  10.562   8.688   9.560  0.2957 -1.1018 -1.4520
  633MOL0     H87293  10.514   8.940   9.593 -2.4292  2.2378 -0.8275
  633MOL0     H87294  10.349   8.901   9.563  1.5960 -0.1872 -2.6484
  633MOL0     H87295  10.531   8.803   9.789  0.6095 -2.3677  0.3747
  633MOL0     H87296  10.378   8.717   9.749  0.9017  0.4530 -1.4295
  633MOL0     H87297  10.375   9.027   9.807  0.4550  0.9500  0.5538
  633MOL0     H87298  10.242   8.905   9.808 -0.3135 -0.0436  1.6630
  633MOL0     H87299  10.478   8.924  10.000 -0.5011  2.7313  0.6412
  633MOL0     H87300  10.343   8.817  10.024  1.3022 -1.1333 -0.4997
  633MOL0     H87301  10.313   9.109  10.019  4.9022  0.4285  0.6512
  633MOL0     H87302  10.191   8.993  10.081 -0.1280  3.5370 -0.5895
  633MOL0     H87303  10.424   9.196  10.207 -0.2668 -0.3106  0.5067
  633MOL0     H87304  10.560   9.231  10.456  1.7950 -0.3102 -0.1615
  633MOL0     H87305  10.650   9.080  10.466  1.5252  0.7064  0.9339
  633MOL0     H87306  10.492   8.990  10.645  0.2787 -0.8204 -0.9389
  633MOL0     H87307  10.602   9.124  10.689 -1.1098  2.5014  0.4432
  633MOL0     H87308  10.416   9.296  10.636 -0.7311  1.3820  1.9286
  633MOL0     H87309  10.299   9.166  10.619 -0.2352 -0.3798 -0.5835
  633MOL0     H87310  10.362   9.106  10.863 -0.4194 -0.8469 -0.3573
  633MOL0     H87311  10.484   9.226  10.862 -1.1631 -0.0826  2.6589
  633MOL0     H87312  10.111   9.461  10.927 -0.7506 -0.4603  1.6494
  633MOL0     H87313   9.987   9.588  11.074 -1.3281 -3.1148 -0.5562
  633MOL0     H87314  10.070   9.645  11.234  0.0880 -0.9532  1.2211
  633MOL0     H87315   9.948   9.528  11.240  2.1533 -0.0609  2.1879
  633MOL0     H87316  10.074   9.720  11.489  0.7708  0.4591 -0.1367
  633MOL0     H87317  10.044   9.818  11.692 -1.3681 -1.8012 -1.0497
  633MOL0     H87318  10.194   9.729  12.017  1.0159  0.3088 -0.4246
  633MOL0     H87319  10.357   9.776  12.006 -0.8084 -3.7735 -0.1991
  633MOL0     H87320  10.285   9.913  12.205 -0.1657 -2.2647  0.3728
  633MOL0     H87321  10.294  10.011  12.061  0.6813 -0.6665  0.3813
  633MOL0     H87322  10.039   9.997  12.035 -0.7203 -0.7592  1.0670
  633MOL0     H87323  10.086  10.046  12.206  0.4456  1.7667 -0.5921
  633MOL0     H87324  10.053   9.780  12.229  0.1399  0.3285 -1.8336
  633MOL0     H87325   9.962   9.793  12.094  0.4198 -1.7440  0.0066
  633MOL0     H87326   9.895   9.940  12.342  0.6078  1.5424  0.5229
  633MOL0     H87327   9.812   9.984  12.191 -1.3462 -0.5921  0.8401
  633MOL0     H87328   9.841   9.697  12.287 -1.6470 -0.7840 -2.7718
  633MOL0     H87329   9.734   9.757  12.163  2.1642 -0.4847 -2.1861
  633MOL0     H87330   9.627   9.909  12.355 -2.8255 -0.3395  4.3694
  633MOL0     H87331   9.706   9.796  12.468 -3.4535 -2.3595  0.2558
  633MOL0     H87332   9.592   9.612  12.389 -0.9189  0.7173  3.0394
  633MOL0     H87333   9.515   9.716  12.266 -2.8628  0.5112  0.6147
  633MOL0     H87334  10.447   9.741  11.815 -1.9241  1.4066  2.1704
  633MOL0     H87335  10.471   9.592  11.607 -0.8123 -2.2119  0.4405
  633MOL0     H87336  10.351   9.245  11.308 -1.3047 -1.4782  0.3389
  633MOL0     H87337  10.426   9.213  11.074  1.4467  1.0260 -3.2126
  633MOL0     H87338  10.213   8.878   9.090  2.6915 -1.2371 -2.3742
  633MOL0     H87339  10.018   8.813   8.958 -5.2976 -3.6514  0.4969
  633MOL0     H87340   9.566   8.679   8.920  2.7275  0.8681 -0.9010
  633MOL0     H87341   9.388   8.591   8.770  1.9427  0.6557  0.7195
  633MOL0     H87342   9.485   8.448   8.484 -1.4492  0.9359  0.2317
  633MOL0     H87343   9.470   8.276   8.475 -0.7379 -0.2562 -0.8164
  633MOL0     H87344   9.217   8.293   8.493  0.9432 -1.3194 -0.8650
  633MOL0     H87345   9.274   8.378   8.346 -0.8376  1.7117 -0.0758
  633MOL0     H87346   9.286   8.591   8.520  0.5779 -0.3963  2.0549
  633MOL0     H87347   9.157   8.537   8.405  0.3561 -0.9856 -0.5783
  633MOL0     H87348   9.161   8.439   8.687 -3.6501 -1.9744  0.9153
  633MOL0     H87349   9.024   8.431   8.566  0.9677 -0.7577  0.6261
  633MOL0     H87350   8.966   8.802   8.722 -2.2774 -1.0012 -0.2906
  633MOL0     H87351   9.634   8.238   8.706  1.7893  1.1519  0.1020
  633MOL0     H87352   9.826   8.212   8.790 -1.9232  0.0999  2.0329
  633MOL0     H87353   9.928   8.355   8.755 -0.2348 -1.5524 -1.8513
  633MOL0     H87354   9.888   8.308   8.921  1.1777  0.0040 -1.0726
  634MOL0     O87355   5.323   7.361   3.658 -0.5441  0.6142  0.7591
  634MOL0     C87356   5.372   7.454   3.597 -0.9581  0.3615  0.6701
  634MOL0     O87357   5.504   7.464   3.556 -0.0401  0.5716  0.3412
  634MOL0     C87358   5.586   7.357   3.579  0.3796  0.2099 -0.8729
  634MOL0     C87359   5.550   7.218   3.561 -0.5866 -0.2262  0.1662
  634MOL0     C87360   5.649   7.118   3.589 -0.4613  0.1742  0.8795
  634MOL0     C87361   5.777   7.152   3.631  0.4785 -0.2602  0.5467
  634MOL0     O87362   5.882   7.067   3.665 -0.0900 -0.9351 -0.6700
  634MOL0     C87363   5.856   6.933   3.629 -0.5854  0.0873 -0.1942
  634MOL0     C87364   5.822   6.846   3.760 -0.0157 -1.0601  0.1556
  634MOL0     C87365   5.946   6.810   3.842 -0.7938 -0.1466  1.1571
  634MOL0     C87366   5.902   6.778   3.987  0.1001  0.2416  0.5821
  634MOL0     C87367   6.027   6.791   4.070  0.6438 -0.2285 -0.2710
  634MOL0     C87368   6.006   6.753   4.220  0.6772 -0.2890  0.6528
  634MOL0     C87369   5.972   6.599   4.237  0.7186  0.2649  0.5129
  634MOL0     C87370   6.057   6.503   4.150  0.2599 -0.7588 -0.4768
  634MOL0     N87371   6.197   6.481   4.196  0.1550  1.2343  0.0868
  634MOL0     C87372   6.229   6.396   4.298  1.0786  0.2788  0.1244
  634MOL0     C87373   6.363   6.391   4.294  0.0810 -1.1187  0.8310
  634MOL0     C87374   6.461   6.321   4.374  0.0819  0.4436 -0.1619
  634MOL0     C87375   6.528   6.403   4.483  0.2108 -0.5146 -0.8524
  634MOL0     C87376   6.664   6.339   4.533  0.1993  0.5320 -0.4134
  634MOL0     C87377   6.783   6.332   4.440 -0.0857 -0.7233 -0.2190
  634MOL0     O87378   6.818   6.460   4.393 -0.0764  0.5840 -1.1155
  634MOL0     C87379   6.877   6.456   4.274 -0.6516 -0.1949  1.1002
  634MOL0     C87380   6.802   6.478   4.156  0.1783  0.5349 -0.3033
  634MOL0     C87381   6.848   6.473   4.026 -0.5942  0.3158  0.0379
  634MOL0     C87382   6.750   6.507   3.911 -0.6866 -0.6111  0.1345
  634MOL0     C87383   6.985   6.439   4.013  0.4318 -0.1945 -0.8188
  634MOL0     C87384   7.055   6.444   3.883  0.0257 -0.4446  0.2091
  634MOL0     O87385   7.197   6.456   3.894 -0.0838  0.0403 -0.0510
  634MOL0     C87386   7.275   6.393   3.799 -0.1095  0.9051  0.3142
  634MOL0     C87387   7.294   6.250   3.784  0.7281 -0.1424 -1.1913
  634MOL0     C87388   7.377   6.193   3.693  0.8540 -0.8795 -0.8583
  634MOL0     C87389   7.446   6.282   3.601  0.2201 -0.2654  0.4366
  634MOL0     O87390   7.529   6.220   3.510 -0.5895  0.4722 -0.6019
  634MOL0     C87391   7.530   6.285   3.372 -0.2297 -0.0127 -0.0853
  634MOL0     C87392   7.613   6.204   3.282  0.2880  0.1696  0.1832
  634MOL0     C87393   7.638   6.256   3.139 -0.2659  0.2635 -0.6192
  634MOL0     C87394   7.746   6.175   3.067 -0.1355 -0.4861 -0.8036
  634MOL0     C87395   7.728   6.197   2.924 -0.7005  0.2649 -0.0084
  634MOL0     C87396   7.822   6.307   2.862 -0.3822 -0.1746  0.0742
  634MOL0     C87397   7.970   6.277   2.872 -0.1485  0.5012  0.3540
  634MOL0     C87398   8.049   6.360   2.778 -0.0149 -0.3927 -0.1405
  634MOL0    Cl87399   8.226   6.318   2.773 -0.1879  0.1147  0.0128
  634MOL0     C87400   7.426   6.421   3.608  0.6526  0.9138 -0.3361
  634MOL0     C87401   7.332   6.476   3.701 -0.0692 -0.2497 -0.5594
  634MOL0     O87402   6.987   6.434   3.784  0.0660 -0.5017 -0.4772
  634MOL0     C87403   7.063   6.411   4.129  0.0390  0.4473  0.0854
  634MOL0     C87404   7.012   6.423   4.255  0.6865 -0.0522  0.8627
  634MOL0     N87405   6.398   6.483   4.192 -0.8287 -0.5087 -0.1373
  634MOL0     N87406   6.298   6.517   4.128  0.3901 -0.3491  0.5929
  634MOL0     C87407   5.809   7.290   3.642  0.0720  0.1129  0.1904
  634MOL0     C87408   5.723   7.396   3.612  0.2154  0.7609  0.3294
  634MOL0     C87409   5.284   7.574   3.568  0.2235  0.2170 -0.3901
  634MOL0     C87410   5.337   7.690   3.501  0.0464 -0.6051  0.4482
  634MOL0     C87411   5.269   7.809   3.482  0.1091 -0.4695  0.0648
  634MOL0     C87412   5.149   7.824   3.545  0.2285 -0.5295  0.7483
  634MOL0     O87413   5.093   7.950   3.549  1.0061 -0.8648  0.3965
  634MOL0     C87414   5.120   8.022   3.667  0.1555  0.3263 -0.3507
  634MOL0     C87415   4.993   8.049   3.751  0.6057 -0.1647  0.5518
  634MOL0     C87416   5.009   8.149   3.864  0.0816 -0.1653 -0.4977
  634MOL0     C87417   4.905   8.136   3.986  0.0842 -0.3946  0.8735
  634MOL0     C87418   4.778   8.127   3.922  0.2547 -0.2654  0.0369
  634MOL0     C87419   4.670   8.107   3.875 -0.6828  0.1989  0.4433
  634MOL0     C87420   5.090   7.722   3.612 -0.0828 -0.2936  0.7030
  634MOL0     C87421   5.147   7.594   3.619  0.2915  0.5656 -0.7211
  634MOL0     C87422   5.069   7.488   3.688  0.4170 -0.0118  0.2376
  634MOL0     H87423   5.450   7.186   3.532 -1.0639  0.5138  0.9663
  634MOL0     H87424   5.615   7.019   3.559 -1.0316  0.6553 -0.1351
  634MOL0     H87425   5.952   6.893   3.596 -1.3163 -0.1369 -2.1811
  634MOL0     H87426   5.781   6.908   3.553 -1.4404 -1.7400  1.1674
  634MOL0     H87427   5.751   6.896   3.825 -1.5387 -1.7001 -0.9604
  634MOL0     H87428   5.766   6.760   3.722  0.4461 -0.8452 -1.0796
  634MOL0     H87429   6.004   6.724   3.806  4.1624  2.9385  0.7521
  634MOL0     H87430   6.012   6.897   3.838 -0.2851 -0.5610 -0.9092
  634MOL0     H87431   5.827   6.853   4.016 -0.6362  0.4916 -1.7659
  634MOL0     H87432   5.852   6.681   3.989 -0.0410  0.0985 -3.2213
  634MOL0     H87433   6.060   6.895   4.067  2.9843 -0.6972  3.3245
  634MOL0     H87434   6.109   6.736   4.023  1.3955  0.9234 -0.3417
  634MOL0     H87435   6.098   6.772   4.276  2.5609 -0.0906 -2.2636
  634MOL0     H87436   5.918   6.809   4.251 -0.6680 -1.3103 -1.1687
  634MOL0     H87437   5.871   6.573   4.205 -0.9874  3.6958  2.4492
  634MOL0     H87438   5.987   6.577   4.343  1.0723  1.3117  0.6934
  634MOL0     H87439   6.012   6.403   4.154 -2.1181  0.2328 -0.6348
  634MOL0     H87440   6.064   6.530   4.044  1.3439  1.8533  0.1682
  634MOL0     H87441   6.158   6.334   4.351 -0.5029 -0.7915 -2.9941
  634MOL0     H87442   6.526   6.277   4.298  1.1824  0.8023  0.5385
  634MOL0     H87443   6.414   6.231   4.416  0.8273 -0.2649 -0.8093
  634MOL0     H87444   6.537   6.505   4.443  1.0036 -0.3500 -0.2668
  634MOL0     H87445   6.462   6.410   4.570 -1.2465 -1.2857 -1.8306
  634MOL0     H87446   6.697   6.393   4.622  1.0142  0.1372 -0.4628
  634MOL0     H87447   6.652   6.242   4.582 -0.3140  1.1931  0.8195
  634MOL0     H87448   6.867   6.288   4.495 -1.2836 -0.4397  1.9298
  634MOL0     H87449   6.762   6.274   4.349  0.9369  1.0981 -1.6886
  634MOL0     H87450   6.696   6.496   4.175 -1.6255 -5.3181 -2.5496
  634MOL0     H87451   6.787   6.598   3.864 -3.4439  0.6967  0.3512
  634MOL0     H87452   6.655   6.526   3.962  0.0500  0.3170  1.2070
  634MOL0     H87453   6.733   6.427   3.838 -2.1865 -0.0100 -0.2040
  634MOL0     H87454   7.267   6.195   3.874 -0.5899  0.1911 -1.3717
  634MOL0     H87455   7.396   6.086   3.693 -1.3241 -1.3245  1.0167
  634MOL0     H87456   7.437   6.288   3.314 -0.0246 -0.1046 -0.4249
  634MOL0     H87457   7.580   6.382   3.372  2.9001 -1.5059 -1.0960
  634MOL0     H87458   7.707   6.194   3.336 -0.1137  0.8072  1.0272
  634MOL0     H87459   7.558   6.110   3.271 -0.1113  0.1212  2.1633
  634MOL0     H87460   7.680   6.357   3.142 -0.6095  0.6047 -3.5674
  634MOL0     H87461   7.543   6.249   3.084 -0.4351  1.7659 -0.5630
  634MOL0     H87462   7.722   6.070   3.088  1.7206 -1.1245 -1.6448
  634MOL0     H87463   7.852   6.187   3.092  0.1572  1.2438 -2.6337
  634MOL0     H87464   7.758   6.103   2.877 -0.0987 -0.0541  0.9746
  634MOL0     H87465   7.632   6.226   2.882  1.8766  3.9878 -4.1837
  634MOL0     H87466   7.792   6.397   2.917  2.9071 -0.2575  2.3371
  634MOL0     H87467   7.802   6.309   2.755  2.9057  1.7065 -0.6262
  634MOL0     H87468   7.977   6.172   2.843 -2.0569  0.7458 -1.2133
  634MOL0     H87469   8.015   6.286   2.971  2.3704 -0.6791 -0.6147
  634MOL0     H87470   8.046   6.467   2.804 -0.3283  0.0959 -2.0484
  634MOL0     H87471   8.008   6.341   2.679 -2.9500  0.8145  0.7376
  634MOL0     H87472   7.478   6.491   3.544 -0.3619  1.3521 -0.7055
  634MOL0     H87473   7.324   6.584   3.707  1.4904 -0.1437  4.1872
  634MOL0     H87474   7.166   6.380   4.120  0.3978  2.1254 -2.5351
  634MOL0     H87475   7.070   6.401   4.344 -2.0524 -1.2751  2.4455
  634MOL0     H87476   5.907   7.318   3.679  1.4222 -1.2459 -2.1336
  634MOL0     H87477   5.742   7.503   3.600 -0.1659  0.6739 -1.2191
  634MOL0     H87478   5.437   7.701   3.460 -0.1291  0.6522  0.2976
  634MOL0     H87479   5.311   7.896   3.432  0.8086  1.5563  3.7889
  634MOL0     H87480   5.195   7.966   3.725  0.0137 -0.0613 -0.5372
  634MOL0     H87481   5.163   8.120   3.646 -0.5757  1.1422  1.7429
  634MOL0     H87482   4.965   7.949   3.787 -1.4031  0.1934  0.1527
  634MOL0     H87483   4.917   8.087   3.682  0.5564  0.5944  1.0161
  634MOL0     H87484   5.107   8.138   3.913  0.8547  0.7691 -1.7800
  634MOL0     H87485   4.999   8.247   3.819 -5.5310  2.2349  4.5402
  634MOL0     H87486   4.910   8.230   4.043 -3.4642  0.9119 -0.6872
  634MOL0     H87487   4.933   8.058   4.057  0.0258  0.3768  1.7622
  634MOL0     H87488   4.580   8.083   3.821 -0.5073  0.3313  0.0849
  634MOL0     H87489   5.006   7.735   3.679 -0.5588 -2.0014  0.4850
  634MOL0     H87490   5.079   7.508   3.795 -1.6640  3.3727 -0.0536
  634MOL0     H87491   4.972   7.511   3.644  0.8129  1.7904  0.2213
  634MOL0     H87492   5.101   7.385   3.670  1.9500  0.8099 -2.1163
  635MOL0     O87493   1.716   7.696   7.886 -1.2576 -0.4285 -0.6810
  635MOL0     C87494   1.642   7.650   7.802  0.6553  0.8696 -0.5875
  635MOL0     O87495   1.658   7.539   7.731 -0.1553 -0.0583  0.7391
  635MOL0     C87496   1.763   7.455   7.761 -0.2553 -0.2324  1.3320
  635MOL0     C87497   1.897   7.502   7.730 -0.2572  0.8548  1.1148
  635MOL0     C87498   2.013   7.427   7.767  0.5535 -0.5375 -0.3039
  635MOL0     C87499   1.988   7.296   7.815 -0.8148 -0.4324 -0.5022
  635MOL0     O87500   2.108   7.226   7.819  0.3546 -0.7304  0.3017
  635MOL0     C87501   2.105   7.092   7.781 -0.0339  0.8925 -0.4317
  635MOL0     C87502   2.247   7.031   7.789 -0.0422 -0.1996  0.2559
  635MOL0     C87503   2.311   7.062   7.927  0.3983 -0.5143  1.4852
  635MOL0     C87504   2.404   6.955   7.985  0.1856 -0.2549 -0.3131
  635MOL0     C87505   2.474   7.008   8.111 -0.1929 -0.1995 -0.2188
  635MOL0     C87506   2.574   6.894   8.159 -0.3549  0.2376  0.4707
  635MOL0     C87507   2.688   6.935   8.249 -0.1371  0.7978  0.2646
  635MOL0     C87508   2.803   6.828   8.262  0.4812  0.2588 -0.0494
  635MOL0     N87509   2.933   6.897   8.293  0.5929 -0.5610 -0.3427
  635MOL0     C87510   3.000   6.898   8.418 -0.6151  0.3232  1.2541
  635MOL0     C87511   3.121   6.953   8.385 -0.5696  0.7755  0.6381
  635MOL0     C87512   3.225   6.992   8.489 -0.7547 -0.1943  0.8876
  635MOL0     C87513   3.274   7.132   8.449 -0.8213  0.0882 -0.1486
  635MOL0     C87514   3.415   7.143   8.509 -0.5236 -0.0396  0.2804
  635MOL0     C87515   3.459   7.286   8.511  0.0774 -0.4402  0.0317
  635MOL0     O87516   3.563   7.306   8.609 -0.1106 -0.8099 -0.5489
  635MOL0     C87517   3.624   7.431   8.595 -0.3275 -1.1648  0.3226
  635MOL0     C87518   3.685   7.490   8.482 -0.1293 -0.0505 -0.0355
  635MOL0     C87519   3.747   7.614   8.475 -0.7244  0.3885  0.3997
  635MOL0     C87520   3.814   7.653   8.345  0.3373 -0.6084  0.6334
  635MOL0     C87521   3.751   7.685   8.595  0.1928 -0.4125 -0.1017
  635MOL0     C87522   3.820   7.816   8.609 -0.3831  0.2783  0.1195
  635MOL0     O87523   3.849   7.858   8.738  0.7152 -1.0426 -0.3240
  635MOL0     C87524   3.915   7.975   8.757 -0.4714 -0.6355  0.3848
  635MOL0     C87525   4.010   7.979   8.860  0.0252 -0.0852  0.8022
  635MOL0     C87526   4.094   8.093   8.868 -0.7179 -0.2922 -0.4814
  635MOL0     C87527   4.072   8.208   8.779  0.1055  0.2892  0.3363
  635MOL0     O87528   4.162   8.309   8.789  0.8975  0.2351  0.4398
  635MOL0     C87529   4.182   8.404   8.686  0.1851 -0.3513  0.4304
  635MOL0     C87530   4.120   8.525   8.763  0.0832  0.2255  0.2026
  635MOL0     C87531   4.198   8.589   8.879  0.5026  0.4741  0.0434
  635MOL0     C87532   4.127   8.691   8.966  1.0880 -1.0027  0.0976
  635MOL0     C87533   4.220   8.750   9.088 -0.2733  0.8887  0.1621
  635MOL0     C87534   4.255   8.630   9.180  0.5044 -0.1435  0.3126
  635MOL0     C87535   4.323   8.649   9.312 -0.7205  0.0148 -0.0336
  635MOL0     C87536   4.421   8.766   9.300 -0.0414 -0.7855 -0.5071
  635MOL0    Cl87537   4.561   8.732   9.197 -0.0771 -0.0505 -0.0044
  635MOL0     C87538   3.976   8.195   8.681  0.0850 -0.9805 -0.5951
  635MOL0     C87539   3.889   8.087   8.674  0.4150 -0.6289 -0.2688
  635MOL0     O87540   3.856   7.871   8.502  0.7557 -0.1988  0.7735
  635MOL0     C87541   3.685   7.635   8.714 -0.6365  0.0173  0.3360
  635MOL0     C87542   3.627   7.508   8.711  0.2288  0.5325  0.2351
  635MOL0     N87543   3.126   6.984   8.255 -0.0980 -0.0775 -0.5196
  635MOL0     N87544   3.011   6.960   8.199 -0.4350 -0.3676 -0.2307
  635MOL0     C87545   1.857   7.247   7.834 -0.0184 -0.4076 -0.2265
  635MOL0     C87546   1.741   7.330   7.808 -0.9889  0.4851 -0.3832
  635MOL0     C87547   1.508   7.726   7.776 -0.7662 -0.3902 -0.3590
  635MOL0     C87548   1.426   7.682   7.675  0.5627  0.0962  0.8228
  635MOL0     C87549   1.303   7.751   7.642  0.1923  0.6059 -0.3891
  635MOL0     C87550   1.251   7.847   7.736  1.4167 -0.0254 -0.0828
  635MOL0     O87551   1.128   7.905   7.740 -0.1178 -0.3292  0.0112
  635MOL0     C87552   1.055   7.914   7.614  0.5328 -1.3122 -0.8082
  635MOL0     C87553   0.974   8.045   7.613 -0.0563  1.2671  0.7057
  635MOL0     C87554   0.851   8.045   7.712 -0.1973  0.2537  0.3222
  635MOL0     C87555   0.796   8.189   7.727  1.1141  0.1288  0.0372
  635MOL0     C87556   0.898   8.280   7.789  0.0501 -0.3358  0.8883
  635MOL0     C87557   0.967   8.363   7.841 -0.0670 -0.0786 -1.0686
  635MOL0     C87558   1.332   7.888   7.838 -0.3615 -1.0052 -0.7873
  635MOL0     C87559   1.458   7.838   7.848  0.4608 -0.4136 -0.7030
  635MOL0     C87560   1.546   7.908   7.950  0.2906  0.0173 -0.1403
  635MOL0     H87561   1.911   7.606   7.701  1.8550  0.7194  1.4492
  635MOL0     H87562   2.104   7.481   7.743 -0.4310  2.1246  1.4776
  635MOL0     H87563   2.057   7.082   7.683  2.1534 -4.1289 -1.2713
  635MOL0     H87564   2.050   7.034   7.855  1.6716 -1.5090 -0.9400
  635MOL0     H87565   2.258   6.926   7.760  2.3167 -0.2068  0.9844
  635MOL0     H87566   2.296   7.082   7.706  0.2865  0.5710  0.9090
  635MOL0     H87567   2.376   7.147   7.905  1.5815 -2.1188 -1.8441
  635MOL0     H87568   2.233   7.092   7.998 -2.3943 -0.0749 -1.5237
  635MOL0     H87569   2.350   6.860   7.991  1.0532 -0.9095 -2.0533
  635MOL0     H87570   2.489   6.930   7.921  0.2626 -2.1255  0.4573
  635MOL0     H87571   2.400   7.034   8.188 -0.0198  1.4351 -0.5653
  635MOL0     H87572   2.524   7.101   8.082 -2.3732 -0.1512 -4.5522
  635MOL0     H87573   2.515   6.814   8.204  2.0658 -0.6279  2.3771
  635MOL0     H87574   2.626   6.846   8.076 -0.9196 -1.4538  1.0543
  635MOL0     H87575   2.643   6.956   8.347 -2.6833 -0.6240 -0.5054
  635MOL0     H87576   2.726   7.033   8.217  1.6689 -0.5063 -1.8877
  635MOL0     H87577   2.782   6.760   8.345  0.0986 -0.6583 -0.8815
  635MOL0     H87578   2.827   6.772   8.171  1.5157  1.6042 -0.6430
  635MOL0     H87579   2.956   6.867   8.512 -3.6374  0.7686  0.1039
  635MOL0     H87580   3.304   6.916   8.479 -1.1808 -0.8968  2.5286
  635MOL0     H87581   3.186   6.989   8.591 -0.6007 -1.4440  0.9343
  635MOL0     H87582   3.292   7.134   8.341 -2.0657  3.5843 -0.4169
  635MOL0     H87583   3.192   7.200   8.475 -0.4281  0.7980 -0.7206
  635MOL0     H87584   3.397   7.115   8.614 -2.7665  0.9461  0.2317
  635MOL0     H87585   3.494   7.086   8.460  1.3037  2.2577  0.3761
  635MOL0     H87586   3.500   7.307   8.411  0.0330 -1.7029 -0.2634
  635MOL0     H87587   3.378   7.357   8.532 -0.1352 -0.1387 -1.6064
  635MOL0     H87588   3.705   7.420   8.402  0.3582  0.9298 -0.7968
  635MOL0     H87589   3.777   7.745   8.300  1.3430  0.2066  1.4373
  635MOL0     H87590   3.805   7.576   8.267  2.3193 -3.4348  2.9850
  635MOL0     H87591   3.923   7.665   8.352  0.2106 -0.0419  1.9123
  635MOL0     H87592   4.030   7.905   8.937  2.3524 -1.2889 -0.8115
  635MOL0     H87593   4.171   8.094   8.944 -1.5287 -1.2349  0.3842
  635MOL0     H87594   4.286   8.420   8.656 -0.2168 -1.0560 -1.4518
  635MOL0     H87595   4.131   8.376   8.594 -1.4562  0.1231  1.1573
  635MOL0     H87596   4.109   8.602   8.686  1.4882  0.0256 -0.2120
  635MOL0     H87597   4.025   8.500   8.811  1.0496  0.2708  2.2769
  635MOL0     H87598   4.293   8.630   8.845 -0.8043  2.0428 -1.9238
  635MOL0     H87599   4.240   8.508   8.940  2.7854  1.3578 -0.2505
  635MOL0     H87600   4.042   8.642   9.015  1.0786 -0.5290  0.5667
  635MOL0     H87601   4.085   8.775   8.908 -0.1089 -2.3247 -1.0241
  635MOL0     H87602   4.313   8.788   9.046  0.5787  1.7168  2.6007
  635MOL0     H87603   4.172   8.837   9.133 -0.0202  1.3529 -0.4640
  635MOL0     H87604   4.313   8.561   9.119  0.2553 -2.1364  2.1966
  635MOL0     H87605   4.164   8.579   9.213 -1.0305  0.2901 -2.9007
  635MOL0     H87606   4.378   8.561   9.346 -1.1583 -0.7228 -1.1593
  635MOL0     H87607   4.250   8.657   9.393 -1.8745 -1.4990 -0.8596
  635MOL0     H87608   4.451   8.798   9.400  2.1061 -1.9990 -0.7090
  635MOL0     H87609   4.366   8.844   9.246 -0.1974 -1.6720 -1.6785
  635MOL0     H87610   3.961   8.288   8.628 -0.8648  1.3077  3.2605
  635MOL0     H87611   3.806   8.092   8.604 -0.1157  1.4871  0.4611
  635MOL0     H87612   3.688   7.689   8.808 -0.4478  1.5555 -0.5344
  635MOL0     H87613   3.570   7.483   8.800  1.5092  2.4807  1.7048
  635MOL0     H87614   1.837   7.149   7.877 -1.0349 -0.9299 -1.8148
  635MOL0     H87615   1.641   7.291   7.819 -0.0223 -2.1286 -0.1530
  635MOL0     H87616   1.442   7.596   7.611 -1.4425  0.4558 -0.2265
  635MOL0     H87617   1.240   7.723   7.559 -1.2122  0.8556  0.5655
  635MOL0     H87618   1.121   7.912   7.527 -0.5839 -2.3492 -1.6728
  635MOL0     H87619   0.993   7.827   7.590  1.8511 -2.0823 -1.5884
  635MOL0     H87620   0.947   8.043   7.507  0.4983 -3.3446  0.4330
  635MOL0     H87621   1.039   8.131   7.633  1.0667  0.9641 -1.4219
  635MOL0     H87622   0.768   7.985   7.673  2.2552 -1.5699 -2.5933
  635MOL0     H87623   0.872   8.009   7.813 -0.7404 -1.9568 -0.2928
  635MOL0     H87624   0.699   8.194   7.777  0.9150 -0.0401 -0.3284
  635MOL0     H87625   0.783   8.241   7.631  0.5319 -0.2546 -0.0962
  635MOL0     H87626   1.023   8.439   7.891 -1.3928  0.7959 -0.8681
  635MOL0     H87627   1.298   7.968   7.903  0.9601  0.3448 -1.6904
  635MOL0     H87628   1.496   7.995   7.994 -2.6449 -0.6482 -1.8337
  635MOL0     H87629   1.579   7.834   8.024  0.2563 -0.0526 -0.1938
  635MOL0     H87630   1.639   7.948   7.911 -0.2639  0.0624 -1.4474
  636MOL0     O87631   5.830   0.351   8.471 -0.1902  0.0974  0.2622
  636MOL0     C87632   5.791   0.238   8.499 -0.5934  0.0975 -0.7491
  636MOL0     O87633   5.709   0.168   8.418  0.7198  0.0245 -0.0095
  636MOL0     C87634   5.637   0.239   8.326  0.1593 -0.6851 -0.7793
  636MOL0     C87635   5.714   0.278   8.218  0.7410 -0.1704  0.0675
  636MOL0     C87636   5.658   0.348   8.108  0.8680 -0.2129  0.2067
  636MOL0     C87637   5.531   0.396   8.117  0.0204  1.3371  0.5592
  636MOL0     O87638   5.483   0.482   8.019 -0.6186 -0.2962  0.3634
  636MOL0     C87639   5.407   0.587   8.071  0.4136 -0.2082 -0.6898
  636MOL0     C87640   5.385   0.685   7.960 -0.5448  0.3474  0.4913
  636MOL0     C87641   5.517   0.772   7.938  0.3018  0.4400  0.0679
  636MOL0     C87642   5.508   0.852   7.806  0.6639  0.3654 -0.5559
  636MOL0     C87643   5.638   0.890   7.748  0.2662  0.5089 -0.4424
  636MOL0     C87644   5.596   0.974   7.629 -0.4028  0.5874  1.2796
  636MOL0     C87645   5.722   1.012   7.552 -0.5780  0.6020  1.5899
  636MOL0     C87646   5.688   1.082   7.415 -0.5853  0.2798 -1.0855
  636MOL0     N87647   5.643   1.221   7.443  0.1299 -0.1332  0.5011
  636MOL0     C87648   5.524   1.262   7.389  0.2903  0.8283 -0.4902
  636MOL0     C87649   5.516   1.393   7.410 -0.5356  0.1594 -0.2737
  636MOL0     C87650   5.417   1.488   7.352 -0.6111  0.1749  0.1535
  636MOL0     C87651   5.395   1.610   7.437  0.0488  0.4407  0.9325
  636MOL0     C87652   5.322   1.727   7.371  0.8670 -0.6323  0.4092
  636MOL0     C87653   5.170   1.729   7.395 -0.1537  0.9253  0.4561
  636MOL0     O87654   5.119   1.599   7.349  0.0595  0.0801 -0.4086
  636MOL0     C87655   4.992   1.550   7.365 -0.0100 -0.9095 -0.3831
  636MOL0     C87656   4.957   1.447   7.287 -0.0748 -0.1221  0.8836
  636MOL0     C87657   4.832   1.382   7.311 -1.0893  0.4419  0.6540
  636MOL0     C87658   4.784   1.268   7.235  0.5136  0.7259 -0.3952
  636MOL0     C87659   4.746   1.430   7.414 -0.9501 -0.0351 -0.1045
  636MOL0     C87660   4.629   1.350   7.463 -0.5422 -0.0527  0.1362
  636MOL0     O87661   4.657   1.237   7.533  0.3692  1.5373 -0.1141
  636MOL0     C87662   4.551   1.151   7.569 -0.2354 -0.6129 -0.8183
  636MOL0     C87663   4.515   1.044   7.490 -0.4068 -0.2960  0.0591
  636MOL0     C87664   4.417   0.955   7.523  1.1742  1.1401  0.5031
  636MOL0     C87665   4.332   0.984   7.631  0.0003  0.7463 -0.1048
  636MOL0     O87666   4.242   0.901   7.689 -0.5959 -0.1451 -0.5501
  636MOL0     C87667   4.180   0.797   7.620  0.2351  0.7369 -0.1952
  636MOL0     C87668   4.092   0.729   7.724  0.1824 -0.8299 -0.2196
  636MOL0     C87669   4.168   0.645   7.822  0.2790  0.2349 -0.6521
  636MOL0     C87670   4.075   0.585   7.923  0.6839  0.3820 -0.1426
  636MOL0     C87671   4.127   0.460   8.003 -0.0229  0.4125 -0.3351
  636MOL0     C87672   4.016   0.426   8.108  0.2341  1.2015 -0.4917
  636MOL0     C87673   4.057   0.297   8.175  0.5315 -0.7628  0.5434
  636MOL0     C87674   4.119   0.340   8.309 -0.3400  0.8084  0.6934
  636MOL0    Cl87675   4.166   0.187   8.389  0.6815  0.1377  0.5488
  636MOL0     C87676   4.366   1.100   7.712  0.1699  0.3870  0.2587
  636MOL0     C87677   4.478   1.183   7.679  0.1070 -0.1337 -0.4332
  636MOL0     O87678   4.514   1.393   7.444  0.0556 -0.8854 -0.2796
  636MOL0     C87679   4.782   1.548   7.483 -0.4564 -0.4870  0.2194
  636MOL0     C87680   4.899   1.614   7.457 -0.0507  0.2770  0.6341
  636MOL0     N87681   5.637   1.436   7.473 -0.1286 -0.8922  0.5318
  636MOL0     N87682   5.708   1.328   7.494 -0.4351  0.4100  0.1053
  636MOL0     C87683   5.449   0.350   8.224 -0.2808 -0.4702  0.5566
  636MOL0     C87684   5.501   0.273   8.332  0.1522  0.0730  0.4439
  636MOL0     C87685   5.834   0.173   8.628  0.1300 -0.0097  0.7911
  636MOL0     C87686   5.816   0.035   8.636 -0.3882  0.4428  0.4355
  636MOL0     C87687   5.849  -0.024   8.761  0.0978 -0.1272  0.0861
  636MOL0     C87688   5.908   0.037   8.869  0.7998 -0.2673 -0.1508
  636MOL0     O87689   5.946  -0.016   8.994 -0.3962 -0.1536  0.0013
  636MOL0     C87690   5.972  -0.161   8.999  0.1742 -0.1892  0.7828
  636MOL0     C87691   5.940  -0.201   9.142  0.1288  0.3453 -0.4798
  636MOL0     C87692   5.950  -0.352   9.160  0.3054  0.3087  0.0852
  636MOL0     C87693   5.938  -0.407   9.300 -0.3084 -0.0570  0.2244
  636MOL0     C87694   5.794  -0.395   9.352 -0.9497 -0.2877  0.6071
  636MOL0     C87695   5.680  -0.382   9.398 -0.2270  0.0958 -0.2851
  636MOL0     C87696   5.929   0.172   8.850  0.2393 -0.4009  0.0891
  636MOL0     C87697   5.891   0.244   8.736 -0.3613 -0.4907 -0.1912
  636MOL0     C87698   5.933   0.391   8.735  0.1397  0.0352  0.2146
  636MOL0     H87699   5.821   0.258   8.212  0.5320 -0.8755 -2.2371
  636MOL0     H87700   5.718   0.377   8.022  0.8009  0.7176  0.4705
  636MOL0     H87701   5.459   0.634   8.155  2.2753 -3.2791  0.0259
  636MOL0     H87702   5.307   0.556   8.103  1.5054 -1.5773  1.6046
  636MOL0     H87703   5.355   0.626   7.872 -0.7988 -0.1580  0.9110
  636MOL0     H87704   5.305   0.758   7.978  1.5977  2.7708  0.7424
  636MOL0     H87705   5.534   0.834   8.027  3.2111  0.6738 -0.5557
  636MOL0     H87706   5.609   0.716   7.923  0.3542 -0.0614  2.0389
  636MOL0     H87707   5.468   0.780   7.734  1.6721 -0.7211 -0.0586
  636MOL0     H87708   5.436   0.934   7.815 -2.4120 -2.2460  0.2052
  636MOL0     H87709   5.692   0.802   7.714 -0.5029  0.0278 -0.4356
  636MOL0     H87710   5.701   0.947   7.817  1.0048 -2.2110  1.2665
  636MOL0     H87711   5.537   0.905   7.567 -1.1171  1.0257  1.4639
  636MOL0     H87712   5.539   1.059   7.667  0.1986  2.1859 -1.1540
  636MOL0     H87713   5.774   0.919   7.529 -2.5107 -0.4054  0.9924
  636MOL0     H87714   5.795   1.067   7.612  0.9392  0.5957 -0.1646
  636MOL0     H87715   5.778   1.076   7.353  0.7384 -0.9194  0.8319
  636MOL0     H87716   5.615   1.020   7.362 -0.5268  0.3187 -1.2128
  636MOL0     H87717   5.451   1.204   7.333 -2.3353  1.9035  1.6015
  636MOL0     H87718   5.317   1.447   7.334 -0.2103 -1.9306  2.2468
  636MOL0     H87719   5.467   1.518   7.259  0.9183 -0.7068  0.6607
  636MOL0     H87720   5.344   1.578   7.528 -0.5566 -0.7383  0.1916
  636MOL0     H87721   5.496   1.652   7.447  1.2801 -1.1384 -2.9177
  636MOL0     H87722   5.367   1.815   7.418 -0.6395  0.7820 -0.6198
  636MOL0     H87723   5.338   1.725   7.263 -0.4305  0.8465  0.1434
  636MOL0     H87724   5.159   1.738   7.504  0.9475 -1.8232  0.9094
  636MOL0     H87725   5.118   1.814   7.353  2.3926  2.3902  0.0618
  636MOL0     H87726   5.022   1.417   7.205 -0.1692 -1.3660  1.2409
  636MOL0     H87727   4.675   1.273   7.223  0.2790  1.8918  1.7860
  636MOL0     H87728   4.818   1.189   7.302  3.3290  1.3318 -0.9815
  636MOL0     H87729   4.824   1.267   7.133  0.8907  1.6229 -0.2616
  636MOL0     H87730   4.563   1.036   7.393  0.7867 -0.2608  0.6275
  636MOL0     H87731   4.375   0.883   7.453 -0.6430  2.2778  0.3398
  636MOL0     H87732   4.126   0.823   7.529 -0.5918  0.2347  0.1396
  636MOL0     H87733   4.246   0.719   7.580 -0.3414  0.9280 -1.5747
  636MOL0     H87734   4.032   0.811   7.764  1.0191 -1.0170  1.5121
  636MOL0     H87735   4.024   0.659   7.675 -1.2117  1.9037 -2.5339
  636MOL0     H87736   4.241   0.705   7.876  0.1540  0.0434 -0.2736
  636MOL0     H87737   4.218   0.563   7.770  0.0484 -0.6675  0.5160
  636MOL0     H87738   3.980   0.557   7.877  0.8870 -0.5172 -0.0392
  636MOL0     H87739   4.057   0.658   8.002 -1.7636 -0.9334  0.6222
  636MOL0     H87740   4.150   0.387   7.925  1.2551 -0.4847  0.8254
  636MOL0     H87741   4.214   0.491   8.063  0.1418 -0.2357 -0.2322
  636MOL0     H87742   3.926   0.419   8.047  0.3264 -0.9883 -0.4560
  636MOL0     H87743   4.004   0.505   8.182  1.2498  0.8204  0.1110
  636MOL0     H87744   4.128   0.239   8.114  1.2153  1.5591 -1.0178
  636MOL0     H87745   3.977   0.228   8.200  0.9606 -1.0670  1.0890
  636MOL0     H87746   4.045   0.390   8.373  0.0104 -0.0181  1.7608
  636MOL0     H87747   4.204   0.409   8.304 -0.8091  1.3210 -1.7288
  636MOL0     H87748   4.303   1.118   7.799  0.6702 -1.9719  1.1867
  636MOL0     H87749   4.501   1.272   7.737 -3.5189  2.3889 -2.4364
  636MOL0     H87750   4.731   1.585   7.571 -3.3045 -3.1605 -0.1140
  636MOL0     H87751   4.920   1.704   7.514  0.4477  0.3186  0.3895
  636MOL0     H87752   5.343   0.375   8.226  0.2488  2.4145 -1.5484
  636MOL0     H87753   5.441   0.229   8.411  0.2532 -0.8095  0.0435
  636MOL0     H87754   5.796  -0.029   8.551  4.9273 -2.8610  1.1820
  636MOL0     H87755   5.829  -0.130   8.773  0.3176  0.1237  3.6757
  636MOL0     H87756   5.930  -0.231   8.926  1.3261  0.2179 -0.3198
  636MOL0     H87757   6.081  -0.158   8.994  0.3490  2.9513  3.5021
  636MOL0     H87758   5.838  -0.165   9.160  0.0407 -0.1408  0.0323
  636MOL0     H87759   6.011  -0.154   9.210  0.3976  0.1895 -0.6466
  636MOL0     H87760   5.863  -0.394   9.108 -1.9520 -0.5770  4.0918
  636MOL0     H87761   6.035  -0.405   9.116 -1.2779  0.0246 -2.9056
  636MOL0     H87762   6.007  -0.351   9.363  0.6361  0.3568 -1.1347
  636MOL0     H87763   5.967  -0.512   9.294  0.6434  0.2004  0.1486
  636MOL0     H87764   5.579  -0.358   9.426 -0.7298 -2.7604  0.6096
  636MOL0     H87765   5.984   0.221   8.930 -2.2732 -0.9488  2.2735
  636MOL0     H87766   6.034   0.404   8.695  0.6817  1.9870  1.9862
  636MOL0     H87767   5.854   0.450   8.687 -2.5536 -1.5209  2.3836
  636MOL0     H87768   5.922   0.423   8.839  0.3385  1.0045 -0.0505
  637MOL0     O87769   0.798   7.376   4.293 -0.5704  0.1204 -0.8549
  637MOL0     C87770   0.693   7.419   4.262  0.8186 -0.1786 -0.0867
  637MOL0     O87771   0.615   7.496   4.342 -0.1688  1.0569 -0.1535
  637MOL0     C87772   0.647   7.533   4.467 -0.3489 -0.3648  0.2991
  637MOL0     C87773   0.546   7.550   4.555  0.2898  0.1969 -0.7394
  637MOL0     C87774   0.570   7.596   4.693 -0.3652  0.7109 -0.7791
  637MOL0     C87775   0.700   7.643   4.719  0.2856  0.2488  0.6170
  637MOL0     O87776   0.732   7.686   4.838  0.3306 -0.6227 -0.5309
  637MOL0     C87777   0.625   7.686   4.933  0.1095 -0.0372 -0.9914
  637MOL0     C87778   0.679   7.753   5.061 -0.7577  0.1251  0.4756
  637MOL0     C87779   0.627   7.891   5.075  0.3603  0.0153 -0.8538
  637MOL0     C87780   0.671   7.977   4.960  0.8647  1.1963 -0.0702
  637MOL0     C87781   0.646   8.126   4.975  0.0803  0.7048 -0.6584
  637MOL0     C87782   0.709   8.199   4.864  0.6646 -0.5007 -0.1714
  637MOL0     C87783   0.663   8.341   4.870  0.4229  0.3278 -0.1823
  637MOL0     C87784   0.752   8.428   4.787 -0.3078 -0.3698 -0.1121
  637MOL0     N87785   0.889   8.457   4.845  0.3032  0.6020 -0.0048
  637MOL0     C87786   1.004   8.430   4.761  0.7115 -1.4048 -0.3994
  637MOL0     C87787   1.097   8.492   4.838 -0.4285  0.1982 -0.4488
  637MOL0     C87788   1.232   8.513   4.781 -0.7859  0.3274  0.1963
  637MOL0     C87789   1.316   8.582   4.891 -1.1515  0.1766 -0.3175
  637MOL0     C87790   1.460   8.606   4.841 -0.1189  0.2509 -0.0436
  637MOL0     C87791   1.545   8.704   4.919  0.0452  0.6369 -0.5165
  637MOL0     O87792   1.474   8.833   4.906 -0.0567  0.5583 -0.1903
  637MOL0     C87793   1.517   8.936   4.832 -0.2497 -0.4659  0.3829
  637MOL0     C87794   1.651   8.962   4.794 -0.4564  0.0703 -0.7815
  637MOL0     C87795   1.695   9.087   4.775  0.9445 -0.8094 -0.1895
  637MOL0     C87796   1.839   9.106   4.726  0.2277 -0.2518  0.3950
  637MOL0     C87797   1.601   9.196   4.755 -0.7337  0.1929 -0.7523
  637MOL0     C87798   1.642   9.336   4.728 -0.0812 -0.1788 -0.7516
  637MOL0     O87799   1.550   9.417   4.682 -0.1048  0.3678  0.2082
  637MOL0     C87800   1.573   9.547   4.640 -0.2818  0.4179 -0.0430
  637MOL0     C87801   1.478   9.648   4.646 -0.6959 -0.2802 -0.0877
  637MOL0     C87802   1.489   9.777   4.600 -0.0638  0.3980  0.2336
  637MOL0     C87803   1.599   9.814   4.521 -0.2688  0.3181 -0.5332
  637MOL0     O87804   1.596   9.946   4.480 -0.7620  0.5569 -0.0783
  637MOL0     C87805   1.695   9.969   4.370  0.1619 -0.1215  0.9937
  637MOL0     C87806   1.688  10.114   4.327 -0.2153 -0.8336 -0.3588
  637MOL0     C87807   1.710  10.205   4.448 -0.1621  1.0714 -0.3024
  637MOL0     C87808   1.743  10.349   4.404 -0.3318  1.0086  0.5911
  637MOL0     C87809   1.772  10.434   4.524  0.1401 -0.0957 -0.5290
  637MOL0     C87810   1.665  10.465   4.631 -0.1977  0.3614 -0.0082
  637MOL0     C87811   1.532  10.520   4.581 -0.1632 -0.7164 -0.0302
  637MOL0     C87812   1.442  10.541   4.702  0.4846  0.6115 -0.0027
  637MOL0    Cl87813   1.507  10.617   4.853 -0.2937 -0.1427  0.3352
  637MOL0     C87814   1.705   9.712   4.505  0.2494 -0.3055 -0.7613
  637MOL0     C87815   1.686   9.587   4.562  0.1331  0.3271  0.0771
  637MOL0     O87816   1.751   9.368   4.775  0.1788  0.3726  0.0660
  637MOL0     C87817   1.464   9.170   4.776  0.2789  1.1815 -0.1261
  637MOL0     C87818   1.424   9.039   4.822 -0.2841 -0.3335 -0.2257
  637MOL0     N87819   1.048   8.553   4.951 -0.7388  0.5079 -0.2688
  637MOL0     N87820   0.924   8.522   4.956  0.5483 -0.1024  0.0639
  637MOL0     C87821   0.807   7.626   4.626 -0.4965  0.3041 -0.3513
  637MOL0     C87822   0.778   7.578   4.504  0.0260  0.4356  0.4125
  637MOL0     C87823   0.660   7.410   4.114 -1.0717 -0.0626 -0.2741
  637MOL0     C87824   0.532   7.459   4.068 -0.6346 -0.9246 -0.2540
  637MOL0     C87825   0.489   7.439   3.944  0.2911 -0.4655  1.2044
  637MOL0     C87826   0.574   7.375   3.852  0.0790  0.3939  0.7983
  637MOL0     O87827   0.519   7.366   3.737  0.0378 -0.4136  0.2533
  637MOL0     C87828   0.582   7.319   3.616 -0.2601  0.0492  0.3506
  637MOL0     C87829   0.485   7.309   3.502 -0.5321 -0.4632 -0.2639
  637MOL0     C87830   0.408   7.434   3.480 -0.2062 -0.1763 -0.1571
  637MOL0     C87831   0.295   7.415   3.371  1.0524 -0.0347  0.1991
  637MOL0     C87832   0.352   7.362   3.242 -0.3570 -1.1013  0.1026
  637MOL0     C87833   0.390   7.304   3.143  0.2139  0.8448 -0.7757
  637MOL0     C87834   0.701   7.337   3.878  0.5055  0.0055  0.3835
  637MOL0     C87835   0.747   7.355   4.013 -0.5818 -0.3725 -0.4999
  637MOL0     C87836   0.888   7.314   4.041 -0.2567  0.5490 -1.0256
  637MOL0     H87837   0.441   7.535   4.531  0.6107  0.2289 -2.3108
  637MOL0     H87838   0.491   7.586   4.767 -0.0237 -3.3875 -0.7092
  637MOL0     H87839   0.607   7.583   4.965 -0.1042  0.7341  1.6510
  637MOL0     H87840   0.540   7.748   4.902  2.3526  2.3967 -2.7107
  637MOL0     H87841   0.634   7.704   5.148  2.6238  0.8570  2.7999
  637MOL0     H87842   0.787   7.736   5.063 -0.7247 -0.4139 -2.0787
  637MOL0     H87843   0.524   7.914   5.106 -0.0033 -1.7587 -0.6294
  637MOL0     H87844   0.682   7.928   5.162 -2.1746  1.7171  0.1432
  637MOL0     H87845   0.778   7.968   4.940  0.9892  3.5582 -0.7944
  637MOL0     H87846   0.623   7.949   4.866 -0.0370 -1.1057  1.0060
  637MOL0     H87847   0.687   8.162   5.070  0.2745  3.3640 -1.6598
  637MOL0     H87848   0.538   8.139   4.962 -0.4216 -1.4717  0.6752
  637MOL0     H87849   0.816   8.199   4.886  0.9521 -1.6234 -1.3955
  637MOL0     H87850   0.681   8.149   4.771 -1.2172 -2.5454  1.3641
  637MOL0     H87851   0.659   8.386   4.970 -1.5983  0.4989 -0.3012
  637MOL0     H87852   0.564   8.347   4.823 -0.1787  1.3476  1.1278
  637MOL0     H87853   0.762   8.384   4.687 -0.5700 -0.0370 -0.2871
  637MOL0     H87854   0.699   8.521   4.762 -2.0166 -2.0699 -3.5173
  637MOL0     H87855   1.019   8.383   4.664  1.2721 -1.5368 -0.2508
  637MOL0     H87856   1.232   8.570   4.688  1.6263  1.0830  0.5823
  637MOL0     H87857   1.280   8.420   4.749  2.3403  1.7276  0.4418
  637MOL0     H87858   1.264   8.671   4.926  0.9276  1.1136  0.5068
  637MOL0     H87859   1.318   8.512   4.975 -2.4523  0.5205  0.0222
  637MOL0     H87860   1.502   8.507   4.861 -1.7877 -0.6708 -0.9515
  637MOL0     H87861   1.476   8.616   4.733  0.6122 -1.4418 -0.1274
  637MOL0     H87862   1.539   8.655   5.016  1.3120 -2.3482 -1.8207
  637MOL0     H87863   1.653   8.704   4.903  0.2983 -0.4070  1.0263
  637MOL0     H87864   1.709   8.871   4.785 -0.9137 -0.2374 -0.6855
  637MOL0     H87865   1.862   9.013   4.674 -0.6603 -0.8432  1.0426
  637MOL0     H87866   1.911   9.117   4.808 -0.7545 -1.5490  1.4810
  637MOL0     H87867   1.851   9.190   4.656 -0.5035 -0.3360  0.1622
  637MOL0     H87868   1.388   9.632   4.703 -1.1445  4.6331  1.0687
  637MOL0     H87869   1.410   9.851   4.612 -0.1437  0.4829 -0.7975
  637MOL0     H87870   1.797   9.946   4.404 -0.2002 -0.5418  1.8366
  637MOL0     H87871   1.663   9.903   4.288  0.1037 -0.2127  1.0900
  637MOL0     H87872   1.765  10.128   4.252 -1.6077 -2.1917 -2.1397
  637MOL0     H87873   1.592  10.131   4.277 -0.3158 -0.8051 -0.1592
  637MOL0     H87874   1.792  10.160   4.504 -0.0139 -2.4727 -3.0490
  637MOL0     H87875   1.619  10.204   4.509 -0.6696 -1.2819 -1.0049
  637MOL0     H87876   1.658  10.383   4.344 -2.4034 -4.2698  0.0011
  637MOL0     H87877   1.830  10.348   4.338  0.8247  1.0340  2.0759
  637MOL0     H87878   1.851  10.389   4.585  0.1413  1.7509  0.9219
  637MOL0     H87879   1.811  10.528   4.484 -0.8846 -0.6267 -3.0096
  637MOL0     H87880   1.710  10.545   4.691  1.8019  0.9791 -2.1643
  637MOL0     H87881   1.642  10.374   4.687  0.6443  0.7732  1.0205
  637MOL0     H87882   1.488  10.446   4.513 -0.1996 -1.8431  1.1892
  637MOL0     H87883   1.540  10.609   4.518 -1.7593 -3.0461 -3.8640
  637MOL0     H87884   1.402  10.443   4.729 -0.0283  0.8066 -0.0449
  637MOL0     H87885   1.364  10.609   4.664 -1.6848 -2.0339 -0.6551
  637MOL0     H87886   1.801   9.725   4.455  1.0230  1.1303  0.9640
  637MOL0     H87887   1.759   9.515   4.527 -0.2914 -1.1219  2.0183
  637MOL0     H87888   1.393   9.251   4.765 -0.2011  0.7489 -0.2024
  637MOL0     H87889   1.327   9.021   4.866 -0.4347 -0.3156 -0.5528
  637MOL0     H87890   0.907   7.637   4.669 -1.7990 -0.1890  3.1125
  637MOL0     H87891   0.866   7.558   4.443 -0.3272  0.1230 -0.0068
  637MOL0     H87892   0.463   7.508   4.135  0.0920 -0.2147 -0.0092
  637MOL0     H87893   0.386   7.458   3.914 -1.2008 -4.4464  3.0905
  637MOL0     H87894   0.664   7.379   3.575 -1.3473 -1.2460 -4.3080
  637MOL0     H87895   0.617   7.216   3.623 -2.6653 -0.8521  0.1116
  637MOL0     H87896   0.413   7.226   3.507 -3.3277  1.6657 -1.8986
  637MOL0     H87897   0.549   7.284   3.418 -0.1101 -0.0971 -0.0560
  637MOL0     H87898   0.354   7.470   3.568 -0.9550  3.9420 -2.0222
  637MOL0     H87899   0.464   7.520   3.441 -0.6561  0.3729  0.3962
  637MOL0     H87900   0.237   7.508   3.365  0.4604 -0.4348 -0.4478
  637MOL0     H87901   0.222   7.351   3.423 -0.6278  1.8299  0.2789
  637MOL0     H87902   0.428   7.253   3.057  0.8428 -1.4955  0.7963
  637MOL0     H87903   0.775   7.303   3.806 -1.5633 -3.6538 -0.2419
  637MOL0     H87904   0.888   7.244   4.125 -1.1643 -0.8297 -2.1326
  637MOL0     H87905   0.941   7.257   3.964  0.4780 -0.1672 -0.0312
  637MOL0     H87906   0.944   7.406   4.060 -1.0248  0.5061  1.8842
  638MOL0     O87907   0.782   8.772   1.082  0.1838 -0.7309 -0.2359
  638MOL0     C87908   0.751   8.759   1.202 -0.1470 -0.2444  0.8557
  638MOL0     O87909   0.775   8.853   1.300 -0.3279 -0.4451  0.1951
  638MOL0     C87910   0.839   8.967   1.254  0.5160 -0.0883 -0.6026
  638MOL0     C87911   0.762   9.073   1.192  0.4435  0.9893 -0.5749
  638MOL0     C87912   0.827   9.179   1.147 -0.1957 -1.5315  0.9010
  638MOL0     C87913   0.969   9.189   1.150  0.0812  0.1727 -0.5863
  638MOL0     O87914   1.037   9.306   1.108 -0.1397 -0.1666 -0.5365
  638MOL0     C87915   0.966   9.427   1.134 -0.2084  0.7100  0.3876
  638MOL0     C87916   1.044   9.554   1.098 -0.1241  0.5861  0.5240
  638MOL0     C87917   0.948   9.676   1.092 -0.9657  0.6213 -0.2537
  638MOL0     C87918   0.998   9.774   0.978 -0.2221  0.5975  1.1894
  638MOL0     C87919   1.067   9.883   1.046 -0.4245 -0.2086  0.2694
  638MOL0     C87920   1.167   9.967   0.962 -0.9700  0.0617 -1.1837
  638MOL0     C87921   1.210  10.096   1.036 -0.2828  0.6347 -0.4711
  638MOL0     C87922   1.313  10.171   0.962  0.1786 -0.9182 -0.2121
  638MOL0     N87923   1.447  10.106   0.953  0.8115 -0.4157  0.0481
  638MOL0     C87924   1.487  10.019   0.860 -0.5134 -0.4647 -0.3137
  638MOL0     C87925   1.620  10.009   0.873 -0.1612 -0.4477  1.0288
  638MOL0     C87926   1.717   9.930   0.792  0.6216 -0.3892 -0.7855
  638MOL0     C87927   1.814  10.013   0.704 -0.9483 -0.2677 -0.1329
  638MOL0     C87928   1.941  10.074   0.768 -0.4811 -0.0115  0.8060
  638MOL0     C87929   2.021  10.124   0.657 -0.3485  0.6554  0.1965
  638MOL0     O87930   2.152  10.153   0.704  0.5051  1.0959 -0.2647
  638MOL0     C87931   2.242  10.227   0.631 -0.2094  0.1727  0.8467
  638MOL0     C87932   2.213  10.354   0.584 -0.4929 -0.1852 -0.3885
  638MOL0     C87933   2.309  10.418   0.504 -0.4489  0.4880 -0.1390
  638MOL0     C87934   2.257  10.557   0.465 -0.0325  0.0766 -0.3074
  638MOL0     C87935   2.428  10.349   0.475 -0.5742  0.4766  0.6438
  638MOL0     C87936   2.544  10.407   0.397  0.1946 -0.0050  0.6745
  638MOL0     O87937   2.540  10.537   0.372  0.3814  0.1529 -1.0644
  638MOL0     C87938   2.656  10.581   0.310 -0.9267 -0.4152 -1.0523
  638MOL0     C87939   2.776  10.582   0.387  0.6670  0.2201  1.1883
  638MOL0     C87940   2.897  10.621   0.330 -0.3663  0.5739  1.2947
  638MOL0     C87941   2.897  10.666   0.198  0.7733  1.0828 -0.4161
  638MOL0     O87942   3.010  10.695   0.132  0.2177 -1.0123  0.1784
  638MOL0     C87943   3.134  10.749   0.188  0.1263 -0.1532  0.9179
  638MOL0     C87944   3.221  10.825   0.088 -0.0420 -0.6756 -0.4260
  638MOL0     C87945   3.140  10.924   0.000 -0.2408  1.0406  0.5609
  638MOL0     C87946   3.229  11.022  -0.072  0.1970 -0.1544  1.1098
  638MOL0     C87947   3.236  11.160  -0.009 -0.1522  0.2055 -0.5355
  638MOL0     C87948   3.365  11.242  -0.024  0.8603 -0.9431 -1.0155
  638MOL0     C87949   3.380  11.285  -0.178  1.0688 -0.3051  1.0151
  638MOL0     C87950   3.249  11.336  -0.242 -0.0115 -0.1919  0.3071
  638MOL0    Cl87951   3.276  11.358  -0.426  0.4820  0.0864 -0.1264
  638MOL0     C87952   2.776  10.677   0.128 -0.1935 -0.0018  0.4047
  638MOL0     C87953   2.659  10.641   0.185  0.9734 -0.3960 -0.3119
  638MOL0     O87954   2.639  10.336   0.359 -0.1994  1.4734  0.3304
  638MOL0     C87955   2.454  10.223   0.526 -0.2138  0.9895  0.0435
  638MOL0     C87956   2.356  10.166   0.605 -0.9193  0.3701  0.0570
  638MOL0     N87957   1.659  10.085   0.978 -0.2506  0.5248  0.0554
  638MOL0     N87958   1.561  10.146   1.022  0.3172 -0.9727  0.3471
  638MOL0     C87959   1.046   9.079   1.200  0.4632 -0.4433  0.1957
  638MOL0     C87960   0.979   8.973   1.258 -0.0148  0.3133 -0.2541
  638MOL0     C87961   0.697   8.625   1.239 -0.5800  0.8021 -0.0572
  638MOL0     C87962   0.577   8.585   1.180  0.5763 -0.4992  0.2011
  638MOL0     C87963   0.510   8.469   1.216  0.2212  0.2334 -0.7275
  638MOL0     C87964   0.561   8.396   1.325  0.6388  0.5299 -0.2812
  638MOL0     O87965   0.475   8.291   1.355  0.6048 -0.7475 -0.0577
  638MOL0     C87966   0.512   8.216   1.466 -0.5653  0.3409 -0.0467
  638MOL0     C87967   0.405   8.111   1.510 -0.6273  1.0980 -0.9991
  638MOL0     C87968   0.371   8.012   1.397  0.4630  0.0528  0.8995
  638MOL0     C87969   0.377   7.869   1.445 -0.1683  0.1305 -0.2473
  638MOL0     C87970   0.330   7.782   1.334 -0.1378  0.3259  1.1248
  638MOL0     C87971   0.280   7.708   1.243 -0.7904 -0.2300 -0.2278
  638MOL0     C87972   0.676   8.436   1.395  0.8564 -0.4808 -0.4773
  638MOL0     C87973   0.755   8.548   1.347  0.0201 -0.3395 -0.5512
  638MOL0     C87974   0.887   8.573   1.417 -0.2579  0.5356  0.4012
  638MOL0     H87975   0.656   9.055   1.177  0.5494 -0.8742  0.6306
  638MOL0     H87976   0.772   9.261   1.102  2.4303 -0.6194 -0.8850
  638MOL0     H87977   0.950   9.424   1.242  0.3808  1.6904  0.5114
  638MOL0     H87978   0.866   9.429   1.090 -1.4751 -1.6512  2.8468
  638MOL0     H87979   1.136   9.576   1.153  1.0847  2.9252 -2.1926
  638MOL0     H87980   1.070   9.523   0.996 -1.9214  0.8320 -0.0496
  638MOL0     H87981   0.854   9.636   1.052 -1.6426 -1.0591  2.7241
  638MOL0     H87982   0.923   9.719   1.189 -2.4489  1.0282 -0.7857
  638MOL0     H87983   1.058   9.722   0.903 -1.9603 -2.0554  1.4943
  638MOL0     H87984   0.909   9.816   0.930 -0.1990 -1.2087 -0.5462
  638MOL0     H87985   1.118   9.832   1.128 -1.6225  0.0753  1.2203
  638MOL0     H87986   0.991   9.951   1.086 -1.9097 -1.7182  0.1339
  638MOL0     H87987   1.254   9.901   0.964 -1.7841 -1.1673  2.6082
  638MOL0     H87988   1.132   9.986   0.860  3.1892  0.5900 -2.6926
  638MOL0     H87989   1.259  10.061   1.127 -1.3404 -1.5395 -0.6724
  638MOL0     H87990   1.126  10.162   1.055 -0.1098  0.9206 -0.6914
  638MOL0     H87991   1.271  10.177   0.860 -0.5871 -4.3030 -0.2226
  638MOL0     H87992   1.313  10.271   1.007  0.6485 -1.1689  0.3551
  638MOL0     H87993   1.424   9.961   0.794 -2.9139 -1.5593  2.7129
  638MOL0     H87994   1.652   9.868   0.729  0.1614  0.1404 -0.8332
  638MOL0     H87995   1.778   9.864   0.855 -0.0150  0.1031  0.3740
  638MOL0     H87996   1.847   9.947   0.624 -2.0738 -2.7562  1.3426
  638MOL0     H87997   1.755  10.095   0.662  1.8342  1.7936 -0.2790
  638MOL0     H87998   1.915  10.163   0.827 -2.5027 -0.1828  0.2620
  638MOL0     H87999   1.989   9.991   0.820  1.1031  0.5439  0.2801
  638MOL0     H88000   2.028  10.050   0.577 -4.5667  0.3382 -0.1011
  638MOL0     H88001   1.972  10.213   0.615  2.4252  1.7045 -1.0208
  638MOL0     H88002   2.115  10.396   0.607  0.0088  1.4323 -1.0767
  638MOL0     H88003   2.151  10.573   0.486 -1.3784 -2.9625 -3.6423
  638MOL0     H88004   2.266  10.570   0.356  2.6192  0.1776 -0.1327
  638MOL0     H88005   2.314  10.637   0.514 -1.1395  2.5947 -2.8142
  638MOL0     H88006   2.761  10.529   0.480 -0.0579 -2.9431 -0.5481
  638MOL0     H88007   2.986  10.600   0.389 -0.7733 -0.1817  1.6517
  638MOL0     H88008   3.120  10.814   0.276  0.9125 -0.2062  1.0903
  638MOL0     H88009   3.199  10.672   0.230  0.5008  1.1092  2.7716
  638MOL0     H88010   3.296  10.884   0.143  0.1507  0.0074 -1.3907
  638MOL0     H88011   3.273  10.751   0.026 -0.0277 -0.1040 -1.1119
  638MOL0     H88012   3.056  10.969   0.053 -0.1173  2.8952 -0.7543
  638MOL0     H88013   3.098  10.863  -0.081  1.4159  0.2305  0.2618
  638MOL0     H88014   3.196  11.038  -0.175  1.1779  1.9205  1.0694
  638MOL0     H88015   3.330  10.980  -0.083 -0.2727 -1.0198 -0.1673
  638MOL0     H88016   3.143  11.213  -0.033  1.1343  3.3539  0.8390
  638MOL0     H88017   3.230  11.142   0.098 -0.4178 -2.0986 -0.8898
  638MOL0     H88018   3.449  11.183   0.013  0.9599 -0.2473 -0.0899
  638MOL0     H88019   3.358  11.333   0.037  2.1742 -1.8805  0.6209
  638MOL0     H88020   3.421  11.206  -0.240  1.0070  0.5229 -0.1003
  638MOL0     H88021   3.440  11.376  -0.187 -0.1373  0.3207 -1.7282
  638MOL0     H88022   3.223  11.432  -0.198  0.5482 -0.2654  0.8138
  638MOL0     H88023   3.164  11.267  -0.237  0.9961 -1.5267 -0.2128
  638MOL0     H88024   2.769  10.721   0.028  0.5762  0.2890  0.4743
  638MOL0     H88025   2.571  10.645   0.122  1.5192 -1.4319 -1.1748
  638MOL0     H88026   2.549  10.174   0.508 -0.3075  0.6174  0.5670
  638MOL0     H88027   2.363  10.068   0.652  2.4009  0.0885 -0.7293
  638MOL0     H88028   1.153   9.092   1.192  0.0325  3.6409 -1.3273
  638MOL0     H88029   1.027   8.887   1.302 -0.2730 -0.5150 -1.5192
  638MOL0     H88030   0.535   8.663   1.116  2.3459  1.9307  1.7889
  638MOL0     H88031   0.414   8.447   1.169 -0.2002 -0.2015  0.2893
  638MOL0     H88032   0.598   8.152   1.445 -1.3387 -0.4184 -1.0005
  638MOL0     H88033   0.533   8.270   1.559 -0.5031 -0.9141  0.6856
  638MOL0     H88034   0.313   8.166   1.532  1.2948  3.9620  0.5215
  638MOL0     H88035   0.432   8.069   1.607  0.1255 -1.3964 -2.2169
  638MOL0     H88036   0.266   8.030   1.375 -0.2868 -2.7640  1.7512
  638MOL0     H88037   0.441   8.019   1.313  0.1992 -0.5971  0.6141
  638MOL0     H88038   0.296   7.877   1.519 -1.7162  5.0790 -2.1066
  638MOL0     H88039   0.474   7.838   1.485 -0.6254  0.9826  1.6375
  638MOL0     H88040   0.247   7.632   1.175 -0.4363 -0.8953  0.3314
  638MOL0     H88041   0.713   8.387   1.484 -0.9742  0.4401  0.8377
  638MOL0     H88042   0.863   8.634   1.504 -1.6784  1.1256 -0.3684
  638MOL0     H88043   0.942   8.482   1.442 -0.3690  0.4806  0.4488
  638MOL0     H88044   0.949   8.632   1.349  0.4057  0.5178  0.9850
  639MOL0     O88045   7.516   3.942   3.821 -0.0071  0.1405  0.5444
  639MOL0     C88046   7.495   3.841   3.883  0.5117  0.1574  0.2826
  639MOL0     O88047   7.370   3.796   3.930 -0.5014 -0.2020 -0.5627
  639MOL0     C88048   7.280   3.895   3.942 -0.1142  0.7604  0.1855
  639MOL0     C88049   7.166   3.899   3.856 -0.2030  0.0720  0.1745
  639MOL0     C88050   7.081   4.007   3.840 -0.2414 -0.2256 -0.0014
  639MOL0     C88051   7.084   4.103   3.946 -0.0055 -0.6711 -0.5444
  639MOL0     O88052   7.004   4.206   3.973  1.0101  0.0422 -0.5061
  639MOL0     C88053   6.889   4.229   3.896 -0.3228 -0.3668  0.0462
  639MOL0     C88054   6.822   4.354   3.948  0.0278  0.7930 -0.0438
  639MOL0     C88055   6.690   4.372   3.872 -0.3708 -0.0180 -0.1178
  639MOL0     C88056   6.625   4.499   3.933 -0.1582  0.5866  0.4549
  639MOL0     C88057   6.480   4.523   3.874  0.3465  0.3793  0.0140
  639MOL0     C88058   6.428   4.661   3.892  0.1718 -0.5250 -0.2965
  639MOL0     C88059   6.282   4.667   3.859  0.7759 -0.3106  0.5248
  639MOL0     C88060   6.193   4.763   3.952 -0.3143  0.1584 -0.6510
  639MOL0     N88061   6.046   4.751   3.915  0.1649 -0.0947  0.7331
  639MOL0     C88062   5.954   4.665   3.965 -0.3733 -0.0550 -0.2539
  639MOL0     C88063   5.839   4.701   3.906 -0.6195  0.4880  0.3066
  639MOL0     C88064   5.700   4.643   3.929  0.7666 -0.0996  0.2005
  639MOL0     C88065   5.670   4.490   3.905 -0.2269 -0.2833  0.1036
  639MOL0     C88066   5.524   4.452   3.872 -1.0457 -0.0306  0.8280
  639MOL0     C88067   5.523   4.296   3.882  0.5803 -0.7980 -0.7867
  639MOL0     O88068   5.589   4.221   3.783 -0.3956  0.0055 -0.3265
  639MOL0     C88069   5.548   4.088   3.774 -0.6637 -0.8638 -0.5285
  639MOL0     C88070   5.565   4.015   3.659  0.2472 -0.4038  0.2619
  639MOL0     C88071   5.535   3.886   3.645  0.4386  0.1118 -0.1154
  639MOL0     C88072   5.572   3.828   3.502  0.2309 -1.1110 -0.3216
  639MOL0     C88073   5.488   3.816   3.758 -0.1908 -0.2677  0.0129
  639MOL0     C88074   5.458   3.672   3.765  0.1586  0.1895 -0.1765
  639MOL0     O88075   5.441   3.610   3.888  0.2861  0.2756 -0.1463
  639MOL0     C88076   5.452   3.471   3.896 -0.4736 -0.4704  0.8509
  639MOL0     C88077   5.572   3.405   3.882 -0.4541 -0.1209  0.0279
  639MOL0     C88078   5.578   3.265   3.908  0.2964 -0.2682  0.9918
  639MOL0     C88079   5.463   3.196   3.946  0.5233 -0.7780  1.0041
  639MOL0     O88080   5.484   3.069   3.970 -0.4701 -0.1130 -0.3526
  639MOL0     C88081   5.420   3.017   4.090 -0.1219 -0.4330 -0.5376
  639MOL0     C88082   5.512   2.901   4.126  0.0053  0.8765  0.5047
  639MOL0     C88083   5.639   2.959   4.199  0.2551 -0.6513  0.6748
  639MOL0     C88084   5.728   2.850   4.252 -0.9909  0.6569  0.1802
  639MOL0     C88085   5.864   2.895   4.303  0.0841 -0.7091  0.0356
  639MOL0     C88086   5.856   2.972   4.446  1.6096 -0.1836  0.9518
  639MOL0     C88087   5.992   2.994   4.512 -0.7287 -0.2750 -0.3370
  639MOL0     C88088   5.993   3.039   4.660 -0.1955  0.6879 -0.1504
  639MOL0    Cl88089   6.160   3.093   4.713  0.1474 -0.1686 -0.2331
  639MOL0     C88090   5.341   3.259   3.957 -0.1552  0.0727  0.2710
  639MOL0     C88091   5.328   3.394   3.923 -0.7756 -0.6914  0.4841
  639MOL0     O88092   5.439   3.617   3.654 -0.6242  0.4836  0.7717
  639MOL0     C88093   5.464   3.888   3.872 -0.4497 -0.0288 -0.8160
  639MOL0     C88094   5.499   4.023   3.882  0.9168 -0.1422 -0.0004
  639MOL0     N88095   5.855   4.802   3.818  0.1023 -0.4191  0.0348
  639MOL0     N88096   5.982   4.828   3.818 -0.2218  0.2628 -0.2804
  639MOL0     C88097   7.184   4.089   4.038 -0.0410  0.5735 -1.0315
  639MOL0     C88098   7.279   3.988   4.041 -0.1876 -0.2431 -0.8575
  639MOL0     C88099   7.610   3.753   3.891  0.2188  0.4388  0.1812
  639MOL0     C88100   7.591   3.619   3.902  0.3690 -0.4087 -0.3763
  639MOL0     C88101   7.694   3.521   3.888 -0.6057  0.0692 -0.0459
  639MOL0     C88102   7.830   3.563   3.880 -0.3739  0.2028 -0.0777
  639MOL0     O88103   7.940   3.480   3.873  0.3263 -0.2849 -0.1292
  639MOL0     C88104   7.929   3.358   3.949 -0.6330  0.5680  0.0542
  639MOL0     C88105   8.066   3.301   3.988  0.0555  1.0335  0.0292
  639MOL0     C88106   8.148   3.259   3.861 -0.2119  0.3498 -0.2726
  639MOL0     C88107   8.121   3.123   3.791 -0.4177 -0.4517 -0.3370
  639MOL0     C88108   8.123   2.999   3.878  0.1709 -1.2102  0.7723
  639MOL0     C88109   8.123   2.906   3.945 -0.9868  0.8942 -0.4588
  639MOL0     C88110   7.846   3.700   3.891 -0.2904 -0.5526 -0.7150
  639MOL0     C88111   7.745   3.798   3.901  0.5457  0.1182  0.0167
  639MOL0     C88112   7.791   3.938   3.911  0.2786 -0.1905  0.3210
  639MOL0     H88113   7.159   3.818   3.783 -0.6710 -0.6641  1.0077
  639MOL0     H88114   7.010   4.027   3.760 -0.3050  3.0445  0.7476
  639MOL0     H88115   6.824   4.142   3.911  1.8075 -1.5989  3.1472
  639MOL0     H88116   6.917   4.243   3.791  2.0446  1.3438  0.8288
  639MOL0     H88117   6.804   4.322   4.051 -3.1193  4.9678  0.9405
  639MOL0     H88118   6.891   4.437   3.931  2.7651 -1.4427 -0.8639
  639MOL0     H88119   6.703   4.395   3.766  0.0630 -0.0992 -0.0844
  639MOL0     H88120   6.626   4.284   3.888 -2.5876  1.4488 -0.4236
  639MOL0     H88121   6.623   4.508   4.042 -0.4177  2.2053  0.3353
  639MOL0     H88122   6.692   4.580   3.903 -2.1692  1.5865 -1.6046
  639MOL0     H88123   6.414   4.451   3.922  2.9635 -1.7810  0.6224
  639MOL0     H88124   6.484   4.493   3.769  2.0937 -1.7365  0.5955
  639MOL0     H88125   6.425   4.671   4.001 -1.0689 -1.8409 -0.1871
  639MOL0     H88126   6.484   4.732   3.832  0.1465 -2.1790 -2.3791
  639MOL0     H88127   6.237   4.568   3.847 -1.6493  0.9135 -1.3124
  639MOL0     H88128   6.284   4.718   3.763 -1.4303 -0.9610  0.0857
  639MOL0     H88129   6.212   4.735   4.056  0.4149  3.2063  0.1106
  639MOL0     H88130   6.236   4.862   3.941  1.3187 -0.2181  1.6431
  639MOL0     H88131   5.960   4.578   4.030  1.3488  0.2748  0.0931
  639MOL0     H88132   5.650   4.703   3.852  1.2892  0.8315  0.5601
  639MOL0     H88133   5.671   4.665   4.032 -0.0638  0.2549 -0.0988
  639MOL0     H88134   5.733   4.465   3.819 -0.9489 -3.2254  0.3275
  639MOL0     H88135   5.710   4.441   3.994 -0.6138 -2.0166 -0.6551
  639MOL0     H88136   5.460   4.494   3.950 -0.9183  1.6848  0.0556
  639MOL0     H88137   5.488   4.477   3.772  0.2549 -1.2985  0.0011
  639MOL0     H88138   5.567   4.282   3.982  0.1410  2.1220 -0.1118
  639MOL0     H88139   5.418   4.265   3.883  0.8002 -1.6402 -1.6763
  639MOL0     H88140   5.612   4.081   3.587  0.5483 -2.3208 -1.3905
  639MOL0     H88141   5.656   3.758   3.513 -1.9682 -3.7863  0.6462
  639MOL0     H88142   5.601   3.909   3.434 -1.0051 -0.4067 -0.0325
  639MOL0     H88143   5.481   3.785   3.460 -1.3940  2.6553 -1.0203
  639MOL0     H88144   5.665   3.455   3.857 -0.6660  0.9969  1.3273
  639MOL0     H88145   5.668   3.204   3.914  0.5679  0.1514  1.2866
  639MOL0     H88146   5.433   3.088   4.172  0.1974 -0.5798 -0.4571
  639MOL0     H88147   5.318   2.998   4.056 -1.5922  3.2802  1.2501
  639MOL0     H88148   5.450   2.834   4.186 -3.1231 -4.3408 -6.9933
  639MOL0     H88149   5.531   2.840   4.038  0.4445  1.5657  0.1127
  639MOL0     H88150   5.602   3.028   4.275  3.5306  2.0957 -0.0153
  639MOL0     H88151   5.687   3.032   4.133  0.9567 -0.9177  0.8842
  639MOL0     H88152   5.749   2.779   4.171  0.7658  0.3366  0.8689
  639MOL0     H88153   5.677   2.793   4.330 -0.1487  0.5911  0.6901
  639MOL0     H88154   5.928   2.808   4.315  1.5336 -0.4735 -4.3397
  639MOL0     H88155   5.917   2.952   4.227 -1.7912 -0.8776 -1.4773
  639MOL0     H88156   5.802   2.899   4.506 -3.5992  1.7695 -0.8082
  639MOL0     H88157   5.813   3.072   4.432  1.0481 -0.6993 -1.5490
  639MOL0     H88158   6.056   3.062   4.455  0.5243  1.7354  3.1309
  639MOL0     H88159   6.054   2.904   4.508 -1.9442 -1.2368  1.3245
  639MOL0     H88160   5.955   2.953   4.717  1.3092 -1.4946 -2.2505
  639MOL0     H88161   5.933   3.123   4.695  0.3857  0.0141  2.7534
  639MOL0     H88162   5.261   3.194   3.991  0.6963 -1.1271  0.0430
  639MOL0     H88163   5.232   3.445   3.920 -0.2149  0.4296  1.2265
  639MOL0     H88164   5.431   3.854   3.970 -0.0438  3.4445  0.7130
  639MOL0     H88165   5.471   4.063   3.979 -0.3725 -1.3520  0.1589
  639MOL0     H88166   7.189   4.159   4.120  4.0302 -1.4487  0.7361
  639MOL0     H88167   7.357   3.993   4.116 -1.3433  2.5319  0.2850
  639MOL0     H88168   7.488   3.586   3.891  0.3493 -0.0314 -1.4017
  639MOL0     H88169   7.666   3.417   3.903  0.9853 -0.5117 -0.7771
  639MOL0     H88170   7.863   3.351   4.036 -0.7691 -2.7220 -0.1512
  639MOL0     H88171   7.891   3.287   3.874 -0.0715 -2.1420  2.1633
  639MOL0     H88172   8.044   3.210   4.045 -0.2282 -1.9341 -4.2795
  639MOL0     H88173   8.131   3.366   4.046  0.7824  0.0230  0.3673
  639MOL0     H88174   8.142   3.342   3.791  0.1679 -1.5579 -2.7352
  639MOL0     H88175   8.254   3.253   3.885 -0.5201  2.3496  1.8532
  639MOL0     H88176   8.206   3.125   3.724 -1.1766 -1.9266 -1.3939
  639MOL0     H88177   8.026   3.116   3.738 -1.1951  0.7666  0.8233
  639MOL0     H88178   8.101   2.805   3.974  1.4762 -0.6869 -3.4784
  639MOL0     H88179   7.949   3.731   3.903 -0.2906 -1.2613  1.4743
  639MOL0     H88180   7.731   4.003   3.976 -1.2427 -0.5828 -0.6491
  639MOL0     H88181   7.889   3.938   3.960  0.3010 -2.9770  0.4688
  639MOL0     H88182   7.792   3.971   3.807 -2.6329 -1.8042 -0.3274
  640MOL0     O88183   7.392   5.730   0.738 -0.5436 -0.0385  0.9786
  640MOL0     C88184   7.376   5.645   0.827 -0.1335 -0.4405  0.0566
  640MOL0     O88185   7.331   5.524   0.797  0.5124 -0.1668 -0.0690
  640MOL0     C88186   7.326   5.491   0.659  0.2101  1.5737  0.1179
  640MOL0     C88187   7.432   5.436   0.589 -0.5420 -0.5731 -0.5772
  640MOL0     C88188   7.418   5.397   0.457  0.2445 -0.0866  0.3504
  640MOL0     C88189   7.294   5.414   0.390 -0.0606  0.8141 -0.2697
  640MOL0     O88190   7.294   5.366   0.261  0.1489 -0.2756  0.0400
  640MOL0     C88191   7.191   5.277   0.238  1.2121 -0.1278  0.1873
  640MOL0     C88192   7.068   5.340   0.175 -0.2188  0.5802  0.5262
  640MOL0     C88193   6.971   5.218   0.154  0.7632  0.0198  0.3666
  640MOL0     C88194   6.844   5.253   0.074 -0.0616 -0.0199  0.1452
  640MOL0     C88195   6.794   5.140  -0.009 -1.1077  0.4450  0.1647
  640MOL0     C88196   6.668   5.184  -0.088  0.2726 -0.1362  0.0997
  640MOL0     C88197   6.570   5.060  -0.099  0.0568 -0.2930 -0.8439
  640MOL0     C88198   6.435   5.099  -0.152  0.4636 -0.0446  0.1294
  640MOL0     N88199   6.446   5.203  -0.263 -0.4305  0.1280 -0.5117
  640MOL0     C88200   6.430   5.157  -0.400  0.1102  0.1767 -0.0243
  640MOL0     C88201   6.399   5.271  -0.460  0.2452 -0.1794  0.9587
  640MOL0     C88202   6.390   5.284  -0.612 -1.0684  0.1237 -0.0460
  640MOL0     C88203   6.338   5.421  -0.649  0.4923 -0.1680  0.3897
  640MOL0     C88204   6.438   5.545  -0.633 -0.1866 -0.3861  0.1531
  640MOL0     C88205   6.563   5.554  -0.724 -0.7323 -0.7050  0.3779
  640MOL0     O88206   6.516   5.619  -0.843 -0.0306 -0.9998 -1.0171
  640MOL0     C88207   6.602   5.649  -0.937  0.1266  0.2073  0.6830
  640MOL0     C88208   6.736   5.620  -0.947 -0.1223 -0.2287 -0.6849
  640MOL0     C88209   6.815   5.658  -1.049 -0.1483  0.7336 -0.6296
  640MOL0     C88210   6.956   5.614  -1.040 -0.3898  0.3886  0.0167
  640MOL0     C88211   6.765   5.727  -1.151 -0.3236  0.8211  0.3539
  640MOL0     C88212   6.840   5.783  -1.258  1.3585  1.5769  0.2848
  640MOL0     O88213   6.799   5.770  -1.378 -0.6968 -0.4172  0.5902
  640MOL0     C88214   6.863   5.841  -1.484 -0.1949 -0.1996 -0.0798
  640MOL0     C88215   6.988   5.810  -1.536  0.0020 -0.5698  0.0794
  640MOL0     C88216   7.039   5.876  -1.650 -0.4775  0.7028  0.3504
  640MOL0     C88217   6.954   5.965  -1.720 -0.2011  1.0131  0.3855
  640MOL0     O88218   7.004   6.015  -1.836 -0.2304  0.9429  0.6949
  640MOL0     C88219   6.978   6.145  -1.873  0.4920 -0.0674  0.3496
  640MOL0     C88220   7.096   6.206  -1.945  0.6047 -0.2479  0.5497
  640MOL0     C88221   7.083   6.357  -1.983  1.0866 -0.2816 -0.6037
  640MOL0     C88222   7.183   6.418  -2.084  0.4992 -0.0519  0.1545
  640MOL0     C88223   7.165   6.394  -2.235 -0.3816  0.2917  0.3810
  640MOL0     C88224   7.284   6.471  -2.300  0.2092 -0.2579 -0.5984
  640MOL0     C88225   7.299   6.435  -2.448  0.3473  0.0071  0.0311
  640MOL0     C88226   7.390   6.320  -2.462  0.1409 -0.7576  1.0595
  640MOL0    Cl88227   7.433   6.265  -2.629  0.0491  0.0382 -0.3993
  640MOL0     C88228   6.833   5.995  -1.669  1.4219  0.4908  0.6916
  640MOL0     C88229   6.786   5.927  -1.553 -0.1498  0.3202 -0.5083
  640MOL0     O88230   6.929   5.860  -1.229  0.3443  1.0952 -0.2725
  640MOL0     C88231   6.624   5.763  -1.151 -0.2697 -0.4323  0.3744
  640MOL0     C88232   6.549   5.725  -1.044  0.3308 -0.0226  0.0362
  640MOL0     N88233   6.379   5.379  -0.369 -0.2443  0.7752 -0.1006
  640MOL0     N88234   6.405   5.335  -0.248  0.1633  0.4690  0.4492
  640MOL0     C88235   7.181   5.473   0.457 -0.2579  0.7495  0.3424
  640MOL0     C88236   7.205   5.514   0.592  0.0553  0.1803  0.0206
  640MOL0     C88237   7.369   5.692   0.970 -0.1306  0.0986  0.6172
  640MOL0     C88238   7.257   5.650   1.046  0.3972 -0.3070  1.2125
  640MOL0     C88239   7.213   5.706   1.165  0.1020 -0.6671  0.0350
  640MOL0     C88240   7.288   5.815   1.219  0.2934 -0.5249  0.2657
  640MOL0     O88241   7.254   5.863   1.351  0.4057  0.3431  0.5194
  640MOL0     C88242   7.300   5.993   1.377  0.3576 -0.3035 -0.4359
  640MOL0     C88243   7.184   6.057   1.460 -0.0694 -0.1435 -0.3591
  640MOL0     C88244   7.044   6.039   1.398  0.4526  0.0779  0.0497
  640MOL0     C88245   6.927   6.136   1.447 -0.1563  0.4689 -0.6533
  640MOL0     C88246   6.915   6.123   1.591 -0.6292  0.0180 -0.1050
  640MOL0     C88247   6.903   6.106   1.708  0.4425  0.0149  0.8210
  640MOL0     C88248   7.401   5.861   1.146 -0.0243  0.2188 -0.8034
  640MOL0     C88249   7.439   5.801   1.032 -0.5571 -0.3612  0.6429
  640MOL0     C88250   7.561   5.855   0.957  0.1831  0.2024  0.1243
  640MOL0     H88251   7.524   5.421   0.645 -2.1290  0.5833  2.6130
  640MOL0     H88252   7.500   5.354   0.401  0.8749  0.0499  1.1440
  640MOL0     H88253   7.157   5.212   0.319 -0.8253 -1.2981 -1.4684
  640MOL0     H88254   7.223   5.212   0.156  0.8818 -2.8672  2.0974
  640MOL0     H88255   7.028   5.430   0.223 -2.5930  0.9889 -1.9332
  640MOL0     H88256   7.098   5.381   0.078  2.4443 -3.0569 -0.3952
  640MOL0     H88257   7.030   5.142   0.102 -2.3211  0.0220 -3.5426
  640MOL0     H88258   6.955   5.177   0.255 -0.1572  3.2317  1.6547
  640MOL0     H88259   6.764   5.293   0.136  0.7057  2.2458 -0.2060
  640MOL0     H88260   6.870   5.337   0.008 -0.9164  0.1901  0.0712
  640MOL0     H88261   6.779   5.049   0.049  1.1503 -0.9617 -1.2937
  640MOL0     H88262   6.871   5.107  -0.079 -1.0922 -0.0230  0.3971
  640MOL0     H88263   6.606   5.253  -0.029 -0.3694 -0.4118 -0.2479
  640MOL0     H88264   6.677   5.234  -0.184 -2.5717  3.2320  1.3545
  640MOL0     H88265   6.545   5.031   0.004  1.8171 -0.3713 -0.4071
  640MOL0     H88266   6.612   4.971  -0.145 -1.9422 -1.0232 -1.3399
  640MOL0     H88267   6.373   5.018  -0.193 -0.9174  1.4246 -0.8446
  640MOL0     H88268   6.381   5.168  -0.086 -1.6293 -0.9810 -0.5138
  640MOL0     H88269   6.459   5.061  -0.441  2.1770  1.5279 -1.9550
  640MOL0     H88270   6.322   5.209  -0.652  0.8495 -0.5804 -2.2146
  640MOL0     H88271   6.489   5.268  -0.656 -1.1611 -3.0561  0.7161
  640MOL0     H88272   6.302   5.402  -0.751 -0.2165  2.1645  0.1581
  640MOL0     H88273   6.245   5.452  -0.600  0.9233  2.3377 -0.2145
  640MOL0     H88274   6.383   5.638  -0.648 -1.1009 -0.6373  1.7353
  640MOL0     H88275   6.460   5.546  -0.526 -1.3888 -0.6368  0.4174
  640MOL0     H88276   6.628   5.630  -0.679 -0.5798  1.2350 -2.7911
  640MOL0     H88277   6.615   5.462  -0.750  2.8842  1.5380 -1.0393
  640MOL0     H88278   6.785   5.582  -0.858  1.9350  1.3242 -1.0937
  640MOL0     H88279   6.966   5.526  -0.975 -0.5525  1.4827  1.5796
  640MOL0     H88280   7.036   5.683  -1.010  1.0472  0.0363 -2.7118
  640MOL0     H88281   6.992   5.591  -1.140  1.4545  0.9239  0.5095
  640MOL0     H88282   7.054   5.753  -1.470  1.0538 -0.4508 -0.8330
  640MOL0     H88283   7.137   5.864  -1.694 -1.3242 -1.4229 -1.1534
  640MOL0     H88284   6.884   6.165  -1.925  1.2087 -1.9279 -1.8093
  640MOL0     H88285   6.956   6.209  -1.787 -2.1022 -1.4842  0.8269
  640MOL0     H88286   7.185   6.192  -1.883  1.3821 -0.9666 -0.6978
  640MOL0     H88287   7.094   6.164  -2.046 -1.7117  2.7657 -0.8244
  640MOL0     H88288   7.109   6.413  -1.893  0.8459  2.3330 -2.0544
  640MOL0     H88289   6.979   6.376  -2.012  1.8519  2.3936 -1.9001
  640MOL0     H88290   7.284   6.399  -2.048 -0.3894  0.8303  3.4619
  640MOL0     H88291   7.149   6.520  -2.067 -1.7271 -0.6715 -0.1461
  640MOL0     H88292   7.178   6.290  -2.266 -1.1522 -1.8985  6.2236
  640MOL0     H88293   7.071   6.438  -2.270 -0.1702  0.9804  0.6708
  640MOL0     H88294   7.372   6.483  -2.237 -0.4387 -1.0019  0.4762
  640MOL0     H88295   7.242   6.572  -2.306  1.2308  0.3624  1.8178
  640MOL0     H88296   7.340   6.514  -2.512 -1.8165 -0.0480 -1.5571
  640MOL0     H88297   7.209   6.394  -2.497  1.2395  0.2701 -1.9411
  640MOL0     H88298   7.345   6.233  -2.413 -2.1860 -0.0090  0.3633
  640MOL0     H88299   7.485   6.330  -2.407 -0.9547 -0.5809  3.0282
  640MOL0     H88300   6.769   6.066  -1.720  1.0099 -0.8451 -0.7300
  640MOL0     H88301   6.689   5.953  -1.511 -0.0308  0.5664 -0.3833
  640MOL0     H88302   6.585   5.827  -1.229 -0.4798  0.7449  1.4180
  640MOL0     H88303   6.446   5.756  -1.034  0.4145  0.3950 -0.3820
  640MOL0     H88304   7.082   5.483   0.415  0.4338 -1.0250 -1.8816
  640MOL0     H88305   7.128   5.560   0.653  0.7056 -0.2110  1.1807
  640MOL0     H88306   7.198   5.571   1.000 -1.1657  2.0049 -1.0342
  640MOL0     H88307   7.127   5.676   1.224  1.0189  0.2479  1.9568
  640MOL0     H88308   7.386   5.982   1.444  0.2689 -1.0456 -0.4448
  640MOL0     H88309   7.312   6.050   1.284  0.7699 -1.5442 -1.1610
  640MOL0     H88310   7.210   6.163   1.472  0.7921 -0.3822 -0.0633
  640MOL0     H88311   7.188   6.004   1.556 -2.3036 -0.6287 -0.4698
  640MOL0     H88312   7.068   6.047   1.292  2.2343 -2.7121  0.1454
  640MOL0     H88313   7.015   5.935   1.417  0.5309  0.0182 -0.1582
  640MOL0     H88314   6.832   6.109   1.401  0.3853  0.2309 -1.6838
  640MOL0     H88315   6.954   6.239   1.424 -0.7540  0.5736 -0.9067
  640MOL0     H88316   6.889   6.119   1.814 -1.9306  2.6233  0.3092
  640MOL0     H88317   7.460   5.944   1.182 -0.3098  0.8088 -1.6727
  640MOL0     H88318   7.577   5.956   0.998 -1.5908 -0.3565  2.3766
  640MOL0     H88319   7.643   5.792   0.992 -0.7298 -0.8165  0.4792
  640MOL0     H88320   7.554   5.858   0.848 -0.3760 -2.7162 -0.0017
  641MOL0     O88321   2.235   1.067   7.962 -0.4372  0.9247 -0.1908
  641MOL0     C88322   2.329   1.014   8.031 -0.0222  0.5537 -0.9336
  641MOL0     O88323   2.437   0.937   7.979  0.6485  0.4956 -0.4157
  641MOL0     C88324   2.445   0.950   7.837  0.9139  1.4699 -0.3797
  641MOL0     C88325   2.546   1.025   7.776  0.4392  0.4087  0.5118
  641MOL0     C88326   2.560   1.021   7.631 -0.4766  0.1697 -0.6920
  641MOL0     C88327   2.461   0.953   7.560  0.2621 -0.0440 -0.0634
  641MOL0     O88328   2.468   0.950   7.429  0.1292 -0.9164  0.5186
  641MOL0     C88329   2.572   1.005   7.349 -0.2533 -0.2316 -0.5507
  641MOL0     C88330   2.581   0.961   7.198  0.2207  1.0634 -0.0231
  641MOL0     C88331   2.453   0.979   7.127  0.1344  0.0639 -0.6149
  641MOL0     C88332   2.412   1.129   7.120  0.2478  1.3143  0.2034
  641MOL0     C88333   2.303   1.151   7.005 -0.1663  0.1910 -0.0517
  641MOL0     C88334   2.238   1.292   7.014  0.0248  0.2717 -0.2648
  641MOL0     C88335   2.118   1.310   6.926 -0.0798 -1.2512 -1.1481
  641MOL0     C88336   2.076   1.459   6.925 -0.8505  0.0622 -0.0207
  641MOL0     N88337   1.948   1.469   6.852  0.0681  0.2177 -0.5365
  641MOL0     C88338   1.930   1.416   6.727  0.0083  0.4989 -1.5241
  641MOL0     C88339   1.825   1.481   6.685 -0.1285 -0.5264 -0.9191
  641MOL0     C88340   1.757   1.463   6.553 -0.7199  0.6436 -0.3951
  641MOL0     C88341   1.648   1.565   6.515  0.1735  0.1146  0.0803
  641MOL0     C88342   1.608   1.548   6.369 -0.9783 -0.2995 -0.2120
  641MOL0     C88343   1.491   1.635   6.328 -0.5351  0.5227  0.4843
  641MOL0     O88344   1.530   1.772   6.355  0.1665 -1.0456  0.6535
  641MOL0     C88345   1.429   1.873   6.331 -0.1637  0.8697  0.1698
  641MOL0     C88346   1.439   1.970   6.425  0.0251  0.8649 -1.2662
  641MOL0     C88347   1.348   2.076   6.425 -0.3140 -0.0647  0.4941
  641MOL0     C88348   1.355   2.187   6.528 -0.5944  0.0920  0.1814
  641MOL0     C88349   1.256   2.086   6.318  0.6169 -0.5263  0.1305
  641MOL0     C88350   1.159   2.200   6.314  0.2380  0.1210 -0.2285
  641MOL0     O88351   1.180   2.291   6.215 -0.0068  0.1774  0.0622
  641MOL0     C88352   1.099   2.407   6.211 -0.3626  0.9072 -0.6560
  641MOL0     C88353   1.037   2.425   6.086  0.7371 -0.9610  0.0496
  641MOL0     C88354   0.942   2.532   6.075  0.4979  0.2409 -0.5379
  641MOL0     C88355   0.911   2.609   6.183  0.0337  0.1975 -0.8442
  641MOL0     O88356   0.819   2.710   6.162 -0.4277  0.4158 -0.2152
  641MOL0     C88357   0.810   2.806   6.266  0.0224  0.5993 -0.7049
  641MOL0     C88358   0.719   2.916   6.201  0.3829 -0.1526  0.3221
  641MOL0     C88359   0.801   3.017   6.112  0.3782 -0.6706 -1.8211
  641MOL0     C88360   0.705   3.121   6.057 -0.2051 -0.2369  0.3744
  641MOL0     C88361   0.768   3.223   5.955 -0.0400 -0.0736  0.3210
  641MOL0     C88362   0.661   3.332   5.920  0.2029  0.2319  0.3424
  641MOL0     C88363   0.723   3.426   5.815 -0.4726 -0.2207  0.9573
  641MOL0     C88364   0.636   3.544   5.769  0.0150  0.0454  0.3584
  641MOL0    Cl88365   0.740   3.649   5.675 -0.8933 -0.3963 -0.2097
  641MOL0     C88366   0.976   2.591   6.312  0.3755 -0.9920  0.1074
  641MOL0     C88367   1.068   2.490   6.323 -1.2186  0.2592  0.5361
  641MOL0     O88368   1.068   2.204   6.398  0.2918  0.6771 -0.1627
  641MOL0     C88369   1.248   1.984   6.230 -0.0428  0.7906  0.8503
  641MOL0     C88370   1.335   1.874   6.236  0.0217  0.9863  0.4004
  641MOL0     N88371   1.776   1.567   6.782  0.6866 -0.4204  0.4356
  641MOL0     N88372   1.861   1.562   6.879  0.2856  0.3435 -0.2252
  641MOL0     C88373   2.352   0.885   7.620  0.3326 -0.1632 -0.4497
  641MOL0     C88374   2.352   0.872   7.760  0.1357 -0.6036 -0.1535
  641MOL0     C88375   2.309   1.032   8.177  0.9083  0.4245  0.4556
  641MOL0     C88376   2.314   0.916   8.253  0.6511  0.0657  0.2343
  641MOL0     C88377   2.315   0.912   8.395 -0.5078  0.6920 -0.1767
  641MOL0     C88378   2.312   1.038   8.467 -0.2940  0.3122  0.1456
  641MOL0     O88379   2.293   1.049   8.603  0.5591 -0.4472  0.2842
  641MOL0     C88380   2.281   0.929   8.684 -0.5716 -0.1027  0.2581
  641MOL0     C88381   2.310   0.979   8.827  0.0402 -0.1345 -0.4436
  641MOL0     C88382   2.228   1.101   8.861 -0.0031  0.4869 -0.2390
  641MOL0     C88383   2.276   1.154   8.992  1.7763 -0.3154  0.2363
  641MOL0     C88384   2.228   1.291   9.020  1.4629  0.0156 -0.4535
  641MOL0     C88385   2.188   1.401   9.047  1.2588 -0.2039 -0.5001
  641MOL0     C88386   2.300   1.155   8.389  0.6000  0.8785  0.0636
  641MOL0     C88387   2.295   1.153   8.248 -0.8532  1.1761 -0.5890
  641MOL0     C88388   2.270   1.289   8.178  0.8375  0.1738  0.5162
  641MOL0     H88389   2.618   1.080   7.835  0.5052 -0.5181  1.3093
  641MOL0     H88390   2.641   1.078   7.585 -1.2933  0.3905 -1.8892
  641MOL0     H88391   2.666   0.970   7.392 -0.0981 -1.9053 -2.1406
  641MOL0     H88392   2.578   1.114   7.357  0.1524 -0.1972 -1.2872
  641MOL0     H88393   2.671   1.006   7.156  1.6125  0.3030  2.0109
  641MOL0     H88394   2.592   0.852   7.202 -0.4251  1.0140  0.6634
  641MOL0     H88395   2.468   0.944   7.025 -3.6604 -1.3433 -0.8712
  641MOL0     H88396   2.364   0.923   7.158 -0.0812 -0.5671 -2.2820
  641MOL0     H88397   2.376   1.171   7.215 -3.1294  0.4426 -0.5503
  641MOL0     H88398   2.497   1.187   7.083  1.3701 -0.7070 -0.5220
  641MOL0     H88399   2.225   1.083   7.043  0.9639  0.0010  2.0639
  641MOL0     H88400   2.331   1.115   6.905  4.1727  2.9996 -0.0943
  641MOL0     H88401   2.212   1.310   7.119  0.4459 -0.2494 -0.0629
  641MOL0     H88402   2.314   1.367   6.992 -0.3110  1.7370  2.9845
  641MOL0     H88403   2.032   1.263   6.975 -0.1477  0.2661  0.2914
  641MOL0     H88404   2.132   1.266   6.827 -1.7884  1.1873 -2.5687
  641MOL0     H88405   2.077   1.505   7.024 -1.5307 -0.1757  0.1034
  641MOL0     H88406   2.148   1.518   6.868  4.1066 -1.5720  3.8424
  641MOL0     H88407   1.991   1.336   6.686 -1.6060 -1.1056 -0.9093
  641MOL0     H88408   1.706   1.366   6.553 -1.7481  1.1654 -1.0521
  641MOL0     H88409   1.831   1.456   6.473  0.6349 -1.7482  0.9638
  641MOL0     H88410   1.561   1.567   6.582 -0.4076 -1.2074 -0.5913
  641MOL0     H88411   1.693   1.664   6.520 -2.6056  1.7145 -2.7019
  641MOL0     H88412   1.694   1.571   6.306  0.1201 -2.5399  0.3864
  641MOL0     H88413   1.606   1.443   6.339  2.3877 -0.7804  0.8337
  641MOL0     H88414   1.476   1.632   6.220 -1.1065 -1.1544  0.5804
  641MOL0     H88415   1.405   1.604   6.388 -3.0967 -0.0744 -3.1533
  641MOL0     H88416   1.515   1.961   6.502 -0.2980  2.4246 -0.7227
  641MOL0     H88417   1.442   2.168   6.593  0.8392 -0.8363 -1.8963
  641MOL0     H88418   1.270   2.182   6.596  1.5082  4.7048  3.7310
  641MOL0     H88419   1.358   2.287   6.485 -0.7319  0.7939  1.7234
  641MOL0     H88420   1.057   2.353   6.008  0.3989  0.0758 -1.0354
  641MOL0     H88421   0.884   2.538   5.984 -1.5605 -1.3124  0.5686
  641MOL0     H88422   0.768   2.773   6.361  1.4571  0.7976  0.0199
  641MOL0     H88423   0.908   2.850   6.288  0.8717 -1.4943  0.0311
  641MOL0     H88424   0.639   2.882   6.135 -0.4939  0.6786  0.9407
  641MOL0     H88425   0.674   2.978   6.279  1.0926 -0.4329  0.9774
  641MOL0     H88426   0.842   2.971   6.022  0.7719  0.1803 -2.0828
  641MOL0     H88427   0.877   3.060   6.178 -0.8408 -2.5332  1.0155
  641MOL0     H88428   0.656   3.187   6.129 -0.2003 -0.0556  0.2125
  641MOL0     H88429   0.624   3.076   6.000 -0.4426  0.0798  0.4554
  641MOL0     H88430   0.858   3.273   5.992  0.2155  1.7228 -2.4017
  641MOL0     H88431   0.797   3.175   5.860  1.9307  2.1191 -0.2685
  641MOL0     H88432   0.622   3.389   6.005 -1.0297  1.1679 -0.8138
  641MOL0     H88433   0.586   3.262   5.883  1.1527  0.0006 -1.2107
  641MOL0     H88434   0.770   3.380   5.728  0.9630  2.3334  0.2528
  641MOL0     H88435   0.810   3.479   5.857 -1.2885  0.0793  2.3182
  641MOL0     H88436   0.591   3.602   5.850  0.5894  3.0542 -1.3114
  641MOL0     H88437   0.553   3.512   5.705  2.7304  0.7344 -3.9797
  641MOL0     H88438   0.959   2.649   6.402  2.2195  0.5179 -0.4411
  641MOL0     H88439   1.114   2.461   6.417  4.4985 -3.1203 -2.7217
  641MOL0     H88440   1.174   1.982   6.150  2.2276  2.8946 -1.4451
  641MOL0     H88441   1.339   1.798   6.158  0.4600  0.0288  1.3391
  641MOL0     H88442   2.273   0.844   7.558 -0.3464  0.0667  0.2500
  641MOL0     H88443   2.279   0.818   7.819 -0.0992  1.7469  1.8495
  641MOL0     H88444   2.327   0.825   8.195  2.0246  0.5913 -0.3014
  641MOL0     H88445   2.313   0.825   8.460 -1.4003 -1.3779 -2.8079
  641MOL0     H88446   2.180   0.888   8.689 -1.2911  1.3386 -1.3143
  641MOL0     H88447   2.364   0.861   8.662  1.1042  1.4667  1.4078
  641MOL0     H88448   2.414   1.008   8.840 -0.3913  2.5923 -2.3223
  641MOL0     H88449   2.295   0.895   8.896  4.9478 -0.7506  0.1932
  641MOL0     H88450   2.232   1.184   8.790  0.4724 -0.7823 -1.7491
  641MOL0     H88451   2.126   1.064   8.879  0.6245  0.0281  2.9033
  641MOL0     H88452   2.383   1.174   8.988  1.7377 -0.1847 -0.1724
  641MOL0     H88453   2.262   1.075   9.066 -0.6952 -0.1620  0.0016
  641MOL0     H88454   2.146   1.496   9.071 -0.9244 -0.8749 -1.3543
  641MOL0     H88455   2.290   1.253   8.434 -0.9544  0.6887  0.1737
  641MOL0     H88456   2.213   1.280   8.085  1.1941  0.9740  0.2115
  641MOL0     H88457   2.197   1.342   8.239 -1.7461 -2.0939 -0.4050
  641MOL0     H88458   2.362   1.348   8.181  0.9159  0.0375  0.9109
  642MOL0     O88459   4.828   7.613   4.832  0.4115 -0.1170 -0.2325
  642MOL0     C88460   4.744   7.701   4.811 -0.3565 -0.1293  0.0833
  642MOL0     O88461   4.608   7.709   4.868 -0.0533 -0.2437  0.1276
  642MOL0     C88462   4.575   7.596   4.940  0.9089 -0.7697 -0.4209
  642MOL0     C88463   4.600   7.580   5.075 -0.0343 -0.5829  0.2643
  642MOL0     C88464   4.571   7.460   5.142  0.0819 -0.6520 -0.5560
  642MOL0     C88465   4.502   7.355   5.070 -0.1287  0.2813 -0.2414
  642MOL0     O88466   4.479   7.245   5.146 -0.1565 -0.3414  0.3587
  642MOL0     C88467   4.487   7.119   5.078 -0.0986 -0.0995  0.8394
  642MOL0     C88468   4.505   7.011   5.173  0.4211  0.0481  0.0631
  642MOL0     C88469   4.505   6.874   5.102 -0.2257 -0.3472 -0.1407
  642MOL0     C88470   4.514   6.740   5.188  0.2881  0.4392 -0.2130
  642MOL0     C88471   4.486   6.617   5.101  0.1669 -0.1507 -0.5890
  642MOL0     C88472   4.612   6.575   5.020 -0.2878  0.4388 -0.0082
  642MOL0     C88473   4.589   6.450   4.929  0.5907 -0.1769 -0.7603
  642MOL0     C88474   4.710   6.353   4.935 -0.5435  0.0733 -0.7902
  642MOL0     N88475   4.691   6.227   4.865 -0.5120  0.5220 -0.1519
  642MOL0     C88476   4.607   6.207   4.755  1.4269 -0.1095  0.0455
  642MOL0     C88477   4.614   6.070   4.745  0.1466  0.0794  0.2068
  642MOL0     C88478   4.542   5.982   4.636 -0.3234 -0.2055  0.2586
  642MOL0     C88479   4.448   5.872   4.698  0.4146  0.0782  0.4034
  642MOL0     C88480   4.422   5.765   4.586  0.1940 -0.0431  0.0007
  642MOL0     C88481   4.337   5.656   4.648  0.4670 -0.7350  0.6222
  642MOL0     O88482   4.363   5.533   4.577 -0.9108 -0.8202 -0.1254
  642MOL0     C88483   4.299   5.509   4.457 -0.5492 -0.5421  0.2571
  642MOL0     C88484   4.373   5.512   4.340 -1.6211  0.6272  0.2791
  642MOL0     C88485   4.324   5.463   4.216  0.1490  0.7689 -1.4363
  642MOL0     C88486   4.432   5.445   4.104 -0.6914 -0.0977  1.0129
  642MOL0     C88487   4.181   5.433   4.204  0.0881  1.2863  0.1521
  642MOL0     C88488   4.116   5.396   4.077 -0.0035  0.0541  0.0391
  642MOL0     O88489   4.004   5.311   4.076 -0.0187  0.7019  0.8863
  642MOL0     C88490   3.938   5.282   3.963 -0.1949 -0.4020  0.6103
  642MOL0     C88491   3.920   5.370   3.855  0.2700  0.3111 -0.0234
  642MOL0     C88492   3.846   5.325   3.747  0.5708 -0.5131  0.7086
  642MOL0     C88493   3.779   5.212   3.738  0.4844  0.9239 -0.3844
  642MOL0     O88494   3.704   5.173   3.630 -0.2468  0.2926  0.3087
  642MOL0     C88495   3.636   5.282   3.550  0.0525  0.7638  0.8228
  642MOL0     C88496   3.500   5.233   3.495  0.2319 -0.3641  0.2908
  642MOL0     C88497   3.430   5.325   3.390  0.1629  0.0181  0.0483
  642MOL0     C88498   3.278   5.306   3.402  0.7904 -0.1914  0.2087
  642MOL0     C88499   3.201   5.420   3.327 -0.3575 -0.2438 -0.0310
  642MOL0     C88500   3.231   5.436   3.183  0.8537  0.1809  1.0760
  642MOL0     C88501   3.177   5.560   3.109 -0.3610  0.2804 -0.2902
  642MOL0     C88502   3.177   5.536   2.962  0.3216  0.7931 -0.3224
  642MOL0    Cl88503   3.346   5.544   2.888 -0.0646  0.3326 -0.1923
  642MOL0     C88504   3.796   5.120   3.843 -0.0086 -1.0589  0.2439
  642MOL0     C88505   3.872   5.156   3.958  0.4912 -0.1672  0.6903
  642MOL0     O88506   4.166   5.438   3.976  0.2090  0.0908  0.3634
  642MOL0     C88507   4.109   5.441   4.330  0.5637 -0.1812  0.7680
  642MOL0     C88508   4.164   5.477   4.453  0.0112  0.4260  0.4382
  642MOL0     N88509   4.705   6.021   4.833 -0.2674 -0.2113  0.2094
  642MOL0     N88510   4.755   6.114   4.900  0.7979 -0.6513  0.2097
  642MOL0     C88511   4.468   7.378   4.933 -0.1915  0.1403 -0.0009
  642MOL0     C88512   4.504   7.500   4.877 -0.3887 -0.7213 -1.0462
  642MOL0     C88513   4.784   7.795   4.698 -0.1643  0.5550  0.1398
  642MOL0     C88514   4.734   7.923   4.718  0.7218  0.6301  0.5111
  642MOL0     C88515   4.765   8.027   4.635  0.1926 -0.0036  0.7684
  642MOL0     C88516   4.840   8.001   4.515  0.6505 -0.3367 -0.5085
  642MOL0     O88517   4.886   8.101   4.437 -0.3244 -0.2672 -0.1178
  642MOL0     C88518   4.833   8.233   4.449 -0.1771 -0.0891 -0.4856
  642MOL0     C88519   4.877   8.307   4.325 -0.0037  0.5348  0.9570
  642MOL0     C88520   4.820   8.450   4.314  1.2301 -0.2208 -1.0802
  642MOL0     C88521   4.661   8.458   4.324 -1.0665  0.3900  1.0356
  642MOL0     C88522   4.583   8.386   4.228  0.2190 -0.5045  0.4102
  642MOL0     C88523   4.522   8.334   4.133  0.2003 -0.3689 -0.7686
  642MOL0     C88524   4.889   7.878   4.500  0.4442  0.6290  0.2881
  642MOL0     C88525   4.847   7.765   4.578  0.3010 -0.4866  0.9753
  642MOL0     C88526   4.902   7.634   4.537 -0.2142 -0.7370 -0.6432
  642MOL0     H88527   4.642   7.665   5.129 -0.0035  0.1558 -0.8751
  642MOL0     H88528   4.600   7.455   5.247  1.6809 -0.9448 -0.9849
  642MOL0     H88529   4.564   7.118   4.999 -1.5353  0.9831 -0.6372
  642MOL0     H88530   4.390   7.105   5.030  0.2885  1.2473 -0.4141
  642MOL0     H88531   4.599   7.012   5.228 -0.3323 -2.1363  1.5206
  642MOL0     H88532   4.419   7.024   5.240  1.9977  2.6171  1.7824
  642MOL0     H88533   4.421   6.870   5.032  0.2283  1.4608 -0.8359
  642MOL0     H88534   4.594   6.868   5.039  0.2138  1.4487  0.2612
  642MOL0     H88535   4.612   6.725   5.234 -0.5520 -0.8323  1.3067
  642MOL0     H88536   4.440   6.742   5.269  1.6321 -2.0963  1.2043
  642MOL0     H88537   4.408   6.641   5.029  1.0516  0.2040 -1.4481
  642MOL0     H88538   4.455   6.532   5.164 -1.9326  0.8936 -0.1214
  642MOL0     H88539   4.658   6.663   4.975 -1.0171  1.5335  1.3086
  642MOL0     H88540   4.685   6.547   5.096 -0.0963 -1.1086 -0.7179
  642MOL0     H88541   4.578   6.485   4.826  2.2343 -0.5430 -1.0958
  642MOL0     H88542   4.504   6.390   4.963  0.5588  0.5845  0.5943
  642MOL0     H88543   4.798   6.406   4.898 -0.5231  1.1142  0.6728
  642MOL0     H88544   4.744   6.341   5.038 -1.1307 -0.7538 -0.6804
  642MOL0     H88545   4.536   6.266   4.698 -1.0525 -3.4387 -0.6079
  642MOL0     H88546   4.618   5.941   4.569 -0.6424  2.8942 -2.2165
  642MOL0     H88547   4.484   6.057   4.581  1.3785  0.9260 -0.0622
  642MOL0     H88548   4.509   5.831   4.779  0.3176  1.0782  1.0020
  642MOL0     H88549   4.353   5.907   4.738  1.0028  2.2695  0.0290
  642MOL0     H88550   4.355   5.799   4.506 -1.2174 -1.1847  0.6443
  642MOL0     H88551   4.514   5.723   4.546  2.6249  3.7811  1.0698
  642MOL0     H88552   4.372   5.636   4.750  0.3629 -1.3073  0.5471
  642MOL0     H88553   4.230   5.676   4.652  0.2263 -1.3275 -1.5478
  642MOL0     H88554   4.479   5.534   4.351 -0.8074 -2.0055 -1.4539
  642MOL0     H88555   4.447   5.339   4.081 -2.3400 -0.1957  0.1826
  642MOL0     H88556   4.531   5.475   4.140  1.3152 -1.1964 -2.9757
  642MOL0     H88557   4.405   5.495   4.010  3.2122 -1.7485 -1.2276
  642MOL0     H88558   3.962   5.470   3.846  0.7508 -0.0263 -1.9967
  642MOL0     H88559   3.845   5.395   3.664  0.2485 -0.9756  0.3176
  642MOL0     H88560   3.613   5.367   3.615 -0.2530  1.0801  0.3060
  642MOL0     H88561   3.709   5.317   3.477 -1.3211  0.8887 -0.5299
  642MOL0     H88562   3.495   5.132   3.454 -3.0346 -0.0552 -0.3598
  642MOL0     H88563   3.428   5.232   3.578 -0.0520  1.1884  0.0922
  642MOL0     H88564   3.461   5.292   3.291 -0.1347  0.2893 -0.1348
  642MOL0     H88565   3.467   5.427   3.409  2.2890 -0.9112  1.4022
  642MOL0     H88566   3.244   5.315   3.505 -2.5099  4.3953 -0.9645
  642MOL0     H88567   3.249   5.207   3.364  0.2685 -0.6183  1.6619
  642MOL0     H88568   3.092   5.410   3.326 -0.2682 -1.2842 -1.2538
  642MOL0     H88569   3.235   5.513   3.373  1.9661  2.2345 -5.7259
  642MOL0     H88570   3.189   5.346   3.136 -1.5124  1.1761  1.1527
  642MOL0     H88571   3.340   5.426   3.174  0.7851 -0.1302  0.5314
  642MOL0     H88572   3.238   5.646   3.140  2.5904 -2.2892  1.5971
  642MOL0     H88573   3.074   5.573   3.144 -0.7713 -2.5451 -0.2726
  642MOL0     H88574   3.125   5.618   2.912  1.4843  2.6581  1.4160
  642MOL0     H88575   3.132   5.440   2.932 -1.4030  1.3546  0.3328
  642MOL0     H88576   3.751   5.021   3.835  2.3413 -2.2552  0.7082
  642MOL0     H88577   3.867   5.083   4.038 -2.6695  1.5056  2.2041
  642MOL0     H88578   4.002   5.422   4.332  0.3711  0.1946 -2.0493
  642MOL0     H88579   4.103   5.493   4.541  1.4988  0.4368  1.5065
  642MOL0     H88580   4.403   7.301   4.893 -2.0993  1.0165  1.2030
  642MOL0     H88581   4.476   7.517   4.773 -2.2594 -2.4582 -0.8966
  642MOL0     H88582   4.671   7.937   4.805 -0.6975 -4.4925  0.5991
  642MOL0     H88583   4.732   8.128   4.656  2.6331  1.0931 -0.2949
  642MOL0     H88584   4.724   8.230   4.460  0.0327 -0.9145  1.9363
  642MOL0     H88585   4.866   8.288   4.537  0.1448  0.2468 -0.8129
  642MOL0     H88586   4.836   8.250   4.242 -1.4992  0.5934  1.6185
  642MOL0     H88587   4.986   8.302   4.320  0.0850  1.7551  1.3416
  642MOL0     H88588   4.866   8.515   4.389  2.0878 -3.2101  1.1472
  642MOL0     H88589   4.838   8.492   4.214 -1.6361  1.6495 -0.9300
  642MOL0     H88590   4.639   8.565   4.318  3.5838  1.7436  3.0290
  642MOL0     H88591   4.636   8.433   4.428  0.8653  4.6669  2.7888
  642MOL0     H88592   4.469   8.300   4.046 -0.0733  0.5536 -0.9818
  642MOL0     H88593   4.953   7.866   4.413 -1.3787 -2.0721 -0.8012
  642MOL0     H88594   5.011   7.639   4.532 -0.1803  2.4767  0.7554
  642MOL0     H88595   4.887   7.555   4.611  4.0443  1.1688  2.7141
  642MOL0     H88596   4.874   7.603   4.436 -0.2615 -0.5285 -0.6939
  643MOL0     O88597   6.262   1.711   3.066 -0.2248  0.0785 -0.2025
  643MOL0     C88598   6.229   1.778   2.972 -0.1498 -0.1876  0.4068
  643MOL0     O88599   6.290   1.777   2.841  0.3148 -0.1894  0.1188
  643MOL0     C88600   6.414   1.720   2.814  0.9115  0.2977 -0.0260
  643MOL0     C88601   6.520   1.727   2.905 -0.2178  0.9866  1.1656
  643MOL0     C88602   6.649   1.680   2.879 -0.3861 -1.0289  0.2994
  643MOL0     C88603   6.682   1.628   2.756 -0.4580  0.3783 -0.3430
  643MOL0     O88604   6.803   1.562   2.723  0.1533  0.3006 -0.1620
  643MOL0     C88605   6.914   1.596   2.811 -0.3390 -0.1472  0.1577
  643MOL0     C88606   6.969   1.741   2.794 -0.2783 -0.2211 -0.0870
  643MOL0     C88607   7.036   1.753   2.649 -0.2827 -0.7280 -0.0658
  643MOL0     C88608   7.092   1.896   2.612  0.0672 -0.0709 -0.8044
  643MOL0     C88609   7.187   1.909   2.495  0.2620 -0.3804 -0.0180
  643MOL0     C88610   7.116   1.877   2.365  0.0561 -0.5026 -0.7947
  643MOL0     C88611   7.211   1.917   2.254  0.0974 -0.2170 -0.7562
  643MOL0     C88612   7.180   1.833   2.126  0.5249  0.3650  1.5095
  643MOL0     N88613   7.051   1.870   2.060 -0.1244 -0.8193 -0.2560
  643MOL0     C88614   6.967   1.969   2.088  0.3359  0.2079  0.4456
  643MOL0     C88615   6.870   1.959   1.993  0.3064  0.5481 -0.2289
  643MOL0     C88616   6.751   2.056   1.977  0.1182  0.4877 -0.0918
  643MOL0     C88617   6.678   2.077   2.108  0.9377  0.5712  0.6371
  643MOL0     C88618   6.582   2.196   2.080 -0.6430 -0.1139 -0.7286
  643MOL0     C88619   6.650   2.340   2.101 -0.0822  0.0341 -1.1487
  643MOL0     O88620   6.674   2.356   2.242 -0.7646 -0.4583 -0.0110
  643MOL0     C88621   6.787   2.433   2.268 -0.0743  0.0651 -1.1879
  643MOL0     C88622   6.907   2.365   2.283 -0.7951  0.2873  0.9919
  643MOL0     C88623   7.024   2.441   2.299  0.0780  1.0112 -0.1510
  643MOL0     C88624   7.152   2.360   2.290 -0.7214  0.1052 -0.4989
  643MOL0     C88625   7.026   2.582   2.313  0.6418 -0.5149 -1.0645
  643MOL0     C88626   7.145   2.657   2.341 -0.0477  0.4709  0.9567
  643MOL0     O88627   7.239   2.589   2.426 -0.0831 -0.0471 -0.6422
  643MOL0     C88628   7.340   2.664   2.477 -0.0299 -0.0412 -0.4854
  643MOL0     C88629   7.431   2.728   2.392  0.2197  0.3300 -0.3767
  643MOL0     C88630   7.528   2.811   2.444 -0.2685 -0.3353 -1.5063
  643MOL0     C88631   7.549   2.811   2.587 -0.7225  0.0281 -0.3886
  643MOL0     O88632   7.648   2.893   2.643  0.3319  0.0920  0.3279
  643MOL0     C88633   7.706   2.847   2.767  0.5246  0.3347  0.4475
  643MOL0     C88634   7.814   2.935   2.815 -0.2598 -0.7988  0.9242
  643MOL0     C88635   7.941   2.950   2.719 -0.1877  0.3874  1.0506
  643MOL0     C88636   7.915   3.036   2.593 -0.5444 -0.0590 -0.2024
  643MOL0     C88637   8.044   3.056   2.509 -0.5136 -0.6251 -0.6620
  643MOL0     C88638   8.023   3.009   2.365 -0.0011  0.5146 -0.0302
  643MOL0     C88639   7.932   3.107   2.288 -0.5462  0.5780 -0.3407
  643MOL0     C88640   7.891   3.055   2.157  0.0896 -0.3910  0.0005
  643MOL0    Cl88641   7.757   2.942   2.202 -0.1729  0.0414 -0.1699
  643MOL0     C88642   7.456   2.748   2.664 -0.1567 -0.2661  0.3838
  643MOL0     C88643   7.352   2.681   2.610  0.3672  0.3599 -0.4319
  643MOL0     O88644   7.142   2.771   2.306 -0.3600  0.2898  0.3108
  643MOL0     C88645   6.896   2.651   2.312 -0.0336  0.5841  0.0824
  643MOL0     C88646   6.779   2.578   2.275  0.2409 -0.6014  0.1546
  643MOL0     N88647   6.902   1.860   1.904 -0.3710  0.9777  0.0216
  643MOL0     N88648   7.012   1.812   1.938  0.5378 -0.3306  0.0112
  643MOL0     C88649   6.582   1.620   2.661  0.7417 -0.4486  0.2373
  643MOL0     C88650   6.451   1.661   2.690  0.8570  0.6216  0.9156
  643MOL0     C88651   6.108   1.864   2.973 -0.3130 -0.5313 -0.6185
  643MOL0     C88652   6.047   1.897   2.847  0.0791  0.2965  0.0734
  643MOL0     C88653   5.937   1.970   2.839  0.7258 -0.4543 -0.1133
  643MOL0     C88654   5.878   2.031   2.959  0.0858 -0.6724 -0.0611
  643MOL0     O88655   5.770   2.113   2.957  0.2996  0.0036  0.4464
  643MOL0     C88656   5.731   2.171   2.827  0.5094  0.9308 -0.3558
  643MOL0     C88657   5.643   2.296   2.844  0.6167 -0.3837 -0.9948
  643MOL0     C88658   5.646   2.391   2.717 -0.0971  0.2645 -0.7747
  643MOL0     C88659   5.562   2.337   2.600 -0.0479  0.9382 -0.6766
  643MOL0     C88660   5.416   2.303   2.627  0.0957  0.5783 -0.1369
  643MOL0     C88661   5.301   2.267   2.654 -0.8158 -0.9538 -0.6850
  643MOL0     C88662   5.930   2.003   3.084 -0.2598  0.4428 -0.4612
  643MOL0     C88663   6.045   1.909   3.088  0.0284 -0.3117 -0.3653
  643MOL0     C88664   6.095   1.870   3.230  0.3692 -0.3008 -1.0691
  643MOL0     H88665   6.496   1.774   3.000 -3.1977 -0.2698  1.1533
  643MOL0     H88666   6.723   1.692   2.957 -0.4879 -1.7176  0.5170
  643MOL0     H88667   6.993   1.522   2.797  0.3147  0.2190  1.6947
  643MOL0     H88668   6.892   1.574   2.916  1.1096 -0.9034  0.3239
  643MOL0     H88669   6.897   1.822   2.812 -1.4107 -1.6838  2.6336
  643MOL0     H88670   7.041   1.750   2.875  2.6910 -1.1510 -2.4267
  643MOL0     H88671   7.117   1.679   2.641 -1.2688 -2.1445  2.2385
  643MOL0     H88672   6.960   1.731   2.574 -0.3768  0.9662 -0.5174
  643MOL0     H88673   6.998   1.951   2.604 -2.3767 -3.6936  0.1920
  643MOL0     H88674   7.155   1.924   2.697  3.8316 -1.7579 -2.7734
  643MOL0     H88675   7.281   1.859   2.523  1.2368  0.1549 -2.1588
  643MOL0     H88676   7.202   2.017   2.487 -1.4031 -0.1818 -0.8415
  643MOL0     H88677   7.088   1.772   2.372  3.7480 -1.6937 -1.5821
  643MOL0     H88678   7.021   1.932   2.361 -1.3602 -2.8859 -2.7256
  643MOL0     H88679   7.315   1.899   2.282  0.5415  2.5188 -0.4232
  643MOL0     H88680   7.199   2.024   2.233  2.1699  0.1945 -0.0356
  643MOL0     H88681   7.250   1.848   2.044  0.7498  0.8228  1.7766
  643MOL0     H88682   7.177   1.727   2.154  2.0216 -0.0436  0.2918
  643MOL0     H88683   6.960   2.041   2.169 -3.4380  0.7119 -0.1444
  643MOL0     H88684   6.686   2.019   1.897 -0.0811 -0.3315  0.4334
  643MOL0     H88685   6.785   2.155   1.946 -0.4365  1.1555  1.3586
  643MOL0     H88686   6.617   1.990   2.134 -0.8478  0.5457 -3.0004
  643MOL0     H88687   6.748   2.095   2.190  2.7025 -2.5527 -0.0145
  643MOL0     H88688   6.523   2.174   1.990 -0.6779 -0.7123 -0.5607
  643MOL0     H88689   6.518   2.173   2.165  0.8155 -0.8492  0.1974
  643MOL0     H88690   6.737   2.345   2.035 -0.9789 -2.7008 -2.7252
  643MOL0     H88691   6.578   2.414   2.065 -1.5571 -0.3393  0.8320
  643MOL0     H88692   6.915   2.257   2.280  0.0730  0.3311 -1.8336
  643MOL0     H88693   7.131   2.276   2.223 -0.5333  2.2992 -3.4813
  643MOL0     H88694   7.198   2.329   2.385 -0.4175  4.4528  0.9872
  643MOL0     H88695   7.221   2.429   2.241 -2.2305  0.5679 -2.0466
  643MOL0     H88696   7.420   2.715   2.285  1.6317 -0.5069 -0.4343
  643MOL0     H88697   7.599   2.876   2.395 -0.3236  0.2999 -0.7588
  643MOL0     H88698   7.642   2.839   2.855  2.4872  3.0255  2.2927
  643MOL0     H88699   7.738   2.744   2.750  1.8123  1.2536 -4.0192
  643MOL0     H88700   7.772   3.033   2.839 -2.7696 -1.6383  0.3537
  643MOL0     H88701   7.844   2.886   2.908  0.7845 -1.4684  0.2550
  643MOL0     H88702   7.957   2.847   2.686 -2.8697 -0.0011  0.7165
  643MOL0     H88703   8.024   2.982   2.783 -1.0429 -0.6577  2.7277
  643MOL0     H88704   7.870   3.130   2.626  1.7525  0.8850  0.4407
  643MOL0     H88705   7.844   2.984   2.529 -1.5638  1.0068  0.0241
  643MOL0     H88706   8.071   3.162   2.499 -1.3497 -0.0451  2.2674
  643MOL0     H88707   8.125   3.002   2.559 -0.4546  0.2426  0.2177
  643MOL0     H88708   7.987   2.906   2.359 -3.6828  1.7311 -1.5575
  643MOL0     H88709   8.122   3.009   2.317  0.3401 -2.7847  0.4725
  643MOL0     H88710   7.996   3.193   2.265  1.1430 -1.1237 -2.4080
  643MOL0     H88711   7.837   3.137   2.334 -1.0297 -0.3814 -0.6888
  643MOL0     H88712   7.985   3.023   2.110 -1.5065 -0.9292 -3.0506
  643MOL0     H88713   7.855   3.139   2.098 -2.9491  0.9227  3.3584
  643MOL0     H88714   7.461   2.760   2.771  1.6913 -0.0727  0.3015
  643MOL0     H88715   7.268   2.643   2.668 -1.7224 -1.1170 -4.0405
  643MOL0     H88716   6.890   2.759   2.326  0.3764  0.3814  2.1804
  643MOL0     H88717   6.682   2.626   2.267  1.0439  1.0546 -0.1914
  643MOL0     H88718   6.614   1.582   2.565  2.8948 -0.9144  1.0788
  643MOL0     H88719   6.387   1.668   2.603  1.3927 -1.0811  0.3473
  643MOL0     H88720   6.099   1.862   2.759  1.2361 -0.8081  1.1449
  643MOL0     H88721   5.890   1.981   2.742  0.3335 -0.4178  0.0777
  643MOL0     H88722   5.827   2.194   2.781  2.0195 -2.6217  0.6576
  643MOL0     H88723   5.680   2.096   2.766 -2.6963  2.1004  0.6882
  643MOL0     H88724   5.681   2.348   2.932 -0.2068  0.6346 -1.2178
  643MOL0     H88725   5.540   2.266   2.866  0.0251  1.4662 -1.1315
  643MOL0     H88726   5.595   2.477   2.760 -0.6445 -1.4092  2.1961
  643MOL0     H88727   5.750   2.421   2.699  0.3087 -1.4862 -1.5926
  643MOL0     H88728   5.605   2.243   2.564 -0.5077 -0.1925  1.5538
  643MOL0     H88729   5.566   2.411   2.520  0.9393  0.6404 -0.9139
  643MOL0     H88730   5.200   2.235   2.671 -1.6355  0.8117 -1.9624
  643MOL0     H88731   5.896   2.047   3.177  2.6923 -1.0915  1.4835
  643MOL0     H88732   6.199   1.891   3.255  0.6096 -1.7180 -0.7588
  643MOL0     H88733   6.039   1.925   3.307  2.2016 -0.9695  0.8290
  643MOL0     H88734   6.077   1.765   3.257 -0.8957  0.3122  0.7166
  644MOL0     O88735   1.229  11.418   8.787  0.6499  0.0006 -0.0892
  644MOL0     C88736   1.310  11.481   8.857 -0.7661  0.5794 -0.4439
  644MOL0     O88737   1.285  11.569   8.956  0.0797  0.2643  0.2387
  644MOL0     C88738   1.158  11.616   8.946 -0.3691  0.6428  0.6103
  644MOL0     C88739   1.135  11.719   8.844  0.5278 -0.0768 -0.3695
  644MOL0     C88740   1.020  11.790   8.847  0.5273  0.4846 -0.0918
  644MOL0     C88741   0.922  11.760   8.937 -0.1154  0.1607 -0.6758
  644MOL0     O88742   0.814  11.840   8.933  0.1333  0.0408 -0.5614
  644MOL0     C88743   0.731  11.839   9.048 -0.2059 -0.4934  0.0565
  644MOL0     C88744   0.630  11.956   9.020  0.7632  0.8664 -0.6565
  644MOL0     C88745   0.487  11.918   9.010 -0.2588 -0.7254 -0.3820
  644MOL0     C88746   0.394  12.041   8.989 -0.1126  0.1950 -0.0772
  644MOL0     C88747   0.292  12.040   9.103 -0.2596 -0.4231  0.3894
  644MOL0     C88748   0.195  11.929   9.118  0.2602  0.3637  0.9394
  644MOL0     C88749   0.083  11.954   9.220 -0.4788  0.0947  0.0735
  644MOL0     C88750   0.130  11.947   9.364 -0.6179  0.3834 -0.1297
  644MOL0     N88751   0.025  11.973   9.467  0.2134  0.5084 -0.5248
  644MOL0     C88752  -0.092  11.906   9.472  0.1620  0.4369 -0.2427
  644MOL0     C88753  -0.169  11.970   9.556 -0.3267  0.1797  0.3932
  644MOL0     C88754  -0.318  11.935   9.586 -1.0553 -0.1864 -0.0378
  644MOL0     C88755  -0.379  12.020   9.704 -0.0890  0.2395  1.0665
  644MOL0     C88756  -0.298  11.990   9.826 -0.6410  0.2936 -0.1651
  644MOL0     C88757  -0.353  12.052   9.957 -0.5104  0.7502  0.6839
  644MOL0     O88758  -0.402  12.185   9.925  0.7414  0.1951  0.2265
  644MOL0     C88759  -0.468  12.238  10.024  0.4776 -0.0646 -0.0063
  644MOL0     C88760  -0.413  12.336  10.103  1.0218 -0.5395 -0.4357
  644MOL0     C88761  -0.485  12.411  10.198  0.1273 -0.5188  0.3209
  644MOL0     C88762  -0.395  12.524  10.257  0.2674  0.1438 -0.4205
  644MOL0     C88763  -0.617  12.375  10.231 -0.4305 -0.4942 -0.0073
  644MOL0     C88764  -0.685  12.447  10.341 -0.6557 -0.1992  0.8833
  644MOL0     O88765  -0.820  12.430  10.332 -0.4895  0.6073 -0.0961
  644MOL0     C88766  -0.922  12.489  10.410 -0.9629  0.0057 -0.7918
  644MOL0     C88767  -0.895  12.571  10.518 -0.0630  0.4654  0.8860
  644MOL0     C88768  -0.995  12.601  10.611  0.8855 -0.8650  0.3833
  644MOL0     C88769  -1.124  12.560  10.587  1.1556 -0.0850  0.1061
  644MOL0     O88770  -1.228  12.577  10.678 -0.4470  0.4664 -0.8031
  644MOL0     C88771  -1.308  12.686  10.627  0.6090 -0.4885  0.3004
  644MOL0     C88772  -1.442  12.696  10.702  0.4963 -0.3870 -0.7087
  644MOL0     C88773  -1.545  12.597  10.663  0.3911 -0.0730 -0.0124
  644MOL0     C88774  -1.668  12.593  10.753 -0.2800 -0.3000 -0.2092
  644MOL0     C88775  -1.787  12.513  10.703 -0.0703  1.1124 -0.7126
  644MOL0     C88776  -1.919  12.561  10.765 -0.8109 -0.7336 -0.4865
  644MOL0     C88777  -1.917  12.592  10.917 -0.6518 -0.8651  0.1853
  644MOL0     C88778  -1.888  12.468  11.000 -0.3758  0.0859 -0.3524
  644MOL0    Cl88779  -1.995  12.322  10.961  0.4771  0.4758  0.1237
  644MOL0     C88780  -1.151  12.475  10.477 -0.2967 -1.8528 -0.5376
  644MOL0     C88781  -1.050  12.443  10.389  0.0136 -0.3595 -0.0942
  644MOL0     O88782  -0.623  12.519  10.419 -0.2269 -0.5082  0.2118
  644MOL0     C88783  -0.679  12.273  10.153  0.3989  0.4618 -0.7566
  644MOL0     C88784  -0.605  12.208  10.052  0.1488 -0.2538  0.3627
  644MOL0     N88785  -0.099  12.077   9.611  0.0196 -0.1363 -0.4601
  644MOL0     N88786   0.018  12.076   9.560  0.0623 -0.5041  0.1535
  644MOL0     C88787   0.955  11.677   9.039 -0.3429 -0.3930  0.4094
  644MOL0     C88788   1.069  11.599   9.045  0.5393  0.6688  0.0540
  644MOL0     C88789   1.458  11.450   8.827 -0.7363  0.3960 -0.4925
  644MOL0     C88790   1.498  11.340   8.752 -0.0541 -0.1610 -0.8949
  644MOL0     C88791   1.621  11.300   8.727  0.0053 -0.3886 -0.2923
  644MOL0     C88792   1.729  11.359   8.795  0.3280 -0.1524 -0.1879
  644MOL0     O88793   1.856  11.308   8.776 -0.2977  0.5322 -0.2814
  644MOL0     C88794   1.961  11.401   8.749  0.1026 -0.3056 -0.0042
  644MOL0     C88795   2.100  11.335   8.729 -0.1292 -0.7177 -0.4615
  644MOL0     C88796   2.223  11.420   8.758 -0.3857 -0.4360  0.2417
  644MOL0     C88797   2.233  11.559   8.686 -0.2000  0.2630  0.3776
  644MOL0     C88798   2.372  11.614   8.683  0.4824 -0.4081  0.7860
  644MOL0     C88799   2.486  11.644   8.672 -0.3115 -0.6362 -0.1125
  644MOL0     C88800   1.703  11.471   8.873  0.6249 -0.3345  0.3138
  644MOL0     C88801   1.568  11.523   8.887  0.3305  0.9972  0.2348
  644MOL0     C88802   1.567  11.642   8.977 -0.6063 -0.4743  0.3224
  644MOL0     H88803   1.213  11.731   8.770 -0.4301 -2.9643 -1.9659
  644MOL0     H88804   1.012  11.875   8.781  1.2365 -0.9816 -2.1547
  644MOL0     H88805   0.796  11.863   9.132  0.4254  2.1656 -1.0793
  644MOL0     H88806   0.670  11.751   9.066 -0.4444 -0.5694 -1.0265
  644MOL0     H88807   0.640  12.036   9.094 -0.6735  0.5752 -0.1201
  644MOL0     H88808   0.649  11.994   8.919  0.9959 -0.3358 -1.0907
  644MOL0     H88809   0.478  11.855   8.921  0.0697  3.0901 -3.4031
  644MOL0     H88810   0.460  11.846   9.088 -1.6446 -0.6835 -0.7998
  644MOL0     H88811   0.447  12.136   8.997 -3.0384  2.1465 -2.2078
  644MOL0     H88812   0.348  12.031   8.890 -1.8397  1.5325  0.5498
  644MOL0     H88813   0.229  12.129   9.097 -0.8162 -0.9295 -1.9311
  644MOL0     H88814   0.347  12.070   9.194 -0.9037 -2.7221  1.6079
  644MOL0     H88815   0.157  11.907   9.017  4.1716 -0.2443 -0.5862
  644MOL0     H88816   0.247  11.838   9.148  0.3170 -0.8202 -2.3218
  644MOL0     H88817   0.008  11.879   9.192  1.0054  0.3272 -5.7251
  644MOL0     H88818   0.029  12.048   9.207 -0.6061  0.1187  0.7210
  644MOL0     H88819   0.170  11.848   9.388  2.7889  1.3785 -1.1041
  644MOL0     H88820   0.210  12.020   9.382  1.6217 -2.0784  0.5722
  644MOL0     H88821  -0.120  11.813   9.425 -1.5112  1.0699 -0.5566
  644MOL0     H88822  -0.307  11.828   9.608  1.1749 -0.4694 -2.1482
  644MOL0     H88823  -0.377  11.940   9.494 -4.8239 -2.8593  1.9517
  644MOL0     H88824  -0.365  12.124   9.673  0.1953  0.4464  1.8452
  644MOL0     H88825  -0.484  11.991   9.710 -0.5091  1.7032  1.3089
  644MOL0     H88826  -0.292  11.882   9.837  2.1160  0.2646 -1.0546
  644MOL0     H88827  -0.193  12.019   9.812  0.0832 -1.1291  1.9228
  644MOL0     H88828  -0.439  11.998   9.999 -0.7016  2.8637  3.2048
  644MOL0     H88829  -0.288  12.050  10.045  0.2322 -1.3317  0.1470
  644MOL0     H88830  -0.308  12.358  10.087  0.7975 -0.0516 -1.3036
  644MOL0     H88831  -0.359  12.499  10.357 -0.7666 -0.6611 -0.2374
  644MOL0     H88832  -0.440  12.623  10.253  1.4799  0.7279 -0.1477
  644MOL0     H88833  -0.302  12.543  10.202 -0.1331 -0.7881 -1.4661
  644MOL0     H88834  -0.801  12.620  10.541 -0.0959  1.3045 -0.6535
  644MOL0     H88835  -0.969  12.664  10.697 -1.8080 -0.1406  0.7426
  644MOL0     H88836  -1.258  12.781  10.649 -1.7239  0.9911 -0.3882
  644MOL0     H88837  -1.332  12.670  10.522  1.1721 -1.2382  0.2848
  644MOL0     H88838  -1.427  12.666  10.806 -1.3143 -0.9504 -0.5767
  644MOL0     H88839  -1.478  12.799  10.694  0.3394 -0.4117 -0.3389
  644MOL0     H88840  -1.493  12.502  10.647  1.0157  0.8236 -4.5553
  644MOL0     H88841  -1.574  12.616  10.560  0.1145 -2.6203 -0.4621
  644MOL0     H88842  -1.710  12.694  10.758  0.1392 -0.1845  1.8376
  644MOL0     H88843  -1.643  12.567  10.857  0.2279  0.5684 -0.1105
  644MOL0     H88844  -1.775  12.514  10.595  3.8315  2.0266 -0.4188
  644MOL0     H88845  -1.773  12.410  10.737 -1.6554  0.3595 -2.2429
  644MOL0     H88846  -1.997  12.486  10.746 -3.3357  1.1545  1.7004
  644MOL0     H88847  -1.947  12.643  10.698 -2.5204 -1.7565 -1.0767
  644MOL0     H88848  -2.021  12.623  10.936 -1.2619 -2.0938 -0.9293
  644MOL0     H88849  -1.850  12.673  10.943  1.4105 -2.2369 -0.6287
  644MOL0     H88850  -1.901  12.483  11.108 -0.2235 -0.7904 -0.2019
  644MOL0     H88851  -1.781  12.449  10.989 -0.1108 -0.5538  2.4474
  644MOL0     H88852  -1.249  12.434  10.453  1.1951 -3.7589 -3.9792
  644MOL0     H88853  -1.071  12.359  10.323  2.5169  0.5844 -2.2532
  644MOL0     H88854  -0.783  12.248  10.173  0.0471  3.0379  1.0845
  644MOL0     H88855  -0.656  12.132   9.994 -1.1190 -0.6333  1.8811
  644MOL0     H88856   0.901  11.659   9.131 -0.6428  0.4451  0.4134
  644MOL0     H88857   1.088  11.530   9.126  4.7064 -0.0193 -1.2611
  644MOL0     H88858   1.421  11.282   8.701 -2.6538  1.8530  0.5208
  644MOL0     H88859   1.625  11.216   8.659 -4.7354 -1.1738  0.1098
  644MOL0     H88860   1.930  11.461   8.662 -3.4928  0.3719  1.5529
  644MOL0     H88861   1.985  11.470   8.830  0.1111  1.2625 -1.2752
  644MOL0     H88862   2.112  11.304   8.625 -0.6833  0.1570 -0.7891
  644MOL0     H88863   2.100  11.246   8.793  1.8772 -0.6355 -0.2645
  644MOL0     H88864   2.236  11.436   8.866 -0.2595  2.4829 -0.1267
  644MOL0     H88865   2.308  11.361   8.722  0.2173 -1.0476  2.5029
  644MOL0     H88866   2.162  11.624   8.738  0.4484  0.1977  1.3794
  644MOL0     H88867   2.192  11.556   8.585 -1.3779 -2.1887  0.8493
  644MOL0     H88868   2.590  11.671   8.674 -0.0075 -1.6371  2.5063
  644MOL0     H88869   1.790  11.519   8.916 -0.7176  0.4213  2.3358
  644MOL0     H88870   1.670  11.649   9.014  0.6518  1.5991 -3.0722
  644MOL0     H88871   1.528  11.735   8.933 -1.6013 -0.2404  1.6361
  644MOL0     H88872   1.514  11.629   9.072  3.2655 -0.1564  2.7618
  645MOL0     O88873   9.989   0.718   0.467 -0.1283  0.9881 -0.3462
  645MOL0     C88874   9.905   0.663   0.401  0.3797  0.0561  0.4773
  645MOL0     O88875   9.929   0.618   0.275 -0.3868 -0.1749  0.5807
  645MOL0     C88876  10.043   0.620   0.201 -0.3498 -0.7818  0.7817
  645MOL0     C88877  10.024   0.565   0.069 -0.3033 -0.4927 -0.2625
  645MOL0     C88878  10.134   0.548  -0.019 -0.2751 -0.2024  0.1969
  645MOL0     C88879  10.263   0.591   0.022  0.6176 -0.1963 -0.2043
  645MOL0     O88880  10.365   0.593  -0.074 -0.0122 -0.6813  0.1630
  645MOL0     C88881  10.490   0.639  -0.026 -0.7577 -0.3378  0.7092
  645MOL0     C88882  10.604   0.651  -0.124  0.1612 -0.4756  0.1609
  645MOL0     C88883  10.657   0.503  -0.139 -0.7750 -0.3721  0.2168
  645MOL0     C88884  10.766   0.521  -0.251  1.0288  0.7042 -0.5755
  645MOL0     C88885  10.809   0.379  -0.292  0.4764  0.2884 -0.0423
  645MOL0     C88886  10.910   0.384  -0.413  0.1279 -0.3488  0.2031
  645MOL0     C88887  11.020   0.277  -0.415  0.2708  0.4609  0.2479
  645MOL0     C88888  11.134   0.286  -0.527  0.5881  0.4572 -0.9630
  645MOL0     N88889  11.103   0.263  -0.670  1.1997 -0.8829 -0.7696
  645MOL0     C88890  10.994   0.213  -0.737 -0.2883 -0.6590  0.3061
  645MOL0     C88891  11.033   0.216  -0.865 -0.9099  0.4257  1.1776
  645MOL0     C88892  10.954   0.168  -0.987  0.4240 -0.2087 -0.2400
  645MOL0     C88893  10.881   0.281  -1.058  0.3189 -0.3663 -0.6932
  645MOL0     C88894  10.797   0.234  -1.174 -0.0975 -0.3002  0.6382
  645MOL0     C88895  10.714   0.349  -1.237 -0.1327  0.2443 -1.0059
  645MOL0     O88896  10.617   0.297  -1.329 -0.7600  0.0765  0.0076
  645MOL0     C88897  10.651   0.212  -1.441  0.3962 -0.2338 -0.0456
  645MOL0     C88898  10.771   0.227  -1.518 -0.0121  0.0528 -0.8299
  645MOL0     C88899  10.794   0.154  -1.635  0.9709  0.5696 -1.0039
  645MOL0     C88900  10.923   0.180  -1.711 -0.0108 -0.3411 -0.3025
  645MOL0     C88901  10.696   0.064  -1.684 -0.4850  0.1377  0.2652
  645MOL0     C88902  10.711  -0.024  -1.807  0.6578 -0.5638 -0.3159
  645MOL0     O88903  10.611  -0.121  -1.823 -0.7265  0.3175 -0.1000
  645MOL0     C88904  10.615  -0.214  -1.923 -0.6112  0.3230  0.7103
  645MOL0     C88905  10.565  -0.195  -2.057  0.2613  0.0198 -0.0324
  645MOL0     C88906  10.568  -0.307  -2.146 -1.0512 -0.3659 -0.5470
  645MOL0     C88907  10.624  -0.431  -2.111  0.2726  0.2648  0.3702
  645MOL0     O88908  10.644  -0.533  -2.191 -0.6036 -0.5009  0.3404
  645MOL0     C88909  10.588  -0.526  -2.323 -0.7400  0.1941 -0.4422
  645MOL0     C88910  10.652  -0.640  -2.396  0.8933  0.2729 -0.5714
  645MOL0     C88911  10.593  -0.646  -2.538  0.4469  0.0701  0.5259
  645MOL0     C88912  10.618  -0.774  -2.605 -0.6242 -0.4869 -0.0918
  645MOL0     C88913  10.547  -0.781  -2.744  0.3865  1.1216  0.3663
  645MOL0     C88914  10.552  -0.918  -2.803  0.0152 -0.1052  0.9845
  645MOL0     C88915  10.489  -0.947  -2.938  0.4033  1.0684 -0.5511
  645MOL0     C88916  10.471  -1.098  -2.965 -0.0062 -0.6546 -0.6818
  645MOL0    Cl88917  10.323  -1.152  -2.882  0.1849 -0.0642 -0.0183
  645MOL0     C88918  10.686  -0.447  -1.985  0.1638  1.1917 -0.1619
  645MOL0     C88919  10.687  -0.338  -1.903  0.1016  0.2885 -0.4697
  645MOL0     O88920  10.825  -0.041  -1.864  0.5529 -0.4036  0.1148
  645MOL0     C88921  10.582   0.046  -1.601 -0.7557 -0.0617  0.2929
  645MOL0     C88922  10.557   0.115  -1.488 -0.4270  0.5228 -0.6871
  645MOL0     N88923  11.160   0.262  -0.875  0.0337 -0.5357  0.1413
  645MOL0     N88924  11.201   0.304  -0.761  0.3536 -0.2295  0.3150
  645MOL0     C88925  10.280   0.638   0.158 -0.3684 -0.7679  0.7295
  645MOL0     C88926  10.172   0.656   0.242  0.8948 -0.0869 -0.2994
  645MOL0     C88927   9.764   0.638   0.450 -0.2829  0.2718 -0.2760
  645MOL0     C88928   9.680   0.552   0.380  0.1550  0.6811  0.0524
  645MOL0     C88929   9.549   0.528   0.419  0.5291 -0.5630  0.9033
  645MOL0     C88930   9.491   0.592   0.526 -0.0873  0.4807  0.1068
  645MOL0     O88931   9.357   0.572   0.541 -0.5840  0.1740  0.6374
  645MOL0     C88932   9.278   0.642   0.641  0.3799 -0.8147  0.4633
  645MOL0     C88933   9.140   0.578   0.645 -0.4254  0.1192 -0.5901
  645MOL0     C88934   9.153   0.438   0.706 -0.4617 -0.3709 -0.1476
  645MOL0     C88935   9.103   0.328   0.617  0.2536 -0.2749 -0.6593
  645MOL0     C88936   8.953   0.330   0.609 -0.2306  0.6581 -0.6813
  645MOL0     C88937   8.830   0.349   0.603 -0.4540  0.1352 -0.2794
  645MOL0     C88938   9.570   0.679   0.602  0.8266 -0.1901  0.5645
  645MOL0     C88939   9.709   0.704   0.567  1.0401 -0.8401  0.5484
  645MOL0     C88940   9.775   0.814   0.650 -0.4861  0.6966  0.4178
  645MOL0     H88941   9.929   0.520   0.043 -0.2962 -1.7305  1.6721
  645MOL0     H88942  10.121   0.512  -0.120  2.2971  1.9191 -1.0084
  645MOL0     H88943  10.520   0.574   0.056 -1.2599 -1.8935 -0.3112
  645MOL0     H88944  10.477   0.739   0.016  3.6759 -0.0550  1.9634
  645MOL0     H88945  10.568   0.697  -0.216  0.2260  2.5784  1.5221
  645MOL0     H88946  10.688   0.712  -0.088  1.5489 -2.4225  0.3735
  645MOL0     H88947  10.701   0.468  -0.045 -4.6903 -3.7285  1.0805
  645MOL0     H88948  10.575   0.437  -0.169 -0.4630 -0.4806 -0.4289
  645MOL0     H88949  10.728   0.579  -0.335 -0.6787 -0.2366 -0.4945
  645MOL0     H88950  10.841   0.571  -0.190  1.3997 -0.1076 -0.3541
  645MOL0     H88951  10.727   0.323  -0.338 -1.2058  0.8705  2.0686
  645MOL0     H88952  10.856   0.323  -0.210  2.6896  0.9973 -0.7498
  645MOL0     H88953  10.853   0.373  -0.506  0.1801  3.4567 -0.4157
  645MOL0     H88954  10.965   0.478  -0.414 -0.9351  0.4096 -3.4417
  645MOL0     H88955  10.975   0.178  -0.429  0.7634  0.0789  1.2785
  645MOL0     H88956  11.055   0.277  -0.311 -3.7241  1.9730  1.8060
  645MOL0     H88957  11.189   0.380  -0.526 -1.3196  1.6391  0.0052
  645MOL0     H88958  11.203   0.204  -0.505  3.4491  2.8424 -0.5271
  645MOL0     H88959  10.903   0.164  -0.703 -3.0897  1.2263 -3.6927
  645MOL0     H88960  10.874   0.107  -0.944 -1.2247  1.6715 -0.5305
  645MOL0     H88961  11.003   0.103  -1.060  0.1534 -0.5613 -0.1081
  645MOL0     H88962  10.818   0.342  -0.993 -0.1923 -1.7307  0.1353
  645MOL0     H88963  10.962   0.346  -1.092 -0.0493  0.6921  0.3904
  645MOL0     H88964  10.859   0.193  -1.254  0.8604  4.6624 -1.5272
  645MOL0     H88965  10.725   0.165  -1.129 -2.3395  1.0190 -0.7647
  645MOL0     H88966  10.650   0.399  -1.164  1.6975 -1.4265  1.8931
  645MOL0     H88967  10.775   0.425  -1.288  1.0161  0.2634  0.3463
  645MOL0     H88968  10.844   0.297  -1.480 -2.7819  0.8514  3.7716
  645MOL0     H88969  10.889   0.206  -1.811 -2.2358  0.1025  0.5120
  645MOL0     H88970  10.979   0.086  -1.718 -0.4000 -0.7011  1.1262
  645MOL0     H88971  10.990   0.254  -1.666  3.0634 -2.4375 -1.1189
  645MOL0     H88972  10.537  -0.095  -2.089  0.7701  0.3083  0.4178
  645MOL0     H88973  10.526  -0.307  -2.246 -2.0514 -2.0101 -0.1627
  645MOL0     H88974  10.479  -0.537  -2.332 -0.4695 -1.0923 -4.4075
  645MOL0     H88975  10.626  -0.434  -2.369  0.4483 -0.8524 -1.6594
  645MOL0     H88976  10.761  -0.630  -2.400  0.7742  3.1559  0.9830
  645MOL0     H88977  10.630  -0.727  -2.333  0.0060  0.6999 -0.2735
  645MOL0     H88978  10.619  -0.557  -2.595 -3.3807  1.5046  0.7687
  645MOL0     H88979  10.484  -0.640  -2.527  0.3091 -1.7761  0.6215
  645MOL0     H88980  10.586  -0.852  -2.536  1.9819 -1.7646 -0.2092
  645MOL0     H88981  10.727  -0.776  -2.618 -0.5001  2.1653 -0.1209
  645MOL0     H88982  10.441  -0.756  -2.733  0.2613  0.2761  1.1465
  645MOL0     H88983  10.591  -0.710  -2.815 -0.3204  1.3887  0.1827
  645MOL0     H88984  10.521  -0.988  -2.724 -0.3915 -0.1734  0.7718
  645MOL0     H88985  10.661  -0.915  -2.813  0.0541  1.7505  1.6209
  645MOL0     H88986  10.550  -0.907  -3.019 -0.0188 -2.5006 -2.8738
  645MOL0     H88987  10.388  -0.910  -2.957  1.5495  3.3416 -2.7123
  645MOL0     H88988  10.561  -1.159  -2.951  0.5263 -0.3086 -2.3828
  645MOL0     H88989  10.454  -1.094  -3.073  0.8250 -0.2917 -0.8020
  645MOL0     H88990  10.737  -0.539  -1.957 -0.9959  1.1441  1.9899
  645MOL0     H88991  10.747  -0.347  -1.813  4.9989 -0.7405 -3.4472
  645MOL0     H88992  10.494  -0.014  -1.624 -1.4087  0.6042  0.9801
  645MOL0     H88993  10.470   0.110  -1.423 -0.0316  1.8380 -0.0193
  645MOL0     H88994  10.386   0.653   0.177  0.2781  0.7475 -3.0330
  645MOL0     H88995  10.185   0.705   0.338 -2.5695  0.2244  0.1696
  645MOL0     H88996   9.707   0.507   0.285 -3.3809 -3.5069  0.7139
  645MOL0     H88997   9.481   0.468   0.361  1.3392  1.5460 -2.5583
  645MOL0     H88998   9.321   0.627   0.741 -2.3796 -2.4959  1.4935
  645MOL0     H88999   9.258   0.749   0.628 -1.4394 -1.3427 -1.5492
  645MOL0     H89000   9.099   0.573   0.544 -1.4778 -0.6081 -0.1436
  645MOL0     H89001   9.061   0.627   0.702 -1.6757  2.2037 -3.8825
  645MOL0     H89002   9.258   0.412   0.724 -0.7735 -0.2972  2.0683
  645MOL0     H89003   9.121   0.444   0.811  1.0207 -0.2629  0.3224
  645MOL0     H89004   9.126   0.224   0.642 -1.4063 -0.7961 -1.1601
  645MOL0     H89005   9.144   0.340   0.516  1.0701  0.5530 -0.2421
  645MOL0     H89006   8.723   0.344   0.594 -0.5996 -2.2042  1.7118
  645MOL0     H89007   9.535   0.730   0.691  3.4898 -0.2665  1.7686
  645MOL0     H89008   9.859   0.774   0.708  1.1419 -0.8276 -2.7664
  645MOL0     H89009   9.821   0.887   0.584 -1.5165  0.4496 -0.6143
  645MOL0     H89010   9.707   0.862   0.722  1.1071  1.2104  1.6310
  646MOL0     O89011  11.344   2.365   0.602  1.0501  0.5388 -0.2383
  646MOL0     C89012  11.272   2.273   0.553  0.1801 -0.2074 -0.3044
  646MOL0     O89013  11.183   2.198   0.618 -0.3236  0.2276 -0.4693
  646MOL0     C89014  11.138   2.241   0.740 -0.7541 -0.2183  0.5600
  646MOL0     C89015  11.165   2.161   0.853 -0.2858  0.6766  0.1404
  646MOL0     C89016  11.121   2.184   0.983  0.2819  0.1986 -0.1526
  646MOL0     C89017  11.023   2.287   1.003  0.0331 -0.2671  0.2539
  646MOL0     O89018  10.984   2.322   1.131 -0.2650  0.2081 -0.6935
  646MOL0     C89019  10.932   2.207   1.206  1.1479 -0.2065  0.7260
  646MOL0     C89020  10.874   2.247   1.338  0.1129  0.1134  0.2774
  646MOL0     C89021  10.873   2.141   1.453 -0.4337  0.2551 -0.1151
  646MOL0     C89022  10.780   2.184   1.565  0.3292 -0.4342  0.4796
  646MOL0     C89023  10.794   2.099   1.683 -0.1833  0.1487  0.7645
  646MOL0     C89024  10.722   2.173   1.795 -0.1018 -0.2012 -0.3508
  646MOL0     C89025  10.673   2.068   1.892 -0.3624  0.2199 -0.1227
  646MOL0     C89026  10.569   2.130   1.985  0.2555 -0.0358  0.9697
  646MOL0     N89027  10.436   2.121   1.914 -0.4470  0.2786 -0.4809
  646MOL0     C89028  10.341   2.219   1.919 -0.0116  0.2263 -0.7324
  646MOL0     C89029  10.232   2.171   1.848  0.1636 -0.3185 -0.8088
  646MOL0     C89030  10.123   2.265   1.803 -0.6214 -0.9826  0.4880
  646MOL0     C89031   9.986   2.223   1.853  0.9132  0.6543  0.5039
  646MOL0     C89032   9.942   2.306   1.972  0.3056  0.4126 -0.1947
  646MOL0     C89033   9.814   2.253   2.021 -0.1623  1.0030  0.2278
  646MOL0     O89034   9.837   2.149   2.110 -0.1060  0.9502 -0.5919
  646MOL0     C89035   9.744   2.111   2.209  0.6823 -0.5640 -0.7845
  646MOL0     C89036   9.628   2.199   2.226 -0.1316  0.0016 -0.2958
  646MOL0     C89037   9.547   2.171   2.335 -0.6795  0.1326  0.0636
  646MOL0     C89038   9.418   2.251   2.326  0.0753  0.3791  0.5471
  646MOL0     C89039   9.579   2.078   2.434 -0.9217 -0.2089  0.7947
  646MOL0     C89040   9.503   2.067   2.562  0.7210  0.0538 -0.6058
  646MOL0     O89041   9.369   2.090   2.572 -0.7663  0.0898 -0.4030
  646MOL0     C89042   9.310   2.110   2.695 -0.2744  0.7132  0.3712
  646MOL0     C89043   9.299   1.999   2.781 -0.0118 -0.0021 -0.6891
  646MOL0     C89044   9.224   2.016   2.901 -0.2866  0.2714 -0.4145
  646MOL0     C89045   9.161   2.137   2.935 -0.8427 -0.4629 -0.1506
  646MOL0     O89046   9.084   2.161   3.042  0.0894  0.6707 -0.3903
  646MOL0     C89047   9.062   2.049   3.133  0.3024 -0.2249  0.3778
  646MOL0     C89048   8.942   2.085   3.230 -0.1665  0.7225 -0.6373
  646MOL0     C89049   8.884   1.968   3.298 -0.1102 -0.3826 -1.0289
  646MOL0     C89050   8.793   2.009   3.416 -0.4624  0.0191 -1.2858
  646MOL0     C89051   8.703   1.893   3.454  0.8382 -0.4865  0.5316
  646MOL0     C89052   8.604   1.935   3.560  0.0306  0.4445 -0.8898
  646MOL0     C89053   8.504   1.826   3.598 -0.7031 -1.0807  0.7871
  646MOL0     C89054   8.551   1.713   3.700  0.2260 -0.1777 -0.2183
  646MOL0    Cl89055   8.668   1.758   3.824  0.3749 -0.0639  0.1439
  646MOL0     C89056   9.178   2.256   2.840 -0.0992  0.9584 -0.5837
  646MOL0     C89057   9.249   2.232   2.720 -0.9940  0.2772 -0.5826
  646MOL0     O89058   9.572   2.037   2.659  0.9176  0.2116  0.7429
  646MOL0     C89059   9.700   1.998   2.416  0.4091  0.1149 -0.1601
  646MOL0     C89060   9.780   2.011   2.303  0.6576  0.0012 -0.7741
  646MOL0     N89061  10.260   2.041   1.809  0.5454 -0.1423 -0.7652
  646MOL0     N89062  10.371   2.013   1.863  0.2052 -0.0364  0.4976
  646MOL0     C89063  10.986   2.365   0.895  0.6999 -0.0874  0.3223
  646MOL0     C89064  11.042   2.345   0.767  0.3269  0.3080 -0.2354
  646MOL0     C89065  11.306   2.241   0.418  0.1361  0.2317 -0.1577
  646MOL0     C89066  11.420   2.293   0.356 -0.5823  0.0085 -0.1829
  646MOL0     C89067  11.461   2.265   0.224  0.9231  0.1361  0.3891
  646MOL0     C89068  11.386   2.168   0.151  0.4799  1.1828 -0.7563
  646MOL0     O89069  11.416   2.104   0.036 -0.2622 -0.6209 -0.7861
  646MOL0     C89070  11.535   2.161  -0.032  0.3134  0.7359 -0.2809
  646MOL0     C89071  11.567   2.084  -0.162  0.8859 -0.0735  0.0390
  646MOL0     C89072  11.459   2.089  -0.272  1.1373 -0.6563 -0.1131
  646MOL0     C89073  11.513   2.009  -0.387  0.2594 -0.3796 -1.5243
  646MOL0     C89074  11.431   2.025  -0.510 -0.5007 -0.8202  0.0181
  646MOL0     C89075  11.370   2.051  -0.613 -0.9711 -0.8773 -0.6269
  646MOL0     C89076  11.276   2.111   0.217  0.4017 -0.7285 -0.2973
  646MOL0     C89077  11.229   2.154   0.342 -0.3748  0.3340 -0.5944
  646MOL0     C89078  11.093   2.099   0.381  0.0860  0.4532  1.0986
  646MOL0     H89079  11.234   2.077   0.844  0.4772  0.9790  2.5592
  646MOL0     H89080  11.163   2.107   1.047  0.0419 -0.6025 -0.9465
  646MOL0     H89081  11.018   2.139   1.210  2.4005  1.0633 -1.9828
  646MOL0     H89082  10.853   2.156   1.149  1.2866 -1.9090  1.9869
  646MOL0     H89083  10.945   2.325   1.368 -0.8438  1.0965  0.0968
  646MOL0     H89084  10.773   2.287   1.323  0.4101  0.2879 -1.4130
  646MOL0     H89085  10.838   2.044   1.416 -0.3052  0.1879 -0.0625
  646MOL0     H89086  10.974   2.130   1.494  0.0725  0.3279 -1.2803
  646MOL0     H89087  10.802   2.289   1.585 -1.7095 -0.5511  4.2940
  646MOL0     H89088  10.676   2.184   1.534  0.0850  2.3400  1.0691
  646MOL0     H89089  10.900   2.087   1.703 -0.1041 -1.9895 -0.6970
  646MOL0     H89090  10.753   1.999   1.670 -0.3363  0.3229 -0.1410
  646MOL0     H89091  10.801   2.237   1.836  1.1273 -2.5067  1.1163
  646MOL0     H89092  10.637   2.239   1.776 -1.2392 -0.6184  2.7325
  646MOL0     H89093  10.751   2.027   1.958 -1.0462 -1.4134 -0.2980
  646MOL0     H89094  10.628   1.978   1.850 -0.6791  0.0741  0.5082
  646MOL0     H89095  10.564   2.062   2.070 -1.3495 -2.9089 -1.2478
  646MOL0     H89096  10.590   2.228   2.030 -0.5544 -1.4996  4.9778
  646MOL0     H89097  10.348   2.325   1.940 -4.8029  0.3421  1.4300
  646MOL0     H89098  10.121   2.258   1.694 -0.2365  0.3845  0.3700
  646MOL0     H89099  10.145   2.368   1.834  1.6021 -1.5122  0.8717
  646MOL0     H89100   9.913   2.242   1.773 -0.5125  1.5135  1.9499
  646MOL0     H89101   9.983   2.117   1.882  1.7382  0.4018 -0.2864
  646MOL0     H89102  10.014   2.311   2.054  0.6910  1.4960 -0.5886
  646MOL0     H89103   9.932   2.409   1.936 -0.5215  1.5858  3.0238
  646MOL0     H89104   9.755   2.340   2.053  0.5272  0.6935  2.5131
  646MOL0     H89105   9.759   2.210   1.937 -1.2581  0.1821  1.3284
  646MOL0     H89106   9.604   2.289   2.172 -1.1924  1.2661  2.1176
  646MOL0     H89107   9.379   2.275   2.226 -1.2746 -4.0806 -0.1927
  646MOL0     H89108   9.433   2.342   2.384  0.5905  0.9730 -0.4801
  646MOL0     H89109   9.337   2.187   2.359 -0.8715  1.2460 -0.0402
  646MOL0     H89110   9.345   1.905   2.752 -1.1074 -1.0046  0.7323
  646MOL0     H89111   9.208   1.927   2.961 -2.6567  0.3666 -0.8356
  646MOL0     H89112   9.035   1.959   3.077  1.7169 -0.2220 -0.3694
  646MOL0     H89113   9.153   2.035   3.192  3.7143  1.0131 -4.0314
  646MOL0     H89114   8.971   2.157   3.308  1.5969 -0.0501 -0.5529
  646MOL0     H89115   8.861   2.120   3.164  0.0112 -1.2812 -1.9835
  646MOL0     H89116   8.952   1.897   3.346 -0.5951  1.1648  2.2054
  646MOL0     H89117   8.815   1.917   3.230 -2.0534  2.2684 -1.2003
  646MOL0     H89118   8.731   2.096   3.391 -2.5399 -1.8789 -3.2544
  646MOL0     H89119   8.850   2.043   3.502 -0.9420 -0.2112 -0.8732
  646MOL0     H89120   8.646   1.856   3.368 -0.7060 -1.0225  1.7360
  646MOL0     H89121   8.760   1.807   3.491  0.3326 -1.6989 -1.3350
  646MOL0     H89122   8.541   2.016   3.524 -1.3313  0.7252  1.8523
  646MOL0     H89123   8.650   1.967   3.654  1.6855  1.9733 -2.1276
  646MOL0     H89124   8.466   1.773   3.511  1.6338 -1.5307 -0.0312
  646MOL0     H89125   8.422   1.882   3.643 -0.1716 -0.6705  1.2704
  646MOL0     H89126   8.601   1.637   3.639  0.7003  1.5326 -2.0650
  646MOL0     H89127   8.463   1.660   3.738  0.1012 -0.1781 -0.5026
  646MOL0     H89128   9.129   2.351   2.857 -2.7388 -0.4872  0.6504
  646MOL0     H89129   9.258   2.311   2.646 -3.7959 -1.0787 -2.5606
  646MOL0     H89130   9.716   1.921   2.492 -1.5509 -0.5592 -0.3745
  646MOL0     H89131   9.866   1.954   2.270  1.1984  0.8653 -0.9072
  646MOL0     H89132  10.905   2.436   0.905 -1.2217 -2.0581 -0.3676
  646MOL0     H89133  11.005   2.406   0.685 -0.5616  1.1557  0.7669
  646MOL0     H89134  11.481   2.363   0.412 -3.4018  2.0413  0.5953
  646MOL0     H89135  11.559   2.300   0.192  2.8455 -0.5779  4.8142
  646MOL0     H89136  11.517   2.269  -0.042  1.6494  1.1954  1.7273
  646MOL0     H89137  11.624   2.144   0.029  0.8910 -0.4200 -1.4084
  646MOL0     H89138  11.609   1.983  -0.153 -0.0847 -0.6969 -2.0256
  646MOL0     H89139  11.656   2.137  -0.198  1.7459 -1.8888 -0.6471
  646MOL0     H89140  11.365   2.043  -0.240  0.2113  1.5985  0.6031
  646MOL0     H89141  11.428   2.191  -0.296 -2.2511 -2.1582 -3.0543
  646MOL0     H89142  11.525   1.904  -0.359  1.6010  0.1922  0.2240
  646MOL0     H89143  11.614   2.041  -0.413  0.1835 -0.2984 -1.7262
  646MOL0     H89144  11.324   2.078  -0.707 -2.5864 -2.8372 -0.4821
  646MOL0     H89145  11.221   2.027   0.177 -0.8061 -0.0572 -0.0827
  646MOL0     H89146  11.036   2.183   0.422 -2.4155 -0.9573  0.6453
  646MOL0     H89147  11.030   2.065   0.299  2.9420  1.9978 -2.0258
  646MOL0     H89148  11.123   2.012   0.440  0.7348 -0.4640 -0.5174
  647MOL0     O89149   1.772  11.511   1.723  0.5359 -0.2364  0.1680
  647MOL0     C89150   1.733  11.400   1.696  0.6241  0.2392  0.0249
  647MOL0     O89151   1.612  11.373   1.634 -0.3433 -0.4879 -0.3524
  647MOL0     C89152   1.553  11.454   1.539 -0.0402  0.5343 -0.5226
  647MOL0     C89153   1.427  11.416   1.502 -0.5241 -0.8085  0.6908
  647MOL0     C89154   1.358  11.483   1.408  0.3790  0.0558  0.3077
  647MOL0     C89155   1.398  11.610   1.367 -1.0958  0.7820  1.0235
  647MOL0     O89156   1.306  11.671   1.285 -0.4676 -0.2195  0.0031
  647MOL0     C89157   1.303  11.812   1.275 -0.6002 -0.0925 -0.2516
  647MOL0     C89158   1.162  11.856   1.252  0.8006  0.6486  0.3062
  647MOL0     C89159   1.082  11.873   1.380 -1.3341  0.8578 -0.4249
  647MOL0     C89160   1.108  12.001   1.467 -0.7110  0.6320  0.5600
  647MOL0     C89161   0.995  12.049   1.550  0.5502 -0.6982 -0.7222
  647MOL0     C89162   1.037  12.162   1.647 -0.0650  0.6910  0.4046
  647MOL0     C89163   1.127  12.099   1.759  0.2683 -0.0079  0.1262
  647MOL0     C89164   1.151  12.194   1.863  0.7152  0.0676 -0.8761
  647MOL0     N89165   1.208  12.326   1.829 -0.5472  0.3526 -0.5531
  647MOL0     C89166   1.339  12.349   1.796 -0.4507 -0.2587  0.0116
  647MOL0     C89167   1.345  12.478   1.767  0.2015 -1.0261  0.9399
  647MOL0     C89168   1.466  12.563   1.737  0.3372 -0.8772 -0.0656
  647MOL0     C89169   1.451  12.647   1.611 -0.3751 -0.0264 -0.4901
  647MOL0     C89170   1.446  12.554   1.492 -0.7077  0.7549 -0.5900
  647MOL0     C89171   1.394  12.638   1.380 -0.0179 -0.3202 -1.0296
  647MOL0     O89172   1.443  12.587   1.266  0.1344  0.0117  0.6132
  647MOL0     C89173   1.535  12.664   1.195  0.9211 -0.1829  0.0355
  647MOL0     C89174   1.496  12.759   1.096 -1.0826 -0.2260 -0.5075
  647MOL0     C89175   1.598  12.823   1.016  0.1248 -1.1261  0.4540
  647MOL0     C89176   1.565  12.925   0.910 -0.6495  0.1857  0.1052
  647MOL0     C89177   1.732  12.773   1.023 -0.7463 -1.1688  0.2894
  647MOL0     C89178   1.848  12.831   0.942 -0.2278 -0.1075 -0.1136
  647MOL0     O89179   1.833  12.861   0.813 -0.1587 -0.4245 -0.5301
  647MOL0     C89180   1.951  12.896   0.752 -0.2254  0.6239  0.5286
  647MOL0     C89181   2.017  13.015   0.776 -0.7393 -0.1314 -0.1453
  647MOL0     C89182   2.131  13.055   0.710 -1.1211  0.9019  1.0588
  647MOL0     C89183   2.179  12.954   0.612 -0.5296 -0.5152  0.6656
  647MOL0     O89184   2.297  12.986   0.556  0.4530  0.7251  0.7768
  647MOL0     C89185   2.317  12.953   0.424 -0.6517 -0.6592  0.0241
  647MOL0     C89186   2.468  12.968   0.377 -0.3608  0.5072  0.1674
  647MOL0     C89187   2.475  13.114   0.321 -0.0197 -0.0692 -0.4122
  647MOL0     C89188   2.615  13.157   0.277 -0.8062 -0.3441  0.4618
  647MOL0     C89189   2.668  13.104   0.144 -0.2601 -0.8951 -0.1020
  647MOL0     C89190   2.571  13.144   0.020  0.7085  0.0819 -0.6831
  647MOL0     C89191   2.556  13.299  -0.006 -0.1594  0.6422 -0.5015
  647MOL0     C89192   2.454  13.330  -0.114 -0.2469 -0.8810 -0.0670
  647MOL0    Cl89193   2.541  13.264  -0.261  0.1975 -0.4156 -0.0000
  647MOL0     C89194   2.107  12.836   0.590  0.0925 -0.0578  0.5770
  647MOL0     C89195   1.996  12.808   0.658  0.6435  0.2542 -0.6780
  647MOL0     O89196   1.955  12.826   1.004  0.7403 -0.6606  1.0505
  647MOL0     C89197   1.760  12.677   1.117  0.7877 -0.9246  0.4625
  647MOL0     C89198   1.666  12.624   1.200  0.9556 -0.7478 -0.0226
  647MOL0     N89199   1.216  12.528   1.780  0.1033 -0.1280 -0.1164
  647MOL0     N89200   1.135  12.435   1.819 -0.2572 -0.2374  0.5713
  647MOL0     C89201   1.528  11.661   1.404  0.1164 -0.2703  0.7849
  647MOL0     C89202   1.607  11.577   1.482 -0.0002  0.4895  0.4195
  647MOL0     C89203   1.795  11.274   1.749 -0.4905  1.3882 -1.4557
  647MOL0     C89204   1.706  11.161   1.784 -0.7518 -0.4466 -0.2506
  647MOL0     C89205   1.767  11.040   1.830  0.2906 -0.1350 -0.0648
  647MOL0     C89206   1.907  11.025   1.841 -0.0586 -0.8263 -0.2268
  647MOL0     O89207   1.965  10.913   1.895 -0.3437  0.1636 -0.1435
  647MOL0     C89208   1.879  10.846   1.994  0.3552 -0.1248  0.1705
  647MOL0     C89209   1.943  10.740   2.090 -0.4267 -0.5015 -1.0710
  647MOL0     C89210   2.040  10.655   2.012  0.0074 -0.4117  0.0704
  647MOL0     C89211   2.118  10.542   2.090  0.9499  1.1136  0.0875
  647MOL0     C89212   2.226  10.479   2.001  0.1158  0.3780 -0.2893
  647MOL0     C89213   2.305  10.434   1.925 -0.2975  0.6297  0.2173
  647MOL0     C89214   1.981  11.137   1.809 -0.2001  0.3626  0.4118
  647MOL0     C89215   1.937  11.259   1.755 -0.3002 -0.2518  0.5741
  647MOL0     C89216   2.033  11.365   1.716  0.1583 -0.1779 -0.0483
  647MOL0     H89217   1.387  11.320   1.534  0.8737 -1.9308 -0.7328
  647MOL0     H89218   1.263  11.445   1.373  0.1925  3.7876 -4.1558
  647MOL0     H89219   1.374  11.857   1.206  0.4799 -1.2325  0.0894
  647MOL0     H89220   1.337  11.843   1.374  0.3647 -2.0403  0.0677
  647MOL0     H89221   1.177  11.947   1.194  0.5344 -0.1670 -1.0670
  647MOL0     H89222   1.123  11.773   1.194  0.6909  1.1403 -0.3312
  647MOL0     H89223   0.976  11.865   1.353 -1.6372  2.6777  0.0663
  647MOL0     H89224   1.110  11.782   1.433 -2.5043  1.2221  0.9091
  647MOL0     H89225   1.203  11.974   1.514  0.9863  1.4267 -2.1799
  647MOL0     H89226   1.133  12.084   1.400  2.8814 -1.9055 -1.5886
  647MOL0     H89227   0.959  11.967   1.613  2.1638 -2.6324 -2.1650
  647MOL0     H89228   0.920  12.085   1.479  1.2483  2.6268  0.0593
  647MOL0     H89229   1.097  12.232   1.587  0.5797 -0.5404 -0.4442
  647MOL0     H89230   0.951  12.207   1.697 -1.3986  1.5202 -2.4406
  647MOL0     H89231   1.224  12.066   1.722  0.7928  1.4507  0.1417
  647MOL0     H89232   1.075  12.012   1.799  1.7765  0.0618  2.4338
  647MOL0     H89233   1.052  12.206   1.908  0.5329 -2.8902 -0.2986
  647MOL0     H89234   1.206  12.145   1.944  1.2802 -0.9891 -1.8687
  647MOL0     H89235   1.418  12.275   1.787 -1.7644 -2.0146  2.1488
  647MOL0     H89236   1.556  12.500   1.732  2.1060  1.5233  0.0384
  647MOL0     H89237   1.488  12.614   1.831 -1.3900 -2.4744  1.3052
  647MOL0     H89238   1.353  12.695   1.625 -1.8059 -3.0547  1.1075
  647MOL0     H89239   1.544  12.704   1.607 -1.1964  1.6122  1.7026
  647MOL0     H89240   1.545  12.512   1.472  0.9667  0.6988  5.7430
  647MOL0     H89241   1.377  12.475   1.525 -1.0707  0.9863 -0.7932
  647MOL0     H89242   1.285  12.635   1.367  0.1448 -0.3486 -2.5467
  647MOL0     H89243   1.421  12.743   1.390 -0.7388 -0.1844 -0.3821
  647MOL0     H89244   1.392  12.788   1.089 -1.2048  0.6272  3.0244
  647MOL0     H89245   1.459  12.949   0.916 -1.0415 -1.6576  1.3982
  647MOL0     H89246   1.573  12.871   0.815 -2.8774  1.3090 -0.7874
  647MOL0     H89247   1.638  13.006   0.912  2.6206 -2.4918 -1.1146
  647MOL0     H89248   1.970  13.073   0.855  0.4087  1.1120 -0.3350
  647MOL0     H89249   2.184  13.146   0.733  2.2209 -0.6544  0.2412
  647MOL0     H89250   2.292  12.847   0.410  2.3222 -1.6957  1.6828
  647MOL0     H89251   2.241  13.000   0.361 -1.8669  1.0450  2.5801
  647MOL0     H89252   2.531  12.977   0.466  0.1146  2.8341 -0.3440
  647MOL0     H89253   2.482  12.883   0.310  2.5991  0.8015  0.2957
  647MOL0     H89254   2.440  13.184   0.398 -2.2420 -2.2042  0.6523
  647MOL0     H89255   2.407  13.134   0.238 -0.4895 -0.4298 -0.1192
  647MOL0     H89256   2.685  13.118   0.352 -1.2680 -1.7477  0.1905
  647MOL0     H89257   2.617  13.265   0.259 -0.0605 -0.5678 -0.9955
  647MOL0     H89258   2.772  13.131   0.122  0.7549 -4.0020  0.4033
  647MOL0     H89259   2.672  12.995   0.148 -1.3899 -0.9108  1.0509
  647MOL0     H89260   2.470  13.102   0.012  1.3024 -1.0800 -6.1516
  647MOL0     H89261   2.615  13.086  -0.061 -0.4835 -1.0723 -0.5316
  647MOL0     H89262   2.661  13.326  -0.023  0.8783 -1.9962  1.2190
  647MOL0     H89263   2.525  13.350   0.086 -0.4895 -2.8878  1.5011
  647MOL0     H89264   2.420  13.434  -0.121  0.8971 -0.2250  2.5890
  647MOL0     H89265   2.361  13.276  -0.095  1.2460 -3.4966  0.2302
  647MOL0     H89266   2.139  12.764   0.515  0.9063  0.4808  0.3998
  647MOL0     H89267   1.939  12.715   0.652  0.7661 -0.0722  2.0753
  647MOL0     H89268   1.863  12.647   1.136  2.3068  1.3882 -3.0008
  647MOL0     H89269   1.703  12.540   1.259 -1.6184 -1.3051  0.9178
  647MOL0     H89270   1.554  11.752   1.351 -1.2239 -0.5999 -0.5051
  647MOL0     H89271   1.700  11.616   1.522  0.1896  0.1010  0.3652
  647MOL0     H89272   1.598  11.164   1.783 -0.7576  3.0201 -0.7294
  647MOL0     H89273   1.709  10.950   1.841  1.7749 -0.9084  1.9207
  647MOL0     H89274   1.818  10.916   2.052  0.8714 -1.3360  2.2625
  647MOL0     H89275   1.811  10.790   1.929 -0.1472 -1.3173  1.6568
  647MOL0     H89276   1.866  10.666   2.116 -1.1249 -0.4511 -2.8724
  647MOL0     H89277   1.982  10.797   2.175 -1.0069  1.9050 -2.3079
  647MOL0     H89278   1.972  10.605   1.943  1.3457 -1.2375 -0.6734
  647MOL0     H89279   2.109  10.725   1.964  0.9713  0.9127  3.0931
  647MOL0     H89280   2.064  10.450   2.114  2.6132 -0.9527 -3.3833
  647MOL0     H89281   2.169  10.576   2.181  1.4462  0.2318  0.1515
  647MOL0     H89282   2.376  10.394   1.856 -2.5868 -0.2571 -1.7939
  647MOL0     H89283   2.089  11.131   1.805  0.0507  1.7145  2.9498
  647MOL0     H89284   1.994  11.459   1.756 -0.9562  0.8259 -3.1708
  647MOL0     H89285   2.136  11.339   1.744  0.2706 -2.7481 -2.3628
  647MOL0     H89286   2.030  11.375   1.607 -4.3778  1.2627 -0.0011
  648MOL0     O89287   2.338   9.093   0.064  0.5135  0.6674  0.4033
  648MOL0     C89288   2.241   9.026   0.038 -0.0939  0.8968 -0.7648
  648MOL0     O89289   2.223   8.895   0.091  0.6610  0.1670 -0.2302
  648MOL0     C89290   2.288   8.848   0.204 -0.3740  0.0024 -0.1179
  648MOL0     C89291   2.270   8.712   0.218 -0.1465 -1.2384 -0.5280
  648MOL0     C89292   2.308   8.645   0.330 -0.5045  0.0018  0.6050
  648MOL0     C89293   2.359   8.713   0.449 -0.2665  0.0730  0.0817
  648MOL0     O89294   2.390   8.639   0.563  0.2779  0.0463  0.3554
  648MOL0     C89295   2.445   8.707   0.677 -1.3307  0.2311  0.6839
  648MOL0     C89296   2.445   8.619   0.805  0.2580 -0.2856 -0.1206
  648MOL0     C89297   2.495   8.715   0.912 -0.0810 -0.0864  1.0997
  648MOL0     C89298   2.510   8.633   1.041  0.2537 -0.3873 -1.1855
  648MOL0     C89299   2.580   8.710   1.146  0.1356 -0.2490  0.1152
  648MOL0     C89300   2.615   8.626   1.269 -0.0124 -0.0883 -0.1365
  648MOL0     C89301   2.495   8.567   1.340 -0.3397  0.8890 -0.8746
  648MOL0     C89302   2.534   8.481   1.466  0.3837 -0.2803 -0.5345
  648MOL0     N89303   2.580   8.550   1.587  0.1836  0.1416 -0.2447
  648MOL0     C89304   2.502   8.620   1.673  1.3727  0.0171  0.0871
  648MOL0     C89305   2.602   8.666   1.763  0.6091 -0.2498  0.0405
  648MOL0     C89306   2.572   8.770   1.875 -0.2785  0.1412  0.2487
  648MOL0     C89307   2.600   8.699   2.009 -0.0465 -0.9326  0.6977
  648MOL0     C89308   2.559   8.780   2.125 -0.3433 -0.4003 -0.2596
  648MOL0     C89309   2.604   8.712   2.247 -0.0838 -0.1878 -1.0118
  648MOL0     O89310   2.544   8.774   2.357  0.3012  0.2073  0.3640
  648MOL0     C89311   2.579   8.731   2.485 -0.1601  0.0064  0.1015
  648MOL0     C89312   2.669   8.625   2.512  0.1906 -1.3778 -0.5792
  648MOL0     C89313   2.687   8.580   2.647  0.1232  0.1154 -0.5293
  648MOL0     C89314   2.786   8.460   2.674  0.2106 -0.2029 -0.1317
  648MOL0     C89315   2.604   8.631   2.748  0.0842 -0.1069 -0.8515
  648MOL0     C89316   2.614   8.581   2.893 -0.3406 -0.0642  0.3955
  648MOL0     O89317   2.571   8.670   2.984 -0.3175 -0.4292  0.4513
  648MOL0     C89318   2.534   8.619   3.099 -0.2574 -0.2516 -0.0753
  648MOL0     C89319   2.607   8.663   3.211 -0.0530 -0.4755 -0.7896
  648MOL0     C89320   2.556   8.631   3.335 -0.5290  0.3078  0.0452
  648MOL0     C89321   2.435   8.548   3.345  0.4168 -0.5404  0.1176
  648MOL0     O89322   2.397   8.486   3.464 -0.8466  0.5316 -0.3287
  648MOL0     C89323   2.499   8.438   3.552  0.8325 -1.0543 -0.0328
  648MOL0     C89324   2.448   8.298   3.599 -0.1866 -0.5186 -0.2499
  648MOL0     C89325   2.533   8.227   3.701 -0.7281 -0.3902 -0.1784
  648MOL0     C89326   2.671   8.178   3.636  0.3326  0.4434  0.2255
  648MOL0     C89327   2.739   8.063   3.712 -0.6569 -0.4107 -0.0665
  648MOL0     C89328   2.763   8.070   3.864  0.8172 -0.0968 -0.2796
  648MOL0     C89329   2.812   7.924   3.912 -0.3780  0.9155 -0.8428
  648MOL0     C89330   2.845   7.905   4.058  0.6751  0.0073 -0.0345
  648MOL0    Cl89331   2.713   7.932   4.174 -0.3543  0.4237  0.1508
  648MOL0     C89332   2.372   8.506   3.234  0.6354  0.6335  0.3347
  648MOL0     C89333   2.416   8.548   3.106  0.0103  0.3696  0.1768
  648MOL0     O89334   2.660   8.470   2.912 -0.2464  0.5791 -0.3216
  648MOL0     C89335   2.514   8.731   2.717  0.8690 -0.3941  0.6418
  648MOL0     C89336   2.509   8.782   2.590 -0.0552  0.0794 -0.2634
  648MOL0     N89337   2.720   8.615   1.734 -0.4140 -0.1932  0.1731
  648MOL0     N89338   2.711   8.542   1.631  0.2929  0.2303  0.7794
  648MOL0     C89339   2.389   8.850   0.430  0.3851 -0.4432 -0.4130
  648MOL0     C89340   2.350   8.914   0.314  0.7086  0.2007  0.4284
  648MOL0     C89341   2.132   9.082  -0.046  0.2722  0.2575  0.8154
  648MOL0     C89342   2.010   9.013  -0.040 -0.5331  0.0107 -0.9553
  648MOL0     C89343   1.917   9.024  -0.141  0.5360 -0.4094  0.0888
  648MOL0     C89344   1.927   9.118  -0.239  0.7623  0.2161 -0.0863
  648MOL0     O89345   1.835   9.130  -0.343 -0.2293  0.1837 -0.3916
  648MOL0     C89346   1.713   9.059  -0.345 -0.6915 -0.0454  0.0919
  648MOL0     C89347   1.604   9.120  -0.443 -0.3672 -0.5182  0.3294
  648MOL0     C89348   1.670   9.139  -0.583  0.4708 -0.2004  0.6706
  648MOL0     C89349   1.563   9.199  -0.690 -0.4431 -0.3794  0.0452
  648MOL0     C89350   1.628   9.239  -0.817  0.1870 -0.0013 -1.1937
  648MOL0     C89351   1.675   9.292  -0.914 -0.6459 -0.0697  0.8098
  648MOL0     C89352   2.036   9.203  -0.239  0.1900  0.6968  0.1752
  648MOL0     C89353   2.138   9.191  -0.143 -0.7016 -0.3444 -0.2085
  648MOL0     C89354   2.266   9.271  -0.164  0.0876 -0.1105  0.7598
  648MOL0     H89355   2.219   8.670   0.133 -5.3671  4.3044 -0.8323
  648MOL0     H89356   2.297   8.537   0.327 -1.8750  0.1452 -0.7397
  648MOL0     H89357   2.392   8.802   0.687 -1.4932  0.7536 -3.4549
  648MOL0     H89358   2.550   8.725   0.654 -1.1247 -1.8947 -0.3027
  648MOL0     H89359   2.345   8.580   0.825  0.0719  1.0730  1.8985
  648MOL0     H89360   2.518   8.539   0.793 -0.6084 -1.3069  1.1792
  648MOL0     H89361   2.592   8.750   0.877  1.1733 -4.4912 -0.5124
  648MOL0     H89362   2.426   8.798   0.931  0.1112  0.5254 -0.6699
  648MOL0     H89363   2.415   8.609   1.090 -0.6063  1.5598 -1.7702
  648MOL0     H89364   2.558   8.537   1.024  1.2281 -0.3593  1.0412
  648MOL0     H89365   2.516   8.795   1.172  1.7762  1.2835 -0.6635
  648MOL0     H89366   2.673   8.750   1.104  1.3516 -1.3691  1.6145
  648MOL0     H89367   2.689   8.548   1.252  2.8538  2.3944  0.0433
  648MOL0     H89368   2.667   8.694   1.338  1.2163 -0.0159 -1.0941
  648MOL0     H89369   2.439   8.510   1.266 -0.4763 -0.2707  0.0888
  648MOL0     H89370   2.434   8.646   1.384 -0.9233 -0.0381  0.0267
  648MOL0     H89371   2.451   8.412   1.485  0.2217 -0.2921 -1.2578
  648MOL0     H89372   2.613   8.417   1.426  0.8414 -0.2897  0.3440
  648MOL0     H89373   2.394   8.633   1.679  0.6310 -4.5777  0.6155
  648MOL0     H89374   2.465   8.790   1.865 -0.7391 -1.8205  0.6599
  648MOL0     H89375   2.634   8.856   1.847  0.1387  0.0477  0.8555
  648MOL0     H89376   2.546   8.604   2.011  2.9408 -2.7523  0.4560
  648MOL0     H89377   2.707   8.681   2.024  0.8353  0.0789 -3.2349
  648MOL0     H89378   2.621   8.868   2.106  0.0762 -0.2891  1.4927
  648MOL0     H89379   2.451   8.796   2.129 -0.8026 -2.1684 -2.9217
  648MOL0     H89380   2.582   8.605   2.254  0.9638 -0.4504 -1.5118
  648MOL0     H89381   2.713   8.714   2.252 -0.0845 -1.5736 -0.0139
  648MOL0     H89382   2.730   8.574   2.437 -1.4719 -1.7010 -1.7565
  648MOL0     H89383   2.851   8.442   2.588  1.0668  0.4979  0.3519
  648MOL0     H89384   2.727   8.370   2.692  0.0707 -0.4399 -1.6995
  648MOL0     H89385   2.854   8.486   2.756 -2.0137 -1.2417  2.1899
  648MOL0     H89386   2.698   8.719   3.194  0.6928 -1.3410  0.2449
  648MOL0     H89387   2.611   8.652   3.426 -1.6396 -0.0931  0.8334
  648MOL0     H89388   2.589   8.413   3.494  0.6618 -1.3047 -0.1915
  648MOL0     H89389   2.520   8.508   3.634  0.5611 -0.5648 -0.3737
  648MOL0     H89390   2.353   8.311   3.651  0.5196 -0.1609  0.9926
  648MOL0     H89391   2.433   8.225   3.519 -3.0613 -0.5955  0.2640
  648MOL0     H89392   2.480   8.136   3.731  1.8172 -2.6977 -2.1779
  648MOL0     H89393   2.565   8.289   3.785  2.7223 -0.0001 -1.6286
  648MOL0     H89394   2.741   8.262   3.637 -0.9770  1.5769  0.2857
  648MOL0     H89395   2.675   8.142   3.533 -1.4831 -3.3733  1.3020
  648MOL0     H89396   2.695   7.966   3.685  2.2547 -1.1148 -2.8789
  648MOL0     H89397   2.838   8.059   3.666 -2.7761  1.9566 -5.6603
  648MOL0     H89398   2.665   8.089   3.907  0.9722  0.4645 -0.1712
  648MOL0     H89399   2.838   8.147   3.888 -1.1812  1.0122  2.9824
  648MOL0     H89400   2.892   7.884   3.849 -1.1129 -3.3427  0.5895
  648MOL0     H89401   2.731   7.854   3.887  0.4625 -0.5509  0.3848
  648MOL0     H89402   2.938   7.958   4.076  0.4553  0.1921  0.5943
  648MOL0     H89403   2.889   7.807   4.081 -0.2103  0.1125  2.4406
  648MOL0     H89404   2.285   8.445   3.257 -0.2884  0.0604 -3.8572
  648MOL0     H89405   2.355   8.543   3.016  1.1692  0.5095 -0.6408
  648MOL0     H89406   2.446   8.786   2.781 -1.4273  1.2664 -2.9354
  648MOL0     H89407   2.444   8.862   2.554  1.8645  1.5061 -0.7361
  648MOL0     H89408   2.450   8.893   0.509  1.1488 -1.3412 -0.4897
  648MOL0     H89409   2.368   9.021   0.314 -0.7647  0.5763 -2.8911
  648MOL0     H89410   1.997   8.918   0.011 -0.3354 -1.1236 -2.9210
  648MOL0     H89411   1.833   8.955  -0.137 -0.6222  0.8627 -0.9280
  648MOL0     H89412   1.735   8.952  -0.358  0.3236 -0.0531  1.6211
  648MOL0     H89413   1.671   9.079  -0.246  0.5245  4.1128 -0.0613
  648MOL0     H89414   1.570   9.215  -0.402  0.9176 -0.3676  1.1065
  648MOL0     H89415   1.513   9.062  -0.461 -0.7691 -0.1608  1.1496
  648MOL0     H89416   1.754   9.206  -0.567  1.0894 -1.2185  1.8010
  648MOL0     H89417   1.705   9.039  -0.610  2.6514  0.8112 -0.5302
  648MOL0     H89418   1.525   9.287  -0.637  1.2498 -0.0088  0.6778
  648MOL0     H89419   1.481   9.126  -0.698 -0.7673 -0.1715  1.2952
  648MOL0     H89420   1.714   9.351  -0.995 -0.0293 -0.3658  0.8856
  648MOL0     H89421   2.049   9.262  -0.328 -0.1660  1.2213  0.4691
  648MOL0     H89422   2.275   9.353  -0.092 -2.7242  0.1874  0.9009
  648MOL0     H89423   2.346   9.197  -0.160 -0.9644 -1.3176  0.2541
  648MOL0     H89424   2.267   9.311  -0.266  2.3008 -0.5035  0.5941
  649MOL0     O89425  10.003   5.941   5.980 -0.3972 -0.2872 -0.3745
  649MOL0     C89426  10.004   5.843   6.056  0.2373 -0.8877  0.5473
  649MOL0     O89427   9.980   5.835   6.190  0.5127 -1.0216 -1.0284
  649MOL0     C89428   9.928   5.945   6.261  0.1868  0.4543 -0.1204
  649MOL0     C89429   9.829   6.034   6.220 -0.2503 -0.3879 -0.3172
  649MOL0     C89430   9.781   6.130   6.314  1.2792 -0.4422  0.3343
  649MOL0     C89431   9.829   6.144   6.446  0.2777  0.2343  0.9413
  649MOL0     O89432   9.761   6.224   6.540 -0.2620  0.1936 -0.3026
  649MOL0     C89433   9.844   6.335   6.591 -0.0140 -0.1478 -0.5049
  649MOL0     C89434   9.758   6.459   6.616  0.6557  0.0262 -0.2741
  649MOL0     C89435   9.633   6.443   6.699  0.6337 -0.3139 -0.3728
  649MOL0     C89436   9.558   6.578   6.740 -0.2808  0.2946  0.5033
  649MOL0     C89437   9.478   6.547   6.869 -0.2673 -0.2126  0.0970
  649MOL0     C89438   9.422   6.673   6.926  0.7195 -0.2438 -0.2536
  649MOL0     C89439   9.352   6.677   7.067 -0.1026  0.2389 -0.0031
  649MOL0     C89440   9.312   6.817   7.109 -0.0728 -0.2993 -0.3566
  649MOL0     N89441   9.431   6.895   7.129 -0.2218 -0.2768 -0.6494
  649MOL0     C89442   9.512   6.882   7.239 -0.0850  0.2384 -0.6194
  649MOL0     C89443   9.619   6.951   7.209  1.1541 -0.4784  0.4892
  649MOL0     C89444   9.738   6.972   7.300  0.1020 -0.4458 -0.9868
  649MOL0     C89445   9.842   6.855   7.294 -0.3327 -0.6344 -0.6472
  649MOL0     C89446   9.855   6.820   7.151  0.0094 -0.9290 -0.0805
  649MOL0     C89447   9.989   6.747   7.130 -0.8265  0.5538  0.3746
  649MOL0     O89448  10.043   6.664   7.242  0.3571  0.2808 -0.2437
  649MOL0     C89449  10.129   6.568   7.206 -0.2322 -0.6592  0.3287
  649MOL0     C89450  10.256   6.579   7.257  0.6158 -0.4968 -0.0720
  649MOL0     C89451  10.354   6.478   7.236 -0.4219 -0.1177 -0.2087
  649MOL0     C89452  10.494   6.501   7.290 -0.1182 -0.4621 -0.1315
  649MOL0     C89453  10.319   6.367   7.156 -0.6190 -1.0826  0.0111
  649MOL0     C89454  10.416   6.268   7.092 -1.1386  0.3197 -0.0255
  649MOL0     O89455  10.555   6.264   7.130  0.0148  0.1550  0.2564
  649MOL0     C89456  10.647   6.195   7.058 -0.1098 -0.2817  0.6141
  649MOL0     C89457  10.636   6.056   7.032 -0.5319 -0.2970  0.5352
  649MOL0     C89458  10.739   5.994   6.976 -0.2374 -0.5441 -0.2756
  649MOL0     C89459  10.862   6.066   6.943 -0.1359  0.4805  0.0996
  649MOL0     O89460  10.969   5.999   6.889 -0.2325  0.4966 -0.5079
  649MOL0     C89461  10.939   5.928   6.773 -0.5712 -0.2897  0.1169
  649MOL0     C89462  11.070   5.905   6.702  0.6655 -0.2806  0.2383
  649MOL0     C89463  11.053   5.795   6.590 -1.1002 -0.3133  0.4480
  649MOL0     C89464  11.185   5.753   6.530  0.1759  0.9141  1.0618
  649MOL0     C89465  11.144   5.671   6.404  0.6635 -0.1807  0.8852
  649MOL0     C89466  11.263   5.637   6.308  0.5359 -0.5554 -0.7098
  649MOL0     C89467  11.213   5.566   6.181  0.9292 -0.1327  0.1574
  649MOL0     C89468  11.322   5.524   6.082  0.1853 -0.2533  0.0152
  649MOL0    Cl89469  11.255   5.503   5.926 -0.5011 -0.1985  0.0182
  649MOL0     C89470  10.871   6.201   6.969 -0.3611  0.5714 -0.2523
  649MOL0     C89471  10.766   6.270   7.028  0.0947 -0.0087  0.4606
  649MOL0     O89472  10.371   6.190   7.000 -0.4433  0.1778 -0.1016
  649MOL0     C89473  10.178   6.357   7.118  0.0531  0.2539 -0.2760
  649MOL0     C89474  10.091   6.459   7.141 -0.3999  0.4334 -0.2245
  649MOL0     N89475   9.590   7.012   7.090 -0.1138 -0.5515  0.8673
  649MOL0     N89476   9.475   6.975   7.043  0.4199 -0.2175  0.1018
  649MOL0     C89477   9.924   6.051   6.478 -0.8884 -0.6278  0.0336
  649MOL0     C89478   9.972   5.954   6.391  0.0596 -0.4525  0.7372
  649MOL0     C89479  10.038   5.706   5.999 -0.2821 -0.8204  0.3965
  649MOL0     C89480  10.083   5.704   5.862  0.3180  0.5212 -1.3356
  649MOL0     C89481  10.135   5.585   5.809 -0.1548  0.2831  0.9951
  649MOL0     C89482  10.138   5.469   5.881  0.9242 -1.6367  0.1672
  649MOL0     O89483  10.192   5.361   5.817 -0.3148 -0.3856  0.4688
  649MOL0     C89484  10.270   5.277   5.898 -1.4578 -0.9942 -0.0491
  649MOL0     C89485  10.397   5.232   5.821  0.4154 -0.6434  0.4711
  649MOL0     C89486  10.500   5.156   5.903  0.5518  0.5378 -0.3582
  649MOL0     C89487  10.626   5.162   5.824  0.3754 -0.0116 -0.0517
  649MOL0     C89488  10.619   5.065   5.716 -0.0868 -0.8323 -0.1278
  649MOL0     C89489  10.616   4.982   5.632  0.5057 -0.2608 -0.8116
  649MOL0     C89490  10.084   5.470   6.003 -0.3933  0.3045 -0.9433
  649MOL0     C89491  10.037   5.580   6.071 -0.3044 -0.0449  0.3397
  649MOL0     C89492   9.985   5.561   6.202  0.5500 -0.6395 -0.3982
  649MOL0     H89493   9.776   6.015   6.127 -2.7337  0.5238  0.8386
  649MOL0     H89494   9.693   6.193   6.307  1.9594  0.5968  1.0681
  649MOL0     H89495   9.928   6.364   6.526 -0.3585  1.4641 -0.2664
  649MOL0     H89496   9.889   6.302   6.685 -0.9407  1.9487  0.7205
  649MOL0     H89497   9.813   6.544   6.655  2.4578 -0.6499 -1.2166
  649MOL0     H89498   9.720   6.486   6.517 -1.6949  2.4899  1.1811
  649MOL0     H89499   9.570   6.365   6.655 -0.2771  0.8315 -1.1565
  649MOL0     H89500   9.666   6.398   6.793  1.5046  2.0354  0.5179
  649MOL0     H89501   9.621   6.666   6.758 -2.7734  1.7955  2.5231
  649MOL0     H89502   9.497   6.619   6.658 -0.2472  1.0799  0.8685
  649MOL0     H89503   9.539   6.492   6.941 -1.0145 -0.4379  0.5724
  649MOL0     H89504   9.395   6.481   6.841 -1.5252  1.5096 -0.3792
  649MOL0     H89505   9.504   6.744   6.941 -0.9609  2.5959 -3.2146
  649MOL0     H89506   9.362   6.726   6.852 -0.0215  1.8013  1.6931
  649MOL0     H89507   9.417   6.638   7.146  1.0122  0.2027 -0.9148
  649MOL0     H89508   9.259   6.620   7.069 -1.3832  2.2648  0.2685
  649MOL0     H89509   9.240   6.869   7.045  0.2676  1.6798  0.7845
  649MOL0     H89510   9.261   6.795   7.203 -1.2635  0.8433 -0.7090
  649MOL0     H89511   9.497   6.826   7.331  0.9303 -0.5169 -0.8961
  649MOL0     H89512   9.701   6.967   7.403 -0.7484 -0.1264 -1.2724
  649MOL0     H89513   9.774   7.073   7.283 -4.5795  1.2722 -2.2100
  649MOL0     H89514   9.942   6.892   7.318 -0.6881  0.4607 -0.7822
  649MOL0     H89515   9.824   6.779   7.370  1.4348  1.3450  1.9562
  649MOL0     H89516   9.774   6.748   7.140  1.3291 -2.7304  1.4037
  649MOL0     H89517   9.839   6.906   7.085  0.4101 -2.3908 -2.1925
  649MOL0     H89518   9.975   6.689   7.038 -0.7478  1.6650 -0.3628
  649MOL0     H89519  10.069   6.820   7.112 -0.1160 -0.6033 -1.4103
  649MOL0     H89520  10.294   6.666   7.309  2.9020 -0.3842 -1.7650
  649MOL0     H89521  10.535   6.411   7.336  2.0211 -1.4387 -3.6084
  649MOL0     H89522  10.504   6.571   7.374  3.2945  0.6191 -1.2496
  649MOL0     H89523  10.567   6.535   7.215  2.4777  0.0787  2.4428
  649MOL0     H89524  10.547   6.006   7.070 -0.8056  0.3807  0.8101
  649MOL0     H89525  10.726   5.887   6.963 -0.5302 -0.9053  2.4370
  649MOL0     H89526  10.895   5.829   6.790  0.0710 -0.6235 -0.1554
  649MOL0     H89527  10.886   6.001   6.711  0.9060 -0.5953 -1.5962
  649MOL0     H89528  11.097   6.005   6.670  0.0675  0.1784  1.1117
  649MOL0     H89529  11.141   5.862   6.774  1.6015  0.5848 -0.1494
  649MOL0     H89530  10.977   5.812   6.513  0.4157 -1.1920 -1.3232
  649MOL0     H89531  11.016   5.700   6.630 -4.4534  0.1556 -1.2024
  649MOL0     H89532  11.243   5.682   6.590  0.3887 -1.0624 -1.3239
  649MOL0     H89533  11.235   5.847   6.502 -1.7358  1.1777 -1.8775
  649MOL0     H89534  11.090   5.580   6.432 -0.7450  0.1470 -0.5708
  649MOL0     H89535  11.081   5.739   6.346  2.3569  1.4642  0.8794
  649MOL0     H89536  11.332   5.570   6.361  0.6782  0.4011  0.3483
  649MOL0     H89537  11.313   5.731   6.285 -1.7072 -0.1574 -5.0331
  649MOL0     H89538  11.138   5.627   6.131 -0.4669 -3.1856 -1.8164
  649MOL0     H89539  11.148   5.480   6.200 -0.7724  1.0064 -0.3112
  649MOL0     H89540  11.382   5.438   6.115  1.4347  0.8448  0.6785
  649MOL0     H89541  11.398   5.601   6.094  1.2838 -1.6308  3.1204
  649MOL0     H89542  10.965   6.246   6.940  0.3403 -0.1040  0.8808
  649MOL0     H89543  10.780   6.375   7.051  0.3438  0.3113 -1.0525
  649MOL0     H89544  10.149   6.269   7.061  0.5106 -2.2365  3.0162
  649MOL0     H89545   9.989   6.455   7.102 -0.4951 -0.8073  0.1227
  649MOL0     H89546   9.958   6.035   6.580  0.1710 -2.5512 -0.5642
  649MOL0     H89547  10.032   5.874   6.431 -2.5582 -2.3466  1.1256
  649MOL0     H89548  10.079   5.792   5.799 -3.7618  1.0571 -0.6129
  649MOL0     H89549  10.193   5.584   5.717  0.1141  0.7596  1.1532
  649MOL0     H89550  10.310   5.326   5.987  0.7390 -0.3589 -1.2920
  649MOL0     H89551  10.211   5.192   5.933  0.6895 -2.6484 -0.2233
  649MOL0     H89552  10.449   5.316   5.774 -0.7311  0.2366  0.7102
  649MOL0     H89553  10.363   5.170   5.738 -2.3839 -1.2042  1.9157
  649MOL0     H89554  10.510   5.212   5.996 -0.5482 -1.5598  1.1097
  649MOL0     H89555  10.462   5.056   5.927  0.0378  1.0093  0.8913
  649MOL0     H89556  10.709   5.143   5.892 -1.1277 -1.7934  1.3753
  649MOL0     H89557  10.653   5.254   5.772  1.5085 -0.1794  0.2250
  649MOL0     H89558  10.596   4.911   5.554  0.7815 -2.5045  1.0508
  649MOL0     H89559  10.096   5.377   6.057  0.1230  2.4638  3.0264
  649MOL0     H89560   9.887   5.608   6.196 -0.5419 -2.1366  3.0445
  649MOL0     H89561   9.962   5.454   6.210  2.8619 -1.5275 -3.5851
  649MOL0     H89562  10.036   5.609   6.286  1.3754  1.0265 -1.7982
  650MOL0     O89563   5.180   1.977   2.766 -0.1769  0.5847 -0.2357
  650MOL0     C89564   5.220   1.949   2.651 -0.1453  0.1806 -0.3709
  650MOL0     O89565   5.353   1.906   2.622 -0.5413 -0.0684 -0.0424
  650MOL0     C89566   5.446   1.853   2.711 -0.7645  0.7364  0.4998
  650MOL0     C89567   5.468   1.872   2.851  1.1583  0.9744 -0.2955
  650MOL0     C89568   5.577   1.806   2.912 -0.7339 -0.3050  0.1109
  650MOL0     C89569   5.670   1.737   2.836  0.6444  1.2464 -0.6881
  650MOL0     O89570   5.782   1.685   2.895 -0.0671 -0.3249 -0.1054
  650MOL0     C89571   5.818   1.549   2.887 -0.1414 -0.9913  0.0562
  650MOL0     C89572   5.957   1.507   2.937 -0.0571 -0.8961  0.2643
  650MOL0     C89573   5.984   1.524   3.087 -0.5469  0.6617 -0.3558
  650MOL0     C89574   5.932   1.398   3.157 -0.2447  0.1867 -0.7812
  650MOL0     C89575   5.928   1.403   3.307  0.6522  0.1519  1.0385
  650MOL0     C89576   5.949   1.261   3.354 -0.2099  0.0067  0.0719
  650MOL0     C89577   5.971   1.257   3.507  0.1318  0.3810 -1.0396
  650MOL0     C89578   5.971   1.110   3.568 -0.4927 -0.7823 -0.7515
  650MOL0     N89579   6.078   1.029   3.502  0.3890  0.8793  0.1449
  650MOL0     C89580   6.202   1.072   3.467  0.0907  0.9956  0.2365
  650MOL0     C89581   6.251   0.966   3.400 -0.3952  0.1592  0.3387
  650MOL0     C89582   6.386   0.957   3.334  0.6426  0.8934  0.3143
  650MOL0     C89583   6.462   0.861   3.430 -0.2867  0.7644  0.5785
  650MOL0     C89584   6.607   0.869   3.380 -0.3019  0.8173 -0.6268
  650MOL0     C89585   6.704   0.751   3.448  1.3268 -0.1895  0.4327
  650MOL0     O89586   6.641   0.620   3.404  0.5460 -0.6046 -0.0876
  650MOL0     C89587   6.665   0.517   3.498  0.1758  0.6307  0.7530
  650MOL0     C89588   6.626   0.501   3.631  0.7427  0.1556  0.7959
  650MOL0     C89589   6.662   0.388   3.703  0.3383 -0.0521  0.0172
  650MOL0     C89590   6.602   0.379   3.840  0.3447  0.2288 -0.3279
  650MOL0     C89591   6.748   0.289   3.640 -0.1188 -0.2323 -0.4224
  650MOL0     C89592   6.785   0.161   3.706  0.8631  0.0566  0.8454
  650MOL0     O89593   6.715   0.112   3.810  1.0274 -0.2808  0.6285
  650MOL0     C89594   6.789   0.025   3.886 -0.1143  0.5541  0.6758
  650MOL0     C89595   6.848   0.070   3.998  0.1173  0.0713 -0.0929
  650MOL0     C89596   6.921  -0.018   4.074 -0.1766 -0.0824  0.2649
  650MOL0     C89597   6.936  -0.148   4.035  0.4831 -0.3692  0.8847
  650MOL0     O89598   7.010  -0.223   4.114 -0.9276 -0.0540 -0.4895
  650MOL0     C89599   7.005  -0.373   4.109 -0.0306  0.3929 -0.0375
  650MOL0     C89600   6.881  -0.423   4.180 -0.4980 -0.2687  0.9149
  650MOL0     C89601   6.851  -0.368   4.310  0.5674  0.2525 -0.9333
  650MOL0     C89602   6.786  -0.470   4.404  0.2624  0.0522  0.9773
  650MOL0     C89603   6.703  -0.407   4.520 -0.2589  0.1141  0.5191
  650MOL0     C89604   6.670  -0.499   4.638 -0.1760 -0.8790 -0.0166
  650MOL0     C89605   6.612  -0.429   4.755 -0.8003 -1.3816  0.1172
  650MOL0     C89606   6.505  -0.505   4.832 -0.3668 -0.0501  0.3713
  650MOL0    Cl89607   6.355  -0.522   4.713 -0.7588  0.2957  0.2606
  650MOL0     C89608   6.870  -0.194   3.914  0.7761 -0.4452 -0.0055
  650MOL0     C89609   6.788  -0.105   3.845 -0.0995 -0.3259 -0.4685
  650MOL0     O89610   6.881   0.114   3.652 -0.2367  0.0838 -0.0381
  650MOL0     C89611   6.789   0.315   3.512 -0.1415  0.1877 -0.2036
  650MOL0     C89612   6.753   0.427   3.441  0.1386  0.5589 -0.0604
  650MOL0     N89613   6.156   0.870   3.378  0.4652 -0.4100  0.2351
  650MOL0     N89614   6.058   0.903   3.455  0.1382 -0.0926 -0.0679
  650MOL0     C89615   5.660   1.725   2.701  0.1361  0.4580 -0.3831
  650MOL0     C89616   5.547   1.784   2.641  0.5523  0.1527 -0.2697
  650MOL0     C89617   5.117   1.962   2.544 -0.7697  0.1954  0.2184
  650MOL0     C89618   4.979   1.960   2.568  0.2028 -0.4707 -0.6219
  650MOL0     C89619   4.888   1.966   2.458 -0.6488 -0.3769  0.8717
  650MOL0     C89620   4.932   1.982   2.326  0.0786  0.0084  0.3535
  650MOL0     O89621   4.850   1.986   2.221  0.1412 -0.4456  0.1544
  650MOL0     C89622   4.701   2.001   2.220  0.2738 -0.0038 -0.1114
  650MOL0     C89623   4.618   1.869   2.222 -0.8235 -0.1945  0.1150
  650MOL0     C89624   4.633   1.785   2.091 -0.8276  0.8758 -0.6800
  650MOL0     C89625   4.563   1.835   1.970  0.2201 -1.5514  0.2289
  650MOL0     C89626   4.528   1.738   1.875  0.5421  0.1666  0.6605
  650MOL0     C89627   4.489   1.653   1.807 -0.3236 -0.2246  0.2355
  650MOL0     C89628   5.065   1.997   2.302  0.0174 -0.6347 -0.0220
  650MOL0     C89629   5.161   1.989   2.403  0.6256  0.7680 -0.8725
  650MOL0     C89630   5.303   2.002   2.357 -1.0086 -0.7626  1.4132
  650MOL0     H89631   5.401   1.935   2.909 -0.7003  1.3014 -2.6707
  650MOL0     H89632   5.592   1.816   3.019  2.8744 -1.5655 -0.1155
  650MOL0     H89633   5.815   1.520   2.782 -2.8362 -0.0023 -0.2436
  650MOL0     H89634   5.743   1.484   2.934 -0.8837 -1.0373 -1.1464
  650MOL0     H89635   5.970   1.403   2.906 -0.9310 -1.0773  0.4921
  650MOL0     H89636   6.033   1.574   2.895 -0.7306 -0.7685 -0.7854
  650MOL0     H89637   6.089   1.539   3.111 -0.5720  1.0062 -0.4640
  650MOL0     H89638   5.926   1.611   3.119 -0.6634  1.8287 -3.4117
  650MOL0     H89639   5.833   1.370   3.118 -0.3516 -0.1652 -0.2761
  650MOL0     H89640   5.994   1.314   3.122 -3.0719 -2.0856 -0.7620
  650MOL0     H89641   5.833   1.442   3.346 -1.5879 -0.6872 -3.0682
  650MOL0     H89642   6.013   1.468   3.328  1.7215 -0.9101  0.1186
  650MOL0     H89643   5.854   1.212   3.331  1.2196 -2.3158 -1.2724
  650MOL0     H89644   6.032   1.209   3.303 -0.2536 -1.6545  1.5984
  650MOL0     H89645   5.891   1.318   3.550 -1.1650 -1.6257 -0.4741
  650MOL0     H89646   6.065   1.308   3.530  0.0867  0.4172 -0.9346
  650MOL0     H89647   5.984   1.102   3.676 -2.1829  0.8667 -0.3756
  650MOL0     H89648   5.877   1.059   3.543 -0.8627 -3.1120  4.2438
  650MOL0     H89649   6.246   1.164   3.503  2.8537 -0.7266  1.6192
  650MOL0     H89650   6.437   1.054   3.325  0.3896  1.1169  1.1923
  650MOL0     H89651   6.373   0.912   3.235 -1.2538  1.0447  0.4708
  650MOL0     H89652   6.445   0.886   3.534 -1.7965  0.0514  0.5331
  650MOL0     H89653   6.425   0.760   3.408 -1.3687  1.7223 -2.4732
  650MOL0     H89654   6.613   0.853   3.272 -1.1893 -1.1141 -0.4315
  650MOL0     H89655   6.640   0.969   3.408  1.1322  0.9824 -2.6660
  650MOL0     H89656   6.803   0.757   3.401 -0.1744  2.4611 -2.7892
  650MOL0     H89657   6.705   0.781   3.553  1.3936  0.0568  0.3628
  650MOL0     H89658   6.549   0.564   3.674 -1.0274 -1.6202  0.3914
  650MOL0     H89659   6.512   0.317   3.845  0.7419 -0.3622 -0.2603
  650MOL0     H89660   6.584   0.474   3.891 -0.5432 -0.1464  0.0840
  650MOL0     H89661   6.675   0.330   3.906  0.9410  0.1321 -1.0444
  650MOL0     H89662   6.825   0.169   4.035 -1.6435  1.0530 -3.4431
  650MOL0     H89663   6.961   0.013   4.170  2.7937  2.3214 -1.5535
  650MOL0     H89664   7.007  -0.419   4.010  3.7421 -1.1741  0.6000
  650MOL0     H89665   7.092  -0.405   4.166  0.3983  2.5857  0.6355
  650MOL0     H89666   6.794  -0.394   4.120 -0.1769  1.1945  1.1093
  650MOL0     H89667   6.884  -0.532   4.179  0.0660 -0.4254  4.8433
  650MOL0     H89668   6.775  -0.292   4.289  1.6787  0.9726 -2.5967
  650MOL0     H89669   6.942  -0.322   4.352  1.2798  0.1259 -2.2803
  650MOL0     H89670   6.873  -0.523   4.442  0.5637  2.1488  3.4868
  650MOL0     H89671   6.718  -0.528   4.340 -2.4523  1.1859  2.6271
  650MOL0     H89672   6.765  -0.326   4.559  0.0131  0.9018 -1.4274
  650MOL0     H89673   6.616  -0.362   4.471 -0.4281 -0.3111  0.4213
  650MOL0     H89674   6.766  -0.540   4.671  0.8528  1.6229  0.3205
  650MOL0     H89675   6.610  -0.587   4.613 -2.2069  0.4829 -0.1202
  650MOL0     H89676   6.566  -0.333   4.732  0.0820 -1.4266 -2.0388
  650MOL0     H89677   6.700  -0.398   4.811 -1.9377  2.7449 -0.0904
  650MOL0     H89678   6.481  -0.458   4.927  0.7341  2.2335 -0.4183
  650MOL0     H89679   6.544  -0.605   4.854 -1.6808 -0.5162  0.6920
  650MOL0     H89680   6.873  -0.300   3.887 -1.6344 -1.5775  3.5460
  650MOL0     H89681   6.723  -0.141   3.766 -1.7522 -0.8340  1.0746
  650MOL0     H89682   6.854   0.240   3.468 -1.2144 -1.4089  0.8449
  650MOL0     H89683   6.785   0.438   3.338  0.1945 -1.6277 -0.3261
  650MOL0     H89684   5.730   1.666   2.644  1.1499 -1.2803  2.4221
  650MOL0     H89685   5.539   1.778   2.533  0.1893  3.1213 -0.4956
  650MOL0     H89686   4.938   1.939   2.666  3.6785  1.1546  1.3531
  650MOL0     H89687   4.783   1.959   2.486 -1.1054 -5.0537 -1.0842
  650MOL0     H89688   4.678   2.070   2.301  1.1266 -0.4998  0.5695
  650MOL0     H89689   4.673   2.049   2.126 -1.2504 -3.0561 -1.3703
  650MOL0     H89690   4.511   1.892   2.229 -0.7146 -0.0651  1.8751
  650MOL0     H89691   4.640   1.805   2.308 -2.4504 -1.0587 -0.0649
  650MOL0     H89692   4.741   1.773   2.076 -0.3394  2.8696  0.8453
  650MOL0     H89693   4.571   1.698   2.114 -2.6199  2.3522  0.3227
  650MOL0     H89694   4.610   1.917   1.916 -0.0968 -1.7493 -0.3614
  650MOL0     H89695   4.468   1.874   2.008  0.9505 -0.2969  0.8284
  650MOL0     H89696   4.463   1.587   1.726  0.6918  0.2154 -0.4681
  650MOL0     H89697   5.093   2.000   2.197  2.1705 -0.1083  0.5237
  650MOL0     H89698   5.318   2.048   2.259  2.3110 -1.5313  1.4708
  650MOL0     H89699   5.361   2.067   2.423  0.0081 -0.3468  0.1384
  650MOL0     H89700   5.355   1.906   2.354 -0.0396 -0.2200 -0.2400
  651MOL0     O89701   2.415   5.505   5.982 -0.8085 -0.3515 -0.1519
  651MOL0     C89702   2.345   5.511   6.080  1.4007  0.1153 -0.1303
  651MOL0     O89703   2.214   5.551   6.074 -0.3475  0.2063 -1.0314
  651MOL0     C89704   2.146   5.596   5.964 -0.2398  0.0793 -0.5871
  651MOL0     C89705   2.007   5.590   5.976 -1.1481  0.3976  0.3358
  651MOL0     C89706   1.920   5.633   5.875 -0.3597  0.0639  1.0590
  651MOL0     C89707   1.984   5.690   5.754 -0.3732 -0.3173 -0.3822
  651MOL0     O89708   1.902   5.736   5.654 -0.2086 -0.5067 -0.4819
  651MOL0     C89709   1.935   5.683   5.529 -0.5244 -0.3828  0.2919
  651MOL0     C89710   1.821   5.698   5.424 -0.1677 -0.3869  0.0971
  651MOL0     C89711   1.849   5.635   5.286  1.0125  0.0472  1.7131
  651MOL0     C89712   1.987   5.665   5.224 -0.0746  0.3242  0.6847
  651MOL0     C89713   2.018   5.568   5.099  0.5527 -0.1908 -0.2789
  651MOL0     C89714   2.161   5.585   5.046  0.1031 -0.5994  0.0146
  651MOL0     C89715   2.182   5.721   4.985 -0.1077  0.3497 -0.3658
  651MOL0     C89716   2.115   5.744   4.847 -0.4923  0.0021  1.1525
  651MOL0     N89717   2.158   5.857   4.777  0.2077 -0.3025  0.1843
  651MOL0     C89718   2.094   5.986   4.770  0.2399  1.2799 -0.7087
  651MOL0     C89719   2.152   6.053   4.669  0.0037  1.3731 -0.7880
  651MOL0     C89720   2.131   6.192   4.623  0.4353  1.3708  0.5560
  651MOL0     C89721   2.262   6.261   4.588 -0.4758  0.2004  0.7217
  651MOL0     C89722   2.244   6.385   4.502 -1.2539  0.2857  0.3301
  651MOL0     C89723   2.167   6.504   4.568  0.0647 -0.4128 -0.8988
  651MOL0     O89724   2.171   6.615   4.469 -0.8434 -0.7535  0.3388
  651MOL0     C89725   2.061   6.699   4.464 -0.0901 -0.2072 -0.1065
  651MOL0     C89726   1.987   6.734   4.575 -0.8523 -0.4180  0.4530
  651MOL0     C89727   1.861   6.807   4.564  0.1784 -0.5422  0.5481
  651MOL0     C89728   1.778   6.831   4.689 -0.4050 -0.3131  0.3602
  651MOL0     C89729   1.814   6.844   4.434  0.2262  0.3702 -0.2729
  651MOL0     C89730   1.684   6.923   4.407  0.3747  0.1596 -0.2782
  651MOL0     O89731   1.651   6.954   4.279 -0.4522 -0.0755 -0.3583
  651MOL0     C89732   1.580   7.063   4.242  1.1675  0.3719  0.2546
  651MOL0     C89733   1.634   7.184   4.212  0.7655  0.6985 -0.7365
  651MOL0     C89734   1.556   7.295   4.183  0.1590 -0.0472  0.4405
  651MOL0     C89735   1.421   7.283   4.159 -0.2714  0.0569  0.2983
  651MOL0     O89736   1.335   7.377   4.103 -0.2120  0.2800 -0.4596
  651MOL0     C89737   1.380   7.509   4.085  0.5254 -0.0956  0.4714
  651MOL0     C89738   1.308   7.572   3.958 -0.4448  0.6434 -0.2112
  651MOL0     C89739   1.352   7.712   3.915  0.2768  0.0126  0.8692
  651MOL0     C89740   1.287   7.822   4.003  1.0406 -0.3240  0.1015
  651MOL0     C89741   1.333   7.964   3.958 -0.1375  0.4017  0.5774
  651MOL0     C89742   1.468   7.991   4.014 -0.3461  0.5430  0.8594
  651MOL0     C89743   1.547   8.108   3.943  0.6697 -0.4341 -0.2707
  651MOL0     C89744   1.574   8.081   3.796 -0.2296  0.6318 -0.1497
  651MOL0    Cl89745   1.670   8.215   3.724  0.2936 -0.1131 -0.1266
  651MOL0     C89746   1.366   7.156   4.162 -0.6042  0.5018 -0.3674
  651MOL0     C89747   1.449   7.044   4.211  1.0019  0.5376 -0.5719
  651MOL0     O89748   1.629   6.966   4.505  0.2592  0.8919 -0.1135
  651MOL0     C89749   1.904   6.819   4.324 -0.3419  0.4048  0.6095
  651MOL0     C89750   2.026   6.746   4.347  0.0174 -0.2065  0.4885
  651MOL0     N89751   2.244   5.962   4.611  0.4361  0.4854  0.6843
  651MOL0     N89752   2.250   5.849   4.671  0.4970 -0.5282  0.0060
  651MOL0     C89753   2.123   5.712   5.743  0.0603  0.0298 -0.3273
  651MOL0     C89754   2.209   5.655   5.850 -0.1115  0.0766  0.1315
  651MOL0     C89755   2.391   5.463   6.212  0.4548  0.9194  0.7508
  651MOL0     C89756   2.514   5.399   6.215 -0.1896  0.0385  0.7167
  651MOL0     C89757   2.565   5.346   6.338 -0.6434 -0.2176  0.4189
  651MOL0     C89758   2.498   5.366   6.458 -1.2041  0.0211 -0.1301
  651MOL0     O89759   2.558   5.317   6.577 -0.1659 -0.3574  0.7623
  651MOL0     C89760   2.506   5.364   6.704 -0.6362  0.2625 -0.6117
  651MOL0     C89761   2.569   5.500   6.730 -0.9452 -0.8540 -0.3519
  651MOL0     C89762   2.724   5.475   6.748  0.2229 -1.4174 -0.2392
  651MOL0     C89763   2.803   5.613   6.749  0.1940 -0.3999 -0.2134
  651MOL0     C89764   2.737   5.719   6.824 -0.0074  0.8995 -0.1564
  651MOL0     C89765   2.653   5.792   6.866  0.0132 -0.0210 -0.3375
  651MOL0     C89766   2.383   5.441   6.452 -0.2972  0.4720 -0.2416
  651MOL0     C89767   2.328   5.490   6.331 -1.0502 -0.4261 -0.3725
  651MOL0     C89768   2.216   5.593   6.340  0.2452  0.9159 -0.3747
  651MOL0     H89769   1.978   5.538   6.067  0.1187 -1.2609 -0.1355
  651MOL0     H89770   1.812   5.634   5.879 -0.5386 -1.4091 -1.3729
  651MOL0     H89771   1.961   5.577   5.532 -0.0371 -0.2679  0.2729
  651MOL0     H89772   2.023   5.732   5.485 -0.5705 -4.2149 -4.9129
  651MOL0     H89773   1.734   5.639   5.454 -1.4132 -1.8206 -5.3569
  651MOL0     H89774   1.793   5.803   5.413 -0.0833 -0.1921  1.5377
  651MOL0     H89775   1.836   5.527   5.292  3.0476 -0.3061  0.7214
  651MOL0     H89776   1.768   5.666   5.220  1.9017 -0.8882  0.1113
  651MOL0     H89777   1.989   5.768   5.187 -0.5160 -0.3726 -1.4463
  651MOL0     H89778   2.069   5.652   5.295  0.1901 -1.9723  0.0474
  651MOL0     H89779   1.946   5.589   5.020 -0.5592 -1.4765  0.3397
  651MOL0     H89780   2.018   5.464   5.133  0.3254 -0.2811 -0.5543
  651MOL0     H89781   2.227   5.574   5.133 -1.3008  0.1959  1.2380
  651MOL0     H89782   2.179   5.511   4.968 -1.4978  0.1320 -1.0925
  651MOL0     H89783   2.289   5.741   4.991 -0.2565  0.7565  1.6840
  651MOL0     H89784   2.153   5.799   5.055  0.6148  1.6935 -1.5117
  651MOL0     H89785   2.142   5.661   4.781  0.4960 -0.2226  1.8176
  651MOL0     H89786   2.008   5.748   4.869 -0.3461 -2.4869  2.7827
  651MOL0     H89787   2.023   6.034   4.837 -0.7660  0.7133 -1.3389
  651MOL0     H89788   2.075   6.251   4.696 -3.1147  1.6107 -2.1247
  651MOL0     H89789   2.067   6.181   4.535  0.7386  1.8828  0.2716
  651MOL0     H89790   2.302   6.286   4.686  0.7426  0.8400  0.0839
  651MOL0     H89791   2.318   6.194   4.522 -2.8426  0.1433 -1.3815
  651MOL0     H89792   2.342   6.428   4.480 -2.0464  2.0487 -0.0094
  651MOL0     H89793   2.200   6.358   4.406 -2.3473  0.8086  0.6597
  651MOL0     H89794   2.065   6.475   4.595  1.1606 -4.2563 -0.3285
  651MOL0     H89795   2.215   6.529   4.662 -0.2801  0.6441 -0.9889
  651MOL0     H89796   2.021   6.700   4.672  0.8697 -2.2717 -0.7089
  651MOL0     H89797   1.680   6.784   4.682 -1.5899  2.1477 -0.6371
  651MOL0     H89798   1.774   6.940   4.699  1.3004 -0.1168 -0.6826
  651MOL0     H89799   1.832   6.788   4.774  0.3794  2.1019  1.1665
  651MOL0     H89800   1.742   7.198   4.215  0.8208  1.4771 -3.4469
  651MOL0     H89801   1.613   7.387   4.172 -2.1417  1.4067  0.1250
  651MOL0     H89802   1.363   7.563   4.179 -1.1916 -2.7232  1.8125
  651MOL0     H89803   1.486   7.518   4.060  0.6480  1.0091  1.3128
  651MOL0     H89804   1.328   7.505   3.875  0.1267  0.0998  0.3554
  651MOL0     H89805   1.201   7.587   3.977 -0.4089  0.8503 -0.1636
  651MOL0     H89806   1.322   7.714   3.810 -1.3270 -4.6560  0.9975
  651MOL0     H89807   1.461   7.703   3.919  0.5102  0.7528 -1.7822
  651MOL0     H89808   1.319   7.810   4.107  0.3753 -0.2354  0.3257
  651MOL0     H89809   1.179   7.809   3.993  1.0543 -1.7546  1.4817
  651MOL0     H89810   1.326   7.960   3.849  0.1303 -3.5480  0.5511
  651MOL0     H89811   1.258   8.036   3.991 -1.0227  2.4511 -4.8229
  651MOL0     H89812   1.532   7.902   4.004 -2.2006 -0.6244 -2.3477
  651MOL0     H89813   1.454   8.000   4.122  0.0858 -3.0856  1.3410
  651MOL0     H89814   1.642   8.136   3.988  0.3972 -0.2021  0.1735
  651MOL0     H89815   1.491   8.202   3.951  3.6052  1.3674  0.6039
  651MOL0     H89816   1.476   8.078   3.747  1.6286  0.0870 -4.2837
  651MOL0     H89817   1.625   7.986   3.782 -0.2456  0.9412 -2.8783
  651MOL0     H89818   1.259   7.142   4.151 -0.5579 -0.2466  0.0580
  651MOL0     H89819   1.405   6.946   4.229  2.5515  0.3348  3.0484
  651MOL0     H89820   1.872   6.851   4.226 -1.0381 -0.9968  0.3523
  651MOL0     H89821   2.097   6.717   4.271  2.0236 -3.2981  3.2648
  651MOL0     H89822   2.169   5.771   5.665  2.5653  1.8601  2.3129
  651MOL0     H89823   2.316   5.667   5.842 -0.4176  2.8839 -0.6934
  651MOL0     H89824   2.558   5.368   6.121  1.0804 -0.7800  1.5623
  651MOL0     H89825   2.654   5.288   6.361  0.2013  1.3310  1.2823
  651MOL0     H89826   2.398   5.374   6.717 -0.2168  2.7056  1.9550
  651MOL0     H89827   2.541   5.316   6.796 -4.8856  3.1703  2.9288
  651MOL0     H89828   2.534   5.536   6.828  2.2076 -0.2266  0.6645
  651MOL0     H89829   2.546   5.560   6.642  1.1009 -1.4959 -1.3947
  651MOL0     H89830   2.745   5.435   6.847 -0.3786 -0.1846  0.4119
  651MOL0     H89831   2.761   5.400   6.678  1.4006 -2.4574  1.4370
  651MOL0     H89832   2.811   5.645   6.645  1.0816 -1.8463 -0.6226
  651MOL0     H89833   2.903   5.608   6.792 -1.0139  0.2189  3.0027
  651MOL0     H89834   2.584   5.871   6.889 -0.8540 -0.7613 -0.3410
  651MOL0     H89835   2.311   5.456   6.532 -1.6729 -1.2907 -1.0811
  651MOL0     H89836   2.213   5.664   6.257  0.9752  0.0442 -1.1754
  651MOL0     H89837   2.122   5.539   6.352  0.5071  0.1417 -1.6254
  651MOL0     H89838   2.210   5.653   6.431  3.7802  1.8029 -0.5649
  652MOL0     O89839   7.238   6.977  11.113 -0.5076 -0.2077  0.4938
  652MOL0     C89840   7.123   6.979  11.152  0.7133 -0.1590 -0.8618
  652MOL0     O89841   7.059   6.871  11.189  0.4332 -0.1757 -0.5063
  652MOL0     C89842   7.120   6.760  11.239  0.0029  0.5849  0.1756
  652MOL0     C89843   7.235   6.758  11.316 -0.7092  0.0881 -0.3003
  652MOL0     C89844   7.300   6.642  11.360  0.1002 -0.0700  0.1307
  652MOL0     C89845   7.242   6.522  11.347  0.2644  0.3646  0.2723
  652MOL0     O89846   7.318   6.415  11.401  0.5941 -0.2294 -0.1495
  652MOL0     C89847   7.263   6.288  11.429 -0.0706  0.0474  0.2215
  652MOL0     C89848   7.350   6.208  11.532  0.5447  0.8634  1.0947
  652MOL0     C89849   7.497   6.176  11.474  1.3461 -0.4773 -0.3226
  652MOL0     C89850   7.503   6.075  11.361  0.1521  0.8695  0.2605
  652MOL0     C89851   7.637   6.058  11.294 -0.3999  0.0028 -0.5924
  652MOL0     C89852   7.632   5.952  11.183 -0.5080  0.4829 -0.4869
  652MOL0     C89853   7.764   5.898  11.120 -0.1440 -0.4994  0.5192
  652MOL0     C89854   7.859   5.984  11.028 -0.4874 -0.8679 -0.8904
  652MOL0     N89855   7.798   6.022  10.898 -0.0036  0.5250 -0.5689
  652MOL0     C89856   7.746   6.148  10.860 -0.6749  0.7860  0.4445
  652MOL0     C89857   7.725   6.139  10.722 -0.7108  0.0715  0.0318
  652MOL0     C89858   7.681   6.245  10.639 -0.5277  0.0651 -0.3994
  652MOL0     C89859   7.690   6.220  10.488  0.0961  0.0566 -0.4129
  652MOL0     C89860   7.629   6.350  10.430  0.3601  0.0733  0.2070
  652MOL0     C89861   7.612   6.324  10.279  0.2388  0.5229  0.2594
  652MOL0     O89862   7.534   6.428  10.215  0.5203  0.1710 -0.9578
  652MOL0     C89863   7.609   6.518  10.142 -0.4867  0.4313 -0.4634
  652MOL0     C89864   7.701   6.603  10.205 -0.1168  0.1639 -0.3832
  652MOL0     C89865   7.779   6.688  10.127 -0.8644 -0.3217 -0.1522
  652MOL0     C89866   7.879   6.779  10.198  0.9750  1.3740  0.0820
  652MOL0     C89867   7.769   6.698   9.991 -0.1382 -0.2920  0.7782
  652MOL0     C89868   7.852   6.783   9.892  0.7083 -0.7626 -0.0182
  652MOL0     O89869   7.800   6.805   9.764 -0.1054  0.0508  0.0365
  652MOL0     C89870   7.894   6.846   9.670  0.7157  0.2446  0.3436
  652MOL0     C89871   8.003   6.758   9.648  0.9757 -0.3968  0.4190
  652MOL0     C89872   8.086   6.782   9.543 -0.3434 -1.0909  0.0264
  652MOL0     C89873   8.074   6.890   9.454  0.2966  0.3179 -0.1557
  652MOL0     O89874   8.158   6.900   9.347  0.9643  0.8187 -0.0388
  652MOL0     C89875   8.254   7.008   9.351  0.8523 -0.0997 -0.2529
  652MOL0     C89876   8.359   6.991   9.459 -0.1722 -0.1391  0.1183
  652MOL0     C89877   8.314   7.056   9.595  0.2019 -0.3874 -0.5425
  652MOL0     C89878   8.432   7.088   9.684 -0.7963  0.0946  0.1076
  652MOL0     C89879   8.377   7.136   9.820 -0.1456  0.0904 -0.2160
  652MOL0     C89880   8.328   7.014   9.906  0.5801 -0.9579  0.0913
  652MOL0     C89881   8.263   7.067  10.034  1.0702 -0.7201  0.3446
  652MOL0     C89882   8.204   6.965  10.124  0.8162  0.9107 -0.3730
  652MOL0    Cl89883   8.138   7.037  10.274 -0.5057  0.1966  0.5518
  652MOL0     C89884   7.965   6.973   9.473  0.1849 -0.4781 -0.8198
  652MOL0     C89885   7.878   6.950   9.580 -0.4359  0.3081  0.8714
  652MOL0     O89886   7.970   6.806   9.931 -0.2764 -0.3633  0.6688
  652MOL0     C89887   7.675   6.617   9.933  0.0698  1.0235  0.6534
  652MOL0     C89888   7.592   6.532  10.007  0.2010 -0.0093 -0.3164
  652MOL0     N89889   7.772   6.014  10.686 -0.6649  0.6143  0.5362
  652MOL0     N89890   7.816   5.946  10.792 -0.2672  0.1223 -0.3499
  652MOL0     C89891   7.118   6.517  11.277  0.1069  0.0626 -0.5036
  652MOL0     C89892   7.063   6.635  11.217  0.9665  0.6462 -0.6483
  652MOL0     C89893   7.045   7.097  11.165  0.5391 -0.4023  0.1674
  652MOL0     C89894   6.993   7.119  11.291 -0.8983 -0.7957 -0.2403
  652MOL0     C89895   6.919   7.230  11.318  0.2155 -0.6653 -0.6067
  652MOL0     C89896   6.899   7.341  11.225 -0.1242 -0.8854  0.6471
  652MOL0     O89897   6.821   7.443  11.261 -0.3479 -0.2113 -0.5707
  652MOL0     C89898   6.774   7.546  11.169 -0.4852  0.1200 -0.0915
  652MOL0     C89899   6.709   7.667  11.224 -0.1494 -0.9520 -0.5892
  652MOL0     C89900   6.670   7.760  11.106 -0.5305 -0.8991  0.4311
  652MOL0     C89901   6.643   7.908  11.147 -0.2421  0.6038 -1.0028
  652MOL0     C89902   6.624   8.000  11.040 -0.3948  0.3107  0.0549
  652MOL0     C89903   6.629   8.095  10.961  0.2902  0.4199  0.1777
  652MOL0     C89904   6.951   7.318  11.093  0.7763 -0.5551 -0.1171
  652MOL0     C89905   7.027   7.200  11.066 -0.3584  0.9009  0.8280
  652MOL0     C89906   7.078   7.175  10.927 -0.2272  0.5418 -0.1259
  652MOL0     H89907   7.281   6.851  11.349 -0.2627 -0.5843  1.0461
  652MOL0     H89908   7.391   6.652  11.418  2.6915 -1.2938 -3.4327
  652MOL0     H89909   7.259   6.235  11.333  2.1389  0.4147 -0.1221
  652MOL0     H89910   7.165   6.293  11.477  1.2156 -0.4745  3.0746
  652MOL0     H89911   7.367   6.259  11.627 -1.4908 -0.5124  2.2907
  652MOL0     H89912   7.296   6.114  11.547 -0.4375  0.9974 -1.1490
  652MOL0     H89913   7.526   6.274  11.434 -1.1514 -0.8003 -3.2564
  652MOL0     H89914   7.564   6.148  11.556 -1.4092 -3.6430  1.0731
  652MOL0     H89915   7.473   5.974  11.393 -0.9424  0.8774 -0.6547
  652MOL0     H89916   7.433   6.103  11.282 -0.6315 -3.2941 -0.7629
  652MOL0     H89917   7.702   6.013  11.370 -1.9013 -1.3167 -0.0247
  652MOL0     H89918   7.680   6.156  11.272  2.7362 -0.6416  1.9303
  652MOL0     H89919   7.582   5.866  11.229 -2.1251  0.8016 -1.5819
  652MOL0     H89920   7.576   5.998  11.102  1.7790 -0.7580 -2.9395
  652MOL0     H89921   7.748   5.813  11.053 -1.1579  1.5882 -2.0668
  652MOL0     H89922   7.819   5.849  11.201  2.1104  1.7651  0.5032
  652MOL0     H89923   7.891   6.067  11.092  1.7382 -3.0610  1.0682
  652MOL0     H89924   7.945   5.921  11.003 -0.8053 -1.0384 -1.5752
  652MOL0     H89925   7.727   6.235  10.922  2.6446  2.4423 -0.6385
  652MOL0     H89926   7.732   6.338  10.665 -2.1649  1.0253 -0.4315
  652MOL0     H89927   7.577   6.262  10.669 -1.0707  1.4729 -2.7520
  652MOL0     H89928   7.794   6.207  10.457  0.3213  0.8351 -0.0042
  652MOL0     H89929   7.628   6.133  10.466  0.9231 -0.5766 -0.2551
  652MOL0     H89930   7.534   6.375  10.479  1.9797  1.2833  2.9479
  652MOL0     H89931   7.698   6.434  10.441  1.0054  0.5865 -5.0202
  652MOL0     H89932   7.713   6.305  10.241  0.3222  3.0068 -0.9308
  652MOL0     H89933   7.553   6.233  10.263 -0.4737  1.2954 -1.8439
  652MOL0     H89934   7.710   6.596  10.313  0.5859 -1.0630 -0.4987
  652MOL0     H89935   7.874   6.769  10.307 -3.4530 -1.9884 -0.1680
  652MOL0     H89936   7.866   6.886  10.178 -0.0310  1.7158  2.2329
  652MOL0     H89937   7.984   6.757  10.175  1.1176 -1.7012  2.9288
  652MOL0     H89938   8.028   6.679   9.717 -0.6760 -0.3711  1.0798
  652MOL0     H89939   8.165   6.713   9.514  0.7494  0.3493 -0.5440
  652MOL0     H89940   8.309   7.011   9.257  1.1312 -0.8483 -0.1244
  652MOL0     H89941   8.216   7.109   9.369  0.3038 -0.3387 -0.0697
  652MOL0     H89942   8.372   6.884   9.476 -1.9208 -0.3567  0.3030
  652MOL0     H89943   8.454   7.037   9.431  0.1355 -0.5192  0.5253
  652MOL0     H89944   8.250   6.979   9.641  0.3692  0.1438  0.6125
  652MOL0     H89945   8.250   7.142   9.579 -3.3014 -2.7583 -0.3708
  652MOL0     H89946   8.492   7.172   9.648  1.8830 -1.4365  0.7691
  652MOL0     H89947   8.510   7.012   9.693  4.2309  4.2472 -2.7120
  652MOL0     H89948   8.450   7.198   9.873 -0.6816  1.3524 -0.8952
  652MOL0     H89949   8.295   7.207   9.803 -0.7405  0.7194  4.1833
  652MOL0     H89950   8.418   6.961   9.941 -0.0635 -0.5715  2.5414
  652MOL0     H89951   8.256   6.947   9.858  1.8130 -1.0477 -1.7404
  652MOL0     H89952   8.187   7.142  10.012 -3.0608 -2.8384  5.1542
  652MOL0     H89953   8.335   7.127  10.090 -2.3797  0.4426  4.0841
  652MOL0     H89954   8.285   6.895  10.149  0.3265  0.3493 -0.3497
  652MOL0     H89955   8.124   6.905  10.080  0.6281  0.5502  0.4511
  652MOL0     H89956   7.956   7.046   9.392  1.5885 -1.1933 -1.6506
  652MOL0     H89957   7.788   7.007   9.604 -1.1476 -0.9756  1.4166
  652MOL0     H89958   7.660   6.620   9.826 -0.6958 -2.0579  0.5822
  652MOL0     H89959   7.515   6.464   9.973  0.8547 -0.4316 -0.9961
  652MOL0     H89960   7.066   6.423  11.262 -1.4239  0.4670  1.8115
  652MOL0     H89961   6.963   6.636  11.176 -1.8018  2.9949  5.0854
  652MOL0     H89962   7.006   7.045  11.369 -0.5303  2.2257  2.7969
  652MOL0     H89963   6.880   7.250  11.417 -1.8290  0.8784 -1.6428
  652MOL0     H89964   6.858   7.589  11.114 -2.5606  1.8496 -2.1110
  652MOL0     H89965   6.706   7.500  11.097  0.6075 -1.1695 -0.3496
  652MOL0     H89966   6.760   7.724  11.303 -1.3880 -0.4729 -0.1169
  652MOL0     H89967   6.619   7.632  11.274 -0.8579  4.7648  3.1195
  652MOL0     H89968   6.741   7.760  11.023 -0.3572 -0.7639  0.5778
  652MOL0     H89969   6.573   7.739  11.059 -1.2359  2.1881  0.2380
  652MOL0     H89970   6.730   7.939  11.204 -0.6040  0.5906 -0.4342
  652MOL0     H89971   6.559   7.913  11.217  1.5485  2.8036  1.1388
  652MOL0     H89972   6.629   8.168  10.883 -1.8583  0.3276  0.0325
  652MOL0     H89973   6.937   7.394  11.016  1.4168  1.9799  2.1310
  652MOL0     H89974   7.020   7.216  10.844  0.3620 -1.3000 -1.5105
  652MOL0     H89975   7.178   7.219  10.928 -0.9513  2.3403 -1.1095
  652MOL0     H89976   7.089   7.069  10.906  0.6575  1.0576 -2.5640
  653MOL0     O89977   1.474   1.392   0.507  0.9015 -0.0190 -0.3961
  653MOL0     C89978   1.474   1.268   0.519  0.5057  1.0021 -0.1492
  653MOL0     O89979   1.546   1.174   0.453  0.3347 -0.1222  0.2501
  653MOL0     C89980   1.643   1.218   0.368  0.2058  0.5199 -0.4443
  653MOL0     C89981   1.667   1.136   0.259 -0.3601 -0.3423  0.1967
  653MOL0     C89982   1.786   1.142   0.183  0.5101  0.1489 -0.2825
  653MOL0     C89983   1.895   1.215   0.236  0.0155 -0.8542 -0.3453
  653MOL0     O89984   2.017   1.221   0.179 -0.7599 -0.4956 -0.2866
  653MOL0     C89985   2.056   1.138   0.074 -0.8647  0.4995  0.7834
  653MOL0     C89986   2.212   1.129   0.047  0.1919 -0.3358 -0.0452
  653MOL0     C89987   2.263   1.249  -0.030 -0.0141  0.0773 -0.2448
  653MOL0     C89988   2.262   1.231  -0.186  0.4891 -0.6177 -0.4789
  653MOL0     C89989   2.361   1.332  -0.252 -0.1958 -0.2864 -1.0446
  653MOL0     C89990   2.347   1.339  -0.405  0.0016  0.0788 -0.1269
  653MOL0     C89991   2.484   1.414  -0.442 -0.1851  0.5574  0.0214
  653MOL0     C89992   2.487   1.431  -0.594 -1.2988  0.2790 -0.5079
  653MOL0     N89993   2.551   1.549  -0.638  0.1916 -0.6121 -0.1383
  653MOL0     C89994   2.518   1.682  -0.607  0.1034  0.5777  0.0059
  653MOL0     C89995   2.608   1.754  -0.674  0.6725 -1.6687  0.0607
  653MOL0     C89996   2.620   1.903  -0.662  0.6594 -0.5637 -0.4310
  653MOL0     C89997   2.641   1.956  -0.522 -0.1038 -0.5119  0.1990
  653MOL0     C89998   2.769   1.907  -0.446 -0.4832 -0.3215  0.0913
  653MOL0     C89999   2.895   1.986  -0.488  0.2405  0.3664  0.2359
  653MOL0     O90000   2.879   2.129  -0.477  0.0695  0.0553  1.3519
  653MOL0     C90001   2.923   2.186  -0.362  0.0712 -0.2725  0.1093
  653MOL0     C90002   2.838   2.254  -0.283 -0.9228 -1.0295 -1.0708
  653MOL0     C90003   2.874   2.305  -0.159 -0.3165 -0.1932 -0.0027
  653MOL0     C90004   2.763   2.371  -0.079  0.1528 -0.0862 -0.1260
  653MOL0     C90005   3.006   2.296  -0.114  0.4511  0.0858 -0.3804
  653MOL0     C90006   3.051   2.359   0.005  0.0020 -0.4138  0.1635
  653MOL0     O90007   3.121   2.280   0.094  0.9336  0.3766 -0.1789
  653MOL0     C90008   3.144   2.342   0.215  0.0291  0.2418 -0.1483
  653MOL0     C90009   3.086   2.308   0.341 -0.7893 -0.5008  1.0516
  653MOL0     C90010   3.130   2.360   0.456 -0.2476 -0.2841 -0.6951
  653MOL0     C90011   3.223   2.468   0.460 -0.3359  0.2398 -0.0796
  653MOL0     O90012   3.266   2.539   0.568 -0.0831 -0.2917  0.0217
  653MOL0     C90013   3.215   2.529   0.701 -0.2752 -0.2883 -0.4630
  653MOL0     C90014   3.107   2.626   0.728 -0.1126 -0.0718 -0.3540
  653MOL0     C90015   3.140   2.770   0.695 -0.9701  0.2349  0.3122
  653MOL0     C90016   3.020   2.858   0.752 -0.5763  1.3115 -0.2727
  653MOL0     C90017   3.027   2.997   0.688  0.5581 -0.0671  0.6109
  653MOL0     C90018   2.945   3.111   0.747 -0.1273  0.4030  0.2206
  653MOL0     C90019   2.935   3.240   0.661  0.7327  0.5954 -0.5269
  653MOL0     C90020   2.869   3.357   0.743  0.1909  0.9743  0.0272
  653MOL0    Cl90021   2.872   3.509   0.656  0.2308  0.2409  0.0266
  653MOL0     C90022   3.282   2.495   0.339  0.5014  0.8345 -0.4537
  653MOL0     C90023   3.249   2.438   0.218 -0.0503  0.3924  0.7762
  653MOL0     O90024   3.028   2.480   0.027 -0.7172 -0.3768  0.7802
  653MOL0     C90025   3.096   2.219  -0.191  0.5664  0.4423 -0.0547
  653MOL0     C90026   3.058   2.169  -0.321 -0.2226  0.5292  0.2026
  653MOL0     N90027   2.696   1.667  -0.739  0.8349 -0.4210 -0.4401
  653MOL0     N90028   2.655   1.545  -0.721  0.1114 -0.2426 -0.1258
  653MOL0     C90029   1.868   1.302   0.345 -0.1212 -0.1104  0.3687
  653MOL0     C90030   1.742   1.305   0.407 -0.2891  0.5994 -0.8504
  653MOL0     C90031   1.357   1.207   0.589  0.3529  0.1737 -0.1465
  653MOL0     C90032   1.222   1.253   0.559  0.1264  0.3480 -0.0233
  653MOL0     C90033   1.105   1.187   0.613 -0.2348 -1.3095  0.9919
  653MOL0     C90034   1.127   1.080   0.695 -0.7039 -0.1064 -0.5423
  653MOL0     O90035   1.023   1.019   0.760  0.6142  0.9303 -0.5633
  653MOL0     C90036   0.988   1.083   0.886 -0.2811 -0.2569  0.6856
  653MOL0     C90037   1.071   1.057   1.017  1.0502 -0.0161  0.4238
  653MOL0     C90038   1.060   0.904   1.033  0.6773  0.1274 -0.7665
  653MOL0     C90039   1.134   0.854   1.158 -0.3455 -0.0632 -0.3943
  653MOL0     C90040   1.066   0.898   1.288 -0.4385  0.5905 -0.0103
  653MOL0     C90041   1.027   0.940   1.399  0.1997 -0.7032  0.4924
  653MOL0     C90042   1.255   1.037   0.729 -1.1438  0.2809 -0.3066
  653MOL0     C90043   1.372   1.101   0.681  0.3012 -0.5621 -0.3268
  653MOL0     C90044   1.502   1.061   0.741  0.3116 -0.6007  0.6664
  653MOL0     H90045   1.593   1.059   0.239  0.7314 -1.4214  0.2170
  653MOL0     H90046   1.791   1.097   0.085 -2.7588  1.1754 -1.0496
  653MOL0     H90047   1.989   1.161  -0.009 -3.2334 -1.6815  1.9623
  653MOL0     H90048   2.033   1.036   0.104  2.6225 -0.2681  1.2763
  653MOL0     H90049   2.267   1.118   0.142  1.2952 -1.0205 -0.7379
  653MOL0     H90050   2.237   1.043  -0.016 -1.9114 -0.4854 -0.7460
  653MOL0     H90051   2.198   1.334  -0.011 -0.4725 -0.0695 -1.0924
  653MOL0     H90052   2.362   1.270   0.011 -0.8946 -0.3977  2.2800
  653MOL0     H90053   2.290   1.130  -0.219  0.3454 -0.5862 -0.7045
  653MOL0     H90054   2.159   1.247  -0.220  0.4288  1.6500  0.6252
  653MOL0     H90055   2.465   1.308  -0.227 -0.8065 -1.3420  0.6572
  653MOL0     H90056   2.340   1.429  -0.206 -1.7897 -0.2982 -1.6915
  653MOL0     H90057   2.353   1.239  -0.448 -0.2886 -0.1061  0.2569
  653MOL0     H90058   2.255   1.390  -0.436 -0.0429 -0.0590 -0.2210
  653MOL0     H90059   2.572   1.358  -0.409 -0.4417 -0.9211 -1.6664
  653MOL0     H90060   2.485   1.518  -0.408 -2.1082  1.3003 -1.9482
  653MOL0     H90061   2.538   1.347  -0.641  2.1154  1.2613  1.1711
  653MOL0     H90062   2.385   1.435  -0.634 -0.2652 -0.8106 -3.5662
  653MOL0     H90063   2.435   1.712  -0.544 -1.9504 -3.1247 -0.6532
  653MOL0     H90064   2.522   1.940  -0.695 -0.6899 -2.0800  1.6501
  653MOL0     H90065   2.702   1.943  -0.723  0.0469 -0.9417 -1.5270
  653MOL0     H90066   2.639   2.065  -0.524 -2.1766 -0.4791  1.3889
  653MOL0     H90067   2.560   1.928  -0.453 -0.0017 -2.5030 -0.4170
  653MOL0     H90068   2.775   1.942  -0.343  0.8721  2.3903 -0.8197
  653MOL0     H90069   2.776   1.798  -0.451  2.2857 -0.2632  0.9307
  653MOL0     H90070   2.983   1.950  -0.434 -0.7369 -1.7932  0.4832
  653MOL0     H90071   2.909   1.974  -0.596  0.2068 -1.8266  0.4383
  653MOL0     H90072   2.738   2.256  -0.325 -2.6465  0.1228  2.6593
  653MOL0     H90073   2.668   2.319  -0.096  0.5887 -0.7345 -0.6339
  653MOL0     H90074   2.749   2.475  -0.111  3.8568  1.0158  1.3230
  653MOL0     H90075   2.790   2.381   0.027  0.2452 -0.6571 -0.0925
  653MOL0     H90076   3.011   2.229   0.342 -1.9189  0.5442  0.9486
  653MOL0     H90077   3.078   2.317   0.541  1.5585 -1.2585 -0.0282
  653MOL0     H90078   3.185   2.424   0.705  2.3437 -1.0861 -0.0139
  653MOL0     H90079   3.299   2.542   0.770 -0.4397 -1.9832  0.1137
  653MOL0     H90080   3.012   2.610   0.676 -0.4881 -1.8299  0.7974
  653MOL0     H90081   3.084   2.618   0.834 -0.5949  1.3186 -0.3303
  653MOL0     H90082   3.155   2.784   0.587  1.6486 -1.5448  0.3612
  653MOL0     H90083   3.234   2.794   0.744 -0.7392  1.3052 -0.6044
  653MOL0     H90084   3.042   2.866   0.859 -1.3997 -2.1200  0.2818
  653MOL0     H90085   2.922   2.809   0.748 -0.9166  1.0854  4.4369
  653MOL0     H90086   3.134   3.016   0.700  0.7999 -1.3878  0.7162
  653MOL0     H90087   3.011   2.979   0.582  2.0468  0.5827  0.2586
  653MOL0     H90088   2.999   3.142   0.837  3.4806 -1.2074 -1.1691
  653MOL0     H90089   2.847   3.070   0.771  0.7717 -0.2052  3.2364
  653MOL0     H90090   2.891   3.209   0.567  1.6357  1.1053 -1.1344
  653MOL0     H90091   3.032   3.268   0.618  1.8611 -4.4313 -1.9483
  653MOL0     H90092   2.922   3.378   0.836  0.7411  1.1824 -0.3293
  653MOL0     H90093   2.765   3.324   0.758  0.5202  0.4034  1.1840
  653MOL0     H90094   3.360   2.570   0.330  0.4567  1.1082  1.1504
  653MOL0     H90095   3.307   2.455   0.128  2.8212 -1.5270  2.1050
  653MOL0     H90096   3.199   2.209  -0.157  0.4787 -0.9626 -0.1334
  653MOL0     H90097   3.131   2.142  -0.397  0.3133  3.4997 -0.4666
  653MOL0     H90098   1.949   1.364   0.382  0.7380 -1.2437  0.4667
  653MOL0     H90099   1.732   1.353   0.504  1.5849 -1.4478  0.4656
  653MOL0     H90100   1.218   1.338   0.492 -0.7010  0.4894  0.1942
  653MOL0     H90101   1.002   1.207   0.584  0.0360 -2.5044 -0.9368
  653MOL0     H90102   0.967   1.186   0.857 -4.1156 -1.4281 -1.4125
  653MOL0     H90103   0.891   1.038   0.907 -0.7789 -0.4963 -1.9016
  653MOL0     H90104   1.021   1.098   1.105  2.2228 -0.2097  1.1950
  653MOL0     H90105   1.172   1.096   1.008 -0.3361  3.6760 -0.9609
  653MOL0     H90106   0.960   0.864   1.050  0.8431 -0.3561 -0.9272
  653MOL0     H90107   1.097   0.861   0.939  1.4055  1.0647 -0.9346
  653MOL0     H90108   1.239   0.882   1.152  0.3372 -1.2298  3.3328
  653MOL0     H90109   1.131   0.745   1.154  1.6348 -0.1824  0.2594
  653MOL0     H90110   0.972   0.967   1.486 -2.8746 -1.3002 -1.1464
  653MOL0     H90111   1.271   0.955   0.799 -0.0177 -0.5450 -1.4947
  653MOL0     H90112   1.576   1.142   0.744  1.9955 -2.1067  1.3280
  653MOL0     H90113   1.482   1.029   0.843  1.6676 -1.1415  0.7814
  653MOL0     H90114   1.551   0.988   0.676 -2.5914  0.0534 -2.5440
  654MOL0     O90115   6.893   9.754   1.170  0.2961 -0.3456 -0.0151
  654MOL0     C90116   6.979   9.821   1.114  0.5391 -1.0364 -0.3018
  654MOL0     O90117   7.090   9.868   1.183 -0.5017  0.6101  0.4362
  654MOL0     C90118   7.105   9.873   1.319 -0.9487  0.5476  0.1663
  654MOL0     C90119   7.236   9.856   1.374 -0.2669 -0.2580  0.0955
  654MOL0     C90120   7.250   9.889   1.506 -0.3614 -0.9501  0.0375
  654MOL0     C90121   7.155   9.945   1.586  0.1684 -0.4373 -0.3420
  654MOL0     O90122   7.200   9.978   1.712 -0.4687  0.2649 -0.7515
  654MOL0     C90123   7.114  10.072   1.781 -0.2694  0.0043 -0.0810
  654MOL0     C90124   7.159  10.081   1.927  0.4852  0.1078 -0.4885
  654MOL0     C90125   7.097   9.970   2.018  0.1338 -0.6620  0.4364
  654MOL0     C90126   7.077  10.026   2.164 -0.0363  0.3250  0.0537
  654MOL0     C90127   7.077   9.913   2.274  0.6414 -0.6901  0.2565
  654MOL0     C90128   7.077   9.987   2.418 -0.9322 -0.7332 -0.6537
  654MOL0     C90129   7.047   9.891   2.533 -0.2743  0.1112  0.9353
  654MOL0     C90130   7.159   9.784   2.557 -0.2078 -0.3229  0.3201
  654MOL0     N90131   7.271   9.858   2.619 -0.2905 -0.3845  0.0136
  654MOL0     C90132   7.292   9.861   2.751 -0.5258 -0.2373  0.4161
  654MOL0     C90133   7.407   9.923   2.772 -0.5379 -0.2662  0.5904
  654MOL0     C90134   7.481   9.923   2.904 -0.5776 -0.3068  0.8654
  654MOL0     C90135   7.501  10.058   2.971  1.0279  0.1091  0.0708
  654MOL0     C90136   7.597  10.054   3.084 -0.9053 -0.1967  0.6925
  654MOL0     C90137   7.637  10.196   3.136  0.5592 -0.3152 -0.0843
  654MOL0     O90138   7.692  10.167   3.261  0.2522  0.5308  0.0145
  654MOL0     C90139   7.818  10.125   3.278  0.3462  0.1634 -0.1312
  654MOL0     C90140   7.854  10.107   3.410  0.1400 -0.0827 -0.3947
  654MOL0     C90141   7.988  10.080   3.449 -0.4956 -0.0021  0.4984
  654MOL0     C90142   8.021  10.076   3.600 -1.0215 -0.2235 -0.2215
  654MOL0     C90143   8.086  10.067   3.349  0.1271  0.3574  0.0311
  654MOL0     C90144   8.225  10.027   3.376  0.2430 -0.1005  0.2002
  654MOL0     O90145   8.254   9.945   3.476 -0.4970  0.4239 -0.1907
  654MOL0     C90146   8.385   9.908   3.502 -0.3294  0.6599  0.3034
  654MOL0     C90147   8.475  10.006   3.535 -0.3106  0.3554  0.1305
  654MOL0     C90148   8.604   9.967   3.539 -0.9669 -0.4193  0.8429
  654MOL0     C90149   8.651   9.838   3.518 -0.1633  0.2326 -0.3180
  654MOL0     O90150   8.780   9.791   3.509 -0.1621  0.2639  0.3231
  654MOL0     C90151   8.870   9.882   3.449 -0.5925 -1.4005  0.2237
  654MOL0     C90152   8.944   9.966   3.555  0.3519 -0.8919 -0.7076
  654MOL0     C90153   9.013   9.870   3.646 -0.4751 -0.8676  0.7725
  654MOL0     C90154   9.098   9.950   3.755  0.7984 -0.5484  0.1054
  654MOL0     C90155   9.197   9.867   3.838 -1.0680  0.0283 -0.2545
  654MOL0     C90156   9.312   9.816   3.745 -0.7876 -0.1958 -0.1419
  654MOL0     C90157   9.431   9.767   3.828 -0.2181 -0.9608 -0.1891
  654MOL0     C90158   9.507   9.872   3.914  0.2125 -0.9387 -0.9600
  654MOL0    Cl90159   9.493   9.844   4.094  0.2566 -0.1578  0.1889
  654MOL0     C90160   8.549   9.735   3.508  0.6890 -0.0177 -0.8785
  654MOL0     C90161   8.416   9.775   3.502 -0.2642  0.0987 -0.6495
  654MOL0     O90162   8.304  10.059   3.294  0.0649 -0.0609  0.1455
  654MOL0     C90163   8.046  10.093   3.207 -0.8460  0.0639 -0.0858
  654MOL0     C90164   7.911  10.133   3.184 -0.2007  0.8294  0.3385
  654MOL0     N90165   7.445   9.975   2.654 -0.1313 -0.7029 -0.7624
  654MOL0     N90166   7.365   9.933   2.569 -0.6687  0.7902  0.1897
  654MOL0     C90167   7.023   9.954   1.538  0.0469  0.0469 -0.9294
  654MOL0     C90168   7.010   9.928   1.402 -0.0399  0.5820  0.3539
  654MOL0     C90169   6.938   9.865   0.970  0.6518 -0.4735  0.3529
  654MOL0     C90170   7.044   9.876   0.879  0.5456 -0.6074  0.0824
  654MOL0     C90171   7.026   9.914   0.749 -0.3898  0.6531 -0.6590
  654MOL0     C90172   6.896   9.943   0.697 -0.1717 -0.4319  0.8056
  654MOL0     O90173   6.863   9.970   0.567  0.3981 -0.3005 -0.2467
  654MOL0     C90174   6.970  10.030   0.493  0.6227  0.3278  0.4003
  654MOL0     C90175   7.049   9.922   0.407  0.4737 -1.2729  0.2729
  654MOL0     C90176   6.962   9.853   0.300 -0.8040 -0.7255  0.2337
  654MOL0     C90177   7.037   9.724   0.242 -0.5273 -0.7659  0.3891
  654MOL0     C90178   7.144   9.752   0.148 -0.0343  0.2922  0.0672
  654MOL0     C90179   7.228   9.794   0.076 -0.2076  0.6841  0.1753
  654MOL0     C90180   6.788   9.918   0.785 -0.0729  0.3946 -0.3966
  654MOL0     C90181   6.807   9.868   0.916  1.0117  0.2830  0.6224
  654MOL0     C90182   6.672   9.844   0.994  0.1587  0.2836 -0.1531
  654MOL0     H90183   7.321   9.834   1.310  0.3243  0.1665  0.7224
  654MOL0     H90184   7.348   9.882   1.552  0.3740 -0.8511 -1.4329
  654MOL0     H90185   7.006  10.055   1.772 -0.5045  2.1084 -2.2263
  654MOL0     H90186   7.119  10.172   1.738 -1.6336 -0.2831 -0.9647
  654MOL0     H90187   7.265  10.059   1.942  0.3150  0.2700  1.0994
  654MOL0     H90188   7.142  10.184   1.959 -1.4882  0.7672 -3.2631
  654MOL0     H90189   6.999   9.940   1.981 -0.1245  0.5057  0.1412
  654MOL0     H90190   7.164   9.884   2.029  0.2762 -0.7646 -1.0521
  654MOL0     H90191   7.159  10.094   2.190  1.0781 -0.8895 -0.1679
  654MOL0     H90192   6.989  10.091   2.166 -0.7146 -0.4949  3.9069
  654MOL0     H90193   7.162   9.847   2.258  1.3403  0.1891  0.2570
  654MOL0     H90194   6.994   9.842   2.266 -1.1990  1.1872  1.4726
  654MOL0     H90195   7.179  10.022   2.439 -1.4184  0.8786 -0.8201
  654MOL0     H90196   7.008  10.072   2.428  1.0409  0.7150  2.1722
  654MOL0     H90197   6.957   9.838   2.500  0.9011 -0.7254 -1.1480
  654MOL0     H90198   7.009   9.949   2.617 -2.5750  0.4235 -0.2416
  654MOL0     H90199   7.122   9.707   2.626 -2.5985  0.1230 -0.3916
  654MOL0     H90200   7.196   9.738   2.465  1.1728 -0.5736  0.9750
  654MOL0     H90201   7.222   9.827   2.826 -1.6455  3.4556  1.2551
  654MOL0     H90202   7.578   9.883   2.873 -1.2173 -0.1139 -1.6610
  654MOL0     H90203   7.438   9.853   2.976  0.4202 -2.7102 -0.7190
  654MOL0     H90204   7.530  10.136   2.900  2.1057  1.2538  1.7072
  654MOL0     H90205   7.401  10.078   3.009 -0.3465 -1.0963 -2.6485
  654MOL0     H90206   7.554   9.995   3.166 -1.7771  0.8750  1.0278
  654MOL0     H90207   7.688  10.002   3.053  0.4218  0.4581  3.2024
  654MOL0     H90208   7.701  10.263   3.078  2.9627 -3.1182 -0.9373
  654MOL0     H90209   7.548  10.255   3.157 -1.6986 -3.7890  1.0525
  654MOL0     H90210   7.768  10.108   3.476  1.0263 -0.5455  0.8112
  654MOL0     H90211   8.085  10.161   3.622 -1.8139 -0.0230  1.4487
  654MOL0     H90212   8.063   9.977   3.616 -1.2633 -0.4196 -0.7628
  654MOL0     H90213   7.926  10.079   3.654 -0.7674 -2.5881  0.4681
  654MOL0     H90214   8.441  10.109   3.530  0.0247  0.4731  0.2596
  654MOL0     H90215   8.681  10.043   3.546 -1.2944  0.1926 -1.3756
  654MOL0     H90216   8.937   9.824   3.385  2.6019  2.0801  0.0089
  654MOL0     H90217   8.811   9.945   3.382  0.5807 -2.6350 -2.1136
  654MOL0     H90218   9.003  10.051   3.519 -0.3486  0.0529  0.2980
  654MOL0     H90219   8.871  10.018   3.617  2.3285  1.4856 -0.2501
  654MOL0     H90220   9.074   9.808   3.579  0.1261  0.8641 -0.3522
  654MOL0     H90221   8.936   9.813   3.699 -1.1747 -0.6831 -0.0202
  654MOL0     H90222   9.016   9.990   3.816  0.3923  1.5832 -1.7045
  654MOL0     H90223   9.145  10.037   3.707 -0.7609  0.1193 -0.3071
  654MOL0     H90224   9.239   9.929   3.918  0.2053 -0.1279 -0.7842
  654MOL0     H90225   9.148   9.779   3.881 -1.1310 -0.3902 -1.1809
  654MOL0     H90226   9.342   9.900   3.682  0.3789 -1.6677 -1.6369
  654MOL0     H90227   9.268   9.737   3.684 -2.2374 -0.3783  1.0825
  654MOL0     H90228   9.507   9.737   3.755  0.5037  0.3739 -0.0198
  654MOL0     H90229   9.409   9.697   3.909 -0.3073 -0.5121  0.1793
  654MOL0     H90230   9.458   9.966   3.890 -1.5623 -1.5694 -0.0047
  654MOL0     H90231   9.611   9.877   3.881 -0.3207 -1.0796 -2.7769
  654MOL0     H90232   8.572   9.629   3.497 -0.5859 -0.2040 -2.0181
  654MOL0     H90233   8.335   9.705   3.482 -2.1469  1.3769  1.9860
  654MOL0     H90234   8.120  10.093   3.127  1.6060 -2.6474  1.9428
  654MOL0     H90235   7.869  10.149   3.085 -0.0615 -0.0807  0.1258
  654MOL0     H90236   6.933   9.989   1.589  0.5470  0.7870 -0.5483
  654MOL0     H90237   6.911   9.943   1.360 -0.2833 -0.8582  0.3692
  654MOL0     H90238   7.150   9.863   0.896  0.9493  1.9960  0.0078
  654MOL0     H90239   7.116   9.919   0.687 -1.2735 -0.0647 -2.0684
  654MOL0     H90240   6.936  10.112   0.430  3.9249  2.4261  1.0695
  654MOL0     H90241   7.038  10.085   0.559  3.1875  0.1031 -1.8546
  654MOL0     H90242   7.089   9.853   0.482 -0.6023  1.3876  3.5696
  654MOL0     H90243   7.139   9.971   0.369  0.3648  0.6601  2.2723
  654MOL0     H90244   6.869   9.820   0.347 -0.1931 -3.1270 -0.0723
  654MOL0     H90245   6.951   9.923   0.217  3.3099 -0.7886 -0.6129
  654MOL0     H90246   6.960   9.667   0.188  1.3631 -1.0067 -2.2506
  654MOL0     H90247   7.077   9.666   0.326 -1.4518 -0.8780  0.7647
  654MOL0     H90248   7.300   9.829   0.005 -0.4846  1.8576  0.4455
  654MOL0     H90249   6.692   9.948   0.745 -0.6739 -1.5590 -0.5410
  654MOL0     H90250   6.661   9.739   1.021  1.8287  0.1434  0.1288
  654MOL0     H90251   6.667   9.899   1.089 -3.3584 -1.1309  0.6331
  654MOL0     H90252   6.584   9.878   0.939 -1.7245 -0.0164  2.4675
  655MOL0     O90253  11.453   0.941   7.919  0.5367  0.6344 -0.0142
  655MOL0     C90254  11.358   0.939   7.992 -0.5153 -0.2725 -0.5557
  655MOL0     O90255  11.329   0.854   8.096  0.2403 -0.2970 -0.0373
  655MOL0     C90256  11.405   0.746   8.126 -1.0399 -0.0228 -0.9153
  655MOL0     C90257  11.437   0.713   8.266  0.7284  0.1935 -0.6619
  655MOL0     C90258  11.518   0.599   8.291 -1.0651 -1.0477 -0.4715
  655MOL0     C90259  11.570   0.514   8.195 -0.6276 -0.5423 -0.1254
  655MOL0     O90260  11.633   0.411   8.252  0.2076  0.3510 -0.0055
  655MOL0     C90261  11.724   0.335   8.171  0.3865 -0.3028  0.0356
  655MOL0     C90262  11.743   0.197   8.221  0.5670 -0.3909  0.6620
  655MOL0     C90263  11.873   0.133   8.156  0.1921 -0.0996  0.4435
  655MOL0     C90264  12.011   0.161   8.225 -0.3297 -1.8368  0.0838
  655MOL0     C90265  12.129   0.128   8.140  0.5053 -0.2196  0.0055
  655MOL0     C90266  12.125  -0.017   8.103 -0.0392  1.0871 -0.8986
  655MOL0     C90267  12.260  -0.055   8.032  0.8529  0.1512  0.6200
  655MOL0     C90268  12.281  -0.205   8.019 -0.0782  0.4934  0.0363
  655MOL0     N90269  12.187  -0.270   7.934  0.6084 -0.1019 -0.3486
  655MOL0     C90270  12.109  -0.374   7.965 -0.1227  1.1587 -0.3833
  655MOL0     C90271  12.061  -0.422   7.845 -0.8257  0.9473  0.1671
  655MOL0     C90272  11.958  -0.534   7.835 -0.9233  0.0709  0.5285
  655MOL0     C90273  11.857  -0.533   7.944 -0.0967 -0.4505  0.2322
  655MOL0     C90274  11.769  -0.410   7.954 -0.7921  0.6210 -0.0059
  655MOL0     C90275  11.681  -0.410   8.080  0.5371 -0.1797 -0.3165
  655MOL0     O90276  11.571  -0.498   8.052 -0.4961  0.1366  0.0165
  655MOL0     C90277  11.551  -0.609   8.134 -0.4366  0.1680 -0.3059
  655MOL0     C90278  11.426  -0.648   8.176 -0.6205 -0.8334  0.1986
  655MOL0     C90279  11.386  -0.751   8.260 -1.0206 -0.1340 -0.2628
  655MOL0     C90280  11.240  -0.780   8.306 -0.0509 -0.3552  0.4547
  655MOL0     C90281  11.486  -0.833   8.310  0.3808 -0.9843  0.1206
  655MOL0     C90282  11.470  -0.956   8.395 -0.1627  0.4075 -0.4015
  655MOL0     O90283  11.561  -0.972   8.491  0.3306  0.6694 -0.1215
  655MOL0     C90284  11.632  -1.094   8.507 -0.0097  0.3211 -0.7016
  655MOL0     C90285  11.633  -1.193   8.412  0.3719 -0.3457 -0.4805
  655MOL0     C90286  11.694  -1.323   8.443 -0.1958 -0.4458  0.3529
  655MOL0     C90287  11.759  -1.344   8.565  0.8052 -0.0191  0.2292
  655MOL0     O90288  11.823  -1.465   8.582  0.0938 -0.6699  0.4950
  655MOL0     C90289  11.966  -1.466   8.590 -0.0179  0.1838  0.4606
  655MOL0     C90290  12.013  -1.608   8.605  0.1580 -0.2004  0.3671
  655MOL0     C90291  12.162  -1.609   8.582 -0.2549  0.5855 -0.2854
  655MOL0     C90292  12.222  -1.756   8.594  0.4519  0.7847  0.2980
  655MOL0     C90293  12.356  -1.777   8.529  0.1871 -0.0097 -0.0985
  655MOL0     C90294  12.349  -1.831   8.386  0.0582 -0.6706  0.3562
  655MOL0     C90295  12.343  -1.989   8.383  0.3212 -0.0707 -0.0182
  655MOL0     C90296  12.238  -2.037   8.287 -0.6088 -0.0195 -0.0072
  655MOL0    Cl90297  12.065  -2.008   8.337  0.1505 -0.5304 -0.2894
  655MOL0     C90298  11.762  -1.239   8.658  0.4736  0.0004  0.8548
  655MOL0     C90299  11.708  -1.112   8.628  1.4160  0.7777  0.3448
  655MOL0     O90300  11.383  -1.039   8.373 -0.3820  0.0493  0.1310
  655MOL0     C90301  11.624  -0.793   8.283  0.6946  0.1079 -0.4333
  655MOL0     C90302  11.652  -0.693   8.191 -0.2122  0.0602  0.1491
  655MOL0     N90303  12.120  -0.345   7.742  0.0366  1.0254 -0.2412
  655MOL0     N90304  12.200  -0.266   7.798 -0.5843  0.3104  0.8936
  655MOL0     C90305  11.543   0.545   8.060 -0.2531 -1.0600 -0.4226
  655MOL0     C90306  11.462   0.658   8.033  0.1994 -0.0299 -0.7181
  655MOL0     C90307  11.259   1.051   7.960  0.4550  0.4691 -0.4421
  655MOL0     C90308  11.280   1.142   7.851  0.1049  0.1571 -0.5570
  655MOL0     C90309  11.186   1.244   7.813 -0.7548  0.4680 -0.2233
  655MOL0     C90310  11.067   1.266   7.888  0.2445  0.7146 -0.3826
  655MOL0     O90311  10.976   1.370   7.853 -0.5243  0.3695 -0.5079
  655MOL0     C90312  10.873   1.399   7.943 -0.0126 -0.8360 -0.1275
  655MOL0     C90313  10.929   1.486   8.061 -0.7689 -0.0520  0.2478
  655MOL0     C90314  10.818   1.566   8.144 -0.4774  0.1614  0.1272
  655MOL0     C90315  10.891   1.658   8.244 -0.4340 -1.3041 -0.2258
  655MOL0     C90316  10.953   1.780   8.172  0.4031 -0.2048  0.4276
  655MOL0     C90317  10.990   1.871   8.106  0.4295  0.7883  0.5878
  655MOL0     C90318  11.051   1.184   8.004 -0.0525  0.1213 -0.8054
  655MOL0     C90319  11.139   1.080   8.045  0.4286 -0.8106 -0.2830
  655MOL0     C90320  11.107   1.015   8.180  0.9120  0.0899 -0.5632
  655MOL0     H90321  11.384   0.763   8.346 -0.6802 -3.0618  0.6267
  655MOL0     H90322  11.536   0.582   8.397 -2.0278  1.4609  0.1688
  655MOL0     H90323  11.819   0.389   8.160  0.7722 -0.9951 -0.1026
  655MOL0     H90324  11.683   0.331   8.070 -2.0361  2.2391  0.8102
  655MOL0     H90325  11.737   0.194   8.330 -1.0141  2.2691  0.7355
  655MOL0     H90326  11.659   0.140   8.180  3.4881 -1.7460 -4.1813
  655MOL0     H90327  11.855   0.026   8.143  0.1469  0.0373 -0.6989
  655MOL0     H90328  11.893   0.174   8.057  5.6918 -1.7520  0.5377
  655MOL0     H90329  12.020   0.261   8.269 -0.3972 -0.6618 -2.4385
  655MOL0     H90330  12.016   0.093   8.311 -3.1124 -0.3456  1.5856
  655MOL0     H90331  12.224   0.151   8.189  0.4589 -2.4291  1.2586
  655MOL0     H90332  12.118   0.175   8.042  0.0725 -1.2851 -0.4770
  655MOL0     H90333  12.115  -0.065   8.201  1.7559 -0.9247 -1.6154
  655MOL0     H90334  12.034  -0.051   8.054 -1.2487  1.0245  1.2824
  655MOL0     H90335  12.343  -0.005   8.082  0.3568 -1.0097  2.7439
  655MOL0     H90336  12.251  -0.017   7.930  2.0045 -2.5376 -0.5856
  655MOL0     H90337  12.372  -0.215   7.960  0.5350  0.7047  0.9229
  655MOL0     H90338  12.291  -0.249   8.119 -0.3967  3.0092  1.2615
  655MOL0     H90339  12.088  -0.426   8.058  1.6957 -0.0809 -0.6193
  655MOL0     H90340  12.003  -0.633   7.826 -2.0704 -0.5023  0.9850
  655MOL0     H90341  11.897  -0.521   7.745  1.4732  3.0042 -0.8837
  655MOL0     H90342  11.789  -0.618   7.949 -1.3601  0.5934  1.7644
  655MOL0     H90343  11.925  -0.546   8.028 -0.2300  0.0735  0.4255
  655MOL0     H90344  11.841  -0.328   7.952 -3.0812  2.7396 -0.4472
  655MOL0     H90345  11.707  -0.401   7.865 -0.3157 -3.1002 -0.8734
  655MOL0     H90346  11.739  -0.414   8.172 -2.1480  1.6762  1.6468
  655MOL0     H90347  11.632  -0.312   8.090  1.3103  0.1327  0.4924
  655MOL0     H90348  11.347  -0.582   8.144  0.3360  0.3211  0.1298
  655MOL0     H90349  11.237  -0.808   8.412  0.5224 -2.7332 -0.0921
  655MOL0     H90350  11.204  -0.866   8.248  1.4030 -1.0294  0.5179
  655MOL0     H90351  11.181  -0.689   8.299 -0.4470 -0.4402  2.1897
  655MOL0     H90352  11.575  -1.198   8.321 -1.9323  0.5726  0.8655
  655MOL0     H90353  11.682  -1.410   8.380 -1.7548 -1.5118  1.9906
  655MOL0     H90354  11.994  -1.438   8.488  0.7870 -0.8096  0.3882
  655MOL0     H90355  12.015  -1.396   8.659  1.8640 -2.0734  1.5595
  655MOL0     H90356  11.993  -1.650   8.704  0.1805 -1.7810 -0.2716
  655MOL0     H90357  11.961  -1.670   8.531 -1.1931  1.5999 -0.2614
  655MOL0     H90358  12.204  -1.548   8.662  1.2204 -1.2589  0.4310
  655MOL0     H90359  12.182  -1.578   8.479  0.4298 -0.5589 -0.5238
  655MOL0     H90360  12.164  -1.838   8.551  1.9407  1.2531 -2.8922
  655MOL0     H90361  12.214  -1.778   8.701 -4.2724  3.9856  0.9246
  655MOL0     H90362  12.412  -1.683   8.530  0.8318 -0.3928  0.2449
  655MOL0     H90363  12.412  -1.846   8.594 -0.7717 -0.6957  0.0290
  655MOL0     H90364  12.441  -1.801   8.336 -0.5757  2.1891  0.7591
  655MOL0     H90365  12.286  -1.765   8.325  1.0175 -0.5582 -0.5359
  655MOL0     H90366  12.307  -2.029   8.478 -1.8178  0.2159 -0.6627
  655MOL0     H90367  12.442  -2.035   8.372  1.5703  1.7889  2.5418
  655MOL0     H90368  12.249  -2.145   8.272  0.0405  0.4353 -3.6858
  655MOL0     H90369  12.251  -1.987   8.190 -0.2499 -0.8667 -0.4133
  655MOL0     H90370  11.815  -1.238   8.753  0.1026  1.6790  1.0764
  655MOL0     H90371  11.715  -1.019   8.684 -2.9897  1.7018 -0.2767
  655MOL0     H90372  11.712  -0.853   8.305  1.2049  0.5065 -1.3290
  655MOL0     H90373  11.755  -0.686   8.158  0.3122 -1.9023  1.1916
  655MOL0     H90374  11.586   0.485   7.980  2.7579  2.1138 -1.4307
  655MOL0     H90375  11.442   0.680   7.928  0.5564 -0.1143 -0.8065
  655MOL0     H90376  11.371   1.138   7.792  1.3238  2.1680  1.0638
  655MOL0     H90377  11.202   1.314   7.731 -0.5764  2.0385  1.0983
  655MOL0     H90378  10.806   1.466   7.889  0.9107  0.3807  0.2055
  655MOL0     H90379  10.813   1.313   7.975 -4.4603  1.3310 -1.7740
  655MOL0     H90380  10.992   1.566   8.019  1.2947 -1.8937 -0.3420
  655MOL0     H90381  10.987   1.421   8.127  2.2670 -2.3626 -4.1981
  655MOL0     H90382  10.754   1.620   8.074  1.5811  3.1988  0.4110
  655MOL0     H90383  10.765   1.488   8.199  0.8432 -2.0792 -1.5599
  655MOL0     H90384  10.976   1.609   8.291 -0.8142 -0.8604  0.9703
  655MOL0     H90385  10.824   1.702   8.319  0.0971  2.7789 -1.8854
  655MOL0     H90386  11.014   1.969   8.068  2.0191  1.6048  3.3864
  655MOL0     H90387  10.962   1.197   8.065 -0.5241  1.1065 -1.6699
  655MOL0     H90388  11.174   1.057   8.256  1.2374 -1.5211  0.0798
  655MOL0     H90389  11.004   1.043   8.206  0.4287 -0.3609 -1.9438
  655MOL0     H90390  11.115   0.906   8.186 -0.7049  0.0101  2.4723
  656MOL0     O90391   5.366   1.233   0.443  0.1296 -0.2177  0.6964
  656MOL0     C90392   5.344   1.267   0.325  0.3116  0.1004 -0.2562
  656MOL0     O90393   5.341   1.181   0.219 -0.1383 -0.5297 -0.5373
  656MOL0     C90394   5.335   1.048   0.237  0.0283  0.0183  0.1146
  656MOL0     C90395   5.424   0.966   0.174  0.1925  0.4661  0.4084
  656MOL0     C90396   5.408   0.825   0.192  0.0483  0.1397  0.4037
  656MOL0     C90397   5.312   0.776   0.280 -0.8766  0.3782  0.2219
  656MOL0     O90398   5.271   0.648   0.300  0.6574  0.6976  0.0276
  656MOL0     C90399   5.353   0.539   0.255  0.4944 -0.4546  1.2066
  656MOL0     C90400   5.287   0.399   0.294 -0.0293 -0.1266 -0.6764
  656MOL0     C90401   5.129   0.380   0.297 -0.0219 -0.6699  0.9521
  656MOL0     C90402   5.075   0.250   0.353  1.5248  0.1452 -0.3220
  656MOL0     C90403   4.923   0.248   0.352  0.6295  0.0608  0.0500
  656MOL0     C90404   4.869   0.122   0.417 -0.3446 -0.2722  0.0846
  656MOL0     C90405   4.710   0.133   0.419 -0.4852 -0.5774 -0.3343
  656MOL0     C90406   4.644   0.057   0.524 -0.6445 -0.2726  0.4735
  656MOL0     N90407   4.503   0.056   0.481  0.7597  0.4820  0.3458
  656MOL0     C90408   4.409  -0.044   0.457  0.7853 -0.2059 -0.7746
  656MOL0     C90409   4.288   0.024   0.468 -0.8975 -0.3953  0.1736
  656MOL0     C90410   4.160  -0.044   0.431 -0.8918 -0.5847  1.1731
  656MOL0     C90411   4.039   0.029   0.487 -0.6131 -0.3442 -0.7006
  656MOL0     C90412   4.038   0.073   0.637  0.1267 -0.0496  0.1367
  656MOL0     C90413   3.906   0.140   0.666 -0.7824  0.7127  0.2135
  656MOL0     O90414   3.886   0.256   0.590 -0.4948 -0.0930 -0.3312
  656MOL0     C90415   3.853   0.370   0.656 -0.5346 -0.2069 -0.2787
  656MOL0     C90416   3.764   0.378   0.759  0.7261 -0.2088  0.3934
  656MOL0     C90417   3.719   0.499   0.828 -0.6556 -1.2084  0.3760
  656MOL0     C90418   3.631   0.480   0.947  0.3151  0.3209 -0.4117
  656MOL0     C90419   3.776   0.622   0.776 -0.1096 -0.1702  0.3278
  656MOL0     C90420   3.732   0.749   0.835  0.0446 -0.4421  0.7761
  656MOL0     O90421   3.820   0.851   0.814 -0.1597 -0.3240  0.8112
  656MOL0     C90422   3.817   0.969   0.887 -0.4323  0.6924  0.6524
  656MOL0     C90423   3.751   1.001   1.005 -1.1711 -0.3737  0.1782
  656MOL0     C90424   3.746   1.128   1.062  0.3249 -0.1916  0.5552
  656MOL0     C90425   3.802   1.233   0.997  0.9733 -0.1345 -0.7022
  656MOL0     O90426   3.785   1.361   1.061  0.2477  0.1215  0.2715
  656MOL0     C90427   3.777   1.474   0.969  0.8182  0.0422  0.2250
  656MOL0     C90428   3.761   1.613   1.035 -0.1184  0.0134  0.3528
  656MOL0     C90429   3.629   1.630   1.117  0.6297 -0.8425 -0.2827
  656MOL0     C90430   3.619   1.766   1.187  0.1257 -0.5479 -0.2229
  656MOL0     C90431   3.709   1.774   1.318 -0.3768  0.0145  1.0658
  656MOL0     C90432   3.737   1.913   1.374  0.4086 -0.1981  0.0682
  656MOL0     C90433   3.611   2.008   1.366  0.0999 -0.0612  0.6269
  656MOL0     C90434   3.529   2.008   1.490 -0.6024 -0.9342 -0.5203
  656MOL0    Cl90435   3.477   1.839   1.534  0.2320 -0.0441  0.0174
  656MOL0     C90436   3.877   1.203   0.881 -0.0527  0.6347  0.2533
  656MOL0     C90437   3.889   1.075   0.827 -0.4532 -0.3867 -0.7891
  656MOL0     O90438   3.621   0.762   0.891 -0.1274  0.7428 -0.7964
  656MOL0     C90439   3.862   0.619   0.672  0.9781 -1.2854 -0.1147
  656MOL0     C90440   3.903   0.498   0.618  0.4305 -0.7078 -0.5743
  656MOL0     N90441   4.312   0.161   0.487 -0.8932  0.0975  0.5183
  656MOL0     N90442   4.439   0.179   0.492  0.0121  0.5119 -0.7683
  656MOL0     C90443   5.223   0.864   0.345 -0.5255  0.2901  0.7727
  656MOL0     C90444   5.225   1.001   0.315 -0.4698  0.1942  0.3054
  656MOL0     C90445   5.344   1.414   0.292  0.1312 -0.0264  0.7405
  656MOL0     C90446   5.412   1.499   0.380  0.0628  0.2646  0.7156
  656MOL0     C90447   5.418   1.629   0.350 -0.8006  0.5909 -0.4142
  656MOL0     C90448   5.357   1.689   0.244  0.4191  0.1959  0.4690
  656MOL0     O90449   5.377   1.825   0.206 -0.8379  0.4231 -0.5024
  656MOL0     C90450   5.480   1.903   0.268  0.4726 -0.4403  0.2918
  656MOL0     C90451   5.435   1.979   0.392  0.8181 -0.1913 -1.2433
  656MOL0     C90452   5.554   2.028   0.480 -0.5984  0.1846 -1.0652
  656MOL0     C90453   5.614   2.147   0.409 -0.4267  0.1710 -0.1029
  656MOL0     C90454   5.531   2.259   0.359  0.9288 -0.9613 -0.2339
  656MOL0     C90455   5.483   2.366   0.315  0.3485  0.2446 -0.7852
  656MOL0     C90456   5.278   1.611   0.160  0.0493 -0.0764  0.0271
  656MOL0     C90457   5.280   1.473   0.175  0.1489  0.2744 -0.6539
  656MOL0     C90458   5.198   1.389   0.081 -0.3227 -0.3929  0.0722
  656MOL0     H90459   5.505   1.006   0.114  0.5441 -1.2390 -0.3082
  656MOL0     H90460   5.487   0.766   0.146  0.4026 -0.2629  1.5042
  656MOL0     H90461   5.460   0.558   0.264  0.5318 -0.2046  0.3251
  656MOL0     H90462   5.331   0.547   0.148  2.1936  0.0794  0.8612
  656MOL0     H90463   5.331   0.326   0.225 -1.4684 -1.0756 -0.6222
  656MOL0     H90464   5.337   0.377   0.389 -0.1216 -0.5257 -0.7189
  656MOL0     H90465   5.092   0.468   0.350  3.4084  2.0060 -0.7231
  656MOL0     H90466   5.080   0.387   0.199  1.4609 -1.7071  0.0968
  656MOL0     H90467   5.110   0.174   0.282  0.7153 -0.3950 -0.1534
  656MOL0     H90468   5.110   0.230   0.455 -0.5574  0.4063  0.4931
  656MOL0     H90469   4.883   0.258   0.250  2.5120  3.1264 -0.5175
  656MOL0     H90470   4.891   0.342   0.398 -2.9797 -0.7412 -0.5685
  656MOL0     H90471   4.888   0.026   0.367  2.1666 -0.0771  0.5225
  656MOL0     H90472   4.910   0.118   0.518  1.6095  0.5091 -0.6340
  656MOL0     H90473   4.669   0.111   0.321 -2.6940 -1.0723  0.6335
  656MOL0     H90474   4.681   0.236   0.441 -3.1718 -1.1508 -0.8432
  656MOL0     H90475   4.679  -0.046   0.513 -0.8600 -0.4799  1.6124
  656MOL0     H90476   4.656   0.091   0.627 -0.6849 -0.8842  0.6813
  656MOL0     H90477   4.413  -0.152   0.443  2.1119 -0.0975 -1.3939
  656MOL0     H90478   4.159  -0.146   0.470 -3.6922 -1.3793 -0.6929
  656MOL0     H90479   4.168  -0.047   0.322 -2.0472  0.3811  1.0315
  656MOL0     H90480   4.025   0.120   0.428 -2.5023  1.1665  1.8445
  656MOL0     H90481   3.951  -0.034   0.470 -2.0090  1.3322 -0.0332
  656MOL0     H90482   4.052  -0.019   0.694  0.6929 -0.4944 -0.7028
  656MOL0     H90483   4.123   0.137   0.666  1.5528 -1.3688 -0.9797
  656MOL0     H90484   3.821   0.073   0.648  1.1252 -1.0183 -3.2291
  656MOL0     H90485   3.910   0.173   0.770 -1.9687  0.5266  0.3315
  656MOL0     H90486   3.721   0.287   0.797  1.1714 -1.5750 -2.1340
  656MOL0     H90487   3.603   0.378   0.972 -2.1974  0.8516 -0.7766
  656MOL0     H90488   3.537   0.534   0.929 -0.6578 -0.8762  0.8347
  656MOL0     H90489   3.684   0.531   1.028 -1.1804  1.4217 -0.0857
  656MOL0     H90490   3.699   0.918   1.054 -4.6172 -0.6717 -3.5071
  656MOL0     H90491   3.691   1.150   1.152  0.7633  0.4144  0.6817
  656MOL0     H90492   3.868   1.485   0.909 -1.5111  0.4733 -3.4749
  656MOL0     H90493   3.701   1.446   0.896  0.3619 -1.5351  1.2597
  656MOL0     H90494   3.850   1.640   1.093 -0.5844  1.8080  0.2837
  656MOL0     H90495   3.758   1.682   0.950  3.0025 -1.2275 -0.9326
  656MOL0     H90496   3.618   1.555   1.196 -0.7823  1.7652  2.1984
  656MOL0     H90497   3.544   1.627   1.049  0.2125 -1.5953  0.2585
  656MOL0     H90498   3.515   1.791   1.210  0.4208  2.5111 -1.6638
  656MOL0     H90499   3.648   1.846   1.118  0.2116 -1.5899 -1.4366
  656MOL0     H90500   3.671   1.714   1.401  0.0230 -0.4314  0.9298
  656MOL0     H90501   3.808   1.734   1.294 -1.5580 -1.8279 -1.0579
  656MOL0     H90502   3.816   1.964   1.317  1.7190  1.2296  2.9341
  656MOL0     H90503   3.769   1.919   1.478 -0.3154  0.0506  0.2828
  656MOL0     H90504   3.541   1.984   1.285  0.1856 -1.7158  1.0026
  656MOL0     H90505   3.652   2.109   1.352 -1.2392  0.4500  0.2389
  656MOL0     H90506   3.446   2.080   1.483 -0.9696 -1.4039 -1.0316
  656MOL0     H90507   3.594   2.063   1.559  1.6939 -1.0451 -2.4705
  656MOL0     H90508   3.923   1.281   0.821  1.7255  0.2121  1.0052
  656MOL0     H90509   3.935   1.061   0.730  0.1623 -0.1714 -0.5301
  656MOL0     H90510   3.896   0.708   0.618 -1.5407 -1.2769 -1.8779
  656MOL0     H90511   3.978   0.506   0.539 -0.9328  0.5509 -1.7957
  656MOL0     H90512   5.152   0.824   0.416 -1.7504  0.5815 -0.2638
  656MOL0     H90513   5.145   1.062   0.353  0.9747  0.4806  3.1338
  656MOL0     H90514   5.475   1.460   0.460  2.3044 -1.5030 -1.7332
  656MOL0     H90515   5.478   1.694   0.413 -1.3257 -2.1175  3.2701
  656MOL0     H90516   5.558   1.831   0.293  0.3239 -1.3436 -1.6138
  656MOL0     H90517   5.524   1.964   0.188  1.4602  0.0876  1.2199
  656MOL0     H90518   5.375   1.901   0.440  0.9926  0.0877 -0.5589
  656MOL0     H90519   5.365   2.061   0.372 -2.9096 -2.7149  0.3330
  656MOL0     H90520   5.519   2.053   0.581 -1.3637 -0.0662 -1.2629
  656MOL0     H90521   5.625   1.945   0.483 -2.9652 -2.0320 -2.4770
  656MOL0     H90522   5.678   2.117   0.326 -0.6888  2.9368 -1.4365
  656MOL0     H90523   5.691   2.175   0.482 -2.3620 -1.6119  2.8202
  656MOL0     H90524   5.453   2.463   0.282 -2.9437  0.1545  1.4816
  656MOL0     H90525   5.229   1.657   0.075  1.5000  0.7000 -0.4234
  656MOL0     H90526   5.263   1.313   0.038  0.1488  0.7672 -1.3425
  656MOL0     H90527   5.125   1.327   0.134  0.8674 -0.1325  2.1311
  656MOL0     H90528   5.142   1.454   0.012 -0.3486 -0.6328 -0.1338
  657MOL0     O90529   5.514   9.887   8.733 -0.1610 -0.5240 -0.4695
  657MOL0     C90530   5.475   9.926   8.625  0.3492  0.7801  0.1861
  657MOL0     O90531   5.339   9.903   8.583 -0.2817  0.2232  1.0091
  657MOL0     C90532   5.268   9.818   8.659  0.7352  1.1475 -0.2176
  657MOL0     C90533   5.182   9.863   8.764  0.7759  0.4342  0.0436
  657MOL0     C90534   5.093   9.767   8.821  0.1011 -0.2329  0.0196
  657MOL0     C90535   5.091   9.635   8.781 -0.5123  0.1653 -0.5201
  657MOL0     O90536   5.027   9.532   8.850 -0.0090 -0.6373  0.1419
  657MOL0     C90537   4.941   9.569   8.954  0.0167 -0.3598 -0.2167
  657MOL0     C90538   4.840   9.447   8.978 -0.1015 -0.2410  1.0072
  657MOL0     C90539   4.908   9.332   9.047 -0.5195  0.3294 -0.1219
  657MOL0     C90540   4.839   9.194   9.025 -0.0827  0.4859 -0.0086
  657MOL0     C90541   4.903   9.074   9.101 -0.2086 -0.0863 -0.1223
  657MOL0     C90542   4.880   9.077   9.249  0.4239  0.1574 -0.1672
  657MOL0     C90543   4.964   8.966   9.315  0.5938  0.5013 -0.5720
  657MOL0     C90544   4.982   8.998   9.462  0.6373  0.3557  0.4079
  657MOL0     N90545   4.852   8.997   9.544 -1.2596 -0.1475  0.0261
  657MOL0     C90546   4.802   8.875   9.573  0.7783  1.1897 -0.1588
  657MOL0     C90547   4.694   8.921   9.652 -0.5991 -0.2565 -0.3823
  657MOL0     C90548   4.633   8.836   9.754  0.4059  0.1301 -0.0274
  657MOL0     C90549   4.494   8.775   9.726 -0.2155  0.5073  1.2090
  657MOL0     C90550   4.380   8.885   9.710  0.4178 -0.2283  1.2657
  657MOL0     C90551   4.319   8.915   9.847  0.2623 -0.1453  0.2003
  657MOL0     O90552   4.207   9.008   9.838  0.8682  0.1456 -1.0001
  657MOL0     C90553   4.223   9.135   9.783  0.3933 -0.1981  0.0479
  657MOL0     C90554   4.112   9.205   9.751  0.0341  0.3763 -0.0527
  657MOL0     C90555   4.117   9.333   9.710  0.6238 -0.0732 -0.8331
  657MOL0     C90556   3.985   9.400   9.663 -0.0450 -0.8510 -0.2655
  657MOL0     C90557   4.245   9.391   9.699 -0.1644  0.0616  0.0684
  657MOL0     C90558   4.272   9.529   9.643  0.4299 -0.4990 -0.0147
  657MOL0     O90559   4.395   9.585   9.672  0.3321  0.1687 -0.6369
  657MOL0     C90560   4.451   9.705   9.625 -0.1045 -0.7670 -0.5954
  657MOL0     C90561   4.386   9.825   9.584  0.4486  0.1777 -0.2402
  657MOL0     C90562   4.455   9.939   9.545  0.7943 -0.0815  0.1495
  657MOL0     C90563   4.594   9.952   9.557  0.1770  0.6701 -0.4213
  657MOL0     O90564   4.653  10.067   9.517 -0.1795 -0.2092  0.4376
  657MOL0     C90565   4.716  10.146   9.617 -0.0586  0.4058  0.3347
  657MOL0     C90566   4.662  10.280   9.621 -0.5282 -0.8260 -0.4414
  657MOL0     C90567   4.705  10.358   9.501 -1.0129 -0.9460 -0.1830
  657MOL0     C90568   4.653  10.498   9.509 -1.5284 -0.3077 -0.8848
  657MOL0     C90569   4.684  10.582   9.389  0.4065 -0.2201  0.2186
  657MOL0     C90570   4.633  10.730   9.395 -0.9642 -0.6642 -0.2416
  657MOL0     C90571   4.678  10.817   9.275  0.1947  1.1490 -0.6216
  657MOL0     C90572   4.613  10.955   9.294  0.3243 -0.0930 -0.8886
  657MOL0    Cl90573   4.435  10.957   9.296  0.2096  0.0857  0.0701
  657MOL0     C90574   4.663   9.835   9.590  0.3057 -0.6601  0.0353
  657MOL0     C90575   4.590   9.721   9.633  0.2008 -0.4155 -1.1408
  657MOL0     O90576   4.188   9.587   9.578 -0.5172  0.1439 -0.5794
  657MOL0     C90577   4.358   9.322   9.754 -0.0369 -0.8578 -0.1401
  657MOL0     C90578   4.347   9.190   9.781  0.8495 -1.1233  0.4188
  657MOL0     N90579   4.686   9.055   9.655 -0.4779 -0.5842  0.4617
  657MOL0     N90580   4.793   9.096   9.606 -0.1498 -0.6433  0.1168
  657MOL0     C90581   5.180   9.594   8.684  0.3842 -0.0462  0.5320
  657MOL0     C90582   5.273   9.680   8.617  0.0498 -0.0720 -0.6337
  657MOL0     C90583   5.559  10.009   8.541 -0.0613  0.7430 -0.0622
  657MOL0     C90584   5.660  10.094   8.591  0.8361  1.2373 -0.1629
  657MOL0     C90585   5.742  10.168   8.508  0.1873 -0.7389  0.0359
  657MOL0     C90586   5.731  10.158   8.367 -0.5549 -0.4956 -0.2630
  657MOL0     O90587   5.804  10.222   8.275  0.1346 -0.2436  0.6279
  657MOL0     C90588   5.933  10.283   8.309  0.7888 -0.1022  0.2774
  657MOL0     C90589   6.037  10.172   8.319 -0.1832 -0.3920  0.4889
  657MOL0     C90590   6.165  10.222   8.256 -0.9207  0.2939  0.5488
  657MOL0     C90591   6.288  10.156   8.311  0.0267  0.3930  0.1705
  657MOL0     C90592   6.307  10.010   8.272 -0.8669  0.5049 -0.8861
  657MOL0     C90593   6.313   9.887   8.248 -0.3125 -0.1981 -0.1257
  657MOL0     C90594   5.651  10.059   8.324 -0.7793  0.2303  0.7744
  657MOL0     C90595   5.562   9.982   8.401  0.3972 -0.8528  0.3145
  657MOL0     C90596   5.499   9.868   8.337  0.2319  0.5193 -0.5885
  657MOL0     H90597   5.170   9.969   8.781 -3.4547  0.0980  0.1614
  657MOL0     H90598   5.011   9.801   8.884 -1.3338 -1.6042 -1.0129
  657MOL0     H90599   4.879   9.656   8.930 -0.2572 -0.4077  0.2908
  657MOL0     H90600   4.998   9.586   9.046  1.0051  1.1156 -1.0609
  657MOL0     H90601   4.756   9.479   9.040  0.1178  0.2303  1.0629
  657MOL0     H90602   4.793   9.415   8.884  0.9872  4.1868 -1.3077
  657MOL0     H90603   5.014   9.340   9.022 -0.9092 -0.8970 -2.4974
  657MOL0     H90604   4.906   9.359   9.153 -0.9765 -0.9694  0.2216
  657MOL0     H90605   4.736   9.216   9.057 -0.1756 -1.5417  1.2941
  657MOL0     H90606   4.834   9.177   8.917 -2.0060  1.5590 -0.1276
  657MOL0     H90607   5.009   9.074   9.074 -0.8548  2.0717 -3.0815
  657MOL0     H90608   4.855   8.984   9.061  1.3255 -0.9898  0.0032
  657MOL0     H90609   4.901   9.176   9.289 -0.6242 -0.5006  2.1449
  657MOL0     H90610   4.772   9.065   9.264  0.4039  1.8149  1.2560
  657MOL0     H90611   5.059   8.957   9.261  1.4134 -0.7018  0.9734
  657MOL0     H90612   4.913   8.871   9.295  0.9685  0.4609 -1.3996
  657MOL0     H90613   5.049   8.922   9.504 -1.3436 -0.8069  1.6247
  657MOL0     H90614   5.025   9.098   9.455  0.9190  0.3918  2.3146
  657MOL0     H90615   4.839   8.774   9.565 -1.5801  0.3696 -1.9173
  657MOL0     H90616   4.615   8.903   9.839 -0.6900 -1.9757  1.4840
  657MOL0     H90617   4.708   8.763   9.786  0.4038 -0.2587 -0.8907
  657MOL0     H90618   4.498   8.725   9.629  0.5476  1.5876  0.6660
  657MOL0     H90619   4.473   8.695   9.798 -0.1131  1.2578  2.1025
  657MOL0     H90620   4.422   8.977   9.670 -0.6436 -0.0223  0.6004
  657MOL0     H90621   4.299   8.855   9.643  0.5457 -0.4528  1.2108
  657MOL0     H90622   4.274   8.821   9.880 -0.6768  0.8644  1.9871
  657MOL0     H90623   4.385   8.959   9.922  1.2998  2.4768 -2.0885
  657MOL0     H90624   4.023   9.149   9.775 -0.7148  1.6571  0.2627
  657MOL0     H90625   3.955   9.484   9.727  1.4937 -2.4174  2.6849
  657MOL0     H90626   3.902   9.330   9.659 -1.3979  0.4933  2.2076
  657MOL0     H90627   3.992   9.451   9.566  0.2621  1.2657  0.7981
  657MOL0     H90628   4.279   9.835   9.572 -0.3463  2.3917  5.5078
  657MOL0     H90629   4.396  10.024   9.513  1.1862  0.3651  0.5958
  657MOL0     H90630   4.693  10.096   9.712 -1.7828 -0.2544 -0.3848
  657MOL0     H90631   4.825  10.142   9.610 -0.0299 -0.1929  0.9920
  657MOL0     H90632   4.553  10.277   9.619 -0.5453 -2.1369  0.7821
  657MOL0     H90633   4.701  10.328   9.712  3.4103 -2.6507 -0.9640
  657MOL0     H90634   4.670  10.314   9.407 -3.6070  1.3137 -0.4043
  657MOL0     H90635   4.812  10.372   9.487 -1.3193  2.9009  0.2983
  657MOL0     H90636   4.695  10.539   9.601  1.5123  0.1160 -2.3422
  657MOL0     H90637   4.543  10.502   9.517 -1.4408 -0.1890  0.6484
  657MOL0     H90638   4.792  10.596   9.377  0.4430  0.1342  0.9460
  657MOL0     H90639   4.637  10.540   9.299 -0.4093  0.1782  0.4517
  657MOL0     H90640   4.681  10.781   9.480  1.2522  0.5427 -2.1085
  657MOL0     H90641   4.526  10.740   9.413 -1.9476 -2.1023 -4.2742
  657MOL0     H90642   4.639  10.763   9.188  2.0063 -1.1918 -0.1045
  657MOL0     H90643   4.787  10.818   9.274  0.2132  0.4734 -2.1731
  657MOL0     H90644   4.652  11.029   9.223  1.6014 -0.3215 -0.4606
  657MOL0     H90645   4.649  10.977   9.395  1.2314 -1.2945 -0.9173
  657MOL0     H90646   4.771   9.830   9.599  0.1087 -2.1992  2.4856
  657MOL0     H90647   4.647   9.635   9.666 -0.9593 -0.9907 -0.5670
  657MOL0     H90648   4.458   9.362   9.761 -0.3906 -0.0003  0.1365
  657MOL0     H90649   4.439   9.141   9.812  0.8995 -1.3194 -0.0263
  657MOL0     H90650   5.173   9.493   8.644 -4.9580  0.9738 -2.0216
  657MOL0     H90651   5.341   9.643   8.541 -0.4040  1.1036 -1.6552
  657MOL0     H90652   5.663  10.105   8.699 -2.9866  0.5568  0.1651
  657MOL0     H90653   5.824  10.223   8.552 -1.4780  3.1175 -1.2313
  657MOL0     H90654   5.959  10.349   8.226 -3.8612  0.2956 -1.1858
  657MOL0     H90655   5.927  10.330   8.407  4.6501 -1.1273  1.1658
  657MOL0     H90656   5.993  10.091   8.262 -2.6087  2.7506 -2.5625
  657MOL0     H90657   6.055  10.143   8.423  3.0381  1.0864  0.4644
  657MOL0     H90658   6.156  10.190   8.152 -0.3779 -1.7607  1.0705
  657MOL0     H90659   6.177  10.330   8.253 -0.1223  0.1809 -0.5204
  657MOL0     H90660   6.274  10.151   8.419 -2.1205 -1.5651 -0.1198
  657MOL0     H90661   6.377  10.209   8.274 -0.3824  0.9235 -0.0655
  657MOL0     H90662   6.322   9.787   8.213  0.4941 -1.0281  2.2385
  657MOL0     H90663   5.660  10.050   8.216  3.9395 -0.8511  1.0477
  657MOL0     H90664   5.541   9.858   8.237 -0.8147  3.6003 -1.4644
  657MOL0     H90665   5.500   9.776   8.395 -0.2352 -0.3441 -1.9119
  657MOL0     H90666   5.393   9.894   8.328 -0.4514 -1.9119 -0.1841
  658MOL0     O90667   2.516   6.240   2.068 -0.9578  0.5371  0.1378
  658MOL0     C90668   2.580   6.340   2.081  0.1417 -0.3081  0.6556
  658MOL0     O90669   2.679   6.378   1.999  0.1565 -0.2405  0.2063
  658MOL0     C90670   2.706   6.303   1.887  0.0482  1.2426 -0.2453
  658MOL0     C90671   2.847   6.281   1.867 -0.0146  0.4100 -0.6613
  658MOL0     C90672   2.887   6.210   1.752  0.2012 -0.2737 -0.7277
  658MOL0     C90673   2.796   6.159   1.664 -0.0626 -0.7542  1.2741
  658MOL0     O90674   2.830   6.073   1.561  0.0693  0.2930 -0.3496
  658MOL0     C90675   2.957   6.068   1.501  0.1027 -0.3550 -1.0395
  658MOL0     C90676   2.944   5.988   1.381  0.8458  0.5003  0.6378
  658MOL0     C90677   2.823   6.030   1.293  0.4054 -0.7583  0.3106
  658MOL0     C90678   2.819   6.175   1.229  0.3803 -0.3235 -0.1146
  658MOL0     C90679   2.699   6.187   1.126 -1.0106 -0.8415  0.8535
  658MOL0     C90680   2.703   6.326   1.049 -0.4876 -0.9503  0.2817
  658MOL0     C90681   2.573   6.336   0.960  0.6102  0.5150 -0.5115
  658MOL0     C90682   2.574   6.233   0.850  0.2338 -0.3279 -0.5444
  658MOL0     N90683   2.687   6.246   0.768 -0.7815 -1.1122  0.7507
  658MOL0     C90684   2.812   6.190   0.784  0.3266  0.1730 -0.9676
  658MOL0     C90685   2.880   6.230   0.687 -0.8565  2.0897  0.8375
  658MOL0     C90686   3.029   6.209   0.686 -0.3871  0.9331  0.4801
  658MOL0     C90687   3.072   6.063   0.679 -0.3876  0.5542  0.5090
  658MOL0     C90688   3.183   6.034   0.577 -0.0842  0.2812 -0.3351
  658MOL0     C90689   3.262   5.911   0.606 -0.1914  0.9283  0.4434
  658MOL0     O90690   3.188   5.802   0.556  0.1642  0.1666 -0.9877
  658MOL0     C90691   3.266   5.694   0.539 -0.4928  0.8524  1.0068
  658MOL0     C90692   3.290   5.644   0.412 -1.4259 -0.1218  0.4241
  658MOL0     C90693   3.375   5.532   0.390 -0.4610 -0.9310 -0.1027
  658MOL0     C90694   3.408   5.479   0.249  0.1105 -0.0636  0.1982
  658MOL0     C90695   3.426   5.463   0.510  0.1102 -0.3079  0.8283
  658MOL0     C90696   3.529   5.350   0.498 -0.1213 -0.5046  0.1416
  658MOL0     O90697   3.498   5.251   0.578 -0.8517 -0.9325  0.3197
  658MOL0     C90698   3.600   5.172   0.627 -0.4631 -0.3698 -0.0706
  658MOL0     C90699   3.712   5.132   0.549 -0.3031  0.0563  0.1564
  658MOL0     C90700   3.817   5.058   0.605 -0.0647  0.2252  0.2856
  658MOL0     C90701   3.804   5.002   0.734 -1.2567  0.7330 -0.3814
  658MOL0     O90702   3.890   4.922   0.802 -0.6312  0.2517 -0.5077
  658MOL0     C90703   3.999   4.857   0.733 -0.2842  0.1184 -0.5084
  658MOL0     C90704   3.957   4.725   0.676  0.6914  0.2588 -0.1404
  658MOL0     C90705   4.070   4.627   0.647  0.2819  0.5986 -0.5552
  658MOL0     C90706   4.019   4.489   0.612  0.0365 -0.4963  0.7399
  658MOL0     C90707   3.921   4.489   0.488  0.1226 -0.1402 -0.3331
  658MOL0     C90708   3.941   4.360   0.410  0.0249  0.3048 -0.1522
  658MOL0     C90709   3.923   4.364   0.255 -0.0560 -0.4461  1.2355
  658MOL0     C90710   3.826   4.253   0.225  0.0894  0.1241 -0.7755
  658MOL0    Cl90711   3.651   4.286   0.289  0.7053 -0.3514  0.0998
  658MOL0     C90712   3.694   5.037   0.807 -0.0892  0.2560 -0.7468
  658MOL0     C90713   3.592   5.113   0.756 -0.4607 -0.6531 -0.7629
  658MOL0     O90714   3.615   5.345   0.419 -0.5111  0.3646  0.4238
  658MOL0     C90715   3.386   5.513   0.630 -0.3743  0.5447  0.5180
  658MOL0     C90716   3.311   5.629   0.649 -0.0658 -0.4028 -0.8540
  658MOL0     N90717   2.796   6.302   0.595  0.0901  0.3499  0.6566
  658MOL0     N90718   2.686   6.322   0.649 -0.0961  0.2525 -0.0339
  658MOL0     C90719   2.661   6.174   1.686  0.2868 -0.2616  0.6062
  658MOL0     C90720   2.613   6.241   1.802 -0.1589 -1.3566 -0.5347
  658MOL0     C90721   2.557   6.430   2.191 -0.2902  0.1397 -1.2624
  658MOL0     C90722   2.554   6.570   2.155  0.7567 -0.1519  1.4924
  658MOL0     C90723   2.534   6.661   2.258 -0.1055  0.3909 -0.4152
  658MOL0     C90724   2.500   6.620   2.388  0.0110 -0.2770  0.5907
  658MOL0     O90725   2.448   6.710   2.487  0.7372 -0.0626 -0.4437
  658MOL0     C90726   2.439   6.851   2.461 -0.1098 -0.0392  0.5859
  658MOL0     C90727   2.367   6.920   2.585  0.1412  0.4562 -0.3552
  658MOL0     C90728   2.411   6.873   2.728 -1.0164 -0.0021 -0.0162
  658MOL0     C90729   2.535   6.949   2.780 -0.3165  0.3600 -0.6789
  658MOL0     C90730   2.562   6.906   2.918  0.1216 -0.2399 -0.0595
  658MOL0     C90731   2.564   6.869   3.033  0.1387  0.0452  0.4632
  658MOL0     C90732   2.504   6.485   2.420 -0.7932 -1.2207  0.7163
  658MOL0     C90733   2.542   6.389   2.328 -0.1744  0.4556  0.1245
  658MOL0     C90734   2.561   6.250   2.378 -0.4557 -0.3090  0.1399
  658MOL0     H90735   2.924   6.322   1.931 -0.2506  0.6532 -0.5313
  658MOL0     H90736   2.994   6.200   1.733  0.0852 -0.8981 -1.0601
  658MOL0     H90737   3.034   6.034   1.570  0.8518  2.7922 -0.1580
  658MOL0     H90738   2.978   6.172   1.473 -1.9459  0.7726  1.1476
  658MOL0     H90739   3.037   5.995   1.324  0.2030  0.5168 -0.4402
  658MOL0     H90740   2.940   5.881   1.403  3.1893  0.2313  0.0599
  658MOL0     H90741   2.808   5.953   1.217 -1.0818 -0.7897  0.6071
  658MOL0     H90742   2.729   6.025   1.349  1.9822  0.3423  3.2479
  658MOL0     H90743   2.816   6.255   1.304 -3.1446 -0.4233  0.0124
  658MOL0     H90744   2.915   6.182   1.177  0.6948  1.3465  0.6117
  658MOL0     H90745   2.603   6.184   1.179 -0.2973 -0.3827  2.2225
  658MOL0     H90746   2.717   6.105   1.056  0.2404  0.3241 -0.2433
  658MOL0     H90747   2.719   6.409   1.118  1.9086 -0.2409 -1.0072
  658MOL0     H90748   2.793   6.337   0.987  0.4581  2.8099  2.0225
  658MOL0     H90749   2.551   6.429   0.907 -2.0871 -0.7514 -1.7921
  658MOL0     H90750   2.492   6.311   1.029  1.1293 -3.2492 -1.0434
  658MOL0     H90751   2.571   6.127   0.876  0.3986 -0.5717 -1.4788
  658MOL0     H90752   2.481   6.255   0.798 -1.4767 -0.8873  2.1144
  658MOL0     H90753   2.850   6.142   0.873 -0.2632 -0.7088 -1.1827
  658MOL0     H90754   3.085   6.257   0.767 -0.1923  1.2234  0.1800
  658MOL0     H90755   3.063   6.261   0.596 -1.7433  1.7970  0.4347
  658MOL0     H90756   3.099   6.031   0.780  0.8351  0.2845  0.1073
  658MOL0     H90757   2.993   6.003   0.633  2.1010 -2.5997 -0.0142
  658MOL0     H90758   3.142   6.016   0.477  0.7025 -3.7620 -0.0614
  658MOL0     H90759   3.258   6.114   0.573 -1.1169  1.2316 -1.5577
  658MOL0     H90760   3.359   5.918   0.556  0.6253  0.4725  1.9098
  658MOL0     H90761   3.285   5.903   0.713  1.9153  0.0241 -0.0264
  658MOL0     H90762   3.256   5.704   0.328  0.2558  0.2237 -0.0654
  658MOL0     H90763   3.508   5.517   0.224 -0.0031  0.4989  0.5736
  658MOL0     H90764   3.338   5.505   0.170 -0.9527  1.1530  1.4954
  658MOL0     H90765   3.413   5.371   0.232 -1.7707  0.1781 -2.4714
  658MOL0     H90766   3.721   5.159   0.444 -0.5634  3.4338  0.8745
  658MOL0     H90767   3.898   5.024   0.541 -2.2061 -1.2005 -1.8941
  658MOL0     H90768   4.054   4.924   0.667  0.3044 -0.5241 -0.6771
  658MOL0     H90769   4.071   4.822   0.806  1.3779 -1.7616 -2.8886
  658MOL0     H90770   3.896   4.670   0.748  3.0576  0.9135  2.5510
  658MOL0     H90771   3.894   4.744   0.589  0.7224 -2.8994 -0.9954
  658MOL0     H90772   4.139   4.616   0.732 -1.2226 -4.8296  0.3139
  658MOL0     H90773   4.117   4.668   0.557  0.3588 -0.8669 -1.2120
  658MOL0     H90774   3.969   4.428   0.689 -1.2518 -0.8907 -0.3753
  658MOL0     H90775   4.110   4.433   0.590 -0.3245 -0.6226 -0.5154
  658MOL0     H90776   3.816   4.506   0.513  0.0583  2.9922 -2.2005
  658MOL0     H90777   3.961   4.571   0.428  0.0538 -0.5903 -1.0031
  658MOL0     H90778   3.887   4.281   0.463  1.7426 -0.4870  0.5163
  658MOL0     H90779   4.048   4.338   0.422 -0.3858 -1.0662  1.2447
  658MOL0     H90780   4.020   4.343   0.209 -1.2796 -1.0636 -1.2825
  658MOL0     H90781   3.876   4.459   0.230 -0.2486 -0.9241 -0.3927
  658MOL0     H90782   3.877   4.167   0.269  0.9561  0.1716 -1.6566
  658MOL0     H90783   3.814   4.228   0.119 -0.5147 -0.5061 -0.5633
  658MOL0     H90784   3.681   5.004   0.910 -0.4649  2.5388 -0.0043
  658MOL0     H90785   3.502   5.132   0.814 -1.4438  0.2028 -2.4977
  658MOL0     H90786   3.438   5.464   0.712  1.7289 -0.9094 -1.5670
  658MOL0     H90787   3.282   5.668   0.746 -0.4117 -2.6040  0.0059
  658MOL0     H90788   2.577   6.144   1.624 -1.6873  2.4877  1.7044
  658MOL0     H90789   2.508   6.258   1.824 -0.7516 -1.6819 -2.8680
  658MOL0     H90790   2.554   6.605   2.053 -1.4654  0.9897  1.8169
  658MOL0     H90791   2.524   6.763   2.223  0.6934 -0.3792 -3.1007
  658MOL0     H90792   2.540   6.894   2.457 -1.7646  4.1964 -0.7183
  658MOL0     H90793   2.387   6.872   2.367  2.1713  2.2842 -0.2747
  658MOL0     H90794   2.261   6.892   2.578  0.8272 -2.0401 -2.4160
  658MOL0     H90795   2.378   7.028   2.570 -1.5953  0.3609 -2.9968
  658MOL0     H90796   2.326   6.885   2.797  1.0167  1.1291  2.4644
  658MOL0     H90797   2.435   6.766   2.737  0.7260  0.3089 -0.6996
  658MOL0     H90798   2.511   7.056   2.782  1.7022  0.8342  0.2089
  658MOL0     H90799   2.627   6.934   2.723  0.1385 -1.1064  0.3626
  658MOL0     H90800   2.559   6.829   3.132 -0.4231  0.3990  0.5824
  658MOL0     H90801   2.485   6.456   2.523  0.6028 -1.7268  0.8594
  658MOL0     H90802   2.616   6.181   2.313  0.1358 -0.9026  1.2290
  658MOL0     H90803   2.607   6.261   2.476 -1.7893  1.4264  0.6323
  658MOL0     H90804   2.460   6.208   2.382  0.6004 -3.5945 -2.5608
  659MOL0     O90805   1.453   9.250   3.127 -0.2255  0.1513  0.3634
  659MOL0     C90806   1.570   9.272   3.099 -0.0630 -1.1986  0.7010
  659MOL0     O90807   1.608   9.327   2.980  0.4225 -0.6905  0.0560
  659MOL0     C90808   1.557   9.294   2.857  0.2496  0.0839 -0.2272
  659MOL0     C90809   1.598   9.375   2.754 -1.1421 -0.0159  0.5497
  659MOL0     C90810   1.558   9.356   2.618  0.9839  1.0907 -0.4119
  659MOL0     C90811   1.467   9.260   2.585 -0.3508  0.4456 -0.1422
  659MOL0     O90812   1.430   9.228   2.454  0.1655 -0.3323  0.4324
  659MOL0     C90813   1.389   9.340   2.368  0.3531  0.4522  0.3268
  659MOL0     C90814   1.333   9.268   2.247 -0.4502 -1.0597 -1.3639
  659MOL0     C90815   1.259   9.377   2.153  0.0181 -0.8401  0.4296
  659MOL0     C90816   1.248   9.351   1.997 -0.2695 -0.0077  0.9120
  659MOL0     C90817   1.140   9.425   1.921  0.4781 -0.0348 -0.3005
  659MOL0     C90818   1.163   9.409   1.766 -0.2462  0.0658 -0.3283
  659MOL0     C90819   1.060   9.499   1.689  0.4241  0.4562 -0.4338
  659MOL0     C90820   1.049   9.457   1.538  0.5412 -0.0299 -0.4360
  659MOL0     N90821   1.183   9.465   1.469 -0.1011  0.4290  1.0318
  659MOL0     C90822   1.244   9.585   1.437 -0.0735  0.0092 -0.3488
  659MOL0     C90823   1.355   9.554   1.370  0.7293  0.9352 -0.5991
  659MOL0     C90824   1.453   9.655   1.336  0.4247  0.5403  0.1084
  659MOL0     C90825   1.436   9.686   1.185 -0.1709 -0.0034  0.2281
  659MOL0     C90826   1.508   9.593   1.088  0.2362  0.3693  0.0978
  659MOL0     C90827   1.496   9.624   0.939  0.1185  1.0092  0.1268
  659MOL0     O90828   1.555   9.545   0.855 -0.2606 -0.7119 -0.2912
  659MOL0     C90829   1.492   9.427   0.825 -0.0536 -0.0810 -0.2638
  659MOL0     C90830   1.575   9.350   0.741 -1.3048  0.6254  0.1040
  659MOL0     C90831   1.531   9.219   0.710 -0.4920 -0.0343 -0.4002
  659MOL0     C90832   1.641   9.140   0.643  0.2484  0.0125  0.2753
  659MOL0     C90833   1.408   9.158   0.751  0.6395  0.1626 -0.2620
  659MOL0     C90834   1.345   9.024   0.728 -0.0047  0.2156  0.7932
  659MOL0     O90835   1.209   9.002   0.772  0.2180 -0.2145 -0.0362
  659MOL0     C90836   1.125   8.901   0.722  0.1547 -0.5584  1.3369
  659MOL0     C90837   0.999   8.875   0.784 -0.0841  0.5787  0.2927
  659MOL0     C90838   0.914   8.773   0.739  0.3962  0.0976  0.1305
  659MOL0     C90839   0.945   8.703   0.620  0.5445 -0.4645 -0.6703
  659MOL0     O90840   0.855   8.614   0.568  0.7455 -0.0715  0.0002
  659MOL0     C90841   0.921   8.492   0.523  0.8047 -0.1168  0.1545
  659MOL0     C90842   0.813   8.389   0.557 -0.6298 -0.5657  0.3272
  659MOL0     C90843   0.865   8.250   0.522 -0.0816 -0.6050 -0.4722
  659MOL0     C90844   0.754   8.155   0.506  1.0867 -0.3617  0.0207
  659MOL0     C90845   0.797   8.012   0.484 -0.2317 -1.2998 -0.3951
  659MOL0     C90846   0.916   7.969   0.565  0.3363 -0.1275  0.1503
  659MOL0     C90847   0.921   7.823   0.574  0.3986  0.0833 -0.1346
  659MOL0     C90848   1.070   7.770   0.579 -0.4565  0.1466  0.9084
  659MOL0    Cl90849   1.146   7.834   0.425  0.1938 -0.0983  0.2418
  659MOL0     C90850   1.066   8.733   0.557 -0.3229  0.3983  0.2121
  659MOL0     C90851   1.151   8.823   0.610  0.5552  0.5556 -0.2214
  659MOL0     O90852   1.411   8.949   0.658 -0.1203  0.5381  0.2522
  659MOL0     C90853   1.328   9.242   0.830 -0.1572 -0.6363  0.6903
  659MOL0     C90854   1.360   9.374   0.871 -0.2800 -1.1034  0.1411
  659MOL0     N90855   1.339   9.428   1.320 -0.4972  0.0093  0.3892
  659MOL0     N90856   1.239   9.370   1.388 -0.1129 -0.5877 -0.3671
  659MOL0     C90857   1.416   9.185   2.694  0.0939 -0.8422  0.0155
  659MOL0     C90858   1.459   9.200   2.825 -0.7082  0.0956 -0.2070
  659MOL0     C90859   1.664   9.268   3.213  0.0648 -0.8077  0.1918
  659MOL0     C90860   1.783   9.343   3.198 -1.6896 -0.0487 -1.2310
  659MOL0     C90861   1.870   9.366   3.310  0.7461  0.7601  0.4846
  659MOL0     C90862   1.837   9.303   3.427  0.1870 -0.2468 -0.2709
  659MOL0     O90863   1.917   9.323   3.534  0.6044 -0.1217  0.4712
  659MOL0     C90864   1.870   9.453   3.594  0.0067  0.6860 -0.9850
  659MOL0     C90865   1.962   9.467   3.714  0.1752 -1.4845 -0.0853
  659MOL0     C90866   2.108   9.481   3.692 -0.4601 -0.8338  0.2873
  659MOL0     C90867   2.171   9.511   3.833 -0.6121  0.0118  0.5302
  659MOL0     C90868   2.317   9.539   3.835  0.4978 -0.0739  0.7508
  659MOL0     C90869   2.436   9.557   3.846  0.5390 -0.4812  0.1690
  659MOL0     C90870   1.729   9.217   3.436 -0.4502  0.1367 -0.6103
  659MOL0     C90871   1.639   9.201   3.333 -0.0165  0.2315 -0.5634
  659MOL0     C90872   1.526   9.106   3.365  0.1138  1.0916  0.6647
  659MOL0     H90873   1.668   9.454   2.778  0.2058 -1.7280  2.5367
  659MOL0     H90874   1.587   9.431   2.545 -1.6480  1.5170 -1.1236
  659MOL0     H90875   1.476   9.402   2.344  0.8816  0.1642  1.4243
  659MOL0     H90876   1.308   9.398   2.414 -0.7315  0.2512 -1.2579
  659MOL0     H90877   1.419   9.222   2.199  1.3173 -1.1454  1.6273
  659MOL0     H90878   1.247   9.206   2.275 -0.4990 -0.5620 -0.3695
  659MOL0     H90879   1.157   9.395   2.189  0.1729 -0.7142  0.8130
  659MOL0     H90880   1.304   9.476   2.163 -3.7315  1.1248 -0.2520
  659MOL0     H90881   1.339   9.388   1.948 -1.4137 -0.4630 -1.7042
  659MOL0     H90882   1.243   9.244   1.975  0.1583  0.3411 -1.0989
  659MOL0     H90883   1.126   9.530   1.948 -0.0266 -0.4721  1.2538
  659MOL0     H90884   1.039   9.387   1.936  0.4632 -0.4808 -1.3865
  659MOL0     H90885   1.266   9.437   1.743  1.5701 -3.5045  2.4929
  659MOL0     H90886   1.148   9.305   1.737  1.9916 -0.1699 -0.8128
  659MOL0     H90887   1.099   9.597   1.715  1.9967 -0.4096  0.6776
  659MOL0     H90888   0.959   9.491   1.729  0.4237  0.2999 -0.4639
  659MOL0     H90889   1.014   9.354   1.527 -0.3751  0.0294  1.5373
  659MOL0     H90890   0.976   9.528   1.500  0.7004 -0.1196 -0.9232
  659MOL0     H90891   1.220   9.677   1.490 -0.3066 -0.3870  0.2545
  659MOL0     H90892   1.557   9.628   1.357  0.7041 -0.3324 -2.1689
  659MOL0     H90893   1.438   9.750   1.389 -0.1524  0.3423  0.3105
  659MOL0     H90894   1.329   9.683   1.166 -0.7153  2.6118  2.3206
  659MOL0     H90895   1.474   9.788   1.170  1.5363 -0.6813 -0.3173
  659MOL0     H90896   1.613   9.592   1.119  0.4076 -0.9963 -0.4763
  659MOL0     H90897   1.461   9.495   1.094  0.5180  0.0573 -2.0001
  659MOL0     H90898   1.394   9.647   0.909 -0.4161 -1.5656 -0.2747
  659MOL0     H90899   1.566   9.708   0.928  3.6933 -1.6213  0.9002
  659MOL0     H90900   1.662   9.393   0.692 -0.8843  0.0350  0.3191
  659MOL0     H90901   1.719   9.194   0.590 -0.0628 -1.7205 -2.1055
  659MOL0     H90902   1.598   9.084   0.560  1.4989  2.2299 -2.0056
  659MOL0     H90903   1.677   9.065   0.714 -3.6110 -1.2485  1.1254
  659MOL0     H90904   0.960   8.931   0.868 -1.3917 -1.9529  1.5158
  659MOL0     H90905   0.822   8.750   0.791 -0.3026  0.0094 -1.0990
  659MOL0     H90906   0.955   8.486   0.419  1.6194  0.3325  0.3871
  659MOL0     H90907   1.009   8.474   0.586 -0.1992  1.0585  1.9876
  659MOL0     H90908   0.800   8.398   0.666 -1.1313  2.6198  0.0995
  659MOL0     H90909   0.714   8.401   0.512  0.5448 -1.5054 -2.7583
  659MOL0     H90910   0.925   8.216   0.607 -1.3119  1.9608  1.5728
  659MOL0     H90911   0.923   8.253   0.430 -1.7432 -0.4186 -1.5584
  659MOL0     H90912   0.693   8.180   0.419  1.5172 -0.7463 -0.3981
  659MOL0     H90913   0.691   8.157   0.595  1.0998 -1.5315  0.0729
  659MOL0     H90914   0.708   7.949   0.496 -0.5174 -0.5605  1.8369
  659MOL0     H90915   0.841   7.992   0.386 -1.7811 -2.8322 -0.8437
  659MOL0     H90916   0.898   8.001   0.668 -0.9478 -1.6666  0.4347
  659MOL0     H90917   1.002   8.019   0.518 -1.4557  1.7083 -1.3863
  659MOL0     H90918   0.884   7.781   0.480  1.7957 -0.3499 -0.5179
  659MOL0     H90919   0.860   7.786   0.657  0.2945 -0.7742 -0.5889
  659MOL0     H90920   1.076   7.661   0.582  2.8826  0.1138  5.7936
  659MOL0     H90921   1.123   7.798   0.670 -0.4082  1.3471  0.5197
  659MOL0     H90922   1.104   8.686   0.467  3.3872  0.0976  1.7678
  659MOL0     H90923   1.247   8.835   0.561  2.4067 -1.1843  2.6380
  659MOL0     H90924   1.232   9.225   0.878 -1.4157  1.9585 -0.6538
  659MOL0     H90925   1.297   9.444   0.925  2.5142  1.5570  0.1945
  659MOL0     H90926   1.354   9.099   2.670  1.3593 -1.0280 -3.1238
  659MOL0     H90927   1.429   9.132   2.905  0.4196  0.7988  0.8551
  659MOL0     H90928   1.815   9.388   3.105 -2.1607  1.3812 -0.7256
  659MOL0     H90929   1.952   9.437   3.304  1.3293  0.1804  1.3856
  659MOL0     H90930   1.875   9.539   3.527  1.2535  2.1239  0.8513
  659MOL0     H90931   1.768   9.437   3.629  0.8449  0.0315  1.3469
  659MOL0     H90932   1.943   9.388   3.787 -3.6412  0.1677  0.9999
  659MOL0     H90933   1.933   9.559   3.766 -2.6016 -1.6919 -1.1111
  659MOL0     H90934   2.154   9.392   3.646  2.5360 -0.8675  3.0185
  659MOL0     H90935   2.119   9.569   3.628 -3.0140 -0.3883  0.3378
  659MOL0     H90936   2.146   9.424   3.895 -4.7834  1.0215  0.5282
  659MOL0     H90937   2.115   9.587   3.888 -1.3019 -0.7803  0.9574
  659MOL0     H90938   2.541   9.579   3.855  0.4154  0.3485 -0.3071
  659MOL0     H90939   1.721   9.151   3.521  0.1508 -1.0114 -1.4255
  659MOL0     H90940   1.554   9.006   3.331  0.8694  1.4481  0.2157
  659MOL0     H90941   1.504   9.098   3.472 -1.7536  1.0143  0.3025
  659MOL0     H90942   1.433   9.125   3.310 -0.1829 -2.0417 -0.1030
  660MOL0     O90943   7.260  11.346   7.878 -0.4634 -0.0081 -0.1649
  660MOL0     C90944   7.140  11.356   7.903 -0.0558 -0.9237 -0.7065
  660MOL0     O90945   7.086  11.321   8.025 -0.4281 -0.2390  0.8466
  660MOL0     C90946   7.141  11.219   8.100  0.1017  0.6518 -0.4004
  660MOL0     C90947   7.225  11.115   8.057 -0.5601  0.5529  0.9866
  660MOL0     C90948   7.270  11.012   8.145 -1.0069 -0.5717  1.3112
  660MOL0     C90949   7.235  11.017   8.283  0.3101  0.1518  0.3262
  660MOL0     O90950   7.282  10.929   8.373 -0.3544 -0.2934 -0.0443
  660MOL0     C90951   7.393  10.965   8.452  0.0175  0.8884  0.0293
  660MOL0     C90952   7.352  10.970   8.598  0.1319  0.0192 -0.1473
  660MOL0     C90953   7.468  10.984   8.704 -1.2456  1.4722  0.1133
  660MOL0     C90954   7.563  11.101   8.674 -0.0492 -0.9753  0.4211
  660MOL0     C90955   7.678  11.131   8.773  0.3413  0.1085 -0.7727
  660MOL0     C90956   7.631  11.131   8.919 -0.5081 -0.4233  0.2393
  660MOL0     C90957   7.749  11.174   9.018 -0.2788  0.5280  0.1884
  660MOL0     C90958   7.869  11.067   9.028  0.4284 -0.8193  0.2110
  660MOL0     N90959   7.817  10.937   9.035  0.0810  0.5241 -0.3106
  660MOL0     C90960   7.749  10.888   9.149  0.1470  0.2082 -0.5039
  660MOL0     C90961   7.698  10.773   9.109 -0.2367 -0.2291 -0.1007
  660MOL0     C90962   7.611  10.689   9.201  0.7659  0.1015 -0.4647
  660MOL0     C90963   7.462  10.711   9.176 -0.0864  0.0091 -0.0420
  660MOL0     C90964   7.421  10.858   9.194 -0.9347  0.5790  0.8492
  660MOL0     C90965   7.276  10.868   9.168 -0.6844 -0.5844 -0.9294
  660MOL0     O90966   7.200  10.843   9.287 -0.3813  0.3282 -0.1209
  660MOL0     C90967   7.063  10.814   9.284  0.4451 -0.2556  0.0097
  660MOL0     C90968   6.996  10.764   9.394  0.2878  0.3220 -0.6063
  660MOL0     C90969   6.853  10.732   9.397  0.3155 -0.7999 -0.2687
  660MOL0     C90970   6.795  10.668   9.522 -0.6095 -0.5049 -0.5504
  660MOL0     C90971   6.777  10.767   9.277 -0.0134  0.0494 -0.6120
  660MOL0     C90972   6.631  10.753   9.270 -0.4105  0.4625 -0.1617
  660MOL0     O90973   6.587  10.744   9.139 -0.0768 -0.5783  0.2877
  660MOL0     C90974   6.458  10.770   9.100 -0.0230 -0.5007 -0.1759
  660MOL0     C90975   6.363  10.848   9.174 -0.1105  0.0758 -0.7283
  660MOL0     C90976   6.243  10.891   9.122 -0.1815  1.1043  1.0092
  660MOL0     C90977   6.203  10.846   8.993 -0.2060 -0.9352 -0.7328
  660MOL0     O90978   6.083  10.881   8.948  0.4612  0.3632 -0.0096
  660MOL0     C90979   6.096  10.940   8.814 -0.4385  0.4339 -0.3896
  660MOL0     C90980   5.966  11.003   8.777 -0.0208 -0.8167 -0.3507
  660MOL0     C90981   5.858  10.915   8.735 -0.8288  0.6557  1.0045
  660MOL0     C90982   5.734  10.981   8.682 -0.2192  0.2655 -0.2454
  660MOL0     C90983   5.622  10.890   8.646  0.0519 -0.4648 -0.3659
  660MOL0     C90984   5.514  10.957   8.568 -0.1867  0.6053 -0.1862
  660MOL0     C90985   5.545  10.985   8.424 -0.0894  1.1818 -1.0332
  660MOL0     C90986   5.432  11.071   8.360  0.0476  0.5659  0.2756
  660MOL0    Cl90987   5.460  11.061   8.180 -0.5586 -0.0834  0.2287
  660MOL0     C90988   6.291  10.769   8.914 -0.4165  0.4097 -0.8834
  660MOL0     C90989   6.423  10.734   8.963  0.4225  0.4022 -0.3076
  660MOL0     O90990   6.557  10.738   9.372  0.2095 -0.7164 -0.0648
  660MOL0     C90991   6.842  10.822   9.168  0.5159  0.2708  0.2225
  660MOL0     C90992   6.982  10.838   9.167  0.2095 -0.6756 -0.7846
  660MOL0     N90993   7.739  10.751   8.975  0.0507  0.2135 -0.7574
  660MOL0     N90994   7.805  10.852   8.938  0.3532  0.4533  0.8658
  660MOL0     C90995   7.158  11.128   8.328 -0.8637  0.3855  0.2905
  660MOL0     C90996   7.106  11.219   8.236 -0.1066 -0.2094  0.3315
  660MOL0     C90997   7.033  11.395   7.807 -0.2737 -0.3397 -0.0057
  660MOL0     C90998   6.899  11.350   7.840 -0.6169  0.2988  0.3727
  660MOL0     C90999   6.789  11.383   7.756  0.5990 -0.4614  0.8280
  660MOL0     C91000   6.817  11.478   7.654  0.2624 -0.2729  1.6223
  660MOL0     O91001   6.733  11.546   7.573  0.6200 -0.3129 -0.6913
  660MOL0     C91002   6.671  11.660   7.633 -1.5868  0.1480  0.5473
  660MOL0     C91003   6.557  11.701   7.538 -0.7302 -0.3308  0.7717
  660MOL0     C91004   6.602  11.774   7.403 -0.6089 -0.1878 -1.0215
  660MOL0     C91005   6.686  11.700   7.299 -0.7307 -0.3667 -0.6320
  660MOL0     C91006   6.621  11.589   7.239 -0.2993  0.0474  0.4069
  660MOL0     C91007   6.549  11.497   7.194 -0.0143 -0.6769  0.3850
  660MOL0     C91008   6.948  11.510   7.614  0.3022  0.6429 -0.5796
  660MOL0     C91009   7.060  11.466   7.688  0.3425  0.0527  0.4541
  660MOL0     C91010   7.201  11.524   7.640  0.4339 -0.5827  0.7359
  660MOL0     H91011   7.243  11.116   7.950 -2.0539  0.4325  0.7180
  660MOL0     H91012   7.328  10.925   8.118  0.0153  0.4373  0.1654
  660MOL0     H91013   7.432  11.064   8.426 -2.8219  1.6599 -1.7104
  660MOL0     H91014   7.467  10.885   8.438 -0.6835 -0.6917  4.0500
  660MOL0     H91015   7.294  11.059   8.623  1.1910  1.2281 -1.7896
  660MOL0     H91016   7.294  10.880   8.622  0.4146  0.2259  1.4138
  660MOL0     H91017   7.424  11.001   8.802  0.8373  1.4961  1.0910
  660MOL0     H91018   7.522  10.889   8.703 -1.2465  1.4213 -2.2882
  660MOL0     H91019   7.609  11.103   8.575  1.3918  0.8070  1.0672
  660MOL0     H91020   7.493  11.183   8.690 -2.2902 -2.7425  0.1332
  660MOL0     H91021   7.728  11.225   8.747  0.3544  0.7215  1.3557
  660MOL0     H91022   7.757  11.056   8.760  1.1884  0.7366  0.5493
  660MOL0     H91023   7.552  11.204   8.939  0.3307  0.1134  1.7579
  660MOL0     H91024   7.585  11.037   8.948 -0.2069 -0.4677  0.5852
  660MOL0     H91025   7.702  11.183   9.116 -2.8416 -0.2735 -0.8954
  660MOL0     H91026   7.777  11.272   8.981 -0.3887  1.1804  1.7511
  660MOL0     H91027   7.927  11.072   8.935 -3.7239  0.5275 -2.6007
  660MOL0     H91028   7.938  11.088   9.110  1.5276  0.8972 -1.0754
  660MOL0     H91029   7.727  10.925   9.249  0.6391 -2.0860  0.5208
  660MOL0     H91030   7.629  10.705   9.308  0.2220  0.8319 -0.4746
  660MOL0     H91031   7.656  10.591   9.184 -2.6580 -1.4107 -1.4733
  660MOL0     H91032   7.446  10.674   9.074  2.9834  0.7447 -0.8925
  660MOL0     H91033   7.396  10.649   9.236 -2.2863  2.0265 -0.2538
  660MOL0     H91034   7.437  10.875   9.300  1.5792  2.9462  0.2073
  660MOL0     H91035   7.490  10.914   9.130 -1.1493 -2.3979 -2.3050
  660MOL0     H91036   7.246  10.970   9.143 -0.6237 -0.7552 -1.7271
  660MOL0     H91037   7.233  10.807   9.088 -2.8321  0.2195 -0.4420
  660MOL0     H91038   7.050  10.747   9.487 -1.6457  1.4943  0.8237
  660MOL0     H91039   6.876  10.647   9.592 -1.4966 -4.2914 -0.4409
  660MOL0     H91040   6.758  10.568   9.500  0.6513 -0.9751 -0.6288
  660MOL0     H91041   6.720  10.733   9.569 -2.1839 -1.2369 -1.9487
  660MOL0     H91042   6.406  10.893   9.263 -0.9577  1.1442 -0.8294
  660MOL0     H91043   6.178  10.958   9.177 -0.2816  0.0678  2.1852
  660MOL0     H91044   6.173  11.018   8.818 -0.5351  0.4999  0.7966
  660MOL0     H91045   6.120  10.870   8.734 -0.2885  0.0489 -0.0114
  660MOL0     H91046   5.936  11.073   8.856 -0.3859  0.0877 -1.2705
  660MOL0     H91047   5.984  11.066   8.690 -2.6122  0.8163  0.1725
  660MOL0     H91048   5.827  10.854   8.821  2.4232 -4.2614 -0.8984
  660MOL0     H91049   5.901  10.844   8.664 -0.6829  0.0355  1.7048
  660MOL0     H91050   5.758  11.040   8.594  0.6949  1.2734  0.6466
  660MOL0     H91051   5.695  11.043   8.764 -1.7126 -1.1081  0.1471
  660MOL0     H91052   5.652  10.805   8.584 -0.6361 -0.8796 -0.1465
  660MOL0     H91053   5.591  10.860   8.747 -1.9096  1.9090 -0.1872
  660MOL0     H91054   5.483  11.044   8.626 -1.3509  0.9170 -1.2278
  660MOL0     H91055   5.431  10.888   8.586  0.2843  1.0128  4.9496
  660MOL0     H91056   5.546  10.887   8.376 -1.2684  0.4386  0.3861
  660MOL0     H91057   5.643  11.033   8.415  3.0908 -3.5267  3.2018
  660MOL0     H91058   5.436  11.178   8.385 -2.5373  0.6131  0.7172
  660MOL0     H91059   5.332  11.049   8.398 -0.3064  4.5960  2.2737
  660MOL0     H91060   6.264  10.728   8.817  0.8414 -0.7742 -0.7723
  660MOL0     H91061   6.491  10.677   8.901  1.2261 -0.1982  1.0569
  660MOL0     H91062   6.785  10.861   9.084  3.0272  2.4631 -0.5848
  660MOL0     H91063   7.025  10.894   9.084  2.2258 -0.0359  0.6091
  660MOL0     H91064   7.152  11.137   8.437  1.4581  1.7905  0.3726
  660MOL0     H91065   7.048  11.303   8.273  2.6474  0.9649  2.3203
  660MOL0     H91066   6.871  11.275   7.913 -0.3622  0.9795  1.1859
  660MOL0     H91067   6.692  11.338   7.775  0.5088 -0.0296  1.4198
  660MOL0     H91068   6.637  11.648   7.737 -3.6046 -0.6260 -0.1512
  660MOL0     H91069   6.748  11.737   7.627 -2.1332  0.7490  1.0840
  660MOL0     H91070   6.495  11.771   7.596  3.5476  2.6047  2.3195
  660MOL0     H91071   6.506  11.607   7.515 -0.0720 -0.4313 -0.3349
  660MOL0     H91072   6.505  11.802   7.362 -0.8084 -0.8270 -1.0087
  660MOL0     H91073   6.656  11.868   7.413  1.4765 -0.9896 -3.6541
  660MOL0     H91074   6.777  11.681   7.357 -0.7452  1.4814  0.0546
  660MOL0     H91075   6.710  11.771   7.219 -0.7598  1.9108  1.2691
  660MOL0     H91076   6.500  11.413   7.149  1.4502 -1.1787 -0.3455
  660MOL0     H91077   6.970  11.572   7.528  3.5035  0.7669  0.2011
  660MOL0     H91078   7.220  11.630   7.662 -0.0963 -0.1541 -0.7346
  660MOL0     H91079   7.287  11.476   7.686  0.4805  0.9675  2.3715
  660MOL0     H91080   7.216  11.499   7.534 -2.0203 -2.2291  0.6995
  661MOL0     O91081   6.403   7.272  10.686 -0.8125  0.2335  0.1054
  661MOL0     C91082   6.476   7.289  10.783  0.7752 -0.6823 -0.6657
  661MOL0     O91083   6.454   7.382  10.880  0.5254  0.2353 -0.2704
  661MOL0     C91084   6.385   7.500  10.858 -0.9991  1.6579 -0.2212
  661MOL0     C91085   6.451   7.593  10.783 -0.2680  0.5416 -0.2829
  661MOL0     C91086   6.399   7.722  10.759 -0.0627  0.2277 -0.2278
  661MOL0     C91087   6.272   7.750  10.804  0.4972 -0.1330 -0.5633
  661MOL0     O91088   6.234   7.883  10.827  0.3154 -0.5947  0.6465
  661MOL0     C91089   6.135   7.930  10.728 -1.2560  0.8580 -0.1871
  661MOL0     C91090   6.153   8.082  10.716  0.1784 -0.0403  0.2224
  661MOL0     C91091   6.292   8.120  10.667  0.6883  0.5939 -0.0869
  661MOL0     C91092   6.308   8.269  10.672 -0.0766 -0.9298 -0.0732
  661MOL0     C91093   6.455   8.307  10.638  0.7503 -0.6098 -0.8917
  661MOL0     C91094   6.474   8.458  10.650  0.3186  0.2258  0.3771
  661MOL0     C91095   6.622   8.493  10.649 -0.1249  0.8824  0.1470
  661MOL0     C91096   6.688   8.456  10.523  0.2755 -0.3894  0.3203
  661MOL0     N91097   6.822   8.520  10.503  0.0504 -0.1831  0.2842
  661MOL0     C91098   6.947   8.467  10.545  0.3529  0.1467 -0.5174
  661MOL0     C91099   7.034   8.554  10.500 -0.1601 -0.1533 -0.6764
  661MOL0     C91100   7.180   8.552  10.540 -0.1689  1.2266  0.6121
  661MOL0     C91101   7.272   8.554  10.422  0.0442  0.3824  0.9586
  661MOL0     C91102   7.411   8.526  10.475 -0.3230  0.1089  0.5880
  661MOL0     C91103   7.519   8.521  10.362 -0.3636  0.0511 -0.4700
  661MOL0     O91104   7.498   8.635  10.279  0.2155 -0.2856  0.0050
  661MOL0     C91105   7.572   8.618  10.165  0.7508 -0.1208  0.0335
  661MOL0     C91106   7.706   8.657  10.145  0.0367  0.1420 -0.1515
  661MOL0     C91107   7.763   8.668  10.018 -0.3643  1.7810  0.4952
  661MOL0     C91108   7.897   8.752  10.011 -0.0005 -0.0149 -0.6953
  661MOL0     C91109   7.703   8.595   9.909  0.4638  1.0305  0.0694
  661MOL0     C91110   7.758   8.592   9.774 -0.4509 -0.9370 -0.7207
  661MOL0     O91111   7.660   8.576   9.678 -0.0593  0.0122  0.2567
  661MOL0     C91112   7.704   8.586   9.553 -0.2443 -0.0714  1.0432
  661MOL0     C91113   7.694   8.478   9.474  0.4004  0.3461  0.7949
  661MOL0     C91114   7.718   8.484   9.341 -0.7466  0.0877 -1.2957
  661MOL0     C91115   7.769   8.602   9.283  0.3297  0.1933  0.5744
  661MOL0     O91116   7.790   8.596   9.149 -0.0169  0.0403  0.0129
  661MOL0     C91117   7.848   8.710   9.088  0.0903  0.6125 -0.2231
  661MOL0     C91118   7.880   8.684   8.948  0.8085 -0.2969  0.2540
  661MOL0     C91119   7.755   8.627   8.870 -0.0937 -0.3105 -0.8046
  661MOL0     C91120   7.770   8.640   8.712  0.1298 -0.4567  0.2623
  661MOL0     C91121   7.780   8.786   8.666  0.5284  0.2231  0.3488
  661MOL0     C91122   7.811   8.794   8.513 -0.6928  0.0069  0.8456
  661MOL0     C91123   7.814   8.939   8.457  0.5134  0.2497 -0.8895
  661MOL0     C91124   7.697   8.983   8.371 -0.4618  1.0558 -0.6616
  661MOL0    Cl91125   7.551   8.977   8.476  0.1573 -0.0264  0.0129
  661MOL0     C91126   7.802   8.714   9.367 -0.0135  0.0762 -0.2800
  661MOL0     C91127   7.767   8.704   9.503  0.2890  0.1977  0.2552
  661MOL0     O91128   7.881   8.593   9.756 -0.0893  0.0208 -0.2008
  661MOL0     C91129   7.575   8.559   9.935  0.3568 -0.9019 -0.3872
  661MOL0     C91130   7.504   8.574  10.055 -0.0363 -0.1589 -0.0646
  661MOL0     N91131   6.970   8.643  10.417 -0.3197 -0.8182  0.9109
  661MOL0     N91132   6.846   8.618  10.410  0.2522 -0.6347  0.4893
  661MOL0     C91133   6.196   7.650  10.876  0.3499  0.0695 -0.2717
  661MOL0     C91134   6.258   7.523  10.900 -0.0665 -0.3524  0.4875
  661MOL0     C91135   6.581   7.189  10.811 -0.4111  0.1788 -0.3875
  661MOL0     C91136   6.614   7.175  10.942  0.0653  0.2024 -0.0747
  661MOL0     C91137   6.708   7.074  10.979 -0.0327 -0.8214 -0.2732
  661MOL0     C91138   6.768   6.983  10.891 -0.0277  1.0566  0.2453
  661MOL0     O91139   6.865   6.889  10.942  0.3944  0.4339 -0.5157
  661MOL0     C91140   6.945   6.809  10.858  0.3948 -0.4504 -0.2519
  661MOL0     C91141   6.866   6.682  10.818 -0.9541 -0.1288 -0.0492
  661MOL0     C91142   6.961   6.559  10.792 -0.9154  0.0060  0.3268
  661MOL0     C91143   7.046   6.573  10.662 -0.5739 -1.2142 -0.5837
  661MOL0     C91144   6.952   6.557  10.555 -0.2582  0.2149 -0.8416
  661MOL0     C91145   6.883   6.553  10.455 -0.7970  1.5181  0.1236
  661MOL0     C91146   6.729   6.996  10.757  0.4384 -0.4471  0.2148
  661MOL0     C91147   6.636   7.099  10.712 -0.5210 -0.5861  0.1362
  661MOL0     C91148   6.611   7.129  10.569  0.8742  0.0453  0.4897
  661MOL0     H91149   6.545   7.572  10.734  0.6664  6.0036 -1.4241
  661MOL0     H91150   6.447   7.800  10.700  0.2374 -0.2852 -0.6650
  661MOL0     H91151   6.033   7.903  10.757 -1.1004  1.4184  0.9261
  661MOL0     H91152   6.146   7.888  10.627 -2.7780  2.7749 -1.1972
  661MOL0     H91153   6.072   8.113  10.649 -1.3479  0.6033  2.2809
  661MOL0     H91154   6.128   8.129  10.812 -0.9723 -2.4422  1.1574
  661MOL0     H91155   6.373   8.076  10.726  0.4302 -3.5847 -2.4490
  661MOL0     H91156   6.319   8.080  10.569  0.6222 -2.1920  0.9373
  661MOL0     H91157   6.245   8.311  10.594 -2.1904 -1.4148  1.2977
  661MOL0     H91158   6.271   8.322  10.760 -1.2715  0.0187 -1.1068
  661MOL0     H91159   6.495   8.248  10.555  0.7759 -4.2423  1.4892
  661MOL0     H91160   6.516   8.272  10.721 -1.3256 -3.1436 -0.3040
  661MOL0     H91161   6.415   8.506  10.572  0.7023 -1.0700 -0.7401
  661MOL0     H91162   6.432   8.483  10.748 -2.0779 -2.3546  0.1308
  661MOL0     H91163   6.665   8.434  10.731 -2.1383 -1.4380 -0.3303
  661MOL0     H91164   6.631   8.599  10.672  1.3557  1.0592 -1.0630
  661MOL0     H91165   6.701   8.348  10.506  2.3815 -0.3270  1.2353
  661MOL0     H91166   6.626   8.490  10.440  3.6434  1.9715 -1.4639
  661MOL0     H91167   6.962   8.392  10.622 -0.5938  1.6990  1.2809
  661MOL0     H91168   7.201   8.461  10.597  1.1105 -0.1349 -1.8844
  661MOL0     H91169   7.191   8.639  10.605  3.3571  0.2434  1.5086
  661MOL0     H91170   7.237   8.479  10.350  1.2091 -0.6497  1.4392
  661MOL0     H91171   7.262   8.652  10.375 -1.8801  0.7235  1.9662
  661MOL0     H91172   7.427   8.604  10.551  0.2275  2.6112 -1.9221
  661MOL0     H91173   7.407   8.431  10.528 -1.5055  0.4358  1.1036
  661MOL0     H91174   7.620   8.520  10.403  1.0828 -4.2144 -3.4649
  661MOL0     H91175   7.499   8.428  10.308  1.3575 -0.0388 -1.0004
  661MOL0     H91176   7.753   8.696  10.235  1.8197 -0.3517 -0.8312
  661MOL0     H91177   7.990   8.697  10.029 -0.0641  0.7091  2.4300
  661MOL0     H91178   7.897   8.825  10.092  0.1072  1.0782 -1.6521
  661MOL0     H91179   7.884   8.800   9.913  0.8337 -0.9760 -1.2947
  661MOL0     H91180   7.645   8.388   9.508 -0.7185  0.4415 -0.4891
  661MOL0     H91181   7.703   8.396   9.279 -0.0800 -2.9736  2.4872
  661MOL0     H91182   7.765   8.781   9.094 -1.4488 -1.2341  2.7981
  661MOL0     H91183   7.935   8.732   9.151  0.6030 -0.5077 -0.5249
  661MOL0     H91184   7.901   8.784   8.908 -2.0672  0.8780  1.4383
  661MOL0     H91185   7.967   8.622   8.923  0.9848  0.9986 -2.8287
  661MOL0     H91186   7.672   8.686   8.909 -0.1398 -0.7133 -0.2827
  661MOL0     H91187   7.737   8.523   8.898  0.4286  0.3884  2.5685
  661MOL0     H91188   7.689   8.593   8.656  0.2671  1.0530 -1.2538
  661MOL0     H91189   7.863   8.588   8.684 -1.5056 -2.4886 -1.7424
  661MOL0     H91190   7.684   8.836   8.681 -0.1477  0.1934 -3.0600
  661MOL0     H91191   7.860   8.838   8.719  1.1532 -0.2119 -0.1477
  661MOL0     H91192   7.743   8.731   8.455  1.1972 -2.1882  0.9073
  661MOL0     H91193   7.908   8.747   8.499 -1.8888 -1.9614 -1.5118
  661MOL0     H91194   7.914   8.962   8.418  1.2304  1.0184  1.2301
  661MOL0     H91195   7.813   9.008   8.543  0.3290  2.6160 -2.6884
  661MOL0     H91196   7.689   8.925   8.278  0.1129 -0.4117  0.1737
  661MOL0     H91197   7.712   9.089   8.351 -1.4224  1.3981  0.3377
  661MOL0     H91198   7.857   8.800   9.330  4.3451 -0.2071  4.4672
  661MOL0     H91199   7.798   8.785   9.568  2.2951  0.7772 -1.3052
  661MOL0     H91200   7.514   8.513   9.858  0.6272 -0.4150 -0.8975
  661MOL0     H91201   7.400   8.549  10.068  0.3336 -2.6641 -1.2901
  661MOL0     H91202   6.093   7.660  10.911 -0.7799 -2.8757 -2.3448
  661MOL0     H91203   6.205   7.446  10.954 -0.1779  0.3027  1.3194
  661MOL0     H91204   6.581   7.242  11.020 -0.3767  0.1018 -0.1744
  661MOL0     H91205   6.739   7.057  11.081  3.5591  0.7505 -0.9604
  661MOL0     H91206   6.980   6.872  10.776  0.1350  2.3641  1.6621
  661MOL0     H91207   7.030   6.777  10.919 -0.2733 -0.5670  0.6323
  661MOL0     H91208   6.803   6.691  10.729 -2.0432 -0.4885  0.6588
  661MOL0     H91209   6.794   6.650  10.894  1.2905 -3.9425  0.7404
  661MOL0     H91210   7.035   6.553  10.873  0.8496 -0.1777 -1.2223
  661MOL0     H91211   6.920   6.458  10.790  0.7461 -0.6813 -0.5395
  661MOL0     H91212   7.122   6.496  10.647  0.6796 -0.1386  0.0805
  661MOL0     H91213   7.089   6.673  10.653  1.9426 -2.0377  1.1737
  661MOL0     H91214   6.837   6.560  10.358  1.1758 -1.0333 -1.1287
  661MOL0     H91215   6.773   6.931  10.682  0.0310 -0.0040 -0.4236
  661MOL0     H91216   6.699   7.098  10.512 -0.7756 -1.1513 -1.5503
  661MOL0     H91217   6.523   7.077  10.530  1.2560 -1.5122  1.5878
  661MOL0     H91218   6.607   7.237  10.552 -0.9082 -0.0819 -0.1204
  662MOL0     O91219   1.928   1.584   8.943  0.8884  0.4808  0.3489
  662MOL0     C91220   1.891   1.487   8.878  0.1744 -0.0610 -0.2653
  662MOL0     O91221   1.923   1.453   8.756  0.0214 -0.3473 -0.4761
  662MOL0     C91222   1.996   1.537   8.681  0.2267  0.1233 -0.1550
  662MOL0     C91223   1.943   1.664   8.653  0.3946 -0.0587 -0.3726
  662MOL0     C91224   1.986   1.734   8.548  0.1748 -0.1786  0.4927
  662MOL0     C91225   2.100   1.698   8.475 -0.0133 -0.0763  0.1746
  662MOL0     O91226   2.145   1.761   8.364  0.4894  0.5627  0.2985
  662MOL0     C91227   2.137   1.904   8.354  0.5373  0.8360  0.0888
  662MOL0     C91228   2.279   1.961   8.356  1.1041 -0.9248  0.2854
  662MOL0     C91229   2.304   2.109   8.295  0.2673 -0.1094  0.4135
  662MOL0     C91230   2.220   2.216   8.356 -0.2610 -0.6129 -0.4467
  662MOL0     C91231   2.244   2.359   8.311 -0.5020 -0.3048  0.1731
  662MOL0     C91232   2.126   2.453   8.346 -0.7036  0.1095  0.4942
  662MOL0     C91233   2.165   2.587   8.279  0.4918  0.1334 -0.0610
  662MOL0     C91234   2.067   2.714   8.311 -0.0916 -0.2028 -0.3544
  662MOL0     N91235   2.109   2.814   8.217  0.4989  0.0057  0.2545
  662MOL0     C91236   2.025   2.851   8.109 -1.3999  1.2110 -0.1040
  662MOL0     C91237   2.071   2.969   8.075  0.2378 -0.5635 -0.1832
  662MOL0     C91238   2.023   3.052   7.959  0.2624 -0.6366  1.0555
  662MOL0     C91239   2.120   3.084   7.844  0.3702 -0.2242  0.6508
  662MOL0     C91240   2.183   2.958   7.793 -0.5275  0.0146 -0.2162
  662MOL0     C91241   2.280   2.987   7.684  0.3588 -0.5936 -0.2298
  662MOL0     O91242   2.187   3.009   7.573 -0.5104  0.0826  0.0622
  662MOL0     C91243   2.238   3.054   7.451  0.0058  0.1373 -0.4344
  662MOL0     C91244   2.146   3.051   7.344  0.7811 -0.4551  0.5777
  662MOL0     C91245   2.179   3.075   7.203 -0.2859  0.3051 -0.2280
  662MOL0     C91246   2.075   3.042   7.106 -0.3864 -0.3549  0.1361
  662MOL0     C91247   2.318   3.104   7.171 -1.1894 -0.5318  0.7758
  662MOL0     C91248   2.369   3.139   7.032  0.7044 -0.1073 -0.0019
  662MOL0     O91249   2.501   3.157   7.022  0.9629 -0.1213  0.1348
  662MOL0     C91250   2.543   3.212   6.898  0.6682  0.2381 -0.6657
  662MOL0     C91251   2.596   3.342   6.910  0.8498  0.8932  0.7847
  662MOL0     C91252   2.640   3.402   6.792 -1.1502  0.5788 -0.4162
  662MOL0     C91253   2.649   3.334   6.674 -0.0833 -0.0613  1.1927
  662MOL0     O91254   2.703   3.396   6.560  0.2754  0.3915  0.5551
  662MOL0     C91255   2.815   3.339   6.485 -0.1872 -1.1963 -0.3278
  662MOL0     C91256   2.785   3.325   6.328  0.3168 -0.3305 -0.8408
  662MOL0     C91257   2.910   3.275   6.242  0.1128  0.1632  0.7493
  662MOL0     C91258   2.883   3.291   6.091 -0.0742 -0.3809  0.7037
  662MOL0     C91259   2.770   3.200   6.032  0.0347  0.2647  0.4708
  662MOL0     C91260   2.779   3.049   6.061  0.0025 -0.0132  0.3819
  662MOL0     C91261   2.668   2.963   5.997  0.0414 -0.2405  0.1063
  662MOL0     C91262   2.546   2.959   6.086 -0.2742  0.6110 -0.5002
  662MOL0    Cl91263   2.573   2.846   6.217 -0.2912 -0.3874 -0.0405
  662MOL0     C91264   2.615   3.201   6.668 -0.6170 -0.2311  0.3268
  662MOL0     C91265   2.560   3.141   6.783  0.5747 -0.0951  0.2795
  662MOL0     O91266   2.282   3.159   6.950 -0.5378 -0.4841 -0.0145
  662MOL0     C91267   2.413   3.114   7.282  0.0572 -0.1104 -0.6369
  662MOL0     C91268   2.369   3.092   7.413 -0.2431  0.2670  0.2847
  662MOL0     N91269   2.172   3.008   8.161  0.5063  0.1129  0.5612
  662MOL0     N91270   2.191   2.912   8.244  0.0739  0.4421 -0.0837
  662MOL0     C91271   2.160   1.580   8.520 -0.2501 -0.5172 -0.2683
  662MOL0     C91272   2.107   1.489   8.614 -0.9959 -0.2811 -0.6467
  662MOL0     C91273   1.822   1.377   8.953 -0.0858 -0.6396 -1.7695
  662MOL0     C91274   1.862   1.254   8.909  0.2376  0.0276 -0.2586
  662MOL0     C91275   1.804   1.138   8.965  0.6167 -0.3485 -0.0048
  662MOL0     C91276   1.710   1.146   9.072  1.3880 -0.2309  0.7378
  662MOL0     O91277   1.658   1.042   9.135  0.2957  0.3477  0.0323
  662MOL0     C91278   1.665   0.908   9.082 -0.3185  0.0176 -0.4167
  662MOL0     C91279   1.554   0.832   9.163 -0.6646 -0.5221  0.3005
  662MOL0     C91280   1.612   0.786   9.297 -0.0193 -0.4322  0.4493
  662MOL0     C91281   1.520   0.795   9.412  0.3860  0.4415  0.0183
  662MOL0     C91282   1.576   0.726   9.525  0.1723  0.4300 -0.3379
  662MOL0     C91283   1.636   0.665   9.611 -1.0108 -0.1464 -0.2901
  662MOL0     C91284   1.667   1.273   9.114  0.9595 -0.0661  0.1628
  662MOL0     C91285   1.727   1.391   9.056  0.4509 -0.2644 -0.2714
  662MOL0     C91286   1.687   1.522   9.109  0.2888 -0.1306  0.9167
  662MOL0     H91287   1.848   1.682   8.703  0.1894 -1.9626 -0.0042
  662MOL0     H91288   1.925   1.811   8.504 -0.8703 -2.6887 -2.8311
  662MOL0     H91289   2.085   1.954   8.436 -0.1510 -0.4160  0.4421
  662MOL0     H91290   2.095   1.934   8.257 -0.6081 -2.4636 -0.5702
  662MOL0     H91291   2.304   1.958   8.462  1.2926 -2.4343  0.2071
  662MOL0     H91292   2.352   1.895   8.309  3.0113 -1.1364  3.3272
  662MOL0     H91293   2.408   2.135   8.317  0.4523  0.4392 -1.0100
  662MOL0     H91294   2.303   2.105   8.186  1.7317  2.4965  0.2142
  662MOL0     H91295   2.113   2.193   8.345  0.3101 -3.5405 -0.6694
  662MOL0     H91296   2.242   2.222   8.462 -1.3888 -0.6023 -0.2027
  662MOL0     H91297   2.259   2.361   8.203  1.0346  0.9220  0.3781
  662MOL0     H91298   2.339   2.392   8.353 -0.3391 -1.8325  1.1204
  662MOL0     H91299   2.032   2.415   8.305 -0.7267 -1.0129  1.5140
  662MOL0     H91300   2.116   2.464   8.455  2.2463  0.5234  0.7920
  662MOL0     H91301   2.182   2.576   8.172 -2.3728  1.1625 -0.7090
  662MOL0     H91302   2.265   2.606   8.322 -0.1409  1.5605  0.8667
  662MOL0     H91303   1.960   2.705   8.291  0.5111 -2.1598 -3.2376
  662MOL0     H91304   2.073   2.748   8.415  1.6083  0.5681 -0.6666
  662MOL0     H91305   1.959   2.777   8.065 -0.4118 -0.4754  1.1124
  662MOL0     H91306   1.971   3.144   7.988 -1.9601 -1.7715  0.9180
  662MOL0     H91307   1.941   2.996   7.913 -0.6476  0.9772  0.6285
  662MOL0     H91308   2.060   3.136   7.767 -2.3491 -1.1020  2.0592
  662MOL0     H91309   2.195   3.150   7.888 -0.7822  2.1460 -0.7025
  662MOL0     H91310   2.235   2.910   7.876 -1.2418  0.8381  0.7281
  662MOL0     H91311   2.116   2.880   7.756 -0.9479  0.3582 -0.1902
  662MOL0     H91312   2.350   3.070   7.698  0.0584 -0.4874  0.7632
  662MOL0     H91313   2.337   2.894   7.678 -1.0480 -1.4489 -0.8560
  662MOL0     H91314   2.045   3.014   7.357  0.5744  0.1821  0.8440
  662MOL0     H91315   1.986   3.007   7.160 -0.0685 -1.8688 -0.2612
  662MOL0     H91316   2.109   2.960   7.041  0.2694  0.3694 -0.4413
  662MOL0     H91317   2.032   3.123   7.045  0.5394  2.2870  2.7991
  662MOL0     H91318   2.595   3.385   7.010 -1.2796 -5.0907  3.7744
  662MOL0     H91319   2.679   3.504   6.792  2.0586 -0.5238 -0.0593
  662MOL0     H91320   2.897   3.407   6.510 -0.4731 -0.3159 -1.6675
  662MOL0     H91321   2.847   3.246   6.533  0.8874  0.6461  2.8079
  662MOL0     H91322   2.704   3.254   6.309 -0.8210  0.4580  0.9024
  662MOL0     H91323   2.743   3.419   6.291 -3.8765 -1.6878 -0.0718
  662MOL0     H91324   2.943   3.175   6.272 -1.3344 -1.4423 -2.5501
  662MOL0     H91325   3.001   3.331   6.267  3.1122 -3.5381 -1.0088
  662MOL0     H91326   2.976   3.270   6.038  0.4894  3.1640 -0.0141
  662MOL0     H91327   2.866   3.396   6.066  0.0408  0.1549  2.6907
  662MOL0     H91328   2.674   3.215   6.082 -1.3319 -2.8939 -0.9455
  662MOL0     H91329   2.755   3.229   5.928  2.5140  0.8320  0.2251
  662MOL0     H91330   2.788   3.018   6.166 -2.4910 -0.1701  0.5929
  662MOL0     H91331   2.871   3.014   6.013 -2.2358 -2.7674 -2.2327
  662MOL0     H91332   2.703   2.863   5.969 -0.8698 -0.0945 -1.7373
  662MOL0     H91333   2.640   3.011   5.902 -2.0639 -1.9610 -0.2133
  662MOL0     H91334   2.467   2.921   6.020  2.4951 -1.3294 -2.9186
  662MOL0     H91335   2.513   3.061   6.108 -0.6975  1.1437 -3.2290
  662MOL0     H91336   2.634   3.138   6.581 -2.3114 -0.1579 -0.1196
  662MOL0     H91337   2.525   3.038   6.777 -0.4288  0.0629  2.4273
  662MOL0     H91338   2.514   3.128   7.247 -1.3363 -1.0856 -5.8748
  662MOL0     H91339   2.439   3.090   7.495  1.7158  1.5225 -1.2513
  662MOL0     H91340   2.253   1.563   8.466  1.4705 -2.3867  2.9967
  662MOL0     H91341   2.167   1.404   8.643  2.1064  1.3382 -1.9344
  662MOL0     H91342   1.939   1.239   8.834 -1.2730 -0.9564 -1.6931
  662MOL0     H91343   1.830   1.044   8.918 -0.3601 -0.3857 -0.4957
  662MOL0     H91344   1.644   0.914   8.975 -1.9898  2.2510 -0.0334
  662MOL0     H91345   1.766   0.867   9.096 -0.2731 -0.8372 -2.8751
  662MOL0     H91346   1.508   0.753   9.102 -3.5926 -0.1414  1.8176
  662MOL0     H91347   1.476   0.908   9.172 -0.2704 -0.2000  1.0362
  662MOL0     H91348   1.642   0.683   9.273  1.1909  0.3956 -1.8951
  662MOL0     H91349   1.698   0.850   9.317  0.9119 -1.1306 -1.1267
  662MOL0     H91350   1.426   0.745   9.384 -1.3423  2.8076  1.2083
  662MOL0     H91351   1.484   0.898   9.419 -0.2803  0.7049 -4.5787
  662MOL0     H91352   1.688   0.601   9.680  0.5495 -0.0276 -1.3027
  662MOL0     H91353   1.591   1.278   9.191  1.2244 -0.3994  0.4496
  662MOL0     H91354   1.771   1.564   9.166  1.6467  1.4461 -2.0358
  662MOL0     H91355   1.676   1.595   9.028 -0.2547 -2.0104 -0.7873
  662MOL0     H91356   1.588   1.521   9.154 -0.0128  1.0890  0.3220
  663MOL0     O91357   8.868   1.406  10.706 -0.1093  0.1198  0.4476
  663MOL0     C91358   8.838   1.430  10.819 -0.3960 -0.2356  0.2741
  663MOL0     O91359   8.928   1.432  10.920 -0.0694  0.0342  0.5455
  663MOL0     C91360   9.059   1.415  10.906  0.8595 -1.0994  0.6911
  663MOL0     C91361   9.121   1.297  10.951  0.3772 -0.6284  0.5723
  663MOL0     C91362   9.256   1.284  10.938  0.4245  0.3357 -0.1368
  663MOL0     C91363   9.337   1.390  10.883  0.2351 -0.3130  0.4121
  663MOL0     O91364   9.477   1.375  10.889 -0.3712  0.7515 -0.6700
  663MOL0     C91365   9.565   1.482  10.934  0.8942  1.0661  0.5158
  663MOL0     C91366   9.711   1.442  10.966  0.5389  0.7073 -0.7069
  663MOL0     C91367   9.796   1.564  10.988  0.2736  0.1001  0.1940
  663MOL0     C91368   9.812   1.596  11.131 -0.3060 -0.0409 -0.3792
  663MOL0     C91369   9.893   1.719  11.153 -0.2085  0.4820 -0.8809
  663MOL0     C91370   9.863   1.774  11.298 -0.8804  0.2541  0.5238
  663MOL0     C91371   9.937   1.903  11.308 -1.4262 -0.3261 -0.3399
  663MOL0     C91372   9.926   1.961  11.454 -0.1155  0.5946  0.5846
  663MOL0     N91373  10.004   1.889  11.556  0.4712  0.3956  0.2883
  663MOL0     C91374   9.974   1.884  11.694  1.3885 -0.0897  0.5319
  663MOL0     C91375  10.075   1.806  11.743  0.4023 -0.1403 -0.3685
  663MOL0     C91376  10.097   1.796  11.884  0.3003 -0.4964  0.0645
  663MOL0     C91377  10.192   1.908  11.928  0.7729 -0.1229 -0.5958
  663MOL0     C91378  10.218   1.898  12.073  0.3740 -0.0881  0.3245
  663MOL0     C91379  10.099   1.935  12.165  0.4531 -1.1283  0.0345
  663MOL0     O91380  10.120   2.065  12.227  0.5365  0.1103 -0.1637
  663MOL0     C91381  10.038   2.113  12.327 -0.0245 -0.8701  0.1024
  663MOL0     C91382   9.929   2.045  12.391  0.1752 -0.0044  0.2235
  663MOL0     C91383   9.845   2.115  12.484  0.7537  0.6486 -0.7698
  663MOL0     C91384   9.727   2.027  12.533 -0.3887 -0.7436  0.2556
  663MOL0     C91385   9.874   2.245  12.522  0.5359  0.3036  0.5139
  663MOL0     C91386   9.797   2.331  12.624  0.7538 -0.4280  0.3865
  663MOL0     O91387   9.799   2.459  12.591  0.4357 -0.0918 -0.8180
  663MOL0     C91388   9.736   2.554  12.669  0.4619  0.0183  0.2474
  663MOL0     C91389   9.821   2.608  12.764  0.0646 -0.8406  0.0459
  663MOL0     C91390   9.773   2.701  12.854  0.4723  0.2300 -0.6845
  663MOL0     C91391   9.655   2.764  12.839  0.2140  0.4773  0.2068
  663MOL0     O91392   9.636   2.867  12.933 -0.0127  0.3374  0.5016
  663MOL0     C91393   9.496   2.912  12.946  1.1514 -1.0890 -0.7212
  663MOL0     C91394   9.506   3.061  12.919  0.8008 -0.6082 -0.6423
  663MOL0     C91395   9.364   3.130  12.941  0.0786 -0.1114  0.4947
  663MOL0     C91396   9.297   3.141  12.800  1.0088  0.1129 -0.2046
  663MOL0     C91397   9.159   3.201  12.809 -0.1090  0.0421 -0.1762
  663MOL0     C91398   9.053   3.129  12.905 -0.0758  0.3422  0.2258
  663MOL0     C91399   8.911   3.177  12.885  0.2239  1.4577  1.1811
  663MOL0     C91400   8.899   3.309  12.956 -0.3576 -0.1119 -0.7901
  663MOL0    Cl91401   8.935   3.456  12.853 -0.1708  0.2078  0.5603
  663MOL0     C91402   9.572   2.721  12.730 -0.5823  0.0643 -0.3042
  663MOL0     C91403   9.604   2.607  12.664 -0.3186 -0.7761  0.2644
  663MOL0     O91404   9.734   2.285  12.722 -0.2456  0.6691 -0.4949
  663MOL0     C91405   9.984   2.310  12.458 -0.5967 -0.8504 -0.0773
  663MOL0     C91406  10.071   2.245  12.364  0.0186 -0.8081 -0.3254
  663MOL0     N91407  10.164   1.774  11.654 -0.7592 -0.4413 -0.0303
  663MOL0     N91408  10.123   1.820  11.542  0.1108 -0.1165 -0.9344
  663MOL0     C91409   9.276   1.507  10.837  0.7523 -0.3589  0.1083
  663MOL0     C91410   9.135   1.515  10.843  0.1553 -0.3447 -0.7153
  663MOL0     C91411   8.691   1.435  10.856  0.0396  0.2134 -0.2188
  663MOL0     C91412   8.653   1.465  10.989 -0.2843  0.1294  0.4854
  663MOL0     C91413   8.523   1.464  11.026  0.4620 -0.0468  0.5153
  663MOL0     C91414   8.415   1.444  10.937 -0.2485 -0.0300 -0.6626
  663MOL0     O91415   8.283   1.461  10.979  0.3358  1.0858  0.3522
  663MOL0     C91416   8.187   1.366  10.910 -0.7751  0.0254  0.1357
  663MOL0     C91417   8.054   1.437  10.908 -0.9109  0.1404  0.3958
  663MOL0     C91418   7.938   1.336  10.902  1.0488  0.3894  0.1443
  663MOL0     C91419   7.809   1.406  10.881 -0.2524 -0.1234  0.5118
  663MOL0     C91420   7.699   1.320  10.857 -0.2330  0.3629  0.0513
  663MOL0     C91421   7.602   1.247  10.849  1.0258  0.2479  0.9239
  663MOL0     C91422   8.456   1.415  10.812 -0.4276  0.3155 -0.9173
  663MOL0     C91423   8.589   1.400  10.774 -0.4318 -0.8233  0.1864
  663MOL0     C91424   8.602   1.350  10.632 -1.2031 -1.1066  0.5014
  663MOL0     H91425   9.066   1.217  10.998 -0.9567  0.0892  0.2800
  663MOL0     H91426   9.310   1.199  10.978 -1.3531 -1.2879 -1.0353
  663MOL0     H91427   9.533   1.535  11.024  1.3585  0.9273  0.7656
  663MOL0     H91428   9.569   1.552  10.850  0.2841 -1.6963 -2.0093
  663MOL0     H91429   9.715   1.376  11.053  0.6766  3.3597  1.4276
  663MOL0     H91430   9.755   1.383  10.885 -1.2587 -2.2996  0.3252
  663MOL0     H91431   9.896   1.554  10.945  0.3286  1.0048  0.0957
  663MOL0     H91432   9.753   1.645  10.929 -3.3396 -0.8575  1.2215
  663MOL0     H91433   9.711   1.595  11.173 -0.8804 -0.4399 -1.7013
  663MOL0     H91434   9.858   1.512  11.183 -1.6030  0.0538  0.9716
  663MOL0     H91435   9.855   1.787  11.076  1.4308  3.6172  0.8913
  663MOL0     H91436   9.999   1.690  11.152  0.1650  1.4664  1.8903
  663MOL0     H91437   9.760   1.808  11.304 -0.1694  2.7550 -0.4316
  663MOL0     H91438   9.899   1.701  11.372  2.7806  1.1124 -0.1887
  663MOL0     H91439   9.896   1.977  11.239  0.1843  0.9796  0.0410
  663MOL0     H91440  10.042   1.900  11.277 -0.6698  1.9226  1.7064
  663MOL0     H91441   9.960   2.064  11.444  2.9223 -0.5573 -4.2990
  663MOL0     H91442   9.819   1.957  11.479  0.0877  1.7748  1.7841
  663MOL0     H91443   9.886   1.932  11.736  1.0620  0.7693 -1.0698
  663MOL0     H91444  10.132   1.697  11.914  0.8282 -0.3922 -0.1938
  663MOL0     H91445  10.001   1.807  11.936 -0.2110  0.1081 -0.9735
  663MOL0     H91446  10.286   1.916  11.872  0.0164  1.1066 -1.7715
  663MOL0     H91447  10.135   1.998  11.901 -1.9748 -1.0706  1.5569
  663MOL0     H91448  10.249   1.795  12.093 -1.9745 -0.7785  0.8135
  663MOL0     H91449  10.302   1.962  12.100  1.2699  0.6428 -3.7021
  663MOL0     H91450  10.008   1.937  12.104 -0.6242 -1.6592  1.5647
  663MOL0     H91451  10.089   1.865  12.248  0.3599 -0.8399  0.2699
  663MOL0     H91452   9.916   1.946  12.348  1.3122  0.5508 -1.4792
  663MOL0     H91453   9.743   1.919  12.527 -1.9604 -0.9244 -3.0011
  663MOL0     H91454   9.645   2.054  12.466  0.5714 -2.1672 -1.5878
  663MOL0     H91455   9.687   2.049  12.632 -0.3760 -2.2727  0.6234
  663MOL0     H91456   9.926   2.587  12.778  1.1349  3.7664  0.5146
  663MOL0     H91457   9.837   2.732  12.937  0.0359 -1.7885  0.4667
  663MOL0     H91458   9.421   2.871  12.878 -0.1416  2.9900 -2.0368
  663MOL0     H91459   9.470   2.894  13.051  1.3524  1.0950 -0.2496
  663MOL0     H91460   9.567   3.108  12.997 -2.0908  0.0887  1.3435
  663MOL0     H91461   9.548   3.082  12.820  2.6185  1.8863  0.5623
  663MOL0     H91462   9.374   3.227  12.990  1.5050  0.5091 -0.9351
  663MOL0     H91463   9.299   3.068  13.003 -1.1597 -1.3519 -1.9081
  663MOL0     H91464   9.288   3.040  12.757  3.1592 -0.4453  0.5560
  663MOL0     H91465   9.353   3.199  12.726 -0.7090  3.7280  1.0896
  663MOL0     H91466   9.163   3.305  12.842 -0.6506  0.0247 -0.0495
  663MOL0     H91467   9.127   3.191  12.704 -0.3354 -1.5770  0.0113
  663MOL0     H91468   9.089   3.137  13.008 -0.8588 -1.5520  0.6897
  663MOL0     H91469   9.049   3.023  12.880 -0.6245  1.1193 -3.5822
  663MOL0     H91470   8.849   3.107  12.942  1.5353  0.1633  1.0841
  663MOL0     H91471   8.884   3.176  12.779  1.9332 -2.3255  0.6006
  663MOL0     H91472   8.972   3.308  13.038 -0.3974  0.2049 -0.7507
  663MOL0     H91473   8.801   3.318  13.005 -0.4410  0.6479 -1.0902
  663MOL0     H91474   9.471   2.753  12.709 -0.5705 -0.6296 -1.5145
  663MOL0     H91475   9.533   2.570  12.592 -1.0641  1.2696 -0.1248
  663MOL0     H91476  10.002   2.412  12.490 -1.0123 -1.4380  2.2360
  663MOL0     H91477  10.162   2.285  12.321  0.1334 -2.0227 -1.2412
  663MOL0     H91478   9.339   1.587  10.800  0.3446  0.3602  0.9319
  663MOL0     H91479   9.090   1.612  10.823  0.5963  0.6084  2.4602
  663MOL0     H91480   8.726   1.492  11.065  1.6715  1.6806 -1.8205
  663MOL0     H91481   8.510   1.477  11.133  2.1492  0.3743  0.7002
  663MOL0     H91482   8.200   1.337  10.806  1.0212  3.9626 -0.9257
  663MOL0     H91483   8.188   1.283  10.982  1.2781 -0.1869 -0.0698
  663MOL0     H91484   8.050   1.495  10.814 -0.8490 -1.7377 -0.8112
  663MOL0     H91485   8.054   1.505  10.994  0.6689  0.9501 -0.1953
  663MOL0     H91486   7.943   1.275  10.811  1.3423  0.3279  0.2005
  663MOL0     H91487   7.932   1.270  10.989  1.0514 -0.1915 -0.2885
  663MOL0     H91488   7.812   1.466  10.789  0.1131 -2.9428 -1.4819
  663MOL0     H91489   7.793   1.447  10.980  0.1542  0.5429  0.3086
  663MOL0     H91490   7.516   1.184  10.841  0.6481  0.7616  0.9726
  663MOL0     H91491   8.385   1.382  10.737 -1.4521 -1.1737  0.6197
  663MOL0     H91492   8.637   1.430  10.566 -2.7971  1.5403  2.6567
  663MOL0     H91493   8.681   1.275  10.616 -1.4475 -1.4225  0.7622
  663MOL0     H91494   8.516   1.298  10.587 -0.4880 -1.1860 -0.8351
  664MOL0     O91495   5.670   4.620   0.169  0.6783  0.4601 -0.0641
  664MOL0     C91496   5.671   4.650   0.288  0.0437  0.6182 -0.4991
  664MOL0     O91497   5.564   4.674   0.363  0.0065 -0.4206  0.0779
  664MOL0     C91498   5.437   4.684   0.311 -0.5944  0.9845  0.0572
  664MOL0     C91499   5.378   4.811   0.307  0.7765 -0.7062  1.1571
  664MOL0     C91500   5.255   4.831   0.253 -0.5228 -0.6525 -0.6251
  664MOL0     C91501   5.187   4.729   0.196 -0.0380  0.6441 -0.1158
  664MOL0     O91502   5.072   4.771   0.143  0.6193 -0.2055 -0.0052
  664MOL0     C91503   5.025   4.709   0.027  0.8588  0.0950 -0.0170
  664MOL0     C91504   4.958   4.796  -0.080 -0.3071 -0.5997 -0.1439
  664MOL0     C91505   5.032   4.937  -0.084 -0.1125  0.0317  0.3074
  664MOL0     C91506   4.977   5.024   0.016 -0.3245 -1.1657 -0.5105
  664MOL0     C91507   5.052   5.163   0.038  0.1297 -0.4035 -0.1677
  664MOL0     C91508   5.070   5.245  -0.093  0.1641  0.3202 -0.7791
  664MOL0     C91509   5.168   5.364  -0.098  0.3120 -0.9897 -0.5200
  664MOL0     C91510   5.186   5.424  -0.241 -0.6845 -0.9444 -0.7882
  664MOL0     N91511   5.062   5.492  -0.264  0.7552 -0.1819  0.0127
  664MOL0     C91512   5.017   5.611  -0.216  0.1130  0.4150 -0.7619
  664MOL0     C91513   4.880   5.626  -0.244 -0.4332  0.9005  0.6205
  664MOL0     C91514   4.783   5.737  -0.212 -0.2986  0.6416  0.2847
  664MOL0     C91515   4.834   5.872  -0.254  0.3777  0.4722  0.2195
  664MOL0     C91516   4.744   5.985  -0.217  0.6814  0.4284  0.2028
  664MOL0     C91517   4.606   5.987  -0.274  1.3686  0.5794 -0.2907
  664MOL0     O91518   4.533   5.876  -0.219  0.1759 -0.5058 -0.2947
  664MOL0     C91519   4.400   5.854  -0.266 -0.0744 -1.2944  0.1644
  664MOL0     C91520   4.355   5.726  -0.248  0.3229 -0.0113 -0.1998
  664MOL0     C91521   4.236   5.681  -0.298 -0.2128 -0.3847  0.2661
  664MOL0     C91522   4.196   5.539  -0.266  0.3800 -0.4364  0.6466
  664MOL0     C91523   4.153   5.771  -0.365  0.1919 -0.2881 -0.5435
  664MOL0     C91524   4.007   5.746  -0.396  0.4408 -0.4327 -0.3861
  664MOL0     O91525   3.943   5.824  -0.490 -0.1839 -0.2947 -0.1016
  664MOL0     C91526   3.810   5.798  -0.514  0.4729  0.4736 -1.0407
  664MOL0     C91527   3.723   5.832  -0.414 -0.1666 -1.0565  0.0097
  664MOL0     C91528   3.588   5.805  -0.423 -0.1948  1.0749 -0.2658
  664MOL0     C91529   3.534   5.743  -0.535 -0.6669  0.0219 -0.1782
  664MOL0     O91530   3.407   5.703  -0.518  0.4221  0.4569 -0.5047
  664MOL0     C91531   3.328   5.710  -0.642 -0.0654 -0.5593 -0.4293
  664MOL0     C91532   3.176   5.707  -0.594 -0.5480 -0.6341 -0.5160
  664MOL0     C91533   3.078   5.758  -0.690  0.3623 -0.4453  0.7286
  664MOL0     C91534   2.943   5.694  -0.663 -0.8669  0.0934 -0.5643
  664MOL0     C91535   2.827   5.742  -0.746  0.3285  0.5618  0.2542
  664MOL0     C91536   2.691   5.662  -0.724  0.3403 -0.6189 -0.3364
  664MOL0     C91537   2.699   5.514  -0.777 -0.3252 -0.3702 -0.3943
  664MOL0     C91538   2.567   5.449  -0.761 -1.2104 -0.0849  0.6149
  664MOL0    Cl91539   2.425   5.539  -0.841  0.1636  0.3993  0.4329
  664MOL0     C91540   3.623   5.699  -0.640 -0.2295 -0.0561 -0.1886
  664MOL0     C91541   3.762   5.721  -0.618  0.1805  0.4982  0.7506
  664MOL0     O91542   3.949   5.668  -0.323 -0.0666  0.3942 -0.3992
  664MOL0     C91543   4.199   5.898  -0.395  1.2205  0.1899  0.0566
  664MOL0     C91544   4.323   5.938  -0.342 -0.3964  0.0493  0.2808
  664MOL0     N91545   4.849   5.507  -0.307 -0.0042 -0.5660  0.1315
  664MOL0     N91546   4.955   5.434  -0.323 -0.4661 -0.3478  0.5415
  664MOL0     C91547   5.237   4.596   0.199  0.2375  0.6876 -0.0373
  664MOL0     C91548   5.364   4.575   0.258 -0.3170 -0.2818 -0.1979
  664MOL0     C91549   5.803   4.683   0.353 -0.3713  0.8626  1.0186
  664MOL0     C91550   5.810   4.795   0.438  0.8515 -1.6859 -0.5548
  664MOL0     C91551   5.931   4.825   0.496  0.4423  0.4570 -0.4654
  664MOL0     C91552   6.049   4.743   0.479  0.9046 -0.0653 -0.2180
  664MOL0     O91553   6.166   4.766   0.541 -0.0247  0.5793  0.1102
  664MOL0     C91554   6.163   4.783   0.683  0.2301  0.0932 -0.4359
  664MOL0     C91555   6.194   4.925   0.710  0.1257  0.4939 -0.2384
  664MOL0     C91556   6.350   4.938   0.716 -0.0750 -0.4558 -0.7068
  664MOL0     C91557   6.372   5.072   0.799 -0.3203  0.5100  0.1941
  664MOL0     C91558   6.506   5.101   0.836  0.1320 -0.5732  0.5417
  664MOL0     C91559   6.621   5.125   0.855  0.0015 -0.3689 -0.3157
  664MOL0     C91560   6.049   4.637   0.383  0.2278 -0.1093 -0.1001
  664MOL0     C91561   5.923   4.603   0.327  0.5340  0.7526 -0.7674
  664MOL0     C91562   5.920   4.475   0.239  0.3271  0.6825 -0.0727
  664MOL0     H91563   5.444   4.886   0.352  1.5549 -1.1502  0.7850
  664MOL0     H91564   5.224   4.935   0.251 -0.8743 -0.7645 -1.2026
  664MOL0     H91565   4.945   4.641   0.056 -0.7083  1.5135 -0.7811
  664MOL0     H91566   5.110   4.653  -0.012  1.1123 -1.3011  2.4094
  664MOL0     H91567   4.964   4.747  -0.178 -0.1956 -1.5716  0.3330
  664MOL0     H91568   4.851   4.811  -0.063 -0.4321 -0.1706 -1.2105
  664MOL0     H91569   5.140   4.923  -0.076  0.1722 -2.6724 -4.4947
  664MOL0     H91570   5.005   4.988  -0.177 -1.4599 -1.4963 -0.1833
  664MOL0     H91571   4.873   5.036  -0.018 -2.2798 -4.7271  3.2165
  664MOL0     H91572   4.964   4.981   0.116  1.7225  1.0348  0.8130
  664MOL0     H91573   5.141   5.152   0.101  1.3151  0.5005 -1.5939
  664MOL0     H91574   4.978   5.215   0.098  0.5487  0.5361 -0.4512
  664MOL0     H91575   5.088   5.195  -0.188 -1.7427  1.4392 -1.7779
  664MOL0     H91576   4.967   5.281  -0.102 -0.1778  0.1034  1.4557
  664MOL0     H91577   5.267   5.324  -0.074 -0.4792 -0.9370  3.4782
  664MOL0     H91578   5.128   5.445  -0.038  1.5426  1.6007 -2.9736
  664MOL0     H91579   5.271   5.492  -0.235 -1.9248  0.5527  3.0267
  664MOL0     H91580   5.205   5.355  -0.323 -1.6875 -0.4187 -1.4788
  664MOL0     H91581   5.078   5.671  -0.149 -1.0347 -1.1668  1.8837
  664MOL0     H91582   4.752   5.747  -0.108  1.0292 -0.1192  0.7753
  664MOL0     H91583   4.697   5.705  -0.272  2.2509 -3.8341 -1.4076
  664MOL0     H91584   4.929   5.902  -0.209  1.5645  1.5614 -2.7608
  664MOL0     H91585   4.853   5.877  -0.361  5.4946 -0.1659  0.8467
  664MOL0     H91586   4.739   5.994  -0.108  2.3276 -1.1104  0.4484
  664MOL0     H91587   4.790   6.080  -0.248 -0.4088 -0.1302 -3.5306
  664MOL0     H91588   4.566   6.084  -0.242 -0.5763 -0.8149  1.8111
  664MOL0     H91589   4.610   5.985  -0.384 -0.6608 -1.9290 -0.4051
  664MOL0     H91590   4.419   5.649  -0.207 -3.7724 -2.5376  2.1966
  664MOL0     H91591   4.103   5.530  -0.208  0.6652  1.1435  1.4036
  664MOL0     H91592   4.270   5.486  -0.206  0.2810 -0.4227  0.7823
  664MOL0     H91593   4.175   5.481  -0.356 -3.1841 -2.2191  2.3966
  664MOL0     H91594   3.776   5.878  -0.331  2.2184  0.2357 -2.0824
  664MOL0     H91595   3.532   5.835  -0.336  1.0730  2.8942 -0.0360
  664MOL0     H91596   3.357   5.786  -0.715 -0.5559 -0.6780 -0.7527
  664MOL0     H91597   3.352   5.620  -0.700 -1.8229 -1.3616  0.0173
  664MOL0     H91598   3.153   5.603  -0.568 -1.0591 -0.4642 -0.2801
  664MOL0     H91599   3.170   5.758  -0.497  0.2322 -2.0116  0.3036
  664MOL0     H91600   3.116   5.730  -0.789  2.6878 -1.9065  1.9540
  664MOL0     H91601   3.060   5.866  -0.686  0.9272 -0.2761 -0.6816
  664MOL0     H91602   2.925   5.698  -0.556  2.7147 -1.5765  0.2542
  664MOL0     H91603   2.957   5.587  -0.679  1.4721  0.1388  0.8278
  664MOL0     H91604   2.805   5.849  -0.733 -0.1712  0.6594 -1.1579
  664MOL0     H91605   2.854   5.738  -0.852 -1.5600 -3.2532 -0.2536
  664MOL0     H91606   2.611   5.715  -0.777  1.5415 -2.1797 -4.0318
  664MOL0     H91607   2.667   5.659  -0.618 -3.6411 -0.5910 -1.0752
  664MOL0     H91608   2.772   5.446  -0.733 -3.0063 -1.2278  3.2048
  664MOL0     H91609   2.720   5.514  -0.884  1.1498 -4.0364 -0.2466
  664MOL0     H91610   2.539   5.427  -0.658 -1.0409 -1.8771  0.3108
  664MOL0     H91611   2.584   5.347  -0.797 -0.5197  1.2711 -3.4153
  664MOL0     H91612   3.586   5.637  -0.721 -2.6434 -0.8836  1.4594
  664MOL0     H91613   3.822   5.672  -0.694 -1.6686 -0.5993 -0.0873
  664MOL0     H91614   4.144   5.973  -0.452  1.2139  0.5762  0.5587
  664MOL0     H91615   4.368   6.033  -0.372  1.9787 -1.7323 -2.3152
  664MOL0     H91616   5.190   4.509   0.153  3.4867 -0.7607 -0.8884
  664MOL0     H91617   5.398   4.474   0.242 -3.1326 -1.3375 -0.0681
  664MOL0     H91618   5.726   4.862   0.455 -0.2746 -2.8223 -1.4657
  664MOL0     H91619   5.939   4.900   0.574  6.1260 -4.1981  4.4144
  664MOL0     H91620   6.062   4.762   0.718  0.4533  0.9881  0.8129
  664MOL0     H91621   6.223   4.703   0.727  0.9756  0.4671 -0.7418
  664MOL0     H91622   6.152   4.959   0.806  3.4154  1.3625  1.0349
  664MOL0     H91623   6.168   4.994   0.630  0.3817  0.2017 -0.5773
  664MOL0     H91624   6.397   4.861   0.778 -2.3266  1.2349  3.5092
  664MOL0     H91625   6.401   4.949   0.620  2.9796  4.1927  1.1187
  664MOL0     H91626   6.315   5.077   0.892 -0.2106  3.3123  0.2182
  664MOL0     H91627   6.339   5.158   0.739  2.1951  2.3008  1.1570
  664MOL0     H91628   6.722   5.148   0.882 -0.2516  1.0361 -0.4946
  664MOL0     H91629   6.138   4.575   0.378 -2.1909 -3.7492 -3.1507
  664MOL0     H91630   5.891   4.498   0.135 -0.8437  1.7245  0.4489
  664MOL0     H91631   6.017   4.426   0.244  0.5283  1.2434  3.3013
  664MOL0     H91632   5.852   4.402   0.283  0.2465  0.7486 -0.0854
  665MOL0     O91633   2.812  10.795   5.349 -0.6203 -0.2017 -0.5985
  665MOL0     C91634   2.788  10.793   5.467 -0.4748  0.9888 -0.0366
  665MOL0     O91635   2.866  10.861   5.564  0.4405  0.8847  0.2053
  665MOL0     C91636   2.959  10.953   5.542 -0.4920 -0.4352 -0.2283
  665MOL0     C91637   3.036  10.982   5.658 -0.4079 -0.5018 -0.3298
  665MOL0     C91638   3.127  11.080   5.662  0.5066 -0.5618 -0.3254
  665MOL0     C91639   3.149  11.158   5.547 -0.3072 -0.0712  1.0918
  665MOL0     O91640   3.238  11.263   5.554 -0.6649 -0.1740  0.4466
  665MOL0     C91641   3.321  11.296   5.438  0.3995  0.1909  1.2783
  665MOL0     C91642   3.429  11.401   5.479 -0.0900  0.4291  0.2988
  665MOL0     C91643   3.519  11.372   5.605 -0.6204 -0.1165  0.2860
  665MOL0     C91644   3.557  11.507   5.668 -0.6844 -0.0283 -0.0815
  665MOL0     C91645   3.679  11.482   5.762 -0.1372  0.0157  0.2128
  665MOL0     C91646   3.666  11.398   5.892  0.0927 -0.6148  0.2985
  665MOL0     C91647   3.798  11.369   5.959  0.7857  0.1189 -0.1680
  665MOL0     C91648   3.779  11.296   6.096  0.2075  0.4806 -1.0796
  665MOL0     N91649   3.690  11.183   6.087 -0.6811 -0.3735 -0.0545
  665MOL0     C91650   3.732  11.068   6.020 -0.3552 -0.5807  0.1139
  665MOL0     C91651   3.613  11.005   5.994 -0.2533  0.0885  0.1594
  665MOL0     C91652   3.597  10.887   5.906  0.0371  0.4937  1.0568
  665MOL0     C91653   3.602  10.946   5.759 -0.5472  1.2352  0.5618
  665MOL0     C91654   3.509  10.867   5.667  0.2099  0.1439  0.1458
  665MOL0     C91655   3.487  10.927   5.527 -1.0233 -0.3001  0.1879
  665MOL0     O91656   3.390  10.854   5.454  0.4661 -0.0754  0.4147
  665MOL0     C91657   3.364  10.880   5.324 -0.4058  0.0547  0.5244
  665MOL0     C91658   3.269  10.799   5.266  0.2730 -0.2923  0.6334
  665MOL0     C91659   3.230  10.812   5.130  0.2885 -0.4462  0.0487
  665MOL0     C91660   3.149  10.693   5.086 -0.0028 -0.4109 -0.4350
  665MOL0     C91661   3.294  10.908   5.041  1.1356 -0.4125 -0.0458
  665MOL0     C91662   3.253  10.931   4.903 -0.6237 -0.0574  0.9021
  665MOL0     O91663   3.151  10.859   4.855  0.3697 -0.1185 -0.3077
  665MOL0     C91664   3.111  10.871   4.722  0.2049 -0.2216  0.2050
  665MOL0     C91665   3.188  10.838   4.612  0.4754 -0.8994  0.0777
  665MOL0     C91666   3.135  10.865   4.480 -0.1816  0.2007  0.2850
  665MOL0     C91667   2.998  10.903   4.459  0.3565 -0.4225 -0.6567
  665MOL0     O91668   2.929  10.941   4.343  0.1501  0.9491 -0.8307
  665MOL0     C91669   3.010  10.956   4.228 -0.4851  0.7745  0.0591
  665MOL0     C91670   2.936  10.935   4.098  1.1602  0.1363 -0.3135
  665MOL0     C91671   3.025  10.902   3.983 -0.3466  1.0829  0.5401
  665MOL0     C91672   2.957  10.915   3.847  0.7388 -0.0115 -1.1804
  665MOL0     C91673   3.041  10.866   3.729 -0.4340 -0.1308 -0.3993
  665MOL0     C91674   3.033  10.710   3.725 -0.2013  0.2169 -0.7431
  665MOL0     C91675   3.132  10.647   3.625 -0.6192 -0.3711  0.4094
  665MOL0     C91676   3.069  10.642   3.493 -0.7504 -0.8228  0.2452
  665MOL0    Cl91677   3.180  10.564   3.373 -0.3457  0.2151 -0.3330
  665MOL0     C91678   2.918  10.929   4.573  0.6131 -0.9468  0.9075
  665MOL0     C91679   2.975  10.915   4.699 -0.7325  0.3017 -0.6428
  665MOL0     O91680   3.308  11.019   4.838 -0.5184  0.8106  0.1704
  665MOL0     C91681   3.386  10.995   5.109  0.4469 -0.5572  0.1389
  665MOL0     C91682   3.426  10.973   5.245  0.0624  0.2936 -0.3524
  665MOL0     N91683   3.517  11.086   6.035 -0.2557 -0.6149 -1.1609
  665MOL0     N91684   3.560  11.183   6.104 -0.1954 -0.8905  0.4748
  665MOL0     C91685   3.075  11.125   5.428  0.8414 -0.0402  0.5644
  665MOL0     C91686   2.979  11.023   5.427 -0.1407 -1.0384  0.8010
  665MOL0     C91687   2.662  10.728   5.528  0.8648 -1.0420  0.0515
  665MOL0     C91688   2.626  10.756   5.660  0.2802 -0.6515 -0.5245
  665MOL0     C91689   2.523  10.690   5.723  0.1996 -1.0935  0.7714
  665MOL0     C91690   2.448  10.596   5.647 -0.6361 -0.1698 -0.2441
  665MOL0     O91691   2.346  10.520   5.695 -0.1227 -0.4064 -0.8635
  665MOL0     C91692   2.316  10.537   5.833 -0.2563  0.2464  0.1883
  665MOL0     C91693   2.202  10.449   5.859  0.1897  0.3881  0.4316
  665MOL0     C91694   2.242  10.299   5.873 -0.1480  0.0604  0.0795
  665MOL0     C91695   2.135  10.201   5.918  0.3045 -0.7275 -0.4683
  665MOL0     C91696   2.072  10.242   6.043  0.6918 -0.2592  0.1437
  665MOL0     C91697   2.010  10.263   6.147 -0.7048  0.1804 -0.8910
  665MOL0     C91698   2.479  10.578   5.514  0.0812 -1.3062  0.4600
  665MOL0     C91699   2.582  10.645   5.448  0.1206 -0.0061 -0.5571
  665MOL0     C91700   2.599  10.613   5.296  0.8833  0.1950 -0.2973
  665MOL0     H91701   3.017  10.938   5.755  0.8789  1.7357  1.0206
  665MOL0     H91702   3.167  11.099   5.761 -1.1185  0.0152  0.2662
  665MOL0     H91703   3.264  11.345   5.358  1.8326  3.0729  1.9194
  665MOL0     H91704   3.366  11.204   5.398  0.7741 -1.0627  4.3101
  665MOL0     H91705   3.491  11.410   5.389 -0.0425  1.7230  0.4478
  665MOL0     H91706   3.371  11.491   5.502 -1.0926  0.2446 -1.3718
  665MOL0     H91707   3.458  11.320   5.680  1.6920 -1.4911  1.3120
  665MOL0     H91708   3.608  11.312   5.585 -0.1068  0.2602  1.3668
  665MOL0     H91709   3.566  11.581   5.588 -1.5790 -0.3326 -0.4827
  665MOL0     H91710   3.480  11.548   5.734  0.7324  2.5220  0.0941
  665MOL0     H91711   3.729  11.574   5.794  0.7215 -0.6036  0.7136
  665MOL0     H91712   3.760  11.436   5.705  0.1258  0.8563 -0.1026
  665MOL0     H91713   3.605  11.459   5.958 -2.0629  1.1807 -3.0673
  665MOL0     H91714   3.621  11.301   5.867 -0.8765  0.2548 -1.4740
  665MOL0     H91715   3.852  11.458   5.993  0.9411 -1.1526  3.2694
  665MOL0     H91716   3.863  11.304   5.899  1.7196 -1.6653  2.6116
  665MOL0     H91717   3.881  11.260   6.115  0.7941 -0.4256 -5.0793
  665MOL0     H91718   3.743  11.372   6.166  1.5050 -0.9202  1.2144
  665MOL0     H91719   3.837  11.050   5.997 -0.4264 -0.9001  0.0386
  665MOL0     H91720   3.502  10.838   5.930 -0.8839  0.9243 -1.3696
  665MOL0     H91721   3.676  10.815   5.926 -0.8725  0.3042  4.5212
  665MOL0     H91722   3.573  11.051   5.758 -1.3237  1.0955 -2.3487
  665MOL0     H91723   3.704  10.944   5.719 -0.3270 -3.7687  0.6486
  665MOL0     H91724   3.534  10.760   5.670  0.0114  0.0153  5.0778
  665MOL0     H91725   3.412  10.872   5.718  0.9693  0.8600  1.6030
  665MOL0     H91726   3.462  11.034   5.526  3.1264  0.9749  3.5543
  665MOL0     H91727   3.587  10.931   5.484 -1.3164 -3.0451 -0.9536
  665MOL0     H91728   3.219  10.730   5.333  0.7368 -0.1846  1.0990
  665MOL0     H91729   3.105  10.648   5.175 -0.4865  0.9010  0.0224
  665MOL0     H91730   3.216  10.616   5.048  0.7134  0.8761 -1.8659
  665MOL0     H91731   3.068  10.719   5.016  1.0129  0.9743 -1.1444
  665MOL0     H91732   3.280  10.783   4.630 -1.1107 -3.1994  1.6912
  665MOL0     H91733   3.180  10.831   4.387 -2.0605  3.6044 -2.0766
  665MOL0     H91734   3.054  11.056   4.230  0.2656  0.4839  2.9422
  665MOL0     H91735   3.074  10.868   4.228 -1.6174 -0.0678  0.7539
  665MOL0     H91736   2.876  10.845   4.116  0.4180  0.5376 -0.7278
  665MOL0     H91737   2.883  11.027   4.074  1.1889 -0.3592 -2.5705
  665MOL0     H91738   3.063  10.800   3.999  2.6131  1.8617 -0.8629
  665MOL0     H91739   3.121  10.951   3.998  1.3011 -2.4969  3.1354
  665MOL0     H91740   2.949  11.022   3.829  1.3096  0.2078 -0.2182
  665MOL0     H91741   2.856  10.874   3.846 -0.3712  2.3611  1.4339
  665MOL0     H91742   3.002  10.915   3.639  1.6933  0.6632 -0.9322
  665MOL0     H91743   3.147  10.887   3.745  0.6527 -3.8841 -1.6017
  665MOL0     H91744   2.926  10.697   3.710 -0.9816  2.1975  2.1978
  665MOL0     H91745   3.042  10.663   3.824 -0.7488 -3.2101 -2.1764
  665MOL0     H91746   3.147  10.542   3.653 -0.6872 -1.3508 -2.8731
  665MOL0     H91747   3.230  10.696   3.628  0.1657 -1.7900  4.6544
  665MOL0     H91748   3.039  10.742   3.461 -1.3001 -1.7579 -2.3548
  665MOL0     H91749   2.976  10.584   3.496  0.0698 -2.1758  1.8875
  665MOL0     H91750   2.814  10.955   4.560  0.8772  0.1382  0.9065
  665MOL0     H91751   2.912  10.945   4.782 -1.3594 -0.6250 -0.7689
  665MOL0     H91752   3.440  11.069   5.051  1.4959 -1.4737 -0.0858
  665MOL0     H91753   3.500  11.037   5.293  1.2885  1.9206 -3.9993
  665MOL0     H91754   3.077  11.187   5.339  3.3011  0.2807  0.7742
  665MOL0     H91755   2.932  11.009   5.330  1.7548  0.2071 -0.3531
  665MOL0     H91756   2.675  10.824   5.729 -0.7179 -2.9463  2.7125
  665MOL0     H91757   2.497  10.695   5.828 -5.7040 -5.4854  0.0100
  665MOL0     H91758   2.394  10.504   5.902 -0.8204 -0.8738  0.3169
  665MOL0     H91759   2.287  10.641   5.850 -5.6272 -0.7706 -0.6981
  665MOL0     H91760   2.129  10.465   5.779  2.7331  1.7189 -1.7491
  665MOL0     H91761   2.156  10.479   5.954 -0.5396  2.5236 -0.5350
  665MOL0     H91762   2.289  10.268   5.779 -1.7209 -1.5128 -0.2319
  665MOL0     H91763   2.318  10.303   5.952 -1.1754 -1.4130  1.1895
  665MOL0     H91764   2.188  10.107   5.934 -0.7892 -1.3987 -0.6277
  665MOL0     H91765   2.056  10.189   5.843 -2.1580 -1.0736  2.0241
  665MOL0     H91766   1.945  10.271   6.231  0.2233  0.0356 -0.1323
  665MOL0     H91767   2.418  10.510   5.455 -1.2533 -0.6604  1.0597
  665MOL0     H91768   2.519  10.562   5.242 -0.5203  2.4006 -0.4282
  665MOL0     H91769   2.607  10.711   5.248 -1.8742  0.5890 -0.0895
  665MOL0     H91770   2.691  10.555   5.281  0.3463 -1.0466  0.9840
  666MOL0     O91771   1.122   9.062  11.398 -0.6124  0.1617  1.1695
  666MOL0     C91772   1.056   9.155  11.438  0.7281  0.5599 -0.5487
  666MOL0     O91773   1.100   9.280  11.457  0.2320  0.2855  0.0221
  666MOL0     C91774   1.224   9.308  11.407  0.0808 -0.1083  1.1353
  666MOL0     C91775   1.239   9.329  11.266 -0.2127  0.3238 -0.5379
  666MOL0     C91776   1.362   9.381  11.218 -1.2368  0.8554  0.1022
  666MOL0     C91777   1.471   9.406  11.305 -0.4331  0.2812 -0.0016
  666MOL0     O91778   1.595   9.438  11.271 -0.7583  0.6988 -0.0665
  666MOL0     C91779   1.613   9.503  11.142  0.2488 -0.0351  1.0801
  666MOL0     C91780   1.772   9.501  11.127 -0.0937  0.0736 -0.1343
  666MOL0     C91781   1.808   9.590  11.018  0.2415  0.2964  1.3658
  666MOL0     C91782   1.777   9.530  10.879  0.4528  0.5956 -0.4322
  666MOL0     C91783   1.841   9.615  10.760  0.2683  0.0194 -0.0489
  666MOL0     C91784   1.995   9.593  10.759  0.4106  0.2265 -0.0169
  666MOL0     C91785   2.069   9.644  10.634  0.3930 -0.7303  0.0927
  666MOL0     C91786   2.223   9.645  10.649  0.0894  0.5828  0.7678
  666MOL0     N91787   2.287   9.722  10.544 -0.3163  1.3050 -0.2824
  666MOL0     C91788   2.288   9.862  10.526 -0.8437 -0.2274  0.7613
  666MOL0     C91789   2.339   9.870  10.405  0.8351 -0.6009  0.0113
  666MOL0     C91790   2.364  10.011  10.356 -0.6338  0.0717 -0.3105
  666MOL0     C91791   2.262  10.068  10.251  0.2028  0.8762 -0.8971
  666MOL0     C91792   2.312  10.207  10.198  0.1980  0.4519  0.1899
  666MOL0     C91793   2.216  10.319  10.151  0.0892 -0.3572 -0.5462
  666MOL0     O91794   2.152  10.386  10.258 -0.1458  0.7927 -1.3236
  666MOL0     C91795   2.204  10.501  10.302 -0.5540 -0.1475  0.4957
  666MOL0     C91796   2.340  10.531  10.314 -0.6676  0.0961 -0.2395
  666MOL0     C91797   2.393  10.656  10.357  0.6433 -0.3357  0.3948
  666MOL0     C91798   2.544  10.663  10.366 -0.1813 -0.7824 -0.1544
  666MOL0     C91799   2.301  10.743  10.420 -0.2525  0.4263  0.0851
  666MOL0     C91800   2.333  10.870  10.489 -1.4200 -1.3160  1.2044
  666MOL0     O91801   2.245  10.906  10.588  0.2744  0.6905  0.5513
  666MOL0     C91802   2.272  11.019  10.658 -0.4071 -0.3213 -0.9172
  666MOL0     C91803   2.268  11.156  10.618  0.2818  0.3908 -0.6310
  666MOL0     C91804   2.299  11.256  10.713  0.3120  0.3850  0.2614
  666MOL0     C91805   2.315  11.226  10.847  0.2110  0.2250  0.8979
  666MOL0     O91806   2.327  11.338  10.932  0.2103 -0.0581  0.2801
  666MOL0     C91807   2.455  11.358  10.996 -0.3339  0.0201  1.0550
  666MOL0     C91808   2.457  11.293  11.137 -0.3540 -0.0566  0.1237
  666MOL0     C91809   2.377  11.353  11.240 -0.3539  0.6360  0.0962
  666MOL0     C91810   2.431  11.339  11.384  0.2984 -0.3162  0.1962
  666MOL0     C91811   2.383  11.201  11.440 -0.1557 -0.2392 -0.5093
  666MOL0     C91812   2.417  11.176  11.581 -0.6544  0.1885 -0.4301
  666MOL0     C91813   2.417  11.025  11.614  0.0037 -0.9676 -0.3936
  666MOL0     C91814   2.358  10.997  11.751 -1.1312 -1.3222  0.2554
  666MOL0    Cl91815   2.422  11.104  11.882 -0.2382  0.1040  0.1462
  666MOL0     C91816   2.312  11.098  10.892 -0.0683 -0.6706  0.0024
  666MOL0     C91817   2.298  10.997  10.799  0.6266 -0.1051 -0.2600
  666MOL0     O91818   2.441  10.924  10.468  0.7217 -0.3134  0.9439
  666MOL0     C91819   2.169  10.703  10.414  0.1990 -1.1298 -0.1105
  666MOL0     C91820   2.125  10.592  10.354 -0.4179  0.6504  0.0794
  666MOL0     N91821   2.371   9.750  10.353 -0.0982 -0.5730 -0.5781
  666MOL0     N91822   2.336   9.659  10.431  0.1405 -0.6739  0.0866
  666MOL0     C91823   1.454   9.370  11.443 -0.3238  0.2642 -0.2635
  666MOL0     C91824   1.332   9.319  11.496 -0.5833  0.2146  0.2214
  666MOL0     C91825   0.908   9.129  11.465  0.3580  1.2761 -0.2202
  666MOL0     C91826   0.826   9.228  11.503 -0.4709  0.3468 -0.8393
  666MOL0     C91827   0.699   9.223  11.542  0.4126 -0.0917  0.3410
  666MOL0     C91828   0.638   9.096  11.535  0.4964  0.3016  0.5786
  666MOL0     O91829   0.511   9.060  11.584 -0.2548  0.7985 -0.1848
  666MOL0     C91830   0.463   9.153  11.681 -0.4703  0.6965 -0.7398
  666MOL0     C91831   0.358   9.088  11.776  0.1305 -0.5936  0.3028
  666MOL0     C91832   0.230   9.050  11.690 -0.4783 -0.5992 -0.1856
  666MOL0     C91833   0.125   8.986  11.770  0.6446 -0.5842  0.4310
  666MOL0     C91834   0.112   9.051  11.909 -1.2239 -0.1256  0.6498
  666MOL0     C91835   0.096   9.087  12.022 -0.1145  0.0996 -0.4032
  666MOL0     C91836   0.712   8.987  11.492  1.7689  0.4141 -0.3495
  666MOL0     C91837   0.844   9.002  11.450 -0.4038 -0.1733  0.1168
  666MOL0     C91838   0.913   8.877  11.388  0.2770 -0.1987  0.9798
  666MOL0     H91839   1.152   9.318  11.203  0.8761 -1.5046 -1.8162
  666MOL0     H91840   1.371   9.408  11.113  2.1149  2.3494  0.6581
  666MOL0     H91841   1.585   9.608  11.153  1.2206  0.3330  0.2557
  666MOL0     H91842   1.561   9.454  11.059  1.2925 -1.0721  1.0207
  666MOL0     H91843   1.818   9.517  11.225  0.0221  0.4049 -0.2412
  666MOL0     H91844   1.790   9.395  11.108 -0.6282  0.1011 -0.8229
  666MOL0     H91845   1.752   9.684  11.020  0.2238  0.5383 -2.4548
  666MOL0     H91846   1.916   9.600  11.023  0.1155  1.7895  1.6174
  666MOL0     H91847   1.835   9.439  10.861 -0.7442 -0.0365 -1.2432
  666MOL0     H91848   1.669   9.514  10.874  0.1873 -0.6460  4.3179
  666MOL0     H91849   1.816   9.721  10.754  3.3960  0.7938 -1.4219
  666MOL0     H91850   1.806   9.580  10.663  1.1223  0.9082 -0.7017
  666MOL0     H91851   2.034   9.632  10.853 -1.2760 -0.1551  0.8685
  666MOL0     H91852   2.014   9.485  10.758  4.5274  0.6693  3.4115
  666MOL0     H91853   2.027   9.743  10.612  0.6491 -1.0696 -2.2768
  666MOL0     H91854   2.058   9.575  10.549  0.7555 -0.0479 -0.5216
  666MOL0     H91855   2.255   9.685  10.745  4.4719 -1.5497  0.4450
  666MOL0     H91856   2.256   9.541  10.641 -2.3777 -0.1968 -0.2561
  666MOL0     H91857   2.249   9.943  10.585  0.7300  2.7507 -1.9730
  666MOL0     H91858   2.464  10.013  10.313 -0.0152  2.0053  1.0663
  666MOL0     H91859   2.378  10.081  10.439  1.3888 -2.7215  1.9040
  666MOL0     H91860   2.241  10.003  10.166 -1.6773  1.2239 -0.7504
  666MOL0     H91861   2.166  10.076  10.303  1.4696  0.9786  1.5382
  666MOL0     H91862   2.366  10.258  10.279 -2.1626  2.4037  0.6562
  666MOL0     H91863   2.389  10.183  10.125  1.0695  1.5669  0.7138
  666MOL0     H91864   2.277  10.394  10.098  1.7816 -0.6025  0.9379
  666MOL0     H91865   2.151  10.282  10.072 -0.3512 -2.0091  0.5469
  666MOL0     H91866   2.418  10.470  10.270 -1.7098 -0.5313 -1.3063
  666MOL0     H91867   2.595  10.567  10.374  1.0260 -0.2248 -0.8418
  666MOL0     H91868   2.582  10.720  10.451  2.2228 -2.4682 -0.0215
  666MOL0     H91869   2.591  10.703  10.276  1.2811 -3.3954 -0.6408
  666MOL0     H91870   2.228  11.176  10.519  0.0596 -0.4612 -0.7243
  666MOL0     H91871   2.298  11.356  10.671  0.4106 -0.2243 -1.2797
  666MOL0     H91872   2.537  11.321  10.935 -0.0253  0.7968  0.9747
  666MOL0     H91873   2.472  11.466  11.002 -1.6173  0.3453 -0.5748
  666MOL0     H91874   2.454  11.184  11.132  0.5128 -0.0358 -2.7754
  666MOL0     H91875   2.560  11.318  11.165  0.5003 -2.3246 -0.7706
  666MOL0     H91876   2.275  11.313  11.233  0.1781 -1.3305  2.1887
  666MOL0     H91877   2.376  11.462  11.232  0.7734  0.9751  3.2429
  666MOL0     H91878   2.391  11.417  11.450  1.5536 -0.7432  1.5127
  666MOL0     H91879   2.540  11.347  11.388  0.3173 -1.0958  2.5123
  666MOL0     H91880   2.274  11.192  11.446 -0.1852  0.6382  0.8262
  666MOL0     H91881   2.427  11.124  11.377  0.2893  1.0535 -1.8501
  666MOL0     H91882   2.352  11.237  11.643  0.9243 -0.0776  1.5900
  666MOL0     H91883   2.522  11.207  11.580 -0.3091 -0.8825 -2.0064
  666MOL0     H91884   2.513  10.976  11.593  1.4503  1.0506  1.0896
  666MOL0     H91885   2.349  10.980  11.542 -0.0725 -0.0723 -0.8911
  666MOL0     H91886   2.374  10.891  11.770  0.2840 -1.6689 -2.3696
  666MOL0     H91887   2.250  11.006  11.735 -0.9741 -0.5363 -0.4268
  666MOL0     H91888   2.341  11.069  10.992  3.6211 -0.1804 -0.7821
  666MOL0     H91889   2.294  10.894  10.833 -2.9171  0.1103  0.3547
  666MOL0     H91890   2.096  10.775  10.449  0.9599 -0.9048  1.0788
  666MOL0     H91891   2.020  10.567  10.351 -1.0877  3.1856 -1.6595
  666MOL0     H91892   1.539   9.385  11.508  0.5198 -2.0653 -0.7214
  666MOL0     H91893   1.327   9.300  11.602  3.1395  0.6012  0.5778
  666MOL0     H91894   0.866   9.329  11.510 -0.4806  0.5644 -3.1838
  666MOL0     H91895   0.647   9.311  11.577  1.1456 -0.0880  1.4818
  666MOL0     H91896   0.541   9.179  11.752 -0.8128  2.8290 -1.0818
  666MOL0     H91897   0.428   9.248  11.639  1.8910  1.2945 -1.4880
  666MOL0     H91898   0.330   9.168  11.845  0.5837  1.9234 -2.2376
  666MOL0     H91899   0.404   9.003  11.826 -0.3799 -0.2086  1.4616
  666MOL0     H91900   0.176   9.136  11.649  2.0919  1.2901  0.2183
  666MOL0     H91901   0.258   8.987  11.604  2.0637  0.4721 -0.2220
  666MOL0     H91902   0.169   8.886  11.777  1.2946 -0.4078 -0.8895
  666MOL0     H91903   0.026   8.986  11.723  0.6391  0.1269  0.4321
  666MOL0     H91904   0.087   9.119  12.124  0.0309 -0.6885 -0.1393
  666MOL0     H91905   0.676   8.885  11.488  0.8290  0.7208 -4.8725
  666MOL0     H91906   0.843   8.792  11.384 -2.9127  2.1820 -3.4209
  666MOL0     H91907   0.951   8.901  11.288 -2.3223  0.0967 -0.0305
  666MOL0     H91908   0.995   8.845  11.452 -0.1301 -0.4996  1.3596
  667MOL0     O91909   4.404   6.583  11.108 -0.9425 -0.0399  0.0648
  667MOL0     C91910   4.284   6.546  11.106  0.6102  1.0568  0.0699
  667MOL0     O91911   4.235   6.441  11.174 -0.1298  0.9881  0.0145
  667MOL0     C91912   4.290   6.384  11.289  0.9265  0.2777  0.1916
  667MOL0     C91913   4.220   6.275  11.331  0.0075  0.2567  1.2993
  667MOL0     C91914   4.262   6.188  11.434 -0.0216 -1.5999 -0.2556
  667MOL0     C91915   4.378   6.219  11.501 -0.0991  0.4656  1.0036
  667MOL0     O91916   4.437   6.140  11.593 -0.1822 -0.6373  0.3416
  667MOL0     C91917   4.389   6.008  11.614  0.4932 -0.7584 -0.4428
  667MOL0     C91918   4.483   5.937  11.711  1.0437  0.9505 -0.0254
  667MOL0     C91919   4.412   5.802  11.730 -0.3831  0.3009 -0.6695
  667MOL0     C91920   4.489   5.723  11.844 -0.1851 -0.3499  0.3573
  667MOL0     C91921   4.409   5.582  11.852  0.1582  0.5903  0.7334
  667MOL0     C91922   4.408   5.532  11.993  1.0300  0.2655  0.3918
  667MOL0     C91923   4.326   5.407  11.999 -0.2944  0.2162  0.0913
  667MOL0     C91924   4.353   5.348  12.139 -0.1147 -0.1345  0.3461
  667MOL0     N91925   4.271   5.413  12.235 -0.0265 -0.1298 -0.7211
  667MOL0     C91926   4.142   5.362  12.256  0.4479  0.1931  0.3903
  667MOL0     C91927   4.099   5.452  12.348 -0.2107 -0.2456  0.8241
  667MOL0     C91928   3.959   5.442  12.398  0.0273  0.6412 -0.2102
  667MOL0     C91929   3.877   5.559  12.355  1.0765 -0.4777 -0.3076
  667MOL0     C91930   3.882   5.560  12.201  0.0106  0.8232 -0.6444
  667MOL0     C91931   3.760   5.650  12.155 -0.4031 -0.8992  0.0734
  667MOL0     O91932   3.769   5.786  12.199 -0.0979  0.2969 -0.1814
  667MOL0     C91933   3.727   5.873  12.104 -0.3306  0.2523 -0.0795
  667MOL0     C91934   3.627   5.843  12.014  0.5779  1.2734  0.2315
  667MOL0     C91935   3.576   5.936  11.924 -0.1290  0.4118 -0.3675
  667MOL0     C91936   3.466   5.900  11.826 -0.9818  0.7847 -0.0960
  667MOL0     C91937   3.627   6.070  11.933  0.0334  0.4967 -0.0881
  667MOL0     C91938   3.593   6.185  11.854 -0.4353 -0.0615 -0.8328
  667MOL0     O91939   3.603   6.301  11.920 -0.3201  0.5489  0.4516
  667MOL0     C91940   3.605   6.418  11.845 -0.2279  0.5948  0.3385
  667MOL0     C91941   3.498   6.499  11.841  1.2877 -0.5531 -1.2161
  667MOL0     C91942   3.494   6.625  11.802 -0.7368  0.3231  0.6557
  667MOL0     C91943   3.614   6.682  11.748  0.3079  0.7031  0.7551
  667MOL0     O91944   3.616   6.811  11.712 -0.4836 -0.0588 -0.5817
  667MOL0     C91945   3.681   6.844  11.594  0.0227  0.4379  0.2574
  667MOL0     C91946   3.799   6.942  11.613 -0.8473  0.0211 -0.1122
  667MOL0     C91947   3.743   7.087  11.656 -0.1715 -0.4035 -0.1611
  667MOL0     C91948   3.848   7.177  11.711 -0.8013  0.9383 -0.0578
  667MOL0     C91949   3.812   7.324  11.698 -0.7330  1.3253  0.4750
  667MOL0     C91950   3.701   7.366  11.792  0.4501 -0.8086 -0.6183
  667MOL0     C91951   3.613   7.478  11.737  1.0771  0.1231  0.6956
  667MOL0     C91952   3.667   7.611  11.735  1.2175 -0.9135  0.4904
  667MOL0    Cl91953   3.537   7.728  11.721  0.3467 -0.0439  0.2393
  667MOL0     C91954   3.729   6.594  11.748  0.3845 -0.0483  0.3981
  667MOL0     C91955   3.723   6.468  11.799 -0.8577 -0.1483 -0.2348
  667MOL0     O91956   3.581   6.175  11.733 -0.1752  0.1683  0.1244
  667MOL0     C91957   3.727   6.093  12.029  0.4024 -0.0525 -0.3099
  667MOL0     C91958   3.770   6.003  12.121  0.2160 -0.0311 -0.4900
  667MOL0     N91959   4.198   5.547  12.378 -0.1895  0.0660  0.5891
  667MOL0     N91960   4.298   5.527  12.304 -0.3848  0.2028  0.0633
  667MOL0     C91961   4.461   6.324  11.450  0.5908  0.0128 -0.0097
  667MOL0     C91962   4.414   6.408  11.354 -0.2065 -0.1655 -0.6201
  667MOL0     C91963   4.193   6.630  11.014 -0.4945 -0.1567 -0.6802
  667MOL0     C91964   4.227   6.762  10.989 -0.0580  0.0134  0.2881
  667MOL0     C91965   4.142   6.840  10.908 -0.1352 -0.1164  0.5693
  667MOL0     C91966   4.017   6.801  10.864  0.7602  0.3748  0.4916
  667MOL0     O91967   3.941   6.895  10.794  0.9498 -0.8236  0.5736
  667MOL0     C91968   3.827   6.859  10.714  0.3474  0.5229  0.0402
  667MOL0     C91969   3.877   6.809  10.577 -0.5009 -1.1976 -0.4644
  667MOL0     C91970   3.930   6.921  10.491  0.5107 -0.3764  0.1201
  667MOL0     C91971   3.822   6.991  10.403 -0.3634  0.1869  0.6662
  667MOL0     C91972   3.707   7.057  10.468 -0.5484  1.2979 -0.3887
  667MOL0     C91973   3.615   7.098  10.539 -0.4899 -0.7165  0.3493
  667MOL0     C91974   3.986   6.663  10.886  0.0303  0.3550  0.0840
  667MOL0     C91975   4.075   6.576  10.955  0.8633 -0.4131 -0.0433
  667MOL0     C91976   4.035   6.434  10.962  0.2367  0.3112  0.0461
  667MOL0     H91977   4.125   6.248  11.287  1.6875 -5.7288  0.4478
  667MOL0     H91978   4.199   6.106  11.465 -0.2658 -0.4167  2.6157
  667MOL0     H91979   4.391   5.969  11.512  2.5400  0.0609 -0.7714
  667MOL0     H91980   4.294   6.015  11.667  0.8221 -0.5760  0.1359
  667MOL0     H91981   4.581   5.925  11.665  0.3688  1.5162 -1.6647
  667MOL0     H91982   4.475   5.992  11.805  0.3087  2.1327 -0.7634
  667MOL0     H91983   4.317   5.823  11.779  0.4926  1.8449  0.4369
  667MOL0     H91984   4.400   5.742  11.639  1.5908  0.1141 -0.8642
  667MOL0     H91985   4.592   5.697  11.820  0.2101  0.0875  1.5362
  667MOL0     H91986   4.484   5.783  11.935  2.3295 -2.3185  1.9306
  667MOL0     H91987   4.463   5.509  11.792  0.7229  2.6426 -1.4114
  667MOL0     H91988   4.305   5.589  11.819  1.1767  0.7975 -2.7801
  667MOL0     H91989   4.508   5.510  12.033  1.4555  0.8083 -0.3417
  667MOL0     H91990   4.363   5.605  12.061 -1.1884 -0.4587 -0.2377
  667MOL0     H91991   4.364   5.332  11.929  1.9750  0.7021  0.7433
  667MOL0     H91992   4.221   5.437  11.992  0.3394  2.2310 -1.5036
  667MOL0     H91993   4.344   5.239  12.131  1.9251 -0.3588  0.4715
  667MOL0     H91994   4.455   5.356  12.180  0.5292 -0.2490 -1.1842
  667MOL0     H91995   4.090   5.275  12.217 -2.0653  1.7609  0.0100
  667MOL0     H91996   3.962   5.436  12.507  0.9696  0.1558 -0.2500
  667MOL0     H91997   3.905   5.353  12.366  3.4222 -1.6901  0.0381
  667MOL0     H91998   3.777   5.542  12.395  1.6392 -1.5933  0.6939
  667MOL0     H91999   3.904   5.649  12.410 -2.7811 -0.5080  1.9300
  667MOL0     H92000   3.971   5.614  12.167  0.2551  0.2999 -0.8543
  667MOL0     H92001   3.894   5.463  12.150  0.5643  2.4822 -3.9697
  667MOL0     H92002   3.759   5.633  12.047 -1.2688 -0.3579 -0.0093
  667MOL0     H92003   3.668   5.614  12.204  1.7072 -4.0828  2.1167
  667MOL0     H92004   3.577   5.746  12.012  0.1978  1.4246 -2.3946
  667MOL0     H92005   3.479   5.801  11.783 -2.3514  1.4759 -2.2483
  667MOL0     H92006   3.474   5.964  11.737 -1.2794 -1.1881 -1.5869
  667MOL0     H92007   3.368   5.920  11.871 -1.2033  1.2875 -0.7865
  667MOL0     H92008   3.422   6.471  11.914  3.9536 -2.6502  0.9650
  667MOL0     H92009   3.403   6.684  11.813  0.8756  3.0771  0.1756
  667MOL0     H92010   3.734   6.761  11.546  1.0967  1.9741 -1.3259
  667MOL0     H92011   3.611   6.887  11.521 -0.3115 -2.2593 -1.1495
  667MOL0     H92012   3.865   6.908  11.693  0.4440 -0.5826 -1.3960
  667MOL0     H92013   3.856   6.945  11.521  1.9895 -0.5948  1.5146
  667MOL0     H92014   3.680   7.065  11.742 -0.2576 -0.9638 -0.3653
  667MOL0     H92015   3.682   7.129  11.575 -3.3203 -4.6003 -0.2856
  667MOL0     H92016   3.947   7.162  11.666 -1.5516 -0.2924 -1.3659
  667MOL0     H92017   3.851   7.143  11.815  0.8703 -2.5481 -1.0941
  667MOL0     H92018   3.903   7.380  11.721 -0.4706  0.9485  0.3618
  667MOL0     H92019   3.794   7.352  11.594 -0.0809  2.3548  0.6289
  667MOL0     H92020   3.753   7.401  11.881  2.7005 -0.7304 -1.8860
  667MOL0     H92021   3.640   7.280  11.820 -2.3326  1.8921  2.5620
  667MOL0     H92022   3.518   7.488  11.791 -0.7074  0.7849 -2.3254
  667MOL0     H92023   3.593   7.454  11.632  4.5612 -1.9214  0.3414
  667MOL0     H92024   3.716   7.607  11.637  0.7955 -2.2580  0.3146
  667MOL0     H92025   3.730   7.628  11.823 -0.1309  0.7339  1.1917
  667MOL0     H92026   3.834   6.619  11.739  1.9167 -4.0867  3.5086
  667MOL0     H92027   3.812   6.412  11.823 -1.2176 -0.0059  1.6003
  667MOL0     H92028   3.771   6.192  12.030  4.0061 -1.5109  1.0112
  667MOL0     H92029   3.828   6.038  12.205 -0.1228  1.1441 -0.7357
  667MOL0     H92030   4.553   6.336  11.506  1.6659 -2.3040 -1.1068
  667MOL0     H92031   4.483   6.487  11.327  1.4062 -2.7144 -4.8989
  667MOL0     H92032   4.309   6.815  11.035  0.0712 -0.4044  0.5505
  667MOL0     H92033   4.167   6.941  10.879  0.1963  0.3743  2.4793
  667MOL0     H92034   3.762   6.790  10.768  0.8033 -2.2894 -2.7062
  667MOL0     H92035   3.768   6.949  10.692  1.3845  1.2128  0.0086
  667MOL0     H92036   3.785   6.768  10.536  1.0139 -4.7412 -0.6248
  667MOL0     H92037   3.958   6.740  10.601 -0.4614 -0.6605  1.0886
  667MOL0     H92038   3.985   6.989  10.558  0.6742 -0.6473  0.2639
  667MOL0     H92039   4.005   6.884  10.420 -1.3682 -1.3499 -1.4363
  667MOL0     H92040   3.765   6.919  10.344 -1.0451  0.6827  0.7074
  667MOL0     H92041   3.874   7.056  10.332  3.0287 -1.6278  1.2794
  667MOL0     H92042   3.534   7.144  10.592 -2.2858 -0.1927 -2.5968
  667MOL0     H92043   3.890   6.620  10.859 -0.2434 -0.4672  2.2044
  667MOL0     H92044   3.981   6.414  11.055  0.8847  2.7933  1.0438
  667MOL0     H92045   3.984   6.388  10.878 -0.7693 -0.1848  0.9060
  667MOL0     H92046   4.126   6.376  10.978  0.4034  0.5805  0.0936
  668MOL0     O92047   1.722   5.083   8.359  0.5794 -0.4895 -0.6466
  668MOL0     C92048   1.727   5.144   8.252 -0.2592  0.4197  0.6065
  668MOL0     O92049   1.830   5.125   8.156 -0.2621 -0.1499 -0.8990
  668MOL0     C92050   1.880   5.234   8.087  0.4797 -0.1117 -0.8224
  668MOL0     C92051   1.903   5.358   8.149  0.0704 -0.6398  0.7035
  668MOL0     C92052   1.958   5.464   8.073  0.0742 -0.0056 -0.0690
  668MOL0     C92053   1.993   5.452   7.935 -0.9806 -0.1826  0.1299
  668MOL0     O92054   2.069   5.550   7.862  1.0855  0.4344 -0.0345
  668MOL0     C92055   2.149   5.647   7.931  0.0657 -0.0163 -0.2732
  668MOL0     C92056   2.238   5.726   7.843 -0.1200 -0.6864 -0.3774
  668MOL0     C92057   2.155   5.824   7.751 -1.5127 -0.1306  0.0933
  668MOL0     C92058   2.246   5.873   7.644  0.7230  0.5238  0.0819
  668MOL0     C92059   2.160   5.970   7.558 -0.0069  0.0035  0.4596
  668MOL0     C92060   2.237   6.026   7.432 -0.4648 -0.2570 -0.3954
  668MOL0     C92061   2.382   6.080   7.464  0.5101 -0.0269  0.1918
  668MOL0     C92062   2.389   6.202   7.567 -0.1014 -0.4422  0.6265
  668MOL0     N92063   2.529   6.228   7.600  0.3570  0.2206 -0.1276
  668MOL0     C92064   2.631   6.236   7.500  0.5588 -0.0645 -0.1283
  668MOL0     C92065   2.749   6.238   7.572  0.2646 -0.3950  0.5615
  668MOL0     C92066   2.880   6.271   7.514 -0.2114 -0.3464 -0.4517
  668MOL0     C92067   2.908   6.197   7.380 -0.3183  0.6670 -0.0848
  668MOL0     C92068   2.943   6.283   7.267  0.5239  0.1972 -0.2252
  668MOL0     C92069   3.066   6.367   7.279 -1.3276 -0.6017 -0.5259
  668MOL0     O92070   3.197   6.301   7.268  0.6332  0.1832 -0.4647
  668MOL0     C92071   3.291   6.317   7.357 -1.4325 -0.6149  0.3813
  668MOL0     C92072   3.403   6.246   7.324  0.2235  0.8722  0.5239
  668MOL0     C92073   3.515   6.249   7.408  0.3980  1.0763 -0.2550
  668MOL0     C92074   3.629   6.152   7.380  0.0657  0.7557  0.7361
  668MOL0     C92075   3.529   6.335   7.520 -0.3243 -0.3196  0.1999
  668MOL0     C92076   3.655   6.359   7.595  0.5507  0.4972 -0.5609
  668MOL0     O92077   3.633   6.405   7.728  0.6486 -1.4424 -0.0296
  668MOL0     C92078   3.735   6.396   7.813 -0.0355  0.8482 -0.7292
  668MOL0     C92079   3.834   6.300   7.818 -0.0993  0.1465  0.1412
  668MOL0     C92080   3.929   6.277   7.920  0.3423  0.2610 -0.3666
  668MOL0     C92081   3.925   6.376   8.016  0.7265 -0.0375  0.1199
  668MOL0     O92082   4.023   6.379   8.112 -0.3412 -0.2191 -0.5583
  668MOL0     C92083   4.162   6.367   8.080  0.0842 -0.3757 -0.2139
  668MOL0     C92084   4.238   6.461   8.185  0.9461  0.1718 -0.2081
  668MOL0     C92085   4.240   6.405   8.330  0.3219 -0.7550  0.4770
  668MOL0     C92086   4.349   6.462   8.428  1.3051  0.1365 -0.0352
  668MOL0     C92087   4.319   6.594   8.466  1.1719 -1.1193  0.2912
  668MOL0     C92088   4.432   6.656   8.538  0.1764 -0.4826  0.2414
  668MOL0     C92089   4.412   6.784   8.615 -0.2548  0.5074  0.3362
  668MOL0     C92090   4.416   6.906   8.527 -0.0128 -0.5357  0.8531
  668MOL0    Cl92091   4.420   7.048   8.627 -0.1515  0.1578  0.1996
  668MOL0     C92092   3.829   6.476   8.025  0.6020 -0.4713 -0.0354
  668MOL0     C92093   3.737   6.487   7.920  0.1869 -0.4104  0.4098
  668MOL0     O92094   3.765   6.357   7.528  0.1401  0.4248 -0.3190
  668MOL0     C92095   3.406   6.399   7.555 -0.3554 -0.1383  1.0396
  668MOL0     C92096   3.292   6.390   7.473 -0.5808 -1.0727  0.0875
  668MOL0     N92097   2.720   6.221   7.707  0.3852 -0.0865 -0.3892
  668MOL0     N92098   2.590   6.214   7.719 -0.4438  0.2888  0.0692
  668MOL0     C92099   1.960   5.326   7.870 -0.1760 -0.6805  0.0730
  668MOL0     C92100   1.902   5.220   7.949 -0.5936  0.1896  0.3258
  668MOL0     C92101   1.620   5.226   8.218 -0.5414 -1.3343 -0.5412
  668MOL0     C92102   1.563   5.217   8.094  0.6050  0.6080  0.2322
  668MOL0     C92103   1.462   5.311   8.058  1.3376 -0.6615  0.2450
  668MOL0     C92104   1.417   5.411   8.139 -0.0578  0.5590  0.0729
  668MOL0     O92105   1.313   5.493   8.105 -0.1963 -0.2462  0.5946
  668MOL0     C92106   1.281   5.604   8.187  0.0890 -0.4696 -0.4825
  668MOL0     C92107   1.390   5.714   8.165 -0.4273  0.1154  0.0926
  668MOL0     C92108   1.374   5.845   8.251  0.1669  0.0623 -0.1175
  668MOL0     C92109   1.274   5.948   8.192 -0.1259  0.4386  0.0491
  668MOL0     C92110   1.344   6.037   8.101  0.4705  0.2324  0.5540
  668MOL0     C92111   1.405   6.109   8.020 -0.4969 -0.0070  0.3441
  668MOL0     C92112   1.475   5.424   8.263  0.3409  0.4073 -1.2127
  668MOL0     C92113   1.570   5.326   8.305  0.3934 -0.2923  0.6150
  668MOL0     C92114   1.631   5.347   8.443  0.4632  0.0293 -0.5808
  668MOL0     H92115   1.882   5.369   8.255 -0.5912  2.1640  0.3612
  668MOL0     H92116   1.979   5.563   8.113 -3.1274  2.2702 -3.3650
  668MOL0     H92117   2.212   5.597   8.006 -3.0825 -0.1969  2.4924
  668MOL0     H92118   2.080   5.719   7.975 -1.6167 -1.6462 -0.1259
  668MOL0     H92119   2.292   5.803   7.900  1.6327 -2.0531 -0.1042
  668MOL0     H92120   2.307   5.663   7.787 -0.7099 -0.1708 -1.7103
  668MOL0     H92121   2.058   5.783   7.718 -0.6981  0.2529 -3.0413
  668MOL0     H92122   2.122   5.911   7.809  0.3373  0.2460  0.6202
  668MOL0     H92123   2.329   5.925   7.693  1.8405 -0.4740 -0.7135
  668MOL0     H92124   2.287   5.793   7.583 -0.0866  0.8166 -0.8848
  668MOL0     H92125   2.145   6.063   7.613 -0.7060 -0.7036  1.4985
  668MOL0     H92126   2.070   5.929   7.511 -0.9068  2.6140 -0.2851
  668MOL0     H92127   2.246   5.938   7.368 -0.9886 -1.6772  1.3932
  668MOL0     H92128   2.173   6.093   7.375  0.5627  0.9983 -0.1200
  668MOL0     H92129   2.428   6.111   7.370  1.3422 -0.4132  0.4604
  668MOL0     H92130   2.447   5.997   7.492 -0.6813 -0.9623  0.2273
  668MOL0     H92131   2.331   6.288   7.531  1.2287  0.1462 -0.1795
  668MOL0     H92132   2.341   6.162   7.657 -1.5178  1.2563  0.6968
  668MOL0     H92133   2.606   6.254   7.396 -0.9050  0.3986  0.2800
  668MOL0     H92134   2.961   6.242   7.582  1.5952  3.6874 -0.5772
  668MOL0     H92135   2.888   6.380   7.509 -2.5147  0.0879  2.5932
  668MOL0     H92136   2.978   6.113   7.392 -2.1991 -1.1201 -0.9684
  668MOL0     H92137   2.818   6.145   7.345 -0.4840  2.6805 -3.0019
  668MOL0     H92138   2.959   6.222   7.178 -1.9837 -1.0716  0.1070
  668MOL0     H92139   2.864   6.354   7.240  0.0965 -0.8299 -1.7717
  668MOL0     H92140   3.066   6.443   7.200  0.7435 -1.1677 -1.1442
  668MOL0     H92141   3.066   6.418   7.376  1.0332 -2.5834  0.6085
  668MOL0     H92142   3.413   6.182   7.236 -1.3853 -3.0531  2.9437
  668MOL0     H92143   3.665   6.113   7.476 -1.1740 -0.1879  0.8395
  668MOL0     H92144   3.712   6.201   7.328 -0.1599 -0.0020 -0.3555
  668MOL0     H92145   3.608   6.075   7.305  0.3847  0.3476  1.0606
  668MOL0     H92146   3.848   6.240   7.729 -2.4397 -1.7214  0.9340
  668MOL0     H92147   4.015   6.211   7.924  1.2441  1.4486  0.5234
  668MOL0     H92148   4.182   6.260   8.085 -1.6650 -0.6776  1.6114
  668MOL0     H92149   4.183   6.398   7.977  0.0135 -1.3774 -0.5395
  668MOL0     H92150   4.342   6.480   8.160  1.2861 -1.7569 -0.4427
  668MOL0     H92151   4.185   6.556   8.174  0.5288 -0.2859 -2.7976
  668MOL0     H92152   4.236   6.295   8.325 -1.6355 -0.7029  0.1348
  668MOL0     H92153   4.141   6.421   8.374 -0.2404 -0.1582 -0.9195
  668MOL0     H92154   4.446   6.449   8.379  0.7055 -2.6010 -0.6432
  668MOL0     H92155   4.360   6.407   8.522 -2.2586  1.9455  1.6498
  668MOL0     H92156   4.293   6.659   8.382 -0.3982 -1.3889  0.5239
  668MOL0     H92157   4.234   6.599   8.535 -1.0368 -1.1124 -2.2564
  668MOL0     H92158   4.522   6.672   8.478 -1.1983  0.1462 -1.7639
  668MOL0     H92159   4.458   6.583   8.615  0.3068  1.4495  2.1077
  668MOL0     H92160   4.487   6.804   8.693 -0.0861  1.6880 -0.1200
  668MOL0     H92161   4.314   6.791   8.664 -0.4844 -0.6676  0.0849
  668MOL0     H92162   4.330   6.913   8.460 -0.1379 -0.8454  0.9796
  668MOL0     H92163   4.506   6.916   8.465 -0.8546  0.6936 -0.2334
  668MOL0     H92164   3.816   6.550   8.104 -3.3432 -0.1844 -0.7257
  668MOL0     H92165   3.670   6.572   7.919 -3.2007 -2.8053  2.1280
  668MOL0     H92166   3.399   6.466   7.639  0.2161 -0.4006  1.2991
  668MOL0     H92167   3.207   6.440   7.520 -0.8319 -1.0485 -0.3950
  668MOL0     H92168   1.965   5.320   7.762  0.4109  1.0423 -0.0231
  668MOL0     H92169   1.876   5.127   7.898  3.1020 -0.8877  0.1036
  668MOL0     H92170   1.603   5.136   8.034 -1.5122  0.0090 -0.4388
  668MOL0     H92171   1.411   5.306   7.962  1.0332  1.0238  0.2697
  668MOL0     H92172   1.187   5.637   8.141 -1.5730 -3.3900  0.5396
  668MOL0     H92173   1.263   5.585   8.293  1.3491  3.0317  0.5146
  668MOL0     H92174   1.388   5.730   8.057  1.1796 -4.3249 -0.7897
  668MOL0     H92175   1.492   5.677   8.177 -0.7699 -0.1815  2.8916
  668MOL0     H92176   1.335   5.814   8.349  3.1158 -0.2411  1.0518
  668MOL0     H92177   1.469   5.889   8.282  1.4386 -0.3401 -3.1453
  668MOL0     H92178   1.216   5.995   8.272 -1.1737 -0.4164 -0.1974
  668MOL0     H92179   1.201   5.904   8.123  1.3265 -2.0732 -0.0027
  668MOL0     H92180   1.457   6.168   7.947 -1.5960  0.7811  0.1728
  668MOL0     H92181   1.447   5.505   8.330 -1.6693 -0.4841 -0.8947
  668MOL0     H92182   1.616   5.449   8.478  0.3155  0.2281 -1.2084
  668MOL0     H92183   1.577   5.273   8.503 -2.1805 -0.3106 -3.1443
  668MOL0     H92184   1.739   5.329   8.447  0.2833 -0.9417  1.5990
  669MOL0     O92185   6.203   9.469   9.645  0.2289  0.1187  0.2368
  669MOL0     C92186   6.256   9.538   9.561 -0.8169  1.0272  0.4444
  669MOL0     O92187   6.288   9.500   9.436 -0.2580  0.2475  0.1728
  669MOL0     C92188   6.201   9.410   9.374  0.7879 -0.2143 -0.2234
  669MOL0     C92189   6.157   9.446   9.244  0.2849 -0.0650  0.0320
  669MOL0     C92190   6.062   9.384   9.175 -0.5745  0.7933  0.1588
  669MOL0     C92191   6.017   9.264   9.223  0.7338 -0.5847 -0.4947
  669MOL0     O92192   5.926   9.200   9.138  0.6299  1.2855 -0.4022
  669MOL0     C92193   5.888   9.060   9.169 -0.8723  0.5186 -0.1047
  669MOL0     C92194   5.892   8.967   9.048 -0.6368 -0.0262 -0.1155
  669MOL0     C92195   5.771   9.002   8.968 -0.5630 -0.8371  0.4517
  669MOL0     C92196   5.638   8.938   9.017 -0.3524  0.1202  0.0168
  669MOL0     C92197   5.523   8.981   8.934 -0.4423  0.0064 -0.8092
  669MOL0     C92198   5.390   8.912   8.980  0.0107  0.0107  0.4159
  669MOL0     C92199   5.279   8.951   8.885 -0.4722  0.6093  0.3177
  669MOL0     C92200   5.283   8.886   8.739 -0.0103 -0.1405 -0.1880
  669MOL0     N92201   5.297   8.738   8.738  0.1995  0.6204  0.2479
  669MOL0     C92202   5.192   8.646   8.747  0.3638  0.3095 -0.9865
  669MOL0     C92203   5.243   8.533   8.710 -0.2589 -0.9927 -0.0639
  669MOL0     C92204   5.168   8.402   8.692  0.0228 -0.4501  1.1106
  669MOL0     C92205   5.150   8.366   8.543  0.1005  0.2123  0.0131
  669MOL0     C92206   5.060   8.467   8.473  0.2999  0.3398  0.7685
  669MOL0     C92207   5.070   8.440   8.321  0.9961 -0.0409 -0.8201
  669MOL0     O92208   5.164   8.512   8.252 -0.0896 -0.0395  0.1168
  669MOL0     C92209   5.192   8.644   8.293  0.0967 -0.3425  0.3193
  669MOL0     C92210   5.108   8.732   8.235  0.9667 -0.1291  0.7453
  669MOL0     C92211   5.123   8.868   8.270  0.6092 -0.0236  0.3130
  669MOL0     C92212   5.007   8.961   8.229  0.3220  1.1843  1.2439
  669MOL0     C92213   5.243   8.907   8.341  0.2320 -0.2142  0.4988
  669MOL0     C92214   5.269   9.050   8.384 -0.0399  0.6661 -0.4904
  669MOL0     O92215   5.346   9.067   8.493  0.0703 -0.3831  0.7504
  669MOL0     C92216   5.414   9.179   8.513  0.2863  0.0825  1.1155
  669MOL0     C92217   5.486   9.238   8.414 -0.9171  1.0985 -0.1775
  669MOL0     C92218   5.558   9.360   8.418 -0.0555 -0.0349 -0.0572
  669MOL0     C92219   5.565   9.410   8.550 -0.6792 -0.8812  0.2381
  669MOL0     O92220   5.649   9.518   8.566  0.1651  0.1862  0.2707
  669MOL0     C92221   5.695   9.561   8.697  1.3200  0.3367  0.8937
  669MOL0     C92222   5.818   9.647   8.683 -0.4318 -0.5032  0.1674
  669MOL0     C92223   5.878   9.685   8.818  0.6465 -0.2167 -0.5839
  669MOL0     C92224   5.819   9.820   8.867  0.1418 -1.5177 -0.3054
  669MOL0     C92225   5.876   9.873   8.998  0.5143  1.0955 -0.1940
  669MOL0     C92226   5.801   9.807   9.112  0.3169  0.7483 -0.1360
  669MOL0     C92227   5.820   9.886   9.238  0.1811 -0.5697 -0.2552
  669MOL0     C92228   5.957   9.931   9.284  0.9002 -0.1227  0.0716
  669MOL0    Cl92229   6.055   9.779   9.311  0.0897 -0.1249  0.1590
  669MOL0     C92230   5.484   9.357   8.657 -0.6232 -0.0030 -1.1839
  669MOL0     C92231   5.411   9.245   8.636 -0.2111 -0.2040  0.5037
  669MOL0     O92232   5.233   9.143   8.312  0.1865  0.6155 -0.5297
  669MOL0     C92233   5.333   8.811   8.376  1.1882 -0.6267 -0.0186
  669MOL0     C92234   5.307   8.682   8.358  0.8743  1.1986  0.4539
  669MOL0     N92235   5.378   8.547   8.680 -0.5567  1.0593 -0.2738
  669MOL0     N92236   5.410   8.671   8.706  0.8497  0.0858 -0.9292
  669MOL0     C92237   6.055   9.218   9.348  0.2330  0.5965  0.7381
  669MOL0     C92238   6.143   9.301   9.428  0.4025  0.2372 -0.5202
  669MOL0     C92239   6.297   9.676   9.590  0.2939  0.2276 -0.5204
  669MOL0     C92240   6.308   9.770   9.487  0.1668  0.7651  0.5411
  669MOL0     C92241   6.334   9.902   9.508  0.5043  0.6942  0.5935
  669MOL0     C92242   6.371   9.942   9.636  0.4635  0.3966 -0.4741
  669MOL0     O92243   6.387  10.082   9.658  0.1407 -0.3241 -0.2978
  669MOL0     C92244   6.530  10.113   9.646  0.6423 -0.1432  0.4068
  669MOL0     C92245   6.542  10.264   9.604 -0.0510 -0.0890 -0.7930
  669MOL0     C92246   6.485  10.274   9.465 -0.5595  0.7694  0.4442
  669MOL0     C92247   6.470  10.410   9.409 -0.2342  0.3672 -1.6623
  669MOL0     C92248   6.399  10.414   9.287 -0.0012 -1.1322  0.3848
  669MOL0     C92249   6.340  10.427   9.184 -0.8673  0.7084 -0.3743
  669MOL0     C92250   6.360   9.861   9.749  0.5848 -0.2226  0.6707
  669MOL0     C92251   6.322   9.726   9.720 -0.2427  1.3740  0.8717
  669MOL0     C92252   6.339   9.625   9.827 -0.2409  0.8638 -0.4874
  669MOL0     H92253   6.215   9.525   9.197 -1.1930  1.5172  0.7403
  669MOL0     H92254   6.022   9.430   9.085 -1.3356 -0.1782 -0.0223
  669MOL0     H92255   5.794   9.056   9.225 -1.2297 -0.5572 -0.7428
  669MOL0     H92256   5.970   9.013   9.223 -0.9428 -2.6414 -2.4054
  669MOL0     H92257   5.990   8.982   9.000 -0.5160  1.7252  0.5977
  669MOL0     H92258   5.889   8.861   9.076  3.1965 -0.3743 -0.4281
  669MOL0     H92259   5.763   9.111   8.962 -1.9100 -0.9300  0.2943
  669MOL0     H92260   5.776   8.959   8.868 -4.6739 -1.5545  0.3923
  669MOL0     H92261   5.648   8.829   9.019  1.0483  0.2166 -0.7534
  669MOL0     H92262   5.617   8.977   9.117 -1.1444 -0.7404  0.2059
  669MOL0     H92263   5.545   8.943   8.834  2.5761 -4.5712  1.2428
  669MOL0     H92264   5.495   9.087   8.928  2.1231  0.6974 -2.3696
  669MOL0     H92265   5.393   8.802   8.981  0.2615 -0.0724 -2.1717
  669MOL0     H92266   5.360   8.942   9.080  2.0742  1.0341  0.7676
  669MOL0     H92267   5.284   9.060   8.878  4.1811  0.5411 -0.3926
  669MOL0     H92268   5.184   8.917   8.927 -0.1969 -1.8149 -0.8282
  669MOL0     H92269   5.200   8.926   8.680 -0.2419  1.8985  1.4139
  669MOL0     H92270   5.372   8.920   8.685 -0.0877 -1.6895 -1.3734
  669MOL0     H92271   5.091   8.658   8.783  1.0985 -0.4359  1.5250
  669MOL0     H92272   5.069   8.410   8.737 -0.1761  1.2029  0.4534
  669MOL0     H92273   5.224   8.327   8.749 -0.0570  0.9080  3.0765
  669MOL0     H92274   5.244   8.353   8.488  0.8335  1.4051  0.8997
  669MOL0     H92275   5.092   8.274   8.545 -0.5385  0.6098  0.0480
  669MOL0     H92276   4.957   8.446   8.502  0.2521  0.0345  0.3824
  669MOL0     H92277   5.102   8.561   8.510 -0.3923  0.7588  0.5002
  669MOL0     H92278   5.086   8.333   8.307  1.8961 -0.5307  2.9092
  669MOL0     H92279   4.975   8.465   8.272  1.0593  1.0882 -0.4035
  669MOL0     H92280   5.012   8.699   8.196  0.5880 -0.2810  1.7762
  669MOL0     H92281   5.032   8.980   8.124  1.2084 -0.4162  1.1302
  669MOL0     H92282   5.015   9.056   8.281  1.8135  2.2503 -0.8006
  669MOL0     H92283   4.907   8.919   8.243  1.0800 -0.8299  1.0319
  669MOL0     H92284   5.493   9.191   8.316 -2.7614  0.5577 -0.0805
  669MOL0     H92285   5.611   9.400   8.332  1.8024 -0.0182  1.0463
  669MOL0     H92286   5.613   9.620   8.741 -0.6404 -0.3896 -1.5327
  669MOL0     H92287   5.706   9.474   8.761  0.4302  0.7946  1.7003
  669MOL0     H92288   5.887   9.587   8.624 -0.4116  0.1625 -0.4911
  669MOL0     H92289   5.800   9.738   8.627  3.7243  0.3650 -0.0738
  669MOL0     H92290   5.987   9.690   8.818  0.7896 -2.3598  0.2866
  669MOL0     H92291   5.851   9.608   8.890 -1.8850  0.9628 -0.1629
  669MOL0     H92292   5.712   9.813   8.886  0.3796 -0.6941  1.5478
  669MOL0     H92293   5.832   9.890   8.784 -4.1828 -0.8572 -0.6277
  669MOL0     H92294   5.986   9.873   8.997  0.5352  1.7612  0.5572
  669MOL0     H92295   5.853   9.979   9.013  0.1092  0.8366  1.1941
  669MOL0     H92296   5.849   9.710   9.125 -0.0133  0.0152 -3.3806
  669MOL0     H92297   5.693   9.799   9.097 -0.0790 -0.3718  2.7519
  669MOL0     H92298   5.776   9.823   9.316 -1.7244  2.4935  1.3251
  669MOL0     H92299   5.758   9.975   9.224  0.7333 -0.0666  0.4155
  669MOL0     H92300   5.953  10.002   9.367 -2.3157  0.6548 -0.6116
  669MOL0     H92301   6.003   9.979   9.197 -3.2346  0.8684 -1.8139
  669MOL0     H92302   5.483   9.404   8.755  0.6417 -1.0647 -0.6264
  669MOL0     H92303   5.352   9.211   8.721  3.6841  1.3974  4.2163
  669MOL0     H92304   5.421   8.826   8.438 -0.0621 -0.3079  1.7526
  669MOL0     H92305   5.373   8.601   8.390 -0.9462  0.7353  3.5080
  669MOL0     H92306   6.011   9.134   9.401 -0.9780  0.0110 -1.0987
  669MOL0     H92307   6.167   9.247   9.519  0.6499 -0.4627 -0.9917
  669MOL0     H92308   6.293   9.727   9.389 -4.2194  0.9855  0.9271
  669MOL0     H92309   6.348   9.972   9.426  2.9898 -1.9723 -1.4711
  669MOL0     H92310   6.573  10.092   9.744  0.5624  0.0465  0.4824
  669MOL0     H92311   6.589  10.053   9.576  3.1758  3.1296 -0.5016
  669MOL0     H92312   6.646  10.299   9.606 -0.2471  0.5645 -1.4123
  669MOL0     H92313   6.485  10.323   9.676  1.9272 -0.3650  1.0809
  669MOL0     H92314   6.567  10.225   9.411 -1.8021  0.3641 -1.1579
  669MOL0     H92315   6.402  10.204   9.455 -0.2889  0.3151  1.3290
  669MOL0     H92316   6.566  10.457   9.388  1.1963 -1.3212  0.6116
  669MOL0     H92317   6.420  10.464   9.490  1.5782  1.8270 -1.4521
  669MOL0     H92318   6.273  10.440   9.102 -2.9981  1.9074  1.4738
  669MOL0     H92319   6.362   9.894   9.852  0.3095 -0.9036  0.9041
  669MOL0     H92320   6.248   9.595   9.878  0.7037 -1.8444 -0.2498
  669MOL0     H92321   6.394   9.535   9.797 -0.9765  0.8828 -2.0500
  669MOL0     H92322   6.384   9.688   9.904 -0.8525  0.6645  0.0367
  670MOL0     O92323   4.473   2.488   1.653 -0.2830 -0.4166 -0.7435
  670MOL0     C92324   4.437   2.528   1.547 -0.6108  0.6572 -0.4290
  670MOL0     O92325   4.502   2.501   1.436 -0.5737 -0.3435  0.1090
  670MOL0     C92326   4.621   2.443   1.452 -0.0565  0.8697 -0.2837
  670MOL0     C92327   4.625   2.308   1.424 -0.3418  0.3799 -0.4900
  670MOL0     C92328   4.742   2.244   1.426  0.4265  0.1805  0.4274
  670MOL0     C92329   4.865   2.318   1.446 -0.1614  0.1755  0.0980
  670MOL0     O92330   4.985   2.258   1.438 -0.1291 -0.6545 -0.1249
  670MOL0     C92331   4.997   2.119   1.441  0.2345 -0.0414 -0.6254
  670MOL0     C92332   5.126   2.072   1.506  0.0408 -0.3047 -0.2488
  670MOL0     C92333   5.254   2.123   1.437  0.3006 -0.8657 -0.1385
  670MOL0     C92334   5.270   2.053   1.301  0.2058 -0.0610 -0.6136
  670MOL0     C92335   5.416   2.052   1.248  0.4068 -0.4317 -0.6896
  670MOL0     C92336   5.409   2.010   1.090  0.0794 -0.3795 -0.9759
  670MOL0     C92337   5.533   2.066   1.028  0.0880 -0.1695 -0.9334
  670MOL0     C92338   5.555   2.049   0.878 -0.6214  0.6097  0.1510
  670MOL0     N92339   5.696   2.017   0.839 -0.0533 -0.7829 -1.4549
  670MOL0     C92340   5.751   1.892   0.839 -0.1824  0.6840 -0.2143
  670MOL0     C92341   5.867   1.902   0.771  1.0834  0.0670  1.5068
  670MOL0     C92342   5.951   1.789   0.709  0.3600  0.2670  0.0541
  670MOL0     C92343   6.100   1.811   0.751 -0.1150 -1.5628 -0.1377
  670MOL0     C92344   6.186   1.893   0.648 -0.1093 -0.3357 -0.6945
  670MOL0     C92345   6.276   1.809   0.554 -0.0048  0.5816  0.7371
  670MOL0     O92346   6.184   1.722   0.479  0.3502 -0.8560 -0.4021
  670MOL0     C92347   6.252   1.611   0.417  1.0097  0.0641 -0.5018
  670MOL0     C92348   6.161   1.528   0.356  0.0117  0.8442  0.1585
  670MOL0     C92349   6.200   1.424   0.271 -0.4228 -0.1923 -0.4342
  670MOL0     C92350   6.091   1.343   0.204  0.0311 -0.5424 -0.2674
  670MOL0     C92351   6.337   1.404   0.250 -0.4180 -0.1478 -0.4109
  670MOL0     C92352   6.391   1.284   0.187  0.1083  0.0767 -0.3525
  670MOL0     O92353   6.519   1.287   0.149  0.0683 -0.2202  0.3290
  670MOL0     C92354   6.564   1.192   0.061  0.3715  0.1513 -1.1431
  670MOL0     C92355   6.655   1.103   0.105  0.2447 -0.1474 -0.3268
  670MOL0     C92356   6.704   0.995   0.034  0.3220  0.7601 -0.0380
  670MOL0     C92357   6.684   0.997  -0.104  0.0541 -0.9021 -0.0389
  670MOL0     O92358   6.751   0.908  -0.185  0.1960  0.8583 -0.1375
  670MOL0     C92359   6.664   0.809  -0.245 -0.9350 -1.3175 -0.3056
  670MOL0     C92360   6.685   0.679  -0.155  0.3502  0.8650  0.7521
  670MOL0     C92361   6.831   0.612  -0.160  0.4906  0.8723  0.4944
  670MOL0     C92362   6.895   0.605  -0.305  0.5019  0.0486 -0.8739
  670MOL0     C92363   6.814   0.528  -0.417  0.3505 -0.1465 -1.1571
  670MOL0     C92364   6.801   0.377  -0.404  0.3047  1.1126  0.1468
  670MOL0     C92365   6.941   0.311  -0.389 -0.0533  0.2678 -0.0663
  670MOL0     C92366   7.022   0.278  -0.518  0.4245 -0.7165  0.3515
  670MOL0    Cl92367   7.175   0.214  -0.443 -0.1875  0.2781 -0.5828
  670MOL0     C92368   6.610   1.103  -0.157  0.3954  0.6630  0.2422
  670MOL0     C92369   6.549   1.205  -0.077  0.6183 -0.4057  0.4750
  670MOL0     O92370   6.317   1.192   0.172  0.7733  0.4048 -0.4345
  670MOL0     C92371   6.428   1.485   0.311 -0.7592  0.4299 -0.1491
  670MOL0     C92372   6.389   1.589   0.391 -0.3685 -0.2030 -0.3112
  670MOL0     N92373   5.884   2.032   0.749 -0.1931  0.0514 -0.6564
  670MOL0     N92374   5.781   2.104   0.781  0.2683 -0.4594 -0.5688
  670MOL0     C92375   4.864   2.447   1.483  0.2386  0.3283  0.0937
  670MOL0     C92376   4.733   2.513   1.491 -0.2132  0.1848 -0.2113
  670MOL0     C92377   4.298   2.588   1.540  0.0402  0.8286 -0.4336
  670MOL0     C92378   4.188   2.496   1.534 -0.1963 -1.0721 -0.2737
  670MOL0     C92379   4.054   2.534   1.524  0.3491 -0.4477 -0.0552
  670MOL0     C92380   4.033   2.675   1.515 -0.1833  0.4145 -0.5559
  670MOL0     O92381   3.918   2.743   1.504 -0.9093 -0.1975  0.0500
  670MOL0     C92382   3.825   2.728   1.396 -0.5746  0.5695 -0.3531
  670MOL0     C92383   3.859   2.823   1.280  0.7919  0.3735  0.2298
  670MOL0     C92384   3.829   2.967   1.313  0.4025 -0.3093  0.0543
  670MOL0     C92385   3.844   3.062   1.189  0.3982  1.2419 -0.5545
  670MOL0     C92386   3.754   3.034   1.080  0.4339  0.4061 -0.0485
  670MOL0     C92387   3.676   3.008   0.986  0.4486 -0.0036  0.0176
  670MOL0     C92388   4.136   2.761   1.544 -0.0886 -0.0618 -0.3749
  670MOL0     C92389   4.271   2.725   1.550 -1.1880  0.5131  0.4115
  670MOL0     C92390   4.381   2.833   1.555 -1.1171 -0.2459  0.2402
  670MOL0     H92391   4.543   2.251   1.381  0.7977 -3.5172  1.9756
  670MOL0     H92392   4.733   2.138   1.407 -2.8942  0.5691 -0.9063
  670MOL0     H92393   4.994   2.091   1.335 -0.1412  0.2136 -0.6838
  670MOL0     H92394   4.916   2.074   1.499 -1.7635  1.9592 -1.7328
  670MOL0     H92395   5.119   2.107   1.610 -1.6637 -2.7649  0.5566
  670MOL0     H92396   5.132   1.963   1.509  3.8565 -0.2446 -1.4076
  670MOL0     H92397   5.248   2.232   1.424  0.5819 -1.0477 -2.1393
  670MOL0     H92398   5.337   2.094   1.502 -1.4791 -3.3313  1.1759
  670MOL0     H92399   5.233   1.950   1.305  2.9924 -1.1222  2.8787
  670MOL0     H92400   5.212   2.110   1.228 -0.2029  1.5174  0.8812
  670MOL0     H92401   5.492   1.996   1.303 -0.0503 -2.0091 -1.6068
  670MOL0     H92402   5.449   2.157   1.254 -4.5000  1.3698 -0.2697
  670MOL0     H92403   5.387   1.910   1.052  1.2932  0.0632 -3.0209
  670MOL0     H92404   5.320   2.066   1.059 -0.2870  1.5652  2.9685
  670MOL0     H92405   5.613   2.019   1.086 -2.6091  0.1498  3.5009
  670MOL0     H92406   5.539   2.175   1.038 -1.0900 -0.1199 -0.6189
  670MOL0     H92407   5.504   1.960   0.839 -1.3789  0.8080  0.6533
  670MOL0     H92408   5.511   2.130   0.820 -3.0852  1.3066  2.7509
  670MOL0     H92409   5.678   1.816   0.865 -2.7070  2.5442 -1.3932
  670MOL0     H92410   5.941   1.785   0.600  1.6678 -2.3320 -0.0440
  670MOL0     H92411   5.913   1.692   0.742 -0.9267  0.5541 -0.5340
  670MOL0     H92412   6.096   1.864   0.846 -2.0622 -0.2869 -0.8679
  670MOL0     H92413   6.156   1.718   0.766  5.3517  1.5265  1.3303
  670MOL0     H92414   6.118   1.958   0.592  0.3092  1.2645  0.5879
  670MOL0     H92415   6.240   1.960   0.715 -1.0193 -0.2510 -0.0250
  670MOL0     H92416   6.327   1.871   0.480  0.2376 -3.1189 -2.5272
  670MOL0     H92417   6.358   1.753   0.601  0.0392 -2.6060 -2.6741
  670MOL0     H92418   6.055   1.523   0.382 -0.3108 -1.3311 -1.3143
  670MOL0     H92419   5.997   1.399   0.194 -1.8140 -3.5586 -1.0318
  670MOL0     H92420   6.072   1.249   0.255 -1.8739 -1.7772 -3.0236
  670MOL0     H92421   6.120   1.321   0.100  3.9284  0.7087  0.4036
  670MOL0     H92422   6.678   1.107   0.212 -1.5820 -0.8462  0.1191
  670MOL0     H92423   6.754   0.916   0.088 -1.4260  0.2864  0.9711
  670MOL0     H92424   6.559   0.838  -0.235 -0.3566  1.2968 -1.1322
  670MOL0     H92425   6.692   0.794  -0.350  2.8137 -2.1769  0.6450
  670MOL0     H92426   6.683   0.710  -0.050 -1.4011 -0.3502  1.1183
  670MOL0     H92427   6.606   0.607  -0.181  0.3914  1.0346  0.1338
  670MOL0     H92428   6.825   0.515  -0.110 -1.7869  0.6053 -0.1823
  670MOL0     H92429   6.894   0.683  -0.105 -0.4509  1.2645  1.0919
  670MOL0     H92430   6.997   0.567  -0.298  1.1409  1.8097 -0.1805
  670MOL0     H92431   6.927   0.703  -0.341 -1.4482  0.9993 -0.1476
  670MOL0     H92432   6.712   0.567  -0.415 -0.6251 -2.5457  0.0456
  670MOL0     H92433   6.841   0.551  -0.521 -0.2839  3.2850 -0.6649
  670MOL0     H92434   6.749   0.335  -0.491  0.5442  2.4469 -0.6547
  670MOL0     H92435   6.732   0.351  -0.323 -0.8610  0.9658 -0.8616
  670MOL0     H92436   6.933   0.212  -0.342 -0.4012 -0.3023 -1.2893
  670MOL0     H92437   7.003   0.368  -0.319 -0.8016  0.5640  0.3667
  670MOL0     H92438   7.038   0.370  -0.574  0.8732  0.1715  1.8852
  670MOL0     H92439   6.976   0.195  -0.573 -0.3746 -1.3935  1.9881
  670MOL0     H92440   6.605   1.107  -0.266  2.8155  0.9751  0.0657
  670MOL0     H92441   6.491   1.289  -0.112  0.0329 -1.7177 -1.8590
  670MOL0     H92442   6.534   1.462   0.315 -1.3474 -2.4656  0.5382
  670MOL0     H92443   6.465   1.662   0.415 -3.1154  3.6554 -2.2073
  670MOL0     H92444   4.964   2.488   1.491  0.4288  0.3182 -1.8245
  670MOL0     H92445   4.721   2.618   1.516 -1.6882  0.1461 -0.6505
  670MOL0     H92446   4.197   2.388   1.521 -0.4580 -1.2782  1.1589
  670MOL0     H92447   3.974   2.461   1.532  1.2584 -1.2520  2.4977
  670MOL0     H92448   3.838   2.629   1.351  0.9613  0.9357 -0.7504
  670MOL0     H92449   3.724   2.731   1.438 -1.1797  0.0496 -1.7356
  670MOL0     H92450   3.800   2.793   1.193 -1.8803  2.9237  0.9868
  670MOL0     H92451   3.965   2.820   1.254  1.3276  3.8006  1.5508
  670MOL0     H92452   3.728   2.990   1.348  1.2684  0.8108  1.9779
  670MOL0     H92453   3.908   2.989   1.386  0.1181  1.3088 -0.0884
  670MOL0     H92454   3.949   3.061   1.156  1.5420  2.0172  2.6523
  670MOL0     H92455   3.821   3.164   1.222 -1.7744  0.0450  2.0347
  670MOL0     H92456   3.597   2.987   0.917  2.8283 -0.5770 -2.6848
  670MOL0     H92457   4.119   2.868   1.540  0.4530  0.0110 -0.9366
  670MOL0     H92458   4.376   2.919   1.487  0.5219  0.7729  1.3368
  670MOL0     H92459   4.378   2.873   1.657  1.5077 -0.1508  0.3356
  670MOL0     H92460   4.477   2.786   1.534  0.3997  2.6247  0.2266
  671MOL0     O92461   7.519   3.748   7.014 -0.1837  1.2887  0.2316
  671MOL0     C92462   7.395   3.738   7.042  0.5422  0.2291  0.0064
  671MOL0     O92463   7.290   3.749   6.957  0.1533 -0.2849  0.4680
  671MOL0     C92464   7.324   3.747   6.824 -0.6171  1.2736  0.6353
  671MOL0     C92465   7.257   3.652   6.749  0.5563 -0.0736 -0.1205
  671MOL0     C92466   7.278   3.642   6.609 -0.8093 -0.7626  0.6383
  671MOL0     C92467   7.373   3.721   6.541  0.2836 -0.5214 -0.5390
  671MOL0     O92468   7.395   3.716   6.410 -0.1127 -0.5400  0.4495
  671MOL0     C92469   7.510   3.773   6.343 -0.5396 -0.2742  0.1884
  671MOL0     C92470   7.502   3.739   6.194  0.6359 -0.0867  0.0643
  671MOL0     C92471   7.619   3.792   6.108 -0.2060 -0.5793 -0.3183
  671MOL0     C92472   7.653   3.710   5.986  0.1366  0.1919 -0.1355
  671MOL0     C92473   7.764   3.773   5.907 -0.9343  0.4593 -0.0791
  671MOL0     C92474   7.817   3.680   5.797  0.2537  0.0489 -0.3932
  671MOL0     C92475   7.714   3.686   5.677 -1.0902 -0.6264  0.3241
  671MOL0     C92476   7.800   3.648   5.551  0.4093 -0.1665 -0.5998
  671MOL0     N92477   7.858   3.766   5.479  0.0309  0.2380  0.2602
  671MOL0     C92478   7.980   3.774   5.413 -1.1457 -0.1664  0.1768
  671MOL0     C92479   7.982   3.900   5.353 -0.0469 -0.6749 -0.5228
  671MOL0     C92480   8.107   3.955   5.281  0.2166 -0.0024 -0.2870
  671MOL0     C92481   8.197   4.029   5.372  1.0125 -0.5923 -0.3667
  671MOL0     C92482   8.295   4.122   5.295  0.7562 -0.0295 -0.1608
  671MOL0     C92483   8.221   4.244   5.240 -0.6612  0.6562 -0.1946
  671MOL0     O92484   8.240   4.230   5.095  0.5427  0.5466  0.2250
  671MOL0     C92485   8.164   4.309   5.015 -1.7331 -1.2843  0.0544
  671MOL0     C92486   8.228   4.358   4.909  0.5427  0.6067 -0.1130
  671MOL0     C92487   8.171   4.448   4.810 -0.2596 -0.3605 -0.0718
  671MOL0     C92488   8.265   4.490   4.699  0.4296 -0.2836 -0.3989
  671MOL0     C92489   8.041   4.507   4.830  0.7115  0.0897  0.5541
  671MOL0     C92490   7.982   4.622   4.759  0.3486  0.1762  0.2557
  671MOL0     O92491   7.851   4.646   4.777  0.0290  0.5659  0.3137
  671MOL0     C92492   7.804   4.760   4.723 -0.3880  0.5255  0.5640
  671MOL0     C92493   7.742   4.759   4.592 -0.5717  0.3214  0.6958
  671MOL0     C92494   7.690   4.885   4.546 -0.2823  0.3984 -0.7618
  671MOL0     C92495   7.697   5.004   4.624  0.5364 -0.6492 -0.4989
  671MOL0     O92496   7.642   5.126   4.588 -0.4176  0.6210 -0.8774
  671MOL0     C92497   7.563   5.141   4.479  0.2993 -0.0748 -0.1235
  671MOL0     C92498   7.457   5.248   4.490  0.2816  0.1959  0.0235
  671MOL0     C92499   7.351   5.208   4.589  0.6180 -1.0261  0.8579
  671MOL0     C92500   7.217   5.288   4.576  0.6971  0.3165  0.1029
  671MOL0     C92501   7.134   5.242   4.700 -0.1756  0.0224  0.0104
  671MOL0     C92502   6.996   5.268   4.681  0.2096 -0.6302 -0.3787
  671MOL0     C92503   6.916   5.201   4.795  0.0123 -0.4402  0.0439
  671MOL0     C92504   6.848   5.064   4.758  0.0165  0.3860  0.0870
  671MOL0    Cl92505   6.983   4.945   4.769  0.0803  0.2413 -0.6214
  671MOL0     C92506   7.753   4.991   4.753  0.1240  0.0919  0.1951
  671MOL0     C92507   7.814   4.877   4.805  0.2866  0.5861  1.1674
  671MOL0     O92508   8.061   4.702   4.704 -0.6475  0.0550 -0.3278
  671MOL0     C92509   7.971   4.435   4.937  1.1192  0.2083 -0.2009
  671MOL0     C92510   8.030   4.342   5.026  0.0388  0.0419  0.0005
  671MOL0     N92511   7.855   3.952   5.372  0.0704  0.3391 -0.1930
  671MOL0     N92512   7.780   3.873   5.441  0.1189  0.0538  0.1603
  671MOL0     C92513   7.447   3.815   6.616  0.1209  0.0048 -0.4320
  671MOL0     C92514   7.417   3.826   6.753  1.1510  0.1119 -0.0387
  671MOL0     C92515   7.351   3.765   7.178  0.4816 -0.1395  0.1793
  671MOL0     C92516   7.274   3.876   7.202 -0.0591 -0.2729 -0.1150
  671MOL0     C92517   7.228   3.908   7.323  0.1432 -0.1160 -0.0839
  671MOL0     C92518   7.258   3.832   7.438  0.0265 -0.0681 -0.5050
  671MOL0     O92519   7.211   3.877   7.559 -0.2591  0.1675 -0.8785
  671MOL0     C92520   7.291   3.834   7.673 -0.6036 -0.1190  0.7479
  671MOL0     C92521   7.249   3.923   7.788  0.0859 -0.1836 -0.5521
  671MOL0     C92522   7.319   3.868   7.913  0.5148  0.6387  0.1544
  671MOL0     C92523   7.251   3.930   8.036  0.0012  0.4936 -0.1737
  671MOL0     C92524   7.328   3.900   8.155  0.0012 -0.1268  0.0972
  671MOL0     C92525   7.379   3.862   8.255 -0.0665 -0.6162 -0.7464
  671MOL0     C92526   7.340   3.718   7.420  0.0342 -0.0938  0.0078
  671MOL0     C92527   7.383   3.684   7.296  0.2219 -0.0748  0.6185
  671MOL0     C92528   7.454   3.551   7.277 -0.5825 -0.6966  1.2525
  671MOL0     H92529   7.190   3.585   6.802 -3.3482  3.0522 -0.6517
  671MOL0     H92530   7.224   3.565   6.555  1.0499 -0.8336 -1.2326
  671MOL0     H92531   7.602   3.731   6.385 -2.1782 -0.6427  3.6826
  671MOL0     H92532   7.520   3.882   6.351  0.9451 -0.4689  1.6411
  671MOL0     H92533   7.509   3.630   6.197  0.7127 -0.0602  1.6474
  671MOL0     H92534   7.402   3.772   6.166  0.7798  0.9446  0.7177
  671MOL0     H92535   7.598   3.897   6.088  0.8587  0.5757  3.7010
  671MOL0     H92536   7.704   3.801   6.176  0.8838  0.3844 -1.7566
  671MOL0     H92537   7.667   3.603   6.005  1.6652 -0.1795 -2.7301
  671MOL0     H92538   7.561   3.707   5.926 -0.0041  1.9317 -0.0357
  671MOL0     H92539   7.852   3.794   5.969 -1.1722  0.1528  0.3676
  671MOL0     H92540   7.732   3.864   5.855 -1.3476  0.3053 -0.1006
  671MOL0     H92541   7.917   3.713   5.769  1.0304 -0.4274  1.6193
  671MOL0     H92542   7.832   3.579   5.836 -1.1738 -0.3759 -0.8750
  671MOL0     H92543   7.681   3.791   5.670  1.5646  0.3526  1.1642
  671MOL0     H92544   7.627   3.622   5.665 -0.5091 -1.0401 -2.3098
  671MOL0     H92545   7.887   3.601   5.597  0.9101  0.3535 -1.0008
  671MOL0     H92546   7.746   3.571   5.495 -0.5195 -1.4371  1.8561
  671MOL0     H92547   8.068   3.712   5.424  1.4455  2.9301 -1.3467
  671MOL0     H92548   8.082   4.013   5.192  0.0436  1.0911  0.4606
  671MOL0     H92549   8.158   3.863   5.250 -0.1930 -0.8945  1.5000
  671MOL0     H92550   8.140   4.089   5.443  2.3398 -0.2829  0.4490
  671MOL0     H92551   8.262   3.969   5.436 -0.2154  0.0834  1.6233
  671MOL0     H92552   8.369   4.155   5.368  0.1391 -2.7303  1.8661
  671MOL0     H92553   8.345   4.069   5.214 -0.7583 -0.9505 -0.5419
  671MOL0     H92554   8.117   4.241   5.273 -0.2489  1.8985  1.3544
  671MOL0     H92555   8.255   4.340   5.280  0.0204 -0.2893  1.5620
  671MOL0     H92556   8.334   4.337   4.897  0.2762 -0.1132 -1.4765
  671MOL0     H92557   8.216   4.519   4.606 -0.4981  1.1645  0.5009
  671MOL0     H92558   8.337   4.413   4.669  1.0570  0.0087  0.3240
  671MOL0     H92559   8.317   4.581   4.730  0.0068 -0.1598 -0.0442
  671MOL0     H92560   7.742   4.659   4.550  1.8710  0.2580  0.7414
  671MOL0     H92561   7.636   4.876   4.452 -1.2964 -2.8644  0.0314
  671MOL0     H92562   7.630   5.165   4.396 -0.1306  1.0792 -0.1553
  671MOL0     H92563   7.508   5.052   4.446 -4.3848  2.9070 -1.2759
  671MOL0     H92564   7.508   5.341   4.519  2.0964 -1.2724  1.7580
  671MOL0     H92565   7.407   5.270   4.395  0.9671 -2.9340 -1.1883
  671MOL0     H92566   7.379   5.232   4.692 -2.2515  0.0980  1.4908
  671MOL0     H92567   7.332   5.103   4.569  0.5282 -0.7840 -0.3813
  671MOL0     H92568   7.170   5.257   4.482 -1.3252  0.3032  1.0656
  671MOL0     H92569   7.230   5.396   4.572 -1.9217  0.6801 -0.5038
  671MOL0     H92570   7.151   5.135   4.712 -0.4593  0.0823  0.9623
  671MOL0     H92571   7.176   5.305   4.778  3.0037 -1.4465 -0.3722
  671MOL0     H92572   6.963   5.236   4.582 -0.1210  3.6631 -1.8615
  671MOL0     H92573   6.958   5.370   4.679 -3.5855 -1.7647  1.8606
  671MOL0     H92574   6.835   5.269   4.823  1.0156  0.0061  2.0164
  671MOL0     H92575   6.976   5.200   4.886  0.7585  0.8059 -0.4131
  671MOL0     H92576   6.804   5.062   4.658  0.2477 -0.7647 -0.0037
  671MOL0     H92577   6.769   5.033   4.827 -0.0495  2.7211  1.1466
  671MOL0     H92578   7.756   5.084   4.808  0.6986  0.0406  0.2545
  671MOL0     H92579   7.868   4.877   4.899 -0.9930  1.2541  1.9369
  671MOL0     H92580   7.870   4.461   4.967  1.0733 -1.3795  1.1413
  671MOL0     H92581   7.978   4.286   5.103  3.9990 -2.3439  1.2414
  671MOL0     H92582   7.517   3.888   6.576  1.8646  0.4436  3.0315
  671MOL0     H92583   7.457   3.914   6.802 -0.5261  1.9084 -1.7110
  671MOL0     H92584   7.243   3.949   7.127 -0.0068  0.2571  0.3675
  671MOL0     H92585   7.171   3.998   7.344 -0.0355 -0.2050 -0.1854
  671MOL0     H92586   7.261   3.731   7.695 -1.6815  0.2319  0.9762
  671MOL0     H92587   7.399   3.841   7.657 -0.6191 -0.0198  0.6859
  671MOL0     H92588   7.142   3.909   7.806  0.1722  0.7436  0.8105
  671MOL0     H92589   7.272   4.028   7.773  0.8888 -0.2730 -0.0334
  671MOL0     H92590   7.315   3.759   7.925 -0.2711  0.7172  0.7461
  671MOL0     H92591   7.426   3.885   7.902  0.3160  1.8224 -0.0106
  671MOL0     H92592   7.154   3.889   8.067  0.4336  0.1747  0.7783
  671MOL0     H92593   7.241   4.039   8.025  0.4239  0.6676  0.9987
  671MOL0     H92594   7.438   3.847   8.344  1.5408  1.7683 -1.2909
  671MOL0     H92595   7.367   3.662   7.510 -1.3982  0.7150  0.9798
  671MOL0     H92596   7.393   3.466   7.245  0.3269 -0.7752 -0.3533
  671MOL0     H92597   7.537   3.569   7.208 -0.0871 -1.9041  1.5030
  671MOL0     H92598   7.500   3.516   7.370 -0.5408  1.0205  1.9235
  672MOL0     O92599   2.697   9.292   5.757 -0.4030 -1.1371 -0.1524
  672MOL0     C92600   2.583   9.328   5.788  0.0600 -0.4439 -0.1871
  672MOL0     O92601   2.524   9.451   5.760  0.2946 -0.5813 -0.6455
  672MOL0     C92602   2.572   9.504   5.641 -0.9201  0.0381 -0.4336
  672MOL0     C92603   2.524   9.455   5.513  0.4769 -0.7765  0.4456
  672MOL0     C92604   2.559   9.518   5.396 -0.5554  0.5412  0.3935
  672MOL0     C92605   2.662   9.609   5.404  0.3956  0.0812  0.4303
  672MOL0     O92606   2.718   9.660   5.289 -0.7660  0.4697 -0.0226
  672MOL0     C92607   2.720   9.806   5.273  0.3086 -0.2466 -0.7212
  672MOL0     C92608   2.756   9.851   5.138  0.1918  0.0526 -0.3384
  672MOL0     C92609   2.707   9.754   5.032  1.0437  1.3362 -0.1267
  672MOL0     C92610   2.727   9.816   4.891 -0.3252  0.9112  0.0521
  672MOL0     C92611   2.648   9.748   4.766 -0.3682 -0.4602  0.9408
  672MOL0     C92612   2.708   9.612   4.739 -0.4784  0.4675  0.2541
  672MOL0     C92613   2.649   9.546   4.612 -0.2180  0.0316  0.3504
  672MOL0     C92614   2.680   9.393   4.594  0.4287 -0.6517  0.2786
  672MOL0     N92615   2.829   9.369   4.610  0.0610  0.2661  1.1739
  672MOL0     C92616   2.909   9.345   4.505 -0.0771 -0.8559 -0.1447
  672MOL0     C92617   3.027   9.314   4.551  0.2444  0.2855 -0.3898
  672MOL0     C92618   3.145   9.272   4.467 -0.5592  0.1758  0.0014
  672MOL0     C92619   3.236   9.383   4.434  0.7885  0.1583  0.4873
  672MOL0     C92620   3.357   9.334   4.354  0.4840  0.3093  0.6240
  672MOL0     C92621   3.475   9.429   4.345 -0.2312  0.0385  0.1427
  672MOL0     O92622   3.449   9.517   4.236  0.1728 -0.8433  0.3783
  672MOL0     C92623   3.549   9.600   4.188 -0.0154  0.0255  0.5280
  672MOL0     C92624   3.507   9.685   4.085  0.6410  0.4616 -1.2635
  672MOL0     C92625   3.592   9.772   4.011 -0.6482 -0.6264  0.1099
  672MOL0     C92626   3.541   9.870   3.906 -0.7270 -0.3503  0.2717
  672MOL0     C92627   3.728   9.773   4.049 -0.7942  0.4804  0.3675
  672MOL0     C92628   3.829   9.878   4.005  0.1137 -1.0775 -0.1931
  672MOL0     O92629   3.902   9.941   4.107  0.6831  0.6940  0.7531
  672MOL0     C92630   4.015  10.003   4.059  0.0464  0.8736  0.9966
  672MOL0     C92631   4.044  10.140   4.091 -1.1446  1.0240 -0.1806
  672MOL0     C92632   4.170  10.201   4.062 -0.5448  0.9775 -0.2470
  672MOL0     C92633   4.268  10.122   4.007  0.3402 -0.1130 -0.6514
  672MOL0     O92634   4.379  10.192   3.963  0.2951  0.0327 -0.2207
  672MOL0     C92635   4.379  10.181   3.818 -0.1069  1.0453  0.2197
  672MOL0     C92636   4.516  10.224   3.760 -0.5338  0.2746 -0.3967
  672MOL0     C92637   4.639  10.158   3.832 -1.1499  0.2509  0.5518
  672MOL0     C92638   4.681  10.021   3.776  0.7896 -0.2582 -0.4212
  672MOL0     C92639   4.811   9.971   3.838  0.0950  0.5861  0.1293
  672MOL0     C92640   4.819   9.816   3.820 -0.0089  0.0316 -0.1971
  672MOL0     C92641   4.959   9.786   3.877 -0.5868  0.2552  0.1632
  672MOL0     C92642   4.995   9.638   3.870  0.6155  0.6985 -0.0134
  672MOL0    Cl92643   4.975   9.584   3.697 -0.0743 -0.0570 -0.3076
  672MOL0     C92644   4.246   9.989   3.969  0.5149 -0.0777 -0.5969
  672MOL0     C92645   4.122   9.927   3.997  0.1573 -0.5674 -0.3913
  672MOL0     O92646   3.848   9.886   3.884 -0.7129  0.2238  0.2162
  672MOL0     C92647   3.775   9.685   4.153  0.1894  0.1242 -0.6419
  672MOL0     C92648   3.686   9.602   4.222  0.0091  0.4970  1.0114
  672MOL0     N92649   3.023   9.341   4.686 -0.6315 -0.0080 -0.2261
  672MOL0     N92650   2.904   9.352   4.724 -0.2977 -0.0699 -0.0150
  672MOL0     C92651   2.720   9.658   5.522  0.4189  0.3169  0.1044
  672MOL0     C92652   2.676   9.602   5.642 -0.4120 -0.5382  0.6034
  672MOL0     C92653   2.504   9.247   5.871  0.9258 -0.1910  0.4331
  672MOL0     C92654   2.449   9.314   5.979  0.8547 -0.0300  0.6410
  672MOL0     C92655   2.387   9.242   6.075  0.2302  0.1697 -0.4351
  672MOL0     C92656   2.379   9.102   6.072 -0.5638 -0.8254 -0.1979
  672MOL0     O92657   2.318   9.039   6.176 -0.0810 -0.4915  0.2203
  672MOL0     C92658   2.221   8.942   6.140  0.6311  0.3900  0.0973
  672MOL0     C92659   2.220   8.844   6.266 -0.4368 -0.2392 -0.4276
  672MOL0     C92660   2.113   8.744   6.250  0.4394  0.3723  0.3795
  672MOL0     C92661   2.092   8.665   6.375  0.5873 -0.3822 -0.9429
  672MOL0     C92662   2.004   8.548   6.359 -0.0517  0.3260  1.1790
  672MOL0     C92663   1.934   8.454   6.347  0.3215  0.1402  0.2448
  672MOL0     C92664   2.431   9.042   5.951  0.5539 -0.0039 -0.2178
  672MOL0     C92665   2.490   9.107   5.849 -0.8124 -0.0171  1.4603
  672MOL0     C92666   2.527   9.036   5.721  0.6219 -0.2508 -0.5179
  672MOL0     H92667   2.448   9.378   5.507  0.9442 -1.1922 -0.1686
  672MOL0     H92668   2.512   9.493   5.301  1.7816  0.2228 -0.7596
  672MOL0     H92669   2.789   9.861   5.339 -2.3658  0.2623  1.8791
  672MOL0     H92670   2.622   9.844   5.302  0.9467  0.8319  0.1044
  672MOL0     H92671   2.703   9.945   5.123 -0.9713 -0.7488 -1.5221
  672MOL0     H92672   2.863   9.872   5.129  0.2461 -0.0238  0.0861
  672MOL0     H92673   2.765   9.662   5.044 -2.7389 -1.3236 -0.3859
  672MOL0     H92674   2.603   9.722   5.044  1.1579  0.1762 -1.8968
  672MOL0     H92675   2.693   9.919   4.896 -1.6838  0.5684 -1.5317
  672MOL0     H92676   2.835   9.823   4.874 -0.1264 -1.6476 -0.2145
  672MOL0     H92677   2.658   9.806   4.674  1.1368 -0.0518  1.3295
  672MOL0     H92678   2.542   9.736   4.791 -1.5966  0.5691 -3.0410
  672MOL0     H92679   2.817   9.621   4.732 -0.5369  2.4162  1.3283
  672MOL0     H92680   2.688   9.541   4.819  2.8160 -2.1621 -1.0130
  672MOL0     H92681   2.689   9.586   4.518  1.6871  2.4843  2.0604
  672MOL0     H92682   2.542   9.567   4.616 -0.6997 -2.2635  0.4015
  672MOL0     H92683   2.613   9.333   4.656  0.5171 -2.0728 -0.9595
  672MOL0     H92684   2.657   9.364   4.491  1.6603  3.5709 -1.4161
  672MOL0     H92685   2.884   9.355   4.400 -0.6385  2.5458  0.1952
  672MOL0     H92686   3.121   9.223   4.373 -0.8187  0.3856 -0.0428
  672MOL0     H92687   3.203   9.202   4.528 -2.0249 -0.6759  0.4717
  672MOL0     H92688   3.182   9.461   4.379 -1.6000  0.3125  2.8902
  672MOL0     H92689   3.261   9.429   4.530 -2.4685  3.7763 -0.1064
  672MOL0     H92690   3.390   9.240   4.397 -0.9283 -0.2461  0.5520
  672MOL0     H92691   3.317   9.297   4.259  2.5224 -2.2541  0.6552
  672MOL0     H92692   3.478   9.488   4.437 -2.2487  1.0510 -0.3843
  672MOL0     H92693   3.559   9.362   4.326  1.3819  2.6449 -2.7367
  672MOL0     H92694   3.407   9.670   4.044  0.8454 -0.1720 -1.5357
  672MOL0     H92695   3.531   9.821   3.809  1.0957 -0.0041 -0.1308
  672MOL0     H92696   3.594   9.965   3.893 -2.7599  1.0548  1.4963
  672MOL0     H92697   3.443   9.906   3.941 -0.9002 -1.2273  0.7074
  672MOL0     H92698   3.970  10.194   4.150 -1.4850  1.4833 -1.0142
  672MOL0     H92699   4.187  10.308   4.076 -1.3414  1.3493 -1.9360
  672MOL0     H92700   4.362  10.079   3.783 -2.3829  0.4690  2.6905
  672MOL0     H92701   4.295  10.239   3.779 -1.9092  0.0054  2.2950
  672MOL0     H92702   4.516  10.194   3.655  0.3567 -1.5706  0.0974
  672MOL0     H92703   4.528  10.333   3.763 -0.5148  0.3809 -2.4806
  672MOL0     H92704   4.638  10.161   3.942  0.3429  1.9920  0.5542
  672MOL0     H92705   4.729  10.215   3.807 -1.5197 -0.0327 -1.5981
  672MOL0     H92706   4.685  10.025   3.667  1.1978  0.1146 -0.3955
  672MOL0     H92707   4.604   9.946   3.799 -0.3082  0.8991 -0.1697
  672MOL0     H92708   4.898  10.018   3.790  0.3310 -0.7699 -0.8318
  672MOL0     H92709   4.806   9.987   3.946  0.5335  1.2701  0.0528
  672MOL0     H92710   4.803   9.786   3.716 -1.1260  2.6646 -0.8911
  672MOL0     H92711   4.739   9.759   3.869 -0.5511 -0.8623 -2.0456
  672MOL0     H92712   4.972   9.825   3.979 -0.9973 -0.7930  0.6329
  672MOL0     H92713   5.034   9.833   3.813 -0.1275 -0.6292  0.0233
  672MOL0     H92714   4.918   9.586   3.929  0.6887  1.4084  0.7269
  672MOL0     H92715   5.093   9.615   3.912  0.4229 -0.0228  0.0573
  672MOL0     H92716   4.305   9.920   3.909  1.1688  0.6134 -0.7609
  672MOL0     H92717   4.108   9.823   3.968 -5.3854  0.1796 -1.4581
  672MOL0     H92718   3.879   9.698   4.181  0.8738 -1.7589 -2.1458
  672MOL0     H92719   3.708   9.528   4.298  0.0987 -0.7973 -0.2096
  672MOL0     H92720   2.790   9.740   5.529  0.1055  0.5969 -0.0102
  672MOL0     H92721   2.723   9.652   5.726 -0.9838  1.6765 -0.3267
  672MOL0     H92722   2.473   9.417   6.003  4.0544 -0.7618  1.0226
  672MOL0     H92723   2.345   9.300   6.157  2.7318  4.4395 -1.8620
  672MOL0     H92724   2.127   8.997   6.132  0.9878  0.9078 -0.6383
  672MOL0     H92725   2.236   8.893   6.043 -1.2783  1.4137 -0.7681
  672MOL0     H92726   2.200   8.903   6.356  2.7797 -1.0137  0.9623
  672MOL0     H92727   2.322   8.805   6.277 -0.1873 -0.0747 -1.9609
  672MOL0     H92728   2.020   8.785   6.208 -1.0680  0.6495  3.6803
  672MOL0     H92729   2.148   8.672   6.176  0.5546 -2.4726  3.0047
  672MOL0     H92730   2.045   8.729   6.451  1.6155 -0.0567 -0.5669
  672MOL0     H92731   2.186   8.620   6.407 -0.0097 -0.6918  0.4485
  672MOL0     H92732   1.864   8.373   6.344  0.6139 -0.0873 -1.0007
  672MOL0     H92733   2.425   8.934   5.953 -0.5310  0.0508  1.7839
  672MOL0     H92734   2.536   9.096   5.631  4.1026 -1.9005 -1.4348
  672MOL0     H92735   2.617   8.976   5.733 -0.5420 -1.9980 -0.1946
  672MOL0     H92736   2.448   8.962   5.703  2.9655 -2.7609 -1.1220
  673MOL0     O92737  10.330   0.058   6.542  0.5155  0.0281  0.2713
  673MOL0     C92738  10.237   0.137   6.556 -0.4637  0.6542  0.8097
  673MOL0     O92739  10.248   0.250   6.637  0.6280  0.2949 -0.4125
  673MOL0     C92740  10.360   0.274   6.698 -0.5033  0.4655  0.2009
  673MOL0     C92741  10.432   0.378   6.646  0.9956 -0.7693 -0.2094
  673MOL0     C92742  10.543   0.423   6.710 -0.5225  0.3203 -0.4570
  673MOL0     C92743  10.600   0.343   6.816  1.6825 -0.3099 -1.1024
  673MOL0     O92744  10.717   0.388   6.870 -0.1975 -0.2091 -0.1477
  673MOL0     C92745  10.801   0.309   6.954 -0.4595 -0.5239  0.4163
  673MOL0     C92746  10.889   0.224   6.856 -0.3459  0.0561  0.6171
  673MOL0     C92747  11.023   0.281   6.786  1.0661  0.1255 -0.4728
  673MOL0     C92748  10.985   0.419   6.735  0.6412 -0.6195 -0.2314
  673MOL0     C92749  11.112   0.495   6.670  0.4968  1.0203  0.6923
  673MOL0     C92750  11.177   0.420   6.554 -0.4243  0.6675 -0.4643
  673MOL0     C92751  11.088   0.422   6.436  0.5999 -0.5321 -0.3586
  673MOL0     C92752  11.074   0.557   6.371  0.5961 -0.4450  0.5261
  673MOL0     N92753  11.208   0.603   6.325  0.1713  1.1968 -0.0293
  673MOL0     C92754  11.278   0.547   6.227  0.7830 -0.5416  0.1580
  673MOL0     C92755  11.402   0.615   6.229 -0.2650 -0.4206  0.1092
  673MOL0     C92756  11.513   0.572   6.147  0.4914 -0.2846 -0.8318
  673MOL0     C92757  11.572   0.438   6.187 -0.5153  0.7038  0.5711
  673MOL0     C92758  11.667   0.382   6.083 -0.5256  0.2502 -0.8352
  673MOL0     C92759  11.775   0.473   6.042  0.0233 -0.7456  0.5273
  673MOL0     O92760  11.867   0.389   5.975  0.1389 -0.5942 -0.3463
  673MOL0     C92761  11.988   0.426   5.921 -0.4008 -0.5302 -0.1919
  673MOL0     C92762  12.082   0.321   5.912  0.3384 -0.0961  0.4597
  673MOL0     C92763  12.210   0.353   5.857 -0.6241 -0.2328  0.0874
  673MOL0     C92764  12.312   0.231   5.859  0.9190 -0.9699  0.5786
  673MOL0     C92765  12.242   0.483   5.804 -0.3705 -0.1677  1.0465
  673MOL0     C92766  12.369   0.510   5.734  0.2869 -0.6268  0.3552
  673MOL0     O92767  12.406   0.426   5.630 -0.5498 -0.4721 -0.5062
  673MOL0     C92768  12.538   0.411   5.590 -0.0294 -0.6134  0.3972
  673MOL0     C92769  12.548   0.337   5.473 -0.1816 -0.6700 -0.5784
  673MOL0     C92770  12.667   0.311   5.420  0.2844 -0.3287  0.8547
  673MOL0     C92771  12.787   0.357   5.484  0.7110  0.1046 -0.1321
  673MOL0     O92772  12.903   0.337   5.415  0.2124  1.4177 -0.0997
  673MOL0     C92773  13.015   0.283   5.493 -0.0009 -0.0246  1.1866
  673MOL0     C92774  13.077   0.176   5.406 -0.0867 -0.6160 -0.2175
  673MOL0     C92775  13.208   0.126   5.486  0.5383  0.0343  0.7487
  673MOL0     C92776  13.289   0.031   5.405  0.2868  0.2496  0.1379
  673MOL0     C92777  13.387  -0.049   5.493  0.7288 -0.1123 -0.0566
  673MOL0     C92778  13.311  -0.131   5.589  0.0586 -0.2752  0.2287
  673MOL0     C92779  13.409  -0.233   5.661  0.4767  0.4116 -0.2693
  673MOL0     C92780  13.336  -0.367   5.695 -0.3756 -0.0658  0.1944
  673MOL0    Cl92781  13.226  -0.352   5.833  0.3640 -0.2022 -0.0539
  673MOL0     C92782  12.775   0.417   5.612  0.5115  0.0702 -0.8739
  673MOL0     C92783  12.647   0.440   5.667 -1.4314  0.4503 -0.2585
  673MOL0     O92784  12.426   0.613   5.775 -0.3146 -0.1640 -0.0241
  673MOL0     C92785  12.138   0.580   5.816 -0.5408 -0.6573 -0.3214
  673MOL0     C92786  12.014   0.548   5.873  0.1358  0.0621 -0.5109
  673MOL0     N92787  11.397   0.711   6.321 -0.0985 -0.4545  0.3571
  673MOL0     N92788  11.281   0.710   6.368  0.0516  0.1048 -0.5911
  673MOL0     C92789  10.532   0.221   6.856 -0.3068  0.3422  0.5635
  673MOL0     C92790  10.419   0.184   6.792  0.4517  0.0223 -0.3588
  673MOL0     C92791  10.107   0.131   6.486  0.1514 -0.0008 -0.9620
  673MOL0     C92792  10.035   0.248   6.462 -0.4733 -0.4965 -0.5148
  673MOL0     C92793   9.897   0.243   6.435 -0.5165 -0.0015 -0.8867
  673MOL0     C92794   9.822   0.124   6.428 -0.5401 -0.0868 -0.0654
  673MOL0     O92795   9.687   0.148   6.405 -0.1573 -0.3601 -0.7521
  673MOL0     C92796   9.595   0.036   6.402  0.1133  0.0808  0.5360
  673MOL0     C92797   9.566  -0.041   6.531  0.1928  0.4411  0.3092
  673MOL0     C92798   9.526   0.068   6.631 -0.3427  0.3066 -0.2326
  673MOL0     C92799   9.465   0.003   6.754 -0.1275  0.2881  0.5755
  673MOL0     C92800   9.421   0.109   6.840  1.2213  0.5184 -0.9741
  673MOL0     C92801   9.410   0.202   6.915 -0.5225 -0.7232  0.0292
  673MOL0     C92802   9.899   0.002   6.436  0.6654  0.3338  0.7445
  673MOL0     C92803  10.042  -0.000   6.462 -0.0719 -0.6401  0.0877
  673MOL0     C92804  10.106  -0.138   6.487 -0.3732 -0.0987  0.1039
  673MOL0     H92805  10.376   0.445   6.581  0.2174 -0.0650  1.1314
  673MOL0     H92806  10.583   0.518   6.677 -0.3587  0.5450  0.3892
  673MOL0     H92807  10.742   0.253   7.027 -0.7591 -0.9721 -0.1630
  673MOL0     H92808  10.867   0.374   7.013  0.6420  0.1225 -1.4369
  673MOL0     H92809  10.932   0.147   6.921 -2.8295 -2.8031 -0.8931
  673MOL0     H92810  10.816   0.177   6.789 -1.4146 -1.5032  2.7512
  673MOL0     H92811  11.100   0.303   6.860  0.8155  0.6933 -0.3778
  673MOL0     H92812  11.059   0.210   6.711 -0.1128 -0.4503 -0.5265
  673MOL0     H92813  10.899   0.417   6.667  0.1206  0.1794  0.3879
  673MOL0     H92814  10.950   0.484   6.815  2.2743 -0.8513  0.6965
  673MOL0     H92815  11.194   0.495   6.742 -0.0398 -2.7634  1.5447
  673MOL0     H92816  11.081   0.598   6.649 -3.6681  0.0946  1.3416
  673MOL0     H92817  11.274   0.464   6.528 -0.3729 -0.1128 -1.6563
  673MOL0     H92818  11.195   0.316   6.580  3.0524  1.6403  1.6494
  673MOL0     H92819  10.989   0.384   6.463 -0.4407  2.9175  1.3242
  673MOL0     H92820  11.144   0.359   6.366 -0.2757  1.6105 -3.2166
  673MOL0     H92821  11.002   0.546   6.289 -0.2146  1.3841  0.9408
  673MOL0     H92822  11.041   0.640   6.434 -0.0484  0.3674 -0.8262
  673MOL0     H92823  11.252   0.459   6.169 -0.3006 -0.0987 -0.0495
  673MOL0     H92824  11.598   0.640   6.141  0.2574  0.0008 -0.9427
  673MOL0     H92825  11.466   0.560   6.049 -0.7681  0.8071 -0.3978
  673MOL0     H92826  11.638   0.445   6.274  0.9922  1.9029 -0.5899
  673MOL0     H92827  11.491   0.371   6.215  0.9168 -2.4402 -2.0833
  673MOL0     H92828  11.716   0.293   6.124  1.6449  0.9048 -1.8784
  673MOL0     H92829  11.606   0.361   5.995 -1.2452 -0.3121 -0.2138
  673MOL0     H92830  11.739   0.562   5.989  4.1796  2.5729  2.6745
  673MOL0     H92831  11.819   0.521   6.131  3.0107 -0.8267 -0.7796
  673MOL0     H92832  12.044   0.229   5.955 -0.2371 -1.3220 -2.4469
  673MOL0     H92833  12.249   0.142   5.851 -0.2181 -0.6701  4.3577
  673MOL0     H92834  12.383   0.223   5.942  1.7902  0.2896 -0.0166
  673MOL0     H92835  12.368   0.220   5.765  0.7409 -3.3249  0.6790
  673MOL0     H92836  12.456   0.291   5.441  0.1037 -0.1229 -2.2759
  673MOL0     H92837  12.669   0.240   5.337  1.3796 -3.2051  3.1439
  673MOL0     H92838  13.079   0.371   5.502  2.1909 -1.5529  1.1143
  673MOL0     H92839  12.996   0.249   5.595 -0.5949  0.6022  1.2961
  673MOL0     H92840  13.007   0.093   5.388 -0.7834 -0.0518 -0.1750
  673MOL0     H92841  13.112   0.216   5.310  2.3732 -1.2986  0.3293
  673MOL0     H92842  13.160   0.081   5.573  0.1625 -1.1869 -0.0569
  673MOL0     H92843  13.269   0.211   5.520 -0.0379  0.6051  0.3791
  673MOL0     H92844  13.342   0.093   5.331 -0.0687  0.6339  0.1994
  673MOL0     H92845  13.235  -0.044   5.346  1.5439  0.8790 -1.9356
  673MOL0     H92846  13.449  -0.107   5.423  2.1808  0.1000  1.0004
  673MOL0     H92847  13.451   0.018   5.551 -1.8366  0.8237  1.8624
  673MOL0     H92848  13.239  -0.188   5.530  1.6316  0.0752 -2.1725
  673MOL0     H92849  13.252  -0.064   5.653 -1.2452 -0.0172 -1.1808
  673MOL0     H92850  13.459  -0.190   5.748  0.7463  2.6517 -1.4695
  673MOL0     H92851  13.490  -0.273   5.599  0.1548 -3.7200  1.6421
  673MOL0     H92852  13.412  -0.440   5.726 -1.4717 -0.0851  3.1156
  673MOL0     H92853  13.287  -0.412   5.609  2.1321 -0.5078 -1.0912
  673MOL0     H92854  12.864   0.459   5.658 -1.4320  4.6237 -0.7131
  673MOL0     H92855  12.635   0.481   5.767  0.0244 -0.7662  0.4367
  673MOL0     H92856  12.166   0.678   5.779  1.3075 -2.0588 -3.0091
  673MOL0     H92857  11.936   0.624   5.876  1.9978  2.0669 -0.1325
  673MOL0     H92858  10.575   0.155   6.930 -0.8471 -2.4449 -1.4627
  673MOL0     H92859  10.371   0.089   6.809  0.6832  0.2408  1.8427
  673MOL0     H92860  10.081   0.346   6.462  4.7356 -2.5823 -0.2917
  673MOL0     H92861   9.841   0.333   6.412 -2.0046 -0.4297  0.7856
  673MOL0     H92862   9.498   0.072   6.366  1.0682  0.2321 -2.0771
  673MOL0     H92863   9.635  -0.026   6.321  0.8280  2.6248 -1.1768
  673MOL0     H92864   9.660  -0.091   6.555  0.1423 -0.6195 -1.5549
  673MOL0     H92865   9.483  -0.112   6.519 -1.7947  2.8687 -1.2335
  673MOL0     H92866   9.617   0.122   6.659 -0.8422  0.9102  0.2308
  673MOL0     H92867   9.465   0.148   6.588 -1.7756 -0.7127 -0.1629
  673MOL0     H92868   9.530  -0.071   6.800  0.1665 -0.0508 -0.3658
  673MOL0     H92869   9.373  -0.048   6.722 -0.3659 -0.3791  2.2046
  673MOL0     H92870   9.391   0.271   6.995  1.2678 -1.1237  0.8393
  673MOL0     H92871   9.850  -0.095   6.435  1.6404 -0.1771  0.4304
  673MOL0     H92872  10.201  -0.150   6.434 -0.2396  1.0096  0.0674
  673MOL0     H92873  10.138  -0.151   6.591  1.1971 -1.1311 -0.4792
  673MOL0     H92874  10.041  -0.224   6.469  1.1870 -0.8788 -2.1530
  674MOL0     O92875   0.361   4.676   7.434  0.6471  0.7726  0.2528
  674MOL0     C92876   0.270   4.663   7.523 -0.6329 -0.0611  0.0106
  674MOL0     O92877   0.185   4.563   7.523 -0.2609  0.3668 -0.8790
  674MOL0     C92878   0.174   4.483   7.422 -0.2421  0.4821  0.8372
  674MOL0     C92879   0.239   4.369   7.425 -0.1377  0.9607  0.0968
  674MOL0     C92880   0.238   4.271   7.321  0.5657 -0.3502 -0.3421
  674MOL0     C92881   0.142   4.299   7.212 -0.2628  0.4870  0.1043
  674MOL0     O92882   0.132   4.203   7.119  0.4383  0.1175  0.2659
  674MOL0     C92883   0.134   4.237   6.980 -0.2948 -1.2413 -0.5659
  674MOL0     C92884   0.279   4.280   6.937  0.1408 -0.6201 -0.9156
  674MOL0     C92885   0.386   4.181   6.974  0.3527  0.1837  0.4637
  674MOL0     C92886   0.363   4.039   6.909 -0.9770 -0.4190 -0.2553
  674MOL0     C92887   0.498   3.960   6.906 -0.3833  0.7449  0.4435
  674MOL0     C92888   0.564   3.934   7.038  0.2203 -0.4030 -1.0074
  674MOL0     C92889   0.488   3.837   7.133  0.5815 -0.3593  0.5381
  674MOL0     C92890   0.576   3.785   7.244  0.1329  0.4163 -0.2808
  674MOL0     N92891   0.540   3.649   7.287 -0.2474 -0.8399  0.0994
  674MOL0     C92892   0.576   3.543   7.223  0.2170 -0.1097  0.3633
  674MOL0     C92893   0.500   3.448   7.274  0.2440  0.8737 -0.5560
  674MOL0     C92894   0.497   3.304   7.227  0.5910 -0.6054 -0.3689
  674MOL0     C92895   0.373   3.255   7.173 -0.3312 -0.0563 -0.3791
  674MOL0     C92896   0.374   3.101   7.152 -0.0853  0.2790  0.4452
  674MOL0     C92897   0.355   3.023   7.279 -1.1468 -0.3907  0.0578
  674MOL0     O92898   0.213   3.025   7.312 -0.1964  0.5823 -0.2731
  674MOL0     C92899   0.168   2.973   7.431  0.1997  0.1783 -0.4303
  674MOL0     C92900   0.227   2.882   7.514  0.3201 -0.2194  0.7416
  674MOL0     C92901   0.164   2.827   7.625 -0.3352  0.3922 -0.0332
  674MOL0     C92902   0.252   2.726   7.697 -0.5494 -0.2589  0.0804
  674MOL0     C92903   0.041   2.880   7.665 -0.2445 -0.6833 -0.0145
  674MOL0     C92904  -0.036   2.850   7.796 -0.3161  0.3632 -0.1486
  674MOL0     O92905  -0.117   2.953   7.843 -0.2007 -0.5809  0.0063
  674MOL0     C92906  -0.192   2.923   7.957  0.0125  0.1678  1.0248
  674MOL0     C92907  -0.144   2.938   8.088  0.6346  0.0609 -0.9587
  674MOL0     C92908  -0.236   2.917   8.196  0.1797  0.9325  0.4366
  674MOL0     C92909  -0.364   2.867   8.183 -0.3212 -0.0988  0.4996
  674MOL0     O92910  -0.454   2.872   8.285  0.2324 -0.0596 -0.3483
  674MOL0     C92911  -0.434   2.776   8.390 -0.2118 -0.6297 -0.0792
  674MOL0     C92912  -0.555   2.680   8.368  0.9128  0.0681 -0.2326
  674MOL0     C92913  -0.572   2.584   8.483  0.2866 -0.4965  0.4362
  674MOL0     C92914  -0.687   2.486   8.465  0.0229  0.8592 -0.3477
  674MOL0     C92915  -0.671   2.357   8.537  0.2844  0.0038  0.0498
  674MOL0     C92916  -0.637   2.236   8.445  0.1056 -1.0800  0.9890
  674MOL0     C92917  -0.636   2.104   8.530 -0.1573  0.2144 -0.3797
  674MOL0     C92918  -0.578   1.992   8.452  0.3357  0.0021  0.0485
  674MOL0    Cl92919  -0.395   1.984   8.453  0.2369 -0.4005  0.2998
  674MOL0     C92920  -0.414   2.852   8.049  0.0209  0.0373 -0.5195
  674MOL0     C92921  -0.330   2.882   7.944 -0.7553 -1.2007  0.7102
  674MOL0     O92922  -0.019   2.739   7.850  0.5738 -0.0618 -0.8699
  674MOL0     C92923  -0.026   2.978   7.586 -0.4263 -0.4717  0.0644
  674MOL0     C92924   0.038   3.029   7.468  0.2123  0.3939  0.5430
  674MOL0     N92925   0.408   3.506   7.352  0.6386  0.0673  0.1066
  674MOL0     N92926   0.430   3.626   7.367 -0.1785 -0.4471  0.4681
  674MOL0     C92927   0.081   4.425   7.203 -0.0279 -0.7571 -0.1712
  674MOL0     C92928   0.101   4.520   7.310 -0.2227  0.5694  0.2058
  674MOL0     C92929   0.260   4.754   7.637 -0.5053  0.2735  0.7382
  674MOL0     C92930   0.205   4.875   7.610  0.2897  0.0998 -0.6363
  674MOL0     C92931   0.186   4.962   7.714 -0.1185  0.1267  0.1107
  674MOL0     C92932   0.232   4.933   7.840  0.7017 -0.6262  0.0947
  674MOL0     O92933   0.229   5.039   7.926 -0.4797 -0.4894 -0.3208
  674MOL0     C92934   0.264   5.030   8.065  0.1416  0.0052  0.6045
  674MOL0     C92935   0.276   5.166   8.109  0.4996 -0.0551  0.0242
  674MOL0     C92936   0.159   5.258   8.078 -0.3157 -0.0474  0.0314
  674MOL0     C92937   0.126   5.353   8.194  1.4612  0.4009  0.7459
  674MOL0     C92938   0.063   5.269   8.295 -0.2844 -0.8934 -0.6432
  674MOL0     C92939   0.008   5.211   8.381 -0.5901 -0.7190 -0.1098
  674MOL0     C92940   0.289   4.806   7.876 -0.1246 -0.2040 -0.5662
  674MOL0     C92941   0.300   4.713   7.768 -1.0452 -0.6682  0.8267
  674MOL0     C92942   0.336   4.570   7.796  0.0753 -0.8003  0.4608
  674MOL0     H92943   0.299   4.358   7.515  1.0773  1.5551 -0.5955
  674MOL0     H92944   0.289   4.176   7.323  0.0022 -0.6618 -0.6998
  674MOL0     H92945   0.056   4.312   6.962 -2.3547 -3.2770 -0.4945
  674MOL0     H92946   0.095   4.150   6.927 -0.3056 -0.6772 -1.5092
  674MOL0     H92947   0.266   4.297   6.830 -0.0572 -1.6173 -1.0605
  674MOL0     H92948   0.311   4.371   6.989 -1.0201 -0.2611 -0.8088
  674MOL0     H92949   0.482   4.221   6.937  1.8746 -0.9002  2.9943
  674MOL0     H92950   0.389   4.170   7.083 -3.9398  1.9455  0.9473
  674MOL0     H92951   0.290   3.986   6.971 -0.6460  0.8473  1.3046
  674MOL0     H92952   0.339   4.043   6.803 -0.3683  2.5347 -0.3682
  674MOL0     H92953   0.575   4.014   6.850 -1.2581  1.2448 -0.3038
  674MOL0     H92954   0.472   3.865   6.857  1.2338  0.9779 -0.9551
  674MOL0     H92955   0.661   3.897   7.004  1.0528  1.6808 -1.0870
  674MOL0     H92956   0.584   4.029   7.088  3.2730 -1.9082  0.9368
  674MOL0     H92957   0.439   3.756   7.078 -0.0997  0.0592  0.5128
  674MOL0     H92958   0.396   3.884   7.167  0.2668 -0.3555 -0.2894
  674MOL0     H92959   0.677   3.780   7.204 -0.8505  0.0181 -2.8744
  674MOL0     H92960   0.576   3.851   7.332 -0.4830 -1.7724  1.4650
  674MOL0     H92961   0.654   3.537   7.147  1.1503 -1.0679  1.3599
  674MOL0     H92962   0.525   3.243   7.313  1.5860 -1.5764 -1.3506
  674MOL0     H92963   0.573   3.292   7.149  3.6692 -0.9123  2.4540
  674MOL0     H92964   0.291   3.281   7.240  2.9589  1.4148  3.4223
  674MOL0     H92965   0.357   3.303   7.076 -1.1825 -1.1279 -0.7865
  674MOL0     H92966   0.296   3.071   7.081 -0.6354 -0.5579  1.3797
  674MOL0     H92967   0.466   3.073   7.100 -1.1005 -0.5167 -0.9888
  674MOL0     H92968   0.381   2.917   7.266 -1.2017 -0.5027  0.8314
  674MOL0     H92969   0.415   3.064   7.360 -0.5363 -0.7301 -0.2188
  674MOL0     H92970   0.325   2.850   7.479  0.2696  2.3041 -2.1488
  674MOL0     H92971   0.231   2.701   7.802  3.2313 -2.2855  0.5366
  674MOL0     H92972   0.357   2.754   7.683 -1.1939  1.7676 -1.2274
  674MOL0     H92973   0.219   2.631   7.654 -4.3981  1.0939 -0.3119
  674MOL0     H92974  -0.042   2.971   8.106 -0.4381  3.7001 -0.7926
  674MOL0     H92975  -0.208   2.948   8.296  0.8911  1.0243  0.2143
  674MOL0     H92976  -0.336   2.728   8.392 -0.7973 -2.0191 -1.6293
  674MOL0     H92977  -0.452   2.822   8.487  0.8707  0.3599 -0.3365
  674MOL0     H92978  -0.638   2.751   8.355  0.8129  0.2559  1.2691
  674MOL0     H92979  -0.552   2.626   8.273 -2.6410  0.0576 -0.4560
  674MOL0     H92980  -0.585   2.627   8.583 -1.0537  1.2989 -0.4508
  674MOL0     H92981  -0.477   2.531   8.473  1.1732  1.4323 -3.6461
  674MOL0     H92982  -0.697   2.476   8.356  1.4212  2.6499 -0.6905
  674MOL0     H92983  -0.784   2.522   8.501  0.2022  1.1204 -0.1202
  674MOL0     H92984  -0.595   2.375   8.614  0.6239 -0.6740 -0.1095
  674MOL0     H92985  -0.761   2.316   8.584  0.6752 -0.3867  0.4666
  674MOL0     H92986  -0.545   2.269   8.397 -0.6658  0.9708  0.8089
  674MOL0     H92987  -0.715   2.222   8.369 -2.6410 -1.2541  3.6304
  674MOL0     H92988  -0.738   2.093   8.569 -0.7691  2.7379 -1.0540
  674MOL0     H92989  -0.577   2.125   8.620  1.4698 -0.6506 -1.2185
  674MOL0     H92990  -0.615   2.014   8.351  1.2173  2.7293  0.2477
  674MOL0     H92991  -0.618   1.903   8.500 -0.7193  0.1583 -0.4901
  674MOL0     H92992  -0.515   2.816   8.033 -0.8250  2.6176 -1.4803
  674MOL0     H92993  -0.360   2.886   7.840  0.7072 -2.8387  0.1724
  674MOL0     H92994  -0.122   3.017   7.618  0.7578 -0.1059  3.7116
  674MOL0     H92995  -0.006   3.116   7.421 -1.2291 -0.2304  0.7011
  674MOL0     H92996   0.039   4.470   7.114  0.1365 -0.3891 -0.0663
  674MOL0     H92997   0.056   4.617   7.292  2.1377  1.1550 -3.6926
  674MOL0     H92998   0.170   4.906   7.512  1.3805  0.8612 -0.7954
  674MOL0     H92999   0.141   5.060   7.702 -1.3703 -0.2385  1.5071
  674MOL0     H93000   0.188   4.995   8.135 -1.2464  1.7873  0.0661
  674MOL0     H93001   0.357   4.975   8.083  0.0940 -1.1090 -2.1416
  674MOL0     H93002   0.370   5.201   8.065  2.3189 -0.5412  3.1927
  674MOL0     H93003   0.290   5.167   8.218 -0.0192  5.1594  0.3204
  674MOL0     H93004   0.181   5.316   7.988 -0.0330 -1.3228 -0.7426
  674MOL0     H93005   0.073   5.202   8.039 -1.7204 -1.4627  4.5876
  674MOL0     H93006   0.075   5.445   8.164  0.8471  0.4443  1.8704
  674MOL0     H93007   0.227   5.389   8.213  2.0230 -0.6315 -0.1481
  674MOL0     H93008  -0.063   5.148   8.432 -0.5207 -0.0461  0.8491
  674MOL0     H93009   0.329   4.781   7.974  1.0289  1.2721 -0.6232
  674MOL0     H93010   0.255   4.500   7.771 -1.7910  1.8595 -1.4558
  674MOL0     H93011   0.430   4.542   7.747  0.5554 -0.9118  1.4294
  674MOL0     H93012   0.354   4.567   7.904  2.2342 -1.1289  0.1350
  675MOL0     O93013   5.801   6.169   5.428  0.0515  0.3812 -0.2836
  675MOL0     C93014   5.765   6.118   5.324 -0.0774 -0.0377 -0.3772
  675MOL0     O93015   5.775   6.181   5.197 -0.7860  0.6387  0.9394
  675MOL0     C93016   5.851   6.291   5.191  0.1867 -0.1398 -0.6725
  675MOL0     C93017   5.818   6.415   5.243  0.1845  0.6956 -0.5738
  675MOL0     C93018   5.899   6.533   5.227 -0.3512  0.8591 -0.4111
  675MOL0     C93019   6.022   6.525   5.166 -0.2092 -0.3593  0.0513
  675MOL0     O93020   6.096   6.640   5.162 -0.6041  0.6081  0.3750
  675MOL0     C93021   6.245   6.634   5.154  0.4697 -0.2508 -0.7840
  675MOL0     C93022   6.302   6.585   5.290  0.0027 -0.3738  0.2470
  675MOL0     C93023   6.460   6.596   5.292  0.8476  0.9287 -0.5346
  675MOL0     C93024   6.513   6.560   5.434 -0.4198  0.3236  0.8494
  675MOL0     C93025   6.648   6.616   5.464  0.1994 -0.3521 -0.2280
  675MOL0     C93026   6.748   6.572   5.366  0.4816 -0.5394 -0.3741
  675MOL0     C93027   6.868   6.663   5.343  0.5402  0.2704 -0.0370
  675MOL0     C93028   6.935   6.626   5.205 -0.4353  0.7921  0.3129
  675MOL0     N93029   7.032   6.734   5.173 -0.5031 -0.1141  0.6008
  675MOL0     C93030   7.005   6.854   5.093  0.9068  0.5816  0.6529
  675MOL0     C93031   7.110   6.936   5.112 -1.1369  0.4574  0.1694
  675MOL0     C93032   7.130   7.065   5.048  0.3143 -1.0108 -1.5146
  675MOL0     C93033   7.211   7.062   4.921  0.6319  0.3195 -0.0596
  675MOL0     C93034   7.218   7.185   4.839  0.0500 -0.8106 -0.7842
  675MOL0     C93035   7.313   7.172   4.721 -0.6020 -1.1664  0.3324
  675MOL0     O93036   7.322   7.308   4.656 -0.2415 -0.1020  0.0640
  675MOL0     C93037   7.330   7.330   4.523 -0.1466  0.6700 -0.4441
  675MOL0     C93038   7.316   7.465   4.490  0.2886 -0.7691  0.9083
  675MOL0     C93039   7.318   7.490   4.349 -1.6713 -0.4138 -0.2022
  675MOL0     C93040   7.303   7.629   4.296 -0.3359 -0.1365 -0.0528
  675MOL0     C93041   7.340   7.384   4.254  0.7634 -0.4384  0.6907
  675MOL0     C93042   7.343   7.399   4.111 -0.0072  0.4469 -0.0937
  675MOL0     O93043   7.268   7.310   4.034  1.0053 -0.2607  0.3311
  675MOL0     C93044   7.226   7.343   3.910  0.4742 -0.3490  1.0532
  675MOL0     C93045   7.092   7.345   3.890 -0.8877  0.3740 -0.2978
  675MOL0     C93046   7.041   7.363   3.760  0.4921  0.0540 -0.4331
  675MOL0     C93047   7.123   7.391   3.658  0.2368 -0.4858 -0.5609
  675MOL0     O93048   7.075   7.403   3.533 -0.1036  0.3726  0.2021
  675MOL0     C93049   6.948   7.334   3.493 -0.3843 -0.6895 -0.0268
  675MOL0     C93050   6.947   7.331   3.340  0.3596 -0.8076  0.3868
  675MOL0     C93051   6.862   7.218   3.291 -0.3934 -0.5077 -0.5910
  675MOL0     C93052   6.709   7.236   3.281  0.4640 -0.5810 -1.1484
  675MOL0     C93053   6.654   7.239   3.137 -0.3853  0.8064  0.8117
  675MOL0     C93054   6.700   7.359   3.060  0.0360 -0.4273  1.0033
  675MOL0     C93055   6.604   7.399   2.941 -0.1472 -0.4613  0.0188
  675MOL0     C93056   6.586   7.281   2.847 -0.6843 -0.1572 -0.3775
  675MOL0    Cl93057   6.490   7.324   2.705  0.3481  0.3161  0.3280
  675MOL0     C93058   7.262   7.401   3.683  0.8698  0.6168  0.8483
  675MOL0     C93059   7.312   7.377   3.806 -0.3722  0.8636 -0.1900
  675MOL0     O93060   7.410   7.493   4.062  0.1449  0.1575  0.2792
  675MOL0     C93061   7.341   7.255   4.299  0.0193  0.0512  0.1080
  675MOL0     C93062   7.347   7.227   4.433  1.1218 -0.5215 -0.5399
  675MOL0     N93063   7.195   6.871   5.193 -0.4079  0.5030  0.0780
  675MOL0     N93064   7.153   6.757   5.225  0.2022 -1.0686 -0.0961
  675MOL0     C93065   6.066   6.398   5.119 -1.0467 -0.4111 -0.4192
  675MOL0     C93066   5.981   6.288   5.126  0.9017  1.2275 -0.6006
  675MOL0     C93067   5.699   5.989   5.329 -0.2220  0.3626 -0.0861
  675MOL0     C93068   5.597   5.963   5.417  0.0135  0.6670  0.2916
  675MOL0     C93069   5.561   5.828   5.447 -0.1306 -0.2863 -0.1939
  675MOL0     C93070   5.618   5.724   5.381  0.6259  0.7798  1.2839
  675MOL0     O93071   5.579   5.598   5.430 -0.3142  0.5531 -0.4987
  675MOL0     C93072   5.667   5.484   5.390 -0.0756  0.2425 -0.4612
  675MOL0     C93073   5.579   5.350   5.381 -0.1163 -0.9763  0.2309
  675MOL0     C93074   5.665   5.225   5.358  0.4006  0.7921 -0.4007
  675MOL0     C93075   5.736   5.214   5.219  0.1616 -0.5035  0.6963
  675MOL0     C93076   5.813   5.090   5.226  0.7998 -0.6054  0.1169
  675MOL0     C93077   5.870   4.986   5.234 -0.1922  0.4112 -0.2676
  675MOL0     C93078   5.718   5.755   5.284 -0.0921  0.3610  0.6681
  675MOL0     C93079   5.762   5.890   5.260  0.1184  0.0479 -0.6352
  675MOL0     C93080   5.861   5.912   5.137  1.0359  0.0978  0.2173
  675MOL0     H93081   5.723   6.421   5.296 -0.8731  2.6533 -2.5507
  675MOL0     H93082   5.871   6.631   5.264 -2.6096  0.5941 -1.2548
  675MOL0     H93083   6.278   6.731   5.114 -0.7836 -0.4121 -2.2687
  675MOL0     H93084   6.280   6.574   5.070 -2.0799 -0.2470 -1.9366
  675MOL0     H93085   6.254   6.648   5.366 -2.3964  0.4608 -1.8072
  675MOL0     H93086   6.274   6.483   5.318  0.1044 -0.0423  1.6749
  675MOL0     H93087   6.495   6.534   5.208 -3.5290  2.1662 -3.6653
  675MOL0     H93088   6.476   6.701   5.268 -0.2250  1.5471  1.2618
  675MOL0     H93089   6.435   6.594   5.503 -3.0791 -3.0199 -0.2222
  675MOL0     H93090   6.522   6.451   5.434  0.6735  0.4087  0.5159
  675MOL0     H93091   6.678   6.603   5.569  1.8411  3.6545 -0.0385
  675MOL0     H93092   6.646   6.724   5.451  1.9365 -0.1821  0.6075
  675MOL0     H93093   6.795   6.482   5.404 -0.9204 -1.3155 -0.4199
  675MOL0     H93094   6.700   6.553   5.270 -0.9503  0.4908  0.1004
  675MOL0     H93095   6.946   6.648   5.418 -1.1980 -0.5117  1.7180
  675MOL0     H93096   6.832   6.766   5.346 -2.3245 -0.6377  0.3450
  675MOL0     H93097   6.986   6.530   5.210  1.3913  1.4466 -2.8570
  675MOL0     H93098   6.865   6.608   5.122 -1.4663  0.2300  1.2837
  675MOL0     H93099   6.924   6.878   5.025  3.5309  1.0118 -2.5317
  675MOL0     H93100   7.168   7.132   5.126 -0.1277 -1.5340 -0.8415
  675MOL0     H93101   7.035   7.109   5.014  2.2524  2.4524 -3.0375
  675MOL0     H93102   7.312   7.053   4.962 -0.2527 -0.4810  2.1022
  675MOL0     H93103   7.168   6.981   4.862  0.8412  1.7026 -2.2482
  675MOL0     H93104   7.114   7.200   4.810 -0.4410 -3.7711 -0.9125
  675MOL0     H93105   7.260   7.265   4.901  2.8432 -2.5630 -0.2372
  675MOL0     H93106   7.416   7.157   4.754  0.8198  2.7139 -1.6459
  675MOL0     H93107   7.279   7.085   4.665  1.7712 -2.2907  0.5635
  675MOL0     H93108   7.307   7.537   4.570  0.7865 -0.7498  0.9532
  675MOL0     H93109   7.273   7.687   4.384 -2.6127 -2.8821  1.1651
  675MOL0     H93110   7.219   7.629   4.225 -1.2621 -2.7528  0.8878
  675MOL0     H93111   7.393   7.672   4.252 -2.4323  1.9335 -2.6424
  675MOL0     H93112   7.022   7.322   3.969 -2.0970 -1.9667 -1.9449
  675MOL0     H93113   6.935   7.341   3.747 -0.2010  3.4249 -1.4692
  675MOL0     H93114   6.951   7.233   3.535  0.9200  0.0185  1.6787
  675MOL0     H93115   6.856   7.371   3.538 -1.0508 -0.2228 -1.6994
  675MOL0     H93116   6.910   7.426   3.299 -0.5519 -0.8101  1.1822
  675MOL0     H93117   7.049   7.329   3.299  1.2450 -3.0567  2.5060
  675MOL0     H93118   6.875   7.131   3.356 -0.2050  1.1666  1.7241
  675MOL0     H93119   6.904   7.193   3.194  2.0846 -0.5035  0.4227
  675MOL0     H93120   6.669   7.327   3.325  0.3454 -1.4739  0.6819
  675MOL0     H93121   6.660   7.151   3.331  2.0310 -0.0017  1.5873
  675MOL0     H93122   6.701   7.153   3.088 -1.3512  0.8557 -0.2409
  675MOL0     H93123   6.545   7.232   3.132 -0.2458 -2.2928 -0.1783
  675MOL0     H93124   6.803   7.344   3.028  0.0865  1.2998  0.2739
  675MOL0     H93125   6.706   7.451   3.118  2.3749  0.9166 -1.1855
  675MOL0     H93126   6.648   7.482   2.885 -0.5942 -0.2342 -0.0068
  675MOL0     H93127   6.506   7.435   2.974  1.4541  2.6176  1.9242
  675MOL0     H93128   6.537   7.193   2.888 -2.0262 -0.6374 -2.8115
  675MOL0     H93129   6.687   7.255   2.811  0.9808  2.0829  2.2641
  675MOL0     H93130   7.330   7.413   3.599  0.5550  0.8879  0.6279
  675MOL0     H93131   7.416   7.392   3.833  0.6010 -2.8919 -1.2296
  675MOL0     H93132   7.346   7.168   4.234 -0.6426  0.1415 -0.0754
  675MOL0     H93133   7.350   7.121   4.456  1.6629 -0.3112  0.4120
  675MOL0     H93134   6.161   6.397   5.067 -0.4193 -1.0416  0.6903
  675MOL0     H93135   6.006   6.187   5.093 -0.1384  0.9765 -0.6687
  675MOL0     H93136   5.547   6.047   5.465 -1.2202 -0.5072  1.1733
  675MOL0     H93137   5.487   5.818   5.526  1.1936  0.1435  1.1413
  675MOL0     H93138   5.697   5.497   5.285  0.8415  1.5885 -0.0577
  675MOL0     H93139   5.745   5.477   5.466 -1.0915  1.0849  0.6899
  675MOL0     H93140   5.504   5.355   5.301  2.1322 -1.3909 -2.0250
  675MOL0     H93141   5.526   5.326   5.473  3.2105 -3.6429  1.6507
  675MOL0     H93142   5.745   5.227   5.433 -0.5893  0.5851  0.6785
  675MOL0     H93143   5.590   5.146   5.364 -2.8910  3.7266  2.0088
  675MOL0     H93144   5.812   5.290   5.200  0.7138 -1.3717 -0.6622
  675MOL0     H93145   5.662   5.203   5.140  1.1971 -3.2929 -0.0138
  675MOL0     H93146   5.929   4.896   5.242  0.4897  1.0127  2.6926
  675MOL0     H93147   5.766   5.677   5.226 -2.1841  0.6460 -1.6076
  675MOL0     H93148   5.937   5.987   5.163  0.6247  1.3707 -1.9964
  675MOL0     H93149   5.909   5.819   5.104 -0.9563 -1.2766  1.0130
  675MOL0     H93150   5.805   5.953   5.053 -0.0273  0.5748  1.1302
  676MOL0     O93151   3.250   5.264   0.901  0.3199 -0.2583 -0.5470
  676MOL0     C93152   3.196   5.184   0.829 -0.8646  0.0218  0.2628
  676MOL0     O93153   3.193   5.052   0.860 -0.3136 -0.1512  1.4053
  676MOL0     C93154   3.288   5.001   0.943 -0.5548  0.1609 -0.1979
  676MOL0     C93155   3.292   5.031   1.080 -0.7074  1.0514  0.4616
  676MOL0     C93156   3.379   4.959   1.166 -0.1945  0.4367 -0.2858
  676MOL0     C93157   3.480   4.874   1.108  0.4925  0.8570 -0.6218
  676MOL0     O93158   3.583   4.816   1.170 -0.4051  0.5417 -0.5929
  676MOL0     C93159   3.569   4.734   1.289 -0.2158  0.6580  0.2807
  676MOL0     C93160   3.675   4.633   1.311 -0.0584 -0.3831 -0.3217
  676MOL0     C93161   3.704   4.617   1.451  0.0174  0.0396 -0.0247
  676MOL0     C93162   3.829   4.530   1.479  1.5858  0.2128 -0.1433
  676MOL0     C93163   3.845   4.468   1.623  0.5536  0.0263 -0.2910
  676MOL0     C93164   3.949   4.359   1.621  0.0315  1.0494 -0.2576
  676MOL0     C93165   3.968   4.323   1.765 -0.1218 -0.6488 -0.0381
  676MOL0     C93166   3.832   4.280   1.830 -0.2986 -0.1651  0.2529
  676MOL0     N93167   3.862   4.214   1.958  0.4628  0.6789 -0.1207
  676MOL0     C93168   3.942   4.268   2.065 -0.3736  0.8973  0.1758
  676MOL0     C93169   3.958   4.172   2.161 -0.4025 -0.2169  0.6518
  676MOL0     C93170   4.032   4.191   2.292 -0.4648  0.2855 -0.6715
  676MOL0     C93171   4.176   4.260   2.273  0.5503 -0.2523  0.2384
  676MOL0     C93172   4.217   4.333   2.397 -0.3555 -0.5821 -0.1144
  676MOL0     C93173   4.365   4.373   2.396 -0.6545  0.2812  0.1802
  676MOL0     O93174   4.382   4.470   2.290  0.3277 -0.1051 -0.0872
  676MOL0     C93175   4.507   4.505   2.241 -0.6151  0.3814 -0.5411
  676MOL0     C93176   4.494   4.595   2.139  0.6493  0.0369  0.1033
  676MOL0     C93177   4.611   4.654   2.089 -0.9953 -0.7364  0.3288
  676MOL0     C93178   4.586   4.750   1.975  0.4343 -0.9742 -0.0050
  676MOL0     C93179   4.738   4.613   2.140 -0.5523  0.5655 -0.5286
  676MOL0     C93180   4.877   4.667   2.094  1.0004  0.5945  0.4061
  676MOL0     O93181   4.985   4.614   2.162  0.1085  0.2056  0.0160
  676MOL0     C93182   5.104   4.611   2.102  0.2532 -0.5551 -0.4678
  676MOL0     C93183   5.220   4.664   2.163  0.1381  1.1793 -0.0055
  676MOL0     C93184   5.344   4.665   2.095  0.0574  0.0368  0.0797
  676MOL0     C93185   5.352   4.626   1.958  0.3231  0.0950  0.1423
  676MOL0     O93186   5.459   4.642   1.872 -0.7011  0.1308  0.2569
  676MOL0     C93187   5.583   4.684   1.934 -0.5998 -0.5115 -0.3024
  676MOL0     C93188   5.685   4.654   1.824  0.0761 -0.5561  0.1380
  676MOL0     C93189   5.819   4.739   1.826  0.3147 -0.6725  0.4655
  676MOL0     C93190   5.929   4.709   1.732  0.0434 -0.4618  0.0792
  676MOL0     C93191   5.998   4.575   1.749 -0.1672  0.0009 -0.6457
  676MOL0     C93192   6.102   4.562   1.861  0.1542 -0.9713 -0.0271
  676MOL0     C93193   6.220   4.636   1.820 -0.8970 -0.9350  0.0567
  676MOL0     C93194   6.343   4.639   1.919 -1.2644 -0.5470  0.1338
  676MOL0    Cl93195   6.305   4.684   2.082 -0.0493  0.1355 -0.1704
  676MOL0     C93196   5.230   4.581   1.895 -0.9692  0.2558 -0.3136
  676MOL0     C93197   5.113   4.578   1.965  0.8022  0.7457  0.7623
  676MOL0     O93198   4.880   4.740   2.000  0.5334  0.5756 -0.2174
  676MOL0     C93199   4.742   4.514   2.244 -0.1848 -0.5022 -0.2357
  676MOL0     C93200   4.625   4.468   2.302  0.2703  0.4637  0.1848
  676MOL0     N93201   3.880   4.069   2.122 -0.3337 -0.2379 -1.1931
  676MOL0     N93202   3.823   4.088   2.008 -0.1927 -0.6781  0.5015
  676MOL0     C93203   3.476   4.845   0.974 -0.2447  0.3849  0.0663
  676MOL0     C93204   3.378   4.897   0.890 -0.8992 -0.7164 -0.5936
  676MOL0     C93205   3.130   5.238   0.711  0.1934 -0.4735 -1.0447
  676MOL0     C93206   3.069   5.359   0.722 -0.9251 -1.1728 -0.2015
  676MOL0     C93207   2.985   5.412   0.622  0.2638  0.7437 -0.9119
  676MOL0     C93208   2.975   5.340   0.500 -0.0224 -0.2297 -0.5983
  676MOL0     O93209   2.911   5.398   0.393 -0.1419 -0.1018  0.2724
  676MOL0     C93210   2.773   5.373   0.368 -0.0023  1.1472 -0.3958
  676MOL0     C93211   2.740   5.359   0.215  0.0106 -0.1528 -0.4126
  676MOL0     C93212   2.654   5.464   0.139  0.5125  0.6572  0.8769
  676MOL0     C93213   2.502   5.464   0.163  0.3600  0.1200  0.2917
  676MOL0     C93214   2.443   5.559   0.070  0.7729  0.5204 -0.5179
  676MOL0     C93215   2.403   5.647   0.002  0.2788 -0.1538 -0.2956
  676MOL0     C93216   3.045   5.229   0.474 -0.6074  1.4386 -0.8300
  676MOL0     C93217   3.125   5.176   0.584 -0.5497  0.8589 -0.2670
  676MOL0     C93218   3.185   5.039   0.567  0.5696  0.2618 -0.2644
  676MOL0     H93219   3.220   5.098   1.126 -1.8765 -0.2447  0.5582
  676MOL0     H93220   3.373   4.973   1.274 -1.1319  3.6875 -0.6513
  676MOL0     H93221   3.470   4.687   1.284 -0.1435  0.5767 -0.7726
  676MOL0     H93222   3.579   4.813   1.363  2.7241 -0.1274  0.8159
  676MOL0     H93223   3.645   4.538   1.266  1.4207  0.8491 -4.3319
  676MOL0     H93224   3.767   4.662   1.261  0.1198 -1.7093 -0.8073
  676MOL0     H93225   3.727   4.719   1.483 -1.2012  1.8977 -4.2743
  676MOL0     H93226   3.611   4.578   1.493  0.2213 -0.0319  0.3684
  676MOL0     H93227   3.829   4.442   1.414 -4.8917 -2.3252  2.3436
  676MOL0     H93228   3.916   4.593   1.459  1.5573  0.2900 -0.0252
  676MOL0     H93229   3.742   4.438   1.646  0.0718 -0.1986 -2.5106
  676MOL0     H93230   3.871   4.553   1.687  2.0574 -1.5067  1.1999
  676MOL0     H93231   3.906   4.276   1.563  1.3068  1.6897 -2.2602
  676MOL0     H93232   4.039   4.385   1.563  0.6488 -0.6194 -0.1161
  676MOL0     H93233   4.023   4.405   1.813 -1.2393  0.7424 -1.0201
  676MOL0     H93234   4.021   4.232   1.789 -0.7145 -0.7503  0.9247
  676MOL0     H93235   3.775   4.372   1.845 -1.8176 -0.5023 -2.7797
  676MOL0     H93236   3.766   4.225   1.762 -0.4273  0.8033 -0.4067
  676MOL0     H93237   3.992   4.364   2.064  3.0130 -0.7347 -1.6231
  676MOL0     H93238   4.048   4.091   2.335  1.6938 -0.2374 -2.5017
  676MOL0     H93239   3.976   4.254   2.362 -0.5860 -1.3404  0.7833
  676MOL0     H93240   4.253   4.185   2.252  0.2466 -0.2978 -0.8036
  676MOL0     H93241   4.176   4.323   2.183  0.3572 -0.7885 -0.1477
  676MOL0     H93242   4.159   4.425   2.406  0.8139  0.1737  0.0015
  676MOL0     H93243   4.204   4.267   2.483 -1.0544 -2.3743 -1.5197
  676MOL0     H93244   4.396   4.413   2.493  2.4361  0.4087 -0.7716
  676MOL0     H93245   4.422   4.281   2.386 -1.3232 -0.0814 -0.3767
  676MOL0     H93246   4.396   4.627   2.107 -0.7053  0.5287  4.2089
  676MOL0     H93247   4.555   4.849   2.009 -0.4198 -0.5373 -1.9333
  676MOL0     H93248   4.505   4.718   1.908 -0.3491 -1.0469  0.9426
  676MOL0     H93249   4.670   4.763   1.907 -0.0770  0.7259 -0.3665
  676MOL0     H93250   5.211   4.693   2.267 -0.4191  2.1312 -0.3050
  676MOL0     H93251   5.423   4.713   2.153 -0.9227  1.9507 -0.0897
  676MOL0     H93252   5.581   4.792   1.954 -2.0822 -0.3986 -0.9025
  676MOL0     H93253   5.609   4.628   2.024  2.5015  1.9141  0.5077
  676MOL0     H93254   5.713   4.549   1.834  1.4245 -0.0552  2.5184
  676MOL0     H93255   5.623   4.675   1.736 -0.9030 -0.2701  0.8728
  676MOL0     H93256   5.864   4.724   1.924  1.9254 -0.0294 -0.1548
  676MOL0     H93257   5.794   4.845   1.819  1.0936 -0.4495  0.9465
  676MOL0     H93258   6.003   4.788   1.748  0.5669 -0.8799 -0.2579
  676MOL0     H93259   5.888   4.712   1.630 -1.0037 -1.9590  0.4296
  676MOL0     H93260   5.920   4.498   1.758  1.4496 -1.4915  2.0679
  676MOL0     H93261   6.055   4.558   1.657  1.9564  3.8411 -0.2242
  676MOL0     H93262   6.126   4.457   1.883  1.7340 -0.5773  0.2465
  676MOL0     H93263   6.061   4.609   1.951  0.5406  1.1880 -0.9333
  676MOL0     H93264   6.188   4.740   1.819  2.7429  0.3407  0.4276
  676MOL0     H93265   6.264   4.612   1.723 -2.0309  1.7762 -1.2099
  676MOL0     H93266   6.420   4.709   1.887 -0.1509 -0.9562  1.8045
  676MOL0     H93267   6.379   4.536   1.919 -0.6917 -0.3532 -0.6349
  676MOL0     H93268   5.240   4.548   1.792  1.2672  1.6510 -0.6312
  676MOL0     H93269   5.023   4.544   1.915  1.5040 -4.3060  2.3711
  676MOL0     H93270   4.828   4.485   2.303  0.1718  1.8860  0.5143
  676MOL0     H93271   4.625   4.405   2.390 -1.2746  1.0351  0.6407
  676MOL0     H93272   3.551   4.777   0.935 -1.6601 -1.1863  0.0058
  676MOL0     H93273   3.373   4.865   0.786 -0.1752  2.0793 -1.5786
  676MOL0     H93274   3.078   5.408   0.819 -0.6521  2.7072 -2.0141
  676MOL0     H93275   2.921   5.495   0.650 -0.8091 -1.4936  4.5432
  676MOL0     H93276   2.753   5.282   0.426  5.1774 -1.0410 -1.5020
  676MOL0     H93277   2.706   5.446   0.414 -1.9789  0.0694 -1.4235
  676MOL0     H93278   2.701   5.258   0.202 -0.6062  0.0494 -0.2178
  676MOL0     H93279   2.832   5.352   0.158 -1.5256 -0.9908 -2.9262
  676MOL0     H93280   2.695   5.563   0.162 -0.5755  1.6866 -1.3492
  676MOL0     H93281   2.679   5.455   0.033  3.3538 -1.2150  1.6006
  676MOL0     H93282   2.472   5.482   0.266 -0.3815 -0.9205  0.2757
  676MOL0     H93283   2.467   5.360   0.154  0.1673  0.3552 -2.5698
  676MOL0     H93284   2.366   5.737  -0.043 -0.2667 -0.8422 -1.2688
  676MOL0     H93285   3.035   5.177   0.379  0.8796 -0.7144  0.1034
  676MOL0     H93286   3.174   4.997   0.466  2.0968  0.6041 -0.5944
  676MOL0     H93287   3.290   5.039   0.598  0.8560 -0.6531 -1.1588
  676MOL0     H93288   3.127   4.972   0.631  2.2912 -1.4495 -0.3913
  677MOL0     O93289   0.890   7.255   0.827 -0.0616  0.3553 -0.6455
  677MOL0     C93290   0.943   7.215   0.721 -0.0121 -0.5021 -0.2571
  677MOL0     O93291   1.072   7.154   0.719  0.1657  0.9162 -0.1808
  677MOL0     C93292   1.133   7.125   0.839 -0.5332 -0.2587  0.6199
  677MOL0     C93293   1.146   6.995   0.887 -0.3646  0.3214  0.2770
  677MOL0     C93294   1.224   6.977   1.001  0.2066 -0.3401 -0.4466
  677MOL0     C93295   1.285   7.088   1.063 -1.5357 -0.4472 -0.7550
  677MOL0     O93296   1.338   7.046   1.181  0.2731  0.0353  0.8372
  677MOL0     C93297   1.347   7.119   1.299  0.0126 -0.5930 -0.4946
  677MOL0     C93298   1.340   7.030   1.416 -0.0508  0.5742  0.5236
  677MOL0     C93299   1.393   7.116   1.542 -0.4174  0.1649  0.3601
  677MOL0     C93300   1.283   7.212   1.588  0.0074  0.0290  0.2440
  677MOL0     C93301   1.323   7.307   1.697 -0.3668 -0.2098  0.3903
  677MOL0     C93302   1.209   7.398   1.741  0.3036 -0.4357  0.3368
  677MOL0     C93303   1.190   7.519   1.645 -0.6916  0.5513 -0.4630
  677MOL0     C93304   1.045   7.580   1.661 -0.6616 -0.3696  0.6472
  677MOL0     N93305   1.016   7.602   1.800  0.1576 -0.0875  0.3906
  677MOL0     C93306   0.895   7.617   1.858 -0.2365 -0.1311 -0.2841
  677MOL0     C93307   0.907   7.668   1.983 -0.5079  0.5791  0.2756
  677MOL0     C93308   0.802   7.691   2.084  1.1551  0.3015  0.3812
  677MOL0     C93309   0.817   7.626   2.222 -0.2137 -0.2492 -0.0284
  677MOL0     C93310   0.785   7.477   2.238  0.2447 -0.4809 -0.2138
  677MOL0     C93311   0.903   7.386   2.188  0.7146  0.3627  0.8955
  677MOL0     O93312   0.864   7.309   2.073 -0.0728 -1.1291 -0.0907
  677MOL0     C93313   0.953   7.233   2.013 -0.2992  0.2226  0.4646
  677MOL0     C93314   0.903   7.162   1.905 -0.0447 -1.2382  0.1163
  677MOL0     C93315   0.974   7.058   1.842 -0.4841  0.8168  0.5092
  677MOL0     C93316   0.902   6.992   1.723 -0.5885  0.1758  0.0855
  677MOL0     C93317   1.112   7.035   1.877  0.8796 -0.4008  0.3601
  677MOL0     C93318   1.189   6.921   1.817  0.0357 -0.1835  0.1614
  677MOL0     O93319   1.169   6.891   1.690 -0.4620  0.0844  0.4307
  677MOL0     C93320   1.231   6.786   1.630 -0.1792  0.4354  0.1835
  677MOL0     C93321   1.361   6.756   1.633 -0.4666 -0.1877 -0.0037
  677MOL0     C93322   1.419   6.655   1.560 -0.1360 -0.2698  0.1592
  677MOL0     C93323   1.343   6.571   1.479 -0.7323 -0.8949  0.4593
  677MOL0     O93324   1.409   6.468   1.410  0.0198  0.2348  0.0375
  677MOL0     C93325   1.358   6.343   1.453 -0.0856  0.5625  0.2701
  677MOL0     C93326   1.290   6.259   1.344  0.1152 -1.0554 -0.2989
  677MOL0     C93327   1.395   6.230   1.237 -0.6276 -0.0738 -0.1603
  677MOL0     C93328   1.348   6.116   1.143 -0.4991 -0.3907 -0.0696
  677MOL0     C93329   1.452   6.085   1.041 -0.7571 -0.2122 -0.1573
  677MOL0     C93330   1.426   5.963   0.943  0.2856 -0.1900  0.1972
  677MOL0     C93331   1.272   5.934   0.918 -0.0584  0.9167 -0.3617
  677MOL0     C93332   1.255   5.817   0.821 -0.6739 -0.4492 -0.2788
  677MOL0    Cl93333   1.314   5.657   0.892 -0.1287 -0.5610 -0.6041
  677MOL0     C93334   1.204   6.579   1.495 -0.5502  0.1846 -0.3168
  677MOL0     C93335   1.149   6.692   1.562  0.0193  0.2456 -0.5644
  677MOL0     O93336   1.269   6.873   1.888 -0.3264  0.5613 -0.1243
  677MOL0     C93337   1.164   7.107   1.985  0.4545 -0.0228  0.7778
  677MOL0     C93338   1.086   7.207   2.052 -0.6918  0.4925 -0.0223
  677MOL0     N93339   1.049   7.695   1.999 -0.5312  0.1706 -0.2148
  677MOL0     N93340   1.109   7.664   1.892  0.2553 -0.1449  0.3846
  677MOL0     C93341   1.261   7.216   1.026 -0.1274 -0.4154  0.9302
  677MOL0     C93342   1.191   7.234   0.903 -0.3906  0.2896 -0.4177
  677MOL0     C93343   0.885   7.248   0.584  0.2950 -0.3934  0.5700
  677MOL0     C93344   0.881   7.136   0.503 -0.0424  0.8463  0.7018
  677MOL0     C93345   0.798   7.137   0.389 -0.3983 -0.1444 -0.0974
  677MOL0     C93346   0.727   7.252   0.356 -0.9461  0.0521  0.1186
  677MOL0     O93347   0.649   7.257   0.247  0.6234 -0.5480  0.6699
  677MOL0     C93348   0.726   7.280   0.128  0.3783 -0.2661 -0.3735
  677MOL0     C93349   0.632   7.252   0.008 -0.1055 -0.5678 -0.3437
  677MOL0     C93350   0.545   7.381  -0.017  0.2288 -0.1186 -0.5350
  677MOL0     C93351   0.432   7.353  -0.102 -0.5797 -0.2089 -0.0661
  677MOL0     C93352   0.372   7.475  -0.144  0.8877 -0.0329 -0.2473
  677MOL0     C93353   0.315   7.580  -0.174 -0.4223  0.0335 -0.4879
  677MOL0     C93354   0.744   7.367   0.429 -0.5835  0.5663  0.3791
  677MOL0     C93355   0.818   7.365   0.549 -0.1797  0.0253 -0.2476
  677MOL0     C93356   0.822   7.487   0.636  1.1991  1.0361 -0.1151
  677MOL0     H93357   1.103   6.911   0.833 -2.2091  0.3057  1.6946
  677MOL0     H93358   1.231   6.881   1.052  2.1588 -0.7599 -1.3925
  677MOL0     H93359   1.269   7.194   1.313  1.3031  0.7342 -0.0937
  677MOL0     H93360   1.436   7.182   1.291 -1.5115  2.1030  1.7423
  677MOL0     H93361   1.243   6.981   1.428  0.4599 -0.0640  2.4369
  677MOL0     H93362   1.401   6.944   1.387  1.2942  1.7341 -0.2242
  677MOL0     H93363   1.426   7.047   1.620 -2.0170  1.0322  1.8857
  677MOL0     H93364   1.482   7.168   1.506 -0.4745 -1.0163 -1.6079
  677MOL0     H93365   1.256   7.282   1.508 -3.2953 -1.2192  0.0814
  677MOL0     H93366   1.191   7.159   1.616 -0.6270  0.9676 -0.0006
  677MOL0     H93367   1.397   7.379   1.660 -0.2174  0.3269  1.6912
  677MOL0     H93368   1.356   7.247   1.782 -1.2321 -1.2779 -0.0038
  677MOL0     H93369   1.112   7.348   1.752 -2.3874  3.6342 -2.3295
  677MOL0     H93370   1.230   7.445   1.838 -2.1837  1.7823 -0.0932
  677MOL0     H93371   1.199   7.490   1.540 -1.8640  2.5385 -1.1666
  677MOL0     H93372   1.267   7.591   1.675  0.6340 -1.7003  2.0406
  677MOL0     H93373   1.058   7.676   1.611  1.9172 -0.6098  0.7521
  677MOL0     H93374   0.967   7.522   1.610  0.4269 -1.1727 -0.1485
  677MOL0     H93375   0.797   7.597   1.816 -0.6393  1.5600 -0.2202
  677MOL0     H93376   0.709   7.650   2.042  2.4620  1.5080 -4.2767
  677MOL0     H93377   0.793   7.799   2.098 -1.4052  0.2519 -0.2176
  677MOL0     H93378   0.916   7.658   2.259  1.3928  0.3982 -4.2620
  677MOL0     H93379   0.747   7.684   2.284  1.5439 -0.1287  1.9709
  677MOL0     H93380   0.750   7.452   2.339 -1.6163  3.5369  0.3184
  677MOL0     H93381   0.699   7.450   2.176  0.2258 -2.8293  0.7080
  677MOL0     H93382   0.996   7.437   2.160  1.7862 -1.4181  1.0700
  677MOL0     H93383   0.918   7.308   2.264 -0.9573  0.7655  1.6809
  677MOL0     H93384   0.807   7.193   1.866  1.0304  0.7755 -1.0922
  677MOL0     H93385   0.952   7.020   1.630 -0.1843 -6.6061 -2.3566
  677MOL0     H93386   0.800   7.031   1.724  1.1846  5.8015 -2.0604
  677MOL0     H93387   0.908   6.883   1.715  0.4787  0.2890 -0.9015
  677MOL0     H93388   1.427   6.821   1.690  3.1199 -2.4652 -1.2602
  677MOL0     H93389   1.527   6.648   1.559 -0.1395 -1.2131  2.1968
  677MOL0     H93390   1.445   6.286   1.488 -0.5852  0.4585  1.4171
  677MOL0     H93391   1.302   6.350   1.547  1.7523  3.6929  1.3074
  677MOL0     H93392   1.244   6.167   1.383 -0.7331 -0.2518  0.6429
  677MOL0     H93393   1.213   6.324   1.301  0.4892 -1.1975 -1.1902
  677MOL0     H93394   1.490   6.197   1.280 -0.0332  0.5677 -0.9445
  677MOL0     H93395   1.420   6.321   1.182 -0.4689  0.6933  1.1375
  677MOL0     H93396   1.266   6.161   1.087  2.2411  2.8385 -1.8237
  677MOL0     H93397   1.310   6.029   1.198 -3.8124  3.1050  3.7893
  677MOL0     H93398   1.473   6.181   0.991  1.7785  0.7781  2.4854
  677MOL0     H93399   1.539   6.065   1.104  0.7545  0.6736 -1.8624
  677MOL0     H93400   1.460   5.869   0.988 -0.2505 -0.5862 -0.2187
  677MOL0     H93401   1.484   5.977   0.852  0.7915  1.8612  0.7783
  677MOL0     H93402   1.232   6.023   0.868 -0.9809  0.0959 -1.1051
  677MOL0     H93403   1.227   5.910   1.014 -0.2513  1.8033 -0.2207
  677MOL0     H93404   1.311   5.845   0.731  0.9897  3.1607  1.6910
  677MOL0     H93405   1.151   5.813   0.788 -0.3579 -1.4058 -1.2495
  677MOL0     H93406   1.137   6.519   1.433  1.1650 -0.3535 -1.7667
  677MOL0     H93407   1.042   6.705   1.554 -0.6934 -2.1239  3.0623
  677MOL0     H93408   1.264   7.078   2.018 -0.4193 -2.1751  1.7783
  677MOL0     H93409   1.140   7.270   2.123 -0.7961  1.9753 -1.2204
  677MOL0     H93410   1.307   7.296   1.084  0.3473  0.9170 -1.1920
  677MOL0     H93411   1.184   7.338   0.874  2.6525  0.2779 -1.5756
  677MOL0     H93412   0.933   7.044   0.528 -1.9552 -1.1675 -2.0430
  677MOL0     H93413   0.790   7.052   0.322  0.4202  0.4400 -0.9705
  677MOL0     H93414   0.777   7.377   0.124  0.3797 -0.1718  1.1306
  677MOL0     H93415   0.807   7.207   0.122  0.8957  0.3611 -1.2531
  677MOL0     H93416   0.574   7.163   0.036  1.4807 -1.5245  0.0285
  677MOL0     H93417   0.692   7.219  -0.077 -0.5967 -2.8548  0.1073
  677MOL0     H93418   0.491   7.407   0.075  1.5099  0.7429 -0.0074
  677MOL0     H93419   0.603   7.465  -0.054 -1.3122 -0.1990 -3.4041
  677MOL0     H93420   0.360   7.294  -0.044  1.6067 -2.3585  0.6188
  677MOL0     H93421   0.464   7.306  -0.195  1.3174  1.4543 -0.3310
  677MOL0     H93422   0.281   7.673  -0.214  1.3588  1.2978  0.7996
  677MOL0     H93423   0.697   7.453   0.383  0.3510  1.1339  0.4645
  677MOL0     H93424   0.782   7.574   0.584 -1.7693  0.1639  0.5203
  677MOL0     H93425   0.760   7.476   0.725 -1.1392  0.9322 -1.6865
  677MOL0     H93426   0.924   7.509   0.668  2.0405 -1.7595 -0.5902
  678MOL0     O93427   3.039   4.880   4.431  0.4448 -0.1329  0.3896
  678MOL0     C93428   2.917   4.883   4.453  0.6765 -0.5044  0.2592
  678MOL0     O93429   2.836   4.995   4.455  0.3770 -0.5622 -0.4509
  678MOL0     C93430   2.897   5.116   4.462  0.4551 -0.1053  0.0708
  678MOL0     C93431   2.993   5.159   4.374 -0.6967  0.4920  0.7013
  678MOL0     C93432   3.059   5.276   4.387 -0.0566  1.6776 -0.2333
  678MOL0     C93433   3.022   5.366   4.494  0.3683  0.4953  0.3141
  678MOL0     O93434   3.083   5.485   4.501  0.6779 -0.2320  0.0707
  678MOL0     C93435   3.171   5.518   4.610  0.0639  0.8287 -0.4936
  678MOL0     C93436   3.211   5.664   4.599 -0.9114  0.2602 -0.2933
  678MOL0     C93437   3.095   5.763   4.606  0.3102 -0.2153  0.3885
  678MOL0     C93438   3.114   5.864   4.712  0.2041 -0.3999 -0.4815
  678MOL0     C93439   2.972   5.915   4.758 -0.2627 -0.0323 -0.1032
  678MOL0     C93440   2.988   6.021   4.860  0.4832 -0.5185 -0.3785
  678MOL0     C93441   2.859   6.101   4.859  0.0495 -0.0334  0.4492
  678MOL0     C93442   2.861   6.209   4.962 -0.1163 -0.7764  0.6529
  678MOL0     N93443   2.744   6.307   4.954  0.5540  0.4780 -0.1379
  678MOL0     C93444   2.749   6.424   4.891  0.0592 -0.8534 -0.5400
  678MOL0     C93445   2.636   6.495   4.926 -0.0115 -0.3652 -0.7484
  678MOL0     C93446   2.636   6.654   4.915  0.6312  0.9178  0.0511
  678MOL0     C93447   2.517   6.722   4.978  1.0213 -0.1297  0.1338
  678MOL0     C93448   2.520   6.876   4.958  0.5268 -0.1201 -0.3818
  678MOL0     C93449   2.651   6.933   4.987 -0.2667 -0.9852 -0.5232
  678MOL0     O93450   2.636   7.080   5.010 -0.8414  0.5069 -0.2066
  678MOL0     C93451   2.635   7.162   4.899 -0.9595  0.3120 -0.6609
  678MOL0     C93452   2.710   7.140   4.785  0.2071 -0.1582  0.1780
  678MOL0     C93453   2.686   7.217   4.666 -0.8490  0.1733 -0.0494
  678MOL0     C93454   2.784   7.199   4.550 -0.1187 -0.7892  0.7479
  678MOL0     C93455   2.575   7.305   4.659  0.0271  0.2843 -0.7184
  678MOL0     C93456   2.544   7.388   4.540 -0.1357 -0.4991  0.7707
  678MOL0     O93457   2.485   7.514   4.564 -1.1919 -0.9582  0.0567
  678MOL0     C93458   2.444   7.588   4.453  0.4904  0.2096 -0.2957
  678MOL0     C93459   2.308   7.590   4.442 -0.0328  0.8491  0.0453
  678MOL0     C93460   2.244   7.663   4.342 -0.0580  0.0172  0.1791
  678MOL0     C93461   2.326   7.727   4.239  0.2737 -0.1034  0.1717
  678MOL0     O93462   2.250   7.793   4.141 -0.0637  0.3118  0.4466
  678MOL0     C93463   2.320   7.897   4.067 -0.1546  0.2870  0.5924
  678MOL0     C93464   2.211   7.980   3.988 -0.3522 -0.1216 -0.2204
  678MOL0     C93465   2.126   7.895   3.899 -0.0170 -0.9037  0.2274
  678MOL0     C93466   2.205   7.805   3.806  1.3529 -0.8146  0.0302
  678MOL0     C93467   2.286   7.883   3.705 -0.0180 -0.0629  0.2571
  678MOL0     C93468   2.394   7.796   3.637  0.7886  0.3839 -0.0045
  678MOL0     C93469   2.469   7.857   3.526  0.7443 -0.3896 -0.0049
  678MOL0     C93470   2.591   7.773   3.481  1.0864  0.4307  0.3359
  678MOL0    Cl93471   2.707   7.742   3.612  0.0649  0.3523 -0.3078
  678MOL0     C93472   2.467   7.711   4.246 -0.1393 -0.1256 -0.4726
  678MOL0     C93473   2.523   7.644   4.351  0.3721  0.8112  0.4962
  678MOL0     O93474   2.583   7.351   4.429  0.0417 -0.7668 -0.3699
  678MOL0     C93475   2.504   7.323   4.780  0.0782  0.0917 -0.6544
  678MOL0     C93476   2.525   7.244   4.894 -0.2233  0.3971 -0.2546
  678MOL0     N93477   2.560   6.424   5.017 -0.8869  0.0688  0.7784
  678MOL0     N93478   2.631   6.317   5.032 -0.7347 -0.2248 -0.1864
  678MOL0     C93479   2.931   5.311   4.592 -0.1807  0.4245  1.0761
  678MOL0     C93480   2.879   5.188   4.583 -0.4680 -0.9048  0.3672
  678MOL0     C93481   2.847   4.760   4.494 -0.5231  0.1298 -0.3194
  678MOL0     C93482   2.718   4.768   4.546  0.4942 -0.4013  0.1258
  678MOL0     C93483   2.640   4.660   4.584  0.2920 -0.8015 -0.3384
  678MOL0     C93484   2.701   4.536   4.567 -0.4836 -0.6525 -1.3776
  678MOL0     O93485   2.648   4.421   4.592 -0.8168  0.6231 -0.4032
  678MOL0     C93486   2.515   4.415   4.654 -0.4595  0.0852 -0.3620
  678MOL0     C93487   2.484   4.267   4.707 -0.2960  1.0720 -1.0078
  678MOL0     C93488   2.559   4.169   4.623 -0.6493  0.6783 -0.3169
  678MOL0     C93489   2.536   4.021   4.668  0.9481 -0.1591 -0.3227
  678MOL0     C93490   2.608   4.004   4.789  1.7401 -0.3322  0.0958
  678MOL0     C93491   2.653   4.011   4.898 -1.2077  0.5791  0.3875
  678MOL0     C93492   2.832   4.522   4.523 -0.3584  0.2011  0.4973
  678MOL0     C93493   2.913   4.632   4.488  0.5629  0.1131  0.5842
  678MOL0     C93494   3.054   4.598   4.432  1.4153 -0.4599 -0.5167
  678MOL0     H93495   3.028   5.090   4.298  0.1935 -0.4140  1.8989
  678MOL0     H93496   3.129   5.302   4.309 -0.1194 -0.5263 -1.0963
  678MOL0     H93497   3.258   5.455   4.591 -0.3274 -0.5120  1.8166
  678MOL0     H93498   3.125   5.495   4.706 -0.9602 -2.6418 -1.6716
  678MOL0     H93499   3.281   5.692   4.678 -3.1490  2.9895  0.9302
  678MOL0     H93500   3.261   5.674   4.502 -2.0713 -1.9680 -1.1850
  678MOL0     H93501   3.093   5.818   4.512 -0.7439  0.4590  0.7957
  678MOL0     H93502   2.996   5.717   4.604 -1.0273  2.5085 -1.6963
  678MOL0     H93503   3.167   5.826   4.800 -2.7995  0.8880  2.0873
  678MOL0     H93504   3.184   5.936   4.668 -0.1610 -0.5682 -1.3613
  678MOL0     H93505   2.908   5.835   4.797 -2.1602  0.4150 -2.0463
  678MOL0     H93506   2.928   5.955   4.666  0.1910  3.2025  0.9590
  678MOL0     H93507   3.003   5.975   4.958  0.5941  0.3262  0.0095
  678MOL0     H93508   3.066   6.094   4.836  1.1498 -2.0043 -3.1282
  678MOL0     H93509   2.774   6.035   4.877  0.2788 -0.2684  0.6701
  678MOL0     H93510   2.855   6.153   4.763 -0.7740  2.2727  1.6639
  678MOL0     H93511   2.849   6.157   5.057 -0.4350 -1.4578  0.2445
  678MOL0     H93512   2.957   6.260   4.955  0.7152 -2.4908 -2.0991
  678MOL0     H93513   2.841   6.468   4.856  0.6262 -0.6065  1.1607
  678MOL0     H93514   2.639   6.681   4.809 -0.7610  3.7638  0.6411
  678MOL0     H93515   2.726   6.695   4.962 -1.3369  4.1353  1.3274
  678MOL0     H93516   2.425   6.692   4.928  0.6612  2.4615 -0.9053
  678MOL0     H93517   2.515   6.708   5.087  2.6357  1.8749  0.4770
  678MOL0     H93518   2.491   6.906   4.857  0.3327  1.3917  0.1045
  678MOL0     H93519   2.454   6.926   5.029 -1.6765 -2.9244 -0.2906
  678MOL0     H93520   2.708   6.890   5.071 -2.1213  0.6032  1.6660
  678MOL0     H93521   2.709   6.905   4.898 -1.8354 -0.6224 -1.6848
  678MOL0     H93522   2.794   7.071   4.776 -1.7153 -2.4952 -1.0841
  678MOL0     H93523   2.835   7.295   4.545 -0.4411 -0.6249  0.5817
  678MOL0     H93524   2.740   7.177   4.453  1.7394  0.0399 -0.3171
  678MOL0     H93525   2.855   7.116   4.563  2.2144  0.2858 -3.4925
  678MOL0     H93526   2.239   7.555   4.518 -1.2561  1.0171 -0.9448
  678MOL0     H93527   2.136   7.675   4.330 -0.1686 -1.5976 -0.7024
  678MOL0     H93528   2.357   7.969   4.141 -3.8354  5.1120 -1.6328
  678MOL0     H93529   2.399   7.848   4.011 -1.2321 -4.6741  2.9108
  678MOL0     H93530   2.138   8.032   4.051 -1.2487 -2.0238  0.4174
  678MOL0     H93531   2.263   8.056   3.929 -1.3491 -1.2721 -2.7076
  678MOL0     H93532   2.078   7.968   3.833  0.3784  0.8214  1.7491
  678MOL0     H93533   2.049   7.835   3.947 -1.6879  1.9615  1.3551
  678MOL0     H93534   2.134   7.739   3.755 -0.6045  0.6842  0.6802
  678MOL0     H93535   2.274   7.734   3.853  4.1312  1.5619 -0.1673
  678MOL0     H93536   2.226   7.921   3.621  1.1530 -1.0972 -1.0969
  678MOL0     H93537   2.342   7.959   3.761  0.1450 -0.2479  0.3481
  678MOL0     H93538   2.342   7.707   3.601 -2.4196  1.8892  0.5607
  678MOL0     H93539   2.473   7.767   3.708  0.9800  0.3388 -0.2365
  678MOL0     H93540   2.509   7.958   3.544 -0.1152  0.0146 -0.3395
  678MOL0     H93541   2.397   7.853   3.444 -1.6352 -0.5371  1.9944
  678MOL0     H93542   2.625   7.836   3.398  0.5698  0.4054  0.1061
  678MOL0     H93543   2.556   7.678   3.441  1.8701 -0.6149  2.0370
  678MOL0     H93544   2.531   7.765   4.178  3.3920 -0.8079  2.0133
  678MOL0     H93545   2.632   7.650   4.359  0.3502  5.2419  0.2033
  678MOL0     H93546   2.426   7.399   4.780  2.2435  2.5873 -3.5498
  678MOL0     H93547   2.466   7.259   4.984  0.9017 -2.3475  1.0591
  678MOL0     H93548   2.901   5.366   4.681 -1.1899  0.8705  0.4779
  678MOL0     H93549   2.823   5.154   4.669 -0.0215 -2.1542  0.1837
  678MOL0     H93550   2.663   4.861   4.542  3.6498  1.5848 -0.6485
  678MOL0     H93551   2.537   4.664   4.618  0.5185  1.1782  0.3021
  678MOL0     H93552   2.513   4.486   4.738  1.0043 -0.4032  0.1200
  678MOL0     H93553   2.437   4.433   4.581  1.9363  2.0307 -2.6474
  678MOL0     H93554   2.379   4.240   4.714 -0.5659  1.9452 -1.4632
  678MOL0     H93555   2.523   4.260   4.810 -2.3630  0.5094 -0.2185
  678MOL0     H93556   2.533   4.189   4.518 -0.2335  0.3616 -0.4854
  678MOL0     H93557   2.668   4.173   4.630 -0.6512 -1.2795  2.5846
  678MOL0     H93558   2.573   3.974   4.577  3.1762 -0.2397  0.5583
  678MOL0     H93559   2.428   4.005   4.679  0.8697  1.6010  2.4344
  678MOL0     H93560   2.712   4.021   4.987  1.3073 -0.5690 -1.0409
  678MOL0     H93561   2.872   4.422   4.506  0.4968  0.9423 -2.5422
  678MOL0     H93562   3.131   4.615   4.507  0.8605 -3.9373  1.0593
  678MOL0     H93563   3.074   4.493   4.409  2.1554 -0.3867 -0.2274
  678MOL0     H93564   3.078   4.652   4.340  0.6600 -3.0552 -2.3446
  679MOL0     O93565   1.757   3.595   3.660  0.0293 -0.1015  0.4475
  679MOL0     C93566   1.643   3.606   3.701  0.2125  0.1087  0.4788
  679MOL0     O93567   1.604   3.669   3.814 -0.2959 -0.4275 -0.0090
  679MOL0     C93568   1.705   3.705   3.902  0.5910 -0.0513  0.0203
  679MOL0     C93569   1.760   3.617   3.999 -0.5283 -0.8659  0.0508
  679MOL0     C93570   1.884   3.657   4.060 -0.0769 -0.2177  0.1513
  679MOL0     C93571   1.938   3.785   4.042  0.1502  0.1650 -0.6158
  679MOL0     O93572   2.052   3.818   4.107 -0.2979  0.0695 -0.1680
  679MOL0     C93573   2.172   3.746   4.063 -0.1822  0.0658 -0.0150
  679MOL0     C93574   2.282   3.822   4.128 -0.5328  0.6882  0.8134
  679MOL0     C93575   2.293   3.964   4.061 -0.4449  0.3386 -1.1874
  679MOL0     C93576   2.405   4.043   4.132  0.4793  1.1493  0.0586
  679MOL0     C93577   2.416   4.185   4.061 -0.1060  0.5979  0.3382
  679MOL0     C93578   2.498   4.277   4.148  0.9220 -0.1985  0.6281
  679MOL0     C93579   2.642   4.232   4.155  0.5411  0.1503 -0.2948
  679MOL0     C93580   2.717   4.320   4.238  1.4346 -0.1584  0.0461
  679MOL0     N93581   2.853   4.298   4.230  0.1021  0.0452  0.4051
  679MOL0     C93582   2.942   4.372   4.154  0.3449  0.2143  0.2157
  679MOL0     C93583   3.063   4.321   4.205  0.5078  0.3277  0.3956
  679MOL0     C93584   3.189   4.365   4.166  0.0620 -0.3076  0.5337
  679MOL0     C93585   3.244   4.293   4.040 -0.4891 -0.3231 -0.0756
  679MOL0     C93586   3.386   4.320   4.029  0.4364  1.0534 -0.1832
  679MOL0     C93587   3.436   4.281   3.881 -0.3051 -0.7616 -0.0867
  679MOL0     O93588   3.424   4.140   3.843 -0.1977  0.3449 -0.1309
  679MOL0     C93589   3.544   4.071   3.858  0.1864  0.5510  0.0055
  679MOL0     C93590   3.583   3.988   3.756 -0.5451  0.3146 -0.1301
  679MOL0     C93591   3.688   3.901   3.770  0.3184  0.3202 -0.1008
  679MOL0     C93592   3.710   3.810   3.655 -0.1355 -0.2880  0.6776
  679MOL0     C93593   3.769   3.908   3.886 -0.3358  0.8856  0.8319
  679MOL0     C93594   3.904   3.835   3.902 -0.0015 -0.5962 -1.1719
  679MOL0     O93595   3.918   3.705   3.875 -0.2112  0.7021 -0.2159
  679MOL0     C93596   4.031   3.636   3.918  0.6525  0.0959 -0.1926
  679MOL0     C93597   4.010   3.513   3.984 -0.6835 -0.4643 -0.2581
  679MOL0     C93598   4.123   3.431   4.009 -0.0593 -0.1006 -0.6384
  679MOL0     C93599   4.249   3.467   3.970 -1.0372  0.1027 -0.0007
  679MOL0     O93600   4.345   3.372   3.999  0.6226  0.4221  0.0041
  679MOL0     C93601   4.470   3.382   3.931  0.2737 -0.0134 -0.4344
  679MOL0     C93602   4.575   3.277   3.975 -0.1355 -0.0755 -0.1551
  679MOL0     C93603   4.582   3.252   4.124 -0.1563  0.5204  0.2511
  679MOL0     C93604   4.687   3.156   4.164  0.8251  0.6452  0.9152
  679MOL0     C93605   4.679   3.121   4.320  0.1811  0.1321 -0.9910
  679MOL0     C93606   4.578   3.003   4.338  0.7010  0.5230  0.3525
  679MOL0     C93607   4.596   2.938   4.479  0.5703 -0.4810  0.1380
  679MOL0     C93608   4.713   2.839   4.487 -0.4400  0.1203 -0.3165
  679MOL0    Cl93609   4.675   2.732   4.618  0.2796  0.4947  0.2426
  679MOL0     C93610   4.271   3.595   3.921  0.3022  0.2212  0.0096
  679MOL0     C93611   4.165   3.680   3.896 -0.2716 -0.6776  0.8349
  679MOL0     O93612   3.988   3.911   3.962  0.7291  0.8423 -0.0993
  679MOL0     C93613   3.732   3.990   3.988 -0.6596 -0.7445 -0.5592
  679MOL0     C93614   3.620   4.073   3.970  0.2297 -0.5593 -0.2362
  679MOL0     N93615   3.040   4.237   4.312 -0.0470 -0.4351  1.0248
  679MOL0     N93616   2.911   4.231   4.329  0.1562  0.3565 -0.1606
  679MOL0     C93617   1.872   3.871   3.950  0.0442 -0.7030 -0.8277
  679MOL0     C93618   1.765   3.829   3.882  0.0926 -0.0472  1.0250
  679MOL0     C93619   1.539   3.544   3.616 -0.6618 -0.6319  0.7104
  679MOL0     C93620   1.410   3.532   3.680  0.1917  0.5800  0.3629
  679MOL0     C93621   1.302   3.469   3.609  0.1641 -0.5849 -0.9410
  679MOL0     C93622   1.318   3.423   3.479 -0.6610  0.8633 -1.3005
  679MOL0     O93623   1.221   3.353   3.405 -0.4811  0.7497  0.0000
  679MOL0     C93624   1.111   3.299   3.480 -0.0708 -0.3704 -0.9937
  679MOL0     C93625   1.053   3.196   3.387  0.0265  0.1735  0.4859
  679MOL0     C93626   1.158   3.089   3.351 -0.4896 -0.1231  0.3931
  679MOL0     C93627   1.088   2.978   3.264 -0.0343  0.5174 -0.1775
  679MOL0     C93628   1.179   2.858   3.285 -0.9754  1.1190  0.2100
  679MOL0     C93629   1.248   2.757   3.314  0.6376 -0.1080  0.3208
  679MOL0     C93630   1.445   3.430   3.423  0.0821 -0.6766 -0.4389
  679MOL0     C93631   1.556   3.495   3.484  0.6499  0.2859  0.2199
  679MOL0     C93632   1.693   3.495   3.413  0.0618 -0.4537  0.0179
  679MOL0     H93633   1.714   3.520   4.009  1.0226 -1.4278  2.5674
  679MOL0     H93634   1.935   3.587   4.126 -0.7364  1.2326  2.3130
  679MOL0     H93635   2.185   3.754   3.954  2.8152  0.2938  0.2584
  679MOL0     H93636   2.168   3.639   4.087  0.3558  0.4110  1.7539
  679MOL0     H93637   2.271   3.823   4.237 -2.8668  1.2034  0.6121
  679MOL0     H93638   2.376   3.771   4.102  0.3761  0.1487  4.5402
  679MOL0     H93639   2.325   3.958   3.957  1.0097  1.9805 -0.8879
  679MOL0     H93640   2.201   4.022   4.067 -0.2589  0.4912  2.3438
  679MOL0     H93641   2.380   4.061   4.237  1.5449  0.8906  0.3713
  679MOL0     H93642   2.500   3.989   4.125 -1.6717 -3.0255  0.3056
  679MOL0     H93643   2.312   4.218   4.049 -0.9132 -1.1457  1.9864
  679MOL0     H93644   2.466   4.169   3.965 -2.6555  0.8634 -1.1344
  679MOL0     H93645   2.490   4.372   4.094 -2.2916  0.3151  1.8267
  679MOL0     H93646   2.458   4.285   4.249  1.7126  2.0563  0.8190
  679MOL0     H93647   2.675   4.229   4.051  0.8390 -1.8756 -0.1768
  679MOL0     H93648   2.640   4.132   4.200  1.6917  1.5313  3.1895
  679MOL0     H93649   2.703   4.427   4.220 -0.7823 -0.4598 -0.2880
  679MOL0     H93650   2.690   4.296   4.342 -1.5341 -0.1310 -0.6229
  679MOL0     H93651   2.916   4.445   4.078  0.6789 -2.1844 -2.3703
  679MOL0     H93652   3.274   4.348   4.233  1.4238 -1.2713 -1.3577
  679MOL0     H93653   3.189   4.470   4.137  1.0988 -0.7224 -1.0507
  679MOL0     H93654   3.236   4.184   4.042  0.1835 -0.4775 -2.4250
  679MOL0     H93655   3.192   4.326   3.949 -1.3870  0.3608  0.6668
  679MOL0     H93656   3.413   4.423   4.055  1.1898  0.3696  1.8838
  679MOL0     H93657   3.443   4.263   4.102 -0.2636  1.3597  0.6258
  679MOL0     H93658   3.409   4.358   3.809 -2.2376 -0.7562  0.5886
  679MOL0     H93659   3.542   4.308   3.875 -0.4258 -0.4440 -0.8879
  679MOL0     H93660   3.525   3.989   3.664 -3.9520 -2.1514  1.7733
  679MOL0     H93661   3.706   3.708   3.696 -0.0693  1.2704  5.0594
  679MOL0     H93662   3.814   3.833   3.631  0.3496 -2.3760  0.5746
  679MOL0     H93663   3.648   3.831   3.567  1.4681  3.2025  0.1952
  679MOL0     H93664   3.907   3.494   4.014 -0.3065  1.0074  2.1958
  679MOL0     H93665   4.088   3.347   4.068 -1.4591  1.4519  0.8817
  679MOL0     H93666   4.454   3.380   3.823  4.3762 -1.2315 -1.1695
  679MOL0     H93667   4.518   3.474   3.966 -0.3252 -0.2334  1.0298
  679MOL0     H93668   4.554   3.178   3.936 -0.2535 -0.7487  1.5493
  679MOL0     H93669   4.672   3.309   3.934 -0.9008  1.5809 -0.7640
  679MOL0     H93670   4.482   3.218   4.153 -0.2122  0.7551  0.3302
  679MOL0     H93671   4.617   3.338   4.181  1.4792  0.0314  0.0273
  679MOL0     H93672   4.781   3.210   4.151 -0.0498  3.2524  4.1109
  679MOL0     H93673   4.690   3.067   4.101  2.0057  2.1969 -1.3664
  679MOL0     H93674   4.774   3.085   4.360  0.3573 -0.7054 -2.1194
  679MOL0     H93675   4.642   3.207   4.377 -0.2372  1.4589 -3.1538
  679MOL0     H93676   4.597   2.928   4.261  2.1055  1.3868 -0.1986
  679MOL0     H93677   4.477   3.038   4.316  1.4859  1.9511 -1.2212
  679MOL0     H93678   4.498   2.890   4.488 -1.4004  1.3228 -6.2934
  679MOL0     H93679   4.606   3.017   4.554 -1.0064 -1.0283  0.9742
  679MOL0     H93680   4.812   2.883   4.501 -1.5075  2.1114  1.6511
  679MOL0     H93681   4.708   2.781   4.394 -1.8691 -2.6710  1.3759
  679MOL0     H93682   4.373   3.631   3.917 -0.1965  2.5437  3.7409
  679MOL0     H93683   4.175   3.780   3.856  0.4411 -1.1970 -0.3199
  679MOL0     H93684   3.781   3.978   4.084 -1.9404  1.3547  0.4153
  679MOL0     H93685   3.575   4.135   4.046 -0.2279 -1.0726 -0.0749
  679MOL0     H93686   1.926   3.963   3.933 -0.8381  0.0350  0.2477
  679MOL0     H93687   1.742   3.894   3.798 -1.3935 -2.8671 -0.8922
  679MOL0     H93688   1.391   3.579   3.776  1.4439 -2.2034  2.0628
  679MOL0     H93689   1.204   3.471   3.657 -1.4150  0.6786 -3.9076
  679MOL0     H93690   1.140   3.245   3.570 -0.5868  0.7700 -0.1159
  679MOL0     H93691   1.036   3.376   3.504  0.3848  0.0928 -1.0565
  679MOL0     H93692   1.013   3.234   3.292 -0.9514  0.4921  1.0098
  679MOL0     H93693   0.967   3.146   3.431  0.7389 -0.1689  1.5347
  679MOL0     H93694   1.235   3.130   3.284 -1.0155  0.7344  0.3065
  679MOL0     H93695   1.200   3.051   3.444 -0.9560  1.3212  1.2313
  679MOL0     H93696   1.093   3.002   3.157 -0.1160 -1.1176 -0.5765
  679MOL0     H93697   0.983   2.958   3.288  0.2172 -2.0949 -0.8669
  679MOL0     H93698   1.308   2.672   3.339 -0.4663 -1.7857 -2.3860
  679MOL0     H93699   1.463   3.394   3.322  1.2328  1.9712 -1.2987
  679MOL0     H93700   1.724   3.599   3.405 -1.3011 -0.0961 -0.8079
  679MOL0     H93701   1.757   3.429   3.472 -0.9014 -1.1734  0.2813
  679MOL0     H93702   1.690   3.449   3.314  0.6349 -1.8011  0.5955
  680MOL0     O93703   8.939   8.181   8.689  0.0884  0.0038 -0.3579
  680MOL0     C93704   9.035   8.126   8.632  1.0343 -0.1083 -0.9405
  680MOL0     O93705   9.155   8.086   8.691 -0.2152  0.2982  0.2840
  680MOL0     C93706   9.147   8.091   8.830 -0.2167 -0.0817  0.3524
  680MOL0     C93707   9.183   8.194   8.906  0.6648  0.3764 -0.0794
  680MOL0     C93708   9.198   8.187   9.053  0.5954 -0.5424  0.3924
  680MOL0     C93709   9.140   8.082   9.124  1.2652 -0.1149  0.0162
  680MOL0     O93710   9.133   8.061   9.256 -0.2723  0.0346  0.1876
  680MOL0     C93711   9.166   8.157   9.351  0.1953 -0.2522 -0.2388
  680MOL0     C93712   9.312   8.152   9.387  0.1760  1.2776 -0.4555
  680MOL0     C93713   9.343   7.999   9.431 -0.3553 -0.4132  0.4204
  680MOL0     C93714   9.486   7.991   9.467 -0.9539  0.7145  0.5536
  680MOL0     C93715   9.535   7.847   9.480 -0.2861 -0.1136 -0.6266
  680MOL0     C93716   9.678   7.848   9.530 -0.7985  0.3444 -0.4302
  680MOL0     C93717   9.736   7.711   9.547 -0.6401  0.0910  0.2842
  680MOL0     C93718   9.776   7.688   9.696  0.0739 -0.3260 -0.3654
  680MOL0     N93719   9.811   7.551   9.720  1.1534  0.1404  0.3624
  680MOL0     C93720   9.927   7.484   9.689 -0.2318  0.1969 -1.0435
  680MOL0     C93721   9.918   7.359   9.753 -0.9457 -0.3690  0.5652
  680MOL0     C93722  10.033   7.259   9.750 -0.9121  0.4767 -0.2332
  680MOL0     C93723  10.105   7.253   9.885  0.2411  0.6780  0.1110
  680MOL0     C93724  10.028   7.156   9.974 -0.6143 -0.6262 -0.0792
  680MOL0     C93725  10.078   7.171  10.117 -1.0105 -0.5500  0.5604
  680MOL0     O93726  10.016   7.084  10.208  0.9054  0.5080  0.5051
  680MOL0     C93727   9.961   7.123  10.328 -0.6470 -0.4805 -0.8943
  680MOL0     C93728  10.000   7.245  10.389 -0.0593 -1.0980  0.4022
  680MOL0     C93729   9.943   7.284  10.510  0.1366 -1.1495  0.1010
  680MOL0     C93730  10.023   7.394  10.592  0.5459  0.4513 -0.9811
  680MOL0     C93731   9.840   7.206  10.564  0.5927  0.1789  0.0412
  680MOL0     C93732   9.755   7.255  10.671 -0.0212 -0.5776  0.3237
  680MOL0     O93733   9.639   7.183  10.708 -0.3443  0.2255  0.5218
  680MOL0     C93734   9.550   7.233  10.799 -0.3171  0.3960  0.3337
  680MOL0     C93735   9.419   7.199  10.785  0.5735  0.4888  0.3535
  680MOL0     C93736   9.317   7.240  10.871 -1.0152 -0.8638  0.8362
  680MOL0     C93737   9.352   7.322  10.977  0.3464 -0.0732 -0.9448
  680MOL0     O93738   9.263   7.370  11.071 -0.6560 -0.0050  0.3683
  680MOL0     C93739   9.123   7.357  11.049  0.8833  0.1295 -0.3229
  680MOL0     C93740   9.031   7.427  11.154  0.3379 -0.5423  0.9625
  680MOL0     C93741   8.890   7.365  11.140  0.2236  0.4759  0.3909
  680MOL0     C93742   8.789   7.430  11.235 -0.6035  1.0534 -0.0321
  680MOL0     C93743   8.665   7.346  11.235 -0.6050  0.5857  0.3844
  680MOL0     C93744   8.600   7.321  11.101  0.5798 -1.1605  0.1989
  680MOL0     C93745   8.460   7.256  11.101  0.4429  0.6021 -0.6608
  680MOL0     C93746   8.397   7.237  10.965 -0.3743 -0.2576  0.2247
  680MOL0    Cl93747   8.461   7.074  10.918 -0.1998 -0.0980  0.5977
  680MOL0     C93748   9.487   7.341  11.010  1.5718  0.8459  0.6509
  680MOL0     C93749   9.584   7.304  10.913 -0.5002  0.0106 -0.4276
  680MOL0     O93750   9.781   7.363  10.717 -0.6200 -0.4599 -0.2967
  680MOL0     C93751   9.788   7.093  10.493 -0.0723 -0.2338 -1.7567
  680MOL0     C93752   9.859   7.051  10.384  0.0488  0.0043  0.7295
  680MOL0     N93753   9.783   7.351   9.805 -0.1653 -0.3472  0.3470
  680MOL0     N93754   9.724   7.469   9.780 -0.1162  0.1590 -0.6189
  680MOL0     C93755   9.089   7.975   9.044  0.4042 -0.0616  0.7908
  680MOL0     C93756   9.098   7.983   8.893 -0.6002  0.2574 -0.6206
  680MOL0     C93757   9.024   8.101   8.489  0.1537  0.6419  0.4586
  680MOL0     C93758   8.936   8.175   8.411 -0.3894  0.2218 -0.4875
  680MOL0     C93759   8.911   8.156   8.277 -0.1088  1.2166 -0.2053
  680MOL0     C93760   8.974   8.062   8.200  0.9278 -1.1628  0.0840
  680MOL0     O93761   8.937   8.045   8.066  0.0961  0.5155 -0.1672
  680MOL0     C93762   8.999   7.943   7.982 -0.0725  0.5524 -0.4482
  680MOL0     C93763   8.949   7.974   7.838  0.8501  0.6031 -0.5256
  680MOL0     C93764   9.006   7.875   7.743  0.1401  0.9270  0.3635
  680MOL0     C93765   9.152   7.926   7.711 -1.1718 -0.1930 -0.5899
  680MOL0     C93766   9.225   7.844   7.616 -0.0052  0.4479 -0.0305
  680MOL0     C93767   9.267   7.766   7.534  0.3702 -0.2911  0.2549
  680MOL0     C93768   9.067   7.980   8.271  0.3362 -0.3236 -0.3858
  680MOL0     C93769   9.084   7.991   8.413  0.5127 -0.1662  0.0314
  680MOL0     C93770   9.183   7.906   8.480  0.5626 -0.6411 -0.1159
  680MOL0     H93771   9.228   8.281   8.857 -3.5245  2.4066 -0.7382
  680MOL0     H93772   9.232   8.275   9.107  0.0638  0.1747 -0.3976
  680MOL0     H93773   9.103   8.136   9.438 -2.8166 -0.4458 -2.3264
  680MOL0     H93774   9.149   8.259   9.317 -0.1795 -0.6168 -1.1875
  680MOL0     H93775   9.378   8.167   9.301 -1.0368  0.4105 -1.5977
  680MOL0     H93776   9.334   8.223   9.466 -1.8125  2.8316 -1.1906
  680MOL0     H93777   9.282   7.964   9.515  1.0678 -0.8171  1.3298
  680MOL0     H93778   9.333   7.929   9.348  0.9491 -0.3414  0.1813
  680MOL0     H93779   9.553   8.033   9.392 -0.7230 -1.9109 -0.8107
  680MOL0     H93780   9.520   8.039   9.560  1.6656  2.8543 -1.3632
  680MOL0     H93781   9.534   7.791   9.386  0.6574 -0.1088 -0.6527
  680MOL0     H93782   9.476   7.797   9.557  2.3362 -1.8025  0.4626
  680MOL0     H93783   9.746   7.909   9.471 -1.4829  1.4411 -0.1195
  680MOL0     H93784   9.676   7.897   9.628  3.2940 -2.6557  1.4196
  680MOL0     H93785   9.832   7.708   9.493  1.4026  1.0851  3.5673
  680MOL0     H93786   9.674   7.629   9.509  0.4581 -0.1140 -1.1741
  680MOL0     H93787   9.870   7.742   9.711  1.3720 -2.0498 -1.8226
  680MOL0     H93788   9.701   7.727   9.765  2.2064  1.2222  1.2004
  680MOL0     H93789  10.015   7.517   9.633  0.5810 -1.9058 -1.1124
  680MOL0     H93790  10.109   7.296   9.681  0.3724 -0.9823  0.3481
  680MOL0     H93791  10.004   7.162   9.710  0.2780 -0.8103  1.8283
  680MOL0     H93792  10.210   7.225   9.872 -0.0215 -0.1787 -0.2297
  680MOL0     H93793  10.089   7.349   9.934 -3.3659  0.2373  0.0413
  680MOL0     H93794   9.924   7.188   9.984  0.1600  1.4814  2.8207
  680MOL0     H93795  10.034   7.055   9.935  1.3102 -0.5154 -0.1529
  680MOL0     H93796  10.187   7.166  10.127 -1.1192  0.8408  3.2181
  680MOL0     H93797  10.060   7.275  10.144  0.5921 -0.1018  0.0335
  680MOL0     H93798  10.084   7.304  10.352 -0.3320 -0.1298  1.2656
  680MOL0     H93799   9.962   7.475  10.632 -1.8225 -2.1289  1.0330
  680MOL0     H93800  10.091   7.442  10.520  0.2345  1.3269 -0.7055
  680MOL0     H93801  10.075   7.343  10.674  0.8194  0.9348 -0.8466
  680MOL0     H93802   9.390   7.145  10.696  2.3696  0.3031 -0.1487
  680MOL0     H93803   9.217   7.212  10.839  0.5734 -3.4147 -2.6505
  680MOL0     H93804   9.099   7.403  10.953 -0.5859 -1.1997 -0.6425
  680MOL0     H93805   9.096   7.251  11.039 -0.1263  0.3874 -0.4328
  680MOL0     H93806   9.066   7.394  11.253  1.6896 -1.0552  0.3294
  680MOL0     H93807   9.015   7.534  11.137 -1.5558 -1.3436 -3.6508
  680MOL0     H93808   8.901   7.257  11.148  2.1567  0.7071  1.5138
  680MOL0     H93809   8.854   7.392  11.040 -0.9615 -0.4696  0.5399
  680MOL0     H93810   8.773   7.533  11.202  0.0542  0.6892 -1.5747
  680MOL0     H93811   8.843   7.428  11.330 -0.3438 -1.4996 -0.1560
  680MOL0     H93812   8.678   7.251  11.287  2.1143  1.4865  1.5584
  680MOL0     H93813   8.596   7.399  11.301 -0.4043  0.0636  1.0212
  680MOL0     H93814   8.676   7.269  11.042  1.7541  0.6213  0.0601
  680MOL0     H93815   8.586   7.420  11.057  2.1533 -0.1067  1.9061
  680MOL0     H93816   8.392   7.327  11.150 -0.0737 -1.9815  2.7221
  680MOL0     H93817   8.458   7.166  11.162  0.5170  1.1525  0.1716
  680MOL0     H93818   8.439   7.314  10.899 -1.1307 -0.3705 -0.4132
  680MOL0     H93819   8.287   7.237  10.963 -0.3753  0.1456  0.1377
  680MOL0     H93820   9.518   7.396  11.099  4.0665  2.6977 -1.2410
  680MOL0     H93821   9.686   7.335  10.934 -0.7575  1.3050 -0.9725
  680MOL0     H93822   9.710   7.029  10.533 -0.0158 -0.3030 -1.7569
  680MOL0     H93823   9.821   6.956  10.347  0.3781 -0.7833  2.3379
  680MOL0     H93824   9.042   7.889   9.089 -0.3566 -0.1719 -0.1874
  680MOL0     H93825   9.061   7.906   8.825  1.8920 -0.1088 -1.6599
  680MOL0     H93826   8.887   8.262   8.454  1.6143  1.0691  0.1892
  680MOL0     H93827   8.836   8.215   8.224 -0.8666 -0.6255 -1.2835
  680MOL0     H93828   9.107   7.936   7.990 -0.0924 -1.1826 -1.2766
  680MOL0     H93829   8.966   7.846   8.020  2.0495  0.4153  1.1987
  680MOL0     H93830   8.952   8.081   7.815 -1.0312  0.7277 -0.2927
  680MOL0     H93831   8.841   7.963   7.835  0.8238  0.9488 -0.9850
  680MOL0     H93832   9.001   7.772   7.779  0.2910 -0.7764 -3.8756
  680MOL0     H93833   8.948   7.878   7.650 -0.4990  0.1468  0.7318
  680MOL0     H93834   9.209   7.915   7.803 -2.7776  0.4437  0.5398
  680MOL0     H93835   9.150   8.034   7.693  0.2178  0.2773  1.6833
  680MOL0     H93836   9.295   7.678   7.480 -2.7554 -1.0853 -0.2930
  680MOL0     H93837   9.125   7.909   8.214 -0.0032 -0.9266  0.0062
  680MOL0     H93838   9.263   7.967   8.522 -0.3128 -0.1229  0.8462
  680MOL0     H93839   9.137   7.847   8.560 -0.9012  0.0649 -0.4071
  680MOL0     H93840   9.224   7.834   8.409 -1.2351 -1.7534 -0.0819
  681MOL0     O93841  10.378   3.643  10.977 -0.5244 -0.0009  0.6558
  681MOL0     C93842  10.331   3.672  10.867 -0.8245 -0.3096  1.1853
  681MOL0     O93843  10.401   3.755  10.781 -0.7496 -0.4305  0.2798
  681MOL0     C93844  10.539   3.779  10.804  0.1439  1.1048  0.6644
  681MOL0     C93845  10.587   3.908  10.807  0.1503  0.4045 -2.4677
  681MOL0     C93846  10.726   3.929  10.801  0.0701 -0.7702 -0.1636
  681MOL0     C93847  10.810   3.814  10.811 -0.4533  0.6993 -0.4483
  681MOL0     O93848  10.944   3.809  10.788  0.5367  0.7871  0.1346
  681MOL0     C93849  11.024   3.926  10.757  0.4069  0.0230 -0.4469
  681MOL0     C93850  11.124   3.936  10.875 -0.4617 -0.2742 -0.4221
  681MOL0     C93851  11.248   4.026  10.844 -1.0921  0.5394  0.6716
  681MOL0     C93852  11.215   4.176  10.805  1.1488  0.2739  0.4271
  681MOL0     C93853  11.330   4.276  10.837  0.4122  0.1197 -0.0539
  681MOL0     C93854  11.274   4.416  10.830  0.2886 -1.0144 -0.5690
  681MOL0     C93855  11.375   4.529  10.833  0.3617  0.1141  0.6106
  681MOL0     C93856  11.501   4.521  10.745 -0.4858 -0.4365  0.7552
  681MOL0     N93857  11.555   4.656  10.738  0.3277 -0.1356 -0.5410
  681MOL0     C93858  11.596   4.729  10.624 -0.8577 -0.1962  0.0838
  681MOL0     C93859  11.658   4.836  10.672 -0.5759  0.3462  0.3998
  681MOL0     C93860  11.763   4.905  10.581 -0.7198 -0.9467 -0.7440
  681MOL0     C93861  11.898   4.927  10.643  0.3337  0.8697  1.0060
  681MOL0     C93862  11.995   5.019  10.557 -0.3319 -0.1664  0.5238
  681MOL0     C93863  12.134   5.007  10.616 -0.9421  0.4184  0.6759
  681MOL0     O93864  12.180   4.872  10.596  0.6383  0.3197 -0.0574
  681MOL0     C93865  12.297   4.835  10.646  0.7266  1.0773  0.2584
  681MOL0     C93866  12.308   4.692  10.664 -0.4883 -0.0327  0.7448
  681MOL0     C93867  12.427   4.638  10.707  0.1706 -0.1216  0.1905
  681MOL0     C93868  12.455   4.491  10.685 -0.6034  0.7028  0.1701
  681MOL0     C93869  12.527   4.723  10.752  0.2625 -0.7420  0.5658
  681MOL0     C93870  12.647   4.683  10.829 -0.4066 -0.2507  0.7162
  681MOL0     O93871  12.752   4.763  10.826 -0.2454  0.1024  0.3461
  681MOL0     C93872  12.880   4.720  10.814 -0.5497  0.4428  0.5474
  681MOL0     C93873  12.912   4.614  10.734  0.0669  0.4507  0.2735
  681MOL0     C93874  13.043   4.579  10.706  0.6087  0.1799 -0.4320
  681MOL0     C93875  13.146   4.644  10.768  0.1018 -0.0784  0.6029
  681MOL0     O93876  13.272   4.588  10.765  0.1725 -0.2079  0.2954
  681MOL0     C93877  13.280   4.441  10.765 -0.2922  0.0006 -0.3559
  681MOL0     C93878  13.422   4.405  10.822  0.5575 -0.2525  0.0000
  681MOL0     C93879  13.421   4.254  10.849 -0.0664 -0.5185  0.1585
  681MOL0     C93880  13.562   4.201  10.880  0.2652  0.0760  0.4643
  681MOL0     C93881  13.557   4.052  10.894 -0.4750  0.8289  0.2367
  681MOL0     C93882  13.694   3.993  10.866 -0.3629  0.0389  0.0698
  681MOL0     C93883  13.672   3.848  10.856 -0.5279 -0.3230 -0.3542
  681MOL0     C93884  13.815   3.790  10.830 -0.2885  0.3572  0.0090
  681MOL0    Cl93885  13.789   3.608  10.817 -0.4403 -0.3668  0.1811
  681MOL0     C93886  13.116   4.752  10.844 -0.5634  0.4180  1.0172
  681MOL0     C93887  12.990   4.794  10.863  0.2086 -0.3193 -0.3523
  681MOL0     O93888  12.638   4.581  10.890  0.2590  0.6476  0.1358
  681MOL0     C93889  12.512   4.862  10.749  0.7786 -0.3605 -0.5151
  681MOL0     C93890  12.397   4.916  10.686 -0.5109 -0.4247 -0.2004
  681MOL0     N93891  11.653   4.829  10.802  0.2460  0.0829  0.1936
  681MOL0     N93892  11.585   4.731  10.844 -0.3377 -0.1790  0.2939
  681MOL0     C93893  10.750   3.683  10.823  0.0650 -0.3041  1.6343
  681MOL0     C93894  10.616   3.662  10.816  0.1963 -0.2019  0.4438
  681MOL0     C93895  10.195   3.630  10.825  0.0807 -0.1273 -1.2550
  681MOL0     C93896  10.144   3.638  10.693 -0.9170 -0.0453  1.0776
  681MOL0     C93897  10.021   3.594  10.650  0.0065 -0.0259 -0.0933
  681MOL0     C93898   9.917   3.560  10.741 -0.3202  0.1771 -0.4552
  681MOL0     O93899   9.783   3.548  10.701 -0.1452  1.0695 -0.1920
  681MOL0     C93900   9.686   3.497  10.799 -0.2409  0.0748 -0.1225
  681MOL0     C93901   9.555   3.474  10.732 -0.5004 -0.0695 -0.0851
  681MOL0     C93902   9.453   3.441  10.834  1.0110 -0.0328  0.1389
  681MOL0     C93903   9.336   3.343  10.792  0.5488 -0.6241 -0.3470
  681MOL0     C93904   9.377   3.201  10.743  0.2087 -0.5243  0.0229
  681MOL0     C93905   9.381   3.083  10.713  0.0808 -0.0078 -0.5468
  681MOL0     C93906   9.959   3.545  10.875  0.3596  0.1594  0.3332
  681MOL0     C93907  10.096   3.580  10.916 -0.0380 -0.1550 -0.8084
  681MOL0     C93908  10.116   3.569  11.062  0.9508  0.0282  0.3109
  681MOL0     H93909  10.519   3.992  10.820 -0.8881 -0.7632  0.4201
  681MOL0     H93910  10.755   4.033  10.788 -1.5832 -0.2656 -0.0418
  681MOL0     H93911  10.969   4.020  10.749  0.9292  0.4577  0.8410
  681MOL0     H93912  11.062   3.904  10.656  1.9755 -3.6673  0.7760
  681MOL0     H93913  11.076   3.981  10.963  0.9319 -3.2012  2.0166
  681MOL0     H93914  11.147   3.833  10.904 -2.2279 -0.0613  2.0653
  681MOL0     H93915  11.316   4.018  10.929 -1.0257 -0.6684  0.5269
  681MOL0     H93916  11.299   3.996  10.752 -0.0048  3.3144  0.2721
  681MOL0     H93917  11.188   4.179  10.699  0.8786  0.2176  0.4934
  681MOL0     H93918  11.126   4.204  10.861 -0.3361 -1.4865 -0.9274
  681MOL0     H93919  11.408   4.275  10.760  0.2646  1.3211 -0.2367
  681MOL0     H93920  11.381   4.262  10.933 -0.0850 -0.7804  0.0898
  681MOL0     H93921  11.213   4.421  10.739 -0.2494 -2.0999 -0.2825
  681MOL0     H93922  11.215   4.439  10.920  0.9799  0.9000 -0.5487
  681MOL0     H93923  11.422   4.530  10.932  3.7645 -2.1072 -0.8061
  681MOL0     H93924  11.320   4.624  10.826 -2.2270 -1.0413  2.9906
  681MOL0     H93925  11.562   4.441  10.788  0.2906  0.7768  2.0042
  681MOL0     H93926  11.469   4.484  10.648  2.5875  1.6775 -1.2351
  681MOL0     H93927  11.577   4.706  10.519 -0.5848  0.6985 -0.1699
  681MOL0     H93928  11.710   4.997  10.553  0.2007 -0.5604 -1.2447
  681MOL0     H93929  11.769   4.854  10.484 -0.9628  0.8654 -1.7549
  681MOL0     H93930  11.894   4.984  10.736  2.3777  1.3713  0.8293
  681MOL0     H93931  11.944   4.829  10.660 -0.3268  0.6097  1.3676
  681MOL0     H93932  11.997   4.991  10.451 -3.0446  0.9733  0.0908
  681MOL0     H93933  11.959   5.123  10.562 -2.0887 -0.5937 -1.6901
  681MOL0     H93934  12.190   5.079  10.555 -1.9855  2.0771  1.6126
  681MOL0     H93935  12.124   5.041  10.720  0.1297 -0.4589  1.0876
  681MOL0     H93936  12.220   4.632  10.644 -0.0780 -0.3974  0.0162
  681MOL0     H93937  12.559   4.463  10.670 -1.0868 -1.3175  0.2062
  681MOL0     H93938  12.401   4.445  10.601 -1.3469  0.6644  0.6578
  681MOL0     H93939  12.415   4.437  10.772 -0.6097  0.1515 -0.1644
  681MOL0     H93940  12.830   4.554  10.696 -2.0672  1.4046  2.9781
  681MOL0     H93941  13.065   4.499  10.636  0.7265  0.1481 -0.3587
  681MOL0     H93942  13.192   4.408  10.821 -0.0040  1.5689  1.0871
  681MOL0     H93943  13.286   4.397  10.665  4.4460  1.5001 -0.9931
  681MOL0     H93944  13.499   4.440  10.753 -1.1737  1.0838 -1.3438
  681MOL0     H93945  13.431   4.460  10.916 -2.1801 -1.1410  0.8900
  681MOL0     H93946  13.386   4.210  10.755 -0.9135  0.3538  0.0554
  681MOL0     H93947  13.345   4.232  10.925 -2.2182  3.7841 -0.4203
  681MOL0     H93948  13.586   4.241  10.979 -2.8080 -1.5655  2.0175
  681MOL0     H93949  13.622   4.234  10.795 -0.1673  2.3317  0.9783
  681MOL0     H93950  13.528   4.032  10.997  3.5697 -1.2529  1.1670
  681MOL0     H93951  13.485   4.010  10.823  0.3511 -1.8125  0.8790
  681MOL0     H93952  13.767   4.011  10.946 -3.2381 -0.1825  2.9711
  681MOL0     H93953  13.738   4.027  10.772 -0.5033  1.6865  0.5684
  681MOL0     H93954  13.601   3.825  10.776 -3.1394  3.4486  0.6101
  681MOL0     H93955  13.636   3.812  10.953 -1.6919  1.0630 -0.2434
  681MOL0     H93956  13.888   3.805  10.910 -0.0443  0.6821 -0.2725
  681MOL0     H93957  13.876   3.820  10.743  1.0938 -3.5813 -0.5927
  681MOL0     H93958  13.199   4.813  10.879  0.8405  0.4262 -1.9964
  681MOL0     H93959  12.980   4.886  10.921  1.4094 -0.1457 -0.3824
  681MOL0     H93960  12.582   4.926  10.803 -1.0287 -0.6405  2.3828
  681MOL0     H93961  12.400   5.023  10.667 -3.3618  0.0623  1.4862
  681MOL0     H93962  10.814   3.595  10.819  0.6526  0.1582  0.0451
  681MOL0     H93963  10.566   3.565  10.817 -2.2452  0.6061 -5.2789
  681MOL0     H93964  10.204   3.692  10.621 -1.4873  0.1947  0.7805
  681MOL0     H93965   9.988   3.602  10.547 -1.1818 -0.0006  0.2729
  681MOL0     H93966   9.721   3.400  10.837 -0.0938  1.3795  3.3734
  681MOL0     H93967   9.673   3.557  10.889 -0.0101 -0.4237  0.2465
  681MOL0     H93968   9.574   3.387  10.668 -1.6321 -0.1863 -0.2823
  681MOL0     H93969   9.519   3.563  10.680 -1.8781 -0.9003 -0.5851
  681MOL0     H93970   9.494   3.384  10.917  0.3322 -0.0046  0.5046
  681MOL0     H93971   9.407   3.532  10.872 -1.8066 -0.9340 -0.8140
  681MOL0     H93972   9.272   3.392  10.718 -1.0046  0.5593  1.6669
  681MOL0     H93973   9.267   3.336  10.876  1.2909 -1.4688  0.2124
  681MOL0     H93974   9.382   2.976  10.712 -4.8359 -0.2994  0.4676
  681MOL0     H93975   9.896   3.507  10.954  0.1104 -0.3027 -0.0857
  681MOL0     H93976  10.025   3.570  11.123  0.5242  1.2757 -0.3293
  681MOL0     H93977  10.165   3.474  11.084 -2.9959 -2.5468 -0.9358
  681MOL0     H93978  10.166   3.657  11.103 -1.5030  2.6885 -1.9122
  682MOL0     O93979   5.258   9.552   4.117 -0.4551 -0.0290 -0.0716
  682MOL0     C93980   5.355   9.613   4.072  0.2142  0.0512 -0.4332
  682MOL0     O93981   5.483   9.560   4.067  0.1785 -0.5393  0.0698
  682MOL0     C93982   5.541   9.510   4.176 -0.1117 -0.1980  0.3506
  682MOL0     C93983   5.668   9.458   4.175 -1.0649 -1.0303  0.2423
  682MOL0     C93984   5.742   9.425   4.290  0.1207 -0.1840 -0.1243
  682MOL0     C93985   5.687   9.443   4.418 -0.5157  0.5273  0.0655
  682MOL0     O93986   5.764   9.399   4.527  0.3053  0.4764  0.0811
  682MOL0     C93987   5.706   9.403   4.657  0.3084 -0.5487  0.1359
  682MOL0     C93988   5.770   9.309   4.750  0.0871 -0.4504  0.2498
  682MOL0     C93989   5.925   9.315   4.775  0.0355  0.0789 -1.2004
  682MOL0     C93990   5.976   9.221   4.886 -0.5489 -0.2608  0.5421
  682MOL0     C93991   6.131   9.213   4.877 -0.0501 -0.9246  0.3976
  682MOL0     C93992   6.185   9.120   4.775  0.2217  0.2405  0.7508
  682MOL0     C93993   6.339   9.104   4.756 -0.4311 -0.4848  0.7860
  682MOL0     C93994   6.400   9.063   4.894 -0.3490  0.0201 -0.5027
  682MOL0     N93995   6.537   9.020   4.876  0.8005 -0.2322 -0.4490
  682MOL0     C93996   6.643   9.108   4.888  0.0156  0.4308 -0.5625
  682MOL0     C93997   6.751   9.028   4.923  0.1561  0.3775 -0.5445
  682MOL0     C93998   6.888   9.072   4.931 -0.4465 -0.2532 -0.3234
  682MOL0     C93999   6.975   8.946   4.974  0.6293  0.3333  0.9060
  682MOL0     C94000   7.120   8.987   4.934 -0.9501  0.6401 -0.1385
  682MOL0     C94001   7.223   8.884   4.963  0.5133  0.1387 -0.1182
  682MOL0     O94002   7.216   8.770   4.867  0.1396 -0.1173 -0.1842
  682MOL0     C94003   7.288   8.656   4.900 -0.0442 -0.1032 -0.0987
  682MOL0     C94004   7.411   8.656   4.963 -1.1238  0.3058 -0.4528
  682MOL0     C94005   7.485   8.544   4.989 -0.3089  0.3683  0.4832
  682MOL0     C94006   7.630   8.562   5.037 -1.1268  0.3173  0.4624
  682MOL0     C94007   7.436   8.423   4.940 -0.2082  0.2954 -0.0140
  682MOL0     C94008   7.508   8.287   4.941 -0.5350  0.0871 -0.3118
  682MOL0     O94009   7.630   8.276   5.021  0.5074  0.5218 -0.0576
  682MOL0     C94010   7.691   8.158   5.005 -0.8524 -0.3883 -0.4388
  682MOL0     C94011   7.812   8.156   4.928  0.8245  0.2235  0.5051
  682MOL0     C94012   7.896   8.050   4.910  1.2339 -0.3769  0.4072
  682MOL0     C94013   7.869   7.932   4.982  0.2250  0.2092  0.4113
  682MOL0     O94014   7.948   7.819   4.965 -0.3800 -0.3818  0.0310
  682MOL0     C94015   8.083   7.828   5.010  0.0931  0.0791 -0.4234
  682MOL0     C94016   8.190   7.775   4.902 -0.0353  0.1571  0.6694
  682MOL0     C94017   8.193   7.840   4.767 -0.2944 -0.4516  0.6347
  682MOL0     C94018   8.330   7.855   4.697  0.2262  1.0099 -0.1202
  682MOL0     C94019   8.326   7.906   4.556 -0.2187  0.0123  0.0129
  682MOL0     C94020   8.292   8.061   4.559 -0.0334  0.3898 -0.3401
  682MOL0     C94021   8.230   8.108   4.426 -0.5927 -0.3353  0.4481
  682MOL0     C94022   8.320   8.075   4.301  0.0383 -0.3855 -0.4430
  682MOL0    Cl94023   8.470   8.161   4.330  0.2721 -0.8389  0.0313
  682MOL0     C94024   7.752   7.929   5.067 -0.0860  1.1294 -0.6668
  682MOL0     C94025   7.667   8.042   5.078  0.0736  0.6037 -0.2555
  682MOL0     O94026   7.464   8.199   4.867 -0.2154 -0.7284 -0.4243
  682MOL0     C94027   7.305   8.421   4.886  0.0070 -0.0632  0.7560
  682MOL0     C94028   7.226   8.537   4.874  0.2901 -0.1753 -0.6497
  682MOL0     N94029   6.702   8.898   4.918 -0.6592  0.4745 -1.2648
  682MOL0     N94030   6.573   8.898   4.897  0.2355  0.0146 -0.7851
  682MOL0     C94031   5.553   9.493   4.423  0.4362 -0.9499 -0.5091
  682MOL0     C94032   5.484   9.525   4.310  0.3504 -0.1306  0.0615
  682MOL0     C94033   5.344   9.750   4.011  0.0498  0.0026 -1.3187
  682MOL0     C94034   5.421   9.766   3.896 -0.3905 -1.4989  0.0512
  682MOL0     C94035   5.422   9.890   3.838 -0.1117 -0.2574 -0.1126
  682MOL0     C94036   5.351   9.999   3.897  0.2443  0.2577  0.0791
  682MOL0     O94037   5.373  10.134   3.864 -0.9095 -0.4911  0.4716
  682MOL0     C94038   5.470  10.176   3.766  0.8776  0.1405  0.5056
  682MOL0     C94039   5.505  10.319   3.802  0.2405  0.3171  0.3497
  682MOL0     C94040   5.595  10.390   3.692 -0.6888  0.4331 -0.2514
  682MOL0     C94041   5.737  10.419   3.737 -0.7976 -0.0641  0.5991
  682MOL0     C94042   5.811  10.487   3.632 -0.2527 -0.7348 -0.2425
  682MOL0     C94043   5.869  10.534   3.534 -0.1414  0.3614  0.4842
  682MOL0     C94044   5.276   9.984   4.010  0.2165  0.6451  0.3233
  682MOL0     C94045   5.273   9.862   4.072  0.3560  0.0554  0.8806
  682MOL0     C94046   5.203   9.843   4.203 -0.8759 -0.3104  0.7231
  682MOL0     H94047   5.722   9.459   4.081  0.9270  0.7507  1.3411
  682MOL0     H94048   5.842   9.386   4.272  0.3248  1.1265 -2.1685
  682MOL0     H94049   5.605   9.364   4.672 -0.9303  2.1149 -0.7464
  682MOL0     H94050   5.719   9.505   4.695 -1.7336 -0.1598 -0.1113
  682MOL0     H94051   5.733   9.325   4.852  1.7604  1.1340  0.6648
  682MOL0     H94052   5.751   9.209   4.709  0.4961 -0.8252  0.9453
  682MOL0     H94053   5.965   9.275   4.681  1.0446 -1.6912 -0.0794
  682MOL0     H94054   5.964   9.416   4.791  2.2260 -1.0331  1.1477
  682MOL0     H94055   5.944   9.257   4.984 -1.0991  2.1489 -0.4586
  682MOL0     H94056   5.933   9.123   4.864 -2.4184  0.4875  0.6771
  682MOL0     H94057   6.158   9.180   4.977  0.3199 -1.9434 -0.0276
  682MOL0     H94058   6.166   9.316   4.865 -0.9629 -0.6622 -0.1061
  682MOL0     H94059   6.144   9.022   4.799  2.4606 -1.1086 -0.5311
  682MOL0     H94060   6.156   9.153   4.675  1.3717 -0.7222  0.0665
  682MOL0     H94061   6.376   9.201   4.721 -3.4320  0.5162  0.0607
  682MOL0     H94062   6.352   9.023   4.684 -0.1971  0.2344  0.0019
  682MOL0     H94063   6.396   9.155   4.954 -0.5381  1.2476 -2.3011
  682MOL0     H94064   6.353   8.972   4.932  0.3087 -0.5839 -1.0997
  682MOL0     H94065   6.641   9.216   4.876 -1.2958  0.4163 -0.5655
  682MOL0     H94066   6.909   9.150   5.005 -0.7221 -1.4865  1.1132
  682MOL0     H94067   6.914   9.110   4.832 -2.2435 -3.7332 -2.3035
  682MOL0     H94068   6.967   8.927   5.081 -1.0164 -1.3932  0.5264
  682MOL0     H94069   6.937   8.860   4.919 -2.4263  2.7312 -1.1171
  682MOL0     H94070   7.124   9.004   4.825 -0.6048  1.8405  0.0424
  682MOL0     H94071   7.156   9.082   4.974  1.5628  0.4539 -1.7243
  682MOL0     H94072   7.319   8.934   4.947  0.5826  0.7149  1.8165
  682MOL0     H94073   7.209   8.854   5.067  0.4143 -2.4248 -0.8068
  682MOL0     H94074   7.457   8.741   5.011  1.4765 -1.4841  0.4180
  682MOL0     H94075   7.638   8.509   5.132  0.4006 -2.1545 -0.9284
  682MOL0     H94076   7.653   8.669   5.050 -2.9551  0.8530 -0.4061
  682MOL0     H94077   7.693   8.514   4.960 -0.2409  0.8049  0.8614
  682MOL0     H94078   7.830   8.249   4.874  1.8685 -0.0896  0.2745
  682MOL0     H94079   7.982   8.053   4.844  0.5264  0.3214 -0.5068
  682MOL0     H94080   8.098   7.932   5.039  0.2968 -0.0115 -0.1959
  682MOL0     H94081   8.094   7.764   5.098 -0.0502  0.2835 -0.2549
  682MOL0     H94082   8.292   7.789   4.938  0.3192 -0.7992  0.0594
  682MOL0     H94083   8.156   7.672   4.887 -1.6930 -0.0575  4.6827
  682MOL0     H94084   8.154   7.942   4.772  3.3045  1.1174 -0.3425
  682MOL0     H94085   8.125   7.786   4.701  0.6186 -0.7825 -0.0563
  682MOL0     H94086   8.358   7.750   4.684 -2.6093  0.2155 -0.6355
  682MOL0     H94087   8.395   7.924   4.750 -0.6302  0.4741  1.6929
  682MOL0     H94088   8.420   7.891   4.503  0.1479 -1.2066  0.9779
  682MOL0     H94089   8.257   7.850   4.492 -2.0901  2.8516 -0.6798
  682MOL0     H94090   8.383   8.117   4.581  1.0321 -1.0341 -0.9807
  682MOL0     H94091   8.214   8.078   4.635  1.3438  1.0714  0.9728
  682MOL0     H94092   8.212   8.216   4.426  2.9311  0.4106 -1.3479
  682MOL0     H94093   8.135   8.055   4.421  0.0458 -1.5914  1.1068
  682MOL0     H94094   8.278   8.127   4.214 -1.9289 -1.1581 -0.0258
  682MOL0     H94095   8.338   7.969   4.282 -1.8673 -0.4945 -1.9196
  682MOL0     H94096   7.732   7.851   5.139  2.2398  1.0248 -0.0589
  682MOL0     H94097   7.582   8.029   5.144  0.6909  0.4075  0.5178
  682MOL0     H94098   7.257   8.328   4.855  1.7571 -0.2267 -1.7842
  682MOL0     H94099   7.131   8.543   4.823  0.6401  0.9243 -1.1857
  682MOL0     H94100   5.498   9.503   4.516  0.3125  1.3576 -0.7580
  682MOL0     H94101   5.390   9.578   4.321 -0.9244 -1.8050 -1.9641
  682MOL0     H94102   5.485   9.691   3.851  3.1509  0.6293  1.0681
  682MOL0     H94103   5.490   9.901   3.754 -2.2967 -2.0913 -2.2793
  682MOL0     H94104   5.561  10.118   3.746  1.0467  1.0962 -1.8342
  682MOL0     H94105   5.426  10.177   3.666  1.7871  0.0114  0.0935
  682MOL0     H94106   5.564  10.309   3.893  3.2452  0.8996 -1.4115
  682MOL0     H94107   5.416  10.382   3.819  1.0637  1.6357 -0.0310
  682MOL0     H94108   5.615  10.325   3.607  2.0157 -1.0333  1.3743
  682MOL0     H94109   5.537  10.476   3.655 -0.7913 -0.2841 -1.8376
  682MOL0     H94110   5.790  10.323   3.745 -0.8294 -0.2978 -1.4795
  682MOL0     H94111   5.749  10.458   3.839  2.5425 -1.4981  0.8934
  682MOL0     H94112   5.913  10.580   3.447 -1.0109 -1.1773 -0.8141
  682MOL0     H94113   5.232  10.072   4.054  0.4946  0.6202  0.6526
  682MOL0     H94114   5.280   9.815   4.275 -0.1791 -3.2864 -0.9894
  682MOL0     H94115   5.148   9.933   4.232 -2.6473 -0.3786 -2.1049
  682MOL0     H94116   5.134   9.758   4.190 -0.4899 -0.2708 -2.1993
  683MOL0     O94117   0.282   0.569   3.074  0.3007  0.0569 -0.4403
  683MOL0     C94118   0.352   0.589   2.970  0.7495  0.1020 -0.1092
  683MOL0     O94119   0.420   0.494   2.894 -0.0984 -0.4118 -0.0581
  683MOL0     C94120   0.421   0.358   2.913  0.5422  0.9327 -0.8907
  683MOL0     C94121   0.306   0.289   2.954  0.6063  0.7877 -0.0734
  683MOL0     C94122   0.309   0.147   2.968  0.3221  0.1016 -0.1722
  683MOL0     C94123   0.422   0.075   2.930  0.1579  0.2916  0.9753
  683MOL0     O94124   0.415  -0.065   2.941 -0.4836 -0.4359  1.2019
  683MOL0     C94125   0.514  -0.120   3.020  0.2810 -0.6175 -0.9502
  683MOL0     C94126   0.513  -0.074   3.168 -0.9629 -0.1966 -0.2257
  683MOL0     C94127   0.636  -0.130   3.246  1.2256  0.0270  0.7633
  683MOL0     C94128   0.694  -0.018   3.333  0.1928  0.3784 -0.3021
  683MOL0     C94129   0.824  -0.071   3.401  0.7234 -1.0094 -0.1608
  683MOL0     C94130   0.800  -0.160   3.529 -0.3690 -0.2005 -0.0112
  683MOL0     C94131   0.920  -0.226   3.604 -0.0074 -0.0713  0.0326
  683MOL0     C94132   0.887  -0.324   3.725 -0.2526  0.0614  0.9856
  683MOL0     N94133   1.013  -0.354   3.797 -0.4618  0.4896 -0.6089
  683MOL0     C94134   1.114  -0.268   3.831 -0.2266 -0.3482  0.3860
  683MOL0     C94135   1.220  -0.344   3.867  0.2720 -0.4141 -0.3879
  683MOL0     C94136   1.349  -0.287   3.933 -0.5176 -0.1433 -0.6852
  683MOL0     C94137   1.332  -0.192   4.051 -0.4676  0.7846  0.5129
  683MOL0     C94138   1.429  -0.083   4.051 -0.2164 -0.7858 -0.3802
  683MOL0     C94139   1.399   0.034   4.148 -0.4603  0.7770 -0.4645
  683MOL0     O94140   1.296   0.100   4.092 -0.0017  0.0090 -0.1799
  683MOL0     C94141   1.225   0.192   4.170 -0.0184  1.1125  0.8109
  683MOL0     C94142   1.092   0.163   4.192  0.4937 -0.3509 -0.0584
  683MOL0     C94143   1.013   0.229   4.277 -0.1849  0.6795 -0.4529
  683MOL0     C94144   0.870   0.169   4.304 -0.4168  0.2247 -0.5857
  683MOL0     C94145   1.069   0.336   4.355 -0.1431 -0.2596  0.4951
  683MOL0     C94146   0.996   0.425   4.442  0.3633  0.4722 -0.0849
  683MOL0     O94147   0.858   0.410   4.454 -0.1390 -0.2960 -0.0541
  683MOL0     C94148   0.800   0.461   4.569  0.3527  1.0486 -0.2026
  683MOL0     C94149   0.759   0.382   4.680  1.0206  0.4041  0.0956
  683MOL0     C94150   0.662   0.434   4.772 -0.3167  0.4714 -0.3244
  683MOL0     C94151   0.613   0.565   4.743  0.0421 -0.2144 -0.1512
  683MOL0     O94152   0.498   0.610   4.817  0.1135 -0.5490 -0.1839
  683MOL0     C94153   0.394   0.521   4.848  0.4528 -0.2273  0.2487
  683MOL0     C94154   0.280   0.586   4.926 -0.1021 -0.1893 -0.3387
  683MOL0     C94155   0.347   0.674   5.039 -0.9746 -0.5049  1.1812
  683MOL0     C94156   0.219   0.736   5.111 -1.3753  0.2648  0.1132
  683MOL0     C94157   0.251   0.861   5.193 -0.7324  0.0335 -0.2832
  683MOL0     C94158   0.163   0.887   5.313 -0.0099 -0.0146 -0.6342
  683MOL0     C94159   0.009   0.895   5.285 -0.1482  0.4479 -0.3836
  683MOL0     C94160  -0.028   1.035   5.245  0.4336 -0.5489 -0.2495
  683MOL0    Cl94161  -0.205   1.036   5.226  0.0144 -0.5377  0.4649
  683MOL0     C94162   0.668   0.652   4.650 -0.1134 -0.1877  0.9460
  683MOL0     C94163   0.757   0.594   4.560  0.1685 -1.0160 -1.0659
  683MOL0     O94164   1.064   0.511   4.502  0.2918  1.0778 -0.1405
  683MOL0     C94165   1.203   0.372   4.331  0.0458  0.3109  0.5693
  683MOL0     C94166   1.282   0.300   4.238 -0.1609 -0.0629 -0.7900
  683MOL0     N94167   1.179  -0.475   3.859  0.4391  0.8594  0.6285
  683MOL0     N94168   1.054  -0.483   3.828  1.0366 -1.0906  0.7733
  683MOL0     C94169   0.538   0.142   2.884  0.2511 -0.3376  0.8642
  683MOL0     C94170   0.537   0.283   2.883 -0.1145 -0.2116  0.2089
  683MOL0     C94171   0.337   0.717   2.914  1.0686 -0.3580  0.0298
  683MOL0     C94172   0.315   0.823   3.003  0.7027 -0.6459 -0.5076
  683MOL0     C94173   0.282   0.956   2.974  0.0123  0.2346 -0.3180
  683MOL0     C94174   0.269   0.984   2.841 -0.1667 -0.2149  0.1944
  683MOL0     O94175   0.244   1.114   2.794  0.0219 -0.5500 -0.6899
  683MOL0     C94176   0.132   1.187   2.847 -0.5635 -0.1090 -1.3422
  683MOL0     C94177   0.003   1.108   2.856 -0.1503 -0.2842 -0.1077
  683MOL0     C94178  -0.116   1.200   2.867  1.0338  0.7740 -0.5232
  683MOL0     C94179  -0.251   1.130   2.884 -0.1445  0.0326 -0.0621
  683MOL0     C94180  -0.251   1.064   3.019 -0.1101  0.1019  0.5507
  683MOL0     C94181  -0.206   1.016   3.122 -0.8971  0.4275  0.4709
  683MOL0     C94182   0.298   0.888   2.748 -0.1394 -0.0138  0.2783
  683MOL0     C94183   0.324   0.754   2.777 -0.1600  0.1324  0.6527
  683MOL0     C94184   0.355   0.664   2.663 -0.5823  0.0955  1.3937
  683MOL0     H94185   0.217   0.347   2.977 -0.3170 -0.2676 -0.8185
  683MOL0     H94186   0.227   0.083   3.002 -0.0258 -0.2937 -1.6936
  683MOL0     H94187   0.617  -0.115   2.983  1.9078  1.1890  3.2566
  683MOL0     H94188   0.497  -0.228   3.015 -0.4514 -0.6594  1.4548
  683MOL0     H94189   0.517   0.036   3.169  1.4151 -0.2360  0.0441
  683MOL0     H94190   0.426  -0.109   3.223  0.3208 -1.3056  1.1670
  683MOL0     H94191   0.603  -0.221   3.298 -0.5857  0.8444  1.1458
  683MOL0     H94192   0.718  -0.163   3.183 -0.7730  2.4666 -3.6142
  683MOL0     H94193   0.721   0.063   3.264 -0.8849 -0.1498 -1.3814
  683MOL0     H94194   0.626   0.007   3.415 -0.8046 -2.6131 -0.0744
  683MOL0     H94195   0.886   0.014   3.430  0.4090 -0.8439  0.0238
  683MOL0     H94196   0.879  -0.137   3.332 -0.5223  0.2282 -2.4437
  683MOL0     H94197   0.745  -0.092   3.594  0.9036 -1.7488  2.9103
  683MOL0     H94198   0.738  -0.243   3.493 -0.8414 -0.9495  2.3503
  683MOL0     H94199   0.977  -0.141   3.643 -1.3878  1.0107 -0.1890
  683MOL0     H94200   0.987  -0.278   3.535  3.0694 -0.3284  2.9718
  683MOL0     H94201   0.817  -0.285   3.799 -0.8702  1.9853 -0.5219
  683MOL0     H94202   0.844  -0.417   3.686  1.6414  0.0801 -1.4457
  683MOL0     H94203   1.105  -0.160   3.837  1.2381 -0.1079 -1.0291
  683MOL0     H94204   1.419  -0.236   3.867  0.6296  1.8390  1.8955
  683MOL0     H94205   1.406  -0.376   3.959 -3.0343 -1.4013  1.0049
  683MOL0     H94206   1.232  -0.147   4.046 -0.0895  1.7339  1.2727
  683MOL0     H94207   1.331  -0.248   4.145  3.6509 -0.0139  0.2735
  683MOL0     H94208   1.528  -0.124   4.076 -0.7137 -1.5663  0.3441
  683MOL0     H94209   1.427  -0.040   3.950 -0.6663 -4.0727 -1.8854
  683MOL0     H94210   1.378  -0.008   4.246 -0.3490 -2.2543 -1.6332
  683MOL0     H94211   1.491   0.093   4.152  1.4353 -1.7270 -2.8925
  683MOL0     H94212   1.051   0.075   4.144 -0.7572  0.3216 -0.2768
  683MOL0     H94213   0.796   0.235   4.257 -0.0971  1.1383  0.1639
  683MOL0     H94214   0.836   0.178   4.408 -2.1229  4.2349 -1.2982
  683MOL0     H94215   0.873   0.064   4.271  1.0281  0.1363 -0.2313
  683MOL0     H94216   0.791   0.279   4.695  0.7674  0.2917 -0.1212
  683MOL0     H94217   0.635   0.371   4.856 -1.5126 -1.0545 -1.7842
  683MOL0     H94218   0.361   0.478   4.753  3.0996 -1.3864 -0.2570
  683MOL0     H94219   0.429   0.435   4.906  0.5797 -1.7885 -1.9922
  683MOL0     H94220   0.219   0.652   4.865  1.1166  4.4066  2.9037
  683MOL0     H94221   0.219   0.506   4.969  1.9009 -0.5875  2.0434
  683MOL0     H94222   0.403   0.760   5.002  0.8494 -0.7512  3.2136
  683MOL0     H94223   0.412   0.621   5.109  1.3700  0.0432 -0.4590
  683MOL0     H94224   0.179   0.656   5.173 -0.5464 -0.1596  0.1191
  683MOL0     H94225   0.132   0.764   5.051 -1.1154  1.8248  0.4056
  683MOL0     H94226   0.353   0.856   5.233 -0.4418  3.1979 -0.4463
  683MOL0     H94227   0.244   0.949   5.128 -1.7331  0.9073  0.9643
  683MOL0     H94228   0.199   0.969   5.376 -2.5336  0.9492 -0.3154
  683MOL0     H94229   0.179   0.791   5.363  1.7341  0.3839 -0.3945
  683MOL0     H94230  -0.041   0.865   5.377 -1.0485 -0.0478 -1.0183
  683MOL0     H94231  -0.031   0.823   5.213  1.1939  0.8198 -1.5546
  683MOL0     H94232   0.006   1.058   5.144 -2.5819  1.7951 -0.8816
  683MOL0     H94233  -0.002   1.114   5.317 -1.4183  1.5567 -1.7590
  683MOL0     H94234   0.625   0.751   4.645  2.4244  0.9479 -0.9753
  683MOL0     H94235   0.802   0.658   4.484  0.4154 -2.2976 -2.0353
  683MOL0     H94236   1.250   0.464   4.363  0.3774  0.4040 -0.1724
  683MOL0     H94237   1.384   0.332   4.218 -0.4485  3.6410  2.3909
  683MOL0     H94238   0.633   0.095   2.861  0.5431  1.1927 -1.3704
  683MOL0     H94239   0.633   0.333   2.872 -0.5954  0.6429 -0.2010
  683MOL0     H94240   0.323   0.799   3.109  2.0549 -0.3405 -0.5240
  683MOL0     H94241   0.268   1.039   3.043  3.7770  2.3435 -1.7653
  683MOL0     H94242   0.159   1.225   2.946  0.2197 -1.0331 -1.1778
  683MOL0     H94243   0.119   1.271   2.779 -0.0926 -1.2678 -2.9338
  683MOL0     H94244   0.011   1.032   2.935 -1.6660  1.1922  1.5668
  683MOL0     H94245  -0.017   1.050   2.765 -1.9564 -2.0525  1.3263
  683MOL0     H94246  -0.092   1.275   2.943  0.1674  1.4538 -0.9025
  683MOL0     H94247  -0.133   1.257   2.775 -2.0686 -0.0763 -0.5632
  683MOL0     H94248  -0.252   1.053   2.806  3.1209 -0.2582  0.0318
  683MOL0     H94249  -0.341   1.192   2.886 -0.8192 -0.9233  0.3713
  683MOL0     H94250  -0.163   1.002   3.219 -0.5847 -1.0337  0.1442
  683MOL0     H94251   0.306   0.922   2.645 -2.1192 -0.7685 -0.1736
  683MOL0     H94252   0.367   0.725   2.573 -1.0215 -0.5112  0.9153
  683MOL0     H94253   0.452   0.617   2.681 -0.7623  0.6330  4.1558
  683MOL0     H94254   0.278   0.586   2.653 -0.4041  0.0636  0.1868
  684MOL0     O94255   5.449   1.550   8.593  0.0453 -0.7342 -0.3770
  684MOL0     C94256   5.522   1.596   8.679 -0.2824  0.0788 -0.0508
  684MOL0     O94257   5.593   1.714   8.673  0.6715 -0.6915 -0.3823
  684MOL0     C94258   5.622   1.779   8.554 -0.1356  0.0384 -0.0167
  684MOL0     C94259   5.648   1.723   8.426  0.1456 -0.2867 -0.6696
  684MOL0     C94260   5.684   1.797   8.314  0.7679 -0.1800  0.3452
  684MOL0     C94261   5.704   1.931   8.333  0.6584 -0.1922  0.1180
  684MOL0     O94262   5.724   2.009   8.225 -0.3862  0.7495 -0.0088
  684MOL0     C94263   5.856   2.051   8.200 -0.0505 -0.0672 -0.1901
  684MOL0     C94264   5.882   2.033   8.049 -1.0864 -0.2053  0.3311
  684MOL0     C94265   6.001   2.121   8.011 -0.3412  0.2891 -0.1068
  684MOL0     C94266   6.138   2.065   8.056 -0.5330  0.6666 -0.0039
  684MOL0     C94267   6.247   2.150   7.996  0.3203  0.5416 -0.1290
  684MOL0     C94268   6.377   2.139   8.076 -0.1900  0.1737 -0.6825
  684MOL0     C94269   6.369   2.207   8.221  1.8861 -0.2951 -1.0171
  684MOL0     C94270   6.501   2.205   8.301 -0.3973  0.4560 -0.4454
  684MOL0     N94271   6.540   2.069   8.336  0.3261  0.1771  0.3225
  684MOL0     C94272   6.532   2.022   8.465  0.0972 -0.4605  0.4003
  684MOL0     C94273   6.615   1.919   8.471 -0.4975 -0.2477 -0.4423
  684MOL0     C94274   6.638   1.828   8.580  0.0759  0.1507  0.2692
  684MOL0     C94275   6.758   1.738   8.574  0.5201 -0.0481 -0.9038
  684MOL0     C94276   6.887   1.817   8.596 -0.0031 -0.1497 -0.9144
  684MOL0     C94277   7.014   1.744   8.552 -0.9005 -0.0113  0.4676
  684MOL0     O94278   7.136   1.816   8.595 -0.6420 -0.5587  0.1557
  684MOL0     C94279   7.212   1.879   8.497 -0.6991  0.1391  0.2110
  684MOL0     C94280   7.349   1.896   8.525 -0.2803  0.0596 -0.0562
  684MOL0     C94281   7.436   1.950   8.436  0.1401 -0.7104 -0.3880
  684MOL0     C94282   7.586   1.953   8.470 -0.5278 -0.3179  0.1994
  684MOL0     C94283   7.381   2.016   8.319 -0.7312 -0.0784 -1.0237
  684MOL0     C94284   7.464   2.115   8.237  0.4696  0.5863 -0.3734
  684MOL0     O94285   7.402   2.161   8.127 -1.0282  0.2159  0.1978
  684MOL0     C94286   7.420   2.280   8.079 -0.0285 -1.6878  0.5915
  684MOL0     C94287   7.382   2.296   7.943  1.1260  0.6570  0.1169
  684MOL0     C94288   7.380   2.418   7.879  0.1481  0.3362 -0.6599
  684MOL0     C94289   7.399   2.535   7.952  0.4583  0.1059 -0.8160
  684MOL0     O94290   7.406   2.651   7.880  0.3193 -0.0222  0.1302
  684MOL0     C94291   7.353   2.775   7.939  0.4036  0.6721 -0.6647
  684MOL0     C94292   7.295   2.872   7.824  0.6468 -0.8030 -1.0945
  684MOL0     C94293   7.162   2.948   7.857 -0.4703  0.3509 -0.5309
  684MOL0     C94294   7.110   3.011   7.735 -0.6738  0.5525  0.9965
  684MOL0     C94295   6.982   3.095   7.752 -0.4389  0.0233 -0.2820
  684MOL0     C94296   6.919   3.143   7.620  0.3797  0.4637  0.6046
  684MOL0     C94297   6.808   3.259   7.652  0.1684  1.0458  0.0408
  684MOL0     C94298   6.790   3.371   7.546  1.4833  0.2732 -0.7103
  684MOL0    Cl94299   6.746   3.286   7.388  0.1551  0.4377  0.0476
  684MOL0     C94300   7.427   2.523   8.088  0.1859  0.3923  0.1358
  684MOL0     C94301   7.444   2.399   8.151 -0.3650  0.9435  0.2443
  684MOL0     O94302   7.560   2.166   8.291 -0.2404  0.4430 -0.5704
  684MOL0     C94303   7.242   1.998   8.301  0.5897 -0.0606  0.1112
  684MOL0     C94304   7.161   1.927   8.382  0.1086 -0.3703 -0.0968
  684MOL0     N94305   6.679   1.904   8.351 -0.3676  0.1019 -0.0068
  684MOL0     N94306   6.631   1.995   8.262  0.4463  0.5385  0.5992
  684MOL0     C94307   5.691   1.985   8.458  0.6699 -1.4435  0.1827
  684MOL0     C94308   5.644   1.911   8.565  0.8152  0.8874  0.4578
  684MOL0     C94309   5.564   1.515   8.795  1.0668  0.3486 -0.7494
  684MOL0     C94310   5.703   1.498   8.814  0.4438  0.1819 -0.1504
  684MOL0     C94311   5.756   1.415   8.910 -0.3282 -0.4189  0.2223
  684MOL0     C94312   5.680   1.338   8.996 -0.4778  0.2966  0.6533
  684MOL0     O94313   5.754   1.261   9.088  0.0272  0.2291 -0.7962
  684MOL0     C94314   5.709   1.135   9.142 -0.0714  0.5397 -0.5884
  684MOL0     C94315   5.811   1.081   9.238 -0.3896 -0.4408 -0.3601
  684MOL0     C94316   5.872   1.180   9.339 -0.6545  0.4612 -0.1289
  684MOL0     C94317   5.764   1.226   9.430 -0.3723 -0.5996 -0.0152
  684MOL0     C94318   5.782   1.359   9.475  0.0702 -0.2436 -0.9407
  684MOL0     C94319   5.769   1.475   9.518 -0.1529 -0.9550  0.7420
  684MOL0     C94320   5.541   1.343   8.976 -0.5283  0.0526 -0.5600
  684MOL0     C94321   5.479   1.438   8.886 -0.7578 -0.7227  0.0271
  684MOL0     C94322   5.326   1.451   8.885  0.4658 -0.5558 -0.0542
  684MOL0     H94323   5.635   1.615   8.430 -1.2895 -0.0929  2.9068
  684MOL0     H94324   5.685   1.752   8.216  0.1899  1.8579 -0.6364
  684MOL0     H94325   5.930   1.991   8.254 -1.1935 -0.3137  1.1602
  684MOL0     H94326   5.866   2.156   8.226  0.6815 -0.1281 -0.2197
  684MOL0     H94327   5.912   1.930   8.028 -1.5946 -0.5750  1.3360
  684MOL0     H94328   5.792   2.046   7.989 -2.0318 -2.4007  1.1881
  684MOL0     H94329   6.015   2.134   7.904  0.3802  1.4543  0.1104
  684MOL0     H94330   5.989   2.226   8.041  0.5224 -0.0013  1.3287
  684MOL0     H94331   6.140   2.061   8.166  1.3657  1.6261  0.0404
  684MOL0     H94332   6.165   1.963   8.028 -1.2757  0.5456 -0.3082
  684MOL0     H94333   6.234   2.258   8.007  2.3405  0.6040  3.1003
  684MOL0     H94334   6.258   2.112   7.894  3.5056 -3.6676  1.5014
  684MOL0     H94335   6.403   2.034   8.091  2.4452  1.1174  2.2978
  684MOL0     H94336   6.467   2.182   8.031  0.9194 -1.0116  0.3459
  684MOL0     H94337   6.292   2.164   8.285  0.3047  0.9933 -1.9991
  684MOL0     H94338   6.333   2.310   8.212 -0.9663 -1.0619  0.5459
  684MOL0     H94339   6.588   2.217   8.237  0.3040  0.0423  0.4168
  684MOL0     H94340   6.506   2.279   8.382  5.0903  3.4507 -3.0120
  684MOL0     H94341   6.473   2.047   8.553  2.1435 -0.0549  1.7065
  684MOL0     H94342   6.548   1.766   8.589 -0.0749  0.3227 -0.0106
  684MOL0     H94343   6.642   1.876   8.678  2.5582 -1.5991  1.1045
  684MOL0     H94344   6.749   1.657   8.647  1.0503  2.0585  1.6289
  684MOL0     H94345   6.770   1.704   8.470 -0.3233  0.2886 -1.1151
  684MOL0     H94346   6.882   1.916   8.548 -0.3802 -0.4987 -1.6161
  684MOL0     H94347   6.896   1.842   8.702 -1.1770 -0.3430 -0.7613
  684MOL0     H94348   7.016   1.645   8.599 -1.9030  0.2735  1.1416
  684MOL0     H94349   7.019   1.736   8.443 -1.0234 -1.0259  0.5206
  684MOL0     H94350   7.383   1.847   8.615 -0.4391 -0.3476 -0.2158
  684MOL0     H94351   7.606   1.873   8.542 -2.5350  0.8952  2.2170
  684MOL0     H94352   7.614   2.049   8.513 -1.1088 -0.0135 -0.0896
  684MOL0     H94353   7.640   1.939   8.376 -1.2162  1.1813 -0.4556
  684MOL0     H94354   7.375   2.207   7.882  1.0073  0.6939  0.0761
  684MOL0     H94355   7.356   2.433   7.774  0.5571  1.9535 -0.5387
  684MOL0     H94356   7.282   2.751   8.018  0.0808  0.9199 -0.8786
  684MOL0     H94357   7.439   2.820   7.990  0.6916 -3.0230  2.5434
  684MOL0     H94358   7.377   2.942   7.805 -1.5501  2.3208  0.1314
  684MOL0     H94359   7.283   2.820   7.728 -0.0658  2.1511 -2.7512
  684MOL0     H94360   7.186   3.026   7.931  2.7024 -0.5150 -0.5106
  684MOL0     H94361   7.093   2.869   7.888 -0.1822 -0.8304 -2.6976
  684MOL0     H94362   7.097   2.926   7.668  1.3879  0.9252  0.0128
  684MOL0     H94363   7.184   3.079   7.690  0.5366 -1.3702 -0.0401
  684MOL0     H94364   6.909   3.033   7.805 -1.3504  1.9032  0.7374
  684MOL0     H94365   7.008   3.174   7.822 -1.8711 -0.1932  0.5222
  684MOL0     H94366   6.877   3.057   7.566  0.8500  0.3405  0.4329
  684MOL0     H94367   7.004   3.186   7.566 -0.3607  2.7865  1.1864
  684MOL0     H94368   6.826   3.292   7.755  3.0455 -0.8713  0.2565
  684MOL0     H94369   6.709   3.212   7.645  1.1706 -1.0148 -5.0828
  684MOL0     H94370   6.887   3.421   7.537  1.6268 -0.1421 -1.6401
  684MOL0     H94371   6.716   3.445   7.578  2.8079  1.8359 -1.1508
  684MOL0     H94372   7.438   2.609   8.154  2.1297 -0.8402  1.5130
  684MOL0     H94373   7.461   2.396   8.258  1.7459  2.2462 -0.0014
  684MOL0     H94374   7.194   2.050   8.219  0.1092 -1.5186 -0.5500
  684MOL0     H94375   7.058   1.919   8.349 -1.4316 -0.7035  4.1453
  684MOL0     H94376   5.699   2.092   8.468  3.1370 -1.6581  1.1879
  684MOL0     H94377   5.610   1.956   8.658 -0.6985  1.2839 -0.2551
  684MOL0     H94378   5.770   1.552   8.748  2.2833 -0.5978  1.0150
  684MOL0     H94379   5.864   1.415   8.901 -0.4163  0.5613 -1.1818
  684MOL0     H94380   5.610   1.144   9.185 -0.2659  1.5974 -1.2335
  684MOL0     H94381   5.698   1.058   9.064  0.2804 -1.3506  1.1336
  684MOL0     H94382   5.883   1.035   9.170 -0.2737 -3.1580  1.4320
  684MOL0     H94383   5.767   1.002   9.300  1.0490 -0.9778  0.0251
  684MOL0     H94384   5.962   1.142   9.387 -0.4940 -0.4836 -1.1420
  684MOL0     H94385   5.900   1.262   9.273 -1.3760 -0.0548 -1.1000
  684MOL0     H94386   5.747   1.154   9.510  1.3428  0.6298  1.5065
  684MOL0     H94387   5.664   1.238   9.386 -1.5463  0.4522  2.7250
  684MOL0     H94388   5.747   1.576   9.546  2.6465 -0.3805  1.1782
  684MOL0     H94389   5.482   1.273   9.034 -3.5451 -0.2537 -3.7003
  684MOL0     H94390   5.295   1.403   8.792  0.2460 -1.7698  0.6230
  684MOL0     H94391   5.277   1.400   8.969  1.8568  0.0772  1.1775
  684MOL0     H94392   5.295   1.555   8.874 -1.7309 -1.3295 -2.1413
  685MOL0     O94393   5.287   4.731   4.563 -0.1585  0.3762  0.1472
  685MOL0     C94394   5.265   4.850   4.565  0.9469 -0.3053  0.0880
  685MOL0     O94395   5.143   4.902   4.539 -0.2329  0.7056 -0.2906
  685MOL0     C94396   5.055   4.838   4.465 -0.8786 -0.0647 -0.8251
  685MOL0     C94397   5.043   4.891   4.335  1.1760 -1.2471  0.7294
  685MOL0     C94398   4.934   4.851   4.250  0.6685  0.1679 -0.7046
  685MOL0     C94399   4.835   4.754   4.297 -0.1431 -0.3399 -0.0295
  685MOL0     O94400   4.721   4.714   4.226 -0.0753 -0.1758 -0.1240
  685MOL0     C94401   4.721   4.717   4.081  0.3225  0.5369 -0.7939
  685MOL0     C94402   4.596   4.754   4.014  0.2936  0.2131  0.0192
  685MOL0     C94403   4.547   4.898   4.036 -0.1055 -0.3870 -0.0137
  685MOL0     C94404   4.410   4.917   3.963 -0.2685  0.1886 -0.5194
  685MOL0     C94405   4.373   5.062   3.969  1.1357 -0.7193  0.3310
  685MOL0     C94406   4.225   5.104   3.922 -0.5118  0.1538  0.5239
  685MOL0     C94407   4.160   5.051   3.794  0.1286  0.4719  0.0623
  685MOL0     C94408   4.106   4.908   3.806  0.1848  0.1077  0.2426
  685MOL0     N94409   4.089   4.852   3.669  1.5055 -0.7415  0.2057
  685MOL0     C94410   4.000   4.903   3.575 -0.1743 -0.3590 -0.0590
  685MOL0     C94411   3.982   4.803   3.486  0.5432  0.1691 -0.5399
  685MOL0     C94412   3.900   4.816   3.357  0.2414 -0.0080 -0.5305
  685MOL0     C94413   3.825   4.684   3.317 -0.9924  0.0782 -0.2427
  685MOL0     C94414   3.734   4.707   3.190 -0.8541  0.2564 -0.2616
  685MOL0     C94415   3.814   4.750   3.064  0.6371  0.5654 -0.2139
  685MOL0     O94416   3.838   4.891   3.060  0.6844  1.0565 -0.1764
  685MOL0     C94417   3.823   4.960   2.944  0.6693  0.3955  0.3817
  685MOL0     C94418   3.813   4.900   2.814  0.3637  0.7356  0.4449
  685MOL0     C94419   3.791   4.973   2.694 -0.6495 -0.0905  0.0990
  685MOL0     C94420   3.774   4.898   2.569  0.3389  0.1855 -0.1893
  685MOL0     C94421   3.781   5.117   2.699  0.5519  0.4323 -1.0063
  685MOL0     C94422   3.755   5.213   2.582  0.4976 -0.7604 -0.2471
  685MOL0     O94423   3.719   5.338   2.618  0.0101 -0.5300  0.5610
  685MOL0     C94424   3.662   5.433   2.539 -0.4710  0.5383 -0.1664
  685MOL0     C94425   3.593   5.406   2.418 -0.4838 -0.4257  0.3713
  685MOL0     C94426   3.499   5.489   2.365 -0.3041  0.0304  0.4498
  685MOL0     C94427   3.479   5.625   2.409 -0.0566 -0.2564 -0.7611
  685MOL0     O94428   3.389   5.716   2.358  0.8274 -0.1804 -0.5479
  685MOL0     C94429   3.300   5.665   2.261  0.5663  0.2656 -0.1340
  685MOL0     C94430   3.220   5.771   2.196  0.4991 -0.1799  0.1159
  685MOL0     C94431   3.307   5.879   2.138 -0.5742  0.5122  0.6364
  685MOL0     C94432   3.222   5.984   2.059  0.1652  0.3126 -0.7695
  685MOL0     C94433   3.320   6.055   1.972  0.6260  0.0514 -0.5959
  685MOL0     C94434   3.243   6.157   1.893 -0.4894  0.2557  0.5232
  685MOL0     C94435   3.322   6.280   1.856 -0.3020 -0.0001 -0.2948
  685MOL0     C94436   3.461   6.246   1.804  1.3689 -0.6740 -0.7357
  685MOL0    Cl94437   3.542   6.409   1.796  0.5843 -0.1885  0.1826
  685MOL0     C94438   3.552   5.650   2.532  0.4948  0.0652 -0.2538
  685MOL0     C94439   3.635   5.555   2.597 -0.8867  0.4394  0.1159
  685MOL0     O94440   3.769   5.178   2.464  0.2091  0.1649 -0.3450
  685MOL0     C94441   3.784   5.174   2.828  0.6108  0.5880  0.4354
  685MOL0     C94442   3.795   5.100   2.943  0.2944  0.6069 -1.0158
  685MOL0     N94443   4.059   4.701   3.518  0.1422  0.0948  0.0782
  685MOL0     N94444   4.123   4.738   3.628 -0.2799 -0.5941  0.0535
  685MOL0     C94445   4.875   4.696   4.416 -0.5430  0.0343 -0.3665
  685MOL0     C94446   4.976   4.729   4.502 -0.9640  0.6753  0.6422
  685MOL0     C94447   5.364   4.941   4.614  0.6995 -1.2056 -0.5242
  685MOL0     C94448   5.418   4.907   4.731 -0.2756 -1.0941  0.1522
  685MOL0     C94449   5.531   4.977   4.778 -0.2787  0.1151  0.7628
  685MOL0     C94450   5.583   5.088   4.711 -0.6414 -0.5066 -0.1457
  685MOL0     O94451   5.703   5.154   4.738 -0.3239  0.7984  0.0829
  685MOL0     C94452   5.784   5.088   4.839 -0.9026 -0.4112 -0.5380
  685MOL0     C94453   5.926   5.150   4.850  0.5545 -0.4834  0.6771
  685MOL0     C94454   6.011   5.111   4.722 -0.0085  0.3854  0.2099
  685MOL0     C94455   6.147   5.182   4.730 -0.3739 -0.5057  0.1699
  685MOL0     C94456   6.224   5.104   4.822 -0.2049 -0.0130 -0.4849
  685MOL0     C94457   6.294   5.046   4.896  0.3281  0.9059 -0.5322
  685MOL0     C94458   5.498   5.145   4.613 -0.6648  1.0038  0.5484
  685MOL0     C94459   5.394   5.068   4.556 -0.4748 -0.2213 -0.1743
  685MOL0     C94460   5.307   5.116   4.439 -0.2247 -0.3730 -0.3620
  685MOL0     H94461   5.111   4.967   4.299  0.6784 -1.0480  0.2125
  685MOL0     H94462   4.929   4.898   4.152  1.5920 -0.1127 -0.8910
  685MOL0     H94463   4.734   4.611   4.055  0.0551 -0.2512  1.9747
  685MOL0     H94464   4.798   4.785   4.045 -1.2105  2.6543 -0.2581
  685MOL0     H94465   4.603   4.728   3.908  2.7358  0.0246  0.1706
  685MOL0     H94466   4.511   4.698   4.055 -0.1190  0.6124 -0.2825
  685MOL0     H94467   4.534   4.917   4.143  0.2011  1.0424 -0.2057
  685MOL0     H94468   4.616   4.967   3.986 -0.9533  0.3326 -0.2168
  685MOL0     H94469   4.425   4.883   3.861  0.7330  3.7908 -1.7308
  685MOL0     H94470   4.342   4.851   4.018  0.2101  1.2062  1.3945
  685MOL0     H94471   4.450   5.109   3.909  3.1483 -2.6189  1.2801
  685MOL0     H94472   4.385   5.102   4.070 -0.2058 -1.7866  0.9541
  685MOL0     H94473   4.157   5.067   3.999 -0.4272  0.3931  0.7150
  685MOL0     H94474   4.224   5.213   3.908 -1.6201  0.1359  0.3585
  685MOL0     H94475   4.230   5.052   3.710 -1.6048 -0.2192 -1.4664
  685MOL0     H94476   4.082   5.124   3.771 -1.3887 -0.4926  1.8707
  685MOL0     H94477   4.179   4.848   3.862 -1.2729 -0.8084  1.2431
  685MOL0     H94478   4.013   4.895   3.862  1.6472 -0.1076  2.8008
  685MOL0     H94479   3.958   5.003   3.590  1.1382  0.1499  0.3445
  685MOL0     H94480   3.966   4.859   3.281  0.2959 -0.0931 -0.5321
  685MOL0     H94481   3.816   4.885   3.370 -0.4917 -1.2693  2.0892
  685MOL0     H94482   3.900   4.605   3.305  0.9156  1.9207 -1.1328
  685MOL0     H94483   3.757   4.653   3.397  1.6406 -0.5136  1.9368
  685MOL0     H94484   3.682   4.615   3.161 -2.5740  1.6198 -1.7760
  685MOL0     H94485   3.660   4.785   3.211 -0.4017  1.4546 -2.6697
  685MOL0     H94486   3.908   4.696   3.056 -0.4718 -1.3385 -1.0567
  685MOL0     H94487   3.745   4.723   2.984 -0.6551  0.2566  0.9602
  685MOL0     H94488   3.841   4.799   2.786  0.3209  0.6051  0.8583
  685MOL0     H94489   3.674   4.935   2.544  1.7952  3.0868 -2.2926
  685MOL0     H94490   3.776   4.788   2.570  2.1422  0.1880 -0.4593
  685MOL0     H94491   3.841   4.931   2.490  0.5201  0.5549  0.1196
  685MOL0     H94492   3.615   5.320   2.356  0.5373  0.8760 -1.1570
  685MOL0     H94493   3.444   5.439   2.286 -2.3677 -0.4903  2.1258
  685MOL0     H94494   3.365   5.622   2.185  0.0490 -0.4145 -0.1966
  685MOL0     H94495   3.251   5.575   2.297  2.0767 -0.9415 -0.9949
  685MOL0     H94496   3.154   5.719   2.125 -0.5609  0.4177  0.6322
  685MOL0     H94497   3.155   5.820   2.268  2.6184  2.5509  0.3136
  685MOL0     H94498   3.383   5.831   2.076 -0.9394  1.0593 -0.2519
  685MOL0     H94499   3.355   5.931   2.222 -1.3502 -1.2855  2.2861
  685MOL0     H94500   3.171   6.051   2.129 -1.9568 -0.4266 -1.5449
  685MOL0     H94501   3.143   5.945   1.994  1.1451 -0.5124 -1.4937
  685MOL0     H94502   3.395   6.102   2.037 -0.6110  2.1814 -0.6154
  685MOL0     H94503   3.377   5.985   1.911  0.0583 -3.2965  2.4245
  685MOL0     H94504   3.149   6.190   1.938 -1.0310  0.7179 -0.8800
  685MOL0     H94505   3.213   6.125   1.792  0.8322  3.3207 -0.9680
  685MOL0     H94506   3.337   6.340   1.946  1.2460  0.2911 -0.7176
  685MOL0     H94507   3.266   6.350   1.794 -1.6019 -0.0069  0.8259
  685MOL0     H94508   3.469   6.200   1.705 -1.7200 -2.2206 -0.3909
  685MOL0     H94509   3.516   6.191   1.881  3.8908  3.1816  0.5165
  685MOL0     H94510   3.546   5.751   2.572  1.2632 -0.3307  0.9202
  685MOL0     H94511   3.679   5.588   2.691 -0.4752 -0.7634  0.3758
  685MOL0     H94512   3.784   5.281   2.840  0.6700  0.6468 -0.0666
  685MOL0     H94513   3.792   5.147   3.041 -2.6086 -0.7159 -0.3547
  685MOL0     H94514   4.824   4.609   4.455  0.6966 -1.5632 -2.0861
  685MOL0     H94515   4.986   4.670   4.592 -1.4079 -1.4930 -0.6745
  685MOL0     H94516   5.387   4.812   4.774 -2.2800 -0.3639  0.4191
  685MOL0     H94517   5.572   4.928   4.866 -1.2892 -1.4784  0.3920
  685MOL0     H94518   5.733   5.095   4.936 -1.3248 -0.9352 -0.7169
  685MOL0     H94519   5.799   4.980   4.827 -0.9540 -1.1310  3.9360
  685MOL0     H94520   5.970   5.142   4.950 -2.3965 -3.1153  1.9274
  685MOL0     H94521   5.897   5.252   4.824  0.3822 -1.2559 -2.6970
  685MOL0     H94522   6.025   5.003   4.715 -0.7119  0.3860 -2.3398
  685MOL0     H94523   5.943   5.133   4.639 -0.0615  1.0184  0.4144
  685MOL0     H94524   6.154   5.281   4.775 -3.2068  0.0660 -0.4337
  685MOL0     H94525   6.186   5.183   4.628 -2.9031 -0.8942 -0.8781
  685MOL0     H94526   6.342   4.991   4.974 -0.8637 -1.5607 -1.4497
  685MOL0     H94527   5.522   5.237   4.561 -2.5120  0.7006 -0.9649
  685MOL0     H94528   5.204   5.130   4.473  1.3348  0.0102  5.1679
  685MOL0     H94529   5.341   5.209   4.393  0.8487  0.2772  1.6180
  685MOL0     H94530   5.317   5.033   4.369  0.1612 -0.1825 -0.5330
  686MOL0     O94531   6.470   5.833   1.087  0.1745 -0.0191  0.3803
  686MOL0     C94532   6.566   5.787   1.144 -1.1138  0.6428 -0.4022
  686MOL0     O94533   6.664   5.720   1.088 -0.2311  0.4798  0.2830
  686MOL0     C94534   6.658   5.675   0.958  0.1999 -0.0783  0.3260
  686MOL0     C94535   6.769   5.707   0.875  0.5319 -0.1978 -0.6649
  686MOL0     C94536   6.782   5.655   0.749 -0.5046  0.1343  0.1544
  686MOL0     C94537   6.672   5.598   0.691  0.7466  1.0562  0.2484
  686MOL0     O94538   6.651   5.568   0.553 -1.2527 -0.3226  0.2394
  686MOL0     C94539   6.759   5.602   0.458 -0.7544  0.4646 -0.3123
  686MOL0     C94540   6.698   5.656   0.342 -0.0203 -0.5506 -0.0539
  686MOL0     C94541   6.813   5.698   0.238  0.2387  0.2465  0.0418
  686MOL0     C94542   6.914   5.805   0.302  0.6075 -0.4479  0.2848
  686MOL0     C94543   6.979   5.885   0.186 -0.4915  0.5686 -0.0026
  686MOL0     C94544   7.064   5.783   0.100 -0.6507  0.0530 -0.7018
  686MOL0     C94545   7.083   5.848  -0.038 -1.2770  0.7306  0.2561
  686MOL0     C94546   7.190   5.767  -0.105 -0.5637 -0.1245 -0.5553
  686MOL0     N94547   7.196   5.803  -0.243 -0.4490  0.1148  0.0106
  686MOL0     C94548   7.150   5.922  -0.305  0.9045  0.4073  0.7510
  686MOL0     C94549   7.221   5.925  -0.423 -0.0063  0.2596 -0.4856
  686MOL0     C94550   7.199   6.019  -0.537 -0.3906 -1.2204  0.3663
  686MOL0     C94551   7.202   6.174  -0.511 -0.3039 -0.4673 -0.6442
  686MOL0     C94552   7.183   6.260  -0.630 -0.7162  0.9835  0.3328
  686MOL0     C94553   7.315   6.251  -0.709  0.1238 -0.9951  0.2216
  686MOL0     O94554   7.416   6.335  -0.657 -0.0700 -0.4454  0.4286
  686MOL0     C94555   7.401   6.465  -0.691  0.2518 -0.5644 -0.4278
  686MOL0     C94556   7.389   6.518  -0.820  0.1953  0.2594  0.2199
  686MOL0     C94557   7.383   6.651  -0.843 -0.6196  0.0888 -0.2627
  686MOL0     C94558   7.363   6.698  -0.985  0.3425 -0.1572 -0.2470
  686MOL0     C94559   7.371   6.745  -0.741  1.0845 -0.1520  0.1585
  686MOL0     C94560   7.336   6.895  -0.765  0.1345 -0.3012 -0.0673
  686MOL0     O94561   7.420   6.990  -0.716 -0.9161  0.4875 -0.3927
  686MOL0     C94562   7.413   7.122  -0.749  0.6326  0.1797 -0.3462
  686MOL0     C94563   7.371   7.173  -0.873  0.5685  0.0704 -0.3285
  686MOL0     C94564   7.373   7.308  -0.900 -0.0341  1.1511 -0.0097
  686MOL0     C94565   7.417   7.396  -0.800  0.3912 -0.7862 -0.3108
  686MOL0     O94566   7.429   7.530  -0.820 -0.5719 -0.0302  0.6302
  686MOL0     C94567   7.498   7.571  -0.946  0.0520 -0.6866  0.4096
  686MOL0     C94568   7.413   7.690  -0.993  0.3389  0.3630  0.0756
  686MOL0     C94569   7.286   7.652  -1.066 -0.4285 -0.5018 -0.4634
  686MOL0     C94570   7.255   7.752  -1.170 -0.1906  0.0139  0.1596
  686MOL0     C94571   7.137   7.710  -1.264 -0.0685 -0.8690  0.9834
  686MOL0     C94572   7.126   7.806  -1.390  0.3715 -0.2717 -0.4074
  686MOL0     C94573   6.999   7.786  -1.479  0.5791  0.7053 -0.3677
  686MOL0     C94574   6.962   7.904  -1.558  0.1576 -0.7916  0.0104
  686MOL0    Cl94575   6.929   8.036  -1.449  0.0228 -0.0435  0.2700
  686MOL0     C94576   7.449   7.350  -0.672 -0.3722  0.0471 -0.1717
  686MOL0     C94577   7.459   7.207  -0.649  0.3800 -0.7348 -0.0914
  686MOL0     O94578   7.227   6.922  -0.818 -0.7055 -0.0268 -0.3002
  686MOL0     C94579   7.394   6.700  -0.608  0.0241 -0.4822  0.2399
  686MOL0     C94580   7.404   6.567  -0.585 -0.0524 -0.3311  0.2520
  686MOL0     N94581   7.299   5.808  -0.434  0.6741 -0.3151  0.4972
  686MOL0     N94582   7.292   5.748  -0.324 -0.8991  0.4969  0.3468
  686MOL0     C94583   6.550   5.576   0.768  0.0605  0.1807  0.6533
  686MOL0     C94584   6.546   5.611   0.899  0.4582 -0.8623 -0.1974
  686MOL0     C94585   6.571   5.798   1.287 -1.0875  0.9251 -0.6349
  686MOL0     C94586   6.697   5.812   1.344 -0.7082  0.5582 -1.1622
  686MOL0     C94587   6.714   5.824   1.487  0.3515  0.0107  0.1192
  686MOL0     C94588   6.612   5.815   1.571  0.0001  0.7299  0.2047
  686MOL0     O94589   6.649   5.835   1.703 -0.2488 -0.2745 -0.0995
  686MOL0     C94590   6.549   5.824   1.805  0.0955  0.1340 -0.3685
  686MOL0     C94591   6.609   5.807   1.935 -0.3393 -0.0713 -0.5182
  686MOL0     C94592   6.720   5.912   1.965  0.4189 -0.1624  0.2035
  686MOL0     C94593   6.772   5.900   2.111  0.5412  0.2303 -0.0059
  686MOL0     C94594   6.849   5.776   2.116  0.1327  0.3107  0.0059
  686MOL0     C94595   6.918   5.675   2.125 -0.8197  0.1262  0.3775
  686MOL0     C94596   6.480   5.799   1.518 -1.1516  1.6196 -0.2421
  686MOL0     C94597   6.461   5.791   1.377 -0.4054 -0.1020  0.4788
  686MOL0     C94598   6.320   5.754   1.331 -0.8958  0.1088 -0.9924
  686MOL0     H94599   6.856   5.753   0.922 -0.8490 -0.7279  2.6193
  686MOL0     H94600   6.873   5.676   0.695  0.2350  0.6349  1.5497
  686MOL0     H94601   6.810   5.507   0.441 -0.0781  0.5875  0.9270
  686MOL0     H94602   6.835   5.667   0.503 -0.3333 -0.9334  1.0754
  686MOL0     H94603   6.615   5.596   0.304 -2.1378 -1.3415  5.0984
  686MOL0     H94604   6.644   5.745   0.375  1.4703 -0.4519  2.3277
  686MOL0     H94605   6.861   5.602   0.216  0.6444 -0.2517  2.7236
  686MOL0     H94606   6.767   5.733   0.145  1.5106 -1.6648 -1.3777
  686MOL0     H94607   6.851   5.881   0.349 -0.7453 -1.0059 -0.5322
  686MOL0     H94608   6.978   5.762   0.379  1.7725  1.4556  0.4277
  686MOL0     H94609   7.036   5.959   0.244  0.5537 -1.3340  1.4909
  686MOL0     H94610   6.900   5.927   0.123 -2.4734 -1.8508  0.7484
  686MOL0     H94611   7.159   5.757   0.148 -2.7049 -3.5719  1.9523
  686MOL0     H94612   7.003   5.692   0.090 -0.3787 -0.0546 -1.4645
  686MOL0     H94613   7.103   5.955  -0.024  0.4549  0.3533  1.0607
  686MOL0     H94614   6.986   5.843  -0.087  0.6307 -1.5170 -3.7759
  686MOL0     H94615   7.286   5.783  -0.056 -1.5202  0.0801  1.3231
  686MOL0     H94616   7.160   5.663  -0.093 -2.0840  0.3993  0.4052
  686MOL0     H94617   7.076   5.990  -0.262 -1.6947 -3.7044  3.5459
  686MOL0     H94618   7.098   6.007  -0.576 -0.1054  2.0181 -1.8260
  686MOL0     H94619   7.272   5.990  -0.614 -0.1451 -1.9105  0.8492
  686MOL0     H94620   7.121   6.204  -0.443  0.3507 -0.7517  0.2775
  686MOL0     H94621   7.296   6.201  -0.463 -1.0371  2.5964 -0.7722
  686MOL0     H94622   7.100   6.215  -0.684  0.1946 -1.3646  0.7633
  686MOL0     H94623   7.155   6.364  -0.606 -2.3655  1.6134 -3.6049
  686MOL0     H94624   7.360   6.151  -0.717  2.2589 -0.1455  0.9055
  686MOL0     H94625   7.285   6.283  -0.809  0.1490 -0.3267  0.4265
  686MOL0     H94626   7.378   6.452  -0.905 -0.1570  0.3218  0.2134
  686MOL0     H94627   7.255   6.697  -1.002 -0.0447  0.5285  1.7854
  686MOL0     H94628   7.421   6.645  -1.061  0.8794 -0.0215  0.0536
  686MOL0     H94629   7.406   6.797  -1.007  0.2122  0.1041  0.6293
  686MOL0     H94630   7.334   7.109  -0.952  0.1003  0.2154 -0.2272
  686MOL0     H94631   7.343   7.346  -0.997  2.8584 -0.9750 -1.8921
  686MOL0     H94632   7.600   7.608  -0.933 -0.3064  0.9315 -0.9637
  686MOL0     H94633   7.506   7.489  -1.018  0.2347  0.0005 -0.3716
  686MOL0     H94634   7.398   7.742  -0.898 -0.5057 -1.4072  0.9539
  686MOL0     H94635   7.480   7.745  -1.060  2.4372  0.6755  2.2903
  686MOL0     H94636   7.191   7.647  -1.013 -2.2071  1.4686 -3.1878
  686MOL0     H94637   7.308   7.552  -1.104  2.9169  0.5513 -1.6175
  686MOL0     H94638   7.333   7.754  -1.246  1.1855 -0.1179  1.5305
  686MOL0     H94639   7.230   7.849  -1.126 -1.4011  0.5606 -1.6289
  686MOL0     H94640   7.156   7.610  -1.305 -0.7559 -1.7694  2.7702
  686MOL0     H94641   7.042   7.702  -1.210 -1.2145 -0.0041 -0.7922
  686MOL0     H94642   7.214   7.798  -1.455  2.5351 -0.4078  2.3319
  686MOL0     H94643   7.127   7.911  -1.358 -3.2611  0.6363 -2.7447
  686MOL0     H94644   6.921   7.742  -1.416  1.7028 -2.7786 -1.1754
  686MOL0     H94645   7.022   7.707  -1.551  2.2536 -0.0467  0.8948
  686MOL0     H94646   6.876   7.885  -1.622 -1.2507  1.8401  0.9679
  686MOL0     H94647   7.046   7.941  -1.617  0.7451 -0.0508  1.2600
  686MOL0     H94648   7.474   7.424  -0.597 -3.0979 -2.7863  3.9487
  686MOL0     H94649   7.492   7.170  -0.553 -1.2575 -0.7457  0.4854
  686MOL0     H94650   7.372   6.764  -0.523 -0.8299  1.2709 -1.2129
  686MOL0     H94651   7.393   6.521  -0.488 -1.6018  0.0980  0.3047
  686MOL0     H94652   6.468   5.520   0.725 -0.5431 -0.6910  2.7796
  686MOL0     H94653   6.467   5.581   0.968 -0.8772  1.6677 -0.5038
  686MOL0     H94654   6.788   5.815   1.285 -0.3160  0.1045 -0.5837
  686MOL0     H94655   6.809   5.838   1.538  2.2958 -2.6325 -2.4312
  686MOL0     H94656   6.497   5.919   1.793  0.5397  0.1528 -2.8084
  686MOL0     H94657   6.475   5.745   1.790 -0.3759  0.8659 -2.1405
  686MOL0     H94658   6.648   5.705   1.942  1.1842  0.5781  5.4683
  686MOL0     H94659   6.523   5.808   2.002 -0.3398 -1.8050 -0.4571
  686MOL0     H94660   6.793   5.894   1.886 -0.5222 -0.0046 -0.7345
  686MOL0     H94661   6.668   6.007   1.946 -0.6528 -0.9575 -1.0341
  686MOL0     H94662   6.689   5.897   2.182  0.9490 -3.1849  0.4531
  686MOL0     H94663   6.828   5.989   2.141 -1.7177  0.9702  2.4594
  686MOL0     H94664   6.970   5.584   2.145 -0.7632  0.4023  1.5611
  686MOL0     H94665   6.402   5.769   1.587  1.1884  0.0096  1.8566
  686MOL0     H94666   6.265   5.705   1.411 -2.8069  2.2847 -0.8871
  686MOL0     H94667   6.258   5.836   1.295  0.6478  1.2609 -1.1442
  686MOL0     H94668   6.341   5.676   1.257 -0.5551 -0.7184 -0.0507
  687MOL0     O94669   5.999   9.056  10.385 -0.6480 -0.2912 -0.3699
  687MOL0     C94670   6.019   8.946  10.431 -0.3135 -0.0753  0.0970
  687MOL0     O94671   6.126   8.866  10.396 -0.7303  0.7937 -0.6839
  687MOL0     C94672   6.240   8.916  10.335 -0.4380  0.3514  0.2501
  687MOL0     C94673   6.353   8.850  10.364  0.3654  0.5007 -0.0348
  687MOL0     C94674   6.478   8.895  10.319 -0.7271 -0.8862 -0.5584
  687MOL0     C94675   6.483   9.012  10.243  0.0100  0.2139 -0.3851
  687MOL0     O94676   6.601   9.075  10.212 -0.0796 -0.7622  0.0248
  687MOL0     C94677   6.718   9.011  10.255  0.3112  0.0112  0.3240
  687MOL0     C94678   6.829   9.112  10.227 -0.4975 -0.2370 -0.8031
  687MOL0     C94679   6.833   9.158  10.084  0.6818  0.4776 -0.1280
  687MOL0     C94680   6.947   9.260  10.079 -0.6848 -0.2874  0.4486
  687MOL0     C94681   6.924   9.355   9.959 -0.1188  0.9447  0.2190
  687MOL0     C94682   6.904   9.290   9.826 -0.7858  0.4092 -0.2736
  687MOL0     C94683   6.878   9.414   9.729  0.3585  0.1991 -0.3607
  687MOL0     C94684   6.835   9.387   9.582  0.1940 -1.3483  0.2590
  687MOL0     N94685   6.715   9.299   9.578  0.2965 -0.2149 -0.7847
  687MOL0     C94686   6.718   9.167   9.546  0.5582  0.0103  0.0269
  687MOL0     C94687   6.583   9.140   9.545 -0.0638 -1.2874  0.0241
  687MOL0     C94688   6.512   9.011   9.520 -0.9651  0.0330  0.1473
  687MOL0     C94689   6.403   9.033   9.414 -0.8379 -0.7023 -0.8571
  687MOL0     C94690   6.291   8.930   9.413 -0.1015 -0.4244  0.3552
  687MOL0     C94691   6.342   8.793   9.385 -0.0475  0.1065  0.6767
  687MOL0     O94692   6.247   8.691   9.429  0.4580 -0.0335 -0.0576
  687MOL0     C94693   6.288   8.558   9.427 -0.2812 -0.3700 -0.4305
  687MOL0     C94694   6.208   8.451   9.471 -0.2068 -0.3819 -0.7308
  687MOL0     C94695   6.233   8.315   9.449  0.0631 -0.0892  0.4168
  687MOL0     C94696   6.136   8.212   9.515 -0.6272 -0.3385  0.9963
  687MOL0     C94697   6.353   8.278   9.393  0.1913  0.0142  0.3510
  687MOL0     C94698   6.389   8.139   9.355  0.4803  0.0791  0.1923
  687MOL0     O94699   6.511   8.095   9.407 -0.1726  0.6245  0.1620
  687MOL0     C94700   6.559   7.967   9.380  0.2222 -0.8551 -0.1578
  687MOL0     C94701   6.480   7.852   9.381  0.1269 -0.2545 -0.0790
  687MOL0     C94702   6.524   7.720   9.350 -1.2200  0.1885 -0.6322
  687MOL0     C94703   6.669   7.709   9.336  0.4863  0.2919  0.8140
  687MOL0     O94704   6.720   7.583   9.316  0.1602  0.4215  0.2344
  687MOL0     C94705   6.830   7.555   9.404 -0.3373 -0.0123  0.8757
  687MOL0     C94706   6.974   7.580   9.353 -0.1631 -0.0359  0.2663
  687MOL0     C94707   7.080   7.498   9.430  0.1028 -0.3078 -0.3883
  687MOL0     C94708   7.087   7.342   9.399  0.4300  0.3688 -0.2549
  687MOL0     C94709   7.223   7.279   9.414 -0.4067  0.1801 -0.1117
  687MOL0     C94710   7.222   7.121   9.385 -0.4196  0.1006  0.1851
  687MOL0     C94711   7.218   7.090   9.230 -0.1554 -0.6154 -0.0728
  687MOL0     C94712   7.185   6.943   9.199 -0.1809 -0.2804  0.1522
  687MOL0    Cl94713   7.316   6.831   9.259  0.2064 -0.0564  0.0668
  687MOL0     C94714   6.743   7.826   9.332 -0.1442 -0.8236  0.6674
  687MOL0     C94715   6.693   7.953   9.354 -0.4487 -0.1990  0.1787
  687MOL0     O94716   6.319   8.079   9.277 -0.6627 -0.0418  0.4006
  687MOL0     C94717   6.444   8.377   9.351 -0.1458 -0.6726  0.2727
  687MOL0     C94718   6.403   8.515   9.349 -0.0594 -0.3611  0.2451
  687MOL0     N94719   6.508   9.248   9.599  0.0983 -0.8555  0.4844
  687MOL0     N94720   6.589   9.345   9.625  0.5437  0.4959  0.1366
  687MOL0     C94721   6.361   9.071  10.204 -0.2521  0.6278  0.1980
  687MOL0     C94722   6.239   9.023  10.249  0.1057  0.3438 -0.4764
  687MOL0     C94723   5.935   8.884  10.537  0.2934  0.0377 -0.4641
  687MOL0     C94724   5.943   8.746  10.564 -0.0527  0.4355 -0.2040
  687MOL0     C94725   5.849   8.674  10.646  0.7038  0.5883  1.4724
  687MOL0     C94726   5.758   8.744  10.723  0.6527 -1.0176 -0.0720
  687MOL0     O94727   5.675   8.686  10.813 -0.4427  0.5392  0.6425
  687MOL0     C94728   5.718   8.721  10.942 -0.8396  0.0219 -0.6131
  687MOL0     C94729   5.606   8.674  11.034 -0.0580 -0.2674  0.2915
  687MOL0     C94730   5.483   8.762  11.031 -0.1882  0.3928  0.0091
  687MOL0     C94731   5.358   8.698  11.065  0.1348 -0.1310  0.5829
  687MOL0     C94732   5.252   8.792  11.082 -0.5175  0.3490  0.1572
  687MOL0     C94733   5.170   8.881  11.091 -0.2451  0.2820  0.4166
  687MOL0     C94734   5.763   8.889  10.709  0.3585 -0.1226 -0.3051
  687MOL0     C94735   5.834   8.961  10.610  0.2969 -0.5326 -0.1086
  687MOL0     C94736   5.800   9.111  10.594  0.5255 -1.1579 -0.2429
  687MOL0     H94737   6.341   8.765  10.429 -2.0606  2.0158  1.6580
  687MOL0     H94738   6.564   8.830  10.336  0.8356  0.8569 -1.4367
  687MOL0     H94739   6.746   8.923  10.196  0.4420 -0.0447  0.4693
  687MOL0     H94740   6.712   8.991  10.363 -0.9866  4.3923  1.2525
  687MOL0     H94741   6.824   9.199  10.293  1.6158 -1.0451  0.5298
  687MOL0     H94742   6.919   9.061  10.261 -1.2360  1.4013  4.4808
  687MOL0     H94743   6.845   9.067  10.024 -0.7828  0.3912 -0.3344
  687MOL0     H94744   6.739   9.205  10.051  0.9592  1.8434  0.9337
  687MOL0     H94745   6.962   9.304  10.177  0.3598 -1.3277  0.7773
  687MOL0     H94746   7.030   9.193  10.055 -0.2108  0.8031 -1.1361
  687MOL0     H94747   7.005   9.429   9.963 -1.4373  2.5506 -1.0662
  687MOL0     H94748   6.834   9.415   9.980 -1.4358  0.0967 -2.5662
  687MOL0     H94749   6.988   9.233   9.787  0.8858  2.7821 -0.3984
  687MOL0     H94750   6.809   9.237   9.838 -0.0704 -0.2374  4.0842
  687MOL0     H94751   6.972   9.470   9.732 -0.1487  1.1393  3.4061
  687MOL0     H94752   6.819   9.489   9.782  0.6664  3.1118 -3.7766
  687MOL0     H94753   6.806   9.481   9.533 -0.9017 -1.8046  0.0076
  687MOL0     H94754   6.911   9.333   9.525  0.9394 -2.3312  2.1350
  687MOL0     H94755   6.800   9.108   9.505 -0.0372  0.4678 -1.9699
  687MOL0     H94756   6.478   8.959   9.610  1.3705  0.6745  1.4525
  687MOL0     H94757   6.579   8.934   9.481 -2.0606 -1.3048  0.7699
  687MOL0     H94758   6.363   9.134   9.428  0.2027 -0.4689  0.7309
  687MOL0     H94759   6.454   9.047   9.318 -0.0206  1.5616 -0.1634
  687MOL0     H94760   6.236   8.933   9.508  0.3391 -2.3327  0.7191
  687MOL0     H94761   6.216   8.946   9.335  2.4468 -2.3707 -2.7225
  687MOL0     H94762   6.354   8.778   9.277  2.1312 -2.7094  1.1820
  687MOL0     H94763   6.444   8.781   9.423  1.0849  3.8992 -0.6968
  687MOL0     H94764   6.125   8.493   9.528  1.2572  2.2881 -0.3969
  687MOL0     H94765   6.105   8.252   9.612  1.3752  2.1322  0.7212
  687MOL0     H94766   6.199   8.126   9.539 -0.0092 -0.8420 -2.0272
  687MOL0     H94767   6.054   8.183   9.448  0.4304 -0.9849 -0.0599
  687MOL0     H94768   6.372   7.857   9.386  0.0428  1.2719 -2.1765
  687MOL0     H94769   6.455   7.637   9.343 -2.6311  1.2400  0.2668
  687MOL0     H94770   6.815   7.603   9.501  0.0113  2.2971 -0.1536
  687MOL0     H94771   6.823   7.447   9.421 -0.1573 -0.1845 -0.0598
  687MOL0     H94772   6.970   7.560   9.245  1.4007 -0.0361  0.1954
  687MOL0     H94773   7.007   7.683   9.369  0.6750  0.5376 -3.9393
  687MOL0     H94774   7.078   7.518   9.537 -0.0278  0.0285 -0.4527
  687MOL0     H94775   7.174   7.536   9.387 -0.4407  1.2661 -0.2496
  687MOL0     H94776   7.049   7.331   9.297  0.6141 -1.8735 -0.1383
  687MOL0     H94777   7.012   7.286   9.457 -3.8842  1.0021 -4.5965
  687MOL0     H94778   7.295   7.328   9.348 -0.1739 -1.8366 -1.4652
  687MOL0     H94779   7.258   7.293   9.517  2.2723 -0.7937 -0.8004
  687MOL0     H94780   7.140   7.075   9.440  0.5005  0.1104  1.6280
  687MOL0     H94781   7.314   7.087   9.435 -0.1191  2.2987  1.2342
  687MOL0     H94782   7.319   7.119   9.200 -0.8336  1.7105 -0.2877
  687MOL0     H94783   7.151   7.163   9.186  0.3621 -1.7040 -2.8902
  687MOL0     H94784   7.184   6.938   9.090  0.6383  2.9059 -0.1287
  687MOL0     H94785   7.089   6.906   9.235  1.1492 -3.0971  1.0794
  687MOL0     H94786   6.845   7.833   9.296  0.2523 -0.9484  1.7264
  687MOL0     H94787   6.758   8.037   9.334 -0.4592  0.0084  0.9777
  687MOL0     H94788   6.534   8.344   9.299  0.2281 -0.7687  0.9711
  687MOL0     H94789   6.464   8.578   9.286 -0.8791  0.9919  0.7578
  687MOL0     H94790   6.346   9.147  10.128  0.6434 -2.4921 -3.4043
  687MOL0     H94791   6.152   9.078  10.215  0.8857  3.3836  1.9490
  687MOL0     H94792   6.026   8.694  10.517 -0.3326  0.6100 -0.9186
  687MOL0     H94793   5.851   8.566  10.643  0.2250  0.6029 -0.6541
  687MOL0     H94794   5.809   8.669  10.970 -0.9324  0.4927  0.6435
  687MOL0     H94795   5.724   8.829  10.959 -2.9236  0.1186 -0.1007
  687MOL0     H94796   5.640   8.671  11.138  0.7435  0.2070  0.0519
  687MOL0     H94797   5.574   8.578  10.991 -0.0905  0.5294 -1.5767
  687MOL0     H94798   5.496   8.842  11.105 -3.3164  1.2791 -0.2592
  687MOL0     H94799   5.479   8.827  10.943 -3.2991 -1.7592 -1.6143
  687MOL0     H94800   5.365   8.639  11.156  4.3646  0.9986  1.1759
  687MOL0     H94801   5.337   8.634  10.979  2.8562 -3.1745  1.9639
  687MOL0     H94802   5.087   8.949  11.101 -2.8787 -2.6875  0.2112
  687MOL0     H94803   5.705   8.949  10.778  2.5625  3.1375 -1.0399
  687MOL0     H94804   5.734   9.133  10.509  0.6245  2.1414  0.3972
  687MOL0     H94805   5.750   9.141  10.686  0.0926 -0.9180 -0.5504
  687MOL0     H94806   5.893   9.169  10.589  0.1404 -0.5763 -4.4469
  688MOL0     O94807  10.488   6.415   3.556  0.3786 -0.6014 -0.5597
  688MOL0     C94808  10.451   6.471   3.451 -0.8123 -0.7325 -0.5005
  688MOL0     O94809  10.340   6.552   3.453  0.6127 -0.2068  0.2864
  688MOL0     C94810  10.285   6.576   3.330  0.6574 -0.2633  0.6464
  688MOL0     C94811  10.316   6.686   3.248  0.0771  0.3946 -1.5816
  688MOL0     C94812  10.260   6.705   3.122  0.0849  0.0711 -0.1581
  688MOL0     C94813  10.170   6.608   3.067  0.3821  0.1826 -0.1713
  688MOL0     O94814  10.100   6.647   2.955 -0.0408  0.3287 -0.0469
  688MOL0     C94815  10.029   6.543   2.878 -0.1556  0.5772  0.1018
  688MOL0     C94816   9.992   6.596   2.746  0.0584  0.7584 -0.7795
  688MOL0     C94817  10.093   6.553   2.639 -0.0057  0.7857  0.1862
  688MOL0     C94818  10.024   6.512   2.507  0.4152  0.0404  0.2961
  688MOL0     C94819  10.139   6.461   2.413 -0.1345  1.1679  0.1055
  688MOL0     C94820  10.079   6.393   2.286  0.7119 -0.4773 -0.8828
  688MOL0     C94821  10.186   6.370   2.180  0.5350  0.3751  1.5000
  688MOL0     C94822  10.130   6.304   2.062 -0.0041  0.3161  0.6833
  688MOL0     N94823  10.028   6.381   1.993 -0.6862 -0.0676 -0.6419
  688MOL0     C94824  10.049   6.476   1.895  0.4081  0.6514  0.3535
  688MOL0     C94825   9.927   6.537   1.892  0.3438  0.4891  0.0306
  688MOL0     C94826   9.895   6.662   1.813 -0.6696  0.2898  0.6760
  688MOL0     C94827   9.820   6.629   1.688  0.2237  0.1806  0.6868
  688MOL0     C94828   9.784   6.755   1.596  0.1525 -0.0239  0.3358
  688MOL0     C94829   9.686   6.710   1.486  1.0269  0.4079  0.6064
  688MOL0     O94830   9.616   6.812   1.418  0.4720  0.4316 -0.0455
  688MOL0     C94831   9.589   6.785   1.285  0.1961  0.4068 -0.7879
  688MOL0     C94832   9.647   6.872   1.198 -0.5736 -0.7548 -0.2371
  688MOL0     C94833   9.622   6.875   1.063 -0.1211 -0.3125 -0.7856
  688MOL0     C94834   9.691   6.977   0.982 -0.4588 -0.3784 -0.3365
  688MOL0     C94835   9.529   6.780   1.014  0.3751  0.4942  0.4665
  688MOL0     C94836   9.477   6.771   0.875 -0.6332 -0.8740 -0.4551
  688MOL0     O94837   9.365   6.697   0.864  0.9489 -0.4799 -0.2987
  688MOL0     C94838   9.317   6.696   0.735 -0.7326  0.6797 -0.1608
  688MOL0     C94839   9.341   6.578   0.662 -0.0636  0.2548 -0.6949
  688MOL0     C94840   9.310   6.571   0.533  0.3881 -0.6663  0.2262
  688MOL0     C94841   9.244   6.685   0.480  0.6396  0.2057  0.9422
  688MOL0     O94842   9.225   6.698   0.346 -0.4703 -0.2529  0.8862
  688MOL0     C94843   9.159   6.588   0.282 -0.2899 -0.1403  0.3645
  688MOL0     C94844   9.228   6.579   0.145  0.3480 -0.4020 -0.4096
  688MOL0     C94845   9.133   6.508   0.043 -0.2724 -0.2110 -0.7649
  688MOL0     C94846   9.220   6.494  -0.080 -0.4250  0.5047 -0.0866
  688MOL0     C94847   9.153   6.388  -0.174 -0.1562  0.7414  0.2015
  688MOL0     C94848   9.241   6.382  -0.300  0.1392  0.9268  0.7819
  688MOL0     C94849   9.261   6.514  -0.380 -0.7407  0.2838  0.0643
  688MOL0     C94850   9.146   6.603  -0.414 -0.7028  0.1369 -1.4603
  688MOL0    Cl94851   9.015   6.503  -0.477 -0.4122  0.1230 -0.1176
  688MOL0     C94852   9.219   6.800   0.553 -0.6477  0.7470  0.8299
  688MOL0     C94853   9.254   6.805   0.686 -0.8153  0.3554 -0.1743
  688MOL0     O94854   9.558   6.811   0.784  0.2842  0.1474 -0.2535
  688MOL0     C94855   9.477   6.682   1.110 -0.7587  0.1374 -0.0439
  688MOL0     C94856   9.507   6.685   1.238 -0.2576  0.8399 -0.5493
  688MOL0     N94857   9.831   6.474   1.969  0.5768  0.0423 -1.0365
  688MOL0     N94858   9.898   6.377   2.027 -0.2631  0.9353  0.3188
  688MOL0     C94859  10.139   6.490   3.145  0.5254  0.2363  0.7979
  688MOL0     C94860  10.198   6.469   3.277  0.1569 -0.2170 -0.1783
  688MOL0     C94861  10.534   6.432   3.332  0.3009 -0.5179 -0.8753
  688MOL0     C94862  10.584   6.546   3.270 -1.1150 -1.2458  0.9172
  688MOL0     C94863  10.657   6.537   3.153 -0.3993  0.7931  0.1083
  688MOL0     C94864  10.675   6.410   3.092  0.5082  0.6736 -0.1861
  688MOL0     O94865  10.748   6.401   2.974  0.7878 -0.1384 -0.6485
  688MOL0     C94866  10.675   6.408   2.852  0.6490 -0.5896  0.0336
  688MOL0     C94867  10.665   6.281   2.789 -0.4675  0.6275 -0.3577
  688MOL0     C94868  10.537   6.203   2.822 -0.4494  0.0767  0.3986
  688MOL0     C94869  10.417   6.265   2.767  0.1487 -0.5592  0.2269
  688MOL0     C94870  10.284   6.202   2.792 -0.0159 -0.4130 -0.2900
  688MOL0     C94871  10.181   6.151   2.803  0.7315  0.1907  0.5357
  688MOL0     C94872  10.634   6.292   3.165 -0.0784 -0.0369 -0.0473
  688MOL0     C94873  10.561   6.305   3.287 -0.1555  1.0750  1.3100
  688MOL0     C94874  10.498   6.195   3.355  0.5613  0.1634  0.1035
  688MOL0     H94875  10.385   6.763   3.282 -0.2763  1.1291 -2.4811
  688MOL0     H94876  10.288   6.794   3.067 -1.8472  1.1205  0.4888
  688MOL0     H94877   9.940   6.524   2.938  0.0852  0.3590  0.3907
  688MOL0     H94878  10.084   6.448   2.871  0.2968  0.5846  2.7105
  688MOL0     H94879   9.890   6.574   2.713  0.5168  0.0810 -1.8487
  688MOL0     H94880   9.994   6.705   2.755  4.4829  0.8182 -0.2843
  688MOL0     H94881  10.156   6.637   2.608  0.4965 -1.0142 -4.3373
  688MOL0     H94882  10.149   6.469   2.682  2.5751  2.2563 -0.0340
  688MOL0     H94883   9.949   6.435   2.528 -0.3197  0.2149 -1.4980
  688MOL0     H94884   9.980   6.598   2.456  1.5911 -1.1410 -3.0318
  688MOL0     H94885  10.202   6.399   2.478  0.6330  3.2672  1.4750
  688MOL0     H94886  10.200   6.548   2.384 -1.0200  1.7070 -0.1860
  688MOL0     H94887  10.040   6.295   2.316 -0.2547  0.5602  1.5629
  688MOL0     H94888   9.990   6.445   2.247  0.8664 -1.3731 -2.5121
  688MOL0     H94889  10.269   6.325   2.235  2.1218  3.0058  1.4097
  688MOL0     H94890  10.225   6.469   2.156  2.7421 -0.0742  2.9647
  688MOL0     H94891  10.211   6.293   1.990 -2.3364 -2.2816 -1.8073
  688MOL0     H94892  10.103   6.199   2.081 -1.6486  0.1968 -1.8539
  688MOL0     H94893  10.142   6.486   1.840  1.4877  0.3393  2.0795
  688MOL0     H94894   9.988   6.713   1.786 -1.0305  0.4410 -0.3562
  688MOL0     H94895   9.840   6.736   1.872  0.0345  2.1990 -0.9404
  688MOL0     H94896   9.884   6.563   1.629 -1.0103  1.7023 -2.6057
  688MOL0     H94897   9.729   6.573   1.708  1.0031 -2.4475 -2.3687
  688MOL0     H94898   9.748   6.835   1.661 -0.4851 -1.3513  1.6961
  688MOL0     H94899   9.873   6.802   1.554  0.2451  0.5450  1.1411
  688MOL0     H94900   9.756   6.664   1.416  0.8001 -0.7362  1.1167
  688MOL0     H94901   9.611   6.640   1.523  0.7712 -0.2466 -1.0471
  688MOL0     H94902   9.713   6.949   1.238 -1.7789  0.5630 -0.6928
  688MOL0     H94903   9.736   7.059   1.038 -1.5944  0.9292 -1.2790
  688MOL0     H94904   9.616   7.025   0.918 -1.6665  0.0250  1.3198
  688MOL0     H94905   9.752   6.927   0.906 -2.3859 -0.5761 -1.8283
  688MOL0     H94906   9.388   6.496   0.715 -1.1641  0.4586  0.6703
  688MOL0     H94907   9.331   6.481   0.476 -0.4045 -0.5604 -0.2407
  688MOL0     H94908   9.168   6.490   0.329  1.3672  0.4613  1.3858
  688MOL0     H94909   9.062   6.636   0.262  0.8901  0.8822 -3.9772
  688MOL0     H94910   9.257   6.681   0.117  0.5514  0.8899  3.7676
  688MOL0     H94911   9.322   6.527   0.162 -0.7322 -1.9676  1.1105
  688MOL0     H94912   9.041   6.564   0.022  0.6448  0.5955 -2.9766
  688MOL0     H94913   9.111   6.412   0.091  3.7413 -0.3822  1.0567
  688MOL0     H94914   9.323   6.460  -0.066 -0.8013 -1.2237 -1.1647
  688MOL0     H94915   9.224   6.592  -0.129 -0.1794  1.2219  1.3138
  688MOL0     H94916   9.153   6.290  -0.126  5.9518 -0.3777 -1.1553
  688MOL0     H94917   9.053   6.423  -0.200 -0.0514  0.5323 -0.4819
  688MOL0     H94918   9.183   6.312  -0.361  0.3831  0.3686  1.1862
  688MOL0     H94919   9.339   6.333  -0.294  1.8073  2.2415 -6.3156
  688MOL0     H94920   9.302   6.479  -0.475 -2.4220  2.2778 -1.5110
  688MOL0     H94921   9.331   6.583  -0.332 -2.1703  2.6096 -0.9892
  688MOL0     H94922   9.176   6.682  -0.483 -0.4040  0.5843 -0.8260
  688MOL0     H94923   9.095   6.642  -0.325  0.2967  0.0274 -0.8309
  688MOL0     H94924   9.180   6.885   0.498  2.2437 -0.2156 -3.1818
  688MOL0     H94925   9.225   6.889   0.748 -0.3201 -0.4429  1.1916
  688MOL0     H94926   9.402   6.613   1.074 -0.3259  0.0992 -0.9018
  688MOL0     H94927   9.467   6.616   1.312  0.9022  1.6528  0.9032
  688MOL0     H94928  10.089   6.400   3.112 -0.6908  1.2692 -0.2866
  688MOL0     H94929  10.168   6.384   3.337 -0.1299 -0.5355 -0.7645
  688MOL0     H94930  10.561   6.642   3.313 -2.0864 -0.6404 -0.8306
  688MOL0     H94931  10.686   6.623   3.095 -1.2072  1.0473  0.0674
  688MOL0     H94932  10.580   6.452   2.885  0.5462 -2.0872  1.9691
  688MOL0     H94933  10.721   6.477   2.782  2.0558 -3.1941 -1.7658
  688MOL0     H94934  10.755   6.229   2.824 -2.1866 -3.0271 -0.8895
  688MOL0     H94935  10.682   6.294   2.682  0.9401  1.5486 -0.0618
  688MOL0     H94936  10.534   6.104   2.776 -2.3108  2.1284 -4.5756
  688MOL0     H94937  10.526   6.187   2.930  0.3515 -2.4662  0.1669
  688MOL0     H94938  10.422   6.260   2.658  0.0606  1.5949  0.0763
  688MOL0     H94939  10.420   6.371   2.794  3.1074  0.2400 -2.6208
  688MOL0     H94940  10.090   6.095   2.794  0.2543  1.2413 -2.1624
  688MOL0     H94941  10.642   6.199   3.110 -2.7874 -0.3716 -0.0341
  688MOL0     H94942  10.532   6.178   3.457 -0.2473  2.5716  0.8423
  688MOL0     H94943  10.395   6.228   3.371  1.3430  3.5688 -1.0798
  688MOL0     H94944  10.487   6.108   3.289 -1.7221  0.0938  0.4712
  689MOL0     O94945   4.218   6.597  10.366 -0.5767 -0.1475  0.6428
  689MOL0     C94946   4.243   6.478  10.337 -0.4118 -0.3934  0.6371
  689MOL0     O94947   4.294   6.433  10.214 -0.2990 -0.4473  0.4824
  689MOL0     C94948   4.333   6.528  10.128 -1.1656 -0.1804  0.5862
  689MOL0     C94949   4.461   6.587  10.141  0.3465 -0.2567  0.6018
  689MOL0     C94950   4.495   6.684  10.048  0.2367  0.2383  0.3468
  689MOL0     C94951   4.418   6.722   9.936  0.3035  0.2854 -0.3410
  689MOL0     O94952   4.473   6.814   9.846 -0.0549 -0.7649  0.3422
  689MOL0     C94953   4.391   6.848   9.730  1.2534  0.1736 -0.6250
  689MOL0     C94954   4.472   6.936   9.641  0.5942 -0.6334  0.7742
  689MOL0     C94955   4.383   6.992   9.530  0.0142  0.0697 -0.0043
  689MOL0     C94956   4.434   7.102   9.438 -0.3331  0.8024 -0.5018
  689MOL0     C94957   4.338   7.122   9.319  0.4169  0.5285  1.0366
  689MOL0     C94958   4.328   7.008   9.217  0.4606  0.4113  0.0610
  689MOL0     C94959   4.454   6.947   9.157 -0.0411 -1.0601 -0.0834
  689MOL0     C94960   4.508   7.034   9.042 -0.1864  0.4127  0.5984
  689MOL0     N94961   4.640   6.992   9.009  0.2294 -1.3358  0.1618
  689MOL0     C94962   4.679   6.874   8.967  0.5444 -0.0806 -0.7511
  689MOL0     C94963   4.802   6.893   8.912 -0.8045  0.0492 -0.4045
  689MOL0     C94964   4.865   6.765   8.855 -0.9685  0.2584  0.7420
  689MOL0     C94965   4.822   6.756   8.710  1.1460 -0.4505 -0.1402
  689MOL0     C94966   4.858   6.862   8.608 -0.7060 -0.9905 -0.5901
  689MOL0     C94967   4.822   6.846   8.464  0.0662 -0.4257 -0.2878
  689MOL0     O94968   4.903   6.733   8.428  0.2636  0.0190 -0.0762
  689MOL0     C94969   5.030   6.763   8.374  0.1781 -0.2764  0.6219
  689MOL0     C94970   5.090   6.883   8.350  0.0725 -0.1631  0.9310
  689MOL0     C94971   5.220   6.889   8.283  0.8522 -0.5261  0.4938
  689MOL0     C94972   5.274   7.031   8.274  0.2651  0.1651 -0.0112
  689MOL0     C94973   5.279   6.771   8.236  0.0500 -0.4249 -0.2381
  689MOL0     C94974   5.414   6.780   8.158  0.2117 -0.0999  0.0194
  689MOL0     O94975   5.421   6.780   8.024  0.0988  0.2830 -0.2519
  689MOL0     C94976   5.307   6.756   7.948 -0.4182  1.0701  0.1557
  689MOL0     C94977   5.196   6.842   7.954 -0.0281 -0.2135 -0.0948
  689MOL0     C94978   5.084   6.816   7.870 -0.7290 -0.8632 -0.6000
  689MOL0     C94979   5.073   6.695   7.811  0.4391  0.1562 -0.0411
  689MOL0     O94980   4.950   6.665   7.751 -0.1227 -0.1938  0.8387
  689MOL0     C94981   4.956   6.628   7.613 -0.5132 -0.5483 -0.2346
  689MOL0     C94982   4.831   6.553   7.555  0.9277 -0.4041 -1.1200
  689MOL0     C94983   4.822   6.404   7.620 -0.3098  0.9215  0.9347
  689MOL0     C94984   4.771   6.404   7.758  0.0695 -0.7117  0.2821
  689MOL0     C94985   4.755   6.265   7.817  0.4129 -0.1346 -0.2014
  689MOL0     C94986   4.673   6.292   7.950  0.4191  0.0102  0.3849
  689MOL0     C94987   4.648   6.165   8.021 -0.7244 -0.0077 -0.7194
  689MOL0     C94988   4.518   6.161   8.097 -0.7133 -0.2013  0.7966
  689MOL0    Cl94989   4.551   6.230   8.271 -0.0504  0.0496  0.1918
  689MOL0     C94990   5.173   6.603   7.829  1.3170  0.3324  0.3631
  689MOL0     C94991   5.293   6.639   7.876 -0.8426 -0.1655  1.3037
  689MOL0     O94992   5.517   6.771   8.225  0.5152  0.1021  0.1920
  689MOL0     C94993   5.221   6.647   8.261  0.3354 -0.7410 -0.2146
  689MOL0     C94994   5.095   6.640   8.334 -0.4522  0.0328  0.5137
  689MOL0     N94995   4.845   7.024   8.938  0.2753  0.6671  0.4400
  689MOL0     N94996   4.755   7.074   9.010  0.1256 -0.5316 -0.8262
  689MOL0     C94997   4.288   6.657   9.924  0.3177 -0.5028 -0.9685
  689MOL0     C94998   4.250   6.567  10.028 -0.1605  0.3406  0.5187
  689MOL0     C94999   4.186   6.384  10.433 -0.5753 -0.9028 -0.4522
  689MOL0     C95000   4.083   6.424  10.512  1.2477  0.6470  0.4043
  689MOL0     C95001   4.009   6.330  10.590  0.0277  0.2500 -0.5754
  689MOL0     C95002   4.053   6.188  10.588  0.2507  0.0671 -0.2482
  689MOL0     O95003   4.000   6.090  10.663  0.5569  0.3262 -0.4505
  689MOL0     C95004   3.855   6.097  10.683 -0.0580 -0.6363 -0.4711
  689MOL0     C95005   3.809   5.953  10.664 -0.5645  0.0855 -0.6551
  689MOL0     C95006   3.715   5.929  10.549 -0.0827 -0.6007  0.4606
  689MOL0     C95007   3.786   5.945  10.414  1.0342 -0.3423  0.4040
  689MOL0     C95008   3.677   5.964  10.313 -0.0809  0.1692 -0.1085
  689MOL0     C95009   3.589   5.989  10.231 -1.7005  0.6365  0.0482
  689MOL0     C95010   4.158   6.151  10.504 -0.2532 -0.9608 -0.1079
  689MOL0     C95011   4.232   6.247  10.439 -0.5413  0.6807 -0.5745
  689MOL0     C95012   4.362   6.203  10.358 -0.2708  0.0186 -0.1657
  689MOL0     H95013   4.526   6.574  10.226  2.7500 -1.4218 -1.2913
  689MOL0     H95014   4.589   6.735  10.067  0.5258 -0.3425  0.5207
  689MOL0     H95015   4.299   6.896   9.763  0.9647  0.2028 -1.4459
  689MOL0     H95016   4.364   6.757   9.676 -2.0494 -0.0168  1.0623
  689MOL0     H95017   4.519   7.023   9.688 -1.2021  2.2392 -2.2677
  689MOL0     H95018   4.558   6.876   9.608  1.3804  0.6416  0.4259
  689MOL0     H95019   4.353   6.908   9.466 -0.1755  1.1091 -1.3136
  689MOL0     H95020   4.298   7.043   9.577  2.2373  1.6853  2.5724
  689MOL0     H95021   4.431   7.199   9.489 -2.0408  0.9274 -0.7660
  689MOL0     H95022   4.538   7.080   9.410 -0.0569 -0.9176  1.6544
  689MOL0     H95023   4.354   7.211   9.257 -2.4514  0.4563  0.0808
  689MOL0     H95024   4.236   7.138   9.355  0.3499  1.3739  0.4885
  689MOL0     H95025   4.293   6.916   9.265  0.8764  1.6929  3.0493
  689MOL0     H95026   4.258   7.045   9.142 -1.3273 -0.7677  1.0722
  689MOL0     H95027   4.445   6.845   9.118 -0.7047 -1.2596  0.5680
  689MOL0     H95028   4.530   6.939   9.235 -0.8698  3.0233  1.3658
  689MOL0     H95029   4.438   7.030   8.958  0.6214 -0.2784 -0.0468
  689MOL0     H95030   4.520   7.139   9.070  2.4999 -0.1623  1.8746
  689MOL0     H95031   4.620   6.783   8.957 -0.3044  0.3362  0.3579
  689MOL0     H95032   4.832   6.677   8.910  1.2976 -0.4342  1.1154
  689MOL0     H95033   4.975   6.758   8.853 -1.0587 -1.5459 -0.4314
  689MOL0     H95034   4.866   6.671   8.657  0.6417  1.1678 -3.3582
  689MOL0     H95035   4.713   6.751   8.702  1.0607 -0.1946  0.6895
  689MOL0     H95036   4.816   6.959   8.636 -0.9307 -1.2241 -0.0945
  689MOL0     H95037   4.966   6.881   8.616 -0.7550 -0.0256 -1.8728
  689MOL0     H95038   4.716   6.829   8.446 -0.8812  1.0089  3.0701
  689MOL0     H95039   4.844   6.942   8.416  0.4372  0.0529  0.8024
  689MOL0     H95040   5.044   6.978   8.375  1.0254  1.2449 -2.1747
  689MOL0     H95041   5.209   7.091   8.209  0.4099 -1.9081 -2.1816
  689MOL0     H95042   5.382   7.023   8.260 -0.0112  0.8462 -3.0978
  689MOL0     H95043   5.271   7.069   8.377  0.7819 -0.4467  0.2301
  689MOL0     H95044   5.191   6.933   8.014 -6.6158 -1.0870  1.4974
  689MOL0     H95045   5.010   6.894   7.854 -0.0433 -0.4198 -1.7023
  689MOL0     H95046   4.961   6.721   7.554 -1.1080 -1.7966 -2.3888
  689MOL0     H95047   5.043   6.566   7.591  0.0546  0.3401 -0.5520
  689MOL0     H95048   4.740   6.611   7.572  1.4714 -0.0851  1.1279
  689MOL0     H95049   4.854   6.544   7.449  4.3605  0.1334 -0.5557
  689MOL0     H95050   4.920   6.357   7.622 -1.3371 -1.7959 -2.2241
  689MOL0     H95051   4.757   6.344   7.555 -2.0924  3.8109 -0.1713
  689MOL0     H95052   4.672   6.451   7.763  0.0551 -0.8666  2.4095
  689MOL0     H95053   4.843   6.454   7.824 -0.0395  1.3275 -1.0501
  689MOL0     H95054   4.705   6.209   7.738 -1.4049  1.4405 -0.2435
  689MOL0     H95055   4.848   6.215   7.849 -0.7611 -2.5022 -0.2929
  689MOL0     H95056   4.580   6.344   7.925 -0.3679 -1.5825 -0.1652
  689MOL0     H95057   4.727   6.361   8.014  0.8950 -0.9069  1.0013
  689MOL0     H95058   4.733   6.144   8.087 -1.8316  2.3819  1.6871
  689MOL0     H95059   4.642   6.083   7.950  2.3623 -0.4656 -0.5830
  689MOL0     H95060   4.490   6.056   8.110 -0.8397 -0.0940  1.4062
  689MOL0     H95061   4.438   6.221   8.053  1.3451  2.1047  0.0098
  689MOL0     H95062   5.164   6.504   7.786 -2.8967  0.5597  0.3191
  689MOL0     H95063   5.377   6.571   7.877  1.2598  2.2257 -0.5006
  689MOL0     H95064   5.256   6.547   8.238  0.5872 -1.1128  1.5906
  689MOL0     H95065   5.069   6.536   8.350  3.2197 -0.9563  1.0180
  689MOL0     H95066   4.217   6.668   9.842  2.7601  0.7494 -3.0724
  689MOL0     H95067   4.160   6.506  10.022 -1.2054  1.9159 -0.9013
  689MOL0     H95068   4.043   6.524  10.525 -1.0476 -0.2530  0.7523
  689MOL0     H95069   3.929   6.374  10.649 -0.5060  1.8011 -2.3464
  689MOL0     H95070   3.840   6.131  10.786  2.2983  2.0813 -0.8876
  689MOL0     H95071   3.809   6.171  10.617  1.3267  1.4157  0.7429
  689MOL0     H95072   3.759   5.932  10.759  0.4051  0.6347  0.0091
  689MOL0     H95073   3.897   5.889  10.653  1.3901  2.8126 -2.2045
  689MOL0     H95074   3.687   5.824  10.552  4.8916 -2.2330 -0.1760
  689MOL0     H95075   3.626   5.992  10.542  0.5179  0.1124 -2.0457
  689MOL0     H95076   3.849   5.856  10.401  0.1325 -1.0440  0.7389
  689MOL0     H95077   3.845   6.036  10.403 -0.4345  0.3281 -3.3675
  689MOL0     H95078   3.508   6.003  10.163 -1.7668  0.6858  0.1357
  689MOL0     H95079   4.201   6.052  10.509 -1.7315 -1.5823  1.9774
  689MOL0     H95080   4.347   6.198  10.249 -0.1687  0.9659 -0.2287
  689MOL0     H95081   4.439   6.274  10.391 -1.2991  1.3299 -0.4934
  689MOL0     H95082   4.381   6.100  10.391 -1.7053  0.0066  0.6999
  690MOL0     O95083   6.058   0.727   1.591 -0.4697  0.5949 -0.7168
  690MOL0     C95084   6.004   0.710   1.478 -0.6055  0.1243 -1.2162
  690MOL0     O95085   5.962   0.596   1.425  0.7414  0.1586 -0.3818
  690MOL0     C95086   6.026   0.475   1.440 -0.1126 -0.4707  0.2352
  690MOL0     C95087   6.145   0.450   1.513 -0.1808 -0.2976  0.9751
  690MOL0     C95088   6.189   0.318   1.523 -0.0492  0.2263 -0.0919
  690MOL0     C95089   6.114   0.209   1.482  0.2409 -0.4227 -0.2481
  690MOL0     O95090   6.158   0.075   1.503 -0.1319 -0.0177  0.3738
  690MOL0     C95091   6.082  -0.029   1.446 -0.2812  0.0990 -0.0139
  690MOL0     C95092   6.128  -0.161   1.497  0.5959 -0.1184  0.3810
  690MOL0     C95093   6.053  -0.286   1.438 -0.2924  0.2599  0.2136
  690MOL0     C95094   6.056  -0.293   1.285 -0.4228  0.1393  0.4295
  690MOL0     C95095   6.198  -0.309   1.223  0.0914  0.4212  0.6546
  690MOL0     C95096   6.190  -0.347   1.071 -0.0144  0.6224 -0.0249
  690MOL0     C95097   6.328  -0.351   1.007 -0.4651 -0.1318  0.3256
  690MOL0     C95098   6.325  -0.384   0.861 -0.4718 -0.8366  0.2415
  690MOL0     N95099   6.461  -0.375   0.816 -0.3064 -0.4350  0.1569
  690MOL0     C95100   6.551  -0.475   0.793  0.1814  0.7288 -0.3128
  690MOL0     C95101   6.655  -0.421   0.734  0.2788  0.6722 -0.3369
  690MOL0     C95102   6.766  -0.503   0.677 -0.6991 -0.7226 -0.1719
  690MOL0     C95103   6.904  -0.440   0.707  0.3487  0.5945  0.0737
  690MOL0     C95104   7.010  -0.551   0.703  0.5893  0.1774 -0.1316
  690MOL0     C95105   7.141  -0.488   0.701  0.1284  0.2080 -0.0086
  690MOL0     O95106   7.247  -0.579   0.728  0.0226  0.1279  0.0679
  690MOL0     C95107   7.357  -0.591   0.642 -0.3757  1.8082 -0.1368
  690MOL0     C95108   7.419  -0.720   0.620 -0.0392 -0.3008 -0.1256
  690MOL0     C95109   7.529  -0.722   0.534 -0.0374  0.3598  0.8992
  690MOL0     C95110   7.594  -0.854   0.507  0.5177 -0.5095 -0.4476
  690MOL0     C95111   7.578  -0.613   0.464 -0.2108 -0.0948 -0.1201
  690MOL0     C95112   7.674  -0.616   0.351  0.6516 -0.0653 -0.2450
  690MOL0     O95113   7.730  -0.505   0.328 -0.3583 -0.1310  0.3992
  690MOL0     C95114   7.820  -0.473   0.224 -1.6081  0.0283  0.0690
  690MOL0     C95115   7.845  -0.339   0.189  1.0134  0.1139 -1.0453
  690MOL0     C95116   7.954  -0.305   0.109  0.1476 -0.0092  0.4932
  690MOL0     C95117   8.049  -0.405   0.048  0.2728 -0.3289 -0.4882
  690MOL0     O95118   8.152  -0.364  -0.035 -0.0467  0.2196  0.2198
  690MOL0     C95119   8.172  -0.457  -0.142  0.2108  0.7620  0.0006
  690MOL0     C95120   8.254  -0.388  -0.253 -0.0594 -0.3444  0.5382
  690MOL0     C95121   8.398  -0.395  -0.209 -0.0707  0.8256 -0.2647
  690MOL0     C95122   8.488  -0.390  -0.334 -0.1485  0.6296 -0.1028
  690MOL0     C95123   8.629  -0.374  -0.286 -0.1881 -0.6440 -0.5188
  690MOL0     C95124   8.724  -0.331  -0.398  0.3247  0.1382 -0.1583
  690MOL0     C95125   8.868  -0.297  -0.353 -0.1572 -0.4063 -0.6104
  690MOL0     C95126   8.932  -0.382  -0.236 -0.2063 -0.0156 -0.1034
  690MOL0    Cl95127   9.105  -0.347  -0.220 -0.2006 -0.2117  0.2484
  690MOL0     C95128   8.020  -0.537   0.083  1.1407  0.6800 -0.1828
  690MOL0     C95129   7.913  -0.567   0.174 -0.5154  0.6982  0.0061
  690MOL0     O95130   7.683  -0.713   0.282  0.1159  0.2095 -0.4107
  690MOL0     C95131   7.519  -0.491   0.495  0.8130  0.3161  0.3924
  690MOL0     C95132   7.412  -0.481   0.584  0.2017 -0.7225  0.3864
  690MOL0     N95133   6.636  -0.286   0.732 -0.7594  0.2584  0.1367
  690MOL0     N95134   6.518  -0.261   0.772 -1.3018  0.2601  0.4009
  690MOL0     C95135   5.995   0.243   1.416 -0.0389 -0.0054  0.1113
  690MOL0     C95136   5.956   0.368   1.389 -0.1576 -0.8362  0.7184
  690MOL0     C95137   5.971   0.826   1.391  0.2530  0.5227  0.5103
  690MOL0     C95138   5.963   0.808   1.244 -0.2936 -0.4037 -0.1472
  690MOL0     C95139   5.922   0.917   1.153 -0.1528 -0.4709  0.2875
  690MOL0     C95140   5.891   1.042   1.213  0.6900 -0.5607  0.0339
  690MOL0     O95141   5.856   1.149   1.126 -0.3694  0.0135  0.1288
  690MOL0     C95142   5.719   1.145   1.102  0.6434 -0.9883  0.2237
  690MOL0     C95143   5.674   1.283   1.064  0.3512  0.5668 -0.3766
  690MOL0     C95144   5.702   1.382   1.176 -0.3180  0.3460 -0.0399
  690MOL0     C95145   5.647   1.518   1.124 -0.1882 -0.3100 -0.1973
  690MOL0     C95146   5.639   1.610   1.241 -0.7446  0.1676 -0.5447
  690MOL0     C95147   5.633   1.678   1.340 -0.2759 -1.6005 -0.0999
  690MOL0     C95148   5.922   1.056   1.352 -0.0037 -0.5837  0.3837
  690MOL0     C95149   5.970   0.964   1.438 -0.3267 -0.5759  0.1856
  690MOL0     C95150   6.010   1.002   1.583  0.6187 -0.0221 -0.0226
  690MOL0     H95151   6.199   0.536   1.551 -0.5209 -1.2691  3.8864
  690MOL0     H95152   6.283   0.301   1.574  0.5037 -0.7695 -1.3953
  690MOL0     H95153   6.103  -0.037   1.338  0.1766 -0.9074  0.1324
  690MOL0     H95154   5.975  -0.019   1.467 -0.5303  0.8220 -1.4878
  690MOL0     H95155   6.236  -0.163   1.478  0.7938  1.0365  1.2363
  690MOL0     H95156   6.119  -0.172   1.606 -2.9071  1.2279  0.3444
  690MOL0     H95157   6.100  -0.375   1.482  3.3662  1.6926 -0.4693
  690MOL0     H95158   5.947  -0.270   1.459 -0.2754  0.8859 -0.1612
  690MOL0     H95159   6.000  -0.381   1.252  1.1388  0.5767 -4.1376
  690MOL0     H95160   6.004  -0.206   1.244  1.7432  1.3432  0.0705
  690MOL0     H95161   6.269  -0.370   1.279 -0.4505 -0.7475  0.1070
  690MOL0     H95162   6.243  -0.208   1.225  0.1299  0.6109 -2.8838
  690MOL0     H95163   6.155  -0.450   1.075  0.8298  0.3756  2.6259
  690MOL0     H95164   6.111  -0.301   1.011  0.7533  0.1732 -1.4419
  690MOL0     H95165   6.394  -0.426   1.052 -2.1845 -1.5004  0.6945
  690MOL0     H95166   6.368  -0.252   1.030 -1.0379  0.0170  0.7157
  690MOL0     H95167   6.263  -0.474   0.851 -4.1075  1.4600 -0.0677
  690MOL0     H95168   6.267  -0.316   0.797  0.1132 -2.6238 -2.3827
  690MOL0     H95169   6.536  -0.582   0.801  0.7605  0.5253 -1.5881
  690MOL0     H95170   6.754  -0.513   0.569  1.9610 -1.5338 -0.4443
  690MOL0     H95171   6.750  -0.596   0.732  0.3689  0.7577  2.8376
  690MOL0     H95172   6.919  -0.351   0.646 -0.2209  1.4065  1.0720
  690MOL0     H95173   6.890  -0.419   0.814 -0.1939 -0.9247  0.3405
  690MOL0     H95174   6.996  -0.614   0.792  3.0488 -0.3031 -0.0067
  690MOL0     H95175   7.005  -0.609   0.610  1.9077  0.8467 -0.6496
  690MOL0     H95176   7.165  -0.450   0.601  1.9706  0.8431  0.6253
  690MOL0     H95177   7.146  -0.406   0.772  0.4810 -0.4073  0.6877
  690MOL0     H95178   7.386  -0.820   0.647  0.4877 -0.2986  0.5780
  690MOL0     H95179   7.580  -0.919   0.594 -2.8124 -0.2948 -0.6874
  690MOL0     H95180   7.698  -0.861   0.473 -0.4371 -1.2844 -3.5047
  690MOL0     H95181   7.538  -0.902   0.427 -0.8441 -3.2420  1.9265
  690MOL0     H95182   7.801  -0.251   0.235  3.4450  1.9163 -1.9217
  690MOL0     H95183   7.967  -0.202   0.077  1.3519  0.0072  0.9750
  690MOL0     H95184   8.222  -0.542  -0.095 -0.8727  0.7794  1.2383
  690MOL0     H95185   8.077  -0.496  -0.179 -1.2924  0.3645  3.9001
  690MOL0     H95186   8.222  -0.425  -0.350  1.2256 -1.5641  0.5441
  690MOL0     H95187   8.226  -0.283  -0.244 -2.7554 -0.9904  0.5902
  690MOL0     H95188   8.424  -0.492  -0.164 -2.1649 -0.3667 -1.4239
  690MOL0     H95189   8.415  -0.310  -0.143 -0.2097  1.0180 -0.4734
  690MOL0     H95190   8.462  -0.305  -0.398 -2.3723 -0.7032 -1.1061
  690MOL0     H95191   8.470  -0.487  -0.381 -1.8679 -0.1007  1.8922
  690MOL0     H95192   8.647  -0.291  -0.216  0.4540  0.5277 -1.9996
  690MOL0     H95193   8.663  -0.472  -0.252 -0.5651 -0.9000 -0.8708
  690MOL0     H95194   8.682  -0.240  -0.442  0.3984  0.9794  1.4047
  690MOL0     H95195   8.726  -0.405  -0.478  1.8161  0.3029 -0.2944
  690MOL0     H95196   8.848  -0.195  -0.320 -0.1882 -1.3770  2.7252
  690MOL0     H95197   8.949  -0.310  -0.425  2.2780  1.5145  1.5816
  690MOL0     H95198   8.918  -0.490  -0.248 -0.5615  0.1918 -1.9587
  690MOL0     H95199   8.889  -0.355  -0.139  0.8465  2.0692 -0.1618
  690MOL0     H95200   8.082  -0.620   0.052  1.7543  1.4853 -1.1799
  690MOL0     H95201   7.904  -0.674   0.194 -1.4640  0.9248  0.8587
  690MOL0     H95202   7.550  -0.402   0.441 -0.8626 -0.4506 -2.0275
  690MOL0     H95203   7.380  -0.379   0.601  1.0566 -0.5483  0.9714
  690MOL0     H95204   5.923   0.165   1.389 -0.5967  1.1558 -1.9521
  690MOL0     H95205   5.864   0.380   1.334 -0.0752 -0.7557  0.5958
  690MOL0     H95206   5.986   0.713   1.198 -0.7491 -0.1854 -0.8459
  690MOL0     H95207   5.907   0.900   1.047 -2.3403 -0.4762  0.5621
  690MOL0     H95208   5.691   1.088   1.013  0.8940  2.8968 -2.5902
  690MOL0     H95209   5.659   1.112   1.187  1.1573 -0.7054  0.7062
  690MOL0     H95210   5.570   1.287   1.030  0.4914 -0.9341 -1.0392
  690MOL0     H95211   5.731   1.319   0.978 -3.1248  3.8384 -1.5839
  690MOL0     H95212   5.663   1.345   1.272  0.3202 -1.4105 -0.4238
  690MOL0     H95213   5.809   1.387   1.199  0.0551  1.0943 -1.8317
  690MOL0     H95214   5.550   1.503   1.076 -0.2921  1.3615 -0.5452
  690MOL0     H95215   5.718   1.569   1.058  0.7426  0.8511  1.6421
  690MOL0     H95216   5.636   1.742   1.426 -0.6384 -3.2561  1.2138
  690MOL0     H95217   5.911   1.155   1.396 -0.9569 -0.1840 -0.7121
  690MOL0     H95218   6.004   1.110   1.600 -3.2442  0.0576 -1.0280
  690MOL0     H95219   5.955   0.950   1.662  3.8988  0.2031  2.6233
  690MOL0     H95220   6.116   0.981   1.601  0.6430  1.6688  2.1640
  691MOL0     O95221   6.993   5.926   4.307  0.6825  0.5707 -0.0477
  691MOL0     C95222   6.978   6.018   4.227  0.4906  0.5827  0.6302
  691MOL0     O95223   7.083   6.086   4.170  0.0705  0.4617  0.1625
  691MOL0     C95224   7.206   6.068   4.230 -0.4687 -0.4533 -0.0761
  691MOL0     C95225   7.319   6.011   4.166  0.4473 -0.2876  0.5579
  691MOL0     C95226   7.445   6.017   4.225  0.8342  0.0018 -0.1409
  691MOL0     C95227   7.463   6.081   4.351  0.5177  1.0506  0.1471
  691MOL0     O95228   7.582   6.103   4.422  0.3750  0.7049  0.3726
  691MOL0     C95229   7.696   6.020   4.392 -0.1879 -0.1011 -0.8842
  691MOL0     C95230   7.769   6.088   4.274 -0.7522 -0.3617  1.3495
  691MOL0     C95231   7.914   6.037   4.273 -0.3508  0.2811 -0.7232
  691MOL0     C95232   8.005   6.132   4.178  0.6021  0.2581 -0.4895
  691MOL0     C95233   8.040   6.268   4.247  0.7746  0.8168 -0.2381
  691MOL0     C95234   8.165   6.321   4.177  0.0401 -0.1835  0.2081
  691MOL0     C95235   8.185   6.471   4.218 -0.2573  0.1127  0.0853
  691MOL0     C95236   8.339   6.511   4.206  0.2510 -0.0375  0.4949
  691MOL0     N95237   8.384   6.550   4.067  0.6249  0.9524  0.3321
  691MOL0     C95238   8.498   6.625   4.034  0.5510 -0.2733 -0.7898
  691MOL0     C95239   8.498   6.635   3.907  0.3116 -0.0916  0.6690
  691MOL0     C95240   8.591   6.704   3.811  0.4125  0.8266 -0.1660
  691MOL0     C95241   8.706   6.776   3.887  0.2405  0.5711 -0.0956
  691MOL0     C95242   8.813   6.826   3.792  0.1258  0.6184 -0.3752
  691MOL0     C95243   8.900   6.924   3.874 -0.4663  0.7086  0.3765
  691MOL0     O95244   8.982   6.869   3.980 -0.0293 -0.2037 -0.3450
  691MOL0     C95245   9.095   6.938   4.013  0.0822  0.0437 -0.7882
  691MOL0     C95246   9.178   6.878   4.117  0.1541  0.2705  0.2848
  691MOL0     C95247   9.290   6.939   4.172  0.2264 -0.1585  0.0239
  691MOL0     C95248   9.358   6.866   4.287 -0.3911  0.0317  0.2057
  691MOL0     C95249   9.326   7.061   4.121 -0.4276  0.2324  1.0588
  691MOL0     C95250   9.447   7.135   4.152 -0.5741 -0.0219 -0.2228
  691MOL0     O95251   9.493   7.100   4.271  0.1628  0.1253  0.8971
  691MOL0     C95252   9.610   7.145   4.320 -0.0834  0.2953 -0.1524
  691MOL0     C95253   9.684   7.262   4.294  0.0589 -0.1773  0.2840
  691MOL0     C95254   9.809   7.283   4.345 -1.1778 -0.8437 -0.0565
  691MOL0     C95255   9.866   7.193   4.439  0.0717 -0.0808  0.5448
  691MOL0     O95256   9.997   7.202   4.486 -1.0367  0.1057 -0.0235
  691MOL0     C95257  10.061   7.336   4.502 -0.0239 -0.1239  0.5505
  691MOL0     C95258  10.142   7.324   4.635 -0.7094  1.9684 -0.1561
  691MOL0     C95259  10.240   7.211   4.650 -0.6099  0.2294  0.0626
  691MOL0     C95260  10.317   7.228   4.783  0.0162 -0.3627  0.3945
  691MOL0     C95261  10.409   7.102   4.804  0.5707 -0.5244 -0.0320
  691MOL0     C95262  10.552   7.138   4.771  0.0966  0.0271 -0.1617
  691MOL0     C95263  10.647   7.028   4.805  0.1164 -0.0367  0.6214
  691MOL0     C95264  10.774   7.035   4.723  0.1105 -1.6880 -0.3155
  691MOL0    Cl95265  10.883   6.895   4.772  0.0210 -0.1038  0.4550
  691MOL0     C95266   9.793   7.085   4.480 -0.2056 -0.5174  0.2240
  691MOL0     C95267   9.671   7.054   4.416  0.1552 -0.1977 -0.3698
  691MOL0     O95268   9.491   7.226   4.077  0.5050  0.2704  1.2264
  691MOL0     C95269   9.247   7.120   4.020  0.0201  0.4397  0.4381
  691MOL0     C95270   9.138   7.066   3.972 -0.7311 -0.0620  0.0040
  691MOL0     N95271   8.382   6.577   3.851 -0.3768  0.2416 -1.0610
  691MOL0     N95272   8.323   6.520   3.950 -0.3837 -0.5719 -0.1331
  691MOL0     C95273   7.351   6.131   4.412 -0.4301 -0.4883 -0.7880
  691MOL0     C95274   7.228   6.131   4.351  0.2715  0.0135 -0.3345
  691MOL0     C95275   6.844   6.023   4.155 -0.6102 -0.0696 -0.4872
  691MOL0     C95276   6.834   6.109   4.043  0.5924 -0.8680 -0.9940
  691MOL0     C95277   6.713   6.111   3.970  0.6738  0.3496  0.6403
  691MOL0     C95278   6.613   6.021   3.993  0.5793  0.2874 -0.5448
  691MOL0     O95279   6.496   6.019   3.928 -0.1450  0.2154 -0.2827
  691MOL0     C95280   6.419   6.141   3.939  0.2540  0.0571  0.1521
  691MOL0     C95281   6.286   6.111   4.016 -0.0629 -0.4433  0.0557
  691MOL0     C95282   6.316   6.027   4.143 -0.8088  0.0018 -0.6368
  691MOL0     C95283   6.195   6.030   4.232  0.1390  0.2184  0.5440
  691MOL0     C95284   6.122   5.902   4.218 -0.3273  0.9558  0.8678
  691MOL0     C95285   6.061   5.793   4.221  0.1793  0.4926 -0.6493
  691MOL0     C95286   6.620   5.951   4.115  1.0534  0.2513  1.1114
  691MOL0     C95287   6.729   5.949   4.192 -0.0639  0.1495  0.0598
  691MOL0     C95288   6.721   5.865   4.314  0.7206  0.1315 -0.6493
  691MOL0     H95289   7.316   5.967   4.067  1.5280 -1.9397  1.2059
  691MOL0     H95290   7.518   5.958   4.171 -1.2131 -1.7671 -1.1625
  691MOL0     H95291   7.680   5.913   4.376  0.6797 -0.1039 -1.9335
  691MOL0     H95292   7.762   6.027   4.479  0.7206  0.6770 -1.6127
  691MOL0     H95293   7.726   6.064   4.176  0.7125  1.7317  0.1126
  691MOL0     H95294   7.769   6.195   4.294  0.2128 -0.6932  3.3878
  691MOL0     H95295   7.954   6.030   4.375  1.1721  0.7722 -1.2548
  691MOL0     H95296   7.935   5.936   4.237  0.8747  0.2242  0.0831
  691MOL0     H95297   8.097   6.074   4.165  0.8434  0.7587 -1.0654
  691MOL0     H95298   7.982   6.149   4.073 -0.5506 -1.6153 -0.5742
  691MOL0     H95299   8.048   6.246   4.354 -2.5019  0.5776  0.0656
  691MOL0     H95300   7.950   6.328   4.232 -1.2872 -1.9564  0.0631
  691MOL0     H95301   8.254   6.270   4.213 -0.3650 -1.0552  0.0050
  691MOL0     H95302   8.162   6.325   4.068  2.3597  3.7481  0.0759
  691MOL0     H95303   8.152   6.497   4.319 -1.3827  0.5612 -0.3807
  691MOL0     H95304   8.133   6.545   4.158 -1.0709 -0.2050  0.3898
  691MOL0     H95305   8.371   6.589   4.275  2.4164 -2.1665  2.0568
  691MOL0     H95306   8.401   6.425   4.235  1.9736  0.1634 -2.2906
  691MOL0     H95307   8.573   6.661   4.104 -1.2966  3.1262 -0.3749
  691MOL0     H95308   8.532   6.774   3.751 -1.7649 -2.5006 -2.2600
  691MOL0     H95309   8.649   6.633   3.751  1.2626  0.6512  0.8308
  691MOL0     H95310   8.659   6.859   3.941 -3.0728 -0.9669 -0.3507
  691MOL0     H95311   8.748   6.711   3.964  0.2315  1.5519  0.7695
  691MOL0     H95312   8.875   6.749   3.745  2.3091  0.6272  2.2034
  691MOL0     H95313   8.771   6.889   3.714  0.9460 -0.1439 -1.4574
  691MOL0     H95314   8.953   6.983   3.799  1.3927 -1.0474  0.1976
  691MOL0     H95315   8.829   6.993   3.921 -2.6509  0.1827 -1.9319
  691MOL0     H95316   9.145   6.777   4.141 -3.5739  0.9464 -1.3146
  691MOL0     H95317   9.459   6.828   4.268 -0.5226 -0.6090  0.7797
  691MOL0     H95318   9.301   6.780   4.322  0.6273 -1.2584 -1.1834
  691MOL0     H95319   9.369   6.927   4.377 -0.7593 -1.7629  1.5151
  691MOL0     H95320   9.643   7.343   4.234 -2.6152 -0.1208  2.0069
  691MOL0     H95321   9.873   7.352   4.291 -0.2498 -2.6062 -1.3134
  691MOL0     H95322  10.127   7.344   4.415 -1.4974 -2.5716 -0.9114
  691MOL0     H95323  10.001   7.427   4.499 -1.0308 -0.4577  4.3550
  691MOL0     H95324  10.198   7.413   4.667  0.2153  1.7863 -1.2267
  691MOL0     H95325  10.064   7.318   4.712 -0.2035  0.1762  0.2506
  691MOL0     H95326  10.313   7.204   4.568 -0.1041 -2.7727  0.6242
  691MOL0     H95327  10.179   7.121   4.662 -1.2308  0.8126  1.4017
  691MOL0     H95328  10.242   7.228   4.863 -0.5532  3.1916  0.0087
  691MOL0     H95329  10.365   7.326   4.785 -1.9470  0.6567  0.9204
  691MOL0     H95330  10.400   7.083   4.911 -2.1139 -1.3320 -0.3379
  691MOL0     H95331  10.375   7.017   4.743  1.3728 -0.0446 -1.1878
  691MOL0     H95332  10.593   7.223   4.825  1.3326 -1.8218  2.0196
  691MOL0     H95333  10.565   7.143   4.663  2.5886 -1.7355 -0.0229
  691MOL0     H95334  10.589   6.943   4.767 -1.0444  1.0864 -0.2168
  691MOL0     H95335  10.656   7.015   4.913 -0.3167  0.9648  0.7927
  691MOL0     H95336  10.822   7.132   4.736 -2.0104 -0.4104 -1.5138
  691MOL0     H95337  10.757   7.030   4.615  1.8368 -0.4666 -0.6892
  691MOL0     H95338   9.836   7.026   4.561 -0.7052  0.4690  1.2399
  691MOL0     H95339   9.602   6.980   4.456 -0.1606  0.3245  0.0721
  691MOL0     H95340   9.269   7.221   3.985 -1.4414  0.4357 -0.5960
  691MOL0     H95341   9.079   7.130   3.907 -2.8949  0.5360  2.3556
  691MOL0     H95342   7.357   6.182   4.508 -4.5518  1.5231 -1.3478
  691MOL0     H95343   7.151   6.196   4.393  0.9952 -0.4956  1.9625
  691MOL0     H95344   6.914   6.180   4.025 -1.1097  1.0085 -1.6506
  691MOL0     H95345   6.699   6.189   3.896 -2.0187 -0.5404  0.1123
  691MOL0     H95346   6.469   6.226   3.986 -2.6663  2.8840 -1.4520
  691MOL0     H95347   6.393   6.173   3.838  1.1476  0.6685  0.1072
  691MOL0     H95348   6.211   6.059   3.955 -3.0558  0.6458  2.5646
  691MOL0     H95349   6.252   6.212   4.040  1.9036  1.2249 -3.3300
  691MOL0     H95350   6.348   5.924   4.122 -1.5960 -1.3736  3.8979
  691MOL0     H95351   6.393   6.079   4.200 -1.9969 -0.8606  1.8870
  691MOL0     H95352   6.136   6.118   4.205 -0.2042  0.0763  0.8335
  691MOL0     H95353   6.216   6.053   4.337 -0.4003  0.8792  0.5089
  691MOL0     H95354   6.006   5.701   4.229 -0.8487  1.2212  1.3350
  691MOL0     H95355   6.546   5.874   4.137  1.8993 -0.5753  1.1174
  691MOL0     H95356   6.730   5.935   4.398  1.5522 -1.4065  0.6042
  691MOL0     H95357   6.625   5.813   4.313  0.0502  1.2692  0.4282
  691MOL0     H95358   6.801   5.792   4.327 -0.2724 -1.1131 -1.3760
  692MOL0     O95359   8.532   2.015   1.467  0.8367 -0.7960 -0.3752
  692MOL0     C95360   8.582   1.913   1.505  0.2263  0.4612 -0.5169
  692MOL0     O95361   8.517   1.797   1.547 -0.4954 -0.1585 -0.1795
  692MOL0     C95362   8.386   1.805   1.592  0.3301 -0.2656 -0.5505
  692MOL0     C95363   8.317   1.688   1.599  0.5545  1.4660  0.3321
  692MOL0     C95364   8.186   1.677   1.639  0.5588 -0.4643 -0.5638
  692MOL0     C95365   8.114   1.796   1.672 -0.0144  0.0315  1.7704
  692MOL0     O95366   7.988   1.803   1.714 -0.1272 -0.0561 -1.1134
  692MOL0     C95367   7.908   1.689   1.701  0.0306  0.3349  0.2716
  692MOL0     C95368   7.775   1.725   1.753  0.5376  0.7180 -0.4951
  692MOL0     C95369   7.770   1.717   1.909  0.3028  0.3407 -1.0008
  692MOL0     C95370   7.754   1.564   1.958 -1.3699 -0.1629  0.1999
  692MOL0     C95371   7.754   1.555   2.113 -0.9943  0.8470  0.1846
  692MOL0     C95372   7.708   1.414   2.155 -0.7470 -0.3183  0.8285
  692MOL0     C95373   7.751   1.402   2.303 -0.0660 -0.2874 -0.2770
  692MOL0     C95374   7.702   1.504   2.402  0.2188  0.2112  0.8501
  692MOL0     N95375   7.558   1.492   2.416 -0.3236 -0.4912 -0.8268
  692MOL0     C95376   7.483   1.388   2.467 -0.6734  0.6311 -0.6981
  692MOL0     C95377   7.358   1.427   2.467 -0.6291  0.1447  0.5884
  692MOL0     C95378   7.250   1.331   2.519  0.2986 -0.2386  0.2572
  692MOL0     C95379   7.115   1.330   2.437  0.3089  0.5978 -0.7430
  692MOL0     C95380   7.033   1.450   2.442  0.1623  0.0074 -0.5841
  692MOL0     C95381   6.964   1.476   2.299  0.7488 -0.4183 -0.1772
  692MOL0     O95382   6.848   1.560   2.322  0.3758 -0.0679  0.3824
  692MOL0     C95383   6.751   1.587   2.224 -1.2487  0.1427  0.6665
  692MOL0     C95384   6.774   1.578   2.093 -0.1078  0.5009 -0.7881
  692MOL0     C95385   6.685   1.620   1.993 -0.3579  0.9778  0.4240
  692MOL0     C95386   6.723   1.582   1.850  0.7842  0.3869  0.6576
  692MOL0     C95387   6.569   1.693   2.027  0.7340  0.2541 -0.7785
  692MOL0     C95388   6.461   1.755   1.940  0.6462 -0.7973  1.0401
  692MOL0     O95389   6.402   1.868   1.984  0.5239 -0.7071  0.6632
  692MOL0     C95390   6.309   1.928   1.894  0.0184  0.4146  0.4083
  692MOL0     C95391   6.342   2.041   1.822  0.2507  0.0749 -0.3653
  692MOL0     C95392   6.252   2.093   1.720  0.0914  0.3825 -1.2519
  692MOL0     C95393   6.118   2.039   1.719  0.0157 -0.4684  0.3686
  692MOL0     O95394   6.026   2.088   1.630 -0.3973  0.4299 -0.1173
  692MOL0     C95395   6.056   2.060   1.498  0.2847 -0.7918 -0.1098
  692MOL0     C95396   5.928   2.031   1.422  0.8370  0.1990  0.5079
  692MOL0     C95397   5.816   2.141   1.434 -0.5210 -0.1919  1.4476
  692MOL0     C95398   5.853   2.271   1.355  1.0905  0.0373  0.5281
  692MOL0     C95399   5.718   2.347   1.342 -0.0269  0.2840 -0.2534
  692MOL0     C95400   5.735   2.506   1.303  0.9189  0.8220 -1.5917
  692MOL0     C95401   5.840   2.575   1.390 -0.3764 -0.6745 -0.8583
  692MOL0     C95402   5.798   2.554   1.542  0.8615  0.1610  0.4667
  692MOL0    Cl95403   5.925   2.632   1.643  0.7165 -0.0573  0.3277
  692MOL0     C95404   6.083   1.937   1.800  0.4769  0.0427  0.8608
  692MOL0     C95405   6.178   1.875   1.881 -0.2052 -0.4530  0.1138
  692MOL0     O95406   6.427   1.696   1.841 -0.8788  0.0389  0.3492
  692MOL0     C95407   6.551   1.715   2.170  0.3091  0.2587  0.2805
  692MOL0     C95408   6.646   1.672   2.265  0.0138  0.3484 -0.9819
  692MOL0     N95409   7.350   1.549   2.405  0.3175 -0.4176  0.0071
  692MOL0     N95410   7.470   1.590   2.376 -0.0214 -0.1056 -0.3078
  692MOL0     C95411   8.183   1.915   1.675  0.0852  0.4895 -0.0618
  692MOL0     C95412   8.314   1.921   1.645  0.2259  0.3763  0.8350
  692MOL0     C95413   8.721   1.900   1.490 -0.4866 -0.5518 -0.1248
  692MOL0     C95414   8.776   1.792   1.434 -0.1004 -0.4956 -0.4014
  692MOL0     C95415   8.912   1.793   1.407 -0.0538  0.5365  0.2568
  692MOL0     C95416   8.994   1.905   1.425 -0.4894 -1.2097  0.3056
  692MOL0     O95417   9.131   1.918   1.395 -0.1852 -0.3919 -0.2463
  692MOL0     C95418   9.162   2.015   1.290 -0.2814 -0.4900  1.3664
  692MOL0     C95419   9.302   1.980   1.238 -0.0826 -0.3340 -0.0545
  692MOL0     C95420   9.363   2.097   1.159  0.2320 -0.1974  1.4510
  692MOL0     C95421   9.310   2.097   1.010  1.7502  0.2955 -0.8056
  692MOL0     C95422   9.398   2.193   0.946  0.0763  0.7752  0.7285
  692MOL0     C95423   9.472   2.267   0.897  0.2908 -0.1603  0.1529
  692MOL0     C95424   8.942   2.009   1.489  0.8004  0.8855  0.6366
  692MOL0     C95425   8.808   2.003   1.530 -0.5173  0.6423  0.7377
  692MOL0     C95426   8.762   2.118   1.617  0.9972 -0.5813  0.5930
  692MOL0     H95427   8.352   1.592   1.563 -1.9446  1.4059 -2.4244
  692MOL0     H95428   8.133   1.583   1.645  0.8713 -0.7687 -2.2282
  692MOL0     H95429   7.954   1.607   1.757 -0.7291 -1.5802 -1.7482
  692MOL0     H95430   7.904   1.667   1.594 -0.1486  0.6090  0.2210
  692MOL0     H95431   7.751   1.826   1.719  1.3237  0.8462 -0.6912
  692MOL0     H95432   7.695   1.660   1.715  0.4691 -2.2577  3.9919
  692MOL0     H95433   7.856   1.765   1.957  1.5238 -1.5550 -1.1852
  692MOL0     H95434   7.674   1.764   1.933 -0.2895 -2.2569  2.5610
  692MOL0     H95435   7.667   1.514   1.914 -0.4332 -0.5845 -1.2582
  692MOL0     H95436   7.843   1.508   1.925  0.4623  1.6239  1.8569
  692MOL0     H95437   7.681   1.627   2.150  0.3524  2.3151  0.0715
  692MOL0     H95438   7.851   1.587   2.152  1.7297 -2.4275 -3.1610
  692MOL0     H95439   7.599   1.405   2.157 -0.7550 -0.2179  0.8559
  692MOL0     H95440   7.749   1.329   2.101 -0.8108 -0.7180  1.3916
  692MOL0     H95441   7.858   1.419   2.314 -0.3114  0.7260  0.6871
  692MOL0     H95442   7.726   1.305   2.348  4.0951 -1.7977 -0.8424
  692MOL0     H95443   7.743   1.482   2.501  1.4963  1.7910  0.7270
  692MOL0     H95444   7.748   1.600   2.374  2.7487 -1.3862 -0.9082
  692MOL0     H95445   7.517   1.293   2.508  0.9989  2.6465  3.0166
  692MOL0     H95446   7.221   1.370   2.617 -1.8755  1.5414 -1.0042
  692MOL0     H95447   7.288   1.228   2.525  0.4575 -0.0736  2.9486
  692MOL0     H95448   7.141   1.294   2.338  0.8770  1.5411 -0.9592
  692MOL0     H95449   7.048   1.257   2.482  1.3968  0.3285  0.5239
  692MOL0     H95450   6.948   1.441   2.510  0.4820 -0.5232 -0.2461
  692MOL0     H95451   7.102   1.533   2.464  1.5601 -1.3294  0.2511
  692MOL0     H95452   7.032   1.531   2.234  1.6390  0.1403  1.1840
  692MOL0     H95453   6.940   1.384   2.245 -2.5775  0.7012 -0.8313
  692MOL0     H95454   6.871   1.536   2.067  0.8327  1.7653  0.4884
  692MOL0     H95455   6.832   1.580   1.843  0.7151  0.9261 -0.7993
  692MOL0     H95456   6.676   1.657   1.785  0.8921  1.3883  1.6935
  692MOL0     H95457   6.678   1.484   1.833 -0.5724  0.9819  0.6606
  692MOL0     H95458   6.442   2.083   1.826  0.0702  0.5829 -0.9219
  692MOL0     H95459   6.272   2.176   1.653 -2.5371  1.4538 -0.8043
  692MOL0     H95460   6.106   2.149   1.459  1.1043 -0.9810  0.4982
  692MOL0     H95461   6.127   1.979   1.481  0.9072 -0.0077 -1.4359
  692MOL0     H95462   5.967   2.015   1.321  1.4600 -2.6243  1.1063
  692MOL0     H95463   5.884   1.935   1.452  1.5642 -1.1979 -2.4422
  692MOL0     H95464   5.799   2.168   1.538 -1.3021  0.5530  1.1411
  692MOL0     H95465   5.727   2.095   1.389 -0.9207 -0.5078  2.5288
  692MOL0     H95466   5.898   2.253   1.257  0.4801  1.5172 -0.0503
  692MOL0     H95467   5.928   2.318   1.419  1.8571 -0.5958  0.1241
  692MOL0     H95468   5.649   2.304   1.269  1.9573 -2.9342 -0.4284
  692MOL0     H95469   5.677   2.354   1.444  3.0538  0.3288  1.0968
  692MOL0     H95470   5.640   2.556   1.323  2.6387  3.3671  0.9996
  692MOL0     H95471   5.763   2.513   1.197  0.0521 -1.1612 -2.0031
  692MOL0     H95472   5.853   2.682   1.373 -0.8537 -0.3871  0.4205
  692MOL0     H95473   5.937   2.532   1.363 -0.9315 -0.0761 -4.2217
  692MOL0     H95474   5.785   2.453   1.582  1.5823 -0.1238 -0.0061
  692MOL0     H95475   5.701   2.601   1.558  0.6779 -0.7131  2.1898
  692MOL0     H95476   5.981   1.899   1.798 -0.6787  2.9027  0.2665
  692MOL0     H95477   6.161   1.785   1.939 -1.0488 -1.2609 -1.3482
  692MOL0     H95478   6.467   1.775   2.205  0.0690  0.4169 -0.5416
  692MOL0     H95479   6.635   1.701   2.370  1.2973  0.5022 -0.8700
  692MOL0     H95480   8.140   2.008   1.713 -2.1437  0.0051 -1.1955
  692MOL0     H95481   8.371   2.013   1.654  1.4737 -0.2670 -0.1556
  692MOL0     H95482   8.711   1.709   1.405  0.1861 -0.0299 -2.5569
  692MOL0     H95483   8.964   1.709   1.363  0.5967  0.4569  1.1451
  692MOL0     H95484   9.090   1.994   1.211 -0.6360  2.7622  0.7004
  692MOL0     H95485   9.144   2.116   1.329 -0.6879 -0.3156  0.7344
  692MOL0     H95486   9.293   1.896   1.168  0.1805 -1.2872  1.0091
  692MOL0     H95487   9.354   1.946   1.328  1.3847  2.1469  0.1003
  692MOL0     H95488   9.335   2.189   1.211  3.7502 -0.2033  3.7401
  692MOL0     H95489   9.472   2.088   1.152  0.1868 -0.0702  0.5022
  692MOL0     H95490   9.204   2.125   1.005  1.7589  0.2329 -1.4186
  692MOL0     H95491   9.323   2.001   0.959  4.0806  0.4739 -0.6799
  692MOL0     H95492   9.530   2.350   0.860  1.1121  0.8860  3.4530
  692MOL0     H95493   9.004   2.095   1.512  2.9615 -0.3664 -0.3014
  692MOL0     H95494   8.687   2.089   1.692 -2.1890  2.3747 -1.1802
  692MOL0     H95495   8.853   2.159   1.661  3.3640 -5.2698  0.7359
  692MOL0     H95496   8.703   2.191   1.561 -1.8843  0.6521  4.6892
  693MOL0     O95497  11.076   5.914   5.659  0.3813  0.3245 -0.4321
  693MOL0     C95498  10.971   5.914   5.594 -0.9051 -0.1485 -0.3158
  693MOL0     O95499  10.870   6.008   5.594  0.0057 -0.3190  0.2743
  693MOL0     C95500  10.871   6.129   5.663 -0.9954  0.2937 -0.0353
  693MOL0     C95501  10.919   6.135   5.793  0.9931 -0.7700 -0.4870
  693MOL0     C95502  10.896   6.248   5.869  0.8951  0.1401  0.3673
  693MOL0     C95503  10.827   6.358   5.828  0.9660 -0.4178 -0.0294
  693MOL0     O95504  10.807   6.460   5.917 -0.5960  0.5238 -0.2140
  693MOL0     C95505  10.790   6.599   5.874 -0.3832  0.0970  0.7158
  693MOL0     C95506  10.870   6.699   5.959  0.7130  0.2809 -0.4760
  693MOL0     C95507  10.907   6.831   5.900  0.2217 -0.6721  0.5753
  693MOL0     C95508  10.777   6.909   5.879 -0.7990  0.0447  0.7138
  693MOL0     C95509  10.789   7.034   5.786 -0.6675  1.0290  0.9269
  693MOL0     C95510  10.658   7.114   5.806  0.0721 -0.6031  1.1376
  693MOL0     C95511  10.638   7.226   5.697 -0.5094 -0.5605 -0.4358
  693MOL0     C95512  10.606   7.178   5.558  0.8245  1.0082 -0.9293
  693MOL0     N95513  10.585   7.276   5.453 -0.8189  0.4016  0.0810
  693MOL0     C95514  10.558   7.413   5.467  0.3415 -0.4830 -0.0944
  693MOL0     C95515  10.558   7.451   5.339  0.6321 -0.7009  0.0302
  693MOL0     C95516  10.529   7.587   5.284 -0.9580 -0.4908  1.5624
  693MOL0     C95517  10.425   7.561   5.168 -0.1051  0.4984 -0.8419
  693MOL0     C95518  10.358   7.686   5.108  1.4098 -0.3694  0.7628
  693MOL0     C95519  10.230   7.649   5.021  0.1176  0.7098  0.0669
  693MOL0     O95520  10.197   7.755   4.942  1.2715  0.0646 -0.0009
  693MOL0     C95521  10.075   7.762   4.878 -0.6401  0.2830 -0.0670
  693MOL0     C95522   9.998   7.883   4.889 -0.2590  0.3223  0.8846
  693MOL0     C95523   9.887   7.891   4.817 -0.0528  0.7699 -0.1071
  693MOL0     C95524   9.800   8.012   4.836 -0.4359  0.3012 -0.0577
  693MOL0     C95525   9.838   7.782   4.743 -0.7976 -1.0195 -0.5313
  693MOL0     C95526   9.707   7.781   4.666  0.0994  0.7433 -0.4957
  693MOL0     O95527   9.718   7.742   4.539 -0.2110 -0.2866  0.4046
  693MOL0     C95528   9.608   7.755   4.458  0.2634 -0.3599  0.1176
  693MOL0     C95529   9.551   7.642   4.411 -0.4026  0.4154  0.6104
  693MOL0     C95530   9.440   7.643   4.323 -0.8780 -0.8236  0.6372
  693MOL0     C95531   9.383   7.761   4.289 -0.2627 -0.1683  0.0172
  693MOL0     O95532   9.289   7.753   4.191  0.0188  0.4507 -0.1539
  693MOL0     C95533   9.269   7.850   4.087  0.0820  0.5040 -0.7236
  693MOL0     C95534   9.123   7.841   4.039 -0.2890  0.0250 -0.5331
  693MOL0     C95535   9.101   7.935   3.918 -0.0510  0.4373  0.3587
  693MOL0     C95536   9.176   7.901   3.788  0.6987 -0.3771 -0.9523
  693MOL0     C95537   9.098   7.952   3.675  0.2231 -0.4109 -0.4857
  693MOL0     C95538   9.165   7.935   3.542  0.3030 -0.5593 -0.3611
  693MOL0     C95539   9.115   8.033   3.433 -0.3404  0.5928 -0.1830
  693MOL0     C95540   9.196   8.162   3.428  0.4724 -0.0516  0.3728
  693MOL0    Cl95541   9.359   8.113   3.374  0.0240  0.1375 -0.4938
  693MOL0     C95542   9.443   7.883   4.326 -0.6200  0.3687 -0.4396
  693MOL0     C95543   9.556   7.879   4.413 -0.0697  0.5502  0.1853
  693MOL0     O95544   9.607   7.818   4.731 -0.0151  0.0612  0.3828
  693MOL0     C95545   9.924   7.670   4.717  0.9098  0.8584 -0.4838
  693MOL0     C95546  10.043   7.658   4.790 -0.1317 -0.1047 -0.2271
  693MOL0     N95547  10.592   7.349   5.248  0.5968  0.1248  0.1343
  693MOL0     N95548  10.618   7.242   5.320 -0.1777 -0.3383  0.3317
  693MOL0     C95549  10.778   6.354   5.698 -1.6156  0.8223  0.6202
  693MOL0     C95550  10.792   6.239   5.622  0.5103 -0.3386  0.2252
  693MOL0     C95551  10.953   5.812   5.490  0.1423  0.4099  0.0409
  693MOL0     C95552  11.075   5.747   5.450 -0.4022  0.1593  0.0054
  693MOL0     C95553  11.078   5.645   5.358  0.0137 -0.3640 -0.4324
  693MOL0     C95554  10.957   5.605   5.300 -0.0600  0.1450  0.1047
  693MOL0     O95555  10.945   5.491   5.222  0.0649 -0.2135 -0.0085
  693MOL0     C95556  11.059   5.414   5.216 -1.1162  0.4088  0.0624
  693MOL0     C95557  11.031   5.285   5.139  0.0647 -0.0379 -0.5568
  693MOL0     C95558  11.150   5.186   5.136  0.0957  0.4550 -0.3245
  693MOL0     C95559  11.167   5.086   5.025 -0.1529 -0.7749 -1.2804
  693MOL0     C95560  11.082   4.968   5.037  0.0468 -0.2756  0.1529
  693MOL0     C95561  11.009   4.872   5.062 -0.3568  0.2729  0.0144
  693MOL0     C95562  10.838   5.675   5.325  0.4874 -0.7410  1.7774
  693MOL0     C95563  10.834   5.780   5.419  1.1505  0.6439  0.7389
  693MOL0     C95564  10.702   5.832   5.478  1.5237 -0.1396 -0.8676
  693MOL0     H95565  10.988   6.061   5.834  1.5339  1.0676  2.1486
  693MOL0     H95566  10.920   6.235   5.974 -0.4428 -4.1971  0.3309
  693MOL0     H95567  10.691   6.636   5.846  0.0019  0.4114 -0.2794
  693MOL0     H95568  10.846   6.606   5.780  0.7193 -2.0420  1.1352
  693MOL0     H95569  10.802   6.721   6.042  2.2228 -0.4463  1.0204
  693MOL0     H95570  10.958   6.660   6.011 -1.1144  0.5874  3.1773
  693MOL0     H95571  10.964   6.893   5.969  1.8728 -3.2375  1.6860
  693MOL0     H95572  10.961   6.809   5.807  1.1119 -0.4299  1.0315
  693MOL0     H95573  10.705   6.841   5.833 -0.3963  0.7599 -1.0967
  693MOL0     H95574  10.724   6.929   5.972  1.1848 -2.7892  2.6044
  693MOL0     H95575  10.802   7.001   5.682 -2.0457  2.9927  0.0655
  693MOL0     H95576  10.877   7.089   5.819 -0.3848  1.5562 -0.6134
  693MOL0     H95577  10.574   7.044   5.806 -1.9190  1.6303  0.3547
  693MOL0     H95578  10.655   7.153   5.908 -3.0082 -2.4896  1.8923
  693MOL0     H95579  10.722   7.296   5.690 -1.2650  0.5574  1.0379
  693MOL0     H95580  10.548   7.284   5.719 -0.2941  0.0820 -1.2304
  693MOL0     H95581  10.687   7.108   5.534  1.7650  0.6233  2.6867
  693MOL0     H95582  10.517   7.115   5.567  1.1105  0.4052 -2.1366
  693MOL0     H95583  10.544   7.471   5.558  2.5970  0.1341 -0.0816
  693MOL0     H95584  10.618   7.641   5.250 -0.8559  0.6676  3.4692
  693MOL0     H95585  10.475   7.648   5.358  0.0399 -0.8684  2.6196
  693MOL0     H95586  10.476   7.512   5.085 -1.5818 -2.9808  0.0970
  693MOL0     H95587  10.346   7.490   5.196 -2.9846  4.4687  2.3978
  693MOL0     H95588  10.326   7.757   5.185  1.9634 -2.2151  2.7746
  693MOL0     H95589  10.431   7.738   5.045 -0.9589  3.0002  0.5076
  693MOL0     H95590  10.253   7.558   4.965  0.7855  1.2493 -0.5622
  693MOL0     H95591  10.151   7.628   5.094  0.4278 -3.2412 -0.5102
  693MOL0     H95592  10.036   7.963   4.951  2.3768 -0.4629  0.3720
  693MOL0     H95593   9.753   8.034   4.740 -0.3659 -1.0547 -0.4205
  693MOL0     H95594   9.865   8.098   4.858 -1.4104  0.9476  0.3741
  693MOL0     H95595   9.720   7.996   4.909 -1.3233 -1.8205 -1.4218
  693MOL0     H95596   9.589   7.549   4.453  4.4911  0.8743 -2.0358
  693MOL0     H95597   9.386   7.551   4.301 -2.2958 -0.5923  2.8981
  693MOL0     H95598   9.299   7.949   4.123  1.0576  1.2141 -3.2392
  693MOL0     H95599   9.338   7.841   4.002 -1.7060  0.8400 -2.2935
  693MOL0     H95600   9.095   7.740   4.009  1.0051  0.2584 -2.7365
  693MOL0     H95601   9.061   7.874   4.123  0.9292  0.9539  0.0507
  693MOL0     H95602   9.119   8.042   3.934 -1.6227  1.3934 -3.1256
  693MOL0     H95603   8.993   7.922   3.904  0.1668 -1.6399  0.3204
  693MOL0     H95604   9.198   7.795   3.773  1.0553 -0.1576 -2.0516
  693MOL0     H95605   9.271   7.956   3.778 -0.2422  1.0741 -2.4362
  693MOL0     H95606   8.998   7.907   3.671 -1.2623  2.0600  3.1510
  693MOL0     H95607   9.085   8.058   3.698 -1.7715 -0.7242  0.0447
  693MOL0     H95608   9.164   7.832   3.507  0.4488 -0.1898 -1.4966
  693MOL0     H95609   9.272   7.955   3.553  0.3076 -0.6618 -0.2191
  693MOL0     H95610   9.008   8.044   3.455 -0.3812  0.3883 -0.2833
  693MOL0     H95611   9.117   7.986   3.334 -1.4010 -1.8103  0.8635
  693MOL0     H95612   9.202   8.215   3.523 -0.3142  1.7969 -0.5629
  693MOL0     H95613   9.160   8.235   3.355  1.8386  0.2520 -0.0334
  693MOL0     H95614   9.412   7.984   4.300 -0.4343  0.5257 -0.0636
  693MOL0     H95615   9.603   7.974   4.436  1.1869 -0.2086  0.8880
  693MOL0     H95616   9.884   7.597   4.647 -2.8235  0.9650  1.2845
  693MOL0     H95617  10.104   7.568   4.795 -0.5796 -0.3470  1.4489
  693MOL0     H95618  10.717   6.436   5.662  0.6843  1.3000 -2.6353
  693MOL0     H95619  10.731   6.228   5.532 -1.0569 -0.2544  1.2275
  693MOL0     H95620  11.170   5.773   5.496 -0.5447  0.5727  0.0707
  693MOL0     H95621  11.177   5.606   5.339  0.3565  2.0685 -5.3194
  693MOL0     H95622  11.130   5.463   5.149  2.5840 -3.9457  0.3778
  693MOL0     H95623  11.087   5.384   5.317 -0.8635  1.2039  0.2381
  693MOL0     H95624  11.001   5.311   5.037  1.5723 -2.2977 -1.6779
  693MOL0     H95625  10.948   5.236   5.190  1.9109 -0.3472  2.3973
  693MOL0     H95626  11.229   5.261   5.133  2.5499 -1.9529 -2.6593
  693MOL0     H95627  11.153   5.138   5.234  0.7200 -0.3659 -0.7344
  693MOL0     H95628  11.274   5.067   5.017  0.6212  1.1411  2.3324
  693MOL0     H95629  11.135   5.133   4.931  0.4684 -1.3751 -1.8084
  693MOL0     H95630  10.943   4.789   5.076 -0.0341 -0.4418 -2.2338
  693MOL0     H95631  10.752   5.649   5.264  0.5241  1.2756  0.7619
  693MOL0     H95632  10.696   5.937   5.449 -0.9598 -0.1078 -0.4102
  693MOL0     H95633  10.608   5.786   5.447 -0.8683  3.6913  0.1674
  693MOL0     H95634  10.699   5.835   5.587 -0.0778  2.6315 -0.9126
  694MOL0     O95635   0.075   9.211   4.479  0.2521 -0.1842 -0.6390
  694MOL0     C95636   0.142   9.319   4.481 -0.4568  0.0047  0.3328
  694MOL0     O95637   0.108   9.427   4.395  0.1431 -0.0072 -0.5402
  694MOL0     C95638  -0.003   9.429   4.319 -0.3292  0.8861 -0.0829
  694MOL0     C95639   0.002   9.443   4.185 -0.1404  0.4255 -0.1849
  694MOL0     C95640  -0.119   9.446   4.111  0.1174  0.0991  0.0505
  694MOL0     C95641  -0.244   9.422   4.176 -0.8268  0.6538 -0.5497
  694MOL0     O95642  -0.352   9.411   4.100  0.4565 -0.1647  0.5394
  694MOL0     C95643  -0.468   9.343   4.144  0.7381  0.1782 -0.5229
  694MOL0     C95644  -0.564   9.350   4.019  0.1597  1.0821  0.7103
  694MOL0     C95645  -0.636   9.486   4.000  0.4226 -1.0191  1.0268
  694MOL0     C95646  -0.707   9.486   3.852 -0.4088  0.7834 -0.1800
  694MOL0     C95647  -0.758   9.612   3.799  0.5803  0.6487 -0.3905
  694MOL0     C95648  -0.836   9.693   3.899 -0.7830  0.4753  0.0994
  694MOL0     C95649  -0.968   9.624   3.947 -0.0304 -0.3406  0.3574
  694MOL0     C95650  -1.068   9.707   4.024 -0.0023  0.3874 -0.7993
  694MOL0     N95651  -1.026   9.727   4.165  0.6431 -0.2784 -0.6119
  694MOL0     C95652  -0.914   9.786   4.208 -0.6985  0.0050  0.1896
  694MOL0     C95653  -0.936   9.804   4.344 -0.6816 -0.2838  1.1845
  694MOL0     C95654  -0.838   9.860   4.440  0.4595 -1.1423 -0.3861
  694MOL0     C95655  -0.799   9.759   4.553  1.4045 -0.3540 -1.1134
  694MOL0     C95656  -0.787   9.609   4.507  0.0121  0.4427 -0.4041
  694MOL0     C95657  -0.707   9.570   4.383  0.6290  0.2324  0.4083
  694MOL0     O95658  -0.614   9.671   4.344 -0.3488 -0.8897  0.3007
  694MOL0     C95659  -0.486   9.684   4.409  1.3056  0.1725 -0.0416
  694MOL0     C95660  -0.467   9.613   4.530  0.2976  0.5207 -0.1392
  694MOL0     C95661  -0.352   9.623   4.598 -0.4401  0.0963 -0.5530
  694MOL0     C95662  -0.345   9.550   4.726 -0.5999  0.1648 -0.5666
  694MOL0     C95663  -0.258   9.718   4.555 -0.0011  0.2998  0.1790
  694MOL0     C95664  -0.136   9.746   4.630  0.1859  0.0198  0.2462
  694MOL0     O95665  -0.054   9.642   4.656 -0.7273 -0.2439 -0.0752
  694MOL0     C95666   0.055   9.658   4.735  0.2103 -0.1782  0.1303
  694MOL0     C95667   0.040   9.712   4.863 -0.8039  0.0547 -0.6833
  694MOL0     C95668   0.149   9.738   4.944  0.8304 -0.0881 -0.2340
  694MOL0     C95669   0.274   9.706   4.898 -0.5307 -0.7011  0.1285
  694MOL0     O95670   0.377   9.740   4.976 -0.8019  0.4937  0.3830
  694MOL0     C95671   0.510   9.706   4.936 -0.4799  0.4795 -0.4168
  694MOL0     C95672   0.566   9.823   4.848  0.1679  0.1891 -0.2634
  694MOL0     C95673   0.661   9.933   4.919 -0.0265 -0.0078 -0.6969
  694MOL0     C95674   0.584  10.048   4.983 -0.0489 -0.4009  0.9141
  694MOL0     C95675   0.556  10.167   4.893  0.3705  0.2706 -0.2730
  694MOL0     C95676   0.488  10.287   4.966  0.2878  1.0056 -0.2393
  694MOL0     C95677   0.477  10.425   4.892 -1.1171  0.7996  0.0614
  694MOL0     C95678   0.443  10.537   4.998 -0.2339 -0.0576  0.6615
  694MOL0    Cl95679   0.372  10.674   4.896 -0.0644  0.1232 -0.1135
  694MOL0     C95680   0.290   9.655   4.761 -0.0686  0.6211  0.0042
  694MOL0     C95681   0.178   9.631   4.682 -0.0170 -0.1919 -0.1764
  694MOL0     O95682  -0.112   9.864   4.641  0.6203 -0.3596 -0.1943
  694MOL0     C95683  -0.275   9.789   4.437 -0.8008  0.0131  0.2775
  694MOL0     C95684  -0.391   9.771   4.359  0.5824  0.5896 -0.5840
  694MOL0     N95685  -1.070   9.782   4.376 -1.0843  0.2925 -0.2097
  694MOL0     N95686  -1.122   9.733   4.263  0.0264  0.8009  0.4822
  694MOL0     C95687  -0.242   9.386   4.319  0.0110 -0.1058 -0.0754
  694MOL0     C95688  -0.121   9.406   4.389 -0.1710 -0.6051 -0.2880
  694MOL0     C95689   0.256   9.331   4.566 -0.5261 -0.0239  0.4936
  694MOL0     C95690   0.374   9.358   4.501 -0.0713  0.3549 -0.1608
  694MOL0     C95691   0.498   9.352   4.573 -0.3432 -0.8521  0.2216
  694MOL0     C95692   0.491   9.334   4.709 -0.2755  0.2634  0.3449
  694MOL0     O95693   0.606   9.346   4.784 -0.1899  0.4312  0.6849
  694MOL0     C95694   0.696   9.231   4.775  0.2478  0.2925  0.2465
  694MOL0     C95695   0.838   9.267   4.760 -0.5755 -0.0870 -0.1296
  694MOL0     C95696   0.927   9.139   4.750 -1.0454 -0.1395 -0.5741
  694MOL0     C95697   1.072   9.179   4.764  0.9662 -0.3360  0.2851
  694MOL0     C95698   1.126   9.265   4.662  0.7343 -0.0958 -0.0917
  694MOL0     C95699   1.186   9.341   4.595  0.7039 -0.3006 -0.2587
  694MOL0     C95700   0.373   9.310   4.774 -0.3271  0.9999  0.0321
  694MOL0     C95701   0.246   9.305   4.709 -0.3055  0.1256 -0.0408
  694MOL0     C95702   0.117   9.289   4.790 -1.9339 -0.6037  0.2537
  694MOL0     H95703   0.096   9.457   4.133 -1.2007 -1.0642 -2.7046
  694MOL0     H95704  -0.115   9.459   4.003  0.7022  1.2787  0.2080
  694MOL0     H95705  -0.520   9.399   4.222 -1.8510 -0.1320 -1.9029
  694MOL0     H95706  -0.441   9.239   4.166  2.4610  0.5526 -0.7321
  694MOL0     H95707  -0.499   9.338   3.931 -2.3603 -3.9748 -0.8646
  694MOL0     H95708  -0.634   9.266   4.020  0.4047  0.8492 -0.2452
  694MOL0     H95709  -0.717   9.511   4.069 -1.4968  1.3074 -1.8230
  694MOL0     H95710  -0.577   9.577   4.008 -1.6089  0.7502 -1.9539
  694MOL0     H95711  -0.639   9.460   3.770 -2.9048  0.7367 -2.3865
  694MOL0     H95712  -0.787   9.412   3.854  0.8860 -0.6876  2.0726
  694MOL0     H95713  -0.815   9.595   3.707  0.4059 -2.1587  0.1578
  694MOL0     H95714  -0.670   9.671   3.773  0.5164  2.3964  2.8308
  694MOL0     H95715  -0.772   9.709   3.986 -0.6438 -0.6739  0.2206
  694MOL0     H95716  -0.865   9.793   3.865  1.7251  1.7036  1.2568
  694MOL0     H95717  -0.941   9.535   4.004 -1.1947 -0.1665  1.2191
  694MOL0     H95718  -1.030   9.600   3.860 -2.1538 -1.5774  2.1085
  694MOL0     H95719  -1.087   9.798   3.967  0.6256  1.0845  0.0686
  694MOL0     H95720  -1.163   9.655   4.038  1.0458 -1.2233  0.6507
  694MOL0     H95721  -0.819   9.799   4.158 -0.1972 -1.9174  0.5546
  694MOL0     H95722  -0.887   9.937   4.500  0.6773 -1.7369  0.5650
  694MOL0     H95723  -0.760   9.911   4.382 -0.1586  0.2711 -0.0188
  694MOL0     H95724  -0.706   9.800   4.592  0.0857  0.3073  1.5867
  694MOL0     H95725  -0.863   9.770   4.642  3.5763 -2.1525  0.7978
  694MOL0     H95726  -0.737   9.559   4.589  1.0217  0.0969 -1.2081
  694MOL0     H95727  -0.884   9.558   4.501  0.5097 -0.3669 -2.3279
  694MOL0     H95728  -0.675   9.466   4.396 -2.3601 -0.6003  1.9452
  694MOL0     H95729  -0.768   9.567   4.293  0.4139  1.2910  0.5004
  694MOL0     H95730  -0.548   9.548   4.563  0.9304 -0.8510 -1.1920
  694MOL0     H95731  -0.368   9.612   4.814 -0.5898  0.2654 -0.6352
  694MOL0     H95732  -0.246   9.507   4.743 -0.3378  1.2063  0.7673
  694MOL0     H95733  -0.412   9.463   4.728 -0.4371  0.0238 -1.1026
  694MOL0     H95734  -0.062   9.734   4.891 -1.0765 -1.9948  0.1513
  694MOL0     H95735   0.138   9.804   5.030  0.0025 -0.9894  0.3690
  694MOL0     H95736   0.577   9.693   5.021 -0.4599 -1.6368 -0.7066
  694MOL0     H95737   0.513   9.606   4.890  1.9879 -1.3697  3.3049
  694MOL0     H95738   0.623   9.765   4.774  0.7200 -1.4671  1.3616
  694MOL0     H95739   0.494   9.872   4.782  3.4202  0.7065 -3.7721
  694MOL0     H95740   0.721   9.969   4.835 -0.8388  4.7486  0.4614
  694MOL0     H95741   0.726   9.893   4.998  1.6752  2.9281 -0.4367
  694MOL0     H95742   0.650  10.081   5.064  1.9538  2.9652 -1.7923
  694MOL0     H95743   0.483  10.024   5.016 -0.5237 -1.1270 -0.9666
  694MOL0     H95744   0.655  10.195   4.856  2.7238 -4.1773  1.8444
  694MOL0     H95745   0.505  10.137   4.800  0.1973 -0.2671 -0.0116
  694MOL0     H95746   0.538  10.297   5.063 -1.1936 -1.3412  0.8820
  694MOL0     H95747   0.386  10.265   5.001  1.0767  0.8611  2.1818
  694MOL0     H95748   0.397  10.419   4.818  0.3513  1.5994 -1.6633
  694MOL0     H95749   0.568  10.448   4.836 -2.0344  1.5605 -1.1590
  694MOL0     H95750   0.534  10.561   5.054 -0.0718  0.5260  0.1637
  694MOL0     H95751   0.375  10.501   5.076  0.6420  1.3032  2.1233
  694MOL0     H95752   0.386   9.646   4.712  0.9439  2.5785  1.4574
  694MOL0     H95753   0.194   9.613   4.576 -2.0322  0.1055 -0.5634
  694MOL0     H95754  -0.199   9.863   4.411  2.1195 -2.5178  1.0823
  694MOL0     H95755  -0.396   9.846   4.281  1.6664  0.0398 -1.2037
  694MOL0     H95756  -0.336   9.357   4.364 -0.6470  1.2853 -0.5183
  694MOL0     H95757  -0.124   9.385   4.495 -4.9889 -1.0817 -0.2864
  694MOL0     H95758   0.381   9.371   4.393 -3.5000  0.0854 -0.5181
  694MOL0     H95759   0.588   9.381   4.520 -0.5875  1.3578  0.9414
  694MOL0     H95760   0.673   9.184   4.872  0.5624 -2.8976 -1.0985
  694MOL0     H95761   0.667   9.167   4.691  0.9404  3.7646 -2.8545
  694MOL0     H95762   0.874   9.331   4.842 -0.9487 -0.6507  0.4865
  694MOL0     H95763   0.843   9.329   4.670  2.1695  0.1348  0.1057
  694MOL0     H95764   0.891   9.065   4.822  0.2262 -1.4814 -1.2652
  694MOL0     H95765   0.909   9.091   4.653 -2.3309  1.4382 -1.1726
  694MOL0     H95766   1.136   9.090   4.764  0.2974 -1.0114 -3.8283
  694MOL0     H95767   1.080   9.236   4.858  1.7764  1.8496 -1.0421
  694MOL0     H95768   1.237   9.423   4.548 -0.8628  0.1117 -1.3369
  694MOL0     H95769   0.381   9.299   4.881 -1.6936  0.8945  0.1489
  694MOL0     H95770   0.061   9.382   4.779 -0.0957  0.5815  0.4140
  694MOL0     H95771   0.052   9.211   4.751 -1.1420 -0.2620 -1.9126
  694MOL0     H95772   0.143   9.263   4.893 -1.9880 -3.7129 -0.4351
  695MOL0     O95773   2.899   1.677   2.930  0.0244  0.2333  0.7286
  695MOL0     C95774   2.839   1.737   3.016  0.1220 -0.3631 -0.0295
  695MOL0     O95775   2.898   1.797   3.126  0.6093  0.0686 -0.1930
  695MOL0     C95776   3.032   1.777   3.148 -0.1346 -0.0681 -0.9478
  695MOL0     C95777   3.138   1.792   3.056 -0.9204 -0.0190  0.0392
  695MOL0     C95778   3.268   1.781   3.108 -0.4476  0.0955 -0.7203
  695MOL0     C95779   3.290   1.750   3.244  0.5352  0.3478  0.6419
  695MOL0     O95780   3.416   1.733   3.296  0.5630  0.2707  0.7215
  695MOL0     C95781   3.456   1.820   3.397 -0.4181 -0.9926  0.2243
  695MOL0     C95782   3.604   1.802   3.432 -0.0908  0.9209  1.1797
  695MOL0     C95783   3.649   1.674   3.500 -0.4794  0.3348 -1.0735
  695MOL0     C95784   3.797   1.673   3.544 -0.4831 -0.2467  0.4167
  695MOL0     C95785   3.834   1.532   3.596  0.8136 -0.0334 -0.5938
  695MOL0     C95786   3.847   1.416   3.494  0.5164  0.2565  0.8075
  695MOL0     C95787   3.946   1.309   3.544 -0.4943 -0.0505 -0.5739
  695MOL0     C95788   3.886   1.234   3.662 -0.4355  0.5955 -0.0838
  695MOL0     N95789   3.980   1.116   3.668  0.5595 -0.2312  0.3508
  695MOL0     C95790   4.088   1.103   3.755  0.4349  0.7105  0.3341
  695MOL0     C95791   4.144   0.984   3.723  0.2388  1.0945 -0.3987
  695MOL0     C95792   4.263   0.925   3.804  0.7339  0.5084  0.0412
  695MOL0     C95793   4.388   0.928   3.715  0.2053 -0.3625  1.2011
  695MOL0     C95794   4.509   0.845   3.767 -0.5552  0.1281 -0.7184
  695MOL0     C95795   4.544   0.896   3.911  0.0046  0.4293 -0.9617
  695MOL0     O95796   4.540   1.038   3.908 -0.5519 -0.0658 -0.4519
  695MOL0     C95797   4.610   1.126   3.991  0.4868 -0.4575  0.6158
  695MOL0     C95798   4.566   1.258   3.990  0.4257  0.4371  0.7866
  695MOL0     C95799   4.619   1.346   4.088 -0.0990 -0.7451 -1.0585
  695MOL0     C95800   4.571   1.495   4.083  0.0234 -0.2725  0.8823
  695MOL0     C95801   4.719   1.312   4.178 -0.0580  0.2785  1.5092
  695MOL0     C95802   4.764   1.409   4.276  1.1131  0.8030 -0.1675
  695MOL0     O95803   4.843   1.502   4.226  0.0525 -0.1575  0.2918
  695MOL0     C95804   4.909   1.579   4.318 -0.4433 -0.3229 -0.6606
  695MOL0     C95805   5.024   1.517   4.370 -0.5778  0.3548  0.4535
  695MOL0     C95806   5.100   1.574   4.473 -0.0501  0.5782  0.7357
  695MOL0     C95807   5.064   1.687   4.526  0.0006 -0.5052  0.0869
  695MOL0     O95808   5.125   1.739   4.638 -0.5808  0.3714 -0.4144
  695MOL0     C95809   5.264   1.709   4.668  1.1446  0.2241  0.0378
  695MOL0     C95810   5.329   1.798   4.769 -0.4518 -0.4036  0.5594
  695MOL0     C95811   5.473   1.757   4.825  0.1643  0.1772 -0.1456
  695MOL0     C95812   5.576   1.783   4.713 -0.0386 -0.4605  0.2916
  695MOL0     C95813   5.717   1.756   4.742 -0.2146  0.2083  0.4373
  695MOL0     C95814   5.760   1.811   4.883 -0.0045 -0.6681 -0.2001
  695MOL0     C95815   5.911   1.807   4.893  0.1417  0.0071  1.2316
  695MOL0     C95816   5.964   1.902   5.000 -0.1923 -0.7202  1.1560
  695MOL0    Cl95817   5.919   1.825   5.161  0.1550  0.6355 -0.1538
  695MOL0     C95818   4.938   1.747   4.484 -1.1420  0.1172  0.3693
  695MOL0     C95819   4.864   1.701   4.380  0.0571  0.1558  0.1146
  695MOL0     O95820   4.729   1.387   4.395  0.4789  0.2064  0.4469
  695MOL0     C95821   4.761   1.178   4.176 -0.9436  0.2048 -0.5571
  695MOL0     C95822   4.716   1.099   4.068  0.5704  0.6071  0.2895
  695MOL0     N95823   4.077   0.918   3.626 -0.5338  0.1315  0.2115
  695MOL0     N95824   3.980   1.001   3.590 -0.4931 -0.3973  0.3296
  695MOL0     C95825   3.182   1.748   3.335 -0.3490  0.2716 -0.1113
  695MOL0     C95826   3.053   1.757   3.287 -0.0309  0.0952 -0.2019
  695MOL0     C95827   2.694   1.757   3.009 -0.3728 -0.3003 -0.6298
  695MOL0     C95828   2.633   1.826   3.123  0.4240  0.7414  0.2292
  695MOL0     C95829   2.499   1.860   3.118  0.2874 -0.8471  0.5355
  695MOL0     C95830   2.424   1.830   3.011  0.6690  0.0077 -0.9528
  695MOL0     O95831   2.295   1.867   3.024  1.1856 -0.2295  0.5132
  695MOL0     C95832   2.218   1.896   2.899 -0.5049  0.5655 -0.8874
  695MOL0     C95833   2.084   1.819   2.894  0.6992  0.0370  0.4729
  695MOL0     C95834   2.097   1.680   2.941 -0.6637  0.1547 -0.7177
  695MOL0     C95835   2.004   1.575   2.874 -0.0115  0.0504 -0.6971
  695MOL0     C95836   2.035   1.575   2.727  0.1943  0.7500 -0.6723
  695MOL0     C95837   2.056   1.569   2.606 -0.1760 -0.3723  0.1569
  695MOL0     C95838   2.471   1.756   2.909 -0.8440 -0.7922 -0.0607
  695MOL0     C95839   2.608   1.718   2.900 -0.3280 -0.2376 -0.2316
  695MOL0     C95840   2.658   1.627   2.789 -0.6579  0.7419  0.4749
  695MOL0     H95841   3.114   1.820   2.954  0.3575 -2.8020 -1.1171
  695MOL0     H95842   3.347   1.795   3.036 -1.0002  0.8555 -1.1889
  695MOL0     H95843   3.399   1.813   3.490 -1.0149  1.4007  0.1115
  695MOL0     H95844   3.441   1.923   3.363  2.6761 -0.6363 -0.3283
  695MOL0     H95845   3.660   1.799   3.337 -0.5933 -1.9366  0.8686
  695MOL0     H95846   3.635   1.896   3.479 -1.6563  1.1154  1.8554
  695MOL0     H95847   3.586   1.659   3.588  0.3645 -1.5455 -0.7401
  695MOL0     H95848   3.631   1.591   3.430  1.5317 -1.5843  0.5596
  695MOL0     H95849   3.860   1.704   3.460 -0.7837  1.3907  0.7623
  695MOL0     H95850   3.815   1.746   3.623  2.2048 -2.9243  2.5008
  695MOL0     H95851   3.749   1.511   3.660  1.1040 -0.4937 -0.3519
  695MOL0     H95852   3.922   1.533   3.661  0.8564  1.9144 -0.6301
  695MOL0     H95853   3.751   1.374   3.463  0.9137  1.5492 -2.6174
  695MOL0     H95854   3.887   1.450   3.398  0.0262 -1.0759  0.1154
  695MOL0     H95855   4.031   1.374   3.567 -2.4994  2.6135 -0.0696
  695MOL0     H95856   3.973   1.239   3.464  1.4170  0.0611 -0.0555
  695MOL0     H95857   3.892   1.293   3.754  0.2764 -1.9122  1.5744
  695MOL0     H95858   3.789   1.190   3.638  0.5500 -0.6130 -2.1251
  695MOL0     H95859   4.117   1.171   3.835  1.2062 -0.7339  1.3278
  695MOL0     H95860   4.237   0.822   3.829  1.0913  0.1136 -1.1588
  695MOL0     H95861   4.276   0.987   3.893 -0.1708 -0.5511  0.9388
  695MOL0     H95862   4.375   0.888   3.613  1.7996 -1.1224  1.2727
  695MOL0     H95863   4.392   1.036   3.699  2.5377 -0.7829 -1.9912
  695MOL0     H95864   4.487   0.738   3.772 -0.3485  0.1240  0.3531
  695MOL0     H95865   4.596   0.871   3.706 -0.1352 -0.9643 -0.6079
  695MOL0     H95866   4.470   0.848   3.976  0.0380 -3.1870 -3.3563
  695MOL0     H95867   4.641   0.854   3.940 -1.2182 -1.5926  0.5036
  695MOL0     H95868   4.492   1.287   3.917  0.5630 -0.6736  0.1789
  695MOL0     H95869   4.654   1.558   4.050 -0.7514 -0.9844 -2.8799
  695MOL0     H95870   4.546   1.533   4.183 -1.5871 -2.3436  1.3348
  695MOL0     H95871   4.493   1.514   4.009  1.8524  0.8630 -0.8487
  695MOL0     H95872   5.054   1.421   4.330 -1.1028  0.3577  0.0445
  695MOL0     H95873   5.196   1.537   4.506 -1.3647 -1.7431  2.2588
  695MOL0     H95874   5.276   1.606   4.703  0.6209 -0.3322 -1.3676
  695MOL0     H95875   5.323   1.724   4.577  2.3057 -2.1660  0.3265
  695MOL0     H95876   5.329   1.900   4.729  1.1855 -0.8066 -0.5437
  695MOL0     H95877   5.261   1.793   4.854 -2.3509 -1.6743 -0.9420
  695MOL0     H95878   5.474   1.658   4.870 -1.1148  0.2485  0.0714
  695MOL0     H95879   5.494   1.825   4.908  0.4411 -2.6234  2.2136
  695MOL0     H95880   5.570   1.890   4.690 -2.6808 -0.6247 -0.0390
  695MOL0     H95881   5.553   1.724   4.624  2.5681  2.8506 -2.9531
  695MOL0     H95882   5.724   1.647   4.750  1.2581  0.0956 -1.5569
  695MOL0     H95883   5.786   1.776   4.659 -1.9306 -0.0534 -1.1073
  695MOL0     H95884   5.721   1.749   4.964  2.3182  0.8155  2.2334
  695MOL0     H95885   5.725   1.914   4.881 -2.7809 -1.5435 -0.5809
  695MOL0     H95886   5.954   1.837   4.797 -1.4117  1.7954  1.0366
  695MOL0     H95887   5.956   1.709   4.912  1.4984  0.3774  0.1272
  695MOL0     H95888   5.921   2.003   4.989  1.7856 -0.0794 -1.7619
  695MOL0     H95889   6.071   1.920   4.986 -0.1824  2.0925  3.7363
  695MOL0     H95890   4.917   1.842   4.533 -1.0882  0.9287 -1.1239
  695MOL0     H95891   4.772   1.745   4.345 -0.7420  0.5828  2.5357
  695MOL0     H95892   4.829   1.143   4.254  0.9573  2.7056 -0.9667
  695MOL0     H95893   4.749   0.996   4.070 -0.1693  0.3282 -0.7959
  695MOL0     H95894   3.207   1.728   3.439 -0.0999 -0.5149 -0.3189
  695MOL0     H95895   2.964   1.755   3.350 -0.2494  0.6573 -0.4873
  695MOL0     H95896   2.685   1.869   3.208 -0.3247  0.4239  0.8616
  695MOL0     H95897   2.454   1.916   3.200 -1.1581  0.0640 -0.8230
  695MOL0     H95898   2.203   2.004   2.889 -0.9528  0.8052  1.7040
  695MOL0     H95899   2.270   1.866   2.807 -0.9367  0.4893 -1.1088
  695MOL0     H95900   2.049   1.838   2.792 -1.0157 -1.3947  0.7596
  695MOL0     H95901   2.012   1.876   2.955  2.0386  1.2644  0.9807
  695MOL0     H95902   2.198   1.649   2.916 -0.3542  1.1417 -0.7123
  695MOL0     H95903   2.085   1.677   3.050  1.7388 -2.5348 -0.4070
  695MOL0     H95904   1.899   1.586   2.902  0.6353  1.1219  1.5601
  695MOL0     H95905   2.026   1.477   2.916 -1.0621  1.1854  2.7864
  695MOL0     H95906   2.087   1.552   2.505 -0.7536 -0.6486  0.0258
  695MOL0     H95907   2.398   1.725   2.835 -0.5253 -1.6844 -0.0135
  695MOL0     H95908   2.692   1.527   2.818  1.4537  0.5456 -2.2425
  695MOL0     H95909   2.596   1.606   2.701  3.6957 -1.4946 -2.4569
  695MOL0     H95910   2.750   1.673   2.750 -1.0053  2.1533  1.2688
  696MOL0     O95911   8.598   3.538   8.800  0.6327 -0.2744 -0.2335
  696MOL0     C95912   8.692   3.543   8.731  0.4429  1.1109  0.7447
  696MOL0     O95913   8.820   3.564   8.776 -0.2393  0.7421 -0.6186
  696MOL0     C95914   8.844   3.562   8.914  0.1075 -0.3727 -0.4480
  696MOL0     C95915   8.912   3.459   8.979 -0.6409 -0.5673  0.3875
  696MOL0     C95916   8.912   3.440   9.117 -0.5342  0.6666 -0.1405
  696MOL0     C95917   8.839   3.534   9.199  0.0569 -0.7907  0.3929
  696MOL0     O95918   8.811   3.538   9.336  0.2111  0.0555  0.6693
  696MOL0     C95919   8.805   3.415   9.403 -0.5537 -0.3679 -0.7244
  696MOL0     C95920   8.739   3.443   9.537 -0.5046 -0.3230 -0.3854
  696MOL0     C95921   8.597   3.493   9.524 -1.3277 -0.7185  0.5034
  696MOL0     C95922   8.506   3.378   9.549  0.9860 -0.1046 -0.8013
  696MOL0     C95923   8.367   3.422   9.500 -0.5696 -0.4080  0.6481
  696MOL0     C95924   8.300   3.529   9.584 -0.1094  0.1051  0.0027
  696MOL0     C95925   8.306   3.498   9.733  0.5448 -0.7349 -0.5680
  696MOL0     C95926   8.218   3.614   9.796 -0.0176  0.2419  0.0415
  696MOL0     N95927   8.191   3.600   9.939  0.0238  0.4652  0.2710
  696MOL0     C95928   8.268   3.653  10.044 -0.3520 -0.1962 -0.4501
  696MOL0     C95929   8.211   3.610  10.157  0.8278 -0.8173  0.5942
  696MOL0     C95930   8.257   3.638  10.302  0.6379  0.6373 -0.0893
  696MOL0     C95931   8.315   3.514  10.368  0.0858  0.3063 -0.8105
  696MOL0     C95932   8.425   3.521  10.480  0.2694  0.1853  0.2189
  696MOL0     C95933   8.497   3.388  10.501  0.5696  0.3171  0.4200
  696MOL0     O95934   8.398   3.290  10.530  0.4361  0.1685  0.8633
  696MOL0     C95935   8.374   3.278  10.662 -0.7944  0.1084  0.8860
  696MOL0     C95936   8.255   3.303  10.732 -0.0193  0.4003 -0.2272
  696MOL0     C95937   8.239   3.278  10.879  0.8985  0.8128 -0.3800
  696MOL0     C95938   8.114   3.336  10.943 -0.1213 -0.4031  0.4151
  696MOL0     C95939   8.345   3.226  10.952 -1.0923 -0.1900  0.2446
  696MOL0     C95940   8.336   3.215  11.093 -0.4078  0.8082 -0.8105
  696MOL0     O95941   8.440   3.270  11.168 -0.1761  0.0827  0.2129
  696MOL0     C95942   8.456   3.246  11.303 -0.5018  0.3913  0.6068
  696MOL0     C95943   8.369   3.190  11.398 -1.1669  0.5864 -0.2983
  696MOL0     C95944   8.405   3.180  11.535 -0.0358 -0.2915 -0.6643
  696MOL0     C95945   8.530   3.243  11.574 -1.0544 -0.5474 -0.5023
  696MOL0     O95946   8.560   3.262  11.710  1.1562 -0.5525  0.5146
  696MOL0     C95947   8.568   3.148  11.789  0.1868 -1.1284 -0.3459
  696MOL0     C95948   8.701   3.148  11.865 -0.5617  0.3316 -0.3736
  696MOL0     C95949   8.721   3.272  11.957 -0.0091  0.1011  0.2296
  696MOL0     C95950   8.866   3.306  11.989 -0.1911 -0.2219 -1.0444
  696MOL0     C95951   8.944   3.197  12.080  0.0423  0.0847  0.1892
  696MOL0     C95952   8.864   3.185  12.201  0.3322  0.3755 -0.5826
  696MOL0     C95953   8.955   3.111  12.302  0.8917 -0.0580 -0.0665
  696MOL0     C95954   8.855   3.073  12.417 -0.3688 -0.1874  0.2933
  696MOL0    Cl95955   8.932   2.990  12.547  0.2880  0.3714 -0.0998
  696MOL0     C95956   8.622   3.291  11.479  0.1480 -0.4712 -1.0010
  696MOL0     C95957   8.587   3.288  11.346 -0.0326  0.0864 -0.0117
  696MOL0     O95958   8.240   3.152  11.132 -0.7482 -0.2837  0.2549
  696MOL0     C95959   8.465   3.187  10.886 -0.7032  0.7814 -0.0334
  696MOL0     C95960   8.478   3.221  10.744 -0.1152 -0.3052  0.4603
  696MOL0     N95961   8.095   3.545  10.123 -0.2614 -0.5871  1.1799
  696MOL0     N95962   8.087   3.533   9.996 -0.4345 -0.3512  0.3480
  696MOL0     C95963   8.790   3.653   9.137  0.5056  0.0339 -0.3643
  696MOL0     C95964   8.784   3.659   8.995 -0.3753  0.0373 -0.2980
  696MOL0     C95965   8.678   3.478   8.600 -0.2246 -0.1593  0.5026
  696MOL0     C95966   8.781   3.395   8.561  0.3785  0.0734 -0.4507
  696MOL0     C95967   8.784   3.338   8.433  0.5123 -1.0538  0.3360
  696MOL0     C95968   8.674   3.346   8.349  0.2519  0.0869  0.5179
  696MOL0     O95969   8.683   3.265   8.236 -0.2176  0.4799  0.2099
  696MOL0     C95970   8.569   3.230   8.156  0.5391  0.8111  0.5807
  696MOL0     C95971   8.566   3.322   8.034  0.2548  0.2314 -0.5370
  696MOL0     C95972   8.694   3.310   7.954  0.3340  0.3923  0.9532
  696MOL0     C95973   8.704   3.202   7.845  0.1348  0.1338  0.8486
  696MOL0     C95974   8.815   3.214   7.760  0.7690  1.3755 -0.2075
  696MOL0     C95975   8.898   3.235   7.681 -0.4151 -0.3503 -0.9808
  696MOL0     C95976   8.558   3.410   8.395 -0.0990  0.3644  0.3529
  696MOL0     C95977   8.568   3.490   8.511 -0.4276 -0.3161 -0.4450
  696MOL0     C95978   8.459   3.585   8.549  0.3911 -0.3107 -0.2162
  696MOL0     H95979   8.958   3.378   8.924 -3.9805 -1.2282 -1.6884
  696MOL0     H95980   8.954   3.358   9.173 -1.6036  0.7880  0.8867
  696MOL0     H95981   8.906   3.375   9.414  0.2749  1.7722 -0.0361
  696MOL0     H95982   8.758   3.335   9.346  3.7431 -1.9985 -2.3779
  696MOL0     H95983   8.737   3.351   9.595 -0.3518  0.6838  1.2843
  696MOL0     H95984   8.797   3.514   9.596 -2.3313 -1.0411  2.5062
  696MOL0     H95985   8.580   3.581   9.588 -1.4037  0.6223 -1.3011
  696MOL0     H95986   8.574   3.533   9.425  0.9417  0.2247  0.2904
  696MOL0     H95987   8.536   3.286   9.498  1.8022 -2.4302  3.4934
  696MOL0     H95988   8.503   3.343   9.652 -0.1831 -1.0357 -1.1212
  696MOL0     H95989   8.297   3.338   9.492  0.2714 -0.9620 -1.5110
  696MOL0     H95990   8.376   3.456   9.396 -0.1138 -0.5416  0.6408
  696MOL0     H95991   8.340   3.625   9.550 -0.4046 -0.6361 -2.6242
  696MOL0     H95992   8.195   3.516   9.557  0.3685 -0.6557 -1.5823
  696MOL0     H95993   8.403   3.509   9.782 -0.2191 -1.2427  1.1422
  696MOL0     H95994   8.275   3.396   9.758 -1.1046  0.2761  1.8350
  696MOL0     H95995   8.265   3.713   9.786  1.0038 -0.0948  1.2039
  696MOL0     H95996   8.117   3.618   9.754 -0.5030  2.9285  1.2285
  696MOL0     H95997   8.365   3.700  10.037 -0.6772  2.0078  4.9435
  696MOL0     H95998   8.173   3.677  10.359  1.6490  0.2612  1.7394
  696MOL0     H95999   8.324   3.724  10.291 -0.9630  1.6349 -3.1495
  696MOL0     H96000   8.230   3.455  10.404 -0.5003  0.5681 -1.7385
  696MOL0     H96001   8.361   3.458  10.286 -1.6194 -1.6744 -0.5052
  696MOL0     H96002   8.499   3.598  10.456 -0.1309 -0.1816 -2.5834
  696MOL0     H96003   8.376   3.553  10.572  1.1874  0.6584  0.5556
  696MOL0     H96004   8.547   3.354  10.409 -2.8237 -0.6990 -1.2375
  696MOL0     H96005   8.570   3.402  10.581 -0.3193 -0.2756  1.3636
  696MOL0     H96006   8.166   3.339  10.680  0.5688 -1.7777 -2.9875
  696MOL0     H96007   8.058   3.391  10.867 -0.0503 -1.0912 -0.1565
  696MOL0     H96008   8.131   3.403  11.027 -2.2810  0.4947  0.1787
  696MOL0     H96009   8.048   3.255  10.977 -0.9003  1.7332  4.6108
  696MOL0     H96010   8.272   3.160  11.359  0.1250 -0.9341 -2.5779
  696MOL0     H96011   8.334   3.142  11.608  1.1628  1.2019  1.4175
  696MOL0     H96012   8.486   3.168  11.860 -1.3594  1.1176 -2.5646
  696MOL0     H96013   8.540   3.060  11.730 -3.3565  0.5037 -1.3691
  696MOL0     H96014   8.698   3.062  11.932 -1.3147 -1.0466 -2.1245
  696MOL0     H96015   8.787   3.128  11.801  0.6382  0.2630  1.2044
  696MOL0     H96016   8.650   3.279  12.040  0.5485  1.6084  0.6339
  696MOL0     H96017   8.685   3.362  11.906 -2.9803 -0.5180  1.0466
  696MOL0     H96018   8.884   3.405  12.032 -0.5903 -1.6251  2.7778
  696MOL0     H96019   8.920   3.301  11.894  2.7126  0.3758  0.4518
  696MOL0     H96020   8.952   3.107  12.018  1.1790 -1.0876  1.9389
  696MOL0     H96021   9.048   3.223  12.102 -0.4784  1.6319  0.9913
  696MOL0     H96022   8.774   3.127  12.178  0.4932 -0.6052  1.1315
  696MOL0     H96023   8.838   3.281  12.248 -0.7375 -0.2666  0.1707
  696MOL0     H96024   9.034   3.182  12.324 -1.5206  2.2724  1.7823
  696MOL0     H96025   9.000   3.025  12.252 -0.3745  0.5540 -2.4451
  696MOL0     H96026   8.784   3.004  12.373  0.3292 -0.4027 -0.5284
  696MOL0     H96027   8.790   3.153  12.452  0.1656  1.0902 -1.4682
  696MOL0     H96028   8.713   3.340  11.512 -0.2585 -0.3200 -0.0877
  696MOL0     H96029   8.659   3.327  11.275 -1.6154  0.6651 -1.3583
  696MOL0     H96030   8.544   3.149  10.951  0.0939  4.1318  1.1225
  696MOL0     H96031   8.572   3.204  10.692  0.6646  1.5930  1.1398
  696MOL0     H96032   8.737   3.712   9.211  3.2129  0.3590  1.4278
  696MOL0     H96033   8.735   3.740   8.943  1.6522  0.1933 -2.0981
  696MOL0     H96034   8.865   3.367   8.623  0.1731 -5.4338 -2.1081
  696MOL0     H96035   8.867   3.280   8.396  0.1283  0.1354 -2.7209
  696MOL0     H96036   8.570   3.122   8.135 -2.6102  0.8844 -0.4190
  696MOL0     H96037   8.473   3.236   8.209 -2.7733 -0.2645 -4.5445
  696MOL0     H96038   8.563   3.423   8.075  3.2647 -0.4298  1.6700
  696MOL0     H96039   8.476   3.300   7.975 -1.1409  0.2244  1.5287
  696MOL0     H96040   8.701   3.403   7.896  0.8322 -1.0830 -1.4819
  696MOL0     H96041   8.785   3.300   8.014  0.1097 -0.2714  1.1867
  696MOL0     H96042   8.612   3.198   7.785  1.7388 -0.8415 -1.7097
  696MOL0     H96043   8.705   3.102   7.889  2.9921 -0.4905 -0.4555
  696MOL0     H96044   8.969   3.249   7.602  0.9998  1.0022  0.4857
  696MOL0     H96045   8.459   3.414   8.350 -0.1130 -0.0152  0.3492
  696MOL0     H96046   8.428   3.595   8.653  0.4123 -0.1753 -0.2245
  696MOL0     H96047   8.488   3.684   8.514 -0.1391  0.4511  1.4437
  696MOL0     H96048   8.368   3.545   8.502  1.3398 -2.8889 -0.0354
  697MOL0     O96049   7.105   7.557   6.091 -0.9326 -0.5593 -0.0458
  697MOL0     C96050   6.989   7.586   6.102  1.2442 -0.2074  0.3344
  697MOL0     O96051   6.937   7.671   6.197 -0.2164 -0.2783  0.5523
  697MOL0     C96052   7.026   7.721   6.286  0.1362  0.7700 -0.7929
  697MOL0     C96053   7.038   7.649   6.404 -0.6497 -0.2460 -1.1157
  697MOL0     C96054   7.105   7.710   6.516 -0.3334  0.2413  0.5832
  697MOL0     C96055   7.165   7.836   6.507 -0.1488  0.2829  0.2015
  697MOL0     O96056   7.230   7.886   6.627  0.3675  0.6645 -0.2248
  697MOL0     C96057   7.348   7.972   6.623 -0.4999  0.6430  0.2099
  697MOL0     C96058   7.409   7.988   6.764  0.1973 -0.5827 -0.3568
  697MOL0     C96059   7.557   8.028   6.761 -0.8858 -0.1354  0.5804
  697MOL0     C96060   7.618   8.046   6.894  0.3295 -0.4039 -0.3284
  697MOL0     C96061   7.769   8.104   6.894  0.3216 -0.1229  0.5233
  697MOL0     C96062   7.871   8.015   6.830  0.1481  0.6788  0.5392
  697MOL0     C96063   7.900   7.897   6.920 -0.9266  0.6337 -1.0667
  697MOL0     C96064   8.027   7.822   6.880  0.0433 -0.5257  0.6098
  697MOL0     N96065   8.046   7.691   6.950  0.0481  0.9708 -0.0302
  697MOL0     C96066   7.998   7.650   7.071 -0.1233  0.6105  0.4360
  697MOL0     C96067   8.074   7.557   7.118 -1.3042  0.0172  0.8191
  697MOL0     C96068   8.059   7.474   7.240  0.0777 -0.9672  0.4170
  697MOL0     C96069   7.971   7.547   7.350 -0.8664  0.8763  0.0401
  697MOL0     C96070   7.948   7.466   7.477  0.1269 -0.3034 -1.4729
  697MOL0     C96071   8.087   7.439   7.556  0.6643 -0.4639  1.1283
  697MOL0     O96072   8.092   7.380   7.685  0.5115 -0.0748  1.0577
  697MOL0     C96073   8.082   7.458   7.799  0.1854  0.0161  0.1830
  697MOL0     C96074   8.144   7.410   7.916 -0.1215 -0.1572 -0.4832
  697MOL0     C96075   8.153   7.488   8.035  0.2782  0.2207 -0.2208
  697MOL0     C96076   8.261   7.436   8.132 -0.4749  0.0562  0.4343
  697MOL0     C96077   8.091   7.615   8.034  0.0536  0.7162 -0.2765
  697MOL0     C96078   8.094   7.711   8.139  0.4041 -0.2033 -0.7573
  697MOL0     O96079   8.007   7.812   8.142  0.3617  0.0601  0.4552
  697MOL0     C96080   7.998   7.890   8.258 -0.2580 -0.7256 -0.7758
  697MOL0     C96081   7.929   7.839   8.367  1.1322  0.3279 -0.2312
  697MOL0     C96082   7.932   7.896   8.494  0.3624  0.2730 -0.2440
  697MOL0     C96083   7.980   8.020   8.516  0.3216  0.4418  0.8513
  697MOL0     O96084   7.951   8.074   8.643  0.3598  0.1121 -0.2628
  697MOL0     C96085   7.927   8.215   8.651  0.7357 -0.3983  0.4072
  697MOL0     C96086   7.832   8.248   8.774  0.1157 -0.3031 -1.0432
  697MOL0     C96087   7.905   8.269   8.913 -0.7282 -0.7640  0.5607
  697MOL0     C96088   7.976   8.137   8.956 -0.0714 -0.3541 -0.1061
  697MOL0     C96089   7.890   8.013   8.982 -0.4565 -0.9156  0.0355
  697MOL0     C96090   7.780   8.024   9.083  0.3673 -0.3245 -0.4642
  697MOL0     C96091   7.656   7.925   9.064  0.1735  0.0000 -0.3225
  697MOL0     C96092   7.545   7.956   9.158  0.5786  0.5171  0.3229
  697MOL0    Cl96093   7.532   8.127   9.219 -0.1321  0.5208 -0.1815
  697MOL0     C96094   8.046   8.083   8.408 -0.3362 -0.0084 -0.5142
  697MOL0     C96095   8.055   8.011   8.287  0.1069 -0.3973 -0.1871
  697MOL0     O96096   8.188   7.700   8.217 -0.2074 -0.3307 -0.3327
  697MOL0     C96097   8.023   7.655   7.921 -0.0176  0.5261 -0.1094
  697MOL0     C96098   8.016   7.584   7.803  0.0501 -0.4724  0.0773
  697MOL0     N96099   8.170   7.532   7.026  0.2556 -0.4294  0.2189
  697MOL0     N96100   8.149   7.607   6.925  0.5566  0.2664  0.1672
  697MOL0     C96101   7.162   7.901   6.383  0.2409  0.1120 -0.3106
  697MOL0     C96102   7.088   7.848   6.282  0.5226  0.2779  0.3081
  697MOL0     C96103   6.890   7.550   6.000  0.9756  0.2085  0.9956
  697MOL0     C96104   6.746   7.578   6.031 -0.6634 -0.5178 -0.7471
  697MOL0     C96105   6.650   7.537   5.940  0.0553  0.1528  0.1835
  697MOL0     C96106   6.683   7.479   5.814 -0.4592 -0.7850  0.4857
  697MOL0     O96107   6.600   7.436   5.715 -0.3184 -0.2325  0.2673
  697MOL0     C96108   6.457   7.419   5.745 -0.2391  1.0954 -0.3119
  697MOL0     C96109   6.378   7.341   5.641  0.1008  1.0256  0.3338
  697MOL0     C96110   6.447   7.213   5.587  0.1266 -0.1108 -0.1147
  697MOL0     C96111   6.366   7.120   5.491 -0.7637 -0.3261  0.1082
  697MOL0     C96112   6.267   7.046   5.561  0.1345  0.6468  0.0452
  697MOL0     C96113   6.181   6.994   5.644 -0.3646 -0.3463  0.0643
  697MOL0     C96114   6.816   7.472   5.781 -0.6178  0.3169 -0.1841
  697MOL0     C96115   6.921   7.503   5.868  1.2002 -0.1701  0.4730
  697MOL0     C96116   7.062   7.486   5.814 -0.4800  0.3378  0.0764
  697MOL0     H96117   6.985   7.555   6.416 -0.0506 -0.6493 -1.5725
  697MOL0     H96118   7.111   7.665   6.614  0.2309  1.4019  1.1044
  697MOL0     H96119   7.313   8.073   6.599 -1.0908  0.0619 -1.6007
  697MOL0     H96120   7.419   7.948   6.544 -1.4978  1.5719 -1.0192
  697MOL0     H96121   7.351   8.059   6.824 -0.5390  1.2328 -3.0162
  697MOL0     H96122   7.392   7.895   6.818 -1.8573  1.8727  3.7736
  697MOL0     H96123   7.616   7.950   6.712  0.1921  0.4831  0.8575
  697MOL0     H96124   7.563   8.123   6.706 -2.0186  0.4881  1.4756
  697MOL0     H96125   7.556   8.114   6.954  1.1895 -2.0876  2.6917
  697MOL0     H96126   7.614   7.956   6.956  2.1752  0.9458  1.9129
  697MOL0     H96127   7.796   8.127   6.997 -1.8707  3.0691  0.5201
  697MOL0     H96128   7.773   8.204   6.850 -1.0817  0.3525  1.4108
  697MOL0     H96129   7.830   7.989   6.732 -6.0199  2.4722  2.1852
  697MOL0     H96130   7.967   8.066   6.830 -0.3219  1.5898  1.2009
  697MOL0     H96131   7.820   7.823   6.914  0.3629 -1.1735  1.9178
  697MOL0     H96132   7.911   7.929   7.024  0.5242 -0.5031 -0.8272
  697MOL0     H96133   8.026   7.799   6.773 -0.6582 -2.1278  0.9420
  697MOL0     H96134   8.113   7.887   6.901  0.0997  0.4663 -2.3182
  697MOL0     H96135   7.906   7.689   7.114 -0.4557  0.9766 -0.5693
  697MOL0     H96136   8.159   7.455   7.281  0.9091  0.4307 -0.9114
  697MOL0     H96137   8.021   7.374   7.214 -1.8947 -0.1724  0.0724
  697MOL0     H96138   8.010   7.646   7.374 -2.6661  1.1940  1.9814
  697MOL0     H96139   7.872   7.561   7.306 -2.2869 -3.9737  1.0235
  697MOL0     H96140   7.874   7.510   7.544 -2.1087 -3.6534 -1.4791
  697MOL0     H96141   7.901   7.371   7.447 -1.0083 -0.7971  1.4742
  697MOL0     H96142   8.145   7.384   7.482 -0.6321 -0.3843  0.0227
  697MOL0     H96143   8.134   7.538   7.564 -0.6536  0.4480 -1.3675
  697MOL0     H96144   8.183   7.309   7.915 -0.3444 -0.4091  3.1158
  697MOL0     H96145   8.349   7.496   8.109 -0.8845  0.6643  0.4271
  697MOL0     H96146   8.284   7.330   8.117 -1.7527 -0.2456  0.4499
  697MOL0     H96147   8.229   7.456   8.234 -4.1092 -0.8180 -0.3783
  697MOL0     H96148   7.880   7.745   8.342  2.8087 -0.0179 -2.4870
  697MOL0     H96149   7.882   7.858   8.583 -0.5220  0.7920 -0.5035
  697MOL0     H96150   8.024   8.264   8.665  0.9286 -0.3368 -1.0367
  697MOL0     H96151   7.893   8.257   8.556 -2.6009  0.7516  1.9468
  697MOL0     H96152   7.774   8.340   8.763 -0.2512 -0.5318 -1.0470
  697MOL0     H96153   7.755   8.171   8.784 -0.7392  0.8257  2.5960
  697MOL0     H96154   7.839   8.308   8.991 -0.2874  1.0927  0.0497
  697MOL0     H96155   7.986   8.341   8.905 -0.6181 -0.6624  2.3346
  697MOL0     H96156   8.036   8.153   9.046 -1.2904  1.6154  0.4343
  697MOL0     H96157   8.040   8.119   8.869 -0.1414 -1.0107 -0.0245
  697MOL0     H96158   7.857   7.972   8.886  0.3421 -0.9480 -0.2351
  697MOL0     H96159   7.958   7.937   9.023 -0.8426 -2.7616 -2.5212
  697MOL0     H96160   7.741   8.125   9.068 -0.6074 -0.7463 -0.8598
  697MOL0     H96161   7.829   8.013   9.180 -0.3684 -0.1964 -0.0714
  697MOL0     H96162   7.697   7.825   9.085  0.7489  0.8783  3.6329
  697MOL0     H96163   7.630   7.928   8.958  1.9450  2.0761 -0.7722
  697MOL0     H96164   7.548   7.879   9.236  3.1742  0.9956  0.7784
  697MOL0     H96165   7.452   7.937   9.102 -0.2462 -0.3158  1.8909
  697MOL0     H96166   8.087   8.179   8.436  0.8766 -0.6407  0.0038
  697MOL0     H96167   8.111   8.054   8.205  0.2489  0.1144  0.1738
  697MOL0     H96168   7.966   7.748   7.929 -0.0400  0.4967  0.0706
  697MOL0     H96169   7.967   7.629   7.718  0.1117  1.8235  1.1871
  697MOL0     H96170   7.206   7.999   6.367  3.0075 -0.7703  1.1591
  697MOL0     H96171   7.067   7.894   6.186  0.7905 -4.5227 -2.3522
  697MOL0     H96172   6.704   7.620   6.122  2.4335  4.3552 -1.1389
  697MOL0     H96173   6.550   7.555   5.979 -0.1979  1.2853 -0.9303
  697MOL0     H96174   6.445   7.379   5.846  3.0528  1.3523  0.2891
  697MOL0     H96175   6.411   7.518   5.739 -0.0597  1.1425 -0.9515
  697MOL0     H96176   6.367   7.410   5.557  1.1886  1.1930  0.3205
  697MOL0     H96177   6.277   7.320   5.677 -0.2017 -6.6026 -3.0868
  697MOL0     H96178   6.531   7.241   5.523  0.4381 -1.5609 -0.3844
  697MOL0     H96179   6.486   7.155   5.671 -3.0331 -1.0720  0.8230
  697MOL0     H96180   6.435   7.051   5.443 -1.5727 -0.3446 -1.0739
  697MOL0     H96181   6.308   7.177   5.417 -2.0965 -1.0130  0.5893
  697MOL0     H96182   6.122   6.944   5.718 -2.4225  2.9549  0.8248
  697MOL0     H96183   6.834   7.433   5.682 -2.6890  0.9668 -0.8727
  697MOL0     H96184   7.130   7.435   5.883  0.4207 -3.2051 -3.0800
  697MOL0     H96185   7.063   7.424   5.724  0.7260 -1.6245  1.3608
  697MOL0     H96186   7.106   7.582   5.787  0.3498 -0.1890 -0.5189
  698MOL0     O96187  10.682   5.399   4.659 -0.0695  0.0302  0.3857
  698MOL0     C96188  10.763   5.478   4.612 -1.0139  0.0434 -0.0823
  698MOL0     O96189  10.809   5.480   4.488  0.1381 -0.1707 -0.2903
  698MOL0     C96190  10.758   5.405   4.386 -0.4294 -0.1438 -0.1972
  698MOL0     C96191  10.632   5.428   4.330  0.0547 -0.1755 -0.5445
  698MOL0     C96192  10.576   5.360   4.221 -0.3978  1.4795 -0.0587
  698MOL0     C96193  10.638   5.246   4.173 -0.0215  0.4970 -0.0207
  698MOL0     O96194  10.589   5.156   4.071  0.4929 -0.1594 -0.0280
  698MOL0     C96195  10.470   5.185   4.004 -0.2685  0.0684  0.3244
  698MOL0     C96196  10.418   5.083   3.900 -0.9076 -0.2111 -0.4377
  698MOL0     C96197  10.384   4.956   3.975  0.0487  1.2194  1.4081
  698MOL0     C96198  10.346   4.831   3.876  0.2726 -0.3887 -0.5631
  698MOL0     C96199  10.293   4.708   3.964 -0.3385 -0.2177 -0.8913
  698MOL0     C96200  10.247   4.578   3.884 -0.3513 -0.1323  0.5577
  698MOL0     C96201  10.185   4.485   3.982  0.5451 -0.4942  0.2917
  698MOL0     C96202  10.111   4.383   3.902 -0.6595 -0.4814  0.2561
  698MOL0     N96203  10.204   4.276   3.848  0.1161  0.4563  0.0575
  698MOL0     C96204  10.292   4.287   3.744  0.2156  0.2807  0.6905
  698MOL0     C96205  10.374   4.181   3.749  0.4768 -0.0083  0.3333
  698MOL0     C96206  10.504   4.166   3.677 -0.5141  0.4654  0.6845
  698MOL0     C96207  10.550   4.295   3.604  0.5983  0.6003  0.1526
  698MOL0     C96208  10.598   4.403   3.706  0.6690  0.4070  0.4710
  698MOL0     C96209  10.699   4.490   3.626  1.3737 -0.5337 -0.0204
  698MOL0     O96210  10.733   4.582   3.731 -0.3144 -0.1573 -0.2613
  698MOL0     C96211  10.756   4.714   3.702  0.1805 -0.3457  0.0874
  698MOL0     C96212  10.806   4.764   3.581  0.2219 -1.6533 -0.6709
  698MOL0     C96213  10.849   4.897   3.575 -0.7956 -0.9794  0.1393
  698MOL0     C96214  10.936   4.939   3.464  0.1023  0.1953  0.7688
  698MOL0     C96215  10.819   4.992   3.683  0.8223 -0.3020 -0.1754
  698MOL0     C96216  10.837   5.136   3.681  0.6903  0.1855  0.2503
  698MOL0     O96217  10.896   5.195   3.794  0.6536  0.5462  0.2485
  698MOL0     C96218  10.901   5.338   3.808 -1.0527  1.1033 -0.3627
  698MOL0     C96219  11.010   5.403   3.753 -0.0829 -0.9004 -0.5666
  698MOL0     C96220  11.022   5.541   3.767  0.2354  0.3084 -0.4874
  698MOL0     C96221  10.918   5.614   3.834 -0.5850 -0.0993  0.2411
  698MOL0     O96222  10.914   5.749   3.852  0.6446 -0.3030  0.6634
  698MOL0     C96223  11.035   5.827   3.865 -0.1826 -0.5893 -0.3770
  698MOL0     C96224  11.017   5.950   3.795  0.6992 -0.0814 -0.0446
  698MOL0     C96225  10.892   6.028   3.823  0.5400 -0.1789 -0.1595
  698MOL0     C96226  10.881   6.144   3.732 -0.5646 -0.7767  0.7844
  698MOL0     C96227  10.766   6.237   3.757  0.2933 -0.4246  0.8296
  698MOL0     C96228  10.802   6.371   3.686 -1.0046 -0.5969 -1.1491
  698MOL0     C96229  10.808   6.365   3.528  0.5535 -0.0124 -0.5200
  698MOL0     C96230  10.819   6.504   3.472 -0.0871  0.1384  0.0291
  698MOL0    Cl96231  10.989   6.576   3.485 -0.1223  0.1948  0.1864
  698MOL0     C96232  10.810   5.546   3.889 -0.2754 -0.2294  0.1822
  698MOL0     C96233  10.803   5.405   3.879 -0.1927  0.2274  0.5087
  698MOL0     O96234  10.810   5.200   3.579  0.1916  0.1431 -0.4379
  698MOL0     C96235  10.784   4.933   3.807 -0.5565  0.4641 -0.2355
  698MOL0     C96236  10.759   4.796   3.820 -1.5272  0.0766  0.6664
  698MOL0     N96237  10.330   4.101   3.845  0.0857  0.1146 -0.0164
  698MOL0     N96238  10.229   4.157   3.908 -0.9572  0.0125 -0.5786
  698MOL0     C96239  10.763   5.213   4.230 -0.7652  0.2340  0.0982
  698MOL0     C96240  10.823   5.293   4.327  0.0381  0.2259 -0.4351
  698MOL0     C96241  10.842   5.567   4.707  0.2862 -0.3789 -0.8534
  698MOL0     C96242  10.934   5.653   4.647 -0.3479  0.4796  1.3755
  698MOL0     C96243  10.985   5.759   4.722  0.3345  0.6594  0.8474
  698MOL0     C96244  10.977   5.761   4.868  0.5686  0.3344 -0.3405
  698MOL0     O96245  11.040   5.868   4.934  0.1516 -0.1874  0.4443
  698MOL0     C96246  11.020   5.879   5.068 -0.5044  0.7107  0.0731
  698MOL0     C96247  11.103   6.004   5.107  0.7590 -0.3641  0.2752
  698MOL0     C96248  11.253   6.012   5.093 -0.5945  0.0874 -0.0433
  698MOL0     C96249  11.332   5.935   5.200  0.2276  0.5413 -0.0494
  698MOL0     C96250  11.316   6.000   5.329  0.2416  0.0423  0.1250
  698MOL0     C96251  11.297   6.062   5.430  0.6030 -0.6340  0.4207
  698MOL0     C96252  10.894   5.660   4.929  1.0798  0.3415 -0.2254
  698MOL0     C96253  10.823   5.572   4.849  0.1405 -0.1879 -0.8206
  698MOL0     C96254  10.734   5.479   4.923 -0.6630  0.4615 -0.3962
  698MOL0     H96255  10.579   5.519   4.356  1.8241  0.9016 -0.5382
  698MOL0     H96256  10.479   5.400   4.191 -0.1623  1.5418 -0.7626
  698MOL0     H96257  10.490   5.279   3.951 -1.2394 -0.7894 -1.6620
  698MOL0     H96258  10.398   5.188   4.086  1.2056 -1.4354  1.7434
  698MOL0     H96259  10.331   5.123   3.847  0.1207  0.0232 -2.0344
  698MOL0     H96260  10.494   5.057   3.825  0.1049  0.6687  0.2509
  698MOL0     H96261  10.471   4.947   4.041  0.1062  2.4735  1.5402
  698MOL0     H96262  10.292   4.978   4.030 -1.2641  3.1984 -1.3684
  698MOL0     H96263  10.284   4.871   3.796  1.9716 -1.6416 -2.6268
  698MOL0     H96264  10.441   4.804   3.829  0.1247  1.2745 -1.8986
  698MOL0     H96265  10.202   4.738   4.016  0.9268 -1.1720  2.1086
  698MOL0     H96266  10.355   4.688   4.052 -1.0262 -0.3224 -0.4204
  698MOL0     H96267  10.170   4.609   3.813 -0.9485 -1.2300  0.7106
  698MOL0     H96268  10.329   4.538   3.824  1.4284 -0.3405  2.9577
  698MOL0     H96269  10.107   4.540   4.036  0.2641  1.5280 -2.0276
  698MOL0     H96270  10.263   4.441   4.045  2.8682 -0.0861 -2.1444
  698MOL0     H96271  10.037   4.340   3.970 -2.6433  1.8122 -0.3550
  698MOL0     H96272  10.062   4.429   3.816  1.1677  0.9644 -0.0656
  698MOL0     H96273  10.296   4.372   3.678 -1.9658  2.5065  3.1863
  698MOL0     H96274  10.503   4.079   3.610 -0.7016  1.5541 -0.7824
  698MOL0     H96275  10.576   4.143   3.756  0.0190  0.6365  0.2568
  698MOL0     H96276  10.626   4.261   3.532  1.5279  1.0059  0.9166
  698MOL0     H96277  10.464   4.328   3.544  0.1722 -2.3973 -1.0378
  698MOL0     H96278  10.507   4.459   3.728  0.2659  0.3083 -0.8067
  698MOL0     H96279  10.654   4.354   3.786 -2.4769 -1.4203  1.7190
  698MOL0     H96280  10.786   4.437   3.588  2.3882  0.0272  1.4198
  698MOL0     H96281  10.647   4.548   3.549  1.8332  1.7088  1.2473
  698MOL0     H96282  10.828   4.707   3.491 -1.8731  0.7204 -2.8490
  698MOL0     H96283  11.009   5.015   3.494 -0.2670  1.5894 -1.5279
  698MOL0     H96284  10.887   4.992   3.381  2.5834 -0.3883 -1.1824
  698MOL0     H96285  10.986   4.855   3.416 -0.8160 -1.8143  3.1267
  698MOL0     H96286  11.090   5.349   3.704  0.8430  2.2927 -2.8885
  698MOL0     H96287  11.114   5.593   3.741 -0.5051  2.6437  1.2825
  698MOL0     H96288  11.037   5.853   3.971  2.5272  0.2047 -0.5512
  698MOL0     H96289  11.132   5.789   3.831  0.8737 -0.0949  1.8979
  698MOL0     H96290  11.095   6.025   3.811 -0.5436  1.2362  0.0800
  698MOL0     H96291  11.004   5.930   3.688 -2.4316  0.4027  0.1523
  698MOL0     H96292  10.905   6.055   3.929 -0.8602 -1.8279  0.4761
  698MOL0     H96293  10.802   5.965   3.820  1.2842 -1.2501 -0.6539
  698MOL0     H96294  10.871   6.113   3.627 -1.5470 -3.9541  1.7160
  698MOL0     H96295  10.973   6.203   3.738 -1.1601  0.0217  2.8557
  698MOL0     H96296  10.677   6.192   3.712  2.3310 -2.4738 -1.4855
  698MOL0     H96297  10.745   6.246   3.864  1.9780  1.1151  1.0768
  698MOL0     H96298  10.898   6.409   3.722 -2.9259  2.7423  1.0856
  698MOL0     H96299  10.720   6.442   3.705 -0.9031 -0.7665  0.0006
  698MOL0     H96300  10.720   6.315   3.486  0.6056  0.8847 -1.7461
  698MOL0     H96301  10.892   6.306   3.492 -1.1018  0.2303 -5.5694
  698MOL0     H96302  10.751   6.579   3.512 -0.2893  1.2367 -2.2126
  698MOL0     H96303  10.797   6.493   3.365  0.4629 -3.7002  0.1665
  698MOL0     H96304  10.738   5.593   3.955  2.2402  0.8274  2.3311
  698MOL0     H96305  10.727   5.346   3.929 -1.4533  0.6690 -0.7995
  698MOL0     H96306  10.783   4.989   3.900 -0.5038  1.5731 -0.8830
  698MOL0     H96307  10.745   4.754   3.919 -2.0495 -2.7139 -0.5035
  698MOL0     H96308  10.809   5.124   4.188 -4.8408 -1.1353 -2.0010
  698MOL0     H96309  10.914   5.262   4.377  0.8323  2.3425 -0.4747
  698MOL0     H96310  10.968   5.650   4.544  0.3141 -0.2211  1.6050
  698MOL0     H96311  11.039   5.847   4.689  0.7786  0.2054  0.3582
  698MOL0     H96312  10.917   5.906   5.093 -1.8979 -2.1723 -2.0006
  698MOL0     H96313  11.043   5.790   5.127 -1.4457  1.5150  1.7116
  698MOL0     H96314  11.084   6.039   5.209  1.9962 -0.4314  0.5499
  698MOL0     H96315  11.052   6.080   5.047  2.0825  1.4630  1.3628
  698MOL0     H96316  11.273   5.979   4.990  0.1456  1.6127 -0.4038
  698MOL0     H96317  11.281   6.117   5.093  1.2945 -0.3195 -2.6536
  698MOL0     H96318  11.439   5.929   5.178  0.2433 -0.6551  0.2781
  698MOL0     H96319  11.305   5.830   5.200 -2.2195  1.0962  1.2820
  698MOL0     H96320  11.277   6.124   5.516  3.2369  0.3388  0.4100
  698MOL0     H96321  10.879   5.654   5.036 -2.1990  0.8576 -0.5577
  698MOL0     H96322  10.766   5.379   4.891 -3.4030 -0.4110 -0.6526
  698MOL0     H96323  10.739   5.492   5.032  1.5475 -0.9516 -0.2625
  698MOL0     H96324  10.634   5.490   4.881 -0.6369 -1.0942 -0.9500
  699MOL0     O96325   3.709   8.155  11.363  0.2517  0.3076  0.5339
  699MOL0     C96326   3.829   8.141  11.391  0.5064  0.4871 -0.0172
  699MOL0     O96327   3.930   8.162  11.306  0.0531  0.3107 -0.0319
  699MOL0     C96328   3.896   8.183  11.172 -0.3005  0.5205 -0.6517
  699MOL0     C96329   3.939   8.306  11.135 -0.8037  0.4942 -0.1138
  699MOL0     C96330   3.915   8.342  11.002 -0.2740  0.1937 -0.4578
  699MOL0     C96331   3.856   8.257  10.910 -0.3220  0.6766  1.1100
  699MOL0     O96332   3.846   8.293  10.780  0.7831  0.1632 -0.7601
  699MOL0     C96333   3.724   8.362  10.753 -0.2624  0.2144 -0.9842
  699MOL0     C96334   3.747   8.508  10.758 -0.0377 -0.7483  0.0559
  699MOL0     C96335   3.784   8.561  10.623 -0.4021 -0.4029  0.3079
  699MOL0     C96336   3.758   8.712  10.617  0.6435 -0.1668  0.9438
  699MOL0     C96337   3.841   8.787  10.511  0.0348  0.5065  0.3582
  699MOL0     C96338   3.817   8.942  10.513  0.2120 -0.3446 -0.2633
  699MOL0     C96339   3.675   8.980  10.477 -1.1147  0.5509 -0.7177
  699MOL0     C96340   3.667   9.118  10.405  0.4127  0.5698 -0.3140
  699MOL0     N96341   3.526   9.171  10.409 -0.5916 -0.3921  0.8766
  699MOL0     C96342   3.432   9.178  10.304  0.4790 -0.0549  0.7437
  699MOL0     C96343   3.339   9.260  10.355 -0.4269 -0.3038  0.2689
  699MOL0     C96344   3.218   9.330  10.293  0.1048 -0.2459  0.2318
  699MOL0     C96345   3.105   9.241  10.262  0.9362  0.9285 -0.0470
  699MOL0     C96346   3.010   9.300  10.175 -0.0794 -0.6639  0.1655
  699MOL0     C96347   2.917   9.202  10.092 -0.6721 -0.7091  0.3692
  699MOL0     O96348   2.813   9.136  10.165 -0.2167 -0.7433  0.0699
  699MOL0     C96349   2.842   9.019  10.235 -0.3684  0.1150 -0.0129
  699MOL0     C96350   2.765   8.972  10.342  0.4242  0.0774 -0.1001
  699MOL0     C96351   2.779   8.862  10.422 -0.3808  0.6217 -0.8823
  699MOL0     C96352   2.681   8.847  10.539  0.1886 -0.2467 -0.3144
  699MOL0     C96353   2.879   8.769  10.392 -0.5920 -0.0190  0.7577
  699MOL0     C96354   2.917   8.657  10.481 -0.5738 -0.6884  0.5938
  699MOL0     O96355   2.821   8.617  10.563  0.6867 -0.1247  0.6312
  699MOL0     C96356   2.843   8.536  10.664 -0.4682 -0.4531 -0.0731
  699MOL0     C96357   2.792   8.404  10.658 -0.3174  0.0313 -0.6143
  699MOL0     C96358   2.802   8.314  10.763 -1.0414 -0.8645  0.0029
  699MOL0     C96359   2.883   8.347  10.874 -0.2725 -0.0330 -0.9953
  699MOL0     O96360   2.889   8.261  10.982  0.2716 -0.5004  0.1074
  699MOL0     C96361   3.012   8.240  11.055  0.1860 -0.1047 -0.5078
  699MOL0     C96362   2.983   8.135  11.163 -0.5789  0.4717  0.9512
  699MOL0     C96363   3.108   8.105  11.242 -0.1947  0.0253  0.2987
  699MOL0     C96364   3.200   7.998  11.170  0.6298  0.2168  0.4003
  699MOL0     C96365   3.313   7.951  11.254 -0.6966 -0.7060  0.3724
  699MOL0     C96366   3.403   7.844  11.186  0.4638  1.5767  0.2174
  699MOL0     C96367   3.508   7.799  11.278  0.7950  0.7639 -0.1686
  699MOL0     C96368   3.592   7.678  11.232 -0.6003 -0.1444 -0.5052
  699MOL0    Cl96369   3.656   7.595  11.376 -0.0380 -0.0050  0.4823
  699MOL0     C96370   2.941   8.470  10.877 -1.0305 -0.8784 -0.0510
  699MOL0     C96371   2.928   8.562  10.777 -0.1304 -1.0040 -1.3894
  699MOL0     O96372   3.032   8.617  10.487 -0.0594 -0.3279 -0.3625
  699MOL0     C96373   2.957   8.807  10.277 -0.6246  0.0297 -0.2759
  699MOL0     C96374   2.946   8.930  10.203 -0.4132  0.2493  0.0838
  699MOL0     N96375   3.374   9.284  10.483  0.4517 -0.6439 -0.0321
  699MOL0     N96376   3.485   9.232  10.517  0.3585  0.5548  0.3313
  699MOL0     C96377   3.811   8.132  10.955  1.3143 -0.2808  0.5763
  699MOL0     C96378   3.828   8.097  11.086  0.4323  0.5431  0.6112
  699MOL0     C96379   3.870   8.140  11.532 -0.1555  0.0358  0.4248
  699MOL0     C96380   4.073   8.179  11.577 -0.1091 -1.0196  0.2214
  699MOL0     C96381   4.133   8.206  11.779  0.7366 -0.3421  0.5076
  699MOL0     C96382   3.991   8.189  11.930 -0.3942  1.2698 -1.4139
  699MOL0     O96383   4.023   8.216  12.062 -0.1638 -0.2848 -1.0758
  699MOL0     C96384   4.155   8.262  12.097  0.3052 -0.9182  1.0180
  699MOL0     C96385   4.193   8.279  12.240  0.4667  1.1582 -0.3058
  699MOL0     C96386   4.088   8.360  12.320 -0.6873  0.5535 -0.2444
  699MOL0     C96387   4.121   8.387  12.465  0.0420  0.5733  0.9415
  699MOL0     C96388   4.174   8.272  12.540 -0.3590 -0.3314 -0.4126
  699MOL0     C96389   4.199   8.164  12.597 -0.3261 -0.0401  0.0056
  699MOL0     C96390   3.787   8.151  11.887 -0.3421  0.4896 -0.3724
  699MOL0     C96391   3.729   8.127  11.689 -0.1031 -0.7228 -0.2829
  699MOL0     C96392   3.584   8.112  11.657  0.7394 -0.0155  1.2774
  699MOL0     H96393   3.999   8.370  11.199 -1.2270  0.6053  0.1767
  699MOL0     H96394   3.937   8.441  10.964 -2.5944 -0.5354 -4.2847
  699MOL0     H96395   3.640   8.341  10.819  0.9422  1.1035  0.9361
  699MOL0     H96396   3.700   8.332  10.651 -0.6164  1.3530 -1.2499
  699MOL0     H96397   3.645   8.549  10.758  0.0276 -0.4198 -2.9300
  699MOL0     H96398   3.809   8.550  10.838  0.8377  1.5624 -1.7123
  699MOL0     H96399   3.890   8.536  10.611 -0.9463 -5.0786  2.6887
  699MOL0     H96400   3.729   8.511  10.543  0.7115 -0.9617 -0.1427
  699MOL0     H96401   3.653   8.725  10.588  0.7208  0.1665  0.8074
  699MOL0     H96402   3.763   8.767  10.711 -1.6904  0.3374  0.8431
  699MOL0     H96403   3.828   8.751  10.409 -2.2638 -2.1474  1.4714
  699MOL0     H96404   3.945   8.755  10.522  1.0356  1.4076 -4.3382
  699MOL0     H96405   3.852   8.964  10.615  1.7146  0.0607 -0.8390
  699MOL0     H96406   3.876   8.990  10.434 -3.4788 -0.0375 -3.0810
  699MOL0     H96407   3.615   8.988  10.569  2.0182  1.8140  1.3872
  699MOL0     H96408   3.631   8.897  10.421  1.9208 -1.5862 -0.1888
  699MOL0     H96409   3.731   9.192  10.455  2.5095 -0.0713 -1.9302
  699MOL0     H96410   3.712   9.106  10.306 -0.2154  1.0514 -0.6621
  699MOL0     H96411   3.435   9.146  10.200  0.4270  0.5000  0.5652
  699MOL0     H96412   3.252   9.381  10.202  1.1759 -1.3981 -0.0282
  699MOL0     H96413   3.175   9.406  10.359 -0.4456 -0.0995 -0.2905
  699MOL0     H96414   3.140   9.152  10.209 -6.2063 -1.2161 -2.3947
  699MOL0     H96415   3.054   9.204  10.352 -0.0043 -0.6400 -1.1807
  699MOL0     H96416   2.942   9.359  10.237 -0.1741 -1.4826  0.8526
  699MOL0     H96417   3.051   9.353  10.089 -1.0960  1.7609  1.0901
  699MOL0     H96418   2.867   9.264  10.018 -1.3800  0.2252  1.5972
  699MOL0     H96419   2.966   9.130  10.026 -0.2201 -1.0127  1.0196
  699MOL0     H96420   2.690   9.042  10.379  0.9195 -0.1674  1.4066
  699MOL0     H96421   2.597   8.777  10.529  1.0564 -1.3225 -0.2720
  699MOL0     H96422   2.639   8.942  10.573  1.4657 -0.2789  1.4816
  699MOL0     H96423   2.729   8.822  10.634  0.3699 -0.9564 -0.5866
  699MOL0     H96424   2.747   8.381  10.562  1.4181 -2.1929 -0.9633
  699MOL0     H96425   2.760   8.214  10.761  2.1091 -2.4457  2.6129
  699MOL0     H96426   3.080   8.207  10.975 -0.3393 -1.6418 -0.3670
  699MOL0     H96427   3.052   8.328  11.105 -0.3810  0.5443 -1.1648
  699MOL0     H96428   2.898   8.171  11.222 -1.3491  1.6142 -0.7779
  699MOL0     H96429   2.947   8.043  11.116 -2.2725  0.7883  1.5288
  699MOL0     H96430   3.088   8.063  11.341  2.7201 -1.1785  0.4644
  699MOL0     H96431   3.170   8.191  11.267  1.9366 -2.5783  5.5846
  699MOL0     H96432   3.231   8.034  11.072 -1.0289 -1.0683 -0.6480
  699MOL0     H96433   3.148   7.904  11.150 -0.1187  0.3795  1.4901
  699MOL0     H96434   3.385   8.033  11.260  0.4264 -1.3391 -2.8421
  699MOL0     H96435   3.273   7.909  11.347 -2.4600 -0.6375 -0.3226
  699MOL0     H96436   3.449   7.878  11.093 -1.6116 -0.4968 -1.6924
  699MOL0     H96437   3.344   7.756  11.158 -0.7601  2.4310  0.0310
  699MOL0     H96438   3.452   7.765  11.366  1.1963 -2.1511 -0.9195
  699MOL0     H96439   3.578   7.880  11.296  0.2650  1.7323 -2.1857
  699MOL0     H96440   3.667   7.731  11.172 -0.9872  0.3480 -0.5595
  699MOL0     H96441   3.538   7.613  11.163 -0.3622  0.5005 -1.3177
  699MOL0     H96442   2.999   8.495  10.966 -2.6282  0.4244  0.6825
  699MOL0     H96443   2.974   8.660  10.781 -0.9910 -0.6228 -0.0628
  699MOL0     H96444   3.039   8.746  10.242  0.7260  1.8289 -0.3787
  699MOL0     H96445   3.007   8.939  10.114  0.7998  0.5176  0.9020
  699MOL0     H96446   3.768   8.055  10.892  0.3709  0.8806 -0.2349
  699MOL0     H96447   3.804   7.998  11.123  0.0418  1.6863  3.7360
  699MOL0     H96448   4.153   8.185  11.503 -0.8212 -1.0841 -0.5628
  699MOL0     H96449   4.237   8.223  11.804 -0.5313  1.7261  5.4390
  699MOL0     H96450   4.231   8.198  12.051  0.7174 -0.8227  1.5640
  699MOL0     H96451   4.165   8.355  12.042 -1.6167 -1.3325 -0.1170
  699MOL0     H96452   4.292   8.324  12.240  0.0752  2.3838 -4.2536
  699MOL0     H96453   4.200   8.183  12.294 -1.6967  1.2473  0.2319
  699MOL0     H96454   4.080   8.450  12.258  2.1166  0.6316 -0.6057
  699MOL0     H96455   3.988   8.316  12.321 -0.2629 -0.4495  1.1652
  699MOL0     H96456   4.040   8.425  12.528 -2.0106 -2.4715  0.3611
  699MOL0     H96457   4.194   8.468  12.467  0.1288  0.4932  0.9755
  699MOL0     H96458   4.221   8.066  12.632 -0.2925 -0.3061 -0.7349
  699MOL0     H96459   3.724   8.153  11.976 -1.3849  2.9865 -1.0951
  699MOL0     H96460   3.568   8.080  11.553  1.1434 -0.5545  1.3763
  699MOL0     H96461   3.532   8.033  11.712 -0.4051  0.2520  0.5953
  699MOL0     H96462   3.525   8.204  11.666  0.3542 -0.2677  1.3625
  700MOL0     O96463   8.653  11.058   7.756  0.5841  0.5972  0.8082
  700MOL0     C96464   8.564  11.140   7.737  0.5958  0.2664  0.0890
  700MOL0     O96465   8.446  11.130   7.799  0.4821  0.4744 -0.1136
  700MOL0     C96466   8.407  11.029   7.883  0.5051  0.0779  0.4636
  700MOL0     C96467   8.291  10.958   7.858  0.6444 -0.3781  0.5065
  700MOL0     C96468   8.245  10.857   7.945 -0.0827 -0.2749 -1.2294
  700MOL0     C96469   8.314  10.839   8.063 -0.1013  0.0703 -0.1530
  700MOL0     O96470   8.278  10.754   8.158 -0.1508  0.0018 -0.0365
  700MOL0     C96471   8.203  10.639   8.116  0.2207 -0.3278  0.6496
  700MOL0     C96472   8.209  10.544   8.239 -0.4716  0.3801 -0.1394
  700MOL0     C96473   8.117  10.426   8.231  0.1303  0.5975  0.8176
  700MOL0     C96474   8.136  10.329   8.348 -0.2833 -0.4426  0.4702
  700MOL0     C96475   8.057  10.194   8.322 -0.6669 -0.0588  0.5494
  700MOL0     C96476   8.128  10.079   8.379  0.0399 -0.0934  0.5849
  700MOL0     C96477   8.038   9.946   8.359 -0.3723 -0.2123  0.2221
  700MOL0     C96478   7.919   9.933   8.460  0.0220 -0.2397  0.4328
  700MOL0     N96479   7.870   9.793   8.467 -0.0387 -0.9281  1.0714
  700MOL0     C96480   7.891   9.715   8.574  0.1508 -0.3344  1.0170
  700MOL0     C96481   7.815   9.602   8.553  0.1603 -0.0063  0.5787
  700MOL0     C96482   7.809   9.488   8.654 -0.4508  0.6892 -0.8211
  700MOL0     C96483   7.684   9.506   8.749  0.2774  0.5219  0.5091
  700MOL0     C96484   7.662   9.649   8.806 -0.0135  0.2294  0.1992
  700MOL0     C96485   7.566   9.734   8.722 -0.4541  0.0648  0.5277
  700MOL0     O96486   7.590   9.872   8.744 -0.7015  0.9289 -0.2978
  700MOL0     C96487   7.546   9.927   8.866  0.1545  0.3318  0.4379
  700MOL0     C96488   7.597  10.054   8.900  0.9254 -0.7310  0.0312
  700MOL0     C96489   7.556  10.133   9.005 -0.1677  0.9255  0.0197
  700MOL0     C96490   7.622  10.261   9.017 -0.2277  0.3681  0.2072
  700MOL0     C96491   7.464  10.067   9.099 -0.2381  0.4034 -1.1388
  700MOL0     C96492   7.427  10.139   9.228 -0.6220  0.4087 -0.3136
  700MOL0     O96493   7.483  10.262   9.256  0.2665  0.2923 -0.2787
  700MOL0     C96494   7.454  10.310   9.377  0.6484 -0.4809 -0.4933
  700MOL0     C96495   7.368  10.418   9.373 -0.1657  0.3528  0.0332
  700MOL0     C96496   7.355  10.503   9.487 -0.2440  0.3244  0.4841
  700MOL0     C96497   7.416  10.469   9.609  0.4548  1.0456  0.0104
  700MOL0     O96498   7.397  10.532   9.731  0.0960  0.1039 -1.0543
  700MOL0     C96499   7.305  10.647   9.752  0.4374  0.7478 -0.4402
  700MOL0     C96500   7.378  10.780   9.756 -0.1652  0.3503 -0.7115
  700MOL0     C96501   7.293  10.887   9.821 -1.0576 -0.1061 -0.4535
  700MOL0     C96502   7.376  11.005   9.878 -0.0437 -0.0629  0.2801
  700MOL0     C96503   7.286  11.122   9.922  0.0718 -0.4787  0.4400
  700MOL0     C96504   7.343  11.219  10.023  0.0165 -0.2361 -0.4688
  700MOL0     C96505   7.479  11.260   9.984  0.9844  0.3880  0.3032
  700MOL0     C96506   7.479  11.327   9.850  0.2940 -0.0200 -0.7347
  700MOL0    Cl96507   7.632  11.419   9.838  0.2059 -0.1548  0.1455
  700MOL0     C96508   7.496  10.353   9.610 -0.2543 -0.0548  0.3416
  700MOL0     C96509   7.519  10.274   9.500  0.4433 -0.1023 -0.0516
  700MOL0     O96510   7.366  10.070   9.304  1.0151 -0.0272  0.6517
  700MOL0     C96511   7.416   9.940   9.063 -0.0222  0.1294 -0.2989
  700MOL0     C96512   7.446   9.870   8.944 -1.0006 -0.8609  0.5857
  700MOL0     N96513   7.746   9.618   8.437 -0.7102 -0.6142 -0.3258
  700MOL0     N96514   7.783   9.733   8.387  0.0803 -0.6382  0.4258
  700MOL0     C96515   8.437  10.900   8.088 -0.5075 -0.0090  0.0553
  700MOL0     C96516   8.479  10.999   7.995  0.1160 -0.2420 -0.4472
  700MOL0     C96517   8.589  11.235   7.628  0.1976  0.4334 -0.5126
  700MOL0     C96518   8.489  11.324   7.589 -0.0921  0.3343 -0.0352
  700MOL0     C96519   8.499  11.412   7.483 -0.0143 -0.4141  0.3109
  700MOL0     C96520   8.606  11.395   7.393 -0.1598 -1.0464 -0.6399
  700MOL0     O96521   8.620  11.469   7.277  0.0997 -0.4017  0.2002
  700MOL0     C96522   8.496  11.520   7.225 -0.7341 -0.6065  0.1339
  700MOL0     C96523   8.513  11.678   7.237 -0.7397  0.2634 -0.0244
  700MOL0     C96524   8.406  11.773   7.177  0.1180 -0.6440  0.8165
  700MOL0     C96525   8.465  11.907   7.127  0.7965  0.1497  0.1598
  700MOL0     C96526   8.361  11.995   7.069 -0.8407  0.7985  0.9061
  700MOL0     C96527   8.265  12.050   7.011 -0.4669  0.3821  0.1870
  700MOL0     C96528   8.713  11.321   7.433  1.4088  0.7556 -0.1164
  700MOL0     C96529   8.707  11.236   7.544  0.0279  0.2254  0.1034
  700MOL0     C96530   8.817  11.148   7.561 -0.4269  0.5151  0.5223
  700MOL0     H96531   8.232  10.983   7.771  0.6650 -1.9286  0.0177
  700MOL0     H96532   8.158  10.802   7.912 -1.4663 -0.0369  1.7172
  700MOL0     H96533   8.249  10.598   8.025 -1.9675  0.2515 -0.8174
  700MOL0     H96534   8.098  10.655   8.088  0.0985 -4.0361 -1.7217
  700MOL0     H96535   8.312  10.508   8.251 -0.1146  1.6282  0.7909
  700MOL0     H96536   8.173  10.592   8.331 -4.8169 -0.5767 -1.1490
  700MOL0     H96537   8.010  10.448   8.225  0.1454  0.5148  0.0523
  700MOL0     H96538   8.149  10.377   8.138 -1.3566  2.1070 -0.5611
  700MOL0     H96539   8.243  10.304   8.345 -0.7557 -2.6412 -0.6040
  700MOL0     H96540   8.116  10.369   8.448 -0.2161 -3.3931  1.7868
  700MOL0     H96541   8.046  10.173   8.215  0.0693 -0.4710  0.5427
  700MOL0     H96542   7.956  10.197   8.362 -1.7728 -0.2542 -2.0266
  700MOL0     H96543   8.223  10.076   8.325 -0.5984 -1.1858 -0.5137
  700MOL0     H96544   8.150  10.101   8.484 -0.0336  0.7116  0.4386
  700MOL0     H96545   8.102   9.858   8.364 -0.9185 -0.7205 -1.1436
  700MOL0     H96546   7.977   9.951   8.268 -1.0208  6.3477  0.5367
  700MOL0     H96547   7.945   9.964   8.562  1.7450  2.7759 -0.7772
  700MOL0     H96548   7.841  10.003   8.430  2.3287  0.7876 -4.1276
  700MOL0     H96549   7.943   9.752   8.662  0.4234  2.8319 -0.3307
  700MOL0     H96550   7.899   9.504   8.713  0.9057 -0.7002 -2.4119
  700MOL0     H96551   7.815   9.387   8.612 -0.8745 -1.6808  4.1145
  700MOL0     H96552   7.595   9.492   8.687  1.0003 -0.4687 -0.3558
  700MOL0     H96553   7.689   9.434   8.831 -1.2946  0.7254  0.8107
  700MOL0     H96554   7.603   9.638   8.898 -2.0910  2.5158 -0.7350
  700MOL0     H96555   7.753   9.708   8.818  0.7523 -0.6183 -1.2565
  700MOL0     H96556   7.575   9.715   8.615 -0.5354  0.4286  0.4573
  700MOL0     H96557   7.466   9.698   8.748 -0.2845  1.5467  3.6843
  700MOL0     H96558   7.661  10.098   8.824 -0.3339 -2.0389 -1.8890
  700MOL0     H96559   7.689  10.285   8.933 -0.0074  0.3375  0.3747
  700MOL0     H96560   7.679  10.264   9.110  0.4522  0.1365 -0.1903
  700MOL0     H96561   7.537  10.330   9.026 -1.5019 -1.1306 -0.0023
  700MOL0     H96562   7.321  10.453   9.282 -3.7726 -1.6156  0.9356
  700MOL0     H96563   7.293  10.590   9.469 -0.5049 -0.1308 -0.9660
  700MOL0     H96564   7.226  10.637   9.677  0.8498  1.4575 -0.9772
  700MOL0     H96565   7.254  10.647   9.849  1.4398  0.1811  0.1081
  700MOL0     H96566   7.465  10.763   9.821 -1.3954  2.8106  1.8215
  700MOL0     H96567   7.405  10.800   9.652 -2.8506  2.1848 -1.1527
  700MOL0     H96568   7.242  10.846   9.909  0.5566  0.3037  0.7307
  700MOL0     H96569   7.221  10.926   9.749 -0.9015  0.0666 -0.5144
  700MOL0     H96570   7.461  11.029   9.814 -0.3283  1.5919  0.4714
  700MOL0     H96571   7.422  10.972   9.971  1.5487 -1.1099 -0.8470
  700MOL0     H96572   7.265  11.184   9.834 -1.7111 -0.9027  0.5337
  700MOL0     H96573   7.186  11.091   9.954 -0.7121  0.3336 -1.0734
  700MOL0     H96574   7.351  11.170  10.121 -3.2752  1.9932  1.0932
  700MOL0     H96575   7.277  11.305  10.036 -1.2396 -1.3030  0.4757
  700MOL0     H96576   7.540  11.170   9.974  2.4386  1.3692  0.0600
  700MOL0     H96577   7.508  11.325  10.067  0.5874  1.5729 -0.4547
  700MOL0     H96578   7.405  11.407   9.850  1.3081  0.9407 -0.4315
  700MOL0     H96579   7.470  11.269   9.757 -0.1047  0.9051 -1.2968
  700MOL0     H96580   7.564  10.333   9.692 -0.9607 -3.2195  0.2786
  700MOL0     H96581   7.585  10.188   9.501  0.7717  0.1294 -0.8827
  700MOL0     H96582   7.356   9.893   9.141 -0.4906 -2.3396 -2.0297
  700MOL0     H96583   7.393   9.780   8.916 -0.5770 -0.4195 -1.9144
  700MOL0     H96584   8.496  10.865   8.173  0.6185  0.2564 -0.5940
  700MOL0     H96585   8.574  11.042   8.025 -0.2544 -0.0848  0.5348
  700MOL0     H96586   8.396  11.332   7.644 -0.7773  1.7763 -1.3454
  700MOL0     H96587   8.421  11.487   7.482 -0.0012 -0.3951  0.6316
  700MOL0     H96588   8.488  11.499   7.118 -1.4009 -2.4172  0.5190
  700MOL0     H96589   8.399  11.488   7.264 -0.4031 -2.6204 -0.5657
  700MOL0     H96590   8.608  11.696   7.186 -0.9998 -0.8165 -0.9274
  700MOL0     H96591   8.538  11.697   7.341  2.1428 -1.3296 -0.3421
  700MOL0     H96592   8.353  11.727   7.093 -0.3048 -0.2493  0.8640
  700MOL0     H96593   8.331  11.806   7.249 -1.4026 -0.0240 -0.9606
  700MOL0     H96594   8.541  11.878   7.053 -1.1148 -0.7406 -1.5671
  700MOL0     H96595   8.513  11.967   7.205  0.3674 -0.6868  1.0799
  700MOL0     H96596   8.167  12.077   6.978 -0.1514  1.1025 -0.1911
  700MOL0     H96597   8.807  11.319   7.378  2.0092 -0.2546  0.8929
  700MOL0     H96598   8.847  11.155   7.666 -1.4205  0.4118  0.8187
  700MOL0     H96599   8.789  11.047   7.529 -3.6493  1.8598 -1.3841
  700MOL0     H96600   8.894  11.184   7.491 -4.5798  1.8989 -3.8500
  701MOL0     O96601   9.742   1.696  10.030 -0.2435  0.0489  0.6649
  701MOL0     C96602   9.723   1.632   9.927 -0.4171 -0.7522 -0.5782
  701MOL0     O96603   9.805   1.632   9.825  0.5064 -0.3193  0.9888
  701MOL0     C96604   9.898   1.731   9.822 -1.4219 -0.9859 -0.9088
  701MOL0     C96605  10.018   1.718   9.894  0.1573 -1.0023 -0.4992
  701MOL0     C96606  10.106   1.819   9.899  0.3770 -0.4007 -0.9592
  701MOL0     C96607  10.093   1.937   9.833 -0.5589 -0.2758 -0.5616
  701MOL0     O96608  10.190   2.032   9.840  0.0312 -0.2770 -0.1668
  701MOL0     C96609  10.318   1.998   9.783  0.2624 -0.6744  0.3936
  701MOL0     C96610  10.313   2.029   9.634 -0.3295 -0.7431 -0.1883
  701MOL0     C96611  10.329   2.177   9.615  0.0240 -0.1878  0.2222
  701MOL0     C96612  10.346   2.213   9.466  1.0954 -0.3540 -0.0504
  701MOL0     C96613  10.302   2.361   9.446  0.3596 -0.7571 -0.3629
  701MOL0     C96614  10.302   2.431   9.301  0.3415 -0.2895  1.0350
  701MOL0     C96615  10.199   2.357   9.210  0.2400  0.0566  0.2462
  701MOL0     C96616  10.176   2.415   9.071 -0.4633  0.1049  0.5898
  701MOL0     N96617  10.299   2.413   8.994 -0.3464  0.5728 -0.4018
  701MOL0     C96618  10.343   2.521   8.911 -0.0277 -0.8173  0.1780
  701MOL0     C96619  10.471   2.489   8.884 -0.6767  0.3114  0.5165
  701MOL0     C96620  10.588   2.573   8.811  0.0507  0.9697 -0.2138
  701MOL0     C96621  10.676   2.672   8.879 -0.2637  0.5433 -0.3570
  701MOL0     C96622  10.764   2.609   8.991 -0.6964  0.5372  0.2027
  701MOL0     C96623  10.875   2.504   8.943  0.3808  0.8363  0.0752
  701MOL0     O96624  10.988   2.581   8.881  0.3904  1.8023 -0.7814
  701MOL0     C96625  11.116   2.549   8.907 -0.1134 -0.2249 -0.6255
  701MOL0     C96626  11.211   2.640   8.865  0.2228  0.0791  0.0187
  701MOL0     C96627  11.350   2.631   8.890  1.0276 -0.5284  0.4630
  701MOL0     C96628  11.434   2.744   8.837 -0.3386  0.3772 -0.1643
  701MOL0     C96629  11.399   2.531   8.981  0.4092  0.1205  0.9331
  701MOL0     C96630  11.542   2.514   9.014  0.9900  0.1400 -0.4552
  701MOL0     O96631  11.599   2.394   9.026 -0.4187 -0.2957  0.0323
  701MOL0     C96632  11.723   2.378   9.082  0.2130 -0.0443  0.5010
  701MOL0     C96633  11.740   2.291   9.182 -0.1047  0.2841 -0.0139
  701MOL0     C96634  11.861   2.278   9.244 -0.8214  0.1696  0.2447
  701MOL0     C96635  11.975   2.354   9.201 -0.7302  1.1145 -0.2487
  701MOL0     O96636  12.087   2.337   9.273  0.5084  0.6103 -0.2767
  701MOL0     C96637  12.181   2.242   9.208 -0.1836  0.8694  0.5181
  701MOL0     C96638  12.306   2.217   9.291  0.3714  0.3555  0.5179
  701MOL0     C96639  12.389   2.103   9.235 -0.0879 -0.7870  0.9127
  701MOL0     C96640  12.530   2.096   9.291  0.2574  0.5124  0.3308
  701MOL0     C96641  12.601   1.971   9.208  0.4067  0.1805  0.1732
  701MOL0     C96642  12.717   1.912   9.278 -0.4269 -0.2315 -0.1367
  701MOL0     C96643  12.690   1.835   9.403 -0.1356  0.2638 -0.3436
  701MOL0     C96644  12.780   1.716   9.424  0.3292 -1.4181  0.4059
  701MOL0    Cl96645  12.734   1.585   9.299  0.1552 -0.0509 -0.1981
  701MOL0     C96646  11.957   2.449   9.098 -0.8997  0.2689  0.7270
  701MOL0     C96647  11.833   2.456   9.038 -0.0213  0.4000  0.5226
  701MOL0     O96648  11.598   2.623   9.031 -0.4134  0.2022 -0.2822
  701MOL0     C96649  11.304   2.427   9.012 -0.3941 -0.1078  0.3921
  701MOL0     C96650  11.168   2.435   8.967  0.1281 -0.0141  0.4539
  701MOL0     N96651  10.488   2.355   8.919  0.4518  0.1925  0.5687
  701MOL0     N96652  10.386   2.312   8.983 -0.5531 -0.3863 -0.2040
  701MOL0     C96653   9.979   1.960   9.764  0.9901 -0.4329 -0.2977
  701MOL0     C96654   9.876   1.854   9.761 -0.2044 -0.9657  0.0934
  701MOL0     C96655   9.619   1.542   9.928  0.8649 -0.3031  0.1795
  701MOL0     C96656   9.602   1.460  10.038  0.4012  0.7219  0.1106
  701MOL0     C96657   9.515   1.354  10.030  0.1458 -0.0395 -0.0696
  701MOL0     C96658   9.438   1.316   9.919 -0.4161 -0.3416 -0.6033
  701MOL0     O96659   9.366   1.193   9.930 -0.2520  0.2270  0.3291
  701MOL0     C96660   9.316   1.148   9.798  0.6242  0.2419  0.2035
  701MOL0     C96661   9.442   1.096   9.715 -0.0324  0.2518 -0.5603
  701MOL0     C96662   9.502   0.971   9.787  0.2072  0.2169 -0.6658
  701MOL0     C96663   9.425   0.839   9.779  0.4912 -0.3757  0.1788
  701MOL0     C96664   9.505   0.731   9.845 -0.5005 -1.5779  0.2756
  701MOL0     C96665   9.583   0.663   9.905  0.3477  0.4208  1.1042
  701MOL0     C96666   9.453   1.407   9.807 -0.0529 -0.3298 -0.7571
  701MOL0     C96667   9.543   1.517   9.810 -0.2972 -0.3383  0.7171
  701MOL0     C96668   9.559   1.598   9.679  0.0362  0.5064  0.0202
  701MOL0     H96669  10.043   1.631   9.953  1.4141  1.7280  3.4677
  701MOL0     H96670  10.190   1.798   9.964 -0.9913 -0.8011  0.7688
  701MOL0     H96671  10.346   1.895   9.807  3.3305 -0.5497 -2.0938
  701MOL0     H96672  10.389   2.065   9.832  2.6316 -0.5079 -2.9592
  701MOL0     H96673  10.391   1.978   9.576 -1.4065 -1.6380 -0.9012
  701MOL0     H96674  10.216   1.994   9.599 -1.3018 -0.9492  2.5511
  701MOL0     H96675  10.238   2.229   9.647 -1.6352 -0.6732 -3.1832
  701MOL0     H96676  10.408   2.216   9.679 -0.6634 -1.7431  2.1084
  701MOL0     H96677  10.454   2.202   9.450  1.1179 -2.7797  1.1970
  701MOL0     H96678  10.299   2.136   9.404  0.7019 -0.8648  0.8570
  701MOL0     H96679  10.369   2.430   9.500 -1.8384  3.3755 -2.4475
  701MOL0     H96680  10.199   2.381   9.474  0.3878  0.0051 -0.7760
  701MOL0     H96681  10.295   2.539   9.313 -0.6671 -0.2227 -0.0013
  701MOL0     H96682  10.405   2.410   9.269  1.0435  2.7254  1.0118
  701MOL0     H96683  10.102   2.363   9.260 -0.1584  0.2911 -0.5313
  701MOL0     H96684  10.229   2.253   9.196 -2.2704 -0.7785  0.4663
  701MOL0     H96685  10.110   2.343   9.021  2.4248 -0.3227 -3.0426
  701MOL0     H96686  10.142   2.516   9.094  3.3630  1.6855 -0.0174
  701MOL0     H96687  10.293   2.615   8.889 -1.1961 -1.6563 -0.8794
  701MOL0     H96688  10.524   2.640   8.753 -1.3632 -0.0512  0.1312
  701MOL0     H96689  10.643   2.507   8.743 -0.3649  0.7036 -0.2929
  701MOL0     H96690  10.752   2.718   8.815  1.3911  1.0790  1.9051
  701MOL0     H96691  10.612   2.749   8.923 -2.0934 -0.1880 -1.5933
  701MOL0     H96692  10.805   2.697   9.040 -3.0859  2.1116 -0.4615
  701MOL0     H96693  10.696   2.557   9.059 -1.4277  2.9231  1.3842
  701MOL0     H96694  10.908   2.442   9.027 -0.8526  2.5595  1.9290
  701MOL0     H96695  10.825   2.443   8.867 -2.7693 -0.3811  2.8771
  701MOL0     H96696  11.158   2.716   8.809 -2.0262 -0.3819  1.3908
  701MOL0     H96697  11.436   2.819   8.917  4.0392  1.3321 -0.9136
  701MOL0     H96698  11.387   2.777   8.744 -1.2990 -0.2196  0.0952
  701MOL0     H96699  11.537   2.713   8.815  0.9295  3.0578  1.4270
  701MOL0     H96700  11.651   2.241   9.218 -0.3819  1.6284  1.2334
  701MOL0     H96701  11.862   2.219   9.336 -0.9490 -0.8185 -0.3798
  701MOL0     H96702  12.118   2.154   9.194  1.4075 -0.2597  0.2237
  701MOL0     H96703  12.204   2.276   9.107  0.0605 -2.3075 -0.5984
  701MOL0     H96704  12.360   2.311   9.275 -0.7998  0.7168 -1.7742
  701MOL0     H96705  12.288   2.209   9.399  2.9721  0.9348  1.0633
  701MOL0     H96706  12.398   2.124   9.128  1.1075 -3.0851  0.5056
  701MOL0     H96707  12.335   2.009   9.247 -2.9884  0.8390  1.7942
  701MOL0     H96708  12.521   2.091   9.400  0.9663  3.5322  0.6187
  701MOL0     H96709  12.578   2.193   9.281 -0.4571  0.8926  0.5277
  701MOL0     H96710  12.549   1.876   9.199  2.6100 -0.9086 -2.1532
  701MOL0     H96711  12.622   2.007   9.107  0.3924  0.3528  0.2312
  701MOL0     H96712  12.793   1.990   9.283 -0.0736 -0.6181  0.7504
  701MOL0     H96713  12.757   1.851   9.195  0.7528  3.3008 -2.4074
  701MOL0     H96714  12.591   1.788   9.397  0.2507 -0.6316  0.0710
  701MOL0     H96715  12.692   1.901   9.489 -0.9853  0.6409 -0.5982
  701MOL0     H96716  12.747   1.684   9.524 -1.5857 -2.4435 -0.5014
  701MOL0     H96717  12.886   1.742   9.426  0.2920 -1.2286 -0.0660
  701MOL0     H96718  12.036   2.517   9.070  0.9345 -1.7974  0.6503
  701MOL0     H96719  11.826   2.532   8.960 -0.2574 -3.0654 -3.1533
  701MOL0     H96720  11.345   2.339   9.061  0.3215 -1.0406 -1.7801
  701MOL0     H96721  11.103   2.359   9.008 -1.6062  0.9795 -0.3693
  701MOL0     H96722   9.976   2.039   9.689  0.1237 -1.0944 -0.9849
  701MOL0     H96723   9.800   1.867   9.685  2.5167  0.9907 -2.5348
  701MOL0     H96724   9.678   1.466  10.116  1.5479 -0.0605 -0.9058
  701MOL0     H96725   9.522   1.285  10.114  1.8082  1.8235  1.4243
  701MOL0     H96726   9.246   1.065   9.814  0.4812  0.5748  1.4245
  701MOL0     H96727   9.256   1.223   9.747  1.2305 -0.5763 -1.8224
  701MOL0     H96728   9.516   1.176   9.702  1.8898 -0.6083  3.4634
  701MOL0     H96729   9.394   1.068   9.621 -2.3692  2.3049 -0.0850
  701MOL0     H96730   9.606   0.956   9.756  0.7500 -0.1101  1.2018
  701MOL0     H96731   9.515   0.998   9.892 -1.0656 -1.2934 -0.0644
  701MOL0     H96732   9.399   0.817   9.675 -1.4259 -1.7914  0.8977
  701MOL0     H96733   9.331   0.841   9.835  0.2157 -0.4360 -0.2770
  701MOL0     H96734   9.649   0.583   9.935  1.0049  0.0430 -1.1909
  701MOL0     H96735   9.414   1.366   9.716 -2.2796  0.7494 -0.3522
  701MOL0     H96736   9.608   1.692   9.703  1.7745 -1.0148  3.0646
  701MOL0     H96737   9.624   1.538   9.615 -1.2428  0.3123 -1.1482
  701MOL0     H96738   9.463   1.624   9.633  0.5858  4.7988  0.9294
  702MOL0     O96739   7.454  10.268   5.224  0.1000  0.4955 -0.4495
  702MOL0     C96740   7.415  10.280   5.343  0.5616  0.0989 -0.8400
  702MOL0     O96741   7.335  10.190   5.413 -0.4088 -0.3441 -0.3876
  702MOL0     C96742   7.308  10.064   5.375  0.0666 -0.0317 -0.3169
  702MOL0     C96743   7.415   9.989   5.327 -0.8780 -0.2207 -0.5126
  702MOL0     C96744   7.384   9.854   5.294  0.4122 -0.0037  0.5337
  702MOL0     C96745   7.260   9.798   5.302 -0.2701  0.1022 -0.2568
  702MOL0     O96746   7.249   9.664   5.268 -0.9656 -1.0118  0.0950
  702MOL0     C96747   7.127   9.628   5.191 -0.8133  0.3760 -0.1125
  702MOL0     C96748   7.113   9.477   5.221  0.1608 -0.3770  0.7020
  702MOL0     C96749   7.249   9.391   5.198  0.4197 -0.1100  0.4015
  702MOL0     C96750   7.294   9.399   5.051  0.7559 -0.3388 -0.1318
  702MOL0     C96751   7.400   9.305   5.008 -0.8380 -0.4287 -0.4264
  702MOL0     C96752   7.480   9.369   4.888 -0.6018  0.1439  0.7234
  702MOL0     C96753   7.608   9.289   4.869 -0.3276 -0.1430 -0.1345
  702MOL0     C96754   7.680   9.359   4.744 -0.8086 -0.3743  0.2130
  702MOL0     N96755   7.611   9.368   4.617 -0.0436 -0.2551  0.5093
  702MOL0     C96756   7.576   9.259   4.539 -1.2893 -0.3535  0.2978
  702MOL0     C96757   7.503   9.315   4.439 -0.4196 -0.0736  0.6591
  702MOL0     C96758   7.434   9.241   4.332 -0.5145 -0.6378  0.1795
  702MOL0     C96759   7.554   9.176   4.237 -0.4184 -0.2601 -0.5421
  702MOL0     C96760   7.626   9.284   4.152 -0.1313  0.9692 -0.7496
  702MOL0     C96761   7.749   9.219   4.088  0.3399 -0.4595 -0.3660
  702MOL0     O96762   7.850   9.166   4.175 -0.8733  0.2964  0.3250
  702MOL0     C96763   7.958   9.245   4.218  1.1113  0.7504 -0.7469
  702MOL0     C96764   7.951   9.377   4.223  0.2529 -0.3314  0.4692
  702MOL0     C96765   8.036   9.461   4.288 -0.0719  0.4612 -0.5950
  702MOL0     C96766   7.990   9.607   4.330 -0.8727  0.9943 -0.2267
  702MOL0     C96767   8.147   9.404   4.337 -0.9009 -0.1544  0.8882
  702MOL0     C96768   8.251   9.489   4.408 -0.5470  0.1433 -0.8947
  702MOL0     O96769   8.367   9.501   4.349 -0.6124 -0.1212 -0.8751
  702MOL0     C96770   8.430   9.626   4.361  0.7560  0.6937  0.4697
  702MOL0     C96771   8.380   9.727   4.277  0.0486  0.0287  0.7798
  702MOL0     C96772   8.431   9.856   4.281 -0.3674  0.4138  0.2889
  702MOL0     C96773   8.539   9.892   4.358 -0.0846  0.6343 -0.3863
  702MOL0     O96774   8.577  10.018   4.339 -0.9038 -1.0026  0.7570
  702MOL0     C96775   8.690  10.069   4.414  0.5334  0.7162  1.0485
  702MOL0     C96776   8.710  10.217   4.396  0.6721 -0.0699 -0.2764
  702MOL0     C96777   8.703  10.268   4.250  0.5397  0.0782 -0.1782
  702MOL0     C96778   8.747  10.414   4.260  0.1745  0.1596 -0.1525
  702MOL0     C96779   8.764  10.477   4.120  0.2570 -1.1131  0.3032
  702MOL0     C96780   8.869  10.405   4.033 -0.2327 -0.9524 -0.4689
  702MOL0     C96781   8.915  10.486   3.916 -0.6351 -0.3412  0.4720
  702MOL0     C96782   8.994  10.403   3.813  0.7112 -0.2349  1.2157
  702MOL0    Cl96783   8.888  10.278   3.736  0.0796  0.1784  0.2665
  702MOL0     C96784   8.597   9.786   4.441  0.4417 -0.5966 -1.2506
  702MOL0     C96785   8.543   9.654   4.444  0.1999 -0.1417  0.9948
  702MOL0     O96786   8.222   9.547   4.516  0.3022 -0.0588 -0.1040
  702MOL0     C96787   8.167   9.264   4.335 -1.1770 -0.3425 -0.6412
  702MOL0     C96788   8.077   9.181   4.278  0.0732 -0.4775 -0.6346
  702MOL0     N96789   7.515   9.454   4.447  0.0001 -0.2514  0.1454
  702MOL0     N96790   7.591   9.486   4.548  0.5946 -0.2212  0.2695
  702MOL0     C96791   7.160   9.873   5.367 -0.1170 -1.0782  0.8329
  702MOL0     C96792   7.184  10.009   5.398 -0.0119 -0.9214  0.6128
  702MOL0     C96793   7.449  10.408   5.404 -0.7327  0.6971 -0.4805
  702MOL0     C96794   7.362  10.462   5.495 -0.2758 -0.1441 -0.0584
  702MOL0     C96795   7.392  10.588   5.551 -0.1094  0.4540 -0.2849
  702MOL0     C96796   7.500  10.659   5.511 -0.3665 -0.4507 -0.7838
  702MOL0     O96797   7.539  10.779   5.572  0.6528  0.3766 -0.4093
  702MOL0     C96798   7.466  10.898   5.524 -0.0440  0.8906 -0.7201
  702MOL0     C96799   7.314  10.897   5.547  1.1796 -1.1679  1.0001
  702MOL0     C96800   7.283  10.895   5.695  0.0738  0.1421 -0.2820
  702MOL0     C96801   7.135  10.848   5.717 -0.6444 -0.7508  0.1530
  702MOL0     C96802   7.096  10.875   5.857 -0.0001  0.3305  0.1860
  702MOL0     C96803   7.064  10.894   5.972 -0.1745 -0.3897 -0.1677
  702MOL0     C96804   7.592  10.595   5.430  0.7271 -0.2824  0.0925
  702MOL0     C96805   7.572  10.476   5.368  0.5408  0.3466 -0.4503
  702MOL0     C96806   7.688  10.427   5.287  0.6355  0.0633 -0.4128
  702MOL0     H96807   7.514  10.030   5.310 -1.1093  0.2696 -0.6985
  702MOL0     H96808   7.457   9.789   5.246  0.1076  1.0528 -1.4449
  702MOL0     H96809   7.139   9.657   5.086 -1.1604  2.6908  0.4218
  702MOL0     H96810   7.040   9.688   5.219 -1.1063 -0.2280  0.2825
  702MOL0     H96811   7.081   9.466   5.325  0.4081  0.5466  0.8775
  702MOL0     H96812   7.039   9.429   5.156 -0.7236  3.7651 -1.7082
  702MOL0     H96813   7.327   9.414   5.272 -0.7227 -1.3547  2.0679
  702MOL0     H96814   7.225   9.285   5.210  2.1106 -1.6490 -6.0277
  702MOL0     H96815   7.216   9.390   4.975  0.4031  3.8014 -0.4997
  702MOL0     H96816   7.324   9.503   5.036 -1.5780  0.2362 -1.2039
  702MOL0     H96817   7.365   9.208   4.971  0.8709 -1.4861  0.5948
  702MOL0     H96818   7.468   9.279   5.089 -0.3994 -3.4792 -1.6230
  702MOL0     H96819   7.424   9.360   4.794 -1.8653 -0.3237  1.5000
  702MOL0     H96820   7.497   9.473   4.917 -2.1754 -0.2275  3.3089
  702MOL0     H96821   7.578   9.187   4.844 -1.3539  0.8916 -3.5562
  702MOL0     H96822   7.672   9.285   4.959 -0.1756  0.1835 -0.2241
  702MOL0     H96823   7.696   9.460   4.781 -1.4054 -0.1440 -0.1422
  702MOL0     H96824   7.778   9.319   4.716 -0.1451  1.7242 -0.6724
  702MOL0     H96825   7.590   9.153   4.557 -2.3926 -0.1868  2.4504
  702MOL0     H96826   7.371   9.307   4.272 -0.3644 -0.7383 -0.0970
  702MOL0     H96827   7.369   9.160   4.366 -0.3943 -0.7634  0.1109
  702MOL0     H96828   7.626   9.129   4.305  0.9988  0.6582 -1.3535
  702MOL0     H96829   7.532   9.095   4.167 -0.8789  0.0344 -0.7431
  702MOL0     H96830   7.564   9.320   4.069 -0.2497 -0.5267 -1.3476
  702MOL0     H96831   7.653   9.372   4.211  1.4044 -0.7651  1.2840
  702MOL0     H96832   7.716   9.134   4.028 -1.0834  0.8534 -1.5146
  702MOL0     H96833   7.801   9.283   4.016  1.7869  0.2470  1.2419
  702MOL0     H96834   7.863   9.425   4.180  2.3772  2.5573 -0.9568
  702MOL0     H96835   7.886   9.623   4.301 -1.5884 -1.8047  0.4951
  702MOL0     H96836   8.058   9.674   4.276  0.4881 -1.7285 -2.1372
  702MOL0     H96837   7.989   9.613   4.439  0.9123 -0.3492 -0.0831
  702MOL0     H96838   8.294   9.700   4.216  0.0424  1.2266  0.2375
  702MOL0     H96839   8.390   9.932   4.216 -1.0597 -0.2211 -0.0280
  702MOL0     H96840   8.678  10.045   4.520  1.5895  0.7078  1.1792
  702MOL0     H96841   8.781  10.017   4.385 -0.6352 -0.7910 -0.0800
  702MOL0     H96842   8.642  10.278   4.456  0.5157 -0.3020 -0.2184
  702MOL0     H96843   8.814  10.240   4.419 -0.3631  2.5042  2.4793
  702MOL0     H96844   8.601  10.265   4.211 -0.5325 -0.6276  2.4776
  702MOL0     H96845   8.778  10.216   4.189  2.6268  0.1709  2.1306
  702MOL0     H96846   8.846  10.413   4.307 -0.5665 -1.1965  1.4891
  702MOL0     H96847   8.667  10.452   4.324 -1.2051 -4.2017  1.0006
  702MOL0     H96848   8.664  10.467   4.077 -0.9190  0.1741  2.5402
  702MOL0     H96849   8.787  10.577   4.158  1.8162 -2.2477  2.6247
  702MOL0     H96850   8.829  10.314   3.987 -2.1946  0.0904 -0.9060
  702MOL0     H96851   8.959  10.378   4.089  0.0754 -3.3373 -1.9877
  702MOL0     H96852   8.973  10.565   3.964  0.4072 -0.9819  0.3085
  702MOL0     H96853   8.832  10.534   3.864  1.2832 -0.1396 -2.6476
  702MOL0     H96854   9.073  10.354   3.870 -1.8147 -2.8261  2.7597
  702MOL0     H96855   9.042  10.469   3.739  0.3264 -1.6868 -0.3810
  702MOL0     H96856   8.683   9.797   4.506 -0.2070 -0.6935 -0.3627
  702MOL0     H96857   8.586   9.578   4.510 -0.2474 -0.2157  1.2054
  702MOL0     H96858   8.253   9.207   4.371  0.5054  0.3699 -3.2561
  702MOL0     H96859   8.093   9.075   4.296 -0.1739 -0.3159  0.5886
  702MOL0     H96860   7.069   9.820   5.393  0.6181 -2.3252  0.9896
  702MOL0     H96861   7.102  10.068   5.437  0.0909 -0.1535 -0.2929
  702MOL0     H96862   7.269  10.409   5.515  0.1674 -1.3603 -1.1319
  702MOL0     H96863   7.309  10.631   5.605 -0.7635 -2.3226  1.1329
  702MOL0     H96864   7.507  10.985   5.576 -1.9375  1.2492  0.2533
  702MOL0     H96865   7.492  10.907   5.418 -0.1342 -1.2054 -0.9583
  702MOL0     H96866   7.262  10.817   5.493 -3.1688  1.5671  0.6698
  702MOL0     H96867   7.286  10.991   5.500 -2.1475 -3.0963 -1.2701
  702MOL0     H96868   7.356  10.842   5.758 -1.3644 -1.3533  0.2039
  702MOL0     H96869   7.280  10.998   5.733 -1.6395 -0.3401  1.0145
  702MOL0     H96870   7.122  10.741   5.697  0.8885 -1.0203  0.4244
  702MOL0     H96871   7.069  10.906   5.653  1.4208  3.3331  1.3659
  702MOL0     H96872   7.044  10.931   6.071  2.5492 -1.3523  0.8369
  702MOL0     H96873   7.685  10.647   5.409 -0.6044  2.9504  1.5560
  702MOL0     H96874   7.777  10.452   5.346  1.1851  0.0326 -1.2268
  702MOL0     H96875   7.669  10.322   5.266 -0.4378  0.0964  0.3030
  702MOL0     H96876   7.704  10.478   5.192  2.4941  2.0795  0.8583
  703MOL0     O96877   5.246   2.245   2.089  0.7851  0.2736 -0.5102
  703MOL0     C96878   5.352   2.257   2.021  0.3013 -0.1275 -0.9305
  703MOL0     O96879   5.439   2.352   2.049 -0.2602  0.0955 -0.2166
  703MOL0     C96880   5.394   2.451   2.137 -0.0368 -0.2628  0.5967
  703MOL0     C96881   5.353   2.570   2.089 -0.2543  0.5626  0.6183
  703MOL0     C96882   5.305   2.678   2.168  0.3924  0.0547  0.5402
  703MOL0     C96883   5.283   2.644   2.307 -0.3598  0.4517  0.3694
  703MOL0     O96884   5.224   2.730   2.392 -0.4593  0.4069 -0.5141
  703MOL0     C96885   5.144   2.836   2.339 -0.1471  0.0456  0.0569
  703MOL0     C96886   5.046   2.882   2.443  0.6462 -0.4816 -0.3248
  703MOL0     C96887   4.924   2.963   2.387 -0.2120 -0.2074  0.0696
  703MOL0     C96888   4.963   3.105   2.352  0.7754 -0.5793 -0.3695
  703MOL0     C96889   4.856   3.205   2.344  1.0270  0.3393  0.0802
  703MOL0     C96890   4.818   3.260   2.478 -0.0524 -0.4517  0.1402
  703MOL0     C96891   4.692   3.348   2.484 -0.3479 -0.2605  0.7789
  703MOL0     C96892   4.705   3.440   2.602 -0.5395  1.0799 -0.7683
  703MOL0     N96893   4.573   3.512   2.614  0.5837 -0.6360  0.4062
  703MOL0     C96894   4.499   3.524   2.725  0.0284  0.1816  0.4007
  703MOL0     C96895   4.382   3.573   2.678 -1.3796  0.7113  0.2855
  703MOL0     C96896   4.257   3.588   2.761  0.3020  0.1306  0.1447
  703MOL0     C96897   4.210   3.736   2.767 -0.5518 -0.4657 -0.2062
  703MOL0     C96898   4.076   3.756   2.834  1.3500  0.4018  0.5912
  703MOL0     C96899   4.004   3.892   2.798 -0.8945  0.0674 -0.0140
  703MOL0     O96900   4.097   3.993   2.842  0.0854  0.5167 -0.7598
  703MOL0     C96901   4.077   4.126   2.798  0.4743  0.1964  0.2703
  703MOL0     C96902   3.975   4.177   2.715  0.2825 -0.0410 -0.0094
  703MOL0     C96903   3.973   4.318   2.677  1.2568 -0.2785  0.3885
  703MOL0     C96904   3.853   4.359   2.592 -0.2415  0.5278 -0.3220
  703MOL0     C96905   4.079   4.400   2.715  0.2569 -0.6370  0.2376
  703MOL0     C96906   4.077   4.547   2.693  0.1063 -0.6872  0.1116
  703MOL0     O96907   4.201   4.606   2.686  0.6732 -0.1835 -0.6081
  703MOL0     C96908   4.211   4.741   2.673 -0.4645  0.4794 -1.5802
  703MOL0     C96909   4.140   4.843   2.725  1.1379  1.0312  0.1400
  703MOL0     C96910   4.159   4.975   2.695 -0.2138 -0.2108  0.3839
  703MOL0     C96911   4.265   5.009   2.606 -0.8209  0.0133  0.5420
  703MOL0     O96912   4.294   5.144   2.571 -0.0239  0.0236 -0.0920
  703MOL0     C96913   4.194   5.244   2.586 -0.3274 -0.6652 -1.0439
  703MOL0     C96914   4.227   5.362   2.485  0.0828  0.5538 -0.1629
  703MOL0     C96915   4.104   5.454   2.453 -0.6333 -0.1027  0.3165
  703MOL0     C96916   4.155   5.581   2.387  0.2777  0.3752 -0.1882
  703MOL0     C96917   4.210   5.553   2.243 -0.0581  0.1543 -0.4653
  703MOL0     C96918   4.251   5.680   2.179 -0.7266 -0.4187 -0.4525
  703MOL0     C96919   4.149   5.785   2.132 -0.1377  1.1733  0.3043
  703MOL0     C96920   4.203   5.928   2.145  0.1254  0.7566 -0.6797
  703MOL0    Cl96921   4.224   5.976   2.318  0.1308  0.0369  0.5492
  703MOL0     C96922   4.351   4.904   2.553  0.2462  0.1275 -0.0243
  703MOL0     C96923   4.323   4.769   2.589 -0.1048 -0.2628 -0.6983
  703MOL0     O96924   3.971   4.607   2.711 -0.2433 -0.2701 -0.4849
  703MOL0     C96925   4.184   4.338   2.786 -0.3873  0.6186 -0.0360
  703MOL0     C96926   4.186   4.209   2.837 -0.4583  0.9172 -0.2461
  703MOL0     N96927   4.390   3.592   2.541  0.7442  0.1655 -0.2113
  703MOL0     N96928   4.510   3.554   2.501 -0.5263  0.5032 -0.2605
  703MOL0     C96929   5.331   2.531   2.360 -0.1172  0.0624  0.6218
  703MOL0     C96930   5.395   2.434   2.278  0.0149 -0.0278  0.5743
  703MOL0     C96931   5.376   2.156   1.916 -0.5673  0.2751 -0.6960
  703MOL0     C96932   5.287   2.039   1.905 -0.3209 -0.0583 -0.7678
  703MOL0     C96933   5.309   1.939   1.804 -0.2236 -0.2904  0.2425
  703MOL0     C96934   5.426   1.945   1.722 -0.8047  0.0962 -0.3633
  703MOL0     O96935   5.461   1.854   1.625  0.1664 -0.7003  0.4345
  703MOL0     C96936   5.368   1.751   1.589 -0.0394  0.3286 -0.3933
  703MOL0     C96937   5.395   1.622   1.676  0.2971  0.1738 -1.0192
  703MOL0     C96938   5.336   1.486   1.633  0.4043 -0.0266  0.1319
  703MOL0     C96939   5.409   1.433   1.509 -0.0306  0.3235 -0.4195
  703MOL0     C96940   5.456   1.294   1.529 -0.1789 -0.6297 -0.9976
  703MOL0     C96941   5.501   1.180   1.524 -0.1866 -0.1883 -0.3935
  703MOL0     C96942   5.505   2.052   1.727 -0.2289 -0.8557 -1.2889
  703MOL0     C96943   5.482   2.155   1.819 -1.2976 -0.2010  0.1776
  703MOL0     C96944   5.563   2.275   1.798  0.2260 -0.4848 -0.1665
  703MOL0     H96945   5.376   2.606   1.989  3.7743  1.8858  1.8235
  703MOL0     H96946   5.276   2.771   2.120  0.0013 -0.6612 -0.6577
  703MOL0     H96947   5.071   2.813   2.261 -0.9825  0.9275  0.5511
  703MOL0     H96948   5.203   2.923   2.306 -0.2604 -0.0295 -0.3526
  703MOL0     H96949   4.997   2.797   2.492 -0.9264  1.8288  2.4368
  703MOL0     H96950   5.096   2.937   2.523  2.5303 -0.9385 -1.1346
  703MOL0     H96951   4.885   2.921   2.294  1.4684 -1.0442 -0.3048
  703MOL0     H96952   4.844   2.948   2.460 -1.4027 -2.1506 -1.5432
  703MOL0     H96953   5.037   3.144   2.422 -2.0745  0.5323  2.2342
  703MOL0     H96954   5.015   3.106   2.256 -1.3983  2.1282 -1.6767
  703MOL0     H96955   4.767   3.158   2.301  1.5763 -0.9356  0.2974
  703MOL0     H96956   4.884   3.286   2.276 -0.3885 -0.5265 -1.6292
  703MOL0     H96957   4.798   3.177   2.546  3.9038 -2.5576 -0.9664
  703MOL0     H96958   4.909   3.311   2.511 -0.4650 -0.5685  1.5497
  703MOL0     H96959   4.597   3.295   2.485 -0.7659  0.4513  0.2409
  703MOL0     H96960   4.687   3.411   2.394 -1.4718 -0.1991  0.8749
  703MOL0     H96961   4.721   3.379   2.692  1.3895  3.6623  0.7858
  703MOL0     H96962   4.793   3.505   2.602 -1.5197  2.5295 -2.8726
  703MOL0     H96963   4.527   3.493   2.825 -2.2739  1.9269  1.6880
  703MOL0     H96964   4.267   3.538   2.858 -0.8899 -3.4080 -1.4142
  703MOL0     H96965   4.179   3.534   2.708  0.3848 -1.4099  1.5131
  703MOL0     H96966   4.276   3.792   2.834 -2.2806  2.1480 -0.5857
  703MOL0     H96967   4.219   3.777   2.666 -1.3242  0.5143  0.1142
  703MOL0     H96968   4.017   3.668   2.807 -0.0777  0.5159  2.9982
  703MOL0     H96969   4.078   3.762   2.943  0.3880  0.9241  0.5882
  703MOL0     H96970   3.969   3.913   2.697 -0.9036  0.7134  0.1132
  703MOL0     H96971   3.912   3.895   2.858 -1.6486  1.4785 -1.1626
  703MOL0     H96972   3.902   4.107   2.675 -1.6321  1.0632  1.3891
  703MOL0     H96973   3.820   4.283   2.522 -1.5745  2.6266 -2.1149
  703MOL0     H96974   3.885   4.432   2.516  2.8014 -1.5783 -1.2509
  703MOL0     H96975   3.770   4.384   2.658 -1.4278 -2.6519 -0.4425
  703MOL0     H96976   4.064   4.810   2.795  1.3222 -0.3693 -0.2961
  703MOL0     H96977   4.093   5.050   2.739  0.5492  0.9500 -0.3759
  703MOL0     H96978   4.095   5.199   2.571 -0.7488 -0.6270  1.2383
  703MOL0     H96979   4.207   5.273   2.691 -2.9051 -1.4731 -0.4414
  703MOL0     H96980   4.305   5.429   2.524  0.5638 -0.2455  0.2714
  703MOL0     H96981   4.256   5.325   2.387 -0.5865  2.6609 -1.2156
  703MOL0     H96982   4.051   5.471   2.547 -1.2776 -0.6792  0.0695
  703MOL0     H96983   4.037   5.410   2.378 -0.9610  0.8200  0.0553
  703MOL0     H96984   4.229   5.616   2.459 -0.6634 -0.5310  1.2731
  703MOL0     H96985   4.071   5.650   2.379 -2.0582 -2.4803 -3.3880
  703MOL0     H96986   4.302   5.494   2.243 -1.5922 -2.3730 -1.4226
  703MOL0     H96987   4.134   5.497   2.188  0.5177 -3.6104  2.1593
  703MOL0     H96988   4.292   5.646   2.083 -1.7081  1.4239 -1.5894
  703MOL0     H96989   4.336   5.725   2.231  1.0283  1.1613 -4.2395
  703MOL0     H96990   4.055   5.767   2.185  0.0825 -2.2888 -0.2480
  703MOL0     H96991   4.125   5.758   2.029 -0.6858 -3.0933  1.3652
  703MOL0     H96992   4.127   5.994   2.101  0.3668  0.7508 -1.1184
  703MOL0     H96993   4.296   5.941   2.088 -0.1760  2.9362 -0.7633
  703MOL0     H96994   4.426   4.925   2.477 -0.7663 -1.7600 -1.6402
  703MOL0     H96995   4.400   4.700   2.554  0.3591  1.5631 -3.6776
  703MOL0     H96996   4.282   4.384   2.799 -0.1163  0.9344 -2.6834
  703MOL0     H96997   4.270   4.170   2.893 -1.4186 -3.1477 -1.3477
  703MOL0     H96998   5.318   2.500   2.463  4.5961 -0.6900  1.1933
  703MOL0     H96999   5.436   2.343   2.319 -0.1174 -0.1031  0.5414
  703MOL0     H97000   5.219   2.023   1.988  1.3567 -0.9980  0.4929
  703MOL0     H97001   5.229   1.866   1.809 -0.4516 -0.1049 -0.5948
  703MOL0     H97002   5.261   1.776   1.582  0.2037  1.4671 -0.2846
  703MOL0     H97003   5.394   1.719   1.488 -2.2500 -0.9889 -0.6196
  703MOL0     H97004   5.361   1.650   1.777  3.8984 -0.2588  0.4716
  703MOL0     H97005   5.502   1.602   1.681 -0.0257 -1.6378 -0.4614
  703MOL0     H97006   5.346   1.424   1.722 -0.7986  1.3364  1.2632
  703MOL0     H97007   5.234   1.499   1.597  1.6804  2.6065 -3.0321
  703MOL0     H97008   5.490   1.499   1.477  0.6795 -0.0082  0.6556
  703MOL0     H97009   5.328   1.438   1.435 -0.6828  1.1951  0.3264
  703MOL0     H97010   5.523   1.075   1.531 -1.6250 -0.4101  2.2259
  703MOL0     H97011   5.586   2.066   1.656 -0.7665  4.1749 -1.2291
  703MOL0     H97012   5.511   2.368   1.772  2.3284  1.8058  3.0454
  703MOL0     H97013   5.623   2.299   1.886  0.2673 -0.7865 -0.1101
  703MOL0     H97014   5.643   2.252   1.727 -1.4091  0.4363 -2.4015
  704MOL0     O97015   0.896   2.980   6.591 -0.7369 -1.0997  0.1278
  704MOL0     C97016   0.776   2.986   6.583  0.1672  0.3593  0.7638
  704MOL0     O97017   0.685   2.884   6.614  0.4628  0.0221  0.4214
  704MOL0     C97018   0.719   2.760   6.662 -0.2202 -0.6595  0.0674
  704MOL0     C97019   0.677   2.638   6.600  0.0869 -0.5817  0.3233
  704MOL0     C97020   0.738   2.521   6.641 -0.3822  0.1010 -0.3682
  704MOL0     C97021   0.827   2.518   6.754  0.3422 -0.3707  0.1503
  704MOL0     O97022   0.870   2.403   6.809 -0.7625  0.5415  0.7614
  704MOL0     C97023   0.941   2.308   6.722 -0.6420  0.8037  0.4237
  704MOL0     C97024   0.912   2.165   6.752  1.0584 -0.1891  0.5365
  704MOL0     C97025   0.903   2.129   6.903  0.0682 -0.3475  0.1014
  704MOL0     C97026   0.817   2.004   6.946  0.1826 -0.5611  0.7926
  704MOL0     C97027   0.779   1.999   7.099 -0.1788  0.2095 -0.1546
  704MOL0     C97028   0.656   2.077   7.150 -0.1154 -0.1582  0.3211
  704MOL0     C97029   0.651   2.049   7.301 -0.1865  0.1789 -0.1439
  704MOL0     C97030   0.511   2.087   7.358 -0.0679  0.6318  0.1184
  704MOL0     N97031   0.476   2.233   7.370  0.4366  0.5562  0.7369
  704MOL0     C97032   0.564   2.322   7.419  0.1815  0.6197 -0.2938
  704MOL0     C97033   0.496   2.445   7.422 -0.0821  1.1129 -0.3445
  704MOL0     C97034   0.548   2.572   7.455 -0.1294  0.0690  0.3754
  704MOL0     C97035   0.526   2.677   7.340  0.3593 -0.0860  0.4881
  704MOL0     C97036   0.588   2.651   7.201 -0.0317 -0.1257  0.4878
  704MOL0     C97037   0.578   2.770   7.109  0.8573  0.4487  0.1084
  704MOL0     O97038   0.632   2.890   7.168 -0.3820  0.3414 -0.8047
  704MOL0     C97039   0.766   2.912   7.151 -0.5698 -0.3492  0.4837
  704MOL0     C97040   0.795   3.050   7.185  0.6867  0.3703  0.4617
  704MOL0     C97041   0.928   3.096   7.179  0.0857 -0.4877  0.5359
  704MOL0     C97042   0.960   3.243   7.196  0.2562 -0.6968 -0.0668
  704MOL0     C97043   1.031   3.003   7.128 -1.1919  0.2996  0.4075
  704MOL0     C97044   1.179   3.043   7.101 -0.0266  0.0863  0.1245
  704MOL0     O97045   1.244   2.949   7.019  0.8573 -0.2184 -0.0610
  704MOL0     C97046   1.380   2.970   7.007 -0.7966 -0.5480 -0.2278
  704MOL0     C97047   1.467   2.969   7.116  0.4831 -0.8083 -0.3617
  704MOL0     C97048   1.600   3.009   7.106 -0.3894 -0.4969 -0.4228
  704MOL0     C97049   1.661   3.026   6.978 -0.6276 -1.0643 -0.3820
  704MOL0     O97050   1.795   3.053   6.972  0.0184  0.1426 -0.5306
  704MOL0     C97051   1.856   3.069   6.841 -0.1982 -0.4551  0.5964
  704MOL0     C97052   1.847   3.213   6.789 -0.5988 -0.1478 -0.3402
  704MOL0     C97053   1.975   3.270   6.732  0.3007  0.1515 -0.1023
  704MOL0     C97054   2.052   3.351   6.834 -0.3993  0.3636  0.6044
  704MOL0     C97055   2.190   3.385   6.773  0.7115  0.1887  0.2664
  704MOL0     C97056   2.195   3.477   6.653  0.4560 -0.2109  0.2806
  704MOL0     C97057   2.152   3.625   6.679  0.9201  0.4062  0.6557
  704MOL0     C97058   2.042   3.663   6.571 -0.0821 -0.0476 -0.3880
  704MOL0    Cl97059   2.002   3.840   6.576 -0.2239  0.2055 -0.0311
  704MOL0     C97060   1.581   3.023   6.866  1.4108  0.5845 -0.9635
  704MOL0     C97061   1.439   2.994   6.884 -0.2023  0.2482 -0.2916
  704MOL0     O97062   1.227   3.137   7.159  0.3170 -0.2690 -0.1452
  704MOL0     C97063   0.988   2.873   7.085 -0.1816  0.6241  0.0548
  704MOL0     C97064   0.860   2.829   7.103  0.4274  0.7356 -0.3939
  704MOL0     N97065   0.372   2.427   7.376  0.0604  0.0137  0.4890
  704MOL0     N97066   0.358   2.299   7.335 -0.4327  0.4824 -0.0714
  704MOL0     C97067   0.859   2.640   6.823 -0.0287  0.2796  0.7330
  704MOL0     C97068   0.801   2.763   6.772  0.0694 -0.2274  0.1978
  704MOL0     C97069   0.716   3.107   6.516 -0.6975  0.1155 -0.6134
  704MOL0     C97070   0.577   3.119   6.510 -0.3222  0.0234 -0.4579
  704MOL0     C97071   0.521   3.239   6.465  0.8039 -0.0886  0.0700
  704MOL0     C97072   0.590   3.340   6.397 -0.3744  0.0594 -0.5351
  704MOL0     O97073   0.521   3.450   6.359 -0.4228 -0.1233  0.0051
  704MOL0     C97074   0.572   3.543   6.268 -0.0823  0.7777  0.1295
  704MOL0     C97075   0.480   3.662   6.260 -0.3429 -0.3601 -0.5023
  704MOL0     C97076   0.467   3.724   6.393 -0.2858 -0.9680 -0.7507
  704MOL0     C97077   0.384   3.862   6.396 -0.0516  0.2962  0.6724
  704MOL0     C97078   0.448   3.968   6.316  0.6838 -0.1558  0.1341
  704MOL0     C97079   0.514   4.057   6.265  0.8717  0.2904  0.2719
  704MOL0     C97080   0.722   3.324   6.402 -0.1404  0.8203 -0.8563
  704MOL0     C97081   0.796   3.217   6.460  0.6866 -0.5805 -0.0193
  704MOL0     C97082   0.954   3.226   6.457 -0.3814  0.2492  0.4292
  704MOL0     H97083   0.610   2.648   6.515 -0.6279 -0.1534  0.9236
  704MOL0     H97084   0.714   2.425   6.598 -1.9433  0.4524 -0.3282
  704MOL0     H97085   1.047   2.332   6.740 -0.7382  0.0609  2.1902
  704MOL0     H97086   0.920   2.319   6.615  4.4301  0.7071 -0.8830
  704MOL0     H97087   0.820   2.144   6.698 -0.0602 -0.8916  2.6095
  704MOL0     H97088   0.987   2.102   6.705 -0.1217 -1.6246  0.5273
  704MOL0     H97089   1.007   2.115   6.933  0.3120  2.0043  0.5279
  704MOL0     H97090   0.858   2.210   6.962  0.9455  0.1453  0.1072
  704MOL0     H97091   0.726   2.005   6.886  0.1752  0.0013  0.8148
  704MOL0     H97092   0.870   1.917   6.905 -2.1693 -1.2866 -0.8992
  704MOL0     H97093   0.869   2.038   7.148 -0.7314 -0.8729  1.7897
  704MOL0     H97094   0.740   1.900   7.122 -2.3667  1.3194  1.2175
  704MOL0     H97095   0.670   2.185   7.139  0.0460 -0.1779  0.3215
  704MOL0     H97096   0.564   2.053   7.096  0.3479  1.6111 -1.3907
  704MOL0     H97097   0.735   2.093   7.355  1.9851 -3.2731 -0.3681
  704MOL0     H97098   0.663   1.941   7.316  3.3057 -0.3532 -4.6795
  704MOL0     H97099   0.434   2.027   7.309  0.0272  1.4097 -1.0213
  704MOL0     H97100   0.521   2.056   7.462  1.4422  0.3597 -0.0841
  704MOL0     H97101   0.669   2.304   7.441  0.5005  0.3782 -1.9170
  704MOL0     H97102   0.655   2.552   7.463  0.1197  1.0389 -0.2992
  704MOL0     H97103   0.511   2.614   7.549 -0.9478  1.6866 -0.6224
  704MOL0     H97104   0.419   2.688   7.318  0.4880 -2.3721 -1.7558
  704MOL0     H97105   0.558   2.774   7.378 -0.7920  1.2019 -1.6613
  704MOL0     H97106   0.685   2.602   7.199  0.2528  0.3730 -2.3622
  704MOL0     H97107   0.531   2.578   7.142 -1.4569  1.0217  0.3812
  704MOL0     H97108   0.616   2.763   7.007 -1.6920 -0.0190 -0.8927
  704MOL0     H97109   0.469   2.775   7.096  0.4225 -0.7542  2.7521
  704MOL0     H97110   0.715   3.123   7.196 -0.6812 -1.1783  1.2077
  704MOL0     H97111   1.023   3.287   7.118 -0.0969 -3.1232 -1.8676
  704MOL0     H97112   1.022   3.245   7.286  0.9615  3.3740 -0.4479
  704MOL0     H97113   0.870   3.304   7.212 -3.0829 -3.8485 -4.2417
  704MOL0     H97114   1.423   2.951   7.213 -2.6194  2.0093 -1.0579
  704MOL0     H97115   1.659   3.010   7.197 -0.7917  0.9050 -0.1524
  704MOL0     H97116   1.961   3.057   6.868  0.3966  2.2721 -0.1903
  704MOL0     H97117   1.827   2.999   6.762  1.7875 -1.1719  0.4599
  704MOL0     H97118   1.767   3.208   6.714  0.4836  1.8474 -1.7138
  704MOL0     H97119   1.805   3.284   6.860 -3.0443 -1.3900 -0.4529
  704MOL0     H97120   1.947   3.337   6.650  0.4098  0.8810  0.4432
  704MOL0     H97121   2.037   3.195   6.683  0.7890 -1.3432  2.5831
  704MOL0     H97122   2.068   3.273   6.909  5.2033  0.2404 -0.2413
  704MOL0     H97123   1.998   3.438   6.871  1.0329  1.1453  0.9297
  704MOL0     H97124   2.261   3.436   6.839 -0.8136 -1.0071  2.9792
  704MOL0     H97125   2.239   3.292   6.745 -1.1218  0.1084 -3.2902
  704MOL0     H97126   2.136   3.434   6.571 -2.2028  2.0535  0.8671
  704MOL0     H97127   2.296   3.483   6.612 -0.7053  1.4355 -2.6577
  704MOL0     H97128   2.226   3.705   6.690  0.9190  0.8375 -1.9301
  704MOL0     H97129   2.099   3.616   6.774  1.5121  0.3612  0.9841
  704MOL0     H97130   1.951   3.605   6.586  0.8198 -1.3055  0.4495
  704MOL0     H97131   2.076   3.637   6.471  2.2227 -3.8146  1.1691
  704MOL0     H97132   1.620   3.056   6.771  2.5657  1.4150 -0.2294
  704MOL0     H97133   1.372   3.002   6.799  1.5648  1.2146 -1.6496
  704MOL0     H97134   1.062   2.808   7.040 -2.4880 -0.2448 -2.7742
  704MOL0     H97135   0.839   2.723   7.089 -1.8204  0.8202  1.6686
  704MOL0     H97136   0.940   2.653   6.893  4.0671 -1.9028 -3.1236
  704MOL0     H97137   0.837   2.859   6.808 -1.2795  0.4333 -0.1506
  704MOL0     H97138   0.512   3.038   6.543 -0.3225 -0.9619 -2.7183
  704MOL0     H97139   0.415   3.250   6.482  1.2871  2.6637  2.0808
  704MOL0     H97140   0.667   3.590   6.296  0.9058 -0.3148 -1.2898
  704MOL0     H97141   0.579   3.491   6.173  0.4938  0.5072  0.3154
  704MOL0     H97142   0.385   3.615   6.233  0.3719 -1.2519 -1.5789
  704MOL0     H97143   0.510   3.731   6.180 -0.3382  0.7190  0.3996
  704MOL0     H97144   0.418   3.651   6.458  0.1270 -1.8196 -1.3813
  704MOL0     H97145   0.565   3.747   6.434 -1.4229  1.1338  1.0416
  704MOL0     H97146   0.376   3.895   6.500  2.3302  4.5190 -0.2606
  704MOL0     H97147   0.283   3.841   6.360  0.4036 -0.8219 -0.0419
  704MOL0     H97148   0.563   4.144   6.226 -1.9351  2.7058  1.8039
  704MOL0     H97149   0.787   3.392   6.348 -2.2015  5.1645  1.6371
  704MOL0     H97150   0.996   3.232   6.558 -2.0865  2.5318  1.1044
  704MOL0     H97151   1.002   3.146   6.400  1.8968  1.7753  0.0764
  704MOL0     H97152   0.986   3.319   6.409  1.1849  0.3097  1.4971
  705MOL0     O97153   4.884  10.109   9.098 -0.4105  0.2861 -0.1468
  705MOL0     C97154   4.772  10.074   9.141 -1.2128  0.0574 -0.2044
  705MOL0     O97155   4.662  10.148   9.137  0.8953  0.2922 -0.1671
  705MOL0     C97156   4.657  10.257   9.056 -0.7790  0.5220  0.0883
  705MOL0     C97157   4.742  10.366   9.079 -0.1312 -0.1501 -0.7263
  705MOL0     C97158   4.754  10.478   8.993  0.5573  0.7073 -0.2239
  705MOL0     C97159   4.674  10.483   8.882  0.1849 -0.4269  1.0817
  705MOL0     O97160   4.690  10.573   8.787  0.1932  0.7212 -0.0849
  705MOL0     C97161   4.761  10.527   8.669  1.2246 -0.1430  0.0145
  705MOL0     C97162   4.725  10.607   8.541 -0.8441 -0.5090  0.7041
  705MOL0     C97163   4.791  10.517   8.433  0.6478 -0.0967 -0.0591
  705MOL0     C97164   4.781  10.599   8.310 -0.0191 -0.1435 -0.0511
  705MOL0     C97165   4.836  10.523   8.193  0.1503  0.2839  0.0093
  705MOL0     C97166   4.758  10.568   8.069  0.3499 -0.5744 -0.1009
  705MOL0     C97167   4.808  10.492   7.943  0.2281 -0.2074 -0.7114
  705MOL0     C97168   4.720  10.524   7.819  1.2339  0.7146 -0.0725
  705MOL0     N97169   4.790  10.468   7.699 -0.5722  0.2599 -0.1678
  705MOL0     C97170   4.792  10.333   7.673 -0.1726  0.4448 -0.2271
  705MOL0     C97171   4.884  10.323   7.569  0.1201  0.1726 -0.1603
  705MOL0     C97172   4.925  10.189   7.507 -0.9222  0.1455 -0.3289
  705MOL0     C97173   4.819  10.115   7.418 -0.2917 -0.4466  0.9696
  705MOL0     C97174   4.884  10.000   7.339 -0.7076  0.0350 -1.7915
  705MOL0     C97175   4.785   9.942   7.237  0.1023  1.0103 -0.1665
  705MOL0     O97176   4.661   9.899   7.310 -0.3646  0.2878 -0.1052
  705MOL0     C97177   4.658   9.765   7.353  0.8785 -0.0528  0.1915
  705MOL0     C97178   4.771   9.685   7.337  0.1009  0.5529  0.4585
  705MOL0     C97179   4.763   9.549   7.362  0.9090  1.4163 -0.4530
  705MOL0     C97180   4.884   9.471   7.329  0.6635  0.0962 -0.6053
  705MOL0     C97181   4.645   9.486   7.411 -0.5898  0.1967  1.2654
  705MOL0     C97182   4.644   9.344   7.450  0.0111  0.3109  0.0672
  705MOL0     O97183   4.638   9.250   7.353 -0.2134  0.0474  0.4530
  705MOL0     C97184   4.633   9.112   7.386 -0.0813 -1.3502  1.0240
  705MOL0     C97185   4.734   9.059   7.474  0.0603 -0.7655  0.2396
  705MOL0     C97186   4.743   8.924   7.485 -0.3278 -1.0918  0.2545
  705MOL0     C97187   4.653   8.839   7.422 -0.5430 -0.5424 -0.1911
  705MOL0     O97188   4.672   8.702   7.438  0.1861 -0.0288 -0.6021
  705MOL0     C97189   4.553   8.649   7.497  0.5293  0.2618 -0.0017
  705MOL0     C97190   4.575   8.513   7.571 -0.0661  1.1144 -0.4844
  705MOL0     C97191   4.451   8.424   7.594  0.1577  0.0590  0.2129
  705MOL0     C97192   4.346   8.488   7.687  1.1010 -0.7420  0.6158
  705MOL0     C97193   4.328   8.402   7.816 -0.9916 -1.1986 -0.2267
  705MOL0     C97194   4.239   8.474   7.916 -0.2300  0.5018  0.2509
  705MOL0     C97195   4.236   8.397   8.048 -0.3573  1.9133  0.4022
  705MOL0     C97196   4.125   8.430   8.146  0.2064  0.1966  0.2537
  705MOL0    Cl97197   4.161   8.582   8.243 -0.2144 -0.1254  0.2996
  705MOL0     C97198   4.549   8.894   7.348  0.2776 -0.5444  0.6722
  705MOL0     C97199   4.538   9.036   7.335 -0.9961  0.5187  0.2873
  705MOL0     O97200   4.634   9.323   7.572  0.7986  0.9698 -0.3508
  705MOL0     C97201   4.528   9.572   7.419  0.1019  0.2309  0.2150
  705MOL0     C97202   4.536   9.707   7.388  0.8086  0.3573 -0.4542
  705MOL0     N97203   4.924  10.448   7.528  0.4247 -0.5773  0.5352
  705MOL0     N97204   4.874  10.536   7.615 -0.0739 -0.3188  0.8583
  705MOL0     C97205   4.583  10.379   8.866 -0.1666 -0.2470  0.1017
  705MOL0     C97206   4.572  10.269   8.954  0.0740  0.4681  0.3045
  705MOL0     C97207   4.758   9.935   9.183 -0.1014 -0.4721  0.6754
  705MOL0     C97208   4.634   9.869   9.156 -0.6074 -0.3818 -0.5095
  705MOL0     C97209   4.614   9.737   9.197 -1.2861  0.5907  0.0778
  705MOL0     C97210   4.713   9.662   9.269  0.0276  0.6650 -0.3886
  705MOL0     O97211   4.706   9.528   9.318  0.0916  0.1414 -0.3397
  705MOL0     C97212   4.578   9.485   9.376 -0.1644  0.5179 -0.5931
  705MOL0     C97213   4.492   9.395   9.285 -1.0257 -0.6164 -0.3381
  705MOL0     C97214   4.551   9.250   9.286  0.4201 -0.3864  0.3397
  705MOL0     C97215   4.504   9.157   9.405 -0.1073  0.3692 -0.3537
  705MOL0     C97216   4.363   9.129   9.399 -0.8446 -0.5730 -0.8741
  705MOL0     C97217   4.244   9.111   9.396 -1.0006 -1.2196  0.4432
  705MOL0     C97218   4.827   9.735   9.307  0.5210  0.6849  0.6707
  705MOL0     C97219   4.858   9.863   9.256  0.1679  0.2705  0.0815
  705MOL0     C97220   4.966   9.937   9.324  0.2153 -0.2882  0.9717
  705MOL0     H97221   4.817  10.370   9.157 -1.3117  0.7257  0.4099
  705MOL0     H97222   4.821  10.562   9.011 -0.6342  1.5831  0.3065
  705MOL0     H97223   4.741  10.421   8.651  0.4848  0.4253 -2.8643
  705MOL0     H97224   4.867  10.547   8.690  0.6479  1.5110  1.6830
  705MOL0     H97225   4.616  10.616   8.535 -0.6280  2.0128 -1.2585
  705MOL0     H97226   4.772  10.705   8.543 -0.7911 -0.5467  2.0445
  705MOL0     H97227   4.894  10.489   8.459  0.3404 -0.1520  1.1228
  705MOL0     H97228   4.751  10.416   8.416 -1.3720  1.0937 -3.2695
  705MOL0     H97229   4.680  10.640   8.298 -1.3464 -0.7254  5.9441
  705MOL0     H97230   4.853  10.682   8.313  2.0814 -1.6561 -3.4102
  705MOL0     H97231   4.828  10.414   8.194 -2.6303  0.3367 -1.8114
  705MOL0     H97232   4.942  10.546   8.181  0.1733 -0.0198 -0.4162
  705MOL0     H97233   4.654  10.540   8.086 -0.4385  2.9106  1.7439
  705MOL0     H97234   4.770  10.676   8.054 -1.7095 -0.2312  0.3912
  705MOL0     H97235   4.810  10.385   7.963 -0.6950  0.1203  1.4624
  705MOL0     H97236   4.909  10.528   7.923  0.1097  0.3584 -0.3179
  705MOL0     H97237   4.616  10.492   7.827  1.3344  0.7348  1.5639
  705MOL0     H97238   4.720  10.633   7.819 -0.6612  0.7485  0.1544
  705MOL0     H97239   4.751  10.247   7.724 -0.7657 -0.6083 -2.3475
  705MOL0     H97240   4.960  10.131   7.594  2.1838  2.2647 -0.0044
  705MOL0     H97241   5.016  10.201   7.448  1.5169  0.0901  3.0645
  705MOL0     H97242   4.731  10.092   7.478  0.4234 -2.6926  1.2371
  705MOL0     H97243   4.779  10.184   7.343 -1.8818 -1.5723  0.7373
  705MOL0     H97244   4.961  10.039   7.272 -0.8215 -0.3188 -2.1312
  705MOL0     H97245   4.924   9.923   7.405 -4.1762  0.0179  0.5854
  705MOL0     H97246   4.772  10.017   7.158  2.0335  3.3098  1.5683
  705MOL0     H97247   4.832   9.860   7.182 -0.9622 -0.0889  0.4887
  705MOL0     H97248   4.870   9.714   7.303  1.2710 -0.7158  2.6077
  705MOL0     H97249   4.953   9.536   7.275 -0.8242  0.3744 -2.2985
  705MOL0     H97250   4.846   9.396   7.259 -0.0976 -0.6686  0.5876
  705MOL0     H97251   4.939   9.429   7.413 -0.2868 -1.6281 -0.8016
  705MOL0     H97252   4.813   9.118   7.520 -2.3372  2.4010  0.6516
  705MOL0     H97253   4.823   8.882   7.545 -0.1340  0.1394  0.8865
  705MOL0     H97254   4.505   8.719   7.566  2.8631  0.5203  1.4794
  705MOL0     H97255   4.486   8.640   7.411  0.2280 -1.3416  0.3668
  705MOL0     H97256   4.624   8.445   7.501 -1.9277  0.5908 -1.3222
  705MOL0     H97257   4.630   8.521   7.666  0.5964 -2.9204 -0.3240
  705MOL0     H97258   4.479   8.322   7.623 -2.2502 -0.5175  0.6758
  705MOL0     H97259   4.397   8.415   7.500  3.2492  0.4026 -1.7469
  705MOL0     H97260   4.251   8.502   7.633  1.6826 -0.5025 -0.3681
  705MOL0     H97261   4.389   8.584   7.714  0.5622 -0.7121  1.4059
  705MOL0     H97262   4.286   8.304   7.792 -0.8331 -1.1633 -0.6511
  705MOL0     H97263   4.430   8.387   7.852 -0.6014 -0.4378 -0.9740
  705MOL0     H97264   4.138   8.480   7.875 -0.2265 -0.5552  0.0680
  705MOL0     H97265   4.278   8.575   7.932 -0.8734  0.7771  0.1211
  705MOL0     H97266   4.330   8.407   8.104  2.1788  0.2189 -3.1899
  705MOL0     H97267   4.226   8.289   8.032  1.8033  1.6236  0.7283
  705MOL0     H97268   4.114   8.344   8.213 -0.0926 -0.1598 -0.2425
  705MOL0     H97269   4.028   8.452   8.099 -0.5511  2.4848  2.6101
  705MOL0     H97270   4.472   8.825   7.315  0.8860 -1.5860  1.3614
  705MOL0     H97271   4.459   9.083   7.277  1.1114  3.8538 -0.1554
  705MOL0     H97272   4.439   9.523   7.458  1.0970 -2.0337 -0.1780
  705MOL0     H97273   4.448   9.768   7.404  0.6526  0.2655 -0.9534
  705MOL0     H97274   4.519  10.379   8.778  0.1587 -0.8912 -0.1453
  705MOL0     H97275   4.515  10.181   8.927  1.1630 -0.8667  2.1866
  705MOL0     H97276   4.549   9.920   9.114  1.0116  0.5363 -2.8608
  705MOL0     H97277   4.516   9.695   9.178 -0.9580 -0.5609  0.7897
  705MOL0     H97278   4.615   9.424   9.458  1.2179  0.0261 -1.5324
  705MOL0     H97279   4.511   9.567   9.403  0.1557 -0.2704  2.9954
  705MOL0     H97280   4.489   9.447   9.188 -2.9879  1.5571  0.8041
  705MOL0     H97281   4.394   9.395   9.331 -0.1897  3.0807  1.7861
  705MOL0     H97282   4.525   9.206   9.189  5.5866  1.6971 -2.4246
  705MOL0     H97283   4.660   9.254   9.275  0.1685 -0.0219 -3.1629
  705MOL0     H97284   4.524   9.212   9.497 -0.3435  1.4160 -0.9218
  705MOL0     H97285   4.556   9.061   9.415  0.5321  0.8684  1.4685
  705MOL0     H97286   4.140   9.097   9.417 -1.1161 -0.5914  0.3032
  705MOL0     H97287   4.900   9.693   9.375  3.2858  0.8461 -2.0060
  705MOL0     H97288   4.991   9.890   9.419  2.0649 -3.9802 -1.1397
  705MOL0     H97289   5.038   9.975   9.252 -3.6959  2.6200 -1.8983
  705MOL0     H97290   4.924  10.029   9.366 -1.1401  0.8737 -2.5958
  706MOL0     O97291   2.038   0.077   3.625  0.6332  0.1594 -0.7456
  706MOL0     C97292   1.927   0.105   3.587 -0.1295 -0.1935  0.5340
  706MOL0     O97293   1.822   0.018   3.589  0.6247 -0.4652  0.0687
  706MOL0     C97294   1.700   0.084   3.609 -0.1416 -0.2899 -0.0918
  706MOL0     C97295   1.593   0.078   3.512  0.5508  1.3083 -0.3635
  706MOL0     C97296   1.471   0.140   3.536  0.4547  0.2570 -0.0632
  706MOL0     C97297   1.454   0.212   3.650 -0.6502  0.7210 -0.1994
  706MOL0     O97298   1.321   0.250   3.664 -0.1312  0.0192  0.3153
  706MOL0     C97299   1.282   0.287   3.798  1.4038  0.0349  0.9458
  706MOL0     C97300   1.125   0.291   3.792  0.0825  1.2583 -0.2376
  706MOL0     C97301   1.052   0.164   3.814 -0.2192  0.7596 -0.4829
  706MOL0     C97302   0.911   0.199   3.872  0.5087 -1.2458  0.2847
  706MOL0     C97303   0.818   0.082   3.857 -0.4724 -0.6024  0.1122
  706MOL0     C97304   0.679   0.107   3.915 -0.4154 -0.0400 -0.2672
  706MOL0     C97305   0.595  -0.023   3.918 -0.5109  0.6687 -0.6032
  706MOL0     C97306   0.456   0.007   3.981 -0.6377 -0.0689 -0.3151
  706MOL0     N97307   0.468   0.061   4.117 -1.2993 -0.4875  0.2084
  706MOL0     C97308   0.450   0.194   4.145 -0.7171 -0.1498  0.2775
  706MOL0     C97309   0.477   0.203   4.280  0.2885 -0.8613  0.3890
  706MOL0     C97310   0.459   0.318   4.370 -0.7591  0.2183 -0.2490
  706MOL0     C97311   0.316   0.339   4.368  0.4672  1.0277  0.5217
  706MOL0     C97312   0.228   0.229   4.436  0.2088  0.0963 -0.2984
  706MOL0     C97313   0.080   0.266   4.472 -0.5284 -0.2425 -0.4521
  706MOL0     O97314   0.081   0.367   4.581  0.3971 -0.4440 -0.1292
  706MOL0     C97315  -0.045   0.437   4.578 -0.0449  0.1684 -1.2128
  706MOL0     C97316  -0.058   0.573   4.573  0.1163  0.0986 -0.3625
  706MOL0     C97317  -0.175   0.648   4.574  0.0034 -0.1874 -0.2582
  706MOL0     C97318  -0.181   0.798   4.559  0.0522  0.3182  0.7508
  706MOL0     C97319  -0.294   0.578   4.595  1.2508  0.3616 -0.2063
  706MOL0     C97320  -0.436   0.636   4.609 -0.6517 -0.2962 -0.1286
  706MOL0     O97321  -0.449   0.752   4.673 -0.2566  0.1457 -0.1582
  706MOL0     C97322  -0.575   0.813   4.686  0.1591  0.4455  0.8292
  706MOL0     C97323  -0.687   0.755   4.740  0.8953  0.3175 -0.4725
  706MOL0     C97324  -0.804   0.837   4.741 -0.3372 -0.4712  0.2299
  706MOL0     C97325  -0.807   0.968   4.678 -0.5129  0.1159  0.2733
  706MOL0     O97326  -0.923   1.035   4.682  0.7177  0.5036 -0.6064
  706MOL0     C97327  -0.932   1.172   4.693 -0.5078 -0.1858 -0.4473
  706MOL0     C97328  -0.857   1.213   4.815  0.1216 -0.0746  0.2872
  706MOL0     C97329  -0.827   1.369   4.814 -0.1212 -0.1235  0.5756
  706MOL0     C97330  -0.943   1.436   4.880  0.3168  0.8408 -0.1365
  706MOL0     C97331  -0.931   1.587   4.885 -0.7670  0.2150  0.2650
  706MOL0     C97332  -0.946   1.657   4.749 -0.2902 -0.0539  0.4443
  706MOL0     C97333  -0.973   1.812   4.762 -0.9387 -0.1009 -0.0709
  706MOL0     C97334  -0.975   1.898   4.639  0.5572 -0.6582  0.3538
  706MOL0    Cl97335  -1.088   1.848   4.515 -0.0606  0.0383  0.4294
  706MOL0     C97336  -0.678   1.014   4.625  0.4550 -0.0585 -0.2228
  706MOL0     C97337  -0.569   0.934   4.622  1.5331  0.6297 -0.2704
  706MOL0     O97338  -0.528   0.563   4.568  0.5903 -0.2138  0.5830
  706MOL0     C97339  -0.289   0.442   4.606  0.6686  1.0413 -0.3946
  706MOL0     C97340  -0.166   0.370   4.594  0.3909 -0.6534  0.1777
  706MOL0     N97341   0.504   0.070   4.325 -0.8955  0.1749 -0.1639
  706MOL0     N97342   0.508  -0.013   4.227 -0.2299  0.3694  0.6543
  706MOL0     C97343   1.560   0.229   3.740  0.7478  1.0829  0.3032
  706MOL0     C97344   1.681   0.169   3.718 -1.0370  0.8367 -0.3597
  706MOL0     C97345   1.924   0.225   3.494  0.3451  0.6032 -0.3581
  706MOL0     C97346   1.906   0.197   3.357 -0.4286  0.4288 -0.5996
  706MOL0     C97347   1.941   0.284   3.256 -0.6302  0.3369 -0.1978
  706MOL0     C97348   1.975   0.411   3.295  1.1149  0.2993 -1.1301
  706MOL0     O97349   2.021   0.496   3.206  0.1122 -0.4842 -0.8295
  706MOL0     C97350   2.056   0.638   3.240  0.7691 -0.1049 -0.5944
  706MOL0     C97351   2.062   0.714   3.110 -0.9948 -0.1723 -0.3545
  706MOL0     C97352   2.155   0.639   3.000  0.1359  1.1045 -0.7110
  706MOL0     C97353   2.174   0.714   2.869  0.8186  0.2827 -0.4349
  706MOL0     C97354   2.049   0.710   2.787  0.1798  0.2445  0.4709
  706MOL0     C97355   1.950   0.713   2.718 -0.6099  0.3077 -0.1208
  706MOL0     C97356   1.970   0.445   3.433  0.0730  0.2598  0.2486
  706MOL0     C97357   1.957   0.352   3.535 -0.1378  1.1823  0.6101
  706MOL0     C97358   1.969   0.391   3.678 -0.0580  0.0072  0.7378
  706MOL0     H97359   1.617   0.020   3.423  4.0687 -1.4255  2.0739
  706MOL0     H97360   1.393   0.138   3.460  2.1057  0.0001 -1.8168
  706MOL0     H97361   1.316   0.388   3.821  2.3794  0.4815 -2.0028
  706MOL0     H97362   1.320   0.211   3.868  0.2552  0.8709  2.5241
  706MOL0     H97363   1.097   0.356   3.876  1.3347  0.0612  1.1408
  706MOL0     H97364   1.088   0.326   3.695 -4.1302  0.3558  0.8425
  706MOL0     H97365   1.047   0.107   3.721 -1.4142  0.6955 -0.3851
  706MOL0     H97366   1.106   0.114   3.895  0.3049  2.3245  0.1664
  706MOL0     H97367   0.927   0.211   3.979 -0.7275 -1.1129  0.4608
  706MOL0     H97368   0.869   0.290   3.828 -2.1044 -2.0985  0.8670
  706MOL0     H97369   0.866   0.003   3.915 -1.7907  0.7515  3.2835
  706MOL0     H97370   0.808   0.060   3.750  1.9616  0.5407 -0.4258
  706MOL0     H97371   0.669   0.148   4.016 -1.3810 -0.3654 -0.2284
  706MOL0     H97372   0.620   0.173   3.851 -1.8106 -0.6546  0.3593
  706MOL0     H97373   0.633  -0.092   3.994 -1.6276 -0.3804 -0.9637
  706MOL0     H97374   0.585  -0.079   3.824 -5.1116 -3.0769  1.6749
  706MOL0     H97375   0.416   0.087   3.917 -2.6477  0.4959  1.5284
  706MOL0     H97376   0.387  -0.077   3.976 -1.6384  0.5791  1.7089
  706MOL0     H97377   0.417   0.270   4.075 -1.4082 -2.1780 -1.7136
  706MOL0     H97378   0.505   0.412   4.338  0.4538 -0.9809 -2.2739
  706MOL0     H97379   0.485   0.299   4.475 -3.5985  2.1240  0.9033
  706MOL0     H97380   0.301   0.438   4.411 -3.1356  1.5144 -1.4214
  706MOL0     H97381   0.268   0.349   4.270 -0.6115 -0.5133  0.8336
  706MOL0     H97382   0.206   0.142   4.375 -0.8231 -1.2002  1.8190
  706MOL0     H97383   0.279   0.194   4.527  0.0816 -0.9840 -0.6358
  706MOL0     H97384   0.044   0.309   4.378  1.0583  0.5318 -0.7438
  706MOL0     H97385   0.008   0.188   4.498 -1.4496 -0.8396 -4.2410
  706MOL0     H97386   0.039   0.617   4.553  1.1612 -1.9798 -0.1199
  706MOL0     H97387  -0.170   0.828   4.663  0.0298 -3.7357  2.0916
  706MOL0     H97388  -0.272   0.841   4.515 -0.5941  0.6677  2.3568
  706MOL0     H97389  -0.094   0.835   4.503  0.0958 -0.6879  0.1333
  706MOL0     H97390  -0.683   0.655   4.781  4.2923 -0.8649 -3.1921
  706MOL0     H97391  -0.897   0.801   4.785 -0.4127  0.8413  1.2084
  706MOL0     H97392  -0.890   1.221   4.605 -1.0187  1.6671  0.2870
  706MOL0     H97393  -1.036   1.205   4.702 -0.1235  0.9563 -0.0171
  706MOL0     H97394  -0.905   1.166   4.901 -1.1349 -2.2065 -1.4736
  706MOL0     H97395  -0.757   1.170   4.811 -0.5573 -1.7625  0.6567
  706MOL0     H97396  -0.814   1.402   4.711  1.9440 -0.7869  0.5741
  706MOL0     H97397  -0.737   1.398   4.869 -0.7778 -1.5856  2.5339
  706MOL0     H97398  -0.940   1.403   4.984  2.8910 -1.4367 -0.8024
  706MOL0     H97399  -1.040   1.406   4.839 -0.5435  2.3006  0.7599
  706MOL0     H97400  -1.018   1.611   4.947 -1.1852 -1.5659  0.4385
  706MOL0     H97401  -0.833   1.608   4.928 -0.2944 -0.8577 -0.2608
  706MOL0     H97402  -1.032   1.601   4.710 -1.3083  0.8097  1.3871
  706MOL0     H97403  -0.865   1.632   4.680  0.4206  0.4063  1.0960
  706MOL0     H97404  -0.906   1.864   4.832 -0.3020 -2.3562  1.0894
  706MOL0     H97405  -1.072   1.809   4.807 -0.5351  0.5602  0.9142
  706MOL0     H97406  -0.874   1.909   4.599 -0.0716  1.2852 -0.8839
  706MOL0     H97407  -1.006   1.992   4.686  0.6005 -1.5707  2.3345
  706MOL0     H97408  -0.655   1.103   4.567 -1.6959 -1.1749 -3.0800
  706MOL0     H97409  -0.480   0.966   4.569  2.5688  0.4025  1.2471
  706MOL0     H97410  -0.382   0.389   4.626 -0.3371  1.5057 -3.3617
  706MOL0     H97411  -0.159   0.262   4.598  1.7797 -0.6162 -0.5190
  706MOL0     H97412   1.549   0.291   3.828  1.0260  2.9542 -0.9218
  706MOL0     H97413   1.761   0.180   3.790  2.1278  0.9516 -3.5875
  706MOL0     H97414   1.867   0.098   3.338  0.0135 -0.5868  3.0213
  706MOL0     H97415   1.919   0.249   3.155 -5.7061 -1.0724  1.0781
  706MOL0     H97416   1.983   0.682   3.308 -0.7475 -3.0507 -0.1459
  706MOL0     H97417   2.155   0.641   3.285  1.0259  3.6348 -1.1059
  706MOL0     H97418   2.118   0.801   3.146  0.2319 -2.0519  2.6219
  706MOL0     H97419   1.960   0.734   3.076 -1.1725  0.9781  0.7583
  706MOL0     H97420   2.255   0.639   3.045  0.1464  4.4840 -0.5027
  706MOL0     H97421   2.119   0.537   2.982  1.6821 -0.0333  2.0790
  706MOL0     H97422   2.257   0.662   2.822  1.9343  1.5549  0.0544
  706MOL0     H97423   2.206   0.817   2.886  0.1608  0.4200  0.0123
  706MOL0     H97424   1.862   0.726   2.659 -2.5149 -1.8380  2.0593
  706MOL0     H97425   1.996   0.544   3.468  2.4845 -1.4571  4.0842
  706MOL0     H97426   1.973   0.307   3.747 -1.7108  0.6883  1.7270
  706MOL0     H97427   2.057   0.454   3.693  0.2651  0.0205 -1.0070
  706MOL0     H97428   1.884   0.457   3.699  1.2165  1.9030  0.1941
  707MOL0     O97429   4.355   0.772   3.319 -0.5564 -0.3794  0.3338
  707MOL0     C97430   4.343   0.670   3.254  0.4114  0.1677  0.4312
  707MOL0     O97431   4.358   0.542   3.304  0.0073 -0.3102  0.0629
  707MOL0     C97432   4.349   0.516   3.435 -0.0851 -0.6487  0.4489
  707MOL0     C97433   4.260   0.577   3.518  0.6287  0.6502  1.2511
  707MOL0     C97434   4.261   0.541   3.655 -0.2290  0.8932 -0.1883
  707MOL0     C97435   4.338   0.447   3.711 -0.8512  0.1334  0.5640
  707MOL0     O97436   4.324   0.424   3.845  0.0585  0.5712 -0.6891
  707MOL0     C97437   4.394   0.522   3.928 -1.0216  0.9009  1.2005
  707MOL0     C97438   4.375   0.477   4.072  0.5044 -0.8608  0.5347
  707MOL0     C97439   4.343   0.595   4.171  0.4668 -0.3278  0.5228
  707MOL0     C97440   4.200   0.629   4.201  0.2785 -1.1602  0.3901
  707MOL0     C97441   4.172   0.743   4.287  0.0294  0.7825 -1.3004
  707MOL0     C97442   4.019   0.765   4.300  0.5822 -0.1131 -0.0011
  707MOL0     C97443   3.947   0.663   4.387 -0.1185  1.3532  0.5454
  707MOL0     C97444   3.799   0.699   4.399  0.5601 -0.2365 -0.9651
  707MOL0     N97445   3.765   0.796   4.506  0.2597  0.3677  0.5565
  707MOL0     C97446   3.723   0.766   4.631 -0.3125  0.1005 -0.6079
  707MOL0     C97447   3.689   0.880   4.687  0.3934 -0.8174  0.3014
  707MOL0     C97448   3.613   0.908   4.817 -0.4841  0.6539  0.6041
  707MOL0     C97449   3.472   0.844   4.819  0.0500  0.2132 -1.0534
  707MOL0     C97450   3.368   0.885   4.708 -0.2671 -1.2915 -0.4095
  707MOL0     C97451   3.257   0.780   4.698  0.1176  0.0777 -1.0950
  707MOL0     O97452   3.195   0.787   4.565  0.0425  0.2854 -1.0780
  707MOL0     C97453   3.069   0.733   4.549  0.2965 -0.8375  0.7027
  707MOL0     C97454   3.027   0.741   4.415  0.0713  0.7148  0.6772
  707MOL0     C97455   2.903   0.692   4.366  0.9288 -0.4219  0.7925
  707MOL0     C97456   2.864   0.688   4.216 -0.6159 -0.2424  0.4032
  707MOL0     C97457   2.822   0.630   4.472  0.5725  0.5256 -0.4837
  707MOL0     C97458   2.684   0.574   4.451 -0.0189  1.2928 -0.4894
  707MOL0     O97459   2.656   0.456   4.526  0.8316 -0.1473  0.4023
  707MOL0     C97460   2.551   0.376   4.496  0.1389  0.0983 -0.3537
  707MOL0     C97461   2.532   0.327   4.365  0.9631  1.5729 -0.1153
  707MOL0     C97462   2.422   0.247   4.336  0.5902 -0.5789  0.5364
  707MOL0     C97463   2.345   0.200   4.447 -0.2090  0.3702  0.0403
  707MOL0     O97464   2.242   0.119   4.407  0.3462 -0.1978 -0.3326
  707MOL0     C97465   2.215   0.005   4.494  0.7089  0.3915  0.9303
  707MOL0     C97466   2.133  -0.095   4.418  0.2592  0.7289  0.9482
  707MOL0     C97467   2.217  -0.155   4.300  0.2561 -0.3619 -0.3708
  707MOL0     C97468   2.155  -0.267   4.220  0.4499 -0.5046 -0.3350
  707MOL0     C97469   2.047  -0.218   4.130  0.2885 -1.2117  0.3722
  707MOL0     C97470   1.976  -0.324   4.048 -0.7161  0.0255 -0.8046
  707MOL0     C97471   1.849  -0.273   3.972 -0.1270  0.7698 -0.2847
  707MOL0     C97472   1.877  -0.200   3.845 -0.0154 -0.5103  0.2524
  707MOL0    Cl97473   1.917  -0.020   3.890  0.1045 -0.4605  0.1787
  707MOL0     C97474   2.373   0.237   4.584  0.0263  0.4168  0.4841
  707MOL0     C97475   2.478   0.327   4.599 -1.0391  0.6807  0.2011
  707MOL0     O97476   2.616   0.608   4.358 -0.2452 -0.5720  0.3754
  707MOL0     C97477   2.860   0.629   4.610  0.0947 -0.0408  0.2983
  707MOL0     C97478   2.985   0.675   4.650  0.0148 -0.9913 -0.8184
  707MOL0     N97479   3.713   0.983   4.598  0.4669 -0.1403  0.0805
  707MOL0     N97480   3.768   0.931   4.493  0.2578  0.4994 -0.1448
  707MOL0     C97481   4.435   0.383   3.626  0.3108 -0.1420  0.0882
  707MOL0     C97482   4.435   0.426   3.491  0.1692  0.0268  0.8069
  707MOL0     C97483   4.325   0.684   3.105  0.6476  0.6286  0.0623
  707MOL0     C97484   4.362   0.562   3.033  0.4953 -0.5667 -0.4631
  707MOL0     C97485   4.373   0.565   2.894  0.7639  0.2207  0.6909
  707MOL0     C97486   4.355   0.690   2.828  0.1030 -0.2370 -0.4258
  707MOL0     O97487   4.362   0.704   2.692  0.0616 -0.5250 -0.6887
  707MOL0     C97488   4.417   0.606   2.602 -0.4149 -0.0507 -0.2681
  707MOL0     C97489   4.389   0.632   2.449  0.5278  1.2545 -0.3669
  707MOL0     C97490   4.446   0.765   2.409  0.3680  0.4726 -0.4758
  707MOL0     C97491   4.403   0.837   2.281  0.8185  0.3299  0.1857
  707MOL0     C97492   4.437   0.770   2.160  0.1913 -0.4910  0.0268
  707MOL0     C97493   4.458   0.710   2.057  1.0201  0.3336 -0.5151
  707MOL0     C97494   4.308   0.803   2.897  0.6309  0.3235 -0.0549
  707MOL0     C97495   4.292   0.795   3.033  0.1531  0.5389  1.0364
  707MOL0     C97496   4.227   0.920   3.095 -0.9000  0.2432  0.8948
  707MOL0     H97497   4.188   0.652   3.489 -0.9443 -0.2427  2.6921
  707MOL0     H97498   4.188   0.597   3.713 -0.5566 -0.4911  0.7880
  707MOL0     H97499   4.357   0.623   3.906  2.0717  1.4009 -2.9179
  707MOL0     H97500   4.502   0.521   3.908 -1.0250  1.8910  1.0734
  707MOL0     H97501   4.283   0.420   4.086  0.9741 -2.1614 -1.3269
  707MOL0     H97502   4.464   0.423   4.108 -0.2730 -1.4627  1.6087
  707MOL0     H97503   4.398   0.581   4.264  1.0090  1.1776  0.4541
  707MOL0     H97504   4.372   0.692   4.128 -1.5427  0.1315  0.0958
  707MOL0     H97505   4.152   0.641   4.104  0.6860 -0.4573  0.2680
  707MOL0     H97506   4.163   0.535   4.242 -2.3880 -0.7902 -0.9478
  707MOL0     H97507   4.209   0.839   4.250 -1.5052  1.6579 -0.6917
  707MOL0     H97508   4.207   0.740   4.391 -2.0554  0.7043 -0.5480
  707MOL0     H97509   4.014   0.863   4.349 -0.5859  0.0277 -0.3669
  707MOL0     H97510   3.976   0.779   4.200  1.6410 -0.2113 -0.4897
  707MOL0     H97511   4.001   0.654   4.482 -1.3748  0.3974  1.1908
  707MOL0     H97512   3.956   0.562   4.346  1.1822  1.9960 -0.8468
  707MOL0     H97513   3.775   0.743   4.302  0.9224  0.2712 -0.8281
  707MOL0     H97514   3.749   0.603   4.415  3.3226 -1.2945  2.8878
  707MOL0     H97515   3.719   0.665   4.671 -0.4913  0.1413 -0.5185
  707MOL0     H97516   3.600   1.016   4.824  1.7650  1.1312 -1.1925
  707MOL0     H97517   3.675   0.862   4.895 -2.4227 -1.4396  0.9959
  707MOL0     H97518   3.493   0.740   4.792 -0.4738 -0.1844  0.0053
  707MOL0     H97519   3.435   0.853   4.922 -0.8339 -2.2514 -1.0721
  707MOL0     H97520   3.330   0.982   4.742 -4.6260 -1.1973 -4.4880
  707MOL0     H97521   3.418   0.880   4.611  0.1273 -3.0203 -0.1590
  707MOL0     H97522   3.298   0.682   4.722  0.5890  0.9074  1.9466
  707MOL0     H97523   3.188   0.799   4.780  1.1474 -0.4242 -0.0831
  707MOL0     H97524   3.095   0.781   4.340 -0.8166 -0.1734 -0.6558
  707MOL0     H97525   2.945   0.734   4.158 -0.9609 -0.8109 -0.5625
  707MOL0     H97526   2.767   0.734   4.201 -2.3398 -2.5889  3.3019
  707MOL0     H97527   2.864   0.581   4.191  4.5204  0.0378 -2.1974
  707MOL0     H97528   2.594   0.374   4.290  1.6472  0.2153 -0.4388
  707MOL0     H97529   2.381   0.244   4.236  1.4900 -1.1515  0.1744
  707MOL0     H97530   2.306  -0.055   4.504  1.0651  0.8988  0.8040
  707MOL0     H97531   2.179   0.040   4.591 -3.4693 -0.3420 -0.1658
  707MOL0     H97532   2.112  -0.174   4.491  4.7200 -1.3370  0.3187
  707MOL0     H97533   2.037  -0.049   4.392  0.4496  1.3729  1.3470
  707MOL0     H97534   2.305  -0.195   4.351  0.1460  0.5369  0.5560
  707MOL0     H97535   2.251  -0.071   4.238  0.7710  0.8952  1.4971
  707MOL0     H97536   2.100  -0.333   4.287  0.0139  1.5481  1.4062
  707MOL0     H97537   2.241  -0.307   4.165  1.0535 -2.0078  1.6087
  707MOL0     H97538   1.975  -0.160   4.188 -0.9829 -2.1097 -0.2673
  707MOL0     H97539   2.101  -0.142   4.073 -0.6481  0.7456  1.9922
  707MOL0     H97540   1.942  -0.396   4.124  2.7614  0.5616  1.4857
  707MOL0     H97541   2.043  -0.385   3.986 -0.5277 -1.8550  1.1386
  707MOL0     H97542   1.772  -0.232   4.038 -0.9933  0.1176 -0.8540
  707MOL0     H97543   1.806  -0.369   3.939  1.4675 -0.5181  1.1987
  707MOL0     H97544   1.787  -0.205   3.783 -0.0957 -0.0862  0.3345
  707MOL0     H97545   1.955  -0.255   3.790 -1.1785 -1.6607 -0.3071
  707MOL0     H97546   2.316   0.203   4.670 -0.2006  1.3005  0.6909
  707MOL0     H97547   2.499   0.376   4.694 -1.8507 -1.6684  1.6826
  707MOL0     H97548   2.796   0.583   4.684 -1.0109  0.3978 -0.3522
  707MOL0     H97549   3.012   0.672   4.755  0.7519  0.9194 -0.9219
  707MOL0     H97550   4.511   0.310   3.652  2.3944  1.3964 -1.3813
  707MOL0     H97551   4.501   0.377   3.420 -0.6392  0.0257  0.0428
  707MOL0     H97552   4.385   0.464   3.074  0.7160 -0.0208  0.7619
  707MOL0     H97553   4.395   0.482   2.829  4.4139  2.3224 -1.0851
  707MOL0     H97554   4.525   0.596   2.618  0.4000  2.4999 -3.2396
  707MOL0     H97555   4.364   0.512   2.620  0.4984 -1.0690 -2.4778
  707MOL0     H97556   4.283   0.649   2.430  0.5337  3.5891  1.2046
  707MOL0     H97557   4.434   0.563   2.377 -1.2239  1.3633 -1.6356
  707MOL0     H97558   4.408   0.835   2.484 -3.4192 -3.6958  1.9688
  707MOL0     H97559   4.555   0.772   2.408  0.6903 -2.3083  1.5414
  707MOL0     H97560   4.442   0.939   2.288 -0.3275  0.8330 -0.4984
  707MOL0     H97561   4.294   0.840   2.287  0.8530 -0.1485  1.6496
  707MOL0     H97562   4.474   0.641   1.976  1.5607 -0.1187 -0.0333
  707MOL0     H97563   4.291   0.888   2.833  0.1051 -0.1972 -0.6204
  707MOL0     H97564   4.165   0.903   3.184 -1.1763  0.9271  0.8452
  707MOL0     H97565   4.308   0.983   3.131 -1.3444  0.6830  1.1444
  707MOL0     H97566   4.167   0.963   3.014  0.1300 -3.0600 -1.8501
  708MOL0     O97567   5.316   0.764  10.059 -0.8448  0.2016 -0.1793
  708MOL0     C97568   5.264   0.848   9.983 -0.1840  0.4808 -0.7322
  708MOL0     O97569   5.149   0.914  10.010  0.4414  0.3210  0.4351
  708MOL0     C97570   5.069   0.880  10.116  0.4745  0.4406  0.4742
  708MOL0     C97571   5.113   0.851  10.244 -0.7143  0.2086 -0.0924
  708MOL0     C97572   5.023   0.840  10.347  0.7828 -0.1875  0.4769
  708MOL0     C97573   4.879   0.839  10.323  0.5159  0.1675 -0.2124
  708MOL0     O97574   4.771   0.824  10.416  0.6363 -0.7402  0.0339
  708MOL0     C97575   4.788   0.838  10.555 -0.2470  0.7184  0.1780
  708MOL0     C97576   4.820   0.979  10.598  0.2878  0.0416 -0.5761
  708MOL0     C97577   4.824   0.985  10.755  0.1493  0.7842  0.2329
  708MOL0     C97578   4.894   1.113  10.808 -0.6280 -0.1914 -0.3910
  708MOL0     C97579   4.858   1.165  10.949  0.0312 -0.7789 -0.2187
  708MOL0     C97580   4.710   1.210  10.989 -1.2019  0.2288 -0.1544
  708MOL0     C97581   4.656   1.309  10.889  0.6184  0.6493  0.7950
  708MOL0     C97582   4.504   1.339  10.924 -0.7192  0.5030  0.0119
  708MOL0     N97583   4.504   1.384  11.066  0.2895 -0.5462 -0.4141
  708MOL0     C97584   4.468   1.321  11.185 -0.4765 -0.9675 -0.8004
  708MOL0     C97585   4.476   1.427  11.274  0.4894  0.0130 -1.0406
  708MOL0     C97586   4.425   1.412  11.415  0.1309 -0.3673  0.3499
  708MOL0     C97587   4.346   1.538  11.451 -0.2540  1.0817 -0.3749
  708MOL0     C97588   4.228   1.579  11.359  0.4336 -0.1478 -0.8042
  708MOL0     C97589   4.123   1.475  11.340 -0.8507  0.2120  1.0437
  708MOL0     O97590   4.067   1.429  11.464 -0.4934 -0.2570  0.0947
  708MOL0     C97591   3.966   1.339  11.471 -0.1477 -0.4036  0.0495
  708MOL0     C97592   3.931   1.284  11.592  0.3407  0.3096 -0.8190
  708MOL0     C97593   3.842   1.180  11.614  0.4401  0.1336  0.7009
  708MOL0     C97594   3.814   1.136  11.758 -0.0437  0.5463 -0.4606
  708MOL0     C97595   3.779   1.131  11.497  0.0474  0.1792  0.1252
  708MOL0     C97596   3.694   1.009  11.488  0.0347 -0.5655  0.6534
  708MOL0     O97597   3.623   0.990  11.370 -0.4422 -0.6902  0.1297
  708MOL0     C97598   3.553   0.876  11.342  1.0741  0.3147  0.6677
  708MOL0     C97599   3.456   0.825  11.429 -0.0372 -0.7375  0.3867
  708MOL0     C97600   3.387   0.708  11.394 -0.5112 -0.3061  0.1620
  708MOL0     C97601   3.409   0.648  11.268 -0.8274 -0.6983 -0.5723
  708MOL0     O97602   3.336   0.543  11.229  0.7359  0.5044  0.9109
  708MOL0     C97603   3.315   0.444  11.325 -0.3543  0.0618  0.0313
  708MOL0     C97604   3.273   0.304  11.264 -0.1075 -0.8940 -0.4605
  708MOL0     C97605   3.157   0.304  11.170  0.0657 -0.3134  0.4604
  708MOL0     C97606   3.195   0.325  11.018  0.5510 -0.4119 -0.0690
  708MOL0     C97607   3.076   0.300  10.927 -0.3909 -0.5450  0.1771
  708MOL0     C97608   3.126   0.290  10.780 -0.2370  0.9849  0.1704
  708MOL0     C97609   3.151   0.417  10.700 -0.3318 -0.4427  0.8398
  708MOL0     C97610   3.224   0.537  10.774 -0.8846 -0.5583 -0.7621
  708MOL0    Cl97611   3.262   0.667  10.670  0.4116  0.3770  0.0522
  708MOL0     C97612   3.502   0.710  11.186 -0.0190  0.5859  0.3310
  708MOL0     C97613   3.574   0.816  11.222  0.0213 -0.1242  0.0497
  708MOL0     O97614   3.715   0.921  11.575 -0.2766  0.6305 -0.4878
  708MOL0     C97615   3.821   1.183  11.370  1.5136  0.2768  0.3607
  708MOL0     C97616   3.912   1.278  11.356 -0.1538  0.3393 -0.3710
  708MOL0     N97617   4.539   1.531  11.213  0.1286  0.3618 -0.6632
  708MOL0     N97618   4.552   1.508  11.088  0.2749 -0.5026 -0.0191
  708MOL0     C97619   4.831   0.868  10.200 -0.2109 -0.3819  0.6073
  708MOL0     C97620   4.927   0.888  10.102 -0.1640  0.6553 -0.5977
  708MOL0     C97621   5.342   0.864   9.857  1.0591  0.1082  0.1845
  708MOL0     C97622   5.448   0.763   9.823 -0.1560  0.0404  0.0254
  708MOL0     C97623   5.494   0.757   9.696  0.6244  0.0579 -0.0555
  708MOL0     C97624   5.474   0.861   9.608  0.4051 -1.0007  0.7041
  708MOL0     O97625   5.547   0.884   9.489 -0.1911 -0.1911 -0.2220
  708MOL0     C97626   5.588   0.782   9.407 -0.1771 -0.2733 -0.3875
  708MOL0     C97627   5.473   0.738   9.311 -1.1961  0.6406  0.5419
  708MOL0     C97628   5.463   0.835   9.188  0.9111 -0.6589  0.2836
  708MOL0     C97629   5.376   0.954   9.198  0.1732  0.7277 -0.7587
  708MOL0     C97630   5.363   1.019   9.071 -0.3769 -0.3987  0.1247
  708MOL0     C97631   5.365   1.048   8.949  0.5389  0.3763  0.2986
  708MOL0     C97632   5.389   0.956   9.646 -0.1218  0.6797  0.3542
  708MOL0     C97633   5.315   0.965   9.768 -0.1060 -0.7375 -0.4472
  708MOL0     C97634   5.231   1.085   9.792  0.5130  0.4352 -0.3991
  708MOL0     H97635   5.221   0.854  10.255 -0.4063  0.1934 -2.6526
  708MOL0     H97636   5.063   0.844  10.448 -0.4838  0.8399  0.9621
  708MOL0     H97637   4.867   0.769  10.588 -0.6197  0.0423 -0.3120
  708MOL0     H97638   4.698   0.811  10.610 -1.0144  0.1238 -1.3006
  708MOL0     H97639   4.921   1.010  10.570  1.1363 -0.4635  1.6896
  708MOL0     H97640   4.745   1.049  10.559 -0.3556 -0.0556  0.4559
  708MOL0     H97641   4.720   0.985  10.790  0.6540  1.1026  1.8443
  708MOL0     H97642   4.871   0.896  10.796 -1.5088  0.1248  0.7775
  708MOL0     H97643   5.002   1.103  10.800 -0.7440 -0.5397 -1.6633
  708MOL0     H97644   4.865   1.197  10.744 -0.9144  0.0495  0.0513
  708MOL0     H97645   4.916   1.256  10.967  1.2126 -1.7906  1.3494
  708MOL0     H97646   4.891   1.092  11.024 -3.4113 -2.7696 -0.4233
  708MOL0     H97647   4.644   1.123  10.983  0.3404 -0.9263 -1.1263
  708MOL0     H97648   4.707   1.238  11.095 -2.0118 -2.5177  0.6269
  708MOL0     H97649   4.656   1.253  10.796  2.1829 -1.4740  1.9825
  708MOL0     H97650   4.718   1.399  10.896  1.5237  0.0276  0.9146
  708MOL0     H97651   4.465   1.423  10.866  0.3296  1.1223  0.1779
  708MOL0     H97652   4.444   1.248  10.923  1.8191 -1.2842  0.2500
  708MOL0     H97653   4.414   1.228  11.198  2.9032 -3.2446 -1.6425
  708MOL0     H97654   4.507   1.401  11.486 -2.8942 -0.5760  4.1069
  708MOL0     H97655   4.357   1.327  11.421 -0.4061  0.1352  1.8137
  708MOL0     H97656   4.307   1.523  11.552 -0.8275 -1.2211 -0.8676
  708MOL0     H97657   4.409   1.627  11.455  0.6329  0.4088  2.2876
  708MOL0     H97658   4.174   1.670  11.387  1.1047  0.9967 -2.9429
  708MOL0     H97659   4.276   1.596  11.261  3.8678 -2.9261  0.1800
  708MOL0     H97660   4.050   1.511  11.267  0.7690 -1.2879 -1.4654
  708MOL0     H97661   4.177   1.403  11.276  0.2595  0.4228  1.7235
  708MOL0     H97662   3.972   1.327  11.683  2.4425 -2.3747 -0.3632
  708MOL0     H97663   3.799   1.228  11.817 -0.7623  0.1237  0.0321
  708MOL0     H97664   3.889   1.076  11.811 -1.8348 -1.3128  0.0952
  708MOL0     H97665   3.717   1.086  11.761  0.5748 -0.8179 -1.9343
  708MOL0     H97666   3.430   0.866  11.526 -2.9653 -1.4744 -0.0114
  708MOL0     H97667   3.313   0.677  11.467 -1.3996  0.3778 -0.4281
  708MOL0     H97668   3.416   0.418  11.358 -1.2409 -4.4061 -0.1546
  708MOL0     H97669   3.244   0.476  11.402 -1.1962  0.2624 -0.8071
  708MOL0     H97670   3.363   0.264  11.216 -0.5835  0.3016 -2.4825
  708MOL0     H97671   3.249   0.240  11.348 -0.2789  1.6222  1.5214
  708MOL0     H97672   3.086   0.379  11.205  1.0043  0.4055  0.8711
  708MOL0     H97673   3.105   0.208  11.171 -1.6168  0.2823 -4.3723
  708MOL0     H97674   3.274   0.252  10.997  2.0083 -0.1211  3.6735
  708MOL0     H97675   3.235   0.425  10.999 -2.9107  1.4380  1.4422
  708MOL0     H97676   3.031   0.203  10.950  0.6316 -1.7609 -2.5191
  708MOL0     H97677   3.004   0.380  10.944 -0.9908 -1.0511  0.0342
  708MOL0     H97678   3.062   0.232  10.713  2.4998 -1.4921 -0.4768
  708MOL0     H97679   3.216   0.228  10.782  0.2235  1.6168 -0.5870
  708MOL0     H97680   3.061   0.464  10.657  1.2471  1.6622 -0.3581
  708MOL0     H97681   3.219   0.389  10.620  0.5408  1.2441  0.9453
  708MOL0     H97682   3.318   0.497  10.815 -2.7739 -4.4994  0.2710
  708MOL0     H97683   3.168   0.573  10.860  0.3129 -0.6721  0.0946
  708MOL0     H97684   3.514   0.674  11.084  0.0482 -0.5742  0.7389
  708MOL0     H97685   3.640   0.859  11.147 -0.3564 -0.4261 -0.4572
  708MOL0     H97686   3.782   1.135  11.281  0.0182 -0.7130  1.4956
  708MOL0     H97687   3.953   1.290  11.256 -2.8189 -1.2074 -1.7576
  708MOL0     H97688   4.725   0.871  10.177 -0.2606 -3.0110  0.2668
  708MOL0     H97689   4.894   0.900   9.999 -1.8196 -1.3042 -0.3449
  708MOL0     H97690   5.473   0.687   9.896  0.6630 -0.6507 -0.9417
  708MOL0     H97691   5.558   0.672   9.678  0.0765  0.0063 -1.9710
  708MOL0     H97692   5.680   0.803   9.352  0.2517 -2.7155 -0.7099
  708MOL0     H97693   5.612   0.694   9.468 -1.9362  2.1687  4.3541
  708MOL0     H97694   5.374   0.724   9.356 -1.0410  1.2133  1.0746
  708MOL0     H97695   5.508   0.646   9.264 -3.4851 -0.4787  0.8625
  708MOL0     H97696   5.564   0.862   9.157  1.2836 -2.2647  0.0157
  708MOL0     H97697   5.419   0.774   9.109  4.1852 -3.6577  0.5065
  708MOL0     H97698   5.430   1.020   9.267 -0.6792  1.5545 -0.8642
  708MOL0     H97699   5.276   0.920   9.228  1.7911 -2.5299  1.4739
  708MOL0     H97700   5.370   1.075   8.845  0.2203  3.1836  0.9184
  708MOL0     H97701   5.376   1.041   9.580 -0.6739  0.2875 -0.0636
  708MOL0     H97702   5.235   1.113   9.897 -0.3548 -2.0612  0.3743
  708MOL0     H97703   5.236   1.169   9.722  0.7408  0.2563 -0.6021
  708MOL0     H97704   5.130   1.046   9.777  1.7185 -2.3787 -2.0296
  709MOL0     O97705   6.939  11.272   9.222  0.7204 -0.2239 -0.3132
  709MOL0     C97706   7.042  11.346   9.219  0.3311  0.4139  0.2760
  709MOL0     O97707   7.043  11.471   9.173  0.2590  0.1998 -0.6317
  709MOL0     C97708   6.918  11.531   9.139 -0.0060  0.5986  0.0642
  709MOL0     C97709   6.809  11.551   9.231 -0.0535  0.2231 -0.0913
  709MOL0     C97710   6.686  11.619   9.182  0.2959  0.7138  0.2104
  709MOL0     C97711   6.674  11.640   9.047 -0.8578 -0.8048  0.2672
  709MOL0     O97712   6.548  11.691   9.009 -0.0700  0.0768  0.0068
  709MOL0     C97713   6.495  11.668   8.883  0.7071 -0.2629  0.4498
  709MOL0     C97714   6.339  11.652   8.880 -0.5363  0.2678  0.3516
  709MOL0     C97715   6.275  11.725   8.772  0.3409  0.2088  0.1292
  709MOL0     C97716   6.295  11.675   8.623  0.2779  0.0273  0.0495
  709MOL0     C97717   6.236  11.763   8.517 -1.1775 -0.4585 -0.5742
  709MOL0     C97718   6.257  11.705   8.377 -0.6864  0.5220 -0.0552
  709MOL0     C97719   6.157  11.751   8.276  0.1515 -1.1936 -0.3237
  709MOL0     C97720   6.140  11.907   8.257 -0.0290  0.2113 -0.1509
  709MOL0     N97721   6.267  11.964   8.203 -0.3843 -0.3488  0.0651
  709MOL0     C97722   6.296  11.960   8.063 -0.5801  0.4350 -0.3504
  709MOL0     C97723   6.401  12.040   8.045 -0.1850  1.4161  0.9328
  709MOL0     C97724   6.465  12.065   7.903  0.1759  0.3177 -0.0863
  709MOL0     C97725   6.606  12.016   7.919  0.3430  0.6254  0.0821
  709MOL0     C97726   6.664  11.986   7.771 -0.1875 -0.7563 -0.5748
  709MOL0     C97727   6.688  12.126   7.696  0.7582 -0.1420 -0.0848
  709MOL0     O97728   6.697  12.092   7.560 -0.1928 -0.1199  0.1836
  709MOL0     C97729   6.692  12.196   7.469 -0.6883 -0.2145 -0.0593
  709MOL0     C97730   6.803  12.210   7.385  0.7164 -0.4147  0.0360
  709MOL0     C97731   6.815  12.309   7.286 -0.2539 -0.7072  0.7695
  709MOL0     C97732   6.919  12.291   7.173  0.6687  0.4311 -0.1165
  709MOL0     C97733   6.717  12.407   7.287  0.6546 -0.0074  0.1292
  709MOL0     C97734   6.711  12.521   7.197  0.1057  0.2596 -0.4845
  709MOL0     O97735   6.831  12.557   7.154  0.4057 -0.0295 -0.4427
  709MOL0     C97736   6.846  12.660   7.066 -0.6449 -0.4883  0.5611
  709MOL0     C97737   6.865  12.631   6.929 -0.5805 -0.2805  0.3739
  709MOL0     C97738   6.878  12.745   6.841 -0.6144 -0.2817  0.0120
  709MOL0     C97739   6.889  12.872   6.892 -0.3551 -0.1352 -0.1535
  709MOL0     O97740   6.922  12.971   6.809  0.5456 -1.1088  1.4562
  709MOL0     C97741   6.814  13.041   6.732 -0.3417 -0.1315  0.6843
  709MOL0     C97742   6.878  13.087   6.596  0.1337 -0.8472  0.1732
  709MOL0     C97743   6.771  13.169   6.523  0.1480  0.5498 -0.8355
  709MOL0     C97744   6.789  13.192   6.377 -0.3758 -1.1390 -1.7535
  709MOL0     C97745   6.692  13.311   6.342 -0.2857  0.3031 -0.0259
  709MOL0     C97746   6.707  13.347   6.186  0.0719 -0.4521 -1.2878
  709MOL0     C97747   6.622  13.459   6.140  0.2105  0.1189  0.9924
  709MOL0     C97748   6.477  13.438   6.134  0.1412  0.9770  0.0028
  709MOL0    Cl97749   6.443  13.295   6.036 -0.0751 -0.0086  0.1232
  709MOL0     C97750   6.868  12.901   7.028 -0.0160 -0.0030 -0.2456
  709MOL0     C97751   6.846  12.793   7.109 -0.2619 -0.3120  0.5055
  709MOL0     O97752   6.601  12.563   7.159 -0.0038 -0.2546  1.0738
  709MOL0     C97753   6.614  12.396   7.380  0.0067 -0.2979  0.3447
  709MOL0     C97754   6.595  12.292   7.472 -0.4984 -0.3397  0.6412
  709MOL0     N97755   6.436  12.097   8.163  0.0941  0.3422 -0.6935
  709MOL0     N97756   6.358  12.056   8.254 -0.4138 -0.2151 -0.7457
  709MOL0     C97757   6.781  11.610   8.951  0.4433  0.0300  0.2713
  709MOL0     C97758   6.898  11.567   9.009 -0.6008 -0.0523 -0.3693
  709MOL0     C97759   7.167  11.285   9.269  0.1615 -0.0897  0.7643
  709MOL0     C97760   7.287  11.308   9.198  0.5101 -0.0687 -0.3896
  709MOL0     C97761   7.402  11.247   9.243  0.7353  0.2877 -0.0813
  709MOL0     C97762   7.408  11.164   9.356  0.2822 -0.5664  0.3622
  709MOL0     O97763   7.524  11.114   9.386 -0.7051 -0.2422 -0.3895
  709MOL0     C97764   7.560  11.055   9.510  0.6180  0.7001 -0.0243
  709MOL0     C97765   7.695  11.107   9.571 -0.3758 -0.2018  0.2786
  709MOL0     C97766   7.815  11.083   9.479 -0.7512 -1.0534  0.4272
  709MOL0     C97767   7.927  11.141   9.553 -0.0573 -0.1563  0.2673
  709MOL0     C97768   7.972  11.070   9.670 -0.4155  0.1531  0.0358
  709MOL0     C97769   8.016  11.024   9.774 -0.1732  0.3564  0.5689
  709MOL0     C97770   7.285  11.145   9.431 -1.2589 -0.3415  0.2478
  709MOL0     C97771   7.161  11.199   9.385 -0.5934  0.1481 -0.3679
  709MOL0     C97772   7.038  11.140   9.454  0.0126 -0.5106 -1.2728
  709MOL0     H97773   6.827  11.518   9.333 -0.1531  0.8022  0.1192
  709MOL0     H97774   6.602  11.632   9.250  1.0373 -0.4048  1.4068
  709MOL0     H97775   6.536  11.585   8.825  0.4748  0.3585 -0.6413
  709MOL0     H97776   6.504  11.766   8.836 -3.2498  0.1806  0.3537
  709MOL0     H97777   6.311  11.548   8.862  0.1620  0.4045 -1.7806
  709MOL0     H97778   6.296  11.677   8.978 -0.0502  0.1257  0.6079
  709MOL0     H97779   6.167  11.720   8.784  0.3889 -0.3708  0.3670
  709MOL0     H97780   6.309  11.828   8.783  2.4655 -0.4319  0.1652
  709MOL0     H97781   6.400  11.657   8.598  1.4330  1.2630  3.3494
  709MOL0     H97782   6.240  11.581   8.614  1.4049 -0.5170 -1.3959
  709MOL0     H97783   6.278  11.864   8.519  0.6970 -1.0296 -4.0505
  709MOL0     H97784   6.129  11.762   8.536 -0.9249 -0.4176  1.0158
  709MOL0     H97785   6.360  11.721   8.343  1.0620 -1.0545  3.8438
  709MOL0     H97786   6.248  11.596   8.380  0.2791  0.4300  0.0377
  709MOL0     H97787   6.061  11.705   8.303 -0.1190  1.3302  3.8254
  709MOL0     H97788   6.188  11.708   8.180  0.6158  0.8104 -1.1247
  709MOL0     H97789   6.058  11.938   8.192  0.3014  0.9276 -0.2389
  709MOL0     H97790   6.121  11.948   8.357 -2.5126 -1.3365  0.0970
  709MOL0     H97791   6.236  11.902   7.995  1.4267  0.7683 -2.5190
  709MOL0     H97792   6.470  12.173   7.887  0.9116  0.1251 -1.2527
  709MOL0     H97793   6.405  12.010   7.830  0.6162  0.4878 -0.5848
  709MOL0     H97794   6.660  12.092   7.975 -3.0082  1.0264  3.1068
  709MOL0     H97795   6.606  11.926   7.981 -3.8776 -0.2825 -0.9100
  709MOL0     H97796   6.763  11.942   7.785 -0.2609 -0.5085  0.9276
  709MOL0     H97797   6.599  11.915   7.720  1.7449 -0.5717 -3.5431
  709MOL0     H97798   6.609  12.198   7.715  2.1182  1.6843 -1.0421
  709MOL0     H97799   6.780  12.173   7.731  2.0283 -1.3268 -1.6492
  709MOL0     H97800   6.882  12.137   7.372  0.6401 -0.4383 -0.3327
  709MOL0     H97801   7.006  12.352   7.197  2.6049 -0.8960 -3.2339
  709MOL0     H97802   6.884  12.326   7.075 -1.6665  3.5925  1.6222
  709MOL0     H97803   6.952  12.187   7.166  0.9613  0.5065  0.1140
  709MOL0     H97804   6.848  12.528   6.898 -3.1759 -0.3029  1.5238
  709MOL0     H97805   6.883  12.733   6.734 -2.5691  0.6104 -0.2290
  709MOL0     H97806   6.730  12.973   6.717 -1.5588  1.2127  1.1418
  709MOL0     H97807   6.787  13.130   6.790  0.0264 -1.2575  2.6860
  709MOL0     H97808   6.954  13.163   6.615 -1.4766  0.9042 -0.1272
  709MOL0     H97809   6.918  13.006   6.534  3.0135  0.3310  0.3222
  709MOL0     H97810   6.770  13.270   6.564  3.3226  0.3576 -0.0598
  709MOL0     H97811   6.678  13.111   6.536 -0.0298  0.1805 -3.3429
  709MOL0     H97812   6.775  13.100   6.319 -1.6483  0.2648 -3.7981
  709MOL0     H97813   6.894  13.215   6.355  0.6677 -3.5382  0.2449
  709MOL0     H97814   6.589  13.278   6.361 -0.8497  1.8701 -0.2427
  709MOL0     H97815   6.719  13.397   6.404  1.7716 -0.5609  0.3538
  709MOL0     H97816   6.682  13.254   6.134 -0.7449 -2.4747  2.3853
  709MOL0     H97817   6.810  13.378   6.166 -0.2574  2.3571  0.7823
  709MOL0     H97818   6.655  13.494   6.041  0.0464 -2.7807 -0.1673
  709MOL0     H97819   6.641  13.548   6.202  1.0233  1.3421 -0.8988
  709MOL0     H97820   6.426  13.528   6.098 -0.3113  0.6951 -0.0738
  709MOL0     H97821   6.444  13.412   6.235 -1.1576  0.0367 -0.6385
  709MOL0     H97822   6.852  13.003   7.061 -2.9704 -1.0445  1.9993
  709MOL0     H97823   6.813  12.811   7.211 -1.0853  1.8172 -0.0686
  709MOL0     H97824   6.535  12.471   7.384  0.7369  0.4547  3.0079
  709MOL0     H97825   6.511  12.302   7.540  0.6278  2.4392  1.7854
  709MOL0     H97826   6.773  11.638   8.847 -0.2468 -3.7094 -0.8260
  709MOL0     H97827   6.979  11.550   8.939 -3.2185 -3.9570 -2.8215
  709MOL0     H97828   7.300  11.376   9.115 -1.4488 -0.4637 -1.0701
  709MOL0     H97829   7.501  11.268   9.205 -0.1606  0.9719 -2.2021
  709MOL0     H97830   7.474  11.064   9.577  0.5215 -0.8685  0.0909
  709MOL0     H97831   7.567  10.947   9.493 -1.7692  0.7408 -1.8205
  709MOL0     H97832   7.705  11.041   9.658 -0.3074  2.8575  2.7663
  709MOL0     H97833   7.677  11.209   9.607 -0.7009  0.1518 -0.8552
  709MOL0     H97834   7.819  10.981   9.442 -0.7796 -0.6872 -0.6312
  709MOL0     H97835   7.809  11.144   9.388  0.0812 -1.8809 -0.1909
  709MOL0     H97836   7.912  11.241   9.594  0.9871 -0.6611  1.9937
  709MOL0     H97837   8.011  11.148   9.483  0.2594 -2.4184  0.3365
  709MOL0     H97838   8.071  10.982   9.856  0.5769 -1.6726 -0.8829
  709MOL0     H97839   7.285  11.066   9.506  0.1286 -1.9739 -1.3636
  709MOL0     H97840   6.993  11.042   9.435 -2.0386  0.0449  0.3662
  709MOL0     H97841   7.055  11.153   9.562  1.4834  0.6511 -1.6115
  709MOL0     H97842   6.956  11.211   9.445 -0.1218 -0.7199 -1.6832
  710MOL0     O97843   4.568   6.087   6.200 -0.5475 -0.2201  0.0250
  710MOL0     C97844   4.577   6.114   6.320  0.6569 -1.0806 -0.2768
  710MOL0     O97845   4.477   6.166   6.389 -0.6527  0.1969  0.1377
  710MOL0     C97846   4.357   6.202   6.330  0.7653  0.8706  0.1891
  710MOL0     C97847   4.341   6.280   6.218  0.7451  0.3413  0.5379
  710MOL0     C97848   4.213   6.314   6.177 -0.1734 -0.7415 -0.5930
  710MOL0     C97849   4.102   6.264   6.232  0.0073  0.3200 -0.2139
  710MOL0     O97850   3.978   6.298   6.184 -0.0125 -0.0024 -0.2195
  710MOL0     C97851   3.900   6.367   6.278 -0.2416 -0.3582  0.2040
  710MOL0     C97852   3.946   6.526   6.299 -0.1484 -0.2164 -0.1456
  710MOL0     C97853   4.059   6.555   6.400 -0.1416  0.2101  0.9411
  710MOL0     C97854   4.076   6.700   6.435 -0.0994  0.7783  0.4707
  710MOL0     C97855   4.152   6.768   6.322 -0.3060  0.0415 -0.1432
  710MOL0     C97856   4.188   6.907   6.376  0.4236 -0.8462 -0.0232
  710MOL0     C97857   4.334   6.897   6.427 -0.8001 -0.2892  0.4525
  710MOL0     C97858   4.390   7.031   6.469  0.2039 -0.4441 -0.3580
  710MOL0     N97859   4.530   7.014   6.499  0.4286  0.7416  0.1120
  710MOL0     C97860   4.628   6.997   6.401 -0.1936 -0.6889 -0.5319
  710MOL0     C97861   4.739   6.955   6.481 -0.1924 -0.0003  0.8395
  710MOL0     C97862   4.881   6.926   6.436 -1.2124 -0.1880  0.0894
  710MOL0     C97863   4.992   6.982   6.527  0.1592  0.2692 -0.4609
  710MOL0     C97864   5.135   6.938   6.489  0.0721 -1.4775  0.3695
  710MOL0     C97865   5.238   6.952   6.597  0.4664 -0.0866 -0.2278
  710MOL0     O97866   5.215   7.080   6.666 -0.9921  0.5097  0.0333
  710MOL0     C97867   5.144   7.066   6.780 -0.2393 -1.0045 -0.1545
  710MOL0     C97868   5.047   7.164   6.808  0.3294  0.7790  0.3087
  710MOL0     C97869   4.969   7.159   6.927 -0.5852 -1.1412 -0.1014
  710MOL0     C97870   4.868   7.273   6.935  0.1734  0.2371  0.2643
  710MOL0     C97871   5.001   7.064   7.023  0.3777  1.1370  0.5610
  710MOL0     C97872   4.939   7.050   7.159 -0.0570 -0.2624  0.1692
  710MOL0     O97873   4.960   6.930   7.221 -0.1491  0.0480 -0.1726
  710MOL0     C97874   4.861   6.902   7.310 -1.4428  0.2538 -0.3275
  710MOL0     C97875   4.748   6.833   7.275  0.1777  0.3435 -0.7959
  710MOL0     C97876   4.644   6.798   7.363 -0.1630 -0.7026 -0.6501
  710MOL0     C97877   4.646   6.849   7.495  0.3010  0.1642 -0.4276
  710MOL0     O97878   4.527   6.839   7.573 -0.7496 -0.6186  0.7688
  710MOL0     C97879   4.542   6.840   7.712  1.4050  0.1824 -0.5639
  710MOL0     C97880   4.410   6.780   7.777  0.4275 -0.2580 -0.0070
  710MOL0     C97881   4.418   6.624   7.781  0.0038 -0.2868 -0.6841
  710MOL0     C97882   4.404   6.567   7.635  0.1707 -0.4589 -0.1613
  710MOL0     C97883   4.317   6.442   7.623 -0.9081  0.0379 -0.2454
  710MOL0     C97884   4.404   6.322   7.675 -0.0621 -0.5537  0.5712
  710MOL0     C97885   4.321   6.187   7.670 -0.2299  0.2066 -0.2807
  710MOL0     C97886   4.416   6.071   7.701  0.1458 -0.2340  0.1228
  710MOL0    Cl97887   4.538   6.060   7.571  0.4586 -0.0689  0.1326
  710MOL0     C97888   4.753   6.921   7.528 -0.6411 -0.1307  0.0852
  710MOL0     C97889   4.861   6.953   7.442 -0.8740 -0.5179 -0.3892
  710MOL0     O97890   4.868   7.136   7.206  0.6075 -0.4361  0.7614
  710MOL0     C97891   5.114   6.978   7.002  0.1103 -0.2780  0.4951
  710MOL0     C97892   5.173   6.976   6.880 -0.7994 -1.3844 -0.3957
  710MOL0     N97893   4.702   6.931   6.609  0.5407 -0.2194 -0.4336
  710MOL0     N97894   4.569   6.966   6.623  0.0105 -1.0812 -0.1305
  710MOL0     C97895   4.119   6.176   6.341  1.0637 -0.1220  0.0421
  710MOL0     C97896   4.241   6.149   6.394 -0.5034  0.4464  0.4232
  710MOL0     C97897   4.711   6.117   6.392  0.8944 -0.5434 -0.1493
  710MOL0     C97898   4.709   6.139   6.532 -0.3550 -0.1151 -1.2976
  710MOL0     C97899   4.826   6.131   6.612  0.4486  1.0632  0.7760
  710MOL0     C97900   4.946   6.086   6.555  0.3622  0.2127  0.5533
  710MOL0     O97901   5.062   6.067   6.630 -0.0917  0.0260  0.5398
  710MOL0     C97902   5.067   6.130   6.763  0.1970 -0.3057 -0.0650
  710MOL0     C97903   5.202   6.103   6.826  0.7785 -0.2535  0.0651
  710MOL0     C97904   5.202   6.208   6.938  0.1406 -0.2606  0.9496
  710MOL0     C97905   5.326   6.205   7.027  0.5623  0.4116 -1.1319
  710MOL0     C97906   5.459   6.178   6.972  0.3829  0.5416  0.3617
  710MOL0     C97907   5.559   6.171   6.906 -0.3163 -0.2714 -0.3248
  710MOL0     C97908   4.944   6.053   6.420 -0.9478 -0.4202 -1.5128
  710MOL0     C97909   4.836   6.069   6.335 -0.4861 -0.6383  0.0595
  710MOL0     C97910   4.853   6.049   6.186 -0.7030 -0.8896 -0.4147
  710MOL0     H97911   4.437   6.314   6.179  0.9357 -0.7378  0.0178
  710MOL0     H97912   4.196   6.383   6.096 -0.2509  0.5224  0.4691
  710MOL0     H97913   3.901   6.318   6.376 -1.2638  2.7485  1.8992
  710MOL0     H97914   3.793   6.368   6.257 -0.4565  0.8451  1.2241
  710MOL0     H97915   3.958   6.578   6.204 -3.0999  0.6746 -0.1458
  710MOL0     H97916   3.859   6.575   6.344  0.9759  1.7470  0.0075
  710MOL0     H97917   4.029   6.509   6.495 -1.0375 -2.0861 -0.3523
  710MOL0     H97918   4.145   6.498   6.363  1.2829  1.1995  2.5931
  710MOL0     H97919   3.978   6.746   6.445 -0.3374  0.8056 -1.5199
  710MOL0     H97920   4.127   6.716   6.530 -1.4092 -0.5862  1.4296
  710MOL0     H97921   4.096   6.768   6.228 -2.9693 -1.1942  1.2995
  710MOL0     H97922   4.242   6.718   6.284 -0.1951 -0.5874  0.9071
  710MOL0     H97923   4.179   6.982   6.297  4.5767 -0.3134 -0.2475
  710MOL0     H97924   4.130   6.939   6.463 -1.6665 -1.1130 -1.2688
  710MOL0     H97925   4.395   6.849   6.351 -0.8549  0.3559 -0.0027
  710MOL0     H97926   4.343   6.833   6.516 -1.4199 -0.2777  0.5304
  710MOL0     H97927   4.372   7.108   6.393 -2.0324  2.1378  2.5193
  710MOL0     H97928   4.341   7.069   6.559 -0.4468 -0.7329 -0.5844
  710MOL0     H97929   4.641   7.022   6.296  1.1110 -0.6699 -0.3869
  710MOL0     H97930   4.898   6.955   6.332  0.3478  0.0584  0.3813
  710MOL0     H97931   4.888   6.817   6.434 -0.2789 -0.1219 -1.2653
  710MOL0     H97932   4.987   7.091   6.533 -0.0548  0.3526 -1.8641
  710MOL0     H97933   4.962   6.947   6.627  0.8519  3.8241  1.1550
  710MOL0     H97934   5.142   6.838   6.444 -1.4659 -1.0776 -0.8566
  710MOL0     H97935   5.177   6.993   6.404 -4.1503  1.0655 -0.3681
  710MOL0     H97936   5.231   6.871   6.671  1.1833  1.9346  2.1966
  710MOL0     H97937   5.342   6.950   6.563  1.0851  0.2451  1.5426
  710MOL0     H97938   5.048   7.254   6.746  0.7665 -0.0547 -0.9237
  710MOL0     H97939   4.888   7.358   6.868 -0.4475  1.3414  1.4208
  710MOL0     H97940   4.868   7.324   7.032 -2.4255 -1.4638  1.2789
  710MOL0     H97941   4.764   7.245   6.913 -0.0114  1.5554 -0.7156
  710MOL0     H97942   4.747   6.794   7.173 -1.6737  2.5597 -1.7247
  710MOL0     H97943   4.561   6.738   7.328 -0.1049 -0.4206 -1.2830
  710MOL0     H97944   4.632   6.790   7.749  2.5554  0.7651 -2.4275
  710MOL0     H97945   4.548   6.942   7.752 -1.0238 -0.7967  2.7166
  710MOL0     H97946   4.409   6.813   7.881  3.2232 -0.6012  0.2155
  710MOL0     H97947   4.328   6.819   7.717 -0.1952 -1.6463 -0.1051
  710MOL0     H97948   4.333   6.588   7.841  0.4722  1.1972  0.9565
  710MOL0     H97949   4.507   6.585   7.830 -0.4486  1.4285  1.7000
  710MOL0     H97950   4.500   6.546   7.587  0.9693  2.1778  0.1190
  710MOL0     H97951   4.350   6.640   7.574 -2.2876 -1.0442  1.1596
  710MOL0     H97952   4.223   6.449   7.678 -0.6628  2.3931 -0.0237
  710MOL0     H97953   4.308   6.416   7.518 -1.6463 -0.8699  0.0324
  710MOL0     H97954   4.443   6.341   7.775  2.9642  1.3309 -0.8175
  710MOL0     H97955   4.491   6.308   7.610  1.3500 -0.8307  2.4240
  710MOL0     H97956   4.269   6.177   7.574 -1.3331  1.3189  0.1836
  710MOL0     H97957   4.244   6.199   7.746 -1.4892 -2.1140 -1.0606
  710MOL0     H97958   4.357   5.979   7.697 -0.8196  0.4078 -2.8548
  710MOL0     H97959   4.462   6.094   7.798  2.8591 -1.8113 -0.6785
  710MOL0     H97960   4.759   6.961   7.629 -3.8110 -2.5302  1.4047
  710MOL0     H97961   4.944   7.022   7.456 -0.2398 -1.2438 -0.4514
  710MOL0     H97962   5.155   6.923   7.087 -0.0781 -1.1527  0.0375
  710MOL0     H97963   5.265   6.920   6.863  0.2373 -0.9367  3.0086
  710MOL0     H97964   4.031   6.138   6.394  2.1448  0.8449  2.6951
  710MOL0     H97965   4.242   6.092   6.486 -1.0522  0.0824  0.2074
  710MOL0     H97966   4.616   6.171   6.578 -0.3711 -0.1891 -1.2780
  710MOL0     H97967   4.829   6.168   6.714  4.2581  2.4914  0.2955
  710MOL0     H97968   5.064   6.238   6.743  2.7387 -0.3569 -1.0383
  710MOL0     H97969   4.982   6.107   6.828 -0.7938  2.3642 -0.2956
  710MOL0     H97970   5.280   6.113   6.750  0.1348 -0.4645 -0.6401
  710MOL0     H97971   5.196   6.002   6.868 -2.7404  0.0696  0.6974
  710MOL0     H97972   5.194   6.309   6.896 -2.9301  1.0994  4.2933
  710MOL0     H97973   5.110   6.203   6.997  1.1456 -1.1754  2.5120
  710MOL0     H97974   5.323   6.135   7.111  2.0186  1.6346 -0.0059
  710MOL0     H97975   5.332   6.307   7.067 -0.6804 -0.2284  0.7717
  710MOL0     H97976   5.650   6.161   6.852  0.3933  0.0555  0.7776
  710MOL0     H97977   5.034   6.006   6.380  1.1718  0.6684  1.5952
  710MOL0     H97978   4.959   6.060   6.159  0.0055  1.6042  2.7386
  710MOL0     H97979   4.827   5.945   6.163  1.3616 -1.4190 -0.5586
  710MOL0     H97980   4.801   6.120   6.122 -0.3528 -0.0826  0.1740
  711MOL0     O97981   5.202   0.394   3.222 -0.2958 -0.6473  0.2180
  711MOL0     C97982   5.153   0.329   3.127 -0.5831 -1.1760  0.0616
  711MOL0     O97983   5.139   0.191   3.124  0.3011 -0.8369  0.4963
  711MOL0     C97984   5.133   0.113   3.239  0.4823  0.4301 -0.2896
  711MOL0     C97985   5.150  -0.024   3.217 -0.0402  0.0029  0.0962
  711MOL0     C97986   5.111  -0.122   3.315 -0.7585 -0.1201 -0.6402
  711MOL0     C97987   5.072  -0.082   3.439  0.2493  1.4378 -1.1159
  711MOL0     O97988   5.037  -0.162   3.541 -0.3623  0.1914 -0.2424
  711MOL0     C97989   5.008  -0.302   3.504  0.0953 -0.7594  0.4096
  711MOL0     C97990   4.946  -0.374   3.621  0.0791 -0.1305  0.7418
  711MOL0     C97991   4.930  -0.525   3.592 -0.0427  0.2142  0.0868
  711MOL0     C97992   4.854  -0.578   3.714  0.4040  0.3533 -0.0099
  711MOL0     C97993   4.793  -0.716   3.689  0.5650  0.7037  0.5108
  711MOL0     C97994   4.692  -0.711   3.569 -0.2528  0.9442  0.1783
  711MOL0     C97995   4.605  -0.838   3.541  0.1653  0.3065 -0.4336
  711MOL0     C97996   4.681  -0.967   3.480 -0.5355  1.1930  0.5861
  711MOL0     N97997   4.758  -0.940   3.359  1.2639 -0.2794  0.0892
  711MOL0     C97998   4.894  -0.906   3.367  1.0607 -0.4534  0.1034
  711MOL0     C97999   4.930  -0.889   3.233 -0.1058 -0.6247  0.7582
  711MOL0     C98000   5.070  -0.869   3.178 -0.9245  0.0021  1.2112
  711MOL0     C98001   5.081  -0.730   3.100 -0.1020  0.9087 -1.2525
  711MOL0     C98002   5.038  -0.607   3.166  0.1508 -0.1791 -0.0841
  711MOL0     C98003   4.877  -0.590   3.186 -1.2501 -0.1375 -1.3878
  711MOL0     O98004   4.850  -0.448   3.210  0.9558 -0.0413  0.8814
  711MOL0     C98005   4.838  -0.359   3.102  0.3842 -1.0822 -0.2120
  711MOL0     C98006   4.822  -0.215   3.128  0.0472  0.2725 -0.2165
  711MOL0     C98007   4.837  -0.113   3.024  0.2626 -0.7558  0.2621
  711MOL0     C98008   4.852   0.031   3.060 -0.3415  0.6547  0.8175
  711MOL0     C98009   4.856  -0.152   2.885 -0.0553 -0.6379  0.6864
  711MOL0     C98010   4.863  -0.061   2.763  0.0717  0.5899 -0.1100
  711MOL0     O98011   4.881  -0.120   2.638  0.1408  0.3899 -0.0975
  711MOL0     C98012   4.884  -0.051   2.524 -0.3573  0.4406 -0.9072
  711MOL0     C98013   4.825  -0.119   2.416  0.2108  0.2000 -0.9479
  711MOL0     C98014   4.836  -0.085   2.285 -0.2649 -1.2842 -0.1064
  711MOL0     C98015   4.895   0.039   2.256 -1.0114 -0.1067 -0.4886
  711MOL0     O98016   4.910   0.082   2.120  0.5975 -0.2951 -0.8781
  711MOL0     C98017   5.048   0.056   2.081  0.4166  0.2324  0.4433
  711MOL0     C98018   5.062  -0.094   2.044 -0.1207  0.4189 -0.0327
  711MOL0     C98019   4.969  -0.129   1.927  0.4692 -0.9240  0.2669
  711MOL0     C98020   5.001  -0.276   1.890 -0.0828 -0.2229  0.2647
  711MOL0     C98021   4.899  -0.319   1.783 -1.0241  0.3987  0.6622
  711MOL0     C98022   4.772  -0.360   1.852 -0.1714  0.4424  0.9194
  711MOL0     C98023   4.667  -0.424   1.757  0.0249  0.0466 -0.4405
  711MOL0     C98024   4.517  -0.441   1.809 -0.2635 -0.1088 -0.2668
  711MOL0    Cl98025   4.534  -0.573   1.931  0.0520 -0.1518  0.4724
  711MOL0     C98026   4.957   0.105   2.364 -0.5268  0.2601  0.6135
  711MOL0     C98027   4.948   0.065   2.495 -0.2797  0.5178 -0.6119
  711MOL0     O98028   4.860   0.060   2.777 -0.1357 -0.5467  0.3331
  711MOL0     C98029   4.867  -0.296   2.862  0.1055  0.1400 -0.4347
  711MOL0     C98030   4.846  -0.394   2.967  0.5420  0.5211  0.6440
  711MOL0     N98031   4.818  -0.896   3.148 -0.9515  0.0234  0.3720
  711MOL0     N98032   4.718  -0.935   3.228 -0.1945 -0.6630 -0.4992
  711MOL0     C98033   5.053   0.052   3.472  0.3082 -0.3088  0.2754
  711MOL0     C98034   5.079   0.145   3.363  0.2245 -0.4379 -0.1226
  711MOL0     C98035   5.115   0.401   2.995 -0.2025  0.2484 -0.5287
  711MOL0     C98036   5.083   0.314   2.883  1.2908  0.0179 -0.2312
  711MOL0     C98037   5.046   0.367   2.760 -0.0364  0.0963  0.5282
  711MOL0     C98038   5.042   0.506   2.748 -0.2371  0.0834 -0.2782
  711MOL0     O98039   4.999   0.560   2.638 -0.0827 -0.1670  0.2899
  711MOL0     C98040   5.078   0.535   2.519  0.1724 -0.0017  0.4806
  711MOL0     C98041   5.204   0.626   2.524 -0.2864 -0.6245  0.1875
  711MOL0     C98042   5.321   0.587   2.430 -0.2680  0.1862 -0.0176
  711MOL0     C98043   5.433   0.699   2.412 -1.0796  0.0177  0.0213
  711MOL0     C98044   5.569   0.643   2.381 -0.2022 -1.0591  0.1473
  711MOL0     C98045   5.684   0.612   2.349 -0.2577 -0.1117  0.1341
  711MOL0     C98046   5.073   0.590   2.853  0.2976 -0.0212  0.0604
  711MOL0     C98047   5.119   0.544   2.977  0.5373  0.0891  0.8357
  711MOL0     C98048   5.128   0.638   3.100  1.7289 -0.6759  0.0566
  711MOL0     H98049   5.179  -0.073   3.124 -2.0131 -2.8376  0.8408
  711MOL0     H98050   5.114  -0.228   3.293 -3.6734 -0.0035 -2.1234
  711MOL0     H98051   5.102  -0.350   3.476  2.0762  2.4701  0.9357
  711MOL0     H98052   4.932  -0.305   3.425  0.2723  0.3211  0.1813
  711MOL0     H98053   5.005  -0.364   3.712  0.4518  1.4928  0.3368
  711MOL0     H98054   4.845  -0.335   3.634 -0.1028 -0.2448 -0.2666
  711MOL0     H98055   4.876  -0.531   3.498 -1.3656  1.0010  0.7690
  711MOL0     H98056   5.032  -0.565   3.585  0.8183  2.0411  1.3308
  711MOL0     H98057   4.929  -0.591   3.793  2.7318 -0.4077 -2.1943
  711MOL0     H98058   4.770  -0.517   3.746  0.9536  1.8263 -1.2396
  711MOL0     H98059   4.755  -0.748   3.786  0.4073 -0.4697  0.0823
  711MOL0     H98060   4.876  -0.784   3.666 -2.8133 -3.2185 -1.2530
  711MOL0     H98061   4.618  -0.633   3.591 -2.6199 -1.7150  2.5733
  711MOL0     H98062   4.737  -0.676   3.476 -2.6176  1.4075 -0.8675
  711MOL0     H98063   4.520  -0.806   3.479  1.4364  0.9993 -1.9059
  711MOL0     H98064   4.560  -0.869   3.635  2.4704 -0.1829  0.5902
  711MOL0     H98065   4.745  -1.007   3.560  1.3171 -0.7102 -1.6962
  711MOL0     H98066   4.602  -1.040   3.461 -0.0681  1.1689 -1.4547
  711MOL0     H98067   4.967  -0.913   3.447  1.2820  2.3536  0.2686
  711MOL0     H98068   5.113  -0.956   3.128 -1.1731 -1.3349  3.2110
  711MOL0     H98069   5.149  -0.861   3.254  1.6968  0.5320 -1.3500
  711MOL0     H98070   5.182  -0.713   3.061 -0.0938 -0.7486 -2.0722
  711MOL0     H98071   5.013  -0.739   3.014 -2.4311  4.9859 -0.0916
  711MOL0     H98072   5.094  -0.599   3.259  0.2803  0.4017 -0.2077
  711MOL0     H98073   5.075  -0.532   3.095 -2.9706  0.5807 -1.0540
  711MOL0     H98074   4.823  -0.622   3.097  1.3404 -5.9510 -1.2716
  711MOL0     H98075   4.846  -0.644   3.276 -1.1477  2.2615  0.1832
  711MOL0     H98076   4.806  -0.190   3.232  0.7931 -1.2856  0.3080
  711MOL0     H98077   4.951   0.066   3.032 -1.1959  3.3178  0.9196
  711MOL0     H98078   4.848   0.061   3.165  1.5394  1.4647  0.6988
  711MOL0     H98079   4.774   0.089   3.011 -1.1507  0.5229  1.8984
  711MOL0     H98080   4.780  -0.210   2.455  0.4670  0.8134  0.8476
  711MOL0     H98081   4.779  -0.141   2.211 -2.8034  2.1636 -1.0558
  711MOL0     H98082   5.075   0.101   1.985  0.5583  3.3172  1.8298
  711MOL0     H98083   5.117   0.103   2.152  0.7668 -0.4621  0.5825
  711MOL0     H98084   5.167  -0.106   2.014  0.1237  0.8777  0.6225
  711MOL0     H98085   5.044  -0.167   2.124  0.6734 -0.7954 -0.9101
  711MOL0     H98086   4.990  -0.062   1.842  2.4684 -0.7363  0.8576
  711MOL0     H98087   4.865  -0.122   1.960  0.7918 -3.7110  2.2246
  711MOL0     H98088   4.997  -0.341   1.978 -0.8639  0.4912  0.7824
  711MOL0     H98089   5.100  -0.281   1.844 -0.7579  2.5780 -1.7118
  711MOL0     H98090   4.882  -0.245   1.704 -2.4467 -3.5878 -3.1616
  711MOL0     H98091   4.941  -0.402   1.726 -1.3978  0.6496  0.0092
  711MOL0     H98092   4.721  -0.270   1.888 -1.7836  1.5223 -3.3975
  711MOL0     H98093   4.783  -0.431   1.934 -0.3897 -1.5076 -0.6501
  711MOL0     H98094   4.699  -0.525   1.729  0.8679  0.6557 -1.7618
  711MOL0     H98095   4.664  -0.356   1.672 -1.9959 -1.7360 -1.9294
  711MOL0     H98096   4.438  -0.477   1.742 -1.5999 -1.5400  1.9273
  711MOL0     H98097   4.492  -0.344   1.852  3.8435  0.4640  1.2461
  711MOL0     H98098   5.027   0.187   2.348  1.0977 -1.4832 -2.0312
  711MOL0     H98099   5.006   0.101   2.580  0.6235 -3.1637  0.5227
  711MOL0     H98100   4.875  -0.332   2.759  1.4285 -0.6695 -0.0695
  711MOL0     H98101   4.835  -0.495   2.929  0.7231 -0.2744  2.6178
  711MOL0     H98102   5.028   0.081   3.573  0.7897 -0.3932  0.4229
  711MOL0     H98103   5.056   0.251   3.375  2.1752  0.7946 -4.8851
  711MOL0     H98104   5.092   0.206   2.884 -0.8841 -0.2080 -0.7709
  711MOL0     H98105   5.003   0.301   2.686 -0.7012  0.1533  0.8597
  711MOL0     H98106   5.110   0.432   2.504 -0.1410  0.1630 -1.4958
  711MOL0     H98107   5.021   0.567   2.431 -0.9646 -0.5699  0.9849
  711MOL0     H98108   5.246   0.614   2.625  1.0372 -0.0718 -0.2689
  711MOL0     H98109   5.168   0.727   2.504 -1.2506 -0.3969  2.6630
  711MOL0     H98110   5.366   0.495   2.468 -2.4852 -0.9420  0.0699
  711MOL0     H98111   5.284   0.563   2.330  2.0303 -1.1691 -0.5913
  711MOL0     H98112   5.455   0.765   2.496  0.8763  1.8410 -1.7878
  711MOL0     H98113   5.399   0.759   2.327  0.1277 -1.1116 -1.3114
  711MOL0     H98114   5.788   0.586   2.348 -1.0265 -3.6916 -0.5025
  711MOL0     H98115   5.052   0.696   2.844  0.6761  0.1482  1.0301
  711MOL0     H98116   5.113   0.739   3.060  0.2739 -0.4981  0.9707
  711MOL0     H98117   5.047   0.621   3.172  1.0909  2.9405  0.3540
  711MOL0     H98118   5.225   0.634   3.150  0.5310 -1.6517  2.4800
  712MOL0     O98119  10.428   5.692   2.449  0.0887 -0.3232  0.8107
  712MOL0     C98120  10.521   5.719   2.520  0.4293 -0.5173  1.1191
  712MOL0     O98121  10.578   5.632   2.610  0.0166 -0.0912 -0.0856
  712MOL0     C98122  10.536   5.504   2.613 -0.1270 -0.5818 -0.3010
  712MOL0     C98123  10.405   5.479   2.650  0.2787 -0.2518  0.5337
  712MOL0     C98124  10.370   5.352   2.685  0.1223 -0.5795  0.4246
  712MOL0     C98125  10.451   5.237   2.673 -0.0835 -0.7068  0.1105
  712MOL0     O98126  10.405   5.110   2.680  0.2035  0.6844  0.3594
  712MOL0     C98127  10.318   5.094   2.796 -0.4079 -0.1921 -0.0248
  712MOL0     C98128  10.279   4.949   2.804  0.0327 -0.2634 -0.1582
  712MOL0     C98129  10.199   4.915   2.931 -0.7047 -0.0786  0.4318
  712MOL0     C98130  10.191   4.750   2.952 -0.3657 -0.8531  0.2468
  712MOL0     C98131  10.132   4.720   3.094 -0.6720 -1.0433 -0.6096
  712MOL0     C98132  10.111   4.571   3.116 -0.2322 -0.3455 -0.0863
  712MOL0     C98133  10.028   4.529   3.236  0.1272 -1.2133  0.1894
  712MOL0     C98134  10.118   4.502   3.358  0.4918  0.1774  0.3582
  712MOL0     N98135  10.205   4.386   3.333 -0.2752 -0.8529  0.7700
  712MOL0     C98136  10.171   4.260   3.292  0.0286  0.8801 -0.2329
  712MOL0     C98137  10.285   4.192   3.267  0.4841  0.0185 -0.4188
  712MOL0     C98138  10.295   4.054   3.208  0.6128 -0.0964 -1.1400
  712MOL0     C98139  10.394   3.966   3.294 -0.2164 -0.2571 -0.7775
  712MOL0     C98140  10.415   3.840   3.221 -0.4228  0.1963 -0.5342
  712MOL0     C98141  10.535   3.753   3.262  1.0398  0.2928  0.4970
  712MOL0     O98142  10.523   3.721   3.398  0.3698  0.2372  0.1721
  712MOL0     C98143  10.632   3.658   3.452 -1.0340 -0.7619  0.1358
  712MOL0     C98144  10.645   3.655   3.594  0.1221 -0.5033 -0.5610
  712MOL0     C98145  10.752   3.583   3.657  0.3213 -1.0184 -1.1238
  712MOL0     C98146  10.785   3.617   3.800  0.2729 -0.0459 -1.2716
  712MOL0     C98147  10.850   3.515   3.582 -0.3244 -0.4018 -0.0617
  712MOL0     C98148  10.971   3.456   3.631  0.6306 -0.2459  0.4160
  712MOL0     O98149  11.082   3.483   3.559 -0.7401 -0.2359  0.5503
  712MOL0     C98150  11.203   3.428   3.603  0.3082  0.1497 -0.2727
  712MOL0     C98151  11.222   3.289   3.591 -0.1638  0.2770 -0.1585
  712MOL0     C98152  11.339   3.232   3.631  0.2412  0.1601  0.0768
  712MOL0     C98153  11.451   3.306   3.670  1.2227  0.1644  0.3405
  712MOL0     O98154  11.565   3.239   3.710 -0.3071  0.5486 -0.5456
  712MOL0     C98155  11.667   3.319   3.780 -0.0059 -0.1434 -0.6110
  712MOL0     C98156  11.780   3.222   3.824  0.7917  0.1131 -0.2376
  712MOL0     C98157  11.719   3.139   3.945  0.2376 -0.0110  0.5642
  712MOL0     C98158  11.777   3.194   4.069  0.0628 -0.3556  0.0028
  712MOL0     C98159  11.685   3.158   4.190  0.4260  0.7356  0.8761
  712MOL0     C98160  11.572   3.260   4.202 -0.7666  0.7921 -0.2513
  712MOL0     C98161  11.606   3.375   4.291  1.1018  0.4140  0.5319
  712MOL0     C98162  11.537   3.505   4.251  0.8317 -0.2405 -0.1701
  712MOL0    Cl98163  11.547   3.631   4.382 -0.2743 -0.1327 -0.3280
  712MOL0     C98164  11.427   3.449   3.667 -0.3545  0.1249 -0.0418
  712MOL0     C98165  11.304   3.505   3.637 -0.6825 -0.2295  0.4759
  712MOL0     O98166  10.961   3.388   3.737  0.0912 -0.0145  0.1416
  712MOL0     C98167  10.824   3.510   3.440 -0.2061  0.4451 -0.3333
  712MOL0     C98168  10.721   3.583   3.377  0.3790  0.4643  0.3823
  712MOL0     N98169  10.388   4.287   3.285  0.7246  0.1322 -0.6242
  712MOL0     N98170  10.338   4.399   3.316  0.4531 -0.1679 -0.9591
  712MOL0     C98171  10.582   5.267   2.646 -0.3061  0.2436  0.9634
  712MOL0     C98172  10.624   5.400   2.612  0.5816 -0.0209 -0.9650
  712MOL0     C98173  10.576   5.859   2.511  0.0870  0.4298  0.5933
  712MOL0     C98174  10.715   5.869   2.536  0.1328  0.6034 -0.1081
  712MOL0     C98175  10.788   5.983   2.527  0.1792 -0.2016  0.2663
  712MOL0     C98176  10.729   6.098   2.478  0.4496 -0.8804 -0.3399
  712MOL0     O98177  10.787   6.222   2.456  0.4686  0.3407  0.3733
  712MOL0     C98178  10.924   6.243   2.498 -1.0169 -0.3399 -0.2777
  712MOL0     C98179  10.971   6.387   2.473 -0.6849  0.6337 -0.0594
  712MOL0     C98180  11.014   6.389   2.325  0.4728 -0.7359  0.9034
  712MOL0     C98181  11.167   6.415   2.307  0.7602 -0.1701  0.1300
  712MOL0     C98182  11.237   6.304   2.367  0.3933 -0.8098  1.1942
  712MOL0     C98183  11.295   6.207   2.418 -0.6004 -0.2235 -0.0284
  712MOL0     C98184  10.588   6.096   2.467  0.1904 -0.4542  0.4370
  712MOL0     C98185  10.515   5.979   2.493 -0.1058  0.2915 -1.2645
  712MOL0     C98186  10.363   5.991   2.485  0.0202 -0.6715  0.1498
  712MOL0     H98187  10.325   5.550   2.664 -1.3745 -1.7608 -0.7841
  712MOL0     H98188  10.264   5.333   2.687  0.4154 -2.5407 -0.1911
  712MOL0     H98189  10.223   5.148   2.785  1.7284  3.9077 -0.1171
  712MOL0     H98190  10.366   5.129   2.888 -1.2013  0.0375  0.3115
  712MOL0     H98191  10.219   4.922   2.716 -3.5367  0.0096  1.9665
  712MOL0     H98192  10.373   4.894   2.792  0.2405 -0.3747  1.7095
  712MOL0     H98193  10.254   4.961   3.014  0.7037  0.3655 -0.7266
  712MOL0     H98194  10.096   4.954   2.939 -0.2168  1.7285 -1.3351
  712MOL0     H98195  10.122   4.703   2.881  0.5881  0.3144 -1.5489
  712MOL0     H98196  10.293   4.716   2.936  0.1592  0.5133  0.4981
  712MOL0     H98197  10.043   4.780   3.113  1.1316  1.3004  0.9187
  712MOL0     H98198  10.185   4.774   3.172 -2.4420  1.7096 -1.1915
  712MOL0     H98199  10.050   4.527   3.037 -0.4143  0.5189 -0.4371
  712MOL0     H98200  10.203   4.515   3.099  1.1997  1.9092 -0.2277
  712MOL0     H98201   9.948   4.454   3.227  0.0353 -1.3658  1.8737
  712MOL0     H98202   9.980   4.622   3.267  3.3597  0.0177  1.9938
  712MOL0     H98203  10.178   4.592   3.380 -0.9159  1.5105 -1.0473
  712MOL0     H98204  10.050   4.477   3.440  0.9881  0.2823  0.8094
  712MOL0     H98205  10.073   4.216   3.279 -0.9502  2.2298  2.0686
  712MOL0     H98206  10.339   4.057   3.108 -0.5905  0.1571 -1.6832
  712MOL0     H98207  10.194   4.013   3.197 -0.1797  1.8330 -1.3856
  712MOL0     H98208  10.490   4.016   3.304  0.8806 -1.7790 -2.8323
  712MOL0     H98209  10.340   3.955   3.389 -1.5305  1.9307 -1.1987
  712MOL0     H98210  10.325   3.793   3.262  0.7917 -0.5823  1.4310
  712MOL0     H98211  10.414   3.840   3.112 -1.7851 -0.8487 -0.5431
  712MOL0     H98212  10.541   3.663   3.200 -0.7749  0.5691 -0.1203
  712MOL0     H98213  10.628   3.810   3.253  1.8641 -0.9369  0.9714
  712MOL0     H98214  10.577   3.718   3.651  0.1541 -0.7173 -0.2833
  712MOL0     H98215  10.893   3.634   3.804  0.2864 -0.0854 -1.4364
  712MOL0     H98216  10.765   3.537   3.872  1.8023  0.4650 -0.2227
  712MOL0     H98217  10.732   3.707   3.830  2.8116  0.5019  2.2088
  712MOL0     H98218  11.138   3.226   3.562 -2.9658  3.2307  0.8885
  712MOL0     H98219  11.348   3.125   3.646  1.3132 -0.4154 -3.6442
  712MOL0     H98220  11.714   3.370   3.696  1.6492  1.4988  1.1861
  712MOL0     H98221  11.629   3.390   3.855  3.2441  3.2690 -1.8872
  712MOL0     H98222  11.830   3.159   3.750 -0.4912 -0.8091 -0.3523
  712MOL0     H98223  11.863   3.274   3.873  0.8139  0.3254 -0.4997
  712MOL0     H98224  11.748   3.036   3.925 -1.8020 -0.4463 -0.4274
  712MOL0     H98225  11.610   3.133   3.944  0.2580 -0.7282  1.5367
  712MOL0     H98226  11.784   3.303   4.067  5.0549 -0.4395 -2.5830
  712MOL0     H98227  11.878   3.158   4.091  0.3350  0.2018 -0.3367
  712MOL0     H98228  11.641   3.059   4.174  0.7582  0.3287  2.2985
  712MOL0     H98229  11.747   3.154   4.280 -1.0828 -0.4517  1.9331
  712MOL0     H98230  11.486   3.210   4.249  0.2180  1.8860  3.0182
  712MOL0     H98231  11.551   3.295   4.101 -0.5713  0.1997 -0.5034
  712MOL0     H98232  11.712   3.404   4.288  1.1132  0.3290  0.0326
  712MOL0     H98233  11.581   3.357   4.396  0.9883 -0.9405  0.2918
  712MOL0     H98234  11.431   3.485   4.236  0.0975  1.0824  2.5960
  712MOL0     H98235  11.577   3.549   4.159 -0.6342  0.7058 -0.3849
  712MOL0     H98236  11.513   3.514   3.677  0.5655 -0.9356 -0.8429
  712MOL0     H98237  11.293   3.613   3.629  0.4117 -0.2236 -2.4916
  712MOL0     H98238  10.896   3.459   3.377 -0.2866 -2.0303  1.4188
  712MOL0     H98239  10.728   3.578   3.269 -0.1220 -0.0408  0.3704
  712MOL0     H98240  10.653   5.185   2.649 -2.0510 -1.3434  3.1898
  712MOL0     H98241  10.730   5.423   2.611  0.9868 -1.4412  1.5501
  712MOL0     H98242  10.776   5.781   2.556 -0.6143 -0.0021 -0.4223
  712MOL0     H98243  10.894   5.990   2.548  0.2051  1.1292 -0.2275
  712MOL0     H98244  10.931   6.215   2.603  2.8141 -1.0804 -0.6049
  712MOL0     H98245  11.002   6.175   2.462 -2.0093 -2.9146  2.1138
  712MOL0     H98246  11.056   6.408   2.539 -0.0394 -5.2592  1.5660
  712MOL0     H98247  10.890   6.460   2.483  2.7797  4.8864 -0.1225
  712MOL0     H98248  11.001   6.296   2.269 -0.2218 -1.8281  2.7880
  712MOL0     H98249  10.950   6.461   2.272  0.5908 -3.8539 -4.1127
  712MOL0     H98250  11.211   6.509   2.343  1.0742  0.2768 -1.3666
  712MOL0     H98251  11.175   6.409   2.199  0.5298 -1.5308  0.1701
  712MOL0     H98252  11.348   6.122   2.455  2.9065  0.8698 -1.9592
  712MOL0     H98253  10.522   6.176   2.435 -1.5451 -0.6796  3.1428
  712MOL0     H98254  10.327   6.090   2.515  1.5419  0.3416 -1.1888
  712MOL0     H98255  10.335   5.989   2.379  0.9219  2.0093 -0.2322
  712MOL0     H98256  10.312   5.920   2.550  0.5249 -1.1822 -0.0100
  713MOL0     O98257   7.065   3.412   7.304 -0.0839  0.6894 -0.1327
  713MOL0     C98258   7.017   3.445   7.198 -0.0886 -0.0772 -0.8919
  713MOL0     O98259   7.046   3.383   7.078 -0.0654 -0.1543 -0.3078
  713MOL0     C98260   7.158   3.295   7.086  0.3281 -0.6870 -0.4670
  713MOL0     C98261   7.144   3.164   7.124  0.1409  0.6155  1.2032
  713MOL0     C98262   7.237   3.068   7.115  1.4771 -0.0577  0.2836
  713MOL0     C98263   7.356   3.107   7.055 -0.1946 -0.2901 -0.9606
  713MOL0     O98264   7.474   3.025   7.060  0.5655  0.1219 -0.2902
  713MOL0     C98265   7.454   2.889   7.005 -0.2913  0.3119  0.4963
  713MOL0     C98266   7.410   2.783   7.111  0.2617  0.2393  0.6566
  713MOL0     C98267   7.458   2.807   7.250 -0.9540 -0.1164 -0.0689
  713MOL0     C98268   7.467   2.680   7.336 -0.4493 -0.6269  0.0089
  713MOL0     C98269   7.579   2.589   7.281 -0.0471 -0.1881 -0.3648
  713MOL0     C98270   7.626   2.485   7.390  1.5361  0.1574  0.8197
  713MOL0     C98271   7.763   2.418   7.368 -1.2088  0.1875  0.9754
  713MOL0     C98272   7.882   2.519   7.392 -0.1001 -0.0599  0.4999
  713MOL0     N98273   7.994   2.456   7.333  0.3570 -0.2304 -0.0856
  713MOL0     C98274   8.073   2.369   7.397  0.1872 -0.0157  0.1404
  713MOL0     C98275   8.175   2.348   7.310  0.2608  0.5073 -0.4043
  713MOL0     C98276   8.303   2.277   7.347  0.1322  0.1361 -0.2933
  713MOL0     C98277   8.409   2.383   7.376 -0.0964  0.7206  0.0408
  713MOL0     C98278   8.542   2.326   7.433  0.3907 -0.0271  0.1947
  713MOL0     C98279   8.647   2.428   7.457  0.2999 -0.2126  0.4142
  713MOL0     O98280   8.600   2.563   7.492  0.7674 -0.3618  0.1271
  713MOL0     C98281   8.688   2.659   7.455  0.6082 -1.0573 -0.4526
  713MOL0     C98282   8.635   2.785   7.467 -0.6628 -0.5420  0.4219
  713MOL0     C98283   8.704   2.906   7.449 -0.0165  0.4193 -0.1525
  713MOL0     C98284   8.626   3.031   7.464 -0.0127  0.6383  0.4992
  713MOL0     C98285   8.843   2.885   7.408 -0.1878  0.3577 -0.0588
  713MOL0     C98286   8.930   3.005   7.379 -0.8389 -0.0264 -0.2982
  713MOL0     O98287   8.869   3.109   7.320 -0.2919  0.3416 -0.5208
  713MOL0     C98288   8.928   3.235   7.305  0.1056  0.3355 -0.2535
  713MOL0     C98289   8.838   3.337   7.291 -0.0669  0.1490  0.2641
  713MOL0     C98290   8.879   3.468   7.268 -0.3123  0.5888  0.6949
  713MOL0     C98291   9.015   3.495   7.245 -0.7442 -0.5483 -0.5656
  713MOL0     O98292   9.063   3.628   7.224 -0.2734 -0.5683 -0.5546
  713MOL0     C98293   9.190   3.667   7.288  0.6426  0.0608 -0.4239
  713MOL0     C98294   9.214   3.812   7.277  0.0794  0.1187 -0.2584
  713MOL0     C98295   9.140   3.862   7.405 -0.6763 -0.1174  0.0160
  713MOL0     C98296   9.145   4.016   7.420  0.2884  0.7232 -1.4948
  713MOL0     C98297   9.070   4.055   7.544  0.5574  0.2146  0.2172
  713MOL0     C98298   8.949   4.157   7.524 -0.5109  0.0150 -0.0876
  713MOL0     C98299   8.837   4.071   7.465 -0.3292 -0.9174 -0.7513
  713MOL0     C98300   8.713   4.142   7.411 -1.4302 -0.6242 -0.2563
  713MOL0    Cl98301   8.639   4.242   7.538 -0.1832 -0.0020 -0.3977
  713MOL0     C98302   9.105   3.392   7.249 -0.4871  0.4109 -1.0698
  713MOL0     C98303   9.062   3.262   7.293 -0.0208 -0.9944  0.5784
  713MOL0     O98304   9.041   2.999   7.434 -0.2358  0.0896 -0.4886
  713MOL0     C98305   8.897   2.757   7.393  0.1601 -0.5778 -0.6011
  713MOL0     C98306   8.823   2.646   7.421  1.1871  0.1673 -0.1986
  713MOL0     N98307   8.163   2.444   7.214 -0.1127  0.5530  0.4372
  713MOL0     N98308   8.057   2.504   7.224  0.5870  0.1212 -0.2796
  713MOL0     C98309   7.377   3.242   7.020 -0.1829 -0.5192 -0.0386
  713MOL0     C98310   7.280   3.339   7.042 -0.2826  0.1311 -0.0149
  713MOL0     C98311   6.912   3.544   7.213  0.2753 -0.1731 -0.2670
  713MOL0     C98312   6.943   3.658   7.288  0.4878  1.0748 -0.0068
  713MOL0     C98313   6.838   3.753   7.306  0.5490 -0.5267  0.1619
  713MOL0     C98314   6.720   3.745   7.237  0.7442  0.1376  0.6789
  713MOL0     O98315   6.629   3.841   7.270  0.7902 -0.6388 -0.0625
  713MOL0     C98316   6.648   3.983   7.249  0.3639 -0.4433  0.1294
  713MOL0     C98317   6.529   4.054   7.332  0.2272 -0.6820  0.5378
  713MOL0     C98318   6.525   4.013   7.488 -0.4201 -0.3268  0.1645
  713MOL0     C98319   6.439   4.098   7.581 -0.2563 -0.2188 -0.2626
  713MOL0     C98320   6.297   4.120   7.538 -0.1141 -0.2653  0.1870
  713MOL0     C98321   6.180   4.143   7.516 -0.4819  0.3985  0.0341
  713MOL0     C98322   6.691   3.636   7.158  0.2086 -0.0138 -0.3492
  713MOL0     C98323   6.788   3.533   7.144  0.5211  0.3276 -0.7214
  713MOL0     C98324   6.746   3.420   7.057  0.1865 -0.0330  0.1284
  713MOL0     H98325   7.044   3.138   7.159  0.5075  1.1883  2.7487
  713MOL0     H98326   7.215   2.970   7.157 -2.1984  0.1582 -0.7783
  713MOL0     H98327   7.554   2.863   6.969 -0.2507 -1.7427  1.9062
  713MOL0     H98328   7.377   2.897   6.927 -0.4642 -0.9356  0.5140
  713MOL0     H98329   7.301   2.767   7.110 -0.0277  2.0542  0.0209
  713MOL0     H98330   7.452   2.690   7.071  1.5186  1.5888 -1.2963
  713MOL0     H98331   7.555   2.857   7.244 -1.0054  0.2501  1.5530
  713MOL0     H98332   7.387   2.881   7.290 -0.6741  1.6246 -2.6006
  713MOL0     H98333   7.493   2.713   7.437  2.6806 -0.6954 -0.6593
  713MOL0     H98334   7.372   2.626   7.341 -1.6642  1.1669 -1.6961
  713MOL0     H98335   7.662   2.652   7.250  0.7729 -1.0877 -0.0387
  713MOL0     H98336   7.555   2.528   7.193  3.2566 -1.7439 -0.3094
  713MOL0     H98337   7.622   2.525   7.492 -0.5154 -1.8891  1.6403
  713MOL0     H98338   7.551   2.406   7.380  0.6795  1.1428 -0.8336
  713MOL0     H98339   7.765   2.389   7.262 -2.0770  0.9369  0.7351
  713MOL0     H98340   7.779   2.331   7.432 -1.7181  0.5822  1.6475
  713MOL0     H98341   7.874   2.618   7.348 -0.9630  1.1900  3.2841
  713MOL0     H98342   7.898   2.535   7.499  2.4146 -0.4958  0.2498
  713MOL0     H98343   8.058   2.322   7.493 -0.8406 -0.8534 -0.4098
  713MOL0     H98344   8.335   2.204   7.272  1.7447 -1.4585  1.8154
  713MOL0     H98345   8.278   2.227   7.441 -0.5102 -2.2051 -1.6308
  713MOL0     H98346   8.420   2.438   7.282 -1.7069  1.5115  0.2839
  713MOL0     H98347   8.370   2.453   7.451  1.1150  2.1001 -0.5895
  713MOL0     H98348   8.516   2.267   7.521 -1.5391 -2.2257 -1.6886
  713MOL0     H98349   8.585   2.256   7.360 -4.3649 -0.8898 -2.1830
  713MOL0     H98350   8.718   2.376   7.523  0.1136 -1.9596 -0.6903
  713MOL0     H98351   8.690   2.432   7.356 -1.0211 -0.2751 -0.1634
  713MOL0     H98352   8.535   2.794   7.508  0.0847  0.4941  2.1396
  713MOL0     H98353   8.573   3.043   7.370 -4.2315 -0.9145  2.4448
  713MOL0     H98354   8.684   3.110   7.514  0.8885  0.3311 -0.0453
  713MOL0     H98355   8.531   3.020   7.516 -1.1023  0.8617 -1.3634
  713MOL0     H98356   8.735   3.318   7.321  0.7052  1.3573  4.1695
  713MOL0     H98357   8.808   3.548   7.287  0.9263  1.4040  2.0990
  713MOL0     H98358   9.195   3.635   7.392  0.9574 -1.5977 -0.9180
  713MOL0     H98359   9.279   3.632   7.236  2.7811  2.0406  1.7022
  713MOL0     H98360   9.323   3.822   7.285  0.2813  1.8796 -3.5111
  713MOL0     H98361   9.169   3.852   7.185  0.2663  1.4529  0.2006
  713MOL0     H98362   9.200   3.816   7.484  0.2048 -0.4939 -0.8491
  713MOL0     H98363   9.039   3.823   7.413 -0.4165 -0.4994  1.5716
  713MOL0     H98364   9.105   4.058   7.327 -0.8625 -0.5041 -1.5844
  713MOL0     H98365   9.250   4.047   7.425  0.8908 -1.1946 -1.3789
  713MOL0     H98366   9.046   3.965   7.601  2.3221 -0.4159  0.0117
  713MOL0     H98367   9.145   4.103   7.608  0.2337  3.3350 -1.5074
  713MOL0     H98368   8.980   4.235   7.454  0.4237 -1.1853 -1.0619
  713MOL0     H98369   8.923   4.213   7.614  1.2317  0.7809 -0.0146
  713MOL0     H98370   8.796   4.005   7.542  1.8792  1.5884  2.8802
  713MOL0     H98371   8.875   4.000   7.392 -0.6387  0.5380 -2.3875
  713MOL0     H98372   8.635   4.070   7.383  0.5407 -2.6767 -0.6993
  713MOL0     H98373   8.738   4.203   7.324 -0.8729  1.4009  1.2491
  713MOL0     H98374   9.212   3.413   7.249  0.3408 -3.1815 -1.3510
  713MOL0     H98375   9.125   3.175   7.312  1.6555  0.1703  0.5817
  713MOL0     H98376   9.000   2.743   7.360  0.3608  0.2206 -0.3455
  713MOL0     H98377   8.872   2.552   7.401  2.8094  0.7937  0.6144
  713MOL0     H98378   7.476   3.271   6.987  0.2863 -0.9171  0.9906
  713MOL0     H98379   7.289   3.444   7.015  0.5938  0.7627  2.4473
  713MOL0     H98380   7.039   3.666   7.337  1.5654  4.1487 -2.3189
  713MOL0     H98381   6.844   3.837   7.375  4.4347 -1.1815  0.8839
  713MOL0     H98382   6.747   4.015   7.283  0.8362 -0.8908 -0.8105
  713MOL0     H98383   6.637   4.013   7.145 -1.4228  2.2360  0.9662
  713MOL0     H98384   6.435   4.046   7.276  0.1058 -1.7557  0.8867
  713MOL0     H98385   6.555   4.160   7.327  0.7933 -0.8229  0.4971
  713MOL0     H98386   6.487   3.914   7.517  0.2973 -0.9133 -0.8509
  713MOL0     H98387   6.629   4.014   7.520 -0.2392  1.8843 -0.3536
  713MOL0     H98388   6.489   4.195   7.579 -0.3423 -0.1370 -3.3330
  713MOL0     H98389   6.454   4.059   7.682  1.6927 -1.4334 -0.9577
  713MOL0     H98390   6.079   4.175   7.503 -0.9935 -1.3414 -0.5827
  713MOL0     H98391   6.594   3.621   7.112 -0.3883  0.9104  0.5586
  713MOL0     H98392   6.818   3.406   6.975  0.4104  1.2360  0.0836
  713MOL0     H98393   6.741   3.330   7.118  1.8631 -0.0461  0.3041
  713MOL0     H98394   6.648   3.429   7.009  0.9131  2.1326 -1.0777
  714MOL0     O98395   9.418   5.429  11.134 -0.0934 -0.1452 -0.2666
  714MOL0     C98396   9.451   5.386  11.023 -0.0059 -0.1756 -0.0773
  714MOL0     O98397   9.432   5.451  10.908  0.2169 -0.3081  0.1088
  714MOL0     C98398   9.331   5.533  10.907 -0.2258 -0.0020 -0.1514
  714MOL0     C98399   9.212   5.471  10.882  1.3027  0.7771 -0.1304
  714MOL0     C98400   9.098   5.550  10.877  0.6047  0.2312  0.9171
  714MOL0     C98401   9.109   5.695  10.873  0.5550  0.0807  0.4560
  714MOL0     O98402   9.007   5.792  10.881  0.7736  0.1943 -0.3956
  714MOL0     C98403   8.868   5.750  10.899 -0.0304  0.4007 -0.2205
  714MOL0     C98404   8.778   5.860  10.924  0.2947 -0.5421  0.6003
  714MOL0     C98405   8.736   5.941  10.802 -0.0632 -0.7285 -0.6882
  714MOL0     C98406   8.631   6.036  10.864 -0.5709 -0.7436 -0.0249
  714MOL0     C98407   8.581   6.121  10.737  0.1666 -0.5169  0.2536
  714MOL0     C98408   8.455   6.197  10.771  0.3271  0.2280  0.1833
  714MOL0     C98409   8.441   6.331  10.703  0.3310  0.3413  0.1404
  714MOL0     C98410   8.468   6.321  10.556  0.2282 -0.5964  0.4364
  714MOL0     N98411   8.436   6.449  10.487  0.3469  0.1619  0.2594
  714MOL0     C98412   8.411   6.571  10.548 -0.7027 -0.4267 -0.3357
  714MOL0     C98413   8.398   6.660  10.441 -0.3959  0.8193  0.3694
  714MOL0     C98414   8.366   6.806  10.458 -0.4171  0.2964  0.0579
  714MOL0     C98415   8.491   6.895  10.470  0.6896  0.7090  0.4715
  714MOL0     C98416   8.588   6.852  10.357  0.1197 -0.8617  0.4581
  714MOL0     C98417   8.714   6.944  10.343  0.4514  0.2487 -0.8631
  714MOL0     O98418   8.684   7.079  10.332 -0.2175 -0.3095 -0.2453
  714MOL0     C98419   8.684   7.126  10.201  0.3217 -0.2696  0.2365
  714MOL0     C98420   8.750   7.248  10.179 -0.0377  0.8194  0.3278
  714MOL0     C98421   8.777   7.300  10.052  0.8574  0.3575 -0.0235
  714MOL0     C98422   8.837   7.436  10.045  1.1191  0.5633  0.2102
  714MOL0     C98423   8.739   7.217   9.939 -0.0040 -0.4648 -0.1923
  714MOL0     C98424   8.752   7.272   9.799  1.6163  0.6534  0.1220
  714MOL0     O98425   8.783   7.188   9.706 -0.6052  0.1282 -0.0206
  714MOL0     C98426   8.828   7.216   9.579  0.8470 -0.7779  0.0375
  714MOL0     C98427   8.893   7.336   9.540  0.2077  0.8056 -0.5258
  714MOL0     C98428   8.929   7.352   9.409 -0.5785 -1.4081 -0.3173
  714MOL0     C98429   8.911   7.257   9.311 -0.3572 -0.1662 -0.1196
  714MOL0     O98430   8.944   7.267   9.176  0.0795  0.3384  0.7699
  714MOL0     C98431   9.018   7.377   9.119 -0.2146  0.0609  1.1850
  714MOL0     C98432   9.021   7.384   8.972 -0.9848  1.3593  0.5533
  714MOL0     C98433   9.057   7.528   8.911 -0.2533  0.0692  0.3484
  714MOL0     C98434   9.090   7.542   8.763 -0.7944  0.1818 -0.8849
  714MOL0     C98435   9.017   7.448   8.669 -1.2719 -0.1645 -0.2675
  714MOL0     C98436   9.032   7.493   8.530  0.0986  0.5503  0.2488
  714MOL0     C98437   8.982   7.402   8.413  1.5599 -0.4939 -0.1580
  714MOL0     C98438   9.091   7.401   8.307 -0.0985  0.3508  0.6876
  714MOL0    Cl98439   9.132   7.564   8.237  0.3317 -0.3109  0.1321
  714MOL0     C98440   8.839   7.146   9.344 -0.0117  0.1094 -0.3712
  714MOL0     C98441   8.794   7.126   9.475 -0.9531  0.0493 -0.9455
  714MOL0     O98442   8.721   7.388   9.782 -0.6817  0.1848  0.6446
  714MOL0     C98443   8.678   7.095   9.963 -0.8940  0.9127 -0.3180
  714MOL0     C98444   8.652   7.050  10.091 -0.1034 -0.1324  0.4778
  714MOL0     N98445   8.424   6.587  10.324 -0.2317 -0.6223 -0.1017
  714MOL0     N98446   8.445   6.470  10.353 -0.4958  0.2221 -0.8364
  714MOL0     C98447   9.232   5.754  10.900  0.4812 -0.1133 -0.0844
  714MOL0     C98448   9.342   5.679  10.912  0.7312  1.0136 -0.1954
  714MOL0     C98449   9.517   5.247  11.010 -0.6539 -0.2366 -1.2303
  714MOL0     C98450   9.560   5.183  11.128 -0.5680  0.9539  0.5392
  714MOL0     C98451   9.612   5.050  11.139 -0.4215  1.0718  0.0173
  714MOL0     C98452   9.622   4.975  11.029 -0.7529 -0.1113 -0.1532
  714MOL0     O98453   9.684   4.855  11.050  0.1335 -0.0834  0.5466
  714MOL0     C98454   9.723   4.781  10.931  0.7475 -0.3137 -0.7680
  714MOL0     C98455   9.604   4.696  10.893  1.2354  0.3174  0.4062
  714MOL0     C98456   9.537   4.629  11.013 -0.4543 -0.1554  0.2711
  714MOL0     C98457   9.444   4.510  10.974 -0.2853  0.3213 -0.2949
  714MOL0     C98458   9.328   4.550  10.890  0.1311  0.2049 -0.2648
  714MOL0     C98459   9.231   4.584  10.839  0.4659 -0.9232  0.3173
  714MOL0     C98460   9.588   5.026  10.903 -0.3522 -0.1431 -0.2611
  714MOL0     C98461   9.530   5.157  10.897 -0.1469 -0.4658 -0.2264
  714MOL0     C98462   9.485   5.199  10.758 -1.1559 -0.7794 -0.5049
  714MOL0     H98463   9.203   5.363  10.890 -1.0497  1.0529  2.9360
  714MOL0     H98464   9.002   5.500  10.867  0.3247  0.6032  1.6876
  714MOL0     H98465   8.872   5.695  10.994  1.7438  0.7576 -0.0463
  714MOL0     H98466   8.837   5.689  10.814 -1.1869 -0.3027  0.6621
  714MOL0     H98467   8.698   5.829  10.992  0.5378  0.7592  1.5273
  714MOL0     H98468   8.841   5.922  10.989 -1.8600  0.2292  2.0625
  714MOL0     H98469   8.821   5.991  10.756 -1.1465 -0.7815 -2.8855
  714MOL0     H98470   8.689   5.878  10.726 -4.0788  2.5800 -1.3362
  714MOL0     H98471   8.550   5.977  10.908  1.7382 -4.1717  0.0435
  714MOL0     H98472   8.676   6.099  10.942  2.5384 -0.8631 -1.5600
  714MOL0     H98473   8.562   6.055  10.651 -1.1658  1.9617 -1.4969
  714MOL0     H98474   8.655   6.199  10.719 -0.8243  0.6974  1.3125
  714MOL0     H98475   8.372   6.132  10.743  0.1003 -1.4245  3.9790
  714MOL0     H98476   8.446   6.220  10.878  2.6625 -0.6926  0.6400
  714MOL0     H98477   8.514   6.392  10.755  1.5419 -0.8705 -0.0997
  714MOL0     H98478   8.342   6.374  10.725  0.4333 -0.7230  2.9969
  714MOL0     H98479   8.575   6.305  10.540 -0.1392 -0.1670 -3.0267
  714MOL0     H98480   8.415   6.235  10.514 -0.3331 -0.0581  0.0328
  714MOL0     H98481   8.393   6.606  10.649 -1.3001 -0.0068 -0.5851
  714MOL0     H98482   8.296   6.819  10.541 -2.2870 -3.6283 -0.6703
  714MOL0     H98483   8.297   6.828  10.376 -1.8902  1.5048  1.5522
  714MOL0     H98484   8.461   6.999  10.453  1.5869  0.5454 -2.6350
  714MOL0     H98485   8.544   6.886  10.565 -1.6195 -1.7328  1.6729
  714MOL0     H98486   8.638   6.758  10.382  0.3280 -0.5715  1.1343
  714MOL0     H98487   8.544   6.839  10.257  1.1785 -2.0901  0.1249
  714MOL0     H98488   8.768   6.921  10.435  0.4471  0.6681 -0.7546
  714MOL0     H98489   8.777   6.907  10.261  1.4489 -0.2139  0.0932
  714MOL0     H98490   8.748   7.318  10.262 -0.5262  1.5215 -0.2602
  714MOL0     H98491   8.917   7.441   9.970 -0.7514  1.8229 -1.8413
  714MOL0     H98492   8.870   7.474  10.142  0.5600 -0.3054  0.7573
  714MOL0     H98493   8.767   7.518  10.032  1.3123  0.5870 -0.7778
  714MOL0     H98494   8.908   7.422   9.605  1.9385  1.6449 -1.9360
  714MOL0     H98495   8.976   7.447   9.386  2.1317 -1.9757  2.3287
  714MOL0     H98496   8.963   7.464   9.157 -1.9865 -1.1380  1.4709
  714MOL0     H98497   9.116   7.376   9.167  0.2788  0.7785  0.2413
  714MOL0     H98498   9.101   7.317   8.940 -0.2473  1.2026  2.5698
  714MOL0     H98499   8.933   7.339   8.925 -0.7693  1.7947 -0.2726
  714MOL0     H98500   9.142   7.574   8.962  2.4193 -2.7328 -1.2407
  714MOL0     H98501   8.972   7.590   8.940  0.8496  1.3784  0.9195
  714MOL0     H98502   9.198   7.529   8.751 -0.8423 -3.5551  1.2536
  714MOL0     H98503   9.062   7.645   8.737 -1.3828  1.0115  2.4908
  714MOL0     H98504   9.054   7.345   8.673 -1.1534 -0.0867  0.8751
  714MOL0     H98505   8.909   7.444   8.685 -0.9550 -1.5653  2.0258
  714MOL0     H98506   9.140   7.507   8.522  0.1071 -0.1967 -1.1798
  714MOL0     H98507   8.983   7.589   8.518 -4.0960 -1.5684 -1.6090
  714MOL0     H98508   8.882   7.427   8.376  1.6010 -1.6798 -1.0861
  714MOL0     H98509   8.978   7.301   8.453 -2.2502  0.0034  1.0927
  714MOL0     H98510   9.058   7.333   8.228  0.3972 -0.6486  1.3221
  714MOL0     H98511   9.187   7.364   8.346  2.9313  2.0266 -4.2266
  714MOL0     H98512   8.817   7.072   9.268 -0.9775  0.3952 -0.3934
  714MOL0     H98513   8.752   7.033   9.510  0.5857 -0.4210 -0.2553
  714MOL0     H98514   8.656   7.033   9.876  0.4703  2.9672 -2.2307
  714MOL0     H98515   8.603   6.953  10.101  0.4228 -0.4657 -0.1187
  714MOL0     H98516   9.247   5.862  10.902 -0.6522  0.0791 -0.8601
  714MOL0     H98517   9.445   5.713  10.915  0.5731  1.4657  1.7910
  714MOL0     H98518   9.547   5.243  11.217 -1.9155  3.4245 -1.1793
  714MOL0     H98519   9.640   5.004  11.234 -0.3259  0.2891 -0.3882
  714MOL0     H98520   9.747   4.837  10.840 -2.4481  0.1720 -1.4395
  714MOL0     H98521   9.803   4.715  10.966  1.9241  1.6024  0.3133
  714MOL0     H98522   9.636   4.611  10.833 -0.1484 -0.6130  0.9459
  714MOL0     H98523   9.527   4.749  10.837  0.7989  0.9149  1.5347
  714MOL0     H98524   9.608   4.588  11.085 -1.7117 -2.6711  0.2001
  714MOL0     H98525   9.474   4.697  11.073 -3.3146 -2.0045 -0.4319
  714MOL0     H98526   9.407   4.468  11.068  0.3405  1.7214  0.6229
  714MOL0     H98527   9.506   4.440  10.919  0.3652  0.3879  0.3364
  714MOL0     H98528   9.138   4.608  10.792  1.0629 -1.2595 -1.0714
  714MOL0     H98529   9.606   4.973  10.810  0.1732  0.2749 -0.4003
  714MOL0     H98530   9.465   5.128  10.678 -0.8366 -1.5495  0.0779
  714MOL0     H98531   9.386   5.240  10.780 -1.4646 -0.5535 -2.2328
  714MOL0     H98532   9.553   5.270  10.711 -2.4017  1.0869  0.3921
  715MOL0     O98533   4.317   9.924   5.464  0.5507 -1.1051  0.5701
  715MOL0     C98534   4.359   9.838   5.541  0.7404 -0.5070 -0.0471
  715MOL0     O98535   4.455   9.744   5.514  0.0535  0.4128 -0.3941
  715MOL0     C98536   4.523   9.761   5.396  0.0306  0.2989 -0.8680
  715MOL0     C98537   4.457   9.755   5.276  0.7284 -0.5281 -0.0939
  715MOL0     C98538   4.525   9.767   5.161 -1.1378 -0.8056 -0.1097
  715MOL0     C98539   4.662   9.779   5.157 -0.1079 -0.2400 -1.1204
  715MOL0     O98540   4.737   9.771   5.046 -0.3272  0.0377  0.2304
  715MOL0     C98541   4.680   9.832   4.925 -0.5513 -0.4057  0.1612
  715MOL0     C98542   4.779   9.933   4.862 -0.2986  0.0694  0.6785
  715MOL0     C98543   4.813  10.036   4.959 -0.0016 -0.4287  0.2606
  715MOL0     C98544   4.826  10.170   4.891  0.3980  0.8775 -0.0417
  715MOL0     C98545   4.906  10.280   4.973 -0.5779 -0.4837  0.2859
  715MOL0     C98546   5.051  10.291   4.918  0.4703  0.7351 -0.5845
  715MOL0     C98547   5.096  10.422   4.977  0.2129  0.2625 -0.0152
  715MOL0     C98548   5.192  10.490   4.885  0.3618 -0.2074 -0.9747
  715MOL0     N98549   5.250  10.609   4.953 -0.4983  0.2989 -0.1188
  715MOL0     C98550   5.359  10.619   5.036 -0.1221 -0.1145  1.0761
  715MOL0     C98551   5.369  10.747   5.074  0.1715 -0.0863 -1.1081
  715MOL0     C98552   5.465  10.770   5.184  0.0608  0.0176 -0.7904
  715MOL0     C98553   5.513  10.916   5.175  0.5455 -1.3867  0.7077
  715MOL0     C98554   5.598  10.968   5.288 -0.3409 -0.0289 -1.0166
  715MOL0     C98555   5.600  11.118   5.334 -0.1089  0.5388  0.0419
  715MOL0     O98556   5.651  11.204   5.233  0.2501  0.1283  0.5737
  715MOL0     C98557   5.571  11.223   5.118 -1.0236 -0.1610 -0.7218
  715MOL0     C98558   5.433  11.244   5.122  1.3926  0.0399 -0.2161
  715MOL0     C98559   5.366  11.282   5.002 -0.4750  1.0727 -0.2530
  715MOL0     C98560   5.224  11.337   5.015  0.9698  0.0869  0.0388
  715MOL0     C98561   5.430  11.284   4.875 -0.4114 -0.3621  0.8266
  715MOL0     C98562   5.362  11.304   4.748  0.1637  0.4637 -0.5719
  715MOL0     O98563   5.428  11.375   4.648  0.2385  0.5601 -0.4573
  715MOL0     C98564   5.357  11.393   4.531  0.1486 -0.2671 -0.4056
  715MOL0     C98565   5.422  11.379   4.406  0.5130 -0.3138 -0.4028
  715MOL0     C98566   5.353  11.415   4.291 -0.1026  0.3742 -0.5243
  715MOL0     C98567   5.225  11.473   4.298  0.3827  0.0585  0.0075
  715MOL0     O98568   5.153  11.524   4.192  0.8907  0.7062  0.8049
  715MOL0     C98569   5.227  11.601   4.092  0.1012 -0.6183 -0.0265
  715MOL0     C98570   5.229  11.747   4.145  0.2321 -0.7246 -0.1159
  715MOL0     C98571   5.277  11.845   4.040  0.5033 -0.4295  1.5059
  715MOL0     C98572   5.171  11.864   3.930  0.0580 -0.9220  0.0807
  715MOL0     C98573   5.218  11.966   3.822 -1.2024  1.3812  0.7462
  715MOL0     C98574   5.142  11.935   3.689  0.5193 -0.3842  0.5243
  715MOL0     C98575   5.117  12.074   3.616 -0.4349 -0.2008  0.3133
  715MOL0     C98576   5.238  12.129   3.549  0.0470  0.0237 -0.1868
  715MOL0    Cl98577   5.192  12.284   3.472  0.4569 -0.5129 -0.7801
  715MOL0     C98578   5.170  11.501   4.427 -0.2088 -0.4123  1.0945
  715MOL0     C98579   5.231  11.456   4.539  0.2562  0.1270 -1.5875
  715MOL0     O98580   5.257  11.242   4.730  0.4630  0.8519  0.4116
  715MOL0     C98581   5.569  11.259   4.873  0.2733  0.3178 -0.5270
  715MOL0     C98582   5.634  11.225   4.991 -0.2599  0.6273 -0.2034
  715MOL0     N98583   5.271  10.820   5.010 -0.1290  0.0397  0.7696
  715MOL0     N98584   5.204  10.733   4.937 -0.9945  1.0823 -0.1875
  715MOL0     C98585   4.735   9.771   5.277  0.6381 -0.6404  0.2059
  715MOL0     C98586   4.662   9.777   5.403  0.1429 -0.0873 -0.5054
  715MOL0     C98587   4.294   9.826   5.671  0.4226 -0.0307 -0.8529
  715MOL0     C98588   4.377   9.856   5.784 -0.6265  0.6630 -0.1950
  715MOL0     C98589   4.317   9.844   5.914 -0.0155  0.5007 -0.2741
  715MOL0     C98590   4.181   9.817   5.925  0.7594  0.7921  0.2300
  715MOL0     O98591   4.114   9.798   6.040 -0.0684  0.3471 -0.3096
  715MOL0     C98592   4.178   9.845   6.158  0.4808  0.1895 -0.1050
  715MOL0     C98593   4.068   9.823   6.263 -0.2103  0.7190  0.5673
  715MOL0     C98594   3.936   9.888   6.236 -0.6560  0.8957 -0.2508
  715MOL0     C98595   3.952  10.043   6.208  0.2016  0.3763 -0.0884
  715MOL0     C98596   3.820  10.101   6.190  0.4172  0.6456  0.3691
  715MOL0     C98597   3.703  10.151   6.186 -0.5842 -0.1918  0.4041
  715MOL0     C98598   4.102   9.799   5.815  0.3055  0.1793  0.8508
  715MOL0     C98599   4.155   9.796   5.693 -0.6203  0.5542  0.1704
  715MOL0     C98600   4.071   9.764   5.571  0.0657 -0.2401  0.4753
  715MOL0     H98601   4.358   9.710   5.274  2.2551 -4.2770  0.9367
  715MOL0     H98602   4.452   9.756   5.081 -1.9723 -1.7670  0.7416
  715MOL0     H98603   4.588   9.886   4.948  0.0273  0.8209 -0.3030
  715MOL0     H98604   4.672   9.751   4.852  2.2784 -2.1066  1.5780
  715MOL0     H98605   4.871   9.881   4.833 -0.8614 -1.0016  0.7861
  715MOL0     H98606   4.737   9.974   4.770 -0.0363 -1.9463 -0.3996
  715MOL0     H98607   4.723  10.058   5.016 -1.4762  0.9633 -2.4393
  715MOL0     H98608   4.903  10.011   5.016  2.6630  2.6802 -2.1884
  715MOL0     H98609   4.879  10.158   4.796  2.5734  0.5610  1.1446
  715MOL0     H98610   4.723  10.203   4.874  0.1673  0.4569  0.5084
  715MOL0     H98611   4.924  10.254   5.077  2.3277  2.3431  0.6333
  715MOL0     H98612   4.842  10.368   4.960  1.2863  0.9770  0.7079
  715MOL0     H98613   5.116  10.206   4.941  0.9929  1.4940  0.9096
  715MOL0     H98614   5.044  10.306   4.810 -0.7943  2.6282 -0.2899
  715MOL0     H98615   5.136  10.409   5.079 -2.5939 -2.6618  0.8787
  715MOL0     H98616   5.015  10.494   4.987 -1.7587 -1.6092 -1.6664
  715MOL0     H98617   5.273  10.419   4.867 -0.3526 -1.5278  0.6636
  715MOL0     H98618   5.138  10.521   4.795 -3.4919  0.3999  1.3254
  715MOL0     H98619   5.421  10.540   5.078  0.7723  0.8684  1.6501
  715MOL0     H98620   5.546  10.698   5.168  0.6322  0.5002 -0.1324
  715MOL0     H98621   5.424  10.753   5.284  3.2861 -2.0558  0.3354
  715MOL0     H98622   5.569  10.921   5.081  2.4068  0.5154  1.8256
  715MOL0     H98623   5.426  10.983   5.174  2.0343  0.6582 -0.0335
  715MOL0     H98624   5.554  10.915   5.373  1.3403  0.7977  0.4139
  715MOL0     H98625   5.703  10.939   5.279 -0.4240  0.3542 -4.9781
  715MOL0     H98626   5.500  11.139   5.373 -1.5305 -4.5742 -0.1209
  715MOL0     H98627   5.665  11.116   5.422 -0.0261 -1.7038 -0.0052
  715MOL0     H98628   5.382  11.255   5.218  2.0161 -2.4176  0.4625
  715MOL0     H98629   5.160  11.253   4.985  0.7893 -0.3672  1.6296
  715MOL0     H98630   5.213  11.414   4.938  3.3665 -2.3892 -3.1095
  715MOL0     H98631   5.190  11.367   5.114  3.0106  1.6414  0.3300
  715MOL0     H98632   5.522  11.338   4.408  0.7316  0.2352  0.1080
  715MOL0     H98633   5.394  11.387   4.194 -1.3479 -1.6728 -0.5228
  715MOL0     H98634   5.324  11.556   4.066 -0.9977 -1.6830 -2.6343
  715MOL0     H98635   5.163  11.584   4.005 -1.6203 -0.5526  1.1934
  715MOL0     H98636   5.136  11.787   4.185  0.8050 -0.7373  1.2966
  715MOL0     H98637   5.311  11.748   4.218  0.8411 -0.4659 -0.7849
  715MOL0     H98638   5.367  11.811   3.987 -1.2413  2.7237 -4.4363
  715MOL0     H98639   5.300  11.942   4.085 -0.2110  3.2268 -4.7997
  715MOL0     H98640   5.084  11.904   3.982 -0.0770 -1.7098  0.4719
  715MOL0     H98641   5.147  11.768   3.884 -0.7808 -1.0254  0.7178
  715MOL0     H98642   5.211  12.070   3.855  0.4196  1.9234 -0.4885
  715MOL0     H98643   5.324  11.949   3.803 -0.9642  3.8413 -0.4461
  715MOL0     H98644   5.040  11.904   3.712 -0.0446 -0.7278 -2.1478
  715MOL0     H98645   5.186  11.852   3.633  2.0734  0.9049 -0.2431
  715MOL0     H98646   5.071  12.131   3.697 -3.8392 -0.8033 -1.0129
  715MOL0     H98647   5.046  12.061   3.533  0.9994 -0.3139 -0.9432
  715MOL0     H98648   5.285  12.060   3.478 -0.3566 -1.5426  1.0006
  715MOL0     H98649   5.319  12.157   3.616 -0.0753 -0.3670  0.1280
  715MOL0     H98650   5.076  11.555   4.430  1.4582  2.8507 -0.7219
  715MOL0     H98651   5.201  11.465   4.643  3.7925  1.6399 -0.5549
  715MOL0     H98652   5.621  11.264   4.778  2.1016 -0.8121  0.3591
  715MOL0     H98653   5.742  11.210   4.987 -0.1089  1.8000 -0.9538
  715MOL0     H98654   4.843   9.762   5.276  0.9582  2.2519 -0.3487
  715MOL0     H98655   4.707   9.762   5.501 -1.1761 -2.2914 -0.1791
  715MOL0     H98656   4.482   9.880   5.774  0.3132 -1.1788  3.4574
  715MOL0     H98657   4.374   9.864   6.004 -2.0621  3.5781  0.4439
  715MOL0     H98658   4.273   9.793   6.171  1.1332  0.5832 -2.6669
  715MOL0     H98659   4.204   9.951   6.153  2.6323 -0.2992 -0.0600
  715MOL0     H98660   4.102   9.839   6.365  2.5350 -3.0550  0.4487
  715MOL0     H98661   4.043   9.716   6.259 -2.0750  1.1438 -2.2307
  715MOL0     H98662   3.882   9.831   6.159  2.4998 -3.2615  0.2551
  715MOL0     H98663   3.883   9.869   6.329 -1.1200  0.5475 -0.5830
  715MOL0     H98664   4.014  10.052   6.118 -1.7447  0.0775 -1.5113
  715MOL0     H98665   3.994  10.087   6.299  0.0216 -0.8066  0.5964
  715MOL0     H98666   3.603  10.187   6.194 -1.0515 -1.6623  1.8625
  715MOL0     H98667   3.996   9.784   5.836  0.2883  1.3137  1.7153
  715MOL0     H98668   4.125   9.703   5.498 -0.0993 -0.6490  0.6929
  715MOL0     H98669   3.984   9.707   5.603  1.8323 -1.6980  3.1554
  715MOL0     H98670   4.061   9.862   5.524  6.0504  0.3178 -0.4192
  716MOL0     O98671   1.631  10.494   0.002 -1.1143 -0.1947  0.0227
  716MOL0     C98672   1.715  10.441   0.074  0.6346  0.3231  0.5866
  716MOL0     O98673   1.772  10.322   0.038  0.3590 -0.0232 -0.5364
  716MOL0     C98674   1.770  10.283  -0.087  0.1536  0.2994  0.5658
  716MOL0     C98675   1.892  10.263  -0.159  0.5132 -0.1731 -0.7730
  716MOL0     C98676   1.891  10.227  -0.287 -0.3168 -0.6915 -0.3197
  716MOL0     C98677   1.772  10.202  -0.354  0.0053 -0.1509 -0.1767
  716MOL0     O98678   1.762  10.157  -0.488 -0.4548  0.1788  0.0888
  716MOL0     C98679   1.860  10.054  -0.516 -0.8041 -0.0028 -0.1913
  716MOL0     C98680   1.829   9.993  -0.655 -1.2253 -0.5537 -0.1410
  716MOL0     C98681   1.827  10.097  -0.765 -0.4328 -0.5803  0.0624
  716MOL0     C98682   1.775  10.040  -0.891 -0.3885  0.4531 -0.4737
  716MOL0     C98683   1.805  10.141  -1.002  0.1735  0.5077  0.5259
  716MOL0     C98684   1.786  10.074  -1.145 -0.3231  1.2365 -0.4724
  716MOL0     C98685   1.828  10.164  -1.269 -0.3026  0.2247  1.0782
  716MOL0     C98686   1.719  10.271  -1.287 -0.1508  0.2184 -0.5844
  716MOL0     N98687   1.588  10.206  -1.294 -0.0482 -0.7038 -0.3848
  716MOL0     C98688   1.487  10.229  -1.202  1.0694 -0.0147 -0.8408
  716MOL0     C98689   1.378  10.160  -1.247  0.0576 -0.2494 -0.3022
  716MOL0     C98690   1.251  10.157  -1.179  0.2195  0.0778 -0.3624
  716MOL0     C98691   1.151  10.042  -1.227 -0.3392  1.3512 -0.2261
  716MOL0     C98692   1.077  10.087  -1.342  0.8911  0.1917 -0.2673
  716MOL0     C98693   0.964   9.994  -1.381 -0.0724  0.7865  0.9785
  716MOL0     O98694   0.843  10.021  -1.314 -0.1827 -0.5286  0.1762
  716MOL0     C98695   0.722   9.978  -1.373 -0.2051  0.4869 -0.4343
  716MOL0     C98696   0.597  10.026  -1.318  0.0574  0.4707 -0.1198
  716MOL0     C98697   0.476   9.983  -1.382 -0.4084 -0.5057 -0.1405
  716MOL0     C98698   0.344  10.051  -1.359 -0.3046 -0.6052 -0.3812
  716MOL0     C98699   0.480   9.873  -1.469  0.8879  0.1338 -0.0983
  716MOL0     C98700   0.359   9.814  -1.533 -0.0012  0.7018  0.0149
  716MOL0     O98701   0.366   9.788  -1.667 -0.3049 -0.1442  0.6781
  716MOL0     C98702   0.271   9.722  -1.739  0.7973  0.6035  0.8372
  716MOL0     C98703   0.313   9.630  -1.829  0.8847 -0.2606 -0.3531
  716MOL0     C98704   0.219   9.550  -1.899 -0.7377  0.3099 -0.1288
  716MOL0     C98705   0.082   9.560  -1.867 -0.3687 -0.2143  0.3992
  716MOL0     O98706  -0.004   9.476  -1.940 -0.8954 -0.1723 -0.0469
  716MOL0     C98707  -0.143   9.477  -1.925 -0.1678 -0.5762 -0.5307
  716MOL0     C98708  -0.213   9.582  -2.009 -0.9855 -0.5010  0.1704
  716MOL0     C98709  -0.207   9.551  -2.158  0.1417  0.9752  0.4681
  716MOL0     C98710  -0.257   9.666  -2.244  0.5755 -0.5829 -0.4483
  716MOL0     C98711  -0.396   9.634  -2.312  0.2825 -0.8208  0.0501
  716MOL0     C98712  -0.513   9.613  -2.205  0.8097 -0.0381 -0.7547
  716MOL0     C98713  -0.547   9.722  -2.102  0.2042 -0.6313  0.4626
  716MOL0     C98714  -0.644   9.683  -1.984 -0.2713 -0.1753  0.9241
  716MOL0    Cl98715  -0.789   9.612  -2.050  0.0663  0.1445 -0.0987
  716MOL0     C98716   0.043   9.667  -1.789  0.3669  0.6487 -0.0017
  716MOL0     C98717   0.140   9.739  -1.729 -0.3301  0.0850 -0.3736
  716MOL0     O98718   0.260   9.808  -1.463 -0.9650  0.1513  0.1185
  716MOL0     C98719   0.601   9.818  -1.505  0.3338 -0.6375  1.0988
  716MOL0     C98720   0.724   9.877  -1.473  0.4669 -0.6142 -0.1383
  716MOL0     N98721   1.405  10.111  -1.376 -0.1416 -0.7105  0.0463
  716MOL0     N98722   1.533  10.121  -1.392  0.3389  0.3843 -0.4308
  716MOL0     C98723   1.652  10.220  -0.287  0.4864  0.8582  0.4194
  716MOL0     C98724   1.649  10.255  -0.150  0.7193  0.2674  1.4850
  716MOL0     C98725   1.741  10.474   0.216 -0.1008 -0.5356 -1.2385
  716MOL0     C98726   1.859  10.426   0.276 -0.1008 -0.4220  0.1675
  716MOL0     C98727   1.893  10.430   0.415  0.3181 -0.4217  0.1729
  716MOL0     C98728   1.821  10.513   0.498  0.2904 -0.1913 -0.8380
  716MOL0     O98729   1.858  10.514   0.635  0.3259 -0.2212 -0.2612
  716MOL0     C98730   1.744  10.535   0.731  0.0947  0.0302  0.1703
  716MOL0     C98731   1.649  10.412   0.749  0.6454 -0.4336  0.2589
  716MOL0     C98732   1.533  10.455   0.837 -0.3158 -0.4002  0.6360
  716MOL0     C98733   1.567  10.490   0.973  0.3001 -0.1731 -0.6940
  716MOL0     C98734   1.444  10.523   1.053  0.5004  0.2105  0.0732
  716MOL0     C98735   1.339  10.552   1.099  0.0836 -0.0165  1.2165
  716MOL0     C98736   1.709  10.578   0.439  1.1302 -0.0300  0.0412
  716MOL0     C98737   1.666  10.553   0.304  0.0270 -0.1909 -0.7679
  716MOL0     C98738   1.535  10.606   0.259 -1.1375 -0.2908 -0.1174
  716MOL0     H98739   1.992  10.279  -0.118  0.9418  0.2347 -1.9370
  716MOL0     H98740   1.988  10.213  -0.332  1.1900  4.1289  0.8124
  716MOL0     H98741   1.864   9.975  -0.441 -0.0317  0.8160  0.6507
  716MOL0     H98742   1.957  10.104  -0.526 -1.3848  0.9126 -1.5415
  716MOL0     H98743   1.906   9.916  -0.671 -1.4417 -0.3070 -2.9932
  716MOL0     H98744   1.738   9.932  -0.665 -0.4458 -1.4995 -2.0720
  716MOL0     H98745   1.768  10.186  -0.740  0.4058  0.4835 -1.5413
  716MOL0     H98746   1.925  10.140  -0.787 -0.6892 -0.0993 -0.1588
  716MOL0     H98747   1.823   9.942  -0.906 -3.2177 -1.1571  0.1586
  716MOL0     H98748   1.672  10.005  -0.897  0.0874 -1.0628 -0.3160
  716MOL0     H98749   1.904  10.187  -0.991 -0.1085  1.5167 -0.8887
  716MOL0     H98750   1.728  10.217  -0.988  0.6556  1.1117 -0.0486
  716MOL0     H98751   1.848   9.984  -1.142 -3.7837 -1.4078 -1.4241
  716MOL0     H98752   1.685  10.034  -1.157  1.0212 -2.5232 -0.5936
  716MOL0     H98753   1.820  10.114  -1.366  0.4845  0.5154  0.8593
  716MOL0     H98754   1.929  10.205  -1.264  0.6330 -1.2736 -2.3963
  716MOL0     H98755   1.727  10.349  -1.211  0.7611  0.3780 -0.8413
  716MOL0     H98756   1.735  10.324  -1.381 -1.4173  1.2267 -0.2731
  716MOL0     H98757   1.496  10.279  -1.106 -3.9138  1.9130 -1.0964
  716MOL0     H98758   1.191  10.249  -1.184 -0.5492 -0.4204 -0.4678
  716MOL0     H98759   1.283  10.130  -1.078  0.7882 -0.2654 -0.6280
  716MOL0     H98760   1.203   9.947  -1.246  0.7479  2.0435 -0.8339
  716MOL0     H98761   1.083  10.025  -1.144 -2.7413 -2.0690 -2.6490
  716MOL0     H98762   1.025  10.179  -1.311  3.4635  1.2223  1.2509
  716MOL0     H98763   1.141  10.106  -1.429 -1.0188  1.6099 -1.4651
  716MOL0     H98764   0.946  10.012  -1.487 -1.0055  1.8817  1.3085
  716MOL0     H98765   0.981   9.886  -1.373  1.8410  1.0747  1.3242
  716MOL0     H98766   0.595  10.103  -1.242  0.8123  0.2583  0.1282
  716MOL0     H98767   0.297  10.014  -1.266 -0.0586  0.4912  0.1996
  716MOL0     H98768   0.267  10.045  -1.436 -0.6651  3.1261 -0.5145
  716MOL0     H98769   0.360  10.159  -1.359 -0.1187 -0.5508  2.3033
  716MOL0     H98770   0.420   9.618  -1.844  0.5810 -1.1618 -2.0644
  716MOL0     H98771   0.235   9.467  -1.967 -0.4008  0.5613 -0.3552
  716MOL0     H98772  -0.165   9.378  -1.966  1.7050 -0.7751 -1.1554
  716MOL0     H98773  -0.162   9.485  -1.818  0.2522  2.5113 -0.6098
  716MOL0     H98774  -0.316   9.596  -1.975 -1.0522  0.4103 -0.3871
  716MOL0     H98775  -0.161   9.677  -2.003  1.7408 -1.7418 -1.5390
  716MOL0     H98776  -0.256   9.454  -2.168  0.4567  0.9233 -0.6268
  716MOL0     H98777  -0.100   9.532  -2.173 -0.1764 -2.8213  1.8447
  716MOL0     H98778  -0.172   9.676  -2.312  1.7137  1.5296  1.1768
  716MOL0     H98779  -0.255   9.759  -2.188  0.4365 -2.0737  2.1666
  716MOL0     H98780  -0.420   9.710  -2.387  1.9086 -0.3332 -0.0018
  716MOL0     H98781  -0.383   9.544  -2.373  0.6031 -0.6684 -0.1113
  716MOL0     H98782  -0.486   9.532  -2.136 -1.0531  0.7000  0.9256
  716MOL0     H98783  -0.605   9.594  -2.260  0.1839 -1.7145  0.7806
  716MOL0     H98784  -0.593   9.805  -2.156  0.2839 -1.8154 -1.5124
  716MOL0     H98785  -0.456   9.774  -2.071 -1.6459  3.6008 -0.3946
  716MOL0     H98786  -0.681   9.767  -1.924 -0.4908 -0.6913  1.5204
  716MOL0     H98787  -0.590   9.609  -1.925  1.8637  0.1183 -0.5680
  716MOL0     H98788  -0.059   9.689  -1.759  0.0079  0.1702 -0.8459
  716MOL0     H98789   0.104   9.805  -1.651  0.1359 -0.7771  0.5899
  716MOL0     H98790   0.601   9.746  -1.587  0.9577  0.0335  0.4895
  716MOL0     H98791   0.814   9.835  -1.516 -0.8143 -1.5722 -1.9693
  716MOL0     H98792   1.559  10.208  -0.343  2.1697 -0.8607 -2.2716
  716MOL0     H98793   1.551  10.260  -0.103 -1.0581  0.5883 -1.9289
  716MOL0     H98794   1.928  10.359   0.226 -0.0294 -0.0809 -0.1982
  716MOL0     H98795   1.978  10.374   0.453 -2.5151 -4.6846  0.9560
  716MOL0     H98796   1.788  10.544   0.831  1.2928  0.8224 -0.4178
  716MOL0     H98797   1.684  10.625   0.713 -2.8861 -1.4828  1.6999
  716MOL0     H98798   1.696  10.324   0.793  2.9700 -0.5132 -2.1353
  716MOL0     H98799   1.608  10.394   0.649  0.5126  1.3019 -0.0211
  716MOL0     H98800   1.477  10.539   0.795  2.2699  2.7478  2.9924
  716MOL0     H98801   1.463  10.372   0.852  0.2956 -1.0843 -0.1873
  716MOL0     H98802   1.641  10.570   0.981 -2.4179  2.5821 -1.1568
  716MOL0     H98803   1.602  10.400   1.024  0.4738  0.1575 -0.2266
  716MOL0     H98804   1.238  10.556   1.133 -1.5712 -3.8373 -2.3493
  716MOL0     H98805   1.661  10.655   0.498  2.0576 -0.5763  1.5822
  716MOL0     H98806   1.548  10.660   0.164  2.7129 -2.1848 -0.8668
  716MOL0     H98807   1.464  10.523   0.253 -1.2823 -0.0684 -2.0308
  716MOL0     H98808   1.487  10.678   0.325  0.3593  0.7195 -0.0806
  717MOL0     O98809   8.594   3.830   0.908  0.0215 -0.2227 -0.1908
  717MOL0     C98810   8.706   3.829   0.865 -1.4961 -0.1305 -0.3659
  717MOL0     O98811   8.746   3.791   0.742  0.9439 -0.0528  0.5126
  717MOL0     C98812   8.647   3.739   0.661 -0.4844  0.5451 -0.0692
  717MOL0     C98813   8.607   3.795   0.547  0.3190  0.5923  0.3267
  717MOL0     C98814   8.498   3.741   0.467  0.3390  0.7663  0.4485
  717MOL0     C98815   8.447   3.617   0.504  0.0172 -0.0662 -0.0124
  717MOL0     O98816   8.347   3.552   0.426 -0.0258 -0.1048  0.1911
  717MOL0     C98817   8.231   3.633   0.408 -0.1235  0.0975 -0.6613
  717MOL0     C98818   8.104   3.548   0.427 -0.1659  0.2134 -0.1916
  717MOL0     C98819   8.104   3.435   0.323  0.1914 -0.5183  0.0232
  717MOL0     C98820   8.035   3.301   0.356  0.1796  0.3118  0.0146
  717MOL0     C98821   8.052   3.202   0.241 -0.2017 -0.2031  0.3783
  717MOL0     C98822   8.005   3.060   0.273  0.1996 -0.0881  0.0743
  717MOL0     C98823   8.051   2.954   0.168  0.5212  0.0877 -0.4029
  717MOL0     C98824   8.003   2.964   0.029  0.5143 -0.1892 -0.6610
  717MOL0     N98825   7.861   2.932   0.031  0.8051  0.4218  0.5808
  717MOL0     C98826   7.763   3.029   0.017 -0.8473 -0.4354 -0.0090
  717MOL0     C98827   7.640   2.958   0.009  0.2628  0.6142  0.2657
  717MOL0     C98828   7.497   3.015  -0.008 -1.0896  0.0405  0.0868
  717MOL0     C98829   7.399   2.988   0.103  0.0418 -0.6294 -0.4093
  717MOL0     C98830   7.260   3.009   0.061 -0.4286 -0.2589 -0.3599
  717MOL0     C98831   7.209   3.156   0.071 -0.1490 -0.2180 -0.0087
  717MOL0     O98832   7.278   3.239  -0.026  0.2092 -0.8576  0.6709
  717MOL0     C98833   7.260   3.376  -0.011 -0.6299 -0.3472  0.1699
  717MOL0     C98834   7.359   3.452  -0.071 -0.0615 -0.3217  0.4189
  717MOL0     C98835   7.357   3.595  -0.075  0.4364  0.2128 -0.1991
  717MOL0     C98836   7.474   3.670  -0.124 -0.6957 -0.4386 -0.8836
  717MOL0     C98837   7.246   3.659  -0.017 -0.2395 -0.7774 -0.3440
  717MOL0     C98838   7.215   3.809  -0.022  0.6952 -0.2067 -0.1784
  717MOL0     O98839   7.279   3.872  -0.120 -0.2871 -0.3093  0.1575
  717MOL0     C98840   7.273   4.013  -0.140  1.1307  0.1010 -0.4135
  717MOL0     C98841   7.156   4.088  -0.150 -0.0341  0.2837 -0.2664
  717MOL0     C98842   7.159   4.228  -0.175  0.1007 -0.9164  0.2198
  717MOL0     C98843   7.288   4.291  -0.195 -0.3049 -0.3161  0.4122
  717MOL0     O98844   7.305   4.425  -0.218 -0.3147  0.6727  0.1266
  717MOL0     C98845   7.398   4.489  -0.128 -0.3912 -0.4422  0.3020
  717MOL0     C98846   7.438   4.628  -0.184 -0.4278 -0.0695 -0.4283
  717MOL0     C98847   7.408   4.736  -0.080 -0.0043  0.3025 -0.9185
  717MOL0     C98848   7.444   4.878  -0.125  0.6124 -0.6115 -0.8552
  717MOL0     C98849   7.393   5.000  -0.035  0.0478  0.0090  1.3584
  717MOL0     C98850   7.473   5.017   0.087 -1.0475  0.4597 -0.5166
  717MOL0     C98851   7.600   5.104   0.063  0.0357  0.3199  0.2246
  717MOL0     C98852   7.659   5.155   0.191 -0.9012 -0.0611 -0.8895
  717MOL0    Cl98853   7.777   5.289   0.156 -0.0719 -0.3470  0.2237
  717MOL0     C98854   7.402   4.212  -0.191 -0.8695  0.8484  0.8614
  717MOL0     C98855   7.401   4.074  -0.171 -0.5345 -0.3026  0.1865
  717MOL0     O98856   7.135   3.861   0.055 -0.3838 -0.4163  0.2362
  717MOL0     C98857   7.142   3.583   0.037 -0.7486  0.3754 -0.1906
  717MOL0     C98858   7.152   3.444   0.041  0.7192 -0.3676 -1.0407
  717MOL0     N98859   7.674   2.827   0.032 -0.1784  0.4814  0.2482
  717MOL0     N98860   7.804   2.808   0.025 -0.6300  0.1132  0.8975
  717MOL0     C98861   8.493   3.550   0.612 -1.4080 -0.6889 -0.2690
  717MOL0     C98862   8.587   3.616   0.694 -0.3930 -0.5961 -0.2497
  717MOL0     C98863   8.822   3.842   0.961  0.4952 -0.5834 -0.2155
  717MOL0     C98864   8.820   3.787   1.086 -0.4241  0.0466 -0.9468
  717MOL0     C98865   8.917   3.817   1.181  0.1249  0.5584  0.1267
  717MOL0     C98866   9.024   3.891   1.148 -0.0134 -1.0285 -0.6335
  717MOL0     O98867   9.114   3.896   1.246  0.8706  0.0761 -0.5519
  717MOL0     C98868   9.227   3.996   1.235  0.2875  0.9993 -0.0102
  717MOL0     C98869   9.315   3.971   1.356 -0.5119 -0.0654  0.6261
  717MOL0     C98870   9.384   3.834   1.348 -0.0220 -0.7281 -0.6900
  717MOL0     C98871   9.298   3.707   1.376  0.3688  0.2790 -0.7730
  717MOL0     C98872   9.388   3.596   1.428  0.1911  0.9220 -0.5151
  717MOL0     C98873   9.472   3.522   1.468  0.3794 -0.1404 -0.0545
  717MOL0     C98874   9.034   3.944   1.018 -0.5655 -0.0590  0.3352
  717MOL0     C98875   8.928   3.927   0.928 -0.0619  0.3780 -0.1154
  717MOL0     C98876   8.944   3.993   0.797  0.1628 -0.8552  0.2553
  717MOL0     H98877   8.649   3.888   0.509 -2.2723  1.0127 -1.7878
  717MOL0     H98878   8.464   3.795   0.379  2.3510  1.8535  0.2726
  717MOL0     H98879   8.237   3.682   0.311 -2.6978  0.6086 -0.6434
  717MOL0     H98880   8.223   3.718   0.477  1.7891  1.2847 -1.8030
  717MOL0     H98881   8.115   3.494   0.521 -2.3054 -2.1770 -1.2052
  717MOL0     H98882   8.011   3.605   0.432  1.2692  2.6542  4.6126
  717MOL0     H98883   8.062   3.473   0.229  0.1281  3.2906  1.4174
  717MOL0     H98884   8.208   3.414   0.298  1.1748  2.3043  1.3106
  717MOL0     H98885   8.070   3.252   0.448 -1.0627 -2.8610 -1.0496
  717MOL0     H98886   7.927   3.318   0.367 -0.0911 -0.7144 -0.8294
  717MOL0     H98887   8.151   3.206   0.192 -0.5807 -0.2000 -0.4084
  717MOL0     H98888   7.992   3.244   0.160 -0.1671 -0.1118  0.3996
  717MOL0     H98889   8.048   3.028   0.368  0.0566  1.1216  0.5602
  717MOL0     H98890   7.897   3.045   0.265  0.4692 -2.3697 -0.0749
  717MOL0     H98891   8.043   2.854   0.210  0.9611  0.6062  0.9671
  717MOL0     H98892   8.157   2.971   0.150  0.6771  0.3400  0.6605
  717MOL0     H98893   8.017   3.070   0.007 -2.3757 -0.0675 -2.3979
  717MOL0     H98894   8.063   2.891  -0.026  2.6927 -0.0817  1.3821
  717MOL0     H98895   7.761   3.137   0.014  1.0241 -0.3893 -2.3610
  717MOL0     H98896   7.455   2.981  -0.103 -3.3503 -0.2456  1.1341
  717MOL0     H98897   7.510   3.123  -0.025  0.3017 -0.3888 -2.1297
  717MOL0     H98898   7.397   2.884   0.137 -1.6282  0.4365  3.2645
  717MOL0     H98899   7.436   3.044   0.190 -1.6221 -0.4681  0.2187
  717MOL0     H98900   7.245   2.974  -0.041 -0.2171  2.0876 -1.2611
  717MOL0     H98901   7.204   2.939   0.124 -0.6924  1.4731  1.4262
  717MOL0     H98902   7.100   3.154   0.065 -0.0812 -0.3740 -1.6648
  717MOL0     H98903   7.253   3.179   0.168  2.8975 -1.3366 -0.9921
  717MOL0     H98904   7.449   3.405  -0.109  0.8365  1.8435 -0.2902
  717MOL0     H98905   7.563   3.606  -0.126 -0.5381 -0.2462 -0.1848
  717MOL0     H98906   7.487   3.762  -0.067 -2.5636 -1.8125  1.9904
  717MOL0     H98907   7.461   3.704  -0.227  0.1781  0.2641 -0.7733
  717MOL0     H98908   7.061   4.037  -0.136 -0.0825  0.0897 -1.2574
  717MOL0     H98909   7.065   4.281  -0.170 -0.3288 -1.5161 -1.1313
  717MOL0     H98910   7.347   4.511  -0.034  3.3939  4.6744  1.6442
  717MOL0     H98911   7.489   4.435  -0.103  0.0557  0.7130  1.2563
  717MOL0     H98912   7.542   4.628  -0.219 -0.6633 -1.3690 -1.1953
  717MOL0     H98913   7.371   4.646  -0.268  1.1468 -3.1316 -2.5552
  717MOL0     H98914   7.465   4.698   0.005 -1.5580  2.9320  1.4633
  717MOL0     H98915   7.301   4.740  -0.054  0.4438 -1.0231  1.4127
  717MOL0     H98916   7.406   4.881  -0.227  2.2694  0.2610 -1.4905
  717MOL0     H98917   7.549   4.903  -0.142  0.2550  1.0781 -0.7242
  717MOL0     H98918   7.397   5.086  -0.104  0.4781 -0.9978  0.0972
  717MOL0     H98919   7.291   4.972  -0.006 -0.1091 -0.2865  0.5452
  717MOL0     H98920   7.497   4.918   0.128  0.2684  0.3031 -1.6042
  717MOL0     H98921   7.409   5.060   0.165 -2.5647 -3.8261  0.9468
  717MOL0     H98922   7.570   5.198   0.016 -0.1880  1.8462  3.1866
  717MOL0     H98923   7.671   5.055  -0.005  1.6332  1.9073  0.6839
  717MOL0     H98924   7.710   5.072   0.241  0.3211  0.6578 -0.8898
  717MOL0     H98925   7.576   5.198   0.247 -0.1681 -0.5963  0.6548
  717MOL0     H98926   7.498   4.258  -0.213 -0.1005 -1.1780 -0.3043
  717MOL0     H98927   7.495   4.023  -0.154  0.7427  1.9010  0.1073
  717MOL0     H98928   7.053   3.637   0.071 -1.8435  0.9976 -3.6182
  717MOL0     H98929   7.071   3.380   0.075  1.3751 -0.7686 -0.1910
  717MOL0     H98930   8.446   3.457   0.641 -2.3320 -0.0819  0.2524
  717MOL0     H98931   8.598   3.564   0.789 -2.8039 -0.0222  0.3920
  717MOL0     H98932   8.739   3.720   1.112  1.0903 -1.7906 -0.7454
  717MOL0     H98933   8.904   3.788   1.285  2.1967  2.7073  1.0768
  717MOL0     H98934   9.286   3.981   1.144 -1.9624 -2.2922 -1.1715
  717MOL0     H98935   9.187   4.096   1.218  0.3671  0.8819 -0.9390
  717MOL0     H98936   9.264   3.971   1.452 -1.7760 -0.1707 -0.0299
  717MOL0     H98937   9.388   4.053   1.354 -3.3788  2.6565  0.8324
  717MOL0     H98938   9.446   3.830   1.258  2.1586  0.4457  0.6737
  717MOL0     H98939   9.458   3.844   1.427  2.2922  0.2858 -2.8291
  717MOL0     H98940   9.250   3.672   1.283 -1.2308  1.6378 -0.5169
  717MOL0     H98941   9.217   3.732   1.445  0.6705 -1.7155  0.3802
  717MOL0     H98942   9.546   3.460   1.515 -1.7243 -3.5269 -0.8180
  717MOL0     H98943   9.131   3.991   1.005  0.2783 -1.0054  2.7039
  717MOL0     H98944   8.850   4.039   0.766 -0.2658 -2.4545 -0.9161
  717MOL0     H98945   9.013   4.077   0.801 -0.8798  0.4252 -3.7831
  717MOL0     H98946   8.988   3.925   0.723  0.9490 -0.1166  0.0294
  718MOL0     O98947   5.426   3.695   6.684  0.0028  0.3500 -0.0741
  718MOL0     C98948   5.460   3.803   6.624 -0.0346 -0.2065 -0.3904
  718MOL0     O98949   5.379   3.889   6.563 -0.4416 -0.5355  0.0356
  718MOL0     C98950   5.255   3.850   6.522  0.0426 -0.2024  0.5423
  718MOL0     C98951   5.143   3.919   6.563 -0.5649  0.8002  0.3625
  718MOL0     C98952   5.017   3.882   6.537  0.0246 -0.1010 -0.6607
  718MOL0     C98953   4.997   3.774   6.452  0.3293 -0.0352 -0.5932
  718MOL0     O98954   4.869   3.723   6.417  0.4166  0.5444  0.1440
  718MOL0     C98955   4.780   3.696   6.535 -0.0538  0.9264 -0.2647
  718MOL0     C98956   4.813   3.575   6.628  0.0712  0.5683 -0.1149
  718MOL0     C98957   4.938   3.598   6.711  0.0772  0.0134  0.3287
  718MOL0     C98958   4.963   3.494   6.817  0.3744  1.0091  0.0355
  718MOL0     C98959   5.109   3.504   6.860 -0.3235 -0.3787  0.4617
  718MOL0     C98960   5.184   3.392   6.804  0.7086 -0.1061 -0.0042
  718MOL0     C98961   5.334   3.400   6.833 -0.0731  0.0295  0.1892
  718MOL0     C98962   5.400   3.286   6.761  0.3297 -0.0286 -0.2903
  718MOL0     N98963   5.549   3.308   6.772  0.4460  0.9269  0.0224
  718MOL0     C98964   5.635   3.320   6.663 -0.2018 -0.1494 -0.2804
  718MOL0     C98965   5.760   3.311   6.728  0.0079  0.2563  1.2206
  718MOL0     C98966   5.888   3.318   6.645  0.1138 -0.2477 -0.1668
  718MOL0     C98967   6.016   3.279   6.731  0.2747 -0.9011 -0.7320
  718MOL0     C98968   6.091   3.384   6.807  0.0064 -0.3966 -0.2532
  718MOL0     C98969   6.128   3.501   6.716 -0.7706  0.1388  0.5949
  718MOL0     O98970   6.227   3.594   6.754 -0.4026  0.0302 -0.4659
  718MOL0     C98971   6.355   3.557   6.723 -0.6043  0.5637  0.0563
  718MOL0     C98972   6.448   3.648   6.762  0.1839 -0.1916  0.3699
  718MOL0     C98973   6.590   3.634   6.745 -0.6984 -0.0244  0.9810
  718MOL0     C98974   6.666   3.748   6.798 -0.1835  0.3923 -0.1990
  718MOL0     C98975   6.641   3.514   6.688 -0.2916 -1.5795 -0.2335
  718MOL0     C98976   6.782   3.489   6.665  0.3179 -0.3887  0.0136
  718MOL0     O98977   6.819   3.365   6.651 -0.3698  0.4787  0.2667
  718MOL0     C98978   6.945   3.348   6.588  0.0410 -0.5896  0.6927
  718MOL0     C98979   7.044   3.310   6.681 -0.4452 -0.2343  0.1453
  718MOL0     C98980   7.178   3.290   6.641 -0.8910 -0.4489  0.8402
  718MOL0     C98981   7.214   3.307   6.505 -0.5002 -0.4423 -0.0376
  718MOL0     O98982   7.344   3.304   6.460 -0.2363  0.5616 -0.1110
  718MOL0     C98983   7.460   3.293   6.552 -0.9367 -0.7251 -0.3743
  718MOL0     C98984   7.572   3.380   6.495 -0.3621 -0.0684  0.2372
  718MOL0     C98985   7.632   3.328   6.357  0.3648 -0.0410 -0.2605
  718MOL0     C98986   7.775   3.391   6.344 -0.0771  0.6278  0.5444
  718MOL0     C98987   7.834   3.364   6.201  0.3041 -0.2872  0.5812
  718MOL0     C98988   7.946   3.263   6.208  0.2838  0.5000 -0.6615
  718MOL0     C98989   8.015   3.240   6.074 -0.0668 -0.3197 -0.3099
  718MOL0     C98990   8.165   3.225   6.088  0.1417 -0.7247  0.3493
  718MOL0    Cl98991   8.247   3.391   6.124 -0.2287  0.2533  0.0821
  718MOL0     C98992   7.114   3.353   6.416  0.8007  0.0373 -0.3215
  718MOL0     C98993   6.982   3.377   6.459  0.1142 -0.0073  0.0335
  718MOL0     O98994   6.857   3.590   6.662  0.1549  1.1001  0.4206
  718MOL0     C98995   6.544   3.413   6.662  0.4651  1.0066 -0.7781
  718MOL0     C98996   6.402   3.430   6.680 -0.1165 -0.0925 -0.5887
  718MOL0     N98997   5.744   3.282   6.859 -0.2791  0.3599 -0.4751
  718MOL0     N98998   5.623   3.270   6.886  0.4123  0.0758  0.7422
  718MOL0     C98999   5.105   3.718   6.379  0.1943 -0.5055  0.1011
  718MOL0     C99000   5.234   3.755   6.423 -0.5825 -0.6079  0.0922
  718MOL0     C99001   5.600   3.853   6.643 -0.2651 -0.2692  1.1659
  718MOL0     C99002   5.612   3.991   6.648 -0.6347 -0.3028 -0.3481
  718MOL0     C99003   5.739   4.045   6.690  0.9770  0.0419  0.4686
  718MOL0     C99004   5.846   3.970   6.708  0.4306  0.2393 -0.3411
  718MOL0     O99005   5.966   4.015   6.761  0.1899 -0.1397  0.6009
  718MOL0     C99006   6.076   4.012   6.673  0.2524  0.4480  0.4753
  718MOL0     C99007   6.170   4.110   6.738  0.6309 -1.2389  0.2191
  718MOL0     C99008   6.311   4.107   6.674  0.6083 -0.0096 -0.1030
  718MOL0     C99009   6.422   4.130   6.779 -0.0200 -0.6424  0.6405
  718MOL0     C99010   6.405   4.047   6.898  0.4820 -0.7922 -0.0446
  718MOL0     C99011   6.402   3.973   6.996 -0.4047  0.2629  0.0553
  718MOL0     C99012   5.833   3.833   6.689 -0.0790  0.4066  0.2156
  718MOL0     C99013   5.709   3.771   6.666  0.7086 -0.1573 -0.5455
  718MOL0     C99014   5.699   3.623   6.656  0.2798  0.0387  0.1735
  718MOL0     H99015   5.158   4.011   6.620  1.3547  2.8694 -3.1522
  718MOL0     H99016   4.934   3.930   6.587  0.8225 -0.8767  1.5436
  718MOL0     H99017   4.681   3.671   6.494 -0.5619  0.3376  1.2348
  718MOL0     H99018   4.767   3.787   6.596 -1.0564 -0.1849  1.2542
  718MOL0     H99019   4.727   3.551   6.692 -0.4273 -0.4649 -1.1428
  718MOL0     H99020   4.840   3.496   6.558  0.6159  2.9952 -2.7869
  718MOL0     H99021   5.023   3.591   6.643  0.6254 -1.0842  1.0869
  718MOL0     H99022   4.944   3.700   6.749  0.4912  0.4394 -0.8716
  718MOL0     H99023   4.885   3.501   6.893 -1.7150 -2.6680 -1.4844
  718MOL0     H99024   4.944   3.395   6.773 -0.8043  0.9700  0.6117
  718MOL0     H99025   5.122   3.508   6.968  0.8579  1.2960  0.3027
  718MOL0     H99026   5.156   3.598   6.827  1.5602 -1.3634  0.2411
  718MOL0     H99027   5.140   3.300   6.844 -1.9818  1.5342  1.0423
  718MOL0     H99028   5.171   3.386   6.696  2.5253  2.2315 -0.4254
  718MOL0     H99029   5.350   3.396   6.942  0.1830 -0.5230  0.1338
  718MOL0     H99030   5.384   3.488   6.791  2.1812 -2.1363 -1.9788
  718MOL0     H99031   5.378   3.190   6.808 -1.9249  1.8201  2.8383
  718MOL0     H99032   5.368   3.288   6.657  0.3863  0.9671 -0.2972
  718MOL0     H99033   5.618   3.352   6.560  1.1139 -0.7587 -0.7063
  718MOL0     H99034   5.891   3.421   6.607  0.5396 -0.3642 -0.4627
  718MOL0     H99035   5.888   3.257   6.554  1.8135  0.7845 -0.9208
  718MOL0     H99036   5.998   3.213   6.816 -1.8037  2.0874  1.3857
  718MOL0     H99037   6.091   3.232   6.667 -1.2558 -1.5643 -2.1249
  718MOL0     H99038   6.032   3.413   6.895  0.0935  1.5812 -0.7864
  718MOL0     H99039   6.188   3.348   6.842  2.0871  3.7355 -1.0554
  718MOL0     H99040   6.154   3.464   6.616 -0.7488 -0.6896  0.9007
  718MOL0     H99041   6.036   3.560   6.715 -1.4211 -0.8091 -1.9290
  718MOL0     H99042   6.402   3.739   6.798 -0.8448  0.0751 -1.4843
  718MOL0     H99043   6.681   3.830   6.727 -3.3184  0.5765 -0.8017
  718MOL0     H99044   6.764   3.719   6.837  0.2471  1.1108 -0.7041
  718MOL0     H99045   6.606   3.785   6.881 -1.5447  0.7495 -1.3062
  718MOL0     H99046   7.017   3.293   6.785 -3.2322  1.2737 -0.2551
  718MOL0     H99047   7.259   3.271   6.710  1.0718  1.3631 -0.7976
  718MOL0     H99048   7.438   3.363   6.633 -3.7247  0.8427 -2.3205
  718MOL0     H99049   7.493   3.192   6.580  0.8062  0.0153  0.3946
  718MOL0     H99050   7.549   3.487   6.492 -0.5178  0.0828  3.3694
  718MOL0     H99051   7.657   3.392   6.563  0.5213 -0.7393 -0.7241
  718MOL0     H99052   7.567   3.371   6.280  0.2463 -1.9090 -1.2663
  718MOL0     H99053   7.635   3.219   6.359 -1.0146 -0.0871  1.8501
  718MOL0     H99054   7.843   3.358   6.423  1.1265 -1.0434 -1.1028
  718MOL0     H99055   7.772   3.499   6.364  0.5610  0.4429  1.7318
  718MOL0     H99056   7.751   3.335   6.136 -1.7231  0.2378  2.7823
  718MOL0     H99057   7.884   3.451   6.158  0.0008  1.2929  3.2181
  718MOL0     H99058   7.908   3.169   6.247 -0.2442  0.7461 -0.5714
  718MOL0     H99059   8.002   3.315   6.287 -1.0519  0.2755  0.4647
  718MOL0     H99060   7.999   3.318   5.999  0.8741  1.8256  1.6023
  718MOL0     H99061   7.970   3.145   6.043 -2.3724  1.1761 -1.8091
  718MOL0     H99062   8.224   3.181   6.008  0.5847  0.1795  0.1633
  718MOL0     H99063   8.185   3.161   6.174  2.9717 -0.8123 -0.2801
  718MOL0     H99064   7.146   3.388   6.318 -4.4026  0.1985 -2.2707
  718MOL0     H99065   6.916   3.439   6.399 -0.2967  1.9448  2.3306
  718MOL0     H99066   6.581   3.325   6.610  1.5602  2.1159 -1.9325
  718MOL0     H99067   6.336   3.345   6.667 -0.6311  0.1195  0.5897
  718MOL0     H99068   5.082   3.651   6.297  2.5675 -1.2939 -0.0207
  718MOL0     H99069   5.311   3.686   6.389  0.1080 -2.0274  4.0539
  718MOL0     H99070   5.536   4.064   6.623 -0.9876 -0.6141 -0.1962
  718MOL0     H99071   5.744   4.150   6.715  0.8702  0.0720  0.3608
  718MOL0     H99072   6.119   3.912   6.656  4.2348  2.2933 -1.5669
  718MOL0     H99073   6.054   4.043   6.571  1.8031 -0.8528 -0.3021
  718MOL0     H99074   6.174   4.102   6.847  0.3395  1.4847  0.5171
  718MOL0     H99075   6.134   4.213   6.726  2.2150 -0.8483 -1.9326
  718MOL0     H99076   6.317   4.006   6.634  0.6994 -1.1659  2.6514
  718MOL0     H99077   6.295   4.187   6.600 -3.1285 -0.0119  0.4854
  718MOL0     H99078   6.425   4.234   6.814  2.1723  1.0588 -3.8045
  718MOL0     H99079   6.521   4.099   6.745 -0.3443 -1.4170  0.3709
  718MOL0     H99080   6.392   3.888   7.061  2.1932 -0.4211 -0.3326
  718MOL0     H99081   5.927   3.779   6.697 -0.1927  0.2967  0.9419
  718MOL0     H99082   5.623   3.594   6.583  1.7877 -1.4087 -0.8931
  718MOL0     H99083   5.795   3.592   6.614  0.2603  1.7858 -1.2967
  718MOL0     H99084   5.666   3.591   6.755  0.8717 -0.2452  0.2816
  719MOL0     O99085   9.753   5.214   4.705 -0.4726 -0.6479  0.1817
  719MOL0     C99086   9.824   5.162   4.791  0.2772  0.3651 -0.0355
  719MOL0     O99087   9.881   5.227   4.894  0.3038 -0.3735 -0.1750
  719MOL0     C99088   9.861   5.365   4.896  0.5465  0.3344 -0.0488
  719MOL0     C99089   9.728   5.426   4.906 -0.4166 -0.7426  0.4217
  719MOL0     C99090   9.727   5.566   4.911  0.7328 -0.2854 -0.2256
  719MOL0     C99091   9.834   5.644   4.929 -0.9641 -0.7284 -0.5963
  719MOL0     O99092   9.827   5.779   4.949 -0.0287  0.5174 -0.6008
  719MOL0     C99093   9.879   5.860   4.847 -0.5827 -0.4689 -0.2885
  719MOL0     C99094   9.759   5.919   4.766  0.1038 -0.6294 -0.7615
  719MOL0     C99095   9.806   6.012   4.659 -0.0467  0.2023 -0.1785
  719MOL0     C99096   9.824   5.937   4.529  0.7719 -0.6674  1.4615
  719MOL0     C99097   9.864   6.040   4.422 -0.0415  0.2001 -0.0118
  719MOL0     C99098   9.934   5.983   4.301 -0.1875  0.4738 -0.1097
  719MOL0     C99099  10.008   6.094   4.220 -0.4258  0.3246 -0.3041
  719MOL0     C99100   9.926   6.139   4.101  0.1072 -0.2350 -0.1909
  719MOL0     N99101   9.990   6.232   4.009  0.9422  0.7416 -0.0687
  719MOL0     C99102  10.082   6.190   3.920 -0.3314  0.2150  0.5386
  719MOL0     C99103  10.139   6.308   3.878  0.0656 -0.6246 -0.1472
  719MOL0     C99104  10.262   6.318   3.798  0.1763 -1.0040  0.0934
  719MOL0     C99105  10.393   6.300   3.877 -0.8329 -0.5289 -0.4896
  719MOL0     C99106  10.406   6.411   3.980 -0.5601  0.1637  0.2857
  719MOL0     C99107  10.515   6.369   4.088 -0.3393 -0.3635  0.5702
  719MOL0     O99108  10.468   6.248   4.160 -0.2060 -0.2413 -0.5292
  719MOL0     C99109  10.376   6.253   4.263  0.4373  0.8178 -0.9100
  719MOL0     C99110  10.309   6.367   4.308  0.2309 -0.5694 -0.2079
  719MOL0     C99111  10.229   6.351   4.421 -0.3087 -0.1035  0.1658
  719MOL0     C99112  10.164   6.477   4.468  0.4619  0.7017  0.2416
  719MOL0     C99113  10.226   6.228   4.495 -0.3570 -0.0727 -0.2780
  719MOL0     C99114  10.184   6.221   4.638  0.4863 -0.1943 -0.3557
  719MOL0     O99115  10.172   6.344   4.698 -0.1442 -0.0429 -0.8693
  719MOL0     C99116  10.160   6.365   4.836 -0.1394  0.3941 -0.0987
  719MOL0     C99117  10.047   6.314   4.898  0.1187 -0.4619 -0.0767
  719MOL0     C99118  10.031   6.332   5.037 -0.0857 -0.4946 -0.9091
  719MOL0     C99119  10.132   6.399   5.117 -0.5051  0.8043  0.5201
  719MOL0     O99120  10.130   6.417   5.255 -0.2863 -0.3633 -0.4468
  719MOL0     C99121  10.014   6.373   5.325 -1.2851  0.7282  0.3208
  719MOL0     C99122  10.042   6.366   5.477  0.2417  0.2276  0.3221
  719MOL0     C99123  10.015   6.504   5.548 -0.2028  0.8474  0.1369
  719MOL0     C99124  10.000   6.470   5.693 -0.6079 -0.2455  0.6742
  719MOL0     C99125   9.851   6.450   5.723 -0.2198 -0.8967 -1.0538
  719MOL0     C99126   9.824   6.385   5.862  0.2019 -0.0602 -0.1011
  719MOL0     C99127   9.666   6.346   5.866  0.4465 -1.2808  0.6629
  719MOL0     C99128   9.630   6.322   6.009 -0.3140 -0.9529 -0.6156
  719MOL0    Cl99129   9.476   6.234   6.008  0.1177  0.1276 -0.3656
  719MOL0     C99130  10.249   6.433   5.054  0.3454  0.3287  0.0751
  719MOL0     C99131  10.269   6.411   4.919  0.2026 -0.3895  0.7631
  719MOL0     O99132  10.171   6.113   4.700  0.0330  0.0968 -0.2165
  719MOL0     C99133  10.282   6.116   4.430  0.0180 -0.9550 -0.2250
  719MOL0     C99134  10.347   6.124   4.312 -0.1066 -0.1622  0.0110
  719MOL0     N99135  10.068   6.419   3.924 -0.2869  0.0792  0.0543
  719MOL0     N99136   9.972   6.366   3.995 -0.0068 -0.0217  0.4790
  719MOL0     C99137   9.960   5.591   4.907 -0.0938  0.4915  0.0657
  719MOL0     C99138   9.965   5.450   4.893 -0.3148  0.2300  0.3836
  719MOL0     C99139   9.843   5.022   4.769  0.5519  0.5610  0.1073
  719MOL0     C99140   9.733   4.938   4.749  0.0513 -0.0527  1.2212
  719MOL0     C99141   9.762   4.801   4.727  0.1611  0.5823 -0.2576
  719MOL0     C99142   9.896   4.754   4.713  0.0822  0.0091 -0.5005
  719MOL0     O99143   9.921   4.618   4.710  0.0941 -0.3845  0.2279
  719MOL0     C99144   9.958   4.559   4.587 -0.2326 -0.0585  1.0186
  719MOL0     C99145  10.103   4.593   4.531  0.0685 -0.3844 -0.8051
  719MOL0     C99146  10.203   4.556   4.639  0.0647 -0.5952 -0.3699
  719MOL0     C99147  10.344   4.614   4.611  0.4128  0.3365 -0.5945
  719MOL0     C99148  10.428   4.524   4.539 -0.3505 -0.3122 -0.0137
  719MOL0     C99149  10.512   4.447   4.489  1.2875 -0.0408  0.3518
  719MOL0     C99150  10.000   4.844   4.714  0.3388 -0.0252  0.8934
  719MOL0     C99151   9.976   4.980   4.744  0.6750  0.3859  0.1824
  719MOL0     C99152  10.093   5.077   4.714 -0.7019  0.1548 -0.2958
  719MOL0     H99153   9.631   5.379   4.904 -2.0241  2.2567  1.8359
  719MOL0     H99154   9.638   5.627   4.920  0.7661 -0.3011  0.2097
  719MOL0     H99155   9.934   5.803   4.771 -0.9193 -2.7996  1.1272
  719MOL0     H99156   9.951   5.930   4.891  2.1401 -1.7636 -2.3819
  719MOL0     H99157   9.707   5.835   4.719 -4.5850  3.6341 -4.3974
  719MOL0     H99158   9.684   5.971   4.828 -0.1600 -1.8574 -0.0053
  719MOL0     H99159   9.730   6.086   4.633 -1.6629 -1.3371 -0.0575
  719MOL0     H99160   9.897   6.067   4.682 -1.5283  2.0678  1.6864
  719MOL0     H99161   9.910   5.872   4.547  0.0087 -2.4171 -0.8375
  719MOL0     H99162   9.731   5.890   4.495  0.1011  3.8541 -4.7360
  719MOL0     H99163   9.934   6.106   4.475  0.8347 -1.1574  0.5825
  719MOL0     H99164   9.786   6.099   4.374  1.0376 -1.2026 -3.8797
  719MOL0     H99165  10.009   5.913   4.340  0.4820  0.1271 -1.9211
  719MOL0     H99166   9.862   5.924   4.244  0.9760 -0.1332 -0.9844
  719MOL0     H99167  10.100   6.055   4.174 -0.3936  2.9427 -2.7026
  719MOL0     H99168  10.052   6.175   4.279  0.5055 -0.1275 -0.3517
  719MOL0     H99169   9.882   6.062   4.037 -0.6290  0.2144 -0.2314
  719MOL0     H99170   9.845   6.199   4.143  1.5440  2.0625 -0.5342
  719MOL0     H99171  10.119   6.090   3.902  0.1622  0.5304 -0.2637
  719MOL0     H99172  10.264   6.419   3.754 -2.2589 -0.6942  0.5189
  719MOL0     H99173  10.261   6.245   3.717  1.4424  0.2191 -1.0863
  719MOL0     H99174  10.397   6.204   3.928  0.6211  0.1211  0.7085
  719MOL0     H99175  10.479   6.310   3.810  0.0528  5.0974  0.9598
  719MOL0     H99176  10.434   6.507   3.935  0.5710 -0.6094 -0.7654
  719MOL0     H99177  10.312   6.436   4.029  0.5371  0.6735  2.2530
  719MOL0     H99178  10.608   6.355   4.034  0.8908  4.8826  0.7540
  719MOL0     H99179  10.537   6.445   4.163  1.0172 -0.0043 -0.1766
  719MOL0     H99180  10.325   6.461   4.256 -1.3651  1.3972  2.5945
  719MOL0     H99181  10.235   6.521   4.539 -0.5498  0.2442  1.5735
  719MOL0     H99182  10.063   6.463   4.507 -0.8356  0.9820 -2.7844
  719MOL0     H99183  10.154   6.543   4.381  1.0062 -0.5286 -0.7931
  719MOL0     H99184   9.969   6.260   4.844  1.0537 -1.4363 -0.4774
  719MOL0     H99185   9.943   6.293   5.088 -0.7740  1.9089 -0.1203
  719MOL0     H99186   9.927   6.436   5.307 -1.4374  0.6215  0.6850
  719MOL0     H99187  10.001   6.269   5.293 -0.7496  1.0860 -1.1572
  719MOL0     H99188   9.983   6.282   5.516  0.5696  0.9651  2.5652
  719MOL0     H99189  10.144   6.333   5.501 -0.1321 -1.3218 -0.0753
  719MOL0     H99190   9.929   6.557   5.505 -2.1237 -0.8596  1.6383
  719MOL0     H99191  10.110   6.557   5.537  0.2292 -0.0100 -0.3726
  719MOL0     H99192  10.048   6.543   5.758  0.0812 -0.1241  0.0416
  719MOL0     H99193  10.058   6.378   5.706 -2.5468 -1.7217 -0.4771
  719MOL0     H99194   9.808   6.550   5.728  1.8869  0.0046  0.9234
  719MOL0     H99195   9.808   6.390   5.643 -0.9820  0.4645 -1.7002
  719MOL0     H99196   9.842   6.470   5.929 -2.6711  0.2230  0.4647
  719MOL0     H99197   9.892   6.305   5.893  1.7858  1.1035 -0.5082
  719MOL0     H99198   9.666   6.252   5.811  3.7817 -0.6296 -0.6742
  719MOL0     H99199   9.610   6.423   5.813  2.6090 -0.4490 -0.5338
  719MOL0     H99200   9.621   6.403   6.081  0.7564 -1.1076 -0.2972
  719MOL0     H99201   9.698   6.246   6.049 -0.9538 -1.2018  0.0227
  719MOL0     H99202  10.328   6.467   5.121 -0.0790  1.5230 -0.0127
  719MOL0     H99203  10.361   6.440   4.870  0.5984  0.1378  1.7719
  719MOL0     H99204  10.284   6.029   4.494 -0.9355 -0.2369  0.8120
  719MOL0     H99205  10.400   6.039   4.269 -3.0833 -1.3349 -1.6920
  719MOL0     H99206  10.054   5.645   4.901  0.9655 -1.3942 -1.4434
  719MOL0     H99207  10.059   5.396   4.887  0.3425  1.3469  0.4747
  719MOL0     H99208   9.632   4.979   4.753 -0.0657  0.2354 -1.9191
  719MOL0     H99209   9.688   4.722   4.720  2.0547 -1.5137  1.7340
  719MOL0     H99210   9.959   4.451   4.607 -1.3190 -0.9337 -2.7777
  719MOL0     H99211   9.884   4.582   4.510  0.7124  0.1015  0.1199
  719MOL0     H99212  10.099   4.698   4.501 -1.5223  0.7601  2.9277
  719MOL0     H99213  10.119   4.532   4.441 -0.3872 -0.1649 -1.0428
  719MOL0     H99214  10.172   4.581   4.741  2.2836  1.7793 -0.1943
  719MOL0     H99215  10.195   4.447   4.642 -0.9954 -0.5327 -0.7164
  719MOL0     H99216  10.392   4.632   4.708 -2.8460  4.2345  0.6074
  719MOL0     H99217  10.340   4.715   4.569  0.0839  0.3671 -0.4909
  719MOL0     H99218  10.575   4.376   4.440 -2.2792 -0.7168 -3.8225
  719MOL0     H99219  10.100   4.802   4.708  0.6634  0.8853 -0.6093
  719MOL0     H99220  10.094   5.113   4.611  0.7444 -2.3027 -1.2287
  719MOL0     H99221  10.095   5.164   4.780  0.7958  1.0172 -1.4231
  719MOL0     H99222  10.191   5.032   4.732 -1.0717 -0.3781  0.4719
  720MOL0     O99223   7.007   6.448   2.296 -0.4381 -0.0837  0.2471
  720MOL0     C99224   6.994   6.328   2.327 -1.0248  0.3531  0.8282
  720MOL0     O99225   6.878   6.259   2.324 -0.1811 -0.2285 -0.1985
  720MOL0     C99226   6.789   6.283   2.217 -1.4703 -0.5532  0.3800
  720MOL0     C99227   6.814   6.272   2.080 -0.7384 -0.2780  0.1154
  720MOL0     C99228   6.712   6.301   1.996  0.1765 -0.0172  0.0086
  720MOL0     C99229   6.596   6.360   2.036  0.5106  0.3621 -0.8799
  720MOL0     O99230   6.494   6.385   1.947  0.4386  0.6002 -0.2501
  720MOL0     C99231   6.478   6.522   1.907 -0.6010  0.1292 -0.6776
  720MOL0     C99232   6.362   6.528   1.820  0.2500  0.0229  0.1807
  720MOL0     C99233   6.336   6.668   1.764  1.2165 -0.4333 -0.1250
  720MOL0     C99234   6.238   6.688   1.648 -0.4299  0.4112  0.0369
  720MOL0     C99235   6.099   6.635   1.686 -0.1797  1.0715 -0.9440
  720MOL0     C99236   6.001   6.677   1.575  0.5438 -0.2013 -0.1546
  720MOL0     C99237   5.852   6.647   1.620 -0.1702 -0.4796 -0.6101
  720MOL0     C99238   5.826   6.494   1.617  0.2628  0.0979 -0.0502
  720MOL0     N99239   5.710   6.471   1.697  0.3309  0.3312 -0.2800
  720MOL0     C99240   5.690   6.469   1.831  0.1657  0.5299 -0.9977
  720MOL0     C99241   5.550   6.473   1.844 -1.0280 -0.5552  0.8402
  720MOL0     C99242   5.476   6.430   1.976  0.0487 -0.0539  0.3897
  720MOL0     C99243   5.482   6.550   2.075 -0.0164  0.7654 -0.1866
  720MOL0     C99244   5.616   6.571   2.154  1.5041  0.1266 -0.7224
  720MOL0     C99245   5.700   6.684   2.090 -0.6776  0.6648  0.4139
  720MOL0     O99246   5.615   6.798   2.086  0.3275 -0.5163 -0.3617
  720MOL0     C99247   5.629   6.888   1.983  0.7434 -0.2447 -0.2516
  720MOL0     C99248   5.741   6.903   1.897 -0.3364 -0.1202  1.1237
  720MOL0     C99249   5.756   7.008   1.793  0.4168  0.1039  0.5632
  720MOL0     C99250   5.882   7.011   1.712  0.9436 -0.0719 -0.2438
  720MOL0     C99251   5.639   7.093   1.769 -0.8418  0.2151  0.0040
  720MOL0     C99252   5.636   7.213   1.679  0.7121  0.1303  0.7064
  720MOL0     O99253   5.521   7.282   1.658 -0.1616 -0.0572 -0.4496
  720MOL0     C99254   5.531   7.385   1.564 -0.0415 -0.2600  0.4998
  720MOL0     C99255   5.544   7.520   1.603  0.0968  0.4928  0.5843
  720MOL0     C99256   5.539   7.626   1.513 -0.1231  0.4197  0.3662
  720MOL0     C99257   5.532   7.601   1.383 -0.5714  0.6583  0.1774
  720MOL0     O99258   5.532   7.709   1.298 -0.8754  1.0728 -0.2578
  720MOL0     C99259   5.430   7.710   1.195  0.7725  0.7842 -0.0781
  720MOL0     C99260   5.477   7.670   1.061  0.6496  0.5630  0.5233
  720MOL0     C99261   5.354   7.630   0.979  0.2092 -0.6990 -0.0916
  720MOL0     C99262   5.369   7.629   0.823 -0.3024 -0.1862  0.4085
  720MOL0     C99263   5.460   7.522   0.784  0.3681  0.0862  0.1787
  720MOL0     C99264   5.516   7.519   0.633 -1.3797 -1.4270  0.4528
  720MOL0     C99265   5.626   7.620   0.630 -0.4839  1.8216 -0.0644
  720MOL0     C99266   5.680   7.659   0.490  0.1969 -0.9862 -0.0930
  720MOL0    Cl99267   5.770   7.514   0.427 -0.2499  0.2188  0.6969
  720MOL0     C99268   5.533   7.469   1.333 -0.9298 -0.1843  0.3638
  720MOL0     C99269   5.523   7.366   1.428  0.1324  0.2915  0.7143
  720MOL0     O99270   5.732   7.222   1.606  0.1650  0.2775 -0.0804
  720MOL0     C99271   5.528   7.067   1.853  0.1535  0.5161  0.5695
  720MOL0     C99272   5.520   6.975   1.956  0.1255 -0.4256  0.0871
  720MOL0     N99273   5.500   6.481   1.713 -0.2819  0.5221  0.1418
  720MOL0     N99274   5.593   6.484   1.627 -0.0738  0.2291  0.1179
  720MOL0     C99275   6.574   6.377   2.179  0.1452 -0.7701  0.7206
  720MOL0     C99276   6.674   6.328   2.264 -0.3829  1.0089 -1.2178
  720MOL0     C99277   7.114   6.255   2.386 -0.5718  0.1177 -0.0088
  720MOL0     C99278   7.229   6.334   2.422  0.3593  0.3984 -0.1343
  720MOL0     C99279   7.344   6.285   2.486  0.6660 -0.5933  1.3181
  720MOL0     C99280   7.352   6.157   2.520  0.1324  0.6110  0.9887
  720MOL0     O99281   7.468   6.109   2.575  0.6143  0.3673 -0.4241
  720MOL0     C99282   7.543   6.012   2.505 -0.1557 -1.1115 -0.4678
  720MOL0     C99283   7.685   6.008   2.558 -0.1130  0.4265  0.0317
  720MOL0     C99284   7.755   5.880   2.511  0.4893  0.0502 -0.7304
  720MOL0     C99285   7.907   5.890   2.556 -0.3509 -0.6128  0.4643
  720MOL0     C99286   7.927   5.886   2.703 -0.1514  0.9435  0.0800
  720MOL0     C99287   7.948   5.866   2.822  0.9277 -0.0749  0.6701
  720MOL0     C99288   7.241   6.073   2.505  0.3396  0.8195 -0.1513
  720MOL0     C99289   7.128   6.124   2.439  0.7525  0.3147 -0.7884
  720MOL0     C99290   7.006   6.023   2.427 -0.2167 -0.5327  0.3072
  720MOL0     H99291   6.915   6.253   2.047 -0.1021 -3.1664  3.1567
  720MOL0     H99292   6.730   6.288   1.890  1.0362  1.8245 -0.1171
  720MOL0     H99293   6.570   6.544   1.851 -1.5620 -1.5030 -3.0319
  720MOL0     H99294   6.463   6.591   1.991  0.5763  1.2956 -1.3709
  720MOL0     H99295   6.371   6.461   1.734 -1.7892  1.0002 -0.8510
  720MOL0     H99296   6.277   6.500   1.882 -0.2153  1.4641  0.2419
  720MOL0     H99297   6.300   6.731   1.845 -1.1242  0.5036 -1.7945
  720MOL0     H99298   6.432   6.703   1.726  3.1767  0.2842  4.7048
  720MOL0     H99299   6.244   6.794   1.620  0.6516  0.4531  0.3613
  720MOL0     H99300   6.268   6.630   1.560 -1.7527 -1.6879  0.9057
  720MOL0     H99301   6.060   6.685   1.775 -0.0417  3.6865 -2.2297
  720MOL0     H99302   6.098   6.526   1.696  3.6165  0.9263 -0.8366
  720MOL0     H99303   6.014   6.782   1.548 -1.3404 -0.2942 -1.6570
  720MOL0     H99304   6.040   6.630   1.484  2.3203  3.6719 -1.6002
  720MOL0     H99305   5.786   6.703   1.554 -0.2056  0.8447  0.5078
  720MOL0     H99306   5.832   6.689   1.719  2.4270 -0.9096  0.1701
  720MOL0     H99307   5.816   6.454   1.516  0.9440  0.2669 -0.1829
  720MOL0     H99308   5.912   6.440   1.658  0.7126  1.0621  0.3015
  720MOL0     H99309   5.762   6.443   1.908  1.2012  0.6209 -1.9097
  720MOL0     H99310   5.532   6.351   2.027 -1.3061 -1.8174 -0.7738
  720MOL0     H99311   5.376   6.389   1.962  0.0164  0.1766 -0.1037
  720MOL0     H99312   5.441   6.639   2.025  0.9391 -0.1594 -2.7659
  720MOL0     H99313   5.412   6.522   2.153  0.7928  2.1485  1.0864
  720MOL0     H99314   5.600   6.579   2.262  1.5356  0.1252 -0.7173
  720MOL0     H99315   5.664   6.473   2.152  0.4500 -1.0618  6.3290
  720MOL0     H99316   5.789   6.711   2.148  0.9881  2.6413 -2.7620
  720MOL0     H99317   5.722   6.663   1.984  0.6295  2.7188  0.2144
  720MOL0     H99318   5.829   6.843   1.917 -1.2974 -1.3136  1.9356
  720MOL0     H99319   5.941   6.921   1.734  0.2845 -0.5094 -0.2529
  720MOL0     H99320   5.931   7.109   1.715  2.3181 -0.6979 -1.2001
  720MOL0     H99321   5.856   6.986   1.610 -2.1270 -0.1922  0.4878
  720MOL0     H99322   5.555   7.540   1.709 -3.0978 -0.7549  1.2825
  720MOL0     H99323   5.536   7.727   1.552  1.5344  0.6224  0.0704
  720MOL0     H99324   5.346   7.644   1.222  0.3548  1.0376 -0.7399
  720MOL0     H99325   5.380   7.807   1.198 -2.0691 -0.5715  0.8775
  720MOL0     H99326   5.518   7.761   1.016  2.6297 -0.8860 -0.7664
  720MOL0     H99327   5.556   7.595   1.066  1.2209  1.0409 -0.8961
  720MOL0     H99328   5.279   7.709   0.990  1.5113  1.3402 -3.9088
  720MOL0     H99329   5.319   7.531   1.007 -1.3552 -0.6606 -1.7153
  720MOL0     H99330   5.405   7.728   0.792 -0.0794 -0.5336 -0.4712
  720MOL0     H99331   5.271   7.618   0.776  0.1980  0.5956 -0.8803
  720MOL0     H99332   5.547   7.528   0.851  0.6558  2.3360 -0.3024
  720MOL0     H99333   5.416   7.426   0.813 -3.5961  1.9202  0.9439
  720MOL0     H99334   5.448   7.534   0.548  1.6485 -3.0536 -2.5267
  720MOL0     H99335   5.566   7.422   0.627 -1.0053 -1.4275  2.8375
  720MOL0     H99336   5.710   7.588   0.693  0.6249 -1.9248 -3.0433
  720MOL0     H99337   5.590   7.710   0.681 -2.2768  0.5527  1.0431
  720MOL0     H99338   5.752   7.741   0.500  1.2284 -1.7911 -0.8418
  720MOL0     H99339   5.598   7.684   0.421 -1.0636 -0.2396  1.5984
  720MOL0     H99340   5.523   7.452   1.226 -2.0516 -0.4555  0.4996
  720MOL0     H99341   5.520   7.265   1.388 -0.0307  1.2326 -1.8350
  720MOL0     H99342   5.436   7.120   1.827 -1.4463 -2.0612  0.6470
  720MOL0     H99343   5.429   6.967   2.014  1.9655 -3.0647  2.8662
  720MOL0     H99344   6.482   6.429   2.205 -0.1911 -0.1193 -1.4891
  720MOL0     H99345   6.663   6.350   2.370 -0.6999 -0.2699 -0.9625
  720MOL0     H99346   7.230   6.439   2.394 -0.0175  0.8074  1.3123
  720MOL0     H99347   7.423   6.358   2.495  0.0041  0.2474  0.5264
  720MOL0     H99348   7.494   5.915   2.518 -1.1412 -0.4412  1.0878
  720MOL0     H99349   7.532   6.022   2.397 -0.0753 -0.7001 -0.4396
  720MOL0     H99350   7.683   6.003   2.667 -1.3406 -1.9354 -0.0368
  720MOL0     H99351   7.744   6.093   2.523  2.9514 -1.2453  0.7204
  720MOL0     H99352   7.716   5.794   2.566  1.2795  0.5493  0.6720
  720MOL0     H99353   7.747   5.863   2.404 -0.2734  0.2506 -0.7149
  720MOL0     H99354   7.933   5.981   2.501 -2.2816 -0.2184  0.1220
  720MOL0     H99355   7.967   5.807   2.520  1.1176  0.8826 -0.7162
  720MOL0     H99356   7.985   5.849   2.921 -0.0523 -2.5941  0.6711
  720MOL0     H99357   7.240   5.967   2.529  2.4266  0.5146 -1.1346
  720MOL0     H99358   6.935   6.046   2.507  0.9127  1.0142  0.9186
  720MOL0     H99359   6.967   6.040   2.327  1.5653 -0.0639 -0.3530
  720MOL0     H99360   7.046   5.923   2.447  0.5820 -0.0759  1.0789
  721MOL0     O99361   0.490   6.517   9.652  0.2346  0.0886  0.5340
  721MOL0     C99362   0.452   6.470   9.548 -0.4003  0.6039  0.3141
  721MOL0     O99363   0.355   6.358   9.534 -0.7545 -0.0216 -0.3806
  721MOL0     C99364   0.318   6.281   9.639  0.2402 -0.2325  0.4219
  721MOL0     C99365   0.284   6.145   9.608  0.4217 -0.3882 -0.1718
  721MOL0     C99366   0.218   6.068   9.705 -0.6996 -0.3535  0.1034
  721MOL0     C99367   0.209   6.124   9.837 -0.3839 -0.2302  0.0224
  721MOL0     O99368   0.165   6.054   9.946  0.1958 -1.4189  0.0807
  721MOL0     C99369   0.093   5.933   9.938 -0.2563  0.3478 -1.4357
  721MOL0     C99370   0.072   5.881  10.075  0.6655  0.1512 -0.9553
  721MOL0     C99371   0.206   5.838  10.159  0.3338  0.0166  0.3936
  721MOL0     C99372   0.329   5.800  10.067  0.7572  0.0796  0.0152
  721MOL0     C99373   0.420   5.745  10.171 -0.5712 -0.0945 -0.6332
  721MOL0     C99374   0.562   5.716  10.108 -0.8252 -0.5789 -0.5685
  721MOL0     C99375   0.666   5.676  10.212  1.2999  0.2885  0.3747
  721MOL0     C99376   0.809   5.664  10.161 -0.1014 -1.0114 -0.0516
  721MOL0     N99377   0.838   5.547  10.088 -0.3884  0.0668 -0.4190
  721MOL0     C99378   0.878   5.531   9.959 -0.4367  1.4435  0.2057
  721MOL0     C99379   0.936   5.409   9.949 -0.5181  0.7241 -0.1949
  721MOL0     C99380   0.985   5.322   9.835 -0.1670  0.4400 -0.6287
  721MOL0     C99381   0.916   5.184   9.821  0.6551  0.2397  0.1268
  721MOL0     C99382   1.020   5.069   9.817  1.0513  0.3737 -0.6665
  721MOL0     C99383   1.099   5.062   9.952  0.4064 -0.4650  0.8041
  721MOL0     O99384   1.190   4.949   9.929 -0.0355  0.3759  0.7578
  721MOL0     C99385   1.181   4.845  10.016 -0.4429 -0.2188  0.4318
  721MOL0     C99386   1.186   4.857  10.154  0.6961 -0.4340 -0.0889
  721MOL0     C99387   1.153   4.752  10.240  0.8718  0.0195 -0.4017
  721MOL0     C99388   1.146   4.777  10.383  0.0642 -0.6432 -0.2969
  721MOL0     C99389   1.125   4.618  10.190  0.0573 -0.1370 -0.5718
  721MOL0     C99390   1.079   4.502  10.266 -0.8052  1.0829  0.1346
  721MOL0     O99391   1.027   4.396  10.194 -0.3849 -0.3148  0.7211
  721MOL0     C99392   0.955   4.300  10.267 -0.9441 -0.3278  1.0061
  721MOL0     C99393   0.825   4.328  10.299  0.4010  0.4145 -0.0110
  721MOL0     C99394   0.752   4.228  10.370 -0.5466  0.2308 -0.5747
  721MOL0     C99395   0.813   4.108  10.402  0.3612 -0.5227  0.1346
  721MOL0     O99396   0.752   4.006  10.473 -0.4923 -0.1686 -0.5809
  721MOL0     C99397   0.655   4.036  10.566 -0.3845 -0.6033  0.4133
  721MOL0     C99398   0.670   3.932  10.668 -0.6549  0.2641 -0.1978
  721MOL0     C99399   0.608   3.956  10.807  0.5115  0.1255 -0.0370
  721MOL0     C99400   0.662   4.088  10.868  0.4832 -0.1290  0.1695
  721MOL0     C99401   0.628   4.112  11.015 -0.4234 -0.3737  0.1867
  721MOL0     C99402   0.721   4.217  11.083  0.2608 -0.4190  0.7974
  721MOL0     C99403   0.655   4.258  11.214  0.8632 -1.1401  0.1279
  721MOL0     C99404   0.671   4.408  11.245  0.1387  0.0907  0.0701
  721MOL0    Cl99405   0.683   4.408  11.424 -0.0120  0.0768 -0.9850
  721MOL0     C99406   0.944   4.085  10.374 -0.2001 -0.9505 -0.0897
  721MOL0     C99407   1.017   4.182  10.305 -0.9080 -0.2394 -1.1798
  721MOL0     O99408   1.092   4.503  10.388  0.2398  0.3961  0.1565
  721MOL0     C99409   1.127   4.611  10.051 -0.6876 -0.4864 -0.1323
  721MOL0     C99410   1.149   4.721   9.960 -0.3752  0.5359  0.2377
  721MOL0     N99411   0.946   5.361  10.083 -0.0572 -0.1680 -0.1678
  721MOL0     N99412   0.893   5.439  10.159  0.4859 -0.7866  0.0053
  721MOL0     C99413   0.248   6.258   9.862 -0.5481 -0.8415 -0.4918
  721MOL0     C99414   0.290   6.343   9.762 -0.9412  0.4460 -0.7927
  721MOL0     C99415   0.507   6.540   9.419  0.4871 -1.2140 -0.5479
  721MOL0     C99416   0.459   6.490   9.299 -0.3292  0.1843 -0.7160
  721MOL0     C99417   0.511   6.539   9.178 -0.0626  0.1158 -0.4985
  721MOL0     C99418   0.613   6.638   9.180 -0.3519  0.1857  0.1889
  721MOL0     O99419   0.675   6.661   9.058 -0.1922  0.0286 -0.2482
  721MOL0     C99420   0.592   6.732   8.970  1.1340 -1.2670  0.2760
  721MOL0     C99421   0.657   6.772   8.842  0.2010  0.1558 -0.4750
  721MOL0     C99422   0.808   6.809   8.855  0.1656  0.0750  0.5034
  721MOL0     C99423   0.868   6.848   8.723  0.0479 -0.1946  0.4599
  721MOL0     C99424   0.998   6.920   8.732 -0.6532 -0.1107  0.8439
  721MOL0     C99425   1.105   6.967   8.761 -0.4294 -0.9725 -0.0229
  721MOL0     C99426   0.662   6.688   9.297  0.6752  0.0062 -0.3904
  721MOL0     C99427   0.605   6.648   9.422 -0.0796  0.4173 -0.3884
  721MOL0     C99428   0.664   6.708   9.545 -0.1022 -0.5702  0.1580
  721MOL0     H99429   0.302   6.099   9.512  2.1537  0.0764 -0.1068
  721MOL0     H99430   0.184   5.965   9.694  2.7056 -1.3957 -2.5729
  721MOL0     H99431   0.151   5.859   9.883  1.4982 -0.5776  1.4457
  721MOL0     H99432  -0.003   5.951   9.889 -1.2756  1.6526  0.8467
  721MOL0     H99433   0.010   5.957  10.124  2.3634  0.3626  1.0090
  721MOL0     H99434   0.016   5.788  10.063  0.4802 -0.5030  3.2671
  721MOL0     H99435   0.240   5.920  10.221  1.3254  0.0813 -0.2101
  721MOL0     H99436   0.180   5.751  10.221 -0.3110 -1.1082 -1.3633
  721MOL0     H99437   0.307   5.722   9.993  1.0159  0.5107 -0.5248
  721MOL0     H99438   0.372   5.885  10.014  1.3215 -1.1453 -1.5478
  721MOL0     H99439   0.373   5.655  10.210 -2.0973  1.6253  1.7284
  721MOL0     H99440   0.436   5.822  10.247  0.1803 -0.6853 -0.1647
  721MOL0     H99441   0.557   5.631  10.039 -1.6422 -0.8218 -0.2217
  721MOL0     H99442   0.596   5.803  10.051 -0.9672  0.0540  0.3040
  721MOL0     H99443   0.626   5.580  10.245 -0.6690  0.0659 -2.2650
  721MOL0     H99444   0.668   5.754  10.288  1.8712  1.1691 -0.5243
  721MOL0     H99445   0.833   5.758  10.111 -1.1088  0.4972  2.1479
  721MOL0     H99446   0.863   5.652  10.256  1.1247 -2.1205 -0.8654
  721MOL0     H99447   0.864   5.597   9.874 -1.0819  0.6589 -0.3115
  721MOL0     H99448   1.092   5.303   9.847 -0.3212 -0.6803 -0.8806
  721MOL0     H99449   0.963   5.371   9.739  1.3456  1.4446 -0.4950
  721MOL0     H99450   0.848   5.182   9.907 -1.3353  1.4525 -1.3488
  721MOL0     H99451   0.844   5.166   9.741 -0.6277  2.7397  0.6178
  721MOL0     H99452   0.959   4.980   9.799 -1.3232  1.6563  0.5523
  721MOL0     H99453   1.083   5.072   9.728 -2.7941 -2.0492 -3.8457
  721MOL0     H99454   1.155   5.153   9.972  0.2564 -0.2886  0.4363
  721MOL0     H99455   1.024   5.051  10.031  0.3386  1.1187  0.9917
  721MOL0     H99456   1.204   4.957  10.193 -4.1787  0.9059 -0.6878
  721MOL0     H99457   1.044   4.773  10.423  0.5710 -0.0041  1.1138
  721MOL0     H99458   1.179   4.880  10.399  1.9301 -1.4872  1.7495
  721MOL0     H99459   1.227   4.729  10.438 -0.8846 -0.1354  1.6155
  721MOL0     H99460   0.788   4.419  10.252 -0.0782 -1.1339 -2.8746
  721MOL0     H99461   0.646   4.241  10.389 -0.0548  3.7952  0.4589
  721MOL0     H99462   0.660   4.136  10.612  0.7865 -0.0904 -0.7531
  721MOL0     H99463   0.555   4.038  10.522 -0.1188  3.4233 -0.4275
  721MOL0     H99464   0.631   3.841  10.622 -1.1272 -0.1006  0.8884
  721MOL0     H99465   0.778   3.929  10.686 -0.7964  4.5316  3.0821
  721MOL0     H99466   0.640   3.876  10.875  1.6955  0.8096  0.2275
  721MOL0     H99467   0.499   3.948  10.805  0.4012 -0.4455  3.4008
  721MOL0     H99468   0.613   4.175  10.823  1.5934 -0.7888 -2.4797
  721MOL0     H99469   0.768   4.094  10.842 -0.0563 -0.4961 -2.4024
  721MOL0     H99470   0.522   4.138  11.009 -0.1893  0.2861 -2.9152
  721MOL0     H99471   0.639   4.018  11.069 -1.0699 -0.3798  0.3173
  721MOL0     H99472   0.729   4.308  11.023  2.3150 -0.3109  1.1540
  721MOL0     H99473   0.820   4.174  11.098  0.3106 -0.5977  0.0161
  721MOL0     H99474   0.701   4.200  11.294  1.4137  0.7916  1.2756
  721MOL0     H99475   0.548   4.235  11.218 -0.4633  3.6336 -0.9740
  721MOL0     H99476   0.583   4.465  11.211 -0.7306  0.3208  2.4804
  721MOL0     H99477   0.757   4.457  11.198  0.8259  2.3412  3.3375
  721MOL0     H99478   0.985   3.986  10.393  2.4357  0.6118  3.4319
  721MOL0     H99479   1.119   4.160  10.278 -0.5371 -0.6811  0.4543
  721MOL0     H99480   1.107   4.513  10.009 -1.8124 -0.9767  1.4298
  721MOL0     H99481   1.132   4.723   9.852  0.5875  2.1836  0.0774
  721MOL0     H99482   0.259   6.294   9.963 -0.0532 -2.4130  0.0510
  721MOL0     H99483   0.308   6.446   9.790 -0.6395  0.4712 -1.0686
  721MOL0     H99484   0.381   6.414   9.306  0.5564 -0.7375 -0.5546
  721MOL0     H99485   0.468   6.504   9.085  1.2235  0.2367 -1.1674
  721MOL0     H99486   0.496   6.685   8.948 -0.7105  2.7409 -1.1988
  721MOL0     H99487   0.559   6.824   9.020  0.6931 -0.1142 -2.0139
  721MOL0     H99488   0.612   6.866   8.809 -0.5123 -0.9649 -2.8851
  721MOL0     H99489   0.657   6.688   8.772 -0.3152 -2.9578  2.9468
  721MOL0     H99490   0.824   6.891   8.925 -0.7926 -0.1981  1.0614
  721MOL0     H99491   0.862   6.722   8.894 -1.7586 -0.0397  3.2002
  721MOL0     H99492   0.799   6.890   8.650 -1.2692 -2.3534  0.3571
  721MOL0     H99493   0.889   6.762   8.659 -2.0673  0.8980 -1.8386
  721MOL0     H99494   1.202   6.999   8.794 -0.4577 -2.1123  1.2258
  721MOL0     H99495   0.742   6.762   9.290  0.5013  0.0737 -2.2383
  721MOL0     H99496   0.707   6.805   9.515  2.9317 -1.3149  1.6466
  721MOL0     H99497   0.604   6.719   9.635 -2.1356 -2.2660 -0.9144
  721MOL0     H99498   0.752   6.648   9.570 -1.0008 -1.8937  0.1933
  722MOL0     O99499  10.029   8.892   2.185  0.1576 -0.5458  0.5620
  722MOL0     C99500  10.014   8.819   2.085 -0.3652  0.1944 -0.2635
  722MOL0     O99501   9.933   8.720   2.069  0.1052 -0.0505 -0.5296
  722MOL0     C99502   9.819   8.691   2.154  0.0635  0.6490  0.2482
  722MOL0     C99503   9.784   8.563   2.168 -0.2819  0.4404 -0.2967
  722MOL0     C99504   9.673   8.519   2.244 -0.2017  0.5570 -0.6508
  722MOL0     C99505   9.588   8.617   2.295  0.9131  0.6261 -0.2134
  722MOL0     O99506   9.469   8.586   2.354  0.1201  0.3352  0.3521
  722MOL0     C99507   9.450   8.635   2.496  0.4187  1.0242  0.4517
  722MOL0     C99508   9.532   8.536   2.587  0.5986  0.5946  0.7736
  722MOL0     C99509   9.518   8.565   2.742 -0.8210 -0.1910  0.7260
  722MOL0     C99510   9.374   8.546   2.790  0.1389  0.2304  0.1926
  722MOL0     C99511   9.350   8.579   2.934 -0.1198  0.6865  0.9757
  722MOL0     C99512   9.410   8.718   2.975 -0.5704 -0.1985 -0.6686
  722MOL0     C99513   9.360   8.744   3.110 -0.4315 -0.4933  0.2549
  722MOL0     C99514   9.328   8.899   3.125  0.0864 -0.9994  0.7798
  722MOL0     N99515   9.455   8.972   3.162 -0.1004 -0.2139 -0.9385
  722MOL0     C99516   9.536   9.032   3.074 -0.3604  0.5616 -0.7891
  722MOL0     C99517   9.637   9.084   3.146 -0.0983  0.0802 -1.5434
  722MOL0     C99518   9.754   9.171   3.091 -0.1440  0.3009 -0.7355
  722MOL0     C99519   9.865   9.187   3.189 -0.2338  0.1300  0.4384
  722MOL0     C99520   9.986   9.257   3.136 -0.2032 -0.0561 -0.3967
  722MOL0     C99521  10.080   9.289   3.239 -0.3246 -0.2642  0.5006
  722MOL0     O99522  10.203   9.332   3.170  0.0288 -0.1292 -0.2664
  722MOL0     C99523  10.314   9.247   3.158  0.0386  0.2857 -0.2687
  722MOL0     C99524  10.302   9.103   3.156 -0.2114  0.1823  0.3441
  722MOL0     C99525  10.412   9.020   3.146  0.3585 -0.4029  0.4536
  722MOL0     C99526  10.385   8.880   3.125 -0.2435 -0.4049 -0.2951
  722MOL0     C99527  10.543   9.081   3.130 -0.3385  0.1544  0.0766
  722MOL0     C99528  10.668   9.010   3.115 -0.2180 -0.5809  0.0625
  722MOL0     O99529  10.762   9.074   3.045  0.0431 -0.5056 -0.1601
  722MOL0     C99530  10.890   9.023   3.028 -0.0825  0.1445 -0.2768
  722MOL0     C99531  10.978   8.959   3.116  0.4814 -0.0821  1.6979
  722MOL0     C99532  11.109   8.927   3.074 -0.0381 -0.1051  0.3426
  722MOL0     C99533  11.152   8.954   2.946 -0.5125 -0.0475 -0.1401
  722MOL0     O99534  11.279   8.938   2.895 -0.5546  0.5283 -0.8425
  722MOL0     C99535  11.356   8.841   2.955 -0.6697 -0.1133  0.5724
  722MOL0     C99536  11.447   8.767   2.856  0.0492 -0.5179  0.8858
  722MOL0     C99537  11.541   8.665   2.913 -0.3850  0.7235  0.0933
  722MOL0     C99538  11.618   8.730   3.044 -0.0960  0.1518  0.6477
  722MOL0     C99539  11.723   8.642   3.105 -0.4778 -0.4140  0.4723
  722MOL0     C99540  11.847   8.661   3.014 -0.0726  1.0264 -0.5421
  722MOL0     C99541  11.895   8.526   2.953 -0.0087 -0.2097 -0.5287
  722MOL0     C99542  12.030   8.525   2.890  0.5761 -0.3954 -0.7096
  722MOL0    Cl99543  12.093   8.365   2.853 -0.2891 -0.0785 -0.2395
  722MOL0     C99544  11.059   9.014   2.860  0.1515 -0.0093  1.2735
  722MOL0     C99545  10.927   9.025   2.891 -0.8407 -0.5247 -0.9854
  722MOL0     O99546  10.685   8.905   3.169 -0.2999 -0.0457  0.4511
  722MOL0     C99547  10.554   9.221   3.136  0.0478  1.0168 -0.2820
  722MOL0     C99548  10.441   9.300   3.151  0.3997 -0.3239 -0.9167
  722MOL0     N99549   9.608   9.055   3.282  0.7380 -0.2474  0.2637
  722MOL0     N99550   9.495   8.985   3.288 -0.2957  0.4508  0.6148
  722MOL0     C99551   9.619   8.752   2.269  0.1242  1.0957  0.0888
  722MOL0     C99552   9.731   8.781   2.201 -0.8179  0.1975 -0.4289
  722MOL0     C99553  10.108   8.838   1.969 -0.7764  1.0505  0.4227
  722MOL0     C99554  10.087   8.769   1.848 -0.0550  0.6898 -0.7468
  722MOL0     C99555  10.155   8.806   1.729  0.3726 -0.4963  0.2518
  722MOL0     C99556  10.262   8.895   1.737  1.4526 -0.0214  0.1924
  722MOL0     O99557  10.341   8.913   1.627  0.1811 -0.4730 -0.1495
  722MOL0     C99558  10.462   8.993   1.633  0.8649  0.1462  0.6543
  722MOL0     C99559  10.521   9.003   1.495  0.3041  0.7612  0.3195
  722MOL0     C99560  10.611   8.879   1.464 -0.6621  0.1616 -0.1194
  722MOL0     C99561  10.634   8.860   1.309  0.0005  1.1852  0.1504
  722MOL0     C99562  10.743   8.949   1.256 -0.7193  0.3577 -0.0932
  722MOL0     C99563  10.826   9.021   1.210  0.4700 -0.2009  0.0153
  722MOL0     C99564  10.302   8.944   1.857  0.7341 -0.2342  0.7313
  722MOL0     C99565  10.226   8.918   1.972 -0.2422  0.3924 -0.1905
  722MOL0     C99566  10.285   8.950   2.106 -0.2411 -0.1744 -0.1757
  722MOL0     H99567   9.852   8.496   2.116 -0.4958  1.2885 -1.7180
  722MOL0     H99568   9.655   8.413   2.256 -0.8565  0.6586 -0.7310
  722MOL0     H99569   9.346   8.620   2.527  0.9190 -0.3600  1.6092
  722MOL0     H99570   9.464   8.742   2.513 -2.9901  2.2576 -3.1059
  722MOL0     H99571   9.508   8.432   2.564 -2.6809  1.1515  1.2003
  722MOL0     H99572   9.637   8.555   2.562  1.2369 -2.3544  0.7615
  722MOL0     H99573   9.581   8.494   2.797  0.6284  1.0792  0.7815
  722MOL0     H99574   9.548   8.667   2.770 -2.5818  0.7597 -0.6066
  722MOL0     H99575   9.302   8.605   2.732  1.2832  0.4139 -1.0977
  722MOL0     H99576   9.348   8.443   2.764  1.0711 -0.2988  1.2540
  722MOL0     H99577   9.385   8.494   2.992  1.0331 -0.0584 -0.7570
  722MOL0     H99578   9.241   8.576   2.944 -0.5796 -0.7250 -2.6351
  722MOL0     H99579   9.519   8.711   2.981 -0.4941  0.0746 -1.6258
  722MOL0     H99580   9.384   8.798   2.905 -2.0543 -1.0464 -1.1178
  722MOL0     H99581   9.446   8.713   3.170 -0.3357 -1.0942 -0.1872
  722MOL0     H99582   9.280   8.679   3.146 -0.6492  0.4432  1.5259
  722MOL0     H99583   9.281   8.943   3.037 -1.6676 -0.7966  1.7613
  722MOL0     H99584   9.249   8.919   3.199 -0.4534 -1.0473  0.2201
  722MOL0     H99585   9.527   9.029   2.965  0.5119  2.1886 -0.9322
  722MOL0     H99586   9.703   9.268   3.084 -0.6390 -0.0530 -2.2043
  722MOL0     H99587   9.774   9.135   2.990 -1.7536 -1.7421 -0.3872
  722MOL0     H99588   9.836   9.233   3.284  1.6684 -0.4024  1.3305
  722MOL0     H99589   9.892   9.082   3.199 -3.2397 -1.1404 -2.5734
  722MOL0     H99590  10.031   9.197   3.056  0.0200 -0.3157 -0.0806
  722MOL0     H99591   9.962   9.352   3.087  1.4208  1.4709  1.5995
  722MOL0     H99592  10.034   9.375   3.289  0.6768  0.5886 -0.0001
  722MOL0     H99593  10.091   9.206   3.309 -1.0618  0.7358  1.8700
  722MOL0     H99594  10.198   9.071   3.159 -0.0833 -0.2038  1.4441
  722MOL0     H99595  10.296   8.864   3.062  0.8082 -0.5752 -1.7950
  722MOL0     H99596  10.384   8.824   3.219 -2.3501  0.5511  0.3215
  722MOL0     H99597  10.461   8.836   3.060  1.1265 -0.1636  1.1060
  722MOL0     H99598  10.942   8.945   3.217  1.0489 -0.6219  1.8292
  722MOL0     H99599  11.173   8.876   3.145  0.4563  0.3713  0.2471
  722MOL0     H99600  11.422   8.901   3.019  0.7730  0.1717 -1.1151
  722MOL0     H99601  11.307   8.772   3.024  1.3208 -1.7840  0.4204
  722MOL0     H99602  11.386   8.716   2.781  0.8587 -0.4246  0.1607
  722MOL0     H99603  11.504   8.843   2.802 -0.4198  0.4759  1.7413
  722MOL0     H99604  11.606   8.630   2.833  0.4945 -1.2740  1.5961
  722MOL0     H99605  11.474   8.588   2.951  1.1536  0.1188  1.7019
  722MOL0     H99606  11.542   8.753   3.120  1.1086 -2.2058  2.7565
  722MOL0     H99607  11.656   8.828   3.017  0.7610 -0.5323 -0.7214
  722MOL0     H99608  11.750   8.664   3.208  0.7516 -0.2944  0.1354
  722MOL0     H99609  11.691   8.538   3.096  3.1764 -1.6548  0.1877
  722MOL0     H99610  11.923   8.711   3.075 -0.7027  0.5446  0.6809
  722MOL0     H99611  11.825   8.717   2.923  1.7772 -2.8186 -3.6736
  722MOL0     H99612  11.824   8.491   2.877 -1.5473  1.0844  0.2384
  722MOL0     H99613  11.889   8.454   3.035 -1.2292  1.8750  1.2999
  722MOL0     H99614  12.103   8.575   2.955 -2.9903  0.6881  2.8539
  722MOL0     H99615  12.040   8.580   2.796  0.6805  0.5516 -0.1585
  722MOL0     H99616  11.083   9.038   2.757  0.5146 -4.2616  0.2010
  722MOL0     H99617  10.863   9.064   2.813 -1.7509 -0.2102 -0.1066
  722MOL0     H99618  10.649   9.272   3.141  0.4653  0.7212 -3.5940
  722MOL0     H99619  10.458   9.407   3.149 -2.2165  0.1618 -0.7477
  722MOL0     H99620   9.552   8.835   2.291  1.7908  3.1772 -2.2007
  722MOL0     H99621   9.749   8.886   2.181 -3.2747  0.7434 -0.1607
  722MOL0     H99622  10.017   8.687   1.839 -1.0099  1.5513 -1.5639
  722MOL0     H99623  10.129   8.768   1.631 -0.7390 -1.0408  0.7476
  722MOL0     H99624  10.442   9.090   1.677 -4.0811 -0.9356  1.3755
  722MOL0     H99625  10.521   8.932   1.702  1.6099  0.3197  0.1950
  722MOL0     H99626  10.574   9.098   1.482  1.2629 -0.1195 -3.6013
  722MOL0     H99627  10.438   9.009   1.424  0.9325  5.2629 -0.3580
  722MOL0     H99628  10.708   8.913   1.501  0.9159 -1.0299 -2.8717
  722MOL0     H99629  10.577   8.785   1.508 -1.3941 -1.0580 -3.0288
  722MOL0     H99630  10.543   8.888   1.257  1.1827  1.9615 -1.5782
  722MOL0     H99631  10.656   8.756   1.284 -0.6326 -0.0919  4.1195
  722MOL0     H99632  10.910   9.074   1.169  1.5673 -1.8396  0.0413
  722MOL0     H99633  10.385   9.014   1.863  1.3205 -0.7838 -0.6054
  722MOL0     H99634  10.388   8.983   2.090 -0.0779  3.0054  4.9534
  722MOL0     H99635  10.241   9.027   2.171 -0.3846 -0.6529  0.3053
  722MOL0     H99636  10.292   8.859   2.167 -3.8305  0.6138  1.7169
  723MOL0     O99637   0.287   1.224  11.118  0.1107 -0.7839  0.1196
  723MOL0     C99638   0.252   1.257  11.004 -0.6059 -0.6455 -0.1452
  723MOL0     O99639   0.335   1.298  10.907  0.4003 -0.0463 -0.1625
  723MOL0     C99640   0.459   1.354  10.927  0.2825  0.5193  0.1764
  723MOL0     C99641   0.499   1.411  11.046 -0.6463 -1.0142 -0.0066
  723MOL0     C99642   0.622   1.467  11.059 -0.1617  0.0148  0.6023
  723MOL0     C99643   0.718   1.460  10.957  0.4659 -0.2581  0.4737
  723MOL0     O99644   0.843   1.499  10.972 -0.0619 -1.1361  0.0798
  723MOL0     C99645   0.884   1.621  10.903  0.2123 -0.4135 -0.1412
  723MOL0     C99646   0.867   1.741  10.990 -0.4609  0.4973 -0.5726
  723MOL0     C99647   0.973   1.851  10.962  0.1140  0.0441  0.7819
  723MOL0     C99648   0.975   1.895  10.810 -0.3974 -1.0507  1.1730
  723MOL0     C99649   1.073   2.015  10.790  0.4554 -0.9993 -0.2867
  723MOL0     C99650   1.078   2.058  10.647  0.0372  0.0720 -0.0478
  723MOL0     C99651   1.187   2.168  10.647 -0.0570 -0.5120  0.5531
  723MOL0     C99652   1.209   2.199  10.493  0.4530 -0.8897 -0.3876
  723MOL0     N99653   1.228   2.339  10.463 -0.1426 -0.4932  0.7057
  723MOL0     C99654   1.131   2.436  10.495  0.6867  0.8075  0.1947
  723MOL0     C99655   1.179   2.539  10.424  0.4371  0.8355 -0.8730
  723MOL0     C99656   1.109   2.664  10.428  0.0570  0.5183 -0.3415
  723MOL0     C99657   1.157   2.762  10.526  0.7254  1.0552  1.0206
  723MOL0     C99658   1.285   2.808  10.472 -0.6618  0.0872 -0.8890
  723MOL0     C99659   1.338   2.928  10.553  0.1083  0.4304 -0.9066
  723MOL0     O99660   1.390   2.876  10.677  0.5840 -0.8803  0.7482
  723MOL0     C99661   1.444   2.967  10.762 -0.0117  0.3840 -0.0066
  723MOL0     C99662   1.581   2.981  10.776 -0.6218 -0.2040  0.2479
  723MOL0     C99663   1.636   3.076  10.863 -0.1521 -0.0908 -0.6881
  723MOL0     C99664   1.790   3.072  10.871  0.4381 -0.1787  0.2094
  723MOL0     C99665   1.558   3.161  10.942 -0.0085  1.1216  0.0162
  723MOL0     C99666   1.605   3.249  11.055  0.1324 -0.8156 -0.1724
  723MOL0     O99667   1.514   3.355  11.074  0.0073 -0.3921  0.0066
  723MOL0     C99668   1.549   3.452  11.157 -0.0239 -0.1649  0.9134
  723MOL0     C99669   1.674   3.519  11.162 -0.2684 -0.5413 -0.9153
  723MOL0     C99670   1.692   3.624  11.260 -0.3287  0.7717 -0.1215
  723MOL0     C99671   1.586   3.669  11.345 -0.7611 -0.2856  0.9748
  723MOL0     O99672   1.601   3.755  11.451  0.0194 -0.1426  0.4163
  723MOL0     C99673   1.722   3.765  11.516 -0.2376  0.8838 -0.9047
  723MOL0     C99674   1.713   3.750  11.676 -0.2827  0.5092 -0.4098
  723MOL0     C99675   1.619   3.858  11.747  0.9763 -0.2791 -0.1862
  723MOL0     C99676   1.606   3.989  11.679 -0.0072  0.0573 -1.2505
  723MOL0     C99677   1.483   4.071  11.735 -0.1359 -0.1390  0.5375
  723MOL0     C99678   1.470   4.202  11.650  0.1254  0.8948  0.0737
  723MOL0     C99679   1.380   4.313  11.701  0.3734 -0.6958  0.0408
  723MOL0     C99680   1.232   4.275  11.692  0.0242  0.3022 -0.2347
  723MOL0    Cl99681   1.135   4.403  11.765  0.2714 -0.3902 -0.2889
  723MOL0     C99682   1.459   3.612  11.324 -0.3492 -0.1160  0.1399
  723MOL0     C99683   1.441   3.504  11.234 -0.1751 -0.2217  0.2477
  723MOL0     O99684   1.704   3.229  11.124  0.5810  0.6407  0.5286
  723MOL0     C99685   1.418   3.150  10.927 -0.3029  0.6910  1.5635
  723MOL0     C99686   1.359   3.055  10.834 -0.1393  0.4715  0.3508
  723MOL0     N99687   1.290   2.505  10.349 -0.0288 -1.1036  0.1141
  723MOL0     N99688   1.322   2.388  10.377 -1.3239  1.0103 -0.8453
  723MOL0     C99689   0.682   1.400  10.839  0.3115  0.0634 -0.0506
  723MOL0     C99690   0.551   1.347  10.822 -0.2212 -0.0010 -0.0831
  723MOL0     C99691   0.111   1.259  10.973 -0.5445  0.0685 -0.5258
  723MOL0     C99692   0.071   1.285  10.843 -0.1022 -0.7835 -0.0669
  723MOL0     C99693  -0.054   1.323  10.803  0.1701  0.8597 -0.1395
  723MOL0     C99694  -0.148   1.340  10.900  0.1666  0.3549  0.4719
  723MOL0     O99695  -0.270   1.393  10.857 -0.0223 -0.8966  0.2012
  723MOL0     C99696  -0.386   1.399  10.933 -0.0837 -0.2877 -0.0273
  723MOL0     C99697  -0.439   1.264  10.980 -0.0315  0.7157  0.2664
  723MOL0     C99698  -0.429   1.153  10.880 -0.5799 -0.7103  0.2442
  723MOL0     C99699  -0.568   1.131  10.816  0.5961 -0.8860 -0.4465
  723MOL0     C99700  -0.625   1.253  10.756 -0.6547 -0.6973  0.5503
  723MOL0     C99701  -0.676   1.358  10.719  0.3259 -0.4407  0.1873
  723MOL0     C99702  -0.117   1.315  11.035  0.3396 -0.3786 -0.2627
  723MOL0     C99703   0.010   1.286  11.075  0.3875  0.7746  0.8140
  723MOL0     C99704   0.040   1.274  11.223  0.9091  0.4154  0.4286
  723MOL0     H99705   0.427   1.416  11.127 -0.0966 -0.7632  0.4747
  723MOL0     H99706   0.658   1.515  11.149 -1.7513  0.1274  1.2165
  723MOL0     H99707   0.819   1.624  10.815 -0.3993 -2.4587  0.1717
  723MOL0     H99708   0.987   1.605  10.870  0.6798  2.7902 -0.5480
  723MOL0     H99709   0.767   1.782  10.976 -0.3491  0.7392 -0.6594
  723MOL0     H99710   0.890   1.706  11.091  2.3329 -0.8578 -1.5502
  723MOL0     H99711   0.955   1.939  11.025 -2.6829  0.0186  0.1288
  723MOL0     H99712   1.064   1.799  10.993 -0.5333 -1.3153  0.4615
  723MOL0     H99713   1.011   1.807  10.756  2.2469  0.3755  0.4401
  723MOL0     H99714   0.879   1.912  10.760  1.0283 -2.7774 -2.5666
  723MOL0     H99715   1.176   1.991  10.819  0.5788 -0.6794 -0.4596
  723MOL0     H99716   1.039   2.094  10.856 -1.1531 -0.9405 -1.1344
  723MOL0     H99717   1.105   1.979  10.577  0.1838  0.8360 -0.8745
  723MOL0     H99718   0.985   2.105  10.614  1.6777  2.7547 -1.2422
  723MOL0     H99719   1.285   2.156  10.693  0.2367  2.9850  1.1452
  723MOL0     H99720   1.161   2.263  10.695  1.4020  1.1619 -1.7578
  723MOL0     H99721   1.294   2.138  10.462  0.8049  0.3468 -1.9979
  723MOL0     H99722   1.125   2.160  10.436 -2.2254 -0.3373  2.8681
  723MOL0     H99723   1.042   2.423  10.556  0.0004  2.0597 -0.5067
  723MOL0     H99724   1.004   2.643  10.451  0.7600 -1.1720  1.6771
  723MOL0     H99725   1.127   2.702  10.327 -1.2065 -1.8399 -1.5010
  723MOL0     H99726   1.076   2.834  10.533 -1.9925 -1.5165 -1.2542
  723MOL0     H99727   1.161   2.709  10.621 -0.8428 -4.8333 -1.6894
  723MOL0     H99728   1.355   2.725  10.475  0.1539  0.7354 -1.4254
  723MOL0     H99729   1.266   2.836  10.368 -3.9122 -0.7852 -0.6345
  723MOL0     H99730   1.431   2.963  10.508  0.5311 -0.6117 -0.8856
  723MOL0     H99731   1.264   3.005  10.576 -0.7395 -1.2513  3.0146
  723MOL0     H99732   1.640   2.907  10.722  2.1134  3.4051 -2.1957
  723MOL0     H99733   1.825   3.176  10.867 -3.9411  1.4764 -0.0980
  723MOL0     H99734   1.839   3.018  10.790 -0.8307  0.7822 -1.2687
  723MOL0     H99735   1.814   3.043  10.974  1.0080  3.1831  1.1503
  723MOL0     H99736   1.751   3.484  11.093 -0.8969 -4.3207  0.0949
  723MOL0     H99737   1.787   3.674  11.270 -0.1951  0.8287 -1.5911
  723MOL0     H99738   1.785   3.682  11.484 -1.7938  0.0403 -1.9040
  723MOL0     H99739   1.764   3.866  11.504 -1.8339  2.2980  3.5114
  723MOL0     H99740   1.682   3.649  11.704  2.3930 -1.1372 -2.7892
  723MOL0     H99741   1.817   3.757  11.709  0.7551  1.7480 -3.5710
  723MOL0     H99742   1.663   3.893  11.841  3.0231 -0.0098 -1.2016
  723MOL0     H99743   1.517   3.820  11.761  0.6571 -1.1587 -3.7861
  723MOL0     H99744   1.595   3.981  11.571 -3.6915  0.3184 -1.0089
  723MOL0     H99745   1.697   4.048  11.697  0.6767 -1.2309 -0.3779
  723MOL0     H99746   1.392   4.013  11.721  0.7981 -1.3873 -0.6164
  723MOL0     H99747   1.493   4.096  11.841 -0.6530  0.7113  0.3992
  723MOL0     H99748   1.440   4.183  11.547 -1.8145  2.8081  0.2160
  723MOL0     H99749   1.567   4.252  11.640  0.0629  1.8075  3.0789
  723MOL0     H99750   1.397   4.401  11.639 -2.3068  0.2354  0.5187
  723MOL0     H99751   1.396   4.343  11.804 -1.6314  3.6141 -0.6985
  723MOL0     H99752   1.219   4.178  11.741  2.0967  0.4461  0.7649
  723MOL0     H99753   1.209   4.258  11.587  2.2394 -0.2398 -0.6966
  723MOL0     H99754   1.385   3.645  11.396  2.2133  0.0399  2.8949
  723MOL0     H99755   1.338   3.468  11.234  0.0852 -0.9874 -0.2142
  723MOL0     H99756   1.353   3.217  10.982 -1.2169 -0.2313  1.6275
  723MOL0     H99757   1.253   3.045  10.812  0.3294  1.0652 -2.4921
  723MOL0     H99758   0.752   1.408  10.757 -1.3906 -1.8771 -1.8199
  723MOL0     H99759   0.534   1.301  10.725 -4.1290  2.8373 -1.0006
  723MOL0     H99760   0.143   1.270  10.763  0.4268  0.0758  0.2494
  723MOL0     H99761  -0.077   1.340  10.699  1.2152  0.3226 -0.4685
  723MOL0     H99762  -0.367   1.468  11.015 -2.8825  1.5487 -0.7975
  723MOL0     H99763  -0.465   1.450  10.877  1.7446  1.8723 -0.7742
  723MOL0     H99764  -0.538   1.263  11.026 -0.0342  0.7681  0.2616
  723MOL0     H99765  -0.377   1.232  11.065  0.0330  0.9225  0.2962
  723MOL0     H99766  -0.353   1.172  10.803 -2.5059  0.4938 -1.4405
  723MOL0     H99767  -0.407   1.061  10.936 -1.2605  0.1331  1.9746
  723MOL0     H99768  -0.641   1.095  10.889 -0.2048  1.4256 -0.0261
  723MOL0     H99769  -0.550   1.071  10.726  1.2461  3.8873 -3.8712
  723MOL0     H99770  -0.711   1.455  10.689  0.6951 -0.8841 -1.7935
  723MOL0     H99771  -0.195   1.317  11.110  0.7162 -1.0912  0.1668
  723MOL0     H99772  -0.048   1.293  11.284  0.2013  1.5221 -0.8995
  723MOL0     H99773   0.077   1.171  11.235 -0.0730 -0.1703 -1.1759
  723MOL0     H99774   0.123   1.344  11.236  0.5511  0.5051  2.4707
  724MOL0     O99775  10.745   6.262   8.227 -0.1252  0.9753  0.1802
  724MOL0     C99776  10.661   6.335   8.183  0.2419 -0.0632 -0.1898
  724MOL0     O99777  10.550   6.303   8.116 -0.9416 -0.3307  0.0882
  724MOL0     C99778  10.532   6.181   8.049  0.1068 -0.1624  0.1520
  724MOL0     C99779  10.404   6.163   8.000 -0.0270 -0.0137  0.7147
  724MOL0     C99780  10.376   6.053   7.916  0.1577 -0.2630 -0.4270
  724MOL0     C99781  10.475   5.960   7.871  0.2922  0.0296  0.4951
  724MOL0     O99782  10.428   5.867   7.782  0.9944  0.0722  0.3415
  724MOL0     C99783  10.521   5.784   7.714 -0.2999  0.7375 -0.3621
  724MOL0     C99784  10.463   5.684   7.625 -0.0491  0.0419  0.4564
  724MOL0     C99785  10.378   5.581   7.693 -0.3778  0.8573 -0.1355
  724MOL0     C99786  10.346   5.471   7.581  0.0711  0.6126  0.1439
  724MOL0     C99787  10.212   5.399   7.611 -0.0265 -0.7713  1.0430
  724MOL0     C99788  10.197   5.326   7.752 -0.5801  0.3725  0.1490
  724MOL0     C99789  10.065   5.268   7.778  0.1582 -0.2579  0.1161
  724MOL0     C99790  10.050   5.149   7.876 -0.3261 -0.5789  0.5051
  724MOL0     N99791   9.923   5.073   7.862  0.4952  0.6435  0.4361
  724MOL0     C99792   9.878   5.022   7.740  0.4603 -0.4957  0.1904
  724MOL0     C99793   9.785   4.932   7.774 -0.4656 -0.9829 -0.0953
  724MOL0     C99794   9.731   4.824   7.678 -0.5490 -0.5899 -0.1376
  724MOL0     C99795   9.807   4.690   7.696  0.2018  0.0745 -0.3749
  724MOL0     C99796   9.833   4.623   7.559  1.0155 -0.0814  0.7715
  724MOL0     C99797   9.914   4.497   7.565  0.2766 -0.0915  0.2760
  724MOL0     O99798   9.976   4.472   7.442 -0.0867  0.5257  0.5994
  724MOL0     C99799  10.004   4.341   7.411 -0.1559  0.3507 -0.2450
  724MOL0     C99800  10.060   4.250   7.502 -0.8733  1.0595  0.2677
  724MOL0     C99801  10.092   4.111   7.470  0.1009  0.0886  0.0162
  724MOL0     C99802  10.138   4.025   7.593  1.2328  0.1676  0.4590
  724MOL0     C99803  10.076   4.073   7.335  0.6776  0.2767 -0.7518
  724MOL0     C99804  10.105   3.936   7.288 -0.1208 -0.8268  0.3255
  724MOL0     O99805  10.110   3.839   7.373  0.1382  0.6239 -0.2852
  724MOL0     C99806  10.150   3.711   7.344  0.7020 -0.2488  0.6672
  724MOL0     C99807  10.248   3.666   7.258 -0.8598 -0.2348  0.0619
  724MOL0     C99808  10.251   3.526   7.233  0.6526 -0.2073  0.1245
  724MOL0     C99809  10.175   3.428   7.302  1.4016 -0.4475 -0.1056
  724MOL0     O99810  10.183   3.294   7.285  0.3373  0.3352 -0.3366
  724MOL0     C99811  10.216   3.243   7.152  0.1524 -0.2608  0.3278
  724MOL0     C99812  10.195   3.093   7.163  0.0583  0.4199  0.4554
  724MOL0     C99813  10.182   3.013   7.031 -0.0253 -0.1294  0.4754
  724MOL0     C99814  10.063   3.068   6.937 -0.2226  0.5553  0.7814
  724MOL0     C99815   9.927   3.051   6.989  0.6861 -0.5422  0.0111
  724MOL0     C99816   9.882   2.905   7.006  0.0759  0.6441  0.0079
  724MOL0     C99817   9.756   2.884   7.104 -0.0890 -0.1007  0.0659
  724MOL0     C99818   9.734   2.735   7.131 -0.3430  0.1744  0.0173
  724MOL0    Cl99819   9.735   2.653   6.981  0.0766 -0.2282  0.3473
  724MOL0     C99820  10.087   3.472   7.397 -0.8147  0.2328  1.5536
  724MOL0     C99821  10.069   3.610   7.414  0.0176  0.1562  0.3504
  724MOL0     O99822  10.098   3.917   7.165  0.7779 -0.2368  0.4640
  724MOL0     C99823  10.022   4.167   7.243 -0.2281 -0.2610  0.1765
  724MOL0     C99824   9.980   4.294   7.283 -0.5925 -0.2233  0.6121
  724MOL0     N99825   9.771   4.931   7.903  0.3243  0.0381 -0.6591
  724MOL0     N99826   9.848   5.024   7.959  1.0652  0.5996  0.0788
  724MOL0     C99827  10.599   5.967   7.925 -0.5152  0.1273  0.2293
  724MOL0     C99828  10.625   6.077   8.012 -0.9389  0.3759  0.7829
  724MOL0     C99829  10.686   6.474   8.209  0.4346 -0.0147 -0.1110
  724MOL0     C99830  10.816   6.536   8.204  0.3218  0.1504  0.2986
  724MOL0     C99831  10.836   6.676   8.221 -0.7001  0.3587  0.2199
  724MOL0     C99832  10.733   6.751   8.242 -0.2318 -0.7132  0.5153
  724MOL0     O99833  10.768   6.887   8.257 -0.3657  0.4449 -0.3868
  724MOL0     C99834  10.659   6.983   8.265 -0.2868  0.2022 -0.1892
  724MOL0     C99835  10.737   7.112   8.282 -0.0560  0.6390  1.1067
  724MOL0     C99836  10.648   7.230   8.234  0.2238 -0.3243  0.2065
  724MOL0     C99837  10.727   7.358   8.237 -0.0798  0.2876  0.8532
  724MOL0     C99838  10.845   7.354   8.149 -0.6975  0.4308  0.5804
  724MOL0     C99839  10.946   7.347   8.086  0.1462 -0.5025 -0.1156
  724MOL0     C99840  10.604   6.702   8.256 -0.0299 -0.6138  0.8694
  724MOL0     C99841  10.578   6.565   8.246 -1.4386  0.3216 -0.0474
  724MOL0     C99842  10.437   6.535   8.271  0.5758  0.4980  0.4726
  724MOL0     H99843  10.320   6.227   8.025 -1.3827 -0.2966 -2.5442
  724MOL0     H99844  10.275   6.026   7.885  1.0399 -2.7322 -1.3572
  724MOL0     H99845  10.580   5.720   7.780 -0.9582 -0.7409 -1.1442
  724MOL0     H99846  10.589   5.855   7.666 -0.6078  1.6814  0.5524
  724MOL0     H99847  10.396   5.746   7.564  0.0170  0.6258  0.9683
  724MOL0     H99848  10.531   5.636   7.554 -0.2611 -0.3222  0.4931
  724MOL0     H99849  10.425   5.521   7.772  1.7680 -1.1819 -2.7624
  724MOL0     H99850  10.287   5.636   7.723 -0.4442  0.1279  1.0801
  724MOL0     H99851  10.340   5.508   7.478 -2.1716 -0.6034 -0.2226
  724MOL0     H99852  10.420   5.392   7.594 -0.9152 -0.8178 -2.3145
  724MOL0     H99853  10.180   5.322   7.541 -2.5015  1.2847 -0.2337
  724MOL0     H99854  10.140   5.479   7.594  2.8192  2.1278  1.5587
  724MOL0     H99855  10.265   5.241   7.741 -0.2349  0.8631 -2.1994
  724MOL0     H99856  10.229   5.390   7.834  3.7388 -2.8051  1.3014
  724MOL0     H99857  10.024   5.239   7.681  0.6359  2.9468 -1.1359
  724MOL0     H99858  10.003   5.345   7.825  0.2582  0.7763 -1.3993
  724MOL0     H99859  10.134   5.079   7.867 -0.4738 -0.5353 -1.7513
  724MOL0     H99860  10.050   5.191   7.977 -1.1760  1.5054 -0.3048
  724MOL0     H99861   9.917   5.053   7.643 -1.3959  0.5175 -0.2825
  724MOL0     H99862   9.755   4.849   7.575  4.7351  1.2233  1.2373
  724MOL0     H99863   9.623   4.807   7.686 -1.6803  4.3595 -1.6845
  724MOL0     H99864   9.904   4.722   7.735 -0.1784 -1.1752  1.8003
  724MOL0     H99865   9.758   4.625   7.769 -2.0039 -0.2368 -2.0191
  724MOL0     H99866   9.743   4.600   7.501 -0.8975 -0.2324  3.5452
  724MOL0     H99867   9.892   4.692   7.499 -0.3023 -1.8997 -2.9355
  724MOL0     H99868   9.984   4.507   7.648 -0.9019  1.8224  1.1315
  724MOL0     H99869   9.844   4.416   7.586 -1.5354  0.9036 -1.5480
  724MOL0     H99870  10.069   4.280   7.606 -3.1074 -0.4069  0.9541
  724MOL0     H99871  10.239   3.988   7.574  0.5623 -1.2867 -0.4766
  724MOL0     H99872  10.065   3.944   7.600  0.4691  0.5643 -2.0691
  724MOL0     H99873  10.138   4.082   7.686 -0.9382 -2.4602  2.2216
  724MOL0     H99874  10.314   3.732   7.202 -1.6668 -1.0558 -1.9390
  724MOL0     H99875  10.316   3.493   7.152  0.3844  1.5524 -0.8585
  724MOL0     H99876  10.159   3.304   7.082  1.3845  2.2635  1.4298
  724MOL0     H99877  10.323   3.264   7.148  0.2704 -0.4925  1.7193
  724MOL0     H99878  10.280   3.048   7.216  0.4551 -0.4719 -0.8866
  724MOL0     H99879  10.104   3.080   7.224 -0.3021  0.7133 -0.0128
  724MOL0     H99880  10.169   2.904   7.035 -2.9737 -0.0656 -2.7892
  724MOL0     H99881  10.274   3.038   6.978  0.4909 -2.4033  0.2002
  724MOL0     H99882  10.068   3.021   6.838 -0.8389  2.2860 -0.0990
  724MOL0     H99883  10.082   3.174   6.918  0.9224 -0.0763 -2.1895
  724MOL0     H99884   9.900   3.106   7.079 -0.6532  1.1178 -1.3124
  724MOL0     H99885   9.866   3.106   6.916  1.6237  1.7368  0.8639
  724MOL0     H99886   9.964   2.853   7.055  1.0305  1.5062 -0.6425
  724MOL0     H99887   9.869   2.849   6.913 -1.6255  1.1707 -0.1098
  724MOL0     H99888   9.672   2.940   7.062  0.5794  0.9318  0.0737
  724MOL0     H99889   9.777   2.931   7.200  0.6672 -0.3939  0.0528
  724MOL0     H99890   9.631   2.713   7.161 -0.8438 -0.8701 -2.2343
  724MOL0     H99891   9.810   2.695   7.199  1.4979  1.5618 -1.1478
  724MOL0     H99892  10.034   3.399   7.458 -0.1354 -2.2924 -0.6622
  724MOL0     H99893  10.014   3.644   7.501  1.3270  1.9629  0.5356
  724MOL0     H99894  10.014   4.141   7.138 -0.3779  3.4922 -0.9024
  724MOL0     H99895   9.934   4.359   7.210 -3.0034 -1.6355  0.7797
  724MOL0     H99896  10.683   5.914   7.882 -1.3130 -0.2820 -0.8642
  724MOL0     H99897  10.730   6.088   8.039 -0.6803  0.7437 -0.3079
  724MOL0     H99898  10.905   6.476   8.186  0.2816 -0.3983  1.7858
  724MOL0     H99899  10.931   6.726   8.204 -1.0102  0.7603 -0.3659
  724MOL0     H99900  10.603   6.981   8.171 -0.5831  1.8091 -0.0734
  724MOL0     H99901  10.600   6.969   8.356 -0.3874 -0.7405 -0.3879
  724MOL0     H99902  10.822   7.116   8.212 -2.0953  4.5758 -1.5326
  724MOL0     H99903  10.774   7.129   8.383 -1.0162  1.7176  1.2895
  724MOL0     H99904  10.605   7.220   8.134  0.0322  1.4454  0.0961
  724MOL0     H99905  10.564   7.229   8.303 -1.2950 -0.7680 -1.5758
  724MOL0     H99906  10.766   7.380   8.337 -0.8364 -1.7319  1.6322
  724MOL0     H99907  10.671   7.435   8.182  0.3817  0.2341  0.2960
  724MOL0     H99908  11.035   7.352   8.027  1.8884 -1.0740  2.3200
  724MOL0     H99909  10.524   6.770   8.282  0.1821 -1.2047  3.3455
  724MOL0     H99910  10.401   6.515   8.169 -1.6129 -0.9798  1.4581
  724MOL0     H99911  10.423   6.451   8.339 -1.6324 -0.5868 -1.2018
  724MOL0     H99912  10.373   6.620   8.299 -1.2288 -0.4298 -0.6112
  725MOL0     O99913  11.418   7.541   0.180 -0.4357 -0.1190 -0.1228
  725MOL0     C99914  11.383   7.447   0.112 -0.1708  0.7121 -0.2966
  725MOL0     O99915  11.270   7.361   0.126 -0.5092  0.7152 -0.7111
  725MOL0     C99916  11.190   7.377   0.233  0.0106  0.3608  0.7687
  725MOL0     C99917  11.143   7.497   0.289  0.4565 -0.7817 -0.4218
  725MOL0     C99918  11.053   7.496   0.399 -0.2271 -0.3545  0.9456
  725MOL0     C99919  11.011   7.380   0.441  0.0322  0.0337 -0.4448
  725MOL0     O99920  10.907   7.371   0.533  0.1004 -0.3408  0.5951
  725MOL0     C99921  10.968   7.373   0.667  0.1394  0.0879 -0.9502
  725MOL0     C99922  10.873   7.305   0.779  0.8303  0.5358 -0.8376
  725MOL0     C99923  10.937   7.328   0.922  0.3703 -0.2971  0.0547
  725MOL0     C99924  10.847   7.265   1.027  0.7372  0.4337  0.4691
  725MOL0     C99925  10.907   7.148   1.106  0.1513 -0.9652  0.5457
  725MOL0     C99926  10.824   7.081   1.215 -0.3533  0.2266 -0.2965
  725MOL0     C99927  10.884   6.968   1.280  0.4642 -0.8710  0.0891
  725MOL0     C99928  10.784   6.913   1.376 -0.1866  0.0296 -0.3173
  725MOL0     N99929  10.833   6.780   1.418 -0.4693  0.2758  0.2640
  725MOL0     C99930  10.784   6.659   1.379 -0.1384  0.6355 -0.4504
  725MOL0     C99931  10.861   6.562   1.451 -0.4329 -0.4392  0.5138
  725MOL0     C99932  10.841   6.416   1.468  0.1088  0.4437  0.1717
  725MOL0     C99933  10.697   6.378   1.501  0.2733  0.3622 -0.6175
  725MOL0     C99934  10.701   6.235   1.561 -0.1541  0.3862  0.0761
  725MOL0     C99935  10.555   6.190   1.580  0.0611  0.1259  0.6651
  725MOL0     O99936  10.480   6.184   1.457 -0.3476 -0.5477 -0.8550
  725MOL0     C99937  10.344   6.162   1.477  0.7033 -0.6423 -0.1877
  725MOL0     C99938  10.275   6.136   1.603 -0.5530  0.9813  0.9339
  725MOL0     C99939  10.143   6.105   1.614 -0.6952 -0.1452 -0.3868
  725MOL0     C99940  10.083   6.074   1.755  0.0127  0.0591 -0.3490
  725MOL0     C99941  10.060   6.113   1.495 -0.2346 -0.0875 -0.6887
  725MOL0     C99942   9.907   6.110   1.497 -0.1359 -0.3485 -0.1917
  725MOL0     O99943   9.861   6.215   1.434 -0.4677 -0.1019  0.7062
  725MOL0     C99944   9.733   6.248   1.426 -0.2837 -0.7019  0.7565
  725MOL0     C99945   9.666   6.244   1.298 -0.6481 -0.3372  0.0676
  725MOL0     C99946   9.533   6.282   1.283 -0.2340 -1.1026  0.8253
  725MOL0     C99947   9.457   6.311   1.395 -0.1176 -0.4156  0.8537
  725MOL0     O99948   9.323   6.340   1.367  0.0314  0.7499 -0.0099
  725MOL0     C99949   9.228   6.307   1.474 -0.2404 -0.8084 -0.5062
  725MOL0     C99950   9.086   6.289   1.407 -0.3882 -0.0222  0.2942
  725MOL0     C99951   9.087   6.184   1.287 -0.0895 -0.1741 -0.6221
  725MOL0     C99952   8.946   6.127   1.256 -0.5569  0.5218  0.8478
  725MOL0     C99953   8.878   6.214   1.148  0.9878 -0.6429 -0.5016
  725MOL0     C99954   8.841   6.357   1.189  0.1291 -0.5516  0.0601
  725MOL0     C99955   8.757   6.443   1.086  0.5458 -0.0397 -0.2131
  725MOL0     C99956   8.721   6.580   1.156  0.5608  0.9356  0.1338
  725MOL0    Cl99957   8.649   6.693   1.027 -0.4033  0.0996  0.1549
  725MOL0     C99958   9.524   6.323   1.514 -0.6575  0.7912  1.4204
  725MOL0     C99959   9.657   6.277   1.534  0.3515  0.8321 -0.5745
  725MOL0     O99960   9.842   6.029   1.565  0.6710  0.1384 -0.1156
  725MOL0     C99961  10.125   6.136   1.374 -0.4046 -0.0054  0.0701
  725MOL0     C99962  10.266   6.154   1.359  0.2461 -0.0052  0.9268
  725MOL0     N99963  10.956   6.625   1.520  0.2839  0.5249 -0.2898
  725MOL0     N99964  10.928   6.750   1.507 -0.7674 -0.5644  0.4636
  725MOL0     C99965  11.059   7.255   0.386  0.2489 -0.4032  0.2965
  725MOL0     C99966  11.140   7.254   0.279 -0.3147 -0.1848  0.4196
  725MOL0     C99967  11.463   7.422  -0.005  0.6305  0.1623  0.4895
  725MOL0     C99968  11.519   7.298  -0.023  0.0153 -0.3045 -0.6825
  725MOL0     C99969  11.565   7.261  -0.153 -0.3143 -0.5036  0.6921
  725MOL0     C99970  11.575   7.351  -0.257  0.3020  0.0247  0.7452
  725MOL0     O99971  11.618   7.327  -0.384 -0.4622 -0.0892 -0.4680
  725MOL0     C99972  11.682   7.196  -0.397 -0.3140 -0.6924 -0.6727
  725MOL0     C99973  11.734   7.196  -0.544 -0.1337 -0.2047  0.4168
  725MOL0     C99974  11.740   7.051  -0.586  0.4608  0.2088  0.8415
  725MOL0     C99975  11.839   7.009  -0.703 -0.2493 -0.7085  0.8266
  725MOL0     C99976  11.981   6.987  -0.653 -0.4978 -0.1095  0.6032
  725MOL0     C99977  12.103   6.991  -0.630 -0.3237 -0.3101  0.3546
  725MOL0     C99978  11.521   7.476  -0.233  0.5842  0.3959  1.1633
  725MOL0     C99979  11.466   7.506  -0.113  0.4799 -0.3443  0.1348
  725MOL0     C99980  11.394   7.637  -0.107  1.1926  0.2558  0.1646
  725MOL0     H99981  11.180   7.590   0.248  0.9088 -1.2306 -1.0617
  725MOL0     H99982  10.995   7.585   0.422  2.9439  3.1398 -2.8791
  725MOL0     H99983  10.987   7.475   0.701 -0.9271 -0.2837  0.8733
  725MOL0     H99984  11.066   7.324   0.671  1.2634  2.1625 -1.5520
  725MOL0     H99985  10.781   7.362   0.791 -1.3608 -2.1582 -3.3632
  725MOL0     H99986  10.838   7.207   0.744  1.3639  0.2599 -0.6062
  725MOL0     H99987  11.038   7.289   0.936  0.4507  0.1233  0.6481
  725MOL0     H99988  10.947   7.435   0.943 -2.0807 -0.3783  2.2445
  725MOL0     H99989  10.825   7.342   1.102  2.0866 -0.4227  1.7954
  725MOL0     H99990  10.752   7.229   0.985  0.7805  1.4933 -0.5962
  725MOL0     H99991  10.999   7.168   1.163  1.8156 -0.8862 -2.0291
  725MOL0     H99992  10.927   7.075   1.027  0.1434 -1.9108  1.3864
  725MOL0     H99993  10.806   7.166   1.282  0.6242  3.3989 -3.6933
  725MOL0     H99994  10.728   7.044   1.177 -0.1699  0.1722 -0.7236
  725MOL0     H99995  10.976   6.991   1.334  0.7153 -0.3395 -0.5482
  725MOL0     H99996  10.905   6.898   1.198 -0.4655 -0.0604 -0.8859
  725MOL0     H99997  10.791   6.984   1.459  2.5164  1.2517 -1.4663
  725MOL0     H99998  10.681   6.908   1.341 -0.6842 -3.1066  1.2213
  725MOL0     H99999  10.700   6.655   1.311  1.3302  0.8815 -2.4039
  725MOL0     H    0  10.900   6.392   1.558  0.2275  3.1211  0.8914
  725MOL0     H    1  10.875   6.363   1.379 -2.2846  2.4182 -2.0883
  725MOL0     H    2  10.639   6.447   1.563 -1.7965 -1.3970 -0.4625
  725MOL0     H    3  10.641   6.382   1.407 -1.5046 -1.9296  0.2348
  725MOL0     H    4  10.748   6.162   1.495 -1.0817  0.0741 -0.2687
  725MOL0     H    5  10.755   6.233   1.656  1.2039 -2.3182 -0.6601
  725MOL0     H    6  10.558   6.097   1.636  0.8219  0.2998  0.9315
  725MOL0     H    7  10.512   6.272   1.640 -1.3073  1.0761 -1.4924
  725MOL0     H    8  10.340   6.143   1.689  0.3044 -0.7693  0.4682
  725MOL0     H    9  10.153   6.077   1.839  0.0632 -1.8171 -0.2761
  725MOL0     H   10  10.036   5.975   1.754  0.0583  0.0296  0.1139
  725MOL0     H   11   9.993   6.131   1.777 -1.3827 -2.6122  1.5299
  725MOL0     H   12   9.728   6.228   1.211  2.7073  2.1662  1.7591
  725MOL0     H   13   9.484   6.292   1.186  2.3012  1.6938 -0.3466
  725MOL0     H   14   9.249   6.211   1.522  1.7020  0.3619  1.1380
  725MOL0     H   15   9.230   6.389   1.547  2.9612 -1.6493  0.5420
  725MOL0     H   16   9.012   6.258   1.481 -0.3679  1.6057  1.0520
  725MOL0     H   17   9.054   6.390   1.380 -0.3190 -0.0999 -0.0912
  725MOL0     H   18   9.146   6.098   1.319 -3.6138 -2.3877  0.4898
  725MOL0     H   19   9.132   6.240   1.205  1.7955  1.2471  1.2685
  725MOL0     H   20   8.887   6.103   1.345  0.8617  0.7614  1.8876
  725MOL0     H   21   8.961   6.028   1.212 -4.2645 -0.9848  2.5421
  725MOL0     H   22   8.942   6.228   1.060  1.5080  1.5324  0.1575
  725MOL0     H   23   8.784   6.165   1.119 -0.3506  0.7978  1.1929
  725MOL0     H   24   8.930   6.418   1.207 -0.5138  0.6826 -0.7794
  725MOL0     H   25   8.773   6.352   1.274  1.2538 -0.9682  0.9634
  725MOL0     H   26   8.666   6.387   1.063  1.8674 -1.9532 -1.0060
  725MOL0     H   27   8.814   6.452   0.993  0.8642 -0.5380 -0.0707
  725MOL0     H   28   8.815   6.612   1.203  2.7287 -2.0275 -1.7811
  725MOL0     H   29   8.644   6.565   1.233 -1.0463  2.5440 -1.0802
  725MOL0     H   30   9.480   6.357   1.607  0.1802 -1.1532  2.5990
  725MOL0     H   31   9.710   6.275   1.629 -0.3243 -2.6379 -0.1309
  725MOL0     H   32  10.072   6.143   1.279  1.4113  1.3613 -0.9154
  725MOL0     H   33  10.317   6.150   1.264 -0.9935 -0.2659  0.2433
  725MOL0     H   34  10.998   7.176   0.427 -1.3904 -0.0076 -1.2856
  725MOL0     H   35  11.167   7.166   0.222 -0.2915  0.1488 -0.0882
  725MOL0     H   36  11.516   7.231   0.063 -4.0012  0.0689 -0.3461
  725MOL0     H   37  11.606   7.162  -0.171  0.6062 -0.0405  0.1882
  725MOL0     H   38  11.769   7.170  -0.338  0.2150  0.3978 -0.9416
  725MOL0     H   39  11.613   7.113  -0.382 -0.0084 -0.5706  1.6965
  725MOL0     H   40  11.838   7.230  -0.534 -0.7210  1.1878  2.6641
  725MOL0     H   41  11.676   7.257  -0.613  1.7108  2.9722  1.4626
  725MOL0     H   42  11.742   6.986  -0.498 -2.9233  0.1943  1.0494
  725MOL0     H   43  11.639   7.029  -0.622  0.3263  1.2217  0.5450
  725MOL0     H   44  11.846   7.084  -0.782 -0.1543 -1.4303  0.1378
  725MOL0     H   45  11.794   6.926  -0.758 -2.9853  0.7582  0.6240
  725MOL0     H   46  12.205   7.006  -0.599 -0.4723 -0.3090  0.8561
  725MOL0     H   47  11.517   7.538  -0.322 -0.6541 -2.6299 -1.0815
  725MOL0     H   48  11.288   7.615  -0.124  0.4962 -2.3953  5.7716
  725MOL0     H   49  11.412   7.690  -0.014 -1.1841  2.1342 -0.3214
  725MOL0     H   50  11.428   7.703  -0.187  0.0179 -0.6959 -1.1832
  726MOL0     O   51  10.372  10.439   6.782  0.4004  0.0017 -0.0582
  726MOL0     C   52  10.316  10.419   6.888  0.2057 -0.2001 -1.1626
  726MOL0     O   53  10.263  10.515   6.967 -0.2093 -0.0555  0.2927
  726MOL0     C   54  10.282  10.645   6.933  0.9003 -0.4213  0.0671
  726MOL0     C   55  10.167  10.714   6.902 -0.1212  0.9162  0.4524
  726MOL0     C   56  10.165  10.844   6.856  0.2523 -0.2042  0.6040
  726MOL0     C   57  10.293  10.911   6.864 -0.0113 -0.3857 -0.3424
  726MOL0     O   58  10.319  11.046   6.847  0.5848  0.1292  0.4955
  726MOL0     C   59  10.223  11.131   6.800 -0.0827  0.4077 -0.7072
  726MOL0     C   60  10.138  11.184   6.915 -0.5616  0.5106  0.2453
  726MOL0     C   61  10.215  11.272   7.022 -0.6245 -0.5492  0.5383
  726MOL0     C   62  10.112  11.350   7.108 -1.2611  0.1634 -0.1172
  726MOL0     C   63  10.061  11.263   7.228 -0.3115  1.1471 -0.9532
  726MOL0     C   64   9.956  11.336   7.309 -0.4251 -0.0284  0.3405
  726MOL0     C   65   9.920  11.265   7.439 -0.1434 -0.6676  0.1193
  726MOL0     C   66   9.841  11.363   7.525  0.3317 -0.1679  0.2151
  726MOL0     N   67   9.826  11.317   7.663 -0.2802  0.1771  0.0491
  726MOL0     C   68   9.937  11.310   7.744  0.4182 -0.7112 -0.4065
  726MOL0     C   69   9.900  11.256   7.859  0.0146 -0.0493 -0.2397
  726MOL0     C   70   9.995  11.201   7.964 -0.4487 -0.2868 -0.1024
  726MOL0     C   71  10.015  11.297   8.083 -0.5610  0.2655 -0.3531
  726MOL0     C   72  10.137  11.259   8.165  0.2216  0.0275  0.0588
  726MOL0     C   73  10.135  11.330   8.297 -0.8705 -0.5549  0.2543
  726MOL0     O   74  10.026  11.318   8.376 -0.8442 -0.8181 -0.1984
  726MOL0     C   75  10.022  11.396   8.497 -0.3464  0.2657 -0.4758
  726MOL0     C   76  10.124  11.481   8.542 -0.5428  0.0055  0.3659
  726MOL0     C   77  10.113  11.544   8.665  0.7922 -0.5195 -0.1755
  726MOL0     C   78  10.239  11.621   8.694  0.1610 -0.0991  0.7269
  726MOL0     C   79   9.992  11.530   8.736 -0.5217 -0.2724 -0.1500
  726MOL0     C   80   9.972  11.594   8.865 -0.5199  1.8740  1.1686
  726MOL0     O   81   9.880  11.531   8.943  0.6645 -1.3686  0.1855
  726MOL0     C   82   9.841  11.577   9.065  0.3962  0.0170  0.6021
  726MOL0     C   83   9.715  11.636   9.077 -0.4802  0.0122  1.0509
  726MOL0     C   84   9.678  11.681   9.208 -0.8466 -0.2713 -0.2383
  726MOL0     C   85   9.764  11.666   9.318 -0.4004 -0.2277 -0.6072
  726MOL0     O   86   9.716  11.705   9.436  0.0103 -0.7142  0.7404
  726MOL0     C   87   9.796  11.709   9.557 -0.5326 -0.3282  0.8784
  726MOL0     C   88   9.909  11.824   9.556  0.1965  0.7906  0.0751
  726MOL0     C   89   9.847  11.968   9.541  0.2062  0.1140  0.0776
  726MOL0     C   90   9.959  12.076   9.526 -0.9329 -0.1989 -0.0709
  726MOL0     C   91   9.917  12.214   9.474 -0.2807  0.8204 -0.7066
  726MOL0     C   92   9.892  12.312   9.593 -0.1214  0.3442  0.5317
  726MOL0     C   93   9.839  12.447   9.563 -0.1955  0.2962  0.0191
  726MOL0     C   94   9.891  12.514   9.444  0.3376  0.1356  0.5748
  726MOL0    Cl   95   9.825  12.684   9.452  0.1742  0.1023 -0.2073
  726MOL0     C   96   9.890  11.608   9.294  0.1422 -0.2303  0.7206
  726MOL0     C   97   9.932  11.559   9.171  0.9049  0.6025  0.2599
  726MOL0     O   98  10.032  11.694   8.892 -0.5688 -0.7425  0.1765
  726MOL0     C   99   9.890  11.446   8.690  0.5713 -0.2768  0.7488
  726MOL0     C  100   9.912  11.374   8.576  0.5068 -0.4312  0.4990
  726MOL0     N  101   9.765  11.236   7.850  0.4416  0.0288 -0.8173
  726MOL0     N  102   9.719  11.264   7.733 -0.2724 -0.0360  0.5176
  726MOL0     C  103  10.408  10.834   6.898 -0.3672  0.1636 -0.2362
  726MOL0     C  104  10.402  10.707   6.945  0.2102  0.5575  0.1116
  726MOL0     C  105  10.323  10.281   6.940 -0.3535 -0.0336 -0.3610
  726MOL0     C  106  10.257  10.266   7.057 -0.0112 -0.3163 -0.1973
  726MOL0     C  107  10.258  10.145   7.126  0.1879 -1.1225 -0.4721
  726MOL0     C  108  10.329  10.032   7.071  0.0963 -0.2819  0.1667
  726MOL0     O  109  10.352   9.913   7.125 -0.2830 -0.1468  0.2006
  726MOL0     C  110  10.319   9.902   7.262  0.6421 -0.3030  0.0944
  726MOL0     C  111  10.413   9.793   7.318  0.0832 -0.5242 -0.0484
  726MOL0     C  112  10.432   9.808   7.474 -0.4568  0.3582 -0.2570
  726MOL0     C  113  10.311   9.779   7.558  0.1551  0.2192 -0.0162
  726MOL0     C  114  10.301   9.632   7.581  0.6808 -0.5713  0.3361
  726MOL0     C  115  10.305   9.507   7.594 -0.1627 -0.2281 -0.4919
  726MOL0     C  116  10.372  10.043   6.941  0.0005 -0.0176  0.4546
  726MOL0     C  117  10.379  10.166   6.879 -0.4964 -0.2795  1.0130
  726MOL0     C  118  10.459  10.164   6.743  0.4562 -0.0281  0.3076
  726MOL0     H  119  10.071  10.663   6.898  1.6362 -2.7872  1.3342
  726MOL0     H  120  10.075  10.900   6.831 -0.3686 -2.0447 -1.6015
  726MOL0     H  121  10.163  11.092   6.718 -0.3310 -0.2639 -0.2108
  726MOL0     H  122  10.281  11.214   6.759  0.6662  0.1172 -0.2533
  726MOL0     H  123  10.066  11.251   6.867  1.0706  0.7077 -2.1471
  726MOL0     H  124  10.088  11.103   6.968  0.8956 -2.0810 -2.0510
  726MOL0     H  125  10.263  11.199   7.088 -0.0855 -0.4981  0.2052
  726MOL0     H  126  10.292  11.341   6.987 -1.4074 -0.1354 -0.3767
  726MOL0     H  127  10.152  11.436   7.161 -4.0790  1.1183  0.6337
  726MOL0     H  128  10.033  11.397   7.048 -0.5489  1.1919 -0.2609
  726MOL0     H  129  10.144  11.231   7.292 -1.7987 -0.9092  0.0432
  726MOL0     H  130  10.021  11.168   7.192  2.3774 -0.8334  0.9240
  726MOL0     H  131   9.989  11.437   7.334  1.4131 -0.3311 -0.7014
  726MOL0     H  132   9.860  11.351   7.259 -0.3621 -0.9803 -0.1006
  726MOL0     H  133  10.006  11.219   7.489  1.7787 -1.6972 -3.7732
  726MOL0     H  134   9.854  11.182   7.416  0.6672 -1.3422  0.1840
  726MOL0     H  135   9.880  11.465   7.517  0.2371 -0.2418 -1.3802
  726MOL0     H  136   9.740  11.357   7.482 -0.8197 -0.8554  2.7683
  726MOL0     H  137  10.040  11.333   7.717 -0.1837 -0.7694 -3.0106
  726MOL0     H  138  10.090  11.178   7.914 -0.9280 -2.9509  0.0816
  726MOL0     H  139   9.959  11.103   7.996  0.1386 -1.2891 -2.2985
  726MOL0     H  140  10.052  11.391   8.042  2.2964 -1.3362 -1.7336
  726MOL0     H  141   9.918  11.308   8.134  0.3996 -0.1433  1.6909
  726MOL0     H  142  10.131  11.152   8.188 -1.6703  0.2305  0.7257
  726MOL0     H  143  10.230  11.286   8.115 -0.0244 -0.2328 -0.5394
  726MOL0     H  144  10.229  11.301   8.344 -0.5730  2.6475  1.8409
  726MOL0     H  145  10.156  11.435   8.274  1.4734 -0.5536  2.0315
  726MOL0     H  146  10.218  11.482   8.488 -0.3738 -1.8452  0.5467
  726MOL0     H  147  10.215  11.727   8.703 -2.1694 -0.7587  4.5915
  726MOL0     H  148  10.308  11.613   8.609  1.8114 -0.2390  2.0234
  726MOL0     H  149  10.295  11.600   8.785 -0.2840  1.1102  1.2990
  726MOL0     H  150   9.656  11.639   8.987  0.0596  1.2444  0.7164
  726MOL0     H  151   9.581  11.729   9.219 -0.2925  0.9158 -0.4021
  726MOL0     H  152   9.736  11.712   9.648 -2.2928 -0.3260 -0.2312
  726MOL0     H  153   9.846  11.612   9.569  0.1477 -0.2964 -1.2162
  726MOL0     H  154   9.963  11.830   9.651  2.6593  0.7950 -1.2392
  726MOL0     H  155   9.991  11.804   9.486 -1.5719 -4.9150 -0.9075
  726MOL0     H  156   9.792  11.998   9.631  2.0920 -1.3013  1.8066
  726MOL0     H  157   9.770  11.965   9.464 -0.3164  0.8376  0.5541
  726MOL0     H  158  10.030  12.036   9.452 -0.8523  0.3522 -0.3007
  726MOL0     H  159  10.013  12.079   9.621 -2.8649  1.7936  1.0561
  726MOL0     H  160   9.998  12.252   9.411  0.1267 -0.8201 -1.2299
  726MOL0     H  161   9.827  12.200   9.414  1.4137 -0.6890 -3.0744
  726MOL0     H  162   9.992  12.324   9.637 -0.0342  2.1070 -0.0518
  726MOL0     H  163   9.827  12.264   9.666  0.3153 -0.5479  0.3477
  726MOL0     H  164   9.854  12.520   9.644 -0.6335 -0.8147  1.1273
  726MOL0     H  165   9.732  12.433   9.546 -0.3160 -0.5817  1.3520
  726MOL0     H  166   9.855  12.461   9.356  1.3492  2.5947 -1.4487
  726MOL0     H  167  10.000  12.510   9.442  0.3329 -0.0188  0.6223
  726MOL0     H  168   9.969  11.597   9.368  1.8903  0.8081 -0.8855
  726MOL0     H  169  10.032  11.517   9.166  1.7325  2.5183  0.1440
  726MOL0     H  170   9.798  11.414   8.739 -0.1324 -1.6144 -1.2905
  726MOL0     H  171   9.829  11.311   8.546  1.0672 -0.7270 -0.4936
  726MOL0     H  172  10.503  10.884   6.914 -0.2420 -0.0594 -0.2801
  726MOL0     H  173  10.478  10.637   6.977  0.4014 -1.4967 -4.0373
  726MOL0     H  174  10.205  10.353   7.094  0.0912  0.4410 -1.7458
  726MOL0     H  175  10.222  10.151   7.229  0.4976 -1.3575 -0.3503
  726MOL0     H  176  10.333   9.994   7.319  0.5506  1.3264 -2.3714
  726MOL0     H  177  10.215   9.873   7.278  0.4694 -0.3875 -1.0694
  726MOL0     H  178  10.512   9.798   7.274  0.5177  2.3871  1.0039
  726MOL0     H  179  10.370   9.694   7.298 -0.3867 -0.0291 -1.6636
  726MOL0     H  180  10.519   9.745   7.499 -0.5313  0.5123  0.4131
  726MOL0     H  181  10.456   9.912   7.494  1.3979 -0.0595 -0.0988
  726MOL0     H  182  10.226   9.824   7.507 -1.1745 -2.3933 -0.2507
  726MOL0     H  183  10.318   9.828   7.655  3.7180  0.4148 -0.2378
  726MOL0     H  184  10.304   9.401   7.613  3.8894 -0.0561  1.7541
  726MOL0     H  185  10.415   9.955   6.896  1.8091  1.0159  0.0361
  726MOL0     H  186  10.385  10.198   6.671 -2.1527  0.2444  2.9078
  726MOL0     H  187  10.548  10.228   6.745  0.9233 -0.5776 -1.3756
  726MOL0     H  188  10.494  10.066   6.710 -0.3774 -0.0162 -0.6485
  727MOL0     O  189  10.910   2.163  10.343 -0.5129 -0.3528 -0.2338
  727MOL0     C  190  10.942   2.195  10.456  0.2008 -0.2784  0.3625
  727MOL0     O  191  10.999   2.316  10.487  0.7617 -0.4133  0.0637
  727MOL0     C  192  11.030   2.405  10.395  0.2135 -0.7340 -0.2546
  727MOL0     C  193  10.948   2.517  10.374  0.2266  0.3033 -0.0202
  727MOL0     C  194  10.984   2.612  10.277 -0.4274 -0.2271 -0.1438
  727MOL0     C  195  11.100   2.603  10.195 -0.4023 -0.7224  0.7941
  727MOL0     O  196  11.138   2.701  10.110  0.0028  0.0376  0.5633
  727MOL0     C  197  11.038   2.726  10.009 -0.8221  0.8333 -0.1352
  727MOL0     C  198  11.098   2.797   9.883  1.8118 -0.0717  0.3638
  727MOL0     C  199  11.001   2.815   9.774 -0.5897  0.3794 -0.5602
  727MOL0     C  200  10.908   2.937   9.794 -0.7981  0.2612 -0.8200
  727MOL0     C  201  10.776   2.910   9.714  0.1462 -0.7915 -0.3351
  727MOL0     C  202  10.673   3.015   9.743  0.8196 -0.6842 -0.6317
  727MOL0     C  203  10.700   3.168   9.723 -1.4074  0.0723  0.0554
  727MOL0     C  204  10.781   3.198   9.599  0.5429  0.4133 -0.0417
  727MOL0     N  205  10.764   3.338   9.566  0.1245 -0.1835  0.4468
  727MOL0     C  206  10.664   3.385   9.485 -0.9508  1.0858 -0.4885
  727MOL0     C  207  10.684   3.519   9.481 -0.0021 -0.3188 -0.2649
  727MOL0     C  208  10.576   3.619   9.441 -0.0761  0.5892  0.3220
  727MOL0     C  209  10.454   3.563   9.381  0.7634  0.5608 -0.0421
  727MOL0     C  210  10.384   3.667   9.289 -0.4295 -0.1634  0.1687
  727MOL0     C  211  10.245   3.619   9.269 -0.3834 -0.0963 -0.7105
  727MOL0     O  212  10.232   3.478   9.234 -0.7066  0.1481 -1.1333
  727MOL0     C  213  10.134   3.410   9.284  1.0209  0.7497 -0.1175
  727MOL0     C  214  10.019   3.461   9.335 -0.5539 -0.4513  0.5197
  727MOL0     C  215   9.908   3.380   9.366  0.3602  0.1251 -0.3617
  727MOL0     C  216   9.788   3.442   9.409 -0.0371  0.5277 -0.2495
  727MOL0     C  217   9.915   3.240   9.326 -0.2900 -0.2031  0.7163
  727MOL0     C  218   9.808   3.152   9.353 -0.3607  0.5604 -0.2128
  727MOL0     O  219   9.838   3.026   9.392  0.3253  0.8857  0.2414
  727MOL0     C  220   9.742   2.931   9.403  0.1058  0.3652  0.1179
  727MOL0     C  221   9.654   2.895   9.301 -0.2836  0.2968  0.4637
  727MOL0     C  222   9.569   2.791   9.324  0.4722  0.2742 -1.0635
  727MOL0     C  223   9.564   2.723   9.451  0.2891 -0.6987  0.4753
  727MOL0     O  224   9.479   2.613   9.459 -0.3199 -0.0954 -0.5550
  727MOL0     C  225   9.410   2.606   9.589 -0.5744 -0.4685  0.2552
  727MOL0     C  226   9.447   2.479   9.665  0.1496 -0.6612  0.2794
  727MOL0     C  227   9.357   2.457   9.779  0.5432 -0.1206 -0.2717
  727MOL0     C  228   9.404   2.537   9.903 -0.1023  0.8474  0.5730
  727MOL0     C  229   9.295   2.532  10.003  0.0476 -0.0057 -0.3776
  727MOL0     C  230   9.296   2.394  10.075 -0.5422 -0.6499 -0.6502
  727MOL0     C  231   9.187   2.400  10.183 -0.5905  0.4757  0.6702
  727MOL0     C  232   9.196   2.277  10.271  0.0025  0.5010 -1.3427
  727MOL0    Cl  233   9.066   2.277  10.407  0.0747 -0.2960 -0.3248
  727MOL0     C  234   9.653   2.766   9.545 -0.4235 -0.3768  0.1199
  727MOL0     C  235   9.742   2.875   9.522 -0.1463  0.8379  0.3282
  727MOL0     O  236   9.692   3.188   9.336 -0.3859 -0.7024  0.6510
  727MOL0     C  237  10.042   3.188   9.298  0.3076  0.2934 -0.7061
  727MOL0     C  238  10.147   3.271   9.263  0.6809 -1.0080 -0.0707
  727MOL0     N  239  10.785   3.549   9.563 -0.4915  0.1600 -0.3365
  727MOL0     N  240  10.835   3.446   9.608  0.1397 -0.4004 -0.2273
  727MOL0     C  241  11.185   2.494  10.227  0.1656  0.6763  0.5466
  727MOL0     C  242  11.148   2.393  10.319 -0.0301  0.7669 -0.4716
  727MOL0     C  243  10.908   2.089  10.559 -0.7284 -0.7090  0.0255
  727MOL0     C  244  10.834   1.978  10.522 -0.1394  0.1280 -0.4772
  727MOL0     C  245  10.785   1.887  10.617 -0.8137 -1.1703 -0.2655
  727MOL0     C  246  10.824   1.900  10.749  0.2374 -0.4612  0.3448
  727MOL0     O  247  10.805   1.786  10.826  0.6377 -0.2627 -0.5419
  727MOL0     C  248  10.793   1.804  10.968 -0.0098  0.3163  0.2733
  727MOL0     C  249  10.716   1.686  11.033 -0.0330  0.0989 -0.3597
  727MOL0     C  250  10.798   1.564  11.075 -0.2204 -0.2141 -0.2951
  727MOL0     C  251  10.865   1.579  11.205 -0.1875  1.0223 -0.4562
  727MOL0     C  252  10.909   1.443  11.238 -0.5907  0.1179 -0.2248
  727MOL0     C  253  10.949   1.340  11.284 -0.5940 -0.4468  0.2462
  727MOL0     C  254  10.902   2.010  10.788  0.6400 -0.1123  0.3647
  727MOL0     C  255  10.946   2.112  10.699 -0.2768 -0.1185  1.1390
  727MOL0     C  256  11.045   2.220  10.750  0.0268 -0.4237 -0.1968
  727MOL0     H  257  10.867   2.541  10.442  0.0685  0.9158 -0.4102
  727MOL0     H  258  10.936   2.708  10.263  1.2149  1.7188  5.0437
  727MOL0     H  259  10.961   2.789  10.055 -1.2011  0.0586  0.3013
  727MOL0     H  260  10.993   2.635   9.967 -1.7017  0.9055  0.6209
  727MOL0     H  261  11.137   2.892   9.922  1.6298  0.2346 -0.1970
  727MOL0     H  262  11.177   2.734   9.843  0.9438 -1.0422  0.1308
  727MOL0     H  263  11.074   2.824   9.693  0.4771  2.1974  0.5304
  727MOL0     H  264  10.944   2.721   9.765  3.1713 -2.1014 -0.6704
  727MOL0     H  265  10.891   2.945   9.902  1.8052 -2.1606 -0.0974
  727MOL0     H  266  10.958   3.028   9.759  2.5540 -2.0115 -2.4010
  727MOL0     H  267  10.724   2.817   9.736 -2.8402  1.2158  2.0271
  727MOL0     H  268  10.796   2.920   9.606 -0.7849 -0.8013 -0.5135
  727MOL0     H  269  10.583   2.976   9.694  0.2848 -0.3265  0.0467
  727MOL0     H  270  10.636   3.010   9.846 -2.4210 -2.2763 -1.7420
  727MOL0     H  271  10.735   3.222   9.811  1.2206 -1.0381 -0.2109
  727MOL0     H  272  10.596   3.197   9.707 -1.4269 -0.1217 -0.1808
  727MOL0     H  273  10.885   3.168   9.613  0.0976 -1.4174 -0.3583
  727MOL0     H  274  10.742   3.127   9.524  1.0942 -1.2746  1.2157
  727MOL0     H  275  10.587   3.326   9.436 -0.3605 -1.4318  1.4199
  727MOL0     H  276  10.624   3.684   9.367 -0.1794 -2.7245 -2.9573
  727MOL0     H  277  10.559   3.696   9.517 -2.2683  2.3295 -1.7564
  727MOL0     H  278  10.469   3.476   9.315 -0.7038  0.0490  0.2800
  727MOL0     H  279  10.398   3.526   9.467  2.6983  1.6304  1.7881
  727MOL0     H  280  10.393   3.770   9.326  0.4654  0.5788 -1.9427
  727MOL0     H  281  10.437   3.683   9.194 -1.9137  1.9280 -0.3711
  727MOL0     H  282  10.217   3.645   9.371  3.0996  1.0851  0.0728
  727MOL0     H  283  10.196   3.681   9.194 -2.2579 -0.0426  0.4982
  727MOL0     H  284  10.016   3.569   9.336  0.9111 -0.3707 -0.5293
  727MOL0     H  285   9.697   3.417   9.354 -3.1828  3.3672  3.1319
  727MOL0     H  286   9.799   3.551   9.413  0.5678  0.4277  1.5088
  727MOL0     H  287   9.784   3.420   9.516  4.9941  1.4475  0.3802
  727MOL0     H  288   9.650   2.935   9.200 -2.5463 -1.1477 -0.1091
  727MOL0     H  289   9.502   2.764   9.243 -0.9085 -0.1550  0.1626
  727MOL0     H  290   9.431   2.699   9.643  3.0169 -0.5588 -0.7261
  727MOL0     H  291   9.304   2.605   9.562 -0.2468  0.6060 -1.2100
  727MOL0     H  292   9.434   2.383   9.615 -1.6940 -0.8209  0.9967
  727MOL0     H  293   9.551   2.498   9.692 -0.5506  2.5292  1.1982
  727MOL0     H  294   9.336   2.352   9.798 -3.3408  0.9850  3.0491
  727MOL0     H  295   9.261   2.502   9.752  0.4800 -0.3065 -0.3529
  727MOL0     H  296   9.432   2.636   9.866 -0.3177  0.4878 -0.5948
  727MOL0     H  297   9.489   2.489   9.953 -1.1636 -0.4402  1.2319
  727MOL0     H  298   9.307   2.617  10.071 -1.2440 -1.2853  1.5410
  727MOL0     H  299   9.193   2.545   9.965  0.1434  0.1365 -0.5924
  727MOL0     H  300   9.393   2.375  10.122  0.1114 -1.3913 -2.2296
  727MOL0     H  301   9.277   2.327   9.991 -1.6782  1.2255 -1.9641
  727MOL0     H  302   9.093   2.403  10.128 -0.7230 -0.4645  0.8235
  727MOL0     H  303   9.212   2.482  10.252 -0.2509 -0.7411  2.0342
  727MOL0     H  304   9.297   2.265  10.311  0.7360  1.2683 -2.8853
  727MOL0     H  305   9.186   2.189  10.207  2.0289 -1.4150  0.7734
  727MOL0     H  306   9.654   2.713   9.640 -0.7225 -0.5272  0.0384
  727MOL0     H  307   9.823   2.898   9.591  1.3062 -3.0775  0.1918
  727MOL0     H  308  10.061   3.082   9.292 -1.2481  0.0027 -0.7554
  727MOL0     H  309  10.238   3.229   9.222 -0.4898 -1.3355 -2.4786
  727MOL0     H  310  11.285   2.488  10.186  0.5182  1.7388  1.2357
  727MOL0     H  311  11.226   2.321  10.340  2.6363  3.3142 -0.8262
  727MOL0     H  312  10.798   1.971  10.420 -1.5691  0.8762 -0.0554
  727MOL0     H  313  10.737   1.796  10.583  0.1632 -2.1741  0.9320
  727MOL0     H  314  10.892   1.804  11.015  0.1517 -1.9394  0.0661
  727MOL0     H  315  10.734   1.893  10.988 -1.4525 -0.4715 -0.3258
  727MOL0     H  316  10.641   1.655  10.959  1.0034  1.1105 -1.9047
  727MOL0     H  317  10.668   1.727  11.122 -1.4803 -1.2341 -0.4911
  727MOL0     H  318  10.714   1.494  11.080 -0.2872 -0.0835  0.5801
  727MOL0     H  319  10.865   1.520  11.001 -0.0421  0.1027 -0.3221
  727MOL0     H  320  10.795   1.614  11.282  0.1813  1.4086 -0.2983
  727MOL0     H  321  10.949   1.648  11.197 -0.7966  1.5734 -3.1550
  727MOL0     H  322  10.981   1.255  11.341 -0.6519  0.1647  1.2232
  727MOL0     H  323  10.933   2.015  10.892 -0.1665  0.1636  0.5964
  727MOL0     H  324  11.135   2.218  10.688  1.4728 -0.7995  1.8495
  727MOL0     H  325  11.001   2.321  10.746  0.4022 -0.2876 -3.4467
  727MOL0     H  326  11.079   2.208  10.853 -0.9940 -0.3667  0.1644
  728MOL0     O  327   2.174   4.102   4.872 -0.1957 -0.4597 -0.1395
  728MOL0     C  328   2.103   4.027   4.814  0.5753 -0.6232 -0.2446
  728MOL0     O  329   2.023   4.052   4.704 -0.2807 -0.0901 -0.6187
  728MOL0     C  330   2.059   4.152   4.625 -0.9514  0.5893  0.1326
  728MOL0     C  331   2.119   4.117   4.499 -0.3693 -0.5515 -1.3990
  728MOL0     C  332   2.165   4.214   4.417 -0.4279  0.2334 -0.4785
  728MOL0     C  333   2.168   4.348   4.466  0.0004  0.0203  0.0257
  728MOL0     O  334   2.230   4.435   4.378  0.4170  1.2588  1.0206
  728MOL0     C  335   2.242   4.574   4.422  0.0125 -0.3950  0.2927
  728MOL0     C  336   2.280   4.677   4.315  0.8740  0.9945 -0.0246
  728MOL0     C  337   2.418   4.654   4.261 -1.1256  0.1544  0.0999
  728MOL0     C  338   2.492   4.782   4.240  0.2966 -0.1645  1.0469
  728MOL0     C  339   2.618   4.757   4.164 -0.4249  0.7451  0.5427
  728MOL0     C  340   2.683   4.883   4.112  0.1999 -0.4647  0.9193
  728MOL0     C  341   2.787   4.852   4.006 -0.4636  0.2800  0.6832
  728MOL0     C  342   2.922   4.798   4.069  0.4634 -0.1027  0.6440
  728MOL0     N  343   3.022   4.751   3.967 -0.0498 -0.1819  0.2662
  728MOL0     C  344   3.089   4.822   3.872 -0.0795  0.2683  0.4999
  728MOL0     C  345   3.170   4.733   3.821 -0.3024  0.6020 -0.4662
  728MOL0     C  346   3.261   4.760   3.708 -0.1947  0.2642  0.0311
  728MOL0     C  347   3.401   4.691   3.726 -0.2206 -0.6757  0.4920
  728MOL0     C  348   3.519   4.770   3.668 -0.4644  0.3389  0.5658
  728MOL0     C  349   3.645   4.720   3.717  0.5534 -0.0856  0.0664
  728MOL0     O  350   3.652   4.748   3.860  0.5620  0.3808 -0.0702
  728MOL0     C  351   3.766   4.731   3.928 -0.3780 -0.7988 -0.0893
  728MOL0     C  352   3.869   4.648   3.880  0.1105 -0.2270 -0.0296
  728MOL0     C  353   3.981   4.614   3.955  0.2943 -0.7914  0.6020
  728MOL0     C  354   4.067   4.500   3.894  0.3378  0.4422 -0.3198
  728MOL0     C  355   3.996   4.678   4.085  0.8230 -0.1350 -0.4491
  728MOL0     C  356   4.111   4.653   4.179  0.5608  0.6188 -0.6556
  728MOL0     O  357   4.092   4.681   4.312  0.0156 -0.1819  0.7168
  728MOL0     C  358   4.203   4.698   4.385  0.0454  0.1055 -0.7469
  728MOL0     C  359   4.193   4.634   4.510 -0.0928  0.1535  0.0459
  728MOL0     C  360   4.303   4.623   4.591  0.1499  0.6827  0.8835
  728MOL0     C  361   4.424   4.683   4.564 -0.7632  0.6096  0.8278
  728MOL0     O  362   4.539   4.664   4.643 -0.3032  0.7980  0.0445
  728MOL0     C  363   4.538   4.573   4.759 -0.1347 -0.8135 -0.4558
  728MOL0     C  364   4.664   4.590   4.834 -0.1496  0.8031  0.5037
  728MOL0     C  365   4.771   4.499   4.780 -0.0855  0.1485  0.5078
  728MOL0     C  366   4.909   4.536   4.855  0.6491 -1.0981 -0.1012
  728MOL0     C  367   5.002   4.415   4.876 -0.6442 -0.1458 -1.8085
  728MOL0     C  368   5.079   4.394   4.754 -0.6276  0.2397  0.2013
  728MOL0     C  369   5.166   4.265   4.762  0.3435  0.3520  1.1269
  728MOL0     C  370   5.195   4.231   4.619 -1.3235  1.0581  0.0290
  728MOL0    Cl  371   5.296   4.359   4.568  0.1505 -0.0381  0.1041
  728MOL0     C  372   4.431   4.749   4.444  0.0032 -0.0954 -0.3614
  728MOL0     C  373   4.328   4.750   4.351  0.2497  0.8397 -0.3946
  728MOL0     O  374   4.211   4.596   4.131 -0.2127 -0.2882  0.4816
  728MOL0     C  375   3.895   4.769   4.126 -0.5131  0.8874  0.5557
  728MOL0     C  376   3.782   4.791   4.052  0.0994  0.4696 -0.2861
  728MOL0     N  377   3.150   4.606   3.876 -0.0068  1.3142 -0.7838
  728MOL0     N  378   3.057   4.618   3.963 -0.3669 -0.2786  0.6604
  728MOL0     C  379   2.133   4.380   4.597  1.4794 -0.7151  0.5387
  728MOL0     C  380   2.070   4.284   4.675  0.5269  0.5317 -0.0835
  728MOL0     C  381   2.084   3.893   4.890  0.2111  0.8382  0.3396
  728MOL0     C  382   2.201   3.825   4.929 -0.1924  0.9590 -0.4004
  728MOL0     C  383   2.197   3.699   4.979  1.0687 -0.5167 -0.4711
  728MOL0     C  384   2.078   3.629   5.002 -0.4733 -0.4288 -0.6826
  728MOL0     O  385   2.068   3.500   5.038  0.4432 -0.0471 -0.1115
  728MOL0     C  386   2.179   3.419   5.038  0.3347  0.2846  0.1140
  728MOL0     C  387   2.143   3.276   5.029 -0.2429 -0.1235  0.1701
  728MOL0     C  388   2.097   3.228   4.893  1.0659  0.0499  0.3777
  728MOL0     C  389   1.958   3.291   4.857  0.5384 -0.2207 -0.0714
  728MOL0     C  390   1.918   3.222   4.738  0.4054  0.8556 -0.1282
  728MOL0     C  391   1.877   3.167   4.637  0.5942 -0.2116 -0.4198
  728MOL0     C  392   1.960   3.697   4.961 -0.2246  0.1451  0.8967
  728MOL0     C  393   1.960   3.826   4.901 -0.1736 -0.3118 -0.0245
  728MOL0     C  394   1.836   3.892   4.864 -0.3889  0.4724 -0.6620
  728MOL0     H  395   2.108   4.013   4.470  0.6462 -0.8021 -0.9374
  728MOL0     H  396   2.190   4.199   4.313  1.3948 -2.1126  0.2053
  728MOL0     H  397   2.306   4.586   4.510 -2.9040  3.1888  2.2000
  728MOL0     H  398   2.144   4.616   4.445 -0.3094  0.1544 -1.8430
  728MOL0     H  399   2.202   4.673   4.239  0.6627 -3.2379  0.1562
  728MOL0     H  400   2.282   4.779   4.354  1.4688  0.8433  0.3588
  728MOL0     H  401   2.486   4.609   4.334 -1.6852  1.6706  1.6424
  728MOL0     H  402   2.416   4.594   4.170 -2.0520 -2.9843  2.0255
  728MOL0     H  403   2.431   4.854   4.184  1.2615 -2.3976 -3.2312
  728MOL0     H  404   2.511   4.831   4.336 -1.2509  2.0120  0.3303
  728MOL0     H  405   2.600   4.686   4.082 -2.6028 -2.9061  3.7908
  728MOL0     H  406   2.685   4.696   4.225 -0.4302  0.3854  0.2001
  728MOL0     H  407   2.612   4.942   4.053 -0.9506  0.8025  3.4384
  728MOL0     H  408   2.730   4.944   4.190 -0.3827  1.0584  0.1171
  728MOL0     H  409   2.802   4.949   3.958 -1.6455  0.4121  0.5434
  728MOL0     H  410   2.745   4.785   3.930 -0.8324 -0.0884  1.2032
  728MOL0     H  411   2.967   4.885   4.119 -1.0436  1.0108  0.1416
  728MOL0     H  412   2.904   4.724   4.148 -0.0271 -1.0863 -0.3695
  728MOL0     H  413   3.087   4.926   3.839  4.0205 -0.1466 -1.6714
  728MOL0     H  414   3.278   4.867   3.699  0.4147  0.2996  1.3461
  728MOL0     H  415   3.220   4.725   3.613  2.5618  0.1637 -1.2253
  728MOL0     H  416   3.424   4.706   3.832 -0.0437  2.5365  0.1037
  728MOL0     H  417   3.404   4.593   3.678  2.0465 -0.3866 -0.0656
  728MOL0     H  418   3.517   4.753   3.560  3.5223 -1.5965  0.5956
  728MOL0     H  419   3.510   4.877   3.685  0.6408  0.7548 -1.1985
  728MOL0     H  420   3.644   4.613   3.695 -2.5619  0.3008 -2.4135
  728MOL0     H  421   3.716   4.773   3.654 -1.0337  1.1356 -0.7816
  728MOL0     H  422   3.859   4.595   3.786  3.1306 -3.6533  1.3247
  728MOL0     H  423   4.033   4.480   3.792 -3.9559  0.0284  0.9728
  728MOL0     H  424   4.038   4.413   3.953 -2.0658  1.0651 -0.4761
  728MOL0     H  425   4.175   4.509   3.906  0.3020  4.0027 -1.4271
  728MOL0     H  426   4.103   4.585   4.545 -0.7867 -1.5708 -3.6881
  728MOL0     H  427   4.296   4.558   4.678  2.3392 -0.3578  0.3578
  728MOL0     H  428   4.450   4.593   4.821 -1.8903 -3.0688 -2.0075
  728MOL0     H  429   4.539   4.466   4.734 -1.2583 -0.6773 -1.1595
  728MOL0     H  430   4.699   4.694   4.826  0.5098  0.4261 -3.1664
  728MOL0     H  431   4.651   4.555   4.937  2.2089 -2.2106 -0.0886
  728MOL0     H  432   4.795   4.519   4.676 -0.2387  0.4879  0.5369
  728MOL0     H  433   4.738   4.395   4.775 -0.2493  0.2269 -0.0372
  728MOL0     H  434   4.871   4.577   4.949  1.6717  1.2363 -0.6361
  728MOL0     H  435   4.964   4.618   4.809  0.7137  1.3776  3.9272
  728MOL0     H  436   5.062   4.439   4.965 -2.7787  1.7995 -0.7696
  728MOL0     H  437   4.946   4.322   4.890  0.3176 -0.4275  0.6372
  728MOL0     H  438   5.134   4.485   4.729  0.6191 -0.4636  0.2860
  728MOL0     H  439   5.014   4.367   4.670  0.2416  2.8095 -1.3985
  728MOL0     H  440   5.111   4.175   4.793  2.8056 -1.4965  0.4241
  728MOL0     H  441   5.263   4.274   4.812  2.8432 -2.2764 -2.6790
  728MOL0     H  442   5.117   4.230   4.542  0.3953  2.2240 -1.8266
  728MOL0     H  443   5.237   4.130   4.613 -3.6894  0.0708 -2.8889
  728MOL0     H  444   4.527   4.796   4.425  1.3091 -1.1000  2.9061
  728MOL0     H  445   4.347   4.794   4.254  1.4396 -2.2167 -1.6810
  728MOL0     H  446   3.913   4.821   4.220  0.3197 -0.2802  1.0676
  728MOL0     H  447   3.716   4.860   4.104 -3.1111 -1.8602 -0.9640
  728MOL0     H  448   2.168   4.474   4.639  6.3947 -1.9646 -0.1791
  728MOL0     H  449   2.060   4.297   4.782 -0.3886 -0.3031 -0.0541
  728MOL0     H  450   2.292   3.881   4.912  1.9722 -2.6544 -1.9083
  728MOL0     H  451   2.292   3.647   4.980  0.1491 -2.2822  0.3977
  728MOL0     H  452   2.247   3.442   4.956  0.7611 -0.4386  0.2607
  728MOL0     H  453   2.231   3.425   5.134 -1.4240  1.6074  1.0394
  728MOL0     H  454   2.067   3.251   5.104  1.8816  2.1008  3.3351
  728MOL0     H  455   2.239   3.229   5.053 -0.6160 -0.4690  1.0277
  728MOL0     H  456   2.171   3.251   4.815  2.5187  0.0566  1.7102
  728MOL0     H  457   2.081   3.121   4.904 -2.2578  0.2271 -1.4871
  728MOL0     H  458   1.951   3.399   4.845  0.2175  0.0858  2.4630
  728MOL0     H  459   1.886   3.278   4.938  0.1529  0.3546 -0.3126
  728MOL0     H  460   1.834   3.119   4.551 -0.7973 -0.9234  0.6341
  728MOL0     H  461   1.869   3.638   4.970  0.5383 -1.1746  0.2207
  728MOL0     H  462   1.844   3.892   4.755  1.5869  0.3402 -0.5623
  728MOL0     H  463   1.750   3.832   4.895 -1.3392  0.6020 -2.8532
  728MOL0     H  464   1.819   3.997   4.890  0.3823  0.7950 -1.4009
  729MOL0     O  465   1.478   0.156  10.439 -0.5277 -0.0345 -0.5154
  729MOL0     C  466   1.429   0.226  10.520  0.9455 -0.2576 -0.1219
  729MOL0     O  467   1.499   0.327  10.587  0.1805 -0.0671  0.5348
  729MOL0     C  468   1.630   0.348  10.545  0.0266 -0.3040 -0.0795
  729MOL0     C  469   1.736   0.311  10.630  0.5639  0.0363 -0.7735
  729MOL0     C  470   1.865   0.321  10.585 -0.3364 -0.8475  0.4060
  729MOL0     C  471   1.897   0.367  10.457  0.0177  0.4943 -0.8379
  729MOL0     O  472   2.027   0.352  10.423 -0.6876 -0.0998 -0.3199
  729MOL0     C  473   2.072   0.455  10.326  0.0773 -0.0440 -0.7458
  729MOL0     C  474   2.069   0.595  10.381 -0.3395 -0.4660 -0.6851
  729MOL0     C  475   2.138   0.604  10.517  0.4796 -0.6522 -0.6003
  729MOL0     C  476   2.102   0.735  10.569  1.4597 -1.1859 -1.1925
  729MOL0     C  477   2.180   0.764  10.701  0.2806 -0.5222  0.3310
  729MOL0     C  478   2.166   0.903  10.761 -0.2977  1.0466 -0.9736
  729MOL0     C  479   2.030   0.946  10.805 -0.6043 -0.1967  0.3960
  729MOL0     C  480   1.957   0.858  10.908  0.4899  0.7050 -0.6186
  729MOL0     N  481   2.046   0.844  11.031  1.0305 -0.3918  0.3802
  729MOL0     C  482   2.112   0.728  11.059 -0.1069  0.7419 -0.5419
  729MOL0     C  483   2.194   0.757  11.159  0.8126 -0.0962 -1.0008
  729MOL0     C  484   2.288   0.653  11.220 -0.1670  0.1855 -0.0599
  729MOL0     C  485   2.198   0.586  11.324 -0.0594  0.1874 -0.4747
  729MOL0     C  486   2.181   0.677  11.454 -0.3649 -0.2171 -0.3451
  729MOL0     C  487   2.094   0.601  11.546  0.1879  0.0487  0.9405
  729MOL0     O  488   2.074   0.692  11.659  0.5655  0.1989 -0.6806
  729MOL0     C  489   1.946   0.693  11.716 -0.1191  0.0040 -0.2493
  729MOL0     C  490   1.839   0.606  11.710 -0.4152 -0.1335  1.3267
  729MOL0     C  491   1.721   0.620  11.777  0.3597 -0.8027  0.1583
  729MOL0     C  492   1.612   0.518  11.753  0.1214 -0.3856 -0.5655
  729MOL0     C  493   1.698   0.742  11.857 -1.0471 -0.4511 -0.2076
  729MOL0     C  494   1.578   0.768  11.932 -1.2481  0.0959 -0.1270
  729MOL0     O  495   1.573   0.709  12.054 -0.0849  0.8118 -0.5040
  729MOL0     C  496   1.456   0.678  12.123  0.8742 -0.2780 -0.0639
  729MOL0     C  497   1.478   0.591  12.232 -0.4361  0.6031 -0.1970
  729MOL0     C  498   1.383   0.562  12.333  0.2117  0.0851 -0.3330
  729MOL0     C  499   1.254   0.614  12.315 -0.6891 -0.0792  0.2903
  729MOL0     O  500   1.168   0.577  12.409 -0.2689  0.4170  0.0060
  729MOL0     C  501   1.033   0.556  12.363  0.1250 -0.7167  0.7515
  729MOL0     C  502   0.972   0.493  12.485 -0.3116 -0.9702 -0.1870
  729MOL0     C  503   1.017   0.347  12.500 -0.0173 -0.3529 -0.1840
  729MOL0     C  504   0.969   0.256  12.382 -0.3347 -0.4907 -0.2570
  729MOL0     C  505   0.947   0.105  12.434 -0.6174 -0.2663 -0.3012
  729MOL0     C  506   0.920   0.004  12.323 -0.4151  0.4544  0.1956
  729MOL0     C  507   0.892  -0.130  12.387  0.5126  0.0641  0.2034
  729MOL0     C  508   0.918  -0.251  12.301 -0.0890  0.1723 -1.1720
  729MOL0    Cl  509   0.813  -0.240  12.159 -0.0065  0.6329  0.2503
  729MOL0     C  510   1.229   0.712  12.217 -0.3342  0.3640 -0.3049
  729MOL0     C  511   1.328   0.744  12.121  0.5349 -0.0278 -0.0737
  729MOL0     O  512   1.491   0.831  11.873 -0.0300  0.0369 -0.1933
  729MOL0     C  513   1.801   0.823  11.868  1.0071  0.2917  0.0420
  729MOL0     C  514   1.922   0.803  11.804  0.0158  0.7462 -0.6231
  729MOL0     N  515   2.172   0.890  11.198  0.3471  0.0356  0.4638
  729MOL0     N  516   2.079   0.940  11.123  0.3789  0.2977  0.1356
  729MOL0     C  517   1.789   0.405  10.377 -0.2354  1.1999 -0.5804
  729MOL0     C  518   1.659   0.401  10.414  0.6425 -0.0285  0.0203
  729MOL0     C  519   1.285   0.199  10.558  0.8148 -0.0402 -0.1256
  729MOL0     C  520   1.188   0.180  10.454 -0.3989 -0.2716  0.1891
  729MOL0     C  521   1.056   0.164  10.495 -0.4980 -0.3732 -0.3083
  729MOL0     C  522   1.009   0.151  10.624  0.1884  0.4981  0.0392
  729MOL0     O  523   0.872   0.127  10.656 -0.4754  0.5682  0.7266
  729MOL0     C  524   0.833   0.088  10.789  0.5703 -0.3554  0.2910
  729MOL0     C  525   0.701   0.007  10.793 -1.0883  0.4412  0.6625
  729MOL0     C  526   0.578   0.083  10.751  0.2300  0.7116 -0.0497
  729MOL0     C  527   0.518   0.172  10.861 -1.1739  0.4001  0.9430
  729MOL0     C  528   0.453   0.085  10.958 -0.7343 -0.4523 -0.3178
  729MOL0     C  529   0.424   0.010  11.044  0.4054  0.8486 -0.0830
  729MOL0     C  530   1.113   0.159  10.721 -0.2781 -1.0609  0.3901
  729MOL0     C  531   1.250   0.184  10.688 -0.7295 -0.4921  0.1972
  729MOL0     C  532   1.350   0.178  10.796 -0.2916  0.3437 -0.5362
  729MOL0     H  533   1.717   0.281  10.733 -1.5040  1.7387 -0.6085
  729MOL0     H  534   1.950   0.297  10.648 -0.0259 -0.5149  0.1203
  729MOL0     H  535   2.015   0.458  10.233 -3.3453 -0.7919  1.1413
  729MOL0     H  536   2.173   0.425  10.298 -0.2389  1.5165 -4.1176
  729MOL0     H  537   2.122   0.662  10.313 -1.8818  0.7654 -0.7360
  729MOL0     H  538   1.966   0.631  10.383  0.0855  0.8226 -0.8014
  729MOL0     H  539   2.111   0.523  10.585  0.2539 -1.5784 -1.7411
  729MOL0     H  540   2.246   0.591  10.504  1.0175 -1.4777  3.4926
  729MOL0     H  541   2.133   0.806  10.491  0.3115  1.0527  0.2753
  729MOL0     H  542   1.995   0.752  10.581  1.6537 -0.5908 -0.2132
  729MOL0     H  543   2.286   0.746  10.682  0.2219  0.9463 -1.7628
  729MOL0     H  544   2.146   0.695  10.778 -3.0487  1.3826  0.7798
  729MOL0     H  545   2.243   0.918  10.837 -0.7657  0.5611 -0.3894
  729MOL0     H  546   2.178   0.978  10.682 -1.3547 -0.5787 -2.7909
  729MOL0     H  547   1.969   0.959  10.715  1.5036  2.0202 -0.8568
  729MOL0     H  548   2.027   1.045  10.851 -0.8656 -0.9988  2.1661
  729MOL0     H  549   1.869   0.918  10.934 -2.3110 -2.1425 -2.7322
  729MOL0     H  550   1.919   0.763  10.872  1.6500 -0.9142  2.0772
  729MOL0     H  551   2.096   0.633  11.010  2.1738 -0.0295  0.0678
  729MOL0     H  552   2.374   0.699  11.270  1.5207 -2.0114 -0.7846
  729MOL0     H  553   2.327   0.593  11.137 -1.6345 -0.1693 -0.5301
  729MOL0     H  554   2.099   0.547  11.299  0.1753  0.8362 -2.6371
  729MOL0     H  555   2.256   0.499  11.357  0.5326  1.1170  1.0136
  729MOL0     H  556   2.273   0.697  11.510 -0.6875  2.2160 -0.5979
  729MOL0     H  557   2.128   0.771  11.437  1.2448  0.4210 -2.2629
  729MOL0     H  558   1.996   0.583  11.501  0.2624  2.8980 -0.5768
  729MOL0     H  559   2.148   0.511  11.575  2.2858  1.1549  0.6578
  729MOL0     H  560   1.858   0.519  11.647  0.5521  1.9273 -1.4494
  729MOL0     H  561   1.643   0.420  11.790 -1.6846 -0.6429  0.3521
  729MOL0     H  562   1.598   0.501  11.646 -1.7094 -1.5908 -0.1652
  729MOL0     H  563   1.518   0.545  11.802  0.7788 -0.6949  0.9314
  729MOL0     H  564   1.571   0.542  12.257  0.2044  1.7801 -0.2017
  729MOL0     H  565   1.404   0.491  12.413  0.8136  0.2441 -0.3494
  729MOL0     H  566   0.984   0.649  12.335  2.3619  0.4682  0.5740
  729MOL0     H  567   1.048   0.486  12.280 -3.3049 -4.1676  2.7080
  729MOL0     H  568   1.012   0.553  12.568 -0.9004  3.3212 -2.6908
  729MOL0     H  569   0.864   0.510  12.488  0.2294  3.9763  1.0948
  729MOL0     H  570   0.977   0.317  12.597 -0.2045  3.2699  1.0024
  729MOL0     H  571   1.126   0.336  12.501  0.2282  1.2624 -1.9024
  729MOL0     H  572   1.040   0.253  12.299  0.4917 -0.5617  0.4427
  729MOL0     H  573   0.878   0.294  12.333  0.6584 -0.7571 -2.4227
  729MOL0     H  574   1.046   0.088  12.475  0.9801 -0.6450 -3.9237
  729MOL0     H  575   0.869   0.097  12.510  0.1366 -1.5589  0.3603
  729MOL0     H  576   0.995   0.009  12.243  0.4888  0.1529  0.9896
  729MOL0     H  577   0.826   0.033  12.277  0.3608  3.1214  0.1008
  729MOL0     H  578   0.788  -0.118  12.418  0.7912  0.1940  1.1386
  729MOL0     H  579   0.961  -0.155  12.469  1.4427 -0.8616 -0.8253
  729MOL0     H  580   0.911  -0.344  12.358  2.1311  1.4900  1.4547
  729MOL0     H  581   1.025  -0.253  12.277  0.4755  1.5332  0.9951
  729MOL0     H  582   1.129   0.750  12.195 -1.0734 -1.4431 -0.2779
  729MOL0     H  583   1.291   0.815  12.048  0.1808  2.8617  2.6781
  729MOL0     H  584   1.784   0.910  11.930 -0.7691  0.5619 -0.7630
  729MOL0     H  585   1.998   0.879  11.820 -0.3663  0.9925  0.0741
  729MOL0     H  586   1.800   0.435  10.273  2.6377 -2.3709 -1.5151
  729MOL0     H  587   1.571   0.421  10.354  0.3198 -0.7307  0.2450
  729MOL0     H  588   1.209   0.183  10.347 -0.6178 -1.8767  0.0829
  729MOL0     H  589   0.981   0.166  10.416  1.0328  0.4843 -1.8028
  729MOL0     H  590   0.910   0.019  10.824 -2.2772 -2.9628  1.9165
  729MOL0     H  591   0.825   0.177  10.853 -2.3497  0.0298 -0.4852
  729MOL0     H  592   0.698  -0.040  10.892  2.3544 -1.5398 -0.0037
  729MOL0     H  593   0.704  -0.076  10.721 -1.9078  2.0848 -1.3807
  729MOL0     H  594   0.612   0.153  10.673 -0.9248  0.0266 -1.2035
  729MOL0     H  595   0.504   0.017  10.704 -0.3976  1.2503  0.1513
  729MOL0     H  596   0.454   0.246  10.813 -1.7208 -0.5739  0.1478
  729MOL0     H  597   0.603   0.228  10.902  0.0807 -1.6533  1.2986
  729MOL0     H  598   0.380  -0.047  11.123  1.3678 -1.2392 -0.9763
  729MOL0     H  599   1.088   0.146  10.826  1.5985  0.5870  1.1275
  729MOL0     H  600   1.370   0.277  10.835  0.9344 -0.3842  0.7587
  729MOL0     H  601   1.291   0.122  10.869 -1.9773  0.6172 -1.6169
  729MOL0     H  602   1.435   0.112  10.776 -0.4581 -0.8617  2.3316
  730MOL0     O  603   5.774   6.300   4.297  0.7411  0.0808  0.4262
  730MOL0     C  604   5.664   6.290   4.355 -0.0335  0.6533 -0.3306
  730MOL0     O  605   5.565   6.384   4.355  0.1372  0.8308 -0.0894
  730MOL0     C  606   5.584   6.494   4.272  0.8374 -1.2234  0.1757
  730MOL0     C  607   5.565   6.500   4.135 -0.2813  0.6111 -0.2396
  730MOL0     C  608   5.561   6.616   4.062 -0.1230 -0.0757 -0.2226
  730MOL0     C  609   5.587   6.745   4.125  0.6681 -0.4228 -0.1299
  730MOL0     O  610   5.581   6.851   4.043 -0.7456 -0.4959  0.9868
  730MOL0     C  611   5.604   6.983   4.102  0.3296 -0.3242  0.6226
  730MOL0     C  612   5.601   7.078   3.985  0.8813  0.3107  0.4414
  730MOL0     C  613   5.554   7.216   4.029 -0.3812 -0.1213  0.4377
  730MOL0     C  614   5.600   7.320   3.934 -0.2932 -0.0080  0.7943
  730MOL0     C  615   5.539   7.459   3.965  0.4545  0.1511  1.1012
  730MOL0     C  616   5.610   7.576   3.893 -0.4988 -0.8916  0.1678
  730MOL0     C  617   5.548   7.714   3.942 -0.3405  1.1133  0.0578
  730MOL0     C  618   5.414   7.748   3.876 -0.2837 -0.1194  0.8270
  730MOL0     N  619   5.408   7.892   3.882  1.0724 -0.0852  0.0061
  730MOL0     C  620   5.368   7.962   3.996 -0.4781  0.2140  0.8882
  730MOL0     C  621   5.400   8.092   3.965 -0.8616  0.1806 -0.2837
  730MOL0     C  622   5.352   8.215   4.039 -0.2477  0.4268 -0.2062
  730MOL0     C  623   5.341   8.345   3.971  0.3569  0.0484 -0.1640
  730MOL0     C  624   5.269   8.444   4.073 -0.4225 -0.1533  0.0413
  730MOL0     C  625   5.212   8.576   4.026 -0.9530  0.7153 -0.1577
  730MOL0     O  626   5.098   8.551   3.952  0.4137 -0.5098  0.9762
  730MOL0     C  627   4.984   8.612   3.964  0.7994 -0.8430 -1.1360
  730MOL0     C  628   4.966   8.747   4.017  0.2359  0.6638  0.1345
  730MOL0     C  629   4.833   8.794   4.024  0.0291 -0.4171 -1.0943
  730MOL0     C  630   4.820   8.936   4.076  0.3112 -0.2407 -0.9455
  730MOL0     C  631   4.725   8.714   3.998  0.6610 -0.1578 -0.4743
  730MOL0     C  632   4.584   8.754   4.009 -0.2490  0.2595 -0.6583
  730MOL0     O  633   4.503   8.665   4.081 -0.4938  0.0768 -0.2574
  730MOL0     C  634   4.393   8.693   4.156  0.1582  0.4302 -0.3435
  730MOL0     C  635   4.293   8.597   4.181 -0.2550  0.1138 -0.2657
  730MOL0     C  636   4.174   8.638   4.251 -0.2060 -1.0331 -0.0445
  730MOL0     C  637   4.154   8.775   4.286 -0.6338  0.2185 -1.0047
  730MOL0     O  638   4.032   8.803   4.335  0.0262 -0.4884 -0.0052
  730MOL0     C  639   4.041   8.848   4.475 -0.8267 -0.5680 -0.1071
  730MOL0     C  640   3.936   8.964   4.467 -0.4020 -0.3113 -0.8272
  730MOL0     C  641   3.943   9.047   4.601 -0.3917 -0.6683  0.2352
  730MOL0     C  642   3.873   9.186   4.596  0.0860 -0.1553 -0.2169
  730MOL0     C  643   3.877   9.258   4.728 -0.1382 -1.1210 -0.0396
  730MOL0     C  644   3.827   9.402   4.711 -0.9604 -1.2661 -0.1747
  730MOL0     C  645   3.838   9.480   4.842  0.3867  0.0111 -0.3263
  730MOL0     C  646   3.980   9.534   4.872  1.4269 -0.6157 -0.2517
  730MOL0    Cl  647   3.972   9.616   5.043  0.2041 -0.2237  0.0905
  730MOL0     C  648   4.257   8.868   4.261  0.0629 -0.1620 -0.7517
  730MOL0     C  649   4.372   8.823   4.204 -0.5216 -0.5536  0.9281
  730MOL0     O  650   4.546   8.855   3.957 -0.1974 -0.2230  0.6070
  730MOL0     C  651   4.744   8.589   3.939 -0.2225 -0.2214 -0.2608
  730MOL0     C  652   4.871   8.540   3.924  0.3601  1.3122 -0.1602
  730MOL0     N  653   5.451   8.096   3.836  0.2601  0.1463 -0.1624
  730MOL0     N  654   5.457   7.977   3.780 -0.2569 -0.9798 -0.4549
  730MOL0     C  655   5.619   6.743   4.265  1.5768  0.0437 -0.3352
  730MOL0     C  656   5.610   6.618   4.330  0.9586 -0.3836  0.0761
  730MOL0     C  657   5.647   6.156   4.430 -0.0172  0.3053  0.4855
  730MOL0     C  658   5.598   6.153   4.561 -0.1246  0.0576 -0.5485
  730MOL0     C  659   5.576   6.031   4.629 -0.5413  0.1297 -0.7174
  730MOL0     C  660   5.604   5.911   4.564 -0.0832 -0.0726 -0.0640
  730MOL0     O  661   5.568   5.776   4.612  0.6733 -0.8421  0.2241
  730MOL0     C  662   5.474   5.762   4.719  0.1660  0.1518 -0.9544
  730MOL0     C  663   5.457   5.609   4.766 -0.8183 -1.4510 -0.0788
  730MOL0     C  664   5.573   5.533   4.837  0.0573  0.3104  0.2130
  730MOL0     C  665   5.621   5.596   4.974 -0.1755 -0.7242  1.1150
  730MOL0     C  666   5.763   5.551   4.996  0.7944  0.1961 -0.1496
  730MOL0     C  667   5.874   5.506   4.985  0.0080 -0.0636 -0.2550
  730MOL0     C  668   5.657   5.912   4.439  0.1223 -0.4956  0.6428
  730MOL0     C  669   5.690   6.027   4.374  0.2502  0.1300 -0.4583
  730MOL0     C  670   5.756   6.023   4.237  0.0997 -0.2916 -0.1512
  730MOL0     H  671   5.542   6.412   4.076 -0.1946  0.3150  0.1636
  730MOL0     H  672   5.533   6.612   3.957  1.8700 -0.0146 -0.8113
  730MOL0     H  673   5.703   6.994   4.145  0.0072  1.6539  0.9551
  730MOL0     H  674   5.529   7.010   4.177  1.3702  1.3956  1.0951
  730MOL0     H  675   5.706   7.087   3.955  1.5651  0.2661  2.6337
  730MOL0     H  676   5.548   7.046   3.895 -1.0878 -2.3968  2.3945
  730MOL0     H  677   5.445   7.212   4.025 -0.7976  2.6464  3.8150
  730MOL0     H  678   5.583   7.243   4.131 -2.6727 -0.5108  1.2436
  730MOL0     H  679   5.709   7.325   3.936 -0.3239  1.3966  0.2495
  730MOL0     H  680   5.569   7.293   3.832 -0.1629 -0.7893  0.9589
  730MOL0     H  681   5.537   7.479   4.073  1.7289 -0.6724  1.2945
  730MOL0     H  682   5.432   7.448   3.943  0.6760 -1.7994  0.8866
  730MOL0     H  683   5.718   7.584   3.907 -0.7413 -0.1788  1.9112
  730MOL0     H  684   5.585   7.567   3.787  0.7474  1.4411 -0.3851
  730MOL0     H  685   5.630   7.783   3.921  0.3185  0.9636  1.9602
  730MOL0     H  686   5.538   7.724   4.050  0.2741 -1.6651  0.4208
  730MOL0     H  687   5.426   7.713   3.773  3.9824  3.1587 -0.0317
  730MOL0     H  688   5.329   7.702   3.928 -1.3410  1.0821  0.2095
  730MOL0     H  689   5.348   7.924   4.095  0.6101 -2.6632  0.0889
  730MOL0     H  690   5.422   8.227   4.123 -1.3553  0.7916  0.6935
  730MOL0     H  691   5.259   8.191   4.091 -0.4281  2.1239  0.3110
  730MOL0     H  692   5.434   8.381   3.925 -0.1279  2.0021  0.2861
  730MOL0     H  693   5.274   8.326   3.886 -1.7831  1.3520  1.1293
  730MOL0     H  694   5.198   8.396   4.142  1.0222  0.3084  1.9460
  730MOL0     H  695   5.355   8.472   4.134  0.3679 -0.9858 -0.6699
  730MOL0     H  696   5.198   8.639   4.114 -0.0317 -0.3592  0.7918
  730MOL0     H  697   5.273   8.632   3.954  0.3082  0.6777  0.8531
  730MOL0     H  698   5.052   8.810   4.039 -0.7984  2.8836 -1.8510
  730MOL0     H  699   4.744   8.997   4.027  0.8445 -0.2229 -1.7733
  730MOL0     H  700   4.917   8.987   4.084  0.6844 -1.1644  1.1640
  730MOL0     H  701   4.785   8.927   4.179  2.0167  0.8929 -0.2265
  730MOL0     H  702   4.310   8.500   4.137  0.6467 -0.5105  1.3754
  730MOL0     H  703   4.105   8.557   4.273  1.6959 -2.3072  1.6690
  730MOL0     H  704   4.011   8.779   4.554 -0.2419 -0.6111  0.0803
  730MOL0     H  705   4.138   8.881   4.513 -0.8380 -1.4734  0.7495
  730MOL0     H  706   3.969   9.024   4.382  3.9807 -0.5291  0.5003
  730MOL0     H  707   3.834   8.933   4.444 -0.2828 -1.1854 -0.2419
  730MOL0     H  708   4.046   9.066   4.633 -1.4031  2.9671  1.8593
  730MOL0     H  709   3.901   8.984   4.680 -0.0586 -0.0318  0.9383
  730MOL0     H  710   3.767   9.177   4.574 -0.0419 -0.9661  0.6970
  730MOL0     H  711   3.921   9.244   4.516  1.8367 -1.3521 -0.0872
  730MOL0     H  712   3.818   9.198   4.799  0.0658 -0.8309  0.3791
  730MOL0     H  713   3.975   9.265   4.777 -1.8127  0.2162  3.5085
  730MOL0     H  714   3.720   9.407   4.687 -1.6544  0.3161  2.8052
  730MOL0     H  715   3.880   9.456   4.631  0.7644 -2.0025  0.4186
  730MOL0     H  716   3.817   9.415   4.927  2.9123  0.1734  0.5064
  730MOL0     H  717   3.771   9.567   4.839 -0.5362 -0.6216  0.9216
  730MOL0     H  718   3.990   9.614   4.798  1.7765  0.9633  1.4281
  730MOL0     H  719   4.064   9.466   4.856 -1.6477 -4.7889 -0.4655
  730MOL0     H  720   4.252   8.972   4.293 -1.1423 -0.7138  0.9972
  730MOL0     H  721   4.445   8.901   4.186  0.8552 -1.3476  2.7743
  730MOL0     H  722   4.663   8.523   3.911 -0.7964 -0.3969  1.7150
  730MOL0     H  723   4.869   8.438   3.886  0.4223 -0.9527  5.0260
  730MOL0     H  724   5.650   6.833   4.317 -0.4340  1.0989 -0.8595
  730MOL0     H  725   5.616   6.624   4.438  1.0426  1.3663  0.0008
  730MOL0     H  726   5.567   6.246   4.608 -1.2491  0.9568 -2.8887
  730MOL0     H  727   5.528   6.039   4.726 -2.0502  0.9485 -1.4995
  730MOL0     H  728   5.504   5.811   4.812 -1.4547  0.2512 -0.4516
  730MOL0     H  729   5.379   5.809   4.693 -0.2068  1.5503  2.4110
  730MOL0     H  730   5.426   5.548   4.681 -0.8574 -1.7017  0.1163
  730MOL0     H  731   5.380   5.624   4.842 -2.7254 -0.4475 -2.0670
  730MOL0     H  732   5.540   5.430   4.849 -3.2246  1.2070 -0.0192
  730MOL0     H  733   5.656   5.530   4.766 -1.1938  0.3937 -1.2760
  730MOL0     H  734   5.548   5.572   5.051 -0.0632 -2.3835  0.7397
  730MOL0     H  735   5.634   5.704   4.962  3.0203 -1.0682  0.5688
  730MOL0     H  736   5.976   5.473   4.987  0.0155 -0.0326  1.1456
  730MOL0     H  737   5.663   5.816   4.387 -2.6758  0.0358 -0.8478
  730MOL0     H  738   5.846   6.082   4.252 -1.3480  4.1104 -5.6463
  730MOL0     H  739   5.762   5.918   4.207 -1.9012 -0.7960  0.9947
  730MOL0     H  740   5.690   6.073   4.166  2.0968  1.8851 -0.5939
  731MOL0     O  741   4.200   7.649   8.355 -0.4903  0.6236  0.0648
  731MOL0     C  742   4.217   7.630   8.240 -0.7726 -0.6692  0.7947
  731MOL0     O  743   4.175   7.714   8.139  0.2360  0.5592  0.4862
  731MOL0     C  744   4.116   7.832   8.149  0.4714 -0.5365 -0.3454
  731MOL0     C  745   3.986   7.838   8.113 -1.0396 -0.4040  0.9980
  731MOL0     C  746   3.911   7.947   8.140  0.6897 -0.8172 -0.2929
  731MOL0     C  747   3.967   8.063   8.199 -0.7270  0.1516  0.6600
  731MOL0     O  748   3.891   8.175   8.249  0.7633  0.9846 -0.2068
  731MOL0     C  749   3.745   8.164   8.240  0.0990 -0.6867 -0.1318
  731MOL0     C  750   3.678   8.302   8.284 -0.4129  0.3356 -0.0893
  731MOL0     C  751   3.762   8.429   8.259  0.1410 -0.0055 -0.1845
  731MOL0     C  752   3.699   8.546   8.322 -0.0887  0.1175  0.4030
  731MOL0     C  753   3.792   8.670   8.340  0.5842  0.0842  0.5322
  731MOL0     C  754   3.824   8.730   8.199 -0.6454  0.0437  0.1562
  731MOL0     C  755   3.934   8.846   8.198 -0.1509  1.1876 -0.0595
  731MOL0     C  756   4.006   8.853   8.060  0.2698  0.4733 -0.0027
  731MOL0     N  757   3.917   8.921   7.959 -0.0820  0.7192 -0.6504
  731MOL0     C  758   3.920   8.895   7.823 -0.3193  0.1428 -0.6698
  731MOL0     C  759   3.845   8.988   7.764  0.0276 -0.5904 -0.3960
  731MOL0     C  760   3.818   8.991   7.622  0.2420 -0.3593 -0.0981
  731MOL0     C  761   3.761   9.128   7.578  0.2416 -0.2106 -0.2630
  731MOL0     C  762   3.698   9.111   7.434  0.0800 -0.3980  0.0493
  731MOL0     C  763   3.805   9.100   7.325 -0.3121  0.0034  0.2015
  731MOL0     O  764   3.722   9.073   7.207 -0.4978 -0.2281  0.6576
  731MOL0     C  765   3.753   8.963   7.129 -1.2783 -0.1204  0.0706
  731MOL0     C  766   3.710   8.952   6.994  0.4825 -0.2995 -0.2328
  731MOL0     C  767   3.745   8.851   6.907  0.4984 -0.9460 -0.1380
  731MOL0     C  768   3.701   8.860   6.766 -0.1761 -0.5968 -0.1464
  731MOL0     C  769   3.808   8.739   6.962 -0.0053 -0.7333  0.3248
  731MOL0     C  770   3.827   8.616   6.881  1.0067 -0.4440 -0.5670
  731MOL0     O  771   3.921   8.523   6.915 -0.7894 -0.2096  0.4538
  731MOL0     C  772   3.920   8.400   6.857  0.3999 -0.3665  0.2513
  731MOL0     C  773   3.959   8.381   6.724 -0.2392 -0.1132 -0.4973
  731MOL0     C  774   3.976   8.259   6.673 -0.9452  0.5119 -0.4776
  731MOL0     C  775   3.945   8.154   6.765  1.3220  0.4431  0.5491
  731MOL0     O  776   3.941   8.017   6.720  0.3994  0.7749  0.0375
  731MOL0     C  777   3.898   7.971   6.591  0.3015  0.6463 -0.4255
  731MOL0     C  778   3.899   7.817   6.577  0.4809 -0.1494 -1.2158
  731MOL0     C  779   3.882   7.765   6.441 -0.2142  0.6211 -0.2767
  731MOL0     C  780   3.767   7.661   6.425 -0.9077 -0.1602  0.5281
  731MOL0     C  781   3.773   7.577   6.293  0.0964 -0.6483  0.1972
  731MOL0     C  782   3.750   7.675   6.166 -0.1065 -0.1277 -0.3866
  731MOL0     C  783   3.610   7.722   6.133 -0.0919 -0.2153  0.8478
  731MOL0     C  784   3.604   7.863   6.067 -0.7036  0.5737 -0.0053
  731MOL0    Cl  785   3.435   7.910   6.029 -0.2073 -0.2687 -0.3622
  731MOL0     C  786   3.905   8.168   6.894  0.2074 -0.0750 -0.3326
  731MOL0     C  787   3.898   8.294   6.941 -0.2496  0.1639 -0.2250
  731MOL0     O  788   3.754   8.600   6.788  0.1527  0.3152  0.0451
  731MOL0     C  789   3.860   8.747   7.090  0.0698  0.1249  0.8818
  731MOL0     C  790   3.823   8.848   7.185  0.4586 -1.1917  0.0460
  731MOL0     N  791   3.794   9.069   7.862  0.0300 -0.0655 -0.8111
  731MOL0     N  792   3.840   9.032   7.981 -0.5818 -0.5347 -0.2663
  731MOL0     C  793   4.109   8.063   8.214  0.4385 -0.6662  0.2002
  731MOL0     C  794   4.180   7.953   8.190  0.4619  1.3073 -0.1798
  731MOL0     C  795   4.313   7.524   8.199 -0.7428 -0.0922 -0.2691
  731MOL0     C  796   4.338   7.488   7.992  0.5410  0.0242 -0.4956
  731MOL0     C  797   4.464   7.329   7.928 -0.0360  0.7324 -1.0048
  731MOL0     C  798   4.561   7.207   8.066  0.1072  0.1878  0.0531
  731MOL0     O  799   4.643   7.119   8.005  0.6131 -0.1078 -0.2551
  731MOL0     C  800   4.744   7.052   8.082 -0.1145 -0.5221 -0.8655
  731MOL0     C  801   4.682   6.926   8.153 -0.9224 -0.6971  0.1356
  731MOL0     C  802   4.546   6.879   8.098  0.0810 -0.1955 -0.0048
  731MOL0     C  803   4.480   6.756   8.167 -1.2020  0.4996 -0.0273
  731MOL0     C  804   4.574   6.655   8.173 -0.8291  0.8645 -1.0497
  731MOL0     C  805   4.664   6.578   8.209 -0.9913  0.4871 -0.1282
  731MOL0     C  806   4.541   7.243   8.274  0.0156 -0.2350  1.3310
  731MOL0     C  807   4.415   7.396   8.341 -0.1781 -0.5032 -0.7057
  731MOL0     C  808   4.410   7.409   8.495  0.6878  0.0254  0.3129
  731MOL0     H  809   3.940   7.743   8.089  1.7089 -2.8163  4.2394
  731MOL0     H  810   3.803   7.935   8.136  0.4976 -0.3891  2.2073
  731MOL0     H  811   3.713   8.083   8.307 -3.0427 -1.8006 -2.7303
  731MOL0     H  812   3.720   8.153   8.134  0.2312  5.1118 -1.1283
  731MOL0     H  813   3.585   8.320   8.230 -3.5851 -1.3484  4.2299
  731MOL0     H  814   3.643   8.298   8.387  4.3775  2.3574  1.9224
  731MOL0     H  815   3.853   8.410   8.317 -0.6727 -0.5886  0.9444
  731MOL0     H  816   3.787   8.448   8.155  1.1916  0.2971  0.1020
  731MOL0     H  817   3.611   8.579   8.265 -0.3594  2.1101  1.8695
  731MOL0     H  818   3.663   8.520   8.422  1.6101  0.5379  1.1587
  731MOL0     H  819   3.886   8.640   8.386  1.6155  0.5412 -1.1795
  731MOL0     H  820   3.743   8.746   8.402  1.2440  0.3777  0.6987
  731MOL0     H  821   3.860   8.651   8.132 -1.5478  1.7237 -2.3989
  731MOL0     H  822   3.740   8.777   8.147  1.9329  2.9614 -1.7136
  731MOL0     H  823   4.017   8.814   8.262  0.8554 -0.3024 -2.0072
  731MOL0     H  824   3.895   8.946   8.218 -0.6136  1.6666 -2.9650
  731MOL0     H  825   4.096   8.914   8.070  0.5342  0.1267 -0.2240
  731MOL0     H  826   4.040   8.753   8.032 -2.6193 -1.4806  2.6835
  731MOL0     H  827   3.975   8.814   7.776 -0.7624 -1.1533  0.9595
  731MOL0     H  828   3.745   8.914   7.594 -1.1399  1.2325 -1.0272
  731MOL0     H  829   3.912   8.975   7.568  0.5652  0.8212  0.0876
  731MOL0     H  830   3.678   9.154   7.644  0.5065 -1.2746  0.4992
  731MOL0     H  831   3.843   9.200   7.587  0.2447 -0.4587  2.4521
  731MOL0     H  832   3.645   9.015   7.429 -1.5337  0.4212  0.7422
  731MOL0     H  833   3.618   9.184   7.422 -2.2886 -2.6970  0.9116
  731MOL0     H  834   3.863   9.191   7.309  0.2594 -0.4340 -0.2392
  731MOL0     H  835   3.876   9.024   7.357  0.6550  1.0044  0.4871
  731MOL0     H  836   3.661   9.038   6.950  0.4045 -0.5818 -0.7051
  731MOL0     H  837   3.782   8.818   6.706 -1.2971 -0.7513 -1.6276
  731MOL0     H  838   3.676   8.960   6.729 -0.5408 -0.8200 -0.5156
  731MOL0     H  839   3.615   8.792   6.770  1.0785 -2.3984 -1.8806
  731MOL0     H  840   3.973   8.467   6.659  1.1146 -0.2909 -0.4577
  731MOL0     H  841   4.023   8.238   6.578  1.9654  3.8393  0.0200
  731MOL0     H  842   3.800   8.008   6.562 -0.2527  0.1133  0.7346
  731MOL0     H  843   3.966   8.010   6.514  0.1326  1.7314 -0.0456
  731MOL0     H  844   3.989   7.776   6.623  0.9171  1.1794 -0.8490
  731MOL0     H  845   3.815   7.786   6.639  0.1288 -0.6614 -1.9289
  731MOL0     H  846   3.972   7.725   6.394 -0.7379 -0.4491 -0.4003
  731MOL0     H  847   3.850   7.853   6.385 -2.3985  1.5677  2.2451
  731MOL0     H  848   3.672   7.714   6.432 -0.2902  0.9449  0.7111
  731MOL0     H  849   3.761   7.584   6.503 -1.6719 -0.9848 -0.3232
  731MOL0     H  850   3.877   7.544   6.294  0.5600  0.5003  3.4445
  731MOL0     H  851   3.708   7.489   6.294 -0.8660  0.0445  0.5086
  731MOL0     H  852   3.790   7.614   6.084  1.1066  2.1150 -1.5663
  731MOL0     H  853   3.810   7.766   6.173  1.2222 -0.5602 -4.0103
  731MOL0     H  854   3.534   7.725   6.211 -0.8001  1.2697  0.1481
  731MOL0     H  855   3.576   7.647   6.062  2.7445 -0.6499 -0.1890
  731MOL0     H  856   3.675   7.874   5.984  0.6345 -1.2071  0.8461
  731MOL0     H  857   3.648   7.930   6.142 -0.6419 -0.2631  0.7206
  731MOL0     H  858   3.869   8.089   6.959 -0.4370  1.6048  1.4457
  731MOL0     H  859   3.869   8.317   7.043 -0.9725 -2.4557  0.2237
  731MOL0     H  860   3.900   8.657   7.135 -0.1932  0.3051  1.4833
  731MOL0     H  861   3.852   8.839   7.289  0.7322 -1.0907 -0.0229
  731MOL0     H  862   4.163   8.148   8.254  0.5056  0.1644 -1.5716
  731MOL0     H  863   4.286   7.953   8.213  0.6187  0.7052 -0.8747
  731MOL0     H  864   4.297   7.565   7.928  0.0636 -0.2524 -0.5247
  731MOL0     H  865   4.494   7.323   7.824  1.4625  3.3895 -0.8243
  731MOL0     H  866   4.820   7.013   8.014  0.8572 -1.3353  0.6333
  731MOL0     H  867   4.801   7.124   8.142 -0.5691 -3.2214  3.2147
  731MOL0     H  868   4.660   6.942   8.259 -0.2679 -1.5601  0.4080
  731MOL0     H  869   4.744   6.836   8.151  0.0870 -0.0180 -1.4100
  731MOL0     H  870   4.475   6.961   8.115  1.7518  0.9861  1.6001
  731MOL0     H  871   4.569   6.853   7.994  2.7861 -1.7434  0.8874
  731MOL0     H  872   4.391   6.728   8.110 -0.3284  0.5405 -1.4611
  731MOL0     H  873   4.442   6.780   8.267 -2.4670  0.1767 -0.4158
  731MOL0     H  874   4.744   6.517   8.247  2.2893  2.8654 -2.6709
  731MOL0     H  875   4.595   7.174   8.338  1.7607  0.7908  1.0365
  731MOL0     H  876   4.347   7.323   8.520  0.2303  0.4107  0.5252
  731MOL0     H  877   4.507   7.391   8.541 -0.0397 -0.3713  1.7904
  731MOL0     H  878   4.376   7.504   8.538  2.4839 -0.0403  2.0355
  732MOL0     O  879   0.370   5.894   8.233  0.4652  0.6200 -0.0252
  732MOL0     C  880   0.294   5.824   8.305  0.0660  1.0449 -0.4410
  732MOL0     O  881   0.336   5.753   8.418  0.8298  0.4495  0.1713
  732MOL0     C  882   0.468   5.756   8.442 -0.2436 -0.3127  1.1027
  732MOL0     C  883   0.509   5.750   8.577 -0.4939  0.0805 -0.0661
  732MOL0     C  884   0.644   5.736   8.614  0.6400 -0.1234  0.2883
  732MOL0     C  885   0.743   5.744   8.520  1.0529 -0.3316  0.1320
  732MOL0     O  886   0.873   5.730   8.565  0.2839  0.3965 -0.6408
  732MOL0     C  887   0.974   5.775   8.489  0.0869 -0.1320  0.5790
  732MOL0     C  888   0.984   5.922   8.486 -0.1369 -0.5441  0.0473
  732MOL0     C  889   1.002   5.985   8.620 -0.2671  0.7963 -0.0559
  732MOL0     C  890   1.142   6.065   8.629 -0.5035 -0.0576  0.5672
  732MOL0     C  891   1.199   6.077   8.777  0.2792 -0.4684 -0.3248
  732MOL0     C  892   1.321   6.152   8.797 -0.2206 -0.2752  0.8862
  732MOL0     C  893   1.348   6.191   8.934 -0.2122 -1.0463 -0.1792
  732MOL0     C  894   1.440   6.106   9.003 -0.2638  0.1774  0.7208
  732MOL0     N  895   1.467   6.153   9.135  0.3911 -0.2792 -0.3128
  732MOL0     C  896   1.515   6.273   9.186  0.2026 -0.1861  0.2383
  732MOL0     C  897   1.523   6.254   9.323 -0.0781 -0.6616 -0.8684
  732MOL0     C  898   1.596   6.342   9.426 -0.5429  0.3608 -0.7345
  732MOL0     C  899   1.519   6.465   9.462  0.6578 -0.3909 -1.1097
  732MOL0     C  900   1.368   6.424   9.478 -0.2286  0.0721  0.5371
  732MOL0     C  901   1.290   6.534   9.548 -0.6645  0.1256  0.0723
  732MOL0     O  902   1.279   6.643   9.459 -0.0806  0.0423 -0.7191
  732MOL0     C  903   1.200   6.747   9.497  0.9306 -0.3836  0.2300
  732MOL0     C  904   1.186   6.846   9.398  0.2682 -1.3457 -0.5851
  732MOL0     C  905   1.097   6.965   9.406 -0.9575 -0.7486 -0.0558
  732MOL0     C  906   1.101   7.071   9.302  0.4356 -0.4300 -0.5597
  732MOL0     C  907   1.024   6.980   9.527  0.5121  0.0584  0.7125
  732MOL0     C  908   0.936   7.091   9.560 -0.1133  0.4714  0.0118
  732MOL0     O  909   0.996   7.214   9.537 -0.1184 -0.0261  0.3930
  732MOL0     C  910   0.907   7.317   9.544 -0.1040 -0.1259 -0.3376
  732MOL0     C  911   0.792   7.332   9.468  0.9591 -0.1767 -0.7299
  732MOL0     C  912   0.702   7.431   9.492  0.5408  0.2362 -0.0796
  732MOL0     C  913   0.740   7.530   9.581 -0.7834  0.0820 -0.2306
  732MOL0     O  914   0.652   7.634   9.590  0.2516 -0.2149 -0.8869
  732MOL0     C  915   0.701   7.767   9.634  0.5102  0.7596  0.7880
  732MOL0     C  916   0.581   7.859   9.643  0.5183 -0.1589 -0.0711
  732MOL0     C  917   0.496   7.842   9.772 -0.0363  0.4157  0.1866
  732MOL0     C  918   0.478   7.965   9.844 -1.0642 -0.2480  0.7592
  732MOL0     C  919   0.390   8.073   9.775 -0.6425  0.0443 -0.3342
  732MOL0     C  920   0.345   8.181   9.869  0.3463  0.7463  0.9415
  732MOL0     C  921   0.276   8.297   9.800  1.1013  0.1295  0.2326
  732MOL0     C  922   0.205   8.393   9.904  0.4637 -0.1298  0.5100
  732MOL0    Cl  923   0.154   8.547   9.830 -0.5035 -0.3359  0.0796
  732MOL0     C  924   0.866   7.528   9.643  0.2109 -0.2167  0.3922
  732MOL0     C  925   0.950   7.428   9.622 -0.5895  0.3063  0.4267
  732MOL0     O  926   0.840   7.062   9.633 -0.4663 -0.0476  1.0032
  732MOL0     C  927   1.036   6.879   9.618  0.1957  0.2587  0.3895
  732MOL0     C  928   1.113   6.766   9.609  0.6470 -0.0669  1.0696
  732MOL0     N  929   1.478   6.124   9.350 -0.8691 -0.9026 -0.3642
  732MOL0     N  930   1.454   6.072   9.235  0.7139 -0.9523 -0.1243
  732MOL0     C  931   0.699   5.750   8.382 -0.2787 -0.0141  0.2170
  732MOL0     C  932   0.569   5.747   8.349 -0.2968  1.4248  0.6612
  732MOL0     C  933   0.156   5.788   8.257 -0.0751 -0.2305  0.6215
  732MOL0     C  934   0.118   5.839   8.127  0.9212 -0.5685  0.6631
  732MOL0     C  935   0.001   5.785   8.064 -0.8480  0.3398  0.1735
  732MOL0     C  936  -0.088   5.710   8.136  0.0675 -0.6108 -0.4266
  732MOL0     O  937  -0.213   5.684   8.083 -0.0777 -0.4983  1.2225
  732MOL0     C  938  -0.265   5.720   7.946 -0.4064 -0.1098 -0.0767
  732MOL0     C  939  -0.298   5.869   7.920 -0.6573 -0.5111  0.9282
  732MOL0     C  940  -0.377   5.882   7.785  0.6246  0.5846 -0.3558
  732MOL0     C  941  -0.523   5.861   7.822  0.3180  0.3740 -0.1333
  732MOL0     C  942  -0.598   5.878   7.697 -0.2705  0.2501 -0.1528
  732MOL0     C  943  -0.679   5.900   7.612 -0.4058  0.5856 -0.1502
  732MOL0     C  944  -0.063   5.689   8.270 -0.1528  0.4338 -0.1682
  732MOL0     C  945   0.061   5.717   8.335  0.5631 -0.6751 -0.0464
  732MOL0     C  946   0.052   5.697   8.484 -0.5814  0.9613  0.3997
  732MOL0     H  947   0.436   5.740   8.656 -1.1422  0.7556 -0.5708
  732MOL0     H  948   0.676   5.739   8.718 -1.8882  3.7103  1.1425
  732MOL0     H  949   0.997   5.723   8.396  0.1693 -0.6394  0.8759
  732MOL0     H  950   1.063   5.743   8.545  2.4863  2.8425 -1.1992
  732MOL0     H  951   1.068   5.938   8.419 -1.0884 -0.8959 -1.2664
  732MOL0     H  952   0.897   5.962   8.432  0.8472 -0.3251 -1.4246
  732MOL0     H  953   0.923   6.061   8.627 -2.1393 -1.1018  0.7552
  732MOL0     H  954   0.982   5.911   8.698 -3.1173  2.7372  1.2495
  732MOL0     H  955   1.217   6.016   8.567 -1.0110  0.5659 -0.5879
  732MOL0     H  956   1.123   6.165   8.589  0.7810 -0.1368 -0.3060
  732MOL0     H  957   1.207   5.978   8.822  1.1479 -0.8767 -1.3271
  732MOL0     H  958   1.126   6.130   8.838  1.1370  2.7555 -1.8381
  732MOL0     H  959   1.404   6.091   8.761  0.2404  0.5217  0.5537
  732MOL0     H  960   1.331   6.244   8.738 -2.6992 -0.9186 -0.7177
  732MOL0     H  961   1.257   6.200   8.994  0.5277 -1.3087  1.0125
  732MOL0     H  962   1.401   6.287   8.930  0.3020 -1.3639 -2.5568
  732MOL0     H  963   1.405   6.002   9.010  1.7485 -0.4301  3.4348
  732MOL0     H  964   1.535   6.115   8.950 -1.0038  3.0953 -0.2726
  732MOL0     H  965   1.546   6.368   9.144  2.3046 -0.0073  2.0153
  732MOL0     H  966   1.696   6.376   9.396 -0.7010  3.7886  1.9857
  732MOL0     H  967   1.613   6.271   9.507 -2.9511 -3.5075 -3.2575
  732MOL0     H  968   1.564   6.502   9.554  0.0079 -2.1795 -0.0109
  732MOL0     H  969   1.521   6.545   9.387  1.3548  2.2759  1.5770
  732MOL0     H  970   1.339   6.402   9.375  0.5895  3.6243 -0.5884
  732MOL0     H  971   1.355   6.331   9.535  0.8617 -0.1136  0.4995
  732MOL0     H  972   1.194   6.483   9.558  0.2893 -2.1289 -1.6442
  732MOL0     H  973   1.336   6.564   9.643  3.0569  1.1249 -1.8492
  732MOL0     H  974   1.253   6.835   9.313  1.3492  1.1274 -0.1312
  732MOL0     H  975   0.998   7.104   9.287  0.4851  1.7564  2.8383
  732MOL0     H  976   1.152   7.022   9.218  1.3333  0.2033 -0.3983
  732MOL0     H  977   1.163   7.159   9.322  2.5765 -0.9740 -3.9092
  732MOL0     H  978   0.758   7.257   9.397 -1.5310  1.1101 -0.9897
  732MOL0     H  979   0.603   7.437   9.448  0.5309 -2.0673 -0.5028
  732MOL0     H  980   0.741   7.756   9.735 -1.5798  0.1265  1.6202
  732MOL0     H  981   0.784   7.807   9.576  1.7146 -1.2270  1.0244
  732MOL0     H  982   0.612   7.963   9.633 -2.0011  0.6365 -0.4916
  732MOL0     H  983   0.501   7.839   9.570 -1.9629  0.0982  2.4009
  732MOL0     H  984   0.562   7.776   9.829 -1.2866 -1.3761 -0.3768
  732MOL0     H  985   0.400   7.791   9.760 -0.2531  0.6253  0.9982
  732MOL0     H  986   0.579   8.002   9.864 -0.8137 -1.7947  2.6247
  732MOL0     H  987   0.438   7.946   9.945  1.6055  0.1542  1.9847
  732MOL0     H  988   0.447   8.112   9.691  1.4146 -2.1832 -0.0861
  732MOL0     H  989   0.300   8.025   9.736  1.3990 -4.1989 -0.4164
  732MOL0     H  990   0.427   8.210   9.935 -0.9109  1.7997  2.1068
  732MOL0     H  991   0.277   8.126   9.936 -0.0727 -1.4631 -1.1423
  732MOL0     H  992   0.207   8.263   9.723 -2.1795  1.1874  2.4798
  732MOL0     H  993   0.355   8.349   9.744  1.2157 -1.3429 -1.0577
  732MOL0     H  994   0.267   8.414   9.991  1.1821 -1.1522  0.2607
  732MOL0     H  995   0.111   8.346   9.936  1.1121 -1.3113  0.7455
  732MOL0     H  996   0.896   7.600   9.718 -4.2226 -1.5900  3.9338
  732MOL0     H  997   1.047   7.428   9.670 -0.7945  1.9228  0.8854
  732MOL0     H  998   0.974   6.884   9.707  0.8495 -2.2148  1.0520
  732MOL0     H  999   1.094   6.687   9.681  0.6836  0.8083  2.0811
  732MOL0     H 1000   0.776   5.745   8.305  0.7862 -1.5588  1.3085
  732MOL0     H 1001   0.539   5.740   8.245 -0.3840 -0.7703  0.7895
  732MOL0     H 1002   0.175   5.911   8.069 -0.9027 -0.3814 -1.0349
  732MOL0     H 1003  -0.014   5.803   7.958  0.9396 -1.8798 -0.5354
  732MOL0     H 1004  -0.195   5.683   7.871 -1.9045  0.8996 -2.0479
  732MOL0     H 1005  -0.362   5.671   7.937 -2.2853  3.0494  1.3193
  732MOL0     H 1006  -0.203   5.922   7.915  0.8631 -3.0144  1.7714
  732MOL0     H 1007  -0.357   5.912   8.002 -0.8524  0.2839  0.3834
  732MOL0     H 1008  -0.362   5.983   7.746  3.2780  0.9577  1.3743
  732MOL0     H 1009  -0.341   5.811   7.709  0.4030 -0.6755  0.6727
  732MOL0     H 1010  -0.560   5.930   7.898  1.4694  1.7717 -0.7910
  732MOL0     H 1011  -0.543   5.760   7.859  0.6062  0.1710 -0.5191
  732MOL0     H 1012  -0.728   5.923   7.519 -1.0279 -3.2931 -0.9227
  732MOL0     H 1013  -0.139   5.640   8.330  0.3018 -0.4563 -0.3086
  732MOL0     H 1014   0.108   5.775   8.535 -0.3086  1.4931 -0.6938
  732MOL0     H 1015  -0.051   5.713   8.520 -0.5951 -0.1953  0.9407
  732MOL0     H 1016   0.085   5.598   8.518  2.1246  2.8931  4.1285
  733MOL0     O 1017   6.567   5.109   6.095 -0.4353  1.1122  0.4023
  733MOL0     C 1018   6.614   5.136   5.988  0.4873 -0.6712  0.1055
  733MOL0     O 1019   6.626   5.058   5.869  0.6871 -0.2347  0.4960
  733MOL0     C 1020   6.564   4.943   5.845  1.2741  0.2787 -0.2810
  733MOL0     C 1021   6.570   4.884   5.723  0.1503 -0.8629  0.2458
  733MOL0     C 1022   6.506   4.767   5.690 -0.9681 -0.2905 -0.1244
  733MOL0     C 1023   6.428   4.703   5.784 -0.9906  0.7820 -0.1501
  733MOL0     O 1024   6.344   4.600   5.742 -0.2647 -0.0591 -0.7583
  733MOL0     C 1025   6.405   4.505   5.654 -0.0357  0.2335  0.4678
  733MOL0     C 1026   6.323   4.376   5.641  0.8357 -0.0583 -0.4094
  733MOL0     C 1027   6.385   4.271   5.536 -0.2014 -1.0822  0.2848
  733MOL0     C 1028   6.302   4.141   5.550 -0.3256  0.8526 -0.0484
  733MOL0     C 1029   6.320   4.046   5.424 -0.8371 -0.4559 -0.7138
  733MOL0     C 1030   6.256   3.918   5.467 -0.0501  0.0135 -0.4206
  733MOL0     C 1031   6.226   3.835   5.338  0.2960 -0.0278  0.5858
  733MOL0     C 1032   6.167   3.695   5.359 -0.7960  0.2969 -0.7495
  733MOL0     N 1033   6.281   3.596   5.380  0.7579  0.1545 -0.3352
  733MOL0     C 1034   6.295   3.518   5.493  0.5944 -0.0556 -1.0138
  733MOL0     C 1035   6.389   3.431   5.462 -0.2925  0.9048  0.3254
  733MOL0     C 1036   6.467   3.339   5.547 -0.2975 -0.1774 -0.4759
  733MOL0     C 1037   6.498   3.193   5.490  0.0725 -0.3862 -0.2529
  733MOL0     C 1038   6.587   3.129   5.598 -0.3386  0.5109  0.3692
  733MOL0     C 1039   6.596   2.969   5.588  0.2478 -0.1775 -0.3468
  733MOL0     O 1040   6.731   2.921   5.623  0.4494 -0.0217 -0.0401
  733MOL0     C 1041   6.836   2.914   5.544 -0.6522 -0.7726  0.6977
  733MOL0     C 1042   6.840   2.956   5.412  0.2218 -0.0785  0.0403
  733MOL0     C 1043   6.954   2.942   5.331 -1.5796  0.1126  0.8832
  733MOL0     C 1044   6.951   3.005   5.188 -0.3398 -0.4140  0.5438
  733MOL0     C 1045   7.068   2.889   5.388 -0.3673 -0.4427  0.2113
  733MOL0     C 1046   7.197   2.879   5.313  0.1940  0.1201  1.1264
  733MOL0     O 1047   7.224   2.982   5.227 -0.1759 -0.2124 -0.3894
  733MOL0     C 1048   7.307   2.953   5.122  0.4487 -1.3266 -0.1297
  733MOL0     C 1049   7.442   2.980   5.140 -0.4921 -0.6212 -0.7011
  733MOL0     C 1050   7.527   2.942   5.038  0.2142 -0.2169 -0.4182
  733MOL0     C 1051   7.490   2.886   4.914  0.0847  0.2540 -0.8519
  733MOL0     O 1052   7.575   2.857   4.809  0.4761 -0.5144  0.4630
  733MOL0     C 1053   7.712   2.913   4.813 -0.2845 -1.0812  0.0761
  733MOL0     C 1054   7.762   2.905   4.665 -0.1512 -0.4272 -0.6472
  733MOL0     C 1055   7.906   2.921   4.671  0.2933 -0.4855 -0.5145
  733MOL0     C 1056   7.941   2.963   4.526  0.3473  0.2464 -0.0783
  733MOL0     C 1057   8.095   2.980   4.506 -0.0592 -0.5851 -0.6228
  733MOL0     C 1058   8.121   3.073   4.375  0.0407  1.4059 -0.1759
  733MOL0     C 1059   8.271   3.087   4.359 -0.7714  0.3580 -0.3658
  733MOL0     C 1060   8.328   3.098   4.214 -0.5911 -0.6773 -0.4982
  733MOL0    Cl 1061   8.378   3.270   4.176 -0.1695  0.2049 -0.1911
  733MOL0     C 1062   7.354   2.868   4.900  0.0854 -0.5498  0.7045
  733MOL0     C 1063   7.269   2.897   5.002 -0.0116  0.0191  0.3967
  733MOL0     O 1064   7.260   2.775   5.329  0.1530 -0.6795  0.8051
  733MOL0     C 1065   7.064   2.844   5.522 -0.7212 -0.2095 -0.3700
  733MOL0     C 1066   6.950   2.853   5.592  0.3027 -0.2761 -0.4533
  733MOL0     N 1067   6.427   3.454   5.323 -0.1046  0.3451  0.3921
  733MOL0     N 1068   6.347   3.546   5.277  0.5636 -0.0001 -0.0093
  733MOL0     C 1069   6.402   4.764   5.908 -0.4053 -1.0815 -0.1516
  733MOL0     C 1070   6.474   4.884   5.937  1.1736 -0.2106  0.2828
  733MOL0     C 1071   6.685   5.270   5.973 -0.4703 -0.1193 -0.5393
  733MOL0     C 1072   6.803   5.271   5.897 -0.1815 -0.0754 -0.8923
  733MOL0     C 1073   6.883   5.386   5.887 -0.0057  1.2204 -0.4019
  733MOL0     C 1074   6.852   5.500   5.956  0.0744  0.7001 -0.1009
  733MOL0     O 1075   6.944   5.600   5.983  0.7612  0.5220  0.6971
  733MOL0     C 1076   7.084   5.575   6.029  0.3543  0.1643  0.1353
  733MOL0     C 1077   7.082   5.540   6.187  0.4873  0.7131  0.0789
  733MOL0     C 1078   7.220   5.472   6.229 -0.3882 -0.7664 -0.3815
  733MOL0     C 1079   7.228   5.478   6.388  0.0139 -0.1723  0.2747
  733MOL0     C 1080   7.251   5.618   6.443  0.4536  0.6546  0.6309
  733MOL0     C 1081   7.280   5.725   6.486  0.0722  0.5901 -0.1396
  733MOL0     C 1082   6.730   5.501   6.030 -0.7547  0.6697 -0.1496
  733MOL0     C 1083   6.650   5.389   6.043  0.1098  0.2484 -0.1720
  733MOL0     C 1084   6.521   5.391   6.123  0.2013  0.0018 -0.1834
  733MOL0     H 1085   6.610   4.939   5.639  0.0122 -1.8362 -0.4748
  733MOL0     H 1086   6.500   4.741   5.585 -2.5520  1.6139 -0.5679
  733MOL0     H 1087   6.502   4.467   5.685 -0.0095  0.4726  0.6798
  733MOL0     H 1088   6.428   4.551   5.558 -1.5029 -2.4924 -1.3324
  733MOL0     H 1089   6.327   4.330   5.740  1.0034  0.3212 -0.2374
  733MOL0     H 1090   6.222   4.407   5.611  0.7550 -1.0268 -1.1726
  733MOL0     H 1091   6.368   4.319   5.439  1.7640 -0.5736  0.1401
  733MOL0     H 1092   6.492   4.253   5.547 -0.0313  0.5211  1.5479
  733MOL0     H 1093   6.331   4.090   5.642  0.8764  2.3116  0.4246
  733MOL0     H 1094   6.196   4.164   5.555 -0.5878 -0.1902 -0.4881
  733MOL0     H 1095   6.428   4.039   5.413 -0.1522  1.8022  2.8087
  733MOL0     H 1096   6.266   4.103   5.348  0.2528 -0.0031 -1.1645
  733MOL0     H 1097   6.311   3.853   5.534 -0.0827  0.9790  0.5688
  733MOL0     H 1098   6.162   3.936   5.521 -0.5308 -0.7497 -0.9877
  733MOL0     H 1099   6.320   3.823   5.283  1.5701 -2.9248  3.0694
  733MOL0     H 1100   6.160   3.889   5.271  0.6884 -1.1939 -0.7979
  733MOL0     H 1101   6.089   3.693   5.437  0.8553 -0.2611  0.9693
  733MOL0     H 1102   6.132   3.657   5.263 -0.0825 -1.7970 -0.2285
  733MOL0     H 1103   6.236   3.537   5.582 -0.2659  0.8028 -1.7327
  733MOL0     H 1104   6.415   3.328   5.642  0.3631  3.4672  0.4526
  733MOL0     H 1105   6.561   3.387   5.575  0.1934 -1.0749 -0.5401
  733MOL0     H 1106   6.409   3.131   5.476  1.3182 -2.6547  1.2802
  733MOL0     H 1107   6.534   3.205   5.388 -0.9244  1.7209 -0.4088
  733MOL0     H 1108   6.684   3.179   5.598 -0.1239  0.1255  1.7997
  733MOL0     H 1109   6.546   3.155   5.696  1.6907  2.0548  0.8671
  733MOL0     H 1110   6.510   2.924   5.638 -2.3488  4.0633 -0.4947
  733MOL0     H 1111   6.573   2.935   5.486 -1.8326  3.1347 -1.1265
  733MOL0     H 1112   6.757   3.016   5.377 -0.9502 -2.8008 -2.3176
  733MOL0     H 1113   6.852   2.999   5.141 -0.1536  1.0949 -0.1215
  733MOL0     H 1114   7.017   2.937   5.133  0.0091  0.6195 -0.3715
  733MOL0     H 1115   6.992   3.107   5.183  1.9640 -1.3237 -2.1172
  733MOL0     H 1116   7.481   3.037   5.224 -0.9009  2.0134 -2.2143
  733MOL0     H 1117   7.631   2.967   5.056 -0.2575  1.5303  0.0549
  733MOL0     H 1118   7.715   3.018   4.844  1.3657 -1.0939  0.0642
  733MOL0     H 1119   7.776   2.857   4.882 -0.2782 -1.0957  0.0590
  733MOL0     H 1120   7.728   2.806   4.634 -0.4030 -0.3321 -0.6730
  733MOL0     H 1121   7.716   2.984   4.605  0.2191 -1.6180 -2.5865
  733MOL0     H 1122   7.951   2.825   4.700 -1.2565 -0.6212  1.7279
  733MOL0     H 1123   7.939   2.991   4.749  0.7627  0.5916 -1.6508
  733MOL0     H 1124   7.889   3.056   4.502 -1.7349 -0.4280  1.4922
  733MOL0     H 1125   7.919   2.887   4.450  1.0968 -0.6653  0.5870
  733MOL0     H 1126   8.137   3.035   4.591 -0.3174 -2.4776  0.7811
  733MOL0     H 1127   8.150   2.885   4.506 -2.0537 -1.8045  0.7761
  733MOL0     H 1128   8.083   3.174   4.393 -2.0727  0.5536  0.5353
  733MOL0     H 1129   8.072   3.031   4.286 -1.2475 -2.1286  1.9601
  733MOL0     H 1130   8.311   2.998   4.409 -0.0593  1.0421  0.3127
  733MOL0     H 1131   8.310   3.171   4.417  2.3434 -0.7186 -0.7559
  733MOL0     H 1132   8.253   3.064   4.143  0.3269  1.2321 -2.5105
  733MOL0     H 1133   8.416   3.033   4.211 -1.2559 -1.6064 -0.1658
  733MOL0     H 1134   7.307   2.824   4.813 -1.0883  0.8626  0.6028
  733MOL0     H 1135   7.165   2.866   4.992  0.5262 -1.2172 -2.0773
  733MOL0     H 1136   7.159   2.804   5.558 -0.2726  0.2851 -0.9959
  733MOL0     H 1137   6.957   2.830   5.698  3.9818  0.3413 -0.4148
  733MOL0     H 1138   6.341   4.709   5.979  3.5568 -6.4534 -0.2174
  733MOL0     H 1139   6.458   4.917   6.039 -1.7370 -0.0090 -0.1586
  733MOL0     H 1140   6.841   5.186   5.842 -2.0722 -0.9865 -0.8814
  733MOL0     H 1141   6.977   5.380   5.834  0.7492  1.4090  0.8797
  733MOL0     H 1142   7.137   5.494   5.979  1.7538  0.9629  0.2484
  733MOL0     H 1143   7.141   5.667   6.012  0.7047  0.2060  1.3736
  733MOL0     H 1144   6.990   5.485   6.210 -1.1426  2.3607 -2.0603
  733MOL0     H 1145   7.084   5.631   6.246  2.2192 -0.6588  2.2976
  733MOL0     H 1146   7.228   5.370   6.191 -0.0450 -1.7949  2.2381
  733MOL0     H 1147   7.307   5.527   6.191 -1.1813  1.0367  0.2693
  733MOL0     H 1148   7.316   5.418   6.415 -0.4206 -0.6506  0.6416
  733MOL0     H 1149   7.131   5.434   6.413 -1.0317  1.4812 -0.6841
  733MOL0     H 1150   7.287   5.808   6.553 -1.5634 -1.9849  3.5003
  733MOL0     H 1151   6.716   5.586   6.096  0.4733  0.4288  0.4470
  733MOL0     H 1152   6.446   5.323   6.082 -0.3486  0.0994  0.6405
  733MOL0     H 1153   6.532   5.358   6.226 -0.9288  0.7593  0.2039
  733MOL0     H 1154   6.488   5.496   6.125 -3.2965 -0.9587 -0.4229
  734MOL0     O 1155   3.793   4.207   6.365  0.3413  0.5946  0.3701
  734MOL0     C 1156   3.824   4.135   6.464  0.7626  0.4396  0.3199
  734MOL0     O 1157   3.747   4.036   6.519 -0.1545  0.0180 -0.0720
  734MOL0     C 1158   3.636   3.972   6.472  0.0414  0.0928  0.2648
  734MOL0     C 1159   3.583   3.971   6.339 -0.0064  1.4307 -0.1410
  734MOL0     C 1160   3.470   3.895   6.312  0.9533  0.1068 -0.0278
  734MOL0     C 1161   3.394   3.842   6.421 -0.3663 -0.0415  0.2551
  734MOL0     O 1162   3.272   3.773   6.411  0.5086  0.0182 -0.2012
  734MOL0     C 1163   3.205   3.766   6.287 -0.1929  0.4008 -0.7690
  734MOL0     C 1164   3.072   3.686   6.298 -0.8309 -0.2828 -0.5510
  734MOL0     C 1165   3.018   3.680   6.156  0.0025  0.7390  0.7162
  734MOL0     C 1166   2.884   3.753   6.144  0.5344  0.1584 -0.2850
  734MOL0     C 1167   2.878   3.904   6.146 -0.6721 -0.5105  1.0741
  734MOL0     C 1168   2.919   3.954   6.001  0.4523  0.9346 -0.4832
  734MOL0     C 1169   2.926   4.104   5.999  0.0294  0.1905 -0.3745
  734MOL0     C 1170   3.010   4.150   5.880  0.0311 -0.3182 -0.2883
  734MOL0     N 1171   3.160   4.133   5.906 -0.6030 -0.1496  0.9502
  734MOL0     C 1172   3.230   4.164   6.023 -0.9715  0.1152 -0.4233
  734MOL0     C 1173   3.364   4.139   5.981  0.6258 -0.7795 -0.7573
  734MOL0     C 1174   3.484   4.172   6.065 -0.5920 -0.4256  0.4475
  734MOL0     C 1175   3.552   4.296   6.034 -0.2923 -0.3886  0.0140
  734MOL0     C 1176   3.671   4.276   5.940  1.1995 -0.1859 -1.0890
  734MOL0     C 1177   3.804   4.269   6.017 -0.4894  1.5725 -0.0040
  734MOL0     O 1178   3.908   4.224   5.926  0.8175  0.9174 -0.5723
  734MOL0     C 1179   4.039   4.252   5.951 -0.8706  0.3134 -1.1654
  734MOL0     C 1180   4.131   4.198   5.862 -0.2047 -0.0642  0.3635
  734MOL0     C 1181   4.266   4.226   5.870 -1.1453  0.4645 -0.0482
  734MOL0     C 1182   4.344   4.167   5.753 -0.1544 -0.5302 -0.3974
  734MOL0     C 1183   4.327   4.288   5.979 -0.2985 -0.9933  0.6424
  734MOL0     C 1184   4.474   4.307   5.988 -0.1991 -0.4959 -0.3876
  734MOL0     O 1185   4.536   4.292   6.106  0.0388 -0.1820  0.5460
  734MOL0     C 1186   4.673   4.273   6.101 -0.2454  0.6045 -1.1212
  734MOL0     C 1187   4.757   4.386   6.091 -0.0890 -0.5184  0.0328
  734MOL0     C 1188   4.891   4.374   6.100  0.3081 -0.3840 -0.0834
  734MOL0     C 1189   4.954   4.249   6.097 -0.2092  0.1066 -0.1078
  734MOL0     O 1190   5.089   4.252   6.108 -0.1379 -0.3602 -0.4484
  734MOL0     C 1191   5.166   4.138   6.117 -0.0677 -0.1901  0.4574
  734MOL0     C 1192   5.202   4.088   6.261  0.3875  0.0157  0.0519
  734MOL0     C 1193   5.302   4.174   6.341  0.1162 -0.7453  0.4786
  734MOL0     C 1194   5.445   4.157   6.287 -0.6146  0.1521 -0.3385
  734MOL0     C 1195   5.536   4.267   6.344 -0.6761  0.1672  0.0713
  734MOL0     C 1196   5.685   4.247   6.332 -0.3409  0.2260  0.3535
  734MOL0     C 1197   5.736   4.387   6.388 -0.0700  0.2275 -0.0708
  734MOL0     C 1198   5.879   4.383   6.392  0.0098  0.2397  0.8639
  734MOL0    Cl 1199   5.951   4.343   6.222  0.0008 -0.4981 -0.3096
  734MOL0     C 1200   4.875   4.131   6.096  0.2167  0.5001  0.5172
  734MOL0     C 1201   4.734   4.139   6.104 -0.0164  0.2015 -0.3409
  734MOL0     O 1202   4.533   4.336   5.884 -0.1372  0.4411  0.2630
  734MOL0     C 1203   4.237   4.336   6.074 -0.1942 -0.3292 -0.1012
  734MOL0     C 1204   4.098   4.327   6.059  0.0657 -0.4232  0.5918
  734MOL0     N 1205   3.368   4.098   5.849  0.7937  0.0811  0.5692
  734MOL0     N 1206   3.244   4.097   5.808 -0.1363 -0.2670  0.3188
  734MOL0     C 1207   3.445   3.858   6.555  0.3078 -0.3010  0.3887
  734MOL0     C 1208   3.566   3.913   6.576 -0.4140  0.0792 -0.0856
  734MOL0     C 1209   3.955   4.164   6.528  0.2589  0.4692  0.2075
  734MOL0     C 1210   4.017   4.055   6.597  0.1822  0.2123  0.1498
  734MOL0     C 1211   4.140   4.064   6.649  1.0323  0.0976  0.0120
  734MOL0     C 1212   4.197   4.184   6.661 -0.0753 -0.2453  0.4561
  734MOL0     O 1213   4.315   4.207   6.731 -0.1569 -0.1272  0.8074
  734MOL0     C 1214   4.379   4.088   6.786 -0.8525  0.2124 -0.0312
  734MOL0     C 1215   4.537   4.101   6.800  0.2861 -0.4423 -0.2835
  734MOL0     C 1216   4.596   3.967   6.852 -0.0696 -0.5345  0.6104
  734MOL0     C 1217   4.752   3.956   6.854 -0.0187 -0.4846 -0.1284
  734MOL0     C 1218   4.787   4.012   6.989  0.5042 -0.5097  0.3736
  734MOL0     C 1219   4.831   4.049   7.094 -0.4372  0.2318  0.2147
  734MOL0     C 1220   4.137   4.297   6.602  0.6428 -0.6723  0.7164
  734MOL0     C 1221   4.020   4.294   6.522  0.1720  1.3249  0.0558
  734MOL0     C 1222   3.967   4.418   6.460 -0.4987  0.4855 -0.1837
  734MOL0     H 1223   3.647   4.014   6.262 -0.2571  1.2953 -0.4307
  734MOL0     H 1224   3.434   3.891   6.209 -0.8601 -2.6042  0.5918
  734MOL0     H 1225   3.260   3.691   6.230 -1.1078 -2.6200  1.9946
  734MOL0     H 1226   3.197   3.866   6.245 -1.6594 -0.0252 -1.5448
  734MOL0     H 1227   3.093   3.589   6.344 -1.7228  0.2536  1.0675
  734MOL0     H 1228   3.003   3.730   6.371  3.5513  0.9327  3.3434
  734MOL0     H 1229   3.085   3.724   6.083 -2.0472 -0.9871 -2.4450
  734MOL0     H 1230   2.999   3.574   6.136  0.3160  0.9309 -0.6329
  734MOL0     H 1231   2.833   3.727   6.051  0.0779  2.6153 -0.7821
  734MOL0     H 1232   2.826   3.713   6.228  4.0026 -0.7384  1.8940
  734MOL0     H 1233   2.937   3.954   6.223 -0.7843 -1.6276  1.9077
  734MOL0     H 1234   2.776   3.932   6.176  0.4946  1.5544  3.5468
  734MOL0     H 1235   3.009   3.905   5.963  0.0576 -1.2164  1.1499
  734MOL0     H 1236   2.846   3.917   5.929  1.3221 -5.0270  1.1274
  734MOL0     H 1237   2.968   4.134   6.096 -0.3593  3.0848 -1.0088
  734MOL0     H 1238   2.825   4.143   5.985  0.0508 -0.1941 -1.7335
  734MOL0     H 1239   2.977   4.102   5.788  0.9713  2.3180 -2.1228
  734MOL0     H 1240   2.997   4.258   5.870  1.5505 -0.2093 -1.3722
  734MOL0     H 1241   3.199   4.213   6.115 -1.4185 -0.1526 -0.4321
  734MOL0     H 1242   3.554   4.089   6.056 -1.3625 -1.3427  2.3670
  734MOL0     H 1243   3.454   4.181   6.170 -1.6379 -0.3412  0.1545
  734MOL0     H 1244   3.484   4.366   5.983  1.3583  0.6799 -0.8089
  734MOL0     H 1245   3.594   4.342   6.124  1.2998 -1.0726 -0.3481
  734MOL0     H 1246   3.651   4.184   5.884 -3.0750 -0.8141  1.0478
  734MOL0     H 1247   3.688   4.354   5.867  3.2401 -1.2126 -1.7937
  734MOL0     H 1248   3.823   4.366   6.064 -0.3398  2.2330 -1.3931
  734MOL0     H 1249   3.795   4.197   6.100  1.5422 -0.8131 -1.6903
  734MOL0     H 1250   4.082   4.148   5.779  0.5900 -2.2518  1.1503
  734MOL0     H 1251   4.300   4.072   5.720  1.2532 -2.1424  2.0204
  734MOL0     H 1252   4.447   4.143   5.784 -0.0348  3.7273  3.5960
  734MOL0     H 1253   4.351   4.240   5.672 -3.3107  1.1139  0.6815
  734MOL0     H 1254   4.721   4.488   6.086  1.4216  0.0426 -4.8512
  734MOL0     H 1255   4.946   4.466   6.107  1.4894 -0.6268 -3.8404
  734MOL0     H 1256   5.118   4.063   6.054  1.9398 -1.4279  0.3208
  734MOL0     H 1257   5.260   4.160   6.066  2.0474 -2.3034  3.0907
  734MOL0     H 1258   5.106   4.083   6.313 -0.2341  1.4134 -0.9117
  734MOL0     H 1259   5.231   3.983   6.249 -1.1686 -0.2320 -2.1755
  734MOL0     H 1260   5.315   4.135   6.442  2.2799  0.3715  0.6954
  734MOL0     H 1261   5.273   4.279   6.329  3.6861  0.4449  0.9671
  734MOL0     H 1262   5.454   4.188   6.183  2.0535  0.9148  0.0295
  734MOL0     H 1263   5.481   4.057   6.314 -1.8223 -0.1365  0.2748
  734MOL0     H 1264   5.499   4.357   6.293 -2.7359 -0.6644  0.0103
  734MOL0     H 1265   5.496   4.273   6.445 -0.5393 -1.7193  0.2816
  734MOL0     H 1266   5.722   4.227   6.231  1.5737 -1.2709  1.2736
  734MOL0     H 1267   5.712   4.162   6.395 -0.9938 -1.2607 -1.2885
  734MOL0     H 1268   5.708   4.392   6.493  2.2657 -0.8915  0.6920
  734MOL0     H 1269   5.704   4.472   6.328  0.5800  0.5347  0.0027
  734MOL0     H 1270   5.926   4.317   6.466 -0.6348  0.0334  1.0912
  734MOL0     H 1271   5.921   4.481   6.416 -0.9967  0.4419  1.8748
  734MOL0     H 1272   4.919   4.032   6.085  0.9423  0.8603  0.1153
  734MOL0     H 1273   4.678   4.046   6.114  1.7357 -0.7159  1.6923
  734MOL0     H 1274   4.271   4.384   6.165 -2.0301 -0.2564  0.5899
  734MOL0     H 1275   4.028   4.373   6.127 -2.2530 -0.9221 -1.3016
  734MOL0     H 1276   3.386   3.812   6.634 -1.3752  0.5616 -0.3265
  734MOL0     H 1277   3.606   3.927   6.676  0.8803 -1.6388 -0.3147
  734MOL0     H 1278   3.965   3.960   6.606  0.8025  0.0306  2.5727
  734MOL0     H 1279   4.183   3.970   6.682  0.7487  0.5528  1.7853
  734MOL0     H 1280   4.348   4.078   6.891  2.3512 -0.9611  0.9204
  734MOL0     H 1281   4.365   3.994   6.732  2.6341 -1.2693  1.3214
  734MOL0     H 1282   4.578   4.177   6.867  2.4572  0.0328 -2.0422
  734MOL0     H 1283   4.578   4.133   6.704 -1.2756  1.8235 -0.2657
  734MOL0     H 1284   4.561   3.943   6.952  5.1114 -2.8978  2.2112
  734MOL0     H 1285   4.550   3.890   6.788  1.1438 -1.3941  0.7385
  734MOL0     H 1286   4.798   4.017   6.776  3.0301  1.2414  2.7405
  734MOL0     H 1287   4.800   3.859   6.838 -0.2075 -0.0014 -5.1016
  734MOL0     H 1288   4.884   4.079   7.182  0.4552 -2.0249  0.4989
  734MOL0     H 1289   4.185   4.395   6.603 -0.8484  0.1567 -1.2868
  734MOL0     H 1290   3.870   4.439   6.507 -0.8841 -1.4953  0.0066
  734MOL0     H 1291   4.031   4.504   6.476 -0.4520 -0.0621  3.2182
  734MOL0     H 1292   3.959   4.394   6.353  2.5423 -2.9357  0.1889
  735MOL0     O 1293   9.413   8.700   5.691  0.3603  0.2986 -0.7175
  735MOL0     C 1294   9.294   8.673   5.677 -0.5704  0.2116  0.2761
  735MOL0     O 1295   9.221   8.636   5.781  0.2077 -0.1864 -0.4993
  735MOL0     C 1296   9.271   8.644   5.912 -0.4651 -0.8950  0.1510
  735MOL0     C 1297   9.379   8.567   5.960  1.3547 -0.3004 -0.5163
  735MOL0     C 1298   9.435   8.598   6.084  1.0623 -0.5488 -0.1885
  735MOL0     C 1299   9.380   8.696   6.168 -0.4647  0.9763 -0.2871
  735MOL0     O 1300   9.428   8.717   6.300 -0.6394 -0.1336  0.1803
  735MOL0     C 1301   9.504   8.624   6.369 -0.4802  0.4917 -0.3228
  735MOL0     C 1302   9.499   8.658   6.521 -0.5431  0.7194 -0.7945
  735MOL0     C 1303   9.475   8.533   6.609 -1.4822 -0.2224 -0.4257
  735MOL0     C 1304   9.597   8.442   6.591 -0.6882  0.2695 -0.0449
  735MOL0     C 1305   9.596   8.333   6.678 -0.1715  0.1719 -0.0695
  735MOL0     C 1306   9.689   8.216   6.645  0.4916 -1.0452  0.5093
  735MOL0     C 1307   9.695   8.113   6.755  0.0106  0.5181  0.5333
  735MOL0     C 1308   9.576   8.017   6.740  0.2461 -0.6038  0.7038
  735MOL0     N 1309   9.572   7.920   6.854  0.8883  0.6215  0.3310
  735MOL0     C 1310   9.649   7.808   6.868  0.6675  0.9485 -0.5813
  735MOL0     C 1311   9.615   7.768   6.993 -0.2830  0.4127  0.1668
  735MOL0     C 1312   9.654   7.637   7.059  0.0175 -0.0333 -0.2265
  735MOL0     C 1313   9.530   7.553   7.101 -0.5006  0.6660  0.2287
  735MOL0     C 1314   9.513   7.415   7.030  0.0692  0.6447  0.0596
  735MOL0     C 1315   9.378   7.341   7.065  0.9248 -0.1084  0.5610
  735MOL0     O 1316   9.267   7.422   7.028 -0.1646 -0.4470  0.0105
  735MOL0     C 1317   9.149   7.354   7.032 -0.5189  0.5312  0.5811
  735MOL0     C 1318   9.117   7.244   7.115 -0.4652 -0.3224 -0.0841
  735MOL0     C 1319   8.986   7.192   7.109  0.8223 -0.6690 -0.1949
  735MOL0     C 1320   8.956   7.079   7.201  0.3739 -0.3774  0.4263
  735MOL0     C 1321   8.890   7.239   7.016 -0.6854  0.1269 -0.3098
  735MOL0     C 1322   8.747   7.204   7.018 -0.8702 -0.3416  0.2076
  735MOL0     O 1323   8.696   7.179   6.898 -0.1720  0.4539  0.7404
  735MOL0     C 1324   8.561   7.163   6.891 -0.2743 -0.6273 -0.2342
  735MOL0     C 1325   8.511   7.039   6.888  0.0780 -0.0359  0.5676
  735MOL0     C 1326   8.374   7.014   6.882  0.5753  0.2614  0.4599
  735MOL0     C 1327   8.286   7.121   6.889  0.8581  0.0409 -0.5980
  735MOL0     O 1328   8.151   7.101   6.870 -1.0011  0.1899 -0.0863
  735MOL0     C 1329   8.079   7.155   6.978 -0.5083 -0.0404 -0.3665
  735MOL0     C 1330   7.927   7.143   6.958  0.4163 -0.1080 -0.3329
  735MOL0     C 1331   7.878   7.228   6.837 -0.5153 -0.4886  0.5576
  735MOL0     C 1332   7.934   7.372   6.847  0.8648 -0.0542 -0.5453
  735MOL0     C 1333   7.863   7.458   6.749 -0.2317 -0.4056 -0.7377
  735MOL0     C 1334   7.741   7.531   6.810  0.5099 -0.1147 -0.2556
  735MOL0     C 1335   7.677   7.638   6.710 -0.1049 -0.2739 -0.1902
  735MOL0     C 1336   7.585   7.579   6.601  0.1246  0.1807  0.1893
  735MOL0    Cl 1337   7.429   7.518   6.678  0.7019 -0.5676  0.3020
  735MOL0     C 1338   8.339   7.248   6.897  0.0936 -0.2822  0.2667
  735MOL0     C 1339   8.468   7.270   6.901  0.2810 -0.9234  0.0603
  735MOL0     O 1340   8.683   7.212   7.126 -0.1020 -0.0074  0.4337
  735MOL0     C 1341   8.925   7.346   6.933  0.5702  0.3437 -0.8794
  735MOL0     C 1342   9.050   7.411   6.943  0.3014 -0.1660  0.2299
  735MOL0     N 1343   9.535   7.860   7.062  1.0332 -0.6392  0.3724
  735MOL0     N 1344   9.513   7.956   6.977  0.1920  0.5371 -0.0241
  735MOL0     C 1345   9.281   8.779   6.113  0.1599  0.3970 -0.7938
  735MOL0     C 1346   9.228   8.751   5.991  0.5637 -0.4925 -0.6511
  735MOL0     C 1347   9.249   8.658   5.537  1.0334  0.7855 -1.1319
  735MOL0     C 1348   9.118   8.612   5.524 -1.3671 -0.0264  0.1290
  735MOL0     C 1349   9.061   8.596   5.404 -0.1027 -0.2691  0.2595
  735MOL0     C 1350   9.132   8.618   5.281  0.1416  0.6494  0.2523
  735MOL0     O 1351   9.077   8.598   5.157  0.0888 -0.8791  0.3063
  735MOL0     C 1352   8.937   8.641   5.131 -0.1254  0.3817 -0.3417
  735MOL0     C 1353   8.902   8.579   4.997  0.5983  0.3165 -0.1133
  735MOL0     C 1354   8.966   8.655   4.880 -0.0427 -0.1034  0.2301
  735MOL0     C 1355   8.907   8.598   4.748  0.8708 -0.2985 -0.6079
  735MOL0     C 1356   8.922   8.458   4.721  0.4049 -0.0967  0.1244
  735MOL0     C 1357   8.920   8.344   4.715  0.8286  0.3588 -0.3782
  735MOL0     C 1358   9.262   8.653   5.294 -0.3447  0.1513 -0.1832
  735MOL0     C 1359   9.315   8.690   5.424  0.0587  0.2568  0.9053
  735MOL0     C 1360   9.458   8.735   5.421 -0.1683 -0.3143 -1.1426
  735MOL0     H 1361   9.423   8.495   5.891  4.2612 -1.9777  2.7945
  735MOL0     H 1362   9.521   8.538   6.114 -0.3530 -1.6943  1.7954
  735MOL0     H 1363   9.602   8.617   6.321  0.1807  0.7326  0.9301
  735MOL0     H 1364   9.458   8.525   6.362 -1.2328  0.7755  0.3846
  735MOL0     H 1365   9.590   8.705   6.560 -0.7220  0.3940  0.0375
  735MOL0     H 1366   9.416   8.722   6.552 -2.5935 -2.5211  0.8688
  735MOL0     H 1367   9.461   8.547   6.716 -0.6515 -1.7876 -0.0798
  735MOL0     H 1368   9.389   8.478   6.569  0.9536 -3.5480 -1.4997
  735MOL0     H 1369   9.573   8.400   6.493  0.7945  0.5406 -0.5568
  735MOL0     H 1370   9.685   8.508   6.592 -0.8996  0.5733 -0.8861
  735MOL0     H 1371   9.498   8.291   6.701 -0.6042  0.8273 -0.6510
  735MOL0     H 1372   9.631   8.374   6.773 -0.2044  0.1272 -0.0383
  735MOL0     H 1373   9.648   8.172   6.553  1.5784 -2.5439  0.7026
  735MOL0     H 1374   9.791   8.252   6.631 -0.4986  2.4066  1.2607
  735MOL0     H 1375   9.698   8.142   6.861  1.1330 -3.4483  1.7300
  735MOL0     H 1376   9.791   8.061   6.748 -0.1872  0.2433 -0.2208
  735MOL0     H 1377   9.481   8.070   6.754  0.6366 -0.1483  1.8316
  735MOL0     H 1378   9.569   7.963   6.646  0.9266 -0.4697  0.5716
  735MOL0     H 1379   9.719   7.764   6.798  1.1453  0.4040  0.2213
  735MOL0     H 1380   9.716   7.661   7.145 -2.5223  2.0186  1.1599
  735MOL0     H 1381   9.722   7.583   6.992 -1.3859 -1.5908 -0.4590
  735MOL0     H 1382   9.547   7.519   7.204 -0.9052 -1.5127 -0.3610
  735MOL0     H 1383   9.435   7.606   7.093 -0.7133  0.1371 -1.0848
  735MOL0     H 1384   9.523   7.403   6.922 -0.3668 -2.9339  0.2656
  735MOL0     H 1385   9.575   7.338   7.078  0.5986  1.7043  1.1188
  735MOL0     H 1386   9.375   7.237   7.032  0.8130  0.1269 -0.1996
  735MOL0     H 1387   9.369   7.335   7.174  2.1332 -0.2264  0.6603
  735MOL0     H 1388   9.197   7.202   7.175  2.0002  1.4327 -1.8936
  735MOL0     H 1389   9.045   7.017   7.213  1.9881  2.0167  1.6405
  735MOL0     H 1390   8.868   7.025   7.164  0.3710  0.1111 -0.2874
  735MOL0     H 1391   8.923   7.119   7.298 -1.2579 -0.9386  0.1366
  735MOL0     H 1392   8.587   6.966   6.859 -2.5483 -2.8632  0.3290
  735MOL0     H 1393   8.333   6.914   6.871 -0.2396  0.7101 -0.7781
  735MOL0     H 1394   8.115   7.100   7.065 -0.2529  2.4753  1.2351
  735MOL0     H 1395   8.093   7.260   7.005 -1.7388  0.3584 -1.1891
  735MOL0     H 1396   7.895   7.039   6.966 -2.0158  0.7087  1.9300
  735MOL0     H 1397   7.880   7.187   7.046 -2.0956  1.3692 -2.2603
  735MOL0     H 1398   7.769   7.225   6.844 -0.6824 -0.3462 -1.4720
  735MOL0     H 1399   7.919   7.192   6.742  0.2847  1.8934 -0.0918
  735MOL0     H 1400   8.043   7.372   6.833  1.6068 -1.4388  3.6983
  735MOL0     H 1401   7.924   7.412   6.948  2.9302  0.3732 -0.4562
  735MOL0     H 1402   7.929   7.539   6.716 -0.9298  1.3572  1.8771
  735MOL0     H 1403   7.839   7.401   6.659  0.2298 -1.1718 -0.3883
  735MOL0     H 1404   7.758   7.582   6.905 -0.4338 -0.2345 -0.0205
  735MOL0     H 1405   7.670   7.451   6.832 -1.3516  2.2329  2.9933
  735MOL0     H 1406   7.755   7.691   6.654 -1.9510 -0.2443 -2.9569
  735MOL0     H 1407   7.614   7.706   6.769 -2.8598 -3.8079  1.3145
  735MOL0     H 1408   7.650   7.495   6.573  1.0051 -0.3572  3.4210
  735MOL0     H 1409   7.566   7.651   6.521  2.7147  0.0941 -0.5902
  735MOL0     H 1410   8.277   7.337   6.895  1.3465  0.6395  0.8347
  735MOL0     H 1411   8.505   7.370   6.920  1.1777 -0.0610 -4.8832
  735MOL0     H 1412   8.849   7.391   6.870  0.8669  1.1150 -0.7054
  735MOL0     H 1413   9.060   7.499   6.881 -1.3628 -1.2203 -1.6456
  735MOL0     H 1414   9.244   8.857   6.179  1.7230 -2.0746  3.3551
  735MOL0     H 1415   9.157   8.825   5.954  1.6483  0.9628  0.0625
  735MOL0     H 1416   9.051   8.616   5.609 -0.5289 -0.2776  0.8180
  735MOL0     H 1417   8.954   8.583   5.403 -0.2213  0.6434 -0.7723
  735MOL0     H 1418   8.874   8.593   5.206  0.9613  0.6295  0.7616
  735MOL0     H 1419   8.936   8.751   5.132 -0.3757  0.3783 -0.0253
  735MOL0     H 1420   8.794   8.595   5.002  0.1539 -2.2489  4.3850
  735MOL0     H 1421   8.924   8.472   5.002  0.5509  0.3298  0.5252
  735MOL0     H 1422   8.946   8.762   4.886 -3.4713 -0.1673 -4.3395
  735MOL0     H 1423   9.075   8.643   4.870  0.1226  1.6794 -0.5005
  735MOL0     H 1424   8.956   8.651   4.666  1.3694  1.2955  0.6581
  735MOL0     H 1425   8.801   8.625   4.744  0.7826 -0.7062 -1.1567
  735MOL0     H 1426   8.924   8.239   4.697 -0.9110  0.5774 -2.4628
  735MOL0     H 1427   9.312   8.666   5.199  0.8517 -1.8800  0.1020
  735MOL0     H 1428   9.517   8.650   5.454 -0.7790 -0.2330  0.2216
  735MOL0     H 1429   9.487   8.774   5.322 -1.5178 -0.7067 -1.7189
  735MOL0     H 1430   9.474   8.823   5.484 -0.5628 -0.5067 -0.7695
  736MOL0     O 1431   0.321   0.630  11.307  0.4015 -0.5712 -0.4412
  736MOL0     C 1432   0.408   0.718  11.303  0.1463  0.0988  1.2820
  736MOL0     O 1433   0.414   0.825  11.384 -0.1391  0.0814  0.5679
  736MOL0     C 1434   0.335   0.835  11.504 -0.2057  0.3241  0.3127
  736MOL0     C 1435   0.321   0.963  11.554 -0.7139 -0.1649 -0.4675
  736MOL0     C 1436   0.245   0.988  11.674 -0.4451 -0.8889 -0.1838
  736MOL0     C 1437   0.182   0.877  11.745  0.1104  0.2047  0.2961
  736MOL0     O 1438   0.112   0.906  11.867 -1.1438 -0.0944  0.4550
  736MOL0     C 1439   0.076   0.801  11.956 -0.3862  0.4748  0.2044
  736MOL0     C 1440  -0.056   0.741  11.901 -0.1155  0.1025 -0.4636
  736MOL0     C 1441  -0.129   0.661  12.011 -0.7325 -0.1628 -0.3874
  736MOL0     C 1442  -0.070   0.525  11.998 -0.6566  0.3188 -0.1297
  736MOL0     C 1443  -0.148   0.439  12.107 -0.5163  0.1245  0.6406
  736MOL0     C 1444  -0.074   0.302  12.129 -0.0293 -0.5430  0.0904
  736MOL0     C 1445  -0.158   0.210  12.219  0.4557 -0.4434  0.6395
  736MOL0     C 1446  -0.103   0.062  12.226  0.4307  0.6785 -0.5491
  736MOL0     N 1447  -0.187  -0.042  12.283  0.7507 -0.1808  0.2540
  736MOL0     C 1448  -0.203  -0.060  12.416  0.2093  0.3625 -0.5895
  736MOL0     C 1449  -0.315  -0.147  12.421 -0.9622 -0.3292 -0.1193
  736MOL0     C 1450  -0.360  -0.237  12.532  0.4614 -0.0325  0.1301
  736MOL0     C 1451  -0.430  -0.368  12.506 -0.7052 -0.1135  0.2805
  736MOL0     C 1452  -0.545  -0.412  12.595 -0.2997 -0.3109 -0.3238
  736MOL0     C 1453  -0.679  -0.393  12.520  1.1133 -0.5609 -0.3293
  736MOL0     O 1454  -0.783  -0.432  12.610 -0.4168 -0.0894 -0.0955
  736MOL0     C 1455  -0.834  -0.344  12.699 -1.0505 -0.2081  0.3385
  736MOL0     C 1456  -0.803  -0.207  12.714  0.0040 -0.4739  0.1952
  736MOL0     C 1457  -0.873  -0.126  12.798  0.4668 -0.3092 -0.9743
  736MOL0     C 1458  -0.855   0.025  12.808  0.2487 -0.7837 -0.2515
  736MOL0     C 1459  -0.973  -0.184  12.878 -0.1572  0.1113  0.3107
  736MOL0     C 1460  -1.059  -0.117  12.987 -0.3017  0.2834 -0.2187
  736MOL0     O 1461  -1.198  -0.139  12.988 -0.6627 -0.2384 -0.1138
  736MOL0     C 1462  -1.274  -0.091  13.085 -0.0197  0.2102 -0.6244
  736MOL0     C 1463  -1.299   0.046  13.094  0.3315  0.2800 -0.7723
  736MOL0     C 1464  -1.369   0.083  13.204 -0.1637 -0.7413 -0.0462
  736MOL0     C 1465  -1.413   0.003  13.310 -0.2140 -0.3810  0.1666
  736MOL0     O 1466  -1.490   0.064  13.405 -0.0002  0.6384 -0.0632
  736MOL0     C 1467  -1.539  -0.025  13.509  0.9307 -0.5214 -0.8442
  736MOL0     C 1468  -1.619   0.054  13.616  0.2272  0.4206  0.4964
  736MOL0     C 1469  -1.527   0.124  13.713  0.1326 -0.0327 -0.4484
  736MOL0     C 1470  -1.600   0.196  13.826  0.2417 -0.0054  0.6356
  736MOL0     C 1471  -1.540   0.186  13.969 -0.2219 -0.6459  0.8398
  736MOL0     C 1472  -1.600   0.298  14.064  0.4039  0.5238  0.2965
  736MOL0     C 1473  -1.558   0.310  14.212 -0.0221  0.1472  0.6116
  736MOL0     C 1474  -1.641   0.413  14.291 -0.4740  0.7573  0.1825
  736MOL0    Cl 1475  -1.583   0.422  14.460  0.2620  0.4488 -0.3610
  736MOL0     C 1476  -1.387  -0.132  13.297 -0.3943 -0.7399 -0.5096
  736MOL0     C 1477  -1.323  -0.179  13.183 -0.3860  0.1740 -0.7895
  736MOL0     O 1478  -1.004  -0.037  13.064 -0.9985  0.2075  0.2741
  736MOL0     C 1479  -1.008  -0.317  12.863 -0.1251  0.3715 -0.4071
  736MOL0     C 1480  -0.933  -0.397  12.774  0.2475  0.1125  0.0986
  736MOL0     N 1481  -0.358  -0.167  12.296  0.0424 -0.8917  0.0898
  736MOL0     N 1482  -0.283  -0.114  12.215 -0.0845 -0.1946 -0.1836
  736MOL0     C 1483   0.209   0.744  11.705 -0.5948 -0.3577 -0.3750
  736MOL0     C 1484   0.285   0.727  11.588 -0.5732 -0.4070 -0.1125
  736MOL0     C 1485   0.502   0.741  11.190 -0.3106 -0.7330  0.4098
  736MOL0     C 1486   0.544   0.868  11.161 -1.0458  0.0902 -0.2964
  736MOL0     C 1487   0.619   0.903  11.046  0.2700  0.0885 -0.2367
  736MOL0     C 1488   0.644   0.804  10.953  0.0689 -0.5177  0.8044
  736MOL0     O 1489   0.704   0.834  10.828 -0.4909  0.4676 -0.7963
  736MOL0     C 1490   0.654   0.948  10.755  0.1392 -0.8023 -1.0331
  736MOL0     C 1491   0.721   0.948  10.617  0.2066 -0.5810  0.1000
  736MOL0     C 1492   0.758   0.813  10.566  0.0715  0.8256  0.1265
  736MOL0     C 1493   0.637   0.728  10.516 -0.3423 -0.5294 -0.1466
  736MOL0     C 1494   0.662   0.588  10.565  0.1306  0.9412 -0.2788
  736MOL0     C 1495   0.667   0.473  10.597  0.7199 -0.0350 -0.1221
  736MOL0     C 1496   0.612   0.674  10.988  0.4651  0.4712  0.1925
  736MOL0     C 1497   0.547   0.633  11.106  0.7732  0.1463  0.3755
  736MOL0     C 1498   0.511   0.490  11.111  0.3428  0.0812 -0.1444
  736MOL0     H 1499   0.377   1.036  11.496  0.7376  0.1611  1.2516
  736MOL0     H 1500   0.236   1.089  11.711 -3.2044  0.1734 -3.2318
  736MOL0     H 1501   0.063   0.855  12.050  4.4920  2.5126 -0.0334
  736MOL0     H 1502   0.157   0.729  11.969 -1.1361 -0.4669 -0.2072
  736MOL0     H 1503  -0.114   0.830  11.874  2.9261  2.1805 -0.7079
  736MOL0     H 1504  -0.039   0.681  11.810 -1.2559  0.2553 -0.7909
  736MOL0     H 1505  -0.115   0.709  12.109 -0.6982  1.7677 -1.2936
  736MOL0     H 1506  -0.237   0.667  11.998 -0.5718  0.3689 -1.5134
  736MOL0     H 1507  -0.097   0.483  11.901 -2.4889  2.9147 -0.8582
  736MOL0     H 1508   0.038   0.528  12.012 -0.7722  0.8951  0.7280
  736MOL0     H 1509  -0.244   0.422  12.056  0.2478  0.8708 -1.1120
  736MOL0     H 1510  -0.146   0.501  12.197 -1.6272  2.8948 -1.1015
  736MOL0     H 1511  -0.053   0.253  12.033 -0.9076 -3.1194  1.1201
  736MOL0     H 1512   0.020   0.328  12.179 -0.3545  1.6134 -0.3453
  736MOL0     H 1513  -0.255   0.202  12.168 -0.6004  1.3234  2.2485
  736MOL0     H 1514  -0.163   0.252  12.320  0.2129 -1.8545  1.2510
  736MOL0     H 1515  -0.088   0.038  12.120  1.7786  0.3274 -0.2861
  736MOL0     H 1516  -0.020   0.057  12.297 -2.4674  2.4806  3.3220
  736MOL0     H 1517  -0.137  -0.028  12.497 -2.4171 -0.2835  2.0050
  736MOL0     H 1518  -0.429  -0.173  12.588 -0.9040  0.2065 -1.7469
  736MOL0     H 1519  -0.266  -0.256  12.584 -1.4976 -1.3156  3.6057
  736MOL0     H 1520  -0.467  -0.365  12.403  0.7948 -1.2961 -0.3171
  736MOL0     H 1521  -0.355  -0.447  12.497  0.2593  0.3912  2.9457
  736MOL0     H 1522  -0.553  -0.513  12.635 -4.1131  0.4195  1.1576
  736MOL0     H 1523  -0.537  -0.346  12.682  0.4984  0.5015 -0.9855
  736MOL0     H 1524  -0.695  -0.291  12.483 -2.2883 -0.4239  1.1307
  736MOL0     H 1525  -0.687  -0.445  12.424 -2.3486 -0.0066 -0.4585
  736MOL0     H 1526  -0.721  -0.177  12.651  0.8032 -2.4292  0.2244
  736MOL0     H 1527  -0.848   0.073  12.710  1.1834  4.9671  2.2051
  736MOL0     H 1528  -0.765   0.065  12.854 -0.3500  0.7182 -0.3414
  736MOL0     H 1529  -0.942   0.076  12.850  0.1437  0.2015 -1.6057
  736MOL0     H 1530  -1.289   0.117  13.013 -0.7334  0.9938 -0.2981
  736MOL0     H 1531  -1.390   0.189  13.209  2.9831 -0.0583  0.4347
  736MOL0     H 1532  -1.619  -0.086  13.468  0.0097 -0.8537  1.2929
  736MOL0     H 1533  -1.460  -0.086  13.554  0.4143 -1.1328 -0.7494
  736MOL0     H 1534  -1.692   0.118  13.567 -0.8228  0.2871  1.8194
  736MOL0     H 1535  -1.685  -0.021  13.660 -0.6952  1.2659  0.5975
  736MOL0     H 1536  -1.467   0.193  13.652  0.2752  1.5583  1.3926
  736MOL0     H 1537  -1.462   0.047  13.755 -0.8736 -1.9634 -2.2454
  736MOL0     H 1538  -1.702   0.156  13.818  0.2820  0.2137 -2.7498
  736MOL0     H 1539  -1.603   0.304  13.809  3.4766  0.7921  3.8695
  736MOL0     H 1540  -1.562   0.084  14.002 -0.6422 -1.0786 -0.7141
  736MOL0     H 1541  -1.433   0.209  13.973 -0.3616 -0.0676  1.4978
  736MOL0     H 1542  -1.705   0.266  14.058  0.1688  1.3586 -0.1476
  736MOL0     H 1543  -1.580   0.397  14.022  1.8913  0.7359  1.4267
  736MOL0     H 1544  -1.454   0.344  14.220 -0.0008  0.4887 -0.8683
  736MOL0     H 1545  -1.558   0.210  14.256 -0.2685 -0.4866 -0.7692
  736MOL0     H 1546  -1.745   0.384  14.309 -0.5113 -1.9750 -3.2484
  736MOL0     H 1547  -1.635   0.506  14.234  1.2344  1.3521  1.2731
  736MOL0     H 1548  -1.417  -0.211  13.365 -1.1774  0.9867  1.2639
  736MOL0     H 1549  -1.311  -0.286  13.178 -2.1734 -0.0851 -0.2812
  736MOL0     H 1550  -1.069  -0.371  12.934 -0.4155  0.2904 -0.7165
  736MOL0     H 1551  -0.968  -0.494  12.743 -2.0751  1.1261 -0.6837
  736MOL0     H 1552   0.182   0.654  11.761 -1.1317  0.5215  0.8340
  736MOL0     H 1553   0.297   0.629  11.541  0.4993 -1.0706  1.4591
  736MOL0     H 1554   0.496   0.949  11.214 -5.1131 -2.8499  0.9283
  736MOL0     H 1555   0.644   1.005  11.020 -2.4607  0.5517 -1.4528
  736MOL0     H 1556   0.545   0.947  10.745 -0.1774 -0.5174  1.6356
  736MOL0     H 1557   0.681   1.040  10.807  1.9554 -2.7634  1.7663
  736MOL0     H 1558   0.810   1.011  10.629 -1.4527  1.3725  4.4980
  736MOL0     H 1559   0.651   1.003  10.553  1.1917 -0.7016 -1.1173
  736MOL0     H 1560   0.830   0.818  10.485 -0.0491 -2.6876 -0.3775
  736MOL0     H 1561   0.817   0.768  10.646  1.6331  0.7767 -1.0154
  736MOL0     H 1562   0.638   0.738  10.407 -2.5180 -1.1567 -0.2803
  736MOL0     H 1563   0.547   0.782  10.546  1.9038  1.8860  2.8243
  736MOL0     H 1564   0.687   0.368  10.605  2.5774  0.2565 -0.6577
  736MOL0     H 1565   0.625   0.605  10.906 -0.9141 -2.5450  2.2912
  736MOL0     H 1566   0.423   0.461  11.052 -1.5532 -0.0963  2.6094
  736MOL0     H 1567   0.597   0.434  11.074  2.6371  2.4471  1.2760
  736MOL0     H 1568   0.496   0.469  11.217  3.4107  0.3462  0.4091
  737MOL0     O 1569   8.325   7.771   1.713  0.0963 -0.4344 -0.6217
  737MOL0     C 1570   8.319   7.702   1.817  1.0675  0.1435  0.3681
  737MOL0     O 1571   8.398   7.718   1.925  0.0205 -0.4482  0.1925
  737MOL0     C 1572   8.494   7.811   1.920  0.5933 -0.7645  0.3460
  737MOL0     C 1573   8.616   7.776   1.871 -0.0209 -0.1888 -0.4022
  737MOL0     C 1574   8.722   7.872   1.881 -0.1829  1.0631  0.0488
  737MOL0     C 1575   8.702   7.995   1.933  0.8363 -0.1114 -0.9148
  737MOL0     O 1576   8.803   8.082   1.940 -0.6984 -0.0116  0.4236
  737MOL0     C 1577   8.785   8.178   1.839  0.0991 -0.3994 -0.2579
  737MOL0     C 1578   8.918   8.220   1.767 -0.0857  1.1396 -0.4212
  737MOL0     C 1579   8.944   8.127   1.655  0.6612 -1.3748  0.3540
  737MOL0     C 1580   9.043   8.161   1.544  0.3497 -0.7880  0.5329
  737MOL0     C 1581   9.075   8.035   1.445 -0.4356  0.6944 -0.1897
  737MOL0     C 1582   8.967   7.961   1.362  0.6743 -0.2094 -0.3601
  737MOL0     C 1583   8.875   8.059   1.293  0.5802 -0.2680  0.6576
  737MOL0     C 1584   8.741   7.997   1.244 -0.2871  0.1529  0.0449
  737MOL0     N 1585   8.756   7.863   1.186 -0.0417  0.4117 -0.4478
  737MOL0     C 1586   8.786   7.844   1.051  0.9036  0.3989 -0.8863
  737MOL0     C 1587   8.821   7.717   1.047 -0.9495  0.1559  0.2416
  737MOL0     C 1588   8.858   7.654   0.922 -0.0334 -0.0543  0.4105
  737MOL0     C 1589   9.004   7.650   0.891 -0.0643  0.6319 -0.2970
  737MOL0     C 1590   9.069   7.788   0.879  0.3244 -0.6431 -0.2479
  737MOL0     C 1591   9.204   7.777   0.809  0.0039  0.3407  0.2448
  737MOL0     O 1592   9.295   7.882   0.827 -0.4436  0.2620  0.4901
  737MOL0     C 1593   9.397   7.890   0.734 -0.6074 -0.2013  0.7651
  737MOL0     C 1594   9.470   8.012   0.716  0.4150  0.7940 -0.1299
  737MOL0     C 1595   9.577   8.014   0.621 -0.2316 -0.7572  0.1213
  737MOL0     C 1596   9.647   8.147   0.604  0.2453 -0.3554  0.5409
  737MOL0     C 1597   9.620   7.902   0.545 -0.4622  1.0253 -0.3110
  737MOL0     C 1598   9.727   7.912   0.450  1.1223  1.0304  0.4654
  737MOL0     O 1599   9.716   7.989   0.343 -0.1890 -0.6604 -0.0440
  737MOL0     C 1600   9.808   7.998   0.254  0.3836  0.3738  0.2740
  737MOL0     C 1601   9.878   8.120   0.235 -0.1954 -0.1164  0.4526
  737MOL0     C 1602   9.986   8.142   0.144 -0.0042 -0.0742  0.6596
  737MOL0     C 1603   9.998   8.040   0.043 -0.1132  0.4516 -0.9637
  737MOL0     O 1604  10.092   8.052  -0.058 -0.3854  0.1839  0.0090
  737MOL0     C 1605  10.173   7.936  -0.088 -1.0643 -0.9100  0.6209
  737MOL0     C 1606  10.255   7.872   0.026  0.2464 -0.8213 -0.6965
  737MOL0     C 1607  10.283   7.729   0.003 -0.1754  0.2150  0.2085
  737MOL0     C 1608  10.167   7.643   0.057 -1.0327  0.5059 -0.5247
  737MOL0     C 1609  10.226   7.500   0.029 -0.1052 -0.1059 -0.4638
  737MOL0     C 1610  10.096   7.411   0.058 -0.2125 -1.4602 -0.3780
  737MOL0     C 1611  10.119   7.275  -0.002  0.8049 -0.0328 -0.1810
  737MOL0     C 1612  10.001   7.191   0.047  0.1592 -0.5589  0.8729
  737MOL0    Cl 1613  10.018   7.024  -0.010  0.1466  0.5320 -0.5536
  737MOL0     C 1614   9.914   7.927   0.054 -0.9048  0.5276 -0.8785
  737MOL0     C 1615   9.836   7.899   0.167  0.2126  0.0094 -0.1852
  737MOL0     O 1616   9.811   7.823   0.465  0.1428  0.5602 -0.3891
  737MOL0     C 1617   9.551   7.782   0.568  0.3266 -0.3322  0.2680
  737MOL0     C 1618   9.454   7.775   0.665  0.7078 -0.0208 -0.1817
  737MOL0     N 1619   8.826   7.651   1.172  0.6014 -0.1410 -0.1191
  737MOL0     N 1620   8.787   7.744   1.255  0.2559 -0.5498  0.3356
  737MOL0     C 1621   8.573   8.028   1.968 -0.2319 -0.2120  0.3783
  737MOL0     C 1622   8.465   7.939   1.965 -0.5961  0.7327  0.8909
  737MOL0     C 1623   8.208   7.599   1.815  0.0698  0.3332  0.1451
  737MOL0     C 1624   8.192   7.521   1.929 -0.0870  0.1813  1.2871
  737MOL0     C 1625   8.097   7.419   1.948 -0.5867 -0.1867  0.0923
  737MOL0     C 1626   8.011   7.399   1.840 -0.5905  0.4584 -0.6318
  737MOL0     O 1627   7.917   7.303   1.859 -0.5401 -0.3404  0.3597
  737MOL0     C 1628   7.850   7.244   1.741  1.0810 -0.9678 -0.2470
  737MOL0     C 1629   7.775   7.121   1.781 -0.4080 -0.1658  0.1488
  737MOL0     C 1630   7.850   6.987   1.799  0.0739 -0.2721  0.2643
  737MOL0     C 1631   7.878   6.933   1.667 -1.3421 -0.3638  0.1189
  737MOL0     C 1632   7.976   6.824   1.672 -0.0226 -0.3572 -0.1017
  737MOL0     C 1633   8.054   6.733   1.642  0.1669  0.0326 -0.8753
  737MOL0     C 1634   8.031   7.464   1.718  0.2861 -0.4269 -0.1572
  737MOL0     C 1635   8.134   7.560   1.700  0.5617 -0.2579 -0.5469
  737MOL0     C 1636   8.169   7.613   1.559  0.3981 -0.1783  0.4734
  737MOL0     H 1637   8.639   7.673   1.848 -1.1195 -0.6517  0.4585
  737MOL0     H 1638   8.821   7.832   1.860 -1.1235 -1.8055  0.5914
  737MOL0     H 1639   8.747   8.262   1.897  2.5208 -0.8528  2.2045
  737MOL0     H 1640   8.720   8.143   1.758  2.6615  0.3318 -2.7883
  737MOL0     H 1641   8.905   8.324   1.736 -1.7776  1.4199  1.0367
  737MOL0     H 1642   9.009   8.214   1.828 -0.6475 -0.7273  0.3179
  737MOL0     H 1643   8.989   8.035   1.692  2.9301 -0.5598 -0.1984
  737MOL0     H 1644   8.847   8.096   1.617  0.6097 -0.9960  0.1758
  737MOL0     H 1645   9.023   8.251   1.485  2.7935 -0.8200 -0.4738
  737MOL0     H 1646   9.132   8.190   1.601  1.8704 -1.7175 -1.2609
  737MOL0     H 1647   9.122   7.961   1.510 -1.9557 -0.8046 -0.7406
  737MOL0     H 1648   9.158   8.055   1.378  1.1921 -3.6001  0.2367
  737MOL0     H 1649   9.010   7.882   1.299 -3.0231 -5.0456  2.5120
  737MOL0     H 1650   8.898   7.902   1.422  1.3386 -0.4907  0.1452
  737MOL0     H 1651   8.913   8.099   1.198 -0.5171 -1.4113 -0.3022
  737MOL0     H 1652   8.857   8.145   1.358 -0.5120  0.2260 -0.2531
  737MOL0     H 1653   8.678   7.980   1.332 -2.5933 -2.4612 -1.9244
  737MOL0     H 1654   8.702   8.069   1.172  0.8082  0.3027 -0.4113
  737MOL0     H 1655   8.790   7.916   0.970  0.2686 -0.0248 -1.3070
  737MOL0     H 1656   8.801   7.705   0.844 -1.1909 -1.2773  0.4131
  737MOL0     H 1657   8.822   7.550   0.915 -0.9896  0.1474  1.8516
  737MOL0     H 1658   9.059   7.585   0.960 -2.0440  0.7848  1.5279
  737MOL0     H 1659   9.011   7.611   0.789 -1.3328  0.6420 -0.4021
  737MOL0     H 1660   8.999   7.853   0.826  0.4326  0.9424  1.4622
  737MOL0     H 1661   9.089   7.840   0.973 -0.5105 -2.2378  0.8691
  737MOL0     H 1662   9.242   7.684   0.854 -1.8370  0.5239  2.3805
  737MOL0     H 1663   9.189   7.762   0.702  0.2585 -1.1773  0.3927
  737MOL0     H 1664   9.425   8.095   0.770 -1.9831 -0.8871  0.6428
  737MOL0     H 1665   9.754   8.135   0.621  0.8292  0.9805 -1.7469
  737MOL0     H 1666   9.615   8.223   0.677  1.4395 -0.2644  0.9850
  737MOL0     H 1667   9.634   8.186   0.502 -2.9504  0.2461  1.0608
  737MOL0     H 1668   9.866   8.207   0.299  2.8159  1.9845 -1.5362
  737MOL0     H 1669  10.041   8.235   0.138  1.8585 -1.2144 -1.5131
  737MOL0     H 1670  10.116   7.849  -0.123  0.8545 -1.8270 -0.3803
  737MOL0     H 1671  10.235   7.968  -0.172  0.4760  2.0914  2.7361
  737MOL0     H 1672  10.346   7.932   0.039 -0.6419  0.0862  2.0157
  737MOL0     H 1673  10.203   7.894   0.120  0.1151  0.9141 -1.1494
  737MOL0     H 1674  10.377   7.719   0.057  1.3655  0.7323 -2.2062
  737MOL0     H 1675  10.301   7.704  -0.102  1.8086  2.3852 -0.0452
  737MOL0     H 1676  10.070   7.651   0.007 -0.9855 -4.0040 -1.7690
  737MOL0     H 1677  10.160   7.650   0.166  1.2840 -1.2576 -0.1827
  737MOL0     H 1678  10.261   7.483  -0.073  0.7451 -4.5119  0.3544
  737MOL0     H 1679  10.305   7.467   0.097  2.0420  3.7646 -0.8237
  737MOL0     H 1680  10.003   7.448   0.015  0.0220 -0.0003  0.3199
  737MOL0     H 1681  10.087   7.396   0.166  0.0171  1.6870  0.1705
  737MOL0     H 1682  10.221   7.244   0.022  0.5851 -1.3518 -0.8660
  737MOL0     H 1683  10.104   7.279  -0.111 -1.3878 -2.1645 -0.0457
  737MOL0     H 1684   9.907   7.224   0.003  0.7802 -0.1275 -0.1664
  737MOL0     H 1685   9.987   7.199   0.155  0.6451  0.9891  0.8481
  737MOL0     H 1686   9.928   7.853  -0.024 -3.1986 -1.7087  0.6924
  737MOL0     H 1687   9.787   7.802   0.171 -0.7132  0.4547  3.3038
  737MOL0     H 1688   9.588   7.691   0.521  3.1265 -0.4679  2.5177
  737MOL0     H 1689   9.402   7.680   0.673  0.8964 -0.1202 -0.1547
  737MOL0     H 1690   8.555   8.129   2.005  1.2763 -0.0879  0.8061
  737MOL0     H 1691   8.365   7.974   1.988 -0.7592  3.5297 -3.1910
  737MOL0     H 1692   8.247   7.552   2.017 -1.9190  3.4462  1.4233
  737MOL0     H 1693   8.076   7.383   2.049  2.5601  2.4327  1.8416
  737MOL0     H 1694   7.775   7.311   1.699  0.9780 -1.9378 -1.6954
  737MOL0     H 1695   7.919   7.218   1.660  0.1685 -0.3631 -1.2428
  737MOL0     H 1696   7.695   7.114   1.707  3.2113  0.8722 -4.2853
  737MOL0     H 1697   7.732   7.154   1.876 -0.1773  1.8766 -0.4178
  737MOL0     H 1698   7.941   6.993   1.859 -0.7289 -2.1958  1.8326
  737MOL0     H 1699   7.787   6.912   1.849 -1.9019  1.0236 -0.1873
  737MOL0     H 1700   7.941   7.013   1.626 -0.4599  0.9677  3.7530
  737MOL0     H 1701   7.790   6.903   1.609 -0.5709 -0.2961 -1.1343
  737MOL0     H 1702   8.119   6.650   1.629 -0.0893 -0.5674  1.2465
  737MOL0     H 1703   7.977   7.442   1.626  1.8483 -3.1293 -0.5288
  737MOL0     H 1704   8.152   7.721   1.552  1.7845  0.1218  1.3639
  737MOL0     H 1705   8.268   7.587   1.521  2.0662  4.7484  0.7253
  737MOL0     H 1706   8.106   7.561   1.486  1.1653 -1.5484  0.7704
  738MOL0     O 1707  10.790   7.804   8.879  0.1742  0.1783 -0.2824
  738MOL0     C 1708  10.739   7.885   8.807 -0.0045  0.0235  0.4466
  738MOL0     O 1709  10.653   7.993   8.852  0.0286  0.2220 -0.2652
  738MOL0     C 1710  10.659   8.012   8.988 -0.0336  0.0498  0.2632
  738MOL0     C 1711  10.595   7.933   9.075  0.3806  0.4338 -0.1718
  738MOL0     C 1712  10.591   7.970   9.213  0.6247 -0.1590 -0.1863
  738MOL0     C 1713  10.661   8.080   9.261  0.0325 -0.7919 -0.7146
  738MOL0     O 1714  10.656   8.101   9.400  0.2069  0.0153 -0.0642
  738MOL0     C 1715  10.599   8.230   9.432 -0.5345  0.3425 -0.3690
  738MOL0     C 1716  10.574   8.244   9.583  0.1378 -0.2747  0.2298
  738MOL0     C 1717  10.536   8.397   9.619 -0.6915  0.9125  0.2336
  738MOL0     C 1718  10.543   8.429   9.765 -0.5887  1.1827 -0.0293
  738MOL0     C 1719  10.397   8.399   9.838 -0.3186 -0.2593  0.5585
  738MOL0     C 1720  10.422   8.374   9.986 -0.7993 -0.0249  0.2439
  738MOL0     C 1721  10.291   8.377  10.064 -0.5547  0.3960 -0.0731
  738MOL0     C 1722  10.243   8.518  10.099 -0.6875 -0.9493 -1.0904
  738MOL0     N 1723  10.142   8.507  10.203  0.5030  0.1537  0.0616
  738MOL0     C 1724  10.052   8.402  10.235 -0.3083  0.3138  0.8016
  738MOL0     C 1725   9.979   8.457  10.333  0.5571 -0.0787  0.6556
  738MOL0     C 1726   9.862   8.384  10.402 -1.1631  1.0965  0.3338
  738MOL0     C 1727   9.723   8.444  10.360 -0.1053  1.1297 -0.8480
  738MOL0     C 1728   9.599   8.361  10.410  0.2824 -0.5899 -0.4131
  738MOL0     C 1729   9.572   8.396  10.558 -0.6235  0.3726 -0.5438
  738MOL0     O 1730   9.442   8.336  10.595 -0.0465 -0.2780  0.5579
  738MOL0     C 1731   9.336   8.418  10.587  0.5602 -0.1437  0.3091
  738MOL0     C 1732   9.222   8.366  10.651 -0.4627  0.9127  0.2005
  738MOL0     C 1733   9.105   8.443  10.673 -0.8875 -0.2908  0.4509
  738MOL0     C 1734   8.994   8.403  10.765  0.2207 -0.1967 -1.1700
  738MOL0     C 1735   9.093   8.574  10.626  1.4202  0.1000 -0.0537
  738MOL0     C 1736   8.971   8.672  10.628 -0.4251  0.3158 -0.6663
  738MOL0     O 1737   9.007   8.802  10.597 -0.2876  0.1789  0.1579
  738MOL0     C 1738   8.921   8.911  10.591 -0.4276  1.4532 -0.9489
  738MOL0     C 1739   8.833   8.949  10.702  0.3084  0.1028  0.6345
  738MOL0     C 1740   8.761   9.069  10.700  0.7299 -0.2590 -0.5911
  738MOL0     C 1741   8.777   9.154  10.598  0.5721 -0.1025  0.3182
  738MOL0     O 1742   8.686   9.263  10.596 -0.1758  0.5405 -0.0107
  738MOL0     C 1743   8.740   9.383  10.543  0.5244  1.3179 -0.0385
  738MOL0     C 1744   8.697   9.507  10.622 -0.1543  0.5970  0.3118
  738MOL0     C 1745   8.688   9.644  10.565  0.3006 -0.4052 -0.4492
  738MOL0     C 1746   8.572   9.660  10.463 -0.3613 -0.1153 -0.7608
  738MOL0     C 1747   8.566   9.791  10.389  0.7793  0.4183 -0.2826
  738MOL0     C 1748   8.427   9.817  10.328 -0.1402  0.2572 -0.7863
  738MOL0     C 1749   8.398   9.718  10.216  0.7772 -0.1185 -1.1492
  738MOL0     C 1750   8.270   9.755  10.138  0.0867  0.1658 -0.4320
  738MOL0    Cl 1751   8.122   9.725  10.231 -0.7266  0.0765 -0.4993
  738MOL0     C 1752   8.861   9.121  10.492 -0.0348 -0.8854 -0.3434
  738MOL0     C 1753   8.931   9.006  10.489 -0.0131  0.2011 -0.6300
  738MOL0     O 1754   8.854   8.636  10.644  0.4740  0.2589  0.0834
  738MOL0     C 1755   9.208   8.623  10.558 -0.2187 -0.3204 -0.7617
  738MOL0     C 1756   9.325   8.548  10.532  0.0858 -0.1830  0.2982
  738MOL0     N 1757  10.000   8.592  10.356 -1.2978 -0.1949 -0.7375
  738MOL0     N 1758  10.106   8.613  10.285  0.3629 -0.1153 -0.4422
  738MOL0     C 1759  10.740   8.149   9.173  0.0389 -0.4110  0.8255
  738MOL0     C 1760  10.738   8.117   9.039  0.5125  0.5399 -0.2903
  738MOL0     C 1761  10.755   7.868   8.662 -0.9517  0.1509  0.1442
  738MOL0     C 1762  10.763   7.736   8.612  1.0430  0.9047 -0.1413
  738MOL0     C 1763  10.766   7.722   8.476  0.2427  0.4237 -0.4115
  738MOL0     C 1764  10.773   7.820   8.385 -0.2028  0.2479  0.7318
  738MOL0     O 1765  10.777   7.789   8.257 -0.8437 -0.0101  0.3442
  738MOL0     C 1766  10.880   7.818   8.171 -0.7965  0.5632 -0.4295
  738MOL0     C 1767  10.834   7.738   8.050 -0.6729  0.4125 -0.2623
  738MOL0     C 1768  10.929   7.752   7.924 -0.1867 -0.3055 -0.2682
  738MOL0     C 1769  10.979   7.898   7.905  0.1667 -0.0504 -0.6293
  738MOL0     C 1770  10.866   7.988   7.922 -0.3417 -0.1138  0.0072
  738MOL0     C 1771  10.781   8.070   7.929  0.5006 -0.3414 -1.2039
  738MOL0     C 1772  10.773   7.950   8.433 -0.5796  0.7318  0.2615
  738MOL0     C 1773  10.775   7.975   8.572  0.1777  0.3892 -0.2150
  738MOL0     C 1774  10.772   8.119   8.609  0.1608 -0.3037 -0.7934
  738MOL0     H 1775  10.551   7.843   9.033 -2.0061  1.4202  0.0803
  738MOL0     H 1776  10.527   7.913   9.279  0.7105  0.2429  0.2535
  738MOL0     H 1777  10.508   8.244   9.372 -0.6377  0.8877 -0.0918
  738MOL0     H 1778  10.670   8.307   9.404  2.2365 -2.1029 -0.5449
  738MOL0     H 1779  10.506   8.166   9.618  0.5829 -1.3232 -1.1343
  738MOL0     H 1780  10.671   8.216   9.625 -1.6422 -1.8735  3.6109
  738MOL0     H 1781  10.609   8.454   9.561  1.4559  0.8504  2.6770
  738MOL0     H 1782  10.435   8.418   9.582 -1.3577 -1.7633  0.3013
  738MOL0     H 1783  10.610   8.368   9.826 -1.4650 -2.8426 -2.7253
  738MOL0     H 1784  10.563   8.536   9.778 -1.2648  1.2130  0.8134
  738MOL0     H 1785  10.356   8.307   9.796  1.9646 -0.7017 -0.9158
  738MOL0     H 1786  10.333   8.486   9.818  0.8067  0.5766  0.4734
  738MOL0     H 1787  10.465   8.274   9.988 -1.8057 -0.5985 -2.2838
  738MOL0     H 1788  10.509   8.436  10.010 -0.6954  0.1277 -0.4933
  738MOL0     H 1789  10.294   8.318  10.156 -1.7435  1.0729  0.4301
  738MOL0     H 1790  10.213   8.332  10.003  0.0054  0.1124 -0.5887
  738MOL0     H 1791  10.332   8.575  10.127 -0.6501 -0.9829 -1.1402
  738MOL0     H 1792  10.199   8.570  10.013 -2.0773  0.5904  0.4577
  738MOL0     H 1793  10.049   8.316  10.168 -2.4854  1.2684 -0.4521
  738MOL0     H 1794   9.881   8.411  10.507 -1.6234  1.4681  0.3226
  738MOL0     H 1795   9.864   8.275  10.391 -0.4137  1.0966  0.4416
  738MOL0     H 1796   9.732   8.548  10.394  0.3645  1.0781 -0.8016
  738MOL0     H 1797   9.713   8.431  10.252 -0.1274  0.5013 -0.7743
  738MOL0     H 1798   9.520   8.405  10.347  2.5769  3.6391 -0.6589
  738MOL0     H 1799   9.611   8.254  10.390  1.5078 -0.4959 -0.2056
  738MOL0     H 1800   9.647   8.344  10.618  1.0540 -1.5183 -3.9697
  738MOL0     H 1801   9.568   8.502  10.586 -2.0332 -0.1237  1.3442
  738MOL0     H 1802   9.218   8.264  10.690 -1.6769  0.4138 -1.1579
  738MOL0     H 1803   8.986   8.487  10.835  1.0288 -3.4877  3.2640
  738MOL0     H 1804   9.010   8.315  10.827 -0.7360  0.4213 -0.0149
  738MOL0     H 1805   8.899   8.383  10.714 -0.5890 -2.4182  1.0423
  738MOL0     H 1806   8.822   8.884  10.788 -1.8322  1.1532  1.2247
  738MOL0     H 1807   8.699   9.100  10.784  0.2044 -3.5586  0.4008
  738MOL0     H 1808   8.849   9.377  10.539  0.4945 -0.4360  1.1210
  738MOL0     H 1809   8.696   9.389  10.443 -1.3375 -1.1354  0.5559
  738MOL0     H 1810   8.593   9.490  10.650 -0.5574 -0.3458 -1.6000
  738MOL0     H 1811   8.756   9.504  10.714 -2.2186  0.7296  1.7168
  738MOL0     H 1812   8.784   9.674  10.521  0.5903 -1.9016 -0.8905
  738MOL0     H 1813   8.655   9.700  10.653 -3.1416 -4.1927  1.0067
  738MOL0     H 1814   8.479   9.652  10.520 -1.3859  3.3882 -1.6644
  738MOL0     H 1815   8.590   9.588  10.382  0.5969 -1.0994  0.2876
  738MOL0     H 1816   8.576   9.870  10.464  0.1576 -0.6317  0.9549
  738MOL0     H 1817   8.646   9.806  10.316  1.8978 -0.6055  0.6771
  738MOL0     H 1818   8.418   9.920  10.293 -0.1616  0.0077 -1.5522
  738MOL0     H 1819   8.351   9.810  10.405 -0.4662  1.8128 -0.9369
  738MOL0     H 1820   8.382   9.622  10.264  3.2461  0.4134  0.8949
  738MOL0     H 1821   8.472   9.703  10.137  1.6894 -0.3710 -0.2647
  738MOL0     H 1822   8.279   9.692  10.050  0.3526  0.1645 -0.4049
  738MOL0     H 1823   8.276   9.862  10.113 -1.7680  0.3401 -0.2381
  738MOL0     H 1824   8.878   9.195  10.415  1.6617 -1.3782 -0.4767
  738MOL0     H 1825   9.010   8.997  10.415  0.8307  1.8033  0.0285
  738MOL0     H 1826   9.213   8.724  10.518  0.4666 -0.5964 -1.4126
  738MOL0     H 1827   9.414   8.586  10.484  0.4604 -2.4964 -1.0182
  738MOL0     H 1828  10.805   8.225   9.213 -1.1341  0.3698  1.3147
  738MOL0     H 1829  10.796   8.168   8.963  1.9826  0.4571  0.7477
  738MOL0     H 1830  10.743   7.651   8.677 -0.0224 -0.6185 -2.3532
  738MOL0     H 1831  10.763   7.621   8.437 -0.5871  0.9669 -1.8264
  738MOL0     H 1832  10.894   7.927   8.169 -0.3827  0.5032 -0.8791
  738MOL0     H 1833  10.973   7.765   8.191 -1.0159  0.3115 -0.0544
  738MOL0     H 1834  10.737   7.780   8.024 -0.0556  1.5590 -0.8148
  738MOL0     H 1835  10.832   7.630   8.069 -3.9806  0.0950 -1.8196
  738MOL0     H 1836  11.015   7.685   7.930 -0.6883 -0.7968  2.7248
  738MOL0     H 1837  10.872   7.725   7.835 -0.8300  2.6493 -0.8800
  738MOL0     H 1838  11.034   7.912   7.812 -0.7555 -2.1450 -1.5639
  738MOL0     H 1839  11.051   7.925   7.982 -1.6766  1.9284  0.4943
  738MOL0     H 1840  10.701   8.141   7.929  1.0034  0.2971  0.9778
  738MOL0     H 1841  10.781   8.026   8.356  1.6595 -3.2174 -3.8531
  738MOL0     H 1842  10.843   8.154   8.685 -1.2382  0.8907  0.0139
  738MOL0     H 1843  10.786   8.190   8.528 -2.9886  1.4893  0.0611
  738MOL0     H 1844  10.669   8.132   8.643  0.6464  1.1575  0.2089
  739MOL0     O 1845   5.103   1.209   5.417 -1.1424 -0.4628  1.2339
  739MOL0     C 1846   5.151   1.309   5.357 -0.0965  0.3436 -0.2125
  739MOL0     O 1847   5.238   1.300   5.248 -0.5201  0.2900 -1.3849
  739MOL0     C 1848   5.237   1.182   5.182 -0.8997 -0.0942 -0.0825
  739MOL0     C 1849   5.319   1.075   5.226  0.5871 -0.3014  1.4013
  739MOL0     C 1850   5.321   0.969   5.135  0.1455  0.1044 -0.3488
  739MOL0     C 1851   5.255   0.965   5.015 -0.7418  0.0034 -0.1642
  739MOL0     O 1852   5.283   0.854   4.935 -0.1985  1.1690  0.0588
  739MOL0     C 1853   5.358   0.882   4.811 -0.0419 -0.1465 -1.0534
  739MOL0     C 1854   5.373   0.760   4.732  0.3408 -0.4965  0.1826
  739MOL0     C 1855   5.460   0.798   4.611 -0.0060  0.2238  0.2570
  739MOL0     C 1856   5.526   0.669   4.553  0.1393 -0.0859 -0.1742
  739MOL0     C 1857   5.656   0.707   4.478 -0.2648  0.5976  0.3332
  739MOL0     C 1858   5.713   0.584   4.414  0.3815  0.8685  0.5395
  739MOL0     C 1859   5.644   0.533   4.288  0.1994 -0.3029 -0.1730
  739MOL0     C 1860   5.728   0.404   4.241 -0.3520  0.1820 -0.3102
  739MOL0     N 1861   5.659   0.341   4.131 -0.2733  0.6606  0.1020
  739MOL0     C 1862   5.652   0.388   4.001  0.2327  0.0470 -0.2293
  739MOL0     C 1863   5.618   0.276   3.927 -0.0774 -0.6998  0.6261
  739MOL0     C 1864   5.626   0.286   3.772  1.0726 -0.3053  0.5329
  739MOL0     C 1865   5.531   0.190   3.691  0.2990 -0.6114 -0.3631
  739MOL0     C 1866   5.546   0.210   3.537  0.4228 -0.3939  0.2691
  739MOL0     C 1867   5.508   0.080   3.468  0.4969  0.2176 -0.3801
  739MOL0     O 1868   5.604  -0.025   3.483 -0.4355 -0.1940  0.0181
  739MOL0     C 1869   5.553  -0.152   3.468 -0.4054  0.8482  0.6501
  739MOL0     C 1870   5.604  -0.254   3.546  0.0430 -0.8548 -0.1294
  739MOL0     C 1871   5.563  -0.388   3.542  0.2708 -0.1406  0.1606
  739MOL0     C 1872   5.609  -0.484   3.649 -0.0355 -2.1511 -0.6851
  739MOL0     C 1873   5.473  -0.420   3.436  0.2332 -0.4580 -0.0800
  739MOL0     C 1874   5.409  -0.561   3.416 -0.0221 -0.4780 -0.5581
  739MOL0     O 1875   5.466  -0.665   3.492 -0.4966 -0.0829  0.2746
  739MOL0     C 1876   5.386  -0.770   3.510 -1.3059 -0.6788 -0.6786
  739MOL0     C 1877   5.277  -0.756   3.602 -0.5895  0.5431  0.6266
  739MOL0     C 1878   5.192  -0.869   3.622  0.8844 -0.8819  0.7225
  739MOL0     C 1879   5.224  -1.001   3.565  0.0186 -0.0162  0.0675
  739MOL0     O 1880   5.132  -1.100   3.583 -0.0383 -0.6841  0.3395
  739MOL0     C 1881   5.172  -1.233   3.597 -1.1603 -0.6024 -0.8948
  739MOL0     C 1882   5.037  -1.313   3.599 -0.9358 -0.4927  0.2355
  739MOL0     C 1883   4.978  -1.317   3.466 -0.8336 -0.5047 -0.6149
  739MOL0     C 1884   4.845  -1.386   3.471  0.4780  0.3457 -0.0652
  739MOL0     C 1885   4.764  -1.358   3.339  0.3322  0.1036  0.4753
  739MOL0     C 1886   4.614  -1.388   3.353  0.1265 -0.0213 -0.3602
  739MOL0     C 1887   4.526  -1.343   3.240  0.7011 -0.3971 -0.0143
  739MOL0     C 1888   4.385  -1.362   3.266 -0.1573 -0.1223  1.5680
  739MOL0    Cl 1889   4.315  -1.240   3.389 -0.0486  0.7491 -0.3425
  739MOL0     C 1890   5.335  -1.012   3.477 -0.5099 -0.3599 -0.3845
  739MOL0     C 1891   5.409  -0.897   3.448  0.4145  0.1112 -0.0753
  739MOL0     O 1892   5.308  -0.575   3.349  0.1321 -0.1440  0.1210
  739MOL0     C 1893   5.419  -0.324   3.349 -0.3659 -0.6745  0.2171
  739MOL0     C 1894   5.453  -0.189   3.367 -1.4796  0.6558  0.0961
  739MOL0     N 1895   5.595   0.173   4.019  0.8362 -0.0153 -1.0084
  739MOL0     N 1896   5.642   0.204   4.135 -0.3538  0.8677 -0.0066
  739MOL0     C 1897   5.168   1.073   4.977 -0.1703  0.5211 -0.2738
  739MOL0     C 1898   5.165   1.184   5.064  0.2483  1.0135  0.4417
  739MOL0     C 1899   5.136   1.446   5.412 -0.3303  0.0227  0.6759
  739MOL0     C 1900   5.206   1.549   5.350  0.6006 -0.2235  0.5639
  739MOL0     C 1901   5.188   1.687   5.374 -0.3434  1.1389  0.2997
  739MOL0     C 1902   5.092   1.722   5.467  0.3410 -0.3398 -0.4800
  739MOL0     O 1903   5.050   1.850   5.493 -0.9195  0.0770 -0.3145
  739MOL0     C 1904   5.080   1.947   5.395  0.1667  0.8271  1.5110
  739MOL0     C 1905   5.012   2.078   5.437  0.3652 -0.0895 -0.1037
  739MOL0     C 1906   4.860   2.061   5.473 -0.1988 -0.6341  1.4939
  739MOL0     C 1907   4.774   2.197   5.477 -0.5523  0.4609 -0.5207
  739MOL0     C 1908   4.829   2.278   5.587 -0.3528  0.6099  0.3295
  739MOL0     C 1909   4.835   2.341   5.690  0.2702 -0.7273  1.1432
  739MOL0     C 1910   5.030   1.621   5.539  0.6477  0.1480  0.2536
  739MOL0     C 1911   5.051   1.482   5.510  0.4775 -0.1260 -0.1776
  739MOL0     C 1912   4.985   1.383   5.605 -0.1973 -0.6230  0.0117
  739MOL0     H 1913   5.370   1.079   5.322  1.9756  2.9683  0.6954
  739MOL0     H 1914   5.369   0.874   5.153 -3.4199 -1.7724  0.1727
  739MOL0     H 1915   5.456   0.914   4.845 -1.2423  0.6184  2.0466
  739MOL0     H 1916   5.311   0.954   4.742 -1.6808  0.6602  0.8067
  739MOL0     H 1917   5.410   0.682   4.798 -3.5324 -1.5596  1.3717
  739MOL0     H 1918   5.275   0.715   4.709  0.5446 -0.2631 -1.2795
  739MOL0     H 1919   5.416   0.858   4.531  1.5481  2.5588  1.0660
  739MOL0     H 1920   5.542   0.863   4.640  1.8182 -0.6900 -2.4663
  739MOL0     H 1921   5.555   0.601   4.633  0.6367 -2.0685 -1.9471
  739MOL0     H 1922   5.450   0.618   4.493  0.1838 -0.4340  0.0643
  739MOL0     H 1923   5.729   0.731   4.556  0.0952 -0.5006  0.3540
  739MOL0     H 1924   5.644   0.796   4.416  0.3830 -1.1387 -2.4683
  739MOL0     H 1925   5.818   0.607   4.398  0.9876  1.2430  4.1368
  739MOL0     H 1926   5.708   0.507   4.492 -0.5481 -0.9312 -1.1828
  739MOL0     H 1927   5.657   0.615   4.216 -0.8294  0.3733  0.3882
  739MOL0     H 1928   5.538   0.512   4.305  0.1382 -0.2916 -0.5349
  739MOL0     H 1929   5.827   0.429   4.202 -0.7941  2.7798  0.0215
  739MOL0     H 1930   5.749   0.334   4.322  0.9122  1.6865  0.7236
  739MOL0     H 1931   5.664   0.492   3.974 -2.1709  0.2411 -0.7943
  739MOL0     H 1932   5.731   0.283   3.741  1.2434  0.4715  1.0016
  739MOL0     H 1933   5.596   0.389   3.749 -1.4712 -1.5748 -2.6007
  739MOL0     H 1934   5.544   0.084   3.717  0.5216 -0.5565 -0.2378
  739MOL0     H 1935   5.426   0.201   3.719 -0.1995 -2.2373 -1.4772
  739MOL0     H 1936   5.477   0.293   3.515 -4.2083 -3.2417  2.3693
  739MOL0     H 1937   5.649   0.242   3.519  0.1586  0.9989  1.0377
  739MOL0     H 1938   5.411   0.046   3.505  1.4709  0.9753  3.3364
  739MOL0     H 1939   5.497   0.098   3.361  4.0492 -1.0056 -1.0946
  739MOL0     H 1940   5.672  -0.216   3.621 -0.2982  1.5902 -0.9643
  739MOL0     H 1941   5.675  -0.563   3.611  3.3127  0.2306 -0.2885
  739MOL0     H 1942   5.519  -0.521   3.699 -0.9824 -0.2927 -0.9277
  739MOL0     H 1943   5.649  -0.416   3.725 -0.5146 -2.3019 -0.2947
  739MOL0     H 1944   5.252  -0.659   3.645 -3.0728  1.8704 -3.2421
  739MOL0     H 1945   5.115  -0.840   3.692  2.2257  2.8563  0.9193
  739MOL0     H 1946   5.238  -1.256   3.513 -0.6497 -0.2230 -0.6035
  739MOL0     H 1947   5.219  -1.253   3.694  0.4088  3.0140 -0.7385
  739MOL0     H 1948   5.055  -1.414   3.636  2.3942 -0.9957 -2.2451
  739MOL0     H 1949   4.970  -1.260   3.667 -1.4043  0.3802 -0.8660
  739MOL0     H 1950   5.040  -1.372   3.394 -0.6954 -1.3546  0.1453
  739MOL0     H 1951   4.959  -1.215   3.431 -3.8837 -0.8327 -0.1767
  739MOL0     H 1952   4.787  -1.350   3.557 -0.1122  0.3706 -0.4672
  739MOL0     H 1953   4.849  -1.493   3.489  0.4233 -0.0531 -2.1936
  739MOL0     H 1954   4.767  -1.256   3.301 -0.9173  0.0062  0.0543
  739MOL0     H 1955   4.792  -1.431   3.263  0.1397 -0.4796  0.9501
  739MOL0     H 1956   4.587  -1.336   3.446  0.3558 -0.5359 -0.0053
  739MOL0     H 1957   4.588  -1.492   3.374 -0.2408  0.0615 -0.4019
  739MOL0     H 1958   4.565  -1.402   3.156  0.1403 -0.0621 -0.5157
  739MOL0     H 1959   4.539  -1.238   3.213 -3.4673  0.3254  0.2055
  739MOL0     H 1960   4.358  -1.462   3.299 -1.8166 -0.5216 -0.7184
  739MOL0     H 1961   4.328  -1.355   3.172 -0.1068  1.5233  1.6268
  739MOL0     H 1962   5.374  -1.111   3.458  0.4615 -0.7202  2.8794
  739MOL0     H 1963   5.487  -0.896   3.373 -1.4723  0.7790 -2.1562
  739MOL0     H 1964   5.346  -0.349   3.273 -0.1414 -0.3360 -0.1078
  739MOL0     H 1965   5.405  -0.110   3.310 -2.3302  0.0261 -0.0767
  739MOL0     H 1966   5.100   1.065   4.893  0.6059 -0.0571 -0.8640
  739MOL0     H 1967   5.110   1.271   5.028  1.2784  2.1000  1.3904
  739MOL0     H 1968   5.283   1.523   5.278  0.0269  0.1790 -0.2124
  739MOL0     H 1969   5.248   1.757   5.316  3.2816 -1.2969  0.7881
  739MOL0     H 1970   5.187   1.960   5.377  0.9874 -0.5991  4.7058
  739MOL0     H 1971   5.030   1.909   5.305  2.9152 -1.4839  0.8269
  739MOL0     H 1972   5.037   2.150   5.359 -1.3779  0.9495  0.2313
  739MOL0     H 1973   5.054   2.114   5.531 -2.2258 -1.0126  1.5326
  739MOL0     H 1974   4.814   2.003   5.393 -3.8272  3.0816  0.5176
  739MOL0     H 1975   4.834   2.019   5.571 -1.6585 -0.5417  1.1736
  739MOL0     H 1976   4.668   2.174   5.489 -0.8907  2.1145 -0.0667
  739MOL0     H 1977   4.783   2.265   5.392 -0.1447  0.6595 -0.3227
  739MOL0     H 1978   4.840   2.413   5.770 -2.2417  1.8777 -0.8621
  739MOL0     H 1979   4.961   1.643   5.620 -1.0546  0.7558 -1.2645
  739MOL0     H 1980   5.042   1.305   5.655 -1.4720 -1.9922 -0.5884
  739MOL0     H 1981   4.938   1.437   5.688 -1.4177  0.4849 -1.3272
  739MOL0     H 1982   4.906   1.325   5.556 -0.7212 -1.2492  1.5524
  740MOL0     O 1983   2.592   2.655   5.539  0.6306 -0.3101  0.0125
  740MOL0     C 1984   2.503   2.631   5.465  0.9805 -0.7673 -0.1462
  740MOL0     O 1985   2.375   2.678   5.471  0.9633 -0.0526  0.1677
  740MOL0     C 1986   2.335   2.766   5.571 -0.3111  0.4424  0.8796
  740MOL0     C 1987   2.219   2.731   5.644 -0.5354 -0.2487 -0.6973
  740MOL0     C 1988   2.191   2.813   5.747 -0.8361 -0.1984 -0.3136
  740MOL0     C 1989   2.263   2.921   5.779 -0.2848  0.6592 -0.2928
  740MOL0     O 1990   2.207   3.009   5.870  0.6092  0.2552 -0.0933
  740MOL0     C 1991   2.206   3.151   5.853 -0.4017 -0.4845 -0.8222
  740MOL0     C 1992   2.105   3.226   5.930  0.3568  0.3319 -0.0389
  740MOL0     C 1993   2.112   3.375   5.916 -0.3286 -1.2007 -0.6966
  740MOL0     C 1994   2.142   3.434   5.781 -0.0462  0.2357 -0.0905
  740MOL0     C 1995   2.095   3.582   5.776  0.4361 -0.1873  0.1288
  740MOL0     C 1996   2.184   3.676   5.865 -0.8047 -0.3765 -1.0620
  740MOL0     C 1997   2.122   3.812   5.879 -0.4933  0.2785 -0.5855
  740MOL0     C 1998   2.183   3.892   6.005 -0.3660  0.3520 -0.5398
  740MOL0     N 1999   2.125   4.026   6.007  0.6468  0.1622 -0.5404
  740MOL0     C 2000   2.002   4.057   6.063  0.3692 -0.7023 -0.2155
  740MOL0     C 2001   1.986   4.189   6.032 -0.0385 -0.6238  0.2087
  740MOL0     C 2002   1.866   4.272   6.064 -0.4188 -0.5140  0.1545
  740MOL0     C 2003   1.894   4.426   6.074  0.5530  0.2205  0.0602
  740MOL0     C 2004   1.761   4.480   6.127 -0.6108  0.5860 -0.2931
  740MOL0     C 2005   1.775   4.615   6.196  0.0817 -0.2806 -0.5308
  740MOL0     O 2006   1.803   4.712   6.100  0.3799 -0.2150  0.5557
  740MOL0     C 2007   1.830   4.836   6.149 -0.3639 -0.7272  0.0221
  740MOL0     C 2008   1.884   4.937   6.061  0.2136  0.2222  0.0919
  740MOL0     C 2009   1.897   5.072   6.095 -0.1987  0.1349  0.8287
  740MOL0     C 2010   1.971   5.170   6.004 -0.1534 -0.2670 -1.2078
  740MOL0     C 2011   1.855   5.115   6.220 -0.3036 -0.1712 -0.2923
  740MOL0     C 2012   1.864   5.260   6.266  0.3719 -0.3632  0.4753
  740MOL0     O 2013   1.753   5.342   6.234 -0.6840  0.4707 -0.3475
  740MOL0     C 2014   1.742   5.454   6.313 -0.0781  0.7286 -0.1779
  740MOL0     C 2015   1.733   5.444   6.450  0.8185 -1.2332 -0.2408
  740MOL0     C 2016   1.704   5.566   6.516 -0.3569 -0.3762 -0.7515
  740MOL0     C 2017   1.707   5.689   6.451  0.4173 -0.0384  0.6079
  740MOL0     O 2018   1.689   5.804   6.527  0.0740  0.9496 -0.4209
  740MOL0     C 2019   1.738   5.926   6.455 -0.6993  0.2381 -0.2972
  740MOL0     C 2020   1.753   6.053   6.543  0.3246  0.1548  0.4652
  740MOL0     C 2021   1.833   6.165   6.477  0.3019 -0.1910 -0.3842
  740MOL0     C 2022   1.831   6.288   6.571  1.0027  0.0354 -0.1070
  740MOL0     C 2023   1.939   6.385   6.535 -0.3773 -1.1738 -0.0470
  740MOL0     C 2024   2.078   6.341   6.597  0.4926  0.4293  0.2848
  740MOL0     C 2025   2.184   6.436   6.550 -0.7494 -0.1525 -0.8151
  740MOL0     C 2026   2.329   6.403   6.597  0.0671 -1.1191 -0.5945
  740MOL0    Cl 2027   2.384   6.248   6.550 -0.0317  0.4026 -0.4501
  740MOL0     C 2028   1.733   5.695   6.316 -0.1989  0.9344  0.1291
  740MOL0     C 2029   1.743   5.577   6.240  0.1891  0.3540  0.0457
  740MOL0     O 2030   1.965   5.294   6.319 -0.5304 -0.2902  0.3774
  740MOL0     C 2031   1.810   5.014   6.307  0.1833  0.0439 -0.5279
  740MOL0     C 2032   1.803   4.885   6.278  0.4390  0.3084 -0.5910
  740MOL0     N 2033   2.115   4.242   5.993  1.2249  0.7553  0.6108
  740MOL0     N 2034   2.192   4.142   5.989 -0.3861  0.4171 -0.2671
  740MOL0     C 2035   2.373   2.958   5.701 -0.1043 -0.0467  0.7032
  740MOL0     C 2036   2.407   2.882   5.589 -0.3767  0.0658 -0.0080
  740MOL0     C 2037   2.529   2.528   5.365 -0.4538  0.4571 -0.2182
  740MOL0     C 2038   2.588   2.407   5.406 -0.7658 -0.2621 -0.4394
  740MOL0     C 2039   2.619   2.294   5.324  0.0007 -0.6868 -0.2300
  740MOL0     C 2040   2.596   2.302   5.183  0.1941  0.2172 -0.2365
  740MOL0     O 2041   2.607   2.200   5.090 -0.6058 -0.2347 -0.3462
  740MOL0     C 2042   2.678   2.084   5.133  0.2817 -0.3368 -0.2772
  740MOL0     C 2043   2.595   1.973   5.206 -0.7252  0.2472 -0.3578
  740MOL0     C 2044   2.492   1.901   5.127 -0.0754 -0.6695  0.1805
  740MOL0     C 2045   2.533   1.866   4.983  0.6525  0.5970 -0.3146
  740MOL0     C 2046   2.660   1.791   4.971 -0.1240  0.5197 -0.0893
  740MOL0     C 2047   2.757   1.722   4.950 -1.1478 -0.2977  0.7022
  740MOL0     C 2048   2.539   2.424   5.138 -0.4596 -0.6792 -0.3128
  740MOL0     C 2049   2.514   2.534   5.222  0.0080 -0.2627 -0.6170
  740MOL0     C 2050   2.459   2.652   5.152 -0.3977 -0.3054  0.5185
  740MOL0     H 2051   2.161   2.642   5.622 -2.1576  0.6200 -0.1152
  740MOL0     H 2052   2.119   2.784   5.823  1.2794  1.1966  2.4130
  740MOL0     H 2053   2.193   3.180   5.748 -3.4795  0.9450 -0.1614
  740MOL0     H 2054   2.304   3.184   5.888 -0.8815 -0.5063  0.5963
  740MOL0     H 2055   2.005   3.201   5.896  0.2469  0.7512 -0.0241
  740MOL0     H 2056   2.118   3.190   6.033 -1.5383 -1.4461 -0.3565
  740MOL0     H 2057   2.022   3.420   5.960  0.3658 -0.3604 -0.0948
  740MOL0     H 2058   2.188   3.400   5.990  1.9007 -1.4221 -2.8087
  740MOL0     H 2059   2.247   3.421   5.754  0.9436  1.9309  2.5252
  740MOL0     H 2060   2.077   3.375   5.716 -0.5868 -2.5037  2.6818
  740MOL0     H 2061   1.988   3.587   5.799  0.6301  0.8700  0.8991
  740MOL0     H 2062   2.104   3.624   5.675 -2.9326 -2.5101 -1.3192
  740MOL0     H 2063   2.191   3.631   5.965  1.5395 -0.5383 -1.2377
  740MOL0     H 2064   2.287   3.675   5.828  0.1410 -2.1497  1.3190
  740MOL0     H 2065   2.016   3.790   5.889  0.2254 -3.3484  0.7410
  740MOL0     H 2066   2.144   3.875   5.792  2.3310  0.6923  0.2975
  740MOL0     H 2067   2.157   3.834   6.093  0.1642  2.8941  1.4005
  740MOL0     H 2068   2.291   3.910   5.996 -0.5494  1.6965 -0.2117
  740MOL0     H 2069   1.923   3.997   6.108  1.1007 -1.2145  0.4096
  740MOL0     H 2070   1.826   4.241   6.161 -0.5511 -0.6212  0.0655
  740MOL0     H 2071   1.786   4.251   5.993  0.5139  0.8191 -1.3415
  740MOL0     H 2072   1.982   4.433   6.139 -1.7942  1.1434  3.4308
  740MOL0     H 2073   1.919   4.472   5.978  1.5246 -1.8078 -0.7167
  740MOL0     H 2074   1.698   4.473   6.038  0.3442  0.0255 -0.9445
  740MOL0     H 2075   1.714   4.419   6.205 -1.5259  1.5543 -0.0644
  740MOL0     H 2076   1.683   4.640   6.249 -0.5202  2.7680 -2.7388
  740MOL0     H 2077   1.864   4.603   6.259 -0.9453  1.7295  1.4246
  740MOL0     H 2078   1.904   4.902   5.960 -3.0768 -0.0854 -0.5693
  740MOL0     H 2079   2.069   5.196   6.043 -0.5128  0.9993 -1.1089
  740MOL0     H 2080   1.915   5.264   5.994 -2.1664 -1.5552 -3.1002
  740MOL0     H 2081   1.980   5.119   5.908 -1.0091  1.3058 -2.1750
  740MOL0     H 2082   1.744   5.353   6.508  1.4519  0.5647  2.6476
  740MOL0     H 2083   1.687   5.560   6.623  0.2042 -0.3099 -0.6572
  740MOL0     H 2084   1.839   5.907   6.418 -0.7198  0.8908 -0.7060
  740MOL0     H 2085   1.667   5.946   6.374  0.7257  2.5407 -1.0750
  740MOL0     H 2086   1.654   6.097   6.556  0.7750  0.9898  1.1666
  740MOL0     H 2087   1.786   6.021   6.642 -0.2856 -1.7927  0.0936
  740MOL0     H 2088   1.797   6.186   6.376 -2.8824  0.7422  0.8250
  740MOL0     H 2089   1.937   6.132   6.477 -0.0598 -1.4523  1.1428
  740MOL0     H 2090   1.850   6.258   6.674 -0.0332 -0.3876 -0.0222
  740MOL0     H 2091   1.731   6.331   6.566 -0.1274 -2.4337 -4.2522
  740MOL0     H 2092   1.955   6.386   6.426 -3.5360  0.6412 -0.6075
  740MOL0     H 2093   1.902   6.481   6.570  1.3587  1.0468 -3.7068
  740MOL0     H 2094   2.093   6.234   6.581 -1.8416  0.3293 -1.8445
  740MOL0     H 2095   2.076   6.357   6.705 -0.4115 -3.2884  0.9255
  740MOL0     H 2096   2.143   6.529   6.589 -3.2257 -1.4381 -0.1093
  740MOL0     H 2097   2.196   6.439   6.441  0.6185 -1.4955 -0.7417
  740MOL0     H 2098   2.333   6.407   6.707 -0.8557 -2.7233 -0.4667
  740MOL0     H 2099   2.395   6.488   6.577 -0.7915 -0.5192 -0.9921
  740MOL0     H 2100   1.751   5.788   6.262 -0.5650  0.6004 -0.5900
  740MOL0     H 2101   1.770   5.592   6.136 -1.6217  0.7272 -0.4086
  740MOL0     H 2102   1.789   5.037   6.412  0.3828 -0.4047 -0.3884
  740MOL0     H 2103   1.780   4.811   6.354  2.2149 -1.3264 -1.5413
  740MOL0     H 2104   2.423   3.047   5.739  1.8078 -1.3769  1.4141
  740MOL0     H 2105   2.485   2.918   5.522 -2.2829 -0.1189 -2.4757
  740MOL0     H 2106   2.611   2.390   5.511  2.1616  4.2024 -0.0970
  740MOL0     H 2107   2.670   2.207   5.365  2.5125  0.1334 -1.4077
  740MOL0     H 2108   2.728   2.052   5.042  2.5233 -1.6534  1.3085
  740MOL0     H 2109   2.760   2.116   5.198  0.2620 -0.9937  0.0809
  740MOL0     H 2110   2.545   2.011   5.295 -0.4203 -0.8317  0.2955
  740MOL0     H 2111   2.673   1.904   5.241 -0.2027  1.2437  0.5099
  740MOL0     H 2112   2.460   1.809   5.176 -0.3479 -1.5260 -1.5351
  740MOL0     H 2113   2.403   1.965   5.115  0.2997 -0.1578  0.1012
  740MOL0     H 2114   2.534   1.963   4.933  0.1729  0.5052 -0.5146
  740MOL0     H 2115   2.447   1.809   4.946  0.3567  1.1841 -0.5478
  740MOL0     H 2116   2.841   1.656   4.942  0.0082  1.3605 -2.5777
  740MOL0     H 2117   2.523   2.443   5.032 -0.0901 -0.1374 -0.2725
  740MOL0     H 2118   2.367   2.691   5.197 -0.8164  2.1057 -2.2192
  740MOL0     H 2119   2.533   2.732   5.156  0.4876 -1.0710 -0.2423
  740MOL0     H 2120   2.435   2.639   5.046 -1.0898 -0.9750  0.7412
  741MOL0     O 2121   9.805   6.041   7.675  0.1603  0.1848  0.3549
  741MOL0     C 2122   9.773   6.030   7.553  0.6053  0.3886  0.1208
  741MOL0     O 2123   9.868   6.031   7.448  0.1059 -1.1821 -0.1560
  741MOL0     C 2124  10.005   6.036   7.467  0.1487  0.2028  0.8667
  741MOL0     C 2125  10.075   6.117   7.372  0.0413 -0.3173 -0.0819
  741MOL0     C 2126  10.217   6.110   7.383  0.0102  0.2793  0.0420
  741MOL0     C 2127  10.281   6.029   7.478  0.2705  0.1043  0.7090
  741MOL0     O 2128  10.410   6.033   7.512 -0.1518 -0.1419  0.0169
  741MOL0     C 2129  10.499   6.123   7.460  0.4333 -0.3749 -0.1805
  741MOL0     C 2130  10.576   6.203   7.564 -0.3408 -0.1077  0.6438
  741MOL0     C 2131  10.474   6.291   7.635  0.3074 -0.6832 -0.6625
  741MOL0     C 2132  10.548   6.381   7.732  0.1047 -0.1165  0.3760
  741MOL0     C 2133  10.445   6.457   7.804  0.3003 -0.5938 -0.0072
  741MOL0     C 2134  10.510   6.581   7.853  0.1837 -1.0863  1.0443
  741MOL0     C 2135  10.402   6.675   7.918 -0.2818  0.1546  0.9581
  741MOL0     C 2136  10.467   6.802   7.971 -1.0063 -0.2387 -0.1143
  741MOL0     N 2137  10.508   6.900   7.873  0.1591 -0.8642 -0.6406
  741MOL0     C 2138  10.435   6.995   7.806  0.7369  0.5111 -0.2836
  741MOL0     C 2139  10.521   7.066   7.740 -0.3854  0.9666  0.4628
  741MOL0     C 2140  10.498   7.205   7.676 -0.1925  0.4619 -0.2522
  741MOL0     C 2141  10.503   7.320   7.775  0.4694 -1.8606 -0.4341
  741MOL0     C 2142  10.642   7.365   7.830  0.7780  0.3683 -0.2053
  741MOL0     C 2143  10.682   7.504   7.789 -0.0435 -0.3796  0.3409
  741MOL0     O 2144  10.730   7.502   7.650  0.2519 -0.3139  0.0846
  741MOL0     C 2145  10.848   7.429   7.623  0.2674 -0.7257  0.5228
  741MOL0     C 2146  10.849   7.349   7.504 -0.3774  1.0392  0.3065
  741MOL0     C 2147  10.957   7.270   7.462  0.4095 -0.1931 -0.2190
  741MOL0     C 2148  10.942   7.184   7.337  0.4446 -0.2483  0.5191
  741MOL0     C 2149  11.076   7.285   7.536  0.0288  0.0654  0.1715
  741MOL0     C 2150  11.214   7.233   7.479 -1.0190 -0.0994 -0.7524
  741MOL0     O 2151  11.320   7.266   7.552  0.3735  0.3047 -0.5815
  741MOL0     C 2152  11.445   7.273   7.497  0.7398 -0.7360 -0.2419
  741MOL0     C 2153  11.464   7.347   7.381 -0.6503  0.1144  0.3930
  741MOL0     C 2154  11.587   7.352   7.318  0.4582  0.3346  0.1776
  741MOL0     C 2155  11.699   7.293   7.371  1.1161 -0.8203  0.2095
  741MOL0     O 2156  11.825   7.315   7.322 -0.4582  0.4999 -0.7989
  741MOL0     C 2157  11.857   7.401   7.204 -0.4359  0.1771  0.6253
  741MOL0     C 2158  12.006   7.398   7.173 -0.3386  0.8684 -0.1198
  741MOL0     C 2159  12.058   7.517   7.108 -0.3385  0.2558  0.1160
  741MOL0     C 2160  12.001   7.535   6.965 -0.2768  0.7103 -0.0330
  741MOL0     C 2161  12.092   7.639   6.896  0.1577 -0.2437  0.3624
  741MOL0     C 2162  12.018   7.701   6.775  0.2865 -0.0523  0.0291
  741MOL0     C 2163  12.092   7.830   6.735 -0.0484  0.4481 -0.3840
  741MOL0     C 2164  12.024   7.872   6.610 -1.1008 -0.9229  0.1279
  741MOL0    Cl 2165  11.851   7.898   6.652 -0.1942  0.3138 -0.1676
  741MOL0     C 2166  11.681   7.233   7.490 -0.5666 -0.2596  0.3583
  741MOL0     C 2167  11.560   7.215   7.559  0.9306 -0.4108 -0.5458
  741MOL0     O 2168  11.223   7.155   7.386  0.1849  0.9173 -0.3149
  741MOL0     C 2169  11.081   7.362   7.655  0.7746  0.4390  0.2544
  741MOL0     C 2170  10.968   7.428   7.703 -0.2051 -0.4803 -0.4644
  741MOL0     N 2171  10.647   7.000   7.748  0.5996  0.0070 -0.2557
  741MOL0     N 2172  10.637   6.910   7.831 -0.5542 -0.7744 -0.6193
  741MOL0     C 2173  10.202   5.946   7.562 -0.0709  0.3513  1.0063
  741MOL0     C 2174  10.061   5.958   7.561 -1.4036 -0.2709  0.1408
  741MOL0     C 2175   9.635   6.026   7.509  0.3958 -0.8007  0.3051
  741MOL0     C 2176   9.607   5.964   7.384 -0.2404 -0.9052 -0.2742
  741MOL0     C 2177   9.479   5.963   7.331  0.8999  0.1230  0.5402
  741MOL0     C 2178   9.370   6.018   7.402  0.7322 -0.2055  0.3328
  741MOL0     O 2179   9.240   5.999   7.363  0.3598 -0.3037 -0.0157
  741MOL0     C 2180   9.206   5.913   7.248 -0.0578 -0.5897 -0.2316
  741MOL0     C 2181   9.050   5.924   7.246  0.6034  0.3247  0.6029
  741MOL0     C 2182   8.971   5.906   7.378  0.4816  0.3700  0.6283
  741MOL0     C 2183   8.924   6.036   7.442  0.0610  0.1527  0.1565
  741MOL0     C 2184   8.815   6.084   7.366  0.8303 -1.2271  1.4240
  741MOL0     C 2185   8.727   6.114   7.290  1.2176 -0.2146  0.1030
  741MOL0     C 2186   9.401   6.086   7.524  0.4078  0.1167  1.0931
  741MOL0     C 2187   9.529   6.084   7.582  0.0820  0.5273  0.6036
  741MOL0     C 2188   9.536   6.152   7.713  0.3460 -0.1198 -0.9073
  741MOL0     H 2189  10.014   6.171   7.301 -4.0811 -3.1333  0.9422
  741MOL0     H 2190  10.284   6.165   7.318  1.4032 -1.7770 -0.3464
  741MOL0     H 2191  10.461   6.198   7.389 -2.3257 -0.7641  0.7599
  741MOL0     H 2192  10.577   6.064   7.412  2.1267  0.7332  1.0984
  741MOL0     H 2193  10.643   6.149   7.631 -1.5304 -1.9470  0.4171
  741MOL0     H 2194  10.642   6.266   7.504 -0.1535  1.9403  2.8335
  741MOL0     H 2195  10.419   6.348   7.560  1.3671 -0.2726 -1.1599
  741MOL0     H 2196  10.414   6.224   7.697 -1.4936  2.3237  1.0410
  741MOL0     H 2197  10.603   6.326   7.808  1.2133  0.4853  0.0274
  741MOL0     H 2198  10.628   6.436   7.682 -1.2079 -0.1423 -1.8817
  741MOL0     H 2199  10.408   6.403   7.892 -0.1790 -1.5222 -0.7514
  741MOL0     H 2200  10.366   6.487   7.735  2.0468  0.4959 -1.6453
  741MOL0     H 2201  10.588   6.551   7.924  1.9091 -1.4892 -0.9190
  741MOL0     H 2202  10.554   6.632   7.767 -4.2343 -2.2678 -2.2884
  741MOL0     H 2203  10.352   6.613   7.992  0.5691 -0.8244  0.7338
  741MOL0     H 2204  10.328   6.700   7.841  0.4409 -0.1306  0.1581
  741MOL0     H 2205  10.408   6.864   8.039  0.6152  0.4325  0.7414
  741MOL0     H 2206  10.562   6.770   8.015 -1.1402 -0.8892 -0.2919
  741MOL0     H 2207  10.329   7.017   7.816  0.0929 -2.3966  0.0261
  741MOL0     H 2208  10.395   7.196   7.642 -0.8669 -1.5814  2.0026
  741MOL0     H 2209  10.576   7.228   7.603 -0.9706  2.9635 -0.3969
  741MOL0     H 2210  10.465   7.400   7.711  0.2754 -1.4035  0.2347
  741MOL0     H 2211  10.429   7.302   7.854 -1.0413  0.6206 -1.1736
  741MOL0     H 2212  10.651   7.358   7.939  1.1951 -0.0712 -0.2616
  741MOL0     H 2213  10.714   7.286   7.804  0.3962  0.5369 -1.8755
  741MOL0     H 2214  10.600   7.573   7.808 -0.0364 -0.1397 -0.4524
  741MOL0     H 2215  10.755   7.545   7.860  1.9977 -0.4633 -1.5822
  741MOL0     H 2216  10.763   7.357   7.439 -0.4528  1.4553  0.4529
  741MOL0     H 2217  10.843   7.196   7.290  0.9216 -0.5491 -0.5981
  741MOL0     H 2218  10.948   7.078   7.364 -1.3837 -0.2214  1.1651
  741MOL0     H 2219  11.017   7.204   7.260  0.2902 -2.7024 -0.3608
  741MOL0     H 2220  11.378   7.392   7.332 -0.6510 -3.6718 -3.7519
  741MOL0     H 2221  11.593   7.392   7.217  2.1982 -1.9482 -0.7298
  741MOL0     H 2222  11.808   7.360   7.116  1.0376  0.8384 -0.5474
  741MOL0     H 2223  11.825   7.505   7.215 -1.9053  0.2050 -2.6903
  741MOL0     H 2224  12.062   7.384   7.266 -1.4789  3.8982  1.1676
  741MOL0     H 2225  12.023   7.307   7.116 -1.4137 -0.6331  1.8298
  741MOL0     H 2226  12.166   7.514   7.092 -0.5394 -0.7013 -1.2456
  741MOL0     H 2227  12.036   7.608   7.165  0.1833  1.9750 -2.2709
  741MOL0     H 2228  11.893   7.550   6.972 -0.8711 -3.0111  0.6593
  741MOL0     H 2229  12.008   7.439   6.913  1.1065 -0.5695  2.3325
  741MOL0     H 2230  12.112   7.719   6.968 -1.6685  1.2772 -0.7099
  741MOL0     H 2231  12.178   7.591   6.849 -1.9977 -2.9045 -1.1843
  741MOL0     H 2232  11.915   7.719   6.806  0.3812  0.4237  0.0827
  741MOL0     H 2233  12.023   7.626   6.695  0.8680 -1.7211  1.5641
  741MOL0     H 2234  12.194   7.798   6.710 -1.5102 -2.5388 -3.3102
  741MOL0     H 2235  12.077   7.909   6.809 -1.1314  0.2468 -0.3792
  741MOL0     H 2236  12.028   7.790   6.538 -0.0666  0.0295 -0.9304
  741MOL0     H 2237  12.072   7.961   6.568  0.2011 -1.5011  0.3333
  741MOL0     H 2238  11.774   7.197   7.532  1.4152  3.7502 -0.0465
  741MOL0     H 2239  11.565   7.160   7.653  3.6838  0.5321 -0.0181
  741MOL0     H 2240  11.177   7.382   7.700  3.3048 -2.3600 -3.3278
  741MOL0     H 2241  10.979   7.478   7.798  2.4668  0.7089 -1.3035
  741MOL0     H 2242  10.234   5.876   7.639  0.4649 -0.6825 -0.1034
  741MOL0     H 2243  10.003   5.893   7.626  1.1481 -0.6210  2.2427
  741MOL0     H 2244   9.691   5.907   7.346  0.4360  1.2535 -2.2428
  741MOL0     H 2245   9.467   5.907   7.239 -0.4651  3.3883 -1.4470
  741MOL0     H 2246   9.241   5.948   7.150 -2.8332  0.2177 -1.0273
  741MOL0     H 2247   9.229   5.812   7.283 -3.7945 -0.7105  2.4090
  741MOL0     H 2248   9.020   5.860   7.163  2.5397  1.3205 -0.9662
  741MOL0     H 2249   9.033   6.026   7.210  2.0220  0.7180  0.9598
  741MOL0     H 2250   8.877   5.852   7.361  1.3930 -1.0127 -0.2216
  741MOL0     H 2251   9.034   5.847   7.446 -0.2701 -2.2774 -0.8134
  741MOL0     H 2252   9.007   6.107   7.453 -0.2166  1.2829 -3.7306
  741MOL0     H 2253   8.883   6.021   7.543  2.2245 -2.0108  0.8031
  741MOL0     H 2254   8.646   6.123   7.220  2.0989 -1.7075 -1.1879
  741MOL0     H 2255   9.321   6.133   7.580  1.0405  1.7394  0.7122
  741MOL0     H 2256   9.440   6.190   7.749  0.2355  0.0024 -1.3261
  741MOL0     H 2257   9.563   6.071   7.782 -1.7555 -0.5952 -0.5498
  741MOL0     H 2258   9.609   6.232   7.722 -0.5236  0.5921 -0.0380
  742MOL0     O 2259   2.305   0.138   2.735 -0.1870  0.0942  0.1879
  742MOL0     C 2260   2.218   0.045   2.716 -0.3635 -0.6185  0.0615
  742MOL0     O 2261   2.243  -0.087   2.674 -0.8595 -0.0765 -0.1064
  742MOL0     C 2262   2.352  -0.110   2.586  0.0259  0.7288  0.0846
  742MOL0     C 2263   2.400  -0.018   2.492 -0.4251  0.1394  0.6288
  742MOL0     C 2264   2.507  -0.064   2.403  0.2301  0.3768 -0.7105
  742MOL0     C 2265   2.554  -0.193   2.415 -0.7031 -0.5722  0.0152
  742MOL0     O 2266   2.652  -0.229   2.332 -0.2114  0.3524  0.3146
  742MOL0     C 2267   2.773  -0.287   2.387 -0.5290  1.0066  0.0447
  742MOL0     C 2268   2.907  -0.208   2.379 -0.1732 -0.9172  0.1432
  742MOL0     C 2269   2.895  -0.061   2.379 -0.5761 -0.7474  0.7982
  742MOL0     C 2270   3.039   0.005   2.352 -0.4574 -0.4749 -0.4597
  742MOL0     C 2271   3.041   0.156   2.331  0.1046 -0.0633  0.3776
  742MOL0     C 2272   2.980   0.199   2.203 -0.6503 -0.4789 -0.2762
  742MOL0     C 2273   3.010   0.343   2.174 -0.8517  0.0902 -0.9687
  742MOL0     C 2274   2.916   0.392   2.062 -0.4793  0.1161  0.7804
  742MOL0     N 2275   2.931   0.316   1.939 -0.5464  0.1789  1.0623
  742MOL0     C 2276   3.010   0.353   1.832  0.8224  0.2359  0.3284
  742MOL0     C 2277   2.975   0.260   1.733  0.3641 -0.6926  0.0434
  742MOL0     C 2278   3.031   0.252   1.592  0.4447 -0.4587  1.2709
  742MOL0     C 2279   2.938   0.289   1.483  0.3693 -0.7400  0.2440
  742MOL0     C 2280   2.898   0.438   1.483 -0.8112 -0.6146  0.0640
  742MOL0     C 2281   2.796   0.479   1.380  0.8159  0.3449 -0.2003
  742MOL0     O 2282   2.865   0.504   1.256 -0.3399 -0.0403  0.7266
  742MOL0     C 2283   2.930   0.621   1.235  0.6099 -0.3607 -0.0391
  742MOL0     C 2284   2.969   0.645   1.097  1.2577  0.0603 -0.3354
  742MOL0     C 2285   3.021   0.771   1.054  1.1069 -0.0535 -0.1248
  742MOL0     C 2286   3.042   0.775   0.905 -0.1934  0.4305  0.1061
  742MOL0     C 2287   3.059   0.874   1.149 -0.3407 -1.1272  0.7904
  742MOL0     C 2288   3.122   0.997   1.100  0.4426  0.0654  0.0027
  742MOL0     O 2289   3.186   0.997   0.974 -0.0391  0.8805 -0.0377
  742MOL0     C 2290   3.234   1.125   0.918 -0.1760  0.2939 -1.2266
  742MOL0     C 2291   3.148   1.220   0.865  0.2359 -0.4671 -0.1785
  742MOL0     C 2292   3.193   1.336   0.808 -0.2018  1.0274  0.2599
  742MOL0     C 2293   3.329   1.369   0.815 -0.2646  0.1912 -0.2606
  742MOL0     O 2294   3.389   1.489   0.770  0.2017  0.3354 -0.2631
  742MOL0     C 2295   3.320   1.565   0.667  0.4416  1.0918 -1.1740
  742MOL0     C 2296   3.272   1.692   0.728 -0.3520  0.1143 -0.3691
  742MOL0     C 2297   3.202   1.682   0.866  0.7712 -0.6376 -0.5384
  742MOL0     C 2298   3.189   1.812   0.939 -0.7486  1.0994  0.3066
  742MOL0     C 2299   3.175   1.792   1.091 -0.7778  0.8883  1.3078
  742MOL0     C 2300   3.238   1.903   1.173  0.8040  0.0898 -0.5487
  742MOL0     C 2301   3.137   2.003   1.218 -0.5649  0.0098  0.3855
  742MOL0     C 2302   3.111   2.115   1.113  0.0354 -0.6843 -0.4092
  742MOL0    Cl 2303   3.221   2.260   1.115 -0.0422  0.5974 -0.0014
  742MOL0     C 2304   3.416   1.277   0.882 -0.1369  0.4547 -0.1843
  742MOL0     C 2305   3.369   1.154   0.928 -0.2091 -0.1591 -0.1667
  742MOL0     O 2306   3.110   1.093   1.173 -0.1656 -0.1765 -0.1162
  742MOL0     C 2307   3.021   0.847   1.287 -0.7485 -1.0978 -0.2906
  742MOL0     C 2308   2.951   0.733   1.321 -0.7464  0.7681 -0.5515
  742MOL0     N 2309   2.887   0.174   1.793 -0.2611 -0.4543 -0.0325
  742MOL0     N 2310   2.859   0.208   1.913  0.3381 -0.3000  0.6897
  742MOL0     C 2311   2.508  -0.286   2.501  0.2693 -0.6267 -1.0638
  742MOL0     C 2312   2.413  -0.236   2.597 -0.5391 -0.2193 -0.2294
  742MOL0     C 2313   2.077   0.085   2.744  0.0603  0.3605 -1.4072
  742MOL0     C 2314   2.010  -0.023   2.812 -1.0629 -1.0419 -0.7949
  742MOL0     C 2315   1.876  -0.007   2.849 -0.0330  0.1422 -0.1035
  742MOL0     C 2316   1.808   0.115   2.833 -0.5208 -0.8162 -0.9302
  742MOL0     O 2317   1.678   0.114   2.881 -0.6799 -0.5292 -0.2880
  742MOL0     C 2318   1.608   0.239   2.853 -0.3124 -0.4093 -0.2700
  742MOL0     C 2319   1.463   0.230   2.879 -0.0521  0.9076  0.4115
  742MOL0     C 2320   1.418   0.218   3.024  0.5966  0.6711  0.6553
  742MOL0     C 2321   1.268   0.222   3.016  0.0473  0.2532  0.7860
  742MOL0     C 2322   1.227   0.229   3.158  0.6641  0.3622  0.2624
  742MOL0     C 2323   1.209   0.253   3.272  0.4083  0.6681  0.2277
  742MOL0     C 2324   1.874   0.228   2.767  0.2163 -0.1576 -0.1746
  742MOL0     C 2325   2.012   0.210   2.725  0.1701 -0.6909 -0.5261
  742MOL0     C 2326   2.078   0.332   2.669 -0.6855 -0.0307  0.3026
  742MOL0     H 2327   2.355   0.079   2.474  2.1415  1.6822  1.8599
  742MOL0     H 2328   2.558  -0.008   2.325 -1.4240  1.2584 -1.2058
  742MOL0     H 2329   2.784  -0.381   2.332 -1.3596  0.4014  0.8797
  742MOL0     H 2330   2.771  -0.316   2.492  0.8687 -3.1312 -0.8780
  742MOL0     H 2331   2.963  -0.246   2.465  3.0916 -1.9119 -2.2435
  742MOL0     H 2332   2.964  -0.226   2.288 -1.0654 -1.1696 -0.3792
  742MOL0     H 2333   2.827  -0.025   2.301  0.5557 -2.5801 -1.1400
  742MOL0     H 2334   2.851  -0.033   2.475 -1.0604 -0.0290  0.3836
  742MOL0     H 2335   3.105  -0.009   2.438  2.3897 -0.3230 -2.5067
  742MOL0     H 2336   3.087  -0.048   2.269  0.0638  0.6501 -0.8946
  742MOL0     H 2337   3.144   0.193   2.322 -0.7798  2.2818 -1.1943
  742MOL0     H 2338   2.996   0.201   2.420 -2.9973 -2.9537  0.4606
  742MOL0     H 2339   3.022   0.128   2.130 -1.1040 -1.3272  0.2656
  742MOL0     H 2340   2.872   0.189   2.192 -1.2689  4.2679 -0.3595
  742MOL0     H 2341   3.117   0.357   2.157 -0.1884 -0.2691  2.3126
  742MOL0     H 2342   2.984   0.395   2.267  1.3004  0.3208 -0.4417
  742MOL0     H 2343   2.811   0.372   2.088 -0.5504  1.6716  1.8103
  742MOL0     H 2344   2.920   0.501   2.052  0.8559  0.0463  0.3426
  742MOL0     H 2345   3.093   0.423   1.819  0.9739  0.3452  1.7435
  742MOL0     H 2346   3.052   0.147   1.567 -2.3833 -0.3894 -2.2892
  742MOL0     H 2347   3.122   0.312   1.582 -1.9378  3.7648  2.6997
  742MOL0     H 2348   2.987   0.257   1.391 -0.5530 -0.4800 -0.3494
  742MOL0     H 2349   2.849   0.226   1.496  2.0191 -3.2673  0.0963
  742MOL0     H 2350   2.842   0.452   1.576  0.9461  1.7418  0.8825
  742MOL0     H 2351   2.983   0.507   1.478 -0.4768 -1.1143 -1.9976
  742MOL0     H 2352   2.718   0.403   1.365 -0.2302  1.8887 -3.8978
  742MOL0     H 2353   2.735   0.563   1.416 -1.7190 -1.4803  0.0306
  742MOL0     H 2354   2.943   0.572   1.021 -3.5115  1.1496 -0.0560
  742MOL0     H 2355   3.024   0.683   0.849  1.5242  0.0911  0.0655
  742MOL0     H 2356   3.151   0.780   0.907 -0.2470  1.6546  0.9764
  742MOL0     H 2357   3.003   0.866   0.858  0.8653  0.4090 -0.8524
  742MOL0     H 2358   3.041   1.213   0.853 -0.1327  0.5068  2.1599
  742MOL0     H 2359   3.118   1.399   0.761 -0.7558  1.1508  1.2913
  742MOL0     H 2360   3.389   1.573   0.582  2.6981 -3.0808 -0.0239
  742MOL0     H 2361   3.238   1.507   0.623 -1.0995  0.6180  2.0440
  742MOL0     H 2362   3.351   1.765   0.748  0.7959 -1.5006  1.2311
  742MOL0     H 2363   3.202   1.736   0.656  0.6507 -0.8335 -1.9512
  742MOL0     H 2364   3.267   1.625   0.934  5.0743  2.1050 -1.9236
  742MOL0     H 2365   3.105   1.633   0.869 -0.6326  1.9615  1.9479
  742MOL0     H 2366   3.100   1.859   0.898 -2.1333 -1.6085  0.0051
  742MOL0     H 2367   3.270   1.880   0.911 -0.5717  0.1823 -1.6185
  742MOL0     H 2368   3.073   1.768   1.123 -1.1275 -2.3421 -1.6789
  742MOL0     H 2369   3.214   1.696   1.125 -1.0973 -0.5726 -2.0662
  742MOL0     H 2370   3.324   1.956   1.130 -0.3246  3.2345  0.7796
  742MOL0     H 2371   3.282   1.861   1.263 -1.0305  0.7721  0.7147
  742MOL0     H 2372   3.172   2.055   1.308 -0.9000 -0.2192  0.6511
  742MOL0     H 2373   3.051   1.946   1.255  1.9599 -3.4129  1.5363
  742MOL0     H 2374   3.006   2.144   1.118 -1.1990 -4.8079  2.4165
  742MOL0     H 2375   3.122   2.076   1.011 -1.0063 -1.5379 -0.2111
  742MOL0     H 2376   3.519   1.292   0.910  0.6006  0.1614 -2.4968
  742MOL0     H 2377   3.438   1.085   0.975 -0.0173  0.3784  0.3521
  742MOL0     H 2378   3.037   0.924   1.362 -1.2376  0.8907 -2.1447
  742MOL0     H 2379   2.920   0.740   1.425 -0.0489 -1.1501 -0.1738
  742MOL0     H 2380   2.542  -0.388   2.498  1.0912 -0.3447 -2.7629
  742MOL0     H 2381   2.371  -0.304   2.671  1.9403 -0.5681  0.9559
  742MOL0     H 2382   2.067  -0.114   2.821  1.1855  0.1068 -2.3463
  742MOL0     H 2383   1.811  -0.083   2.890  0.7794 -1.8138 -2.2070
  742MOL0     H 2384   1.658   0.320   2.905  2.0923 -0.9349 -1.6367
  742MOL0     H 2385   1.620   0.260   2.746  0.7958  5.9101  0.7466
  742MOL0     H 2386   1.433   0.139   2.825  3.0814 -0.4891  0.8064
  742MOL0     H 2387   1.427   0.324   2.838 -0.1662  0.5889 -0.2411
  742MOL0     H 2388   1.451   0.122   3.066  0.9414 -0.5677 -2.1869
  742MOL0     H 2389   1.466   0.300   3.077  2.0599 -0.3946  1.0662
  742MOL0     H 2390   1.217   0.135   2.972 -1.2387  1.5681 -0.4508
  742MOL0     H 2391   1.223   0.308   2.964 -0.3815 -0.4287  0.0013
  742MOL0     H 2392   1.207   0.282   3.376  0.3686 -1.6634  0.9414
  742MOL0     H 2393   1.826   0.325   2.760 -0.7767 -0.7392 -2.2915
  742MOL0     H 2394   2.097   0.301   2.566 -1.8562  0.6095 -0.1246
  742MOL0     H 2395   2.017   0.422   2.678 -0.4740 -0.0701  3.0133
  742MOL0     H 2396   2.170   0.357   2.722 -1.6033  2.8358  0.7296
  743MOL0     O 2397   1.838   4.066   4.364  0.7521 -0.0317 -0.8225
  743MOL0     C 2398   1.781   4.169   4.333  0.0071  0.2324 -0.6699
  743MOL0     O 2399   1.656   4.207   4.373 -0.5404  0.5661 -0.5067
  743MOL0     C 2400   1.599   4.164   4.493  0.0176  0.5479  0.3747
  743MOL0     C 2401   1.463   4.150   4.495  0.2034 -0.2446  0.3411
  743MOL0     C 2402   1.395   4.108   4.604  0.9330  0.4111  0.6729
  743MOL0     C 2403   1.451   4.101   4.735  0.0653  0.7428  0.9661
  743MOL0     O 2404   1.403   4.060   4.856  0.1730 -0.0481 -0.9438
  743MOL0     C 2405   1.265   4.081   4.883 -0.5650 -0.7794  0.3097
  743MOL0     C 2406   1.240   4.056   5.024  0.0627 -0.1586 -0.4956
  743MOL0     C 2407   1.097   4.089   5.080  0.2985  0.0731  0.2734
  743MOL0     C 2408   0.989   3.996   5.012 -0.6439 -0.8247  0.2643
  743MOL0     C 2409   0.846   4.047   5.058 -0.2227  1.6024  0.2243
  743MOL0     C 2410   0.733   4.043   4.950  0.0989 -1.1076 -0.1604
  743MOL0     C 2411   0.726   3.914   4.869  0.4795 -1.0324  0.1013
  743MOL0     C 2412   0.630   3.806   4.933  0.1288  0.5737  0.4004
  743MOL0     N 2413   0.622   3.687   4.848 -0.4122  0.2818  0.1541
  743MOL0     C 2414   0.534   3.588   4.871  0.1089  0.0548 -0.1751
  743MOL0     C 2415   0.571   3.488   4.785  0.1915  0.2958  0.4304
  743MOL0     C 2416   0.523   3.343   4.779 -0.7088 -0.9348  1.1020
  743MOL0     C 2417   0.382   3.327   4.830 -0.8210 -0.7597 -0.4548
  743MOL0     C 2418   0.319   3.187   4.808 -0.3407  0.9477 -0.1206
  743MOL0     C 2419   0.307   3.140   4.666 -0.5456  0.4413 -0.1041
  743MOL0     O 2420   0.255   3.005   4.660 -0.1816 -0.0850 -0.4559
  743MOL0     C 2421   0.336   2.907   4.702 -0.0656 -0.7504  0.1916
  743MOL0     C 2422   0.327   2.846   4.826  0.0313 -0.1216 -0.1625
  743MOL0     C 2423   0.429   2.758   4.880  0.1051  0.1830 -0.6092
  743MOL0     C 2424   0.416   2.715   5.023 -0.6538  0.5635  0.4813
  743MOL0     C 2425   0.540   2.718   4.803  0.1032 -0.5789 -0.7129
  743MOL0     C 2426   0.654   2.622   4.842  0.9154 -0.1929  0.6614
  743MOL0     O 2427   0.637   2.535   4.946 -0.3058  0.6841 -0.6656
  743MOL0     C 2428   0.729   2.434   4.965 -0.5398  0.8017  0.7403
  743MOL0     C 2429   0.739   2.394   5.098  0.8071 -0.4458  0.0597
  743MOL0     C 2430   0.816   2.287   5.132 -0.6690  0.1042  0.2587
  743MOL0     C 2431   0.890   2.212   5.031  0.2828 -0.2256 -0.4888
  743MOL0     O 2432   0.958   2.097   5.045  0.5070 -0.8066 -0.0578
  743MOL0     C 2433   0.963   2.006   5.145  0.7581 -0.8078 -0.4825
  743MOL0     C 2434   1.100   1.929   5.140  0.5948 -0.4942  0.2635
  743MOL0     C 2435   1.137   1.854   5.278  0.4302  0.0417  0.6518
  743MOL0     C 2436   1.288   1.834   5.253  0.1798  0.8650 -0.5405
  743MOL0     C 2437   1.324   1.733   5.364  0.3459 -0.5981  0.5339
  743MOL0     C 2438   1.357   1.602   5.313 -0.4315  0.4283 -0.3487
  743MOL0     C 2439   1.368   1.504   5.433 -0.2714  0.7729 -0.3468
  743MOL0     C 2440   1.406   1.367   5.375  0.1078  0.5975  0.2614
  743MOL0    Cl 2441   1.422   1.273   5.518 -0.2754  0.1685 -0.2260
  743MOL0     C 2442   0.883   2.262   4.903 -0.7223 -0.8661  0.8933
  743MOL0     C 2443   0.805   2.368   4.864  0.1625  0.6511  0.2566
  743MOL0     O 2444   0.749   2.620   4.767 -0.0204 -0.1707 -0.1483
  743MOL0     C 2445   0.548   2.784   4.676 -0.1012 -0.2030  0.3915
  743MOL0     C 2446   0.443   2.871   4.623  0.5548  0.7409  0.6296
  743MOL0     N 2447   0.691   3.524   4.720 -0.2367 -0.4211  0.0295
  743MOL0     N 2448   0.722   3.649   4.755 -0.0746  1.2073  0.6241
  743MOL0     C 2449   1.591   4.136   4.734  1.1815 -0.2315 -0.7618
  743MOL0     C 2450   1.669   4.150   4.619  0.2612  0.3476  1.4773
  743MOL0     C 2451   1.857   4.249   4.243  1.2057 -0.6394  0.3713
  743MOL0     C 2452   1.887   4.189   4.123 -0.4030  0.0078 -0.4754
  743MOL0     C 2453   1.963   4.243   4.023  0.5065 -0.4302  1.2883
  743MOL0     C 2454   2.013   4.376   4.050 -0.7986 -0.7906 -0.1004
  743MOL0     O 2455   2.089   4.435   3.952  0.8965  0.6705 -0.3045
  743MOL0     C 2456   2.147   4.555   3.975  0.6471  0.6840  0.0054
  743MOL0     C 2457   2.162   4.615   3.834  0.4545  1.1742  0.1240
  743MOL0     C 2458   2.297   4.673   3.816 -0.8607 -0.1629 -0.3801
  743MOL0     C 2459   2.316   4.738   3.682 -0.4007  0.3797 -0.0603
  743MOL0     C 2460   2.458   4.789   3.656  0.2326 -0.6459 -0.4874
  743MOL0     C 2461   2.569   4.830   3.644  0.2548 -1.6023 -0.5689
  743MOL0     C 2462   1.968   4.449   4.160  0.2834  0.4180  1.0498
  743MOL0     C 2463   1.891   4.387   4.255 -0.5450 -0.4405 -0.3062
  743MOL0     C 2464   1.842   4.461   4.381 -0.0553 -0.0193  0.6556
  743MOL0     H 2465   1.416   4.164   4.398  1.7235 -1.3408 -0.6092
  743MOL0     H 2466   1.292   4.074   4.594  0.7202  1.3609 -0.6778
  743MOL0     H 2467   1.211   4.008   4.822 -0.8231  0.4082 -0.9397
  743MOL0     H 2468   1.229   4.175   4.840  1.6271  0.7810  1.6748
  743MOL0     H 2469   1.246   3.947   5.035  2.2185  0.0644  1.2423
  743MOL0     H 2470   1.325   4.103   5.075  0.5466 -2.6818  1.1910
  743MOL0     H 2471   1.087   4.059   5.185 -1.3853 -0.1231  0.0920
  743MOL0     H 2472   1.081   4.196   5.063 -0.5017 -0.4587 -2.9747
  743MOL0     H 2473   0.998   4.005   4.904  0.4894 -0.4257  0.3783
  743MOL0     H 2474   1.005   3.889   5.023 -1.9587 -1.0391  0.2289
  743MOL0     H 2475   0.844   4.147   5.102  0.8282  2.9231 -2.4996
  743MOL0     H 2476   0.818   3.968   5.129  0.1030  0.1434 -1.2262
  743MOL0     H 2477   0.639   4.064   5.000 -0.6947 -0.6124 -1.8003
  743MOL0     H 2478   0.761   4.129   4.888  0.2634 -1.2248 -0.2512
  743MOL0     H 2479   0.819   3.859   4.852 -0.7906 -2.8847 -1.3313
  743MOL0     H 2480   0.688   3.941   4.770 -0.5554  0.3981  0.8461
  743MOL0     H 2481   0.660   3.781   5.035 -0.7195 -2.0818  0.0919
  743MOL0     H 2482   0.533   3.855   4.940 -0.3351  0.3124 -2.7067
  743MOL0     H 2483   0.468   3.595   4.956  2.2386  3.4715  1.4059
  743MOL0     H 2484   0.592   3.279   4.835  2.0406 -0.3413 -1.3481
  743MOL0     H 2485   0.531   3.318   4.672  1.0181  2.4427  0.3123
  743MOL0     H 2486   0.381   3.344   4.938  0.7470 -0.5411 -0.4523
  743MOL0     H 2487   0.319   3.408   4.789 -0.4644  0.7411  1.7722
  743MOL0     H 2488   0.382   3.120   4.867 -3.3145  0.0378  2.2769
  743MOL0     H 2489   0.217   3.174   4.845  0.3978  1.4201  2.3078
  743MOL0     H 2490   0.245   3.203   4.602  2.2150  3.0880 -0.4078
  743MOL0     H 2491   0.404   3.141   4.616 -0.6196  1.8223 -0.2584
  743MOL0     H 2492   0.247   2.875   4.894  0.1930 -0.0327 -0.0090
  743MOL0     H 2493   0.334   2.770   5.070 -1.3753  0.7138 -0.9167
  743MOL0     H 2494   0.503   2.736   5.086 -0.5523 -1.5780  1.1310
  743MOL0     H 2495   0.387   2.610   5.015 -1.7929  0.8290  0.9214
  743MOL0     H 2496   0.685   2.449   5.175 -1.8971  1.2502 -2.8026
  743MOL0     H 2497   0.799   2.237   5.227 -1.1939 -0.2498 -0.0149
  743MOL0     H 2498   0.950   2.048   5.245  3.8344  0.5402 -0.5270
  743MOL0     H 2499   0.879   1.937   5.132  1.9356 -1.9152 -3.0456
  743MOL0     H 2500   1.106   1.859   5.056 -1.5625 -0.0772 -0.3105
  743MOL0     H 2501   1.172   2.008   5.117 -0.8638  1.2588  1.4268
  743MOL0     H 2502   1.076   1.763   5.275 -1.1562  1.0813 -1.0634
  743MOL0     H 2503   1.102   1.903   5.369  2.6849  2.7074  0.2027
  743MOL0     H 2504   1.357   1.917   5.273  0.3710  0.1322  2.1378
  743MOL0     H 2505   1.292   1.787   5.154 -0.3293 -1.7875  0.6223
  743MOL0     H 2506   1.405   1.778   5.422  0.1711  0.3466  0.0656
  743MOL0     H 2507   1.237   1.706   5.425 -3.0135 -2.0505 -4.2940
  743MOL0     H 2508   1.452   1.604   5.258  0.5317 -0.5063  1.2293
  743MOL0     H 2509   1.277   1.564   5.249 -2.2919  3.4643 -0.0405
  743MOL0     H 2510   1.274   1.498   5.489  0.2230 -0.4285  0.3988
  743MOL0     H 2511   1.447   1.537   5.501 -0.0579 -1.0613  0.3449
  743MOL0     H 2512   1.503   1.380   5.326  0.7049 -2.4148  0.4778
  743MOL0     H 2513   1.326   1.327   5.312  0.6643  1.4072 -1.0110
  743MOL0     H 2514   0.926   2.204   4.821  0.2085  0.6983  0.2344
  743MOL0     H 2515   0.795   2.397   4.760 -1.3495 -1.3157 -0.2050
  743MOL0     H 2516   0.643   2.774   4.624  0.1194  1.6201  0.3951
  743MOL0     H 2517   0.470   2.916   4.528 -0.5309 -0.0657 -0.0785
  743MOL0     H 2518   1.650   4.123   4.825 -0.9578 -1.5927  0.5105
  743MOL0     H 2519   1.777   4.146   4.609  0.4951  0.9714  3.4449
  743MOL0     H 2520   1.857   4.087   4.103 -1.3560  0.1731  0.0616
  743MOL0     H 2521   2.010   4.184   3.945 -0.2797 -1.2186  1.4086
  743MOL0     H 2522   2.098   4.630   4.039 -0.0209  2.2808 -2.2141
  743MOL0     H 2523   2.243   4.532   4.022 -0.7228 -0.4546  2.4329
  743MOL0     H 2524   2.088   4.696   3.834 -0.2096  0.6915  3.0844
  743MOL0     H 2525   2.129   4.553   3.749 -4.2021  2.1777  0.8894
  743MOL0     H 2526   2.305   4.739   3.903 -0.7043 -1.2357  0.4503
  743MOL0     H 2527   2.379   4.601   3.826  0.3219  1.2240  0.3389
  743MOL0     H 2528   2.264   4.833   3.694 -0.4383  0.1175  2.3742
  743MOL0     H 2529   2.278   4.671   3.605  2.9093 -0.5434 -1.0405
  743MOL0     H 2530   2.669   4.863   3.630 -0.7646  2.3096  0.2871
  743MOL0     H 2531   1.994   4.549   4.196  1.6641 -0.2894  2.1240
  743MOL0     H 2532   1.921   4.504   4.443 -0.7925  0.2331  1.4312
  743MOL0     H 2533   1.785   4.547   4.345 -2.6503 -0.6213  3.0120
  743MOL0     H 2534   1.769   4.407   4.441 -0.3081  0.3294  0.6660
  744MOL0     O 2535  11.529   3.063   4.494  0.0507  0.7108  0.2299
  744MOL0     C 2536  11.446   2.986   4.543  0.3342 -0.0386 -0.3369
  744MOL0     O 2537  11.321   3.024   4.592  0.1308 -0.0984  0.3347
  744MOL0     C 2538  11.282   3.144   4.539 -0.1175 -0.2476 -0.1626
  744MOL0     C 2539  11.346   3.261   4.593 -0.1449  0.0718  0.6125
  744MOL0     C 2540  11.315   3.387   4.542 -0.5572 -0.0021 -0.0071
  744MOL0     C 2541  11.224   3.401   4.437 -0.6135  0.7481  0.3911
  744MOL0     O 2542  11.158   3.513   4.396 -0.2607 -0.3009  0.3858
  744MOL0     C 2543  11.191   3.642   4.453 -0.3940 -0.3769  0.3736
  744MOL0     C 2544  11.096   3.748   4.406  0.4200 -0.0675 -0.1245
  744MOL0     C 2545  11.131   3.891   4.437  0.4646 -0.4271  0.8575
  744MOL0     C 2546  11.029   3.995   4.387  0.6367 -0.0899  0.8090
  744MOL0     C 2547  11.052   4.133   4.450 -0.3984  0.3080 -0.1240
  744MOL0     C 2548  11.013   4.140   4.599 -0.4547 -0.0051  0.3680
  744MOL0     C 2549  11.000   4.281   4.663  0.5450 -0.2927 -0.1548
  744MOL0     C 2550  10.892   4.364   4.590  0.3775  0.1183  1.3926
  744MOL0     N 2551  10.842   4.479   4.675  0.0002 -0.3465  1.0108
  744MOL0     C 2552  10.768   4.585   4.635  0.6674  1.4782  0.3872
  744MOL0     C 2553  10.752   4.672   4.732 -0.0844 -0.5431  0.7097
  744MOL0     C 2554  10.691   4.809   4.733 -0.1264 -0.9721 -0.0353
  744MOL0     C 2555  10.775   4.913   4.659  0.5662  0.2482 -0.0959
  744MOL0     C 2556  10.849   5.011   4.757  0.4310 -0.8830 -0.4522
  744MOL0     C 2557  10.913   5.119   4.675 -1.0218 -0.8781 -1.0403
  744MOL0     O 2558  11.037   5.067   4.623 -0.6114  0.1349  0.3381
  744MOL0     C 2559  11.129   5.164   4.575 -0.0233  0.8666  0.1992
  744MOL0     C 2560  11.239   5.106   4.514 -0.5753  0.1303  0.1220
  744MOL0     C 2561  11.346   5.178   4.459  0.3048 -0.7204 -0.5278
  744MOL0     C 2562  11.446   5.099   4.387 -0.6259  0.6540 -0.4899
  744MOL0     C 2563  11.355   5.319   4.485  0.0458  0.4380 -0.1673
  744MOL0     C 2564  11.460   5.415   4.465  0.5087 -0.8890  0.0370
  744MOL0     O 2565  11.418   5.541   4.434  0.1178  0.0924  0.0206
  744MOL0     C 2566  11.518   5.638   4.395  0.2629  0.6877 -0.3271
  744MOL0     C 2567  11.501   5.766   4.440  0.0707 -0.3568  0.6487
  744MOL0     C 2568  11.591   5.864   4.407  0.0067 -0.8693 -0.0514
  744MOL0     C 2569  11.689   5.845   4.318  0.8034 -0.1493  0.1731
  744MOL0     O 2570  11.785   5.939   4.312  0.5134 -0.3762  0.6761
  744MOL0     C 2571  11.888   5.921   4.213  0.0768 -0.5261 -0.8277
  744MOL0     C 2572  11.976   6.045   4.207  0.5342 -0.0846  0.2102
  744MOL0     C 2573  12.083   6.041   4.096  0.5893  0.5781  0.2151
  744MOL0     C 2574  12.022   6.082   3.968 -0.0848  0.2475 -0.2279
  744MOL0     C 2575  12.121   6.034   3.854 -0.3331 -0.7449  0.1429
  744MOL0     C 2576  12.061   5.907   3.792 -0.6978 -0.9289 -0.1260
  744MOL0     C 2577  12.125   5.782   3.846  0.3397  0.1911  0.5371
  744MOL0     C 2578  12.038   5.654   3.846  0.1051 -0.3431  0.2101
  744MOL0    Cl 2579  11.917   5.667   3.981 -0.1652 -0.0587 -0.1542
  744MOL0     C 2580  11.699   5.722   4.259  0.9861  0.3462 -0.3392
  744MOL0     C 2581  11.612   5.612   4.290  0.5255  0.3094  0.0594
  744MOL0     O 2582  11.578   5.386   4.485 -0.1343 -0.1288  0.9856
  744MOL0     C 2583  11.239   5.376   4.543 -0.5544  0.2782 -0.3737
  744MOL0     C 2584  11.131   5.301   4.586  0.2646  0.4824 -0.4562
  744MOL0     N 2585  10.828   4.625   4.835 -0.7185 -0.8395 -0.1902
  744MOL0     N 2586  10.890   4.516   4.798  0.1154  0.3349 -0.1656
  744MOL0     C 2587  11.164   3.291   4.386  0.8468  0.6521  0.3676
  744MOL0     C 2588  11.193   3.165   4.431 -0.0726  0.7275 -0.3140
  744MOL0     C 2589  11.491   2.854   4.580 -0.3982 -0.1106 -0.3316
  744MOL0     C 2590  11.430   2.797   4.695  0.4237  0.4539 -0.4662
  744MOL0     C 2591  11.465   2.668   4.736 -0.2198 -0.5853  0.5678
  744MOL0     C 2592  11.576   2.599   4.675  0.0339 -0.1220 -0.8675
  744MOL0     O 2593  11.608   2.477   4.730 -0.9822  0.2375 -0.5666
  744MOL0     C 2594  11.732   2.410   4.696 -0.3805 -0.6395  0.1881
  744MOL0     C 2595  11.731   2.284   4.779 -0.2146 -0.6013 -0.3355
  744MOL0     C 2596  11.878   2.223   4.779 -0.4208  0.5439  0.4208
  744MOL0     C 2597  11.878   2.100   4.865  0.0729 -0.0181  0.2520
  744MOL0     C 2598  12.015   2.080   4.908 -0.0319 -0.5696  0.2065
  744MOL0     C 2599  12.121   2.068   4.950 -0.3632 -0.4650  0.7673
  744MOL0     C 2600  11.634   2.656   4.560 -0.2495  0.4715  0.1948
  744MOL0     C 2601  11.600   2.783   4.518  1.1419 -0.1864  0.0356
  744MOL0     C 2602  11.673   2.818   4.388  0.0079  0.2118 -0.7827
  744MOL0     H 2603  11.424   3.235   4.663  0.5306 -1.0601 -0.5120
  744MOL0     H 2604  11.350   3.475   4.595 -0.7978 -0.3408  0.7288
  744MOL0     H 2605  11.296   3.657   4.426 -0.4007 -0.3116  0.3840
  744MOL0     H 2606  11.184   3.653   4.562  0.4610 -2.4777  0.6874
  744MOL0     H 2607  11.087   3.732   4.299  1.2952 -3.3200  0.1784
  744MOL0     H 2608  11.001   3.723   4.455  0.1069  0.0412 -0.6718
  744MOL0     H 2609  11.144   3.906   4.545 -0.7688  1.0791  0.8254
  744MOL0     H 2610  11.226   3.905   4.385  0.3127 -1.0872  0.3817
  744MOL0     H 2611  11.041   3.995   4.278  0.7882 -3.7847  0.7198
  744MOL0     H 2612  10.932   3.957   4.419 -0.4470  2.3004  0.6209
  744MOL0     H 2613  10.997   4.205   4.388  2.1563  1.4996 -1.1398
  744MOL0     H 2614  11.158   4.153   4.432 -0.2873  1.5346  1.6378
  744MOL0     H 2615  10.925   4.076   4.612  1.2596 -2.2060  1.8635
  744MOL0     H 2616  11.093   4.080   4.643 -0.3897 -0.9066 -0.9266
  744MOL0     H 2617  11.096   4.330   4.646  0.8488 -0.4841  0.9571
  744MOL0     H 2618  10.984   4.263   4.770  1.9347 -2.0111 -0.1796
  744MOL0     H 2619  10.944   4.402   4.502 -0.4160 -0.9536  0.4298
  744MOL0     H 2620  10.807   4.297   4.571 -0.6358  0.4345  4.2768
  744MOL0     H 2621  10.725   4.584   4.535  1.6815  0.4119 -0.0659
  744MOL0     H 2622  10.669   4.844   4.834 -0.4067 -0.4952 -0.2541
  744MOL0     H 2623  10.598   4.816   4.674 -0.2692  1.3683  0.3787
  744MOL0     H 2624  10.845   4.879   4.582  0.2866  3.3153 -1.8476
  744MOL0     H 2625  10.703   4.967   4.598 -2.0929 -1.8804  0.9509
  744MOL0     H 2626  10.777   5.046   4.831  1.0157 -1.2760  0.3080
  744MOL0     H 2627  10.919   4.953   4.817 -0.9341 -1.8824  0.2162
  744MOL0     H 2628  10.843   5.157   4.600 -1.9313 -0.6111 -0.0913
  744MOL0     H 2629  10.938   5.197   4.749  1.8043  0.5535 -3.3083
  744MOL0     H 2630  11.231   4.999   4.496  0.7525  0.1650 -0.8662
  744MOL0     H 2631  11.436   5.111   4.279  1.8201 -1.0769 -1.0111
  744MOL0     H 2632  11.438   4.992   4.409 -0.5382  1.1114  2.0293
  744MOL0     H 2633  11.548   5.132   4.409 -0.7054  0.6358 -0.0864
  744MOL0     H 2634  11.422   5.796   4.508  0.8894  1.7703  0.7254
  744MOL0     H 2635  11.561   5.959   4.451 -0.6775 -1.9829  2.0620
  744MOL0     H 2636  11.939   5.827   4.232  1.4234  0.6875  2.3295
  744MOL0     H 2637  11.849   5.906   4.112 -0.6415  2.4532 -1.1154
  744MOL0     H 2638  11.917   6.136   4.188  1.7063  0.4732 -0.9555
  744MOL0     H 2639  12.028   6.055   4.302  2.3272 -2.5396 -0.4118
  744MOL0     H 2640  12.137   5.946   4.093 -3.6511 -2.1086 -1.8909
  744MOL0     H 2641  12.149   6.125   4.117 -0.2553  0.5325  3.6731
  744MOL0     H 2642  12.012   6.191   3.966  0.1600  0.3058  0.9898
  744MOL0     H 2643  11.924   6.038   3.947 -0.6867  0.4092  2.0387
  744MOL0     H 2644  12.126   6.119   3.785 -0.7689  0.3162  1.3739
  744MOL0     H 2645  12.224   6.012   3.883  0.2149  2.2275  0.8075
  744MOL0     H 2646  12.079   5.917   3.684  1.5082  2.9687  0.3906
  744MOL0     H 2647  11.952   5.907   3.799 -0.7762  1.1832 -0.6283
  744MOL0     H 2648  12.162   5.802   3.946  0.3631  0.1210  0.5429
  744MOL0     H 2649  12.211   5.768   3.779 -0.4360 -0.6825 -0.3081
  744MOL0     H 2650  12.098   5.563   3.851 -1.6883 -1.5853  0.0913
  744MOL0     H 2651  11.989   5.648   3.749  2.4829 -1.5883 -1.0034
  744MOL0     H 2652  11.780   5.693   4.192 -1.1705 -0.3673 -2.7839
  744MOL0     H 2653  11.611   5.513   4.246 -2.3163  1.1432 -1.9962
  744MOL0     H 2654  11.229   5.482   4.563 -0.1701  0.5447 -1.5095
  744MOL0     H 2655  11.052   5.361   4.630 -0.1429  1.4147 -2.3607
  744MOL0     H 2656  11.076   3.305   4.323 -1.3508 -0.0525  3.0865
  744MOL0     H 2657  11.140   3.075   4.402  0.0702 -0.4022  2.5818
  744MOL0     H 2658  11.350   2.845   4.751  1.5046  0.7785  0.8741
  744MOL0     H 2659  11.409   2.609   4.808  2.1013  0.5249  3.4810
  744MOL0     H 2660  11.737   2.380   4.591  0.8783 -1.7074  0.5286
  744MOL0     H 2661  11.810   2.477   4.735 -0.4513 -1.3840  1.6784
  744MOL0     H 2662  11.662   2.206   4.746 -0.5264  0.1484 -1.5236
  744MOL0     H 2663  11.705   2.314   4.881 -0.2844  1.9206 -1.0370
  744MOL0     H 2664  11.901   2.204   4.674 -2.3700  0.6687 -0.0581
  744MOL0     H 2665  11.943   2.301   4.819 -2.1274  1.7463  0.9443
  744MOL0     H 2666  11.834   2.014   4.814  2.5593 -1.2491  0.0273
  744MOL0     H 2667  11.809   2.130   4.944  0.6807 -2.4724  1.8131
  744MOL0     H 2668  12.219   2.075   4.993  0.0184  0.4051 -0.2208
  744MOL0     H 2669  11.711   2.597   4.512  0.9358  0.6154  1.8202
  744MOL0     H 2670  11.775   2.845   4.418  0.2092  1.0058 -2.0959
  744MOL0     H 2671  11.674   2.736   4.316  0.6528  0.6865 -1.3265
  744MOL0     H 2672  11.635   2.903   4.330  2.0002  0.8837 -1.2132
  745MOL0     O 2673   8.124   8.909   0.629  0.1003 -0.1696  0.2596
  745MOL0     C 2674   8.144   8.995   0.707 -0.4654 -1.3028 -0.9644
  745MOL0     O 2675   8.082   9.013   0.826 -0.9972 -0.8360  0.6486
  745MOL0     C 2676   7.960   8.951   0.828 -0.0554  0.3098 -0.6565
  745MOL0     C 2677   7.932   8.807   0.816  0.1227 -0.4301  0.6037
  745MOL0     C 2678   7.803   8.757   0.813  0.6235 -0.3657 -0.6619
  745MOL0     C 2679   7.689   8.837   0.831 -0.7825  0.0453  0.4307
  745MOL0     O 2680   7.556   8.787   0.815 -0.0937 -0.2627  0.5989
  745MOL0     C 2681   7.528   8.667   0.889  0.1716 -0.1369  0.4043
  745MOL0     C 2682   7.383   8.630   0.867 -0.0817 -0.1497 -0.2255
  745MOL0     C 2683   7.358   8.477   0.913 -0.5823  0.1464 -0.7105
  745MOL0     C 2684   7.409   8.374   0.799 -0.8678  0.0562 -0.2000
  745MOL0     C 2685   7.419   8.226   0.833 -0.3927 -0.0022  1.2949
  745MOL0     C 2686   7.300   8.152   0.893  0.9570  0.3398 -0.5871
  745MOL0     C 2687   7.352   8.009   0.931 -0.3274 -0.0144 -0.3841
  745MOL0     C 2688   7.394   7.911   0.817 -0.2050 -0.7495 -0.3781
  745MOL0     N 2689   7.272   7.839   0.761  0.7020 -0.2212  0.0474
  745MOL0     C 2690   7.171   7.785   0.836  0.6597 -0.9624 -0.0556
  745MOL0     C 2691   7.092   7.719   0.757 -0.3112  0.1174 -0.8234
  745MOL0     C 2692   6.978   7.626   0.805 -0.5856 -0.7889 -0.4013
  745MOL0     C 2693   6.970   7.497   0.715 -0.5908 -0.0619 -0.1456
  745MOL0     C 2694   6.859   7.514   0.602 -0.6346 -0.3100 -0.6677
  745MOL0     C 2695   6.870   7.397   0.503  0.5687 -0.3332 -0.0330
  745MOL0     O 2696   6.857   7.277   0.577 -0.7533 -0.2182  0.4149
  745MOL0     C 2697   6.746   7.256   0.659  0.6041 -0.3972 -0.6956
  745MOL0     C 2698   6.621   7.305   0.634  0.4407 -0.0506  0.2692
  745MOL0     C 2699   6.508   7.263   0.707  0.3520 -0.4979  0.4049
  745MOL0     C 2700   6.385   7.345   0.683  0.1625  0.9269 -0.0104
  745MOL0     C 2701   6.522   7.171   0.819 -0.1255  0.5537  0.0079
  745MOL0     C 2702   6.406   7.106   0.886 -0.1785  0.7683 -0.9101
  745MOL0     O 2703   6.428   7.025   1.003 -1.0206 -0.1237 -0.4022
  745MOL0     C 2704   6.333   6.943   1.051  0.3233 -0.1560 -0.0423
  745MOL0     C 2705   6.190   6.975   1.055 -0.7299  0.8224 -0.3360
  745MOL0     C 2706   6.094   6.882   1.093 -1.1807  0.6534 -0.1706
  745MOL0     C 2707   6.136   6.755   1.150  0.2017  0.6076  1.3678
  745MOL0     O 2708   6.042   6.670   1.202  0.0509 -0.3015 -0.2096
  745MOL0     C 2709   5.920   6.648   1.129  0.1233 -0.4602 -0.2755
  745MOL0     C 2710   5.826   6.557   1.222  0.9646  0.7678 -0.7505
  745MOL0     C 2711   5.692   6.515   1.151 -0.0531  0.2962 -0.6689
  745MOL0     C 2712   5.718   6.428   1.026  0.7743  0.9502  0.0780
  745MOL0     C 2713   5.579   6.352   1.009 -0.0889 -0.1790 -0.1880
  745MOL0     C 2714   5.583   6.304   0.865 -0.3734 -0.0836  0.5974
  745MOL0     C 2715   5.483   6.200   0.837 -0.3470 -0.3419 -0.7334
  745MOL0     C 2716   5.488   6.142   0.698  0.0623  0.8978  0.2094
  745MOL0    Cl 2717   5.554   6.243   0.571  0.1032 -0.0291  0.1495
  745MOL0     C 2718   6.278   6.734   1.151  0.1493  1.0227 -0.3212
  745MOL0     C 2719   6.368   6.819   1.098  0.1003 -0.4627  0.4870
  745MOL0     O 2720   6.297   7.134   0.839  0.1113 -0.2776 -0.5742
  745MOL0     C 2721   6.658   7.131   0.849  1.0760 -0.4213  0.1402
  745MOL0     C 2722   6.762   7.172   0.770 -0.4484  0.7889 -0.0895
  745MOL0     N 2723   7.142   7.728   0.629  0.5662  0.0503 -0.0878
  745MOL0     N 2724   7.251   7.789   0.643 -0.0652 -0.1931 -0.2602
  745MOL0     C 2725   7.717   8.974   0.843 -0.1942  0.5225 -0.1709
  745MOL0     C 2726   7.845   9.029   0.850 -0.3124  0.3979 -0.4773
  745MOL0     C 2727   8.244   9.097   0.674  0.4611 -0.9402  0.5366
  745MOL0     C 2728   8.330   9.080   0.567  0.0531  0.4843  0.6273
  745MOL0     C 2729   8.431   9.173   0.527  0.0829  0.6521  0.2071
  745MOL0     C 2730   8.431   9.300   0.580  1.0241 -0.8350 -0.2523
  745MOL0     O 2731   8.536   9.378   0.535 -0.2021  0.4032 -0.1233
  745MOL0     C 2732   8.533   9.518   0.547 -0.2806  0.3610  0.9467
  745MOL0     C 2733   8.635   9.576   0.443  0.2084 -0.1208 -0.1373
  745MOL0     C 2734   8.665   9.727   0.470 -0.2192 -0.6580  0.3660
  745MOL0     C 2735   8.762   9.784   0.365  0.1084 -0.0196  0.1143
  745MOL0     C 2736   8.703   9.915   0.330  0.0923  0.9689 -0.6718
  745MOL0     C 2737   8.651  10.028   0.317 -0.1413 -0.0960 -0.3358
  745MOL0     C 2738   8.336   9.328   0.683 -0.2222  0.2565  0.1956
  745MOL0     C 2739   8.246   9.233   0.736  0.4071  0.4058  0.0581
  745MOL0     C 2740   8.167   9.270   0.852 -0.0180 -0.5797 -0.1551
  745MOL0     H 2741   8.020   8.744   0.806 -1.3730 -2.4444 -0.5873
  745MOL0     H 2742   7.782   8.653   0.793 -1.6436 -0.1853  0.4641
  745MOL0     H 2743   7.548   8.676   0.996  1.4175  0.3275  0.1570
  745MOL0     H 2744   7.593   8.593   0.841  2.2189  3.4921 -3.1770
  745MOL0     H 2745   7.315   8.691   0.927 -0.2745 -0.1473 -0.4436
  745MOL0     H 2746   7.356   8.637   0.761 -1.1250 -2.3623 -0.1581
  745MOL0     H 2747   7.416   8.467   1.005 -2.5484  4.5921  1.2821
  745MOL0     H 2748   7.254   8.457   0.941 -1.0871  3.6514  0.4131
  745MOL0     H 2749   7.344   8.385   0.712  0.4930 -0.1316 -1.2806
  745MOL0     H 2750   7.507   8.405   0.764 -0.0038 -3.2722 -1.1164
  745MOL0     H 2751   7.507   8.224   0.897 -2.0725 -0.0015  3.7804
  745MOL0     H 2752   7.437   8.179   0.736 -0.6629  0.1597  1.1654
  745MOL0     H 2753   7.262   8.201   0.982  0.1705 -3.0132  1.0603
  745MOL0     H 2754   7.224   8.149   0.815 -0.6473  4.4943  0.5827
  745MOL0     H 2755   7.267   7.976   0.993  1.2868 -1.8123  1.0130
  745MOL0     H 2756   7.431   8.021   1.006 -3.3300  0.3718  3.0220
  745MOL0     H 2757   7.456   7.953   0.737  3.8680 -3.4825  1.0375
  745MOL0     H 2758   7.452   7.833   0.865  0.6550 -0.2723 -0.6309
  745MOL0     H 2759   7.157   7.783   0.944  4.6805 -4.2832  0.6432
  745MOL0     H 2760   6.882   7.678   0.801 -0.5533 -0.6192  0.7418
  745MOL0     H 2761   6.996   7.590   0.907 -0.5054  2.6958  0.9360
  745MOL0     H 2762   7.069   7.481   0.670  0.0484 -0.6695  1.4333
  745MOL0     H 2763   6.959   7.410   0.779  2.3585 -1.3842 -1.2347
  745MOL0     H 2764   6.759   7.525   0.644 -0.4722  0.2893 -0.4237
  745MOL0     H 2765   6.877   7.608   0.548 -2.0081  1.4180  1.6981
  745MOL0     H 2766   6.792   7.410   0.428 -3.3535  0.3534  3.7905
  745MOL0     H 2767   6.972   7.405   0.464 -0.5542  1.5087 -2.8758
  745MOL0     H 2768   6.605   7.386   0.564  3.6881 -0.3592 -0.9746
  745MOL0     H 2769   6.321   7.294   0.610  2.5735 -5.3402  1.5808
  745MOL0     H 2770   6.409   7.443   0.641 -1.4430  1.8056  1.0068
  745MOL0     H 2771   6.336   7.355   0.780 -0.7717 -1.0641 -0.2303
  745MOL0     H 2772   6.175   7.080   1.029  0.0270  1.5442  1.8821
  745MOL0     H 2773   5.986   6.895   1.093 -1.5142 -1.2121 -2.9562
  745MOL0     H 2774   5.874   6.746   1.110  1.4432  0.3701  0.6554
  745MOL0     H 2775   5.948   6.597   1.037  0.4031 -1.7605  0.5144
  745MOL0     H 2776   5.885   6.472   1.258  0.1614 -0.5060 -2.3367
  745MOL0     H 2777   5.792   6.613   1.310 -2.9381 -0.3166 -1.3565
  745MOL0     H 2778   5.641   6.607   1.120 -0.9859  0.3408  0.9154
  745MOL0     H 2779   5.633   6.465   1.228 -0.2222  1.0514 -0.3015
  745MOL0     H 2780   5.802   6.359   1.035  1.4287  1.6222 -0.7891
  745MOL0     H 2781   5.732   6.495   0.941  3.2110  1.7318  1.0141
  745MOL0     H 2782   5.568   6.256   1.060 -1.9137 -0.7996 -1.6386
  745MOL0     H 2783   5.492   6.413   1.036  0.7109  0.4699  1.0323
  745MOL0     H 2784   5.684   6.262   0.858 -0.3134 -0.0300  1.1371
  745MOL0     H 2785   5.582   6.394   0.803  2.6123 -0.8258 -0.7280
  745MOL0     H 2786   5.381   6.235   0.856 -0.3117 -0.6572  0.0629
  745MOL0     H 2787   5.506   6.119   0.907  3.3244  0.7679 -0.4333
  745MOL0     H 2788   5.386   6.123   0.662  0.3332 -0.5185  0.1339
  745MOL0     H 2789   5.543   6.048   0.703  0.1934  0.9760  0.2276
  745MOL0     H 2790   6.306   6.632   1.171  1.8602  1.9078  2.3165
  745MOL0     H 2791   6.474   6.798   1.090  0.8343  2.2791  1.8637
  745MOL0     H 2792   6.681   7.059   0.927 -2.6581 -2.3062 -0.2450
  745MOL0     H 2793   6.860   7.133   0.795 -2.1912 -2.6604  2.1430
  745MOL0     H 2794   7.636   9.046   0.846  0.5266  1.4772 -1.8223
  745MOL0     H 2795   7.856   9.137   0.863  0.3265  0.2431  0.4091
  745MOL0     H 2796   8.328   8.992   0.503 -2.4309 -0.2550  1.6134
  745MOL0     H 2797   8.503   9.148   0.450  1.5616  0.8361  1.4890
  745MOL0     H 2798   8.441   9.567   0.511 -0.0038 -1.1538 -2.1676
  745MOL0     H 2799   8.565   9.558   0.644 -0.6800  4.6271 -0.4437
  745MOL0     H 2800   8.601   9.547   0.343  0.3049 -1.8772  0.3190
  745MOL0     H 2801   8.728   9.525   0.470  2.0408  3.6062  1.2539
  745MOL0     H 2802   8.564   9.769   0.472  1.1300  3.0703 -0.6212
  745MOL0     H 2803   8.708   9.742   0.570 -0.1999  0.2799  0.2274
  745MOL0     H 2804   8.755   9.723   0.275 -0.5773  1.8145 -1.1160
  745MOL0     H 2805   8.862   9.786   0.408  0.6435  1.8354 -1.1023
  745MOL0     H 2806   8.610  10.124   0.294 -2.4613 -0.5638  1.4917
  745MOL0     H 2807   8.321   9.425   0.729 -0.5188  0.7851 -1.0016
  745MOL0     H 2808   8.192   9.368   0.893 -1.2898 -1.7673  3.9107
  745MOL0     H 2809   8.059   9.262   0.864  0.3239 -2.6942  2.7682
  745MOL0     H 2810   8.195   9.211   0.940 -1.4520 -1.8498 -0.5101
  746MOL0     O 2811   0.814   9.814   9.738 -1.0562 -0.4239  0.1129
  746MOL0     C 2812   0.847   9.873   9.639  0.8301  0.0671  0.4098
  746MOL0     O 2813   0.971   9.910   9.593 -0.3726 -0.9968 -0.1925
  746MOL0     C 2814   1.082   9.872   9.655 -0.4381 -2.1182 -1.2151
  746MOL0     C 2815   1.157   9.761   9.612 -0.3829 -0.4702 -0.3308
  746MOL0     C 2816   1.261   9.715   9.698 -0.9500  0.0299 -0.0306
  746MOL0     C 2817   1.304   9.783   9.815 -0.8782  0.2678  0.4425
  746MOL0     O 2818   1.412   9.724   9.878  0.3067 -0.1695 -0.5308
  746MOL0     C 2819   1.434   9.767  10.010 -0.2021 -0.4327  0.8282
  746MOL0     C 2820   1.545   9.689  10.063 -0.4283  0.2030  0.4526
  746MOL0     C 2821   1.607   9.754  10.190 -0.2355  0.0540 -0.1056
  746MOL0     C 2822   1.512   9.715  10.311  0.2852  0.2811 -0.4395
  746MOL0     C 2823   1.531   9.821  10.428 -0.1254  0.3092  0.2630
  746MOL0     C 2824   1.441   9.808  10.543  0.3097 -0.4343 -0.5447
  746MOL0     C 2825   1.496   9.693  10.617 -0.5732 -0.8134 -0.6803
  746MOL0     C 2826   1.402   9.641  10.722 -0.1048 -0.3089  0.0402
  746MOL0     N 2827   1.400   9.718  10.843 -0.0749  0.4042 -0.8989
  746MOL0     C 2828   1.309   9.687  10.947  0.2833  0.3570  0.0551
  746MOL0     C 2829   1.360   9.750  11.053  0.4077 -0.9801 -0.1100
  746MOL0     C 2830   1.308   9.749  11.190  0.1942 -0.1232 -1.3758
  746MOL0     C 2831   1.153   9.755  11.206  0.6054  0.3000  0.5326
  746MOL0     C 2832   1.089   9.614  11.235  0.3542 -0.2075 -0.4090
  746MOL0     C 2833   0.940   9.614  11.268 -0.1933  0.0013 -0.4731
  746MOL0     O 2834   0.891   9.477  11.270 -0.6126 -0.3087 -0.2805
  746MOL0     C 2835   0.756   9.453  11.275  0.5416  1.3508 -0.4218
  746MOL0     C 2836   0.653   9.538  11.324 -1.1399 -0.2814 -0.3825
  746MOL0     C 2837   0.526   9.493  11.329  0.1999  0.1017  0.1278
  746MOL0     C 2838   0.423   9.587  11.401 -0.4866  0.0651 -0.1178
  746MOL0     C 2839   0.482   9.374  11.281  0.7114 -0.0007  0.6996
  746MOL0     C 2840   0.348   9.316  11.284 -0.1932 -0.2350 -0.5261
  746MOL0     O 2841   0.332   9.227  11.185  0.0680  0.1708  0.0325
  746MOL0     C 2842   0.215   9.179  11.127  0.5761  0.0456  0.4188
  746MOL0     C 2843   0.088   9.178  11.187  0.5081 -1.2754 -0.1731
  746MOL0     C 2844  -0.026   9.123  11.127 -0.2669  0.5338  0.4448
  746MOL0     C 2845   0.003   9.044  11.015  0.5425  0.5157  0.2505
  746MOL0     O 2846  -0.108   8.986  10.953  0.2216  0.7652 -0.6709
  746MOL0     C 2847  -0.088   8.901  10.835  0.8476 -0.0022  1.3822
  746MOL0     C 2848  -0.231   8.827  10.826 -0.4621  0.4479  0.0604
  746MOL0     C 2849  -0.225   8.722  10.940 -0.0110 -0.3382 -0.0310
  746MOL0     C 2850  -0.326   8.616  10.895  0.2951 -0.5752 -0.0086
  746MOL0     C 2851  -0.365   8.515  11.011  0.2363 -0.6089 -0.7206
  746MOL0     C 2852  -0.497   8.449  10.986 -0.4311 -0.0231  0.4440
  746MOL0     C 2853  -0.497   8.361  10.857 -0.5450 -0.0118  0.6543
  746MOL0     C 2854  -0.629   8.344  10.774  1.3512  0.0563  0.0952
  746MOL0    Cl 2855  -0.603   8.252  10.629 -0.1572 -0.1041 -0.0367
  746MOL0     C 2856   0.123   9.044  10.947 -0.1214 -0.1696 -0.3888
  746MOL0     C 2857   0.227   9.116  11.005 -0.7700  0.1427  0.9035
  746MOL0     O 2858   0.272   9.347  11.377 -0.0128  0.2728 -0.0012
  746MOL0     C 2859   0.582   9.290  11.219 -0.1283  0.4194 -0.6945
  746MOL0     C 2860   0.718   9.330  11.230 -0.6213  0.7725  0.7797
  746MOL0     N 2861   1.475   9.825  11.012 -0.0468 -0.0161 -0.9387
  746MOL0     N 2862   1.509   9.790  10.895  0.4249  0.1422 -0.2103
  746MOL0     C 2863   1.235   9.903   9.842 -0.2029  0.4352  0.2789
  746MOL0     C 2864   1.127   9.947   9.759  0.1661  0.8988 -0.1097
  746MOL0     C 2865   0.717   9.921   9.569 -0.0012  0.5423  0.3584
  746MOL0     C 2866   0.589   9.889   9.630 -1.2078  0.2956  0.5752
  746MOL0     C 2867   0.470   9.926   9.560  0.4974 -0.2308  0.0415
  746MOL0     C 2868   0.467   9.994   9.434  0.0341 -1.1588  0.2048
  746MOL0     O 2869   0.357  10.036   9.363 -0.1296 -0.0785 -0.1908
  746MOL0     C 2870   0.225  10.001   9.422 -1.7321  0.0528  0.3814
  746MOL0     C 2871   0.185   9.857   9.389  0.1554  0.0873  1.0768
  746MOL0     C 2872   0.181   9.832   9.231 -0.2868  0.2882  0.8713
  746MOL0     C 2873   0.274   9.714   9.191 -0.0405  0.6966  0.2618
  746MOL0     C 2874   0.227   9.593   9.256 -0.6026  1.1291 -0.6247
  746MOL0     C 2875   0.185   9.505   9.317 -0.0488  0.2603  0.0752
  746MOL0     C 2876   0.597  10.025   9.378  0.0535 -0.4790  0.4080
  746MOL0     C 2877   0.719   9.980   9.440  0.3513 -1.0327  0.1330
  746MOL0     C 2878   0.849  10.002   9.362 -0.0339  0.2974 -1.3369
  746MOL0     H 2879   1.128   9.698   9.529 -1.2700  0.4875 -0.7612
  746MOL0     H 2880   1.315   9.627   9.665  0.3286  1.1656 -1.0455
  746MOL0     H 2881   1.356   9.739  10.082  2.6679 -3.3303  3.0672
  746MOL0     H 2882   1.462   9.873  10.013  0.4442 -0.3777 -2.6911
  746MOL0     H 2883   1.504   9.593  10.096  1.7194 -0.8831  0.1277
  746MOL0     H 2884   1.626   9.669   9.992 -0.1660  1.2193  0.4468
  746MOL0     H 2885   1.706   9.709  10.200 -0.4151  0.0164  2.1654
  746MOL0     H 2886   1.617   9.862  10.172 -3.0557  0.4629  0.3328
  746MOL0     H 2887   1.405   9.722  10.288 -0.2364 -3.7514 -0.0468
  746MOL0     H 2888   1.533   9.610  10.335 -1.0370 -0.1547 -1.0516
  746MOL0     H 2889   1.509   9.923  10.395 -1.2823  0.0803  0.2940
  746MOL0     H 2890   1.639   9.811  10.440  0.6358  0.5749 -4.4602
  746MOL0     H 2891   1.419   9.892  10.611  1.5435 -0.4380 -0.1105
  746MOL0     H 2892   1.342   9.776  10.508  0.8478 -2.4695 -0.3266
  746MOL0     H 2893   1.586   9.720  10.674 -1.5933 -1.6877  1.4955
  746MOL0     H 2894   1.510   9.602  10.558  0.9203 -2.4292  1.9356
  746MOL0     H 2895   1.306   9.638  10.670 -0.4232  1.9633  0.3833
  746MOL0     H 2896   1.423   9.538  10.754  4.2829  0.0464 -0.9886
  746MOL0     H 2897   1.230   9.615  10.964 -1.6210  1.7846 -2.1380
  746MOL0     H 2898   1.351   9.830  11.250  1.0813 -1.9245  0.5302
  746MOL0     H 2899   1.335   9.653  11.234 -1.5353 -0.2822 -0.5678
  746MOL0     H 2900   1.128   9.819  11.291  3.2212  0.2713  1.4286
  746MOL0     H 2901   1.115   9.783  11.108 -0.2494 -1.8292  0.1893
  746MOL0     H 2902   1.106   9.548  11.149  1.7372  3.1511 -2.9544
  746MOL0     H 2903   1.129   9.584  11.332  0.2729  3.2856  0.8468
  746MOL0     H 2904   0.916   9.662  11.363  1.0864  0.9290 -0.5896
  746MOL0     H 2905   0.891   9.666  11.185 -1.0250  1.4950  0.8864
  746MOL0     H 2906   0.679   9.632  11.372 -0.5072 -1.2118  1.1896
  746MOL0     H 2907   0.323   9.595  11.357  0.1775 -0.4491 -1.8339
  746MOL0     H 2908   0.456   9.690  11.414  0.3997 -0.5563  3.3741
  746MOL0     H 2909   0.416   9.551  11.504  0.7236  0.9929  0.3083
  746MOL0     H 2910   0.075   9.218  11.287  3.6864 -0.0089 -0.1435
  746MOL0     H 2911  -0.130   9.118  11.157 -0.3688 -1.5835 -0.0823
  746MOL0     H 2912  -0.068   8.957  10.743  0.0495  0.0125  1.2073
  746MOL0     H 2913  -0.011   8.825  10.847 -0.4095 -2.0459 -2.1755
  746MOL0     H 2914  -0.317   8.894  10.825  0.1036  1.1911  0.2330
  746MOL0     H 2915  -0.228   8.775  10.730  1.1228 -0.3184  0.4857
  746MOL0     H 2916  -0.267   8.761  11.033 -0.3859 -1.5371  0.3143
  746MOL0     H 2917  -0.128   8.676  10.958  0.8314  2.2209  2.7322
  746MOL0     H 2918  -0.301   8.564  10.802 -2.4011  0.0057 -1.1525
  746MOL0     H 2919  -0.420   8.667  10.873 -0.7244 -2.0522  0.7058
  746MOL0     H 2920  -0.280   8.450  11.032  2.2520  1.5145 -1.9104
  746MOL0     H 2921  -0.371   8.572  11.103  0.6243 -2.8427  0.7680
  746MOL0     H 2922  -0.588   8.508  10.975 -1.2021 -1.5126 -1.9668
  746MOL0     H 2923  -0.514   8.380  11.070  0.8803  0.9557  1.5542
  746MOL0     H 2924  -0.461   8.262  10.888  0.3612 -0.6074 -2.0671
  746MOL0     H 2925  -0.420   8.398  10.789 -0.0248  1.1236  1.8116
  746MOL0     H 2926  -0.674   8.440  10.748 -0.4032 -0.0334  2.4139
  746MOL0     H 2927  -0.698   8.295  10.844  0.0186  4.7940  2.5369
  746MOL0     H 2928   0.141   8.993  10.853 -1.3931 -1.6836  0.1437
  746MOL0     H 2929   0.319   9.114  10.947 -0.2706 -0.4264  1.6913
  746MOL0     H 2930   0.564   9.187  11.193  3.4184 -0.3779 -0.4815
  746MOL0     H 2931   0.795   9.260  11.199 -1.4007 -1.3470  3.2429
  746MOL0     H 2932   1.266   9.968   9.924 -0.2599 -0.0759  0.7131
  746MOL0     H 2933   1.071  10.025   9.809 -0.7520  0.0838  0.1877
  746MOL0     H 2934   0.588   9.845   9.729  1.1837 -0.7389  0.2206
  746MOL0     H 2935   0.377   9.904   9.613  0.9832 -1.7206  0.3157
  746MOL0     H 2936   0.210  10.016   9.529  1.7209  0.9345  0.8495
  746MOL0     H 2937   0.150  10.064   9.373 -0.6102 -0.6104 -2.3794
  746MOL0     H 2938   0.086   9.840   9.432  0.1776 -1.5127  0.5749
  746MOL0     H 2939   0.265   9.796   9.432  2.0858 -0.7932 -3.1534
  746MOL0     H 2940   0.088   9.785   9.197  0.2780 -0.5416  0.4240
  746MOL0     H 2941   0.205   9.926   9.182 -0.2424 -0.5709 -0.8200
  746MOL0     H 2942   0.378   9.734   9.215  0.6963 -1.4543 -0.8353
  746MOL0     H 2943   0.276   9.695   9.083 -0.7676  0.5041  0.2737
  746MOL0     H 2944   0.141   9.425   9.374  3.3549 -1.1524  0.9472
  746MOL0     H 2945   0.607  10.083   9.287 -0.5302 -1.8547 -0.5631
  746MOL0     H 2946   0.908  10.074   9.419 -1.9979 -0.2282  1.5912
  746MOL0     H 2947   0.909   9.911   9.361  1.4268  0.6635  5.2808
  746MOL0     H 2948   0.844  10.038   9.259  0.4068  0.9670 -1.1282
  747MOL0     O 2949   2.110   1.149   3.242  0.0480  1.2417  0.5329
  747MOL0     C 2950   2.180   1.231   3.188 -0.0374  0.1554  0.1804
  747MOL0     O 2951   2.210   1.235   3.056  0.3654 -0.2280  0.2297
  747MOL0     C 2952   2.129   1.195   2.962  0.4205  0.0634  0.8654
  747MOL0     C 2953   1.993   1.170   2.975 -1.3638 -0.5877  0.0522
  747MOL0     C 2954   1.921   1.093   2.881  0.1789  0.2441  0.2077
  747MOL0     C 2955   1.975   1.061   2.759  0.3840  0.5922 -0.3291
  747MOL0     O 2956   1.891   1.002   2.671  0.6162  0.0131 -0.8915
  747MOL0     C 2957   1.918   1.021   2.532  0.2446 -0.6906  0.0098
  747MOL0     C 2958   1.786   0.996   2.452 -1.0417  0.7157 -0.4286
  747MOL0     C 2959   1.816   0.985   2.307 -0.0164 -0.0453  0.0562
  747MOL0     C 2960   1.688   0.993   2.213  0.0181 -0.3170 -0.0355
  747MOL0     C 2961   1.606   1.123   2.236 -0.3576  1.2776  0.2496
  747MOL0     C 2962   1.486   1.103   2.148  0.3376  0.0724 -0.8594
  747MOL0     C 2963   1.388   1.222   2.146  0.2204  0.6918 -0.0551
  747MOL0     C 2964   1.233   1.197   2.127  0.0744  0.4488  0.3225
  747MOL0     N 2965   1.173   1.102   2.223 -0.3026 -0.3123  0.2303
  747MOL0     C 2966   1.185   1.110   2.358  0.0886  0.0680  0.2443
  747MOL0     C 2967   1.177   0.983   2.398 -0.4132  0.1542  1.1818
  747MOL0     C 2968   1.177   0.941   2.543  0.5791 -1.2681  1.3415
  747MOL0     C 2969   1.304   0.882   2.602  0.0343 -0.4216  0.3234
  747MOL0     C 2970   1.290   0.882   2.757 -0.1508 -0.0305  0.9184
  747MOL0     C 2971   1.199   0.766   2.807  0.0451 -0.3097  0.2058
  747MOL0     O 2972   1.204   0.773   2.945 -0.5394 -0.1463 -1.2394
  747MOL0     C 2973   1.131   0.676   3.011 -0.0870 -0.9396  0.8952
  747MOL0     C 2974   1.151   0.668   3.157  1.0000  0.6571  0.8160
  747MOL0     C 2975   1.067   0.589   3.238 -0.3165 -0.8088  0.0687
  747MOL0     C 2976   1.094   0.597   3.386  0.2025  0.2206 -0.2661
  747MOL0     C 2977   0.978   0.498   3.171  0.4465 -0.4767 -0.7644
  747MOL0     C 2978   0.897   0.412   3.242  0.5740 -0.9514  0.1947
  747MOL0     O 2979   0.828   0.465   3.350  1.3049  0.3342 -0.0515
  747MOL0     C 2980   0.726   0.392   3.397 -0.8246  0.8727  0.5073
  747MOL0     C 2981   0.737   0.305   3.507 -0.2470  0.0680  0.3582
  747MOL0     C 2982   0.621   0.242   3.553 -0.0030 -0.0776  0.8760
  747MOL0     C 2983   0.499   0.256   3.490 -0.5910 -0.7708 -0.6991
  747MOL0     O 2984   0.394   0.192   3.549 -0.3165  0.5238  0.0754
  747MOL0     C 2985   0.278   0.163   3.464  0.6564 -0.9244  1.2733
  747MOL0     C 2986   0.163   0.099   3.540 -0.1274 -0.5079  0.9558
  747MOL0     C 2987   0.201  -0.018   3.631  0.4769 -1.3648  0.0972
  747MOL0     C 2988   0.289  -0.128   3.566  0.3126 -1.3856  0.1265
  747MOL0     C 2989   0.301  -0.249   3.666 -0.5980 -0.5868 -0.5569
  747MOL0     C 2990   0.395  -0.351   3.601  0.4700 -0.0699  0.0203
  747MOL0     C 2991   0.418  -0.475   3.688  0.1597  0.1613 -0.3162
  747MOL0     C 2992   0.568  -0.517   3.685  0.5880 -0.3479  0.8112
  747MOL0    Cl 2993   0.630  -0.540   3.522  0.3852 -0.3382 -0.6990
  747MOL0     C 2994   0.491   0.347   3.376  0.0013  0.6541 -0.8718
  747MOL0     C 2995   0.604   0.411   3.337  0.1220 -0.7013 -0.4147
  747MOL0     O 2996   0.885   0.298   3.185  0.9550  0.0905  0.6681
  747MOL0     C 2997   0.971   0.495   3.027  1.2504  1.1482 -0.1194
  747MOL0     C 2998   1.036   0.584   2.954 -0.7418  0.0260 -0.6931
  747MOL0     N 2999   1.176   0.897   2.288  0.0519 -0.6874  0.0982
  747MOL0     N 3000   1.165   0.970   2.188  0.1588 -0.4694  0.7562
  747MOL0     C 3001   2.107   1.106   2.741 -0.3114 -0.6202  0.1785
  747MOL0     C 3002   2.180   1.176   2.834 -0.2315 -0.0340  0.3013
  747MOL0     C 3003   2.238   1.332   3.276 -0.0193 -0.8572  1.1513
  747MOL0     C 3004   2.282   1.456   3.214  0.1982  0.0531  0.7852
  747MOL0     C 3005   2.350   1.558   3.284  0.0469  0.0978 -0.1322
  747MOL0     C 3006   2.356   1.552   3.427 -0.3691  0.6023  0.5561
  747MOL0     O 3007   2.418   1.640   3.502  0.9259  0.8013 -0.2680
  747MOL0     C 3008   2.558   1.666   3.471  1.1546 -1.2360 -0.4830
  747MOL0     C 3009   2.602   1.758   3.580 -0.9732 -0.6673 -0.5641
  747MOL0     C 3010   2.738   1.820   3.539 -0.4620 -0.7061 -0.4430
  747MOL0     C 3011   2.789   1.913   3.653  0.0970  0.4753  0.4807
  747MOL0     C 3012   2.917   1.967   3.606  0.1110  0.8882 -0.0857
  747MOL0     C 3013   3.029   1.994   3.562  1.1249 -0.3079  0.4357
  747MOL0     C 3014   2.303   1.440   3.489  0.8985  0.6691  0.7135
  747MOL0     C 3015   2.240   1.332   3.422 -0.3810  0.2458  0.7803
  747MOL0     C 3016   2.170   1.212   3.500 -0.7893 -0.2203 -0.3634
  747MOL0     H 3017   1.946   1.183   3.072  0.3461 -1.6478  1.0824
  747MOL0     H 3018   1.831   1.051   2.924 -0.9496  1.3897 -0.9353
  747MOL0     H 3019   1.992   0.948   2.498  1.2985  0.5035 -0.3448
  747MOL0     H 3020   1.938   1.127   2.513 -2.2956 -0.3012 -0.8435
  747MOL0     H 3021   1.740   0.904   2.490  0.1314  0.9442  1.7110
  747MOL0     H 3022   1.714   1.073   2.482 -1.2472 -0.4158  2.3191
  747MOL0     H 3023   1.889   1.060   2.277  0.3640 -0.5264 -0.2507
  747MOL0     H 3024   1.861   0.888   2.283 -0.5864 -0.0282 -1.1674
  747MOL0     H 3025   1.707   0.973   2.107 -2.4511 -1.0319 -0.4207
  747MOL0     H 3026   1.619   0.914   2.243  0.3820 -1.7144 -2.5541
  747MOL0     H 3027   1.655   1.219   2.217 -1.4755  2.2809  2.0979
  747MOL0     H 3028   1.569   1.118   2.339 -1.0017 -0.5746 -0.0298
  747MOL0     H 3029   1.518   1.091   2.044  1.3482 -1.1678 -0.4158
  747MOL0     H 3030   1.428   1.015   2.176  2.4567 -0.4308  2.4265
  747MOL0     H 3031   1.423   1.292   2.070 -1.4349  0.6441 -0.9124
  747MOL0     H 3032   1.403   1.272   2.242 -0.2057 -0.9957  0.9410
  747MOL0     H 3033   1.175   1.289   2.130 -1.5478 -0.5552  0.6984
  747MOL0     H 3034   1.213   1.144   2.033 -1.4590 -0.2251  1.0025
  747MOL0     H 3035   1.202   1.199   2.417  0.0266  0.3615 -0.1767
  747MOL0     H 3036   1.098   0.866   2.559  0.2228 -1.1568  0.1901
  747MOL0     H 3037   1.146   1.035   2.589 -1.9500 -2.3647  2.0514
  747MOL0     H 3038   1.311   0.781   2.561  0.5560 -0.2640  0.0254
  747MOL0     H 3039   1.390   0.940   2.570  0.0300  0.5874  2.0083
  747MOL0     H 3040   1.384   0.844   2.798 -1.2293 -4.1800  0.0682
  747MOL0     H 3041   1.263   0.986   2.777 -2.5340  0.9119 -4.9666
  747MOL0     H 3042   1.099   0.792   2.772  0.1880  1.0112  0.7377
  747MOL0     H 3043   1.230   0.670   2.763 -0.6546  0.7420 -2.8366
  747MOL0     H 3044   1.234   0.728   3.191  0.8927  2.4836 -1.8751
  747MOL0     H 3045   1.026   0.677   3.416 -0.5554 -0.8805  1.0924
  747MOL0     H 3046   1.193   0.625   3.423  0.1462 -0.6999  0.6563
  747MOL0     H 3047   1.071   0.501   3.434  3.5423 -0.5757  0.0215
  747MOL0     H 3048   0.835   0.293   3.552  0.5196  0.4593 -1.1224
  747MOL0     H 3049   0.612   0.166   3.630 -0.5587 -1.1703 -0.2372
  747MOL0     H 3050   0.242   0.258   3.422 -1.2137 -3.1029 -2.5618
  747MOL0     H 3051   0.315   0.098   3.385 -1.9792 -0.5469 -0.3774
  747MOL0     H 3052   0.123   0.175   3.609 -0.0676 -1.1024  1.6597
  747MOL0     H 3053   0.077   0.069   3.481  1.1670 -1.5555 -0.4852
  747MOL0     H 3054   0.101  -0.055   3.652 -1.9392  4.6753  1.3562
  747MOL0     H 3055   0.244   0.026   3.721 -1.0565 -0.1495  0.2730
  747MOL0     H 3056   0.389  -0.087   3.550 -0.3786  1.5528  2.4955
  747MOL0     H 3057   0.251  -0.169   3.472 -0.9505  0.7817 -0.3839
  747MOL0     H 3058   0.334  -0.215   3.765  3.5672 -1.2358 -1.5281
  747MOL0     H 3059   0.202  -0.294   3.673 -1.0202  0.5702  3.5126
  747MOL0     H 3060   0.488  -0.302   3.571 -2.3565  3.9388 -3.1982
  747MOL0     H 3061   0.341  -0.385   3.513 -0.7311 -2.4781  1.5556
  747MOL0     H 3062   0.360  -0.565   3.665 -1.2714  0.2153  2.5565
  747MOL0     H 3063   0.376  -0.452   3.786 -2.3445  0.2210 -1.3303
  747MOL0     H 3064   0.574  -0.613   3.737  1.0332 -1.9934 -2.0902
  747MOL0     H 3065   0.622  -0.440   3.740  2.0801  0.3730 -1.5038
  747MOL0     H 3066   0.400   0.360   3.319 -0.4084  1.0666 -0.1437
  747MOL0     H 3067   0.602   0.467   3.245  3.2951  2.2500  1.0814
  747MOL0     H 3068   0.901   0.432   2.972  1.8709  0.8569 -0.5846
  747MOL0     H 3069   1.018   0.579   2.847  1.6886 -1.2133 -1.1174
  747MOL0     H 3070   2.160   1.085   2.648 -2.6755 -1.8989 -0.9759
  747MOL0     H 3071   2.285   1.194   2.809 -0.1074  0.4241  1.1452
  747MOL0     H 3072   2.278   1.471   3.107  2.3595 -1.0042  0.5026
  747MOL0     H 3073   2.400   1.641   3.236  0.7939  0.5186  1.3202
  747MOL0     H 3074   2.619   1.577   3.454 -0.3497 -1.7706 -3.9180
  747MOL0     H 3075   2.565   1.718   3.374 -0.7271 -0.4428 -0.2244
  747MOL0     H 3076   2.627   1.698   3.668  0.8112 -0.5825 -0.9884
  747MOL0     H 3077   2.528   1.834   3.609 -0.2668 -1.4705  4.2495
  747MOL0     H 3078   2.815   1.743   3.535  0.2751 -0.4059  3.6227
  747MOL0     H 3079   2.725   1.872   3.444 -1.2511  0.5185  0.3053
  747MOL0     H 3080   2.800   1.847   3.739 -1.0150 -0.3451  0.0138
  747MOL0     H 3081   2.710   1.984   3.680 -2.3170 -2.4782  1.7977
  747MOL0     H 3082   3.124   1.999   3.512  1.9370 -1.6420  1.7621
  747MOL0     H 3083   2.309   1.435   3.597 -2.0692  0.3721  0.9661
  747MOL0     H 3084   2.061   1.225   3.494 -0.7007  1.1972  0.7268
  747MOL0     H 3085   2.202   1.115   3.462 -3.6390 -0.5155 -2.4045
  747MOL0     H 3086   2.205   1.217   3.603  0.3781  4.4540 -0.7629
  748MOL0     O 3087   7.056   2.511  11.069  0.2448 -0.3749 -0.0093
  748MOL0     C 3088   6.979   2.468  11.164 -0.0070 -0.1682  0.7177
  748MOL0     O 3089   6.905   2.355  11.154 -0.1050  0.7247 -0.5755
  748MOL0     C 3090   6.875   2.286  11.038  0.2681 -0.2953  0.1283
  748MOL0     C 3091   6.855   2.145  11.049 -0.4966 -0.7430 -1.0786
  748MOL0     C 3092   6.806   2.077  10.943  0.5445  0.5435  0.6952
  748MOL0     C 3093   6.789   2.137  10.813 -0.0892  1.1459 -0.5182
  748MOL0     O 3094   6.753   2.043  10.714  0.2673 -0.8461 -0.0080
  748MOL0     C 3095   6.709   2.093  10.588  0.2368 -0.2038 -0.5048
  748MOL0     C 3096   6.818   2.139  10.484  0.0113  1.1033  0.3979
  748MOL0     C 3097   6.772   2.184  10.345 -0.8236 -0.6778 -0.9043
  748MOL0     C 3098   6.883   2.222  10.252  0.1418  0.7378  0.5335
  748MOL0     C 3099   6.841   2.287  10.115 -0.1012 -0.7143 -0.2914
  748MOL0     C 3100   6.966   2.345  10.038 -0.0122  0.0175 -0.8882
  748MOL0     C 3101   7.052   2.229   9.992  0.0957 -0.3967  0.6684
  748MOL0     C 3102   7.143   2.294   9.886 -0.2101  0.1011 -0.3760
  748MOL0     N 3103   7.207   2.191   9.802  0.1414 -0.0312  0.4337
  748MOL0     C 3104   7.290   2.091   9.861  0.7443  0.5430 -0.1251
  748MOL0     C 3105   7.299   1.998   9.763 -0.0967 -1.0149  0.1341
  748MOL0     C 3106   7.359   1.860   9.771 -0.5001  0.1552 -0.3357
  748MOL0     C 3107   7.501   1.859   9.837 -0.3960 -0.1086  0.7995
  748MOL0     C 3108   7.557   1.712   9.842  0.4082 -1.1877 -0.0617
  748MOL0     C 3109   7.558   1.630   9.707 -0.0951  0.4483  0.4245
  748MOL0     O 3110   7.421   1.601   9.676  0.3527 -1.0119  0.1698
  748MOL0     C 3111   7.400   1.530   9.560  0.6355  0.1370 -0.2233
  748MOL0     C 3112   7.274   1.517   9.512 -0.4218 -1.1330  0.0357
  748MOL0     C 3113   7.237   1.428   9.401 -0.3245 -0.6293 -0.2479
  748MOL0     C 3114   7.095   1.420   9.363  0.1676  0.8365 -0.9282
  748MOL0     C 3115   7.340   1.346   9.342 -0.0967  0.0388  0.0528
  748MOL0     C 3116   7.313   1.241   9.245 -0.2966 -0.1230 -0.8967
  748MOL0     O 3117   7.195   1.170   9.257  0.5436 -0.4231  0.1521
  748MOL0     C 3118   7.159   1.055   9.192 -0.5425  0.0419  0.8973
  748MOL0     C 3119   7.023   1.035   9.197 -0.5753 -0.4470  0.5593
  748MOL0     C 3120   6.963   0.939   9.126 -0.8563 -0.4652 -0.6039
  748MOL0     C 3121   7.041   0.852   9.050  0.6997 -0.4244  0.6520
  748MOL0     O 3122   6.970   0.743   9.003 -0.7430  0.1061 -0.0501
  748MOL0     C 3123   6.972   0.635   9.096  0.8050  0.3343  0.5161
  748MOL0     C 3124   6.852   0.550   9.098 -0.6682 -0.0627  0.2494
  748MOL0     C 3125   6.865   0.435   9.204  0.6114 -0.4360  0.0361
  748MOL0     C 3126   6.825   0.491   9.347  0.2451  0.0291  0.9376
  748MOL0     C 3127   6.823   0.372   9.443 -0.1546 -0.2994 -1.0882
  748MOL0     C 3128   6.848   0.416   9.590  0.3956 -0.0116 -0.1598
  748MOL0     C 3129   6.891   0.295   9.673 -0.5717 -0.3712  0.2080
  748MOL0     C 3130   6.847   0.308   9.821 -0.8856 -0.8252  0.1286
  748MOL0    Cl 3131   6.956   0.432   9.896  0.2977 -0.2361 -0.1617
  748MOL0     C 3132   7.178   0.856   9.059 -0.0798  0.1501  0.1235
  748MOL0     C 3133   7.239   0.969   9.114 -0.3791  0.8443 -0.0687
  748MOL0     O 3134   7.406   1.207   9.174 -1.1204  0.6413  0.5750
  748MOL0     C 3135   7.468   1.366   9.386 -0.1136 -0.5285 -1.0362
  748MOL0     C 3136   7.503   1.460   9.490  0.5977 -0.5110 -0.6185
  748MOL0     N 3137   7.231   2.043   9.648 -0.5524 -0.3333 -0.2861
  748MOL0     N 3138   7.181   2.158   9.668 -0.0625 -1.5774  0.4942
  748MOL0     C 3139   6.793   2.284  10.813 -0.0864  0.6446 -0.2989
  748MOL0     C 3140   6.830   2.360  10.927 -0.6934 -0.3914  0.2470
  748MOL0     C 3141   7.004   2.528  11.305 -0.0731  0.0402 -0.1927
  748MOL0     C 3142   6.954   2.455  11.417  0.1956  0.6475 -0.5250
  748MOL0     C 3143   6.989   2.493  11.550  0.7940  0.6534 -0.2786
  748MOL0     C 3144   7.079   2.601  11.565  0.0487 -0.2963 -0.0705
  748MOL0     O 3145   7.133   2.614  11.686  0.2847 -1.3130  1.0049
  748MOL0     C 3146   7.238   2.520  11.721 -0.5521 -0.5333  0.3876
  748MOL0     C 3147   7.269   2.546  11.865 -0.6063  1.2819 -0.7703
  748MOL0     C 3148   7.307   2.691  11.893 -0.6542  0.2010  0.7664
  748MOL0     C 3149   7.383   2.702  12.026 -0.6078 -0.0064  0.2930
  748MOL0     C 3150   7.428   2.846  12.041 -0.0973  0.0542 -0.3746
  748MOL0     C 3151   7.441   2.964  12.041 -0.6874 -0.4510 -0.3904
  748MOL0     C 3152   7.127   2.673  11.454 -0.4661 -0.3176 -0.6744
  748MOL0     C 3153   7.079   2.649  11.327 -0.6714  0.1208 -0.0933
  748MOL0     C 3154   7.108   2.762  11.227 -0.2689  0.7153 -0.4648
  748MOL0     H 3155   6.881   2.090  11.139 -0.1018  0.3267 -0.5117
  748MOL0     H 3156   6.801   1.969  10.942  0.5130  0.5304  1.4951
  748MOL0     H 3157   6.638   2.176  10.595  0.4951 -0.1150  2.4737
  748MOL0     H 3158   6.660   2.010  10.537  1.6712 -1.5718  0.2488
  748MOL0     H 3159   6.875   2.215  10.539 -0.6715  0.6088  1.8230
  748MOL0     H 3160   6.884   2.055  10.459 -0.9323  0.5672 -0.3322
  748MOL0     H 3161   6.708   2.107  10.301 -1.0952 -1.4050  0.7216
  748MOL0     H 3162   6.718   2.279  10.346  0.7020  0.2589 -1.8287
  748MOL0     H 3163   6.951   2.296  10.296 -2.0140  1.7560  2.3869
  748MOL0     H 3164   6.942   2.136  10.219  1.6423  3.1155 -3.7806
  748MOL0     H 3165   6.791   2.378  10.150 -2.7205 -1.8070 -0.9683
  748MOL0     H 3166   6.772   2.226  10.057 -0.6404 -0.2393 -0.1573
  748MOL0     H 3167   6.932   2.413   9.959 -0.2550  1.6712  0.5852
  748MOL0     H 3168   7.021   2.412  10.105 -0.4321  0.8792 -1.3904
  748MOL0     H 3169   6.992   2.154   9.942  3.8138 -3.1252 -0.1164
  748MOL0     H 3170   7.103   2.172  10.071 -1.6742 -0.3515  1.9072
  748MOL0     H 3171   7.100   2.372   9.822  0.1843  0.8587  0.2669
  748MOL0     H 3172   7.229   2.340   9.935  0.7445 -1.9655 -0.0031
  748MOL0     H 3173   7.333   2.074   9.959 -1.1155 -3.2783  0.2165
  748MOL0     H 3174   7.364   1.824   9.667  0.9625 -0.1884 -0.1604
  748MOL0     H 3175   7.288   1.798   9.827 -1.1958  2.1774  1.1153
  748MOL0     H 3176   7.569   1.917   9.775  0.2734 -1.1788  0.5054
  748MOL0     H 3177   7.489   1.889   9.942 -2.7077 -2.4974  1.3328
  748MOL0     H 3178   7.660   1.711   9.879  1.0387  0.7104 -1.5944
  748MOL0     H 3179   7.491   1.652   9.906  0.0825 -0.9419 -0.1635
  748MOL0     H 3180   7.605   1.687   9.627 -1.9157  1.4652  0.0272
  748MOL0     H 3181   7.606   1.535   9.732 -2.9540 -0.4041  3.4363
  748MOL0     H 3182   7.199   1.573   9.566 -0.1636 -2.5595  1.9951
  748MOL0     H 3183   7.091   1.415   9.254 -1.5465  1.7921 -0.9410
  748MOL0     H 3184   7.051   1.513   9.399 -0.7462  0.4695 -1.0662
  748MOL0     H 3185   7.040   1.331   9.398  4.1913 -1.9250 -0.9281
  748MOL0     H 3186   6.959   1.102   9.253  1.0123  0.4440  1.3725
  748MOL0     H 3187   6.857   0.917   9.136 -1.1114  0.1251 -1.8160
  748MOL0     H 3188   7.051   0.563   9.073  1.4771  1.6349 -1.5704
  748MOL0     H 3189   6.983   0.668   9.200  0.4482  0.5395  0.4920
  748MOL0     H 3190   6.771   0.617   9.130 -0.1146  0.1203  1.3367
  748MOL0     H 3191   6.838   0.518   8.995 -0.0543 -0.7557  0.3675
  748MOL0     H 3192   6.970   0.405   9.203  0.6736 -0.2394 -1.1889
  748MOL0     H 3193   6.799   0.355   9.172  0.0103  0.2246 -0.4200
  748MOL0     H 3194   6.729   0.543   9.340  0.3420  1.0942  4.9161
  748MOL0     H 3195   6.888   0.575   9.379  0.3430  0.7975 -1.1135
  748MOL0     H 3196   6.733   0.312   9.429  1.1439 -3.1955  1.6426
  748MOL0     H 3197   6.904   0.307   9.409  0.2109 -0.8078  0.6450
  748MOL0     H 3198   6.753   0.452   9.631  0.1396 -1.9441  1.0629
  748MOL0     H 3199   6.918   0.500   9.598 -1.4890  2.1325 -3.6049
  748MOL0     H 3200   6.999   0.283   9.673 -0.3260  0.5101 -3.6421
  748MOL0     H 3201   6.855   0.204   9.623 -1.2216  0.9362 -1.8115
  748MOL0     H 3202   6.847   0.210   9.871 -1.0914 -0.2148  1.3633
  748MOL0     H 3203   6.742   0.337   9.825 -0.6285  0.7495 -2.5569
  748MOL0     H 3204   7.228   0.769   9.019 -1.6205 -0.6150 -0.2217
  748MOL0     H 3205   7.346   0.988   9.110 -0.1405 -0.4457 -0.1391
  748MOL0     H 3206   7.546   1.305   9.342  1.6554  0.0678  1.1038
  748MOL0     H 3207   7.608   1.471   9.516  0.7042 -0.0008 -1.2330
  748MOL0     H 3208   6.774   2.338  10.720  2.3768 -0.1963 -1.3754
  748MOL0     H 3209   6.859   2.464  10.927  1.3248 -0.9155 -0.4251
  748MOL0     H 3210   6.900   2.361  11.408  2.0480 -0.4451 -0.9056
  748MOL0     H 3211   6.955   2.451  11.644 -1.7826  2.5832 -0.2311
  748MOL0     H 3212   7.200   2.420  11.698 -2.2212  0.0140  0.5719
  748MOL0     H 3213   7.322   2.548  11.658 -1.3398  2.8796  0.6455
  748MOL0     H 3214   7.358   2.483  11.880 -0.3230  1.4621 -1.6228
  748MOL0     H 3215   7.185   2.512  11.926  0.6644 -1.1564 -0.2278
  748MOL0     H 3216   7.369   2.732  11.813 -0.7264  0.3515  0.7867
  748MOL0     H 3217   7.215   2.749  11.899 -0.3596  0.5264  2.6341
  748MOL0     H 3218   7.465   2.633  12.047 -1.0439 -1.3205 -2.0106
  748MOL0     H 3219   7.319   2.681  12.112 -0.3375 -0.1186  0.4684
  748MOL0     H 3220   7.465   3.068  12.040 -2.4256  0.0180 -2.4018
  748MOL0     H 3221   7.193   2.758  11.460  0.2409 -0.9568  1.5635
  748MOL0     H 3222   7.028   2.758  11.153 -2.3231  2.2082  1.5524
  748MOL0     H 3223   7.106   2.862  11.269  1.5707 -0.5570  3.0730
  748MOL0     H 3224   7.202   2.740  11.174  0.5842  0.7987  0.9635
  749MOL0     O 3225   2.173  10.349   4.754 -0.6738  0.4397 -0.1311
  749MOL0     C 3226   2.084  10.440   4.753 -0.6291 -0.1527  0.4272
  749MOL0     O 3227   1.956  10.432   4.810 -0.4294 -0.3703 -0.9620
  749MOL0     C 3228   1.918  10.306   4.855  0.0133  0.2966  0.7176
  749MOL0     C 3229   1.842  10.316   4.965 -0.4991  0.8159 -0.2195
  749MOL0     C 3230   1.779  10.207   5.017  0.6014 -0.1384  0.8821
  749MOL0     C 3231   1.802  10.070   4.975 -0.0979 -0.0296 -0.6005
  749MOL0     O 3232   1.745   9.961   5.043  0.3520  0.2284 -0.2139
  749MOL0     C 3233   1.808   9.828   5.022 -0.2394 -0.1759  0.0502
  749MOL0     C 3234   1.741   9.723   5.102 -0.3765  0.3030  0.2491
  749MOL0     C 3235   1.823   9.590   5.113 -1.1973  0.8912  0.4687
  749MOL0     C 3236   1.759   9.473   5.191  0.0407  0.2560  0.2924
  749MOL0     C 3237   1.794   9.329   5.138 -0.6180 -0.7533  0.2724
  749MOL0     C 3238   1.727   9.233   5.237  0.3390 -0.5056 -0.3915
  749MOL0     C 3239   1.720   9.085   5.205 -0.4161 -0.2841  0.3589
  749MOL0     C 3240   1.870   9.033   5.185 -0.9184 -0.1123 -0.5693
  749MOL0     N 3241   1.881   8.887   5.190  0.5808  0.6162 -0.2269
  749MOL0     C 3242   1.898   8.816   5.307  0.4955 -0.1570  0.3754
  749MOL0     C 3243   1.945   8.697   5.261  0.7421  0.4437 -0.7908
  749MOL0     C 3244   1.950   8.597   5.372 -0.7433  0.4446 -0.1083
  749MOL0     C 3245   2.048   8.492   5.316  0.4926  0.6515 -0.8690
  749MOL0     C 3246   2.083   8.395   5.438 -0.1190  1.0003 -0.5547
  749MOL0     C 3247   1.965   8.299   5.454 -0.0198 -0.7197  1.1161
  749MOL0     O 3248   1.984   8.232   5.579  0.2132  0.1700 -0.0918
  749MOL0     C 3249   1.897   8.136   5.627 -0.1975 -0.2332  0.5833
  749MOL0     C 3250   1.810   8.075   5.545  0.2094 -0.4767  0.5341
  749MOL0     C 3251   1.736   7.960   5.590 -0.2336  0.3982  0.0212
  749MOL0     C 3252   1.650   7.882   5.494 -0.5429  0.2532 -0.1990
  749MOL0     C 3253   1.759   7.908   5.722  0.4095 -0.5438  0.0148
  749MOL0     C 3254   1.702   7.786   5.779 -0.3202  0.1506  1.4016
  749MOL0     O 3255   1.760   7.730   5.888 -0.0226 -0.0094 -1.0476
  749MOL0     C 3256   1.702   7.639   5.962  0.5297 -0.4602 -0.0201
  749MOL0     C 3257   1.679   7.670   6.100 -0.0698  0.3026  0.1502
  749MOL0     C 3258   1.619   7.575   6.176  0.6327  0.1893 -0.9126
  749MOL0     C 3259   1.568   7.459   6.125  0.4244 -0.3741  0.9860
  749MOL0     O 3260   1.495   7.374   6.194  0.5386  0.2586 -0.3210
  749MOL0     C 3261   1.374   7.324   6.139  1.0981 -0.2489  0.8492
  749MOL0     C 3262   1.276   7.307   6.256 -0.2041  1.4637 -0.8869
  749MOL0     C 3263   1.323   7.190   6.347  0.9616  0.0327  0.5171
  749MOL0     C 3264   1.210   7.137   6.431 -0.3544  0.1205  0.3514
  749MOL0     C 3265   1.252   7.055   6.552 -0.0587  0.7156 -0.1040
  749MOL0     C 3266   1.313   7.130   6.665 -0.7165  0.3625 -0.4618
  749MOL0     C 3267   1.210   7.167   6.771 -0.6053  0.4038  0.1677
  749MOL0     C 3268   1.278   7.247   6.891 -0.0581 -0.0652 -0.1820
  749MOL0    Cl 3269   1.421   7.174   6.974 -0.0713 -0.0158  0.2943
  749MOL0     C 3270   1.587   7.425   5.993  0.7886 -0.2549 -0.2674
  749MOL0     C 3271   1.669   7.508   5.918  0.7951 -0.0265  0.2918
  749MOL0     O 3272   1.592   7.744   5.727 -0.7546 -0.0953  0.9239
  749MOL0     C 3273   1.834   7.988   5.811 -0.2165  0.3875 -0.0136
  749MOL0     C 3274   1.907   8.101   5.762 -0.2393 -0.1407  0.5681
  749MOL0     N 3275   1.942   8.685   5.125 -0.1864 -0.5681  0.0239
  749MOL0     N 3276   1.906   8.803   5.085 -0.0925  0.2676 -0.1631
  749MOL0     C 3277   1.878  10.065   4.854  0.9022 -0.1735  0.0825
  749MOL0     C 3278   1.922  10.181   4.797 -0.0867  0.9472  0.6083
  749MOL0     C 3279   2.125  10.560   4.683  0.2592 -0.4060  0.8082
  749MOL0     C 3280   2.025  10.657   4.671  0.4422  0.4159 -0.0683
  749MOL0     C 3281   2.045  10.780   4.608  0.5250 -0.2521  0.0930
  749MOL0     C 3282   2.171  10.809   4.547  0.3729  0.0048  0.8895
  749MOL0     O 3283   2.185  10.939   4.500 -0.0254 -0.2525  0.0759
  749MOL0     C 3284   2.256  10.959   4.380  0.0735  0.3899 -0.3227
  749MOL0     C 3285   2.184  10.917   4.248 -0.1850 -0.0672 -0.4895
  749MOL0     C 3286   2.269  10.916   4.119  0.7646 -0.3758 -0.0927
  749MOL0     C 3287   2.380  10.815   4.125 -1.2049 -1.0460  0.2039
  749MOL0     C 3288   2.501  10.887   4.165  0.1217  0.0871  0.1652
  749MOL0     C 3289   2.609  10.932   4.187  0.9999  0.1465  0.0018
  749MOL0     C 3290   2.265  10.705   4.540 -0.2262  0.1330 -0.5411
  749MOL0     C 3291   2.244  10.579   4.602 -0.0020 -0.2078  0.0683
  749MOL0     C 3292   2.358  10.489   4.614  0.0110  0.1814 -0.2278
  749MOL0     H 3293   1.823  10.407   5.021 -0.0253 -0.2959  1.8432
  749MOL0     H 3294   1.720  10.205   5.107  0.6579  0.6986  0.9417
  749MOL0     H 3295   1.911   9.830   5.060 -1.6351  1.9345  4.3553
  749MOL0     H 3296   1.816   9.789   4.920 -1.7766  0.7658 -0.4713
  749MOL0     H 3297   1.737   9.775   5.199  1.0233  1.2331 -0.1601
  749MOL0     H 3298   1.639   9.705   5.068 -0.5885 -0.9224  1.4507
  749MOL0     H 3299   1.844   9.550   5.014 -3.1682 -2.0828  1.0918
  749MOL0     H 3300   1.923   9.610   5.151 -0.8184  0.8963 -0.5026
  749MOL0     H 3301   1.810   9.483   5.288  1.3451  0.0148 -0.3487
  749MOL0     H 3302   1.661   9.513   5.218  0.8971  3.9783 -1.5288
  749MOL0     H 3303   1.901   9.307   5.128 -0.1656  1.3681 -0.1374
  749MOL0     H 3304   1.754   9.317   5.038  0.9223 -3.0178 -0.1436
  749MOL0     H 3305   1.788   9.243   5.328  3.6450 -0.3274 -2.4448
  749MOL0     H 3306   1.622   9.260   5.245  0.3490 -0.7051  0.5431
  749MOL0     H 3307   1.653   9.074   5.119 -2.5504  1.7463  1.6523
  749MOL0     H 3308   1.670   9.030   5.285 -0.8286  1.1738  1.1550
  749MOL0     H 3309   1.914   9.065   5.090 -0.7815  0.6062 -0.2724
  749MOL0     H 3310   1.944   9.074   5.254 -3.0204  2.5989  0.2605
  749MOL0     H 3311   1.879   8.842   5.410 -0.4426 -1.0992  0.4651
  749MOL0     H 3312   1.851   8.553   5.390 -0.6284  0.0759 -0.3663
  749MOL0     H 3313   1.999   8.635   5.462 -0.3888  0.2709 -0.2255
  749MOL0     H 3314   2.006   8.441   5.229  0.8461 -1.7529  0.2851
  749MOL0     H 3315   2.144   8.540   5.293  0.9039 -0.1590 -0.8838
  749MOL0     H 3316   2.179   8.346   5.419  0.2745  1.6119 -0.1823
  749MOL0     H 3317   2.094   8.447   5.533 -0.7817  0.5288 -0.2098
  749MOL0     H 3318   1.871   8.354   5.463 -1.1033 -2.0406 -1.2164
  749MOL0     H 3319   1.945   8.235   5.367 -4.1273 -0.2774  1.5412
  749MOL0     H 3320   1.800   8.115   5.445  0.0611  0.4699  0.9143
  749MOL0     H 3321   1.677   7.780   5.466 -1.6766 -0.1475  0.1245
  749MOL0     H 3322   1.642   7.938   5.400  4.0224  1.7198  0.0132
  749MOL0     H 3323   1.553   7.869   5.543 -0.4835 -1.7955 -0.5200
  749MOL0     H 3324   1.714   7.770   6.125 -2.0550  1.3833 -1.0600
  749MOL0     H 3325   1.594   7.603   6.277 -0.6989  1.5465 -1.5859
  749MOL0     H 3326   1.324   7.393   6.070 -2.1460 -0.2288  3.0021
  749MOL0     H 3327   1.377   7.224   6.095  0.8076 -0.1437  0.5861
  749MOL0     H 3328   1.268   7.395   6.321 -1.9510 -0.6621  2.0721
  749MOL0     H 3329   1.177   7.289   6.214  0.3972 -3.3415 -0.9137
  749MOL0     H 3330   1.401   7.229   6.413  1.6424 -3.1592  1.7809
  749MOL0     H 3331   1.357   7.106   6.287 -1.9420 -0.7848 -0.1770
  749MOL0     H 3332   1.146   7.079   6.364 -0.0742  1.0822 -0.7849
  749MOL0     H 3333   1.146   7.218   6.468  1.0783  0.7835  1.4510
  749MOL0     H 3334   1.160   7.005   6.582  1.1055 -0.8700  0.9952
  749MOL0     H 3335   1.319   6.979   6.510 -2.7621 -1.2316 -1.1766
  749MOL0     H 3336   1.358   7.225   6.636 -0.5432  0.3814 -0.1376
  749MOL0     H 3337   1.392   7.069   6.710 -1.3749  1.2983  2.1232
  749MOL0     H 3338   1.162   7.081   6.820 -0.1140  0.6794  1.1694
  749MOL0     H 3339   1.144   7.240   6.723 -1.1555  1.3998  2.3107
  749MOL0     H 3340   1.208   7.267   6.972 -0.1961 -0.1498 -0.2781
  749MOL0     H 3341   1.313   7.344   6.854  1.0211 -0.9938 -1.7579
  749MOL0     H 3342   1.564   7.329   5.949  2.3396 -0.0512 -1.5999
  749MOL0     H 3343   1.704   7.473   5.822  0.4746  1.4992 -0.4041
  749MOL0     H 3344   1.826   7.971   5.918 -1.4579  0.3109 -0.1002
  749MOL0     H 3345   1.978   8.153   5.825 -0.5969 -1.1774  1.8792
  749MOL0     H 3346   1.889   9.965   4.812 -0.2687 -1.8416  3.3567
  749MOL0     H 3347   1.967  10.167   4.699  2.3671  1.9214  1.4961
  749MOL0     H 3348   1.926  10.639   4.712  0.8846 -2.0596  0.0352
  749MOL0     H 3349   1.963  10.850   4.596  0.3741 -0.8851 -4.0403
  749MOL0     H 3350   2.282  11.065   4.382 -1.7302  0.8767 -0.7558
  749MOL0     H 3351   2.340  10.889   4.385 -1.1578 -1.2153 -1.1173
  749MOL0     H 3352   2.104  10.991   4.237  1.1107  1.1736 -2.1240
  749MOL0     H 3353   2.131  10.822   4.252 -0.6586  0.2192  0.7198
  749MOL0     H 3354   2.204  10.886   4.036  1.2667  0.3630 -0.7735
  749MOL0     H 3355   2.306  11.015   4.090 -0.4898 -0.0159 -0.5267
  749MOL0     H 3356   2.406  10.776   4.026  0.0544  1.5526 -0.5808
  749MOL0     H 3357   2.359  10.724   4.181 -0.4611 -0.1688  1.9836
  749MOL0     H 3358   2.692  10.992   4.220  1.6316 -0.6535 -0.1184
  749MOL0     H 3359   2.360  10.729   4.493 -0.7266  2.3534 -0.4886
  749MOL0     H 3360   2.445  10.542   4.574 -1.1342  0.7797 -2.0566
  749MOL0     H 3361   2.370  10.477   4.723  0.2529 -4.4300 -0.5576
  749MOL0     H 3362   2.340  10.390   4.571  3.3000 -0.8130  0.4512
  750MOL0     O 3363   0.333   5.695   8.868 -0.0818 -0.2457  0.1393
  750MOL0     C 3364   0.227   5.631   8.848 -0.1206 -0.1415 -0.8113
  750MOL0     O 3365   0.224   5.508   8.803 -0.3911 -0.1450 -0.3785
  750MOL0     C 3366   0.337   5.443   8.744 -0.3081 -0.9944 -0.3182
  750MOL0     C 3367   0.443   5.391   8.818  0.4702 -0.7709  0.2769
  750MOL0     C 3368   0.552   5.334   8.746  0.6547 -0.4129  0.1573
  750MOL0     C 3369   0.556   5.335   8.608 -0.1436 -0.0979 -0.3798
  750MOL0     O 3370   0.671   5.306   8.537 -0.2887  0.7710  0.7481
  750MOL0     C 3371   0.763   5.413   8.508 -0.1668 -0.1650  0.3261
  750MOL0     C 3372   0.903   5.367   8.486  0.0679  0.0422  0.0019
  750MOL0     C 3373   0.917   5.311   8.335  0.1727  0.3963 -0.6118
  750MOL0     C 3374   1.059   5.280   8.289 -0.6012  0.4879  1.0739
  750MOL0     C 3375   1.108   5.155   8.363  0.0574  0.3710  0.7029
  750MOL0     C 3376   1.242   5.094   8.307  0.7091  0.1230  0.0812
  750MOL0     C 3377   1.292   4.987   8.407 -0.6609 -0.5385  0.3380
  750MOL0     C 3378   1.191   4.886   8.457  0.0534 -0.0558  0.1498
  750MOL0     N 3379   1.164   4.782   8.360  0.4540  0.0352 -0.4461
  750MOL0     C 3380   1.087   4.786   8.245 -0.5789  0.6218 -0.5950
  750MOL0     C 3381   1.082   4.658   8.208 -0.2245 -0.4852 -0.0237
  750MOL0     C 3382   0.992   4.605   8.099  0.0655 -0.3979 -0.2023
  750MOL0     C 3383   1.077   4.577   7.970 -0.5260 -0.1400 -0.3876
  750MOL0     C 3384   1.122   4.434   7.962 -0.3517 -0.6230  0.1653
  750MOL0     C 3385   1.011   4.345   7.899 -0.2228 -0.5327  0.0313
  750MOL0     O 3386   1.057   4.217   7.852  0.1681  0.8775  0.0764
  750MOL0     C 3387   1.121   4.211   7.727  0.3847  0.1143 -0.3897
  750MOL0     C 3388   1.096   4.308   7.629  0.4432 -0.1194  0.2603
  750MOL0     C 3389   1.171   4.301   7.506 -0.0626 -0.5911 -0.4050
  750MOL0     C 3390   1.156   4.406   7.401 -0.3709  0.1041 -0.7263
  750MOL0     C 3391   1.262   4.196   7.488  0.1216 -0.1244  0.7885
  750MOL0     C 3392   1.325   4.172   7.357  0.4681 -0.0348 -0.8507
  750MOL0     O 3393   1.239   4.158   7.252  0.4731  0.0059  0.1736
  750MOL0     C 3394   1.289   4.132   7.122  0.8227 -0.8093  0.0477
  750MOL0     C 3395   1.384   4.033   7.089  0.9510  0.0329 -0.7143
  750MOL0     C 3396   1.417   4.003   6.956  0.1261  0.1567 -0.5277
  750MOL0     C 3397   1.354   4.069   6.855  0.1241 -0.5208  0.5376
  750MOL0     O 3398   1.374   4.036   6.724  0.7668 -0.6737 -0.8956
  750MOL0     C 3399   1.473   3.947   6.675  0.7952 -0.5118  0.3369
  750MOL0     C 3400   1.455   3.950   6.521 -1.0205 -0.6599  0.7488
  750MOL0     C 3401   1.580   3.877   6.458  0.3660 -0.7080 -0.1752
  750MOL0     C 3402   1.560   3.884   6.306 -0.0168 -0.6458 -0.2707
  750MOL0     C 3403   1.689   3.860   6.220  0.1453  1.2392  0.2022
  750MOL0     C 3404   1.753   3.725   6.253  0.7051 -1.3154  0.0395
  750MOL0     C 3405   1.893   3.715   6.207 -0.0718  0.2852  0.2857
  750MOL0     C 3406   1.917   3.570   6.178 -0.8084 -0.1445 -0.1940
  750MOL0    Cl 3407   1.859   3.466   6.298  0.2104 -0.2070  0.2460
  750MOL0     C 3408   1.252   4.153   6.886  0.5122 -1.4116 -0.4267
  750MOL0     C 3409   1.224   4.187   7.014  0.8168 -0.0264 -0.1307
  750MOL0     O 3410   1.449   4.149   7.363  0.4689  0.6561 -0.6592
  750MOL0     C 3411   1.279   4.099   7.584  0.1935 -0.4796 -0.5187
  750MOL0     C 3412   1.221   4.112   7.709 -1.6654 -0.0421 -0.0796
  750MOL0     N 3413   1.159   4.575   8.297  0.2669  0.0584 -0.1098
  750MOL0     N 3414   1.205   4.657   8.383 -0.7728  0.3038  0.3617
  750MOL0     C 3415   0.439   5.365   8.546 -0.0487  1.5439 -0.0533
  750MOL0     C 3416   0.331   5.423   8.603 -0.3899 -0.3938 -0.0341
  750MOL0     C 3417   0.099   5.699   8.888 -0.4089  0.8583  0.8472
  750MOL0     C 3418  -0.025   5.627   8.876  0.9048 -0.7452 -0.1328
  750MOL0     C 3419  -0.148   5.694   8.898  0.2399  0.2797  0.6652
  750MOL0     C 3420  -0.150   5.828   8.947  1.1419  0.0564  0.1980
  750MOL0     O 3421  -0.264   5.900   8.984 -0.6258  0.9288 -0.5596
  750MOL0     C 3422  -0.394   5.852   8.957 -0.2063 -0.9611 -0.3778
  750MOL0     C 3423  -0.493   5.966   8.930  0.2887 -0.1094  0.6771
  750MOL0     C 3424  -0.487   6.032   8.798 -0.3463 -0.2778 -0.0839
  750MOL0     C 3425  -0.574   6.156   8.795 -0.4515  0.4142 -0.0512
  750MOL0     C 3426  -0.570   6.191   8.649 -0.6037 -0.4735 -0.6099
  750MOL0     C 3427  -0.602   6.243   8.543 -0.9527 -0.7916  0.3083
  750MOL0     C 3428  -0.026   5.898   8.956 -0.1872  0.1715 -0.3699
  750MOL0     C 3429   0.105   5.837   8.930 -0.1345 -0.1014  0.8313
  750MOL0     C 3430   0.223   5.930   8.950  0.1481 -0.0936 -1.0014
  750MOL0     H 3431   0.447   5.408   8.925  2.3256  1.9256 -0.1193
  750MOL0     H 3432   0.632   5.298   8.810  1.7375  0.3124 -0.7634
  750MOL0     H 3433   0.761   5.485   8.590 -1.0541 -0.3793  0.5078
  750MOL0     H 3434   0.725   5.460   8.417  1.4081  0.9639  0.2131
  750MOL0     H 3435   0.967   5.454   8.503 -1.0979  0.9631 -0.1205
  750MOL0     H 3436   0.950   5.298   8.556 -0.6239  0.6671  1.1128
  750MOL0     H 3437   0.854   5.222   8.325  3.3374 -1.9739 -0.9877
  750MOL0     H 3438   0.881   5.384   8.262  0.1112  1.3618  0.3706
  750MOL0     H 3439   1.056   5.249   8.185  2.3793 -1.2384  1.3807
  750MOL0     H 3440   1.136   5.358   8.291  0.6496 -0.7079  2.2011
  750MOL0     H 3441   1.029   5.081   8.348 -0.8142  1.2918  0.6785
  750MOL0     H 3442   1.112   5.162   8.473  3.0124 -2.3699  0.9389
  750MOL0     H 3443   1.228   5.050   8.208 -0.1348 -0.6939  0.5438
  750MOL0     H 3444   1.313   5.178   8.304  1.5063 -0.5318  0.4229
  750MOL0     H 3445   1.340   5.044   8.487  0.3181  3.7971 -2.9700
  750MOL0     H 3446   1.372   4.937   8.351 -1.2866 -0.5555 -0.5686
  750MOL0     H 3447   1.240   4.836   8.541 -0.8034 -1.2023 -0.0141
  750MOL0     H 3448   1.105   4.938   8.499 -1.3606 -1.1097 -1.3131
  750MOL0     H 3449   1.033   4.871   8.205  3.6931  2.8579 -2.2302
  750MOL0     H 3450   0.913   4.677   8.079  1.6279  1.8197  1.1615
  750MOL0     H 3451   0.945   4.515   8.139  0.2841 -0.6502 -0.5077
  750MOL0     H 3452   1.013   4.612   7.888 -2.2869  3.1687  2.1379
  750MOL0     H 3453   1.175   4.625   7.974  0.9832 -2.8167  5.0099
  750MOL0     H 3454   1.214   4.425   7.903  0.4624  0.5924  1.1936
  750MOL0     H 3455   1.146   4.397   8.062  2.0753  2.6870  0.9651
  750MOL0     H 3456   0.945   4.320   7.983  0.3846  0.3018  0.7893
  750MOL0     H 3457   0.952   4.392   7.820  1.4697  1.4522 -0.1516
  750MOL0     H 3458   1.023   4.388   7.637 -1.8169 -2.0026 -0.7569
  750MOL0     H 3459   1.242   4.410   7.333  0.7600 -1.4124  0.5428
  750MOL0     H 3460   1.152   4.507   7.442  2.3008 -1.2057  3.4098
  750MOL0     H 3461   1.062   4.388   7.347  0.2180 -0.9473 -1.4448
  750MOL0     H 3462   1.433   3.986   7.173 -1.5624  2.4754  2.4078
  750MOL0     H 3463   1.491   3.927   6.931 -0.9729 -1.8949  2.0312
  750MOL0     H 3464   1.573   3.983   6.700  0.2068  0.1601  1.8926
  750MOL0     H 3465   1.449   3.846   6.709 -0.0278  0.2324  2.1122
  750MOL0     H 3466   1.355   3.913   6.494 -0.9499  0.1882 -0.8005
  750MOL0     H 3467   1.461   4.055   6.493  2.1623 -0.4971  1.7002
  750MOL0     H 3468   1.595   3.776   6.498 -2.1503 -1.6042 -1.2347
  750MOL0     H 3469   1.672   3.931   6.479 -0.1863 -0.4501  1.7879
  750MOL0     H 3470   1.525   3.983   6.278  2.4545 -0.3461 -2.7386
  750MOL0     H 3471   1.493   3.800   6.284  1.4503 -1.1690 -3.1441
  750MOL0     H 3472   1.659   3.858   6.115  3.5692 -2.0353 -0.9318
  750MOL0     H 3473   1.763   3.939   6.239  0.9714  0.4617  0.2532
  750MOL0     H 3474   1.688   3.646   6.216 -2.5321  2.0532 -2.2656
  750MOL0     H 3475   1.755   3.712   6.362 -1.2803 -1.4685  0.0896
  750MOL0     H 3476   1.965   3.748   6.282  0.2515 -1.1326  0.6125
  750MOL0     H 3477   1.913   3.781   6.122  0.0320  3.4799  2.6029
  750MOL0     H 3478   2.024   3.549   6.168 -0.8048  0.7319 -2.8846
  750MOL0     H 3479   1.869   3.539   6.084  1.2001 -0.9260 -1.0023
  750MOL0     H 3480   1.198   4.189   6.798  1.5036 -1.8606 -1.2409
  750MOL0     H 3481   1.136   4.250   7.024  0.2542 -1.0303  1.5966
  750MOL0     H 3482   1.351   4.020   7.564 -0.7111 -1.2007 -0.9907
  750MOL0     H 3483   1.252   4.038   7.782  0.4114 -0.3888 -1.2389
  750MOL0     H 3484   0.433   5.363   8.438 -0.4309 -1.7565 -0.0742
  750MOL0     H 3485   0.250   5.456   8.538 -0.8500 -0.1209  0.6576
  750MOL0     H 3486  -0.031   5.520   8.856 -0.2656 -1.0212  1.4568
  750MOL0     H 3487  -0.242   5.639   8.901 -2.0169  3.8118  2.5247
  750MOL0     H 3488  -0.397   5.791   8.866 -3.1489 -0.5383 -0.6686
  750MOL0     H 3489  -0.437   5.797   9.041 -1.6511  2.0445  1.0311
  750MOL0     H 3490  -0.482   6.051   8.999 -1.4545  2.4232 -1.9380
  750MOL0     H 3491  -0.596   5.929   8.936  1.3421 -4.4069 -2.7347
  750MOL0     H 3492  -0.385   6.058   8.768 -0.5680 -0.8096 -1.3800
  750MOL0     H 3493  -0.525   5.960   8.725 -1.2882 -1.0784  1.1477
  750MOL0     H 3494  -0.531   6.234   8.859  2.4588  1.3151 -2.8146
  750MOL0     H 3495  -0.674   6.123   8.825 -0.0935 -0.3942  0.2915
  750MOL0     H 3496  -0.635   6.297   8.457  0.0144 -3.7366 -2.0850
  750MOL0     H 3497  -0.040   6.004   8.978  2.6851  0.7172 -0.7890
  750MOL0     H 3498   0.254   5.907   9.052 -1.8560 -2.4983 -0.8172
  750MOL0     H 3499   0.307   5.931   8.880  2.1389  1.0903  1.2619
  750MOL0     H 3500   0.204   6.038   8.945  2.9577  0.4986 -0.6443
  751MOL0     O 3501   0.169   1.541   1.738 -0.5853  0.1463 -0.1198
  751MOL0     C 3502   0.206   1.476   1.641 -0.0628 -1.3781 -0.8367
  751MOL0     O 3503   0.118   1.398   1.566 -0.2689 -1.1826  0.8207
  751MOL0     C 3504  -0.014   1.401   1.605 -1.4112 -0.7101 -0.7324
  751MOL0     C 3505  -0.114   1.478   1.537 -0.1935 -0.8315  0.0516
  751MOL0     C 3506  -0.243   1.486   1.562 -0.4876 -0.1007 -1.6228
  751MOL0     C 3507  -0.276   1.397   1.663  1.0053  0.4229  0.5600
  751MOL0     O 3508  -0.402   1.368   1.700  0.1216  0.4299  0.5949
  751MOL0     C 3509  -0.523   1.437   1.643 -0.4028 -0.7126 -0.2565
  751MOL0     C 3510  -0.647   1.346   1.662 -0.0283  0.1033 -0.5123
  751MOL0     C 3511  -0.666   1.302   1.809 -0.3693 -0.1477  0.0056
  751MOL0     C 3512  -0.806   1.258   1.824  0.2974 -0.1941  0.6073
  751MOL0     C 3513  -0.822   1.219   1.967  0.9484 -0.4958 -0.2355
  751MOL0     C 3514  -0.916   1.101   1.977 -0.0021  0.3142  0.1255
  751MOL0     C 3515  -0.946   1.057   2.123 -0.7749 -0.0287 -0.1444
  751MOL0     C 3516  -0.837   0.967   2.177 -0.3559  0.3857 -0.2731
  751MOL0     N 3517  -0.896   0.912   2.299  0.4752  0.3812  0.3931
  751MOL0     C 3518  -0.872   0.961   2.422 -0.2062  0.1662  0.0048
  751MOL0     C 3519  -0.927   0.873   2.506 -0.2446  0.7430 -0.3609
  751MOL0     C 3520  -0.956   0.895   2.657  0.2334  0.5518  0.9241
  751MOL0     C 3521  -1.028   1.027   2.692  1.0641  0.0045 -0.3876
  751MOL0     C 3522  -1.027   1.052   2.843  0.6646  0.2338 -0.4800
  751MOL0     C 3523  -1.062   1.191   2.889 -0.0350  0.4625  0.4020
  751MOL0     O 3524  -1.158   1.243   2.797 -0.5751 -0.1126 -0.2151
  751MOL0     C 3525  -1.215   1.359   2.831 -0.3394 -0.8224  0.2662
  751MOL0     C 3526  -1.134   1.477   2.874  0.7848 -0.2881  0.1728
  751MOL0     C 3527  -1.202   1.594   2.915 -0.5029  0.2786 -0.2635
  751MOL0     C 3528  -1.112   1.709   2.933 -0.2039 -0.1906 -0.7533
  751MOL0     C 3529  -1.340   1.593   2.939  0.0147 -0.0461  0.7663
  751MOL0     C 3530  -1.418   1.703   2.993  0.1629  0.7213 -0.2799
  751MOL0     O 3531  -1.551   1.714   2.962  0.0600  0.1217  0.0382
  751MOL0     C 3532  -1.635   1.798   3.024  1.0551 -0.0338 -0.5068
  751MOL0     C 3533  -1.743   1.837   2.940  0.0657 -0.6456 -0.2014
  751MOL0     C 3534  -1.847   1.924   2.985 -0.1722  1.0074  0.2762
  751MOL0     C 3535  -1.843   1.974   3.115  0.5621  0.0587 -0.4113
  751MOL0     O 3536  -1.915   2.068   3.175  0.2044 -0.5627  0.0593
  751MOL0     C 3537  -2.009   2.151   3.095 -0.6867 -0.2493 -0.1779
  751MOL0     C 3538  -2.102   2.251   3.173  0.0839  0.4989  0.1901
  751MOL0     C 3539  -2.022   2.306   3.281 -0.0476 -0.6795 -0.3280
  751MOL0     C 3540  -2.080   2.432   3.352 -0.1643 -0.2858  0.0777
  751MOL0     C 3541  -2.039   2.449   3.503 -0.1011  0.7016 -0.0243
  751MOL0     C 3542  -1.888   2.505   3.512  0.0779  0.1782  0.2439
  751MOL0     C 3543  -1.803   2.392   3.527 -0.2579  0.3256  0.3922
  751MOL0     C 3544  -1.662   2.407   3.463  0.2662 -0.1631 -0.1208
  751MOL0    Cl 3545  -1.584   2.539   3.565  0.1790 -0.3209 -0.2703
  751MOL0     C 3546  -1.733   1.934   3.198  0.8558  0.3138 -0.0584
  751MOL0     C 3547  -1.633   1.849   3.152  0.9065 -0.4591  0.5102
  751MOL0     O 3548  -1.358   1.779   3.072 -0.0277  0.9766  0.3520
  751MOL0     C 3549  -1.411   1.475   2.897 -0.1679 -0.9538 -0.1776
  751MOL0     C 3550  -1.352   1.363   2.836  0.0003 -0.7509  0.3850
  751MOL0     N 3551  -0.979   0.764   2.433 -0.0202 -0.0369 -0.0740
  751MOL0     N 3552  -0.957   0.789   2.307  0.2215 -0.4885 -0.3324
  751MOL0     C 3553  -0.189   1.302   1.720  0.1909  0.3250 -0.5464
  751MOL0     C 3554  -0.055   1.317   1.708 -1.0757 -0.0472  0.2830
  751MOL0     C 3555   0.350   1.467   1.615 -0.2586 -1.2370 -0.9462
  751MOL0     C 3556   0.381   1.441   1.480 -0.4342 -0.4275 -0.1220
  751MOL0     C 3557   0.514   1.410   1.453 -0.0880 -0.5723 -0.1121
  751MOL0     C 3558   0.619   1.422   1.543  0.1979 -0.1125  0.3987
  751MOL0     O 3559   0.733   1.393   1.480  0.1343  0.4481  0.2062
  751MOL0     C 3560   0.845   1.378   1.563  0.9136 -0.0030 -0.6320
  751MOL0     C 3561   0.951   1.329   1.474 -0.2325 -0.1912 -0.2362
  751MOL0     C 3562   0.993   1.418   1.357 -0.6742  0.2464 -0.6853
  751MOL0     C 3563   1.106   1.338   1.285 -0.5561  0.3526  0.1354
  751MOL0     C 3564   1.158   1.427   1.188 -0.0748 -0.5140  0.0292
  751MOL0     C 3565   1.211   1.483   1.092  0.6358  0.8167 -0.7092
  751MOL0     C 3566   0.585   1.452   1.675 -0.3186  0.6618 -0.7050
  751MOL0     C 3567   0.448   1.481   1.713 -0.8231  0.0100  0.0891
  751MOL0     C 3568   0.423   1.522   1.857 -0.1396  0.4866 -0.5242
  751MOL0     H 3569  -0.069   1.535   1.456  0.5408 -0.9510  0.3650
  751MOL0     H 3570  -0.292   1.564   1.504  2.4105  1.2706 -2.4664
  751MOL0     H 3571  -0.505   1.444   1.535  3.0965  4.6761  0.2736
  751MOL0     H 3572  -0.533   1.538   1.684  1.1171 -1.3186  1.7083
  751MOL0     H 3573  -0.733   1.404   1.628  0.8400  0.2794 -2.6187
  751MOL0     H 3574  -0.638   1.256   1.600 -3.1426 -1.9943  1.7626
  751MOL0     H 3575  -0.596   1.224   1.839  1.1125  1.3067  0.4890
  751MOL0     H 3576  -0.643   1.383   1.879  0.2746  0.3108 -0.7100
  751MOL0     H 3577  -0.874   1.340   1.801 -3.2668 -2.3895  2.4432
  751MOL0     H 3578  -0.834   1.180   1.754  1.8072 -0.1575 -0.0815
  751MOL0     H 3579  -0.865   1.309   2.012  1.1289  1.4616 -3.6742
  751MOL0     H 3580  -0.728   1.192   2.017  0.0464 -0.4543  1.5608
  751MOL0     H 3581  -1.010   1.134   1.932 -1.5879  2.5317  4.4703
  751MOL0     H 3582  -0.882   1.017   1.915 -0.3441  2.5093 -3.3179
  751MOL0     H 3583  -1.043   1.011   2.107 -1.2840  1.3672 -1.2224
  751MOL0     H 3584  -0.955   1.145   2.187 -0.5526  0.7711 -1.1929
  751MOL0     H 3585  -0.828   0.896   2.094  1.3927  2.1783 -1.7185
  751MOL0     H 3586  -0.740   1.013   2.199 -1.0083  0.2656  3.6125
  751MOL0     H 3587  -0.830   1.059   2.440 -0.2219  0.6536 -2.2711
  751MOL0     H 3588  -0.859   0.888   2.706  0.3672  0.6430  0.6683
  751MOL0     H 3589  -1.015   0.809   2.691  1.2485  0.1896  1.8392
  751MOL0     H 3590  -0.968   1.099   2.636 -0.2067 -0.8745 -3.0691
  751MOL0     H 3591  -1.131   1.022   2.654 -0.3270 -2.1145  3.1913
  751MOL0     H 3592  -1.094   0.979   2.889  1.2158 -1.4700 -2.2780
  751MOL0     H 3593  -0.923   1.031   2.872  0.5913 -2.1040 -1.6967
  751MOL0     H 3594  -1.084   1.206   2.995  1.0691  1.6665  0.4930
  751MOL0     H 3595  -0.961   1.234   2.887  0.2560 -0.2463 -0.7663
  751MOL0     H 3596  -1.028   1.480   2.852  0.4581 -0.3126 -1.4802
  751MOL0     H 3597  -1.022   1.708   2.870 -1.0077  0.2021 -1.9582
  751MOL0     H 3598  -1.091   1.712   3.040  1.9520  0.1725 -1.1408
  751MOL0     H 3599  -1.151   1.805   2.897  2.3815  0.6388 -1.5575
  751MOL0     H 3600  -1.742   1.796   2.840  1.3726  0.5600 -0.7261
  751MOL0     H 3601  -1.933   1.957   2.928 -2.2856 -3.0536  0.7836
  751MOL0     H 3602  -1.953   2.218   3.029 -2.6152  3.2730  1.4823
  751MOL0     H 3603  -2.081   2.089   3.042  0.7255 -3.6867  1.6489
  751MOL0     H 3604  -2.133   2.329   3.103 -0.1844 -1.9682 -2.6676
  751MOL0     H 3605  -2.191   2.208   3.219 -0.3425  1.5446  0.3759
  751MOL0     H 3606  -1.925   2.335   3.238 -0.5913  1.0510 -0.4745
  751MOL0     H 3607  -2.030   2.233   3.362 -3.5797 -1.0779 -0.8732
  751MOL0     H 3608  -2.188   2.422   3.340  0.1323 -1.4765 -2.1520
  751MOL0     H 3609  -2.042   2.509   3.283  3.8117 -2.6296 -0.6806
  751MOL0     H 3610  -2.099   2.521   3.559 -1.8461 -0.2776 -0.5788
  751MOL0     H 3611  -2.052   2.352   3.552 -0.9280  0.8822  0.1322
  751MOL0     H 3612  -1.862   2.580   3.588 -2.8741  1.2583  0.3401
  751MOL0     H 3613  -1.863   2.550   3.416 -2.4044 -0.5748 -0.8394
  751MOL0     H 3614  -1.846   2.300   3.485  1.4588 -0.9439  1.2910
  751MOL0     H 3615  -1.794   2.380   3.635 -2.3449  0.4484  0.6169
  751MOL0     H 3616  -1.670   2.416   3.354  3.3548 -2.2764 -0.6574
  751MOL0     H 3617  -1.609   2.314   3.484  0.6541  0.2615  0.8451
  751MOL0     H 3618  -1.730   1.960   3.303  0.1519 -3.2170  0.9733
  751MOL0     H 3619  -1.551   1.825   3.220  1.8460  0.7484 -0.1625
  751MOL0     H 3620  -1.519   1.474   2.912  0.0327 -0.9729  1.4178
  751MOL0     H 3621  -1.416   1.279   2.811  0.9354 -1.8189  1.4358
  751MOL0     H 3622  -0.230   1.237   1.797 -2.1939 -0.7464 -2.5726
  751MOL0     H 3623   0.020   1.263   1.765  0.1062  1.9557  0.7437
  751MOL0     H 3624   0.317   1.450   1.392 -1.0966 -4.1567 -0.1785
  751MOL0     H 3625   0.548   1.388   1.352  3.0272  0.7347  0.5444
  751MOL0     H 3626   0.881   1.472   1.605  1.0211 -0.9521  1.5499
  751MOL0     H 3627   0.840   1.299   1.638  0.2234  1.2905  0.7151
  751MOL0     H 3628   0.920   1.231   1.435 -1.9522  1.1404 -2.4311
  751MOL0     H 3629   1.034   1.316   1.544 -1.5426  1.8227  1.8284
  751MOL0     H 3630   0.911   1.442   1.289 -0.0110  4.5410 -0.2855
  751MOL0     H 3631   1.036   1.511   1.396  2.0431 -1.5221  0.7985
  751MOL0     H 3632   1.059   1.257   1.230 -2.5949  3.0904 -2.4746
  751MOL0     H 3633   1.177   1.295   1.357  0.0669 -0.9856 -1.2142
  751MOL0     H 3634   1.258   1.539   1.014  2.3163  0.9352  0.3421
  751MOL0     H 3635   0.662   1.461   1.750  0.3926  1.3518 -1.4997
  751MOL0     H 3636   0.390   1.626   1.851  2.1235  1.1746 -4.3229
  751MOL0     H 3637   0.344   1.459   1.899 -0.7494  1.4767 -0.1587
  751MOL0     H 3638   0.507   1.523   1.927 -0.5028  0.4415 -0.0809
  752MOL0     O 3639   4.305   1.605   0.912  0.0467 -0.4769  0.2760
  752MOL0     C 3640   4.210   1.633   0.833  0.5029  1.0063  0.5059
  752MOL0     O 3641   4.169   1.542   0.733 -0.1356 -0.9127 -0.5706
  752MOL0     C 3642   4.260   1.436   0.707 -0.1014 -0.2925  0.0318
  752MOL0     C 3643   4.374   1.460   0.631  0.2609  0.3549  0.1099
  752MOL0     C 3644   4.470   1.362   0.619 -0.1721  0.5002  0.2644
  752MOL0     C 3645   4.449   1.227   0.671 -0.4776  0.0546  0.1553
  752MOL0     O 3646   4.536   1.116   0.683 -0.5844 -0.1313  0.9006
  752MOL0     C 3647   4.565   1.074   0.547  0.0059 -0.2084  1.5298
  752MOL0     C 3648   4.644   0.951   0.555  0.3189 -0.5574  0.3831
  752MOL0     C 3649   4.679   0.875   0.425  0.5670 -0.1497  0.6362
  752MOL0     C 3650   4.771   0.759   0.463 -0.7066  0.0849  0.1137
  752MOL0     C 3651   4.810   0.683   0.336  0.6603 -0.5018 -0.0246
  752MOL0     C 3652   4.868   0.773   0.228 -0.1073  0.8666  0.4753
  752MOL0     C 3653   4.941   0.694   0.115  1.0076 -0.2929 -0.8524
  752MOL0     C 3654   4.950   0.762  -0.022  0.5801 -0.5547 -0.5061
  752MOL0     N 3655   5.061   0.858  -0.027 -0.1247 -0.0799 -0.2124
  752MOL0     C 3656   5.178   0.834  -0.099 -0.3230  0.4541 -0.1687
  752MOL0     C 3657   5.234   0.952  -0.100 -0.1232 -0.2509 -0.4204
  752MOL0     C 3658   5.360   0.998  -0.163 -0.0852  0.5493 -0.6044
  752MOL0     C 3659   5.338   1.018  -0.315  0.0083  0.9352  0.2491
  752MOL0     C 3660   5.232   1.126  -0.351  0.2457  0.1638  0.6194
  752MOL0     C 3661   5.263   1.267  -0.300 -1.4893 -0.6174  0.4832
  752MOL0     O 3662   5.398   1.308  -0.345 -0.1163 -0.7257 -0.6763
  752MOL0     C 3663   5.461   1.414  -0.278 -0.3573  0.3250  0.9487
  752MOL0     C 3664   5.594   1.442  -0.306 -0.6874  0.3140 -0.0783
  752MOL0     C 3665   5.650   1.548  -0.239 -0.8095 -0.4061  0.2604
  752MOL0     C 3666   5.797   1.584  -0.280  0.2219 -0.0191 -0.0844
  752MOL0     C 3667   5.586   1.634  -0.145  0.1820  0.7920 -0.2299
  752MOL0     C 3668   5.661   1.743  -0.078 -0.4050  0.3529  0.1394
  752MOL0     O 3669   5.798   1.728  -0.058 -0.7716 -0.2560 -0.1647
  752MOL0     C 3670   5.862   1.816   0.024 -0.0734 -0.1123  0.1883
  752MOL0     C 3671   5.947   1.778   0.127 -0.8170 -0.3194 -0.6585
  752MOL0     C 3672   6.014   1.877   0.203 -0.6767  0.2082 -0.0130
  752MOL0     C 3673   5.991   2.013   0.197 -0.4527  0.6889 -0.3402
  752MOL0     O 3674   6.052   2.099   0.283 -0.3240  0.0879 -0.2812
  752MOL0     C 3675   5.983   2.216   0.331 -0.5990  0.0332  0.0922
  752MOL0     C 3676   6.040   2.259   0.467 -0.8087  0.2129  0.0490
  752MOL0     C 3677   5.952   2.360   0.537  0.0094  0.1136 -0.2617
  752MOL0     C 3678   5.991   2.381   0.679  1.1149 -1.0915 -0.5428
  752MOL0     C 3679   5.960   2.518   0.738 -0.0175  0.6380 -0.4297
  752MOL0     C 3680   5.806   2.523   0.774  0.2711 -0.4240  0.5359
  752MOL0     C 3681   5.764   2.468   0.911  1.0823 -0.3141  0.0271
  752MOL0     C 3682   5.614   2.495   0.938 -1.2352  0.4748 -0.2881
  752MOL0    Cl 3683   5.575   2.668   0.910  0.3145  0.6168  0.0488
  752MOL0     C 3684   5.910   2.052   0.091 -0.2529  0.3908 -1.3084
  752MOL0     C 3685   5.847   1.959   0.010  0.7745  0.1813  0.5003
  752MOL0     O 3686   5.591   1.827  -0.030 -0.2439 -0.3891 -0.1933
  752MOL0     C 3687   5.446   1.603  -0.124 -0.1558 -1.5133  0.2264
  752MOL0     C 3688   5.382   1.499  -0.194 -0.3603 -0.0849 -0.2053
  752MOL0     N 3689   5.159   1.045  -0.026  0.0054  0.3983  0.3452
  752MOL0     N 3690   5.067   0.985   0.028  0.4890  0.2725 -0.4935
  752MOL0     C 3691   4.330   1.204   0.741 -1.3570 -0.2435 -0.2706
  752MOL0     C 3692   4.239   1.303   0.759 -0.2076 -0.6354 -0.3185
  752MOL0     C 3693   4.140   1.755   0.831 -0.4771 -0.1002 -1.0352
  752MOL0     C 3694   4.114   1.821   0.708 -0.4497  1.5097 -0.5546
  752MOL0     C 3695   4.029   1.928   0.696  0.4576  0.4112 -0.3090
  752MOL0     C 3696   3.952   1.971   0.808 -0.2362  0.2637 -0.5900
  752MOL0     O 3697   3.849   2.060   0.812 -0.7156 -0.5250 -0.0857
  752MOL0     C 3698   3.808   2.117   0.683  0.4598 -0.3980  0.9157
  752MOL0     C 3699   3.691   2.215   0.687  0.3544  0.3499 -0.3101
  752MOL0     C 3700   3.571   2.137   0.736 -0.1770 -0.1810  0.3889
  752MOL0     C 3701   3.445   2.224   0.733  0.2299  0.8403  0.5326
  752MOL0     C 3702   3.325   2.143   0.736  0.4960 -0.2793  0.0461
  752MOL0     C 3703   3.227   2.079   0.706 -0.3006 -0.6381  0.2511
  752MOL0     C 3704   3.993   1.913   0.929 -0.7402 -0.2044  0.1628
  752MOL0     C 3705   4.096   1.817   0.943 -0.1949 -0.3335 -1.2852
  752MOL0     C 3706   4.117   1.760   1.089  0.4651  0.1035 -0.3753
  752MOL0     H 3707   4.397   1.553   0.581 -0.6268 -0.2460 -1.4898
  752MOL0     H 3708   4.563   1.374   0.564  1.1731 -5.9195  0.4457
  752MOL0     H 3709   4.638   1.138   0.497  0.0971 -2.4847 -1.4783
  752MOL0     H 3710   4.487   1.061   0.472  1.7682 -0.7415 -0.2837
  752MOL0     H 3711   4.740   0.985   0.595 -0.5005  1.9041  0.3717
  752MOL0     H 3712   4.596   0.878   0.622 -0.5594 -1.2989 -1.0232
  752MOL0     H 3713   4.584   0.843   0.382 -0.5761 -1.0471  3.5967
  752MOL0     H 3714   4.732   0.949   0.363  0.9445 -0.8985  0.0452
  752MOL0     H 3715   4.858   0.797   0.517 -0.6900 -0.3146  0.3806
  752MOL0     H 3716   4.721   0.693   0.535  0.0107  0.1227  0.6588
  752MOL0     H 3717   4.726   0.630   0.290  0.1365 -0.9028  1.3463
  752MOL0     H 3718   4.868   0.600   0.378 -1.3369 -1.7734  0.3839
  752MOL0     H 3719   4.784   0.825   0.180 -1.1348  1.5591  2.8738
  752MOL0     H 3720   4.944   0.846   0.259  2.1404 -1.0228 -0.3620
  752MOL0     H 3721   4.891   0.597   0.102  1.7330 -0.8026  0.0495
  752MOL0     H 3722   5.037   0.662   0.157  1.6859  2.1799 -0.4067
  752MOL0     H 3723   4.964   0.687  -0.101 -2.1044 -2.1906  0.4030
  752MOL0     H 3724   4.851   0.808  -0.033 -1.3173 -3.6545  1.5832
  752MOL0     H 3725   5.221   0.747  -0.147  0.1826  0.8129 -0.3711
  752MOL0     H 3726   5.438   0.922  -0.149 -1.0068 -0.7343 -2.1914
  752MOL0     H 3727   5.392   1.092  -0.115 -1.5046 -0.5822  2.8931
  752MOL0     H 3728   5.433   1.027  -0.368  1.1154 -1.7659  1.5771
  752MOL0     H 3729   5.307   0.921  -0.354  2.7504  0.9853 -2.3671
  752MOL0     H 3730   5.232   1.136  -0.460  0.9616  0.0057  0.6028
  752MOL0     H 3731   5.132   1.090  -0.325  0.1499  1.4961  2.1933
  752MOL0     H 3732   5.192   1.331  -0.354 -0.3456 -2.1546 -3.1451
  752MOL0     H 3733   5.246   1.253  -0.193 -0.1431 -1.0173  0.6678
  752MOL0     H 3734   5.657   1.371  -0.360  0.5033  1.0642  0.2877
  752MOL0     H 3735   5.865   1.551  -0.200 -0.6247  1.5106  1.3271
  752MOL0     H 3736   5.814   1.690  -0.298 -0.8459 -0.2478 -2.8568
  752MOL0     H 3737   5.818   1.533  -0.374  0.8766  0.8306 -0.4149
  752MOL0     H 3738   5.970   1.675   0.153  0.5996  0.3864  1.0433
  752MOL0     H 3739   6.089   1.829   0.264 -0.0306  0.5091 -0.5604
  752MOL0     H 3740   6.000   2.298   0.260 -0.8929 -1.0090 -1.2388
  752MOL0     H 3741   5.874   2.205   0.335 -0.6577 -0.2408 -1.3912
  752MOL0     H 3742   6.053   2.167   0.524 -2.1147 -2.6578 -3.8042
  752MOL0     H 3743   6.143   2.288   0.444 -0.6430 -1.8849 -2.3383
  752MOL0     H 3744   5.847   2.337   0.556 -1.1836  3.3112 -2.0869
  752MOL0     H 3745   5.957   2.449   0.473  2.4438 -0.1724 -0.5772
  752MOL0     H 3746   6.100   2.375   0.688  1.3162  1.2775 -0.8054
  752MOL0     H 3747   5.966   2.297   0.744 -1.8993 -1.1170 -1.6102
  752MOL0     H 3748   6.026   2.524   0.825 -0.7820 -1.6567  0.3838
  752MOL0     H 3749   5.983   2.603   0.673  1.0541 -0.6014 -1.7119
  752MOL0     H 3750   5.758   2.466   0.694 -1.0098 -0.8808  1.5934
  752MOL0     H 3751   5.783   2.630   0.781 -1.3810 -0.8070  1.2729
  752MOL0     H 3752   5.805   2.527   0.993 -3.3237  0.0898  2.2459
  752MOL0     H 3753   5.787   2.361   0.910 -1.7484 -1.0113 -1.3293
  752MOL0     H 3754   5.599   2.478   1.045 -0.9665 -4.2035 -0.7958
  752MOL0     H 3755   5.548   2.429   0.881 -0.7471  1.5568 -2.1957
  752MOL0     H 3756   5.899   2.159   0.076  1.3898  0.4489 -2.2936
  752MOL0     H 3757   5.798   1.988  -0.082  3.6372 -0.7220 -1.4603
  752MOL0     H 3758   5.396   1.679  -0.065  2.1167  1.8396 -1.8021
  752MOL0     H 3759   5.276   1.496  -0.170 -0.1456 -3.2692  0.9133
  752MOL0     H 3760   4.314   1.106   0.785  0.1343 -0.6354 -0.5470
  752MOL0     H 3761   4.162   1.282   0.832  0.5641 -1.1696  0.3647
  752MOL0     H 3762   4.165   1.775   0.624 -2.0122 -2.3270  0.3448
  752MOL0     H 3763   4.022   1.977   0.599  1.1505  4.1166  1.3151
  752MOL0     H 3764   3.899   2.169   0.650  0.6462 -1.6537 -0.6713
  752MOL0     H 3765   3.794   2.039   0.608  2.2598  0.3493 -0.2533
  752MOL0     H 3766   3.678   2.249   0.584  2.5067  2.7830  0.1152
  752MOL0     H 3767   3.719   2.301   0.749  0.3840 -1.0847  1.7610
  752MOL0     H 3768   3.544   2.055   0.668  0.5675 -0.0910 -0.0252
  752MOL0     H 3769   3.587   2.096   0.836 -0.8568 -4.7220 -1.1063
  752MOL0     H 3770   3.431   2.299   0.655 -3.6822 -0.9175 -0.6972
  752MOL0     H 3771   3.450   2.267   0.833  0.3957 -1.1260  1.4283
  752MOL0     H 3772   3.136   2.030   0.678 -0.6469 -0.3551  0.8375
  752MOL0     H 3773   3.945   1.939   1.023  0.3538 -0.5305  0.8296
  752MOL0     H 3774   4.206   1.806   1.134  0.0189  0.0953  0.5450
  752MOL0     H 3775   4.031   1.798   1.145 -0.8344  0.9164 -2.7956
  752MOL0     H 3776   4.133   1.652   1.084 -0.5747 -0.0313 -1.1538
  753MOL0     O 3777   9.182  11.264   8.580 -0.2453  0.0148  0.2651
  753MOL0     C 3778   9.068  11.298   8.564 -0.1932  0.7882  0.8340
  753MOL0     O 3779   8.968  11.265   8.651 -0.9498 -0.1048 -0.4096
  753MOL0     C 3780   9.006  11.206   8.769 -0.8756 -0.1493 -0.1678
  753MOL0     C 3781   9.034  11.276   8.886  0.3578 -0.1570 -0.2557
  753MOL0     C 3782   9.085  11.214   9.006  0.5801  0.4013  0.2525
  753MOL0     C 3783   9.104  11.075   9.008  0.2647  0.1249  0.0037
  753MOL0     O 3784   9.129  11.011   9.129  0.8199  0.0346 -0.2778
  753MOL0     C 3785   9.250  11.049   9.195 -0.5155 -1.0493  0.1459
  753MOL0     C 3786   9.316  10.939   9.275  0.7019  0.2096  0.0885
  753MOL0     C 3787   9.216  10.871   9.374  0.0095 -0.0125 -0.4441
  753MOL0     C 3788   9.292  10.768   9.464 -0.3948 -0.3534 -0.8408
  753MOL0     C 3789   9.194  10.676   9.540  0.1355 -0.7946 -0.8611
  753MOL0     C 3790   9.266  10.583   9.640 -0.2854 -0.0427 -0.7364
  753MOL0     C 3791   9.169  10.498   9.722 -0.3863 -0.2579  0.9827
  753MOL0     C 3792   9.240  10.396   9.806 -0.7229  0.2309  0.5038
  753MOL0     N 3793   9.167  10.360   9.928 -1.0399  0.8930  0.3969
  753MOL0     C 3794   9.135  10.229   9.944  0.1801  0.0469  0.3026
  753MOL0     C 3795   9.073  10.227  10.066  0.4739 -0.3437  0.7212
  753MOL0     C 3796   8.985  10.119  10.113 -0.1277  0.0186  0.2445
  753MOL0     C 3797   9.045  10.019  10.214  0.5594  0.4921  0.6464
  753MOL0     C 3798   8.947   9.904  10.243  0.0597  0.3084  0.3487
  753MOL0     C 3799   9.008   9.793  10.322  0.0103 -0.1682 -0.2569
  753MOL0     O 3800   9.111   9.838  10.411 -0.3916  0.9363 -0.4935
  753MOL0     C 3801   9.164   9.728  10.487  0.0947 -1.3004 -0.1684
  753MOL0     C 3802   9.289   9.675  10.454  1.4654  0.5022  0.8330
  753MOL0     C 3803   9.356   9.572  10.531  0.2121  0.2792 -0.4348
  753MOL0     C 3804   9.496   9.525  10.490 -0.0303  0.0829 -0.6357
  753MOL0     C 3805   9.277   9.518  10.637  0.5411  0.2835  0.3921
  753MOL0     C 3806   9.316   9.407  10.719  0.7465  0.8770  0.0108
  753MOL0     O 3807   9.352   9.288  10.654 -0.2194 -0.1385  0.2640
  753MOL0     C 3808   9.335   9.173  10.729  0.2539  0.4657  0.9743
  753MOL0     C 3809   9.431   9.121  10.818 -0.2189 -0.6357  0.3916
  753MOL0     C 3810   9.407   9.015  10.907  0.4761 -0.1405 -0.9203
  753MOL0     C 3811   9.279   8.950  10.905 -1.1673  0.0451 -0.1948
  753MOL0     O 3812   9.259   8.840  10.992 -0.5689  1.3149 -0.7330
  753MOL0     C 3813   9.139   8.762  10.970 -0.5956  0.1473  0.0584
  753MOL0     C 3814   9.143   8.632  11.053  0.2955 -0.2530  0.3925
  753MOL0     C 3815   9.182   8.655  11.194  0.7490  0.0882  0.8058
  753MOL0     C 3816   9.289   8.561  11.239 -0.4845 -0.1363  0.0135
  753MOL0     C 3817   9.313   8.557  11.395  0.0656  0.2723 -0.0985
  753MOL0     C 3818   9.429   8.466  11.439  0.9914 -0.3726  0.8577
  753MOL0     C 3819   9.422   8.317  11.415  0.0457 -0.2037 -0.3466
  753MOL0     C 3820   9.550   8.244  11.459  0.0960  0.3278 -0.5944
  753MOL0    Cl 3821   9.537   8.071  11.413 -0.1009 -0.6303  0.2651
  753MOL0     C 3822   9.189   9.001  10.818  0.5173 -0.2010  0.0665
  753MOL0     C 3823   9.212   9.107  10.736 -0.8724  0.2501  0.2336
  753MOL0     O 3824   9.322   9.428  10.838  0.0282  0.4569 -0.5528
  753MOL0     C 3825   9.155   9.570  10.669 -0.2502 -0.6931  1.3855
  753MOL0     C 3826   9.095   9.677  10.597  0.9831  0.3354  0.1686
  753MOL0     N 3827   9.062  10.356  10.117  0.6981  0.4536 -0.6436
  753MOL0     N 3828   9.115  10.438  10.027  0.5119  0.1597  0.5092
  753MOL0     C 3829   9.067  10.994   8.887 -0.7722  0.5527 -0.4067
  753MOL0     C 3830   9.024  11.069   8.771  0.3220 -0.1454  0.3409
  753MOL0     C 3831   9.018  11.363   8.443  0.9637 -0.9081  0.0995
  753MOL0     C 3832   8.907  11.450   8.456 -0.1677  0.4560  0.6354
  753MOL0     C 3833   8.857  11.529   8.350  0.1999  0.6263 -0.3669
  753MOL0     C 3834   8.922  11.534   8.233  0.2576 -0.5305 -0.5845
  753MOL0     O 3835   8.867  11.606   8.129 -0.2102  0.2393  0.1968
  753MOL0     C 3836   8.958  11.669   8.038 -0.2687 -0.2301 -0.4524
  753MOL0     C 3837   8.884  11.771   7.944  0.1684  0.7744  0.5294
  753MOL0     C 3838   8.945  11.799   7.809  0.3319  0.5281  0.4594
  753MOL0     C 3839   9.101  11.826   7.802  1.6550  0.1432 -0.2160
  753MOL0     C 3840   9.134  11.887   7.672  1.1744  1.1591 -0.7983
  753MOL0     C 3841   9.158  11.917   7.554  0.0248 -0.1257 -0.1946
  753MOL0     C 3842   9.033  11.450   8.211  0.0529 -0.0149 -0.2648
  753MOL0     C 3843   9.087  11.361   8.313  0.6278  0.6635  0.9155
  753MOL0     C 3844   9.203  11.269   8.297 -0.0682  0.3417  0.3787
  753MOL0     H 3845   9.023  11.382   8.868 -0.4207 -0.7770 -4.2267
  753MOL0     H 3846   9.119  11.278   9.087  0.1663  0.3626  0.4590
  753MOL0     H 3847   9.212  11.124   9.266  1.0875  1.2022 -1.2448
  753MOL0     H 3848   9.315  11.107   9.129 -1.5423 -1.6201 -1.4367
  753MOL0     H 3849   9.357  10.866   9.205 -1.5496  0.8361 -2.0117
  753MOL0     H 3850   9.391  10.982   9.342 -0.0671  1.0580  0.4208
  753MOL0     H 3851   9.174  10.951   9.435  0.7788 -0.0186  0.1060
  753MOL0     H 3852   9.134  10.826   9.317 -1.1180  1.9840 -0.4909
  753MOL0     H 3853   9.355  10.702   9.402  0.3587 -2.3507  1.8661
  753MOL0     H 3854   9.354  10.818   9.539  0.1127 -0.3926 -1.2230
  753MOL0     H 3855   9.131  10.617   9.472 -2.4292  1.1432 -0.3425
  753MOL0     H 3856   9.124  10.739   9.596 -0.0081 -1.3000 -0.4690
  753MOL0     H 3857   9.339  10.519   9.590  1.7782  0.1022  1.8347
  753MOL0     H 3858   9.327  10.648   9.705  1.3697 -1.6182 -0.6418
  753MOL0     H 3859   9.117  10.429   9.655 -0.0256 -2.0367  2.4550
  753MOL0     H 3860   9.100  10.559   9.780  0.1780  0.0651  1.3218
  753MOL0     H 3861   9.271  10.311   9.743  1.2756  0.5751  0.9530
  753MOL0     H 3862   9.331  10.440   9.848  0.3264  0.8713 -2.2240
  753MOL0     H 3863   9.159  10.145   9.879  1.2631  0.1652  0.5310
  753MOL0     H 3864   8.968  10.066  10.019  1.2496  0.1787 -0.1230
  753MOL0     H 3865   8.895  10.161  10.159 -1.1846 -1.6825 -0.1688
  753MOL0     H 3866   9.128   9.970  10.162  1.4171  0.9782  1.5254
  753MOL0     H 3867   9.080  10.053  10.312 -0.9914 -0.0058  1.4102
  753MOL0     H 3868   8.861   9.945  10.296  1.3419  1.1320  1.9227
  753MOL0     H 3869   8.913   9.873  10.144 -0.4689  1.5455  0.1287
  753MOL0     H 3870   8.937   9.734  10.382  0.3226 -0.7216 -0.4290
  753MOL0     H 3871   9.059   9.729  10.250 -0.3440 -1.2640  0.4308
  753MOL0     H 3872   9.333   9.723  10.367 -0.4415  2.4496  0.8765
  753MOL0     H 3873   9.502   9.416  10.482 -1.6826 -0.0572 -0.2428
  753MOL0     H 3874   9.566   9.575  10.557 -0.6718 -1.8575  1.6228
  753MOL0     H 3875   9.532   9.563  10.394  3.4199 -1.5757 -0.1462
  753MOL0     H 3876   9.528   9.170  10.826 -0.9385  0.7004  1.5763
  753MOL0     H 3877   9.471   8.986  10.989 -2.6103 -2.0497  0.9923
  753MOL0     H 3878   9.055   8.828  10.995  1.1106  2.9191 -0.9658
  753MOL0     H 3879   9.134   8.726  10.867  0.1196 -3.2446  1.0849
  753MOL0     H 3880   9.046   8.581  11.046  0.3665 -0.2564 -0.8046
  753MOL0     H 3881   9.216   8.570  11.000  1.2335  2.6154 -1.9617
  753MOL0     H 3882   9.091   8.641  11.252 -0.2139 -1.5133 -0.9520
  753MOL0     H 3883   9.220   8.756  11.212 -0.5008  0.5452  0.9397
  753MOL0     H 3884   9.377   8.595  11.184  0.5271 -1.9828  0.3884
  753MOL0     H 3885   9.257   8.467  11.193 -0.6642 -0.0149 -0.1078
  753MOL0     H 3886   9.327   8.659  11.433 -1.3183 -0.2778  2.0903
  753MOL0     H 3887   9.228   8.521  11.454 -0.4385 -0.2207 -1.0931
  753MOL0     H 3888   9.421   8.493  11.545  0.8150 -2.9890  1.5736
  753MOL0     H 3889   9.530   8.500  11.415 -0.1192  2.1297 -0.8184
  753MOL0     H 3890   9.411   8.303  11.307  0.4392  2.8078 -0.8622
  753MOL0     H 3891   9.332   8.275  11.459  0.1367  2.6218  2.9183
  753MOL0     H 3892   9.566   8.261  11.566 -1.4767  2.9057 -0.6653
  753MOL0     H 3893   9.632   8.291  11.404  1.6747 -1.5551  0.0378
  753MOL0     H 3894   9.091   8.958  10.800 -0.0587  1.9504 -2.7051
  753MOL0     H 3895   9.140   9.138  10.660 -3.7251  0.9744  3.0214
  753MOL0     H 3896   9.099   9.516  10.746  1.4394 -2.8619  1.1965
  753MOL0     H 3897   8.998   9.715  10.627  1.2564  2.2372 -1.1522
  753MOL0     H 3898   9.058  10.886   8.897 -2.3731  0.6289 -0.7828
  753MOL0     H 3899   9.008  10.995   8.693  1.8297  0.5767 -0.7270
  753MOL0     H 3900   8.856  11.456   8.551 -1.2464  2.1217 -0.0105
  753MOL0     H 3901   8.767  11.587   8.366 -2.4017 -2.8472 -1.3829
  753MOL0     H 3902   9.043  11.720   8.084 -2.2917  3.7073 -0.6022
  753MOL0     H 3903   8.997  11.591   7.972 -2.8186  0.1865 -2.6352
  753MOL0     H 3904   8.868  11.873   7.982 -1.0880  2.3657 -3.6378
  753MOL0     H 3905   8.787  11.725   7.924  0.6438 -1.2037  2.4525
  753MOL0     H 3906   8.924  11.709   7.751  1.8971 -0.2388  1.0575
  753MOL0     H 3907   8.895  11.888   7.769  1.1799  1.1009  0.6515
  753MOL0     H 3908   9.153  11.730   7.808  0.9476 -0.3346 -1.4598
  753MOL0     H 3909   9.143  11.888   7.882  1.2776 -2.1135  1.8637
  753MOL0     H 3910   9.187  11.925   7.452  1.8046 -1.7722  0.1348
  753MOL0     H 3911   9.087  11.454   8.117  1.1045  0.2617  0.3391
  753MOL0     H 3912   9.290  11.309   8.350  1.2757 -0.1543 -1.3603
  753MOL0     H 3913   9.176  11.166   8.319  0.7640 -0.1662 -0.8325
  753MOL0     H 3914   9.230  11.267   8.191 -0.5452  2.5187  0.1702
  754MOL0     O 3915  10.413   7.561   5.740  0.2386  0.3569  0.2435
  754MOL0     C 3916  10.495   7.651   5.782 -0.6633 -0.0179  0.2455
  754MOL0     O 3917  10.502   7.779   5.741  0.4400 -0.1680  0.3365
  754MOL0     C 3918  10.402   7.845   5.680  0.1086 -0.0587 -0.4902
  754MOL0     C 3919  10.431   7.975   5.632 -0.4966  0.2902 -0.0712
  754MOL0     C 3920  10.324   8.052   5.580 -0.3202 -0.4265 -0.0161
  754MOL0     C 3921  10.195   8.007   5.583  0.9054 -0.4027 -0.0006
  754MOL0     O 3922  10.080   8.069   5.547  0.0837 -0.2651 -0.0432
  754MOL0     C 3923  10.089   8.214   5.565  0.3684  0.9570  0.5449
  754MOL0     C 3924   9.972   8.290   5.508 -0.3973 -0.4768 -0.6061
  754MOL0     C 3925   9.833   8.255   5.574  0.2103  0.0798  0.1077
  754MOL0     C 3926   9.741   8.386   5.566  0.5334 -0.8891  0.0368
  754MOL0     C 3927   9.593   8.363   5.602 -0.2152 -0.0690  0.7375
  754MOL0     C 3928   9.516   8.243   5.525  0.5278 -0.8507  0.0867
  754MOL0     C 3929   9.532   8.228   5.369 -0.4897  0.0200  0.2200
  754MOL0     C 3930   9.520   8.355   5.286  0.0340  0.3840 -0.0067
  754MOL0     N 3931   9.513   8.321   5.153 -0.0941  0.6345  0.7189
  754MOL0     C 3932   9.405   8.342   5.069  1.3835  1.6778  0.2353
  754MOL0     C 3933   9.444   8.284   4.950 -0.0643  0.0508  0.2004
  754MOL0     C 3934   9.356   8.273   4.827  0.0881  0.1673 -0.4135
  754MOL0     C 3935   9.364   8.407   4.751 -0.1562  0.2938  0.7074
  754MOL0     C 3936   9.305   8.400   4.615  0.2235 -0.0349  0.6450
  754MOL0     C 3937   9.286   8.541   4.563 -0.0047  0.1700 -0.0329
  754MOL0     O 3938   9.262   8.530   4.429 -0.3949 -0.4018 -0.0405
  754MOL0     C 3939   9.209   8.631   4.356 -0.5090 -0.0191 -0.0182
  754MOL0     C 3940   9.155   8.600   4.232 -1.3337  0.1444 -1.0011
  754MOL0     C 3941   9.117   8.700   4.143  0.6202 -0.2379  0.3068
  754MOL0     C 3942   9.070   8.650   4.010  0.0944  0.1778 -0.0161
  754MOL0     C 3943   9.136   8.840   4.183  0.0740  0.4868 -0.7460
  754MOL0     C 3944   9.097   8.958   4.100  0.1390 -0.7348  0.0297
  754MOL0     O 3945   9.145   9.084   4.141  0.2473 -0.1233 -0.8115
  754MOL0     C 3946   9.097   9.197   4.077  0.3451  0.0276  0.1718
  754MOL0     C 3947   8.966   9.221   4.068  1.0250  0.8555 -0.4321
  754MOL0     C 3948   8.917   9.328   3.987 -0.6380 -0.1257  0.8959
  754MOL0     C 3949   9.003   9.426   3.922  0.4339  0.4915  0.5113
  754MOL0     O 3950   8.959   9.534   3.845 -0.2380 -0.8880  0.3249
  754MOL0     C 3951   8.959   9.498   3.702  0.0797 -0.4693  0.2672
  754MOL0     C 3952   8.811   9.503   3.655  0.5162  0.0514 -0.2049
  754MOL0     C 3953   8.783   9.420   3.527 -0.3868  0.1344  0.3424
  754MOL0     C 3954   8.851   9.482   3.400 -0.4565  0.7242 -0.0899
  754MOL0     C 3955   8.858   9.381   3.279 -0.1503 -0.3810  1.1131
  754MOL0     C 3956   8.925   9.244   3.322  0.7147 -0.0387 -0.4802
  754MOL0     C 3957   8.962   9.154   3.204 -0.7580  0.3148 -0.0234
  754MOL0     C 3958   8.848   9.108   3.108  0.7365  0.0041 -0.8418
  754MOL0    Cl 3959   8.701   9.056   3.206 -0.3093  0.2270 -0.6919
  754MOL0     C 3960   9.137   9.406   3.943 -0.8923 -0.6629 -1.1327
  754MOL0     C 3961   9.184   9.293   4.025 -0.3200  0.0188 -0.3860
  754MOL0     O 3962   9.022   8.934   4.006 -0.2509  0.9522 -0.0656
  754MOL0     C 3963   9.182   8.871   4.308  0.9347  0.2222  0.2113
  754MOL0     C 3964   9.223   8.768   4.394 -0.1343  0.0763  0.0613
  754MOL0     N 3965   9.577   8.252   4.965 -0.0534  1.1532 -0.0399
  754MOL0     N 3966   9.620   8.272   5.080 -0.2817 -0.4007 -0.6706
  754MOL0     C 3967  10.168   7.891   5.662  0.7605 -0.8453  0.4816
  754MOL0     C 3968  10.267   7.808   5.711 -0.3246 -0.2594 -0.2080
  754MOL0     C 3969  10.604   7.580   5.849  0.2167 -1.0557  1.3838
  754MOL0     C 3970  10.583   7.488   5.951 -0.0795 -0.3774 -0.0644
  754MOL0     C 3971  10.688   7.433   6.019 -0.7195  0.7782  0.4346
  754MOL0     C 3972  10.818   7.455   5.968 -0.9526  0.2656 -0.2490
  754MOL0     O 3973  10.935   7.402   6.023  0.0934  0.1313 -0.7773
  754MOL0     C 3974  10.918   7.325   6.143  0.0671  0.0114 -0.1493
  754MOL0     C 3975  11.050   7.253   6.169 -0.5394 -0.1905  1.3240
  754MOL0     C 3976  11.048   7.147   6.277 -0.4676  0.1435  0.8863
  754MOL0     C 3977  11.193   7.105   6.313  0.1756 -0.7482 -0.4140
  754MOL0     C 3978  11.162   7.007   6.427  0.2579 -0.1067  0.2551
  754MOL0     C 3979  11.145   6.939   6.525 -0.0547  0.2260 -0.1976
  754MOL0     C 3980  10.839   7.527   5.856 -0.0906 -0.7208 -0.5198
  754MOL0     C 3981  10.733   7.590   5.791 -0.1955 -0.4067 -0.2217
  754MOL0     C 3982  10.764   7.673   5.665  0.9519 -0.2143  0.3272
  754MOL0     H 3983  10.529   8.020   5.627 -0.6151  0.8271  1.8285
  754MOL0     H 3984  10.340   8.151   5.538  0.6240  0.4784  2.2729
  754MOL0     H 3985  10.176   8.261   5.518 -0.2844 -0.9448 -2.8912
  754MOL0     H 3986  10.075   8.233   5.672 -1.7341 -0.1839  0.5151
  754MOL0     H 3987   9.997   8.395   5.524  0.1121 -1.0295  3.0779
  754MOL0     H 3988   9.967   8.274   5.399  2.7982  0.0714 -0.9255
  754MOL0     H 3989   9.790   8.175   5.513  3.1184 -0.3413 -1.5218
  754MOL0     H 3990   9.846   8.210   5.673  1.8826 -0.6908 -0.4379
  754MOL0     H 3991   9.760   8.475   5.627 -2.8736  0.6340 -0.8406
  754MOL0     H 3992   9.752   8.395   5.458 -0.3737 -4.2754 -0.4482
  754MOL0     H 3993   9.536   8.451   5.572 -2.2381 -2.3740 -3.0263
  754MOL0     H 3994   9.566   8.351   5.708  0.9814 -0.8012  0.9667
  754MOL0     H 3995   9.555   8.152   5.572 -0.2946 -1.5583 -0.5854
  754MOL0     H 3996   9.413   8.243   5.561  0.3719 -1.0679 -0.3633
  754MOL0     H 3997   9.453   8.160   5.337 -1.8481  0.4193  2.4236
  754MOL0     H 3998   9.618   8.165   5.347 -1.2504 -0.7099 -0.7318
  754MOL0     H 3999   9.425   8.403   5.312 -0.1796 -0.3793  0.6680
  754MOL0     H 4000   9.604   8.418   5.314  0.7222 -0.7770  0.6168
  754MOL0     H 4001   9.312   8.391   5.096  0.6475 -0.7217  2.5564
  754MOL0     H 4002   9.255   8.258   4.866 -0.1159  0.3376 -0.8638
  754MOL0     H 4003   9.385   8.194   4.757  0.4330 -1.6712  1.6944
  754MOL0     H 4004   9.303   8.469   4.818 -3.4523 -0.7188 -1.1390
  754MOL0     H 4005   9.461   8.458   4.746 -0.7888  1.5968  1.1738
  754MOL0     H 4006   9.376   8.342   4.555  0.3057  2.9738 -2.4169
  754MOL0     H 4007   9.209   8.348   4.624  1.0781 -1.6239  0.8978
  754MOL0     H 4008   9.211   8.584   4.630  1.2052  1.3321  0.6286
  754MOL0     H 4009   9.380   8.597   4.567  0.1128  0.0685 -1.0784
  754MOL0     H 4010   9.154   8.496   4.200 -2.0595  0.1851 -1.1258
  754MOL0     H 4011   9.084   8.542   4.004 -0.4804  0.1025 -0.0834
  754MOL0     H 4012   9.106   8.703   3.921 -2.2870 -0.6589 -1.5729
  754MOL0     H 4013   8.962   8.660   3.999 -0.3270 -4.4907 -2.2881
  754MOL0     H 4014   8.893   9.159   4.120  0.8797 -0.7779 -2.4454
  754MOL0     H 4015   8.812   9.305   3.971 -0.1925 -1.2639 -0.7764
  754MOL0     H 4016   9.014   9.577   3.650  2.9078 -1.4332  1.6128
  754MOL0     H 4017   8.996   9.397   3.682  0.8866 -0.2399  0.5990
  754MOL0     H 4018   8.742   9.464   3.730  0.3033  1.0424  0.1255
  754MOL0     H 4019   8.785   9.607   3.631 -0.7573 -0.5101 -1.4563
  754MOL0     H 4020   8.675   9.410   3.522 -0.1907 -2.3038 -0.1734
  754MOL0     H 4021   8.826   9.323   3.555  3.8882  1.9912  1.1340
  754MOL0     H 4022   8.953   9.517   3.419 -0.3460  0.3681 -0.0350
  754MOL0     H 4023   8.796   9.573   3.374  0.1261  1.0222 -0.2956
  754MOL0     H 4024   8.755   9.365   3.245 -0.0943  0.9715  0.2496
  754MOL0     H 4025   8.906   9.427   3.192  0.2134 -2.9170 -0.1184
  754MOL0     H 4026   8.858   9.189   3.389 -1.7018 -1.7582 -4.0548
  754MOL0     H 4027   9.016   9.276   3.374  2.6407 -0.7428 -3.2136
  754MOL0     H 4028   9.006   9.066   3.252 -0.9196  0.3045  0.1052
  754MOL0     H 4029   9.036   9.206   3.142 -1.7416  1.5950 -0.1725
  754MOL0     H 4030   8.871   9.015   3.054 -2.1627 -4.0371  3.9424
  754MOL0     H 4031   8.828   9.190   3.039  0.4147  1.2041  0.6345
  754MOL0     H 4032   9.208   9.481   3.910  2.2965 -1.9192  2.1618
  754MOL0     H 4033   9.290   9.279   4.038 -0.6829 -2.0504  0.7759
  754MOL0     H 4034   9.189   8.970   4.352  0.6100  1.1163 -1.6908
  754MOL0     H 4035   9.269   8.793   4.489 -2.8354  1.5485  1.1060
  754MOL0     H 4036  10.062   7.874   5.673  0.6271 -1.3946 -1.3532
  754MOL0     H 4037  10.239   7.720   5.767 -2.2087  0.1664 -0.4059
  754MOL0     H 4038  10.481   7.463   5.977 -1.9268  2.9428 -3.2642
  754MOL0     H 4039  10.684   7.380   6.113  0.2738 -0.7094 -0.3202
  754MOL0     H 4040  10.894   7.379   6.234 -0.5834 -2.0299  0.9537
  754MOL0     H 4041  10.843   7.250   6.116 -0.7344  0.4656  0.7777
  754MOL0     H 4042  11.125   7.328   6.197  1.9948 -1.2117 -2.0302
  754MOL0     H 4043  11.076   7.206   6.073 -0.2321 -0.2256  1.4250
  754MOL0     H 4044  10.994   7.186   6.364 -1.3435  0.4739  0.1988
  754MOL0     H 4045  10.997   7.065   6.226  1.3340  0.3267 -1.3987
  754MOL0     H 4046  11.243   7.187   6.367 -1.2621  1.0625 -1.6917
  754MOL0     H 4047  11.257   7.075   6.230 -0.9977  0.1835 -1.7083
  754MOL0     H 4048  11.135   6.875   6.610  0.9456  2.6697  1.8973
  754MOL0     H 4049  10.932   7.507   5.804  0.8396 -1.8094  1.4667
  754MOL0     H 4050  10.860   7.634   5.629  1.1286  1.2206 -0.8498
  754MOL0     H 4051  10.685   7.655   5.591  2.9136 -0.8521 -1.7311
  754MOL0     H 4052  10.781   7.780   5.681 -2.4731  0.2637  1.4759
  755MOL0     O 4053   6.764   1.458  11.244 -0.7409  0.3129  0.3746
  755MOL0     C 4054   6.700   1.546  11.306  0.4241 -0.2127 -0.4243
  755MOL0     O 4055   6.587   1.603  11.256  0.2856 -0.0092  0.5498
  755MOL0     C 4056   6.579   1.626  11.118 -0.2643  0.7286  0.2145
  755MOL0     C 4057   6.552   1.525  11.027 -0.2313  0.4867  0.1717
  755MOL0     C 4058   6.525   1.545  10.897 -0.3471  0.6350  0.5370
  755MOL0     C 4059   6.528   1.673  10.842  0.6278  0.8356  0.7568
  755MOL0     O 4060   6.497   1.699  10.712 -0.2256 -0.1397  0.0949
  755MOL0     C 4061   6.545   1.614  10.615 -0.2795 -0.3412  0.0050
  755MOL0     C 4062   6.688   1.653  10.583 -0.2996 -0.2915 -0.3566
  755MOL0     C 4063   6.739   1.595  10.454 -0.0581 -0.3396 -0.8417
  755MOL0     C 4064   6.720   1.449  10.439  0.1760 -0.4681  0.4917
  755MOL0     C 4065   6.782   1.369  10.554 -0.5617 -0.5322 -0.3217
  755MOL0     C 4066   6.797   1.216  10.521  0.6920  0.5368  0.5077
  755MOL0     C 4067   6.872   1.130  10.616 -0.3225 -0.2122 -0.2168
  755MOL0     C 4068   6.841   0.976  10.590  0.1177  0.5350 -0.3012
  755MOL0     N 4069   6.912   0.888  10.687  0.1971  0.5926  0.7186
  755MOL0     C 4070   7.029   0.919  10.755  0.4385  0.2743 -0.0670
  755MOL0     C 4071   7.051   0.815  10.844  0.1676 -0.9997  0.1785
  755MOL0     C 4072   7.167   0.800  10.952 -0.6202  0.0949 -0.7460
  755MOL0     C 4073   7.197   0.653  10.987 -0.5860 -0.6087 -0.5011
  755MOL0     C 4074   7.337   0.659  11.060  0.1687  1.2167 -0.0848
  755MOL0     C 4075   7.385   0.513  11.090 -0.0200 -0.7558  0.3957
  755MOL0     O 4076   7.413   0.460  10.958  0.1815 -1.1709 -0.7072
  755MOL0     C 4077   7.522   0.479  10.882 -0.0456  0.0316  0.3029
  755MOL0     C 4078   7.498   0.476  10.748 -0.5736  0.2923  0.2450
  755MOL0     C 4079   7.606   0.511  10.668  0.1833 -0.5827 -0.0226
  755MOL0     C 4080   7.577   0.488  10.523 -0.4642  0.1415 -0.2938
  755MOL0     C 4081   7.732   0.547  10.720  0.4581  0.5668 -0.1662
  755MOL0     C 4082   7.861   0.568  10.641 -0.5978 -0.5367  0.2859
  755MOL0     O 4083   7.984   0.521  10.684 -0.3032 -0.2356  0.8883
  755MOL0     C 4084   8.085   0.540  10.596 -0.4119  0.9372  0.7085
  755MOL0     C 4085   8.078   0.461  10.480 -0.7116  0.2182 -0.6717
  755MOL0     C 4086   8.186   0.455  10.386 -0.9703 -0.3158  0.1878
  755MOL0     C 4087   8.310   0.526  10.416  0.3685 -0.1579  0.2654
  755MOL0     O 4088   8.416   0.505  10.325 -0.4357 -0.7205  0.3211
  755MOL0     C 4089   8.550   0.494  10.386  0.0165  0.0675 -0.5858
  755MOL0     C 4090   8.661   0.512  10.277  0.7005  0.0894  0.3907
  755MOL0     C 4091   8.805   0.487  10.312  0.1763  0.1882  0.3775
  755MOL0     C 4092   8.867   0.586  10.416 -0.2269  1.1018  0.0586
  755MOL0     C 4093   8.995   0.542  10.476 -0.2343 -0.8652 -0.3100
  755MOL0     C 4094   9.019   0.415  10.553  0.0059 -0.0344 -0.4120
  755MOL0     C 4095   9.152   0.393  10.627 -0.6746  0.2145  0.4828
  755MOL0     C 4096   9.164   0.471  10.754 -1.1259  0.3327 -0.1592
  755MOL0    Cl 4097   9.040   0.416  10.858  0.2045 -0.3032  0.4837
  755MOL0     C 4098   8.311   0.610  10.526 -0.1759  0.4495  0.0608
  755MOL0     C 4099   8.204   0.615  10.613  0.2930  0.1869 -1.0344
  755MOL0     O 4100   7.840   0.637  10.541 -0.6757 -0.2425 -0.8523
  755MOL0     C 4101   7.754   0.549  10.856  0.0240 -0.1796  0.1162
  755MOL0     C 4102   7.650   0.508  10.937  0.6651 -0.0804  0.3176
  755MOL0     N 4103   6.946   0.722  10.822 -0.2231 -0.2893 -0.0674
  755MOL0     N 4104   6.865   0.772  10.738  0.2685  0.9495 -1.1325
  755MOL0     C 4105   6.560   1.776  10.932  0.6765 -0.6104 -0.1444
  755MOL0     C 4106   6.587   1.754  11.072 -0.2294  0.5368  0.7985
  755MOL0     C 4107   6.748   1.579  11.457 -0.7859  0.3803  0.8343
  755MOL0     C 4108   6.673   1.666  11.537  0.1530  0.6360 -0.0189
  755MOL0     C 4109   6.720   1.708  11.662  0.0214 -0.0056 -0.7935
  755MOL0     C 4110   6.819   1.632  11.727  0.2221 -0.5560  0.4200
  755MOL0     O 4111   6.843   1.652  11.859 -0.9447  0.4361 -0.4119
  755MOL0     C 4112   6.895   1.783  11.890  0.4726  0.4320  0.9897
  755MOL0     C 4113   6.991   1.768  12.011  0.4170  0.0598  0.0739
  755MOL0     C 4114   7.115   1.690  11.960 -0.7262  0.0103  0.7282
  755MOL0     C 4115   7.243   1.702  12.055 -1.4938 -0.0383  1.2570
  755MOL0     C 4116   7.247   1.639  12.186  0.2745  0.6593 -0.1148
  755MOL0     C 4117   7.240   1.598  12.300 -0.5191 -0.3200  0.1711
  755MOL0     C 4118   6.897   1.550  11.647 -0.0366  0.5127  0.9081
  755MOL0     C 4119   6.859   1.516  11.516  0.1315 -0.4058 -0.4671
  755MOL0     C 4120   6.940   1.414  11.445  0.3022  1.1836  0.4568
  755MOL0     H 4121   6.547   1.425  11.068 -2.4804 -0.8818 -3.0748
  755MOL0     H 4122   6.505   1.454  10.841 -1.5416 -0.2964  2.3612
  755MOL0     H 4123   6.488   1.630  10.523  2.5267  0.5039 -1.7572
  755MOL0     H 4124   6.532   1.507  10.632 -4.0845 -0.4405 -2.4607
  755MOL0     H 4125   6.699   1.759  10.558  1.9501 -0.0990  1.1929
  755MOL0     H 4126   6.754   1.636  10.669 -1.3772 -1.5724  0.2539
  755MOL0     H 4127   6.689   1.653  10.377  3.4797  2.6958 -1.1501
  755MOL0     H 4128   6.845   1.622  10.446  0.2689 -1.2977 -0.0020
  755MOL0     H 4129   6.614   1.422  10.436  0.2170 -0.5413 -0.7638
  755MOL0     H 4130   6.754   1.426  10.338  0.2543  2.7532 -0.3263
  755MOL0     H 4131   6.721   1.388  10.644 -2.2449 -4.9501 -0.3047
  755MOL0     H 4132   6.878   1.411  10.584 -1.4277  0.3910  1.3699
  755MOL0     H 4133   6.698   1.174  10.503  0.8442  1.0451 -1.9536
  755MOL0     H 4134   6.857   1.219  10.429  0.8340  2.0609  0.6261
  755MOL0     H 4135   6.835   1.162  10.714  0.3564  2.8668 -0.8539
  755MOL0     H 4136   6.981   1.140  10.610 -0.2288 -0.7728  0.4269
  755MOL0     H 4137   6.733   0.961  10.600 -0.2233  2.2214 -1.1356
  755MOL0     H 4138   6.870   0.942  10.490 -0.5136 -0.0332 -0.2967
  755MOL0     H 4139   7.084   1.011  10.740  1.0463  0.1636  1.2804
  755MOL0     H 4140   7.131   0.846  11.044  3.9689  3.9961 -0.5416
  755MOL0     H 4141   7.257   0.853  10.919 -1.8790  3.7243  1.1296
  755MOL0     H 4142   7.120   0.608  11.050  0.9141  0.9498  2.6907
  755MOL0     H 4143   7.215   0.602  10.892 -0.5709 -1.3994 -0.0781
  755MOL0     H 4144   7.400   0.706  10.984 -0.6549  0.5077 -1.2419
  755MOL0     H 4145   7.344   0.726  11.146 -1.6567  0.9593  0.3065
  755MOL0     H 4146   7.475   0.511  11.152  1.4401  0.5810 -1.5719
  755MOL0     H 4147   7.307   0.455  11.140 -0.9032  0.2217  0.1793
  755MOL0     H 4148   7.403   0.447  10.705 -0.4896 -2.2515  1.5908
  755MOL0     H 4149   7.481   0.437  10.514  0.3534 -1.6159  0.5020
  755MOL0     H 4150   7.658   0.424  10.487  0.1087 -0.3333  1.6951
  755MOL0     H 4151   7.591   0.583  10.471  2.6141  0.2660  0.5549
  755MOL0     H 4152   7.992   0.397  10.464  1.7090 -3.8735  1.3532
  755MOL0     H 4153   8.174   0.403  10.292 -3.9060 -0.7788  0.7391
  755MOL0     H 4154   8.562   0.576  10.456  2.3253 -0.8677  0.2085
  755MOL0     H 4155   8.555   0.396  10.435 -1.3728  1.2068  2.0453
  755MOL0     H 4156   8.641   0.439  10.199  0.8585  0.9914 -0.5062
  755MOL0     H 4157   8.647   0.608  10.227 -0.1004  0.0022  0.4302
  755MOL0     H 4158   8.863   0.485  10.219  0.4892 -3.3708  0.5117
  755MOL0     H 4159   8.805   0.389  10.360  0.0491  0.3851  0.7869
  755MOL0     H 4160   8.801   0.621  10.496  0.5106  1.8603  0.3476
  755MOL0     H 4161   8.889   0.669  10.348  0.2513  0.2398 -0.8696
  755MOL0     H 4162   9.073   0.580  10.409 -1.3968  2.1461 -0.1535
  755MOL0     H 4163   9.006   0.619  10.553 -1.0648 -2.1082  1.0986
  755MOL0     H 4164   9.031   0.335  10.479  2.8092  1.2397 -1.4920
  755MOL0     H 4165   8.930   0.395  10.613  0.2585 -1.6422 -0.5206
  755MOL0     H 4166   9.235   0.409  10.558 -1.1761 -1.5554 -0.6053
  755MOL0     H 4167   9.164   0.286  10.647  1.5763 -0.2735 -2.7436
  755MOL0     H 4168   9.153   0.579  10.740  0.5606  0.4418 -0.9877
  755MOL0     H 4169   9.257   0.465  10.811 -1.8840  0.7851  1.1469
  755MOL0     H 4170   8.405   0.657  10.551  0.3677 -0.5364 -0.0570
  755MOL0     H 4171   8.217   0.672  10.705 -1.3418 -0.3637 -0.4099
  755MOL0     H 4172   7.856   0.571  10.889 -0.0839 -0.5434  0.7139
  755MOL0     H 4173   7.668   0.521  11.043  1.4398  0.6993  0.0982
  755MOL0     H 4174   6.543   1.876  10.895  0.2344  0.0982  1.8731
  755MOL0     H 4175   6.586   1.842  11.135  1.8263 -0.7265  2.7523
  755MOL0     H 4176   6.582   1.712  11.500 -1.3069  0.3786  2.9632
  755MOL0     H 4177   6.658   1.775  11.720  2.2511  1.2058  0.3129
  755MOL0     H 4178   6.960   1.817  11.808  1.5632 -0.9523  1.2475
  755MOL0     H 4179   6.816   1.853  11.918  0.2162  0.3924  0.3893
  755MOL0     H 4180   6.940   1.714  12.092 -0.3370  2.8448  1.6143
  755MOL0     H 4181   7.021   1.868  12.046 -0.6123  0.0070  1.1769
  755MOL0     H 4182   7.089   1.584  11.965 -0.3768 -0.1000  0.3153
  755MOL0     H 4183   7.138   1.705  11.854 -2.9948  1.2427  0.3492
  755MOL0     H 4184   7.277   1.806  12.065  0.1479 -0.5705  1.5546
  755MOL0     H 4185   7.322   1.650  11.998 -0.6345  3.3264 -0.9309
  755MOL0     H 4186   7.228   1.579  12.405 -0.6652 -0.3482  0.1504
  755MOL0     H 4187   6.986   1.511  11.695 -0.0541  2.2034  2.4252
  755MOL0     H 4188   7.023   1.383  11.511  1.2763  1.4205 -0.6227
  755MOL0     H 4189   6.886   1.322  11.420  2.6922 -0.3564  0.5973
  755MOL0     H 4190   6.974   1.465  11.354 -0.0700 -0.2036 -0.4851
  756MOL0     O 4191   5.355  10.911   0.144 -0.7921 -0.4149  0.0784
  756MOL0     C 4192   5.282  10.913   0.050  0.2322 -0.3171  0.0727
  756MOL0     O 4193   5.192  10.810   0.014  0.4025 -0.3566  0.6271
  756MOL0     C 4194   5.197  10.684   0.068  0.0614 -0.6271  0.3848
  756MOL0     C 4195   5.073  10.616   0.058  0.0289 -0.3088  0.2081
  756MOL0     C 4196   5.065  10.477   0.086 -0.0398  1.2847  0.3428
  756MOL0     C 4197   5.182  10.409   0.121  0.1587 -0.4188 -1.0139
  756MOL0     O 4198   5.192  10.272   0.127  0.6354 -0.3708  0.5388
  756MOL0     C 4199   5.090  10.200   0.190 -0.5152 -0.1876 -0.6005
  756MOL0     C 4200   5.029  10.087   0.112  1.2576  0.9531  0.1567
  756MOL0     C 4201   5.130   9.972   0.077 -0.6083 -0.4239  0.0160
  756MOL0     C 4202   5.058   9.842   0.074  0.4166 -0.4929  0.3346
  756MOL0     C 4203   5.041   9.791   0.221  0.4951 -0.0294  0.3201
  756MOL0     C 4204   5.143   9.674   0.235 -0.0091 -0.4878 -0.1229
  756MOL0     C 4205   5.141   9.609   0.377 -0.8436 -0.8398 -0.2057
  756MOL0     C 4206   5.229   9.705   0.469 -0.4590 -0.0213  0.2929
  756MOL0     N 4207   5.252   9.650   0.603  0.9840 -0.3203  0.3559
  756MOL0     C 4208   5.165   9.678   0.706 -0.5217  0.0088 -0.3759
  756MOL0     C 4209   5.221   9.619   0.813 -0.1852 -0.4228 -0.7784
  756MOL0     C 4210   5.155   9.603   0.947  0.2242  0.1152  0.5224
  756MOL0     C 4211   5.135   9.737   1.024 -0.5242  0.0355  0.0516
  756MOL0     C 4212   5.256   9.773   1.109 -0.2080  0.0495 -0.6510
  756MOL0     C 4213   5.233   9.897   1.195 -0.1389 -0.0554 -0.2267
  756MOL0     O 4214   5.345   9.925   1.274 -0.0337  0.4708  0.0996
  756MOL0     C 4215   5.376   9.837   1.373 -0.5488 -0.0347  0.9106
  756MOL0     C 4216   5.295   9.833   1.487  0.5362 -0.3960 -0.1970
  756MOL0     C 4217   5.320   9.735   1.585  0.5945 -0.9455 -0.5161
  756MOL0     C 4218   5.231   9.717   1.698 -0.1145 -0.0150  0.0761
  756MOL0     C 4219   5.437   9.655   1.577  0.2588  0.6206  0.1333
  756MOL0     C 4220   5.477   9.545   1.666  0.6956  0.2118 -0.0554
  756MOL0     O 4221   5.389   9.496   1.757 -0.2419 -0.4467  0.2597
  756MOL0     C 4222   5.440   9.422   1.864 -0.7620  0.6359 -0.5751
  756MOL0     C 4223   5.522   9.304   1.848  0.2451 -0.6450 -1.3214
  756MOL0     C 4224   5.542   9.218   1.951 -0.7209  0.1930 -0.0472
  756MOL0     C 4225   5.495   9.254   2.079 -1.3585  0.3668  0.8337
  756MOL0     O 4226   5.499   9.172   2.192  0.2015  0.3721  0.8086
  756MOL0     C 4227   5.483   9.032   2.174 -0.1166  0.8614  1.1041
  756MOL0     C 4228   5.454   8.980   2.305 -0.6955  0.0857 -0.7871
  756MOL0     C 4229   5.344   9.038   2.391 -0.0318 -0.2357  0.2811
  756MOL0     C 4230   5.209   9.006   2.337  0.2175 -0.1535  0.1044
  756MOL0     C 4231   5.094   9.066   2.420  0.0292  0.7076  0.3331
  756MOL0     C 4232   5.063   9.212   2.395 -0.2218 -0.2148  0.3487
  756MOL0     C 4233   4.944   9.238   2.492  0.4081  0.4340  0.0485
  756MOL0     C 4234   4.856   9.341   2.442  1.0647 -0.0049  0.1492
  756MOL0    Cl 4235   4.723   9.362   2.548  0.1457  0.2192  0.4250
  756MOL0     C 4236   5.435   9.372   2.098  0.1495 -0.4622  0.0187
  756MOL0     C 4237   5.400   9.461   1.991  0.0225 -0.2473  0.6556
  756MOL0     O 4238   5.594   9.501   1.649  0.6119 -0.3877  0.7244
  756MOL0     C 4239   5.523   9.676   1.467  0.5655 -0.9383 -0.4761
  756MOL0     C 4240   5.492   9.761   1.366  0.2093  0.1215 -0.0734
  756MOL0     N 4241   5.340   9.564   0.789 -0.0138  0.8007  0.1185
  756MOL0     N 4242   5.364   9.584   0.662 -0.1665 -0.3199  0.2570
  756MOL0     C 4243   5.302  10.473   0.138  0.5912 -0.5351 -0.1671
  756MOL0     C 4244   5.311  10.613   0.117 -0.3528  0.3444 -0.3520
  756MOL0     C 4245   5.282  11.028  -0.035 -0.0680 -0.4270 -0.8596
  756MOL0     C 4246   5.158  11.067  -0.090 -0.7123 -0.8476  0.6132
  756MOL0     C 4247   5.153  11.183  -0.161  0.1114 -0.6584  0.1139
  756MOL0     C 4248   5.260  11.257  -0.191  0.1132  0.0920 -0.4104
  756MOL0     O 4249   5.240  11.367  -0.275 -0.2113  0.2152 -0.3100
  756MOL0     C 4250   5.174  11.470  -0.212 -0.0599 -0.5984 -0.5176
  756MOL0     C 4251   5.080  11.548  -0.312 -0.4222 -0.6570  0.1728
  756MOL0     C 4252   4.971  11.459  -0.369  0.5003 -0.8977 -0.4943
  756MOL0     C 4253   4.832  11.476  -0.293 -0.1375  0.4079 -0.4581
  756MOL0     C 4254   4.841  11.472  -0.146 -0.2639 -0.3064 -0.2623
  756MOL0     C 4255   4.859  11.497  -0.032  0.4125 -0.6304 -0.4686
  756MOL0     C 4256   5.389  11.218  -0.147  1.0697 -0.2865  0.4466
  756MOL0     C 4257   5.401  11.111  -0.059 -0.8410 -0.0084  1.2353
  756MOL0     C 4258   5.533  11.078   0.005 -0.2919 -0.1726 -0.0813
  756MOL0     H 4259   4.992  10.668   0.009 -0.0418  1.0930  1.7094
  756MOL0     H 4260   4.973  10.426   0.057  2.1415 -1.3136 -2.8671
  756MOL0     H 4261   5.006  10.262   0.222 -0.4470  0.0219 -0.8281
  756MOL0     H 4262   5.141  10.159   0.278 -2.3098 -0.9000  0.1683
  756MOL0     H 4263   4.957  10.041   0.181  1.6413  0.5315  0.2774
  756MOL0     H 4264   4.971  10.124   0.027 -0.8274  0.7900  1.4290
  756MOL0     H 4265   5.174   9.984  -0.023  2.2776 -0.2762  1.2113
  756MOL0     H 4266   5.215   9.961   0.145  2.1280 -0.2749 -3.0942
  756MOL0     H 4267   4.960   9.847   0.026 -0.1789 -4.4029  0.7441
  756MOL0     H 4268   5.115   9.774   0.011 -0.3691  0.6513 -1.6898
  756MOL0     H 4269   4.938   9.757   0.231  0.7355 -1.3049 -1.0750
  756MOL0     H 4270   5.055   9.876   0.288 -0.4145  0.6608 -0.3303
  756MOL0     H 4271   5.117   9.593   0.166 -1.4459  0.2149 -0.4649
  756MOL0     H 4272   5.247   9.701   0.218 -0.7001  1.3179 -1.9929
  756MOL0     H 4273   5.196   9.515   0.368  1.4400  0.1993  1.8150
  756MOL0     H 4274   5.043   9.591   0.421  0.4704 -1.9179  2.4789
  756MOL0     H 4275   5.326   9.708   0.419 -1.4117  2.1474 -1.5862
  756MOL0     H 4276   5.190   9.807   0.470 -1.2402 -0.3123  0.9392
  756MOL0     H 4277   5.066   9.723   0.709 -0.2876  0.6980 -2.1555
  756MOL0     H 4278   5.224   9.539   1.003  1.0365  0.1954 -0.3495
  756MOL0     H 4279   5.058   9.555   0.933  0.5595 -0.6974  0.8825
  756MOL0     H 4280   5.121   9.819   0.953  1.5553  2.3531  2.1380
  756MOL0     H 4281   5.048   9.725   1.090 -1.3713  1.9045 -0.6283
  756MOL0     H 4282   5.280   9.690   1.176 -1.4509  0.1866 -0.0184
  756MOL0     H 4283   5.344   9.783   1.044  2.0151  0.7300  2.2321
  756MOL0     H 4284   5.210   9.988   1.137  1.8481  0.3213 -0.4963
  756MOL0     H 4285   5.142   9.882   1.253 -0.1383 -0.3896 -0.3121
  756MOL0     H 4286   5.221   9.910   1.509  0.2417 -0.5315 -0.6978
  756MOL0     H 4287   5.278   9.748   1.791 -1.3545  0.6661  0.4926
  756MOL0     H 4288   5.197   9.613   1.692 -1.3213  0.4473 -2.8920
  756MOL0     H 4289   5.140   9.775   1.678  0.2018 -0.0087 -1.4726
  756MOL0     H 4290   5.550   9.263   1.752  0.8981 -0.2778 -1.2979
  756MOL0     H 4291   5.599   9.126   1.946  0.0275  0.7176 -2.0243
  756MOL0     H 4292   5.403   9.001   2.106  0.4947 -0.6052  1.0196
  756MOL0     H 4293   5.576   8.982   2.147  0.7279  2.3347  1.1846
  756MOL0     H 4294   5.438   8.872   2.291 -1.5767  0.1377 -0.2686
  756MOL0     H 4295   5.541   8.987   2.371  0.1434  1.9977 -2.0182
  756MOL0     H 4296   5.357   9.146   2.384  1.9007 -0.4581 -0.4179
  756MOL0     H 4297   5.355   9.009   2.496  1.7590  2.0403  0.7973
  756MOL0     H 4298   5.184   8.900   2.338  1.1156 -0.3970  2.6221
  756MOL0     H 4299   5.205   9.031   2.230  0.9012  0.5199  0.2306
  756MOL0     H 4300   5.017   8.996   2.387  1.5272 -0.8186 -0.0821
  756MOL0     H 4301   5.119   9.045   2.524  1.3530 -0.3003 -0.1561
  756MOL0     H 4302   5.032   9.219   2.290 -2.1595  0.2693  0.9020
  756MOL0     H 4303   5.154   9.271   2.409  1.0241 -1.8917 -0.3336
  756MOL0     H 4304   4.984   9.266   2.590  3.3720 -0.8211 -0.6964
  756MOL0     H 4305   4.886   9.147   2.509  1.0936  0.0299  0.2558
  756MOL0     H 4306   4.817   9.319   2.342 -2.5239  1.7562  0.9858
  756MOL0     H 4307   4.902   9.440   2.431  1.3001 -0.1199  0.1094
  756MOL0     H 4308   5.393   9.394   2.196  2.1481 -0.8675  1.0208
  756MOL0     H 4309   5.335   9.544   2.014  0.4597 -0.1573  1.6148
  756MOL0     H 4310   5.617   9.621   1.460  0.0184 -1.6837 -2.7370
  756MOL0     H 4311   5.564   9.769   1.285  0.1257  0.2261 -0.1382
  756MOL0     H 4312   5.389  10.417   0.174  1.4653  2.9665  3.9950
  756MOL0     H 4313   5.398  10.675   0.138  0.4859  0.0494 -2.6225
  756MOL0     H 4314   5.068  11.008  -0.073 -0.5698 -2.0203 -2.0551
  756MOL0     H 4315   5.056  11.207  -0.202  0.0470 -0.2759  0.4845
  756MOL0     H 4316   5.112  11.441  -0.126 -0.5083  0.6871 -0.3858
  756MOL0     H 4317   5.235  11.548  -0.165 -7.0387  5.0099  0.8610
  756MOL0     H 4318   5.140  11.592  -0.392  1.2270 -1.4189  0.9427
  756MOL0     H 4319   5.049  11.644  -0.269  2.9079  0.1835  0.9375
  756MOL0     H 4320   4.948  11.489  -0.471  0.0735  1.7911  0.3050
  756MOL0     H 4321   5.002  11.354  -0.371  0.4170 -0.9146 -0.8811
  756MOL0     H 4322   4.761  11.396  -0.314 -2.0526  1.3248  1.9975
  756MOL0     H 4323   4.785  11.571  -0.320 -0.2013  0.8856  1.2026
  756MOL0     H 4324   4.871  11.515   0.073 -1.2558 -0.4621 -0.2736
  756MOL0     H 4325   5.470  11.286  -0.173  0.0929  0.9518  0.5687
  756MOL0     H 4326   5.616  11.141  -0.027  0.0782  0.2705  1.6241
  756MOL0     H 4327   5.532  11.088   0.114  3.6943 -2.4246  0.3580
  756MOL0     H 4328   5.564  10.975  -0.016 -1.2932 -0.5214  0.0851
  757MOL0     O 4329  10.669   8.789  11.169  0.0296  0.4945  0.2318
  757MOL0     C 4330  10.617   8.824  11.064  0.0420  0.2887  0.3653
  757MOL0     O 4331  10.588   8.957  11.034 -0.1212  0.4247  0.3400
  757MOL0     C 4332  10.625   9.055  11.125  0.4083  0.0157 -0.1582
  757MOL0     C 4333  10.717   9.157  11.090  0.4780 -0.4455  0.5450
  757MOL0     C 4334  10.752   9.252  11.189  0.1707  0.6807  0.6134
  757MOL0     C 4335  10.708   9.245  11.319 -0.3366 -0.0454  0.4025
  757MOL0     O 4336  10.741   9.341  11.419  0.1240 -0.1587  0.0322
  757MOL0     C 4337  10.851   9.430  11.403  0.8972 -0.2518 -0.3651
  757MOL0     C 4338  10.835   9.538  11.512  0.7629  0.6973  0.5171
  757MOL0     C 4339  10.970   9.608  11.537  0.0745 -0.5564 -0.1124
  757MOL0     C 4340  10.967   9.728  11.638  0.0749  0.2998  0.2596
  757MOL0     C 4341  10.932   9.860  11.574 -0.2500 -0.2418 -0.7108
  757MOL0     C 4342  10.939   9.966  11.687  0.1849 -0.1203 -0.0442
  757MOL0     C 4343  10.830  10.069  11.661  0.0591  0.2724  1.0028
  757MOL0     C 4344  10.679  10.035  11.692  0.1881 -0.8077  0.0574
  757MOL0     N 4345  10.660   9.966  11.826  0.0208 -0.2608  0.1448
  757MOL0     C 4346  10.643  10.021  11.952 -0.2357 -0.2272 -0.3742
  757MOL0     C 4347  10.656   9.915  12.044 -0.2874 -0.3654  0.3361
  757MOL0     C 4348  10.675   9.913  12.193 -1.0125  0.2470  0.1800
  757MOL0     C 4349  10.623   9.776  12.248  0.0780  0.0660  0.8041
  757MOL0     C 4350  10.627   9.776  12.397  0.9107 -0.2150  0.7204
  757MOL0     C 4351  10.511   9.857  12.454  0.7918  0.0528  0.5784
  757MOL0     O 4352  10.390   9.780  12.457 -0.5541  0.3998  0.8346
  757MOL0     C 4353  10.351   9.734  12.577 -0.3250  0.6808 -0.1354
  757MOL0     C 4354  10.423   9.739  12.700  0.0587  0.2335 -0.6401
  757MOL0     C 4355  10.353   9.732  12.820  0.4633  0.5039 -0.3698
  757MOL0     C 4356  10.435   9.744  12.941 -0.1642  0.0668 -0.5136
  757MOL0     C 4357  10.211   9.708  12.829 -0.6760 -0.7247  0.3807
  757MOL0     C 4358  10.131   9.701  12.961 -0.8572  0.4492  0.5488
  757MOL0     O 4359   9.998   9.692  12.942 -0.4105 -0.4087  0.5055
  757MOL0     C 4360   9.914   9.645  13.036 -0.3147  0.5176 -0.3543
  757MOL0     C 4361   9.952   9.541  13.125 -0.8410 -0.7797  0.4402
  757MOL0     C 4362   9.864   9.500  13.218 -0.8759 -0.1170  0.1125
  757MOL0     C 4363   9.727   9.531  13.217 -0.5499 -0.4356  0.9091
  757MOL0     O 4364   9.629   9.456  13.269  0.4833  0.1190 -0.5185
  757MOL0     C 4365   9.653   9.393  13.399 -0.2533 -0.7491 -0.0121
  757MOL0     C 4366   9.518   9.366  13.466 -0.0743 -0.3132  0.1409
  757MOL0     C 4367   9.539   9.329  13.619  0.3750  0.9467  0.6922
  757MOL0     C 4368   9.532   9.186  13.635  0.1399  0.1721 -0.4718
  757MOL0     C 4369   9.585   9.134  13.775  1.1247 -0.5598  0.3848
  757MOL0     C 4370   9.497   9.172  13.897 -0.9425  0.0791  0.3316
  757MOL0     C 4371   9.470   9.048  13.992  0.5337  0.6024 -0.2247
  757MOL0     C 4372   9.432   9.080  14.138  0.0171  0.0804  0.0076
  757MOL0    Cl 4373   9.337   8.954  14.226 -0.1855  0.0882  0.0229
  757MOL0     C 4374   9.685   9.621  13.114 -0.3525 -0.3111 -0.0475
  757MOL0     C 4375   9.779   9.688  13.033 -1.0463  0.6712  0.1579
  757MOL0     O 4376  10.187   9.711  13.067  0.8326  0.7885  0.0565
  757MOL0     C 4377  10.152   9.676  12.707 -0.1912  0.7962 -0.4390
  757MOL0     C 4378  10.219   9.705  12.586  0.5179 -0.3470  0.2934
  757MOL0     N 4379  10.681   9.798  11.963  0.3639  0.1471 -0.0937
  757MOL0     N 4380  10.675   9.833  11.839 -0.2573 -1.3718 -0.0772
  757MOL0     C 4381  10.621   9.143  11.353 -0.3882  0.3437 -0.1932
  757MOL0     C 4382  10.572   9.058  11.258 -0.0159  0.0855 -0.5222
  757MOL0     C 4383  10.604   8.722  10.950 -0.6002 -0.4716  0.2926
  757MOL0     C 4384  10.574   8.768  10.823  0.8756 -0.3548  0.3445
  757MOL0     C 4385  10.536   8.684  10.712  0.1713  0.0241  0.3927
  757MOL0     C 4386  10.550   8.548  10.726 -0.6951 -0.6962  0.0637
  757MOL0     O 4387  10.535   8.451  10.632  0.5830 -0.2973  0.5748
  757MOL0     C 4388  10.429   8.467  10.535  0.7082 -0.2163  0.0957
  757MOL0     C 4389  10.418   8.354  10.434 -0.3592  0.1021 -0.3834
  757MOL0     C 4390  10.552   8.312  10.387  0.3520 -0.1087  0.3114
  757MOL0     C 4391  10.661   8.402  10.349 -0.0343  0.2678  0.6062
  757MOL0     C 4392  10.756   8.328  10.258  0.0175  0.5956  0.3075
  757MOL0     C 4393  10.843   8.274  10.194 -0.5352  0.2240 -0.4412
  757MOL0     C 4394  10.592   8.496  10.849  0.9127  0.0280  0.7387
  757MOL0     C 4395  10.609   8.581  10.961  0.4618  0.2821 -0.1268
  757MOL0     C 4396  10.629   8.502  11.088  0.1363  1.1277 -0.5625
  757MOL0     H 4397  10.754   9.166  10.989 -2.7056 -1.5252 -0.8456
  757MOL0     H 4398  10.814   9.336  11.159  1.4059 -0.1165  0.8307
  757MOL0     H 4399  10.836   9.476  11.305 -2.8375 -3.5150 -1.6246
  757MOL0     H 4400  10.948   9.380  11.408  0.2141 -1.6228 -0.4040
  757MOL0     H 4401  10.763   9.613  11.477 -0.9255 -1.7203 -1.5653
  757MOL0     H 4402  10.800   9.501  11.609  2.8902 -2.4373  0.2529
  757MOL0     H 4403  11.043   9.535  11.573  0.4334 -0.4278 -0.5626
  757MOL0     H 4404  11.012   9.636  11.440  1.0932 -0.5402  0.3258
  757MOL0     H 4405  10.888   9.703  11.709  0.7746  1.9452  1.6821
  757MOL0     H 4406  11.062   9.728  11.692  0.9064 -3.0712 -0.9485
  757MOL0     H 4407  10.831   9.855  11.531 -1.6066  1.2020  2.0416
  757MOL0     H 4408  11.001   9.885  11.493 -0.7304  1.3352 -0.6525
  757MOL0     H 4409  10.914   9.923  11.784 -1.1327  0.9915  0.1367
  757MOL0     H 4410  11.044   9.998  11.687 -0.2452  1.5536 -2.0621
  757MOL0     H 4411  10.854  10.105  11.560  1.3207  1.5416  1.7233
  757MOL0     H 4412  10.855  10.157  11.721  1.0888  0.0683  0.8859
  757MOL0     H 4413  10.626  10.130  11.685  1.0675 -0.4291 -2.0797
  757MOL0     H 4414  10.637   9.974  11.612 -0.0735 -1.1079  0.4178
  757MOL0     H 4415  10.644  10.127  11.975 -0.1777 -0.1551 -0.6995
  757MOL0     H 4416  10.626  10.000  12.236 -0.9809 -0.0691  0.8762
  757MOL0     H 4417  10.776   9.943  12.221 -1.7687  2.3290  0.8280
  757MOL0     H 4418  10.523   9.761  12.207  1.1123 -0.6218 -1.6487
  757MOL0     H 4419  10.687   9.697  12.207 -0.8102 -0.1176 -0.2941
  757MOL0     H 4420  10.617   9.681  12.449 -0.3720  0.1726  1.2217
  757MOL0     H 4421  10.715   9.832  12.433  0.7471 -0.4823  1.5514
  757MOL0     H 4422  10.522   9.915  12.547 -1.5441  2.5669 -0.5712
  757MOL0     H 4423  10.488   9.937  12.383 -1.3780  0.1647  1.3234
  757MOL0     H 4424  10.531   9.733  12.694  0.0056 -1.3748 -0.4699
  757MOL0     H 4425  10.396   9.829  12.998 -1.2919 -0.9496  0.2868
  757MOL0     H 4426  10.543   9.754  12.930  0.3804 -0.8338  2.8675
  757MOL0     H 4427  10.422   9.654  13.002  0.3914 -1.7929 -3.0038
  757MOL0     H 4428  10.058   9.517  13.125 -0.9744 -1.4793  2.2943
  757MOL0     H 4429   9.894   9.424  13.289  0.7414  0.8565  0.4964
  757MOL0     H 4430   9.727   9.313  13.407 -3.1921 -3.5989  0.8264
  757MOL0     H 4431   9.696   9.472  13.461 -0.8510 -2.1157  2.2520
  757MOL0     H 4432   9.450   9.449  13.445  1.1955  0.6615 -0.2653
  757MOL0     H 4433   9.469   9.277  13.425  4.0760 -2.1879 -1.3336
  757MOL0     H 4434   9.458   9.382  13.671 -1.0377  1.4505 -1.8213
  757MOL0     H 4435   9.632   9.382  13.640 -0.7055  2.5374  1.6432
  757MOL0     H 4436   9.611   9.142  13.573  0.7016  0.8391 -0.2396
  757MOL0     H 4437   9.434   9.145  13.609 -0.5817  0.8146  1.1264
  757MOL0     H 4438   9.577   9.025  13.768  0.7436 -0.4173 -3.0933
  757MOL0     H 4439   9.690   9.157  13.795  0.7108  0.7048  1.2751
  757MOL0     H 4440   9.394   9.197  13.870 -0.5950 -2.0798 -3.6300
  757MOL0     H 4441   9.546   9.256  13.947  0.4302 -0.2301 -0.4635
  757MOL0     H 4442   9.552   8.977  13.999 -1.5991 -2.0591 -0.3822
  757MOL0     H 4443   9.393   8.987  13.944 -0.2413  0.7763  0.7572
  757MOL0     H 4444   9.368   9.169  14.146 -1.6268 -1.1392  0.9956
  757MOL0     H 4445   9.521   9.091  14.201 -1.9228  2.4998  2.6180
  757MOL0     H 4446   9.579   9.643  13.103 -0.1382  0.7532 -0.1540
  757MOL0     H 4447   9.755   9.754  12.950  0.1673 -0.5347 -1.2011
  757MOL0     H 4448  10.048   9.647  12.714  0.6732 -2.3434  1.2077
  757MOL0     H 4449  10.164   9.705  12.492  2.7791 -1.4970 -1.1047
  757MOL0     H 4450  10.595   9.136  11.458 -0.8682  3.0275 -0.0680
  757MOL0     H 4451  10.496   8.987  11.287  2.1049 -3.5931 -3.0915
  757MOL0     H 4452  10.575   8.876  10.812  0.2487 -0.3492  0.3401
  757MOL0     H 4453  10.510   8.729  10.616  0.2764  0.6295  0.6462
  757MOL0     H 4454  10.334   8.476  10.588  0.8160 -2.9190  0.8843
  757MOL0     H 4455  10.436   8.561  10.480 -1.2514 -0.6752 -1.0107
  757MOL0     H 4456  10.350   8.384  10.353 -1.0690 -0.4941 -0.0197
  757MOL0     H 4457  10.364   8.273  10.483 -1.8893  2.2418  1.6719
  757MOL0     H 4458  10.596   8.246  10.462  2.9291  0.2421 -0.7746
  757MOL0     H 4459  10.535   8.257  10.293 -0.0550 -1.5265  1.1777
  757MOL0     H 4460  10.719   8.431  10.437 -0.9144 -1.0455  1.6530
  757MOL0     H 4461  10.624   8.491  10.296 -1.6866  0.7171  2.3731
  757MOL0     H 4462  10.905   8.227  10.120 -1.2493 -1.0542 -0.2752
  757MOL0     H 4463  10.598   8.388  10.859  1.2198 -0.2944 -2.0096
  757MOL0     H 4464  10.709   8.536  11.155  0.3919  1.4623 -1.0373
  757MOL0     H 4465  10.534   8.508  11.143  0.3955 -1.1701  0.2351
  757MOL0     H 4466  10.658   8.398  11.075  1.4715  1.6739 -2.1624
  758MOL0     O 4467   1.832   9.479   2.407 -0.0029 -0.4044 -0.1777
  758MOL0     C 4468   1.829   9.358   2.414 -0.3279  0.1837  0.5386
  758MOL0     O 4469   1.872   9.289   2.519 -0.4515 -0.1162 -0.5159
  758MOL0     C 4470   1.930   9.350   2.627 -0.3455 -0.5692  0.3392
  758MOL0     C 4471   2.015   9.466   2.631 -0.4423  0.5504  0.7206
  758MOL0     C 4472   2.059   9.513   2.754 -0.0528 -0.3416 -0.3893
  758MOL0     C 4473   2.038   9.442   2.876  0.9155 -0.8568  0.4369
  758MOL0     O 4474   2.076   9.489   2.997 -0.1609 -1.2872  0.0832
  758MOL0     C 4475   2.184   9.588   3.014 -0.0544  0.0776  0.8390
  758MOL0     C 4476   2.230   9.570   3.154  0.5314 -0.0056  1.5255
  758MOL0     C 4477   2.298   9.429   3.191 -0.4942  0.3296 -0.1931
  758MOL0     C 4478   2.278   9.387   3.346 -0.6239 -0.2922  0.7547
  758MOL0     C 4479   2.397   9.304   3.394  0.6242 -0.2869 -0.1173
  758MOL0     C 4480   2.408   9.305   3.543  0.2920 -1.1304  0.0552
  758MOL0     C 4481   2.548   9.285   3.599 -0.5049  0.5065 -0.6420
  758MOL0     C 4482   2.569   9.149   3.679  0.4535 -0.5267  0.2521
  758MOL0     N 4483   2.652   9.167   3.800  0.1912  0.5373  0.6021
  758MOL0     C 4484   2.743   9.080   3.841  0.4404 -0.1645  0.9732
  758MOL0     C 4485   2.792   9.124   3.954  1.1119  0.6100  0.5465
  758MOL0     C 4486   2.894   9.055   4.040  1.0740  0.0743 -0.5781
  758MOL0     C 4487   2.847   9.034   4.178  0.2275  0.5907 -0.1500
  758MOL0     C 4488   2.749   8.910   4.193 -0.0705 -0.4628  0.6798
  758MOL0     C 4489   2.675   8.900   4.322 -0.0318  0.8728 -0.2923
  758MOL0     O 4490   2.589   9.017   4.339 -0.3167 -0.0413 -0.6263
  758MOL0     C 4491   2.465   9.013   4.279 -0.7579  0.0623 -0.0940
  758MOL0     C 4492   2.443   9.086   4.159  0.1781 -0.5399 -0.0505
  758MOL0     C 4493   2.326   9.066   4.086 -0.4173 -0.3792  0.0397
  758MOL0     C 4494   2.305   9.135   3.958 -0.1550  0.4942  0.7176
  758MOL0     C 4495   2.229   8.972   4.139 -0.4153 -0.9906  0.0090
  758MOL0     C 4496   2.094   8.948   4.082 -0.9180 -0.3762  0.3707
  758MOL0     O 4497   2.103   8.912   3.955 -0.1397 -0.0977 -0.3727
  758MOL0     C 4498   1.998   8.906   3.868  0.8018 -0.0212  0.3463
  758MOL0     C 4499   1.906   8.801   3.876  0.2537 -0.1378  0.0321
  758MOL0     C 4500   1.843   8.758   3.761  0.1599 -0.3242  0.5053
  758MOL0     C 4501   1.836   8.833   3.644 -0.7655 -0.1010  0.0533
  758MOL0     O 4502   1.761   8.793   3.528  0.5426  0.3886  0.0958
  758MOL0     C 4503   1.623   8.780   3.560  0.2623  1.1693  0.6120
  758MOL0     C 4504   1.540   8.715   3.450 -0.9522  1.0482 -0.0134
  758MOL0     C 4505   1.604   8.581   3.405 -0.0626 -0.3862  0.1318
  758MOL0     C 4506   1.497   8.478   3.369 -0.1074 -0.2284 -0.0024
  758MOL0     C 4507   1.581   8.355   3.346 -0.2586  0.6243 -0.1524
  758MOL0     C 4508   1.493   8.232   3.318 -0.8879 -0.5516  0.9674
  758MOL0     C 4509   1.573   8.112   3.261  0.6944 -0.7106  0.5528
  758MOL0     C 4510   1.472   7.999   3.262  0.0813 -0.0164  0.7323
  758MOL0    Cl 4511   1.465   7.931   3.428  0.0996  0.0091  0.2886
  758MOL0     C 4512   1.923   8.948   3.638  0.7232  0.1021 -0.4859
  758MOL0     C 4513   1.998   8.984   3.750 -0.3966 -0.0725 -0.6386
  758MOL0     O 4514   1.989   8.963   4.139  1.0586  0.3581 -0.4045
  758MOL0     C 4515   2.253   8.910   4.264 -0.2199 -0.0566  1.5477
  758MOL0     C 4516   2.377   8.924   4.330 -0.0519  1.1766 -0.2451
  758MOL0     N 4517   2.729   9.242   3.987 -0.5955 -0.4562  0.4617
  758MOL0     N 4518   2.643   9.269   3.893  0.3697  0.6330  0.4593
  758MOL0     C 4519   1.964   9.326   2.869 -1.1005 -0.4182  0.1340
  758MOL0     C 4520   1.918   9.275   2.746  0.2692 -0.3437 -0.3843
  758MOL0     C 4521   1.780   9.275   2.297  0.3582 -0.2877  0.8805
  758MOL0     C 4522   1.717   9.147   2.331  0.1856  0.5411  0.0962
  758MOL0     C 4523   1.641   9.070   2.242 -0.0343  0.2933  0.3395
  758MOL0     C 4524   1.629   9.117   2.113  0.5835 -0.1536  0.5906
  758MOL0     O 4525   1.575   9.025   2.027  0.4822 -0.8922  0.4583
  758MOL0     C 4526   1.600   9.023   1.886 -0.1008 -0.5711  0.4980
  758MOL0     C 4527   1.748   9.000   1.843  0.3798  0.3400  0.6608
  758MOL0     C 4528   1.797   8.856   1.877 -0.0138  0.6508  0.4487
  758MOL0     C 4529   1.749   8.745   1.774  0.5205  0.2903  0.3576
  758MOL0     C 4530   1.813   8.749   1.642  0.5714 -0.3952 -0.1294
  758MOL0     C 4531   1.857   8.745   1.528 -0.5703 -0.1302 -0.3122
  758MOL0     C 4532   1.691   9.239   2.072 -0.2828 -0.1872 -0.0555
  758MOL0     C 4533   1.763   9.318   2.160 -0.0220 -1.4892  0.4063
  758MOL0     C 4534   1.840   9.437   2.098 -0.1312  0.2731 -1.0332
  758MOL0     H 4535   2.033   9.523   2.540 -2.0875 -2.0613 -1.3679
  758MOL0     H 4536   2.108   9.609   2.755 -1.0403  0.1794 -0.5219
  758MOL0     H 4537   2.161   9.693   2.993  0.6908  0.0842 -0.0192
  758MOL0     H 4538   2.266   9.559   2.947  0.0373  2.9062 -0.4289
  758MOL0     H 4539   2.302   9.650   3.173 -1.1310  2.4972 -1.6213
  758MOL0     H 4540   2.146   9.585   3.222 -2.4380 -0.1875 -1.7792
  758MOL0     H 4541   2.262   9.341   3.137  2.0411 -0.3403 -0.9137
  758MOL0     H 4542   2.407   9.432   3.177 -0.3391  1.6838  1.0302
  758MOL0     H 4543   2.290   9.487   3.388  0.8681 -0.2382  0.2616
  758MOL0     H 4544   2.185   9.335   3.371  0.6202 -2.2736  1.4891
  758MOL0     H 4545   2.489   9.344   3.350 -1.1488  2.8402 -1.2871
  758MOL0     H 4546   2.391   9.202   3.357 -0.6055 -0.2707 -0.0067
  758MOL0     H 4547   2.391   9.404   3.585  2.4762 -1.2017  1.2771
  758MOL0     H 4548   2.334   9.243   3.594  0.1327 -1.0466 -0.0762
  758MOL0     H 4549   2.565   9.359   3.678  4.4200  0.1250 -1.0542
  758MOL0     H 4550   2.631   9.296   3.529  0.0019  3.2304  0.2543
  758MOL0     H 4551   2.472   9.109   3.710 -0.4959  1.3635 -0.1588
  758MOL0     H 4552   2.611   9.076   3.609 -3.1748 -0.8633 -1.7848
  758MOL0     H 4553   2.760   8.986   3.790  0.2319  1.7596 -2.9858
  758MOL0     H 4554   2.979   9.123   4.052  1.1312 -0.1206  0.1336
  758MOL0     H 4555   2.923   8.962   3.991 -2.9683 -0.6263 -1.9983
  758MOL0     H 4556   2.938   9.020   4.236 -0.5582 -0.3749  0.8817
  758MOL0     H 4557   2.799   9.123   4.220 -3.8438 -1.5509  0.2685
  758MOL0     H 4558   2.666   8.917   4.123  0.2805  1.4394  0.3957
  758MOL0     H 4559   2.807   8.820   4.176 -0.0179 -0.5361  1.2270
  758MOL0     H 4560   2.612   8.812   4.340  0.7846  0.8666  3.3655
  758MOL0     H 4561   2.745   8.902   4.407  0.2238 -3.6641 -0.1758
  758MOL0     H 4562   2.511   9.159   4.119  2.7499 -0.2504  4.1998
  758MOL0     H 4563   2.369   9.224   3.947  1.5461 -0.5985  1.3946
  758MOL0     H 4564   2.204   9.170   3.938 -0.0520  0.0553 -0.7439
  758MOL0     H 4565   2.327   9.061   3.880 -2.8918 -0.2892  0.5966
  758MOL0     H 4566   1.883   8.733   3.958 -1.4332  0.9929  0.5450
  758MOL0     H 4567   1.786   8.666   3.772  0.3612 -0.4491  0.5241
  758MOL0     H 4568   1.615   8.712   3.646 -0.5241  0.2779 -0.1530
  758MOL0     H 4569   1.584   8.880   3.579  0.9285  1.2678  1.5865
  758MOL0     H 4570   1.441   8.692   3.489 -1.3645  4.2324  1.0761
  758MOL0     H 4571   1.529   8.786   3.368 -1.4591  4.1329  2.5494
  758MOL0     H 4572   1.663   8.538   3.487 -0.8340 -1.7742 -0.0092
  758MOL0     H 4573   1.669   8.590   3.318 -1.3509  0.6203 -0.7586
  758MOL0     H 4574   1.445   8.512   3.279 -0.5094  1.8844  0.9670
  758MOL0     H 4575   1.435   8.465   3.458  1.3334  1.0273  1.2507
  758MOL0     H 4576   1.645   8.377   3.260 -1.2820  2.0754 -0.5644
  758MOL0     H 4577   1.642   8.322   3.431  1.5217  2.4283 -0.6436
  758MOL0     H 4578   1.409   8.264   3.256  0.3371 -1.3364 -1.1880
  758MOL0     H 4579   1.457   8.218   3.421  1.9171  2.1420  2.4997
  758MOL0     H 4580   1.666   8.084   3.311  0.7751 -4.3976 -1.2768
  758MOL0     H 4581   1.607   8.142   3.161  3.8314 -0.3461  1.6324
  758MOL0     H 4582   1.510   7.930   3.187  0.1817  0.8221 -0.0014
  758MOL0     H 4583   1.369   8.025   3.235  1.1363  3.8448 -0.2934
  758MOL0     H 4584   1.914   9.022   3.560 -1.4275  0.5984  0.1720
  758MOL0     H 4585   2.063   9.071   3.755 -1.5703  0.8676 -1.3309
  758MOL0     H 4586   2.186   8.839   4.311 -0.0805 -0.8166  0.6010
  758MOL0     H 4587   2.389   8.878   4.428 -3.2781  2.7008  1.0130
  758MOL0     H 4588   1.955   9.281   2.968  1.1899 -1.0862  0.0904
  758MOL0     H 4589   1.874   9.176   2.754  0.1699 -0.1398  2.4900
  758MOL0     H 4590   1.720   9.096   2.426 -1.3919  0.4505  0.1219
  758MOL0     H 4591   1.597   8.977   2.277  0.9873 -1.2721 -2.2208
  758MOL0     H 4592   1.535   8.954   1.831 -2.5326  1.9362 -0.0352
  758MOL0     H 4593   1.561   9.122   1.860 -2.2620 -1.1485  1.2909
  758MOL0     H 4594   1.813   9.073   1.893 -1.1798  1.2295  1.4316
  758MOL0     H 4595   1.754   9.010   1.734  0.1606 -0.1015  0.6059
  758MOL0     H 4596   1.907   8.857   1.872 -0.0255 -1.1085 -1.7919
  758MOL0     H 4597   1.763   8.827   1.977  2.2502 -0.9047  0.8563
  758MOL0     H 4598   1.643   8.756   1.748 -0.1765 -3.5016  1.0302
  758MOL0     H 4599   1.785   8.647   1.804 -0.2308 -0.1438 -0.0976
  758MOL0     H 4600   1.894   8.742   1.427  1.0840  0.6170  0.2377
  758MOL0     H 4601   1.687   9.265   1.967 -2.4331  1.8115  0.4555
  758MOL0     H 4602   1.792   9.528   2.133  0.0407 -0.1668  0.4151
  758MOL0     H 4603   1.940   9.447   2.140 -1.1983  1.4915  1.4054
  758MOL0     H 4604   1.832   9.431   1.989 -0.8446  0.3833 -0.9939
  759MOL0     O 4605   7.351   3.126   5.484 -0.6479  0.1533 -0.0726
  759MOL0     C 4606   7.319   3.210   5.560  0.0317  0.5076  0.6071
  759MOL0     O 4607   7.365   3.226   5.686  0.6025  0.3419 -0.2375
  759MOL0     C 4608   7.475   3.148   5.732  0.0960  0.6669  0.7394
  759MOL0     C 4609   7.556   3.211   5.815 -0.9638  1.0530  0.3855
  759MOL0     C 4610   7.650   3.142   5.890 -0.4306  0.7870  0.0601
  759MOL0     C 4611   7.656   2.999   5.889  0.0491 -1.2053  1.5465
  759MOL0     O 4612   7.744   2.935   5.977 -0.0039 -0.0701 -0.2546
  759MOL0     C 4613   7.774   2.791   5.948 -0.4106 -0.6625 -0.8424
  759MOL0     C 4614   7.924   2.746   6.008  0.3956  0.3377  0.2371
  759MOL0     C 4615   8.048   2.830   5.958 -0.5665 -0.2573  0.3273
  759MOL0     C 4616   8.082   2.810   5.806 -0.0909 -0.9412  0.1634
  759MOL0     C 4617   8.210   2.875   5.775  0.3995  0.5426 -0.4504
  759MOL0     C 4618   8.236   2.844   5.629 -0.6851 -0.2848  0.4574
  759MOL0     C 4619   8.372   2.907   5.603 -0.1013  0.3181  0.2310
  759MOL0     C 4620   8.422   2.877   5.454 -0.0861  0.2594  0.3490
  759MOL0     N 4621   8.526   2.972   5.405  0.2089  0.2371  0.3506
  759MOL0     C 4622   8.630   3.030   5.479  0.0903  0.0529  0.0258
  759MOL0     C 4623   8.701   3.103   5.389 -0.3775 -0.1658 -0.0937
  759MOL0     C 4624   8.824   3.181   5.421 -0.1943  0.0412  0.5358
  759MOL0     C 4625   8.809   3.336   5.371 -0.2694 -0.2951 -0.4122
  759MOL0     C 4626   8.951   3.404   5.389 -0.6212  0.0006  0.2546
  759MOL0     C 4627   8.956   3.549   5.343 -0.0648 -0.5145  0.6039
  759MOL0     O 4628   8.859   3.618   5.415  0.1646  0.0900  0.4019
  759MOL0     C 4629   8.871   3.758   5.413 -0.5285  0.9060 -0.7860
  759MOL0     C 4630   8.760   3.812   5.471  1.1113 -0.4884  0.2680
  759MOL0     C 4631   8.754   3.945   5.504 -0.3104 -0.1579  0.5334
  759MOL0     C 4632   8.628   3.988   5.573 -0.0017  0.0724  0.1673
  759MOL0     C 4633   8.867   4.031   5.479  0.3804  0.4038 -0.2939
  759MOL0     C 4634   8.866   4.180   5.510  0.9519  0.4772  0.0714
  759MOL0     O 4635   8.746   4.244   5.481  0.1779 -0.9595 -0.0267
  759MOL0     C 4636   8.754   4.382   5.487 -0.0169  0.2873 -0.2594
  759MOL0     C 4637   8.659   4.445   5.564  1.4298  0.1209 -1.0175
  759MOL0     C 4638   8.657   4.587   5.562 -0.3621  0.9762 -0.6297
  759MOL0     C 4639   8.742   4.668   5.486 -1.4070  0.0651 -0.5015
  759MOL0     O 4640   8.745   4.806   5.515 -0.0414 -0.1275 -0.3375
  759MOL0     C 4641   8.749   4.888   5.398  0.3180 -0.2138  0.1580
  759MOL0     C 4642   8.662   5.006   5.436 -0.7162 -0.4359  0.5160
  759MOL0     C 4643   8.715   5.086   5.558  0.3416  0.2322 -0.2625
  759MOL0     C 4644   8.657   5.220   5.562 -0.4298  0.6217  0.3765
  759MOL0     C 4645   8.661   5.268   5.712  0.6552 -1.2065  0.1135
  759MOL0     C 4646   8.621   5.416   5.735 -0.1202 -0.5439  0.3781
  759MOL0     C 4647   8.475   5.448   5.787  0.1939  0.3250 -0.3358
  759MOL0     C 4648   8.365   5.394   5.705 -0.2789  0.3867 -0.3276
  759MOL0    Cl 4649   8.216   5.436   5.793  0.5724 -0.5637  0.7196
  759MOL0     C 4650   8.848   4.601   5.419  0.4992  0.0408 -0.2406
  759MOL0     C 4651   8.849   4.457   5.413  0.0583 -0.5077 -0.4330
  759MOL0     O 4652   8.967   4.226   5.557 -0.2536  0.7131 -0.0449
  759MOL0     C 4653   8.981   3.968   5.415 -0.5298  0.3510  0.2409
  759MOL0     C 4654   8.986   3.835   5.382 -0.0443  0.0332 -0.3939
  759MOL0     N 4655   8.643   3.097   5.265 -0.9333  0.4652  1.5498
  759MOL0     N 4656   8.545   3.013   5.280  0.0404 -0.1198  0.9448
  759MOL0     C 4657   7.576   2.939   5.795 -0.2305  0.6246  0.0952
  759MOL0     C 4658   7.489   3.014   5.722 -0.1394  0.3744  0.2325
  759MOL0     C 4659   7.233   3.320   5.527  0.2011  0.1935  0.0540
  759MOL0     C 4660   7.138   3.295   5.434 -0.2993 -0.0315  0.3399
  759MOL0     C 4661   7.029   3.381   5.396  0.2056 -0.0904 -0.0518
  759MOL0     C 4662   7.022   3.510   5.455 -0.7482 -0.2566 -0.1885
  759MOL0     O 4663   6.930   3.609   5.455 -0.0166 -0.5693 -0.2669
  759MOL0     C 4664   6.811   3.596   5.379 -0.1440  0.9830  1.0399
  759MOL0     C 4665   6.767   3.727   5.333 -0.5749 -0.5115 -0.0939
  759MOL0     C 4666   6.634   3.711   5.255 -0.3392 -0.3983 -0.2889
  759MOL0     C 4667   6.605   3.823   5.153  0.0838  0.2776  0.3013
  759MOL0     C 4668   6.624   3.959   5.198 -0.1845 -0.8228  0.5784
  759MOL0     C 4669   6.633   4.075   5.240 -0.4717 -0.4972  0.2116
  759MOL0     C 4670   7.126   3.545   5.544 -0.6590  0.4351 -0.9757
  759MOL0     C 4671   7.226   3.452   5.578  0.0776 -0.2042 -0.0066
  759MOL0     C 4672   7.335   3.512   5.672  0.2267 -0.1368 -0.3403
  759MOL0     H 4673   7.551   3.319   5.810 -2.2300  0.9673 -0.6584
  759MOL0     H 4674   7.720   3.203   5.947 -2.1474  4.0706 -1.0703
  759MOL0     H 4675   7.774   2.792   5.838 -0.3080  1.5424 -0.8657
  759MOL0     H 4676   7.700   2.719   5.984  0.1459 -2.6390 -3.3178
  759MOL0     H 4677   7.925   2.749   6.117  2.5227  0.4599  0.2553
  759MOL0     H 4678   7.946   2.646   5.969  1.3581  0.1530  1.2291
  759MOL0     H 4679   8.041   2.935   5.988 -0.9813  0.4847 -2.1144
  759MOL0     H 4680   8.138   2.790   6.006  0.6011  0.3440 -1.2321
  759MOL0     H 4681   8.096   2.702   5.793  0.1265 -0.8503 -0.3933
  759MOL0     H 4682   7.998   2.843   5.744 -1.3462 -1.8910  1.2943
  759MOL0     H 4683   8.277   2.810   5.831  0.3143 -1.1445 -2.1918
  759MOL0     H 4684   8.216   2.978   5.811 -4.4070  0.1057  2.4178
  759MOL0     H 4685   8.226   2.739   5.603  5.5053 -0.7210 -2.0241
  759MOL0     H 4686   8.157   2.899   5.576 -1.4961 -0.6827  1.2478
  759MOL0     H 4687   8.446   2.873   5.676 -1.2095 -1.0740  0.7482
  759MOL0     H 4688   8.359   3.016   5.608 -0.7621  0.2312  0.3944
  759MOL0     H 4689   8.463   2.776   5.455 -0.9301 -0.2503 -3.1209
  759MOL0     H 4690   8.338   2.874   5.383 -0.1081 -2.7315  0.4017
  759MOL0     H 4691   8.656   3.010   5.582 -2.8942 -1.9406  0.5355
  759MOL0     H 4692   8.897   3.128   5.359 -1.2797 -0.7858 -0.0609
  759MOL0     H 4693   8.846   3.182   5.528 -1.0061 -1.2423  0.7323
  759MOL0     H 4694   8.782   3.332   5.265 -2.4148  2.0926 -0.0490
  759MOL0     H 4695   8.722   3.378   5.423 -0.2493 -0.1167 -0.5247
  759MOL0     H 4696   8.980   3.399   5.495 -1.2134 -3.7148  0.3964
  759MOL0     H 4697   9.028   3.349   5.333 -1.5377 -0.3953 -0.6462
  759MOL0     H 4698   9.058   3.582   5.363  0.5755 -1.6675 -0.6647
  759MOL0     H 4699   8.938   3.569   5.237 -1.5115  1.5375  1.1736
  759MOL0     H 4700   8.684   3.741   5.502  1.9066 -1.5694 -0.1716
  759MOL0     H 4701   8.551   4.003   5.497  0.5677 -0.7861 -0.5917
  759MOL0     H 4702   8.664   4.079   5.621  0.3822  0.2902 -0.5248
  759MOL0     H 4703   8.593   3.924   5.655 -2.7933 -1.2230 -1.8646
  759MOL0     H 4704   8.595   4.386   5.628  2.4914 -0.6666 -0.6622
  759MOL0     H 4705   8.579   4.630   5.624 -0.6736  0.9017 -0.9652
  759MOL0     H 4706   8.850   4.923   5.377 -0.1628 -0.1544 -2.3083
  759MOL0     H 4707   8.697   4.845   5.312 -1.3535  1.2302  0.4066
  759MOL0     H 4708   8.662   5.075   5.351  0.9666  0.4308  1.1725
  759MOL0     H 4709   8.557   4.983   5.457 -1.3228  2.2284  0.6628
  759MOL0     H 4710   8.824   5.090   5.548  0.5352 -1.9157  0.4373
  759MOL0     H 4711   8.690   5.032   5.650  2.0300  1.9702  1.3027
  759MOL0     H 4712   8.553   5.224   5.527 -0.8263 -0.1390  1.4354
  759MOL0     H 4713   8.724   5.287   5.508  0.0330  0.0367  0.2284
  759MOL0     H 4714   8.592   5.211   5.776  1.1679 -2.3807 -0.3450
  759MOL0     H 4715   8.766   5.256   5.741  1.6577 -0.4409 -2.8862
  759MOL0     H 4716   8.645   5.481   5.650 -0.8400  1.3309  1.5388
  759MOL0     H 4717   8.694   5.451   5.809 -2.0115  3.3036  0.6800
  759MOL0     H 4718   8.454   5.554   5.803 -1.6378 -0.1837  1.0170
  759MOL0     H 4719   8.467   5.388   5.878 -1.0890  2.1936  0.8725
  759MOL0     H 4720   8.375   5.285   5.702 -3.6293 -0.2090  3.3319
  759MOL0     H 4721   8.357   5.442   5.607 -1.4517 -1.5122 -1.2310
  759MOL0     H 4722   8.921   4.661   5.365 -1.5926  1.2296 -1.8762
  759MOL0     H 4723   8.928   4.408   5.356  0.4252  2.1548 -2.3739
  759MOL0     H 4724   9.065   4.029   5.384  0.7597 -1.7945 -0.6715
  759MOL0     H 4725   9.081   3.801   5.341  0.7176 -1.0546  2.0647
  759MOL0     H 4726   7.580   2.831   5.787  0.7937  0.5478  1.2677
  759MOL0     H 4727   7.417   2.963   5.658  0.1127  1.6367 -1.1168
  759MOL0     H 4728   7.128   3.209   5.368 -0.5263  0.4217 -0.2188
  759MOL0     H 4729   6.954   3.357   5.320  2.2835  1.4464 -2.7649
  759MOL0     H 4730   6.836   3.546   5.285  1.2874 -0.2494  2.0291
  759MOL0     H 4731   6.737   3.541   5.439 -0.1269 -1.5595 -1.1095
  759MOL0     H 4732   6.840   3.788   5.281  2.9913 -2.2074  2.4784
  759MOL0     H 4733   6.742   3.778   5.427  2.1960 -0.6673  0.8276
  759MOL0     H 4734   6.624   3.620   5.195 -2.9836 -1.2548  1.3279
  759MOL0     H 4735   6.558   3.712   5.333  0.6287 -0.4020  0.6789
  759MOL0     H 4736   6.505   3.795   5.118  0.4238 -2.4037  1.1892
  759MOL0     H 4737   6.668   3.802   5.065  0.7282 -0.8437  1.0035
  759MOL0     H 4738   6.647   4.177   5.269  0.7031  0.3289 -2.8464
  759MOL0     H 4739   7.125   3.635   5.604  2.9308  1.1292 -1.7254
  759MOL0     H 4740   7.331   3.620   5.654  0.8948 -0.3408 -1.8846
  759MOL0     H 4741   7.297   3.486   5.771  2.7716 -1.1842  0.4457
  759MOL0     H 4742   7.434   3.466   5.658  0.7314  0.5231  0.9469
  760MOL0     O 4743   8.275   4.264   0.476  0.7655  0.0805  0.1955
  760MOL0     C 4744   8.320   4.158   0.436  0.5409 -0.6289 -0.9143
  760MOL0     O 4745   8.450   4.129   0.445 -0.0074 -0.2287  0.2317
  760MOL0     C 4746   8.533   4.207   0.513 -0.8136 -0.4873 -0.2684
  760MOL0     C 4747   8.643   4.264   0.450 -0.3421  0.9716 -0.2097
  760MOL0     C 4748   8.734   4.346   0.520  0.6136 -0.3720  0.5498
  760MOL0     C 4749   8.714   4.360   0.662  0.2174 -0.9850  0.9649
  760MOL0     O 4750   8.806   4.441   0.725  0.1977  1.1297 -0.0589
  760MOL0     C 4751   8.835   4.408   0.860  0.6925 -1.1804 -0.3646
  760MOL0     C 4752   8.775   4.520   0.938 -0.8566  0.1433 -0.1714
  760MOL0     C 4753   8.811   4.507   1.080 -1.1284  0.1107 -0.2000
  760MOL0     C 4754   8.759   4.635   1.155 -0.1649  0.3793  0.3167
  760MOL0     C 4755   8.816   4.646   1.290  0.1171  0.0979 -0.6049
  760MOL0     C 4756   8.958   4.677   1.301 -0.1017  0.6869  0.4640
  760MOL0     C 4757   8.996   4.794   1.396 -0.9506 -0.4149 -0.0991
  760MOL0     C 4758   8.971   4.771   1.546 -0.1660  1.1026 -0.6023
  760MOL0     N 4759   9.090   4.707   1.608  0.0533 -1.3908 -0.0210
  760MOL0     C 4760   9.156   4.599   1.569 -0.3195  0.5770  0.1855
  760MOL0     C 4761   9.261   4.591   1.651  0.6055 -0.0593 -0.5461
  760MOL0     C 4762   9.360   4.484   1.667 -0.8539  0.1561  0.6859
  760MOL0     C 4763   9.356   4.408   1.798  0.7183 -0.6712  0.7527
  760MOL0     C 4764   9.373   4.259   1.797  0.0164  0.1125  0.3762
  760MOL0     C 4765   9.256   4.186   1.726 -0.4037 -0.2354 -0.3729
  760MOL0     O 4766   9.128   4.235   1.775 -0.1346  0.2569 -0.8623
  760MOL0     C 4767   9.029   4.265   1.687 -0.1097 -0.0325  0.1310
  760MOL0     C 4768   8.984   4.167   1.598 -0.4719 -1.2120 -0.5988
  760MOL0     C 4769   8.863   4.181   1.521  0.5547 -0.0219 -0.0535
  760MOL0     C 4770   8.814   4.069   1.443  0.6797 -0.6116  0.6421
  760MOL0     C 4771   8.795   4.308   1.527 -0.7561  0.0016 -0.4173
  760MOL0     C 4772   8.687   4.347   1.442  1.1398  0.1578  0.2025
  760MOL0     O 4773   8.663   4.276   1.330 -0.5407  0.3131  0.3152
  760MOL0     C 4774   8.551   4.278   1.245 -0.2390 -0.1706 -0.4709
  760MOL0     C 4775   8.433   4.354   1.265  0.5141  0.9710  0.1892
  760MOL0     C 4776   8.317   4.336   1.184  0.2753  0.3851 -0.0899
  760MOL0     C 4777   8.307   4.252   1.074 -0.6498 -0.2338  0.4961
  760MOL0     O 4778   8.203   4.224   0.993  0.7940 -0.2195 -0.2641
  760MOL0     C 4779   8.076   4.248   1.040  0.7171  0.6204 -0.6079
  760MOL0     C 4780   7.976   4.189   0.933 -0.3743 -0.4411 -0.3818
  760MOL0     C 4781   7.826   4.210   0.967 -0.6308 -0.6263  0.0496
  760MOL0     C 4782   7.767   4.108   1.059 -0.0742  0.2424  0.0537
  760MOL0     C 4783   7.611   4.120   1.048  0.1578  0.0798 -0.2880
  760MOL0     C 4784   7.547   4.010   1.124 -0.5050 -0.1650 -0.0927
  760MOL0     C 4785   7.406   3.982   1.082 -0.1113  0.1068  0.6929
  760MOL0     C 4786   7.351   3.847   1.137  0.0709  0.5660 -0.3813
  760MOL0    Cl 4787   7.350   3.864   1.324 -0.2874  0.0020  0.3562
  760MOL0     C 4788   8.428   4.185   1.048  0.6279 -0.4720  1.0674
  760MOL0     C 4789   8.548   4.193   1.137  0.5242  0.8327  0.4032
  760MOL0     O 4790   8.620   4.445   1.490  0.0137  0.3894  0.0801
  760MOL0     C 4791   8.839   4.412   1.617  0.1187  0.2449  0.4611
  760MOL0     C 4792   8.951   4.381   1.701 -0.3366  0.1219  0.0213
  760MOL0     N 4793   9.267   4.700   1.737 -0.1765 -0.5949 -0.2345
  760MOL0     N 4794   9.155   4.766   1.707 -0.2134 -0.7184  0.4478
  760MOL0     C 4795   8.606   4.302   0.723  0.0247 -0.1780 -0.2173
  760MOL0     C 4796   8.525   4.214   0.651  0.4623  0.1972  0.2003
  760MOL0     C 4797   8.224   4.056   0.389  0.0386  0.5398 -0.1061
  760MOL0     C 4798   8.245   4.004   0.259 -0.0490 -0.1206 -0.3436
  760MOL0     C 4799   8.153   3.914   0.193 -0.6020  0.3864 -1.1377
  760MOL0     C 4800   8.037   3.873   0.267  0.0237 -0.2175 -0.2870
  760MOL0     O 4801   7.936   3.772   0.234 -0.6352 -0.1472  0.1478
  760MOL0     C 4802   7.943   3.715   0.100 -0.1567 -0.5478  0.1602
  760MOL0     C 4803   7.806   3.667   0.049 -0.3918 -0.2577 -0.1595
  760MOL0     C 4804   7.740   3.553   0.137  0.4053  0.2433 -0.0829
  760MOL0     C 4805   7.746   3.415   0.080 -0.0436  0.0126 -0.6740
  760MOL0     C 4806   7.640   3.337   0.145 -0.0252  0.0452 -0.1838
  760MOL0     C 4807   7.545   3.281   0.198  0.6994 -0.3479 -0.5633
  760MOL0     C 4808   8.020   3.930   0.396  0.3930  0.5158 -0.4407
  760MOL0     C 4809   8.104   4.016   0.459 -0.2653 -0.3696  0.3314
  760MOL0     C 4810   8.080   4.082   0.591  0.0178  0.0809  0.1733
  760MOL0     H 4811   8.660   4.264   0.343  1.5871  0.3023  0.0635
  760MOL0     H 4812   8.811   4.385   0.454 -1.6923  0.9111 -1.5363
  760MOL0     H 4813   8.942   4.399   0.882  0.8755  1.1877 -0.0503
  760MOL0     H 4814   8.798   4.314   0.902  1.2792 -0.1748  2.6722
  760MOL0     H 4815   8.820   4.611   0.898  0.0362  0.7295  2.0385
  760MOL0     H 4816   8.668   4.530   0.920 -0.6715  1.5722 -0.5839
  760MOL0     H 4817   8.765   4.418   1.124 -2.0687 -0.7826 -2.7893
  760MOL0     H 4818   8.920   4.506   1.087 -1.1854 -1.6885  1.1190
  760MOL0     H 4819   8.788   4.713   1.084 -0.6440 -0.5356 -0.9270
  760MOL0     H 4820   8.650   4.641   1.163 -0.0790  0.9744  1.0976
  760MOL0     H 4821   8.802   4.551   1.343  0.8444  0.6942  0.7251
  760MOL0     H 4822   8.769   4.728   1.346  4.5579  1.9642  0.8707
  760MOL0     H 4823   9.005   4.586   1.340  1.2845  1.7026  1.2310
  760MOL0     H 4824   8.995   4.696   1.200 -0.6680 -0.7786 -0.0625
  760MOL0     H 4825   8.942   4.885   1.369  0.3215  0.6356  0.7521
  760MOL0     H 4826   9.104   4.810   1.386 -1.0395  0.2698  0.0083
  760MOL0     H 4827   8.963   4.874   1.584  0.7687  0.9351  0.0769
  760MOL0     H 4828   8.885   4.710   1.574  0.7133 -0.9703 -2.1390
  760MOL0     H 4829   9.123   4.520   1.503  0.2755 -0.3632  0.9972
  760MOL0     H 4830   9.460   4.523   1.650 -1.9636  2.0802 -2.2405
  760MOL0     H 4831   9.350   4.416   1.582 -0.3684  1.1804 -0.2062
  760MOL0     H 4832   9.447   4.443   1.847  3.3336  0.8176 -4.4809
  760MOL0     H 4833   9.269   4.444   1.853  0.6347  0.6696 -0.2231
  760MOL0     H 4834   9.463   4.232   1.741 -2.1772 -2.6912 -2.1582
  760MOL0     H 4835   9.378   4.222   1.900 -1.4586  1.6753  1.0595
  760MOL0     H 4836   9.248   4.229   1.626  1.0818  1.3014  0.1202
  760MOL0     H 4837   9.258   4.078   1.742 -0.2252  0.0326  1.7032
  760MOL0     H 4838   9.034   4.071   1.593  0.5216 -0.8293  1.1788
  760MOL0     H 4839   8.849   4.060   1.340 -2.3720  0.0321 -0.5562
  760MOL0     H 4840   8.706   4.085   1.440  0.8931  1.2716  1.3383
  760MOL0     H 4841   8.830   3.974   1.495  1.0896 -0.1158  1.4510
  760MOL0     H 4842   8.414   4.425   1.345 -0.1857  0.7360  0.2374
  760MOL0     H 4843   8.230   4.388   1.222 -0.1083 -0.2382 -0.1070
  760MOL0     H 4844   8.050   4.201   1.136  1.1456  0.8980 -0.3504
  760MOL0     H 4845   8.063   4.357   1.042  0.3315  0.5927 -1.3970
  760MOL0     H 4846   7.997   4.241   0.839 -2.5288  2.0145  0.3649
  760MOL0     H 4847   7.991   4.082   0.915 -0.1767 -0.0686 -2.7524
  760MOL0     H 4848   7.766   4.214   0.875  0.9766  0.7638 -1.0072
  760MOL0     H 4849   7.815   4.309   1.014  0.5818 -0.8249  0.7688
  760MOL0     H 4850   7.798   4.125   1.162  0.8685  1.2229 -0.3623
  760MOL0     H 4851   7.797   4.005   1.038  0.2538  0.5488 -1.0981
  760MOL0     H 4852   7.570   4.210   1.095 -1.1188 -0.6179 -0.0244
  760MOL0     H 4853   7.580   4.121   0.943 -3.3560 -0.4118  0.6269
  760MOL0     H 4854   7.544   4.026   1.233  1.1359 -1.9618  0.2890
  760MOL0     H 4855   7.598   3.913   1.115  0.5930  0.1284  2.1103
  760MOL0     H 4856   7.398   3.969   0.974  0.5963  4.5591 -0.0729
  760MOL0     H 4857   7.336   4.065   1.098  0.1348  0.8773 -1.8507
  760MOL0     H 4858   7.425   3.771   1.110 -0.8714 -1.2076  1.7869
  760MOL0     H 4859   7.254   3.812   1.102  1.4038 -5.1733  0.7417
  760MOL0     H 4860   8.438   4.107   0.973  1.3005 -0.6897  1.3827
  760MOL0     H 4861   8.636   4.134   1.113 -0.3137 -0.9823  1.5843
  760MOL0     H 4862   8.794   4.510   1.619 -0.5506 -0.0367 -0.3960
  760MOL0     H 4863   8.999   4.453   1.765 -1.7487  0.7170  0.4415
  760MOL0     H 4864   8.588   4.332   0.826  3.1816 -0.4502  0.4969
  760MOL0     H 4865   8.447   4.163   0.705 -0.0731  3.6230  3.0625
  760MOL0     H 4866   8.336   4.039   0.213 -1.3558  0.1991 -2.8070
  760MOL0     H 4867   8.182   3.882   0.094 -1.4656 -1.8614 -0.7120
  760MOL0     H 4868   7.971   3.792   0.029  0.1115 -0.9711 -0.1977
  760MOL0     H 4869   8.014   3.631   0.099 -1.5683 -1.7852 -0.8128
  760MOL0     H 4870   7.807   3.625  -0.052 -2.8885  2.7071 -1.5654
  760MOL0     H 4871   7.748   3.758   0.036  3.2730  2.1657 -1.3733
  760MOL0     H 4872   7.772   3.558   0.242 -2.7507  0.0444  0.9966
  760MOL0     H 4873   7.635   3.582   0.136 -1.0246 -4.0000  2.3948
  760MOL0     H 4874   7.839   3.366   0.110 -0.2367 -0.5739 -0.9971
  760MOL0     H 4875   7.736   3.402  -0.029 -2.2107 -0.9720 -0.4078
  760MOL0     H 4876   7.457   3.236   0.240  0.8978 -1.0820 -0.9354
  760MOL0     H 4877   7.937   3.892   0.454  3.0787  1.2970  4.4533
  760MOL0     H 4878   8.048   4.185   0.573 -2.1245 -0.4580  0.6119
  760MOL0     H 4879   8.006   4.046   0.663 -0.6720  0.3072 -0.4130
  760MOL0     H 4880   8.171   4.082   0.652 -0.5429  0.2963  1.0202
  761MOL0     O 4881   6.400   6.862   4.019 -0.8848  0.1834  0.2068
  761MOL0     C 4882   6.464   6.918   3.934  0.5239  0.1112  0.0920
  761MOL0     O 4883   6.455   6.884   3.805 -0.5333 -0.1164  0.2166
  761MOL0     C 4884   6.379   6.775   3.776 -0.3226 -0.4619 -0.1518
  761MOL0     C 4885   6.421   6.653   3.823 -0.1605 -0.5013  0.2481
  761MOL0     C 4886   6.352   6.530   3.794  1.0454  0.4365  0.2866
  761MOL0     C 4887   6.240   6.541   3.712  0.1114  0.0573 -0.1646
  761MOL0     O 4888   6.191   6.432   3.646 -0.0549  0.2916  0.4421
  761MOL0     C 4889   6.144   6.334   3.735  0.6406 -0.0533  0.9637
  761MOL0     C 4890   6.016   6.277   3.670 -0.1662  0.1657 -0.1814
  761MOL0     C 4891   5.912   6.387   3.655 -0.0670  0.5844  0.4359
  761MOL0     C 4892   5.771   6.332   3.624  1.1700  0.1239 -0.3968
  761MOL0     C 4893   5.715   6.280   3.763  0.6885  0.2286  0.0984
  761MOL0     C 4894   5.558   6.260   3.759 -0.6409 -0.6950  0.4029
  761MOL0     C 4895   5.511   6.177   3.877 -0.7255 -0.8052 -0.1771
  761MOL0     C 4896   5.356   6.145   3.874 -0.1103  0.0275 -0.9894
  761MOL0     N 4897   5.293   6.265   3.920  0.3839 -1.1777 -0.2384
  761MOL0     C 4898   5.237   6.293   4.046 -0.5447 -0.7933  0.6612
  761MOL0     C 4899   5.179   6.415   4.028  0.8399  0.1363  0.1853
  761MOL0     C 4900   5.093   6.485   4.134 -0.9121  0.3426  0.9304
  761MOL0     C 4901   4.991   6.403   4.209 -0.0387 -0.1125  0.1174
  761MOL0     C 4902   4.995   6.433   4.361  0.4502  0.3717 -0.0064
  761MOL0     C 4903   4.939   6.560   4.408  0.3883 -0.3004  0.2630
  761MOL0     O 4904   4.799   6.549   4.397  0.0242  0.0486 -0.4516
  761MOL0     C 4905   4.724   6.635   4.474  0.2825 -0.8583  0.7806
  761MOL0     C 4906   4.587   6.606   4.497  0.5292 -0.3483 -0.1722
  761MOL0     C 4907   4.503   6.697   4.560  0.5965 -0.8557 -0.0963
  761MOL0     C 4908   4.365   6.647   4.561 -0.3977 -0.2397 -0.0037
  761MOL0     C 4909   4.558   6.822   4.612  0.0304 -0.2080  0.0231
  761MOL0     C 4910   4.485   6.920   4.706  1.5604  0.3613 -0.3721
  761MOL0     O 4911   4.357   6.871   4.749  0.2238  1.2278 -0.1056
  761MOL0     C 4912   4.278   6.967   4.813  0.1170 -0.0449 -0.5386
  761MOL0     C 4913   4.266   7.100   4.764 -0.2020  0.6423 -1.1049
  761MOL0     C 4914   4.176   7.187   4.831 -0.7011 -0.4472  1.0055
  761MOL0     C 4915   4.111   7.164   4.945 -0.4112 -0.0024  0.0958
  761MOL0     O 4916   4.026   7.253   5.019  0.0846 -0.6508  0.8020
  761MOL0     C 4917   4.041   7.391   5.000 -0.4237  0.3335  0.9757
  761MOL0     C 4918   3.905   7.439   4.959  0.5131 -0.1447  0.0341
  761MOL0     C 4919   3.854   7.390   4.820 -0.2950 -0.3836 -0.7150
  761MOL0     C 4920   3.742   7.480   4.787  0.7643  0.5672  0.3863
  761MOL0     C 4921   3.681   7.421   4.651 -1.2354 -0.5783  0.0089
  761MOL0     C 4922   3.582   7.525   4.595  0.0047 -0.0621 -0.4730
  761MOL0     C 4923   3.483   7.488   4.483 -0.5449  0.0024 -0.1170
  761MOL0     C 4924   3.389   7.599   4.431  0.6527  0.0908  0.4709
  761MOL0    Cl 4925   3.263   7.662   4.551  0.2700 -0.3184 -0.3318
  761MOL0     C 4926   4.125   7.041   4.999  0.0577 -0.4314  0.6706
  761MOL0     C 4927   4.205   6.935   4.935  0.3866  0.0505  0.2660
  761MOL0     O 4928   4.531   7.033   4.720  0.2759 -0.0622  0.3862
  761MOL0     C 4929   4.699   6.842   4.598 -0.0489  0.5137 -0.5342
  761MOL0     C 4930   4.776   6.756   4.520 -0.4854  0.4654  0.4305
  761MOL0     N 4931   5.191   6.455   3.895 -0.4178 -0.5760 -0.0762
  761MOL0     N 4932   5.260   6.365   3.833  0.0223  0.8704  0.2801
  761MOL0     C 4933   6.195   6.665   3.669  0.2956 -0.3437  0.7044
  761MOL0     C 4934   6.262   6.785   3.702  0.6902 -0.0252 -0.0532
  761MOL0     C 4935   6.533   7.042   3.955 -0.1001  0.6485 -0.3719
  761MOL0     C 4936   6.658   7.047   3.897 -0.3143  0.2002 -0.6613
  761MOL0     C 4937   6.732   7.164   3.908  0.6016  0.6793  0.4532
  761MOL0     C 4938   6.680   7.275   3.978  0.1885  0.0485 -0.7218
  761MOL0     O 4939   6.767   7.382   3.984  0.3601 -0.1932  0.0831
  761MOL0     C 4940   6.715   7.509   4.024 -0.1453 -0.0369 -0.0777
  761MOL0     C 4941   6.839   7.606   4.032 -0.4513  0.0078  0.6983
  761MOL0     C 4942   6.945   7.557   4.132  0.3828 -0.3061  0.4063
  761MOL0     C 4943   6.932   7.633   4.268 -0.1153 -0.3448  0.2298
  761MOL0     C 4944   6.956   7.776   4.266  0.7360 -0.2982 -0.2721
  761MOL0     C 4945   6.961   7.895   4.254 -0.2361  0.3812  0.0166
  761MOL0     C 4946   6.559   7.266   4.048 -0.1807 -0.7354  0.1926
  761MOL0     C 4947   6.489   7.144   4.038 -0.4210 -1.0872  0.0535
  761MOL0     C 4948   6.354   7.138   4.104 -0.4009  0.2510  0.1554
  761MOL0     H 4949   6.518   6.637   3.870  0.4098 -0.4033 -0.8483
  761MOL0     H 4950   6.388   6.432   3.824  0.8544  0.2989  0.0670
  761MOL0     H 4951   6.138   6.369   3.839  1.1193  0.0841  0.9463
  761MOL0     H 4952   6.209   6.247   3.740 -0.2590 -0.8598 -0.7188
  761MOL0     H 4953   6.028   6.227   3.574 -0.7282 -1.0984  0.3868
  761MOL0     H 4954   5.985   6.204   3.746  2.5617 -0.1457  0.7652
  761MOL0     H 4955   5.906   6.458   3.739  0.6706  0.4536  0.6065
  761MOL0     H 4956   5.938   6.463   3.580 -0.6672  0.8519  0.4882
  761MOL0     H 4957   5.714   6.422   3.600  2.6062  0.5620 -2.4923
  761MOL0     H 4958   5.767   6.260   3.542 -0.4064  0.0978 -0.3294
  761MOL0     H 4959   5.741   6.340   3.850  2.4408 -1.1614  0.5983
  761MOL0     H 4960   5.766   6.184   3.782  2.5866  1.4979  1.8406
  761MOL0     H 4961   5.495   6.348   3.747 -3.2590 -2.5033  0.1511
  761MOL0     H 4962   5.556   6.196   3.671  0.9982 -0.1024 -0.1162
  761MOL0     H 4963   5.532   6.232   3.969 -2.3386  0.6777 -0.6427
  761MOL0     H 4964   5.565   6.082   3.878  1.6504  0.4580  1.7475
  761MOL0     H 4965   5.315   6.118   3.777 -3.5718 -0.2235  0.4063
  761MOL0     H 4966   5.325   6.066   3.942  0.2298  1.1749  0.5585
  761MOL0     H 4967   5.229   6.241   4.140 -5.6749 -4.4334 -1.3700
  761MOL0     H 4968   5.039   6.570   4.093  0.0042  0.6117  0.2376
  761MOL0     H 4969   5.169   6.522   4.202  1.5039 -1.5218 -0.5459
  761MOL0     H 4970   4.894   6.437   4.173 -0.0023 -0.9054 -0.7819
  761MOL0     H 4971   5.000   6.297   4.185 -0.3529  0.0752 -0.8339
  761MOL0     H 4972   4.954   6.345   4.411  1.9932 -0.6930 -0.5471
  761MOL0     H 4973   5.094   6.425   4.407 -0.1979 -0.3210  1.3306
  761MOL0     H 4974   4.964   6.584   4.512 -1.2200 -0.0920  0.6354
  761MOL0     H 4975   4.982   6.635   4.340  0.4718 -1.8218 -1.4326
  761MOL0     H 4976   4.547   6.510   4.465  2.6085 -0.6645 -2.0018
  761MOL0     H 4977   4.363   6.571   4.639 -1.1968  0.9248  1.1370
  761MOL0     H 4978   4.346   6.608   4.460  0.5041  2.3189 -1.2538
  761MOL0     H 4979   4.286   6.722   4.570 -1.7206 -0.9535 -3.7190
  761MOL0     H 4980   4.318   7.132   4.674  0.2546  0.7694 -0.8000
  761MOL0     H 4981   4.165   7.277   4.771  1.1402 -2.0103 -1.9242
  761MOL0     H 4982   4.067   7.438   5.095  1.2315  3.4176 -0.8515
  761MOL0     H 4983   4.115   7.430   4.930 -0.6280 -2.4699 -0.9517
  761MOL0     H 4984   3.828   7.402   5.028  0.8417  1.1866  1.1756
  761MOL0     H 4985   3.897   7.548   4.958  2.8827  0.1857  2.7581
  761MOL0     H 4986   3.811   7.290   4.827  0.9619 -0.8253  1.8957
  761MOL0     H 4987   3.930   7.394   4.742 -0.8589  0.4643 -1.2441
  761MOL0     H 4988   3.773   7.584   4.770  2.6274 -0.2213 -1.4169
  761MOL0     H 4989   3.660   7.479   4.859 -0.7279 -0.9065 -1.2286
  761MOL0     H 4990   3.751   7.397   4.570 -1.6385 -1.7940  0.0129
  761MOL0     H 4991   3.630   7.329   4.680  0.2373 -0.8019  2.1508
  761MOL0     H 4992   3.641   7.602   4.543  0.0176  1.6490  1.9038
  761MOL0     H 4993   3.534   7.576   4.678  1.6465  0.6963  0.0661
  761MOL0     H 4994   3.428   7.406   4.531  0.4322 -1.0974 -0.8421
  761MOL0     H 4995   3.538   7.448   4.398 -1.7133 -1.2149 -0.3332
  761MOL0     H 4996   3.341   7.582   4.334 -0.3681 -0.7848  1.0906
  761MOL0     H 4997   3.450   7.685   4.404 -1.2381  1.0879 -0.8372
  761MOL0     H 4998   4.051   7.019   5.075 -2.3745  1.1554 -1.1099
  761MOL0     H 4999   4.197   6.830   4.964  0.7664  0.0949  0.5344
  761MOL0     H 5000   4.747   6.928   4.644 -0.7229  0.6283 -0.0232
  761MOL0     H 5001   4.882   6.779   4.513  0.2021 -2.4199  0.2206
  761MOL0     H 5002   6.108   6.667   3.604 -1.4619 -1.3346  2.8985
  761MOL0     H 5003   6.222   6.879   3.666  2.1739  1.3269  1.5882
  761MOL0     H 5004   6.687   6.962   3.836 -2.8250 -3.1331  2.3619
  761MOL0     H 5005   6.822   7.166   3.847  0.6094  1.1757  0.4753
  761MOL0     H 5006   6.646   7.551   3.950  0.3000  0.8827  0.0048
  761MOL0     H 5007   6.672   7.486   4.121  2.5422 -1.4620  0.8547
  761MOL0     H 5008   6.813   7.711   4.046  1.2621  1.1953 -3.3422
  761MOL0     H 5009   6.877   7.614   3.929  0.5703  2.4582  1.1954
  761MOL0     H 5010   6.945   7.448   4.147 -0.8364 -0.8154 -2.6615
  761MOL0     H 5011   7.046   7.569   4.091 -0.1046 -3.9698 -2.4085
  761MOL0     H 5012   7.007   7.587   4.333  0.3140  1.2193  0.8826
  761MOL0     H 5013   6.835   7.605   4.311  0.4984 -2.0343  0.5990
  761MOL0     H 5014   6.970   8.002   4.254 -2.4322  0.6198 -1.5999
  761MOL0     H 5015   6.526   7.360   4.090 -1.0973  0.4025 -2.8241
  761MOL0     H 5016   6.335   7.237   4.148 -0.5441  1.6846 -2.9019
  761MOL0     H 5017   6.280   7.107   4.030  0.6373  2.2625 -1.8610
  761MOL0     H 5018   6.362   7.056   4.176  3.6479  0.2595 -0.0729
  762MOL0     O 5019   6.431   2.846   2.265 -0.7993 -0.9046  0.2166
  762MOL0     C 5020   6.338   2.823   2.185 -0.8360  0.2660 -0.3067
  762MOL0     O 5021   6.270   2.920   2.117  0.4667 -0.3928 -0.6450
  762MOL0     C 5022   6.282   3.045   2.170 -0.3457 -0.2042 -0.3484
  762MOL0     C 5023   6.187   3.087   2.266 -0.7912  0.1297 -0.2584
  762MOL0     C 5024   6.200   3.215   2.321 -0.5023 -0.1034 -0.8755
  762MOL0     C 5025   6.307   3.296   2.283 -0.4985 -0.6135 -0.1729
  762MOL0     O 5026   6.326   3.426   2.335  0.6664  1.0561  0.0202
  762MOL0     C 5027   6.275   3.446   2.467  0.6458 -0.2033 -0.4691
  762MOL0     C 5028   6.336   3.580   2.494 -0.3591 -0.2366 -0.3437
  762MOL0     C 5029   6.269   3.634   2.629 -0.6728  0.7489  0.4153
  762MOL0     C 5030   6.343   3.768   2.672  0.3901 -0.2843  0.8386
  762MOL0     C 5031   6.343   3.890   2.577  0.2622 -0.2031 -0.0350
  762MOL0     C 5032   6.199   3.933   2.536  0.0330  0.1512 -0.1866
  762MOL0     C 5033   6.215   4.019   2.412  0.2369  0.6422 -0.2741
  762MOL0     C 5034   6.076   4.059   2.359 -0.4211  0.0301  0.3645
  762MOL0     N 5035   6.025   4.172   2.438 -0.1863 -0.3065 -0.3375
  762MOL0     C 5036   5.940   4.156   2.548  0.1872 -0.2999 -1.0266
  762MOL0     C 5037   5.907   4.290   2.584  0.5597 -0.2976 -0.5802
  762MOL0     C 5038   5.827   4.343   2.703  0.1646 -0.0913  0.3686
  762MOL0     C 5039   5.898   4.326   2.838 -0.3332  0.4127  0.0286
  762MOL0     C 5040   5.979   4.446   2.874 -1.0011 -0.6156 -0.6830
  762MOL0     C 5041   6.065   4.418   2.994  0.0964 -0.2285  0.3735
  762MOL0     O 5042   6.160   4.324   2.946 -0.4724  0.3123  0.3636
  762MOL0     C 5043   6.183   4.216   3.019  0.8062  0.8241 -0.4910
  762MOL0     C 5044   6.245   4.228   3.152  0.6714  0.5113 -0.4809
  762MOL0     C 5045   6.290   4.105   3.222 -0.6287 -0.8677  0.5007
  762MOL0     C 5046   6.336   4.125   3.369 -0.3524  0.6210 -0.4379
  762MOL0     C 5047   6.283   3.980   3.157  0.0347  0.5823  0.1103
  762MOL0     C 5048   6.354   3.853   3.206  0.6454 -1.2764  0.5180
  762MOL0     O 5049   6.364   3.747   3.120  0.7079  0.7669 -0.3047
  762MOL0     C 5050   6.402   3.631   3.184 -1.0451  0.3880 -0.1299
  762MOL0     C 5051   6.536   3.610   3.197 -0.2694 -0.3182 -0.0640
  762MOL0     C 5052   6.591   3.482   3.234 -0.3421 -0.3333  0.0210
  762MOL0     C 5053   6.508   3.372   3.248 -0.3122  0.2053  0.7708
  762MOL0     O 5054   6.554   3.250   3.279  0.1516 -0.1208  0.1938
  762MOL0     C 5055   6.669   3.202   3.216  0.6443  0.8853 -0.1229
  762MOL0     C 5056   6.657   3.054   3.237 -0.3871  0.3182 -0.4313
  762MOL0     C 5057   6.761   2.973   3.173 -0.2658 -0.0237  0.0492
  762MOL0     C 5058   6.901   3.009   3.228  0.4799  0.1048 -0.0852
  762MOL0     C 5059   7.000   2.911   3.175  0.7456  0.8290  0.3049
  762MOL0     C 5060   7.140   2.971   3.186 -1.1237  0.0764  0.1044
  762MOL0     C 5061   7.247   2.875   3.134  0.8394  0.0048 -0.5942
  762MOL0     C 5062   7.391   2.935   3.102  0.1077 -0.9925 -0.1645
  762MOL0    Cl 5063   7.501   2.801   3.118  0.3103  0.0234 -0.6859
  762MOL0     C 5064   6.366   3.405   3.250 -0.5922  0.1946  0.4450
  762MOL0     C 5065   6.312   3.526   3.209 -0.8163 -0.3026  0.7824
  762MOL0     O 5066   6.384   3.850   3.322  0.2369  0.7270 -0.2073
  762MOL0     C 5067   6.231   3.981   3.023  0.3871 -0.2974 -0.1712
  762MOL0     C 5068   6.190   4.092   2.958 -0.1852 -0.0359 -1.0509
  762MOL0     N 5069   5.981   4.380   2.505 -0.5519  0.3425 -0.0847
  762MOL0     N 5070   6.043   4.306   2.417 -0.4406  0.9633 -0.0906
  762MOL0     C 5071   6.409   3.247   2.205 -0.1656 -0.0422  0.2123
  762MOL0     C 5072   6.397   3.125   2.141  0.7372  0.1456 -1.0492
  762MOL0     C 5073   6.302   2.675   2.163 -0.2167 -0.9345 -0.2290
  762MOL0     C 5074   6.365   2.590   2.247 -0.4393 -0.2663 -0.1374
  762MOL0     C 5075   6.340   2.447   2.243  0.2020 -0.1123  0.1618
  762MOL0     C 5076   6.256   2.391   2.145 -1.0482 -0.0412 -0.1057
  762MOL0     O 5077   6.236   2.255   2.140 -0.2167  0.2051  0.1909
  762MOL0     C 5078   6.128   2.199   2.059  0.6646  0.2500  0.1953
  762MOL0     C 5079   5.997   2.209   2.144  0.2773  0.4715 -0.1172
  762MOL0     C 5080   5.868   2.141   2.086 -0.0341 -0.2373  1.0132
  762MOL0     C 5081   5.735   2.172   2.154 -0.1467  0.5275  0.3769
  762MOL0     C 5082   5.696   2.090   2.272 -0.0230  0.4273  0.0062
  762MOL0     C 5083   5.667   2.029   2.371 -0.7245 -0.6786 -0.6499
  762MOL0     C 5084   6.197   2.478   2.055  0.6341 -0.7154 -0.4117
  762MOL0     C 5085   6.205   2.620   2.072 -0.6719 -0.7969  0.2339
  762MOL0     C 5086   6.146   2.711   1.957  0.5339  0.5292 -0.0668
  762MOL0     H 5087   6.111   3.015   2.294  0.9035 -1.3993  0.5899
  762MOL0     H 5088   6.130   3.253   2.395  1.6758  1.3509  0.5401
  762MOL0     H 5089   6.312   3.377   2.543 -2.4331 -0.6392  0.7550
  762MOL0     H 5090   6.166   3.453   2.462  0.7487  2.4361 -0.5917
  762MOL0     H 5091   6.444   3.567   2.491 -0.5131 -1.5318 -1.3129
  762MOL0     H 5092   6.321   3.648   2.409  1.2620 -0.0500 -0.5135
  762MOL0     H 5093   6.161   3.648   2.620 -1.4883 -3.6398  1.0517
  762MOL0     H 5094   6.292   3.564   2.709 -2.0055  1.0262  1.0609
  762MOL0     H 5095   6.281   3.801   2.755 -0.7502  1.3991 -0.6148
  762MOL0     H 5096   6.444   3.743   2.704  0.7606 -0.2289 -0.2337
  762MOL0     H 5097   6.390   3.861   2.483  2.7520 -1.1500  1.3879
  762MOL0     H 5098   6.407   3.964   2.626 -2.0686 -0.0577  3.1778
  762MOL0     H 5099   6.138   3.846   2.512  0.1283 -0.2712  1.0467
  762MOL0     H 5100   6.142   3.985   2.615 -2.0956 -1.2133 -0.7327
  762MOL0     H 5101   6.285   3.977   2.339  0.9296  2.0877 -0.4858
  762MOL0     H 5102   6.261   4.114   2.443  0.7885  0.2622  0.0717
  762MOL0     H 5103   6.078   4.089   2.254 -1.5796 -0.0712  0.3013
  762MOL0     H 5104   6.012   3.970   2.360  0.3871 -0.5950 -1.1532
  762MOL0     H 5105   5.894   4.067   2.591 -3.1172 -0.0102 -3.5819
  762MOL0     H 5106   5.724   4.306   2.708 -0.7305  2.2023 -0.1129
  762MOL0     H 5107   5.809   4.450   2.693  3.9392  0.5980 -0.3398
  762MOL0     H 5108   5.824   4.309   2.917  0.9438 -2.9508  0.6719
  762MOL0     H 5109   5.959   4.235   2.838 -1.6722 -0.5148  0.2046
  762MOL0     H 5110   6.042   4.485   2.794 -3.1796  1.7324 -1.3885
  762MOL0     H 5111   5.906   4.527   2.887 -2.2139 -1.4953 -1.7601
  762MOL0     H 5112   6.118   4.505   3.035  2.4340 -0.8348 -1.1863
  762MOL0     H 5113   5.997   4.378   3.070  0.4193 -1.9570 -0.2131
  762MOL0     H 5114   6.251   4.319   3.212  1.0040 -1.1695  2.2124
  762MOL0     H 5115   6.270   4.091   3.449 -0.0358  0.5658 -0.1984
  762MOL0     H 5116   6.357   4.232   3.385  0.8245  0.6001 -1.6093
  762MOL0     H 5117   6.431   4.073   3.385 -2.4401 -3.9302 -1.3609
  762MOL0     H 5118   6.617   3.682   3.193 -1.9003  1.9211  3.1485
  762MOL0     H 5119   6.697   3.470   3.253 -0.8723 -4.2307  1.5696
  762MOL0     H 5120   6.651   3.223   3.110  0.4616 -0.2534 -0.3289
  762MOL0     H 5121   6.762   3.241   3.258  0.4185  0.1564  1.1042
  762MOL0     H 5122   6.656   3.033   3.345 -2.9303 -3.3589 -0.9968
  762MOL0     H 5123   6.559   3.024   3.199 -3.4653  3.3675  3.9931
  762MOL0     H 5124   6.753   2.971   3.064 -1.0493 -0.6980  0.1168
  762MOL0     H 5125   6.754   2.871   3.211  2.3374 -0.6831 -0.9728
  762MOL0     H 5126   6.901   2.998   3.337 -0.4170 -3.3753 -0.3310
  762MOL0     H 5127   6.927   3.114   3.214 -0.5122  0.8535  2.8637
  762MOL0     H 5128   6.992   2.822   3.238  1.9850  0.1523 -0.4677
  762MOL0     H 5129   6.980   2.887   3.070 -0.8610  0.3284  0.6931
  762MOL0     H 5130   7.155   3.013   3.285 -1.8864  1.7966 -0.4680
  762MOL0     H 5131   7.142   3.061   3.124 -0.9571 -1.4741 -2.2721
  762MOL0     H 5132   7.221   2.820   3.043  0.7887 -1.9146  0.5153
  762MOL0     H 5133   7.250   2.801   3.215 -2.3608  3.4534  3.1340
  762MOL0     H 5134   7.418   3.019   3.167 -0.8239 -2.8777  2.8596
  762MOL0     H 5135   7.385   2.967   2.997 -0.2324 -1.0236 -0.1533
  762MOL0     H 5136   6.307   3.315   3.262 -1.6078  1.1465  3.3501
  762MOL0     H 5137   6.204   3.527   3.193 -0.4363 -1.7962 -2.7758
  762MOL0     H 5138   6.246   3.893   2.961  0.8304 -2.2825  2.5903
  762MOL0     H 5139   6.159   4.087   2.854  1.1913 -1.1739 -1.4374
  762MOL0     H 5140   6.499   3.307   2.201 -1.3323  1.7089 -2.1686
  762MOL0     H 5141   6.473   3.086   2.073  0.0230 -0.7420 -1.3651
  762MOL0     H 5142   6.430   2.628   2.325  1.0091  0.2682 -1.5487
  762MOL0     H 5143   6.393   2.380   2.311  0.5081  0.2400  0.2782
  762MOL0     H 5144   6.113   2.246   1.961 -0.2183 -0.3811  0.0238
  762MOL0     H 5145   6.147   2.093   2.042 -0.1539  0.1147  0.1205
  762MOL0     H 5146   5.992   2.318   2.152 -0.5466  0.6030 -1.7526
  762MOL0     H 5147   6.013   2.154   2.236  4.1896  0.0491 -0.8989
  762MOL0     H 5148   5.858   2.167   1.980  2.9559 -1.1101  0.4225
  762MOL0     H 5149   5.889   2.033   2.081  3.5444  0.2829  2.0275
  762MOL0     H 5150   5.656   2.154   2.081  1.2236 -1.4420 -0.7079
  762MOL0     H 5151   5.724   2.281   2.163  2.2491  1.0579 -1.7716
  762MOL0     H 5152   5.632   1.984   2.462  0.3723 -1.1164 -0.4259
  762MOL0     H 5153   6.130   2.447   1.975  0.0778  2.1722 -1.2102
  762MOL0     H 5154   6.223   2.733   1.881 -0.5569 -0.3796 -1.4907
  762MOL0     H 5155   6.063   2.661   1.906 -0.3603  0.1699  1.6949
  762MOL0     H 5156   6.088   2.796   1.994 -1.5401 -0.1708 -1.5265
  763MOL0     O 5157   8.993   7.370   2.102  0.1900 -0.1743  1.0159
  763MOL0     C 5158   9.099   7.356   2.039 -0.1512  0.3110  0.3909
  763MOL0     O 5159   9.112   7.379   1.907 -0.0811 -0.2050  0.5285
  763MOL0     C 5160   9.006   7.424   1.835  0.3771 -0.5751  1.5162
  763MOL0     C 5161   9.002   7.556   1.781  0.8597 -0.3359  0.2734
  763MOL0     C 5162   8.906   7.596   1.689  0.1519 -0.0119 -0.2674
  763MOL0     C 5163   8.799   7.514   1.654 -0.5678  0.6115  0.0756
  763MOL0     O 5164   8.701   7.565   1.567 -0.6207  0.1322 -0.0843
  763MOL0     C 5165   8.694   7.482   1.450  0.5997  0.1510 -0.3016
  763MOL0     C 5166   8.567   7.522   1.384 -0.4315  0.2058  0.3159
  763MOL0     C 5167   8.544   7.453   1.245  0.5492 -0.5680  0.1869
  763MOL0     C 5168   8.412   7.504   1.173 -0.3273 -0.0712 -0.1971
  763MOL0     C 5169   8.446   7.629   1.097  1.3348  0.0758  0.4255
  763MOL0     C 5170   8.318   7.715   1.082  0.4421  1.0920  0.4955
  763MOL0     C 5171   8.343   7.852   1.045  0.3116  0.2062  0.3749
  763MOL0     C 5172   8.417   7.858   0.908 -1.3671 -0.3932  0.5649
  763MOL0     N 5173   8.427   8.001   0.862 -0.4646  0.0481  0.7429
  763MOL0     C 5174   8.522   8.096   0.907  0.0198 -0.6477  1.0837
  763MOL0     C 5175   8.477   8.220   0.866 -0.4257  0.8614 -0.6298
  763MOL0     C 5176   8.555   8.347   0.890  0.5152  0.0080 -1.3892
  763MOL0     C 5177   8.616   8.352   1.033 -0.7675 -0.6551  0.4860
  763MOL0     C 5178   8.529   8.311   1.153 -0.1050  0.1622 -0.0026
  763MOL0     C 5179   8.581   8.365   1.283  1.2321 -0.5063 -1.1112
  763MOL0     O 5180   8.726   8.359   1.287  0.3319 -0.5507 -0.2341
  763MOL0     C 5181   8.798   8.464   1.334 -0.9202  0.4450  0.4291
  763MOL0     C 5182   8.822   8.482   1.471  0.2285 -0.6006  0.2445
  763MOL0     C 5183   8.892   8.591   1.521  0.0788  0.1153  0.5516
  763MOL0     C 5184   8.896   8.603   1.665 -0.4704 -0.1241  0.9138
  763MOL0     C 5185   8.961   8.669   1.423 -0.3317  0.1572  0.3664
  763MOL0     C 5186   9.063   8.786   1.459 -0.5778 -0.7222  0.0181
  763MOL0     O 5187   9.131   8.844   1.360 -0.1234  0.2577  0.1762
  763MOL0     C 5188   9.230   8.929   1.381 -0.1388 -0.2342 -0.1326
  763MOL0     C 5189   9.196   9.058   1.386  0.1412 -0.6460  0.6887
  763MOL0     C 5190   9.292   9.154   1.407 -0.3658  0.6310  0.2917
  763MOL0     C 5191   9.430   9.128   1.409 -0.4909 -0.5913  1.0317
  763MOL0     O 5192   9.531   9.216   1.412  0.6091  0.0320 -0.5693
  763MOL0     C 5193   9.523   9.355   1.389 -0.5953  0.1837  0.1254
  763MOL0     C 5194   9.636   9.395   1.298 -0.0464  0.7154 -0.0911
  763MOL0     C 5195   9.645   9.320   1.170 -1.1857 -0.1692  1.5883
  763MOL0     C 5196   9.751   9.385   1.070  0.0230  1.2234 -0.3388
  763MOL0     C 5197   9.896   9.351   1.112 -0.6491 -0.3442  0.5682
  763MOL0     C 5198   9.995   9.410   1.010  0.9368  0.1859  0.7275
  763MOL0     C 5199  10.006   9.347   0.868  0.0477  0.6376  0.3085
  763MOL0     C 5200  10.118   9.417   0.778  0.9091  0.6609  0.1455
  763MOL0    Cl 5201  10.091   9.410   0.604 -0.3721 -0.0261  0.1012
  763MOL0     C 5202   9.467   8.991   1.390  0.4078  0.2728  0.0024
  763MOL0     C 5203   9.369   8.892   1.372  0.0876  0.3821  0.3275
  763MOL0     O 5204   9.067   8.827   1.574  0.1649 -0.1241 -0.0132
  763MOL0     C 5205   8.937   8.649   1.281 -0.2113  0.4355 -0.1080
  763MOL0     C 5206   8.858   8.544   1.238 -0.2557 -0.0134 -0.1994
  763MOL0     N 5207   8.373   8.187   0.776  0.4151 -0.2615  0.4056
  763MOL0     N 5208   8.338   8.061   0.776  0.0694  0.6512 -1.5168
  763MOL0     C 5209   8.795   7.383   1.715 -0.4396 -0.3712  0.5553
  763MOL0     C 5210   8.902   7.342   1.791  0.3156  0.9301  0.1108
  763MOL0     C 5211   9.221   7.308   2.116 -0.6587 -1.1210  0.1140
  763MOL0     C 5212   9.345   7.318   2.049  0.2157  0.3381 -0.8515
  763MOL0     C 5213   9.468   7.274   2.112 -0.4370 -0.0491  0.4237
  763MOL0     C 5214   9.471   7.238   2.239 -0.0558 -0.5744  0.1272
  763MOL0     O 5215   9.579   7.192   2.308 -0.4713  0.0398 -0.5779
  763MOL0     C 5216   9.715   7.216   2.248  1.0608 -0.0099  0.4867
  763MOL0     C 5217   9.758   7.357   2.275  0.4574 -0.2522 -0.1540
  763MOL0     C 5218   9.744   7.394   2.418  0.6176 -0.3025 -0.6611
  763MOL0     C 5219   9.828   7.514   2.464  0.2178  0.4778 -0.5711
  763MOL0     C 5220   9.946   7.475   2.531 -0.5299  0.8652 -0.4719
  763MOL0     C 5221  10.053   7.442   2.582 -0.5779  0.7887  0.8450
  763MOL0     C 5222   9.354   7.212   2.300  1.1748  0.2691 -0.2115
  763MOL0     C 5223   9.229   7.244   2.245  0.4062  0.9738  0.2325
  763MOL0     C 5224   9.098   7.203   2.304  0.3625  0.4646  0.0696
  763MOL0     H 5225   9.073   7.634   1.808 -0.2161  1.0848 -0.8905
  763MOL0     H 5226   8.904   7.694   1.644 -0.0637 -1.3025 -3.3538
  763MOL0     H 5227   8.705   7.374   1.466 -0.3171  0.0665 -0.1892
  763MOL0     H 5228   8.780   7.512   1.389 -0.2772  1.6455 -0.8383
  763MOL0     H 5229   8.488   7.484   1.450 -0.2242 -2.5052 -0.8636
  763MOL0     H 5230   8.554   7.629   1.371 -0.1120  0.3130  0.8566
  763MOL0     H 5231   8.630   7.487   1.187  0.9990  4.5665  3.1682
  763MOL0     H 5232   8.536   7.346   1.262  0.6833 -1.2288 -3.2930
  763MOL0     H 5233   8.366   7.425   1.112  1.6850 -0.3466 -1.4484
  763MOL0     H 5234   8.338   7.524   1.251 -2.5611  1.3038 -2.5240
  763MOL0     H 5235   8.479   7.598   0.997  2.0333  1.1054  0.3160
  763MOL0     H 5236   8.534   7.677   1.142  2.4343 -1.8921  0.4814
  763MOL0     H 5237   8.259   7.667   1.004  1.3368 -4.1612  2.5778
  763MOL0     H 5238   8.263   7.715   1.177  0.5991 -0.7862  0.6269
  763MOL0     H 5239   8.415   7.889   1.119 -1.2155  1.6739  1.2068
  763MOL0     H 5240   8.249   7.909   1.045 -0.0254 -0.3398  1.1901
  763MOL0     H 5241   8.515   7.811   0.926 -0.6008  1.7736  2.5442
  763MOL0     H 5242   8.364   7.804   0.830  0.8390 -1.2967 -0.3909
  763MOL0     H 5243   8.612   8.083   0.965  3.1802 -0.4794 -3.2903
  763MOL0     H 5244   8.490   8.435   0.885  2.5646  1.9904  2.4426
  763MOL0     H 5245   8.623   8.374   0.808  1.8089  0.4235 -0.2202
  763MOL0     H 5246   8.704   8.288   1.027 -1.5321 -1.6087 -2.7696
  763MOL0     H 5247   8.642   8.457   1.050 -3.1576  0.7562 -3.2888
  763MOL0     H 5248   8.429   8.354   1.137 -0.6453 -1.8330 -2.7962
  763MOL0     H 5249   8.506   8.204   1.158 -0.6872  0.3234  1.3339
  763MOL0     H 5250   8.541   8.466   1.299 -1.1804 -1.7322  1.2109
  763MOL0     H 5251   8.536   8.318   1.370  0.3651  2.4459  0.1757
  763MOL0     H 5252   8.776   8.414   1.541 -0.3551  0.4857  0.9388
  763MOL0     H 5253   8.996   8.571   1.695  0.6647  1.5905 -0.7560
  763MOL0     H 5254   8.830   8.536   1.720 -0.6338 -1.4058 -0.7625
  763MOL0     H 5255   8.871   8.705   1.696 -0.8825 -0.2489  0.9925
  763MOL0     H 5256   9.088   9.074   1.386 -0.4218 -3.8018  1.7266
  763MOL0     H 5257   9.260   9.258   1.414  1.7206  1.4697 -1.4684
  763MOL0     H 5258   9.431   9.372   1.333 -1.6511  1.4788  2.1113
  763MOL0     H 5259   9.518   9.414   1.481  0.5998  0.7571 -0.1572
  763MOL0     H 5260   9.628   9.500   1.268 -0.1240  0.2368 -1.8453
  763MOL0     H 5261   9.734   9.390   1.345 -0.3076  0.3101  0.4220
  763MOL0     H 5262   9.550   9.314   1.116  0.3349 -1.2155 -1.2210
  763MOL0     H 5263   9.676   9.218   1.192  0.9510  0.1139  0.1502
  763MOL0     H 5264   9.733   9.492   1.063 -0.6738  0.9999 -3.5072
  763MOL0     H 5265   9.740   9.338   0.972  1.7984  1.7202 -0.8167
  763MOL0     H 5266   9.918   9.396   1.209  1.4840 -0.6455  0.2683
  763MOL0     H 5267   9.916   9.244   1.125  0.4688 -0.2125  0.0293
  763MOL0     H 5268  10.096   9.402   1.051 -0.2116  0.4676  3.9826
  763MOL0     H 5269   9.972   9.515   0.988 -1.6009 -0.5491 -0.5679
  763MOL0     H 5270   9.912   9.348   0.812 -0.3633  0.7636  0.9854
  763MOL0     H 5271  10.025   9.240   0.873 -0.6502  0.5040  0.1699
  763MOL0     H 5272  10.218   9.381   0.806  0.3486  0.7159  2.4059
  763MOL0     H 5273  10.116   9.524   0.802  1.3587  0.7897 -0.3570
  763MOL0     H 5274   9.572   8.964   1.392  0.1196 -1.0689  2.9802
  763MOL0     H 5275   9.402   8.789   1.362 -3.2464 -0.6622 -1.6405
  763MOL0     H 5276   8.981   8.723   1.215  1.1471  0.3009  0.5987
  763MOL0     H 5277   8.838   8.529   1.133 -0.3010 -1.5248  0.0075
  763MOL0     H 5278   8.712   7.323   1.680 -1.1687  1.0181 -0.2099
  763MOL0     H 5279   8.908   7.236   1.814  1.2978  0.6521 -1.2952
  763MOL0     H 5280   9.346   7.370   1.953 -1.4958  4.4420  1.1157
  763MOL0     H 5281   9.558   7.282   2.053 -1.6735 -0.9987 -1.6800
  763MOL0     H 5282   9.788   7.143   2.285 -0.2665 -0.5741  2.1317
  763MOL0     H 5283   9.715   7.201   2.139  0.1800  0.5009  0.4065
  763MOL0     H 5284   9.704   7.431   2.215  0.7306  0.4572  0.4563
  763MOL0     H 5285   9.865   7.365   2.250  0.6184  3.3238  1.0977
  763MOL0     H 5286   9.643   7.418   2.453 -0.1679 -1.7314 -1.7937
  763MOL0     H 5287   9.782   7.302   2.464  0.0280 -2.8149 -4.6952
  763MOL0     H 5288   9.775   7.568   2.543  3.3425  0.4215  1.7585
  763MOL0     H 5289   9.849   7.581   2.380  0.8449 -1.7062 -2.2501
  763MOL0     H 5290  10.148   7.429   2.630 -0.6539 -1.2995  0.5506
  763MOL0     H 5291   9.356   7.167   2.399 -0.7752  1.6554  0.5307
  763MOL0     H 5292   9.029   7.163   2.230 -1.1758  0.8356  1.2633
  763MOL0     H 5293   9.119   7.129   2.383  3.3589  0.4190 -0.6213
  763MOL0     H 5294   9.050   7.290   2.349 -2.6132 -1.0494  0.0475
  764MOL0     O 5295  11.359   7.503   3.729  0.3965 -0.2685 -0.6689
  764MOL0     C 5296  11.407   7.546   3.630  0.3937 -0.3594 -0.1798
  764MOL0     O 5297  11.514   7.474   3.561 -0.6115  0.0075 -0.0513
  764MOL0     C 5298  11.554   7.361   3.626 -0.4075 -0.8512 -0.2934
  764MOL0     C 5299  11.624   7.382   3.745 -0.0649  0.4926  0.4513
  764MOL0     C 5300  11.685   7.276   3.813  0.5276  0.7585  0.7784
  764MOL0     C 5301  11.674   7.143   3.772 -1.1840 -0.1529  0.8552
  764MOL0     O 5302  11.749   7.045   3.829  0.4290  0.3824 -0.3519
  764MOL0     C 5303  11.893   7.052   3.788  0.5524 -0.1873  0.1023
  764MOL0     C 5304  11.966   6.955   3.870  0.2615  0.0254 -0.0192
  764MOL0     C 5305  12.118   6.970   3.853 -0.9236  0.8417 -1.0523
  764MOL0     C 5306  12.188   6.858   3.929 -1.5313  0.0591  0.1209
  764MOL0     C 5307  12.337   6.844   3.910 -0.0742  0.0634 -0.2223
  764MOL0     C 5308  12.433   6.968   3.925 -0.2977  0.2436 -0.9616
  764MOL0     C 5309  12.567   6.944   3.868 -0.8825 -0.5417  0.8745
  764MOL0     C 5310  12.667   7.067   3.876 -0.2248  0.1636  1.3106
  764MOL0     N 5311  12.654   7.163   3.768 -0.0196 -0.5351  0.7196
  764MOL0     C 5312  12.682   7.294   3.783 -0.2507 -0.3193 -0.3131
  764MOL0     C 5313  12.630   7.360   3.677 -0.0277  0.5527  0.3548
  764MOL0     C 5314  12.604   7.510   3.658 -0.9284  0.5019 -1.0201
  764MOL0     C 5315  12.469   7.554   3.715  0.6566  0.3422 -0.0009
  764MOL0     C 5316  12.456   7.687   3.788  0.0876  0.1914 -0.4731
  764MOL0     C 5317  12.501   7.804   3.706 -0.1722 -0.0723 -0.4506
  764MOL0     O 5318  12.488   7.916   3.790  0.2833  0.5264 -0.0123
  764MOL0     C 5319  12.372   7.990   3.783  0.5972 -0.2075  0.0323
  764MOL0     C 5320  12.368   8.101   3.864 -0.1838  0.1947 -0.4854
  764MOL0     C 5321  12.261   8.196   3.856 -0.2864  1.0130 -0.1449
  764MOL0     C 5322  12.278   8.321   3.935 -0.7534 -0.2189 -0.1291
  764MOL0     C 5323  12.149   8.163   3.767 -1.2140 -0.5589 -0.1206
  764MOL0     C 5324  12.034   8.258   3.748 -0.2350 -0.1958  0.2241
  764MOL0     O 5325  11.921   8.209   3.686 -0.5854  0.5827 -0.2035
  764MOL0     C 5326  11.802   8.274   3.678 -0.8737  0.3369  0.4398
  764MOL0     C 5327  11.748   8.350   3.776  0.6285 -0.9337 -0.8255
  764MOL0     C 5328  11.632   8.423   3.764  0.6652  0.2405  0.5598
  764MOL0     C 5329  11.570   8.424   3.639 -0.4561 -0.8970  0.4648
  764MOL0     O 5330  11.450   8.495   3.627 -0.4341  0.1741 -0.5218
  764MOL0     C 5331  11.465   8.614   3.555 -0.5892 -0.5675 -0.4510
  764MOL0     C 5332  11.360   8.628   3.455 -0.0905 -0.2548  0.7435
  764MOL0     C 5333  11.219   8.619   3.519 -0.5218  0.4511 -0.2705
  764MOL0     C 5334  11.105   8.643   3.428  1.1040 -0.3436  0.7888
  764MOL0     C 5335  10.973   8.680   3.513  0.6648 -0.0536 -0.2482
  764MOL0     C 5336  10.850   8.686   3.424  0.4998  0.4702  0.2735
  764MOL0     C 5337  10.734   8.704   3.521  0.9987  1.4442 -0.1611
  764MOL0     C 5338  10.601   8.720   3.452  0.5791  0.0097  1.3893
  764MOL0    Cl 5339  10.469   8.727   3.585 -0.2096  0.3039  0.2423
  764MOL0     C 5340  11.612   8.342   3.536  0.5012  0.6201 -0.5497
  764MOL0     C 5341  11.723   8.253   3.564  0.6085 -0.3440  0.8818
  764MOL0     O 5342  12.051   8.380   3.773  0.0296  0.0632  0.8270
  764MOL0     C 5343  12.150   8.042   3.699 -0.0629 -0.3026  0.3968
  764MOL0     C 5344  12.264   7.957   3.703 -0.8000  0.0740  1.0048
  764MOL0     N 5345  12.586   7.260   3.587 -0.1986  0.0906  0.1281
  764MOL0     N 5346  12.601   7.150   3.642  0.1954  0.5520 -0.5652
  764MOL0     C 5347  11.585   7.122   3.662 -0.1676  0.2818  0.1616
  764MOL0     C 5348  11.531   7.228   3.597 -0.4083 -0.1013  0.1733
  764MOL0     C 5349  11.364   7.673   3.573  0.3398 -0.1531  0.6893
  764MOL0     C 5350  11.386   7.696   3.443 -0.2318  0.3845  0.2692
  764MOL0     C 5351  11.333   7.805   3.387  0.3793  0.1110  0.0044
  764MOL0     C 5352  11.255   7.906   3.455  0.2937  0.0782 -0.3180
  764MOL0     O 5353  11.221   8.023   3.383  0.4258  0.3268 -0.2095
  764MOL0     C 5354  11.124   8.122   3.432 -0.4947  0.0710 -0.1910
  764MOL0     C 5355  10.988   8.101   3.355 -0.5140  0.7014 -0.0452
  764MOL0     C 5356  10.876   8.192   3.380  0.3506 -1.0191 -0.1402
  764MOL0     C 5357  10.781   8.203   3.262  1.0875  0.4595 -0.2922
  764MOL0     C 5358  10.673   8.298   3.301 -0.0831  0.1874 -1.3437
  764MOL0     C 5359  10.589   8.377   3.341 -0.2964  0.1891 -0.1378
  764MOL0     C 5360  11.226   7.872   3.589  0.5271  0.4786  0.3002
  764MOL0     C 5361  11.279   7.756   3.653 -0.2639  0.9668  0.1350
  764MOL0     C 5362  11.215   7.718   3.785  0.3268 -0.0262  0.2012
  764MOL0     H 5363  11.636   7.481   3.788 -4.7502  1.1992  0.6149
  764MOL0     H 5364  11.734   7.299   3.907  0.9869 -0.1956  0.7835
  764MOL0     H 5365  11.936   7.152   3.799  3.1856 -1.4444  2.1020
  764MOL0     H 5366  11.896   7.014   3.685  0.6772 -3.1112  1.0917
  764MOL0     H 5367  11.941   6.965   3.976  0.0182 -3.0423  0.2974
  764MOL0     H 5368  11.940   6.853   3.841  0.8685 -1.0976  3.0054
  764MOL0     H 5369  12.145   6.963   3.747  0.6988  0.0681 -0.6136
  764MOL0     H 5370  12.153   7.064   3.896  2.1149 -1.0692  1.0326
  764MOL0     H 5371  12.179   6.867   4.038  2.3963  0.1957  0.5721
  764MOL0     H 5372  12.140   6.762   3.905 -0.6506 -0.2418 -0.4777
  764MOL0     H 5373  12.347   6.822   3.803  1.1188  3.0982 -0.8618
  764MOL0     H 5374  12.372   6.762   3.973  0.0344  1.1817  1.2168
  764MOL0     H 5375  12.392   7.049   3.866  2.7400  2.4123 -0.3125
  764MOL0     H 5376  12.452   7.006   4.026  1.2884  2.2404 -1.9560
  764MOL0     H 5377  12.549   6.916   3.764 -2.1850  1.9355  0.3576
  764MOL0     H 5378  12.611   6.858   3.920  3.4650  0.0530 -1.3991
  764MOL0     H 5379  12.657   7.126   3.968 -1.3074  1.4112  0.4155
  764MOL0     H 5380  12.766   7.020   3.869  0.6129  1.9859  0.2911
  764MOL0     H 5381  12.722   7.339   3.874  0.0428 -0.4348 -0.3829
  764MOL0     H 5382  12.624   7.526   3.552  1.0147 -0.2335 -0.7956
  764MOL0     H 5383  12.683   7.566   3.708  1.2479 -3.7929  0.8312
  764MOL0     H 5384  12.403   7.557   3.629 -0.8830  4.2834  1.1226
  764MOL0     H 5385  12.418   7.483   3.782 -0.2505 -0.2033 -1.2375
  764MOL0     H 5386  12.353   7.702   3.821 -1.0945 -1.4154 -3.1113
  764MOL0     H 5387  12.524   7.681   3.873 -2.9691  2.9952  2.4444
  764MOL0     H 5388  12.605   7.800   3.672 -0.1172  1.5227 -0.5564
  764MOL0     H 5389  12.457   7.807   3.606  2.2414  1.1175 -1.5408
  764MOL0     H 5390  12.451   8.120   3.931 -1.8083  0.1772  1.6440
  764MOL0     H 5391  12.368   8.313   3.997 -0.4649  0.2168 -0.4857
  764MOL0     H 5392  12.195   8.346   4.002 -0.0694  0.9074  0.3319
  764MOL0     H 5393  12.286   8.407   3.868 -1.6987 -0.2781 -0.3301
  764MOL0     H 5394  11.807   8.366   3.866 -0.1156  1.3863 -0.6719
  764MOL0     H 5395  11.584   8.476   3.845 -0.6339  2.3631 -1.4920
  764MOL0     H 5396  11.479   8.698   3.623  3.5296 -0.8782 -0.6730
  764MOL0     H 5397  11.558   8.614   3.499  0.3486 -1.0083  1.0326
  764MOL0     H 5398  11.377   8.723   3.405  1.4390  0.1603  1.9765
  764MOL0     H 5399  11.368   8.549   3.380 -2.2927 -2.1210  2.3154
  764MOL0     H 5400  11.217   8.691   3.601  3.9808  1.2655 -0.6026
  764MOL0     H 5401  11.217   8.521   3.568  1.4511  1.1097  1.2692
  764MOL0     H 5402  11.082   8.550   3.374 -0.2119 -0.5903  1.7161
  764MOL0     H 5403  11.129   8.716   3.351 -2.2363 -2.6978 -2.8701
  764MOL0     H 5404  10.967   8.612   3.598 -0.5977  0.5352  0.1452
  764MOL0     H 5405  10.990   8.778   3.558  0.4476  0.4473 -1.2238
  764MOL0     H 5406  10.839   8.593   3.367  0.5082  1.7156 -1.8841
  764MOL0     H 5407  10.851   8.775   3.360 -2.8449  1.4374  1.3519
  764MOL0     H 5408  10.751   8.786   3.591  0.5182  2.4242 -1.1726
  764MOL0     H 5409  10.736   8.610   3.578  0.8906  0.1564 -2.1988
  764MOL0     H 5410  10.574   8.645   3.376 -0.9133  2.1882 -0.3682
  764MOL0     H 5411  10.604   8.815   3.399  1.5712 -0.5866  0.3512
  764MOL0     H 5412  11.548   8.341   3.448 -2.6529  0.4294  1.5740
  764MOL0     H 5413  11.762   8.177   3.497  0.1492 -1.1558  1.5130
  764MOL0     H 5414  12.063   8.018   3.639 -0.5425 -1.1673  1.4185
  764MOL0     H 5415  12.264   7.860   3.654  0.6660 -0.6944  2.4220
  764MOL0     H 5416  11.569   7.017   3.639  0.6305  0.4819 -1.5471
  764MOL0     H 5417  11.458   7.217   3.518  0.8662  1.9690 -1.4026
  764MOL0     H 5418  11.418   7.609   3.387  0.2818 -0.4984  1.8784
  764MOL0     H 5419  11.360   7.823   3.283 -0.5301  0.7887 -0.1257
  764MOL0     H 5420  11.103   8.123   3.539  0.5369 -0.1240  0.0199
  764MOL0     H 5421  11.153   8.224   3.405  2.8875 -0.8283 -0.3732
  764MOL0     H 5422  10.952   7.999   3.371 -0.3753  0.0783 -3.0750
  764MOL0     H 5423  11.012   8.107   3.249  1.5190  1.1726  0.3994
  764MOL0     H 5424  10.813   8.158   3.463 -0.5669  0.3298 -0.2458
  764MOL0     H 5425  10.919   8.290   3.400 -0.9716 -0.6515  1.0627
  764MOL0     H 5426  10.744   8.102   3.241  1.4367  0.7771 -2.7768
  764MOL0     H 5427  10.838   8.245   3.178  1.7769  0.9758  0.4203
  764MOL0     H 5428  10.514   8.453   3.351  3.0678  3.5801  1.8004
  764MOL0     H 5429  11.164   7.947   3.637  0.6095 -0.1811  1.4715
  764MOL0     H 5430  11.290   7.679   3.855  0.0147 -2.9165 -0.9517
  764MOL0     H 5431  11.182   7.803   3.846 -3.4112  2.4459 -4.6001
  764MOL0     H 5432  11.132   7.647   3.779 -0.6048  1.1347 -1.0609
  765MOL0     O 5433   0.760   5.952   1.808  0.8405  0.0476  0.6929
  765MOL0     C 5434   0.826   5.966   1.906  0.2596  0.7739  0.3596
  765MOL0     O 5435   0.928   5.879   1.949  0.1372  0.0014 -0.4889
  765MOL0     C 5436   1.004   5.833   1.850 -0.8815 -0.1794  0.1056
  765MOL0     C 5437   0.999   5.709   1.789  0.1436 -0.0039  0.5872
  765MOL0     C 5438   1.083   5.670   1.687 -0.7281 -0.0351  0.2007
  765MOL0     C 5439   1.180   5.754   1.633 -0.1151 -0.5000 -0.0505
  765MOL0     O 5440   1.281   5.712   1.541  1.0529  0.1535 -0.3593
  765MOL0     C 5441   1.284   5.792   1.427 -0.2620  0.3771 -0.1885
  765MOL0     C 5442   1.387   5.730   1.331  0.1046 -0.2773  0.5771
  765MOL0     C 5443   1.530   5.733   1.388  0.8833  0.0257  0.2456
  765MOL0     C 5444   1.586   5.874   1.384 -0.4124 -0.5460  0.0274
  765MOL0     C 5445   1.727   5.889   1.430  0.3438  0.5616 -0.3029
  765MOL0     C 5446   1.829   5.809   1.345  0.7932 -0.4392 -0.2755
  765MOL0     C 5447   1.969   5.874   1.354 -0.4326  0.7928  0.4241
  765MOL0     C 5448   2.009   5.965   1.244  0.1958 -0.8564  0.9882
  765MOL0     N 5449   2.135   6.035   1.256  0.6211  1.0328 -0.6174
  765MOL0     C 5450   2.160   6.148   1.331 -1.0073  0.6223 -0.8080
  765MOL0     C 5451   2.286   6.183   1.288 -0.8044 -0.3283 -0.2913
  765MOL0     C 5452   2.363   6.308   1.334 -0.0155 -0.3953  0.5444
  765MOL0     C 5453   2.454   6.293   1.445  0.7948  0.2006 -0.5851
  765MOL0     C 5454   2.520   6.420   1.491 -0.0740 -0.1278  0.2087
  765MOL0     C 5455   2.425   6.531   1.523  0.6621  0.2600  0.6500
  765MOL0     O 5456   2.325   6.485   1.612 -0.2698  0.0818 -0.3134
  765MOL0     C 5457   2.243   6.585   1.650  0.4986 -0.4658 -0.2699
  765MOL0     C 5458   2.294   6.680   1.736  0.0206 -0.6228 -0.8487
  765MOL0     C 5459   2.211   6.787   1.780  0.0988  0.5431  0.4064
  765MOL0     C 5460   2.288   6.905   1.853  0.0131  1.1215 -0.1277
  765MOL0     C 5461   2.074   6.799   1.738 -1.1824 -1.6447  0.1412
  765MOL0     C 5462   1.979   6.907   1.788 -0.1026 -0.4516  0.5142
  765MOL0     O 5463   2.028   7.031   1.831  0.2113  0.9425  0.1869
  765MOL0     C 5464   1.941   7.114   1.898 -0.1882  0.4885  0.1736
  765MOL0     C 5465   1.869   7.218   1.838 -0.5288  1.0159 -0.5230
  765MOL0     C 5466   1.787   7.310   1.912  0.5440 -0.1002  0.3045
  765MOL0     C 5467   1.791   7.306   2.046 -0.3420 -0.1727  0.0090
  765MOL0     O 5468   1.737   7.399   2.126  0.1942 -0.4560  0.3059
  765MOL0     C 5469   1.682   7.514   2.064  0.0146 -0.5446  0.5608
  765MOL0     C 5470   1.666   7.633   2.157  0.5486  0.0453  0.0842
  765MOL0     C 5471   1.814   7.685   2.196  0.2191  0.1779 -0.3857
  765MOL0     C 5472   1.793   7.801   2.297 -0.0759  0.3315  0.0809
  765MOL0     C 5473   1.926   7.824   2.376 -0.3558 -0.1691 -0.1549
  765MOL0     C 5474   1.941   7.964   2.447  1.0565 -0.5702  0.4037
  765MOL0     C 5475   2.064   7.977   2.528  0.1269  0.7675 -0.5184
  765MOL0     C 5476   2.084   7.877   2.632 -0.0227  0.5771  0.4727
  765MOL0    Cl 5477   2.213   7.934   2.741 -0.2535  0.0774  0.3208
  765MOL0     C 5478   1.861   7.195   2.103 -0.0753 -0.0163 -0.0395
  765MOL0     C 5479   1.930   7.101   2.036  0.3559  0.3089 -0.1378
  765MOL0     O 5480   1.859   6.879   1.768  0.6942  0.5662  0.8004
  765MOL0     C 5481   2.028   6.694   1.662  0.0826 -0.4571  0.6316
  765MOL0     C 5482   2.116   6.594   1.611  0.6694 -0.7831  0.2412
  765MOL0     N 5483   2.337   6.090   1.203 -0.3355  0.0424  1.3515
  765MOL0     N 5484   2.241   6.001   1.181  0.5716 -0.0139 -0.5888
  765MOL0     C 5485   1.194   5.879   1.696  0.1209 -0.7169 -0.2840
  765MOL0     C 5486   1.111   5.921   1.803 -0.3267 -0.0217  0.8218
  765MOL0     C 5487   0.795   6.078   1.998 -1.0814 -0.4615  0.5498
  765MOL0     C 5488   0.849   6.079   2.130 -0.0608 -0.5875 -0.1306
  765MOL0     C 5489   0.827   6.192   2.209  0.2309  0.2749 -0.8552
  765MOL0     C 5490   0.758   6.302   2.161 -0.3804  0.4724  0.2904
  765MOL0     O 5491   0.748   6.403   2.247  0.3297  0.0165  0.1336
  765MOL0     C 5492   0.859   6.492   2.240  0.3159  0.3155 -0.5646
  765MOL0     C 5493   0.834   6.596   2.348  0.0996 -0.1540  0.4397
  765MOL0     C 5494   0.814   6.527   2.486 -0.4815 -0.6276  0.1303
  765MOL0     C 5495   0.680   6.559   2.551 -0.1256 -0.7244 -0.1304
  765MOL0     C 5496   0.558   6.530   2.469  0.5222 -0.0592 -0.0008
  765MOL0     C 5497   0.457   6.507   2.415  0.0894  0.4073 -0.4140
  765MOL0     C 5498   0.707   6.305   2.034  0.1439 -0.2892  0.5133
  765MOL0     C 5499   0.723   6.194   1.953 -0.3094 -0.8134  0.0197
  765MOL0     C 5500   0.658   6.206   1.823 -0.2464 -0.7552  0.4962
  765MOL0     H 5501   0.937   5.630   1.828 -0.3785 -0.4312 -1.0173
  765MOL0     H 5502   1.087   5.571   1.644  1.9080  0.7214 -1.5497
  765MOL0     H 5503   1.299   5.900   1.443 -1.9739  0.8898 -1.7246
  765MOL0     H 5504   1.184   5.806   1.385 -0.5397  1.2256  0.6957
  765MOL0     H 5505   1.358   5.628   1.305 -1.9810  0.7441 -1.5116
  765MOL0     H 5506   1.374   5.785   1.237 -0.3519 -2.6513 -0.8542
  765MOL0     H 5507   1.536   5.675   1.480 -0.8054  1.1350  1.1084
  765MOL0     H 5508   1.604   5.695   1.317 -0.7981  0.4450 -1.8163
  765MOL0     H 5509   1.583   5.900   1.277 -0.6873 -1.2348 -0.1398
  765MOL0     H 5510   1.525   5.939   1.448  1.9161 -0.5309  2.3916
  765MOL0     H 5511   1.748   5.877   1.537  1.3751  2.6010 -0.2069
  765MOL0     H 5512   1.747   5.995   1.411  2.4382  0.4388  0.8486
  765MOL0     H 5513   1.849   5.716   1.399  1.6130  0.6700  1.3967
  765MOL0     H 5514   1.796   5.795   1.241  1.7471  1.5032 -0.8762
  765MOL0     H 5515   2.037   5.790   1.341  0.5794  1.6879 -0.2658
  765MOL0     H 5516   1.994   5.920   1.451  2.9582 -0.9663  0.5497
  765MOL0     H 5517   2.015   5.907   1.151  0.8354  1.3877 -0.4697
  765MOL0     H 5518   1.931   6.041   1.241  1.1564  0.7356  6.2204
  765MOL0     H 5519   2.099   6.200   1.403 -0.4768  0.4394 -0.2228
  765MOL0     H 5520   2.289   6.388   1.348  2.1762  2.0020 -0.7580
  765MOL0     H 5521   2.416   6.341   1.245 -2.3369  3.2719  0.3047
  765MOL0     H 5522   2.402   6.242   1.527  2.0241 -1.3092 -0.7032
  765MOL0     H 5523   2.537   6.231   1.409  1.8884  1.1542  0.2435
  765MOL0     H 5524   2.566   6.396   1.587  1.1184 -0.4792 -0.4317
  765MOL0     H 5525   2.606   6.441   1.428  0.4840 -3.6281 -0.3795
  765MOL0     H 5526   2.477   6.618   1.565  0.1960 -0.2895  2.4769
  765MOL0     H 5527   2.376   6.558   1.429 -1.0998 -2.0848  0.7935
  765MOL0     H 5528   2.395   6.671   1.775 -0.7238  1.1153  1.7801
  765MOL0     H 5529   2.395   6.884   1.853 -0.0186  0.8524  1.1306
  765MOL0     H 5530   2.267   6.895   1.960  1.3741  0.6214  0.1043
  765MOL0     H 5531   2.271   7.008   1.820  1.3176  0.9953 -1.2393
  765MOL0     H 5532   1.873   7.240   1.732  0.7262  4.6955  0.1490
  765MOL0     H 5533   1.736   7.389   1.858 -2.1375 -0.8634  1.5365
  765MOL0     H 5534   1.739   7.549   1.977  0.1428 -2.2277 -0.0808
  765MOL0     H 5535   1.584   7.488   2.023 -0.1109 -1.0376  1.1645
  765MOL0     H 5536   1.614   7.715   2.106 -2.2080 -1.5487  0.0873
  765MOL0     H 5537   1.605   7.609   2.244  2.6621 -4.2681  0.6385
  765MOL0     H 5538   1.862   7.706   2.099  0.1924 -0.0608 -0.4518
  765MOL0     H 5539   1.867   7.605   2.249  1.0353 -1.2405 -3.1173
  765MOL0     H 5540   1.713   7.764   2.362 -1.5737 -1.0748 -2.4122
  765MOL0     H 5541   1.748   7.881   2.238 -3.9593 -0.8237  1.1934
  765MOL0     H 5542   1.936   7.744   2.449 -1.7502  1.5412  2.0233
  765MOL0     H 5543   2.008   7.810   2.305 -0.1290  1.4411 -0.2451
  765MOL0     H 5544   1.862   7.968   2.523 -0.9390 -0.3652 -1.5637
  765MOL0     H 5545   1.934   8.047   2.376 -0.5709 -1.1612 -0.1874
  765MOL0     H 5546   2.054   8.073   2.579 -4.5413  0.5413 -0.6257
  765MOL0     H 5547   2.153   7.966   2.466  0.7664 -1.9365  0.7124
  765MOL0     H 5548   2.110   7.774   2.604 -1.5048  0.2308  0.2897
  765MOL0     H 5549   1.996   7.863   2.695 -0.1783 -1.0052 -0.0585
  765MOL0     H 5550   1.862   7.195   2.211 -0.2122  1.4440 -0.0195
  765MOL0     H 5551   1.987   7.025   2.088  0.3531  0.3522 -0.0725
  765MOL0     H 5552   1.926   6.688   1.625  0.5027 -0.2313 -0.6020
  765MOL0     H 5553   2.065   6.526   1.544  1.9169 -2.1228  0.5972
  765MOL0     H 5554   1.265   5.954   1.665  0.0897 -0.6923 -0.2957
  765MOL0     H 5555   1.144   6.010   1.855 -0.1978 -1.4854  3.4142
  765MOL0     H 5556   0.908   5.993   2.159  0.3605 -1.8445 -4.1268
  765MOL0     H 5557   0.873   6.187   2.308  1.9608  2.0114 -1.5089
  765MOL0     H 5558   0.951   6.438   2.267  1.2333  2.3345  0.5657
  765MOL0     H 5559   0.859   6.530   2.137  3.1251 -1.9048 -1.5450
  765MOL0     H 5560   0.752   6.657   2.308  1.4626  0.0914 -2.2180
  765MOL0     H 5561   0.926   6.654   2.358  0.6406 -1.0656  0.8962
  765MOL0     H 5562   0.831   6.419   2.482  2.6919 -0.4548  3.2571
  765MOL0     H 5563   0.895   6.561   2.551 -1.0939  0.3059  0.4371
  765MOL0     H 5564   0.675   6.661   2.590  0.8522 -0.7202 -0.0016
  765MOL0     H 5565   0.676   6.484   2.631  2.1866 -1.7678 -0.9152
  765MOL0     H 5566   0.363   6.491   2.368  0.0622 -0.4384 -0.0902
  765MOL0     H 5567   0.654   6.392   1.997 -1.6242 -2.3093 -2.0857
  765MOL0     H 5568   0.570   6.141   1.815 -0.2986 -1.0113  2.4747
  765MOL0     H 5569   0.634   6.305   1.785 -1.4924 -0.7241  1.3057
  765MOL0     H 5570   0.730   6.171   1.749 -1.8900  1.2738 -2.2433
  766MOL0     O 5571   6.205   7.013  10.422  0.2415 -0.6296  0.4442
  766MOL0     C 5572   6.090   7.026  10.390  0.1362  0.3219 -0.1508
  766MOL0     O 5573   6.001   6.924  10.383 -0.3161  0.2928 -0.3660
  766MOL0     C 5574   6.047   6.793  10.367  0.4509  0.3184 -0.0792
  766MOL0     C 5575   6.119   6.736  10.470 -0.0394  0.2047 -0.4237
  766MOL0     C 5576   6.153   6.601  10.477  0.0217 -0.5771  0.8321
  766MOL0     C 5577   6.120   6.520  10.369 -0.1610  0.0640  0.4453
  766MOL0     O 5578   6.158   6.390  10.369  0.4479  0.9259  0.1294
  766MOL0     C 5579   6.295   6.363  10.376 -1.1654 -0.0107 -0.4796
  766MOL0     C 5580   6.343   6.255  10.290 -0.2220 -0.6757 -0.2554
  766MOL0     C 5581   6.497   6.227  10.287 -0.7443 -0.1962  0.1461
  766MOL0     C 5582   6.547   6.159  10.424 -0.1109  0.0651  0.3719
  766MOL0     C 5583   6.689   6.113  10.427 -0.1772 -0.4307 -0.4577
  766MOL0     C 5584   6.786   6.236  10.451 -0.9163  0.1299  0.3810
  766MOL0     C 5585   6.931   6.202  10.432 -0.3707  0.2123 -0.7958
  766MOL0     C 5586   6.991   6.104  10.535  0.1476  0.4487 -0.9298
  766MOL0     N 5587   7.131   6.076  10.519  0.3564  0.2648  0.4414
  766MOL0     C 5588   7.195   5.959  10.560  1.1666  0.1817 -0.3448
  766MOL0     C 5589   7.327   5.978  10.540  0.3051  0.1073  0.7489
  766MOL0     C 5590   7.437   5.877  10.547  0.2108  0.4289  0.5761
  766MOL0     C 5591   7.446   5.851  10.694  0.0032  0.2697  0.1994
  766MOL0     C 5592   7.542   5.740  10.715 -0.6898  0.6361  0.5412
  766MOL0     C 5593   7.551   5.687  10.859  0.1593  0.5560 -0.4149
  766MOL0     O 5594   7.658   5.592  10.891 -0.2288 -0.0010  0.0911
  766MOL0     C 5595   7.639   5.455  10.894  0.2669  0.6180  0.1260
  766MOL0     C 5596   7.722   5.373  10.816  0.3742  0.1983  0.6018
  766MOL0     C 5597   7.704   5.233  10.798  0.6031  0.2421  0.5699
  766MOL0     C 5598   7.792   5.176  10.699  0.4459  0.1396 -0.1673
  766MOL0     C 5599   7.611   5.172  10.885  1.5081 -0.4003  0.0149
  766MOL0     C 5600   7.593   5.034  10.887  0.6166  1.3041  0.5041
  766MOL0     O 5601   7.506   4.995  10.985  0.6989  0.4516  0.1778
  766MOL0     C 5602   7.444   4.877  10.980  0.1706  0.6680  0.4443
  766MOL0     C 5603   7.316   4.871  11.048 -0.1394  0.3065  0.3664
  766MOL0     C 5604   7.242   4.746  11.060 -0.2685  0.1678  0.0399
  766MOL0     C 5605   7.286   4.635  10.994 -0.0931  0.5988 -0.3642
  766MOL0     O 5606   7.214   4.519  10.991 -0.0285  0.3579 -0.4030
  766MOL0     C 5607   7.094   4.487  11.064  1.0533 -0.0824  0.2484
  766MOL0     C 5608   7.037   4.355  11.008 -0.2527  0.8539  0.0062
  766MOL0     C 5609   6.877   4.344  11.050  0.1567  0.8379 -0.2622
  766MOL0     C 5610   6.804   4.227  10.977  0.1146  0.2007  0.5154
  766MOL0     C 5611   6.682   4.178  11.064 -0.4263  0.0317  1.0238
  766MOL0     C 5612   6.738   4.106  11.174  0.1936  1.1206  0.5879
  766MOL0     C 5613   6.602   4.068  11.245  0.4004 -0.6837  0.4259
  766MOL0     C 5614   6.540   3.933  11.199 -0.5768 -0.8119 -0.8963
  766MOL0    Cl 5615   6.386   3.932  11.302 -0.2617  0.1866 -0.0397
  766MOL0     C 5616   7.410   4.634  10.936  0.0079 -0.0274 -0.3436
  766MOL0     C 5617   7.491   4.752  10.934  0.0417 -0.2837  0.2600
  766MOL0     O 5618   7.686   4.964  10.836  0.5505  0.4410 -0.5947
  766MOL0     C 5619   7.527   5.254  10.970 -1.0673  0.4686 -1.0133
  766MOL0     C 5620   7.538   5.393  10.963  0.1889 -0.4065  0.2466
  766MOL0     N 5621   7.345   6.113  10.505  0.0604 -0.8057  0.6145
  766MOL0     N 5622   7.229   6.169  10.497  0.0542  0.3138 -0.0220
  766MOL0     C 5623   6.052   6.567  10.257  0.1789 -1.3617 -0.7234
  766MOL0     C 5624   6.020   6.706  10.259  1.4690  0.4572 -1.6595
  766MOL0     C 5625   6.049   7.162  10.359  0.1013  0.4076 -0.3962
  766MOL0     C 5626   6.095   7.262  10.455  0.5880  0.7638  0.5536
  766MOL0     C 5627   6.042   7.396  10.450 -0.1476  0.6295 -0.3618
  766MOL0     C 5628   5.949   7.435  10.365  0.3358  0.1872  0.6918
  766MOL0     O 5629   5.886   7.555  10.368  0.0531 -0.7801 -0.9344
  766MOL0     C 5630   5.942   7.663  10.438 -0.5601  0.7754 -0.5246
  766MOL0     C 5631   6.075   7.710  10.374  1.1523  0.2435  0.4147
  766MOL0     C 5632   6.039   7.756  10.229  0.4468 -1.0300 -0.4107
  766MOL0     C 5633   6.154   7.823  10.150 -0.2279  0.0633  0.0710
  766MOL0     C 5634   6.228   7.926  10.220 -0.3233 -0.3088 -0.8102
  766MOL0     C 5635   6.302   8.012  10.265  0.0710  0.3154  0.1491
  766MOL0     C 5636   5.905   7.338  10.264 -0.6912 -0.5979 -0.3678
  766MOL0     C 5637   5.956   7.200  10.263 -0.2636  0.2648  0.7978
  766MOL0     C 5638   5.901   7.103  10.152 -0.1020  0.7706  0.0946
  766MOL0     H 5639   6.143   6.806  10.549  3.5494 -2.5762  1.2254
  766MOL0     H 5640   6.217   6.572  10.560  1.3781  0.6899  0.2784
  766MOL0     H 5641   6.308   6.332  10.480  0.4170 -0.0189 -0.6596
  766MOL0     H 5642   6.353   6.452  10.352 -1.7176  0.1857 -1.1220
  766MOL0     H 5643   6.296   6.165  10.330  0.0625 -1.3074 -1.2887
  766MOL0     H 5644   6.292   6.265  10.193 -0.2431  1.9854 -0.0403
  766MOL0     H 5645   6.514   6.154  10.207 -2.0016  1.1945 -1.4532
  766MOL0     H 5646   6.560   6.314  10.266  1.5032 -1.3206  1.8455
  766MOL0     H 5647   6.520   6.230  10.503 -1.9931  3.7976 -3.2610
  766MOL0     H 5648   6.496   6.063  10.434  1.8638 -1.1315 -0.4737
  766MOL0     H 5649   6.716   6.066  10.333  2.6442 -0.9699  0.5354
  766MOL0     H 5650   6.709   6.040  10.506 -0.1291 -1.3161 -1.2809
  766MOL0     H 5651   6.753   6.322  10.390 -2.5116  2.2086  3.8819
  766MOL0     H 5652   6.768   6.273  10.552  0.0233  1.9827 -0.0679
  766MOL0     H 5653   6.987   6.296  10.437  1.4650 -0.8157 -1.0808
  766MOL0     H 5654   6.958   6.144  10.343 -0.4168 -1.4293  0.2069
  766MOL0     H 5655   6.973   6.155  10.630  0.4768  0.8351 -1.0727
  766MOL0     H 5656   6.933   6.011  10.542  0.6425  0.2536  1.4881
  766MOL0     H 5657   7.132   5.874  10.584 -0.0772  1.6983  2.2108
  766MOL0     H 5658   7.534   5.915  10.514  1.7942 -0.6635  3.6223
  766MOL0     H 5659   7.421   5.786  10.487  0.6273  1.3821 -1.0604
  766MOL0     H 5660   7.478   5.944  10.740 -0.0900 -0.1601  1.1465
  766MOL0     H 5661   7.354   5.820  10.745  1.4365  0.2600  2.9382
  766MOL0     H 5662   7.519   5.657  10.649  1.1906  4.4515 -5.7361
  766MOL0     H 5663   7.644   5.770  10.688  0.3040 -1.5921  1.5919
  766MOL0     H 5664   7.554   5.775  10.923  0.2725 -0.4338  0.9824
  766MOL0     H 5665   7.458   5.634  10.882 -0.7900  1.5402 -1.7921
  766MOL0     H 5666   7.791   5.439  10.764  2.1716 -0.0925  2.4759
  766MOL0     H 5667   7.836   5.250  10.631 -0.9512  1.2120  0.0703
  766MOL0     H 5668   7.739   5.108  10.631 -0.8347  0.6349  0.3110
  766MOL0     H 5669   7.872   5.124  10.752  0.7041  2.5350  1.9801
  766MOL0     H 5670   7.285   4.951  11.115 -0.4567  1.4753 -1.1419
  766MOL0     H 5671   7.150   4.750  11.117 -0.5078 -0.9747 -0.2482
  766MOL0     H 5672   7.100   4.494  11.173 -2.5232 -3.2681  0.8575
  766MOL0     H 5673   7.027   4.573  11.055  3.5057  1.8562 -0.5875
  766MOL0     H 5674   7.043   4.348  10.899  0.7768 -3.5650  0.1463
  766MOL0     H 5675   7.079   4.261  11.045  0.6760 -0.0307 -3.0233
  766MOL0     H 5676   6.823   4.437  11.027  0.3083  1.3729  1.3639
  766MOL0     H 5677   6.855   4.348  11.157 -2.4439  2.8956 -0.7741
  766MOL0     H 5678   6.870   4.141  10.961  0.0738  0.3385 -0.4926
  766MOL0     H 5679   6.765   4.258  10.880  0.6469  3.1370  1.1533
  766MOL0     H 5680   6.619   4.259  11.101  0.2420  1.1000 -0.0910
  766MOL0     H 5681   6.626   4.103  11.008  0.1938  0.0459  0.3620
  766MOL0     H 5682   6.802   4.170  11.236 -0.4242  0.9794  1.3984
  766MOL0     H 5683   6.805   4.027  11.140  0.3155  1.0392  1.0022
  766MOL0     H 5684   6.525   4.145  11.231  1.3645 -0.0221 -1.6547
  766MOL0     H 5685   6.626   4.062  11.351 -1.0176 -4.3247  0.6981
  766MOL0     H 5686   6.604   3.853  11.236  0.5338  0.8359  0.9248
  766MOL0     H 5687   6.518   3.935  11.092 -3.0750  0.2330 -0.4458
  766MOL0     H 5688   7.445   4.542  10.891 -1.3313  0.3848 -2.3704
  766MOL0     H 5689   7.581   4.740  10.874  0.1704 -1.9148  0.7447
  766MOL0     H 5690   7.457   5.218  11.044 -0.5674  3.2263  0.9468
  766MOL0     H 5691   7.489   5.467  11.027  1.6514  0.9995 -0.2169
  766MOL0     H 5692   6.028   6.500  10.174  0.5670 -0.6440 -1.4253
  766MOL0     H 5693   5.949   6.743  10.185  1.3262  2.0616 -0.7662
  766MOL0     H 5694   6.157   7.239  10.541 -1.5284 -0.5916  1.8351
  766MOL0     H 5695   6.079   7.457  10.531 -0.2690  0.2321 -0.0070
  766MOL0     H 5696   5.857   7.731  10.427 -2.5632 -1.8688 -2.7578
  766MOL0     H 5697   5.963   7.647  10.544  1.9173 -2.1920 -1.3114
  766MOL0     H 5698   6.140   7.622  10.370 -2.3138 -2.5274  0.2314
  766MOL0     H 5699   6.125   7.792  10.428  1.4824 -0.3813  1.0754
  766MOL0     H 5700   6.002   7.668  10.176 -2.5866 -0.7783  1.0836
  766MOL0     H 5701   5.958   7.830  10.233 -1.2472 -2.8159 -0.3279
  766MOL0     H 5702   6.113   7.870  10.061  2.7780  2.0609 -0.3941
  766MOL0     H 5703   6.224   7.745  10.117 -1.0929 -1.0542  0.7673
  766MOL0     H 5704   6.369   8.091  10.293 -0.8605  0.7607  1.2329
  766MOL0     H 5705   5.838   7.381  10.190  1.7268 -1.0434 -2.9631
  766MOL0     H 5706   5.980   7.032  10.128  1.8917  2.4968  1.1717
  766MOL0     H 5707   5.820   7.044  10.196 -0.3707 -0.0964 -1.5029
  766MOL0     H 5708   5.864   7.151  10.061 -2.2619 -0.6051  0.1699
  767MOL0     O 5709   2.083   0.524   4.679  0.4321 -0.2531 -0.0421
  767MOL0     C 5710   2.076   0.414   4.625  0.0855 -0.4969 -0.3345
  767MOL0     O 5711   2.070   0.288   4.690  0.1541  0.1291 -0.1092
  767MOL0     C 5712   2.080   0.271   4.827  0.0681  0.0065  0.5424
  767MOL0     C 5713   2.047   0.147   4.881 -0.8208 -0.3176 -0.4512
  767MOL0     C 5714   2.053   0.130   5.021 -0.2355 -1.2919  0.4074
  767MOL0     C 5715   2.105   0.226   5.104  0.3513  0.5449 -0.8143
  767MOL0     O 5716   2.119   0.181   5.231  0.8942 -0.6738  0.4570
  767MOL0     C 5717   2.221   0.232   5.316  1.1481  0.0387 -0.1645
  767MOL0     C 5718   2.215   0.156   5.449 -0.3398 -1.0301  0.2426
  767MOL0     C 5719   2.249   0.005   5.430 -0.3881 -0.3308  0.1163
  767MOL0     C 5720   2.269  -0.053   5.571  0.6814 -0.5781 -0.2398
  767MOL0     C 5721   2.284  -0.210   5.580  0.1399 -0.5707 -0.5879
  767MOL0     C 5722   2.429  -0.262   5.603 -0.4826  0.5981 -0.2405
  767MOL0     C 5723   2.529  -0.235   5.490 -0.7333 -0.7458 -0.4082
  767MOL0     C 5724   2.666  -0.307   5.531  0.0378 -0.5642  0.0631
  767MOL0     N 5725   2.739  -0.242   5.642 -0.8623  1.5326  0.2815
  767MOL0     C 5726   2.760  -0.104   5.656 -0.9365 -0.4271 -0.1229
  767MOL0     C 5727   2.771  -0.081   5.792  0.5054  0.1667  0.2268
  767MOL0     C 5728   2.782   0.054   5.861 -0.8903  0.3862 -1.3249
  767MOL0     C 5729   2.649   0.083   5.936 -0.4768  1.2454  0.2042
  767MOL0     C 5730   2.636   0.224   5.988 -0.6813  0.0437 -0.7281
  767MOL0     C 5731   2.663   0.329   5.880  0.4406 -0.3317  0.4100
  767MOL0     O 5732   2.610   0.449   5.939 -0.0272 -0.3130  0.1454
  767MOL0     C 5733   2.635   0.564   5.870 -0.2254  0.3276 -0.4231
  767MOL0     C 5734   2.705   0.578   5.744  0.2610  0.1627  0.6672
  767MOL0     C 5735   2.726   0.698   5.677  0.5846 -0.1937  2.0395
  767MOL0     C 5736   2.793   0.700   5.542  0.3187 -0.1715  0.1928
  767MOL0     C 5737   2.687   0.817   5.740  0.9913 -0.7375  0.6917
  767MOL0     C 5738   2.695   0.944   5.663  0.9116  0.5647 -0.8198
  767MOL0     O 5739   2.680   1.050   5.751 -0.6000  0.5387  0.4241
  767MOL0     C 5740   2.648   1.181   5.707 -0.0596 -0.0686  1.0695
  767MOL0     C 5741   2.709   1.286   5.778 -1.2527 -0.9523  0.2035
  767MOL0     C 5742   2.701   1.423   5.726 -0.0769 -0.0971  0.2458
  767MOL0     C 5743   2.622   1.446   5.612  0.5181 -1.3078  0.4985
  767MOL0     O 5744   2.622   1.580   5.572 -1.0090  0.0475 -0.2352
  767MOL0     C 5745   2.591   1.617   5.440 -0.2775  0.3735  0.2980
  767MOL0     C 5746   2.709   1.590   5.342 -0.2094  0.4512 -0.6364
  767MOL0     C 5747   2.837   1.663   5.379  0.4106 -0.8299  0.0092
  767MOL0     C 5748   2.923   1.657   5.259  0.3533  0.1914  0.0998
  767MOL0     C 5749   3.043   1.748   5.277  1.1003 -0.0897  0.0829
  767MOL0     C 5750   3.013   1.889   5.234  0.1682 -0.7559 -0.1486
  767MOL0     C 5751   3.141   1.962   5.211 -0.0042 -0.0455  0.4876
  767MOL0     C 5752   3.115   2.095   5.140 -0.3216  1.1934  0.5725
  767MOL0    Cl 5753   3.035   2.060   4.972 -0.3276 -0.1260 -0.2630
  767MOL0     C 5754   2.551   1.337   5.546 -0.1458 -0.2323 -0.2028
  767MOL0     C 5755   2.572   1.204   5.592  0.6274  0.0812  0.8897
  767MOL0     O 5756   2.715   0.949   5.542  0.7528  0.1006  0.0131
  767MOL0     C 5757   2.629   0.808   5.865  0.3117  0.1756  0.5750
  767MOL0     C 5758   2.597   0.684   5.926 -0.0889  0.1029 -0.3629
  767MOL0     N 5759   2.781  -0.206   5.851  0.4983  0.1751  0.2384
  767MOL0     N 5760   2.745  -0.304   5.765  0.2227  0.0631 -0.5333
  767MOL0     C 5761   2.149   0.341   5.049  0.1386  0.4145 -0.0183
  767MOL0     C 5762   2.130   0.371   4.916  0.6043 -0.2510  1.0945
  767MOL0     C 5763   2.070   0.413   4.481 -0.7727 -0.2101  0.5912
  767MOL0     C 5764   2.174   0.482   4.412  0.1754  1.2337 -0.0971
  767MOL0     C 5765   2.180   0.491   4.273 -0.2567 -0.6839  0.2637
  767MOL0     C 5766   2.078   0.428   4.201  0.0624  1.3099 -0.0720
  767MOL0     O 5767   2.071   0.417   4.061 -0.1075 -0.5345 -0.4143
  767MOL0     C 5768   2.173   0.457   3.967  0.1761 -0.2430  0.3036
  767MOL0     C 5769   2.242   0.324   3.914  0.0195 -0.4476  0.0142
  767MOL0     C 5770   2.348   0.370   3.807 -0.2498 -1.0123 -0.9171
  767MOL0     C 5771   2.429   0.250   3.752  0.6074 -0.7158  0.2018
  767MOL0     C 5772   2.511   0.183   3.850 -0.6778 -0.1364  0.5258
  767MOL0     C 5773   2.596   0.143   3.928 -0.4746  0.2500  0.3127
  767MOL0     C 5774   1.982   0.353   4.272  0.0342 -0.8999  0.3535
  767MOL0     C 5775   1.972   0.345   4.407  0.3118  0.2863  0.8302
  767MOL0     C 5776   1.865   0.252   4.446 -0.4835  0.6407  0.1109
  767MOL0     H 5777   2.014   0.062   4.822 -0.3454 -0.6000 -0.3112
  767MOL0     H 5778   2.025   0.029   5.049  1.4856 -2.7449 -2.6355
  767MOL0     H 5779   2.186   0.334   5.336  0.3829  0.1693 -1.9852
  767MOL0     H 5780   2.318   0.223   5.267  1.6648  1.2275  0.5920
  767MOL0     H 5781   2.290   0.219   5.497  0.4585 -2.9153  1.6225
  767MOL0     H 5782   2.126   0.185   5.505  0.9248  2.3617  0.6830
  767MOL0     H 5783   2.174  -0.056   5.379  1.0073 -4.1530  2.1993
  767MOL0     H 5784   2.347   0.002   5.383  0.1783 -1.0730  1.2893
  767MOL0     H 5785   2.341   0.007   5.627  1.1014  0.6698 -2.0587
  767MOL0     H 5786   2.167  -0.044   5.609  0.3278 -2.0497 -0.7468
  767MOL0     H 5787   2.251  -0.254   5.485  1.0002  0.8761 -1.5973
  767MOL0     H 5788   2.224  -0.250   5.662 -2.0177  1.9743 -0.8016
  767MOL0     H 5789   2.465  -0.210   5.692  2.4430 -1.8778  0.1777
  767MOL0     H 5790   2.432  -0.371   5.617 -2.7355  0.1359 -2.5829
  767MOL0     H 5791   2.534  -0.126   5.488 -0.3787 -0.6672  1.9983
  767MOL0     H 5792   2.477  -0.261   5.398 -1.7358 -0.3737  0.0308
  767MOL0     H 5793   2.642  -0.408   5.565  0.7727 -0.5568  0.6063
  767MOL0     H 5794   2.734  -0.311   5.445  0.0796 -0.9181  0.1132
  767MOL0     H 5795   2.764  -0.038   5.570 -2.1245 -1.8239 -1.2904
  767MOL0     H 5796   2.818   0.138   5.800 -0.2580  0.7762 -0.4345
  767MOL0     H 5797   2.851   0.045   5.945 -4.0812  0.8856  1.5591
  767MOL0     H 5798   2.578   0.066   5.854  0.8907  2.5641 -1.3423
  767MOL0     H 5799   2.628   0.010   6.015 -2.1695  0.2764 -1.0840
  767MOL0     H 5800   2.545   0.226   6.049 -1.1444 -1.0567 -1.3394
  767MOL0     H 5801   2.714   0.238   6.063  1.9236 -2.9044 -2.6219
  767MOL0     H 5802   2.767   0.337   5.849 -0.4248 -0.0862 -2.8605
  767MOL0     H 5803   2.621   0.314   5.779  4.2927 -3.7892 -0.9463
  767MOL0     H 5804   2.728   0.491   5.684  1.1095  0.1667  0.9700
  767MOL0     H 5805   2.838   0.609   5.502 -0.8494  0.7179 -3.5372
  767MOL0     H 5806   2.874   0.774   5.539  0.3696 -0.2131  0.5019
  767MOL0     H 5807   2.718   0.716   5.464 -0.1624 -2.5219  0.0791
  767MOL0     H 5808   2.765   1.267   5.869 -1.2989 -0.3800  0.3562
  767MOL0     H 5809   2.746   1.499   5.788 -2.1632 -0.3233  2.1471
  767MOL0     H 5810   2.498   1.565   5.415 -2.1387  3.6294 -0.1768
  767MOL0     H 5811   2.575   1.725   5.440 -0.0355  0.4239 -0.7154
  767MOL0     H 5812   2.735   1.484   5.346  1.8581  0.8089 -2.4758
  767MOL0     H 5813   2.659   1.623   5.250 -4.6694  0.7714  1.6282
  767MOL0     H 5814   2.888   1.626   5.468  1.8348  1.4579  0.2361
  767MOL0     H 5815   2.804   1.765   5.399  0.8882 -1.0455  2.0457
  767MOL0     H 5816   2.870   1.678   5.165 -0.8072 -0.9616  0.4725
  767MOL0     H 5817   2.957   1.554   5.265  0.1575  0.2178  2.4207
  767MOL0     H 5818   3.063   1.751   5.385 -1.5322  1.2228  0.6208
  767MOL0     H 5819   3.127   1.717   5.215  0.4985  2.2155 -2.0074
  767MOL0     H 5820   2.957   1.951   5.304  0.9708 -1.3610  1.0549
  767MOL0     H 5821   2.965   1.882   5.136 -0.3178 -0.7874  0.0927
  767MOL0     H 5822   3.215   1.901   5.159  0.0090  0.1642  0.2584
  767MOL0     H 5823   3.181   1.981   5.311 -1.6622 -3.1606  1.8991
  767MOL0     H 5824   3.207   2.154   5.134  0.7014 -0.4165 -0.3445
  767MOL0     H 5825   3.043   2.146   5.204 -0.0377  1.2182  0.8791
  767MOL0     H 5826   2.489   1.341   5.457 -2.5586  0.8104  1.4200
  767MOL0     H 5827   2.534   1.130   5.523 -0.9042  1.7561 -0.1537
  767MOL0     H 5828   2.593   0.894   5.922 -0.0362 -1.3410  2.7574
  767MOL0     H 5829   2.539   0.690   6.018  3.6603  3.9411  2.0858
  767MOL0     H 5830   2.185   0.418   5.118 -1.0382  1.0960 -0.1310
  767MOL0     H 5831   2.179   0.459   4.876 -1.7908 -0.8284 -3.9374
  767MOL0     H 5832   2.259   0.531   4.458  3.4756 -1.9181 -2.3144
  767MOL0     H 5833   2.261   0.544   4.224 -0.4796 -0.8002 -0.2361
  767MOL0     H 5834   2.129   0.513   3.884 -0.2442  0.1454  0.7755
  767MOL0     H 5835   2.250   0.522   4.009 -0.2542 -0.7263  1.9270
  767MOL0     H 5836   2.172   0.253   3.869 -0.5950 -0.8204  1.5238
  767MOL0     H 5837   2.298   0.276   3.994  1.1596  1.6454  0.5641
  767MOL0     H 5838   2.305   0.430   3.725  0.1391 -1.0889 -1.1784
  767MOL0     H 5839   2.415   0.447   3.846  1.2443 -0.7675 -3.7005
  767MOL0     H 5840   2.485   0.293   3.668  4.8627 -1.1162  2.5465
  767MOL0     H 5841   2.352   0.182   3.715 -0.2196  1.2060 -1.8636
  767MOL0     H 5842   2.668   0.109   4.000 -1.8128 -0.1812  1.4925
  767MOL0     H 5843   1.907   0.315   4.204 -2.5191  1.5837  1.6200
  767MOL0     H 5844   1.890   0.157   4.400 -2.1649  1.3999 -2.5875
  767MOL0     H 5845   1.866   0.244   4.555 -1.6158  3.3330  0.4045
  767MOL0     H 5846   1.766   0.289   4.417 -0.0837 -0.9668 -3.9226
  768MOL0     O 5847  10.367   2.800   0.571  0.3032 -0.3648  0.1801
  768MOL0     C 5848  10.462   2.763   0.638 -0.5129 -0.7919 -0.5400
  768MOL0     O 5849  10.507   2.629   0.648 -0.1983  0.2875 -0.5684
  768MOL0     C 5850  10.444   2.543   0.559 -0.4818  0.8135  1.0732
  768MOL0     C 5851  10.511   2.513   0.435 -1.0388 -0.7589 -0.3016
  768MOL0     C 5852  10.452   2.420   0.349  0.6090  0.3125 -0.3290
  768MOL0     C 5853  10.336   2.350   0.386 -0.5350 -0.2795  0.0787
  768MOL0     O 5854  10.290   2.241   0.316 -0.2828  0.3535 -0.1398
  768MOL0     C 5855  10.322   2.211   0.174 -0.1359 -0.5467  0.1086
  768MOL0     C 5856  10.246   2.307   0.078  0.4196 -0.5772 -0.4989
  768MOL0     C 5857  10.298   2.296  -0.058 -0.7402 -0.3143 -0.6361
  768MOL0     C 5858  10.218   2.353  -0.172 -0.2361 -0.7218  0.2876
  768MOL0     C 5859  10.299   2.334  -0.305 -0.7730 -0.2684  0.6362
  768MOL0     C 5860  10.224   2.412  -0.412 -0.1929 -1.0649  0.2389
  768MOL0     C 5861  10.280   2.412  -0.551  1.0829 -0.2941 -0.5069
  768MOL0     C 5862  10.286   2.281  -0.618 -0.8299  0.4508 -0.2605
  768MOL0     N 5863  10.360   2.293  -0.748  0.2075  0.0856 -0.2607
  768MOL0     C 5864  10.334   2.378  -0.863 -0.6391 -1.4792  0.0268
  768MOL0     C 5865  10.442   2.360  -0.941 -0.3165  1.2246  1.2480
  768MOL0     C 5866  10.465   2.425  -1.073  0.6543 -0.3160  0.3708
  768MOL0     C 5867  10.599   2.388  -1.134 -0.1221 -0.2823  0.3721
  768MOL0     C 5868  10.622   2.439  -1.276 -0.1544 -0.3477  0.0107
  768MOL0     C 5869  10.569   2.583  -1.308  0.0302  0.8011  0.5364
  768MOL0     O 5870  10.419   2.574  -1.315  0.4022 -0.0985 -0.2374
  768MOL0     C 5871  10.360   2.692  -1.309  0.3374 -0.4745  0.2028
  768MOL0     C 5872  10.401   2.807  -1.376 -1.1021 -0.1620  0.0130
  768MOL0     C 5873  10.330   2.933  -1.362  0.0059  0.2203 -0.4107
  768MOL0     C 5874  10.377   3.052  -1.452  0.4705  0.2887  0.2724
  768MOL0     C 5875  10.212   2.944  -1.285  0.9793  0.3955 -0.6298
  768MOL0     C 5876  10.121   3.065  -1.274 -0.6045  0.0433  0.0268
  768MOL0     O 5877  10.003   3.045  -1.214  0.2372 -0.1122 -0.0139
  768MOL0     C 5878   9.908   3.142  -1.232 -0.5268 -0.2118  0.4622
  768MOL0     C 5879   9.817   3.115  -1.329 -0.8313 -0.9611  0.8082
  768MOL0     C 5880   9.713   3.210  -1.356  1.0517 -1.0232 -0.5401
  768MOL0     C 5881   9.699   3.329  -1.265 -0.1040 -0.3687  0.4783
  768MOL0     O 5882   9.602   3.425  -1.280 -0.8539  0.9001  0.3929
  768MOL0     C 5883   9.580   3.519  -1.183  0.5282 -1.0436  0.8147
  768MOL0     C 5884   9.438   3.578  -1.222 -0.0202  0.4656 -0.2590
  768MOL0     C 5885   9.388   3.665  -1.100  0.4486  0.0578  0.4729
  768MOL0     C 5886   9.269   3.754  -1.135 -1.0113  0.8235 -0.0747
  768MOL0     C 5887   9.175   3.777  -1.021  0.4812 -0.0055  0.4269
  768MOL0     C 5888   9.027   3.783  -1.073  0.5130 -0.3572 -0.3469
  768MOL0     C 5889   8.929   3.816  -0.957  0.1790  1.1254  0.2058
  768MOL0     C 5890   8.783   3.824  -1.002 -0.1833 -0.7013  0.9073
  768MOL0    Cl 5891   8.754   3.958  -1.110  0.1286  0.0083 -0.1765
  768MOL0     C 5892   9.795   3.349  -1.172 -0.5436 -0.4792 -0.2051
  768MOL0     C 5893   9.893   3.256  -1.150 -0.1227 -0.9865  0.0285
  768MOL0     O 5894  10.146   3.173  -1.327  0.6760 -0.2589 -0.5909
  768MOL0     C 5895  10.175   2.825  -1.218  0.4621 -0.1814 -0.2390
  768MOL0     C 5896  10.249   2.700  -1.225 -0.1113  0.6570 -0.3770
  768MOL0     N 5897  10.535   2.271  -0.881  0.1019 -0.5304  0.0525
  768MOL0     N 5898  10.484   2.228  -0.770  0.0963 -0.4379 -0.7556
  768MOL0     C 5899  10.274   2.391   0.500  0.2678 -0.3589  0.4201
  768MOL0     C 5900  10.321   2.489   0.591 -0.4477  0.3790 -0.0949
  768MOL0     C 5901  10.513   2.867   0.737 -0.0596 -0.3221  0.5502
  768MOL0     C 5902  10.586   2.816   0.847  1.0912  0.0028  0.5161
  768MOL0     C 5903  10.600   2.901   0.955 -0.6162 -0.2115  0.4178
  768MOL0     C 5904  10.563   3.036   0.951  1.4388 -0.6260  0.0366
  768MOL0     O 5905  10.565   3.123   1.062  0.2542  0.9459  0.2246
  768MOL0     C 5906  10.620   3.247   1.045 -0.1738 -0.0714  0.1088
  768MOL0     C 5907  10.683   3.289   1.181 -0.0659 -0.3426 -0.2315
  768MOL0     C 5908  10.706   3.438   1.189  0.2707  0.3621  0.4404
  768MOL0     C 5909  10.813   3.480   1.295  0.8195  0.2769 -0.2829
  768MOL0     C 5910  10.950   3.436   1.265  0.0990 -0.4317 -0.5119
  768MOL0     C 5911  11.056   3.404   1.228  0.2913 -0.3320 -0.2359
  768MOL0     C 5912  10.511   3.085   0.835  0.5857 -0.7428  0.6026
  768MOL0     C 5913  10.481   3.005   0.726 -0.6598 -0.5066 -0.1529
  768MOL0     C 5914  10.435   3.079   0.608 -0.6730 -0.3919 -0.2889
  768MOL0     H 5915  10.608   2.556   0.412 -1.9019  1.2875 -0.3501
  768MOL0     H 5916  10.504   2.387   0.260 -0.4533 -3.0044  0.1542
  768MOL0     H 5917  10.294   2.106   0.159  0.5458 -0.7372  0.1466
  768MOL0     H 5918  10.429   2.220   0.152 -0.4683  2.3365 -0.7903
  768MOL0     H 5919  10.140   2.282   0.089  0.7155 -0.7954  3.7295
  768MOL0     H 5920  10.257   2.408   0.119 -0.4496 -0.9255  0.6789
  768MOL0     H 5921  10.388   2.356  -0.075 -0.2540 -0.7677  0.3164
  768MOL0     H 5922  10.324   2.192  -0.075  0.1582 -0.4638  1.4265
  768MOL0     H 5923  10.117   2.313  -0.180  0.1364 -1.7721  0.6946
  768MOL0     H 5924  10.215   2.461  -0.155  1.8239 -0.1424 -2.3522
  768MOL0     H 5925  10.298   2.226  -0.324  3.0033 -0.8022  2.5034
  768MOL0     H 5926  10.404   2.363  -0.294 -1.0255  0.0982  2.3788
  768MOL0     H 5927  10.126   2.364  -0.419  0.3428 -2.8637  3.3357
  768MOL0     H 5928  10.219   2.516  -0.378 -1.1648 -1.0207  0.0006
  768MOL0     H 5929  10.382   2.450  -0.539  0.6118  1.2121 -1.0645
  768MOL0     H 5930  10.218   2.480  -0.610  1.7747  1.0488  0.2648
  768MOL0     H 5931  10.338   2.203  -0.562 -0.1877  1.2369  0.2679
  768MOL0     H 5932  10.186   2.239  -0.630  0.4274 -2.2322 -2.5672
  768MOL0     H 5933  10.245   2.440  -0.862 -1.0076 -2.0114  0.5669
  768MOL0     H 5934  10.467   2.531  -1.048  5.0513 -0.1404  0.0541
  768MOL0     H 5935  10.380   2.417  -1.142  1.1239  1.8248 -0.5496
  768MOL0     H 5936  10.676   2.422  -1.064 -0.9408  1.3632  0.5302
  768MOL0     H 5937  10.599   2.279  -1.133 -3.8982 -0.4620 -0.8912
  768MOL0     H 5938  10.728   2.452  -1.298 -0.2703 -1.3228 -1.2297
  768MOL0     H 5939  10.581   2.357  -1.335 -2.7287 -0.1116  1.3276
  768MOL0     H 5940  10.594   2.656  -1.231  2.0040  1.2690 -0.4892
  768MOL0     H 5941  10.608   2.628  -1.400  0.2738  1.3724  0.9167
  768MOL0     H 5942  10.485   2.803  -1.445  0.8709  0.1794  2.2703
  768MOL0     H 5943  10.477   3.038  -1.494  0.5352 -0.2246  0.5905
  768MOL0     H 5944  10.401   3.143  -1.397 -0.3711  0.5340  0.2564
  768MOL0     H 5945  10.299   3.072  -1.526  0.2246 -1.5229 -0.0025
  768MOL0     H 5946   9.827   3.017  -1.374 -0.7342 -1.3400  1.6356
  768MOL0     H 5947   9.635   3.203  -1.431 -0.6164  3.0903  0.5226
  768MOL0     H 5948   9.576   3.469  -1.086  3.0252 -1.6108  0.6946
  768MOL0     H 5949   9.655   3.598  -1.178 -1.5575  1.1169  0.1233
  768MOL0     H 5950   9.443   3.645  -1.308  1.7075 -0.4166 -0.9135
  768MOL0     H 5951   9.367   3.500  -1.251  1.1974 -0.3965 -1.0220
  768MOL0     H 5952   9.463   3.735  -1.061 -0.1657  0.3673  1.1150
  768MOL0     H 5953   9.360   3.596  -1.020  0.0896 -0.6102 -0.2260
  768MOL0     H 5954   9.209   3.707  -1.213 -2.1019 -0.6416  1.5585
  768MOL0     H 5955   9.308   3.850  -1.170  3.0004 -0.8244 -0.6333
  768MOL0     H 5956   9.174   3.691  -0.954 -0.9787 -1.3707 -1.2599
  768MOL0     H 5957   9.197   3.868  -0.964  0.0900 -0.4015  1.2233
  768MOL0     H 5958   8.995   3.688  -1.119 -0.4871 -0.8172  1.2142
  768MOL0     H 5959   9.016   3.869  -1.140 -1.3507  1.2005  1.7865
  768MOL0     H 5960   8.964   3.904  -0.902 -1.8469  1.8433  0.4199
  768MOL0     H 5961   8.938   3.728  -0.893 -3.0290  1.8681  1.8761
  768MOL0     H 5962   8.714   3.838  -0.917 -0.2004  2.3365  0.4984
  768MOL0     H 5963   8.763   3.727  -1.048 -2.8297 -0.0931  0.6018
  768MOL0     H 5964   9.816   3.439  -1.116  2.3019  0.0463 -1.9332
  768MOL0     H 5965   9.960   3.268  -1.065  0.2980 -2.3527 -0.0794
  768MOL0     H 5966  10.093   2.824  -1.146 -0.6526 -2.9462 -1.3973
  768MOL0     H 5967  10.218   2.611  -1.171  4.3921  0.4416  2.3768
  768MOL0     H 5968  10.186   2.333   0.526  1.9041 -1.2805  4.6222
  768MOL0     H 5969  10.267   2.525   0.678 -0.8227  1.2736 -0.6818
  768MOL0     H 5970  10.612   2.711   0.857  0.7471  0.0989  3.1560
  768MOL0     H 5971  10.635   2.854   1.046 -5.0682 -3.3473  0.8363
  768MOL0     H 5972  10.699   3.245   0.970 -0.5626 -3.2973 -0.3453
  768MOL0     H 5973  10.557   3.318   0.990  1.9527 -0.0839 -2.5190
  768MOL0     H 5974  10.777   3.238   1.204  2.0913  3.5581  0.3970
  768MOL0     H 5975  10.616   3.261   1.262  0.4641  0.9702  0.6893
  768MOL0     H 5976  10.732   3.487   1.095 -2.6190  1.5352  0.1335
  768MOL0     H 5977  10.614   3.492   1.216 -0.2223  0.2056 -0.8384
  768MOL0     H 5978  10.778   3.428   1.385  1.5950  2.0339  1.1215
  768MOL0     H 5979  10.811   3.584   1.330 -0.1258  0.0117  0.4994
  768MOL0     H 5980  11.156   3.386   1.194  0.4254  1.1070 -0.6687
  768MOL0     H 5981  10.484   3.190   0.835  1.5963 -0.4735  0.6066
  768MOL0     H 5982  10.425   3.185   0.630  1.9714 -0.1251 -0.0281
  768MOL0     H 5983  10.510   3.063   0.529 -1.2371 -0.2233 -0.8643
  768MOL0     H 5984  10.338   3.042   0.573 -1.0326  0.0909  0.1876
  769MOL0     O 5985   6.873   1.284   8.612 -0.9264  0.5013  0.1309
  769MOL0     C 5986   6.762   1.338   8.625  0.3688 -0.2214 -0.2281
  769MOL0     O 5987   6.659   1.341   8.528  0.1217  0.0488  0.2198
  769MOL0     C 5988   6.684   1.360   8.393  0.2130 -0.4692  0.7038
  769MOL0     C 5989   6.636   1.481   8.324 -0.0574  0.7402 -0.1920
  769MOL0     C 5990   6.672   1.507   8.190 -0.1088 -0.0458 -0.4222
  769MOL0     C 5991   6.767   1.427   8.126 -0.2000 -0.3127 -0.1591
  769MOL0     O 5992   6.804   1.456   7.994 -0.0219  0.0264 -0.5423
  769MOL0     C 5993   6.935   1.420   7.945  0.0384  0.3017 -0.1253
  769MOL0     C 5994   6.948   1.464   7.797 -0.0082  0.1731  0.5257
  769MOL0     C 5995   6.889   1.608   7.779 -0.1265 -0.0848 -0.0979
  769MOL0     C 5996   6.877   1.656   7.634 -1.2946  0.6021  0.4962
  769MOL0     C 5997   6.847   1.810   7.626  0.5736 -0.3859 -0.1638
  769MOL0     C 5998   6.829   1.835   7.476  0.7318  0.3911  0.0802
  769MOL0     C 5999   6.771   1.971   7.438  0.0669 -0.3551 -1.1225
  769MOL0     C 6000   6.796   2.005   7.296  0.4388 -0.5380  0.0392
  769MOL0     N 6001   6.763   2.147   7.276  0.2018 -0.6782  0.4286
  769MOL0     C 6002   6.630   2.191   7.257  0.3391 -0.6774  0.5992
  769MOL0     C 6003   6.650   2.323   7.229  0.7922 -0.5344  0.3296
  769MOL0     C 6004   6.531   2.417   7.219 -0.0181 -0.6417 -0.1882
  769MOL0     C 6005   6.437   2.405   7.097 -0.0197 -0.2789 -0.2698
  769MOL0     C 6006   6.295   2.475   7.106  0.4880 -0.8980  0.7623
  769MOL0     C 6007   6.293   2.624   7.115 -0.4433 -0.2715 -0.7991
  769MOL0     O 6008   6.354   2.666   6.996 -0.4996 -0.9918  0.1915
  769MOL0     C 6009   6.286   2.676   6.883  0.2856  0.2480  1.1283
  769MOL0     C 6010   6.162   2.728   6.861  0.1262 -0.5702 -0.6747
  769MOL0     C 6011   6.103   2.753   6.734 -0.2953 -0.1163 -0.8133
  769MOL0     C 6012   5.978   2.844   6.730  0.4956 -0.6529 -0.0499
  769MOL0     C 6013   6.173   2.709   6.615  0.3751  1.0254  0.6979
  769MOL0     C 6014   6.128   2.725   6.478  0.4083 -0.5237 -0.3707
  769MOL0     O 6015   6.216   2.706   6.369 -0.7026 -0.2956 -0.0851
  769MOL0     C 6016   6.183   2.703   6.233 -0.3835  0.2721  0.2460
  769MOL0     C 6017   6.287   2.714   6.135  0.1361  0.1931  0.3585
  769MOL0     C 6018   6.251   2.703   6.001  0.0120  0.7391 -0.4458
  769MOL0     C 6019   6.127   2.663   5.960 -0.3700 -0.4320 -0.5331
  769MOL0     O 6020   6.084   2.618   5.840  0.7424  0.5933 -0.2634
  769MOL0     C 6021   6.108   2.698   5.729  0.1563 -0.0051  0.2768
  769MOL0     C 6022   6.143   2.612   5.608  0.4676  0.3701 -0.2248
  769MOL0     C 6023   6.201   2.689   5.495  0.4162 -0.0154 -0.5448
  769MOL0     C 6024   6.117   2.804   5.444  0.1003  0.4912  0.3959
  769MOL0     C 6025   6.161   2.845   5.303  0.6573 -0.0970 -0.8660
  769MOL0     C 6026   6.097   2.972   5.263  0.0894 -0.8242 -0.1472
  769MOL0     C 6027   6.172   3.008   5.127 -0.1641 -0.3053 -0.1261
  769MOL0     C 6028   6.129   3.140   5.070  0.6110  1.0550 -0.3525
  769MOL0    Cl 6029   5.956   3.126   5.061 -0.2384 -0.1382 -0.1853
  769MOL0     C 6030   6.025   2.653   6.057 -0.4747  0.5792  0.4129
  769MOL0     C 6031   6.055   2.676   6.190 -0.8189  0.5297 -0.3034
  769MOL0     O 6032   6.016   2.774   6.464  0.0370  0.0769 -0.3028
  769MOL0     C 6033   6.299   2.641   6.632 -0.3978 -0.1567 -0.1395
  769MOL0     C 6034   6.353   2.629   6.765 -0.8751  0.0723 -0.2423
  769MOL0     N 6035   6.789   2.349   7.215  0.2865  0.3958 -0.6159
  769MOL0     N 6036   6.850   2.241   7.240  0.8683  0.8930  0.2727
  769MOL0     C 6037   6.820   1.315   8.198  0.0800 -0.2044 -0.3850
  769MOL0     C 6038   6.774   1.277   8.326 -0.4346 -0.2704 -0.5980
  769MOL0     C 6039   6.734   1.417   8.752 -1.0140 -0.1234 -0.1122
  769MOL0     C 6040   6.602   1.447   8.779 -0.3287 -0.3570  0.3640
  769MOL0     C 6041   6.566   1.537   8.880  0.2798 -0.7274 -0.2056
  769MOL0     C 6042   6.656   1.611   8.952 -0.2580  0.0810 -1.3281
  769MOL0     O 6043   6.627   1.703   9.056  0.3688  0.1490  0.4946
  769MOL0     C 6044   6.486   1.735   9.071  0.2597 -0.2452  0.4943
  769MOL0     C 6045   6.460   1.845   9.174 -1.0217  0.9553  0.2438
  769MOL0     C 6046   6.314   1.853   9.195  0.6752 -0.7260 -0.2647
  769MOL0     C 6047   6.287   1.948   9.317 -0.0223 -0.2429  0.4090
  769MOL0     C 6048   6.160   1.938   9.391 -0.1864  0.1696 -0.1231
  769MOL0     C 6049   6.061   1.922   9.449  0.0988  0.1748  0.8603
  769MOL0     C 6050   6.788   1.569   8.935 -0.1432 -0.3890 -0.0820
  769MOL0     C 6051   6.826   1.473   8.835 -0.2975 -0.9766  0.4322
  769MOL0     C 6052   6.975   1.442   8.805  0.2775  0.0405 -0.1239
  769MOL0     H 6053   6.569   1.552   8.371 -0.6215 -2.0111  3.6360
  769MOL0     H 6054   6.628   1.593   8.140 -1.4621 -0.8437 -0.6695
  769MOL0     H 6055   6.953   1.313   7.953  0.5539  0.4236  0.4970
  769MOL0     H 6056   7.017   1.464   8.003  1.2734 -1.0620 -0.7672
  769MOL0     H 6057   7.052   1.463   7.765  0.1339 -0.1939  0.9885
  769MOL0     H 6058   6.888   1.399   7.733 -0.4497 -0.3813  1.4846
  769MOL0     H 6059   6.792   1.624   7.825 -0.8080  0.4858 -1.6633
  769MOL0     H 6060   6.954   1.683   7.826 -0.9002 -1.4793  3.5181
  769MOL0     H 6061   6.975   1.642   7.587 -0.7375  1.7016  1.3064
  769MOL0     H 6062   6.797   1.592   7.595 -0.5698 -2.3751  3.4298
  769MOL0     H 6063   6.923   1.871   7.675 -1.5625  0.4568  2.3382
  769MOL0     H 6064   6.752   1.842   7.670  1.2954  1.8108 -0.1029
  769MOL0     H 6065   6.930   1.825   7.437  1.7058 -0.3606  2.5868
  769MOL0     H 6066   6.777   1.756   7.421  0.5391  0.6612 -0.1273
  769MOL0     H 6067   6.808   2.045   7.510 -3.1681  0.0259  0.3767
  769MOL0     H 6068   6.665   1.986   7.464  0.3607  3.3402 -1.4137
  769MOL0     H 6069   6.903   1.991   7.279  0.9514 -4.7757  4.4908
  769MOL0     H 6070   6.745   1.930   7.234  0.5122 -0.5798  0.0286
  769MOL0     H 6071   6.546   2.124   7.269  0.4073 -1.0954 -0.9777
  769MOL0     H 6072   6.575   2.517   7.225 -1.8170  0.1124  2.0384
  769MOL0     H 6073   6.468   2.407   7.308  0.5837  1.2311  0.4989
  769MOL0     H 6074   6.490   2.458   7.017  0.6537 -0.7441 -0.1423
  769MOL0     H 6075   6.417   2.300   7.076 -0.9912 -0.3337  0.8701
  769MOL0     H 6076   6.236   2.438   7.022 -2.7723 -3.6736  3.9422
  769MOL0     H 6077   6.249   2.446   7.201  2.4561  2.5902  2.9961
  769MOL0     H 6078   6.194   2.668   7.129  1.1881  3.5640  0.1092
  769MOL0     H 6079   6.356   2.671   7.192  0.0291  2.9504 -2.9502
  769MOL0     H 6080   6.106   2.744   6.953  2.2059  2.6381  0.2161
  769MOL0     H 6081   5.939   2.848   6.832  0.6521  1.3838 -0.0120
  769MOL0     H 6082   5.894   2.807   6.670 -0.5355  1.8931 -0.3217
  769MOL0     H 6083   6.002   2.945   6.693 -0.1419 -0.7915 -0.8819
  769MOL0     H 6084   6.393   2.733   6.151  0.2281  1.4785 -1.4542
  769MOL0     H 6085   6.334   2.707   5.931 -0.3631  1.1642 -0.8789
  769MOL0     H 6086   6.018   2.758   5.708 -0.5954 -0.9082  0.8411
  769MOL0     H 6087   6.182   2.775   5.751 -0.5561  0.8943 -0.3748
  769MOL0     H 6088   6.213   2.533   5.637  0.6074  0.3611 -0.5838
  769MOL0     H 6089   6.064   2.546   5.570 -0.0324 -0.1402  1.6179
  769MOL0     H 6090   6.207   2.615   5.415 -1.9305 -2.2691  1.2154
  769MOL0     H 6091   6.297   2.732   5.527 -0.0231  2.4955 -2.3045
  769MOL0     H 6092   6.142   2.884   5.514  3.8971 -0.3035  0.1792
  769MOL0     H 6093   6.008   2.800   5.441  0.0847 -0.3890  1.4919
  769MOL0     H 6094   6.269   2.861   5.294  0.5955  0.1185 -1.2633
  769MOL0     H 6095   6.135   2.767   5.230 -0.3184 -0.0063 -0.6229
  769MOL0     H 6096   6.118   3.059   5.326 -1.4439  1.8044 -2.9660
  769MOL0     H 6097   5.990   2.959   5.246 -0.4399  1.9651  0.5312
  769MOL0     H 6098   6.166   2.926   5.056  1.6470 -0.5384 -0.0730
  769MOL0     H 6099   6.277   3.028   5.152 -0.3894 -1.8162  2.4201
  769MOL0     H 6100   6.179   3.168   4.977 -2.0830  3.9943 -1.0697
  769MOL0     H 6101   6.143   3.221   5.141 -0.5491  0.6578  0.3605
  769MOL0     H 6102   5.922   2.636   6.027 -0.4422  1.0576  0.0195
  769MOL0     H 6103   5.994   2.650   6.276  0.1739  0.5843  0.4312
  769MOL0     H 6104   6.370   2.595   6.564 -1.3231 -1.2995 -0.3630
  769MOL0     H 6105   6.444   2.570   6.771 -1.8665 -1.8738 -2.4671
  769MOL0     H 6106   6.895   1.249   8.155  0.9948 -0.0751  0.9586
  769MOL0     H 6107   6.807   1.185   8.373 -1.9135  0.1228  1.3667
  769MOL0     H 6108   6.524   1.390   8.730  0.0014 -1.0149  0.5911
  769MOL0     H 6109   6.463   1.568   8.889 -0.1074 -1.4727 -1.7008
  769MOL0     H 6110   6.451   1.771   8.973  1.8439  1.5465  0.5295
  769MOL0     H 6111   6.418   1.653   9.095 -3.1582  2.6941  1.7689
  769MOL0     H 6112   6.484   1.944   9.136  2.1187 -0.4160 -1.6803
  769MOL0     H 6113   6.511   1.821   9.268 -2.8627 -3.5557  0.3713
  769MOL0     H 6114   6.272   1.905   9.108 -1.1764 -2.1643 -0.3112
  769MOL0     H 6115   6.267   1.755   9.212 -1.5682  0.4358  0.8091
  769MOL0     H 6116   6.299   2.054   9.292 -0.7052  0.1833  1.8147
  769MOL0     H 6117   6.363   1.922   9.392  1.3896 -0.2986 -0.9782
  769MOL0     H 6118   5.968   1.909   9.501 -0.7832  0.9587 -0.4444
  769MOL0     H 6119   6.859   1.620   8.999 -0.6035 -0.2903  0.3511
  769MOL0     H 6120   6.989   1.335   8.817 -4.4890 -0.7409  0.7329
  769MOL0     H 6121   7.003   1.467   8.702  0.9546 -1.1674 -0.2452
  769MOL0     H 6122   7.036   1.505   8.870 -1.6736  2.9954 -0.9323
  770MOL0     O 6123   7.588   8.911   4.759  0.0712 -0.1947 -0.1808
  770MOL0     C 6124   7.647   8.810   4.743 -0.5034 -0.7725  1.2247
  770MOL0     O 6125   7.782   8.801   4.753  0.0839  0.0601 -0.1352
  770MOL0     C 6126   7.848   8.915   4.787  0.1555  0.4977  0.0551
  770MOL0     C 6127   7.929   8.976   4.690 -0.1961  0.2357  0.3225
  770MOL0     C 6128   7.993   9.099   4.719  0.3675  0.0169 -0.8216
  770MOL0     C 6129   7.977   9.161   4.842 -0.2093  0.1868 -0.0756
  770MOL0     O 6130   8.042   9.276   4.876  0.3806  0.4241 -0.4156
  770MOL0     C 6131   8.162   9.248   4.952 -1.0839 -0.7520  0.1719
  770MOL0     C 6132   8.218   9.387   5.010  0.4515  0.1475  0.1821
  770MOL0     C 6133   8.292   9.470   4.901  0.7263  0.4000 -0.3885
  770MOL0     C 6134   8.310   9.622   4.923 -0.4738  0.0088 -0.4756
  770MOL0     C 6135   8.440   9.668   4.852  0.2389 -0.3765  0.0674
  770MOL0     C 6136   8.529   9.751   4.939  0.0433  1.0531 -1.1701
  770MOL0     C 6137   8.654   9.799   4.865  0.2336 -0.3981  0.0882
  770MOL0     C 6138   8.727   9.902   4.947 -1.3116  0.1193  0.4535
  770MOL0     N 6139   8.824   9.975   4.861 -0.8991  1.0361 -0.2792
  770MOL0     C 6140   8.858  10.107   4.881 -0.4875  0.5447  0.1807
  770MOL0     C 6141   8.936  10.133   4.775  0.0683 -0.8587 -0.1079
  770MOL0     C 6142   8.994  10.273   4.738 -0.2809 -0.3692 -0.0209
  770MOL0     C 6143   8.882  10.386   4.737  0.4887 -0.1973  0.4500
  770MOL0     C 6144   8.915  10.485   4.639  0.2891 -0.0933  0.0941
  770MOL0     C 6145   8.805  10.590   4.649 -0.5534 -0.5076  0.1994
  770MOL0     O 6146   8.842  10.666   4.758  0.5260 -0.3056 -0.6676
  770MOL0     C 6147   8.927  10.775   4.744 -0.5401 -0.3267  0.0660
  770MOL0     C 6148   8.958  10.841   4.862 -0.5494 -1.0787  0.3395
  770MOL0     C 6149   9.035  10.962   4.872 -0.6059  0.1888 -0.5116
  770MOL0     C 6150   9.060  11.016   5.006 -0.6833 -0.4694  0.7624
  770MOL0     C 6151   9.109  11.006   4.756 -0.2780 -0.3426  0.5065
  770MOL0     C 6152   9.180  11.135   4.746  0.2334 -0.0962  0.3469
  770MOL0     O 6153   9.160  11.203   4.632  0.1530 -0.0715 -0.4791
  770MOL0     C 6154   9.225  11.320   4.601  0.1330  0.3032 -0.1458
  770MOL0     C 6155   9.199  11.369   4.473  0.7262  0.9146  0.1341
  770MOL0     C 6156   9.269  11.470   4.415  0.1687 -0.1626  0.2367
  770MOL0     C 6157   9.360  11.546   4.496 -0.7634 -0.3295 -0.1728
  770MOL0     O 6158   9.411  11.661   4.436 -0.4885 -0.7375  0.2144
  770MOL0     C 6159   9.443  11.779   4.515  1.1434 -0.1641 -0.2747
  770MOL0     C 6160   9.418  11.912   4.440  0.0090  0.5619 -0.3030
  770MOL0     C 6161   9.278  11.934   4.395  0.0212 -0.6121 -0.2731
  770MOL0     C 6162   9.238  11.855   4.265 -0.1529 -0.6929 -0.6655
  770MOL0     C 6163   9.257  11.932   4.142  0.3872 -0.1105 -0.3030
  770MOL0     C 6164   9.250  11.860   4.006 -0.3830  0.2967 -0.1738
  770MOL0     C 6165   9.298  11.952   3.887 -0.2390 -0.3092 -0.5086
  770MOL0     C 6166   9.303  11.881   3.756  0.1370  0.1048 -0.4248
  770MOL0    Cl 6167   9.338  12.025   3.643  0.1663 -0.1651 -0.4694
  770MOL0     C 6168   9.394  11.494   4.618 -0.4858 -0.3199 -0.2116
  770MOL0     C 6169   9.335  11.371   4.661  0.0271 -0.2756  0.3595
  770MOL0     O 6170   9.229  11.179   4.848 -0.4785 -0.1684 -0.0192
  770MOL0     C 6171   9.082  10.930   4.638 -0.9797  0.0713 -0.3333
  770MOL0     C 6172   8.987  10.827   4.627  0.3053 -0.2975  0.8526
  770MOL0     N 6173   8.950  10.022   4.694 -0.1169 -0.1266  0.5020
  770MOL0     N 6174   8.887   9.923   4.749  0.3978  0.4917  0.9293
  770MOL0     C 6175   7.898   9.101   4.936  0.0862  0.9423 -0.2078
  770MOL0     C 6176   7.834   8.969   4.912  0.7788  0.1967  0.1193
  770MOL0     C 6177   7.575   8.699   4.678  0.3197  1.3315 -0.1467
  770MOL0     C 6178   7.651   8.578   4.661  0.4149 -0.3639  0.2204
  770MOL0     C 6179   7.594   8.468   4.605  0.7712  0.1739 -0.5658
  770MOL0     C 6180   7.463   8.478   4.554  0.6017 -0.6437 -1.0979
  770MOL0     O 6181   7.426   8.358   4.500  0.9568 -0.7810 -0.6633
  770MOL0     C 6182   7.293   8.356   4.443  0.9107 -0.1636 -0.0738
  770MOL0     C 6183   7.278   8.212   4.391  0.1447 -1.1063 -0.4424
  770MOL0     C 6184   7.392   8.175   4.295  0.7087  0.5729 -0.7722
  770MOL0     C 6185   7.353   8.046   4.226  0.0655  0.3542  0.5827
  770MOL0     C 6186   7.232   8.055   4.136 -0.0511 -0.6160 -1.1119
  770MOL0     C 6187   7.157   8.072   4.039  0.7221 -0.2944 -0.1234
  770MOL0     C 6188   7.401   8.597   4.540  0.1477 -0.6930 -0.6045
  770MOL0     C 6189   7.456   8.709   4.605  0.6866  0.0059  0.9552
  770MOL0     C 6190   7.375   8.836   4.577 -0.4826  0.4193 -0.0741
  770MOL0     H 6191   7.937   8.932   4.591 -0.5482  4.1019 -1.6173
  770MOL0     H 6192   8.048   9.148   4.639  1.2165  0.0340 -0.2401
  770MOL0     H 6193   8.239   9.197   4.894  2.1483  0.6888  2.8405
  770MOL0     H 6194   8.142   9.181   5.036  5.1664 -2.1911  0.9755
  770MOL0     H 6195   8.136   9.445   5.053 -0.1268 -0.8343  0.4169
  770MOL0     H 6196   8.290   9.372   5.091  3.3191 -0.8759 -2.3515
  770MOL0     H 6197   8.393   9.428   4.895  0.7376  0.6292 -2.2162
  770MOL0     H 6198   8.240   9.454   4.807  0.3095 -0.5838 -0.0098
  770MOL0     H 6199   8.220   9.672   4.887 -0.2347 -1.1432 -2.8675
  770MOL0     H 6200   8.320   9.644   5.030  0.4455  4.5847 -1.2920
  770MOL0     H 6201   8.418   9.711   4.755  3.1041  0.0413 -0.4846
  770MOL0     H 6202   8.516   9.591   4.835  0.3498  0.3290 -3.0395
  770MOL0     H 6203   8.478   9.835   4.988  0.3383  1.3361 -1.3438
  770MOL0     H 6204   8.556   9.681   5.019 -2.1204  3.6406  2.0957
  770MOL0     H 6205   8.616   9.856   4.780 -0.5191 -0.0862  0.6194
  770MOL0     H 6206   8.717   9.721   4.821 -0.3211  0.2769 -2.0459
  770MOL0     H 6207   8.661   9.974   4.997 -0.4634  1.2601 -0.0350
  770MOL0     H 6208   8.790   9.848   5.018  0.8179 -2.2715 -2.9157
  770MOL0     H 6209   8.821  10.180   4.952  0.5869  2.0423 -0.7435
  770MOL0     H 6210   9.038  10.269   4.638 -2.0311  1.4845 -0.9387
  770MOL0     H 6211   9.069  10.303   4.812  0.8714 -0.8865 -0.9335
  770MOL0     H 6212   8.788  10.333   4.718 -0.6713  2.5899 -2.2894
  770MOL0     H 6213   8.878  10.424   4.840  1.2288  5.5632 -1.3249
  770MOL0     H 6214   9.011  10.537   4.650 -1.1873  2.3877  3.0842
  770MOL0     H 6215   8.912  10.455   4.534 -1.1554  0.2477  0.0183
  770MOL0     H 6216   8.795  10.657   4.563 -0.7899  2.0557  2.1141
  770MOL0     H 6217   8.710  10.539   4.665 -1.2453  0.4757 -0.5801
  770MOL0     H 6218   8.926  10.799   4.957  1.3910 -1.8196  0.7143
  770MOL0     H 6219   9.163  10.995   5.036 -0.8641 -4.0729 -0.7022
  770MOL0     H 6220   8.991  10.979   5.082 -0.1418 -1.6987  0.6738
  770MOL0     H 6221   9.049  11.125   4.997  2.1266 -0.2274 -1.1573
  770MOL0     H 6222   9.108  11.336   4.423 -0.4804 -2.7943  4.1842
  770MOL0     H 6223   9.223  11.497   4.321  1.1233  2.5646  0.4785
  770MOL0     H 6224   9.375  11.770   4.600 -0.7151 -2.1253 -1.8619
  770MOL0     H 6225   9.547  11.782   4.548  2.0240 -0.0662 -2.8531
  770MOL0     H 6226   9.439  11.985   4.518 -0.0803 -0.2270  0.4869
  770MOL0     H 6227   9.487  11.917   4.355 -0.2246  1.0926 -0.4664
  770MOL0     H 6228   9.256  12.040   4.382  1.1918 -0.5511 -2.2413
  770MOL0     H 6229   9.227  11.910   4.488  0.6786 -2.2927 -0.3030
  770MOL0     H 6230   9.135  11.819   4.271 -0.1196 -1.0298 -1.8222
  770MOL0     H 6231   9.300  11.766   4.249 -1.7981 -2.0869  0.3533
  770MOL0     H 6232   9.168  11.995   4.141  0.1566 -0.4205  0.4106
  770MOL0     H 6233   9.339  12.004   4.151 -1.5052  1.8868  3.6419
  770MOL0     H 6234   9.145  11.832   4.002 -0.8345  1.2334  2.8271
  770MOL0     H 6235   9.305  11.765   4.009 -3.2052 -1.5446  4.9384
  770MOL0     H 6236   9.399  11.987   3.908 -0.9155  1.4435  0.0677
  770MOL0     H 6237   9.230  12.038   3.886 -1.2073 -1.0432  0.2272
  770MOL0     H 6238   9.205  11.837   3.738  0.1032  0.9100 -2.5418
  770MOL0     H 6239   9.372  11.796   3.757  0.6510  0.5168  0.0003
  770MOL0     H 6240   9.477  11.541   4.668 -1.1495  0.0648  0.5461
  770MOL0     H 6241   9.372  11.322   4.751  0.0703 -3.2372 -1.1485
  770MOL0     H 6242   9.140  10.951   4.549  2.4325 -1.9968  1.1780
  770MOL0     H 6243   8.948  10.781   4.537 -1.2128  1.2324  0.6609
  770MOL0     H 6244   7.891   9.151   5.032 -2.5533  2.9126 -1.3161
  770MOL0     H 6245   7.768   8.926   4.986  3.8091  2.8350  4.9425
  770MOL0     H 6246   7.752   8.570   4.701  0.2797  0.5942  0.8011
  770MOL0     H 6247   7.655   8.379   4.597  0.0128 -0.6126  1.8603
  770MOL0     H 6248   7.216   8.381   4.516  2.0633 -0.5091  1.3100
  770MOL0     H 6249   7.293   8.425   4.358  1.6367 -0.5490 -0.3962
  770MOL0     H 6250   7.175   8.198   4.357 -0.6134  1.5321  0.5881
  770MOL0     H 6251   7.292   8.161   4.487  2.8611 -1.1097 -0.7685
  770MOL0     H 6252   7.422   8.261   4.235  2.4477  0.4643 -0.1252
  770MOL0     H 6253   7.483   8.156   4.352 -1.2482 -0.5070  2.2564
  770MOL0     H 6254   7.339   7.967   4.301  3.1769 -0.5205  0.3776
  770MOL0     H 6255   7.444   8.021   4.171  1.5362  0.2615  2.8996
  770MOL0     H 6256   7.109   8.092   3.946 -0.8640  0.0880  0.7493
  770MOL0     H 6257   7.310   8.594   4.481  0.2957 -1.3561 -0.8088
  770MOL0     H 6258   7.353   8.875   4.677 -3.2565 -1.6994  0.2776
  770MOL0     H 6259   7.423   8.902   4.504  2.8306  0.5010  1.9677
  770MOL0     H 6260   7.273   8.823   4.537 -0.4725  4.8563 -2.1200
  771MOL0     O 6261   4.687   5.472   1.182  0.6963  0.2179  0.6199
  771MOL0     C 6262   4.574   5.510   1.223 -0.9517  0.0177  1.1071
  771MOL0     O 6263   4.539   5.640   1.199 -0.2579  0.6931 -0.8664
  771MOL0     C 6264   4.621   5.723   1.119 -0.3489 -0.2402  0.2679
  771MOL0     C 6265   4.691   5.830   1.175 -1.0158 -1.5582 -0.6091
  771MOL0     C 6266   4.747   5.933   1.095 -0.1988  0.2682 -0.2164
  771MOL0     C 6267   4.749   5.917   0.951 -0.0102 -0.2179  0.0743
  771MOL0     O 6268   4.813   6.005   0.880 -0.4903 -0.2416  0.2922
  771MOL0     C 6269   4.733   6.122   0.874  0.0424  0.1984 -0.0096
  771MOL0     C 6270   4.829   6.235   0.865 -0.2379  0.5456  0.5348
  771MOL0     C 6271   4.921   6.235   0.742 -0.3376  0.6811 -0.1015
  771MOL0     C 6272   5.031   6.336   0.752  0.3130  0.1377 -0.2413
  771MOL0     C 6273   5.115   6.338   0.625 -0.5051 -0.4448  0.9218
  771MOL0     C 6274   5.051   6.422   0.512 -0.4078 -0.5430 -0.7491
  771MOL0     C 6275   5.169   6.497   0.443 -0.0032  0.4537  0.2216
  771MOL0     C 6276   5.236   6.426   0.328  0.8892  0.5310 -0.2775
  771MOL0     N 6277   5.344   6.505   0.280  0.3305 -0.0150 -0.4235
  771MOL0     C 6278   5.459   6.455   0.222  0.1802 -0.2635  0.0817
  771MOL0     C 6279   5.533   6.573   0.215 -0.3013  0.0163  0.5468
  771MOL0     C 6280   5.677   6.565   0.177  0.4950 -0.2645  0.2158
  771MOL0     C 6281   5.777   6.526   0.292 -0.0749  0.5726  0.6889
  771MOL0     C 6282   5.903   6.453   0.226 -0.2233  0.0320 -0.4572
  771MOL0     C 6283   6.012   6.416   0.335  0.0273  1.3428 -0.0236
  771MOL0     O 6284   5.944   6.357   0.447  0.0447 -0.0647 -0.5851
  771MOL0     C 6285   6.002   6.369   0.580  0.1583  0.1583 -0.2014
  771MOL0     C 6286   6.136   6.418   0.600  1.1120 -0.5781  0.1119
  771MOL0     C 6287   6.201   6.407   0.716 -0.1919  0.4486  0.7556
  771MOL0     C 6288   6.344   6.460   0.716  0.6937 -0.5235  1.3691
  771MOL0     C 6289   6.135   6.347   0.826  0.4476  0.2695  0.1563
  771MOL0     C 6290   6.202   6.320   0.960 -0.0544  0.4364 -0.5133
  771MOL0     O 6291   6.125   6.257   1.052  0.2075  0.6035  0.4394
  771MOL0     C 6292   6.181   6.240   1.174 -0.1787  0.8265  0.8863
  771MOL0     C 6293   6.166   6.337   1.269 -0.6301  0.0309 -0.2858
  771MOL0     C 6294   6.242   6.329   1.381 -0.6231 -0.2776  0.1684
  771MOL0     C 6295   6.308   6.215   1.416  0.3001  0.4191 -0.3491
  771MOL0     O 6296   6.361   6.224   1.541 -0.5129 -0.2507  0.1116
  771MOL0     C 6297   6.498   6.193   1.541  0.5028 -0.5629 -0.5944
  771MOL0     C 6298   6.597   6.320   1.541  1.0222 -0.9113 -0.0099
  771MOL0     C 6299   6.563   6.438   1.449  0.4338 -0.2717  0.1962
  771MOL0     C 6300   6.574   6.407   1.300 -0.6330  0.9448 -0.4739
  771MOL0     C 6301   6.623   6.526   1.221 -0.5566  0.6853 -0.7542
  771MOL0     C 6302   6.637   6.513   1.066  0.4978 -0.4142  0.1829
  771MOL0     C 6303   6.682   6.642   1.000  0.2021  0.2250  0.6232
  771MOL0     C 6304   6.836   6.642   0.993 -0.0282 -0.3746  0.1812
  771MOL0    Cl 6305   6.884   6.762   0.864 -0.0361 -0.4036 -0.2247
  771MOL0     C 6306   6.319   6.115   1.333  1.1559  0.4156  0.1056
  771MOL0     C 6307   6.256   6.124   1.206 -0.6511  0.1827  0.1430
  771MOL0     O 6308   6.305   6.378   0.987  0.2541  0.3170  0.2643
  771MOL0     C 6309   5.996   6.307   0.815  0.3266  0.5901  1.0610
  771MOL0     C 6310   5.928   6.313   0.692 -0.4058 -0.1671  0.7647
  771MOL0     N 6311   5.470   6.684   0.250  1.1424 -0.0150  0.4388
  771MOL0     N 6312   5.351   6.641   0.291  0.4978 -0.2675 -0.2689
  771MOL0     C 6313   4.682   5.805   0.896 -0.3998 -0.3587  0.4159
  771MOL0     C 6314   4.618   5.713   0.982 -0.1830 -0.2387  0.4664
  771MOL0     C 6315   4.478   5.413   1.287 -0.6970 -0.0443 -0.1079
  771MOL0     C 6316   4.542   5.321   1.370  0.3764 -0.3737 -0.3109
  771MOL0     C 6317   4.470   5.222   1.434  0.0615 -0.2042 -0.3757
  771MOL0     C 6318   4.332   5.201   1.407 -0.3462 -0.0391 -0.7941
  771MOL0     O 6319   4.265   5.116   1.491  0.1500 -0.2087  0.1198
  771MOL0     C 6320   4.229   5.172   1.609 -0.1237  0.1242 -0.2006
  771MOL0     C 6321   4.131   5.083   1.690 -1.1587 -0.3508  0.2177
  771MOL0     C 6322   4.185   4.936   1.690  0.6374  0.0042 -0.1480
  771MOL0     C 6323   4.113   4.861   1.810  0.2311  0.5010 -0.4371
  771MOL0     C 6324   4.169   4.727   1.815  0.4108  1.0747  0.0915
  771MOL0     C 6325   4.233   4.619   1.817  0.7190  0.8717  0.3352
  771MOL0     C 6326   4.268   5.291   1.324 -0.8795  0.6536 -0.4260
  771MOL0     C 6327   4.338   5.402   1.272  1.1690 -0.2150  0.3295
  771MOL0     C 6328   4.275   5.505   1.193  0.5958 -0.7155  0.0187
  771MOL0     H 6329   4.677   5.842   1.281  0.1476  1.5172 -0.6943
  771MOL0     H 6330   4.784   6.025   1.139 -0.8983 -0.6953  2.6320
  771MOL0     H 6331   4.675   6.138   0.965 -0.5538  0.8972 -0.5093
  771MOL0     H 6332   4.668   6.113   0.787 -0.8584 -0.7904  0.7471
  771MOL0     H 6333   4.772   6.327   0.878  0.2823  0.9441  0.0494
  771MOL0     H 6334   4.896   6.236   0.951  1.0584 -0.4939 -0.4214
  771MOL0     H 6335   4.963   6.136   0.721 -0.2755  0.5644  0.5364
  771MOL0     H 6336   4.861   6.252   0.652  1.8284  0.6795 -1.6264
  771MOL0     H 6337   4.984   6.435   0.756  1.2071  0.6510 -1.4070
  771MOL0     H 6338   5.084   6.309   0.843  2.3786  2.7691 -0.5167
  771MOL0     H 6339   5.129   6.234   0.594 -0.3638 -0.1113 -0.1630
  771MOL0     H 6340   5.217   6.369   0.648  0.5104 -0.4347 -2.8881
  771MOL0     H 6341   4.993   6.355   0.447 -1.2848 -2.7824  2.1184
  771MOL0     H 6342   4.979   6.489   0.560 -0.9413 -1.7034  0.1087
  771MOL0     H 6343   5.240   6.522   0.523  0.0222 -1.4090  0.8393
  771MOL0     H 6344   5.133   6.595   0.412  2.7505  2.2541  2.1730
  771MOL0     H 6345   5.261   6.323   0.352 -2.3259 -0.4110 -0.5888
  771MOL0     H 6346   5.164   6.421   0.246  0.8733  0.1984 -0.2422
  771MOL0     H 6347   5.490   6.356   0.192 -0.5355  0.0629 -1.8807
  771MOL0     H 6348   5.693   6.665   0.136  0.6512  0.4397  1.9347
  771MOL0     H 6349   5.695   6.510   0.084 -0.3937  2.9192 -2.0134
  771MOL0     H 6350   5.811   6.617   0.342  1.1763  1.0522 -0.9255
  771MOL0     H 6351   5.736   6.458   0.366  0.1022 -2.1306 -1.5361
  771MOL0     H 6352   5.874   6.362   0.172  1.9932  0.2020 -2.0900
  771MOL0     H 6353   5.951   6.515   0.150  0.9064 -2.0555 -1.5161
  771MOL0     H 6354   6.077   6.341   0.289 -0.2595  0.6527  0.6686
  771MOL0     H 6355   6.080   6.499   0.358  2.0595  0.4093 -2.2371
  771MOL0     H 6356   6.193   6.446   0.512  0.9165 -1.3224 -0.2564
  771MOL0     H 6357   6.422   6.398   0.762  2.1621 -0.6296 -1.0953
  771MOL0     H 6358   6.341   6.553   0.774  0.8936 -0.4490  1.2617
  771MOL0     H 6359   6.386   6.470   0.616 -0.3700  1.2248  1.0612
  771MOL0     H 6360   6.114   6.430   1.247 -1.3118 -0.2863 -0.0369
  771MOL0     H 6361   6.240   6.421   1.439  1.1870  0.7294 -1.2638
  771MOL0     H 6362   6.518   6.133   1.630 -1.2079 -0.6305 -0.2323
  771MOL0     H 6363   6.528   6.126   1.460  0.1198 -1.0490 -0.3431
  771MOL0     H 6364   6.601   6.358   1.643  1.9634  0.0981 -0.3989
  771MOL0     H 6365   6.695   6.278   1.517  0.8963 -0.6455 -1.0861
  771MOL0     H 6366   6.627   6.520   1.484  0.6034  1.3597 -3.4198
  771MOL0     H 6367   6.459   6.462   1.471  0.5588  0.2663  0.2231
  771MOL0     H 6368   6.483   6.359   1.261 -0.1336 -1.0751  0.7255
  771MOL0     H 6369   6.651   6.330   1.289 -1.3179  0.3059 -0.9920
  771MOL0     H 6370   6.562   6.611   1.252  2.6047  2.5919  0.8758
  771MOL0     H 6371   6.723   6.546   1.261 -0.7934 -0.3244  0.4163
  771MOL0     H 6372   6.538   6.480   1.032  0.8369 -2.3230  0.9304
  771MOL0     H 6373   6.712   6.438   1.041 -0.3034 -0.1908 -3.3656
  771MOL0     H 6374   6.659   6.733   1.056  2.4781  1.6652 -0.5797
  771MOL0     H 6375   6.643   6.648   0.898  0.6576  1.5415  0.5012
  771MOL0     H 6376   6.878   6.548   0.957 -0.5746 -0.2528 -0.8039
  771MOL0     H 6377   6.882   6.663   1.090  0.6356 -0.4775 -0.1124
  771MOL0     H 6378   6.376   6.026   1.356 -0.2689 -1.3804 -2.7529
  771MOL0     H 6379   6.267   6.040   1.139 -0.2991 -0.2975  0.7860
  771MOL0     H 6380   5.941   6.269   0.901 -2.6455  0.8492 -0.6036
  771MOL0     H 6381   5.828   6.284   0.661 -1.1418  0.2912  2.5938
  771MOL0     H 6382   4.679   5.795   0.788  3.1358  3.8089 -0.3135
  771MOL0     H 6383   4.563   5.627   0.944 -0.5208 -0.0540  0.5371
  771MOL0     H 6384   4.644   5.342   1.401 -0.4493  2.1213  0.9657
  771MOL0     H 6385   4.512   5.175   1.521  1.0323  2.3694  0.6370
  771MOL0     H 6386   4.317   5.176   1.674 -1.0435  1.3128  1.0603
  771MOL0     H 6387   4.188   5.274   1.613 -1.2757 -0.2365 -1.9934
  771MOL0     H 6388   4.029   5.085   1.650 -0.8118 -0.9892 -0.7466
  771MOL0     H 6389   4.134   5.114   1.794  0.1673  1.2382 -0.2674
  771MOL0     H 6390   4.182   4.886   1.593 -1.1139 -0.1964 -0.0187
  771MOL0     H 6391   4.291   4.945   1.718  0.6210  0.3629 -0.2055
  771MOL0     H 6392   4.010   4.848   1.778  0.0365 -0.9819  0.6869
  771MOL0     H 6393   4.114   4.912   1.907 -2.4804  0.5486 -0.3697
  771MOL0     H 6394   4.285   4.525   1.813 -1.1264 -0.2073  0.5101
  771MOL0     H 6395   4.170   5.262   1.287 -1.1354  0.9319  0.0202
  771MOL0     H 6396   4.299   5.606   1.226  0.0251  0.0302 -1.7423
  771MOL0     H 6397   4.306   5.509   1.088  0.4438 -0.1003 -0.0046
  771MOL0     H 6398   4.165   5.502   1.189  0.5437  0.8709 -0.4305
  772MOL0     O 6399  10.310  10.376   3.190 -0.3534  1.0315  0.2993
  772MOL0     C 6400  10.220  10.307   3.226 -0.4728 -0.8992  0.1438
  772MOL0     O 6401  10.214  10.177   3.200 -0.0216 -0.3685 -0.0261
  772MOL0     C 6402  10.304  10.114   3.126 -0.0144  0.1799  0.9777
  772MOL0     C 6403  10.262  10.028   3.021  0.1431  0.0606  0.5588
  772MOL0     C 6404  10.357   9.954   2.948 -0.0442  0.0992 -0.0789
  772MOL0     C 6405  10.494   9.982   2.956 -0.4335  0.3887  0.4368
  772MOL0     O 6406  10.577   9.925   2.865  0.4001  0.4252 -1.2351
  772MOL0     C 6407  10.614   9.796   2.903  0.9305  0.3400 -0.3723
  772MOL0     C 6408  10.759   9.774   2.886 -0.5615  0.0449 -0.0697
  772MOL0     C 6409  10.831   9.868   2.984  0.0058  0.5847 -0.3803
  772MOL0     C 6410  10.975   9.811   3.002  0.5983 -0.5724  0.3423
  772MOL0     C 6411  11.029   9.876   3.120  1.0151 -0.0960 -0.1393
  772MOL0     C 6412  11.177   9.853   3.151 -0.0760  0.0111 -0.1135
  772MOL0     C 6413  11.212   9.911   3.295 -0.0627 -0.3228  0.6141
  772MOL0     C 6414  11.359   9.898   3.336  0.7094 -0.8790 -0.6801
  772MOL0     N 6415  11.454   9.960   3.234 -0.1611 -0.4177 -0.8815
  772MOL0     C 6416  11.558   9.885   3.170  0.2000  0.1122 -0.0355
  772MOL0     C 6417  11.655   9.973   3.144  0.7539 -0.5059  0.2647
  772MOL0     C 6418  11.784   9.935   3.085 -0.2975  0.2289 -0.1921
  772MOL0     C 6419  11.865   9.868   3.201  0.4009  0.2688 -0.5289
  772MOL0     C 6420  12.011   9.835   3.165  0.6278 -0.0111 -0.4462
  772MOL0     C 6421  12.017   9.727   3.063  0.0076 -0.1544  0.0986
  772MOL0     O 6422  12.027   9.774   2.927  0.3495  0.0083  0.8417
  772MOL0     C 6423  12.047   9.683   2.834 -0.3348 -0.1820  0.3447
  772MOL0     C 6424  12.044   9.731   2.708  0.3185 -0.2264  0.5124
  772MOL0     C 6425  12.047   9.650   2.590  0.4490 -0.7499  0.2394
  772MOL0     C 6426  12.031   9.722   2.452 -0.1399 -0.6508  0.8045
  772MOL0     C 6427  12.065   9.509   2.602 -1.1620 -0.0869 -1.1646
  772MOL0     C 6428  12.067   9.407   2.487 -0.7759  0.0275  0.0853
  772MOL0     O 6429  12.117   9.289   2.520  0.0016 -0.0084 -0.0194
  772MOL0     C 6430  12.154   9.191   2.432 -0.0601 -0.2824 -0.1454
  772MOL0     C 6431  12.089   9.165   2.318  0.2016  0.3664 -0.7771
  772MOL0     C 6432  12.129   9.042   2.256  0.3570 -0.8179 -0.1326
  772MOL0     C 6433  12.221   8.949   2.304  0.0548  0.4336  2.1350
  772MOL0     O 6434  12.257   8.838   2.223 -0.0001 -0.4650  0.6991
  772MOL0     C 6435  12.300   8.719   2.292 -0.3403  0.5227 -0.7474
  772MOL0     C 6436  12.271   8.601   2.194  0.6173  0.0037  0.3111
  772MOL0     C 6437  12.339   8.613   2.059  0.3192 -0.0292 -0.4477
  772MOL0     C 6438  12.486   8.578   2.062 -0.6556 -1.2348 -0.3351
  772MOL0     C 6439  12.515   8.579   1.905  0.3408  0.8062 -0.4737
  772MOL0     C 6440  12.663   8.586   1.875 -0.6767 -0.1137  0.1596
  772MOL0     C 6441  12.708   8.547   1.730  0.1726  0.4531  0.5636
  772MOL0     C 6442  12.717   8.397   1.701  0.6167 -0.6789  0.1039
  772MOL0    Cl 6443  12.825   8.315   1.811  0.2245 -0.6013 -0.3577
  772MOL0     C 6444  12.271   8.970   2.428 -0.1861  0.0190 -0.2214
  772MOL0     C 6445  12.241   9.095   2.494  0.2342  0.2813 -0.0689
  772MOL0     O 6446  12.043   9.440   2.376  0.6253 -0.1562 -0.1652
  772MOL0     C 6447  12.076   9.461   2.742 -0.2576 -0.7696  0.3128
  772MOL0     C 6448  12.057   9.548   2.849 -0.6674 -0.3960  0.1176
  772MOL0     N 6449  11.611  10.097   3.189  0.1273 -0.2319  0.7383
  772MOL0     N 6450  11.498  10.086   3.240 -0.4603  0.0398  0.5499
  772MOL0     C 6451  10.534  10.077   3.049  0.7701 -0.5795 -0.3329
  772MOL0     C 6452  10.446  10.133   3.139  0.7448  0.3681 -0.0561
  772MOL0     C 6453  10.126  10.364   3.313  0.1113 -0.6225  0.0658
  772MOL0     C 6454  10.094  10.504   3.299 -0.6725  0.9149 -0.6608
  772MOL0     C 6455   9.989  10.571   3.367 -1.1198  0.1567  0.3546
  772MOL0     C 6456   9.911  10.496   3.452 -0.7020 -0.1037 -0.8252
  772MOL0     O 6457   9.810  10.559   3.505  0.2354 -0.0710  0.1890
  772MOL0     C 6458   9.722  10.495   3.592  0.1794 -0.4005  0.6969
  772MOL0     C 6459   9.601  10.578   3.633 -0.1376 -0.0607 -0.2642
  772MOL0     C 6460   9.522  10.658   3.521  0.7547  0.0385  0.2161
  772MOL0     C 6461   9.437  10.568   3.422 -0.5082  1.1755 -0.6794
  772MOL0     C 6462   9.355  10.489   3.520  0.0933 -0.1842 -0.5168
  772MOL0     C 6463   9.295  10.409   3.595 -0.6106 -0.1670 -0.3907
  772MOL0     C 6464   9.939  10.356   3.464 -0.5470  0.4839 -0.1523
  772MOL0     C 6465  10.045  10.293   3.402 -0.4038  0.0895 -0.2280
  772MOL0     C 6466  10.064  10.148   3.426  0.3518 -0.5397 -0.0712
  772MOL0     H 6467  10.159  10.004   2.999  0.0773  1.6704 -1.2765
  772MOL0     H 6468  10.318   9.882   2.878  1.6690 -0.7192 -0.2469
  772MOL0     H 6469  10.560   9.717   2.850  1.9099 -1.1502  0.7534
  772MOL0     H 6470  10.592   9.766   3.006  0.1403  2.4937  0.1284
  772MOL0     H 6471  10.789   9.670   2.900  2.4745  0.8901  0.4742
  772MOL0     H 6472  10.799   9.801   2.788  0.8626 -0.9995  0.1827
  772MOL0     H 6473  10.849   9.969   2.946  1.8179 -0.4110 -2.4599
  772MOL0     H 6474  10.777   9.872   3.079 -2.5401 -1.6224 -1.5905
  772MOL0     H 6475  10.990   9.705   3.020  1.8339 -1.2935 -3.7926
  772MOL0     H 6476  11.024   9.831   2.906 -0.7811 -0.2062 -0.3122
  772MOL0     H 6477  10.967   9.842   3.203  0.5120 -1.0496 -0.8973
  772MOL0     H 6478  11.020   9.985   3.107  0.6270  0.1878  2.0891
  772MOL0     H 6479  11.215   9.750   3.156  0.3578  0.1781  0.0398
  772MOL0     H 6480  11.242   9.903   3.079  2.6857 -0.8963  1.6013
  772MOL0     H 6481  11.154   9.855   3.369  1.2712 -1.5213  0.7985
  772MOL0     H 6482  11.177  10.013   3.307 -0.4896 -0.4060  0.1038
  772MOL0     H 6483  11.379   9.944   3.433 -3.9919  2.5323 -0.9941
  772MOL0     H 6484  11.375   9.792   3.360 -1.2455 -0.7095  1.7238
  772MOL0     H 6485  11.566   9.777   3.157  1.7879  0.3449 -1.3329
  772MOL0     H 6486  11.835  10.027   3.054  1.0714  0.2505  1.8657
  772MOL0     H 6487  11.781   9.861   3.004  0.7908  1.0771 -1.0479
  772MOL0     H 6488  11.879   9.927   3.292  0.0400 -1.7149  0.8892
  772MOL0     H 6489  11.803   9.782   3.228  1.9722  0.0816  3.0177
  772MOL0     H 6490  12.053   9.929   3.129 -0.1665  1.1575  1.5008
  772MOL0     H 6491  12.056   9.800   3.258 -0.5393  2.7633  1.2941
  772MOL0     H 6492  12.106   9.675   3.100 -0.3699 -1.2553 -0.4877
  772MOL0     H 6493  11.940   9.651   3.077  2.1452 -2.4321  0.1904
  772MOL0     H 6494  12.024   9.838   2.704  0.1668 -0.0851  3.2989
  772MOL0     H 6495  12.032   9.829   2.470  3.4306 -0.2891 -0.7778
  772MOL0     H 6496  11.936   9.695   2.403  0.4923 -0.9478 -0.2852
  772MOL0     H 6497  12.123   9.716   2.393  0.9828  0.1167  2.4126
  772MOL0     H 6498  12.016   9.232   2.273  1.7383  3.3334  0.8261
  772MOL0     H 6499  12.088   9.024   2.157  2.0474  1.9449 -1.4584
  772MOL0     H 6500  12.409   8.713   2.297 -0.4629 -1.2580  1.0474
  772MOL0     H 6501  12.236   8.715   2.381  0.4679  0.0786 -0.1712
  772MOL0     H 6502  12.307   8.502   2.224 -2.0987 -1.8815 -2.0354
  772MOL0     H 6503  12.165   8.590   2.170  1.0306 -0.7057 -1.3664
  772MOL0     H 6504  12.330   8.716   2.023  1.0601 -0.7093 -2.7587
  772MOL0     H 6505  12.278   8.555   1.989 -0.2256 -0.8015  0.6370
  772MOL0     H 6506  12.517   8.480   2.098  1.2940 -1.4442 -2.3295
  772MOL0     H 6507  12.544   8.658   2.109  1.9959 -2.5419 -1.1939
  772MOL0     H 6508  12.470   8.486   1.869 -1.0699  0.4703  1.9432
  772MOL0     H 6509  12.471   8.666   1.854  1.5768  0.4169 -2.3164
  772MOL0     H 6510  12.722   8.540   1.954  0.4366 -0.4011 -0.8197
  772MOL0     H 6511  12.683   8.693   1.883 -0.2504 -0.3157  2.6168
  772MOL0     H 6512  12.807   8.592   1.718  0.3720 -0.1002  0.0927
  772MOL0     H 6513  12.647   8.598   1.655  0.1932 -2.1568 -1.3383
  772MOL0     H 6514  12.759   8.371   1.604  2.9820 -1.8400  1.3373
  772MOL0     H 6515  12.617   8.356   1.711 -1.5718  4.2368  2.1109
  772MOL0     H 6516  12.346   8.914   2.483 -1.9500  0.0263  2.3859
  772MOL0     H 6517  12.302   9.111   2.582  0.4473 -2.4245  0.3538
  772MOL0     H 6518  12.076   9.353   2.751 -1.1412 -0.8191 -0.1734
  772MOL0     H 6519  12.075   9.516   2.952  2.1657  0.8077  0.0781
  772MOL0     H 6520  10.640  10.097   3.054  0.4177  2.1509 -1.7006
  772MOL0     H 6521  10.493  10.194   3.215  1.4931  0.0621 -0.2611
  772MOL0     H 6522  10.143  10.554   3.216  2.1089  0.2235  0.4405
  772MOL0     H 6523   9.974  10.677   3.355 -1.7412 -0.1282 -1.8843
  772MOL0     H 6524   9.683  10.407   3.540 -0.4205 -0.0901  0.6178
  772MOL0     H 6525   9.774  10.452   3.678  1.5749 -0.1999 -0.0064
  772MOL0     H 6526   9.646  10.647   3.705  1.0189 -0.2123 -0.8226
  772MOL0     H 6527   9.536  10.516   3.695  0.6749  0.5308  1.2590
  772MOL0     H 6528   9.458  10.730   3.573  1.1395 -0.4691  1.4264
  772MOL0     H 6529   9.591  10.725   3.469 -0.8525  2.0387  0.5174
  772MOL0     H 6530   9.506  10.508   3.363  2.4392  1.2352  2.3775
  772MOL0     H 6531   9.372  10.629   3.358  0.4065  0.9577 -1.8380
  772MOL0     H 6532   9.259  10.323   3.648 -0.8346 -0.8441 -1.6165
  772MOL0     H 6533   9.878  10.296   3.530  0.3248 -0.4437 -0.1680
  772MOL0     H 6534  10.013  10.085   3.352 -1.4012 -0.1031  0.7095
  772MOL0     H 6535  10.172  10.133   3.429  0.9319  2.4176 -1.9234
  772MOL0     H 6536  10.013  10.122   3.520 -1.9785  0.5337 -0.9533
  773MOL0     O 6537   6.425   9.895   7.815  0.4663  0.5232  0.1386
  773MOL0     C 6538   6.348   9.994   7.833 -0.6703  0.4133  0.3271
  773MOL0     O 6539   6.222   9.986   7.862  0.3976  0.6614  0.3831
  773MOL0     C 6540   6.158   9.871   7.819 -0.2873  0.0405 -0.2101
  773MOL0     C 6541   6.103   9.862   7.690  0.3600  0.0033  0.7372
  773MOL0     C 6542   6.032   9.758   7.642 -0.1239  0.1748  0.4059
  773MOL0     C 6543   6.009   9.648   7.726 -0.3539  0.0700 -0.2265
  773MOL0     O 6544   5.932   9.555   7.659 -1.1955  0.6209 -0.8490
  773MOL0     C 6545   5.914   9.426   7.721  0.0244  0.0162 -0.6048
  773MOL0     C 6546   5.812   9.344   7.643 -0.7008  0.3998  0.3686
  773MOL0     C 6547   5.793   9.206   7.707 -0.7783  0.2634 -0.6422
  773MOL0     C 6548   5.916   9.109   7.705 -0.1045 -0.0203  0.0621
  773MOL0     C 6549   5.878   8.977   7.784 -0.1393  0.2686 -1.0083
  773MOL0     C 6550   5.998   8.893   7.830  0.7560 -0.2625  0.4057
  773MOL0     C 6551   6.099   8.871   7.715 -0.1719  0.2549 -0.5260
  773MOL0     C 6552   6.205   8.983   7.680  0.9709 -0.4994  0.6992
  773MOL0     N 6553   6.287   9.008   7.795 -0.3172 -0.3084 -0.3347
  773MOL0     C 6554   6.420   8.970   7.808  0.1124 -0.7238  0.0833
  773MOL0     C 6555   6.465   9.017   7.920 -1.1846 -0.3669  0.7654
  773MOL0     C 6556   6.607   9.010   7.980  0.7702 -0.0792  0.2435
  773MOL0     C 6557   6.703   9.084   7.891  0.8328  0.6333  0.6106
  773MOL0     C 6558   6.848   9.068   7.946 -0.6551 -0.6738  0.2621
  773MOL0     C 6559   6.946   9.146   7.853  0.1850  0.8530  0.7646
  773MOL0     O 6560   6.963   9.272   7.908  0.3309 -0.1228  0.5196
  773MOL0     C 6561   7.079   9.339   7.880  0.7492 -0.4186 -0.0367
  773MOL0     C 6562   7.176   9.315   7.791 -0.4165  0.4657 -0.4201
  773MOL0     C 6563   7.296   9.394   7.784 -0.3885  0.3927  0.3293
  773MOL0     C 6564   7.403   9.348   7.684 -0.1547  0.6545 -0.2124
  773MOL0     C 6565   7.296   9.511   7.864 -0.5280  0.2771  0.8282
  773MOL0     C 6566   7.416   9.598   7.872  0.1766 -0.6414  0.6336
  773MOL0     O 6567   7.411   9.697   7.973 -0.0526  0.8796  0.6289
  773MOL0     C 6568   7.512   9.785   7.968 -0.0127 -0.1585 -0.1380
  773MOL0     C 6569   7.603   9.798   8.072  0.5416 -0.0694  0.5752
  773MOL0     C 6570   7.691   9.907   8.080  0.3586 -0.3943  0.3906
  773MOL0     C 6571   7.690   9.996   7.971  0.2903 -1.3993 -0.8239
  773MOL0     O 6572   7.784  10.098   7.981  0.4268 -0.6766  0.3746
  773MOL0     C 6573   7.751  10.223   7.921 -0.0713  0.1166 -0.4708
  773MOL0     C 6574   7.864  10.326   7.939  1.0614  0.2963  0.0374
  773MOL0     C 6575   7.822  10.472   7.900 -0.2694  0.5396 -0.6435
  773MOL0     C 6576   7.928  10.548   7.825  0.7678 -0.3513  0.1869
  773MOL0     C 6577   7.866  10.687   7.787 -0.0522 -0.2184  0.3284
  773MOL0     C 6578   7.951  10.755   7.686 -0.0405  0.1000  0.7072
  773MOL0     C 6579   7.934  10.911   7.683  0.4946  0.2615 -1.2236
  773MOL0     C 6580   7.789  10.970   7.678  0.5290  0.1656  0.2722
  773MOL0    Cl 6581   7.708  10.905   7.532 -0.2482 -0.0227  0.7300
  773MOL0     C 6582   7.587   9.985   7.876 -1.3597 -0.3725 -0.2548
  773MOL0     C 6583   7.499   9.881   7.873 -0.2506 -0.3934  0.4630
  773MOL0     O 6584   7.508   9.580   7.796 -0.3826  0.2305 -0.2045
  773MOL0     C 6585   7.188   9.542   7.947  0.6947  0.3713 -0.1795
  773MOL0     C 6586   7.078   9.453   7.962 -0.1014 -0.0702 -0.7541
  773MOL0     N 6587   6.364   9.069   7.988  0.6594 -0.3548  0.6284
  773MOL0     N 6588   6.257   9.070   7.914 -0.6029 -0.0688 -0.5552
  773MOL0     C 6589   6.054   9.654   7.856 -0.8040  1.1184 -0.0359
  773MOL0     C 6590   6.133   9.759   7.908  1.1187 -0.2764 -0.7513
  773MOL0     C 6591   6.420  10.127   7.803  1.0716 -0.5809 -1.1660
  773MOL0     C 6592   6.342  10.239   7.833  0.3606  0.9257  0.4199
  773MOL0     C 6593   6.396  10.366   7.815  0.9983  0.0771  0.7215
  773MOL0     C 6594   6.531  10.373   7.771  0.5529 -0.2014 -0.0594
  773MOL0     O 6595   6.595  10.488   7.747  0.0255  0.1412  0.6820
  773MOL0     C 6596   6.526  10.619   7.743  0.1180  0.3148 -1.6979
  773MOL0     C 6597   6.630  10.725   7.743  0.1813  0.3212 -0.6714
  773MOL0     C 6598   6.707  10.739   7.865  0.2023  0.6810  0.3268
  773MOL0     C 6599   6.836  10.649   7.884 -0.3065 -0.3244  0.5521
  773MOL0     C 6600   6.938  10.711   7.964  0.0286 -0.7378 -0.3619
  773MOL0     C 6601   7.012  10.766   8.046  0.4711 -0.8913 -0.3131
  773MOL0     C 6602   6.603  10.267   7.738  0.2028  0.6495  0.3473
  773MOL0     C 6603   6.556  10.140   7.747  1.2690  0.1335 -0.2169
  773MOL0     C 6604   6.631  10.029   7.672 -0.5164 -0.0492  0.1839
  773MOL0     H 6605   6.121   9.943   7.620 -0.6539 -1.1624 -0.9304
  773MOL0     H 6606   5.990   9.763   7.542 -3.7201 -1.8690  1.6343
  773MOL0     H 6607   5.867   9.452   7.816 -2.9062 -0.1293 -1.8816
  773MOL0     H 6608   6.010   9.377   7.735 -0.9001 -1.1888  2.1316
  773MOL0     H 6609   5.723   9.407   7.645  1.8610  4.3249  0.4652
  773MOL0     H 6610   5.838   9.325   7.538  2.2696  0.6265  0.9893
  773MOL0     H 6611   5.761   9.232   7.809 -0.4925  1.8987 -0.9353
  773MOL0     H 6612   5.704   9.153   7.672  0.5950 -2.0081 -0.8858
  773MOL0     H 6613   5.936   9.088   7.600  0.3771 -2.6467  0.6200
  773MOL0     H 6614   5.995   9.163   7.759  0.6181 -2.3336  1.4724
  773MOL0     H 6615   5.819   8.905   7.725 -1.9434 -0.5849  1.6402
  773MOL0     H 6616   5.820   9.008   7.872 -1.6080  0.1658 -1.8981
  773MOL0     H 6617   6.048   8.938   7.917 -1.2162  0.4358  1.2347
  773MOL0     H 6618   5.954   8.796   7.857 -1.6037 -0.0671 -2.3236
  773MOL0     H 6619   6.040   8.843   7.627 -1.3575  2.9858 -0.7049
  773MOL0     H 6620   6.163   8.788   7.746 -0.8218  0.3774  1.3047
  773MOL0     H 6621   6.274   8.956   7.600 -0.5072 -4.0411  0.4408
  773MOL0     H 6622   6.164   9.081   7.651 -0.6719 -0.3208  3.2403
  773MOL0     H 6623   6.484   8.900   7.754  1.4598  0.1347  0.5040
  773MOL0     H 6624   6.641   8.907   7.990  2.9213  0.3769 -1.6221
  773MOL0     H 6625   6.589   9.065   8.073 -0.4212  0.0754 -0.0588
  773MOL0     H 6626   6.688   9.041   7.791 -0.6130  0.3975  0.9022
  773MOL0     H 6627   6.681   9.192   7.886  0.8437  0.6152  0.0438
  773MOL0     H 6628   6.857   9.116   8.043  1.7504  1.3860 -0.8733
  773MOL0     H 6629   6.867   8.963   7.969 -1.5997 -0.6397  1.2831
  773MOL0     H 6630   7.048   9.108   7.859  0.0316  0.6455  2.3957
  773MOL0     H 6631   6.909   9.135   7.750  0.7245  2.1716  0.4134
  773MOL0     H 6632   7.160   9.230   7.726 -0.2364 -0.0842  0.2451
  773MOL0     H 6633   7.365   9.276   7.611  0.4833 -0.2931  0.3769
  773MOL0     H 6634   7.482   9.294   7.736 -3.1395 -1.2745  2.6926
  773MOL0     H 6635   7.448   9.425   7.619  2.0719  0.1367  0.6211
  773MOL0     H 6636   7.591   9.732   8.157 -1.3074 -1.6345 -0.8266
  773MOL0     H 6637   7.755   9.917   8.167  0.9650 -0.2266 -0.0654
  773MOL0     H 6638   7.726  10.217   7.814 -2.1616  0.0024 -0.0138
  773MOL0     H 6639   7.674  10.259   7.990  0.5117  0.2901  0.0964
  773MOL0     H 6640   7.899  10.327   8.043 -0.6830 -2.6797  0.7796
  773MOL0     H 6641   7.946  10.298   7.873 -0.8753  0.1583 -2.4660
  773MOL0     H 6642   7.798  10.517   7.996  3.6219  0.1884  0.6612
  773MOL0     H 6643   7.734  10.476   7.836  1.4022 -0.5883 -3.1952
  773MOL0     H 6644   7.946  10.487   7.736  0.2920 -0.6557  0.2924
  773MOL0     H 6645   8.024  10.577   7.869  0.6247  0.2204  0.1343
  773MOL0     H 6646   7.761  10.681   7.755 -0.0978 -1.0833  0.6282
  773MOL0     H 6647   7.856  10.754   7.873  0.5926  0.5419 -0.1671
  773MOL0     H 6648   7.909  10.719   7.591  1.4517 -0.0902  0.0819
  773MOL0     H 6649   8.059  10.735   7.696  0.4798  2.3202  0.0401
  773MOL0     H 6650   7.996  10.930   7.595  1.3542 -3.6285 -1.6372
  773MOL0     H 6651   7.992  10.950   7.768 -0.6820  0.5466 -0.5255
  773MOL0     H 6652   7.802  11.078   7.667 -2.5536  0.7209  1.0973
  773MOL0     H 6653   7.723  10.945   7.761  1.6575 -1.3633  0.7536
  773MOL0     H 6654   7.585  10.058   7.795  2.9716 -2.0986 -2.2452
  773MOL0     H 6655   7.428   9.865   7.792 -1.2951 -0.6818  1.4101
  773MOL0     H 6656   7.183   9.632   8.008 -2.0526  1.5569 -1.9476
  773MOL0     H 6657   6.980   9.461   8.007 -0.5135  1.2286 -1.8184
  773MOL0     H 6658   6.027   9.572   7.921 -1.9815  2.8841  1.7904
  773MOL0     H 6659   6.176   9.761   8.008 -0.2189  0.7209 -0.1649
  773MOL0     H 6660   6.244  10.226   7.877  0.3774 -0.6742  0.0405
  773MOL0     H 6661   6.332  10.454   7.822  0.2773 -0.4457  0.7756
  773MOL0     H 6662   6.470  10.615   7.649 -0.4416 -2.1700 -1.3011
  773MOL0     H 6663   6.456  10.639   7.824  2.7315 -1.4597  1.2030
  773MOL0     H 6664   6.571  10.816   7.725 -2.0714 -0.6377  1.2781
  773MOL0     H 6665   6.699  10.719   7.659  0.8343  1.8307 -0.2742
  773MOL0     H 6666   6.738  10.844   7.875 -2.8238  1.6043  0.9614
  773MOL0     H 6667   6.644  10.717   7.952  0.2421 -0.4221  0.0866
  773MOL0     H 6668   6.874  10.635   7.782  2.1394  2.1892  1.0231
  773MOL0     H 6669   6.808  10.551   7.925 -1.5386  0.3204  1.3081
  773MOL0     H 6670   7.077  10.817   8.114 -1.9105 -0.5238  1.8202
  773MOL0     H 6671   6.706  10.278   7.704  0.3524  0.6123  0.7886
  773MOL0     H 6672   6.679   9.960   7.742 -0.0957  0.7391  0.6885
  773MOL0     H 6673   6.571   9.972   7.601 -0.3290 -0.3846  0.2889
  773MOL0     H 6674   6.716  10.065   7.612 -1.3286 -3.7873 -3.7548
  774MOL0     O 6675   2.037   7.730  10.342  0.2955  0.7211 -0.2480
  774MOL0     C 6676   2.140   7.800  10.353 -0.0080 -0.0716 -0.5660
  774MOL0     O 6677   2.186   7.863  10.462  1.1234 -0.4721  0.0861
  774MOL0     C 6678   2.096   7.869  10.573 -0.3667  0.2057  0.5351
  774MOL0     C 6679   2.073   7.988  10.636  0.3273  0.3746  0.2894
  774MOL0     C 6680   1.998   7.985  10.757  0.0720  0.2296  1.1655
  774MOL0     C 6681   1.943   7.872  10.810 -0.1949  1.3930 -0.2709
  774MOL0     O 6682   1.849   7.873  10.904 -0.6970 -0.3207  0.1581
  774MOL0     C 6683   1.842   7.983  11.001 -0.6434  0.1258 -0.2432
  774MOL0     C 6684   1.729   7.948  11.102 -0.9733 -0.4744 -0.6047
  774MOL0     C 6685   1.715   8.068  11.207 -0.1696  1.1192  0.1730
  774MOL0     C 6686   1.614   8.035  11.311  0.0932  0.5835  0.3972
  774MOL0     C 6687   1.593   8.150  11.411 -0.1909  0.5467 -0.3140
  774MOL0     C 6688   1.719   8.186  11.489 -0.7820  0.6775  0.8893
  774MOL0     C 6689   1.686   8.301  11.597  0.1570 -0.3067  0.3517
  774MOL0     C 6690   1.780   8.293  11.726  0.7495 -0.3979 -0.0063
  774MOL0     N 6691   1.918   8.286  11.683 -0.1084  0.2264 -0.0639
  774MOL0     C 6692   1.986   8.167  11.637 -0.0559  0.5809 -0.3935
  774MOL0     C 6693   2.119   8.208  11.613 -0.0742  0.9483  0.1791
  774MOL0     C 6694   2.224   8.132  11.539  0.0489 -0.2889  0.0067
  774MOL0     C 6695   2.225   8.148  11.383 -1.5378  0.1046 -0.9841
  774MOL0     C 6696   2.113   8.080  11.311  0.5493  0.3086 -0.2063
  774MOL0     C 6697   2.116   7.924  11.321 -0.4170 -0.1058 -0.0432
  774MOL0     O 6698   1.989   7.876  11.282  0.1495  0.0405  0.4712
  774MOL0     C 6699   1.985   7.739  11.292  0.7275  0.6709 -1.0872
  774MOL0     C 6700   1.946   7.680  11.413 -0.6008  0.5268 -0.0083
  774MOL0     C 6701   1.940   7.541  11.418 -0.4798  0.3712 -0.6702
  774MOL0     C 6702   1.909   7.482  11.559 -1.1560  1.0615  0.7479
  774MOL0     C 6703   1.947   7.464  11.295  0.2443 -0.3849 -0.7190
  774MOL0     C 6704   1.948   7.318  11.297  0.0997 -0.5638 -0.5743
  774MOL0     O 6705   2.016   7.256  11.199  0.7031  0.3423 -0.0920
  774MOL0     C 6706   2.043   7.127  11.215 -0.4310  0.3984 -0.0125
  774MOL0     C 6707   2.082   7.057  11.328  0.3540  0.0940 -0.6330
  774MOL0     C 6708   2.119   6.924  11.320 -0.1202  0.2015 -0.8401
  774MOL0     C 6709   2.113   6.851  11.198  0.7804 -0.6344 -0.1601
  774MOL0     O 6710   2.154   6.719  11.196 -0.2164  0.3488  0.1977
  774MOL0     C 6711   2.172   6.639  11.312 -0.0498  0.3357 -0.4777
  774MOL0     C 6712   2.188   6.495  11.257  0.2092  0.9710  0.0596
  774MOL0     C 6713   2.234   6.406  11.372  0.4388 -0.0777  0.1901
  774MOL0     C 6714   2.220   6.253  11.342  0.2206 -0.0435  0.0702
  774MOL0     C 6715   2.225   6.163  11.463 -0.0882  0.3699 -0.6418
  774MOL0     C 6716   2.089   6.164  11.534 -0.0145 -1.0061 -1.4426
  774MOL0     C 6717   2.094   6.061  11.650  0.0257 -0.0754 -0.4191
  774MOL0     C 6718   1.964   6.062  11.736 -0.9600  0.0090  0.8131
  774MOL0    Cl 6719   1.964   6.175  11.881  0.1254 -0.2370 -0.1652
  774MOL0     C 6720   2.089   6.927  11.081 -0.9698 -0.0598 -1.4169
  774MOL0     C 6721   2.055   7.062  11.094 -0.1347  0.7241 -0.1224
  774MOL0     O 6722   1.886   7.260  11.381 -0.0722  0.1746 -0.2435
  774MOL0     C 6723   1.975   7.528  11.176 -0.7425 -0.7310 -0.2658
  774MOL0     C 6724   1.996   7.666  11.176 -0.5933 -0.6561  0.2294
  774MOL0     N 6725   2.126   8.337  11.659  1.0403  0.2189 -0.1357
  774MOL0     N 6726   2.009   8.383  11.696 -0.0185 -0.0990  0.1255
  774MOL0     C 6727   1.964   7.748  10.738 -0.3832 -0.0304 -0.2039
  774MOL0     C 6728   2.046   7.747  10.625  0.0892 -0.9047 -1.1332
  774MOL0     C 6729   2.230   7.802  10.233 -0.5484 -0.8024  0.4005
  774MOL0     C 6730   2.362   7.843  10.246  0.7575  0.7064 -2.1333
  774MOL0     C 6731   2.460   7.841  10.151  0.4107 -0.2679  0.3014
  774MOL0     C 6732   2.438   7.771  10.032 -0.1794  0.3227  0.2020
  774MOL0     O 6733   2.540   7.755   9.950  0.2137 -0.0931  0.1235
  774MOL0     C 6734   2.517   7.706   9.817 -0.4340 -0.4512 -0.0336
  774MOL0     C 6735   2.466   7.820   9.730 -0.2499  0.3915  0.5278
  774MOL0     C 6736   2.499   7.790   9.582 -0.2759 -0.4130  0.8417
  774MOL0     C 6737   2.426   7.665   9.528  0.2349  0.5670  0.4707
  774MOL0     C 6738   2.280   7.675   9.524 -0.6802 -0.4851  0.0211
  774MOL0     C 6739   2.163   7.695   9.521  0.4108  0.1122 -0.7792
  774MOL0     C 6740   2.309   7.718  10.016  1.2597  0.1331  0.6134
  774MOL0     C 6741   2.200   7.739  10.105 -0.4993  0.1751 -0.6697
  774MOL0     C 6742   2.062   7.679  10.078 -0.1342  0.3899  0.7803
  774MOL0     H 6743   2.132   8.075  10.609  2.4167 -0.4088  1.9946
  774MOL0     H 6744   1.973   8.080  10.802 -4.1820 -0.9077  1.6692
  774MOL0     H 6745   1.833   8.078  10.948  1.0943  0.4390 -0.0238
  774MOL0     H 6746   1.938   7.988  11.052 -1.5316 -0.6353  1.5973
  774MOL0     H 6747   1.645   7.943  11.032 -0.2602 -1.9093 -1.4005
  774MOL0     H 6748   1.745   7.853  11.154  2.8180 -0.5445 -1.5679
  774MOL0     H 6749   1.814   8.089  11.248  0.2747  1.6158 -1.0876
  774MOL0     H 6750   1.685   8.153  11.145  0.1032  1.1017  0.0142
  774MOL0     H 6751   1.524   8.016  11.251  0.2550 -2.3837  0.9569
  774MOL0     H 6752   1.639   7.939  11.357  3.9412  0.7191 -1.0435
  774MOL0     H 6753   1.524   8.107  11.484 -0.0168  0.4316 -0.2193
  774MOL0     H 6754   1.559   8.240  11.359  1.1082  0.6867 -0.9728
  774MOL0     H 6755   1.746   8.093  11.539  1.2523 -0.2406 -1.6625
  774MOL0     H 6756   1.803   8.220  11.428 -0.7080  2.0300  1.6992
  774MOL0     H 6757   1.580   8.308  11.622  0.2690  2.1856  0.4653
  774MOL0     H 6758   1.711   8.398  11.552  0.8012 -2.1991 -3.8180
  774MOL0     H 6759   1.785   8.385  11.786  5.5912 -1.6957  2.1126
  774MOL0     H 6760   1.745   8.210  11.789 -0.6195  1.6779  2.1194
  774MOL0     H 6761   1.938   8.070  11.630  0.4242  0.1406  1.6590
  774MOL0     H 6762   2.211   8.028  11.571  0.6101 -0.1374  0.7621
  774MOL0     H 6763   2.324   8.169  11.561 -0.5930  3.0354 -1.8781
  774MOL0     H 6764   2.222   8.256  11.361  1.9238  0.7844  1.1756
  774MOL0     H 6765   2.325   8.127  11.344 -1.2693  2.5091 -1.8168
  774MOL0     H 6766   2.017   8.126  11.338  0.3999  0.1140 -0.3965
  774MOL0     H 6767   2.134   8.125  11.214 -3.4166  3.6105  0.1795
  774MOL0     H 6768   2.188   7.884  11.249 -0.4431  0.3095 -0.3000
  774MOL0     H 6769   2.155   7.891  11.418 -0.2536 -1.4586 -0.5447
  774MOL0     H 6770   1.928   7.735  11.505 -1.4681  0.6358 -0.2385
  774MOL0     H 6771   1.989   7.423  11.604  0.9481  2.3490 -1.1317
  774MOL0     H 6772   1.816   7.424  11.553 -0.3782 -0.2002  0.4891
  774MOL0     H 6773   1.892   7.559  11.634 -2.2541  0.1774  1.4459
  774MOL0     H 6774   2.075   7.111  11.422  1.3571  2.3509 -1.7676
  774MOL0     H 6775   2.139   6.875  11.415 -0.1458  0.0565 -0.9083
  774MOL0     H 6776   2.262   6.667  11.367 -0.3483 -1.8501  1.2946
  774MOL0     H 6777   2.084   6.635  11.377 -1.0697 -2.3532 -1.8703
  774MOL0     H 6778   2.092   6.457  11.221 -0.8102  0.9822  2.6165
  774MOL0     H 6779   2.270   6.499  11.184  0.9613  1.0040  0.8964
  774MOL0     H 6780   2.175   6.435  11.460  0.5197  1.4904 -0.2518
  774MOL0     H 6781   2.339   6.429  11.388  0.4061 -0.2289  0.6334
  774MOL0     H 6782   2.294   6.223  11.268 -0.3718 -0.0473 -0.5223
  774MOL0     H 6783   2.121   6.236  11.301 -0.6568 -0.0140  2.0526
  774MOL0     H 6784   2.252   6.060  11.439 -1.0572 -0.2592  0.7718
  774MOL0     H 6785   2.305   6.203  11.526 -0.5605  1.5205 -0.7495
  774MOL0     H 6786   2.008   6.122  11.475 -0.7793 -1.3939 -0.1696
  774MOL0     H 6787   2.076   6.265  11.574  0.1008 -0.6244 -2.3454
  774MOL0     H 6788   2.169   6.084  11.726 -0.8678  3.2863 -0.3798
  774MOL0     H 6789   2.104   5.960  11.609 -1.5367  0.2122 -1.5768
  774MOL0     H 6790   1.938   5.965  11.781 -1.8956  0.9924  2.5185
  774MOL0     H 6791   1.879   6.080  11.670 -0.0366  0.1712 -0.3549
  774MOL0     H 6792   2.115   6.881  10.987 -1.3303  2.8952 -3.0965
  774MOL0     H 6793   2.050   7.117  11.000 -1.3291 -0.7527 -0.9779
  774MOL0     H 6794   1.975   7.485  11.076  1.4550  0.1838 -0.7064
  774MOL0     H 6795   2.022   7.715  11.083  0.0000 -0.7148  0.3584
  774MOL0     H 6796   1.919   7.664  10.790 -4.0530  2.2720  0.6769
  774MOL0     H 6797   2.063   7.653  10.573 -2.9668 -1.5965 -1.0870
  774MOL0     H 6798   2.385   7.884  10.343 -0.1077 -0.3498 -1.4639
  774MOL0     H 6799   2.562   7.870  10.172 -0.0301  0.1887  1.9330
  774MOL0     H 6800   2.619   7.693   9.782  0.8610  4.4578  1.1495
  774MOL0     H 6801   2.454   7.616   9.811  2.5331 -2.6258 -1.7805
  774MOL0     H 6802   2.523   7.904   9.770  2.7334 -1.1756 -0.0926
  774MOL0     H 6803   2.358   7.835   9.739 -0.2876  3.2601 -2.7186
  774MOL0     H 6804   2.466   7.879   9.528  0.0340 -1.8659 -1.9150
  774MOL0     H 6805   2.608   7.783   9.579 -0.1822 -0.2188  2.5938
  774MOL0     H 6806   2.465   7.585   9.591  3.5406  1.7273  0.1099
  774MOL0     H 6807   2.462   7.640   9.428 -2.5315  0.1771 -0.5100
  774MOL0     H 6808   2.057   7.704   9.512 -0.5807 -6.5820 -0.7296
  774MOL0     H 6809   2.282   7.665   9.925  0.7840 -1.8423  1.8500
  774MOL0     H 6810   2.054   7.643   9.975  0.0651  0.3646  0.7721
  774MOL0     H 6811   2.050   7.589  10.138 -1.4858  0.1796  0.2247
  774MOL0     H 6812   1.988   7.758  10.094 -1.3941 -0.6225  0.1332
  775MOL0     O 6813   3.602  11.381   0.417  0.5160 -0.0127 -0.5286
  775MOL0     C 6814   3.503  11.404   0.348  0.0205  0.4059  0.5570
  775MOL0     O 6815   3.498  11.505   0.256 -0.1460 -0.2373 -0.1169
  775MOL0     C 6816   3.614  11.571   0.224 -0.1773  0.3473 -0.5109
  775MOL0     C 6817   3.682  11.654   0.315 -0.4599  1.0867 -0.1619
  775MOL0     C 6818   3.796  11.726   0.281 -0.3074 -0.1224  0.4276
  775MOL0     C 6819   3.835  11.734   0.144  0.9565  0.4876 -0.7111
  775MOL0     O 6820   3.943  11.807   0.113 -0.7862  1.0102  0.0224
  775MOL0     C 6821   4.003  11.787  -0.006  0.1588 -0.8548  0.0999
  775MOL0     C 6822   4.142  11.864  -0.001  0.3798  0.1266  0.3071
  775MOL0     C 6823   4.253  11.756  -0.013 -0.9361 -0.5126 -0.4813
  775MOL0     C 6824   4.274  11.645   0.102 -0.4287 -0.1156 -0.1775
  775MOL0     C 6825   4.382  11.539   0.080 -0.2342 -0.1018 -0.0278
  775MOL0     C 6826   4.329  11.414   0.005  1.3119 -0.1653  0.4061
  775MOL0     C 6827   4.421  11.294   0.002  0.2888  0.1585 -0.5806
  775MOL0     C 6828   4.551  11.333  -0.064 -0.2805  0.4707  0.3196
  775MOL0     N 6829   4.639  11.226  -0.070 -0.2763  0.1814 -0.3959
  775MOL0     C 6830   4.632  11.117  -0.153 -0.0902 -0.1756 -0.4148
  775MOL0     C 6831   4.722  11.028  -0.098  0.3832 -0.1247  0.3264
  775MOL0     C 6832   4.723  10.886  -0.126 -0.2569 -0.5440  0.5227
  775MOL0     C 6833   4.627  10.803  -0.046  0.6685  0.1550 -0.9866
  775MOL0     C 6834   4.663  10.655  -0.051  1.2852  0.0142  0.6864
  775MOL0     C 6835   4.539  10.570  -0.001 -0.8420 -0.5489  0.2438
  775MOL0     O 6836   4.430  10.592  -0.091 -0.6519  0.4877 -0.2406
  775MOL0     C 6837   4.318  10.508  -0.076  0.2607  0.4754  0.9910
  775MOL0     C 6838   4.230  10.516  -0.187 -0.2288  0.1962 -0.5046
  775MOL0     C 6839   4.116  10.436  -0.196 -1.0347 -0.1967  0.4772
  775MOL0     C 6840   4.034  10.457  -0.326  0.0779 -0.9370 -0.0601
  775MOL0     C 6841   4.089  10.336  -0.104  0.5583 -0.1751  0.4928
  775MOL0     C 6842   3.977  10.234  -0.120  0.3008  0.2496 -0.6234
  775MOL0     O 6843   3.896  10.229  -0.236  0.2012  0.4827 -0.6586
  775MOL0     C 6844   3.838  10.105  -0.257  0.2606  0.0738  0.7165
  775MOL0     C 6845   3.719  10.063  -0.179  0.1640  1.2209  0.2197
  775MOL0     C 6846   3.644   9.951  -0.216 -0.2441  0.7099 -0.3512
  775MOL0     C 6847   3.698   9.875  -0.325  0.4285 -0.4331  0.7250
  775MOL0     O 6848   3.639   9.756  -0.368 -0.6984 -0.3758  0.4635
  775MOL0     C 6849   3.505   9.731  -0.316 -0.8220 -0.2300 -0.7735
  775MOL0     C 6850   3.446   9.597  -0.388 -0.4599 -0.8128 -0.6973
  775MOL0     C 6851   3.413   9.619  -0.535 -0.9272 -0.0063  0.5275
  775MOL0     C 6852   3.437   9.504  -0.633  0.2680  0.2517  0.0159
  775MOL0     C 6853   3.417   9.542  -0.780 -0.4891  0.6207 -0.1487
  775MOL0     C 6854   3.270   9.561  -0.807 -0.4584 -0.1829 -0.9027
  775MOL0     C 6855   3.245   9.655  -0.921  0.4410  0.7672  0.7618
  775MOL0     C 6856   3.097   9.682  -0.949 -0.1198  0.2943 -0.1861
  775MOL0    Cl 6857   3.034   9.775  -0.812  0.2812 -0.3748  0.2897
  775MOL0     C 6858   3.818   9.909  -0.391  0.2339 -0.2787 -0.7623
  775MOL0     C 6859   3.890  10.024  -0.350  0.0401 -0.3273 -0.5089
  775MOL0     O 6860   3.971  10.149  -0.031 -0.3944 -0.7604  0.2501
  775MOL0     C 6861   4.172  10.336   0.009  0.4325  0.5156 -0.8997
  775MOL0     C 6862   4.289  10.416   0.018 -0.0241  0.3566 -0.0402
  775MOL0     N 6863   4.788  11.093   0.001 -0.2055  0.4054 -0.8127
  775MOL0     N 6864   4.735  11.208   0.035  0.1399 -0.3351 -0.3511
  775MOL0     C 6865   3.741  11.676   0.056 -0.4860  0.2619  0.0379
  775MOL0     C 6866   3.640  11.586   0.092 -0.2620 -0.3134 -0.2174
  775MOL0     C 6867   3.382  11.321   0.366 -0.4640 -0.2570 -0.2018
  775MOL0     C 6868   3.258  11.381   0.336  0.8140 -0.3627  0.5715
  775MOL0     C 6869   3.146  11.294   0.338  0.5356 -0.6260  0.0562
  775MOL0     C 6870   3.156  11.163   0.377 -0.1921  0.7326 -0.0605
  775MOL0     O 6871   3.052  11.072   0.395 -0.0042 -0.4389  0.4274
  775MOL0     C 6872   2.920  11.100   0.334  0.7312  1.0226 -0.2069
  775MOL0     C 6873   2.802  11.159   0.421  0.4956 -0.2042  0.0642
  775MOL0     C 6874   2.756  11.071   0.547 -0.1178 -0.3114  0.5595
  775MOL0     C 6875   2.721  10.925   0.517  0.3584 -0.3569 -0.8836
  775MOL0     C 6876   2.691  10.869   0.648  0.2040 -0.4003  0.3502
  775MOL0     C 6877   2.657  10.817   0.753  0.6752  0.6524  0.2146
  775MOL0     C 6878   3.277  11.104   0.406  0.1361 -0.3965  0.0626
  775MOL0     C 6879   3.394  11.184   0.397  0.1947 -0.5466  0.6293
  775MOL0     C 6880   3.521  11.104   0.419  0.3144  0.6117 -0.0298
  775MOL0     H 6881   3.662  11.645   0.422  0.6816 -1.6603 -0.0781
  775MOL0     H 6882   3.864  11.779   0.346  1.7188  2.7487 -3.5837
  775MOL0     H 6883   3.941  11.829  -0.086 -0.6589 -3.8280 -0.9252
  775MOL0     H 6884   4.017  11.681  -0.029 -2.6834 -0.8815 -2.0760
  775MOL0     H 6885   4.165  11.932  -0.084  1.5361 -0.5695  0.0517
  775MOL0     H 6886   4.152  11.927   0.088 -0.8332  0.1391  0.4523
  775MOL0     H 6887   4.233  11.696  -0.102 -1.2191  0.2874 -0.9669
  775MOL0     H 6888   4.346  11.813  -0.027 -2.8331  2.7908 -0.4848
  775MOL0     H 6889   4.314  11.700   0.188  1.3582 -0.6430 -0.6259
  775MOL0     H 6890   4.179  11.600   0.130 -0.9370  0.2797 -1.2064
  775MOL0     H 6891   4.405  11.508   0.183 -1.0503  2.6954  1.1117
  775MOL0     H 6892   4.468  11.582   0.028 -0.5978  1.9868  0.9687
  775MOL0     H 6893   4.241  11.372   0.054  1.0848 -0.8896 -0.5865
  775MOL0     H 6894   4.290  11.429  -0.096  1.7292 -0.8592  0.1375
  775MOL0     H 6895   4.370  11.222  -0.064  1.3518  0.5128 -1.8468
  775MOL0     H 6896   4.435  11.245   0.099 -2.5017  1.2853  0.4917
  775MOL0     H 6897   4.530  11.371  -0.165 -0.9690 -0.2237  0.1922
  775MOL0     H 6898   4.597  11.413  -0.006 -1.4149  1.3514  0.0576
  775MOL0     H 6899   4.566  11.109  -0.239  1.2804  1.2542 -1.6640
  775MOL0     H 6900   4.819  10.848  -0.092  0.3663  0.7816  0.2969
  775MOL0     H 6901   4.703  10.869  -0.233 -0.7092  0.3604  0.4515
  775MOL0     H 6902   4.629  10.833   0.059 -2.1459  1.3145 -1.1708
  775MOL0     H 6903   4.526  10.824  -0.082  0.7044  2.6142  0.1657
  775MOL0     H 6904   4.692  10.623  -0.152  1.3415 -1.7597  1.2437
  775MOL0     H 6905   4.749  10.633   0.013  0.1879 -0.7674  1.9271
  775MOL0     H 6906   4.553  10.461  -0.002  1.5615 -0.3099  1.3948
  775MOL0     H 6907   4.520  10.596   0.103 -1.6493 -0.2641  0.0343
  775MOL0     H 6908   4.248  10.575  -0.276 -2.5260  0.3349 -0.9409
  775MOL0     H 6909   3.928  10.458  -0.300 -0.2411 -0.6034 -1.3063
  775MOL0     H 6910   4.056  10.373  -0.394  0.9388 -1.2435  0.5723
  775MOL0     H 6911   4.052  10.557  -0.367  0.3155 -0.6905  0.6377
  775MOL0     H 6912   3.691  10.122  -0.093  2.0309  3.5801 -0.6960
  775MOL0     H 6913   3.563   9.920  -0.152 -0.3274 -3.0158 -2.0090
  775MOL0     H 6914   3.513   9.719  -0.207  1.5823 -0.4308 -0.9286
  775MOL0     H 6915   3.439   9.814  -0.343  0.9893  2.0563  1.3739
  775MOL0     H 6916   3.508   9.508  -0.375 -0.7477 -1.1728 -1.6613
  775MOL0     H 6917   3.356   9.578  -0.329  1.2031  1.2296  2.7575
  775MOL0     H 6918   3.465   9.705  -0.577 -0.3809 -0.3689  0.4512
  775MOL0     H 6919   3.305   9.635  -0.537 -1.0882 -1.1000 -0.2429
  775MOL0     H 6920   3.376   9.417  -0.604 -0.5272  1.3221  1.7059
  775MOL0     H 6921   3.542   9.475  -0.633 -0.2878 -1.9930  0.9230
  775MOL0     H 6922   3.471   9.632  -0.813  3.6112 -1.1031  1.2613
  775MOL0     H 6923   3.461   9.465  -0.843 -0.7913 -1.3983  1.9871
  775MOL0     H 6924   3.241   9.610  -0.713  1.6339 -1.7173  0.6167
  775MOL0     H 6925   3.214   9.468  -0.792 -0.3319  0.1940  3.3992
  775MOL0     H 6926   3.290   9.616  -1.013 -1.8112  0.3190 -0.2035
  775MOL0     H 6927   3.289   9.754  -0.902  1.2830  0.1625  2.1001
  775MOL0     H 6928   3.029   9.598  -0.961 -0.1105 -0.5094  3.8910
  775MOL0     H 6929   3.085   9.734  -1.045 -1.0799  1.6647  0.6469
  775MOL0     H 6930   3.852   9.831  -0.458 -1.7468 -1.2524 -0.7244
  775MOL0     H 6931   3.977  10.052  -0.408  0.5420  1.7886  1.1506
  775MOL0     H 6932   4.153  10.270   0.093  2.9802  2.3171  1.2704
  775MOL0     H 6933   4.344  10.428   0.111 -1.0308  2.8463  0.2992
  775MOL0     H 6934   3.761  11.667  -0.051  4.0044 -0.6789  0.7430
  775MOL0     H 6935   3.575  11.538   0.019 -2.7823  0.8316  1.1226
  775MOL0     H 6936   3.246  11.488   0.325 -0.4369 -0.5434  0.0029
  775MOL0     H 6937   3.049  11.335   0.311  1.4312  0.9799 -0.8694
  775MOL0     H 6938   2.935  11.166   0.248  0.6467  1.6705  0.2665
  775MOL0     H 6939   2.889  11.000   0.301 -2.8111  1.9349  0.0104
  775MOL0     H 6940   2.715  11.171   0.356  1.3047 -0.8077 -1.1785
  775MOL0     H 6941   2.840  11.253   0.462 -0.9177  1.3816 -2.0366
  775MOL0     H 6942   2.839  11.064   0.616 -2.0315 -4.8503  2.7985
  775MOL0     H 6943   2.672  11.124   0.594 -2.1054 -1.5438 -1.3667
  775MOL0     H 6944   2.806  10.864   0.484  0.1835 -1.7137  1.0015
  775MOL0     H 6945   2.633  10.914   0.452  0.0171  1.6377 -0.8226
  775MOL0     H 6946   2.624  10.794   0.853 -0.5140 -1.3621 -0.5787
  775MOL0     H 6947   3.280  11.006   0.452  1.1642  0.3217  1.6080
  775MOL0     H 6948   3.560  11.138   0.516  2.1059 -0.6811 -0.2465
  775MOL0     H 6949   3.511  10.996   0.420  1.6184  0.4614 -0.8935
  775MOL0     H 6950   3.598  11.125   0.344  0.2949 -0.6537 -0.4232
  776MOL0     O 6951   5.602   0.979   2.293 -0.8205  0.0172 -0.5065
  776MOL0     C 6952   5.646   1.062   2.217 -0.6641  0.3335 -0.8353
  776MOL0     O 6953   5.689   1.189   2.250  0.1414 -0.3365 -0.2546
  776MOL0     C 6954   5.650   1.249   2.370  0.2063  0.7269  0.1612
  776MOL0     C 6955   5.526   1.301   2.371 -0.9387 -0.3692 -0.6672
  776MOL0     C 6956   5.480   1.345   2.499  0.3842  0.3751  0.4015
  776MOL0     C 6957   5.563   1.346   2.612 -0.1083 -0.5989 -0.1858
  776MOL0     O 6958   5.530   1.394   2.738 -0.3107  1.0452 -0.4929
  776MOL0     C 6959   5.390   1.387   2.774 -0.4151 -0.5944 -0.2698
  776MOL0     C 6960   5.386   1.450   2.915 -0.9231  0.6195 -0.0960
  776MOL0     C 6961   5.436   1.358   3.033 -0.0350 -0.4600  0.0476
  776MOL0     C 6962   5.426   1.449   3.170  0.1002 -1.3507  1.0486
  776MOL0     C 6963   5.509   1.379   3.284  0.4943 -0.0908 -0.5816
  776MOL0     C 6964   5.439   1.250   3.332 -0.6405  0.3807  0.2860
  776MOL0     C 6965   5.538   1.167   3.407  0.4006 -0.3463 -0.9607
  776MOL0     C 6966   5.458   1.103   3.531  0.2068  1.3761 -0.1454
  776MOL0     N 6967   5.534   0.993   3.594 -0.0488 -0.3370  0.0191
  776MOL0     C 6968   5.627   0.907   3.537 -0.1597  0.7320  0.3265
  776MOL0     C 6969   5.722   0.881   3.638 -0.1081  0.4976  0.9612
  776MOL0     C 6970   5.849   0.798   3.654  0.5891 -0.2184  0.1786
  776MOL0     C 6971   5.819   0.681   3.742 -0.4137  0.4331 -0.4440
  776MOL0     C 6972   5.949   0.589   3.755 -0.2111 -0.1642 -0.6059
  776MOL0     C 6973   6.084   0.657   3.791  0.0463  0.2188  0.1523
  776MOL0     O 6974   6.181   0.556   3.792  0.0858  0.4927  0.8780
  776MOL0     C 6975   6.224   0.512   3.667  0.7965  1.5507 -0.4943
  776MOL0     C 6976   6.281   0.380   3.655  0.6661 -0.1301 -0.6228
  776MOL0     C 6977   6.338   0.326   3.539 -0.5482 -0.4023  0.5251
  776MOL0     C 6978   6.393   0.187   3.542  0.4212  0.3531 -0.1441
  776MOL0     C 6979   6.340   0.400   3.420  0.0850  0.2044 -0.0685
  776MOL0     C 6980   6.379   0.342   3.292 -0.6652  0.7291 -0.1584
  776MOL0     O 6981   6.477   0.246   3.287 -0.6366  0.2760 -0.2575
  776MOL0     C 6982   6.495   0.166   3.183  0.2679  0.3558 -0.1684
  776MOL0     C 6983   6.393   0.078   3.140 -0.2401 -0.6047  0.1214
  776MOL0     C 6984   6.412   0.002   3.027 -0.2292  0.0835 -1.0182
  776MOL0     C 6985   6.539  -0.002   2.969 -0.2091 -0.5910  0.7413
  776MOL0     O 6986   6.547  -0.088   2.864 -0.5297 -0.9556  0.0306
  776MOL0     C 6987   6.638  -0.057   2.756 -0.3987  0.2709 -0.5495
  776MOL0     C 6988   6.584  -0.095   2.611  0.5656  0.4927  0.2457
  776MOL0     C 6989   6.693  -0.082   2.490 -0.5802  0.2432  1.0134
  776MOL0     C 6990   6.803  -0.185   2.504  0.2923 -0.1189  0.5184
  776MOL0     C 6991   6.868  -0.208   2.364  0.3666 -0.7790  0.9891
  776MOL0     C 6992   6.963  -0.092   2.323 -0.7462 -0.4443  0.1100
  776MOL0     C 6993   7.084  -0.070   2.419  0.4354 -0.4513 -1.0007
  776MOL0     C 6994   7.157  -0.190   2.465 -0.0704  0.6741 -0.5930
  776MOL0    Cl 6995   7.287  -0.140   2.579 -0.2699 -0.2830  0.0019
  776MOL0     C 6996   6.643   0.070   3.020  0.5855  0.5004 -0.3561
  776MOL0     C 6997   6.617   0.160   3.123  0.3577 -0.0843  0.1860
  776MOL0     O 6998   6.296   0.367   3.202  0.4282 -0.0844 -0.2552
  776MOL0     C 6999   6.286   0.534   3.429  0.3348  0.3193 -0.4143
  776MOL0     C 7000   6.230   0.585   3.555 -1.1279 -0.3220  0.8928
  776MOL0     N 7001   5.678   0.936   3.754 -0.5228 -0.2856  0.2345
  776MOL0     N 7002   5.572   1.008   3.727 -0.3318 -1.1446 -0.2900
  776MOL0     C 7003   5.690   1.297   2.602  0.8421 -0.1657 -0.3117
  776MOL0     C 7004   5.737   1.249   2.475 -0.4087  0.1189  0.3830
  776MOL0     C 7005   5.647   1.026   2.070 -0.1680  0.1100  0.1608
  776MOL0     C 7006   5.649   0.882   2.037 -0.7106 -0.6608 -0.6633
  776MOL0     C 7007   5.648   0.840   1.910 -1.1581  0.7344 -0.0898
  776MOL0     C 7008   5.661   0.930   1.804  0.4306 -0.5708 -0.4162
  776MOL0     O 7009   5.663   0.894   1.669 -0.3895 -0.5788  0.1937
  776MOL0     C 7010   5.678   0.757   1.633  0.6596  0.5729  0.5216
  776MOL0     C 7011   5.532   0.691   1.632  0.3118  0.6590 -0.5032
  776MOL0     C 7012   5.521   0.534   1.632 -0.1208 -0.4262  0.0718
  776MOL0     C 7013   5.615   0.476   1.512  0.1784  0.0672 -0.7475
  776MOL0     C 7014   5.563   0.352   1.463  0.4515  1.1909  0.3008
  776MOL0     C 7015   5.524   0.249   1.403  0.6186  0.3338  0.1045
  776MOL0     C 7016   5.655   1.067   1.839 -0.2267 -0.4039 -0.2628
  776MOL0     C 7017   5.648   1.121   1.968  0.3161  0.8084  0.4641
  776MOL0     C 7018   5.629   1.266   1.977  0.4565 -0.0482  0.0762
  776MOL0     H 7019   5.479   1.296   2.274 -2.7214 -2.2183  0.2243
  776MOL0     H 7020   5.379   1.387   2.500 -0.2594 -1.1220  1.5817
  776MOL0     H 7021   5.344   1.288   2.784 -4.2364  1.1650  1.9217
  776MOL0     H 7022   5.330   1.449   2.707 -1.7589  0.7790  2.0778
  776MOL0     H 7023   5.444   1.543   2.920 -0.5243  0.3210  4.1017
  776MOL0     H 7024   5.283   1.477   2.939  0.2331  4.6231  1.2099
  776MOL0     H 7025   5.370   1.271   3.028  1.5231 -1.6194 -1.1007
  776MOL0     H 7026   5.535   1.324   3.005 -1.1126 -2.7712 -1.2292
  776MOL0     H 7027   5.470   1.549   3.160  1.1768 -1.8566  0.4667
  776MOL0     H 7028   5.321   1.456   3.197  0.3439  1.5414  1.5332
  776MOL0     H 7029   5.519   1.438   3.376  1.0677 -2.2309  0.8047
  776MOL0     H 7030   5.611   1.355   3.252  0.3120 -1.5633 -0.1378
  776MOL0     H 7031   5.352   1.271   3.395 -1.6032  1.2789 -1.2769
  776MOL0     H 7032   5.420   1.188   3.244  4.1039 -2.2029  0.7327
  776MOL0     H 7033   5.615   1.230   3.451 -0.0047 -0.9338  0.6803
  776MOL0     H 7034   5.582   1.095   3.337  2.3370  1.2670 -1.4980
  776MOL0     H 7035   5.447   1.181   3.607  3.7994  1.7869  0.1486
  776MOL0     H 7036   5.357   1.064   3.514 -0.5718  1.9886  2.5925
  776MOL0     H 7037   5.630   0.876   3.433 -2.3164 -2.4198  1.0342
  776MOL0     H 7038   5.920   0.862   3.708  0.1855 -0.9568  1.6407
  776MOL0     H 7039   5.889   0.760   3.559 -1.0272  0.8901 -0.9907
  776MOL0     H 7040   5.786   0.714   3.841 -1.8445  1.2151 -1.1671
  776MOL0     H 7041   5.739   0.614   3.711 -1.5868  2.2419 -1.4695
  776MOL0     H 7042   5.933   0.507   3.825 -1.8008 -0.3504 -1.1423
  776MOL0     H 7043   5.950   0.553   3.652 -1.1845  2.8671 -1.8153
  776MOL0     H 7044   6.099   0.746   3.728 -2.4417 -1.2800 -2.8465
  776MOL0     H 7045   6.075   0.707   3.887  0.3729  1.1958 -0.3127
  776MOL0     H 7046   6.277   0.316   3.742  4.1292 -0.2993 -0.4760
  776MOL0     H 7047   6.501   0.185   3.524  0.7153 -3.2119  1.1044
  776MOL0     H 7048   6.365   0.118   3.462  1.2610 -3.8479  2.8250
  776MOL0     H 7049   6.373   0.143   3.640  2.1874  2.5423  1.2943
  776MOL0     H 7050   6.293   0.070   3.182 -1.4756 -0.9969 -2.6409
  776MOL0     H 7051   6.332  -0.058   2.985 -0.7034 -1.1390  1.4548
  776MOL0     H 7052   6.654   0.050   2.737  0.1652  0.0319 -1.4598
  776MOL0     H 7053   6.738  -0.097   2.774 -0.0035  0.4649 -2.1475
  776MOL0     H 7054   6.542  -0.195   2.626 -0.8249  1.2681  1.8771
  776MOL0     H 7055   6.496  -0.041   2.578 -0.2243 -0.0793  1.3638
  776MOL0     H 7056   6.742   0.015   2.486  0.0028 -0.0757 -0.0936
  776MOL0     H 7057   6.636  -0.085   2.397  2.9104  0.4955 -1.3214
  776MOL0     H 7058   6.755  -0.275   2.543 -1.1217  0.5197  0.3060
  776MOL0     H 7059   6.882  -0.163   2.577  1.5316  3.0326 -1.5602
  776MOL0     H 7060   6.915  -0.306   2.373  0.9217 -0.4223  2.1888
  776MOL0     H 7061   6.791  -0.221   2.287 -0.5299 -0.7550  1.8678
  776MOL0     H 7062   6.915   0.007   2.325 -1.2363 -0.5817  3.9304
  776MOL0     H 7063   6.995  -0.104   2.219 -2.5661  1.5301 -0.7574
  776MOL0     H 7064   7.056  -0.011   2.506  1.0241 -1.7871  0.1443
  776MOL0     H 7065   7.151  -0.009   2.359  1.6788  1.1152  1.7939
  776MOL0     H 7066   7.200  -0.247   2.382 -0.6956 -0.3891 -0.2114
  776MOL0     H 7067   7.078  -0.249   2.512 -0.3429  0.3469 -1.4423
  776MOL0     H 7068   6.745   0.079   2.983  0.5315  1.8998 -0.2329
  776MOL0     H 7069   6.695   0.224   3.161  1.0250 -1.1289  0.6300
  776MOL0     H 7070   6.261   0.579   3.333 -1.3707  1.5540  0.5703
  776MOL0     H 7071   6.186   0.684   3.545  3.0642  1.4937 -4.7215
  776MOL0     H 7072   5.749   1.304   2.693  1.8212  0.3890 -0.9735
  776MOL0     H 7073   5.841   1.220   2.463  0.3240  0.7459  3.9168
  776MOL0     H 7074   5.657   0.818   2.124 -1.7681  0.4975  0.3251
  776MOL0     H 7075   5.641   0.733   1.892 -1.4714  0.5419  1.1005
  776MOL0     H 7076   5.722   0.740   1.535 -0.5484 -0.0998  0.0716
  776MOL0     H 7077   5.750   0.714   1.703  0.7491  4.5747  3.1573
  776MOL0     H 7078   5.484   0.746   1.550  0.4424  2.8097  0.7804
  776MOL0     H 7079   5.477   0.722   1.722  0.0941 -3.6974  1.0975
  776MOL0     H 7080   5.562   0.500   1.728  1.5692 -0.6493 -0.6916
  776MOL0     H 7081   5.419   0.502   1.612  0.3946 -3.7578  2.1134
  776MOL0     H 7082   5.717   0.464   1.550  0.3235 -2.1513 -1.7064
  776MOL0     H 7083   5.636   0.535   1.422  2.4643  0.5845  0.0392
  776MOL0     H 7084   5.492   0.166   1.343  0.5899 -1.4361  2.4319
  776MOL0     H 7085   5.672   1.138   1.759  4.2730  1.1648  1.7742
  776MOL0     H 7086   5.630   1.318   1.881 -1.5045  1.5738  0.8615
  776MOL0     H 7087   5.529   1.293   2.011  1.2024  1.4176  1.2585
  776MOL0     H 7088   5.701   1.312   2.047  0.2583 -1.2045  1.0772
  777MOL0     O 7089  10.137   6.801   0.696 -0.0857 -0.3427  0.8790
  777MOL0     C 7090  10.129   6.777   0.572 -0.2931 -0.0849 -0.8265
  777MOL0     O 7091  10.239   6.773   0.491  0.2118 -0.5062 -0.3525
  777MOL0     C 7092  10.365   6.750   0.538 -0.3047  0.0898 -1.1467
  777MOL0     C 7093  10.393   6.669   0.647 -1.1944  0.7461 -0.1447
  777MOL0     C 7094  10.527   6.645   0.687  0.2901  0.3879 -0.1623
  777MOL0     C 7095  10.635   6.703   0.612  0.4271 -0.8986  0.3221
  777MOL0     O 7096  10.772   6.693   0.644 -0.5188 -0.1552 -0.0346
  777MOL0     C 7097  10.798   6.751   0.775  0.7062  0.5375  0.1989
  777MOL0     C 7098  10.944   6.800   0.780 -0.2109  1.0524 -0.1225
  777MOL0     C 7099  10.967   6.932   0.705  0.0512  0.1917  0.6509
  777MOL0     C 7100  11.113   6.985   0.692 -0.2934  0.6299 -0.2332
  777MOL0     C 7101  11.183   7.018   0.823  0.2267  0.6445  0.5683
  777MOL0     C 7102  11.242   6.900   0.900  0.6302  0.5157 -0.1646
  777MOL0     C 7103  11.363   6.945   0.964  0.4075 -0.6798 -1.5631
  777MOL0     C 7104  11.492   6.881   0.911 -0.1755 -0.0657 -0.1751
  777MOL0     N 7105  11.593   6.930   1.003 -0.2423 -0.5255  0.3620
  777MOL0     C 7106  11.647   7.059   0.997 -0.0408  0.2833 -1.0867
  777MOL0     C 7107  11.736   7.064   1.101  0.1854 -0.0392  0.1150
  777MOL0     C 7108  11.796   7.191   1.132 -0.3900 -0.5750 -1.0912
  777MOL0     C 7109  11.946   7.176   1.176 -0.0205  0.5142  0.6789
  777MOL0     C 7110  12.003   7.309   1.216 -0.5080  0.4801  0.2858
  777MOL0     C 7111  12.008   7.403   1.096 -0.4220 -1.3064  0.4615
  777MOL0     O 7112  12.069   7.539   1.112  0.8359  0.2161 -0.0847
  777MOL0     C 7113  12.202   7.565   1.128 -0.9900  0.5348 -0.2165
  777MOL0     C 7114  12.244   7.665   1.224 -0.1523 -0.4030  0.0542
  777MOL0     C 7115  12.378   7.677   1.258  0.3668 -0.2265  0.3573
  777MOL0     C 7116  12.406   7.790   1.348  0.2621 -0.4686  0.4041
  777MOL0     C 7117  12.479   7.599   1.190  0.4244  0.4097 -0.4656
  777MOL0     C 7118  12.622   7.621   1.205 -0.2162  0.1116 -1.0108
  777MOL0     O 7119  12.702   7.601   1.094 -0.5282  0.7374  0.1549
  777MOL0     C 7120  12.833   7.649   1.095  0.0779 -1.0212 -0.1869
  777MOL0     C 7121  12.878   7.734   0.994  0.1818 -0.4420 -0.1542
  777MOL0     C 7122  13.000   7.785   0.978 -0.1644  0.1262 -0.7113
  777MOL0     C 7123  13.098   7.746   1.070 -1.0773 -0.5479  0.4182
  777MOL0     O 7124  13.232   7.789   1.065  0.0525  0.4290  0.3563
  777MOL0     C 7125  13.255   7.918   1.026 -0.0478 -0.5276 -0.1934
  777MOL0     C 7126  13.342   7.983   1.143 -0.6178  0.3406  0.6416
  777MOL0     C 7127  13.303   8.135   1.159  1.2451 -0.5901 -0.3289
  777MOL0     C 7128  13.326   8.192   1.308 -0.2485  0.5734  0.0549
  777MOL0     C 7129  13.307   8.347   1.314 -1.2113 -0.2455  0.2132
  777MOL0     C 7130  13.163   8.387   1.315  0.4489  0.5463  0.2863
  777MOL0     C 7131  13.150   8.538   1.359 -0.5069 -0.9519  0.3268
  777MOL0     C 7132  13.014   8.596   1.329 -0.2678  0.2202 -0.0584
  777MOL0    Cl 7133  12.877   8.555   1.440 -0.1227 -0.1850 -0.0469
  777MOL0     C 7134  13.059   7.677   1.185  0.2216 -0.2755  0.0547
  777MOL0     C 7135  12.927   7.630   1.190  0.7851  0.0946 -0.5648
  777MOL0     O 7136  12.659   7.657   1.316 -0.7675  0.1122  0.2216
  777MOL0     C 7137  12.433   7.512   1.096  0.4669 -0.3090 -1.2362
  777MOL0     C 7138  12.296   7.490   1.067  0.3566  0.0834 -0.7445
  777MOL0     N 7139  11.737   6.937   1.158  0.3208  0.0100  0.1286
  777MOL0     N 7140  11.641   6.866   1.108  0.0652  0.4358 -1.0975
  777MOL0     C 7141  10.602   6.774   0.498  0.0188 -0.4870 -0.1729
  777MOL0     C 7142  10.469   6.811   0.466 -0.0521  0.7283  0.1833
  777MOL0     C 7143  10.001   6.810   0.501  0.2323  0.0893 -0.2623
  777MOL0     C 7144   9.996   6.864   0.373 -0.5543  0.7308 -0.4095
  777MOL0     C 7145   9.881   6.885   0.300  0.9504 -0.7218  0.2263
  777MOL0     C 7146   9.760   6.850   0.359  0.2921 -0.0730  0.5475
  777MOL0     O 7147   9.653   6.885   0.286 -0.1515  0.2962  0.3200
  777MOL0     C 7148   9.524   6.887   0.356  1.2409  0.0773  0.0437
  777MOL0     C 7149   9.413   6.937   0.256  0.2768 -0.1995  0.0380
  777MOL0     C 7150   9.451   7.056   0.164  0.7905 -0.1682  0.2080
  777MOL0     C 7151   9.326   7.109   0.102 -0.1854  0.0881 -0.7072
  777MOL0     C 7152   9.361   7.198  -0.008 -0.3322  0.0395 -0.0391
  777MOL0     C 7153   9.385   7.283  -0.092  0.6022 -0.5341  0.4590
  777MOL0     C 7154   9.751   6.809   0.492 -0.4918  0.3129 -0.2968
  777MOL0     C 7155   9.871   6.781   0.561  0.8391  0.3494 -0.1348
  777MOL0     C 7156   9.859   6.730   0.707 -0.0579 -0.1633 -0.0791
  777MOL0     H 7157  10.309   6.619   0.695 -0.5722 -0.4127 -0.2123
  777MOL0     H 7158  10.533   6.573   0.768 -0.2872 -1.1911 -1.4565
  777MOL0     H 7159  10.769   6.682   0.855 -1.8905 -0.6047 -1.5667
  777MOL0     H 7160  10.741   6.843   0.790  0.5795  0.7343 -1.3209
  777MOL0     H 7161  10.965   6.821   0.885 -2.8896  0.5560  0.5851
  777MOL0     H 7162  11.005   6.716   0.746  0.0613  1.0310  0.4161
  777MOL0     H 7163  10.925   6.910   0.607 -1.2656  1.9852  0.7649
  777MOL0     H 7164  10.912   7.011   0.756 -3.1843 -1.8362  0.5296
  777MOL0     H 7165  11.175   6.916   0.632  1.8408 -0.6609  3.1319
  777MOL0     H 7166  11.112   7.076   0.632 -0.9339  0.7383 -0.0587
  777MOL0     H 7167  11.109   7.073   0.882  0.0327 -0.7084  1.6520
  777MOL0     H 7168  11.258   7.087   0.785  1.7243 -1.1372  0.1036
  777MOL0     H 7169  11.172   6.869   0.978  2.3762  2.0951  2.1711
  777MOL0     H 7170  11.263   6.810   0.841  1.7860  0.7650 -0.1643
  777MOL0     H 7171  11.353   6.905   1.066 -0.8724  0.6646 -1.1249
  777MOL0     H 7172  11.367   7.054   0.964 -3.2835 -0.4237 -2.9422
  777MOL0     H 7173  11.487   6.772   0.907  0.5735 -0.1457  0.7164
  777MOL0     H 7174  11.524   6.911   0.811 -2.7352 -3.9059 -2.3983
  777MOL0     H 7175  11.617   7.151   0.948  5.2109  4.1661  1.9421
  777MOL0     H 7176  11.731   7.240   1.204  0.0743  0.3885 -1.3034
  777MOL0     H 7177  11.801   7.250   1.040 -0.8717  1.3789  0.0741
  777MOL0     H 7178  11.944   7.110   1.263  1.2147 -0.5985 -0.0893
  777MOL0     H 7179  12.001   7.124   1.097  0.5172  0.9288  0.7697
  777MOL0     H 7180  11.972   7.359   1.308 -0.7871  0.2559  0.3137
  777MOL0     H 7181  12.107   7.275   1.221 -0.2709  0.1029 -3.9414
  777MOL0     H 7182  12.045   7.352   1.007 -1.1159  0.5991 -0.9983
  777MOL0     H 7183  11.904   7.430   1.072 -0.8094 -1.1358  2.1953
  777MOL0     H 7184  12.162   7.727   1.258 -2.1549 -0.4725 -3.9831
  777MOL0     H 7185  12.433   7.749   1.445 -0.4019 -2.2982 -0.1504
  777MOL0     H 7186  12.326   7.865   1.357  2.2919  1.8744 -0.2135
  777MOL0     H 7187  12.489   7.851   1.311 -0.2587  0.3253  0.5013
  777MOL0     H 7188  12.804   7.772   0.924  1.9390  1.4729 -1.0828
  777MOL0     H 7189  13.026   7.851   0.896  2.6033  0.8916  0.6348
  777MOL0     H 7190  13.315   7.916   0.935  0.6343  0.2570  0.2222
  777MOL0     H 7191  13.167   7.976   0.995  1.5875  1.8878 -0.5932
  777MOL0     H 7192  13.320   7.939   1.240  3.2601 -3.7865 -0.0286
  777MOL0     H 7193  13.450   7.976   1.126 -0.2782  1.5068  2.1282
  777MOL0     H 7194  13.196   8.141   1.136  0.9638 -2.1846  0.3787
  777MOL0     H 7195  13.362   8.181   1.079 -1.4835  0.2426 -1.9740
  777MOL0     H 7196  13.432   8.177   1.329  0.5494 -0.6550 -3.9862
  777MOL0     H 7197  13.274   8.133   1.384  1.8806 -1.2379  0.1925
  777MOL0     H 7198  13.358   8.381   1.404  0.0447  0.3395 -0.6945
  777MOL0     H 7199  13.366   8.381   1.228 -2.0320  0.9237  0.0882
  777MOL0     H 7200  13.117   8.320   1.387 -0.2251  2.0020  1.2601
  777MOL0     H 7201  13.124   8.368   1.215 -2.8036  1.4350  1.2729
  777MOL0     H 7202  13.227   8.589   1.302  0.6316 -0.5551  2.1261
  777MOL0     H 7203  13.168   8.563   1.464 -1.4870 -2.2026  0.8265
  777MOL0     H 7204  12.994   8.582   1.222 -0.4102  3.1280 -0.4916
  777MOL0     H 7205  13.033   8.704   1.333 -0.2446  0.3910 -2.8986
  777MOL0     H 7206  13.132   7.643   1.258  1.6896 -0.2292 -1.3148
  777MOL0     H 7207  12.905   7.563   1.273  1.0499  0.3110 -0.3186
  777MOL0     H 7208  12.508   7.459   1.037  0.1594 -1.5400 -0.5585
  777MOL0     H 7209  12.263   7.411   1.001  2.0552 -0.8210 -0.5744
  777MOL0     H 7210  10.688   6.796   0.436 -0.7374 -2.2875 -1.9397
  777MOL0     H 7211  10.453   6.880   0.383 -0.7913 -0.4444 -0.6751
  777MOL0     H 7212  10.091   6.901   0.336 -0.5351 -0.0346 -1.1468
  777MOL0     H 7213   9.882   6.931   0.201  0.0476 -1.5073 -0.1655
  777MOL0     H 7214   9.486   6.795   0.403 -1.2583  2.2687  2.6716
  777MOL0     H 7215   9.541   6.964   0.431 -0.5125  1.0661 -0.5244
  777MOL0     H 7216   9.335   6.969   0.327  0.1650  3.0490 -1.3828
  777MOL0     H 7217   9.363   6.858   0.200 -0.8345 -0.1411  0.8911
  777MOL0     H 7218   9.491   7.129   0.236 -0.3742 -1.8225  2.6998
  777MOL0     H 7219   9.527   7.022   0.093  0.7844 -1.0906  0.6304
  777MOL0     H 7220   9.267   7.169   0.171 -1.2069 -0.8638 -0.7179
  777MOL0     H 7221   9.263   7.032   0.057  0.4046 -1.2496  0.6746
  777MOL0     H 7222   9.407   7.364  -0.158 -0.8135 -0.5075 -0.0074
  777MOL0     H 7223   9.660   6.781   0.545 -0.7586  2.6784  0.6295
  777MOL0     H 7224   9.889   6.804   0.782 -1.2521  0.1264  0.1222
  777MOL0     H 7225   9.760   6.694   0.733 -0.1441  1.5622  2.2958
  777MOL0     H 7226   9.925   6.644   0.720 -0.6821 -0.3946  1.9201
  778MOL0     O 7227   1.965   6.942   8.675  0.2011  0.4005  0.5916
  778MOL0     C 7228   1.972   6.825   8.698 -0.9452  0.5136 -0.2821
  778MOL0     O 7229   2.040   6.770   8.801 -0.0238 -0.5495  0.4270
  778MOL0     C 7230   2.082   6.865   8.895  0.1056  0.0115 -0.7152
  778MOL0     C 7231   1.996   6.913   8.997 -0.2419 -0.3349  0.4421
  778MOL0     C 7232   2.046   6.997   9.096  0.2337 -0.7108 -0.2379
  778MOL0     C 7233   2.174   7.053   9.086  0.1757 -0.5399 -0.5776
  778MOL0     O 7234   2.228   7.154   9.172  0.1064 -0.1580  0.0482
  778MOL0     C 7235   2.178   7.178   9.311 -0.1206 -0.3749 -0.0840
  778MOL0     C 7236   2.193   7.329   9.344 -0.2602 -0.8271 -0.6377
  778MOL0     C 7237   2.132   7.429   9.242  0.0408 -0.4517  1.2993
  778MOL0     C 7238   1.991   7.476   9.291  0.1266  0.4524  0.0418
  778MOL0     C 7239   1.944   7.585   9.191 -0.4615  0.6715  0.1609
  778MOL0     C 7240   2.030   7.712   9.165 -0.1682 -0.3477 -0.3939
  778MOL0     C 7241   1.943   7.817   9.107  0.0398 -0.4967 -0.6372
  778MOL0     C 7242   1.857   7.892   9.211 -0.7885 -0.4971 -0.8567
  778MOL0     N 7243   1.771   7.998   9.162  0.5434  0.6015 -0.0892
  778MOL0     C 7244   1.720   8.008   9.030  0.2505 -0.0200  0.9153
  778MOL0     C 7245   1.657   8.128   9.022 -0.6507 -0.5002  0.1529
  778MOL0     C 7246   1.623   8.201   8.903  0.4468  0.2245  0.3914
  778MOL0     C 7247   1.488   8.163   8.841  0.3922 -1.0702  0.0506
  778MOL0     C 7248   1.442   8.297   8.781  0.5113  0.1227 -0.8228
  778MOL0     C 7249   1.338   8.260   8.673  0.0133  0.7148 -0.0542
  778MOL0     O 7250   1.248   8.371   8.659  0.4805  0.4726 -0.0339
  778MOL0     C 7251   1.169   8.399   8.548 -0.6772 -0.5570  0.9092
  778MOL0     C 7252   1.152   8.305   8.443  1.5695  0.0853 -1.0499
  778MOL0     C 7253   1.064   8.338   8.339 -0.2340  0.0128 -0.7216
  778MOL0     C 7254   1.049   8.229   8.236  0.5795 -1.0151  0.2130
  778MOL0     C 7255   0.992   8.466   8.339 -0.9715  0.1596 -0.2880
  778MOL0     C 7256   0.900   8.516   8.238 -0.3458  0.0601  0.7425
  778MOL0     O 7257   0.851   8.643   8.254  0.1095 -0.2279 -0.0980
  778MOL0     C 7258   0.732   8.674   8.191 -0.4984  0.0085  0.3286
  778MOL0     C 7259   0.731   8.734   8.066  0.1175  0.4547  0.1906
  778MOL0     C 7260   0.617   8.767   8.001  0.6260 -0.4065  0.1333
  778MOL0     C 7261   0.484   8.759   8.059  1.1612 -0.0403 -0.5507
  778MOL0     O 7262   0.362   8.781   8.000 -0.0993 -0.4198  0.4145
  778MOL0     C 7263   0.362   8.812   7.864 -0.7272 -0.1758  0.2107
  778MOL0     C 7264   0.229   8.826   7.797 -0.9030 -0.7614  0.0045
  778MOL0     C 7265   0.153   8.942   7.850 -0.7816  0.2975  0.5962
  778MOL0     C 7266   0.014   8.944   7.780 -0.4346  0.3513 -0.0150
  778MOL0     C 7267  -0.075   9.060   7.833  0.1689  0.2769  0.0358
  778MOL0     C 7268  -0.024   9.190   7.768  0.0956  0.1509  0.8911
  778MOL0     C 7269  -0.084   9.310   7.843 -0.5068 -0.6799 -0.3426
  778MOL0     C 7270  -0.016   9.444   7.816  0.1895  0.3228 -0.3337
  778MOL0    Cl 7271   0.147   9.443   7.906  0.0619  0.2527  0.4623
  778MOL0     C 7272   0.484   8.706   8.190 -0.2456 -0.0504 -0.6923
  778MOL0     C 7273   0.605   8.668   8.254 -0.2738 -0.7720  0.5793
  778MOL0     O 7274   0.886   8.446   8.140  0.3938 -0.2089 -1.0137
  778MOL0     C 7275   1.025   8.560   8.441  0.2996  1.1326  0.7106
  778MOL0     C 7276   1.112   8.525   8.541 -0.4079 -0.0451  0.0338
  778MOL0     N 7277   1.660   8.191   9.145 -0.3270 -0.2164 -0.8690
  778MOL0     N 7278   1.732   8.122   9.221 -0.6081  1.1300  0.8962
  778MOL0     C 7279   2.253   7.019   8.981  0.4718 -0.9118 -0.2103
  778MOL0     C 7280   2.209   6.924   8.887  0.4139 -0.3112  0.4110
  778MOL0     C 7281   1.911   6.734   8.598  0.9259  0.5447 -0.1249
  778MOL0     C 7282   1.924   6.588   8.612 -0.7410 -0.1034  0.2184
  778MOL0     C 7283   1.883   6.497   8.510  0.0715 -1.1462 -0.0349
  778MOL0     C 7284   1.816   6.546   8.400  0.3896 -0.3421 -0.6282
  778MOL0     O 7285   1.772   6.485   8.289 -0.7826  0.1314 -0.1606
  778MOL0     C 7286   1.855   6.380   8.250 -0.0148 -0.1517  0.3425
  778MOL0     C 7287   1.796   6.243   8.273 -0.0439  0.4077 -0.8911
  778MOL0     C 7288   1.651   6.231   8.209 -0.4002  0.1886  0.3324
  778MOL0     C 7289   1.542   6.303   8.290 -0.4298  0.3543 -0.0599
  778MOL0     C 7290   1.549   6.278   8.438  0.5819  0.6284 -0.9893
  778MOL0     C 7291   1.562   6.248   8.559  0.4621  1.2111  0.4430
  778MOL0     C 7292   1.791   6.684   8.398  0.0181 -0.9613  0.3646
  778MOL0     C 7293   1.828   6.779   8.494  0.1862  0.5240  0.7171
  778MOL0     C 7294   1.775   6.919   8.466 -0.6351  0.9272  0.2239
  778MOL0     H 7295   1.892   6.883   8.998 -0.5135  0.5839  0.3945
  778MOL0     H 7296   1.975   7.025   9.174  0.5573  1.5213 -0.6810
  778MOL0     H 7297   2.224   7.115   9.387  1.1112  0.0801 -0.4368
  778MOL0     H 7298   2.070   7.158   9.314 -0.3368  0.8519  1.2989
  778MOL0     H 7299   2.150   7.346   9.443  2.0911 -2.6361  0.7872
  778MOL0     H 7300   2.299   7.351   9.357 -0.7435  1.7566 -0.6739
  778MOL0     H 7301   2.193   7.519   9.231 -4.4052  2.7838  0.4502
  778MOL0     H 7302   2.116   7.389   9.142 -1.2324 -2.6330  2.3000
  778MOL0     H 7303   1.919   7.395   9.304  0.8390 -0.0911  0.7379
  778MOL0     H 7304   2.005   7.525   9.388  0.2828  1.7113 -0.5904
  778MOL0     H 7305   1.851   7.625   9.231 -1.0165  1.7188 -2.0269
  778MOL0     H 7306   1.928   7.527   9.100 -2.6417  1.8169 -0.2368
  778MOL0     H 7307   2.070   7.748   9.261 -2.4095  1.3583 -0.0183
  778MOL0     H 7308   2.121   7.680   9.114  0.7478  1.3397  0.1270
  778MOL0     H 7309   1.872   7.779   9.033 -0.7382  0.3287 -0.3333
  778MOL0     H 7310   2.003   7.900   9.068 -1.2157  0.0016 -1.5648
  778MOL0     H 7311   1.795   7.814   9.256 -1.7736 -0.8521 -2.6978
  778MOL0     H 7312   1.922   7.925   9.293 -3.5840  0.5448  1.0598
  778MOL0     H 7313   1.736   7.951   8.939 -0.1734  2.4912 -0.8491
  778MOL0     H 7314   1.692   8.170   8.823 -0.3913 -1.5962  0.3213
  778MOL0     H 7315   1.625   8.309   8.918 -1.1701  0.6024 -1.6534
  778MOL0     H 7316   1.487   8.075   8.777 -0.2055 -0.4508 -0.8186
  778MOL0     H 7317   1.416   8.130   8.916 -1.1731 -0.0150 -0.9184
  778MOL0     H 7318   1.389   8.362   8.852 -0.6606 -2.7884  1.1711
  778MOL0     H 7319   1.526   8.355   8.742  1.6674 -1.5696 -0.9397
  778MOL0     H 7320   1.384   8.225   8.580 -1.3276  1.1774 -0.9206
  778MOL0     H 7321   1.283   8.174   8.713  0.7051  0.9350  1.4339
  778MOL0     H 7322   1.206   8.211   8.440 -0.0015 -1.0090  1.5456
  778MOL0     H 7323   0.944   8.200   8.236  0.1981 -0.6279 -4.8666
  778MOL0     H 7324   1.111   8.142   8.264  1.7987 -1.2067 -2.7072
  778MOL0     H 7325   1.066   8.260   8.133 -0.2238  0.6790  0.5671
  778MOL0     H 7326   0.832   8.752   8.030 -0.7774  0.9145 -2.3325
  778MOL0     H 7327   0.610   8.809   7.901 -4.2042  1.8937  1.1293
  778MOL0     H 7328   0.418   8.906   7.858  0.2007 -0.7928 -1.4192
  778MOL0     H 7329   0.417   8.735   7.809 -1.1304  1.1453 -2.1451
  778MOL0     H 7330   0.245   8.848   7.691  1.7673 -3.0775 -0.1853
  778MOL0     H 7331   0.173   8.732   7.799 -1.3080 -0.5430 -0.7427
  778MOL0     H 7332   0.212   9.032   7.829  5.1979 -3.2278 -0.0021
  778MOL0     H 7333   0.138   8.924   7.957  1.8676 -1.0774  0.8094
  778MOL0     H 7334  -0.038   8.849   7.792  0.6170 -0.2214  0.1437
  778MOL0     H 7335   0.029   8.944   7.671 -2.8146 -0.6951 -0.4098
  778MOL0     H 7336  -0.177   9.051   7.796 -1.2610  1.4691  3.3181
  778MOL0     H 7337  -0.079   9.061   7.942 -4.2928  0.7400  0.0274
  778MOL0     H 7338  -0.039   9.181   7.660 -0.9505 -1.0833  1.1101
  778MOL0     H 7339   0.086   9.188   7.774  0.5764  0.8555 -3.9019
  778MOL0     H 7340  -0.078   9.294   7.951 -1.2443  2.4243  0.2791
  778MOL0     H 7341  -0.191   9.312   7.818 -0.3429  2.2400 -1.1502
  778MOL0     H 7342  -0.083   9.517   7.863 -0.1957 -0.1249 -0.1847
  778MOL0     H 7343  -0.021   9.468   7.710 -3.2419 -0.0741 -0.3585
  778MOL0     H 7344   0.388   8.685   8.236 -0.9694  1.0827 -1.6363
  778MOL0     H 7345   0.600   8.632   8.356 -1.1702  1.9941  1.6028
  778MOL0     H 7346   0.973   8.654   8.456  0.4465  1.1271  1.2852
  778MOL0     H 7347   1.135   8.595   8.621  1.8607 -0.6791 -0.0102
  778MOL0     H 7348   2.352   7.065   8.978  0.1064 -0.0305  0.6732
  778MOL0     H 7349   2.265   6.874   8.809 -0.7814  1.2103 -1.5250
  778MOL0     H 7350   1.966   6.545   8.702 -2.5187 -0.8218  0.7519
  778MOL0     H 7351   1.904   6.391   8.521 -0.7853 -1.3695 -0.5086
  778MOL0     H 7352   1.868   6.386   8.142  0.7148  0.1522  0.4439
  778MOL0     H 7353   1.955   6.381   8.294  0.7205  1.3827 -1.2270
  778MOL0     H 7354   1.795   6.216   8.379 -1.3151  2.7356 -0.2579
  778MOL0     H 7355   1.853   6.172   8.211  2.4546  0.3141  1.3438
  778MOL0     H 7356   1.669   6.265   8.107  1.2365 -1.0104  0.1857
  778MOL0     H 7357   1.616   6.128   8.203 -0.0073  0.1376 -1.6786
  778MOL0     H 7358   1.442   6.265   8.266  0.5608 -2.4249 -0.1528
  778MOL0     H 7359   1.542   6.411   8.275 -0.5368  0.3642  0.0103
  778MOL0     H 7360   1.583   6.201   8.653 -0.1029 -0.0706 -0.0598
  778MOL0     H 7361   1.728   6.718   8.316  2.0967  2.0878 -0.1632
  778MOL0     H 7362   1.693   6.931   8.394 -0.2417  2.9781  0.0336
  778MOL0     H 7363   1.736   6.956   8.561  0.3833  0.0242  1.0163
  778MOL0     H 7364   1.853   6.984   8.424  2.1387 -2.7456 -0.8856
  779MOL0     O 7365   0.403  10.687   4.482 -0.8473  0.5009 -0.1989
  779MOL0     C 7366   0.392  10.720   4.363 -0.0756 -0.1433 -0.9509
  779MOL0     O 7367   0.288  10.785   4.305  0.3436  0.1607  0.6104
  779MOL0     C 7368   0.174  10.785   4.374  0.0326 -0.3343 -0.0101
  779MOL0     C 7369   0.130  10.903   4.434  0.7576  0.3053  0.6841
  779MOL0     C 7370   0.015  10.906   4.512  1.0936 -0.4184  0.7511
  779MOL0     C 7371  -0.055  10.789   4.546 -0.4287 -0.1799 -0.0058
  779MOL0     O 7372  -0.154  10.798   4.633 -0.1338 -0.1516 -0.3039
  779MOL0     C 7373  -0.133  10.722   4.755 -0.8694 -0.6631 -0.4115
  779MOL0     C 7374  -0.212  10.590   4.764  0.1187  0.2490 -0.0262
  779MOL0     C 7375  -0.359  10.614   4.778 -0.1888  0.4304 -1.4531
  779MOL0     C 7376  -0.385  10.648   4.927  0.0885  0.1678  0.7003
  779MOL0     C 7377  -0.528  10.680   4.960 -0.0881 -0.1512  0.0073
  779MOL0     C 7378  -0.547  10.717   5.104  0.5784 -0.4408 -0.5275
  779MOL0     C 7379  -0.694  10.762   5.129  0.2395 -0.4824  0.0262
  779MOL0     C 7380  -0.726  10.768   5.280  0.5564  0.6699 -0.2185
  779MOL0     N 7381  -0.840  10.842   5.327  0.2154 -0.3237  0.1496
  779MOL0     C 7382  -0.871  10.971   5.297  0.1834 -0.1629  1.3602
  779MOL0     C 7383  -1.001  10.995   5.364  0.5534 -0.0994 -0.2953
  779MOL0     C 7384  -1.087  11.122   5.372 -0.5741 -1.2145  0.8781
  779MOL0     C 7385  -1.083  11.166   5.517  0.4581 -0.1997  0.0977
  779MOL0     C 7386  -1.181  11.285   5.530 -1.0388  0.1160  0.3471
  779MOL0     C 7387  -1.126  11.421   5.480 -0.6887 -0.0267 -0.3053
  779MOL0     O 7388  -1.207  11.525   5.545  0.0051 -0.5450  0.8840
  779MOL0     C 7389  -1.193  11.659   5.521  0.0171 -0.1603  0.0645
  779MOL0     C 7390  -1.081  11.713   5.458 -0.9955  0.0589  0.9222
  779MOL0     C 7391  -1.063  11.850   5.436 -0.6086 -0.0333  0.7319
  779MOL0     C 7392  -0.931  11.903   5.384  0.0954  0.5322 -0.5652
  779MOL0     C 7393  -1.175  11.936   5.469 -0.6378  0.5103  0.5242
  779MOL0     C 7394  -1.171  12.086   5.452 -0.1705 -0.0711  0.3871
  779MOL0     O 7395  -1.284  12.152   5.502 -0.4288  0.1542 -0.8829
  779MOL0     C 7396  -1.295  12.290   5.473 -0.7493  1.1022 -0.5192
  779MOL0     C 7397  -1.257  12.387   5.573  0.2617 -0.4341 -0.5044
  779MOL0     C 7398  -1.293  12.519   5.547  0.2317  0.7707 -0.8877
  779MOL0     C 7399  -1.354  12.562   5.423  0.0599 -0.0922 -0.6904
  779MOL0     O 7400  -1.377  12.698   5.391 -0.0830  0.5230  0.0148
  779MOL0     C 7401  -1.513  12.744   5.405  0.1315  0.2204 -0.7800
  779MOL0     C 7402  -1.545  12.758   5.557 -0.1778  0.2868  0.4646
  779MOL0     C 7403  -1.512  12.879   5.624  0.0898 -1.0097 -0.3511
  779MOL0     C 7404  -1.575  12.896   5.767 -0.7059  0.4040 -0.5104
  779MOL0     C 7405  -1.539  13.030   5.836  0.1108 -0.2535  1.3499
  779MOL0     C 7406  -1.573  13.153   5.751  0.6274 -0.9345 -0.3390
  779MOL0     C 7407  -1.513  13.281   5.809 -1.0912  0.0973 -0.4290
  779MOL0     C 7408  -1.587  13.321   5.932 -0.4533  0.5185 -0.4819
  779MOL0    Cl 7409  -1.528  13.479   5.990  0.3621 -0.3583  0.6200
  779MOL0     C 7410  -1.382  12.460   5.334  0.1916 -0.1622  0.2831
  779MOL0     C 7411  -1.350  12.324   5.353 -0.0349 -0.6915 -0.5197
  779MOL0     O 7412  -1.078  12.143   5.397 -0.0885 -0.4341 -0.2319
  779MOL0     C 7413  -1.290  11.882   5.535 -0.6267  0.5639 -0.4548
  779MOL0     C 7414  -1.292  11.749   5.557 -0.2605  0.5833  0.4099
  779MOL0     N 7415  -1.034  10.877   5.429 -0.1422  0.2245  0.9209
  779MOL0     N 7416  -0.938  10.786   5.408 -0.2146 -0.7228  0.4246
  779MOL0     C 7417  -0.006  10.666   4.495 -0.0609 -0.7014 -1.0839
  779MOL0     C 7418   0.106  10.665   4.413  1.0354 -0.0196  0.1270
  779MOL0     C 7419   0.506  10.726   4.268  0.1495  1.2890  0.0066
  779MOL0     C 7420   0.515  10.813   4.156  0.0284 -0.2315  0.5911
  779MOL0     C 7421   0.629  10.826   4.078 -0.8483  1.0083  0.7363
  779MOL0     C 7422   0.747  10.762   4.109 -0.2482 -0.0897  0.0772
  779MOL0     O 7423   0.869  10.785   4.044  0.3815 -0.0862 -0.2047
  779MOL0     C 7424   0.866  10.744   3.908 -0.0038 -0.3599  0.2983
  779MOL0     C 7425   0.885  10.599   3.892  0.0467  0.5858  0.0578
  779MOL0     C 7426   1.035  10.548   3.901  1.3729 -0.0918 -0.2718
  779MOL0     C 7427   1.051  10.401   3.939  0.5173  0.0659 -0.1919
  779MOL0     C 7428   1.012  10.368   4.074 -0.4357  0.2445 -0.0414
  779MOL0     C 7429   0.983  10.346   4.189  0.0697  0.0494 -0.1492
  779MOL0     C 7430   0.741  10.654   4.206  1.6885 -0.0985 -0.2233
  779MOL0     C 7431   0.621  10.638   4.285 -0.4973  0.6649  0.1188
  779MOL0     C 7432   0.624  10.516   4.370 -0.0719 -0.4017  0.3428
  779MOL0     H 7433   0.178  11.000   4.433  1.8076 -0.1663  2.0380
  779MOL0     H 7434  -0.005  11.007   4.549 -0.8348 -0.2478 -0.5962
  779MOL0     H 7435  -0.149  10.784   4.844  4.0765 -0.2772  0.4571
  779MOL0     H 7436  -0.030  10.687   4.766 -0.0988  0.4400 -3.2119
  779MOL0     H 7437  -0.196  10.525   4.677 -0.2565  2.8071 -2.1071
  779MOL0     H 7438  -0.182  10.547   4.860  0.9716 -0.8908 -0.7741
  779MOL0     H 7439  -0.406  10.702   4.732  0.3962  1.2950 -0.4639
  779MOL0     H 7440  -0.419  10.524   4.766 -2.2045  1.5310 -0.3382
  779MOL0     H 7441  -0.345  10.567   4.989  1.3028  1.9048  2.3179
  779MOL0     H 7442  -0.337  10.742   4.957  0.4592  0.1469  0.1955
  779MOL0     H 7443  -0.594  10.595   4.941  0.2590 -0.4424  0.0964
  779MOL0     H 7444  -0.575  10.758   4.899 -1.6489  0.2754  1.6694
  779MOL0     H 7445  -0.528  10.634   5.173 -0.8195  1.5581  2.4354
  779MOL0     H 7446  -0.478  10.800   5.118 -0.1163 -0.1288  1.2560
  779MOL0     H 7447  -0.755  10.682   5.087  0.6803  0.3041 -2.2734
  779MOL0     H 7448  -0.716  10.860   5.085 -2.3614 -1.2632 -0.6435
  779MOL0     H 7449  -0.733  10.664   5.314  1.0335  0.9634  0.8007
  779MOL0     H 7450  -0.650  10.817   5.340 -0.2093  3.1395 -1.1426
  779MOL0     H 7451  -0.826  11.042   5.228 -1.6328 -0.6869 -0.4930
  779MOL0     H 7452  -1.189  11.107   5.335  0.5939 -2.7086 -2.0338
  779MOL0     H 7453  -1.044  11.204   5.314 -3.1119 -1.1932 -1.1790
  779MOL0     H 7454  -1.120  11.086   5.581  1.9145  0.2823  1.6200
  779MOL0     H 7455  -0.979  11.196   5.537  0.5605  0.7715 -1.6427
  779MOL0     H 7456  -1.279  11.251   5.495 -1.4274 -0.2790  1.7375
  779MOL0     H 7457  -1.203  11.303   5.636  0.8748  2.2114  0.4584
  779MOL0     H 7458  -1.021  11.438   5.506 -0.4212 -1.7785 -0.0863
  779MOL0     H 7459  -1.135  11.411   5.372 -2.3357 -0.9334 -0.1163
  779MOL0     H 7460  -0.996  11.647   5.441  0.8454  1.2897  4.2792
  779MOL0     H 7461  -0.897  11.978   5.456  1.9527 -1.3162  0.5894
  779MOL0     H 7462  -0.945  11.954   5.288  0.2057  1.9011  0.1180
  779MOL0     H 7463  -0.860  11.820   5.380  2.0538  1.8314  2.8362
  779MOL0     H 7464  -1.207  12.355   5.664  0.3428  2.0237  0.3657
  779MOL0     H 7465  -1.279  12.603   5.615 -1.0875 -0.7968  1.4794
  779MOL0     H 7466  -1.508  12.840   5.352  1.2077 -0.4932 -2.0306
  779MOL0     H 7467  -1.587  12.680   5.357 -1.4998 -0.1120  2.0162
  779MOL0     H 7468  -1.654  12.754   5.567 -0.6951 -0.0647 -3.8109
  779MOL0     H 7469  -1.500  12.680   5.619 -2.1473  0.4812  2.2640
  779MOL0     H 7470  -1.565  12.946   5.555 -1.4501 -1.1807  0.6126
  779MOL0     H 7471  -1.406  12.903   5.616 -0.3403  0.7461 -1.5394
  779MOL0     H 7472  -1.547  12.807   5.823  1.8405  0.6423 -1.2604
  779MOL0     H 7473  -1.683  12.909   5.757 -1.1536 -0.8766  1.8657
  779MOL0     H 7474  -1.606  13.040   5.923 -1.2384  1.5241  0.1882
  779MOL0     H 7475  -1.437  13.023   5.875  0.7089  1.6699  0.2287
  779MOL0     H 7476  -1.681  13.169   5.745  0.8828  0.2377 -3.9109
  779MOL0     H 7477  -1.535  13.141   5.649 -1.1160 -0.2746 -1.1041
  779MOL0     H 7478  -1.504  13.363   5.737  0.6428 -1.0732 -1.6420
  779MOL0     H 7479  -1.410  13.263   5.841 -1.2578  2.4154  1.7354
  779MOL0     H 7480  -1.574  13.253   6.018 -2.0532 -0.1800 -0.7598
  779MOL0     H 7481  -1.696  13.324   5.919 -1.0354  1.8426  3.2955
  779MOL0     H 7482  -1.427  12.513   5.250  0.4706  0.9931  0.8440
  779MOL0     H 7483  -1.385  12.251   5.282 -1.5183  0.0543 -0.5834
  779MOL0     H 7484  -1.385  11.930   5.558 -0.8194  0.4915 -1.0801
  779MOL0     H 7485  -1.363  11.686   5.610 -0.4459 -0.8398 -1.4388
  779MOL0     H 7486  -0.073  10.581   4.502 -2.4967  1.2074  1.6960
  779MOL0     H 7487   0.118  10.570   4.362 -2.4490 -0.9760  0.8273
  779MOL0     H 7488   0.424  10.870   4.142 -1.8781 -2.6457  2.2181
  779MOL0     H 7489   0.635  10.894   3.994  1.0598 -2.5900 -2.3457
  779MOL0     H 7490   0.774  10.772   3.856  0.0154 -2.7953 -1.1721
  779MOL0     H 7491   0.944  10.794   3.851 -2.7419  2.2647 -1.4671
  779MOL0     H 7492   0.840  10.565   3.798 -1.6962  1.1760  0.6427
  779MOL0     H 7493   0.826  10.558   3.974 -1.6411 -1.1086 -1.8937
  779MOL0     H 7494   1.088  10.561   3.806  1.4815  0.0779 -0.1890
  779MOL0     H 7495   1.094  10.607   3.972  1.7485 -0.4717 -0.2695
  779MOL0     H 7496   1.152  10.365   3.920  0.6504  0.2993  0.0597
  779MOL0     H 7497   0.988  10.346   3.868 -1.3479 -1.2874  2.3581
  779MOL0     H 7498   0.967  10.317   4.291 -0.9940 -2.9086 -1.0286
  779MOL0     H 7499   0.833  10.605   4.234  1.6371 -0.6508 -1.0174
  779MOL0     H 7500   0.659  10.534   4.472 -0.3599  1.1288  0.2000
  779MOL0     H 7501   0.529  10.463   4.375 -1.9948  2.6799 -0.6468
  779MOL0     H 7502   0.698  10.448   4.328 -0.4868  0.2974 -1.6234
  780MOL0     O 7503   6.224   5.621   8.788 -0.3612  0.2023  0.0704
  780MOL0     C 7504   6.158   5.557   8.873  0.3652 -0.1543 -0.6029
  780MOL0     O 7505   6.130   5.601   9.002 -0.1548 -0.1930  0.0874
  780MOL0     C 7506   6.180   5.719   9.038 -0.4415  0.1325  0.3105
  780MOL0     C 7507   6.298   5.719   9.102 -0.4484 -0.4260  0.2952
  780MOL0     C 7508   6.356   5.835   9.166 -0.3623  0.7670  0.5751
  780MOL0     C 7509   6.275   5.949   9.164 -0.8927 -0.1226  1.0684
  780MOL0     O 7510   6.310   6.069   9.226  0.2722 -0.3059 -0.3221
  780MOL0     C 7511   6.383   6.069   9.353  0.3090  0.1852  0.3570
  780MOL0     C 7512   6.521   6.126   9.339 -0.3533  0.3381  0.3187
  780MOL0     C 7513   6.628   6.066   9.436  0.8080  0.1252 -0.0357
  780MOL0     C 7514   6.653   5.923   9.406 -0.4729 -0.5971  0.0843
  780MOL0     C 7515   6.775   5.869   9.471 -0.5205  0.8929 -0.2728
  780MOL0     C 7516   6.784   5.708   9.452  0.1067  0.5646  0.3319
  780MOL0     C 7517   6.899   5.639   9.532 -0.0170  0.5605 -0.2302
  780MOL0     C 7518   6.963   5.516   9.464 -0.5510  0.5439 -0.3662
  780MOL0     N 7519   7.078   5.471   9.538  0.2488  0.6025 -0.7362
  780MOL0     C 7520   7.196   5.539   9.564  0.0444  0.1197 -0.0154
  780MOL0     C 7521   7.249   5.466   9.665  0.1755 -1.1704  0.2215
  780MOL0     C 7522   7.378   5.501   9.733  0.5418 -0.2359 -0.7472
  780MOL0     C 7523   7.417   5.655   9.737  0.0599  0.3098  0.0730
  780MOL0     C 7524   7.538   5.688   9.827 -0.5773 -0.2583 -0.0385
  780MOL0     C 7525   7.669   5.656   9.763 -0.2931 -0.3384 -0.5468
  780MOL0     O 7526   7.694   5.748   9.657 -0.1093  0.6041  0.2314
  780MOL0     C 7527   7.800   5.728   9.572  0.1888  0.6718  0.0752
  780MOL0     C 7528   7.807   5.804   9.455 -0.0658 -0.5397  0.3649
  780MOL0     C 7529   7.925   5.802   9.365 -0.4486  0.2833 -0.6237
  780MOL0     C 7530   7.929   5.890   9.243  0.5068 -0.6156  1.1705
  780MOL0     C 7531   8.032   5.707   9.389 -0.7855 -0.4198  0.6749
  780MOL0     C 7532   8.156   5.682   9.309 -0.0130  0.0761 -0.5170
  780MOL0     O 7533   8.209   5.787   9.237 -0.2768 -0.1443 -0.3319
  780MOL0     C 7534   8.326   5.767   9.171  0.1362  0.0071 -0.9785
  780MOL0     C 7535   8.447   5.796   9.241 -0.0634 -0.7754 -0.1146
  780MOL0     C 7536   8.571   5.796   9.164  0.2759 -0.7256  0.2575
  780MOL0     C 7537   8.572   5.758   9.036 -0.6543  0.2476  0.2875
  780MOL0     O 7538   8.685   5.737   8.957 -0.0190 -0.3840  0.0612
  780MOL0     C 7539   8.808   5.781   9.010  0.3813  0.5109 -0.5796
  780MOL0     C 7540   8.922   5.759   8.915  0.3622 -0.1748 -0.3590
  780MOL0     C 7541   8.931   5.875   8.812  0.7895 -1.0564  0.2366
  780MOL0     C 7542   9.020   5.821   8.701 -0.1245 -0.5836  0.6137
  780MOL0     C 7543   9.035   5.921   8.577  0.2061 -0.5255 -0.1870
  780MOL0     C 7544   8.906   5.900   8.494 -0.3525  0.1440  0.7356
  780MOL0     C 7545   8.892   5.983   8.367  0.1536  0.0374  0.7999
  780MOL0     C 7546   8.988   5.957   8.261 -0.3550  0.2736 -0.2155
  780MOL0    Cl 7547   8.965   5.796   8.195  0.4594 -0.1644 -0.4822
  780MOL0     C 7548   8.461   5.726   8.966  1.0203  0.8896 -0.4980
  780MOL0     C 7549   8.337   5.723   9.039  0.5270  0.7748 -0.7353
  780MOL0     O 7550   8.200   5.566   9.303  0.1436  0.1031 -0.2439
  780MOL0     C 7551   8.011   5.627   9.502 -0.2621 -0.0190 -0.5363
  780MOL0     C 7552   7.904   5.640   9.591 -0.1122 -0.4739 -0.3011
  780MOL0     N 7553   7.167   5.357   9.697  0.5730  0.1874 -0.3026
  780MOL0     N 7554   7.076   5.352   9.606  1.1394  0.8630  0.4420
  780MOL0     C 7555   6.146   5.941   9.103 -1.1471 -0.8062  0.0140
  780MOL0     C 7556   6.100   5.826   9.044 -0.2373 -0.1306  0.5018
  780MOL0     C 7557   6.138   5.407   8.843  0.2395 -0.2682  0.5501
  780MOL0     C 7558   6.142   5.359   8.710  1.0389 -0.2069  0.3281
  780MOL0     C 7559   6.111   5.225   8.683 -0.4716  0.3552 -0.0275
  780MOL0     C 7560   6.084   5.131   8.781 -0.5453 -0.5667  0.8129
  780MOL0     O 7561   6.061   4.994   8.749  0.8908  0.2777  0.0728
  780MOL0     C 7562   5.960   4.973   8.647  1.0018 -0.1251  0.0140
  780MOL0     C 7563   6.019   4.935   8.512 -0.2324 -0.1196 -0.3586
  780MOL0     C 7564   5.917   4.969   8.400 -0.2282 -0.0618 -0.5399
  780MOL0     C 7565   5.806   4.860   8.391 -0.1948  0.1771  0.0434
  780MOL0     C 7566   5.713   4.911   8.291 -0.6528  0.3786 -0.1020
  780MOL0     C 7567   5.646   4.955   8.199  1.0929 -0.3552  0.0599
  780MOL0     C 7568   6.101   5.175   8.911 -0.4470  0.2409 -0.4583
  780MOL0     C 7569   6.115   5.311   8.944  0.2214 -0.7492 -0.1673
  780MOL0     C 7570   6.112   5.342   9.093 -0.6118 -0.1211 -0.2553
  780MOL0     H 7571   6.349   5.626   9.124  0.3961  0.4998  2.5661
  780MOL0     H 7572   6.452   5.834   9.216 -0.5206  0.8012  0.8821
  780MOL0     H 7573   6.378   5.967   9.394  1.5088 -1.1739 -2.5470
  780MOL0     H 7574   6.326   6.122   9.429 -1.4751  1.2607 -1.6138
  780MOL0     H 7575   6.561   6.114   9.238  0.1387 -0.6769  0.6148
  780MOL0     H 7576   6.518   6.235   9.347  1.8477  0.3337  2.3670
  780MOL0     H 7577   6.715   6.131   9.425  1.3723 -0.2997  1.6370
  780MOL0     H 7578   6.598   6.073   9.541  2.1159  1.5013  0.2759
  780MOL0     H 7579   6.573   5.860   9.448 -0.7115  0.0242  0.5812
  780MOL0     H 7580   6.658   5.904   9.298  2.0130 -1.5544  0.3061
  780MOL0     H 7581   6.769   5.872   9.580  2.1548 -1.2278  0.0478
  780MOL0     H 7582   6.867   5.922   9.445  1.9316 -0.9460  3.7162
  780MOL0     H 7583   6.693   5.657   9.485  0.6385 -0.8187 -0.2311
  780MOL0     H 7584   6.805   5.693   9.346 -1.0028 -0.0594  0.1961
  780MOL0     H 7585   6.869   5.602   9.631  0.1142 -1.7632 -1.0052
  780MOL0     H 7586   6.982   5.709   9.544 -1.6604  2.3724  1.1673
  780MOL0     H 7587   6.894   5.431   9.464 -2.2056  1.7576  1.9618
  780MOL0     H 7588   6.988   5.547   9.362  0.8716  3.5233  0.7804
  780MOL0     H 7589   7.229   5.624   9.506 -1.3055  0.6617 -0.0310
  780MOL0     H 7590   7.457   5.435   9.695  0.9005 -0.5823  0.5558
  780MOL0     H 7591   7.366   5.469   9.837  0.9349  1.9465  0.0141
  780MOL0     H 7592   7.434   5.682   9.632 -0.5626  1.6415  0.2895
  780MOL0     H 7593   7.328   5.710   9.767 -0.6403 -1.4180  1.2736
  780MOL0     H 7594   7.526   5.795   9.847  3.3495  0.6879 -1.7382
  780MOL0     H 7595   7.530   5.632   9.920 -0.3151  1.2803  0.9524
  780MOL0     H 7596   7.753   5.650   9.832  1.4685 -4.3795 -2.6901
  780MOL0     H 7597   7.673   5.559   9.712  1.5699  0.2517 -1.6232
  780MOL0     H 7598   7.724   5.870   9.429  0.8898  0.9577  0.9495
  780MOL0     H 7599   7.999   5.969   9.270 -2.9961  2.9202  0.7903
  780MOL0     H 7600   7.833   5.938   9.226  1.3607  0.7962  0.1939
  780MOL0     H 7601   7.966   5.833   9.158  2.0729 -2.3975  2.9383
  780MOL0     H 7602   8.457   5.832   9.343 -0.6230 -2.5335  0.6012
  780MOL0     H 7603   8.665   5.808   9.218 -1.1182 -1.8164  3.1428
  780MOL0     H 7604   8.790   5.884   9.045  1.0531  0.5682 -0.3970
  780MOL0     H 7605   8.828   5.720   9.099  1.4073 -1.2480 -1.9705
  780MOL0     H 7606   9.018   5.767   8.967  1.2417  0.3519 -1.9927
  780MOL0     H 7607   8.924   5.657   8.875  2.9581 -1.1850  2.0477
  780MOL0     H 7608   8.976   5.960   8.863  0.2231  0.4620 -1.6584
  780MOL0     H 7609   8.834   5.907   8.771  1.7742  0.8591 -0.7308
  780MOL0     H 7610   8.990   5.725   8.657  2.2985  0.2320 -3.3139
  780MOL0     H 7611   9.115   5.803   8.751  0.0453  0.7839  0.8159
  780MOL0     H 7612   9.027   6.022   8.617 -3.1840 -1.0109  0.7147
  780MOL0     H 7613   9.117   5.888   8.512  0.1097  0.5416 -0.8778
  780MOL0     H 7614   8.820   5.919   8.559 -1.9840  1.1317 -1.5331
  780MOL0     H 7615   8.896   5.794   8.471  1.9966  0.5027 -2.7153
  780MOL0     H 7616   8.900   6.086   8.400  0.5696 -1.2156  5.2348
  780MOL0     H 7617   8.792   5.965   8.327  0.2166  1.3282  0.0188
  780MOL0     H 7618   9.090   5.975   8.295  0.2813  1.0997 -2.4628
  780MOL0     H 7619   8.979   6.033   8.184 -0.7447  3.0581  2.3638
  780MOL0     H 7620   8.478   5.692   8.864 -2.2186 -2.0229 -0.2682
  780MOL0     H 7621   8.255   5.684   8.981 -1.7345  1.5139  1.7720
  780MOL0     H 7622   8.093   5.567   9.541 -2.0712 -1.3775  1.3678
  780MOL0     H 7623   7.910   5.583   9.683 -2.2960 -3.0850 -1.6117
  780MOL0     H 7624   6.080   6.026   9.119 -3.5046 -2.8443  1.8388
  780MOL0     H 7625   5.996   5.818   9.016 -0.8513  3.0440  1.4592
  780MOL0     H 7626   6.152   5.432   8.631  0.7908 -0.5240  0.0013
  780MOL0     H 7627   6.127   5.198   8.579  0.3932 -1.5637  0.5655
  780MOL0     H 7628   5.884   4.904   8.687 -0.2630  2.1465  1.7756
  780MOL0     H 7629   5.907   5.068   8.642 -1.3638 -1.2831  1.1137
  780MOL0     H 7630   6.037   4.827   8.505 -5.0893 -1.2747  1.1691
  780MOL0     H 7631   6.108   4.990   8.480 -0.1156 -1.2817 -2.1575
  780MOL0     H 7632   5.864   5.062   8.422 -0.7795 -0.8971  2.1391
  780MOL0     H 7633   5.972   4.971   8.305  1.2888 -2.0575  0.2139
  780MOL0     H 7634   5.766   4.844   8.491  2.6664 -2.4695  0.9039
  780MOL0     H 7635   5.844   4.765   8.354  1.4531  2.0305 -3.5404
  780MOL0     H 7636   5.576   4.997   8.131 -1.4444 -0.7806  2.2331
  780MOL0     H 7637   6.101   5.091   8.979 -0.2840 -0.2297 -1.0391
  780MOL0     H 7638   6.209   5.377   9.131 -0.8510  1.5431 -1.0797
  780MOL0     H 7639   6.036   5.416   9.119 -1.0205 -0.2514 -1.0672
  780MOL0     H 7640   6.067   5.254   9.139  0.1654 -2.2212 -3.1970
  781MOL0     O 7641   5.462   3.574  11.195 -0.7603  0.5787  0.4645
  781MOL0     C 7642   5.560   3.634  11.228 -0.0772  0.0155 -0.9193
  781MOL0     O 7643   5.599   3.639  11.360  0.6593 -0.2468 -0.0878
  781MOL0     C 7644   5.546   3.568  11.464  0.2894 -0.0405  0.4499
  781MOL0     C 7645   5.600   3.442  11.517 -0.3410 -0.9074  1.8568
  781MOL0     C 7646   5.543   3.382  11.623 -0.2856 -0.6015  0.0457
  781MOL0     C 7647   5.431   3.423  11.683  0.8994  0.6612  0.4387
  781MOL0     O 7648   5.354   3.359  11.788 -0.3613  0.9922 -0.4774
  781MOL0     C 7649   5.410   3.237  11.841  0.5219 -1.0686  0.2565
  781MOL0     C 7650   5.336   3.211  11.969 -0.6816  0.0454  0.2983
  781MOL0     C 7651   5.372   3.309  12.082 -0.2001  0.2941  0.4101
  781MOL0     C 7652   5.292   3.275  12.207  0.6984  0.3560 -0.5205
  781MOL0     C 7653   5.263   3.377  12.317 -0.6308 -0.2276 -0.0919
  781MOL0     C 7654   5.384   3.441  12.391 -0.8176  0.2265 -0.1011
  781MOL0     C 7655   5.474   3.341  12.460 -0.7200  0.0521 -0.3019
  781MOL0     C 7656   5.540   3.392  12.594  0.6907 -1.0682  0.2123
  781MOL0     N 7657   5.663   3.458  12.559  0.5247 -0.4184  0.2216
  781MOL0     C 7658   5.770   3.429  12.636  0.2421  0.0822 -1.0180
  781MOL0     C 7659   5.855   3.525  12.602 -0.0643 -0.6148 -0.3091
  781MOL0     C 7660   5.993   3.535  12.646 -0.6489 -0.3195  0.5812
  781MOL0     C 7661   6.087   3.407  12.634  0.0335  0.6621  0.3247
  781MOL0     C 7662   6.213   3.403  12.723  0.5255  0.1483  0.0847
  781MOL0     C 7663   6.331   3.488  12.657  0.6002 -1.0059  0.6310
  781MOL0     O 7664   6.439   3.476  12.743 -0.4077 -0.3594 -0.6784
  781MOL0     C 7665   6.562   3.471  12.680 -0.0212  0.0035 -0.4108
  781MOL0     C 7666   6.666   3.420  12.757 -0.1685  0.0622 -0.7823
  781MOL0     C 7667   6.802   3.422  12.724  1.8904  0.0708  0.3477
  781MOL0     C 7668   6.897   3.362  12.827 -0.5153 -0.3128  0.9353
  781MOL0     C 7669   6.840   3.489  12.607 -0.3216  0.4345 -0.1282
  781MOL0     C 7670   6.991   3.494  12.563  0.3237 -0.3966 -0.1544
  781MOL0     O 7671   7.078   3.504  12.665  0.2579 -0.7173  0.7768
  781MOL0     C 7672   7.209   3.474  12.659 -0.4600 -0.2373 -0.7733
  781MOL0     C 7673   7.278   3.421  12.557 -0.8302 -0.5290  0.2659
  781MOL0     C 7674   7.415   3.394  12.566 -0.3527 -0.7541  0.6087
  781MOL0     C 7675   7.488   3.432  12.678 -0.0672 -0.3408  0.2030
  781MOL0     O 7676   7.621   3.402  12.677  0.0246  0.1190 -0.3458
  781MOL0     C 7677   7.692   3.444  12.798  0.1224 -0.0159 -0.4186
  781MOL0     C 7678   7.835   3.416  12.758  0.7138 -0.7323 -0.1721
  781MOL0     C 7679   7.934   3.453  12.866 -0.3049 -0.5916 -0.4399
  781MOL0     C 7680   7.967   3.334  12.956 -0.7743 -0.6740 -0.8389
  781MOL0     C 7681   8.098   3.375  13.033  0.2337 -0.5031 -0.0174
  781MOL0     C 7682   8.144   3.258  13.123 -0.1226  0.2421  0.8525
  781MOL0     C 7683   8.230   3.300  13.244 -0.1675 -0.1377  0.6234
  781MOL0     C 7684   8.368   3.346  13.203  0.1088  0.0394  0.7173
  781MOL0    Cl 7685   8.468   3.380  13.346  0.0588  0.0812 -0.2233
  781MOL0     C 7686   7.413   3.495  12.782  0.6907  0.4822 -1.0272
  781MOL0     C 7687   7.278   3.513  12.775 -0.5313 -0.0873  0.3593
  781MOL0     O 7688   7.023   3.497  12.445  0.2518  0.7435 -0.3463
  781MOL0     C 7689   6.732   3.537  12.524  0.1185 -0.2778 -1.2856
  781MOL0     C 7690   6.591   3.528  12.555 -0.1249  0.0889  0.8049
  781MOL0     N 7691   5.787   3.613  12.516  0.3509 -0.3769 -0.3621
  781MOL0     N 7692   5.671   3.576  12.492  0.3195 -0.4085  0.1382
  781MOL0     C 7693   5.367   3.535  11.623  0.9524 -0.4482  0.3652
  781MOL0     C 7694   5.423   3.607  11.519 -0.3655  0.7868  0.3447
  781MOL0     C 7695   5.652   3.706  11.129 -0.1691 -0.3461 -0.0388
  781MOL0     C 7696   5.608   3.700  10.991 -0.8189  0.2025  0.6415
  781MOL0     C 7697   5.680   3.763  10.894  0.0620  0.7376 -0.6110
  781MOL0     C 7698   5.790   3.843  10.917  0.1726  0.5361  0.1040
  781MOL0     O 7699   5.851   3.922  10.826  0.0324  0.1624  0.5330
  781MOL0     C 7700   5.808   3.932  10.693  0.5229  0.3257  0.4323
  781MOL0     C 7701   5.698   4.038  10.696  0.1794  0.6038 -0.1394
  781MOL0     C 7702   5.749   4.179  10.710 -0.1563 -0.8950  0.4751
  781MOL0     C 7703   5.731   4.239  10.850  0.4267  0.0510  0.0270
  781MOL0     C 7704   5.592   4.287  10.882  0.2421 -0.2744  0.8178
  781MOL0     C 7705   5.485   4.326  10.935 -0.6512 -0.2532  0.0946
  781MOL0     C 7706   5.830   3.857  11.047  0.4497  0.2522 -0.5897
  781MOL0     C 7707   5.768   3.786  11.157  0.3894 -0.7970  0.6637
  781MOL0     C 7708   5.833   3.809  11.289 -0.6568  0.5111  0.6487
  781MOL0     H 7709   5.686   3.398  11.469 -0.9575  1.3830 -1.7013
  781MOL0     H 7710   5.588   3.290  11.659 -2.1390 -1.9858 -1.0132
  781MOL0     H 7711   5.519   3.248  11.854  1.5885 -1.5684 -5.5542
  781MOL0     H 7712   5.402   3.157  11.767 -1.6145  0.6482 -1.4863
  781MOL0     H 7713   5.233   3.226  11.937 -0.4005 -0.0007 -0.6617
  781MOL0     H 7714   5.362   3.112  12.006  1.0025  0.7591  1.1631
  781MOL0     H 7715   5.479   3.317  12.104 -0.3381 -0.4752  1.4183
  781MOL0     H 7716   5.342   3.406  12.043  3.9345  1.6550  0.1218
  781MOL0     H 7717   5.193   3.235  12.182  1.1897 -3.1224  2.2409
  781MOL0     H 7718   5.347   3.194  12.256 -1.4528 -0.0548  1.3670
  781MOL0     H 7719   5.196   3.334  12.392  1.2542  0.7104  2.2944
  781MOL0     H 7720   5.208   3.462  12.275 -0.4452 -1.2057 -2.4295
  781MOL0     H 7721   5.441   3.506  12.324  0.5867  0.9884  1.7487
  781MOL0     H 7722   5.339   3.504  12.469 -1.6444  4.2116 -3.4327
  781MOL0     H 7723   5.546   3.301  12.389 -2.5510  0.1960 -2.3587
  781MOL0     H 7724   5.413   3.261  12.503  2.3611 -1.6774  1.1653
  781MOL0     H 7725   5.476   3.465  12.645  1.8146 -0.5060  0.8475
  781MOL0     H 7726   5.557   3.318  12.672  1.3169 -0.7443  0.3878
  781MOL0     H 7727   5.779   3.360  12.719 -1.3191  4.8414  3.7235
  781MOL0     H 7728   6.000   3.568  12.750 -1.0435 -1.8893  1.1303
  781MOL0     H 7729   6.034   3.613  12.581 -3.3678 -1.1502 -2.4060
  781MOL0     H 7730   6.024   3.326  12.672 -3.5745  2.3485 -1.5343
  781MOL0     H 7731   6.105   3.373  12.531  3.5410 -2.2476  1.6734
  781MOL0     H 7732   6.185   3.446  12.820 -0.0379 -2.4648  1.1498
  781MOL0     H 7733   6.244   3.299  12.734  1.9101  0.5709  0.2895
  781MOL0     H 7734   6.351   3.452  12.556 -0.9071 -1.3193  0.4203
  781MOL0     H 7735   6.305   3.594  12.648 -1.8785 -1.6341 -0.6214
  781MOL0     H 7736   6.630   3.378  12.851 -1.0376 -0.2606 -1.2516
  781MOL0     H 7737   6.836   3.294  12.887 -0.9433  0.9128  1.9325
  781MOL0     H 7738   6.946   3.434  12.893 -0.1834 -2.1255  2.7479
  781MOL0     H 7739   6.976   3.316  12.767 -0.2322  2.9952 -1.5256
  781MOL0     H 7740   7.239   3.393  12.460  3.0363 -1.6094 -1.1942
  781MOL0     H 7741   7.467   3.351  12.481 -3.3750  0.1085 -1.8608
  781MOL0     H 7742   7.675   3.549  12.822  1.3432 -0.1030  0.9273
  781MOL0     H 7743   7.649   3.391  12.883 -0.2263  2.4964  1.0612
  781MOL0     H 7744   7.845   3.314  12.720  1.7309 -0.2594 -1.2390
  781MOL0     H 7745   7.856   3.485  12.676  1.5188 -0.8324 -0.0499
  781MOL0     H 7746   7.907   3.544  12.920 -1.1878 -3.1341  3.9773
  781MOL0     H 7747   8.022   3.478  12.806 -0.2153  0.6260  0.1807
  781MOL0     H 7748   7.990   3.253  12.886  1.3017  0.0167 -1.0452
  781MOL0     H 7749   7.884   3.313  13.024 -1.6717 -0.3931 -1.8062
  781MOL0     H 7750   8.173   3.410  12.961 -2.8157 -0.8861 -3.6716
  781MOL0     H 7751   8.092   3.463  13.098  2.2462 -1.4692  1.6049
  781MOL0     H 7752   8.199   3.186  13.061  2.5485  1.0199  2.1551
  781MOL0     H 7753   8.053   3.213  13.163 -1.5122  0.6893 -1.5680
  781MOL0     H 7754   8.227   3.218  13.317 -0.6201  1.4907  2.4908
  781MOL0     H 7755   8.175   3.379  13.294  1.1799  0.4630  1.2127
  781MOL0     H 7756   8.361   3.438  13.144  0.3390 -0.2808  0.1810
  781MOL0     H 7757   8.420   3.272  13.142 -0.1136  0.5398 -0.0971
  781MOL0     H 7758   7.455   3.533  12.875  0.9806 -0.7725 -0.6221
  781MOL0     H 7759   7.226   3.555  12.860 -2.0847  1.8679 -1.4413
  781MOL0     H 7760   6.760   3.582  12.429 -1.5527  1.0871 -1.1877
  781MOL0     H 7761   6.524   3.584  12.491 -3.1649 -0.7082  3.0522
  781MOL0     H 7762   5.265   3.562  11.650  0.4426 -1.1860 -0.7178
  781MOL0     H 7763   5.384   3.700  11.478 -1.7863 -1.1070 -3.0414
  781MOL0     H 7764   5.522   3.641  10.958 -0.9657  2.2562 -3.3242
  781MOL0     H 7765   5.636   3.759  10.794  1.2408 -0.1107 -1.1163
  781MOL0     H 7766   5.899   3.959  10.638 -0.1005 -0.3747 -0.9965
  781MOL0     H 7767   5.789   3.837  10.642  1.6086  0.2675  0.1062
  781MOL0     H 7768   5.628   4.028  10.780  1.5343  0.3629  1.0125
  781MOL0     H 7769   5.640   4.032  10.604  1.4483 -0.0102 -0.9331
  781MOL0     H 7770   5.858   4.183  10.696 -0.1587  1.4220  0.7918
  781MOL0     H 7771   5.702   4.250  10.641  0.4564  1.0130  1.9204
  781MOL0     H 7772   5.792   4.330  10.863 -1.5292  1.4113  0.1016
  781MOL0     H 7773   5.765   4.168  10.926 -0.3644 -1.8429 -1.3225
  781MOL0     H 7774   5.388   4.348  10.976  0.1118  0.7322  1.4526
  781MOL0     H 7775   5.917   3.915  11.077 -0.8479  1.7521  0.3921
  781MOL0     H 7776   5.913   3.883  11.275 -1.3284  0.8778 -1.8310
  781MOL0     H 7777   5.763   3.841  11.366 -3.0788  0.3217 -1.3373
  781MOL0     H 7778   5.882   3.718  11.324 -2.3526 -0.9563 -0.6275
  782MOL0     O 7779   8.794  11.515   9.079  0.1729  1.1612 -0.9783
  782MOL0     C 7780   8.695  11.551   9.141 -0.0332  0.0136  0.2036
  782MOL0     O 7781   8.669  11.528   9.276 -0.3646 -0.0870 -0.5454
  782MOL0     C 7782   8.722  11.419   9.327  0.3752  1.1752 -0.2443
  782MOL0     C 7783   8.825  11.417   9.415  0.2451  0.9088  0.6160
  782MOL0     C 7784   8.892  11.296   9.457 -0.9834 -0.1775  0.5575
  782MOL0     C 7785   8.839  11.173   9.414 -0.7371  0.4679 -0.5766
  782MOL0     O 7786   8.902  11.054   9.459 -0.6133  0.2865  1.0472
  782MOL0     C 7787   8.859  11.009   9.585  0.4213  0.1941  0.1129
  782MOL0     C 7788   8.778  10.882   9.569 -1.6603  0.4611  0.4696
  782MOL0     C 7789   8.727  10.839   9.711 -0.4368  0.1971 -0.8396
  782MOL0     C 7790   8.811  10.727   9.774 -0.0459 -0.2920  0.7217
  782MOL0     C 7791   8.774  10.697   9.914 -0.1197 -0.5466 -0.5169
  782MOL0     C 7792   8.629  10.656   9.927  0.6543 -0.2963  0.9057
  782MOL0     C 7793   8.604  10.546  10.028 -0.5182 -0.5963  0.4502
  782MOL0     C 7794   8.687  10.415  10.011 -0.5755  0.2196 -0.5756
  782MOL0     N 7795   8.666  10.329  10.134  0.9819 -0.2182 -0.3686
  782MOL0     C 7796   8.707  10.365  10.266 -0.7012 -0.1193  1.4624
  782MOL0     C 7797   8.674  10.258  10.337 -0.0395 -0.6309 -0.8009
  782MOL0     C 7798   8.690  10.237  10.491  0.1414 -0.0609 -0.4596
  782MOL0     C 7799   8.781  10.112  10.511  0.8124  0.2827 -0.0640
  782MOL0     C 7800   8.846  10.106  10.649  0.8012  0.4882  0.3050
  782MOL0     C 7801   8.896   9.960  10.673 -1.3982  0.6931 -0.1116
  782MOL0     O 7802   8.881   9.898  10.808 -0.0449 -0.3720  0.0645
  782MOL0     C 7803   8.967   9.952  10.904  0.6061 -1.2446 -0.4804
  782MOL0     C 7804   8.963   9.884  11.026 -0.5071  0.4215  0.4867
  782MOL0     C 7805   9.040   9.938  11.131 -0.8244  0.5949  0.9457
  782MOL0     C 7806   9.033   9.862  11.262  0.2915  0.2387 -0.1254
  782MOL0     C 7807   9.130  10.038  11.120 -0.1347 -0.2993  0.2914
  782MOL0     C 7808   9.231  10.082  11.223 -0.6098 -0.7942 -0.2035
  782MOL0     O 7809   9.326  10.159  11.171 -0.6057  0.4524  0.2117
  782MOL0     C 7810   9.415  10.237  11.245 -0.5015  0.2742 -0.0343
  782MOL0     C 7811   9.542  10.182  11.273  0.2747 -0.0394 -0.1660
  782MOL0     C 7812   9.632  10.263  11.355 -0.4081 -0.7432 -0.3927
  782MOL0     C 7813   9.589  10.388  11.402 -0.2906  0.4449 -0.0663
  782MOL0     O 7814   9.679  10.465  11.469  1.1656 -0.0081 -0.1701
  782MOL0     C 7815   9.775  10.417  11.565 -0.8201 -0.9943  0.1147
  782MOL0     C 7816   9.720  10.431  11.705  0.0868  0.0106 -0.5015
  782MOL0     C 7817   9.816  10.383  11.809 -0.8612 -0.2639 -0.7386
  782MOL0     C 7818   9.759  10.400  11.948  0.6044  0.0602 -0.7207
  782MOL0     C 7819   9.861  10.342  12.047 -0.0898  1.8414  0.3185
  782MOL0     C 7820   9.813  10.349  12.187 -0.0633  0.4445  0.1340
  782MOL0     C 7821   9.918  10.326  12.297  0.7186 -0.4709 -0.0038
  782MOL0     C 7822   9.988  10.456  12.336  0.4015  0.1431 -0.6661
  782MOL0    Cl 7823  10.120  10.507  12.231  0.1093  0.1731 -0.1498
  782MOL0     C 7824   9.467  10.440  11.372  0.2975  1.2462 -0.0597
  782MOL0     C 7825   9.377  10.364  11.294  0.6919  0.0727  0.4555
  782MOL0     O 7826   9.210  10.060  11.340 -0.6050 -0.5704 -0.8061
  782MOL0     C 7827   9.127  10.097  10.995  0.2350 -0.0629  0.0072
  782MOL0     C 7828   9.049  10.060  10.887  0.0122  0.3635  0.8255
  782MOL0     N 7829   8.612  10.160  10.260 -0.5129 -0.0823 -0.1889
  782MOL0     N 7830   8.606  10.203  10.141 -1.0522  0.5081 -0.1877
  782MOL0     C 7831   8.724  11.169   9.339  0.5054 -0.2167  0.3348
  782MOL0     C 7832   8.661  11.293   9.299 -0.4658 -0.0237  0.5029
  782MOL0     C 7833   8.606  11.654   9.073  0.0146  0.1667 -0.6760
  782MOL0     C 7834   8.489  11.695   9.142 -0.3836 -0.7441 -0.2831
  782MOL0     C 7835   8.391  11.786   9.094 -0.8047 -0.7427  0.0283
  782MOL0     C 7836   8.410  11.836   8.966  0.1690  0.4705  0.0210
  782MOL0     O 7837   8.323  11.938   8.925 -0.2325 -0.0043  0.0796
  782MOL0     C 7838   8.271  11.928   8.795 -0.2066  0.5243 -0.2963
  782MOL0     C 7839   8.191  12.048   8.783  0.8993  0.4348  0.8314
  782MOL0     C 7840   8.121  12.049   8.641 -0.2374 -0.0057 -1.1252
  782MOL0     C 7841   8.048  12.181   8.613 -0.0998 -0.3406 -0.0408
  782MOL0     C 7842   8.010  12.189   8.471 -0.1742  0.2893  0.0234
  782MOL0     C 7843   7.967  12.197   8.354 -0.5347 -0.2234 -0.9698
  782MOL0     C 7844   8.527  11.800   8.895 -0.0922  1.3749  0.2998
  782MOL0     C 7845   8.622  11.711   8.945 -0.3459  0.1207 -0.5806
  782MOL0     C 7846   8.749  11.686   8.866  0.4198  0.4496 -0.9824
  782MOL0     H 7847   8.879  11.505   9.449 -3.0310  2.6797  1.6509
  782MOL0     H 7848   8.979  11.299   9.522 -2.5277  1.2007  2.7505
  782MOL0     H 7849   8.800  11.087   9.633  0.2676 -0.7991  1.6063
  782MOL0     H 7850   8.953  10.998   9.639  0.5340  0.7406  0.0344
  782MOL0     H 7851   8.695  10.911   9.503 -0.9550  1.3068 -0.0718
  782MOL0     H 7852   8.826  10.791   9.533 -0.9260  0.0798  2.3089
  782MOL0     H 7853   8.717  10.919   9.785  0.2842 -1.1882  0.8496
  782MOL0     H 7854   8.620  10.818   9.705 -0.8014 -1.2928  4.8043
  782MOL0     H 7855   8.782  10.635   9.720 -0.5933 -0.5051  1.3660
  782MOL0     H 7856   8.919  10.740   9.770 -0.0026 -0.3885  1.5091
  782MOL0     H 7857   8.789  10.794   9.962  1.1740  0.3270 -2.5519
  782MOL0     H 7858   8.839  10.631   9.972  0.0430  1.2466  1.4754
  782MOL0     H 7859   8.570  10.742   9.960  1.7781  0.8955 -0.0608
  782MOL0     H 7860   8.588  10.630   9.829 -2.9687 -2.3059  2.7671
  782MOL0     H 7861   8.497  10.531  10.011  0.0898 -1.5412 -3.7798
  782MOL0     H 7862   8.610  10.591  10.127  2.6263  0.3738 -0.0595
  782MOL0     H 7863   8.658  10.369   9.916  2.8289  0.3494 -1.8030
  782MOL0     H 7864   8.793  10.436   9.997 -0.6683  1.7527  0.6372
  782MOL0     H 7865   8.744  10.460  10.304 -2.4613  1.1327  0.2561
  782MOL0     H 7866   8.594  10.238  10.543  1.2518  1.7151  1.7104
  782MOL0     H 7867   8.741  10.324  10.531 -0.8300  1.2911 -2.0367
  782MOL0     H 7868   8.724  10.024  10.481  1.7472  0.4723 -2.6526
  782MOL0     H 7869   8.867  10.112  10.444  1.6058 -4.9432  0.5801
  782MOL0     H 7870   8.919  10.184  10.671 -0.8760  1.7612  1.6128
  782MOL0     H 7871   8.768  10.116  10.726  0.8254 -2.2998  0.8088
  782MOL0     H 7872   8.839   9.889  10.612 -3.0543  2.5192 -0.8151
  782MOL0     H 7873   9.002   9.961  10.645 -1.4678  2.0722 -0.3934
  782MOL0     H 7874   8.895   9.800  11.032 -1.1043  0.7281 -1.2701
  782MOL0     H 7875   9.009   9.925  11.348 -1.0882  0.5589 -0.7174
  782MOL0     H 7876   9.126   9.807  11.278  1.5653  2.2926 -0.0473
  782MOL0     H 7877   8.958   9.783  11.266  1.2166 -0.6269  0.7413
  782MOL0     H 7878   9.565  10.081  11.242  1.5344 -0.0342  0.7011
  782MOL0     H 7879   9.730  10.219  11.372 -1.4057 -2.6897  0.6617
  782MOL0     H 7880   9.810  10.315  11.549 -0.4413 -0.7493 -0.6463
  782MOL0     H 7881   9.850  10.496  11.557 -2.5520  1.2526  3.5084
  782MOL0     H 7882   9.677  10.529  11.725 -0.3165  1.0599 -5.3560
  782MOL0     H 7883   9.636  10.362  11.716 -0.2127  0.5983  1.1308
  782MOL0     H 7884   9.914  10.430  11.798  0.1450 -2.4053 -1.4745
  782MOL0     H 7885   9.830  10.279  11.777  1.1505 -0.0683 -0.6397
  782MOL0     H 7886   9.663  10.348  11.960  0.5478  0.7750  3.1720
  782MOL0     H 7887   9.726  10.503  11.963 -1.6741 -0.4288 -1.9278
  782MOL0     H 7888   9.886  10.239  12.020 -0.9121  1.9170 -0.8075
  782MOL0     H 7889   9.955  10.396  12.033  0.1829  1.1629 -0.5459
  782MOL0     H 7890   9.738  10.270  12.191  0.8728 -1.0089 -4.4024
  782MOL0     H 7891   9.769  10.448  12.203  2.8315  2.1220 -1.2604
  782MOL0     H 7892   9.982  10.243  12.264  0.2092 -0.5417 -0.8456
  782MOL0     H 7893   9.868  10.299  12.391  0.1164  3.7226  1.0827
  782MOL0     H 7894  10.026  10.456  12.439  0.8824 -0.4529 -0.8373
  782MOL0     H 7895   9.910  10.532  12.339 -1.7155 -1.8652  2.9490
  782MOL0     H 7896   9.444  10.543  11.397 -1.8064  1.2394 -1.6554
  782MOL0     H 7897   9.274  10.397  11.283 -0.0102 -1.8522  0.8291
  782MOL0     H 7898   9.201  10.169  10.962 -0.1217  0.7217  0.8700
  782MOL0     H 7899   9.055  10.112  10.792 -3.4688  2.0419  1.3660
  782MOL0     H 7900   8.687  11.071   9.310 -2.4974  0.2976  1.9945
  782MOL0     H 7901   8.567  11.297   9.244 -1.1268 -1.8883  1.3939
  782MOL0     H 7902   8.470  11.664   9.244  0.1105  0.2779  0.1411
  782MOL0     H 7903   8.317  11.835   9.157 -1.0384 -0.1239 -0.7083
  782MOL0     H 7904   8.347  11.927   8.717 -1.1923 -3.3258 -1.4172
  782MOL0     H 7905   8.208  11.839   8.786  0.8302 -0.1175 -1.6070
  782MOL0     H 7906   8.264  12.130   8.787  2.7872 -1.2078  1.6189
  782MOL0     H 7907   8.113  12.049   8.860  1.0229 -0.0014  0.9598
  782MOL0     H 7908   8.196  12.023   8.566  2.4992 -4.7292  2.6976
  782MOL0     H 7909   8.040  11.975   8.649  0.2531 -0.3217  2.6980
  782MOL0     H 7910   8.122  12.258   8.636 -1.9791  1.9933 -1.3922
  782MOL0     H 7911   7.962  12.188   8.680  0.9645 -3.2823  1.8175
  782MOL0     H 7912   7.929  12.202   8.254  0.0993 -0.6510 -1.2433
  782MOL0     H 7913   8.544  11.847   8.799 -1.9568 -1.6743 -1.7160
  782MOL0     H 7914   8.835  11.712   8.929  1.2532  2.3859 -2.8146
  782MOL0     H 7915   8.756  11.580   8.839  0.3717  0.3535 -0.6343
  782MOL0     H 7916   8.746  11.755   8.782  1.7882  3.2099  1.0657
  783MOL0     O 7917   6.849   4.671   5.473  0.1156 -0.3623  0.9894
  783MOL0     C 7918   6.917   4.688   5.372 -0.1172  0.3946  0.2444
  783MOL0     O 7919   6.990   4.806   5.344 -0.7061  0.1538 -0.1585
  783MOL0     C 7920   7.013   4.882   5.457 -1.2299  0.3006  0.3871
  783MOL0     C 7921   7.140   4.880   5.514  0.7215  0.0306 -0.0799
  783MOL0     C 7922   7.173   4.959   5.622 -0.6668 -0.2572  0.3514
  783MOL0     C 7923   7.079   5.041   5.675 -0.3833  0.8206 -0.5678
  783MOL0     O 7924   7.107   5.091   5.797 -0.3801  0.4215 -0.2530
  783MOL0     C 7925   7.082   5.011   5.909  0.9920  0.9976 -0.3176
  783MOL0     C 7926   7.101   5.091   6.033  0.4794 -0.4167  0.6844
  783MOL0     C 7927   6.995   5.086   6.141 -0.9860 -0.6458 -0.7673
  783MOL0     C 7928   7.017   4.951   6.220 -0.1437 -0.6289 -0.0744
  783MOL0     C 7929   6.977   4.980   6.367 -0.6337 -0.8211  0.7485
  783MOL0     C 7930   7.000   4.861   6.464 -0.3127 -0.3675 -0.6830
  783MOL0     C 7931   6.924   4.889   6.597 -0.5932  0.6418 -0.5570
  783MOL0     C 7932   6.989   4.803   6.715 -1.5642 -0.6772 -0.1867
  783MOL0     N 7933   6.940   4.827   6.852 -0.6359  0.4511 -0.9916
  783MOL0     C 7934   6.953   4.945   6.931 -0.2385 -0.5096  0.7370
  783MOL0     C 7935   6.869   4.931   7.032 -0.6022  0.3092  0.1078
  783MOL0     C 7936   6.839   5.031   7.143 -0.4840 -0.0834 -0.7756
  783MOL0     C 7937   6.905   4.979   7.274 -0.1259  0.9218 -0.0015
  783MOL0     C 7938   7.056   4.946   7.258 -0.4832  0.2321 -0.7821
  783MOL0     C 7939   7.131   4.923   7.394  0.0719  0.4161 -0.2357
  783MOL0     O 7940   7.053   4.838   7.481 -0.1250  0.0677 -0.2393
  783MOL0     C 7941   7.082   4.831   7.615 -0.5214  0.7219  0.2482
  783MOL0     C 7942   7.210   4.859   7.664 -0.2348  0.5082 -0.7274
  783MOL0     C 7943   7.230   4.841   7.801  0.2035 -0.8069  0.0304
  783MOL0     C 7944   7.361   4.890   7.841 -0.5234  0.4847 -0.2216
  783MOL0     C 7945   7.130   4.803   7.892  0.1610 -0.1603 -0.2078
  783MOL0     C 7946   7.155   4.799   8.040 -0.7160 -0.3693  0.5755
  783MOL0     O 7947   7.044   4.818   8.118 -0.3186 -0.1388 -1.0985
  783MOL0     C 7948   7.053   4.859   8.254 -0.5791 -0.8479  0.2377
  783MOL0     C 7949   7.051   4.767   8.362  0.5335 -0.2400  0.4354
  783MOL0     C 7950   7.068   4.805   8.488 -0.2947 -0.1911 -0.8180
  783MOL0     C 7951   7.070   4.947   8.522 -0.7666  0.4591 -0.6082
  783MOL0     O 7952   7.083   4.980   8.651  0.5052 -0.3794  0.1809
  783MOL0     C 7953   6.973   5.063   8.691 -0.0447  0.3134 -0.5393
  783MOL0     C 7954   7.007   5.103   8.829  0.4738 -1.7835 -0.2939
  783MOL0     C 7955   6.963   4.997   8.932  1.0688 -0.4485 -0.6808
  783MOL0     C 7956   6.801   4.999   8.967  0.8546 -0.1555  0.4742
  783MOL0     C 7957   6.756   4.944   9.108 -0.0324  0.5967  1.0946
  783MOL0     C 7958   6.850   4.844   9.175 -0.2581 -0.0584  0.5000
  783MOL0     C 7959   6.807   4.826   9.321 -0.2979 -0.3588 -0.2393
  783MOL0     C 7960   6.914   4.834   9.425 -1.2048  0.5793  0.1433
  783MOL0    Cl 7961   7.046   4.730   9.369  0.1313  0.1946  0.1737
  783MOL0     C 7962   7.084   5.040   8.416  0.2089  0.2919 -0.4590
  783MOL0     C 7963   7.071   4.994   8.286  0.3077 -0.5770 -0.2046
  783MOL0     O 7964   7.264   4.761   8.080 -0.1170  0.6838 -0.9787
  783MOL0     C 7965   7.004   4.794   7.840  0.9138  0.6584  0.0171
  783MOL0     C 7966   6.987   4.796   7.700  0.8261 -0.4039 -1.3922
  783MOL0     N 7967   6.818   4.800   7.036 -0.1701 -0.8291 -0.3518
  783MOL0     N 7968   6.859   4.740   6.926  0.0218 -0.4534  0.4710
  783MOL0     C 7969   6.951   5.044   5.618  0.3881 -0.0295 -0.4817
  783MOL0     C 7970   6.913   4.971   5.507 -0.0135  0.0885  0.9827
  783MOL0     C 7971   6.935   4.573   5.273 -0.2018  0.2068  0.0430
  783MOL0     C 7972   7.054   4.562   5.198  0.7362  0.0286  0.7275
  783MOL0     C 7973   7.067   4.453   5.109 -0.7995 -0.8797  0.2273
  783MOL0     C 7974   6.957   4.370   5.090  0.0471 -0.0913  1.2854
  783MOL0     O 7975   6.959   4.267   5.005 -0.1763  0.9820  0.4492
  783MOL0     C 7976   7.074   4.185   4.987 -0.2179  0.0036 -0.1162
  783MOL0     C 7977   7.076   4.091   5.105  0.3936 -0.0760  0.5729
  783MOL0     C 7978   6.968   3.986   5.091 -1.1973  0.5532  0.1499
  783MOL0     C 7979   6.960   3.900   4.958  0.8257 -0.2102 -0.3468
  783MOL0     C 7980   6.903   3.764   4.950 -1.5952  1.2597  0.1351
  783MOL0     C 7981   6.871   3.645   4.953  0.7470  0.8006 -0.2735
  783MOL0     C 7982   6.842   4.400   5.139 -0.0189 -0.4487 -0.9634
  783MOL0     C 7983   6.823   4.492   5.240 -0.0389 -0.1735 -0.4654
  783MOL0     C 7984   6.684   4.496   5.303 -0.2892 -0.5793 -0.4235
  783MOL0     H 7985   7.212   4.811   5.471  0.1395 -2.7857  3.0424
  783MOL0     H 7986   7.261   4.940   5.682 -0.1196  0.1862 -0.2934
  783MOL0     H 7987   7.145   4.921   5.914  0.5600  0.7826  2.4125
  783MOL0     H 7988   6.977   4.981   5.906  1.2947 -0.1502  0.1467
  783MOL0     H 7989   7.201   5.073   6.074  1.1435  2.1127  0.3223
  783MOL0     H 7990   7.109   5.196   6.005 -2.5965 -0.2841 -0.0575
  783MOL0     H 7991   7.013   5.178   6.197 -0.0010  0.4795 -2.8004
  783MOL0     H 7992   6.898   5.091   6.090 -0.1441 -1.9616 -2.6543
  783MOL0     H 7993   6.946   4.881   6.175 -1.7890  0.3454  0.8688
  783MOL0     H 7994   7.117   4.907   6.218 -0.0246 -0.3479 -0.3745
  783MOL0     H 7995   6.870   5.005   6.367 -0.4751 -0.1147  1.1168
  783MOL0     H 7996   7.039   5.062   6.404  1.1530 -1.7508 -0.0890
  783MOL0     H 7997   6.964   4.769   6.418  0.0921 -0.2062 -1.3303
  783MOL0     H 7998   7.106   4.847   6.487 -0.1379  1.4325 -0.2689
  783MOL0     H 7999   6.820   4.859   6.581 -0.9061  1.6863 -0.5459
  783MOL0     H 8000   6.928   4.993   6.628  3.6673  0.4926 -0.0805
  783MOL0     H 8001   6.983   4.694   6.703  3.5150 -1.8393  3.9717
  783MOL0     H 8002   7.095   4.831   6.721 -1.9455  0.8218  0.0332
  783MOL0     H 8003   7.004   5.034   6.898 -0.8886  0.7715  2.9546
  783MOL0     H 8004   6.732   5.037   7.166  0.1230 -0.4259  2.7063
  783MOL0     H 8005   6.874   5.129   7.108  0.1346  0.9785  2.5044
  783MOL0     H 8006   6.892   5.048   7.357  1.0476  2.4784 -1.0512
  783MOL0     H 8007   6.847   4.888   7.293 -0.0095  0.4553 -1.6684
  783MOL0     H 8008   7.075   4.858   7.196  0.4959 -2.3262  2.8350
  783MOL0     H 8009   7.084   5.039   7.208  1.0527 -0.0163 -0.4395
  783MOL0     H 8010   7.230   4.880   7.377 -0.6921 -1.8518  0.7435
  783MOL0     H 8011   7.142   5.018   7.448  1.5340  0.2315 -0.1818
  783MOL0     H 8012   7.295   4.878   7.598 -1.0511  1.4761 -1.5254
  783MOL0     H 8013   7.435   4.878   7.761  2.3265 -2.4790  2.5541
  783MOL0     H 8014   7.408   4.827   7.917  1.7798  0.8582 -1.2285
  783MOL0     H 8015   7.354   4.994   7.876  1.7504  1.1877 -1.5810
  783MOL0     H 8016   7.049   4.660   8.344 -0.4208 -0.2525  0.5511
  783MOL0     H 8017   7.054   4.732   8.568 -2.2504 -0.7277 -1.5896
  783MOL0     H 8018   6.964   5.146   8.621  2.0661  0.2596 -0.9442
  783MOL0     H 8019   6.877   5.013   8.703 -1.4295  2.9227 -0.1837
  783MOL0     H 8020   7.115   5.120   8.843  0.4657  0.6736 -2.4337
  783MOL0     H 8021   6.965   5.203   8.840  0.7916 -1.8786  2.6029
  783MOL0     H 8022   7.006   5.023   9.029 -0.4220 -0.0922 -0.0816
  783MOL0     H 8023   6.988   4.897   8.895 -0.2367 -1.7584  1.6803
  783MOL0     H 8024   6.747   4.947   8.888 -2.3243 -0.4772  2.6837
  783MOL0     H 8025   6.764   5.100   8.946 -0.5681  0.0105  3.3062
  783MOL0     H 8026   6.752   5.036   9.167  0.0275  1.5125 -0.2852
  783MOL0     H 8027   6.655   4.903   9.095  1.0154 -1.5064 -1.0781
  783MOL0     H 8028   6.951   4.886   9.173 -0.5084  0.5495  0.4204
  783MOL0     H 8029   6.862   4.752   9.116  1.1167  0.9717 -0.8996
  783MOL0     H 8030   6.763   4.727   9.337 -1.3412  0.0301 -0.5951
  783MOL0     H 8031   6.736   4.907   9.341 -0.8980 -0.2766 -2.4123
  783MOL0     H 8032   6.868   4.811   9.522 -5.5080  2.5377 -1.2077
  783MOL0     H 8033   6.939   4.940   9.421  0.9313  0.0870 -1.8896
  783MOL0     H 8034   7.078   5.147   8.435  2.1547  0.4812 -0.6592
  783MOL0     H 8035   7.076   5.065   8.204 -0.5886 -0.6709 -0.3528
  783MOL0     H 8036   6.915   4.776   7.899  0.4988  0.4643 -0.6520
  783MOL0     H 8037   6.886   4.776   7.666  0.0825 -0.6327  0.7574
  783MOL0     H 8038   6.871   5.104   5.660 -0.2195 -1.2075  0.1136
  783MOL0     H 8039   6.820   4.970   5.450  0.0025  1.9654  0.8418
  783MOL0     H 8040   7.141   4.624   5.212 -0.5264  1.9636  0.3878
  783MOL0     H 8041   7.161   4.435   5.058 -1.3993  0.3530 -1.4140
  783MOL0     H 8042   7.063   4.142   4.886 -2.6560 -1.4491  0.6891
  783MOL0     H 8043   7.167   4.241   4.970 -0.4135 -0.0955 -1.7415
  783MOL0     H 8044   7.073   4.140   5.202  0.3251 -1.3216  1.2137
  783MOL0     H 8045   7.171   4.036   5.111  1.0923  1.1178  0.8493
  783MOL0     H 8046   6.996   3.920   5.173  0.8079 -0.3479 -1.1965
  783MOL0     H 8047   6.869   4.029   5.108 -1.5688 -0.2108 -0.0497
  783MOL0     H 8048   7.067   3.895   4.938  1.2161  0.6630  1.3096
  783MOL0     H 8049   6.906   3.959   4.883 -0.5150 -1.8863 -0.7586
  783MOL0     H 8050   6.839   3.543   4.955  0.0065  1.0368  1.6931
  783MOL0     H 8051   6.762   4.330   5.118 -1.9330  1.7258 -1.2686
  783MOL0     H 8052   6.618   4.410   5.287  1.1620 -2.0343  0.9875
  783MOL0     H 8053   6.692   4.491   5.412 -1.8597  1.7684 -0.1377
  783MOL0     H 8054   6.634   4.584   5.262  2.5259  1.3850  0.0878
  784MOL0     O 8055   2.075   7.452   2.841 -0.4458  0.1345  0.1287
  784MOL0     C 8056   2.160   7.412   2.763 -0.8220 -1.4895 -0.5590
  784MOL0     O 8057   2.208   7.282   2.761 -1.3042 -0.2906  0.7177
  784MOL0     C 8058   2.163   7.195   2.848 -0.1939 -0.1777 -0.9222
  784MOL0     C 8059   2.072   7.103   2.804 -0.1588  0.2930  0.0986
  784MOL0     C 8060   2.021   7.002   2.882  0.2266 -0.9262 -0.4436
  784MOL0     C 8061   2.065   6.994   3.020 -0.3542  0.0003  0.3953
  784MOL0     O 8062   2.020   6.891   3.098 -0.6004  0.4024  0.3229
  784MOL0     C 8063   2.094   6.866   3.217  0.4919  0.2328  0.1610
  784MOL0     C 8064   2.021   6.737   3.267  0.7942 -0.6959  0.2127
  784MOL0     C 8065   2.085   6.686   3.392  0.2082 -0.8075  0.2554
  784MOL0     C 8066   2.180   6.575   3.343  0.0866  0.3670  0.4358
  784MOL0     C 8067   2.271   6.523   3.445 -0.5304  0.1671  0.8490
  784MOL0     C 8068   2.293   6.373   3.427  0.1316  0.4409  0.0436
  784MOL0     C 8069   2.386   6.322   3.537 -0.6963 -0.1024 -0.3486
  784MOL0     C 8070   2.301   6.288   3.669  0.0797  0.1949  0.2259
  784MOL0     N 8071   2.375   6.220   3.774  0.1721  1.1573  0.3047
  784MOL0     C 8072   2.328   6.101   3.834  0.3797  0.4137  0.5881
  784MOL0     C 8073   2.419   6.067   3.921  0.8065 -0.6466 -0.8651
  784MOL0     C 8074   2.421   5.950   4.011 -0.9658  0.1173 -0.2921
  784MOL0     C 8075   2.402   5.813   3.936  0.0839 -0.7193 -0.3355
  784MOL0     C 8076   2.505   5.795   3.817  0.1630 -0.0493 -0.5926
  784MOL0     C 8077   2.446   5.716   3.706 -0.3711  0.6137  0.2575
  784MOL0     O 8078   2.335   5.797   3.657  0.1542 -0.5634  0.2605
  784MOL0     C 8079   2.308   5.762   3.525 -0.4067  0.9518 -0.3516
  784MOL0     C 8080   2.300   5.870   3.437 -0.0918 -0.0662 -0.2238
  784MOL0     C 8081   2.289   5.850   3.299  0.6625 -1.3488  0.4717
  784MOL0     C 8082   2.286   5.986   3.219 -0.1572 -0.2809 -0.1160
  784MOL0     C 8083   2.277   5.723   3.246 -0.2276  0.2071 -0.4292
  784MOL0     C 8084   2.246   5.687   3.106  0.2427 -0.3138  0.1921
  784MOL0     O 8085   2.168   5.778   3.044  0.3711  0.2939  0.9176
  784MOL0     C 8086   2.132   5.768   2.908  0.0278 -0.6456  0.0201
  784MOL0     C 8087   2.090   5.648   2.865 -0.4434  0.4306  0.5670
  784MOL0     C 8088   2.042   5.629   2.732 -0.2512  0.4980 -0.4671
  784MOL0     C 8089   2.032   5.734   2.647  0.2309  0.3604  0.2023
  784MOL0     O 8090   1.983   5.721   2.518 -0.0020 -0.1491 -0.0428
  784MOL0     C 8091   2.067   5.643   2.437  0.5200  0.3689  0.1093
  784MOL0     C 8092   1.996   5.626   2.305 -0.5295  0.0677  1.0160
  784MOL0     C 8093   2.043   5.505   2.226 -0.2221  0.2026 -0.5969
  784MOL0     C 8094   1.946   5.473   2.116 -0.5130 -0.6030 -0.0200
  784MOL0     C 8095   1.943   5.329   2.082  0.3310  0.1676  0.6964
  784MOL0     C 8096   2.069   5.297   1.997  0.1358  0.4003 -0.6065
  784MOL0     C 8097   2.045   5.147   1.966 -0.2548  0.5679 -0.1654
  784MOL0     C 8098   2.134   5.081   1.861  0.0035  0.4293  0.7545
  784MOL0    Cl 8099   2.105   5.162   1.708  0.3377  0.1086 -0.2957
  784MOL0     C 8100   2.076   5.861   2.694 -0.2435 -0.6665  1.0085
  784MOL0     C 8101   2.126   5.880   2.821  0.3038 -0.3352 -1.1497
  784MOL0     O 8102   2.314   5.603   3.047  0.4611 -0.2708 -0.0536
  784MOL0     C 8103   2.280   5.611   3.336 -0.1529  0.5821 -0.7614
  784MOL0     C 8104   2.309   5.632   3.470 -1.1768  0.1768  0.5536
  784MOL0     N 8105   2.529   6.152   3.905  0.1995  0.5794  0.3177
  784MOL0     N 8106   2.500   6.241   3.814 -0.7847 -0.2750 -0.1914
  784MOL0     C 8107   2.156   7.091   3.073 -0.4009 -0.2040 -0.3364
  784MOL0     C 8108   2.204   7.192   2.986 -0.4950 -0.5493  0.6091
  784MOL0     C 8109   2.217   7.505   2.672 -0.4810 -0.5727  0.8356
  784MOL0     C 8110   2.305   7.606   2.703 -0.1829 -0.2284 -1.1879
  784MOL0     C 8111   2.385   7.675   2.604  0.7612 -0.8431 -0.8706
  784MOL0     C 8112   2.358   7.652   2.472  0.2809  0.1235  1.0431
  784MOL0     O 8113   2.435   7.722   2.376  0.3857 -0.1607 -0.3406
  784MOL0     C 8114   2.356   7.786   2.274 -0.6841 -1.1243  0.4619
  784MOL0     C 8115   2.455   7.825   2.164  0.0879  0.6982  0.5892
  784MOL0     C 8116   2.543   7.705   2.104  0.0210 -0.0603 -0.2801
  784MOL0     C 8117   2.635   7.762   1.993 -0.6743  0.2782  0.2361
  784MOL0     C 8118   2.684   7.658   1.895 -0.9275 -0.2720 -1.2392
  784MOL0     C 8119   2.739   7.596   1.804  0.3918  0.6966  0.4437
  784MOL0     C 8120   2.274   7.551   2.436  0.3802  0.4468  0.1047
  784MOL0     C 8121   2.203   7.476   2.529 -0.2977 -0.0722 -0.1825
  784MOL0     C 8122   2.135   7.350   2.483 -0.0469 -0.5066  0.3117
  784MOL0     H 8123   2.048   7.100   2.698  2.4269  0.4027 -0.5611
  784MOL0     H 8124   1.950   6.927   2.849 -1.3749 -0.8847  2.5853
  784MOL0     H 8125   2.097   6.947   3.290  0.7415  0.4582 -0.0998
  784MOL0     H 8126   2.194   6.839   3.184  0.0531 -0.6310 -0.4929
  784MOL0     H 8127   1.916   6.749   3.299  1.4994  1.0198  2.0946
  784MOL0     H 8128   2.009   6.667   3.184 -4.1622 -0.7353  0.6424
  784MOL0     H 8129   2.124   6.772   3.447  0.3903 -0.7121 -0.0175
  784MOL0     H 8130   2.020   6.646   3.471 -1.0611  2.5050  1.0200
  784MOL0     H 8131   2.115   6.500   3.299  0.9893  0.0715 -0.4305
  784MOL0     H 8132   2.246   6.606   3.261  1.2245 -3.7956 -0.4515
  784MOL0     H 8133   2.242   6.557   3.545 -0.8144  1.6141  0.2990
  784MOL0     H 8134   2.363   6.579   3.427 -1.3994  1.4130  0.0959
  784MOL0     H 8135   2.198   6.320   3.434  1.7639 -2.8522 -0.7180
  784MOL0     H 8136   2.343   6.358   3.331  2.1302  0.8747  0.9572
  784MOL0     H 8137   2.477   6.383   3.549  1.2640 -2.8320 -0.3855
  784MOL0     H 8138   2.413   6.225   3.496 -0.0502  0.9960 -2.7411
  784MOL0     H 8139   2.264   6.381   3.713  0.9018  0.8987 -0.5323
  784MOL0     H 8140   2.217   6.224   3.638  1.1467 -0.2185 -1.9804
  784MOL0     H 8141   2.230   6.055   3.819 -0.2178  2.1241 -1.4003
  784MOL0     H 8142   2.336   5.977   4.073  0.1497  0.7202  1.0339
  784MOL0     H 8143   2.506   5.946   4.079 -1.2595  1.2907  0.1592
  784MOL0     H 8144   2.420   5.726   3.999  3.3219  0.3391  0.3865
  784MOL0     H 8145   2.301   5.811   3.894 -0.3901  0.2273  0.7240
  784MOL0     H 8146   2.528   5.898   3.789 -1.0298  1.5734  3.6483
  784MOL0     H 8147   2.588   5.732   3.850 -2.0700 -3.2334 -0.6178
  784MOL0     H 8148   2.519   5.682   3.633 -1.8518 -1.7793 -0.2220
  784MOL0     H 8149   2.395   5.632   3.756  0.2552  0.7425  1.1399
  784MOL0     H 8150   2.298   5.970   3.480  0.4626  1.3391 -3.1792
  784MOL0     H 8151   2.339   5.960   3.126  0.3302 -0.9065  0.3282
  784MOL0     H 8152   2.327   6.073   3.270 -0.5542 -0.0420 -0.1950
  784MOL0     H 8153   2.185   6.008   3.183  0.9757  1.9818 -2.2366
  784MOL0     H 8154   2.082   5.560   2.928  3.0032 -0.3079  0.1738
  784MOL0     H 8155   2.007   5.533   2.694  0.3113  0.3344 -0.5772
  784MOL0     H 8156   2.164   5.692   2.425 -0.1298  2.2709  1.9479
  784MOL0     H 8157   2.076   5.544   2.482 -1.6066 -0.3450 -0.8640
  784MOL0     H 8158   1.890   5.606   2.324  0.3389 -5.0721  2.0438
  784MOL0     H 8159   2.024   5.711   2.243  3.1399 -0.9433  1.0190
  784MOL0     H 8160   2.050   5.422   2.297 -0.4332  1.5966  1.1135
  784MOL0     H 8161   2.142   5.522   2.183 -0.7323  0.4685 -1.6953
  784MOL0     H 8162   1.976   5.514   2.019  2.6084 -1.9427  0.2408
  784MOL0     H 8163   1.844   5.502   2.144 -1.1472 -2.2264 -0.5450
  784MOL0     H 8164   1.937   5.277   2.178 -1.6637  0.1406  0.6039
  784MOL0     H 8165   1.856   5.311   2.018  2.0101  1.9496 -2.3010
  784MOL0     H 8166   2.162   5.300   2.054 -0.7110 -0.1927  0.8787
  784MOL0     H 8167   2.080   5.350   1.902  1.5810 -2.0476 -1.9189
  784MOL0     H 8168   1.940   5.140   1.938 -1.0868  1.8819  2.3123
  784MOL0     H 8169   2.061   5.086   2.056 -1.5484 -1.0694 -0.9892
  784MOL0     H 8170   2.102   4.977   1.861 -2.7485  1.1822  1.6133
  784MOL0     H 8171   2.238   5.083   1.894 -0.2737  0.9147  1.6315
  784MOL0     H 8172   2.085   5.950   2.632 -1.5089  0.8263  2.8403
  784MOL0     H 8173   2.160   5.980   2.847 -0.5152 -0.7011  1.7801
  784MOL0     H 8174   2.262   5.512   3.296  3.0081  0.6617 -2.7449
  784MOL0     H 8175   2.332   5.543   3.527 -0.7906 -0.1367 -0.0720
  784MOL0     H 8176   2.196   7.078   3.173  1.6182 -1.5176 -1.2267
  784MOL0     H 8177   2.269   7.264   3.035  1.2514 -1.3587 -0.4039
  784MOL0     H 8178   2.325   7.619   2.808  2.4661  1.3891 -1.7894
  784MOL0     H 8179   2.458   7.754   2.620 -0.9288  0.9934 -1.6854
  784MOL0     H 8180   2.283   7.713   2.239  0.1439 -2.6659  1.8189
  784MOL0     H 8181   2.305   7.877   2.308 -0.0861 -0.7963  0.4915
  784MOL0     H 8182   2.526   7.898   2.203  1.5918 -0.1858 -0.3904
  784MOL0     H 8183   2.402   7.858   2.075  0.4593  1.1173  0.5217
  784MOL0     H 8184   2.605   7.652   2.178 -0.3062  0.0120  0.0457
  784MOL0     H 8185   2.471   7.632   2.066 -0.5540  0.3078  0.0891
  784MOL0     H 8186   2.727   7.789   2.047 -0.7495 -1.0739  1.1068
  784MOL0     H 8187   2.591   7.853   1.953 -0.0008 -0.0477 -1.2947
  784MOL0     H 8188   2.759   7.538   1.716  0.6003  2.8237 -0.9771
  784MOL0     H 8189   2.269   7.524   2.331 -0.5364  0.6422  0.0918
  784MOL0     H 8190   2.058   7.313   2.551 -0.4120  1.6939  1.1796
  784MOL0     H 8191   2.084   7.376   2.390 -2.3528  2.9000  2.2885
  784MOL0     H 8192   2.203   7.269   2.457 -0.4448 -0.2893 -1.5646
  785MOL0     O 8193   8.006   8.786   6.836  0.5660  0.5995 -0.0790
  785MOL0     C 8194   8.126   8.761   6.836 -0.5029 -0.2037 -0.4403
  785MOL0     O 8195   8.200   8.733   6.726 -0.1901  0.6586 -0.2828
  785MOL0     C 8196   8.136   8.669   6.618 -0.2923  0.5559 -0.0060
  785MOL0     C 8197   8.196   8.692   6.497 -0.3563 -1.0379  0.1775
  785MOL0     C 8198   8.148   8.628   6.382 -0.1815 -0.1136 -0.0882
  785MOL0     C 8199   8.037   8.542   6.384 -0.1611  0.3195  0.6947
  785MOL0     O 8200   7.982   8.470   6.280 -0.1484  0.2807 -0.4882
  785MOL0     C 8201   8.036   8.504   6.154  0.2169  0.1597  1.1753
  785MOL0     C 8202   7.947   8.462   6.037  0.1331 -0.0337  0.3616
  785MOL0     C 8203   7.811   8.529   6.043  0.6391  0.1658  0.2765
  785MOL0     C 8204   7.740   8.503   5.911  0.2913 -0.3363 -0.0774
  785MOL0     C 8205   7.591   8.568   5.910 -0.6198  0.0037  0.1236
  785MOL0     C 8206   7.489   8.511   5.999 -0.1638 -0.7959  0.2670
  785MOL0     C 8207   7.368   8.595   6.015 -0.0279  0.3670 -1.4431
  785MOL0     C 8208   7.286   8.592   5.897 -0.1229  0.3557  0.8582
  785MOL0     N 8209   7.190   8.707   5.896 -0.6195  0.2703 -0.9922
  785MOL0     C 8210   7.057   8.675   5.900  0.5456  0.1113 -0.3950
  785MOL0     C 8211   6.995   8.794   5.888 -0.0344  0.1776 -0.5132
  785MOL0     C 8212   6.853   8.825   5.901  0.5823 -0.1023 -0.9475
  785MOL0     C 8213   6.773   8.770   6.024 -0.6768  0.5006 -0.4178
  785MOL0     C 8214   6.837   8.810   6.151  0.3824  0.3599  0.0420
  785MOL0     C 8215   6.869   8.957   6.180  0.5587 -1.4805  1.0311
  785MOL0     O 8216   6.758   9.047   6.136  0.2890 -0.5719  0.8142
  785MOL0     C 8217   6.773   9.177   6.168  0.3284  0.0065 -0.3007
  785MOL0     C 8218   6.692   9.264   6.094  0.4727  0.8609 -0.6604
  785MOL0     C 8219   6.694   9.402   6.113 -0.4234 -0.4297 -0.4650
  785MOL0     C 8220   6.613   9.499   6.030 -0.7756 -0.4118  0.3454
  785MOL0     C 8221   6.775   9.458   6.222 -0.2183 -0.1942  0.7752
  785MOL0     C 8222   6.774   9.595   6.277  0.4719  1.1978  0.0942
  785MOL0     O 8223   6.752   9.594   6.406  0.0068 -0.1217  0.1746
  785MOL0     C 8224   6.721   9.721   6.460 -0.3238 -1.1386 -0.3448
  785MOL0     C 8225   6.593   9.776   6.461  0.2041  0.3326 -0.3014
  785MOL0     C 8226   6.567   9.905   6.509  0.1754  0.1768  0.3924
  785MOL0     C 8227   6.675   9.990   6.540  0.0162  0.0982 -0.1123
  785MOL0     O 8228   6.648  10.115   6.579 -0.4389 -0.3079 -0.6373
  785MOL0     C 8229   6.741  10.224   6.534  1.1022  0.1676  0.0606
  785MOL0     C 8230   6.682  10.364   6.551  0.3400 -0.6557 -0.6399
  785MOL0     C 8231   6.562  10.370   6.468 -1.0676 -0.7093 -0.5809
  785MOL0     C 8232   6.503  10.505   6.497 -0.5336  0.6673  0.2606
  785MOL0     C 8233   6.385  10.537   6.412  0.5498 -0.5576 -1.2563
  785MOL0     C 8234   6.424  10.551   6.264 -0.0829  0.6861 -0.0939
  785MOL0     C 8235   6.379  10.680   6.193  0.3527 -0.3176 -0.7834
  785MOL0     C 8236   6.480  10.731   6.089  0.5526  0.2494 -0.3434
  785MOL0    Cl 8237   6.599  10.810   6.189 -0.3341  0.1816  0.3071
  785MOL0     C 8238   6.801   9.932   6.549  0.0355  0.5066  1.1487
  785MOL0     C 8239   6.828   9.804   6.510 -0.1584  0.9653 -0.2423
  785MOL0     O 8240   6.790   9.692   6.208  0.6138 -0.2840  0.1507
  785MOL0     C 8241   6.859   9.365   6.287 -1.0575  0.3644 -0.0789
  785MOL0     C 8242   6.865   9.231   6.262  0.8512  0.9986  0.4449
  785MOL0     N 8243   7.089   8.893   5.899 -0.3832  0.0524 -0.1815
  785MOL0     N 8244   7.208   8.845   5.904  0.2846 -0.1079 -0.4646
  785MOL0     C 8245   7.975   8.517   6.507 -0.2768  0.7847  0.1568
  785MOL0     C 8246   8.019   8.587   6.622 -1.0958  0.1673  0.3201
  785MOL0     C 8247   8.204   8.792   6.952 -0.8164 -0.3875  0.3488
  785MOL0     C 8248   8.344   8.817   6.939 -0.7085  0.4042  0.2163
  785MOL0     C 8249   8.441   8.845   7.039  0.8092 -0.2042  0.7384
  785MOL0     C 8250   8.380   8.864   7.166 -0.6052 -0.3119 -0.0588
  785MOL0     O 8251   8.448   8.894   7.284  0.6248 -0.7120  0.5665
  785MOL0     C 8252   8.571   8.824   7.313  0.4412  0.4625  0.6856
  785MOL0     C 8253   8.696   8.924   7.298  0.4634 -0.6440 -0.4283
  785MOL0     C 8254   8.822   8.873   7.370  0.0808 -1.1383  1.1498
  785MOL0     C 8255   8.868   8.747   7.309 -0.4044  0.1520 -0.5619
  785MOL0     C 8256   8.981   8.692   7.387  0.0571  0.7468  0.8785
  785MOL0     C 8257   9.071   8.654   7.457 -0.5570  0.3710  1.0068
  785MOL0     C 8258   8.250   8.840   7.191 -0.9155  0.2568  0.6710
  785MOL0     C 8259   8.161   8.802   7.088 -1.3763  0.1871  0.1371
  785MOL0     C 8260   8.014   8.771   7.121 -0.5608  0.2752  0.3693
  785MOL0     H 8261   8.284   8.755   6.494 -0.3843 -1.0291 -0.9104
  785MOL0     H 8262   8.208   8.627   6.292 -0.0879  1.0469 -0.0548
  785MOL0     H 8263   8.138   8.469   6.136 -0.5226  0.0141 -5.0045
  785MOL0     H 8264   8.031   8.612   6.137  0.6698 -0.3140 -3.0131
  785MOL0     H 8265   8.002   8.500   5.950  0.3605 -1.4920 -0.1664
  785MOL0     H 8266   7.949   8.352   6.034  1.6723 -0.0222 -0.0795
  785MOL0     H 8267   7.761   8.489   6.131 -0.7523 -1.8906 -1.3405
  785MOL0     H 8268   7.817   8.638   6.049 -1.5814  0.2440  3.1812
  785MOL0     H 8269   7.788   8.563   5.833 -2.3173  2.5989  0.3520
  785MOL0     H 8270   7.736   8.399   5.878  1.8717 -0.2055 -0.7626
  785MOL0     H 8271   7.561   8.547   5.806  1.8049  2.1050 -1.1208
  785MOL0     H 8272   7.605   8.676   5.926  1.2752 -0.1970  0.0545
  785MOL0     H 8273   7.474   8.407   5.967  1.0600 -0.5108 -1.3653
  785MOL0     H 8274   7.544   8.491   6.092 -1.7158  0.6251  1.5361
  785MOL0     H 8275   7.413   8.691   6.042  0.0754  0.7188 -2.7948
  785MOL0     H 8276   7.308   8.567   6.102  1.9731 -2.1718 -0.7694
  785MOL0     H 8277   7.356   8.605   5.814 -0.1737 -0.0869  0.7419
  785MOL0     H 8278   7.234   8.496   5.888  0.6602  0.0598 -1.2002
  785MOL0     H 8279   7.007   8.579   5.906  0.5320  0.0963 -0.7263
  785MOL0     H 8280   6.799   8.795   5.811 -0.6796  1.6990 -0.8430
  785MOL0     H 8281   6.850   8.934   5.906  2.8982  0.3034 -4.8285
  785MOL0     H 8282   6.671   8.808   6.033 -0.7468  0.3986 -0.7664
  785MOL0     H 8283   6.769   8.662   6.011 -4.3740  0.7642 -2.9010
  785MOL0     H 8284   6.767   8.776   6.229 -1.5640 -1.0048 -2.1389
  785MOL0     H 8285   6.935   8.762   6.147  1.3071  2.1634 -0.0637
  785MOL0     H 8286   6.878   8.966   6.288 -1.2757 -1.3445  1.2044
  785MOL0     H 8287   6.965   8.981   6.132 -0.6350 -3.7714 -2.9719
  785MOL0     H 8288   6.637   9.222   6.010 -2.2115  0.0435  1.3587
  785MOL0     H 8289   6.534   9.454   5.969 -1.0696  3.7833 -2.8403
  785MOL0     H 8290   6.678   9.557   5.964  0.6367 -2.0028  0.2864
  785MOL0     H 8291   6.566   9.580   6.087  0.6870  1.0129 -0.3805
  785MOL0     H 8292   6.513   9.712   6.424 -0.8798  2.5276 -1.9429
  785MOL0     H 8293   6.465   9.940   6.523 -0.0247 -0.7209  1.2683
  785MOL0     H 8294   6.830  10.210   6.598  1.6840  4.3314  0.4608
  785MOL0     H 8295   6.772  10.204   6.431 -1.1190 -2.8767 -0.1597
  785MOL0     H 8296   6.650  10.376   6.655  0.1104 -1.6772 -0.5779
  785MOL0     H 8297   6.757  10.438   6.523  1.8044 -2.0784 -0.6210
  785MOL0     H 8298   6.495  10.288   6.496 -0.8117 -0.4696  0.8003
  785MOL0     H 8299   6.594  10.354   6.365 -1.9792  0.0888 -1.0008
  785MOL0     H 8300   6.578  10.583   6.485 -2.1445  2.0446 -1.4965
  785MOL0     H 8301   6.472  10.516   6.601  0.0995  0.8561  0.4332
  785MOL0     H 8302   6.311  10.458   6.429  1.9913 -1.5269  0.9136
  785MOL0     H 8303   6.337  10.631   6.439  0.2380 -0.2831 -2.6738
  785MOL0     H 8304   6.385  10.463   6.213  1.6578 -0.6174  0.7369
  785MOL0     H 8305   6.532  10.539   6.255 -0.1921 -3.6998  1.7846
  785MOL0     H 8306   6.349  10.756   6.266  0.9135 -0.3860 -0.4830
  785MOL0     H 8307   6.289  10.651   6.137  0.9167 -1.9996 -0.8681
  785MOL0     H 8308   6.423  10.792   6.019  2.1497 -0.4417 -2.3387
  785MOL0     H 8309   6.521  10.650   6.028 -0.5870 -1.0278  0.5496
  785MOL0     H 8310   6.880   9.996   6.588  2.7645 -1.1315 -1.2818
  785MOL0     H 8311   6.928   9.763   6.524 -0.1673  0.9020 -0.3602
  785MOL0     H 8312   6.929   9.395   6.365 -0.4017 -1.5240  0.0970
  785MOL0     H 8313   6.931   9.172   6.325 -0.7189 -0.1129  1.1056
  785MOL0     H 8314   7.899   8.440   6.517 -0.7546  0.8437 -2.2833
  785MOL0     H 8315   7.979   8.557   6.718  1.8167  1.4807  2.0867
  785MOL0     H 8316   8.390   8.818   6.841 -1.6553 -2.2509 -0.3374
  785MOL0     H 8317   8.546   8.863   7.017  0.1026  1.8106 -1.4519
  785MOL0     H 8318   8.571   8.784   7.415 -2.6551  1.7305  1.3046
  785MOL0     H 8319   8.577   8.747   7.236 -1.4217  2.4103 -1.5520
  785MOL0     H 8320   8.667   9.022   7.335 -1.3128 -0.8825 -1.1055
  785MOL0     H 8321   8.722   8.935   7.192  1.8156 -4.4776 -0.6750
  785MOL0     H 8322   8.899   8.950   7.371 -0.4523 -0.5067 -1.2866
  785MOL0     H 8323   8.791   8.860   7.475 -2.7909  1.0623  0.6845
  785MOL0     H 8324   8.896   8.764   7.204 -0.2515  3.4493 -0.0636
  785MOL0     H 8325   8.789   8.671   7.309 -1.4345  1.1646  0.7839
  785MOL0     H 8326   9.135   8.622   7.536  1.5722  2.4199  0.2045
  785MOL0     H 8327   8.201   8.847   7.288 -2.6831 -0.6465 -0.1057
  785MOL0     H 8328   7.983   8.672   7.087  0.7476 -0.2576  0.6523
  785MOL0     H 8329   8.003   8.780   7.230 -2.2489  2.1322  0.1160
  785MOL0     H 8330   7.955   8.850   7.075 -0.6893  0.0075  0.0773
  786MOL0     O 8331   8.193   1.224  10.562 -0.0578  0.7592 -0.1840
  786MOL0     C 8332   8.177   1.259  10.446  0.0544 -1.2405 -0.2579
  786MOL0     O 8333   8.200   1.392  10.390 -0.5803 -0.2267 -0.4272
  786MOL0     C 8334   8.254   1.493  10.470  0.4740 -0.4548  0.2211
  786MOL0     C 8335   8.372   1.546  10.425 -0.2532 -0.4748 -0.3746
  786MOL0     C 8336   8.428   1.657  10.494  0.3376 -0.4501  0.1706
  786MOL0     C 8337   8.360   1.707  10.610  0.1052  1.0161 -0.6016
  786MOL0     O 8338   8.439   1.795  10.676  0.7852  0.5980 -0.4385
  786MOL0     C 8339   8.393   1.852  10.806  0.3655  0.3630  0.5691
  786MOL0     C 8340   8.476   1.970  10.852  0.0683 -0.1488 -0.0689
  786MOL0     C 8341   8.631   1.961  10.861  0.1301 -0.8776  0.8261
  786MOL0     C 8342   8.679   1.868  10.973  0.4442  1.0142 -0.3997
  786MOL0     C 8343   8.823   1.840  10.969 -0.5959  0.2094 -0.4701
  786MOL0     C 8344   8.869   1.746  11.072 -0.9697  1.1316 -0.1327
  786MOL0     C 8345   9.025   1.767  11.081 -0.1149 -0.1940 -0.3678
  786MOL0     C 8346   9.091   1.672  11.174  0.2001  0.3343 -0.4551
  786MOL0     N 8347   9.227   1.700  11.217  0.5563  0.4948 -0.6588
  786MOL0     C 8348   9.275   1.649  11.329  0.6578  0.4138  0.1381
  786MOL0     C 8349   9.404   1.683  11.341 -0.6716 -0.0488 -0.0670
  786MOL0     C 8350   9.510   1.646  11.451 -0.7996 -0.2344 -0.2497
  786MOL0     C 8351   9.502   1.729  11.574  0.6887 -0.7060  0.3907
  786MOL0     C 8352   9.623   1.747  11.664  0.3933 -0.5166  0.1611
  786MOL0     C 8353   9.619   1.855  11.773 -0.5004  0.9150  0.9684
  786MOL0     O 8354   9.597   1.979  11.702  0.2132 -0.3360 -0.4609
  786MOL0     C 8355   9.638   2.087  11.788  0.2914 -0.9298 -0.0449
  786MOL0     C 8356   9.644   2.081  11.927 -0.0459 -0.1995 -1.5193
  786MOL0     C 8357   9.691   2.190  12.001  0.7345 -0.4946 -0.5908
  786MOL0     C 8358   9.673   2.195  12.152  0.4107 -0.2587  0.7329
  786MOL0     C 8359   9.728   2.312  11.936 -0.6061 -0.5916  1.0836
  786MOL0     C 8360   9.779   2.434  12.007  0.8329  1.0478  0.2077
  786MOL0     O 8361   9.876   2.412  12.090 -0.5013  0.3062 -0.2122
  786MOL0     C 8362   9.904   2.523  12.161 -0.0450  0.3997 -0.3569
  786MOL0     C 8363   9.825   2.548  12.274  0.4581 -0.3472 -0.0769
  786MOL0     C 8364   9.860   2.652  12.360  0.1354 -0.3092 -0.1457
  786MOL0     C 8365   9.962   2.745  12.328  0.4406 -0.1817  0.7188
  786MOL0     O 8366   9.992   2.851  12.408 -0.4955  0.3132  0.2994
  786MOL0     C 8367   9.933   2.864  12.531  0.5257  0.3309 -0.9018
  786MOL0     C 8368   9.794   2.936  12.527  0.4883  0.6198  0.4951
  786MOL0     C 8369   9.807   3.082  12.492 -0.4397  0.3338  0.6324
  786MOL0     C 8370   9.675   3.160  12.532 -0.0364  0.8968  0.2432
  786MOL0     C 8371   9.675   3.297  12.467  0.1420 -0.4219 -0.5932
  786MOL0     C 8372   9.756   3.401  12.533 -0.4507 -0.1840 -0.1325
  786MOL0     C 8373   9.741   3.526  12.452  0.2053 -0.1175  0.1306
  786MOL0     C 8374   9.830   3.636  12.510 -0.8423  0.1074  0.8447
  786MOL0    Cl 8375   9.811   3.652  12.688  0.1237  0.3786  0.5143
  786MOL0     C 8376  10.035   2.719  12.207  0.4850  0.0183 -0.3074
  786MOL0     C 8377  10.006   2.610  12.132  0.6819 -0.6493  0.3947
  786MOL0     O 8378   9.750   2.534  11.956 -0.8554 -0.6383  0.2068
  786MOL0     C 8379   9.724   2.314  11.797  0.3593  0.7875 -0.1829
  786MOL0     C 8380   9.679   2.204  11.726 -0.6998  1.4863  0.3412
  786MOL0     N 8381   9.432   1.756  11.218 -0.4633  0.2678 -0.3863
  786MOL0     N 8382   9.325   1.765  11.149 -1.3421 -0.0355 -0.1663
  786MOL0     C 8383   8.245   1.643  10.661 -0.4759 -0.5900 -0.2124
  786MOL0     C 8384   8.196   1.542  10.589 -0.2266  0.6984  0.4337
  786MOL0     C 8385   8.106   1.162  10.360  0.1676  0.2707 -0.4701
  786MOL0     C 8386   8.122   1.028  10.383 -0.2383  0.3857  0.4372
  786MOL0     C 8387   8.059   0.929  10.314 -0.0058 -0.1390  1.0936
  786MOL0     C 8388   7.969   0.962  10.218  0.1646  0.3511 -0.8638
  786MOL0     O 8389   7.900   0.861  10.162 -0.0534  0.3374 -0.6173
  786MOL0     C 8390   7.773   0.886  10.106 -0.1511  0.1235 -0.3870
  786MOL0     C 8391   7.717   0.744  10.080 -0.7676  0.4988 -0.5279
  786MOL0     C 8392   7.710   0.656  10.208  0.2572  0.3467  0.6276
  786MOL0     C 8393   7.633   0.523  10.175 -0.6310 -0.1357 -0.4989
  786MOL0     C 8394   7.489   0.540  10.135 -0.3701  0.6208 -1.2206
  786MOL0     C 8395   7.371   0.545  10.116  0.1223  0.4990  0.5733
  786MOL0     C 8396   7.954   1.092  10.182  0.1652 -0.4341 -0.7691
  786MOL0     C 8397   8.019   1.202  10.254 -0.1539 -0.1148  0.5702
  786MOL0     C 8398   7.981   1.344  10.200 -0.1533  0.5548  0.3948
  786MOL0     H 8399   8.402   1.500  10.332 -2.1578 -1.2155 -0.6830
  786MOL0     H 8400   8.524   1.691  10.456 -0.4591  2.9502  0.9237
  786MOL0     H 8401   8.404   1.768  10.875 -0.9192 -1.8044 -1.6921
  786MOL0     H 8402   8.290   1.887  10.800 -0.3443 -1.8815 -1.8788
  786MOL0     H 8403   8.441   2.057  10.795 -0.9938 -0.8944 -0.5950
  786MOL0     H 8404   8.439   1.995  10.952  0.3672 -3.3462  0.9443
  786MOL0     H 8405   8.658   1.924  10.762  1.0835  0.5354  0.5405
  786MOL0     H 8406   8.670   2.062  10.878 -2.8201  0.7292 -1.0919
  786MOL0     H 8407   8.647   1.908  11.070 -0.8465 -1.4793  0.2823
  786MOL0     H 8408   8.627   1.772  10.972 -0.1842  1.3511 -0.1657
  786MOL0     H 8409   8.860   1.941  10.985 -1.9144  0.6426  0.0004
  786MOL0     H 8410   8.845   1.796  10.871  0.6778  0.1288 -0.1567
  786MOL0     H 8411   8.823   1.752  11.171  0.1112 -5.1201  1.1477
  786MOL0     H 8412   8.848   1.644  11.037  0.8795  1.0228 -1.0422
  786MOL0     H 8413   9.034   1.870  11.117 -0.7824 -0.8953  1.9846
  786MOL0     H 8414   9.078   1.771  10.985  0.2052  4.7732 -0.2233
  786MOL0     H 8415   9.030   1.666  11.264 -0.4642 -4.5054 -0.9652
  786MOL0     H 8416   9.085   1.570  11.134  0.9165 -1.7203  4.0694
  786MOL0     H 8417   9.213   1.597  11.401 -1.9157  3.6046  0.4494
  786MOL0     H 8418   9.611   1.644  11.408 -0.5456 -1.6289  0.3571
  786MOL0     H 8419   9.491   1.544  11.487  2.1223 -1.1284 -0.9415
  786MOL0     H 8420   9.473   1.829  11.538 -0.5842 -2.1142 -2.8419
  786MOL0     H 8421   9.416   1.692  11.631  1.6830 -0.1313  2.3454
  786MOL0     H 8422   9.658   1.655  11.711 -1.3500 -1.0648  0.4496
  786MOL0     H 8423   9.713   1.778  11.608  1.5533 -2.0811  1.0755
  786MOL0     H 8424   9.536   1.834  11.840 -1.0136 -1.5109 -0.3001
  786MOL0     H 8425   9.709   1.848  11.835  0.8355  0.9958 -0.8662
  786MOL0     H 8426   9.611   1.994  11.984 -0.2676 -0.1174 -1.5201
  786MOL0     H 8427   9.586   2.141  12.192  0.2241  1.1858  2.4146
  786MOL0     H 8428   9.671   2.297  12.191  1.2969 -1.0748  3.1258
  786MOL0     H 8429   9.764   2.160  12.202  0.4948 -1.4927 -0.2375
  786MOL0     H 8430   9.739   2.487  12.299  0.3547 -1.3290 -2.5304
  786MOL0     H 8431   9.796   2.663  12.448 -1.6409 -1.1387 -1.2671
  786MOL0     H 8432   9.927   2.768  12.583 -1.8235  0.8697 -0.0601
  786MOL0     H 8433  10.005   2.923  12.588  1.0374  1.4887 -2.6465
  786MOL0     H 8434   9.727   2.873  12.467  0.5317 -1.4963  2.5570
  786MOL0     H 8435   9.755   2.932  12.629  0.2053 -0.0071  0.3684
  786MOL0     H 8436   9.815   3.093  12.383  1.1210 -0.2276  0.6687
  786MOL0     H 8437   9.890   3.129  12.545 -0.0509 -0.2933  0.5910
  786MOL0     H 8438   9.651   3.176  12.637  3.9821  0.9426  1.3413
  786MOL0     H 8439   9.591   3.101  12.494 -0.7027  1.0260  1.4917
  786MOL0     H 8440   9.719   3.289  12.367  3.7183 -0.9328  0.8504
  786MOL0     H 8441   9.573   3.335  12.472  0.0142 -0.8861  0.4535
  786MOL0     H 8442   9.860   3.369  12.534 -0.7745 -1.2735  0.4367
  786MOL0     H 8443   9.726   3.416  12.638  3.4282  0.5800  1.0349
  786MOL0     H 8444   9.643   3.573  12.461  0.7453  0.6518  2.5865
  786MOL0     H 8445   9.774   3.510  12.349  2.3711  0.0766  0.7440
  786MOL0     H 8446   9.809   3.732  12.462 -3.3092 -0.4046  0.7882
  786MOL0     H 8447   9.930   3.600  12.485 -0.6817  1.2627 -0.3193
  786MOL0     H 8448  10.120   2.778  12.175  1.0787  0.3849  1.8333
  786MOL0     H 8449  10.053   2.599  12.035 -0.9892  0.1367 -0.5417
  786MOL0     H 8450   9.758   2.400  11.741 -0.4271  1.6993  0.7076
  786MOL0     H 8451   9.700   2.207  11.620 -0.7861  0.5410  0.2854
  786MOL0     H 8452   8.202   1.678  10.754  0.4775 -2.6259  1.0709
  786MOL0     H 8453   8.109   1.497  10.637  0.8724 -2.1044 -0.0168
  786MOL0     H 8454   8.181   0.992  10.466 -3.1787 -1.9388  1.6922
  786MOL0     H 8455   8.073   0.823  10.332 -1.9260 -0.3115  1.8319
  786MOL0     H 8456   7.714   0.928  10.188  2.9291 -1.3426  2.8593
  786MOL0     H 8457   7.780   0.958  10.024  1.3600  0.9879  0.4452
  786MOL0     H 8458   7.778   0.695  10.004  1.1565  1.4874  0.3063
  786MOL0     H 8459   7.616   0.751  10.038  0.4793 -0.6341 -4.0770
  786MOL0     H 8460   7.813   0.635  10.239  0.2070 -0.4469  0.2824
  786MOL0     H 8461   7.660   0.701  10.294 -7.1192 -1.1017 -2.1399
  786MOL0     H 8462   7.643   0.445  10.251  0.7706  1.8599  1.4586
  786MOL0     H 8463   7.693   0.477  10.096 -2.1761  1.2169 -2.5702
  786MOL0     H 8464   7.270   0.558  10.084  0.6085  0.1835 -1.2340
  786MOL0     H 8465   7.883   1.112  10.103 -1.0198 -2.0872 -0.1829
  786MOL0     H 8466   8.058   1.388  10.135 -0.6803  0.0492 -0.5852
  786MOL0     H 8467   7.894   1.336  10.135 -1.0127  1.6594  1.3551
  786MOL0     H 8468   7.973   1.420  10.278  1.9848 -0.1337  1.3645
  787MOL0     O 8469  10.978   8.344   3.735 -0.0308 -0.1033 -0.5659
  787MOL0     C 8470  10.969   8.249   3.806 -0.6429 -0.6269  0.2367
  787MOL0     O 8471  10.853   8.185   3.832 -1.0122  0.3770 -0.7262
  787MOL0     C 8472  10.732   8.252   3.824 -0.0348  0.2382 -0.7119
  787MOL0     C 8473  10.685   8.333   3.713 -0.3998 -0.4859  0.5109
  787MOL0     C 8474  10.550   8.379   3.711 -0.1350 -0.2074  0.4332
  787MOL0     C 8475  10.466   8.356   3.821  0.2082  0.1539 -0.4851
  787MOL0     O 8476  10.334   8.395   3.838  0.9243  0.2226  0.2379
  787MOL0     C 8477  10.288   8.496   3.744  0.5866 -0.1541  0.2994
  787MOL0     C 8478  10.138   8.515   3.763 -0.9083  0.8801 -0.8897
  787MOL0     C 8479  10.064   8.369   3.778  0.3595  0.2095 -1.3766
  787MOL0     C 8480   9.916   8.403   3.804 -0.5322  0.4962 -0.3126
  787MOL0     C 8481   9.802   8.307   3.789 -1.1562 -0.0755  0.0050
  787MOL0     C 8482   9.802   8.241   3.648 -0.6382  0.0235  0.7739
  787MOL0     C 8483   9.702   8.124   3.646 -0.7493 -0.4270 -0.2271
  787MOL0     C 8484   9.552   8.145   3.638  0.9898 -0.2872  0.6070
  787MOL0     N 8485   9.486   8.211   3.753  0.0918 -0.3693  0.3436
  787MOL0     C 8486   9.506   8.163   3.881 -0.3315  0.2342  0.4575
  787MOL0     C 8487   9.424   8.237   3.955  0.1135  0.1276 -1.2028
  787MOL0     C 8488   9.411   8.244   4.114 -0.4961 -0.3696 -0.0379
  787MOL0     C 8489   9.541   8.259   4.185  0.1759 -0.4041  0.9660
  787MOL0     C 8490   9.517   8.317   4.324  0.1021 -0.2267  0.3939
  787MOL0     C 8491   9.651   8.307   4.397  0.6554  0.2015 -0.2425
  787MOL0     O 8492   9.716   8.182   4.399  0.0369 -0.6549 -0.1259
  787MOL0     C 8493   9.835   8.173   4.466  0.5800 -0.0767  0.5837
  787MOL0     C 8494   9.895   8.279   4.526 -0.2123 -0.4353 -0.0144
  787MOL0     C 8495  10.008   8.271   4.605 -0.8713  0.5103  0.0875
  787MOL0     C 8496  10.059   8.400   4.657  0.1858 -0.2157 -0.2302
  787MOL0     C 8497  10.076   8.142   4.617 -1.0525  0.1073 -0.6838
  787MOL0     C 8498  10.203   8.128   4.695 -0.0109 -0.5282 -0.1605
  787MOL0     O 8499  10.291   8.032   4.656 -0.8682  0.2113 -0.0669
  787MOL0     C 8500  10.417   8.013   4.713  0.1436 -1.5925  0.6783
  787MOL0     C 8501  10.465   8.080   4.826  0.7679 -0.0764 -0.6021
  787MOL0     C 8502  10.595   8.054   4.860 -1.2895  0.3555 -0.7550
  787MOL0     C 8503  10.677   7.967   4.793 -0.4357 -0.4855  0.6519
  787MOL0     O 8504  10.802   7.935   4.842  0.3181 -0.1066 -0.4977
  787MOL0     C 8505  10.803   7.883   4.976  0.8257 -0.5810  0.1542
  787MOL0     C 8506  10.882   7.748   4.967 -0.0857  0.2871 -0.4111
  787MOL0     C 8507  11.034   7.743   4.946 -0.1790 -0.2447  1.3015
  787MOL0     C 8508  11.063   7.731   4.798 -0.5612 -0.1714  0.1125
  787MOL0     C 8509  11.207   7.780   4.751  0.1968 -0.6754  0.1092
  787MOL0     C 8510  11.218   7.786   4.595 -0.0817 -0.0134  0.1069
  787MOL0     C 8511  11.349   7.834   4.539  0.6381 -0.5684  1.4729
  787MOL0     C 8512  11.354   7.831   4.389  0.1051  0.5321  0.0510
  787MOL0    Cl 8513  11.469   7.958   4.317  0.1287  0.3477  0.1183
  787MOL0     C 8514  10.631   7.897   4.680 -1.0734  0.3159 -0.1039
  787MOL0     C 8515  10.500   7.924   4.641  0.1801 -0.3224 -0.7070
  787MOL0     O 8516  10.223   8.206   4.789  0.0234  0.1476  0.3544
  787MOL0     C 8517  10.027   8.030   4.546  0.1898 -0.3781  0.3160
  787MOL0     C 8518   9.903   8.050   4.471  0.2401  0.1815  0.3497
  787MOL0     N 8519   9.350   8.318   3.872 -0.0110  0.6488  0.6115
  787MOL0     N 8520   9.386   8.302   3.751 -0.2004 -0.5709 -0.0007
  787MOL0     C 8521  10.522   8.296   3.935  1.1057  0.6883  0.6994
  787MOL0     C 8522  10.649   8.241   3.935 -0.2696  0.5125  0.2744
  787MOL0     C 8523  11.097   8.203   3.862 -0.7664  0.1021 -0.3432
  787MOL0     C 8524  11.217   8.272   3.831  0.2635  0.0487  1.0695
  787MOL0     C 8525  11.347   8.234   3.878  0.4958  0.2267  0.1623
  787MOL0     C 8526  11.355   8.122   3.956 -0.0932 -0.5980  0.2655
  787MOL0     O 8527  11.475   8.067   3.995  0.5371  0.0770 -0.6123
  787MOL0     C 8528  11.594   8.086   3.921  0.0652 -0.3556 -0.9854
  787MOL0     C 8529  11.699   7.988   3.940  0.3803  0.5261  0.3752
  787MOL0     C 8530  11.655   7.846   3.886  0.1320  0.4047  0.4860
  787MOL0     C 8531  11.775   7.766   3.843 -0.4951  0.1205  0.1227
  787MOL0     C 8532  11.799   7.777   3.695  0.1396 -0.0948 -0.4212
  787MOL0     C 8533  11.819   7.793   3.577  0.1079  0.8738 -0.1663
  787MOL0     C 8534  11.238   8.052   3.986 -0.7085  0.5150 -0.0541
  787MOL0     C 8535  11.106   8.085   3.948 -0.6118 -0.7717 -0.2805
  787MOL0     C 8536  10.995   7.997   3.999  0.5780 -0.1147 -0.0165
  787MOL0     H 8537  10.744   8.352   3.624 -0.3712  0.4148  0.7114
  787MOL0     H 8538  10.511   8.424   3.621 -3.6460  0.1849  1.9615
  787MOL0     H 8539  10.298   8.468   3.639 -0.5312  2.4886 -0.6100
  787MOL0     H 8540  10.342   8.591   3.745 -0.2642  0.3772 -1.1308
  787MOL0     H 8541  10.123   8.566   3.858 -0.2095 -0.0640 -0.2468
  787MOL0     H 8542  10.093   8.564   3.677 -0.6018  2.7525 -0.0248
  787MOL0     H 8543  10.080   8.299   3.696  2.9147  0.6433 -1.3197
  787MOL0     H 8544  10.101   8.334   3.874 -0.3530  3.1119  0.0884
  787MOL0     H 8545   9.907   8.432   3.909  0.0773  0.2156 -0.1783
  787MOL0     H 8546   9.887   8.492   3.748 -1.3868  0.5096  0.1353
  787MOL0     H 8547   9.705   8.349   3.816 -0.7824  1.7855 -1.3237
  787MOL0     H 8548   9.821   8.221   3.854 -2.5649 -1.2799 -1.1184
  787MOL0     H 8549   9.789   8.323   3.577  2.1763  0.0465  0.1683
  787MOL0     H 8550   9.897   8.201   3.611 -2.2417 -0.5175 -3.2593
  787MOL0     H 8551   9.729   8.074   3.739  1.3136 -0.9694 -1.0656
  787MOL0     H 8552   9.712   8.056   3.560 -1.6205 -0.1149 -0.5890
  787MOL0     H 8553   9.540   8.199   3.544  3.1822 -2.1294 -0.8430
  787MOL0     H 8554   9.501   8.049   3.628  1.2399 -0.2537 -1.4387
  787MOL0     H 8555   9.581   8.089   3.905 -0.0168  0.2587 -0.3942
  787MOL0     H 8556   9.360   8.153   4.148 -1.7669 -0.4436 -1.9981
  787MOL0     H 8557   9.365   8.338   4.148  0.5019 -0.9627  3.3870
  787MOL0     H 8558   9.579   8.157   4.188 -0.4506 -0.6405  0.9967
  787MOL0     H 8559   9.608   8.321   4.124  0.8284 -2.6492 -0.7667
  787MOL0     H 8560   9.467   8.414   4.323 -0.6634 -0.6066 -0.7315
  787MOL0     H 8561   9.451   8.253   4.385  0.6683 -1.0090  0.2071
  787MOL0     H 8562   9.720   8.376   4.348 -0.9480  0.1627 -2.7383
  787MOL0     H 8563   9.636   8.349   4.496 -1.3744  2.0735 -1.2454
  787MOL0     H 8564   9.845   8.374   4.518 -0.1626 -0.4300 -0.2834
  787MOL0     H 8565  10.111   8.410   4.752 -2.5679  1.3654  1.2354
  787MOL0     H 8566   9.998   8.491   4.652  1.0179  0.4757  1.5086
  787MOL0     H 8567  10.151   8.420   4.600  1.1730 -0.6989  1.1364
  787MOL0     H 8568  10.419   8.149   4.896 -1.3050  0.4945 -2.4053
  787MOL0     H 8569  10.639   8.107   4.944 -1.3713  0.6155 -0.8757
  787MOL0     H 8570  10.864   7.943   5.044  1.8397 -3.6540  2.1759
  787MOL0     H 8571  10.698   7.868   5.001  0.3127 -1.4281 -2.2472
  787MOL0     H 8572  10.862   7.695   5.060 -1.3813  2.4721  0.6466
  787MOL0     H 8573  10.824   7.691   4.893 -2.4996 -1.8738  2.8851
  787MOL0     H 8574  11.079   7.664   5.006  1.3581  0.2574  0.8832
  787MOL0     H 8575  11.070   7.842   4.977  1.4255 -0.6685  0.9198
  787MOL0     H 8576  10.993   7.797   4.746 -2.9673 -0.6095  2.5330
  787MOL0     H 8577  11.041   7.630   4.762 -0.9250 -0.1891  0.3773
  787MOL0     H 8578  11.245   7.868   4.805 -0.7935 -1.9240  3.0514
  787MOL0     H 8579  11.274   7.704   4.791 -0.9133 -0.8713  1.7107
  787MOL0     H 8580  11.134   7.847   4.559 -1.2704  0.7093  3.6640
  787MOL0     H 8581  11.199   7.684   4.561  1.4953 -0.7127  1.2118
  787MOL0     H 8582  11.427   7.774   4.586 -0.6083 -0.2519  4.1130
  787MOL0     H 8583  11.372   7.934   4.577  0.8890  0.8824 -2.1018
  787MOL0     H 8584  11.251   7.840   4.354 -0.4361 -2.5717  0.5494
  787MOL0     H 8585  11.379   7.729   4.359 -3.0179 -0.2478 -0.1962
  787MOL0     H 8586  10.692   7.831   4.619 -0.6285  1.7733 -1.2716
  787MOL0     H 8587  10.458   7.880   4.551  0.8423 -0.4213 -0.9740
  787MOL0     H 8588  10.075   7.935   4.526 -0.9392 -0.9778  0.3845
  787MOL0     H 8589   9.870   7.969   4.405  0.3935  0.2774  0.1543
  787MOL0     H 8590  10.455   8.288   4.020 -1.6241 -0.0744 -1.3766
  787MOL0     H 8591  10.667   8.184   4.026 -0.1354  0.0697 -0.0292
  787MOL0     H 8592  11.220   8.352   3.757  0.4685 -0.5878  0.3773
  787MOL0     H 8593  11.428   8.297   3.844 -0.3581  0.4828 -1.4626
  787MOL0     H 8594  11.591   8.093   3.811  2.7247 -0.2888 -1.1328
  787MOL0     H 8595  11.634   8.181   3.958 -1.0293 -1.1979  2.7258
  787MOL0     H 8596  11.720   7.974   4.046 -1.3366  0.5974  0.7666
  787MOL0     H 8597  11.794   8.001   3.887  0.6278 -3.8177 -0.6008
  787MOL0     H 8598  11.608   7.794   3.970  1.7669  0.5708  1.5430
  787MOL0     H 8599  11.594   7.860   3.796 -1.8482  3.1827  2.0887
  787MOL0     H 8600  11.753   7.664   3.875  0.8196  0.2844  1.6478
  787MOL0     H 8601  11.867   7.785   3.898  0.3399 -1.8818 -0.4872
  787MOL0     H 8602  11.805   7.794   3.471  3.0496  3.2650 -0.6643
  787MOL0     H 8603  11.253   7.961   4.043 -1.4762 -0.9815 -2.0993
  787MOL0     H 8604  10.913   8.058   4.037  0.7970 -0.0180  0.3044
  787MOL0     H 8605  10.958   7.941   3.912  0.8909 -2.4663  1.2828
  787MOL0     H 8606  11.024   7.917   4.067  1.9633 -0.4169 -0.9153
  788MOL0     O 8607   5.161   8.711   7.338  0.3349  0.0763 -0.1255
  788MOL0     C 8608   5.153   8.763   7.448 -1.0459 -0.2584  0.9749
  788MOL0     O 8609   5.151   8.895   7.466 -0.6523  0.2371 -0.6638
  788MOL0     C 8610   5.103   8.983   7.370 -0.5331 -0.2337  0.0076
  788MOL0     C 8611   5.015   8.957   7.269 -0.8459  0.1914  0.0518
  788MOL0     C 8612   4.975   9.055   7.181  0.6926  0.6961 -0.2626
  788MOL0     C 8613   5.025   9.185   7.177 -0.1344 -0.1018  0.7769
  788MOL0     O 8614   4.977   9.271   7.092 -0.3921  0.1136 -0.1983
  788MOL0     C 8615   5.071   9.351   7.021 -0.4414  0.0387  0.4017
  788MOL0     C 8616   5.000   9.412   6.903  0.0116 -0.3058  0.3807
  788MOL0     C 8617   4.930   9.538   6.938  0.3800  0.0477  0.3903
  788MOL0     C 8618   4.863   9.592   6.810  0.7419 -0.2529 -0.5074
  788MOL0     C 8619   4.796   9.729   6.834 -0.4482 -0.2775  0.0977
  788MOL0     C 8620   4.683   9.728   6.929 -0.2267 -0.3503 -0.3121
  788MOL0     C 8621   4.613   9.868   6.922  0.1204 -0.1939 -0.0627
  788MOL0     C 8622   4.480   9.871   6.992 -0.1113  0.0266  0.1768
  788MOL0     N 8623   4.396   9.984   6.953  0.9200 -0.4869  0.2407
  788MOL0     C 8624   4.451  10.102   6.913  0.2424 -0.3753  0.1776
  788MOL0     C 8625   4.359  10.171   6.844 -0.9732  0.3441 -0.8800
  788MOL0     C 8626   4.367  10.307   6.779  0.0693 -0.5679  0.0326
  788MOL0     C 8627   4.241  10.392   6.785 -0.0299  0.9379  0.7900
  788MOL0     C 8628   4.278  10.540   6.787  0.0032  0.4160  1.0859
  788MOL0     C 8629   4.311  10.589   6.647  0.3820 -0.2227 -0.1907
  788MOL0     O 8630   4.420  10.520   6.580  0.1282  0.6559  0.4412
  788MOL0     C 8631   4.453  10.577   6.457  0.0666 -0.9974 -0.4754
  788MOL0     C 8632   4.582  10.555   6.410 -0.1810 -0.4149  0.0656
  788MOL0     C 8633   4.625  10.625   6.299 -0.0422 -1.1309 -0.6390
  788MOL0     C 8634   4.782  10.590   6.279 -0.1167 -0.5649 -0.4688
  788MOL0     C 8635   4.549  10.716   6.226  0.0833  0.3410 -0.4586
  788MOL0     C 8636   4.589  10.796   6.110  0.1145 -0.6402 -0.0762
  788MOL0     O 8637   4.488  10.849   6.032  0.2408  0.6674 -1.0064
  788MOL0     C 8638   4.523  10.931   5.926 -0.0268 -0.5923  0.4863
  788MOL0     C 8639   4.605  11.047   5.936  0.6544  0.1247  0.3859
  788MOL0     C 8640   4.633  11.139   5.834  0.3244  0.1110  0.5746
  788MOL0     C 8641   4.552  11.127   5.724  1.2370 -0.7532 -0.7218
  788MOL0     O 8642   4.553  11.218   5.620 -0.1255 -0.2853 -0.3338
  788MOL0     C 8643   4.658  11.321   5.621 -1.2386  0.4210 -0.0936
  788MOL0     C 8644   4.656  11.403   5.499 -0.6221 -0.1774 -0.5627
  788MOL0     C 8645   4.685  11.329   5.367 -0.9955 -0.4576 -0.6217
  788MOL0     C 8646   4.610  11.366   5.247  0.1170 -0.1882 -0.7647
  788MOL0     C 8647   4.635  11.279   5.131  0.7157  0.5284  0.3333
  788MOL0     C 8648   4.572  11.347   5.002 -0.4051  0.1480 -0.6794
  788MOL0     C 8649   4.576  11.251   4.884 -0.5564 -1.0615 -0.8742
  788MOL0     C 8650   4.440  11.170   4.875 -0.4722 -0.0230 -0.2220
  788MOL0    Cl 8651   4.287  11.263   4.877  0.0335 -0.3411  0.2883
  788MOL0     C 8652   4.452  11.030   5.721 -0.0083  0.1836 -0.3692
  788MOL0     C 8653   4.437  10.930   5.817 -0.2922 -0.4643 -0.6996
  788MOL0     O 8654   4.709  10.811   6.084  0.6304 -0.2272  1.0153
  788MOL0     C 8655   4.408  10.708   6.255 -0.4764 -1.3258 -0.1719
  788MOL0     C 8656   4.364  10.646   6.374 -0.3979  0.1042 -1.3512
  788MOL0     N 8657   4.249  10.087   6.833  0.2277 -0.6611 -0.6697
  788MOL0     N 8658   4.267   9.979   6.905  0.4677  0.8165 -0.5465
  788MOL0     C 8659   5.108   9.217   7.284  0.5827 -0.4378 -0.3856
  788MOL0     C 8660   5.150   9.118   7.379  0.1359 -0.6206 -0.0446
  788MOL0     C 8661   5.144   8.666   7.569  0.2671  0.0504 -0.2315
  788MOL0     C 8662   5.106   8.727   7.691  1.2037  0.3837 -0.4971
  788MOL0     C 8663   5.092   8.653   7.810 -0.6946 -0.9052 -0.5542
  788MOL0     C 8664   5.109   8.520   7.811 -0.0879  0.4149  1.1014
  788MOL0     O 8665   5.093   8.454   7.926  0.1576 -0.3599 -0.3412
  788MOL0     C 8666   5.153   8.326   7.951  0.4678  0.1552 -0.1821
  788MOL0     C 8667   5.304   8.324   7.924 -0.7530  0.2910 -0.3960
  788MOL0     C 8668   5.375   8.438   8.004 -0.0967  1.1794 -0.5286
  788MOL0     C 8669   5.510   8.482   7.946 -0.2620 -0.1931 -0.4118
  788MOL0     C 8670   5.509   8.578   7.843  0.2028  1.4651  0.7361
  788MOL0     C 8671   5.464   8.658   7.764 -0.3419  0.2018  0.1462
  788MOL0     C 8672   5.140   8.463   7.689 -0.5579  0.1868 -0.4307
  788MOL0     C 8673   5.169   8.532   7.571  0.3954  0.5435  0.2415
  788MOL0     C 8674   5.197   8.442   7.451 -0.3231 -0.1189 -1.1273
  788MOL0     H 8675   4.974   8.857   7.261  1.1195 -0.9291  2.7041
  788MOL0     H 8676   4.907   9.022   7.104 -0.5555 -0.8688  1.4339
  788MOL0     H 8677   5.166   9.305   6.990 -0.2963  2.1875 -2.9239
  788MOL0     H 8678   5.096   9.437   7.084 -2.6019  0.5959  0.5709
  788MOL0     H 8679   5.076   9.431   6.827 -0.7173  2.7796  0.3203
  788MOL0     H 8680   4.935   9.336   6.858  1.4406 -0.8931 -0.7587
  788MOL0     H 8681   4.843   9.525   7.002  1.3883  0.0439  1.7981
  788MOL0     H 8682   4.991   9.614   6.988 -0.0187  3.2602 -3.4612
  788MOL0     H 8683   4.937   9.595   6.729  1.1314 -0.0936 -0.1490
  788MOL0     H 8684   4.783   9.524   6.781  0.0599 -0.2548  1.2748
  788MOL0     H 8685   4.766   9.767   6.736  1.4711  2.7736  0.5735
  788MOL0     H 8686   4.882   9.788   6.869  0.0722  0.5361 -2.3599
  788MOL0     H 8687   4.610   9.653   6.898 -1.3918  0.3075  0.7468
  788MOL0     H 8688   4.733   9.712   7.025  1.8532 -0.7531 -1.3889
  788MOL0     H 8689   4.580   9.887   6.819 -0.5622 -1.2753 -0.0540
  788MOL0     H 8690   4.679   9.944   6.965 -0.7259  0.0529  0.8537
  788MOL0     H 8691   4.433   9.786   6.940  0.6874  2.1415 -4.5094
  788MOL0     H 8692   4.483   9.869   7.101  0.6094  0.1619  0.1605
  788MOL0     H 8693   4.556  10.129   6.924 -0.0918  1.8718 -1.5448
  788MOL0     H 8694   4.389  10.288   6.674 -0.4669  2.2602 -0.6610
  788MOL0     H 8695   4.446  10.361   6.830 -1.7342 -0.3344  2.8394
  788MOL0     H 8696   4.176  10.366   6.701 -1.0932 -2.4327  2.4742
  788MOL0     H 8697   4.187  10.369   6.878 -1.4397  1.3278  0.0905
  788MOL0     H 8698   4.206  10.603   6.839  1.5238  1.6852  1.7390
  788MOL0     H 8699   4.362  10.547   6.856 -1.1383 -0.4835  2.6179
  788MOL0     H 8700   4.225  10.586   6.579  2.0704 -1.6168 -2.4072
  788MOL0     H 8701   4.342  10.694   6.647  2.4266 -0.7770  1.0229
  788MOL0     H 8702   4.648  10.492   6.470 -1.2155 -0.7486  0.8692
  788MOL0     H 8703   4.790  10.504   6.212 -1.5101 -1.6936  0.7133
  788MOL0     H 8704   4.840  10.577   6.371  2.4148  2.0784 -1.5524
  788MOL0     H 8705   4.837  10.671   6.230  1.1265 -3.0802 -3.5851
  788MOL0     H 8706   4.665  11.059   6.025  0.8093 -0.1264  0.3161
  788MOL0     H 8707   4.720  11.203   5.841  0.1411  0.7421 -1.7981
  788MOL0     H 8708   4.645  11.396   5.699  0.7743  1.1456 -0.3992
  788MOL0     H 8709   4.761  11.284   5.624 -0.2458  3.0365  0.8158
  788MOL0     H 8710   4.566  11.465   5.503 -0.0542  0.6019  0.8258
  788MOL0     H 8711   4.736  11.477   5.511 -0.6873 -0.3916  1.3981
  788MOL0     H 8712   4.680  11.221   5.383  0.8412 -0.4759  0.0705
  788MOL0     H 8713   4.792  11.341   5.351 -0.7869 -1.9318 -0.5039
  788MOL0     H 8714   4.631  11.467   5.212  0.1666  0.4465  1.0171
  788MOL0     H 8715   4.501  11.368   5.258  0.2721  1.0939  0.9641
  788MOL0     H 8716   4.743  11.262   5.120  0.3445 -0.6189 -2.1560
  788MOL0     H 8717   4.599  11.176   5.135  0.1079  0.7535  0.8128
  788MOL0     H 8718   4.624  11.437   4.968  3.0657 -1.4303 -0.0388
  788MOL0     H 8719   4.472  11.383   5.028 -0.2605  0.5133 -0.6187
  788MOL0     H 8720   4.665  11.191   4.904  0.7979  1.0164 -0.3319
  788MOL0     H 8721   4.587  11.312   4.794 -2.2869 -0.0932 -0.4824
  788MOL0     H 8722   4.439  11.109   4.966  1.3994  0.5961  0.2574
  788MOL0     H 8723   4.437  11.094   4.796  2.1649 -3.6418  2.7747
  788MOL0     H 8724   4.394  11.041   5.629 -2.0250 -2.4737  0.4477
  788MOL0     H 8725   4.356  10.859   5.807  0.1165 -0.9805 -0.3845
  788MOL0     H 8726   4.334  10.763   6.198  1.2824 -0.4248 -1.6800
  788MOL0     H 8727   4.256  10.641   6.388  0.0619 -3.4529  5.0609
  788MOL0     H 8728   5.115   9.321   7.315 -1.0970 -0.3519 -0.1962
  788MOL0     H 8729   5.211   9.137   7.467  1.6568 -1.3234 -0.9030
  788MOL0     H 8730   5.084   8.833   7.694 -0.5549  0.0447  0.3636
  788MOL0     H 8731   5.066   8.704   7.902  1.8120  0.4132 -0.4951
  788MOL0     H 8732   5.139   8.298   8.056 -0.6612  3.9747  0.8291
  788MOL0     H 8733   5.111   8.244   7.891  0.0796 -0.2614  0.6458
  788MOL0     H 8734   5.321   8.336   7.817 -3.2835  1.9230 -0.6955
  788MOL0     H 8735   5.344   8.226   7.953  0.3864  0.7393 -0.3706
  788MOL0     H 8736   5.319   8.532   8.004 -0.6926  0.8344 -1.3894
  788MOL0     H 8737   5.388   8.410   8.109 -0.2303  1.5986 -0.3977
  788MOL0     H 8738   5.572   8.399   7.911 -0.9177 -0.9879  0.2787
  788MOL0     H 8739   5.568   8.522   8.029  1.9412  0.2385 -2.0544
  788MOL0     H 8740   5.396   8.718   7.707 -1.4158 -2.5370 -1.5990
  788MOL0     H 8741   5.160   8.356   7.693  1.1233  0.4292 -1.3565
  788MOL0     H 8742   5.102   8.439   7.397  0.8061 -0.0099 -3.1877
  788MOL0     H 8743   5.273   8.499   7.397 -0.9061  4.0636  1.9402
  788MOL0     H 8744   5.223   8.340   7.481  0.6719  1.0301  2.5114
  789MOL0     O 8745   9.754   2.511   1.621 -0.2699  0.1071  1.1822
  789MOL0     C 8746   9.872   2.545   1.620  0.2209 -0.5953  0.1655
  789MOL0     O 8747   9.914   2.649   1.699  0.5847  0.0129  0.4402
  789MOL0     C 8748   9.822   2.753   1.728  0.1678  0.3932 -0.5362
  789MOL0     C 8749   9.719   2.746   1.820  0.3767  0.5517 -0.8099
  789MOL0     C 8750   9.635   2.848   1.839  1.0499  0.0393  0.5484
  789MOL0     C 8751   9.649   2.964   1.765 -0.4743  0.6074  0.0862
  789MOL0     O 8752   9.557   3.073   1.770 -0.0539  1.1490 -0.1457
  789MOL0     C 8753   9.441   3.049   1.841 -0.0224  0.2814  0.7408
  789MOL0     C 8754   9.387   3.186   1.868  0.9720 -0.8261 -0.5392
  789MOL0     C 8755   9.276   3.231   1.764 -0.2999  0.0176 -0.1752
  789MOL0     C 8756   9.274   3.380   1.761  0.0454  0.3178  0.2114
  789MOL0     C 8757   9.150   3.439   1.688  0.2274 -0.6906  0.5745
  789MOL0     C 8758   9.133   3.595   1.709  0.3689 -0.4227 -0.0747
  789MOL0     C 8759   8.996   3.653   1.660 -0.6889  0.6954 -0.4407
  789MOL0     C 8760   8.892   3.616   1.778 -0.1017 -0.5561  0.6952
  789MOL0     N 8761   8.776   3.701   1.762  0.6101 -0.3766 -0.2753
  789MOL0     C 8762   8.662   3.690   1.850  0.3935 -0.4999  0.6075
  789MOL0     C 8763   8.595   3.803   1.802  0.2931  0.1754 -0.0073
  789MOL0     C 8764   8.479   3.867   1.868  0.4983  0.4343 -0.7644
  789MOL0     C 8765   8.359   3.773   1.867 -0.1582  0.0341 -0.5595
  789MOL0     C 8766   8.251   3.822   1.970 -0.0764  0.1407 -0.6105
  789MOL0     C 8767   8.162   3.942   1.921 -0.2790  0.3739 -0.3850
  789MOL0     O 8768   8.107   3.943   1.793 -0.3032  1.0287  0.0061
  789MOL0     C 8769   8.003   3.863   1.756  0.0401  0.3074  0.4648
  789MOL0     C 8770   7.958   3.877   1.626  0.7016 -0.7937 -0.4025
  789MOL0     C 8771   7.837   3.822   1.574  0.6327 -0.0830  0.1224
  789MOL0     C 8772   7.782   3.869   1.446  0.8529 -0.0396  0.4169
  789MOL0     C 8773   7.779   3.723   1.654  0.6066  1.1119  0.0957
  789MOL0     C 8774   7.662   3.639   1.616  0.4828 -0.5294  0.3733
  789MOL0     O 8775   7.617   3.548   1.713 -0.3862 -0.3212 -0.3559
  789MOL0     C 8776   7.528   3.452   1.677  1.8932  0.3358 -0.1005
  789MOL0     C 8777   7.577   3.333   1.644 -0.1599  0.2192 -0.8712
  789MOL0     C 8778   7.485   3.227   1.619 -1.0281 -0.3714  0.5788
  789MOL0     C 8779   7.343   3.259   1.609 -1.2021  0.7207  0.3031
  789MOL0     O 8780   7.259   3.157   1.570 -0.0439 -0.6563  0.0767
  789MOL0     C 8781   7.119   3.175   1.570 -0.8882  0.0185  0.4277
  789MOL0     C 8782   7.060   3.031   1.534  0.8782 -0.1772 -1.0961
  789MOL0     C 8783   6.986   2.949   1.638  0.5106  0.7982 -0.0812
  789MOL0     C 8784   6.865   3.028   1.695  0.7231 -0.1583 -0.2077
  789MOL0     C 8785   6.784   2.962   1.807 -0.3182  0.4897  0.1512
  789MOL0     C 8786   6.674   2.876   1.765  0.3383  0.6943  0.8780
  789MOL0     C 8787   6.607   2.794   1.875 -1.0377  0.1766 -0.3480
  789MOL0     C 8788   6.687   2.661   1.925  0.5386 -0.4414 -0.0965
  789MOL0    Cl 8789   6.657   2.527   1.807  0.1082 -0.1249  0.6094
  789MOL0     C 8790   7.301   3.382   1.634 -0.0424 -0.8253 -0.4045
  789MOL0     C 8791   7.389   3.476   1.675  0.4399 -0.1965  0.9944
  789MOL0     O 8792   7.623   3.637   1.499 -0.0587 -0.0397 -0.0756
  789MOL0     C 8793   7.830   3.698   1.777 -0.3857 -0.1187  0.6200
  789MOL0     C 8794   7.938   3.766   1.829  0.1840  0.1910 -0.0361
  789MOL0     N 8795   8.642   3.848   1.681 -0.3694 -0.1305 -0.6102
  789MOL0     N 8796   8.750   3.780   1.657 -0.0639  0.1526 -0.3779
  789MOL0     C 8797   9.753   2.976   1.684  0.1106  0.0509 -0.0395
  789MOL0     C 8798   9.851   2.870   1.668 -0.2460 -1.2614 -0.1429
  789MOL0     C 8799   9.966   2.463   1.550  0.1689 -0.1357 -0.2203
  789MOL0     C 8800   9.917   2.344   1.478 -0.7673  0.5403  0.3617
  789MOL0     C 8801  10.000   2.271   1.391  0.3442  0.8571  0.5214
  789MOL0     C 8802  10.134   2.303   1.374 -0.8850  0.0869  0.2280
  789MOL0     O 8803  10.224   2.228   1.294 -0.2765 -0.4933 -0.0026
  789MOL0     C 8804  10.165   2.122   1.212  1.0017  0.1599  0.3535
  789MOL0     C 8805  10.261   2.041   1.137  0.7539 -0.0541  0.3578
  789MOL0     C 8806  10.185   1.921   1.068 -0.4559  0.6658 -1.0441
  789MOL0     C 8807  10.278   1.805   1.036 -0.1471 -0.2267  0.7110
  789MOL0     C 8808  10.375   1.843   0.926  0.3421 -0.0435  0.2564
  789MOL0     C 8809  10.453   1.871   0.835  0.0808 -0.8271  0.6534
  789MOL0     C 8810  10.182   2.424   1.440 -1.2988 -0.0495 -0.3151
  789MOL0     C 8811  10.107   2.504   1.526  1.0436  0.5854  0.5703
  789MOL0     C 8812  10.167   2.631   1.584 -0.5273 -1.1251 -0.2335
  789MOL0     H 8813   9.708   2.649   1.867  4.1636 -0.1841 -1.0984
  789MOL0     H 8814   9.555   2.829   1.909  0.3275  0.9691  0.0052
  789MOL0     H 8815   9.454   3.004   1.940  1.8428  0.4512  0.6168
  789MOL0     H 8816   9.363   2.994   1.787  2.1215 -1.8766 -0.3670
  789MOL0     H 8817   9.331   3.178   1.962  0.9484  2.9312 -0.0737
  789MOL0     H 8818   9.465   3.262   1.881  2.4958 -2.1784 -1.4266
  789MOL0     H 8819   9.301   3.181   1.670 -2.7589 -1.3382 -0.2022
  789MOL0     H 8820   9.180   3.187   1.791 -0.2295  0.3997  0.7405
  789MOL0     H 8821   9.283   3.418   1.863  3.3277  2.9117 -0.8511
  789MOL0     H 8822   9.360   3.402   1.698 -1.5631 -1.3763 -2.8050
  789MOL0     H 8823   9.062   3.384   1.722 -0.5401  2.1684  3.6755
  789MOL0     H 8824   9.158   3.418   1.581  2.4507  0.5226  0.4408
  789MOL0     H 8825   9.145   3.613   1.816 -3.1843 -0.2752  0.4173
  789MOL0     H 8826   9.218   3.642   1.659  0.1155 -1.2472 -1.3393
  789MOL0     H 8827   8.960   3.606   1.568  0.4515 -0.6420 -0.2390
  789MOL0     H 8828   9.014   3.760   1.649  3.5907  0.0433 -1.5296
  789MOL0     H 8829   8.856   3.514   1.757  2.2280 -1.2590 -0.2438
  789MOL0     H 8830   8.933   3.620   1.879 -1.0194  0.9726  1.0375
  789MOL0     H 8831   8.653   3.632   1.942 -2.3925 -1.2171 -0.0459
  789MOL0     H 8832   8.463   3.962   1.816  1.7918  0.3499 -1.3710
  789MOL0     H 8833   8.504   3.883   1.973  0.2867  0.6704 -0.7495
  789MOL0     H 8834   8.317   3.771   1.765  0.6989 -4.2595 -0.9839
  789MOL0     H 8835   8.379   3.673   1.905  3.1035  0.0795 -1.8294
  789MOL0     H 8836   8.188   3.737   1.996 -1.8709  0.4152 -3.5765
  789MOL0     H 8837   8.305   3.857   2.058 -1.0835 -3.1473  1.4597
  789MOL0     H 8838   8.079   3.942   1.993 -0.3151 -1.5911 -0.3747
  789MOL0     H 8839   8.214   4.038   1.928 -0.2111  0.2089  2.7770
  789MOL0     H 8840   7.997   3.952   1.559 -3.1476  2.0525  0.1394
  789MOL0     H 8841   7.828   3.964   1.417  0.0070  0.4786  0.7310
  789MOL0     H 8842   7.674   3.888   1.436  1.5056  3.6477 -1.3806
  789MOL0     H 8843   7.813   3.793   1.373  0.5420 -1.0310  1.3007
  789MOL0     H 8844   7.683   3.314   1.645 -0.2282 -0.1526  0.0321
  789MOL0     H 8845   7.523   3.130   1.589 -0.2392  0.4813 -1.3823
  789MOL0     H 8846   7.088   3.208   1.670  3.5685 -0.2834  2.1462
  789MOL0     H 8847   7.086   3.252   1.500 -0.3983  1.0570  1.3181
  789MOL0     H 8848   6.997   3.048   1.446 -1.8527 -0.9243  0.5758
  789MOL0     H 8849   7.141   2.969   1.496  1.5114  1.4460 -2.5364
  789MOL0     H 8850   7.059   2.927   1.716  1.5176  2.3813 -0.5327
  789MOL0     H 8851   6.958   2.852   1.596  3.3165 -0.2055  0.2112
  789MOL0     H 8852   6.797   3.056   1.615 -1.4962  1.2330  2.0211
  789MOL0     H 8853   6.903   3.119   1.742 -1.0098  0.6505 -0.3328
  789MOL0     H 8854   6.848   2.887   1.854 -1.6461 -0.9310 -0.2449
  789MOL0     H 8855   6.740   3.036   1.876 -0.3638  1.2777 -0.6996
  789MOL0     H 8856   6.708   2.800   1.694  0.5855 -1.0659  2.7895
  789MOL0     H 8857   6.593   2.936   1.723 -0.6618 -2.5378 -2.3295
  789MOL0     H 8858   6.506   2.769   1.840 -1.9017  0.5404  1.7750
  789MOL0     H 8859   6.587   2.864   1.957 -2.9196  0.9831 -1.4247
  789MOL0     H 8860   6.649   2.628   2.022  0.1925  0.2590  0.0130
  789MOL0     H 8861   6.794   2.681   1.934  0.2987  1.1329 -0.5360
  789MOL0     H 8862   7.196   3.407   1.625 -0.4454 -1.4024  1.9471
  789MOL0     H 8863   7.343   3.574   1.684  1.0491  0.0632  1.3099
  789MOL0     H 8864   7.788   3.622   1.842  1.0930 -0.2727  1.4326
  789MOL0     H 8865   7.960   3.751   1.934  0.6134 -1.1387 -0.2931
  789MOL0     H 8866   9.756   3.064   1.622 -0.9022  0.0444 -0.1109
  789MOL0     H 8867   9.931   2.881   1.596  0.5943  1.4369  1.0519
  789MOL0     H 8868   9.814   2.313   1.492  0.0624 -1.8877  1.7038
  789MOL0     H 8869   9.958   2.186   1.339  0.2280 -0.5298  2.7281
  789MOL0     H 8870  10.118   2.046   1.276  1.2186 -0.6774 -0.4546
  789MOL0     H 8871  10.088   2.158   1.143  1.8965 -0.1986 -0.8681
  789MOL0     H 8872  10.332   2.009   1.213 -1.9254 -0.4161  2.9159
  789MOL0     H 8873  10.293   2.109   1.057 -0.8282  1.4741  0.9520
  789MOL0     H 8874  10.105   1.888   1.135 -0.3217  0.4667 -0.9825
  789MOL0     H 8875  10.130   1.935   0.974 -0.5422 -2.7811 -1.6432
  789MOL0     H 8876  10.215   1.724   0.997 -2.4606  0.6320  2.5000
  789MOL0     H 8877  10.336   1.777   1.124  1.4982  3.9541  1.1576
  789MOL0     H 8878  10.518   1.897   0.753 -0.0258 -0.8837  0.5501
  789MOL0     H 8879  10.285   2.457   1.431 -0.5894 -2.0063  0.2211
  789MOL0     H 8880  10.101   2.716   1.563 -0.2723 -1.0506 -0.7407
  789MOL0     H 8881  10.187   2.613   1.691 -0.1979 -0.3014 -0.1497
  789MOL0     H 8882  10.266   2.650   1.542 -0.4174  1.1550  0.9024
  790MOL0     O 8883   3.659   8.497   1.089 -0.1135 -0.2640  0.4437
  790MOL0     C 8884   3.738   8.588   1.048 -0.4955  0.7025  0.0395
  790MOL0     O 8885   3.786   8.686   1.125  0.3033 -0.6735 -0.2273
  790MOL0     C 8886   3.765   8.683   1.260  0.3077 -0.0440 -0.1667
  790MOL0     C 8887   3.841   8.601   1.346 -0.2266  0.5780  0.0945
  790MOL0     C 8888   3.799   8.568   1.477 -0.0265  0.5382 -0.8981
  790MOL0     C 8889   3.687   8.639   1.535 -0.0543  0.1059  0.8181
  790MOL0     O 8890   3.641   8.600   1.661 -0.2636 -0.4337  0.2014
  790MOL0     C 8891   3.573   8.701   1.738 -0.3961 -0.0035  0.7926
  790MOL0     C 8892   3.553   8.662   1.885  0.5636  0.6765  0.5716
  790MOL0     C 8893   3.498   8.516   1.907  0.1793  0.0761  0.9065
  790MOL0     C 8894   3.349   8.516   1.950  0.0019 -0.2435  0.0672
  790MOL0     C 8895   3.293   8.385   1.969 -0.3660 -0.0956  0.1102
  790MOL0     C 8896   3.173   8.388   2.071  0.7523  0.7876  0.3756
  790MOL0     C 8897   3.044   8.460   2.028 -0.2110 -0.1273  0.3787
  790MOL0     C 8898   2.940   8.448   2.150  0.5007  0.5132  0.2087
  790MOL0     N 8899   3.001   8.518   2.274 -0.0233 -0.8591  0.3382
  790MOL0     C 8900   3.034   8.445   2.381 -0.4651 -0.6967  0.0935
  790MOL0     C 8901   3.094   8.527   2.472  0.1033  0.3239  0.5812
  790MOL0     C 8902   3.168   8.491   2.597  0.1900  0.5491 -0.5502
  790MOL0     C 8903   3.287   8.583   2.623 -0.0481 -0.3343  0.0000
  790MOL0     C 8904   3.401   8.553   2.519 -0.4999  0.9623  0.4795
  790MOL0     C 8905   3.493   8.660   2.500 -0.2032 -0.1067  0.3541
  790MOL0     O 8906   3.555   8.675   2.620 -0.1294  0.3039 -0.0822
  790MOL0     C 8907   3.657   8.767   2.618 -0.1643 -0.5347  1.6094
  790MOL0     C 8908   3.641   8.904   2.585  0.1898  0.0869  0.4640
  790MOL0     C 8909   3.751   8.990   2.581  0.2928 -0.2007  0.4134
  790MOL0     C 8910   3.726   9.129   2.528 -0.5633  0.5528 -0.7260
  790MOL0     C 8911   3.880   8.948   2.624 -0.2285  0.3720 -0.4849
  790MOL0     C 8912   3.991   9.039   2.654 -0.1077 -0.4880  0.8404
  790MOL0     O 8913   3.970   9.173   2.680 -0.0489 -0.4070 -0.3735
  790MOL0     C 8914   4.079   9.253   2.687  0.6363  0.9561  0.8797
  790MOL0     C 8915   4.113   9.332   2.574  0.1125  0.0600 -0.0803
  790MOL0     C 8916   4.227   9.414   2.589 -0.4697  0.0449  0.1321
  790MOL0     C 8917   4.310   9.419   2.701  0.3714  0.6799 -0.4617
  790MOL0     O 8918   4.430   9.500   2.711 -0.8680 -0.9851 -0.4077
  790MOL0     C 8919   4.437   9.617   2.628  0.5592  0.3906 -0.6138
  790MOL0     C 8920   4.511   9.729   2.693  0.1215 -0.5185  1.4023
  790MOL0     C 8921   4.573   9.829   2.584  0.7631  0.2364 -0.3426
  790MOL0     C 8922   4.600   9.962   2.644  0.5504 -0.1070  0.2258
  790MOL0     C 8923   4.712   9.958   2.744 -0.9051 -0.2755  0.7455
  790MOL0     C 8924   4.750  10.095   2.771 -0.0104 -0.2726 -0.0629
  790MOL0     C 8925   4.853  10.093   2.892 -0.2045  0.1021  0.3743
  790MOL0     C 8926   4.901  10.238   2.910 -0.2352  0.4267 -0.2251
  790MOL0    Cl 8927   5.029  10.236   3.032  0.0652 -0.4707 -0.4115
  790MOL0     C 8928   4.270   9.350   2.816 -0.6290 -0.6471  0.4530
  790MOL0     C 8929   4.154   9.265   2.805 -0.5570 -0.8460 -0.3365
  790MOL0     O 8930   4.105   8.987   2.665  0.5889  0.1819 -0.7687
  790MOL0     C 8931   3.891   8.813   2.659 -0.2160  0.2501 -0.0687
  790MOL0     C 8932   3.780   8.725   2.656  0.2549 -0.6753 -0.8687
  790MOL0     N 8933   3.093   8.653   2.419 -0.5785  0.0436 -0.5623
  790MOL0     N 8934   3.043   8.655   2.306  0.2912  0.9782  1.5115
  790MOL0     C 8935   3.629   8.742   1.454  0.4065 -0.4141 -0.3443
  790MOL0     C 8936   3.668   8.758   1.318  0.0741 -0.0440 -0.2794
  790MOL0     C 8937   3.788   8.570   0.900  0.4317 -0.8466  0.4968
  790MOL0     C 8938   3.721   8.482   0.813  0.1742  0.8566 -0.0212
  790MOL0     C 8939   3.753   8.477   0.678  0.4523  0.3283 -0.4523
  790MOL0     C 8940   3.857   8.549   0.617 -0.0660 -0.3420  0.0023
  790MOL0     O 8941   3.878   8.549   0.479 -0.2225 -0.4510  0.2084
  790MOL0     C 8942   3.983   8.638   0.429  0.6373 -0.1940  0.3589
  790MOL0     C 8943   3.981   8.642   0.284 -0.5320 -0.4496  0.3590
  790MOL0     C 8944   4.000   8.498   0.215 -0.4176  0.7258  0.3639
  790MOL0     C 8945   3.870   8.406   0.206 -0.7240  0.4234 -0.4991
  790MOL0     C 8946   3.913   8.262   0.190 -0.0285  0.0423  0.0368
  790MOL0     C 8947   3.947   8.070   0.205 -0.7234 -0.0879 -0.4011
  790MOL0     C 8948   3.915   8.641   0.708  0.5724  0.0250 -0.4667
  790MOL0     C 8949   3.888   8.656   0.852 -0.5107  0.6321  0.4426
  790MOL0     C 8950   3.966   8.764   0.924 -0.0180 -0.0729  0.1822
  790MOL0     H 8951   3.926   8.555   1.298 -0.2891  3.0109 -2.6309
  790MOL0     H 8952   3.848   8.497   1.543  1.1172  3.1636  1.2857
  790MOL0     H 8953   3.474   8.709   1.692 -0.7663 -0.3159  1.5120
  790MOL0     H 8954   3.627   8.796   1.731 -2.0574  0.8694 -2.2932
  790MOL0     H 8955   3.644   8.662   1.946 -0.3273 -2.4082  2.1409
  790MOL0     H 8956   3.487   8.738   1.927 -2.2964 -1.3762  0.1189
  790MOL0     H 8957   3.513   8.451   1.820  0.2156 -1.0387  1.7160
  790MOL0     H 8958   3.571   8.482   1.981  3.4790  2.8284 -0.8038
  790MOL0     H 8959   3.329   8.580   2.036  0.6987 -0.6268  0.5203
  790MOL0     H 8960   3.295   8.558   1.865 -0.0419 -0.6598 -0.1127
  790MOL0     H 8961   3.370   8.321   2.014  0.1720  0.8585  0.5797
  790MOL0     H 8962   3.268   8.331   1.877  0.7023 -2.2479  1.0047
  790MOL0     H 8963   3.147   8.281   2.074  4.3447 -0.2584 -1.0112
  790MOL0     H 8964   3.211   8.418   2.169  1.7954  2.5976 -0.5327
  790MOL0     H 8965   3.022   8.437   1.924 -0.7819  0.5151  0.3515
  790MOL0     H 8966   3.065   8.567   2.019  0.4418 -0.3232 -0.6526
  790MOL0     H 8967   2.837   8.483   2.131  0.2333  1.2807  2.7341
  790MOL0     H 8968   2.917   8.343   2.168  1.0446  0.6349  1.7223
  790MOL0     H 8969   3.036   8.337   2.390 -0.2275 -0.7724 -0.7564
  790MOL0     H 8970   3.200   8.387   2.594 -1.5102  0.0169 -1.0922
  790MOL0     H 8971   3.097   8.491   2.680  1.9733  1.0336  1.0499
  790MOL0     H 8972   3.259   8.689   2.629  4.2904  0.9256  0.9408
  790MOL0     H 8973   3.307   8.550   2.725 -3.7566 -1.1112  0.6168
  790MOL0     H 8974   3.452   8.459   2.542 -0.9920  0.5286 -0.2025
  790MOL0     H 8975   3.363   8.544   2.418  0.2994 -1.1034  0.3097
  790MOL0     H 8976   3.561   8.619   2.424  0.7159 -1.0458  1.6245
  790MOL0     H 8977   3.442   8.748   2.461  0.0326  0.7587  1.9385
  790MOL0     H 8978   3.543   8.937   2.551 -0.3203 -0.0273  1.7359
  790MOL0     H 8979   3.705   9.187   2.619 -0.1587 -0.3177 -0.0685
  790MOL0     H 8980   3.636   9.130   2.465  0.2400  2.1087 -1.9130
  790MOL0     H 8981   3.812   9.159   2.469 -1.7328  3.6326 -1.0798
  790MOL0     H 8982   4.049   9.340   2.486  1.9373  3.1810 -1.3172
  790MOL0     H 8983   4.241   9.477   2.502  1.0064 -0.4996 -0.0622
  790MOL0     H 8984   4.488   9.582   2.538 -3.0389 -3.4893 -1.4529
  790MOL0     H 8985   4.341   9.645   2.583  0.7262  2.5469  0.2120
  790MOL0     H 8986   4.442   9.785   2.758 -1.2827 -1.8334  1.0880
  790MOL0     H 8987   4.598   9.702   2.754 -1.0553 -2.6437  2.2252
  790MOL0     H 8988   4.510   9.836   2.494  0.1154  0.4490  0.1201
  790MOL0     H 8989   4.666   9.779   2.555  1.6686  0.1274  2.4491
  790MOL0     H 8990   4.513  10.002   2.698 -0.3997 -0.2570 -1.1518
  790MOL0     H 8991   4.622  10.025   2.557 -0.7034  1.6331  1.0880
  790MOL0     H 8992   4.697   9.901   2.836  3.9824 -0.4412  1.7151
  790MOL0     H 8993   4.801   9.915   2.696 -0.8478 -1.6313  1.9755
  790MOL0     H 8994   4.668  10.162   2.796 -0.9023 -0.5039 -2.2166
  790MOL0     H 8995   4.801  10.124   2.679  1.3533  0.9338  1.0101
  790MOL0     H 8996   4.934  10.029   2.856 -2.0290  0.1411 -4.6475
  790MOL0     H 8997   4.814  10.047   2.983  0.3645 -1.0745  0.0413
  790MOL0     H 8998   4.810  10.287   2.945 -0.0674 -0.4119  1.4899
  790MOL0     H 8999   4.946  10.282   2.821  2.6043  1.1734  1.4225
  790MOL0     H 9000   4.329   9.366   2.906 -2.0146  2.0150  0.9998
  790MOL0     H 9001   4.101   9.220   2.888 -0.7152  1.3502  0.8349
  790MOL0     H 9002   3.984   8.780   2.703 -0.3425  1.7066  1.3829
  790MOL0     H 9003   3.782   8.622   2.690  0.1271 -0.4592 -0.1849
  790MOL0     H 9004   3.542   8.793   1.493 -0.0254 -1.6239  0.3475
  790MOL0     H 9005   3.607   8.821   1.254  0.4351 -1.2829 -1.9285
  790MOL0     H 9006   3.634   8.424   0.843 -0.8297  1.6481 -1.2986
  790MOL0     H 9007   3.701   8.410   0.610  0.9058 -0.7389  0.2291
  790MOL0     H 9008   3.979   8.744   0.455 -1.1077 -0.8033  2.8345
  790MOL0     H 9009   4.080   8.595   0.455  1.5562  1.2072 -0.6145
  790MOL0     H 9010   4.072   8.694   0.253  2.1192 -2.5718  3.8320
  790MOL0     H 9011   3.897   8.689   0.231  0.5517 -0.8635 -1.8619
  790MOL0     H 9012   4.045   8.493   0.116 -1.7238 -8.0061 -0.5444
  790MOL0     H 9013   4.072   8.446   0.278  1.1134  0.4779 -1.5190
  790MOL0     H 9014   3.805   8.430   0.121  2.0273 -0.5331 -3.0528
  790MOL0     H 9015   3.813   8.412   0.299 -1.5662 -2.3153 -0.7494
  790MOL0     H 9016   3.978   7.968   0.203  1.3092  0.4337  0.7813
  790MOL0     H 9017   3.986   8.713   0.670  1.7695 -0.6746  0.3532
  790MOL0     H 9018   4.049   8.805   0.866 -1.0766  0.8502 -0.7407
  790MOL0     H 9019   3.900   8.848   0.948 -0.1194  0.0869 -0.6243
  790MOL0     H 9020   4.006   8.723   1.017 -2.1489 -0.1037  1.1406
  791MOL0     O 9021   1.469   7.428   4.626  0.0227 -0.4922 -0.6160
  791MOL0     C 9022   1.500   7.512   4.536  0.6709  0.7710 -0.4833
  791MOL0     O 9023   1.621   7.546   4.507 -0.1078 -0.0835  0.6991
  791MOL0     C 9024   1.728   7.457   4.540  0.6632  0.3445  0.0674
  791MOL0     C 9025   1.852   7.517   4.579  0.2773 -0.9150 -0.3842
  791MOL0     C 9026   1.952   7.442   4.637 -0.0970 -0.0904 -0.2517
  791MOL0     C 9027   1.939   7.303   4.643 -0.0157  0.1568 -0.2921
  791MOL0     O 9028   2.057   7.236   4.690 -0.6612 -0.1655  0.1286
  791MOL0     C 9029   2.064   7.094   4.708  0.2493  0.0150 -0.9107
  791MOL0     C 9030   2.198   7.063   4.763  0.1029 -0.1009 -0.1826
  791MOL0     C 9031   2.314   7.065   4.661 -0.9061  0.6441 -0.9011
  791MOL0     C 9032   2.325   6.937   4.569 -1.0563  1.1511 -0.0385
  791MOL0     C 9033   2.445   6.945   4.483  0.0126 -0.1713  0.3471
  791MOL0     C 9034   2.468   6.821   4.389 -0.3708  0.7286 -0.1743
  791MOL0     C 9035   2.543   6.708   4.462 -0.2007 -0.8539 -0.2313
  791MOL0     C 9036   2.569   6.606   4.349 -0.2824  0.5628 -0.9364
  791MOL0     N 9037   2.630   6.480   4.385 -0.6695 -0.3495  0.3713
  791MOL0     C 9038   2.582   6.350   4.364 -0.2207 -0.1075  0.4306
  791MOL0     C 9039   2.688   6.272   4.395  0.5488  0.4884  0.1421
  791MOL0     C 9040   2.706   6.122   4.372  0.2688  0.0873  0.1355
  791MOL0     C 9041   2.621   6.044   4.481  0.2333  0.3090  0.0910
  791MOL0     C 9042   2.662   5.897   4.510 -0.1061 -0.0374  0.3547
  791MOL0     C 9043   2.689   5.812   4.386 -1.0109  0.5701  0.2140
  791MOL0     O 9044   2.558   5.793   4.318  0.0602 -0.2289 -0.5484
  791MOL0     C 9045   2.483   5.686   4.356  0.4621  0.0611 -0.5655
  791MOL0     C 9046   2.522   5.552   4.362  0.2729 -0.7312 -0.6576
  791MOL0     C 9047   2.443   5.444   4.406  0.1380  0.5395  0.0365
  791MOL0     C 9048   2.509   5.304   4.400 -0.3799  0.2955 -0.9659
  791MOL0     C 9049   2.306   5.463   4.448  0.4763  1.4311 -0.2461
  791MOL0     C 9050   2.210   5.355   4.478  1.2458 -0.2824  1.2708
  791MOL0     O 9051   2.259   5.226   4.508  0.2284 -1.0465  0.3429
  791MOL0     C 9052   2.183   5.124   4.544 -0.2751 -0.0736 -0.5434
  791MOL0     C 9053   2.051   5.101   4.499 -0.6002  1.1645  0.5969
  791MOL0     C 9054   1.980   4.990   4.547 -0.4201  0.1684 -0.4983
  791MOL0     C 9055   2.041   4.891   4.619  0.4816  0.0070  0.9581
  791MOL0     O 9056   1.978   4.777   4.668  0.1647  0.7525  0.0153
  791MOL0     C 9057   1.840   4.741   4.638  0.6520 -0.2114  0.1094
  791MOL0     C 9058   1.792   4.621   4.726 -0.4407 -0.4636 -0.0341
  791MOL0     C 9059   1.641   4.578   4.700  0.0862 -1.0723  0.0827
  791MOL0     C 9060   1.588   4.512   4.826 -0.1479  0.0178  0.1510
  791MOL0     C 9061   1.442   4.479   4.807  0.5394  0.0763  0.0820
  791MOL0     C 9062   1.391   4.423   4.940  0.1938 -0.2951  0.2175
  791MOL0     C 9063   1.381   4.507   5.068  0.7123 -0.2251  0.1459
  791MOL0     C 9064   1.290   4.443   5.176 -0.2039  0.1302  0.5680
  791MOL0    Cl 9065   1.330   4.503   5.343 -0.0740 -0.5918  0.2689
  791MOL0     C 9066   2.173   4.907   4.661 -0.6499 -0.5660 -0.2569
  791MOL0     C 9067   2.241   5.018   4.627 -0.8150  0.9920  0.3864
  791MOL0     O 9068   2.089   5.389   4.492 -0.7742  0.2719 -0.9334
  791MOL0     C 9069   2.267   5.595   4.451 -0.3347 -0.7621  0.5590
  791MOL0     C 9070   2.344   5.706   4.403 -0.3176  0.4606 -0.8847
  791MOL0     N 9071   2.788   6.354   4.452  0.0121 -0.5880 -0.4172
  791MOL0     N 9072   2.747   6.479   4.442  0.2253 -0.1496  0.4284
  791MOL0     C 9073   1.826   7.232   4.585  0.0023 -0.4466 -0.6100
  791MOL0     C 9074   1.718   7.313   4.547 -0.5544  0.1399  0.2772
  791MOL0     C 9075   1.388   7.579   4.472  0.3910  0.3925  0.4424
  791MOL0     C 9076   1.402   7.712   4.435  0.3282  0.2073  0.1023
  791MOL0     C 9077   1.294   7.781   4.372  0.1337  0.5404 -0.7270
  791MOL0     C 9078   1.172   7.725   4.337 -0.5847  0.7340  0.0408
  791MOL0     O 9079   1.080   7.794   4.269  0.4249  0.3716  0.4137
  791MOL0     C 9080   0.953   7.743   4.236  0.5141  0.1341  0.2183
  791MOL0     C 9081   0.876   7.855   4.164 -0.1776 -1.0575  0.1000
  791MOL0     C 9082   0.733   7.811   4.169  0.2630  0.2702 -0.7900
  791MOL0     C 9083   0.638   7.936   4.150  0.0400 -0.2714 -0.0969
  791MOL0     C 9084   0.501   7.891   4.179  0.3685  0.0334 -0.3846
  791MOL0     C 9085   0.392   7.847   4.208 -0.7310 -0.0904 -0.3595
  791MOL0     C 9086   1.159   7.596   4.378  0.2477 -0.0957 -0.2904
  791MOL0     C 9087   1.262   7.522   4.438 -0.0860 -0.1197  0.6200
  791MOL0     C 9088   1.235   7.374   4.449 -0.9335  0.6658 -1.0782
  791MOL0     H 9089   1.867   7.623   4.564 -1.0519 -0.6506  0.0756
  791MOL0     H 9090   2.043   7.490   4.672  0.1455  3.0762 -4.4412
  791MOL0     H 9091   2.062   7.057   4.605  2.5374  0.4824 -1.1833
  791MOL0     H 9092   1.980   7.061   4.770  0.0288 -0.2717 -1.3468
  791MOL0     H 9093   2.212   7.136   4.844 -1.6733 -0.6085  0.6343
  791MOL0     H 9094   2.201   6.964   4.808  1.0446 -0.3238 -0.7184
  791MOL0     H 9095   2.298   7.154   4.598  0.9067  1.3591 -0.4203
  791MOL0     H 9096   2.405   7.068   4.721 -2.9216  0.6265  2.4387
  791MOL0     H 9097   2.333   6.850   4.634 -0.3497  0.0580 -1.5253
  791MOL0     H 9098   2.238   6.920   4.504 -0.4789 -1.3456 -0.2656
  791MOL0     H 9099   2.535   6.967   4.541 -1.3378  1.4759  1.9393
  791MOL0     H 9100   2.443   7.040   4.429 -0.9344 -1.0966 -1.3203
  791MOL0     H 9101   2.375   6.788   4.342  0.9861 -1.7005 -1.3580
  791MOL0     H 9102   2.524   6.857   4.302 -1.1208  1.0121 -0.5538
  791MOL0     H 9103   2.472   6.664   4.532 -1.6505 -0.2258 -1.2391
  791MOL0     H 9104   2.639   6.745   4.498  0.7641 -0.6734 -2.7493
  791MOL0     H 9105   2.473   6.586   4.301  0.9449 -1.1906 -2.8035
  791MOL0     H 9106   2.629   6.644   4.265  0.8609 -0.7926 -0.7724
  791MOL0     H 9107   2.494   6.312   4.314 -0.2657 -0.4756  0.7778
  791MOL0     H 9108   2.808   6.091   4.397  1.1079  2.9367  0.6563
  791MOL0     H 9109   2.690   6.100   4.266 -1.4152 -0.0134  0.3943
  791MOL0     H 9110   2.617   6.097   4.576  0.2177  1.6688 -0.6442
  791MOL0     H 9111   2.519   6.040   4.440  0.2363 -2.1809  0.1399
  791MOL0     H 9112   2.746   5.906   4.579 -0.4380  1.8108  0.5590
  791MOL0     H 9113   2.591   5.842   4.573  1.7901 -1.5486  1.2744
  791MOL0     H 9114   2.758   5.859   4.315  0.6662 -1.6740  0.2526
  791MOL0     H 9115   2.732   5.717   4.418 -1.6050  0.0840 -0.3927
  791MOL0     H 9116   2.625   5.538   4.329  0.9257  3.6976 -1.1477
  791MOL0     H 9117   2.613   5.313   4.369 -1.0509 -0.3762 -3.7015
  791MOL0     H 9118   2.458   5.246   4.323 -4.0397  0.8593  0.8041
  791MOL0     H 9119   2.506   5.264   4.502  1.3167  1.6843 -0.3105
  791MOL0     H 9120   2.006   5.172   4.430 -2.0162  1.0011  1.3277
  791MOL0     H 9121   1.877   4.984   4.515  0.2652 -0.1837 -2.7983
  791MOL0     H 9122   1.770   4.824   4.653  0.2713  0.6490 -4.6823
  791MOL0     H 9123   1.825   4.705   4.536 -3.1312 -0.2885  0.5658
  791MOL0     H 9124   1.853   4.531   4.715 -2.8355 -2.1432 -0.3751
  791MOL0     H 9125   1.797   4.657   4.829  3.6350  0.0391 -0.2475
  791MOL0     H 9126   1.644   4.497   4.626  0.1865 -1.6696  0.7301
  791MOL0     H 9127   1.577   4.660   4.667  1.4498  0.3122  0.7430
  791MOL0     H 9128   1.591   4.585   4.908 -4.4210 -0.3194  0.8158
  791MOL0     H 9129   1.647   4.425   4.854  0.9723  0.2979 -1.2200
  791MOL0     H 9130   1.380   4.568   4.790 -1.6884 -1.1293  1.4995
  791MOL0     H 9131   1.417   4.409   4.726  2.2242 -0.7902  0.2673
  791MOL0     H 9132   1.452   4.334   4.955  2.6155  1.0828 -0.9504
  791MOL0     H 9133   1.289   4.388   4.921 -0.4978  1.5829  0.2165
  791MOL0     H 9134   1.343   4.598   5.021  0.2504 -1.5303 -2.1572
  791MOL0     H 9135   1.478   4.520   5.117  0.4393 -0.3361  0.7214
  791MOL0     H 9136   1.297   4.333   5.178  3.3367  0.2634  2.5862
  791MOL0     H 9137   1.185   4.463   5.152 -0.6649 -2.1142  0.4784
  791MOL0     H 9138   2.231   4.837   4.721 -0.3164  1.1730  1.5450
  791MOL0     H 9139   2.342   5.026   4.667 -0.7817  0.5248  0.4109
  791MOL0     H 9140   2.168   5.621   4.488 -1.6239  1.7315 -3.9142
  791MOL0     H 9141   2.307   5.807   4.417  1.6758  0.9518  1.6248
  791MOL0     H 9142   1.834   7.124   4.587 -1.5255 -0.6426 -2.4011
  791MOL0     H 9143   1.627   7.259   4.526  0.0677 -1.7971  2.2031
  791MOL0     H 9144   1.492   7.770   4.452  0.0296  0.5165  0.6571
  791MOL0     H 9145   1.318   7.882   4.338  3.0268 -0.4482 -1.9635
  791MOL0     H 9146   0.958   7.654   4.173  2.0174  0.4435 -0.1269
  791MOL0     H 9147   0.906   7.735   4.334 -2.1995  0.4417 -0.9656
  791MOL0     H 9148   0.926   7.868   4.068 -0.2498 -0.0241  0.1841
  791MOL0     H 9149   0.900   7.941   4.227  2.2710 -1.0795 -0.7117
  791MOL0     H 9150   0.720   7.748   4.080  2.0917  1.0988 -1.7080
  791MOL0     H 9151   0.717   7.760   4.264 -0.1312  0.6477 -0.6547
  791MOL0     H 9152   0.661   7.989   4.057 -1.1349 -0.2254 -0.3778
  791MOL0     H 9153   0.656   8.017   4.222 -2.7131 -1.0011  1.5698
  791MOL0     H 9154   0.305   7.796   4.244  0.6380 -1.2113  1.4996
  791MOL0     H 9155   1.064   7.549   4.356 -1.0237  2.5891 -0.9191
  791MOL0     H 9156   1.199   7.330   4.355  3.1794  0.7473 -2.8974
  791MOL0     H 9157   1.330   7.323   4.469  0.4493  3.6756  0.8286
  791MOL0     H 9158   1.180   7.360   4.542  1.4322 -0.2483  0.2605
  792MOL0     O 9159   9.462   9.501   5.529 -0.1804  0.9420 -0.6300
  792MOL0     C 9160   9.448   9.405   5.463  0.1914  0.7743 -0.3247
  792MOL0     O 9161   9.442   9.275   5.509  0.2485 -1.0250  0.2311
  792MOL0     C 9162   9.479   9.238   5.638  0.3668 -0.2697 -0.4057
  792MOL0     C 9163   9.382   9.244   5.739  0.0316 -1.0412  0.2752
  792MOL0     C 9164   9.409   9.212   5.872  0.2346  1.0889 -0.2039
  792MOL0     C 9165   9.536   9.175   5.913 -0.2542  0.2161  0.3686
  792MOL0     O 9166   9.581   9.148   6.039  0.6946  0.0770 -0.2302
  792MOL0     C 9167   9.497   9.104   6.154  0.3857  0.4622 -0.0690
  792MOL0     C 9168   9.599   9.069   6.264  1.5313  0.2761  0.1645
  792MOL0     C 9169   9.687   8.948   6.237  0.2214 -0.7238  0.1568
  792MOL0     C 9170   9.777   8.933   6.363 -0.7956 -1.1752 -0.0672
  792MOL0     C 9171   9.869   8.813   6.355  0.3841 -0.1285  0.2334
  792MOL0     C 9172  10.002   8.842   6.439  0.5534 -0.0748 -0.8121
  792MOL0     C 9173  10.102   8.732   6.407 -1.0932 -0.5616 -0.4646
  792MOL0     C 9174  10.173   8.752   6.270  0.6716 -0.5279 -0.3696
  792MOL0     N 9175  10.258   8.867   6.268 -0.3931  0.1062  0.1881
  792MOL0     C 9176  10.375   8.860   6.339  0.7600 -0.2203 -1.0648
  792MOL0     C 9177  10.439   8.969   6.298  0.7820 -0.6200 -0.6798
  792MOL0     C 9178  10.570   9.015   6.348  0.8608  0.4192  0.3315
  792MOL0     C 9179  10.664   9.039   6.231  0.0428 -0.3071  0.2774
  792MOL0     C 9180  10.791   9.105   6.261  0.2216 -0.2576 -0.8375
  792MOL0     C 9181  10.767   9.253   6.257 -0.1410  0.0720  0.1893
  792MOL0     O 9182  10.876   9.337   6.262  0.0695  0.0726 -0.4089
  792MOL0     C 9183  10.963   9.316   6.370  0.4491 -0.8258  1.4767
  792MOL0     C 9184  10.946   9.375   6.491 -1.3336 -0.9856 -0.1974
  792MOL0     C 9185  11.037   9.369   6.596  0.9427  0.2016  0.8555
  792MOL0     C 9186  11.008   9.458   6.716 -0.0931  0.1405 -0.0650
  792MOL0     C 9187  11.150   9.283   6.577 -0.1235  0.2381  0.1147
  792MOL0     C 9188  11.245   9.257   6.688  0.0655 -0.4208  0.5596
  792MOL0     O 9189  11.252   9.349   6.790  0.3065  0.1020 -0.4399
  792MOL0     C 9190  11.346   9.334   6.887  0.4239 -0.0446 -0.3923
  792MOL0     C 9191  11.303   9.312   7.016 -0.3692 -0.1816 -0.0257
  792MOL0     C 9192  11.391   9.291   7.122 -0.3525 -0.1646  0.3488
  792MOL0     C 9193  11.522   9.308   7.111 -0.1879 -0.8405 -0.3500
  792MOL0     O 9194  11.602   9.321   7.222 -0.6751 -0.2938 -0.4228
  792MOL0     C 9195  11.672   9.206   7.254  0.1878  0.3165  0.3282
  792MOL0     C 9196  11.725   9.226   7.402  0.4442  0.0193  0.3240
  792MOL0     C 9197  11.821   9.348   7.410 -0.5097  0.0710 -0.5030
  792MOL0     C 9198  11.891   9.353   7.537 -0.0654 -0.0635 -0.9753
  792MOL0     C 9199  11.999   9.242   7.569 -1.1151  0.8577  0.0963
  792MOL0     C 9200  12.126   9.263   7.487  0.6959  0.2377  0.6606
  792MOL0     C 9201  12.233   9.163   7.542  1.1236 -0.0494  0.1808
  792MOL0     C 9202  12.366   9.186   7.473 -0.4963  0.4874 -0.5685
  792MOL0    Cl 9203  12.365   9.117   7.306  0.0590 -0.4223  0.4818
  792MOL0     C 9204  11.571   9.333   6.983  1.1244 -0.5838  0.3276
  792MOL0     C 9205  11.478   9.354   6.873 -0.4267  0.8677  0.0802
  792MOL0     O 9206  11.318   9.161   6.674 -0.2930  0.3923 -0.4199
  792MOL0     C 9207  11.163   9.200   6.461 -0.6174 -0.5623  0.7304
  792MOL0     C 9208  11.072   9.231   6.358 -0.6198 -0.3351 -0.4760
  792MOL0     N 9209  10.361   9.043   6.216 -0.0947 -0.4099  0.6096
  792MOL0     N 9210  10.246   8.985   6.198 -0.6811 -0.0283 -0.0388
  792MOL0     C 9211   9.632   9.159   5.809 -0.3840  1.0131  0.4619
  792MOL0     C 9212   9.606   9.186   5.668  0.1603  0.3394  0.1996
  792MOL0     C 9213   9.430   9.421   5.315 -0.1146 -0.5454  0.6775
  792MOL0     C 9214   9.523   9.512   5.248  0.1643 -0.4424 -1.2323
  792MOL0     C 9215   9.520   9.534   5.106 -0.3781  1.0049 -0.3201
  792MOL0     C 9216   9.431   9.452   5.038 -0.2993  0.1651 -0.3025
  792MOL0     O 9217   9.411   9.469   4.907  0.1626  1.1914  0.2301
  792MOL0     C 9218   9.529   9.434   4.822  0.1670 -0.5088  0.1466
  792MOL0     C 9219   9.499   9.451   4.676 -0.0794  0.8307  0.6119
  792MOL0     C 9220   9.485   9.586   4.615 -0.0817  0.5054 -0.7571
  792MOL0     C 9221   9.510   9.569   4.468 -0.0344 -0.3755  0.2255
  792MOL0     C 9222   9.417   9.472   4.403 -0.1349 -0.8318 -0.4868
  792MOL0     C 9223   9.328   9.396   4.362 -1.2776 -0.0505 -0.1160
  792MOL0     C 9224   9.339   9.367   5.104 -0.1123  0.1698  0.1387
  792MOL0     C 9225   9.344   9.344   5.238 -0.6561  0.1928 -0.2823
  792MOL0     C 9226   9.254   9.240   5.289 -0.0256  0.6699  0.4794
  792MOL0     H 9227   9.284   9.286   5.723  0.2094 -0.4599  0.6681
  792MOL0     H 9228   9.331   9.223   5.946  0.2319  2.9560 -0.4376
  792MOL0     H 9229   9.447   9.013   6.119  2.5917 -0.0000 -2.3425
  792MOL0     H 9230   9.435   9.181   6.200  2.5396  0.2242  3.6190
  792MOL0     H 9231   9.655   9.163   6.273  0.0654  1.1446  0.8073
  792MOL0     H 9232   9.551   9.039   6.358  0.1984  1.1133 -0.2204
  792MOL0     H 9233   9.622   8.866   6.207 -5.1963  2.4887  1.5891
  792MOL0     H 9234   9.751   8.977   6.154  0.1824 -0.2418  0.2922
  792MOL0     H 9235   9.837   9.024   6.358 -2.5020 -0.0148 -0.3284
  792MOL0     H 9236   9.728   8.928   6.460  2.5936  0.3475  1.8990
  792MOL0     H 9237   9.897   8.790   6.252 -1.0239 -2.3079  0.2722
  792MOL0     H 9238   9.817   8.724   6.390 -1.8899  0.0919 -2.3168
  792MOL0     H 9239  10.042   8.936   6.402  1.0632 -0.1103 -0.3795
  792MOL0     H 9240   9.986   8.847   6.548  2.7686 -0.9088 -0.3910
  792MOL0     H 9241  10.050   8.636   6.419 -3.9619  1.1323  1.9632
  792MOL0     H 9242  10.182   8.733   6.482 -0.5713  0.2717 -1.0260
  792MOL0     H 9243  10.226   8.663   6.234 -2.5022 -3.1478  0.9590
  792MOL0     H 9244  10.096   8.766   6.193 -0.4897  0.1716  0.8778
  792MOL0     H 9245  10.422   8.795   6.412 -0.2980  1.2604  1.0708
  792MOL0     H 9246  10.601   8.939   6.419  2.0004  1.8340  1.4153
  792MOL0     H 9247  10.558   9.104   6.411 -2.6735 -0.4832  1.1454
  792MOL0     H 9248  10.694   8.944   6.185  0.6260  0.2841 -0.6034
  792MOL0     H 9249  10.617   9.099   6.153  3.2329  1.4708 -0.4739
  792MOL0     H 9250  10.836   9.070   6.354  3.0049  1.1872 -1.5009
  792MOL0     H 9251  10.859   9.070   6.182 -2.4792 -3.6497 -1.8956
  792MOL0     H 9252  10.731   9.277   6.156 -1.2180 -2.3280 -0.0745
  792MOL0     H 9253  10.692   9.278   6.333 -0.2790  3.7200 -0.9642
  792MOL0     H 9254  10.860   9.441   6.497 -1.2842 -0.4037 -3.8404
  792MOL0     H 9255  11.092   9.523   6.741  0.6844 -1.3898  1.4927
  792MOL0     H 9256  11.005   9.394   6.804  0.4010  1.4660  0.9527
  792MOL0     H 9257  10.912   9.511   6.714 -0.2516 -0.0373  1.6017
  792MOL0     H 9258  11.196   9.300   7.028 -0.6630  0.6962 -1.5564
  792MOL0     H 9259  11.349   9.275   7.221 -0.7725  0.3331  0.2579
  792MOL0     H 9260  11.600   9.123   7.253  2.4852 -1.7643  0.1366
  792MOL0     H 9261  11.752   9.193   7.182  1.1648  1.3243  1.1964
  792MOL0     H 9262  11.643   9.241   7.472  1.8293  4.3218  1.3565
  792MOL0     H 9263  11.774   9.135   7.439 -1.0397 -1.0042 -0.1638
  792MOL0     H 9264  11.771   9.445   7.409  0.4368  0.6133  1.2026
  792MOL0     H 9265  11.895   9.340   7.330  0.1022 -1.1260  0.1528
  792MOL0     H 9266  11.826   9.346   7.624  1.7744 -2.1406  0.3362
  792MOL0     H 9267  11.940   9.450   7.527 -1.0753  0.4206 -1.3275
  792MOL0     H 9268  12.019   9.242   7.677 -0.3712  4.6992  0.1137
  792MOL0     H 9269  11.967   9.140   7.550 -1.4192  0.8823  0.4744
  792MOL0     H 9270  12.147   9.369   7.500 -1.2335  0.8973 -1.1176
  792MOL0     H 9271  12.111   9.254   7.379 -1.2443  0.4125  0.8826
  792MOL0     H 9272  12.209   9.057   7.540  1.4838 -0.1334  0.2236
  792MOL0     H 9273  12.248   9.202   7.644  2.2465  2.0557 -0.7192
  792MOL0     H 9274  12.443   9.143   7.537 -1.3728  0.4348  0.4810
  792MOL0     H 9275  12.386   9.294   7.466  3.1355  0.1467  1.5707
  792MOL0     H 9276  11.677   9.342   6.961  1.3948  1.5455  2.1033
  792MOL0     H 9277  11.513   9.365   6.771  1.3857 -3.1675  0.0729
  792MOL0     H 9278  11.234   9.120   6.445 -1.1187 -0.8945  0.0917
  792MOL0     H 9279  11.099   9.190   6.261 -0.3485 -2.2707  0.3830
  792MOL0     H 9280   9.735   9.129   5.828 -0.4465 -0.0222 -0.7194
  792MOL0     H 9281   9.671   9.167   5.583 -0.5889  1.4158 -0.6392
  792MOL0     H 9282   9.579   9.585   5.306  2.6234 -2.0157 -1.4812
  792MOL0     H 9283   9.570   9.618   5.059 -4.6215  2.8265 -2.1033
  792MOL0     H 9284   9.611   9.504   4.841  3.5219 -4.6898  2.9352
  792MOL0     H 9285   9.571   9.335   4.840  1.8816  0.5718  2.6128
  792MOL0     H 9286   9.403   9.403   4.655 -0.8874  2.8849 -0.6746
  792MOL0     H 9287   9.578   9.395   4.625  0.2768 -3.2542  4.9269
  792MOL0     H 9288   9.382   9.621   4.630  0.0966  0.3722  1.1101
  792MOL0     H 9289   9.556   9.659   4.655  2.3438 -2.5889  1.0788
  792MOL0     H 9290   9.613   9.532   4.467  0.6727  1.4779 -1.1272
  792MOL0     H 9291   9.500   9.665   4.416  0.3712 -0.8114 -0.6807
  792MOL0     H 9292   9.257   9.320   4.337 -0.7393 -1.4288  2.2197
  792MOL0     H 9293   9.275   9.300   5.048 -0.1877 -1.2393  1.7970
  792MOL0     H 9294   9.308   9.151   5.323  1.3075  1.1229 -0.4096
  792MOL0     H 9295   9.199   9.271   5.378  1.7784  1.9140  1.2281
  792MOL0     H 9296   9.173   9.217   5.219  0.8341 -0.9264 -0.0455
  793MOL0     O 9297   0.342  10.619  11.493  0.3141  0.3073 -0.6071
  793MOL0     C 9298   0.431  10.540  11.459 -0.1524 -0.4811 -0.8625
  793MOL0     O 9299   0.420  10.467  11.339 -0.1936 -0.8894  0.1699
  793MOL0     C 9300   0.295  10.465  11.284  0.3656  0.7839  0.0646
  793MOL0     C 9301   0.236  10.577  11.226  0.1807  0.0402  0.2161
  793MOL0     C 9302   0.099  10.570  11.170  0.0143  0.3950  0.4647
  793MOL0     C 9303   0.030  10.444  11.163 -0.6608  0.1944  0.0875
  793MOL0     O 9304  -0.097  10.433  11.097  0.0117 -0.0409  0.1971
  793MOL0     C 9305  -0.204  10.378  11.173  0.8126 -0.3740  0.1065
  793MOL0     C 9306  -0.247  10.478  11.280 -0.1212  0.8205  0.3029
  793MOL0     C 9307  -0.234  10.630  11.234 -0.3869 -0.7687 -0.3380
  793MOL0     C 9308  -0.330  10.721  11.305  0.3926  0.1708 -0.7835
  793MOL0     C 9309  -0.481  10.709  11.263  0.4399  0.6421  0.6784
  793MOL0     C 9310  -0.576  10.791  11.362 -0.4983 -0.5685 -0.0968
  793MOL0     C 9311  -0.712  10.717  11.367 -0.4666  0.0594  0.3893
  793MOL0     C 9312  -0.817  10.800  11.436 -1.0916 -0.6798 -0.0077
  793MOL0     N 9313  -0.950  10.731  11.449 -0.4776  0.7928 -0.5310
  793MOL0     C 9314  -1.028  10.725  11.557  0.4986  0.0970 -0.6296
  793MOL0     C 9315  -1.149  10.701  11.507 -0.3696  0.5481 -0.8384
  793MOL0     C 9316  -1.274  10.702  11.596  0.0613  0.2463  0.3311
  793MOL0     C 9317  -1.281  10.575  11.696 -0.0240  0.0342 -0.9898
  793MOL0     C 9318  -1.326  10.452  11.619  0.2259  0.7203 -0.0722
  793MOL0     C 9319  -1.317  10.325  11.694  0.2651 -0.1224  0.5257
  793MOL0     O 9320  -1.179  10.278  11.709  0.0721  0.4257  0.4414
  793MOL0     C 9321  -1.134  10.215  11.594  0.2107  0.1463 -0.0649
  793MOL0     C 9322  -1.050  10.292  11.507 -0.1728  1.1198 -0.2278
  793MOL0     C 9323  -0.985  10.232  11.397  0.6247 -0.0213 -0.7393
  793MOL0     C 9324  -0.885  10.316  11.330  0.1678 -0.6841 -0.0883
  793MOL0     C 9325  -1.002  10.092  11.369  0.7185  0.6394  0.5580
  793MOL0     C 9326  -0.916  10.012  11.287 -0.1196  1.0136  0.3686
  793MOL0     O 9327  -0.963   9.884  11.261 -0.0098 -0.5355  0.3288
  793MOL0     C 9328  -0.901   9.794  11.175 -0.4822  0.0306  0.3426
  793MOL0     C 9329  -0.771   9.793  11.127  0.0961  0.1484  0.4247
  793MOL0     C 9330  -0.724   9.693  11.036 -0.2472  0.2409 -0.4511
  793MOL0     C 9331  -0.810   9.604  10.983  0.8812  1.4647 -0.2929
  793MOL0     O 9332  -0.755   9.516  10.884  0.3203 -0.2713 -0.5643
  793MOL0     C 9333  -0.845   9.428  10.808 -0.3864  0.2496 -0.3429
  793MOL0     C 9334  -0.812   9.442  10.657  0.0950 -0.8560  0.4327
  793MOL0     C 9335  -0.704   9.346  10.609 -0.1113 -0.5660 -0.2363
  793MOL0     C 9336  -0.687   9.340  10.460 -0.8265 -0.1844  0.3712
  793MOL0     C 9337  -0.575   9.236  10.415  0.3323  0.5810  0.1202
  793MOL0     C 9338  -0.436   9.268  10.474 -0.4760 -0.3516 -0.9734
  793MOL0     C 9339  -0.334   9.186  10.410 -1.5069  0.3428 -0.3544
  793MOL0     C 9340  -0.213   9.180  10.508 -0.4245 -0.2546  0.6693
  793MOL0    Cl 9341  -0.129   9.026  10.459  0.3357  0.0720 -0.3261
  793MOL0     C 9342  -0.940   9.596  11.040 -0.3374  0.2811  0.0606
  793MOL0     C 9343  -0.978   9.683  11.142 -0.6788 -0.2553  0.2750
  793MOL0     O 9344  -0.801  10.046  11.258 -0.2088  0.1435  0.0374
  793MOL0     C 9345  -1.086  10.024  11.457  0.1456  0.8876 -0.4563
  793MOL0     C 9346  -1.156  10.078  11.562  0.7309 -0.0226  0.3197
  793MOL0     N 9347  -1.125  10.670  11.376  0.9332 -0.5156 -0.2264
  793MOL0     N 9348  -1.014  10.700  11.339 -0.6541  0.6603  0.1354
  793MOL0     C 9349   0.095  10.327  11.209  0.1647 -0.4861  0.3781
  793MOL0     C 9350   0.225  10.334  11.267 -1.0200 -1.1566 -0.0696
  793MOL0     C 9351   0.566  10.531  11.532 -0.7509  0.0767 -0.2216
  793MOL0     C 9352   0.593  10.628  11.631 -0.6812  0.3872  0.0207
  793MOL0     C 9353   0.702  10.624  11.719  0.6078  0.0792  0.0382
  793MOL0     C 9354   0.804  10.526  11.690  0.3483  0.0112 -0.0998
  793MOL0     O 9355   0.919  10.526  11.766 -0.5442 -0.4709  0.6443
  793MOL0     C 9356   1.020  10.422  11.743 -0.4331 -0.8197 -0.8959
  793MOL0     C 9357   1.141  10.426  11.844 -0.2651  0.1947  0.1761
  793MOL0     C 9358   1.104  10.447  11.990  0.1781 -0.1135 -0.7995
  793MOL0     C 9359   1.235  10.473  12.067 -0.0243  0.5953  0.4825
  793MOL0     C 9360   1.213  10.444  12.209 -0.5610 -0.5356 -0.1074
  793MOL0     C 9361   1.193  10.415  12.320  0.8428  0.1576  0.5686
  793MOL0     C 9362   0.794  10.442  11.576  0.2089  0.8326  0.8337
  793MOL0     C 9363   0.673  10.439  11.501  0.2330  0.6340  0.1515
  793MOL0     C 9364   0.663  10.340  11.401  0.4280 -0.6718 -0.5085
  793MOL0     H 9365   0.285  10.673  11.218 -1.4809  1.0378  1.3202
  793MOL0     H 9366   0.061  10.647  11.103 -0.3859  0.0421  0.2789
  793MOL0     H 9367  -0.184  10.279  11.215 -2.0294 -0.9602  0.3013
  793MOL0     H 9368  -0.282  10.361  11.098  2.9015  0.5558 -2.4571
  793MOL0     H 9369  -0.350  10.460  11.312 -1.6259  1.1978 -3.7795
  793MOL0     H 9370  -0.180  10.461  11.365  2.1984  4.3506 -0.5670
  793MOL0     H 9371  -0.134  10.668  11.257 -0.5345 -0.8125  0.4127
  793MOL0     H 9372  -0.250  10.638  11.126 -0.5371  0.0115 -0.2586
  793MOL0     H 9373  -0.322  10.697  11.411  4.2248  0.5734 -0.8348
  793MOL0     H 9374  -0.317  10.830  11.295 -2.0181  0.6751  0.6929
  793MOL0     H 9375  -0.508  10.603  11.269  1.1197  0.3544 -0.8918
  793MOL0     H 9376  -0.503  10.751  11.164 -3.3501 -0.1634  0.9936
  793MOL0     H 9377  -0.530  10.795  11.462  0.2708  2.5100 -0.4937
  793MOL0     H 9378  -0.580  10.897  11.336  0.6348  0.0901  2.1211
  793MOL0     H 9379  -0.690  10.625  11.421 -2.8420 -0.2227  0.9648
  793MOL0     H 9380  -0.754  10.687  11.271  0.3965 -3.0950  0.8997
  793MOL0     H 9381  -0.783  10.835  11.534 -2.0822  1.4402 -0.3685
  793MOL0     H 9382  -0.829  10.891  11.378 -1.7343  1.6640  3.5185
  793MOL0     H 9383  -1.009  10.756  11.660 -1.7068  0.6441 -0.3458
  793MOL0     H 9384  -1.352  10.695  11.520 -1.1658  0.0427  1.5639
  793MOL0     H 9385  -1.294  10.799  11.644 -3.4057  1.2355 -2.6751
  793MOL0     H 9386  -1.189  10.561  11.754 -1.3589  1.8373  1.7683
  793MOL0     H 9387  -1.351  10.597  11.777 -1.3996 -2.0686 -1.5222
  793MOL0     H 9388  -1.433  10.473  11.609 -0.0948 -0.1342  1.2441
  793MOL0     H 9389  -1.271  10.438  11.526 -0.4034 -0.7067 -0.2452
  793MOL0     H 9390  -1.351  10.346  11.795  1.4719 -0.1041  0.9413
  793MOL0     H 9391  -1.381  10.246  11.653 -0.2853  0.7268 -0.2962
  793MOL0     H 9392  -1.042  10.395  11.540  0.5032  0.8338  0.5143
  793MOL0     H 9393  -0.867  10.285  11.227  1.9733  1.3941 -0.4533
  793MOL0     H 9394  -0.787  10.319  11.377  0.8262  2.0715 -1.4384
  793MOL0     H 9395  -0.912  10.421  11.321 -0.4870 -0.9200 -1.0833
  793MOL0     H 9396  -0.690   9.859  11.156  0.4977 -0.3243  0.3914
  793MOL0     H 9397  -0.628   9.696  10.986  0.3076 -4.4299 -0.1945
  793MOL0     H 9398  -0.820   9.324  10.831  1.2478  0.5737 -0.5611
  793MOL0     H 9399  -0.952   9.438  10.826 -0.3724  3.7976 -1.4520
  793MOL0     H 9400  -0.902   9.420  10.599 -0.4770 -1.8610  1.6564
  793MOL0     H 9401  -0.785   9.546  10.636 -0.1503 -0.7751  0.5221
  793MOL0     H 9402  -0.706   9.245  10.652  0.7795  0.1527  1.5981
  793MOL0     H 9403  -0.612   9.382  10.655  0.4044 -1.6420 -0.3960
  793MOL0     H 9404  -0.654   9.440  10.431  2.3009 -1.2476 -0.0936
  793MOL0     H 9405  -0.782   9.313  10.413 -0.8231 -0.1167  0.3280
  793MOL0     H 9406  -0.609   9.137  10.447 -0.2091  0.5439 -0.5572
  793MOL0     H 9407  -0.570   9.240  10.306  0.7505  0.1236  0.1190
  793MOL0     H 9408  -0.443   9.248  10.581  0.6319 -2.2986 -1.2048
  793MOL0     H 9409  -0.399   9.371  10.473 -1.5893  0.0778  0.2771
  793MOL0     H 9410  -0.294   9.237  10.321  1.3611  0.5496  0.9242
  793MOL0     H 9411  -0.354   9.082  10.383  1.0365 -0.1375 -0.6238
  793MOL0     H 9412  -0.244   9.189  10.613  0.5660 -1.6779  1.1087
  793MOL0     H 9413  -0.144   9.263  10.488  0.7486 -1.0792  1.1900
  793MOL0     H 9414  -1.013   9.523  11.005 -3.6225  2.7848  1.1372
  793MOL0     H 9415  -1.072   9.674  11.197  0.8796 -1.5651  2.9379
  793MOL0     H 9416  -1.108   9.918  11.446 -1.0796  1.1145 -0.3127
  793MOL0     H 9417  -1.222  10.028  11.633 -1.0084  3.1936  1.1834
  793MOL0     H 9418   0.037  10.237  11.198  1.6139 -1.2759 -1.4574
  793MOL0     H 9419   0.277  10.246  11.305  1.4235 -0.2228 -1.0449
  793MOL0     H 9420   0.517  10.701  11.656 -0.3688  1.3793 -1.7579
  793MOL0     H 9421   0.720  10.689  11.804 -3.0405 -0.4278  1.3658
  793MOL0     H 9422   0.976  10.322  11.752  0.5137 -1.1319  0.7700
  793MOL0     H 9423   1.057  10.424  11.640 -0.4191 -2.4643 -0.9554
  793MOL0     H 9424   1.211  10.503  11.810 -0.6140  0.8950  0.9986
  793MOL0     H 9425   1.177  10.323  11.844  1.7563  0.8309  2.2874
  793MOL0     H 9426   1.050  10.540  12.009 -0.0734 -0.0663 -1.6659
  793MOL0     H 9427   1.051  10.359  12.027 -1.7542  1.8979  1.6085
  793MOL0     H 9428   1.278  10.572  12.053  0.4273  0.1248 -1.9603
  793MOL0     H 9429   1.310  10.402  12.032  0.5592  2.3788 -2.2348
  793MOL0     H 9430   1.177  10.405  12.425  2.2228 -1.6265  0.6635
  793MOL0     H 9431   0.863  10.367  11.537 -1.4890 -1.4289  1.9610
  793MOL0     H 9432   0.676  10.381  11.300  3.5061 -2.4455 -0.9785
  793MOL0     H 9433   0.733  10.256  11.416 -0.4188 -1.0080  1.9454
  793MOL0     H 9434   0.558  10.311  11.395 -0.0665  0.9996 -0.1357
  794MOL0     O 9435   8.764   8.915   5.460  0.3167 -0.0311  0.0204
  794MOL0     C 9436   8.832   8.966   5.363 -0.7244 -0.0836  0.0403
  794MOL0     O 9437   8.964   9.011   5.380  0.2144  0.6553  0.0844
  794MOL0     C 9438   8.981   9.045   5.510  0.3778 -1.0177 -0.6851
  794MOL0     C 9439   9.094   8.995   5.571  0.6825  0.2169 -0.2177
  794MOL0     C 9440   9.127   9.034   5.696 -0.5399 -0.9068  0.1564
  794MOL0     C 9441   9.052   9.124   5.767  0.5364 -0.2622 -0.0748
  794MOL0     O 9442   9.095   9.149   5.893  0.1005  0.2516 -0.5247
  794MOL0     C 9443   8.989   9.157   5.994 -0.4988 -0.6382  0.4546
  794MOL0     C 9444   9.034   9.134   6.131 -0.5929  0.3104 -0.4621
  794MOL0     C 9445   9.054   9.263   6.208  0.4240 -0.2233 -0.0154
  794MOL0     C 9446   8.922   9.336   6.246  0.1474  0.6766  0.9381
  794MOL0     C 9447   8.929   9.377   6.399 -0.2505 -0.0142  0.1056
  794MOL0     C 9448   8.810   9.465   6.444 -0.3179  1.2739  0.4772
  794MOL0     C 9449   8.683   9.379   6.464  0.0328 -0.7849 -0.0113
  794MOL0     C 9450   8.687   9.287   6.583  0.2997  0.8081  0.0491
  794MOL0     N 9451   8.572   9.195   6.596 -0.9835 -0.2384 -0.0305
  794MOL0     C 9452   8.445   9.235   6.629 -0.0155 -0.2878 -0.5490
  794MOL0     C 9453   8.376   9.117   6.621 -0.6159  0.8296 -0.4716
  794MOL0     C 9454   8.230   9.086   6.671 -0.1746 -0.4863  0.2823
  794MOL0     C 9455   8.133   9.112   6.556 -0.3922 -0.0897  0.0118
  794MOL0     C 9456   7.988   9.117   6.600 -0.0219 -0.1414 -0.1432
  794MOL0     C 9457   7.882   9.137   6.488 -0.1360  0.1078  0.0579
  794MOL0     O 9458   7.918   9.230   6.387  0.3769  0.2133 -0.2630
  794MOL0     C 9459   7.893   9.358   6.433  0.5071  0.4982  0.9059
  794MOL0     C 9460   7.967   9.469   6.394 -0.1498  0.2069  0.0832
  794MOL0     C 9461   7.926   9.601   6.409 -0.0103  0.5310 -0.2438
  794MOL0     C 9462   8.013   9.712   6.373 -0.0479  0.1827  0.6427
  794MOL0     C 9463   7.800   9.629   6.466 -0.3478  0.9925  0.2705
  794MOL0     C 9464   7.749   9.758   6.493  0.3997 -0.2455 -0.7699
  794MOL0     O 9465   7.695   9.780   6.617  0.3523 -0.2587  0.1014
  794MOL0     C 9466   7.662   9.911   6.645  0.9139  0.3515  1.1616
  794MOL0     C 9467   7.530   9.950   6.659 -0.0648 -1.0552 -0.4811
  794MOL0     C 9468   7.499  10.087   6.696 -0.1111  0.3526 -0.2440
  794MOL0     C 9469   7.604  10.175   6.735  1.7598 -0.2111  0.2644
  794MOL0     O 9470   7.575  10.299   6.778 -0.6888 -0.7136 -0.3807
  794MOL0     C 9471   7.490  10.393   6.709  0.1760 -0.1875 -0.1818
  794MOL0     C 9472   7.541  10.450   6.580  0.0336  1.1378 -0.1411
  794MOL0     C 9473   7.533  10.601   6.591  0.8497 -0.6669  0.2699
  794MOL0     C 9474   7.567  10.660   6.452  0.5359 -0.3717  0.3892
  794MOL0     C 9475   7.603  10.811   6.454 -0.0573  0.0761 -0.5498
  794MOL0     C 9476   7.495  10.907   6.517  0.2249 -0.2032 -0.3531
  794MOL0     C 9477   7.371  10.921   6.425  0.8273 -0.5883  0.0826
  794MOL0     C 9478   7.407  10.987   6.282  0.2377  0.3324 -0.3942
  794MOL0    Cl 9479   7.252  11.037   6.187 -0.3553  0.0334 -0.0802
  794MOL0     C 9480   7.731  10.132   6.728  0.2963 -0.4354 -1.0958
  794MOL0     C 9481   7.758  10.002   6.684 -0.4574  0.1251  0.3688
  794MOL0     O 9482   7.754   9.835   6.396 -0.2014 -0.3575  0.3258
  794MOL0     C 9483   7.726   9.526   6.516 -0.3709  0.6448  0.0526
  794MOL0     C 9484   7.765   9.395   6.493 -0.3598 -0.3569  0.1041
  794MOL0     N 9485   8.464   9.012   6.592  0.2141 -0.1066 -0.1071
  794MOL0     N 9486   8.579   9.063   6.579  0.0480 -0.1165  0.0730
  794MOL0     C 9487   8.944   9.188   5.705 -0.2222 -0.1247 -0.3445
  794MOL0     C 9488   8.901   9.145   5.576  0.3003 -0.5235  0.3093
  794MOL0     C 9489   8.771   8.979   5.221  0.6091 -0.1944 -0.6243
  794MOL0     C 9490   8.844   9.048   5.117  0.1938  0.1161  0.5195
  794MOL0     C 9491   8.795   9.064   4.990  0.6892  0.7784  0.6735
  794MOL0     C 9492   8.671   9.001   4.961  0.1494  0.8241 -0.1083
  794MOL0     O 9493   8.622   9.010   4.832 -0.1762  0.4839  1.2442
  794MOL0     C 9494   8.497   8.960   4.786 -0.7275 -0.8379 -0.7932
  794MOL0     C 9495   8.463   8.997   4.643  0.1630 -0.0259  0.2231
  794MOL0     C 9496   8.393   9.127   4.627  0.0602  0.4073  0.6772
  794MOL0     C 9497   8.474   9.255   4.654  0.6598  0.2610  0.1927
  794MOL0     C 9498   8.567   9.289   4.555 -0.5259  0.4274 -0.2589
  794MOL0     C 9499   8.641   9.331   4.468  0.4845  0.3300  1.3824
  794MOL0     C 9500   8.612   8.921   5.063  0.4168  0.4325 -0.4268
  794MOL0     C 9501   8.653   8.908   5.193 -0.1947  0.0064 -0.9015
  794MOL0     C 9502   8.560   8.850   5.297 -0.4847 -0.0647  0.0876
  794MOL0     H 9503   9.161   8.925   5.521  0.2713  0.8395 -1.7165
  794MOL0     H 9504   9.210   8.985   5.747  0.2955  0.8188  0.5368
  794MOL0     H 9505   8.909   9.084   5.978 -3.0827  2.1652 -0.2148
  794MOL0     H 9506   8.935   9.251   5.982 -0.4682 -0.8894 -2.0712
  794MOL0     H 9507   8.956   9.075   6.179 -2.1886  1.5847 -1.3965
  794MOL0     H 9508   9.131   9.082   6.128 -0.5574  0.2837 -4.4362
  794MOL0     H 9509   9.099   9.240   6.305 -1.0804 -1.1805  0.4899
  794MOL0     H 9510   9.118   9.328   6.147  0.5536  1.0531  1.4047
  794MOL0     H 9511   8.931   9.432   6.195  1.3546 -0.5221 -1.2461
  794MOL0     H 9512   8.830   9.283   6.218  1.4913 -1.8689  1.0232
  794MOL0     H 9513   9.027   9.424   6.407 -0.0163 -0.7263  1.8727
  794MOL0     H 9514   8.944   9.294   6.468 -0.3355  1.1392  1.5507
  794MOL0     H 9515   8.845   9.508   6.539  3.8187 -0.4698 -0.0155
  794MOL0     H 9516   8.797   9.554   6.382 -0.6581  2.8126  2.6170
  794MOL0     H 9517   8.655   9.327   6.372 -1.3975 -1.9738  1.0381
  794MOL0     H 9518   8.612   9.459   6.487  2.6902  1.0675  2.4112
  794MOL0     H 9519   8.779   9.229   6.570  0.8170  1.9701 -1.7471
  794MOL0     H 9520   8.704   9.346   6.674  2.6459  1.7298 -0.9101
  794MOL0     H 9521   8.409   9.337   6.631 -1.9923 -0.8368 -2.9233
  794MOL0     H 9522   8.209   9.162   6.747  2.7037  0.1042  0.6167
  794MOL0     H 9523   8.234   8.989   6.720  1.5718 -0.2790  0.6270
  794MOL0     H 9524   8.157   9.210   6.514 -3.5116  0.7141 -0.1916
  794MOL0     H 9525   8.150   9.038   6.477 -0.6210  1.2111 -1.3246
  794MOL0     H 9526   7.959   9.025   6.651 -0.1191  0.5913  1.1932
  794MOL0     H 9527   7.981   9.204   6.667  0.6966  1.4394 -2.0172
  794MOL0     H 9528   7.887   9.043   6.432  2.7930  0.3301 -0.2099
  794MOL0     H 9529   7.783   9.150   6.532  0.4503 -2.5194  2.4313
  794MOL0     H 9530   8.063   9.444   6.351  0.6428  2.9797  0.0647
  794MOL0     H 9531   7.986   9.761   6.279 -2.9587 -1.1649  0.6782
  794MOL0     H 9532   8.118   9.682   6.370  0.0615  0.5967 -1.8544
  794MOL0     H 9533   8.014   9.787   6.453 -0.1780  1.9501 -0.9323
  794MOL0     H 9534   7.451   9.880   6.636 -1.9853 -0.0158  2.4324
  794MOL0     H 9535   7.394  10.111   6.714 -0.4126  0.7790 -2.3598
  794MOL0     H 9536   7.395  10.346   6.683  1.0519 -1.9527 -0.3725
  794MOL0     H 9537   7.471  10.477   6.776 -1.3244 -1.4308  1.0104
  794MOL0     H 9538   7.642  10.414   6.560 -1.6806 -4.5688 -0.1612
  794MOL0     H 9539   7.478  10.416   6.497 -0.7043 -2.5502  1.7313
  794MOL0     H 9540   7.602  10.649   6.661  1.1861  0.5956 -0.8824
  794MOL0     H 9541   7.427  10.624   6.600  0.6692 -0.5378 -1.7354
  794MOL0     H 9542   7.486  10.649   6.380  1.6327  1.8189 -1.3205
  794MOL0     H 9543   7.659  10.608   6.425 -0.6816 -1.7114 -1.3868
  794MOL0     H 9544   7.688  10.813   6.523 -1.0805  2.4550  0.7606
  794MOL0     H 9545   7.629  10.850   6.355 -0.7958  0.0678 -0.7501
  794MOL0     H 9546   7.533  11.001   6.559  0.8802  0.3234 -2.0298
  794MOL0     H 9547   7.468  10.851   6.607  2.8152 -2.6354 -0.9538
  794MOL0     H 9548   7.300  10.992   6.469  2.6453 -0.4370  3.0250
  794MOL0     H 9549   7.322  10.826   6.399 -1.0268  0.4868 -0.5153
  794MOL0     H 9550   7.462  10.923   6.212 -0.4232 -1.3723  0.6065
  794MOL0     H 9551   7.452  11.084   6.305 -2.9192  1.7835  0.1265
  794MOL0     H 9552   7.805  10.205   6.758  0.2242 -0.8994  0.3024
  794MOL0     H 9553   7.861   9.976   6.662 -0.4818  0.0006  0.4019
  794MOL0     H 9554   7.627   9.548   6.557 -1.7551 -2.4879 -1.3193
  794MOL0     H 9555   7.681   9.330   6.515  0.4639 -1.4630  0.0451
  794MOL0     H 9556   8.883   9.267   5.746 -0.0157  1.1374 -2.3260
  794MOL0     H 9557   8.822   9.202   5.529  1.5537  0.0868 -1.1700
  794MOL0     H 9558   8.938   9.096   5.140  0.1164  1.6728 -2.0527
  794MOL0     H 9559   8.839   9.128   4.914 -2.5417  2.5520  0.1585
  794MOL0     H 9560   8.500   8.850   4.793  0.8568 -0.7895 -0.2361
  794MOL0     H 9561   8.420   9.004   4.849 -0.3889 -2.9601  1.2500
  794MOL0     H 9562   8.423   8.907   4.596  3.2979 -2.5606  1.9992
  794MOL0     H 9563   8.553   9.018   4.584 -1.2132  2.5128 -1.1542
  794MOL0     H 9564   8.359   9.137   4.523  3.9519 -0.2350 -0.8202
  794MOL0     H 9565   8.308   9.131   4.696  1.3065  0.9044  2.2425
  794MOL0     H 9566   8.531   9.246   4.748  1.3756 -1.6682 -0.3806
  794MOL0     H 9567   8.413   9.343   4.672  1.6126  0.7950  0.9344
  794MOL0     H 9568   8.689   9.358   4.376 -1.8928  1.6677  0.4509
  794MOL0     H 9569   8.514   8.877   5.048  0.7708  0.0318 -1.5917
  794MOL0     H 9570   8.601   8.763   5.348 -3.5525 -2.2943 -0.9293
  794MOL0     H 9571   8.514   8.935   5.350  1.1459  0.2531  1.0614
  794MOL0     H 9572   8.487   8.805   5.230  1.7568 -0.4132 -2.2447
  795MOL0     O 9573   1.720   1.730  10.734  0.0782  0.3626  0.2046
  795MOL0     C 9574   1.817   1.806  10.716 -0.8241  0.1758 -0.0542
  795MOL0     O 9575   1.817   1.938  10.748  0.3405 -0.3318 -0.6962
  795MOL0     C 9576   1.762   1.989  10.861 -0.4784 -0.2344 -0.4308
  795MOL0     C 9577   1.704   1.908  10.963 -0.1798  0.2346 -0.7267
  795MOL0     C 9578   1.663   1.976  11.085 -0.2042 -0.7614 -0.4269
  795MOL0     C 9579   1.681   2.112  11.099 -0.0873 -0.3308  0.3936
  795MOL0     O 9580   1.636   2.158  11.219  0.6401  0.1075  0.1614
  795MOL0     C 9581   1.724   2.238  11.291  0.3886  0.0126  0.7427
  795MOL0     C 9582   1.711   2.207  11.434  0.0160  0.8198 -1.0095
  795MOL0     C 9583   1.750   2.055  11.453  0.7028  0.1894 -0.2176
  795MOL0     C 9584   1.718   2.015  11.600 -1.1551  0.5691 -0.6117
  795MOL0     C 9585   1.652   1.882  11.617 -0.5027  0.4278 -0.5479
  795MOL0     C 9586   1.635   1.835  11.758  0.6263 -0.3246  0.0910
  795MOL0     C 9587   1.522   1.906  11.827 -0.3861 -0.4099 -0.1979
  795MOL0     C 9588   1.383   1.848  11.810 -0.4223 -0.1318  1.3256
  795MOL0     N 9589   1.289   1.939  11.876 -0.5016 -0.0808  0.2622
  795MOL0     C 9590   1.244   1.944  12.008 -0.2006 -0.4580 -0.7222
  795MOL0     C 9591   1.161   2.051  12.001 -0.4165  0.4326  0.5782
  795MOL0     C 9592   1.085   2.090  12.117 -1.1647  0.0810 -0.4332
  795MOL0     C 9593   0.989   1.985  12.186  0.1021  0.0017  0.0548
  795MOL0     C 9594   0.886   2.043  12.276  0.2216  0.3015 -0.5240
  795MOL0     C 9595   0.774   1.943  12.327 -0.3875  0.2390 -0.3203
  795MOL0     O 9596   0.697   1.902  12.214  0.0002 -0.3929  0.9206
  795MOL0     C 9597   0.598   1.805  12.240 -0.1726  0.2845  0.0445
  795MOL0     C 9598   0.516   1.776  12.135 -0.6257  0.7610  0.1910
  795MOL0     C 9599   0.408   1.691  12.153 -0.3397  0.4063  0.8477
  795MOL0     C 9600   0.322   1.675  12.037  0.4096  0.5249 -0.3574
  795MOL0     C 9601   0.389   1.621  12.272 -1.2132 -0.5307 -0.3241
  795MOL0     C 9602   0.264   1.540  12.311  0.1272  0.0604  0.0278
  795MOL0     O 9603   0.281   1.452  12.404  0.1263  0.3522  0.7427
  795MOL0     C 9604   0.171   1.421  12.488 -1.1745  0.9061 -0.3669
  795MOL0     C 9605   0.156   1.489  12.603 -0.0503  1.0346 -0.4224
  795MOL0     C 9606   0.052   1.461  12.697 -0.4814  0.5490  0.0886
  795MOL0     C 9607  -0.021   1.344  12.676  0.2644  0.4532 -0.2133
  795MOL0     O 9608  -0.124   1.312  12.757  0.0459  0.7878 -0.3127
  795MOL0     C 9609  -0.174   1.175  12.780  0.3235 -0.3435 -0.0904
  795MOL0     C 9610  -0.237   1.175  12.921 -0.6887  0.8433  0.1015
  795MOL0     C 9611  -0.320   1.041  12.950 -0.5103  0.4415 -0.0587
  795MOL0     C 9612  -0.346   1.035  13.106 -0.0423 -0.8263 -0.0298
  795MOL0     C 9613  -0.424   0.904  13.127  1.2435 -0.2519  0.2934
  795MOL0     C 9614  -0.486   0.876  13.273 -0.3671  0.4268 -0.4373
  795MOL0     C 9615  -0.365   0.876  13.365 -0.0600  0.0679  0.1497
  795MOL0     C 9616  -0.408   0.823  13.511 -0.2612  0.9091  0.4997
  795MOL0    Cl 9617  -0.554   0.908  13.561  0.0305 -0.2564  0.2568
  795MOL0     C 9618  -0.011   1.272  12.555  0.5166  0.4787 -0.3282
  795MOL0     C 9619   0.088   1.313  12.458  0.6106 -0.3486 -0.4327
  795MOL0     O 9620   0.163   1.557  12.241  0.1391 -0.5858  0.3499
  795MOL0     C 9621   0.487   1.644  12.366  0.4698 -0.2731 -0.8701
  795MOL0     C 9622   0.589   1.736  12.357 -0.4254  0.2088  0.5424
  795MOL0     N 9623   1.150   2.095  11.869 -0.3946  0.0718  0.0238
  795MOL0     N 9624   1.227   2.019  11.796 -0.5123  0.2670 -0.1332
  795MOL0     C 9625   1.728   2.195  10.992 -0.4914  0.0494 -0.2186
  795MOL0     C 9626   1.770   2.129  10.877 -0.2206 -0.7520 -0.3647
  795MOL0     C 9627   1.937   1.764  10.633 -0.0348  0.4537  0.0812
  795MOL0     C 9628   2.061   1.801  10.685  0.6276 -0.3987  0.7115
  795MOL0     C 9629   2.182   1.772  10.619 -0.1324  0.3595  0.0873
  795MOL0     C 9630   2.184   1.707  10.498 -0.6259 -0.3486  0.4745
  795MOL0     O 9631   2.313   1.682  10.440  0.2910  0.6051  0.1845
  795MOL0     C 9632   2.324   1.676  10.300  0.2525  0.8912 -0.6099
  795MOL0     C 9633   2.468   1.651  10.266 -0.5848 -0.6988 -0.3482
  795MOL0     C 9634   2.493   1.667  10.117  0.1117 -0.7353  0.4875
  795MOL0     C 9635   2.526   1.813  10.080 -0.0430  1.5707 -0.3799
  795MOL0     C 9636   2.640   1.872  10.147  0.3270  0.1478  0.0143
  795MOL0     C 9637   2.723   1.925  10.214  0.5756  0.4312 -0.1852
  795MOL0     C 9638   2.060   1.678  10.436  0.6226  0.5892 -0.7068
  795MOL0     C 9639   1.938   1.700  10.506 -0.3736  0.3708 -0.0216
  795MOL0     C 9640   1.804   1.656  10.446 -0.7931  0.2321 -0.1847
  795MOL0     H 9641   1.689   1.801  10.960  4.9871 -0.6819 -3.1586
  795MOL0     H 9642   1.617   1.933  11.173  1.0761  0.0951  0.6922
  795MOL0     H 9643   1.680   2.335  11.268 -0.3681 -0.1081  1.5945
  795MOL0     H 9644   1.824   2.240  11.247 -0.7007  2.4959 -1.9265
  795MOL0     H 9645   1.748   2.283  11.503 -2.6196  0.0768  1.3897
  795MOL0     H 9646   1.605   2.211  11.458  0.5994  2.1053  1.7234
  795MOL0     H 9647   1.702   1.997  11.373 -1.1258 -0.8028  1.5136
  795MOL0     H 9648   1.859   2.049  11.449  0.8616  0.7015  1.9198
  795MOL0     H 9649   1.813   2.018  11.654 -0.1140  0.4889 -2.3627
  795MOL0     H 9650   1.669   2.095  11.657 -0.4022  0.6433 -0.0506
  795MOL0     H 9651   1.723   1.809  11.577 -0.9049  0.0879 -0.6521
  795MOL0     H 9652   1.553   1.881  11.569 -1.2527  0.3101  0.9336
  795MOL0     H 9653   1.636   1.726  11.757  0.9193 -0.3318  0.6806
  795MOL0     H 9654   1.727   1.869  11.807 -0.1365  1.2300  0.4950
  795MOL0     H 9655   1.527   2.013  11.808 -2.1908 -0.7932 -3.6153
  795MOL0     H 9656   1.548   1.885  11.931  0.6965 -1.5299 -0.6539
  795MOL0     H 9657   1.359   1.820  11.707  1.7774 -2.0373  1.2570
  795MOL0     H 9658   1.382   1.750  11.859  0.9382 -1.0153 -0.3336
  795MOL0     H 9659   1.269   1.871  12.084  1.4469 -0.2992 -1.0760
  795MOL0     H 9660   1.028   2.173  12.074  1.1776  1.6058 -0.7921
  795MOL0     H 9661   1.151   2.136  12.192  0.8216 -2.4447 -0.4968
  795MOL0     H 9662   0.928   1.932  12.112 -1.2238 -0.9088  1.7491
  795MOL0     H 9663   1.060   1.915  12.231  2.0458  0.4005 -2.1794
  795MOL0     H 9664   0.944   2.075  12.363 -0.3937 -0.1657  0.0721
  795MOL0     H 9665   0.836   2.134  12.242 -3.0279  0.1449  3.1002
  795MOL0     H 9666   0.831   1.860  12.369  2.5302  0.9227 -2.5877
  795MOL0     H 9667   0.708   1.990  12.401 -0.5719  1.2978 -1.1313
  795MOL0     H 9668   0.527   1.831  12.042  0.1086  0.2460 -0.0352
  795MOL0     H 9669   0.382   1.676  11.945  0.5942 -2.9842 -0.3808
  795MOL0     H 9670   0.260   1.766  12.033 -0.6887 -0.2048 -0.3108
  795MOL0     H 9671   0.256   1.588  12.036 -0.9361  1.4169  2.4836
  795MOL0     H 9672   0.221   1.571  12.629 -1.7561  1.4481  3.1023
  795MOL0     H 9673   0.045   1.524  12.785 -0.2488  3.6353 -1.9566
  795MOL0     H 9674  -0.252   1.152  12.706 -0.5498  0.9392  0.4002
  795MOL0     H 9675  -0.092   1.104  12.771  2.2651  1.2482  3.3923
  795MOL0     H 9676  -0.162   1.188  13.000 -0.9142  0.9254  0.3002
  795MOL0     H 9677  -0.307   1.259  12.923 -1.8422 -0.0452  3.1076
  795MOL0     H 9678  -0.257   0.957  12.920  0.9924  0.7537  2.0035
  795MOL0     H 9679  -0.412   1.046  12.890 -0.3564 -0.0479 -0.3374
  795MOL0     H 9680  -0.399   1.125  13.137  1.7705  0.0230  0.7576
  795MOL0     H 9681  -0.249   1.030  13.158 -0.4708 -1.0591  0.7597
  795MOL0     H 9682  -0.508   0.904  13.057  1.8126  1.7935 -0.4618
  795MOL0     H 9683  -0.369   0.812  13.103  0.0209 -0.4636 -1.9969
  795MOL0     H 9684  -0.545   0.784  13.277 -0.9669  0.8546  1.5495
  795MOL0     H 9685  -0.552   0.960  13.296  0.6987  0.6314  2.3122
  795MOL0     H 9686  -0.344   0.982  13.381 -1.8935  0.2117  1.9380
  795MOL0     H 9687  -0.280   0.817  13.331  1.6208  0.8180  2.6982
  795MOL0     H 9688  -0.324   0.829  13.581  0.0718  1.2090  0.0856
  795MOL0     H 9689  -0.435   0.717  13.503 -2.2405  1.4336 -0.2480
  795MOL0     H 9690  -0.083   1.193  12.535  1.1465 -0.9636  2.5885
  795MOL0     H 9691   0.103   1.268  12.360  1.2425  0.1090 -0.5537
  795MOL0     H 9692   0.476   1.586  12.457 -2.8127  3.5911  1.5041
  795MOL0     H 9693   0.639   1.760  12.450  0.0418  2.0324 -0.1222
  795MOL0     H 9694   1.745   2.302  11.004 -1.7499  0.2471 -0.0935
  795MOL0     H 9695   1.799   2.186  10.790 -0.3397  2.4505  1.5126
  795MOL0     H 9696   2.071   1.851  10.781 -1.4610  0.0256  0.7431
  795MOL0     H 9697   2.275   1.803  10.665 -0.3642  0.9989  0.1352
  795MOL0     H 9698   2.262   1.590  10.274 -0.2601  0.4678  1.7596
  795MOL0     H 9699   2.293   1.772  10.256 -2.0080  0.7521  0.5177
  795MOL0     H 9700   2.491   1.547  10.292 -0.1630 -0.2868  0.9997
  795MOL0     H 9701   2.540   1.707  10.326  0.9102 -0.1361 -2.5338
  795MOL0     H 9702   2.564   1.592  10.083 -1.0174 -1.2784 -0.7366
  795MOL0     H 9703   2.407   1.633  10.060 -1.3750 -1.2100  2.8458
  795MOL0     H 9704   2.440   1.879  10.063  0.3824  1.5292 -3.3085
  795MOL0     H 9705   2.565   1.800   9.978  0.6966 -0.2323  0.1031
  795MOL0     H 9706   2.801   1.986  10.253 -0.3538  1.2918  0.3558
  795MOL0     H 9707   2.069   1.640  10.335  0.0305 -1.3914 -0.0569
  795MOL0     H 9708   1.827   1.578  10.373 -0.0163 -0.0290  0.3188
  795MOL0     H 9709   1.738   1.604  10.516  0.9005 -0.6030  0.8870
  795MOL0     H 9710   1.746   1.739  10.405 -0.6051 -0.1281 -1.2118
  796MOL0     O 9711   2.680  10.763   7.570  0.3239  0.2176  0.3307
  796MOL0     C 9712   2.686  10.727   7.687  0.8364  0.5237  0.4916
  796MOL0     O 9713   2.659  10.808   7.795 -0.1604 -0.3324 -0.4829
  796MOL0     C 9714   2.569  10.914   7.790  0.4185 -0.9884 -0.7459
  796MOL0     C 9715   2.590  11.017   7.885  0.3025  0.2926  0.3697
  796MOL0     C 9716   2.487  11.111   7.895  0.3578 -1.0129  0.6820
  796MOL0     C 9717   2.379  11.125   7.808  0.8543  1.1888  0.8570
  796MOL0     O 9718   2.285  11.226   7.831 -0.2197 -1.2754 -0.7071
  796MOL0     C 9719   2.153  11.205   7.781 -0.0848 -0.8463 -0.8710
  796MOL0     C 9720   2.060  11.206   7.907 -0.4058 -1.2162  0.0765
  796MOL0     C 9721   2.105  11.104   8.024 -0.4201  0.0844 -0.4841
  796MOL0     C 9722   1.978  11.044   8.096 -0.2597  0.1136  0.2750
  796MOL0     C 9723   1.989  11.022   8.245 -0.4279  0.7319 -0.4568
  796MOL0     C 9724   1.875  10.929   8.305 -0.1663 -1.0802  0.5187
  796MOL0     C 9725   1.871  10.943   8.462 -0.3900  0.0517 -0.7273
  796MOL0     C 9726   1.850  11.089   8.511  0.0347  0.7145 -0.1061
  796MOL0     N 9727   1.731  11.146   8.446  0.5817 -0.2535  0.5690
  796MOL0     C 9728   1.609  11.083   8.446 -0.2364 -0.5094  0.8965
  796MOL0     C 9729   1.537  11.155   8.344 -0.1001 -0.1049 -0.5966
  796MOL0     C 9730   1.407  11.122   8.289 -0.7486  0.7285 -0.8892
  796MOL0     C 9731   1.301  11.185   8.377  0.0300  0.1562 -0.4626
  796MOL0     C 9732   1.285  11.333   8.369  0.1739  0.1992  0.2963
  796MOL0     C 9733   1.358  11.412   8.473  0.9279  0.0952 -0.9421
  796MOL0     O 9734   1.358  11.551   8.434 -0.3610  0.1085  0.1470
  796MOL0     C 9735   1.436  11.632   8.508 -0.6864  0.1669  0.3440
  796MOL0     C 9736   1.580  11.626   8.502 -0.6072  0.9285 -0.4814
  796MOL0     C 9737   1.661  11.718   8.565 -0.0167  0.2309 -0.3370
  796MOL0     C 9738   1.813  11.704   8.561  0.6402 -0.0910 -0.3158
  796MOL0     C 9739   1.598  11.823   8.645 -0.6561 -1.1354 -0.2782
  796MOL0     C 9740   1.671  11.930   8.722  0.8765 -0.1766 -0.0733
  796MOL0     O 9741   1.782  11.905   8.798 -0.8836  0.1148  0.7430
  796MOL0     C 9742   1.847  12.015   8.865  0.1744 -0.0422 -0.0590
  796MOL0     C 9743   1.838  12.156   8.837  0.3915 -0.2379  0.3223
  796MOL0     C 9744   1.921  12.250   8.892 -0.6808  0.6380  0.1712
  796MOL0     C 9745   2.010  12.217   8.985  1.0010  0.4583 -0.1537
  796MOL0     O 9746   2.080  12.324   9.036 -0.4934 -0.5568  0.0437
  796MOL0     C 9747   2.190  12.317   9.133 -0.0703 -0.0789 -0.0889
  796MOL0     C 9748   2.129  12.337   9.267 -0.2679  0.2058  0.3806
  796MOL0     C 9749   2.068  12.479   9.282 -0.0859  0.4051  0.7077
  796MOL0     C 9750   2.020  12.506   9.425  0.4257 -0.5907  0.2052
  796MOL0     C 9751   1.944  12.643   9.428 -0.4339 -0.1763  0.2983
  796MOL0     C 9752   2.023  12.764   9.482  0.1686  0.4030  0.1911
  796MOL0     C 9753   1.941  12.889   9.474 -0.6376  0.3161  0.5078
  796MOL0     C 9754   1.999  13.011   9.561  0.2409 -0.0468  0.4188
  796MOL0    Cl 9755   1.990  12.979   9.737  0.1122 -0.0058 -0.2724
  796MOL0     C 9756   2.031  12.082   9.017 -0.0072 -0.2514  0.8160
  796MOL0     C 9757   1.957  11.984   8.952 -0.3024 -0.1496 -0.1681
  796MOL0     O 9758   1.620  12.042   8.713  0.5249  0.1170  0.3857
  796MOL0     C 9759   1.458  11.814   8.661  0.1139  0.1122  0.2352
  796MOL0     C 9760   1.380  11.723   8.585  0.6349 -0.7579 -0.7344
  796MOL0     N 9761   1.612  11.263   8.292 -0.4158  0.5380  0.4700
  796MOL0     N 9762   1.721  11.255   8.364 -0.4574  0.1601 -0.1993
  796MOL0     C 9763   2.363  11.028   7.706  0.2471  1.2706 -0.1853
  796MOL0     C 9764   2.459  10.922   7.711  1.0726 -0.4772  0.2039
  796MOL0     C 9765   2.721  10.587   7.722  0.2393  0.1640 -0.0695
  796MOL0     C 9766   2.647  10.524   7.831  0.5555 -0.1843 -0.7022
  796MOL0     C 9767   2.667  10.387   7.866 -0.6993 -0.9043  0.1694
  796MOL0     C 9768   2.760  10.312   7.787  0.0580  0.1917  0.1251
  796MOL0     O 9769   2.781  10.171   7.808  0.4605  0.2787  0.1974
  796MOL0     C 9770   2.674  10.090   7.857  0.6784  0.0122 -0.3362
  796MOL0     C 9771   2.709   9.950   7.888  0.3590  0.1051 -0.0055
  796MOL0     C 9772   2.792   9.869   7.775 -0.9362 -1.0274  0.6408
  796MOL0     C 9773   2.948   9.893   7.787  0.2353  0.1848  0.2289
  796MOL0     C 9774   3.007   9.867   7.913  0.3772  0.1760  0.7318
  796MOL0     C 9775   3.049   9.834   8.018  0.2938  0.0377 -0.3757
  796MOL0     C 9776   2.816  10.373   7.676 -0.7808  0.7445  0.6423
  796MOL0     C 9777   2.806  10.509   7.652  0.5662  0.1091  0.3391
  796MOL0     C 9778   2.892  10.560   7.537  0.1558  0.0386  0.2700
  796MOL0     H 9779   2.673  11.008   7.954  0.4476 -0.6693  0.0842
  796MOL0     H 9780   2.506  11.193   7.964 -1.0285  1.1772 -1.3418
  796MOL0     H 9781   2.123  11.111   7.734 -1.5422 -0.1708 -1.3424
  796MOL0     H 9782   2.127  11.284   7.710 -0.7242 -1.9798 -1.9359
  796MOL0     H 9783   2.057  11.307   7.951 -0.4795 -0.8732 -0.7052
  796MOL0     H 9784   1.956  11.186   7.883 -0.4271 -0.0175 -0.9709
  796MOL0     H 9785   2.171  11.025   7.986 -0.0458 -1.1912  2.4789
  796MOL0     H 9786   2.153  11.169   8.098 -1.1977  0.6963 -0.5149
  796MOL0     H 9787   1.896  11.116   8.086 -1.8241 -1.6544  0.0542
  796MOL0     H 9788   1.929  10.963   8.042  0.0445 -0.8792  1.4387
  796MOL0     H 9789   1.994  11.119   8.294  0.1902  0.4478  0.0668
  796MOL0     H 9790   2.090  10.979   8.253 -0.2504  1.1586 -0.3714
  796MOL0     H 9791   1.775  10.941   8.262  0.0167 -1.4938 -0.0248
  796MOL0     H 9792   1.909  10.828   8.281  0.1170 -0.7145 -0.6942
  796MOL0     H 9793   1.975  10.919   8.487 -1.4259 -3.1912  1.0989
  796MOL0     H 9794   1.801  10.881   8.519  0.1741  1.1938  1.3077
  796MOL0     H 9795   1.834  11.097   8.619  0.8637 -0.8688  0.1738
  796MOL0     H 9796   1.941  11.148   8.495 -1.4191  2.5192 -2.3183
  796MOL0     H 9797   1.586  10.990   8.496 -0.0898  0.8273  3.6612
  796MOL0     H 9798   1.399  11.014   8.269 -1.0734  0.8884 -1.6549
  796MOL0     H 9799   1.390  11.163   8.189 -0.2508  0.2872 -1.1625
  796MOL0     H 9800   1.203  11.142   8.352 -0.5166  0.2377  1.3952
  796MOL0     H 9801   1.294  11.148   8.480 -2.4039  0.0869 -0.5957
  796MOL0     H 9802   1.310  11.371   8.270  2.3573  4.0089  2.0636
  796MOL0     H 9803   1.180  11.359   8.386  0.0123  0.3800 -0.8852
  796MOL0     H 9804   1.296  11.411   8.563 -0.2683  1.9349 -1.7045
  796MOL0     H 9805   1.462  11.382   8.492  1.7461  1.4430 -2.9623
  796MOL0     H 9806   1.621  11.558   8.428 -1.1782 -0.4390  0.3997
  796MOL0     H 9807   1.869  11.797   8.545  0.9559  0.3064  2.5573
  796MOL0     H 9808   1.846  11.634   8.484  0.2117 -0.6486  0.0092
  796MOL0     H 9809   1.841  11.670   8.661  0.2206 -1.3305 -0.6087
  796MOL0     H 9810   1.774  12.203   8.763 -1.3551  1.4272  2.7030
  796MOL0     H 9811   1.913  12.352   8.855 -0.2747  0.9049  0.7985
  796MOL0     H 9812   2.236  12.219   9.145 -1.9687 -0.7765  2.1850
  796MOL0     H 9813   2.269  12.389   9.109 -0.5464  0.4319 -0.1511
  796MOL0     H 9814   2.066  12.251   9.289  1.7950 -1.1632  1.2605
  796MOL0     H 9815   2.209  12.326   9.342 -0.0853  1.4880  0.3949
  796MOL0     H 9816   2.001  12.488   9.196  0.6784 -2.7348 -0.3580
  796MOL0     H 9817   2.140  12.559   9.260 -0.0321  0.3279  0.5950
  796MOL0     H 9818   2.099  12.486   9.498 -1.6630  0.0160  2.7830
  796MOL0     H 9819   1.958  12.421   9.452  0.9020 -0.5144  1.6429
  796MOL0     H 9820   1.909  12.674   9.329  0.3638 -0.4525 -0.0746
  796MOL0     H 9821   1.861  12.627   9.498  0.4548 -1.5589  1.0915
  796MOL0     H 9822   2.118  12.767   9.428 -0.5203  1.9113 -1.0146
  796MOL0     H 9823   2.058  12.734   9.581  1.7830 -1.5191 -0.8911
  796MOL0     H 9824   1.841  12.868   9.515 -0.1077 -1.2116  1.0785
  796MOL0     H 9825   1.950  12.921   9.370 -0.2156  0.1325  0.4888
  796MOL0     H 9826   1.959  13.111   9.538  2.2352  0.7390  0.1900
  796MOL0     H 9827   2.106  13.017   9.540  0.0628  1.6092 -0.2227
  796MOL0     H 9828   2.107  12.059   9.092 -1.2072 -1.7293  1.6540
  796MOL0     H 9829   1.981  11.879   8.969  1.0489 -0.1038 -1.5551
  796MOL0     H 9830   1.397  11.880   8.722  0.5196  1.2484 -0.5421
  796MOL0     H 9831   1.272  11.708   8.584  0.8092 -2.5572  1.1589
  796MOL0     H 9832   2.289  11.033   7.626  1.7886  0.1665 -1.7711
  796MOL0     H 9833   2.434  10.848   7.636  3.6738 -0.9729 -0.2565
  796MOL0     H 9834   2.571  10.575   7.889  4.0422  2.0308  2.4122
  796MOL0     H 9835   2.614  10.351   7.954  0.6235 -1.9157  0.5994
  796MOL0     H 9836   2.636  10.130   7.952  1.4542 -0.0883  0.0251
  796MOL0     H 9837   2.589  10.093   7.789  2.3496 -0.2795 -2.5248
  796MOL0     H 9838   2.619   9.904   7.932  1.8271 -0.7810  2.2531
  796MOL0     H 9839   2.773   9.954   7.976  0.7876 -0.6499 -0.2782
  796MOL0     H 9840   2.769   9.764   7.794  0.3193 -1.5951 -0.8086
  796MOL0     H 9841   2.760   9.911   7.679  0.0122 -1.0340  0.3083
  796MOL0     H 9842   2.966   9.998   7.763 -2.0802  0.3341 -1.2117
  796MOL0     H 9843   2.991   9.836   7.704  0.5275  0.8808 -0.1128
  796MOL0     H 9844   3.088   9.782   8.104 -0.4986 -3.7009 -2.0756
  796MOL0     H 9845   2.876  10.306   7.616 -3.3411 -0.8922 -0.2266
  796MOL0     H 9846   2.869  10.652   7.483  3.9687  0.9153 -0.1823
  796MOL0     H 9847   2.989  10.586   7.581  0.1720  1.7521 -0.7055
  796MOL0     H 9848   2.897  10.491   7.452 -1.0014 -0.7107  0.7746
  797MOL0     O 9849   4.203   1.346   7.880  0.0195 -0.3268 -0.2493
  797MOL0     C 9850   4.086   1.396   7.867  0.0903  0.9274 -1.8925
  797MOL0     O 9851   4.058   1.532   7.848  0.2973  0.6944 -0.2611
  797MOL0     C 9852   4.172   1.590   7.793  0.0371  0.5603  0.4626
  797MOL0     C 9853   4.215   1.546   7.667 -0.5943 -0.9473  0.8243
  797MOL0     C 9854   4.312   1.620   7.600  0.1091  0.2607 -0.2695
  797MOL0     C 9855   4.388   1.719   7.667  0.0116  0.1950 -0.2356
  797MOL0     O 9856   4.482   1.807   7.619  0.5884  0.6306  0.7291
  797MOL0     C 9857   4.508   1.800   7.480  0.2662  0.5819  0.6175
  797MOL0     C 9858   4.619   1.890   7.441  1.2820  0.3752 -1.2429
  797MOL0     C 9859   4.591   2.039   7.476 -0.9694  0.2291  0.2310
  797MOL0     C 9860   4.629   2.082   7.622 -0.4127 -0.0510 -0.5745
  797MOL0     C 9861   4.605   2.230   7.649 -1.2667 -0.1532  0.4314
  797MOL0     C 9862   4.458   2.277   7.662  0.8954  0.0476 -0.0350
  797MOL0     C 9863   4.446   2.403   7.752  0.1013 -0.2593 -0.2563
  797MOL0     C 9864   4.299   2.448   7.745  0.1902  0.0966  0.8115
  797MOL0     N 9865   4.278   2.551   7.640 -0.2413  0.9949 -0.4270
  797MOL0     C 9866   4.340   2.671   7.636 -0.1191  0.1660 -0.5189
  797MOL0     C 9867   4.306   2.724   7.516  1.3410  0.8095  1.2898
  797MOL0     C 9868   4.363   2.845   7.465 -0.0011 -0.1007 -0.7588
  797MOL0     C 9869   4.291   2.920   7.353 -0.3426 -0.2207  0.4067
  797MOL0     C 9870   4.375   3.043   7.306  0.4289  0.4342  0.0976
  797MOL0     C 9871   4.287   3.137   7.218 -0.0322  0.2968 -0.8126
  797MOL0     O 9872   4.381   3.244   7.201 -0.3681  0.4766  0.5719
  797MOL0     C 9873   4.326   3.364   7.161  0.3001 -0.4584  0.6905
  797MOL0     C 9874   4.397   3.429   7.062  0.1254  0.2280 -0.6842
  797MOL0     C 9875   4.357   3.552   7.000  0.9428  0.3961 -0.4669
  797MOL0     C 9876   4.462   3.604   6.900  0.3704 -0.4142 -0.3549
  797MOL0     C 9877   4.245   3.614   7.048  0.3569 -0.1063 -0.6107
  797MOL0     C 9878   4.207   3.749   7.005 -0.0883  0.0809  0.4571
  797MOL0     O 9879   4.088   3.801   7.058 -0.1117  0.0945 -0.4177
  797MOL0     C 9880   4.043   3.921   7.014  0.0869  0.2125  0.1658
  797MOL0     C 9881   3.920   3.910   6.941 -0.7936 -0.1928 -0.1956
  797MOL0     C 9882   3.853   4.023   6.905 -0.0877 -0.0623 -0.5864
  797MOL0     C 9883   3.900   4.152   6.943 -0.0552  0.7698  0.3706
  797MOL0     O 9884   3.819   4.245   6.883  0.1790 -0.4192 -0.1319
  797MOL0     C 9885   3.847   4.379   6.929 -0.6680 -0.1398  0.5238
  797MOL0     C 9886   3.764   4.479   6.838  0.0355 -0.4727 -0.4493
  797MOL0     C 9887   3.742   4.614   6.905 -0.3562 -0.0835  0.3628
  797MOL0     C 9888   3.694   4.720   6.808  0.5341 -1.3043 -0.8697
  797MOL0     C 9889   3.696   4.861   6.863  0.5957 -0.2952 -0.4934
  797MOL0     C 9890   3.670   4.973   6.754 -0.3474  0.6099 -0.4371
  797MOL0     C 9891   3.644   5.118   6.800 -0.5939  0.5360  0.2706
  797MOL0     C 9892   3.570   5.211   6.702  0.5586  0.2495 -0.2389
  797MOL0    Cl 9893   3.684   5.250   6.575 -0.3406  0.0825  0.0062
  797MOL0     C 9894   4.017   4.168   7.022 -0.2336  0.5352  0.1845
  797MOL0     C 9895   4.092   4.047   7.065  0.9792 -0.0862 -0.0709
  797MOL0     O 9896   4.283   3.801   6.923 -0.2130 -0.0732 -0.2392
  797MOL0     C 9897   4.175   3.550   7.158 -0.3613 -0.1625  0.5184
  797MOL0     C 9898   4.221   3.433   7.215  0.1474 -0.3386  0.1356
  797MOL0     N 9899   4.221   2.633   7.453  0.4236  0.6353  0.2662
  797MOL0     N 9900   4.205   2.531   7.531  0.2492  0.0065  0.3016
  797MOL0     C 9901   4.341   1.754   7.798 -0.0710 -0.7863  1.3136
  797MOL0     C 9902   4.233   1.693   7.860 -1.1039 -0.4018  0.4736
  797MOL0     C 9903   3.965   1.307   7.885 -0.0037  0.2909 -0.2466
  797MOL0     C 9904   3.973   1.174   7.849  0.2640 -0.6009  1.5931
  797MOL0     C 9905   3.866   1.084   7.846  0.6891  0.3296 -0.7813
  797MOL0     C 9906   3.754   1.132   7.908  0.4541  0.4649  0.8548
  797MOL0     O 9907   3.643   1.051   7.932  0.0686 -0.5099 -0.2404
  797MOL0     C 9908   3.647   0.967   8.044 -0.7840  0.3914 -0.5265
  797MOL0     C 9909   3.517   0.974   8.132 -0.9942  0.6620  0.2995
  797MOL0     C 9910   3.400   0.904   8.057 -1.3535  0.0886 -0.5824
  797MOL0     C 9911   3.264   0.934   8.125 -0.1101 -0.1362  0.7672
  797MOL0     C 9912   3.262   0.916   8.266  0.3082  0.7599 -0.3284
  797MOL0     C 9913   3.246   0.895   8.390 -0.1561 -0.6496  0.0410
  797MOL0     C 9914   3.741   1.261   7.959 -0.6722 -0.0195 -0.5955
  797MOL0     C 9915   3.842   1.354   7.952  0.0630 -0.3163 -0.4137
  797MOL0     C 9916   3.819   1.477   8.037  0.1264 -0.6130  0.5100
  797MOL0     H 9917   4.170   1.457   7.624 -0.0620 -1.4377  1.2602
  797MOL0     H 9918   4.352   1.592   7.503  3.2996  3.3220 -0.0570
  797MOL0     H 9919   4.419   1.830   7.424  0.3770 -0.1000  0.0665
  797MOL0     H 9920   4.551   1.701   7.460 -1.5659  0.1651 -1.6777
  797MOL0     H 9921   4.708   1.851   7.493  0.1612 -0.8632 -0.1599
  797MOL0     H 9922   4.637   1.874   7.335  0.8529 -0.8069 -1.1565
  797MOL0     H 9923   4.661   2.094   7.414  1.1933 -1.4071  1.0869
  797MOL0     H 9924   4.487   2.068   7.455 -0.2469  1.4418 -1.9881
  797MOL0     H 9925   4.574   2.023   7.696 -1.0312  1.6502  0.3513
  797MOL0     H 9926   4.735   2.064   7.642 -0.5461 -0.8498 -0.5320
  797MOL0     H 9927   4.644   2.286   7.563 -0.8756  2.1786  2.0339
  797MOL0     H 9928   4.664   2.262   7.735  4.8876 -2.5227 -2.3405
  797MOL0     H 9929   4.427   2.302   7.560  0.4332 -0.0417  0.0815
  797MOL0     H 9930   4.390   2.199   7.698 -0.7317  1.9787  1.3205
  797MOL0     H 9931   4.520   2.477   7.721  1.1162 -0.6465  1.1164
  797MOL0     H 9932   4.468   2.372   7.855  1.4229  3.2826  0.6614
  797MOL0     H 9933   4.225   2.368   7.743  1.3756 -1.1224  2.7773
  797MOL0     H 9934   4.268   2.495   7.838 -2.3755 -0.2422  0.2098
  797MOL0     H 9935   4.406   2.720   7.708  2.2443 -1.8356 -1.1842
  797MOL0     H 9936   4.460   2.808   7.429 -0.3447 -4.0373  1.7952
  797MOL0     H 9937   4.368   2.918   7.546  1.0537  0.6374 -1.4610
  797MOL0     H 9938   4.272   2.859   7.265  0.5804 -0.8572  0.6387
  797MOL0     H 9939   4.195   2.947   7.399  1.6020  2.1098  3.5851
  797MOL0     H 9940   4.396   3.091   7.402 -3.2918  0.9146  0.8378
  797MOL0     H 9941   4.459   3.005   7.247  0.1365 -2.5566  1.4613
  797MOL0     H 9942   4.257   3.092   7.123 -1.9101  0.6082 -0.3922
  797MOL0     H 9943   4.192   3.166   7.264 -1.9667 -3.3233 -2.1373
  797MOL0     H 9944   4.490   3.374   7.049  0.6850 -0.1137  3.5651
  797MOL0     H 9945   4.531   3.673   6.951  0.6415 -0.1684 -1.0434
  797MOL0     H 9946   4.427   3.651   6.808 -1.5056 -1.8335 -0.4181
  797MOL0     H 9947   4.519   3.520   6.861  0.3225  0.1299 -1.6472
  797MOL0     H 9948   3.864   3.818   6.933 -1.2252  0.0532 -0.0279
  797MOL0     H 9949   3.753   4.029   6.864 -0.8281  4.5994  1.2396
  797MOL0     H 9950   3.814   4.389   7.033 -2.0230  0.9238  0.0275
  797MOL0     H 9951   3.955   4.394   6.919 -0.1811 -2.1511  2.2064
  797MOL0     H 9952   3.808   4.491   6.738 -0.6148 -0.2364 -0.7112
  797MOL0     H 9953   3.663   4.440   6.828 -0.1059 -0.6311  1.2803
  797MOL0     H 9954   3.839   4.643   6.945  0.1065 -0.4892 -0.4481
  797MOL0     H 9955   3.664   4.603   6.981 -1.2144 -2.0393 -0.7230
  797MOL0     H 9956   3.591   4.703   6.774 -0.5212 -1.8892  2.3387
  797MOL0     H 9957   3.766   4.718   6.725  1.2094 -0.6336 -0.3071
  797MOL0     H 9958   3.633   4.879   6.950  1.5368  1.0749 -0.0580
  797MOL0     H 9959   3.797   4.870   6.905  0.3281 -2.5554  0.8262
  797MOL0     H 9960   3.582   4.942   6.697 -1.1340  1.3269  0.3725
  797MOL0     H 9961   3.757   4.976   6.688  0.5372 -0.1717  0.6669
  797MOL0     H 9962   3.740   5.167   6.818  0.6541  0.7831 -5.2433
  797MOL0     H 9963   3.588   5.115   6.894 -0.5438 -3.3905  0.3488
  797MOL0     H 9964   3.549   5.305   6.753 -1.6583  1.5703 -3.3127
  797MOL0     H 9965   3.476   5.169   6.666 -0.0093  1.7864 -0.6297
  797MOL0     H 9966   4.053   4.264   7.057  0.8314 -0.1675  1.1067
  797MOL0     H 9967   4.176   4.047   7.133  0.1452 -1.3502  1.0091
  797MOL0     H 9968   4.084   3.594   7.196  1.6801  3.1626  1.9141
  797MOL0     H 9969   4.176   3.392   7.305 -1.4354  0.1827 -0.3782
  797MOL0     H 9970   4.396   1.834   7.845 -0.6251  0.9990 -0.9147
  797MOL0     H 9971   4.190   1.721   7.956 -0.2404 -0.7208  0.9613
  797MOL0     H 9972   4.073   1.157   7.811 -0.2289 -2.3042  0.9543
  797MOL0     H 9973   3.882   0.980   7.821  1.1226 -0.8720  3.6494
  797MOL0     H 9974   3.676   0.865   8.016 -0.4379  0.7245 -1.4366
  797MOL0     H 9975   3.724   1.002   8.114 -0.5087 -0.6594 -0.2731
  797MOL0     H 9976   3.491   1.077   8.155  2.6560  1.4483  1.4732
  797MOL0     H 9977   3.537   0.918   8.224  2.3490 -2.9848 -2.2932
  797MOL0     H 9978   3.402   0.942   7.954  2.2114 -0.1338 -0.7206
  797MOL0     H 9979   3.415   0.796   8.058 -0.0191  0.2487  1.3464
  797MOL0     H 9980   3.177   0.885   8.082  0.3297 -2.5657  2.4538
  797MOL0     H 9981   3.248   1.041   8.105 -0.7271 -0.3677 -0.0445
  797MOL0     H 9982   3.253   0.888   8.496  1.6680  1.1222  0.1081
  797MOL0     H 9983   3.642   1.284   7.995 -0.9524 -3.3204  1.1217
  797MOL0     H 9984   3.718   1.517   8.046 -0.0259 -0.0211 -2.6687
  797MOL0     H 9985   3.877   1.462   8.129  1.0840 -0.4377 -0.0457
  797MOL0     H 9986   3.855   1.555   7.969 -1.8913 -1.6589 -1.8904
  798MOL0     O 9987  10.773   8.745   1.736 -0.0945 -0.3152 -0.2239
  798MOL0     C 9988  10.766   8.764   1.858 -0.5364  0.3867  1.1000
  798MOL0     O 9989  10.813   8.880   1.914  0.7412 -0.8413 -0.1678
  798MOL0     C 9990  10.820   9.001   1.851 -0.6047  0.5351 -0.6977
  798MOL0     C 9991  10.730   9.092   1.903  0.3478  0.5352 -0.9736
  798MOL0     C 9992  10.708   9.215   1.845 -0.0491  0.1084  1.2323
  798MOL0     C 9993  10.799   9.260   1.742  1.0796 -0.1959 -0.6054
  798MOL0     O 9994  10.809   9.390   1.691 -0.8081 -0.1494  0.4807
  798MOL0     C 9995  10.712   9.490   1.719 -0.2758 -0.4306  0.3107
  798MOL0     C 9996  10.732   9.599   1.612 -0.8479 -1.0742  0.9040
  798MOL0     C 9997  10.875   9.658   1.609  0.4602  0.1169  0.0820
  798MOL0     C 9998  10.883   9.767   1.507 -0.2109  0.2333 -0.1994
  798MOL0     C 9999  11.021   9.799   1.457  0.6138 -0.1312  0.8357
  798MOL0     C10000  11.123   9.811   1.565  0.2753 -0.5099  0.5174
  798MOL0     C10001  11.259   9.850   1.497  0.4014  0.0871 -1.0789
  798MOL0     C10002  11.366   9.843   1.587 -0.1679  0.4671 -0.0515
  798MOL0     N10003  11.494   9.898   1.520  0.6898  1.3182 -0.2153
  798MOL0     C10004  11.557   9.868   1.401  0.2572  0.6723 -0.5883
  798MOL0     C10005  11.666   9.952   1.403  0.9146 -0.2734  0.5381
  798MOL0     C10006  11.787   9.947   1.315  0.7681 -0.1453 -0.8109
  798MOL0     C10007  11.756   9.954   1.162 -0.0588 -0.4684 -0.5939
  798MOL0     C10008  11.674  10.080   1.114 -0.1859  0.2588 -0.4192
  798MOL0     C10009  11.756  10.205   1.158  0.3557  0.1732  0.1503
  798MOL0     O10010  11.734  10.318   1.062 -0.5500  1.0076 -0.5218
  798MOL0     C10011  11.851  10.376   1.018  0.4469 -0.0176  0.5557
  798MOL0     C10012  11.905  10.479   1.097 -0.4354  1.1217 -0.0084
  798MOL0     C10013  12.030  10.521   1.059 -0.0018  0.3357 -0.2941
  798MOL0     C10014  12.087  10.636   1.137 -0.2288  1.0612  0.2549
  798MOL0     C10015  12.099  10.470   0.952 -0.6864  0.4555 -0.2682
  798MOL0     C10016  12.218  10.541   0.891  0.0370  0.0946 -0.1348
  798MOL0     O10017  12.197  10.572   0.757 -0.0071  0.2326 -0.4846
  798MOL0     C10018  12.280  10.668   0.704 -0.5460  0.4903 -0.4014
  798MOL0     C10019  12.420  10.661   0.699 -0.5315 -0.4503  0.2185
  798MOL0     C10020  12.488  10.759   0.629  0.0366 -0.9666  0.6152
  798MOL0     C10021  12.419  10.868   0.560  0.6849 -0.0428 -0.4725
  798MOL0     O10022  12.492  10.976   0.514 -0.3219 -0.5298 -0.0492
  798MOL0     C10023  12.454  11.022   0.380 -0.2840 -0.4963 -0.3553
  798MOL0     C10024  12.561  11.116   0.315  0.1897  0.1612  0.1080
  798MOL0     C10025  12.713  11.110   0.353  0.0073 -1.0308 -0.0363
  798MOL0     C10026  12.772  10.968   0.360 -0.3752  0.8170  0.7484
  798MOL0     C10027  12.769  10.884   0.224 -0.3824 -0.3751 -0.3295
  798MOL0     C10028  12.830  10.950   0.108  0.2979 -0.0652  0.1513
  798MOL0     C10029  12.819  10.850  -0.008 -0.1571 -0.5023  0.4418
  798MOL0     C10030  12.908  10.902  -0.123  0.2897  0.8022 -0.1627
  798MOL0    Cl10031  13.068  10.884  -0.090  0.4737 -0.1352  0.2147
  798MOL0     C10032  12.278  10.875   0.580 -1.0812  0.0418 -0.0478
  798MOL0     C10033  12.221  10.770   0.642  0.0005 -0.2806  0.3799
  798MOL0     O10034  12.317  10.567   0.959  0.4283  0.5819 -0.0782
  798MOL0     C10035  12.045  10.362   0.878  0.0491  1.7695 -0.1816
  798MOL0     C10036  11.915  10.320   0.912 -0.0427 -0.0588  0.5309
  798MOL0     N10037  11.664  10.031   1.517  0.3439  0.0870 -0.4169
  798MOL0     N10038  11.553  10.001   1.581 -0.0085  0.4745 -0.7830
  798MOL0     C10039  10.886   9.165   1.688 -0.4744  0.0377 -0.1232
  798MOL0     C10040  10.898   9.029   1.742 -0.0317 -0.7430  0.1597
  798MOL0     C10041  10.700   8.683   1.966 -0.1306 -0.0538  1.5435
  798MOL0     C10042  10.655   8.741   2.085 -0.6549  0.0139  0.0826
  798MOL0     C10043  10.588   8.659   2.178  0.2795  0.4616  0.4602
  798MOL0     C10044  10.572   8.521   2.158 -0.9033  0.0761 -0.7813
  798MOL0     O10045  10.506   8.433   2.239  0.1056 -0.1620 -0.0489
  798MOL0     C10046  10.451   8.483   2.363 -0.4235  0.5542 -0.1628
  798MOL0     C10047  10.296   8.510   2.353 -0.5330  0.7131 -0.5270
  798MOL0     C10048  10.206   8.386   2.344 -0.2766  0.8025  0.2142
  798MOL0     C10049  10.070   8.436   2.292  0.2433 -0.0828 -0.1463
  798MOL0     C10050   9.964   8.336   2.323  0.9302  0.0750  0.4607
  798MOL0     C10051   9.872   8.262   2.355 -0.4442  1.2648  0.4451
  798MOL0     C10052  10.626   8.464   2.046  0.2112  0.8781  0.1341
  798MOL0     C10053  10.687   8.544   1.948  0.1275 -0.0972  0.3359
  798MOL0     C10054  10.754   8.476   1.834 -0.2595 -0.6314 -0.5207
  798MOL0     H10055  10.666   9.069   1.988  0.9780  4.2497  0.6971
  798MOL0     H10056  10.628   9.276   1.885 -1.8114  0.3138 -2.2524
  798MOL0     H10057  10.722   9.522   1.823  1.6170 -3.2088  1.0947
  798MOL0     H10058  10.613   9.448   1.700 -1.4031  2.9135 -2.1661
  798MOL0     H10059  10.706   9.553   1.516 -2.3572  1.2256  0.1451
  798MOL0     H10060  10.656   9.676   1.627 -0.4190 -0.7624  1.4765
  798MOL0     H10061  10.894   9.703   1.707 -1.0730  0.5404  0.2199
  798MOL0     H10062  10.957   9.590   1.586  0.4217 -0.7239  2.1896
  798MOL0     H10063  10.809   9.755   1.428 -0.0499 -0.2951 -0.2796
  798MOL0     H10064  10.859   9.858   1.562 -3.1628 -0.0922 -0.8275
  798MOL0     H10065  11.016   9.897   1.409 -1.2818 -0.0158  1.1840
  798MOL0     H10066  11.054   9.722   1.386 -2.1997 -1.1659  0.5123
  798MOL0     H10067  11.094   9.881   1.644 -0.5684 -0.5915  0.2928
  798MOL0     H10068  11.128   9.712   1.610 -1.5365 -1.1892 -0.6511
  798MOL0     H10069  11.251   9.957   1.474  1.5983  0.5090  0.3589
  798MOL0     H10070  11.268   9.804   1.398  0.4169  2.7801 -2.4333
  798MOL0     H10071  11.357   9.905   1.677  1.6210 -1.4437  1.5196
  798MOL0     H10072  11.377   9.737   1.611 -3.4866 -0.5535 -2.2778
  798MOL0     H10073  11.543   9.790   1.328 -0.4093  2.6525 -2.7171
  798MOL0     H10074  11.829   9.849   1.340 -0.7505 -1.0760 -1.7388
  798MOL0     H10075  11.860  10.020   1.352  0.5924 -0.2698 -0.1954
  798MOL0     H10076  11.854   9.950   1.113  0.3439 -2.1716  0.2450
  798MOL0     H10077  11.698   9.864   1.141  0.5129 -1.7124  2.5667
  798MOL0     H10078  11.667  10.080   1.005 -0.3524 -0.6203 -0.4137
  798MOL0     H10079  11.572  10.093   1.150  0.4642  0.6439  1.4550
  798MOL0     H10080  11.703  10.237   1.249  0.2308  2.4428 -0.6572
  798MOL0     H10081  11.862  10.185   1.173  0.1348  0.0252  1.7335
  798MOL0     H10082  11.851  10.514   1.184 -1.8403  0.5427 -0.6177
  798MOL0     H10083  12.093  10.727   1.076  2.5612  0.5005 -0.4634
  798MOL0     H10084  12.187  10.606   1.168 -0.3251 -1.5962 -1.6866
  798MOL0     H10085  12.027  10.658   1.226  0.9941  0.1934  1.3392
  798MOL0     H10086  12.476  10.579   0.742  2.4080  0.6522 -1.2759
  798MOL0     H10087  12.594  10.744   0.612  0.4993  1.7684  0.6523
  798MOL0     H10088  12.436  10.941   0.309  0.9595  2.0776 -3.8405
  798MOL0     H10089  12.361  11.076   0.398 -0.2624 -1.3384  2.9468
  798MOL0     H10090  12.539  11.095   0.209  0.2430 -2.2002  0.4973
  798MOL0     H10091  12.527  11.220   0.319 -1.1856 -0.1804 -1.3000
  798MOL0     H10092  12.719  11.168   0.446 -4.0208  1.7296 -1.2334
  798MOL0     H10093  12.767  11.176   0.285  0.3102  1.2197  2.2222
  798MOL0     H10094  12.720  10.907   0.435 -2.3385 -1.1612 -2.0285
  798MOL0     H10095  12.879  10.968   0.385 -0.5939 -0.3135  1.8009
  798MOL0     H10096  12.818  10.788   0.240 -2.5554 -2.1572 -3.3259
  798MOL0     H10097  12.665  10.866   0.194 -0.6931 -1.9909  1.5416
  798MOL0     H10098  12.935  10.974   0.128  0.0178  2.5409 -1.1196
  798MOL0     H10099  12.786  11.049   0.092 -1.1299 -0.7392 -0.2042
  798MOL0     H10100  12.713  10.848  -0.033  0.2309 -2.9021 -1.3809
  798MOL0     H10101  12.851  10.747   0.012 -0.1743 -0.2595  1.8375
  798MOL0     H10102  12.878  11.007  -0.132  0.3791  1.1222  2.4045
  798MOL0     H10103  12.875  10.853  -0.215 -2.4932  0.8282  0.7415
  798MOL0     H10104  12.224  10.961   0.541  1.2303  1.5067 -0.1766
  798MOL0     H10105  12.112  10.771   0.637 -0.1078  0.6394  1.9934
  798MOL0     H10106  12.096  10.311   0.797  0.0535 -0.7755  1.2813
  798MOL0     H10107  11.861  10.249   0.851  0.1827  0.4724 -0.3034
  798MOL0     H10108  10.955   9.210   1.618 -0.6591  4.2298  2.0808
  798MOL0     H10109  10.965   8.952   1.705  1.0468  0.4239 -0.4038
  798MOL0     H10110  10.667   8.844   2.115 -0.0810  0.8463 -2.7312
  798MOL0     H10111  10.541   8.707   2.263  3.5352 -0.6466  3.0742
  798MOL0     H10112  10.450   8.398   2.432  1.5461 -1.7325 -2.6867
  798MOL0     H10113  10.507   8.567   2.404  0.7488 -0.5295  0.5218
  798MOL0     H10114  10.266   8.581   2.275  0.7435  1.5583 -0.2823
  798MOL0     H10115  10.262   8.555   2.446  0.3885  1.7928 -0.6859
  798MOL0     H10116  10.266   8.321   2.280 -0.2917  0.5119  0.4938
  798MOL0     H10117  10.195   8.342   2.444 -1.7401 -3.5110 -1.6161
  798MOL0     H10118  10.082   8.454   2.185 -0.3325  0.0334 -0.1980
  798MOL0     H10119  10.061   8.536   2.337  2.6616  0.1761 -0.1085
  798MOL0     H10120   9.795   8.191   2.377 -2.8686  3.1154 -1.5473
  798MOL0     H10121  10.615   8.357   2.036 -3.8837  1.1495  0.0703
  798MOL0     H10122  10.737   8.368   1.843  0.2374 -0.6297  0.6529
  798MOL0     H10123  10.706   8.499   1.738 -1.6514  1.7880  0.6780
  798MOL0     H10124  10.861   8.498   1.839 -0.5089  2.5022 -4.2998
  799MOL0     O10125   3.496   0.385   8.058 -0.2775 -0.2139 -0.1794
  799MOL0     C10126   3.416   0.429   8.142 -0.9158 -0.1196  0.2057
  799MOL0     O10127   3.452   0.471   8.270 -0.2563 -0.2706  0.3284
  799MOL0     C10128   3.569   0.435   8.327  0.0248 -0.4019 -1.4277
  799MOL0     C10129   3.598   0.525   8.436 -0.2653 -0.0181 -0.1005
  799MOL0     C10130   3.707   0.504   8.523 -0.5109  0.7123 -0.0073
  799MOL0     C10131   3.793   0.395   8.498  0.0267 -0.0983  0.6138
  799MOL0     O10132   3.896   0.357   8.580 -0.0837  0.7640 -0.0647
  799MOL0     C10133   3.871   0.340   8.722 -0.3427  0.3190  0.1124
  799MOL0     C10134   3.991   0.247   8.762  0.0118 -0.6326  0.5489
  799MOL0     C10135   3.956   0.097   8.744 -0.0736 -0.1079  0.2446
  799MOL0     C10136   4.085   0.016   8.726 -0.3688 -0.6640 -0.5586
  799MOL0     C10137   4.050  -0.119   8.668  0.4429  0.3807  0.4969
  799MOL0     C10138   4.032  -0.117   8.517  0.2501 -0.2450 -0.0055
  799MOL0     C10139   4.030  -0.263   8.473  0.0163  0.1894 -0.8210
  799MOL0     C10140   3.986  -0.268   8.321 -0.8707 -0.3168  0.4484
  799MOL0     N10141   4.088  -0.251   8.220 -0.7979 -0.5424 -0.2308
  799MOL0     C10142   4.121  -0.123   8.183  0.5047 -0.7081 -0.4746
  799MOL0     C10143   4.223  -0.144   8.101  0.6715 -1.3637 -0.1441
  799MOL0     C10144   4.306  -0.068   7.996  0.0868  0.2322 -0.3888
  799MOL0     C10145   4.280  -0.102   7.846  0.2596 -0.0077 -1.4008
  799MOL0     C10146   4.147  -0.091   7.775  0.3238  0.0715  0.2161
  799MOL0     C10147   4.081   0.040   7.817  0.1543  0.2912  0.1687
  799MOL0     O10148   4.162   0.153   7.769 -0.5797  0.3491 -0.6792
  799MOL0     C10149   4.162   0.196   7.637 -0.8737 -0.2742  0.3222
  799MOL0     C10150   4.111   0.133   7.528 -0.8781 -0.7513  0.5410
  799MOL0     C10151   4.105   0.189   7.406 -0.0107 -0.0305 -0.1486
  799MOL0     C10152   4.033   0.115   7.300  0.2837  0.0195  0.7388
  799MOL0     C10153   4.164   0.307   7.382 -0.2487 -0.7036  0.8057
  799MOL0     C10154   4.163   0.373   7.253  0.3480  0.4087  0.7725
  799MOL0     O10155   4.145   0.511   7.264 -0.1287  0.5730 -0.5288
  799MOL0     C10156   4.175   0.592   7.160  0.1371 -0.4197  0.7042
  799MOL0     C10157   4.121   0.580   7.031  1.3568 -0.7344  0.2108
  799MOL0     C10158   4.168   0.650   6.920 -0.3060  0.0827  0.7485
  799MOL0     C10159   4.259   0.755   6.937 -0.1268  0.2508  1.0599
  799MOL0     O10160   4.300   0.833   6.825  0.7082  0.7311  0.4669
  799MOL0     C10161   4.211   0.833   6.707 -0.7072 -1.0215  1.3667
  799MOL0     C10162   4.289   0.933   6.612  1.0484  0.1642 -0.0527
  799MOL0     C10163   4.346   1.062   6.676  0.3123  0.0873  0.3230
  799MOL0     C10164   4.243   1.146   6.750  0.2887 -0.0901  0.7374
  799MOL0     C10165   4.276   1.146   6.896  0.7868 -0.1989 -0.1814
  799MOL0     C10166   4.163   1.205   6.983 -0.8239 -1.1255  0.6330
  799MOL0     C10167   4.210   1.261   7.126  0.0341 -0.2902 -0.6155
  799MOL0     C10168   4.270   1.159   7.226 -0.1315  0.1571 -0.0557
  799MOL0    Cl10169   4.126   1.062   7.287  0.5217 -0.1968 -0.1950
  799MOL0     C10170   4.306   0.780   7.070  0.0294 -0.8669  0.6238
  799MOL0     C10171   4.262   0.706   7.171 -0.3084  0.6239 -0.7390
  799MOL0     O10172   4.192   0.315   7.152  0.3548 -0.4033 -0.2367
  799MOL0     C10173   4.220   0.377   7.490 -0.5787  0.6688  1.3267
  799MOL0     C10174   4.221   0.321   7.612 -0.2046  0.2670 -0.7269
  799MOL0     N10175   4.247  -0.283   8.089  0.1075  0.6541  0.7185
  799MOL0     N10176   4.173  -0.348   8.173 -0.5551  0.1309 -0.0950
  799MOL0     C10177   3.772   0.315   8.387  0.3461 -0.3594  0.0325
  799MOL0     C10178   3.671   0.342   8.297 -0.0621 -0.2576  0.4669
  799MOL0     C10179   3.278   0.462   8.097  0.9468  0.9878 -0.2245
  799MOL0     C10180   3.204   0.551   8.169  0.1046  0.8702 -0.0638
  799MOL0     C10181   3.091   0.598   8.114 -0.5621 -0.3501 -0.5418
  799MOL0     C10182   3.031   0.548   7.999 -0.3632  0.3320 -0.0808
  799MOL0     O10183   2.899   0.572   7.975 -0.1005 -0.5327  0.6123
  799MOL0     C10184   2.832   0.523   7.852 -0.0929 -0.3687 -0.4914
  799MOL0     C10185   2.692   0.582   7.838  0.0750  0.1947 -0.3135
  799MOL0     C10186   2.595   0.474   7.797 -1.0087 -0.1344 -0.3838
  799MOL0     C10187   2.457   0.546   7.763  0.0171  0.1596  0.6321
  799MOL0     C10188   2.383   0.587   7.880 -0.5590  0.3988 -0.2643
  799MOL0     C10189   2.334   0.611   7.992  0.3442  0.0093 -1.0884
  799MOL0     C10190   3.099   0.458   7.927 -1.0429  0.9371  1.1090
  799MOL0     C10191   3.225   0.408   7.973 -0.3623  0.4129 -0.3325
  799MOL0     C10192   3.291   0.289   7.906  0.5282 -0.1108 -0.0979
  799MOL0     H10193   3.518   0.596   8.454 -0.1544  0.0250  0.2288
  799MOL0     H10194   3.720   0.568   8.610  3.3975  1.2516 -0.8154
  799MOL0     H10195   3.775   0.293   8.741  0.6389 -0.7131  3.2100
  799MOL0     H10196   3.875   0.447   8.743 -2.1191  0.5287 -0.5120
  799MOL0     H10197   4.080   0.264   8.702  1.1766  0.1893  2.4118
  799MOL0     H10198   4.016   0.265   8.867 -5.2658  2.0411  1.6828
  799MOL0     H10199   3.896   0.067   8.830 -0.0380  4.0981  1.9833
  799MOL0     H10200   3.893   0.096   8.655 -2.3736  0.6982  1.7701
  799MOL0     H10201   4.153   0.058   8.652  0.7147 -2.7672 -0.8451
  799MOL0     H10202   4.137  -0.003   8.820 -2.0993 -1.1432  0.3448
  799MOL0     H10203   3.960  -0.155   8.718  0.5763 -2.1568 -0.8992
  799MOL0     H10204   4.127  -0.193   8.690  0.5389  0.0001 -0.9839
  799MOL0     H10205   3.935  -0.073   8.490 -0.8694 -3.3193 -1.5824
  799MOL0     H10206   4.120  -0.076   8.467 -0.2582  0.4714 -0.3424
  799MOL0     H10207   3.956  -0.318   8.532  1.0486 -0.5424 -0.1882
  799MOL0     H10208   4.122  -0.313   8.502 -1.2976  0.2204  4.3468
  799MOL0     H10209   3.936  -0.364   8.306 -3.3261  1.0451 -0.7864
  799MOL0     H10210   3.904  -0.201   8.291  2.0277  2.4910 -1.9439
  799MOL0     H10211   4.083  -0.023   8.202 -1.2526 -1.2103 -1.1711
  799MOL0     H10212   4.409  -0.087   8.027 -1.3081 -3.5971  2.7087
  799MOL0     H10213   4.280   0.038   8.002  2.0106  0.7787 -1.2329
  799MOL0     H10214   4.354  -0.045   7.790 -0.0636  1.0098 -0.8261
  799MOL0     H10215   4.310  -0.207   7.837  2.2536  0.6501 -3.0419
  799MOL0     H10216   4.157  -0.089   7.666 -0.5774  0.4267  0.1267
  799MOL0     H10217   4.072  -0.165   7.805  1.7028 -1.0485  1.0083
  799MOL0     H10218   3.989   0.062   7.761  0.7115  3.0269  0.1539
  799MOL0     H10219   4.060   0.048   7.924  1.3151 -0.2831  0.4437
  799MOL0     H10220   4.066   0.036   7.545 -3.6595  0.6935  2.2120
  799MOL0     H10221   3.941   0.165   7.267 -1.0140 -2.0681  1.0477
  799MOL0     H10222   4.006   0.014   7.330  1.8897 -1.2810 -1.8601
  799MOL0     H10223   4.098   0.083   7.218 -1.4405 -0.4142 -0.5183
  799MOL0     H10224   4.048   0.501   7.016  0.1845 -0.3132  3.0654
  799MOL0     H10225   4.123   0.629   6.823 -0.5228 -3.3347  1.4524
  799MOL0     H10226   4.208   0.733   6.664  1.0058 -0.3722 -0.4410
  799MOL0     H10227   4.114   0.876   6.732  0.3688  3.7645 -1.3401
  799MOL0     H10228   4.379   0.893   6.565  0.9093 -0.6895  0.3913
  799MOL0     H10229   4.224   0.955   6.527  2.0520  1.0394 -0.6103
  799MOL0     H10230   4.402   1.122   6.604 -1.5080  0.5315 -0.7808
  799MOL0     H10231   4.420   1.024   6.747  2.1301 -0.2089 -1.6514
  799MOL0     H10232   4.146   1.097   6.736 -0.1885 -0.2261  3.8616
  799MOL0     H10233   4.233   1.236   6.689  1.4385 -2.3287 -3.1417
  799MOL0     H10234   4.286   1.047   6.941 -1.2135  0.5903  2.1905
  799MOL0     H10235   4.354   1.222   6.911  2.2560 -1.1390 -2.5273
  799MOL0     H10236   4.098   1.121   7.010 -0.0929 -2.2712 -0.9416
  799MOL0     H10237   4.110   1.285   6.930 -2.6866 -1.6221  1.6316
  799MOL0     H10238   4.122   1.302   7.177  0.9085  1.0385 -0.1273
  799MOL0     H10239   4.268   1.352   7.109  2.1678 -1.0742  1.8770
  799MOL0     H10240   4.308   1.220   7.308  1.9743  0.4043 -1.1549
  799MOL0     H10241   4.352   1.094   7.194 -0.4458 -1.2779  1.8992
  799MOL0     H10242   4.368   0.867   7.089 -1.2501 -0.0569  1.2156
  799MOL0     H10243   4.306   0.742   7.263 -0.6464  1.5602 -0.9387
  799MOL0     H10244   4.273   0.469   7.464 -0.6358 -0.0561 -1.7441
  799MOL0     H10245   4.268   0.364   7.700  3.6446 -6.0311  0.9255
  799MOL0     H10246   3.844   0.235   8.370  1.5125  0.4605  0.9428
  799MOL0     H10247   3.666   0.282   8.207 -2.9113  3.1994 -1.9423
  799MOL0     H10248   3.231   0.577   8.271  1.5093 -2.0595  0.3964
  799MOL0     H10249   3.033   0.666   8.176 -0.0250  0.3596 -0.8074
  799MOL0     H10250   2.890   0.549   7.763  0.0065  1.6167  0.1173
  799MOL0     H10251   2.840   0.414   7.858  1.1400 -0.3092 -0.8477
  799MOL0     H10252   2.691   0.658   7.760 -0.2310 -1.5567 -2.0953
  799MOL0     H10253   2.662   0.640   7.926 -0.6449  0.9735 -1.0548
  799MOL0     H10254   2.631   0.418   7.710 -0.1408  1.2030 -0.9056
  799MOL0     H10255   2.590   0.399   7.876 -2.2262  0.7376  0.3925
  799MOL0     H10256   2.384   0.477   7.721 -0.5090  0.9588  0.2070
  799MOL0     H10257   2.459   0.628   7.691 -3.9671  0.2135  0.4095
  799MOL0     H10258   2.294   0.635   8.088  0.1635 -2.9110 -0.3259
  799MOL0     H10259   3.052   0.414   7.840  0.2877 -0.6919  1.1662
  799MOL0     H10260   3.336   0.227   7.984  1.6059 -0.1250 -0.7032
  799MOL0     H10261   3.217   0.235   7.846  0.1169  0.4481 -0.1017
  799MOL0     H10262   3.368   0.329   7.839 -1.4725  0.4629 -2.1926
  800MOL0     O10263   9.843   9.330   4.705 -0.4536  0.8203  0.1460
  800MOL0     C10264   9.911   9.224   4.703  0.1799 -0.1294  0.6492
  800MOL0     O10265   9.897   9.122   4.613 -0.4810 -0.4502  0.6761
  800MOL0     C10266   9.828   9.146   4.495  0.7444  0.3896  0.0026
  800MOL0     C10267   9.903   9.148   4.374  0.1919 -0.3204  0.5749
  800MOL0     C10268   9.848   9.181   4.252  0.4240  0.7804 -0.0077
  800MOL0     C10269   9.709   9.180   4.241  1.4705 -0.3198 -0.2897
  800MOL0     O10270   9.654   9.181   4.117  0.8710 -0.7630  0.0638
  800MOL0     C10271   9.519   9.131   4.110 -0.4139  0.0633  0.9484
  800MOL0     C10272   9.486   9.101   3.967 -0.0907 -0.6271  0.4665
  800MOL0     C10273   9.563   8.975   3.920  0.2084 -0.0935  0.7811
  800MOL0     C10274   9.541   8.961   3.767 -0.2531 -0.1151  0.0615
  800MOL0     C10275   9.566   8.819   3.722  0.9855  0.1200 -0.1190
  800MOL0     C10276   9.517   8.791   3.582 -0.3627  0.5151  0.1514
  800MOL0     C10277   9.572   8.669   3.502  0.1634  0.1458 -0.1288
  800MOL0     C10278   9.506   8.535   3.535  0.3127 -0.3496  0.1322
  800MOL0     N10279   9.368   8.538   3.493  0.4894 -0.4464  0.1487
  800MOL0     C10280   9.258   8.575   3.572 -0.6628  0.3823  0.1382
  800MOL0     C10281   9.152   8.563   3.494 -0.3047 -0.4323  0.6794
  800MOL0     C10282   9.004   8.591   3.520 -0.5009 -0.4261  0.1653
  800MOL0     C10283   8.941   8.515   3.638 -0.0581  0.0429  0.5699
  800MOL0     C10284   8.967   8.362   3.628 -0.0273  0.4288 -0.8982
  800MOL0     C10285   8.885   8.278   3.736 -0.5183 -0.3817  0.1874
  800MOL0     O10286   8.951   8.308   3.856  0.8480 -0.2280 -0.4431
  800MOL0     C10287   8.930   8.232   3.970 -0.0352 -0.3647  0.0571
  800MOL0     C10288   9.016   8.244   4.083  0.1324 -0.4600 -0.8113
  800MOL0     C10289   9.008   8.166   4.202  0.1612  1.0673 -0.6625
  800MOL0     C10290   9.123   8.180   4.304 -0.7522  0.6838  0.0513
  800MOL0     C10291   8.902   8.082   4.209  0.0894 -0.1055 -0.7274
  800MOL0     C10292   8.889   7.997   4.334 -0.3710  0.0588  0.7827
  800MOL0     O10293   8.913   8.057   4.450  0.5231 -0.0597 -0.3541
  800MOL0     C10294   8.890   7.990   4.562  0.5272 -0.0223  0.6689
  800MOL0     C10295   8.759   7.976   4.613 -0.8748 -0.6059  0.3083
  800MOL0     C10296   8.738   7.894   4.724  0.3892  0.2584 -0.1320
  800MOL0     C10297   8.840   7.833   4.789  0.1179  0.1078  0.6881
  800MOL0     O10298   8.811   7.775   4.911 -0.2689  0.4771  0.7929
  800MOL0     C10299   8.842   7.636   4.925  1.0880  0.2823 -0.3705
  800MOL0     C10300   8.855   7.548   4.792  0.6701  0.2540  0.5040
  800MOL0     C10301   8.730   7.529   4.706 -0.1384 -1.4550 -0.2532
  800MOL0     C10302   8.594   7.491   4.778 -0.2548  1.1943 -0.3134
  800MOL0     C10303   8.574   7.362   4.869  1.7899 -0.8860  0.0081
  800MOL0     C10304   8.427   7.325   4.875 -0.1020 -0.3971  0.1339
  800MOL0     C10305   8.395   7.202   4.960  0.0225 -0.4038 -0.4000
  800MOL0     C10306   8.394   7.246   5.100 -0.8445 -0.1043  0.5361
  800MOL0    Cl10307   8.233   7.288   5.168  0.1831  0.0913  0.0978
  800MOL0     C10308   8.975   7.858   4.751 -0.6312 -0.0762  0.4770
  800MOL0     C10309   9.000   7.928   4.628 -0.7040 -0.2956 -0.1253
  800MOL0     O10310   8.848   7.882   4.322  0.0082  0.1514  0.2196
  800MOL0     C10311   8.811   8.066   4.101 -0.0434  0.5524 -0.7352
  800MOL0     C10312   8.823   8.146   3.985  0.1490 -0.1184  0.3319
  800MOL0     N10313   9.203   8.522   3.376 -0.2470  0.6314 -0.0017
  800MOL0     N10314   9.329   8.514   3.366 -0.0641  0.4047  0.1695
  800MOL0     C10315   9.627   9.172   4.360 -0.5518  0.3500  0.4773
  800MOL0     C10316   9.691   9.161   4.483 -0.5951  0.7880 -0.6309
  800MOL0     C10317   9.987   9.188   4.827  0.7965  0.5131  0.2803
  800MOL0     C10318  10.025   9.051   4.835  0.2087 -0.2918  0.0021
  800MOL0     C10319  10.092   9.014   4.952 -0.4214  0.3424 -0.3359
  800MOL0     C10320  10.127   9.094   5.060  0.8149 -0.7623 -1.2979
  800MOL0     O10321  10.182   9.046   5.173 -0.0781  0.1080  0.3447
  800MOL0     C10322  10.281   9.134   5.237 -0.4141 -0.4157  0.7568
  800MOL0     C10323  10.406   9.063   5.272 -0.4674 -0.3827  0.6962
  800MOL0     C10324  10.385   8.966   5.392  0.4219 -0.8367  0.5981
  800MOL0     C10325  10.515   8.898   5.441 -0.6670  0.2093 -0.4774
  800MOL0     C10326  10.543   8.769   5.375  0.5428  0.3992  0.5976
  800MOL0     C10327  10.584   8.668   5.322 -0.2458  0.5314 -0.3183
  800MOL0     C10328  10.072   9.225   5.045 -0.4452  0.3238  0.1981
  800MOL0     C10329  10.003   9.275   4.937 -0.3343 -0.0305  0.2369
  800MOL0     C10330   9.964   9.422   4.936 -0.9462 -0.1127 -0.3296
  800MOL0     H10331  10.010   9.131   4.376  0.6801  1.7203 -2.2981
  800MOL0     H10332   9.913   9.189   4.165  2.5346 -0.9991  1.2777
  800MOL0     H10333   9.456   9.204   4.161  1.7588  2.2814  0.6513
  800MOL0     H10334   9.515   9.036   4.164  1.9035 -0.5458  0.1750
  800MOL0     H10335   9.378   9.089   3.957 -0.0817 -0.2968 -0.0205
  800MOL0     H10336   9.523   9.186   3.910 -1.6679 -1.1680 -1.4528
  800MOL0     H10337   9.669   8.973   3.949  0.1004  2.5157  1.5980
  800MOL0     H10338   9.519   8.894   3.978  2.3922 -1.6273  0.4237
  800MOL0     H10339   9.434   8.980   3.751  0.3764  1.7993 -2.5857
  800MOL0     H10340   9.595   9.041   3.715  1.3935 -0.4800  1.1335
  800MOL0     H10341   9.512   8.762   3.799 -0.5833  4.5814  2.4166
  800MOL0     H10342   9.672   8.793   3.719  0.8623 -0.3358 -0.8998
  800MOL0     H10343   9.410   8.811   3.568 -0.3996  1.0643  1.1084
  800MOL0     H10344   9.561   8.876   3.530 -2.7518  1.4633 -0.4428
  800MOL0     H10345   9.678   8.658   3.528  0.0488  1.0475  0.7619
  800MOL0     H10346   9.569   8.692   3.396  2.4656  4.4839  0.5430
  800MOL0     H10347   9.565   8.454   3.491 -2.3970 -1.5746 -1.4523
  800MOL0     H10348   9.521   8.530   3.644  1.6881 -1.9708 -0.0708
  800MOL0     H10349   9.266   8.613   3.674 -1.4382  1.4772 -0.1928
  800MOL0     H10350   8.934   8.588   3.435  1.7629  0.5652 -1.8811
  800MOL0     H10351   8.993   8.693   3.557 -2.5638 -1.0916  1.5889
  800MOL0     H10352   8.987   8.553   3.729  2.3885  1.0361 -0.9714
  800MOL0     H10353   8.835   8.540   3.645 -0.0006 -0.0131  1.7930
  800MOL0     H10354   8.928   8.337   3.529  0.0928  0.8666 -1.0604
  800MOL0     H10355   9.076   8.352   3.631  0.2752  3.0830 -0.4614
  800MOL0     H10356   8.779   8.303   3.730  0.0539  2.0756 -0.5076
  800MOL0     H10357   8.890   8.172   3.709 -0.5536 -0.9678  2.3361
  800MOL0     H10358   9.098   8.315   4.081  0.9875 -1.3379  0.8562
  800MOL0     H10359   9.188   8.264   4.279 -1.3978  1.7592  1.7830
  800MOL0     H10360   9.189   8.093   4.309 -0.3104  0.8979 -1.5502
  800MOL0     H10361   9.091   8.213   4.403 -1.2749 -0.5507  0.3183
  800MOL0     H10362   8.674   8.025   4.567  1.8917  1.7223 -2.8186
  800MOL0     H10363   8.645   7.869   4.775  1.6487 -4.7119  0.3186
  800MOL0     H10364   8.935   7.626   4.982  2.0510  3.9493 -1.0156
  800MOL0     H10365   8.760   7.600   4.987  3.0861  2.3445  3.8826
  800MOL0     H10366   8.936   7.594   4.735  0.0177  0.5136 -0.2205
  800MOL0     H10367   8.877   7.442   4.806 -3.4136 -0.7014  0.8321
  800MOL0     H10368   8.749   7.438   4.649 -1.7958 -1.2189 -1.2254
  800MOL0     H10369   8.709   7.615   4.642 -1.4233 -1.5543  0.0197
  800MOL0     H10370   8.542   7.471   4.683  0.5078 -1.2355 -0.2692
  800MOL0     H10371   8.546   7.573   4.832 -0.4107 -0.6442  2.5209
  800MOL0     H10372   8.633   7.283   4.821 -0.4582 -1.3659 -2.1568
  800MOL0     H10373   8.610   7.379   4.970  0.6277  0.0786  0.2825
  800MOL0     H10374   8.411   7.306   4.768  0.3089 -2.3003  0.3861
  800MOL0     H10375   8.365   7.409   4.909 -0.2924  0.8547 -2.9479
  800MOL0     H10376   8.471   7.128   4.932  1.9483  1.5173 -0.5124
  800MOL0     H10377   8.300   7.151   4.940 -0.2458 -0.0092 -0.1534
  800MOL0     H10378   8.467   7.323   5.126 -0.8251 -0.2378  0.8842
  800MOL0     H10379   8.430   7.155   5.149  3.4217  1.8491  1.4582
  800MOL0     H10380   9.058   7.847   4.819  0.7103  4.3110 -0.1135
  800MOL0     H10381   9.100   7.944   4.588 -0.4529  3.1217  1.4549
  800MOL0     H10382   8.730   7.995   4.115  0.8789 -0.9792 -2.7444
  800MOL0     H10383   8.739   8.151   3.917 -0.8979  2.0497  1.6545
  800MOL0     H10384   9.519   9.177   4.358 -0.6652 -1.5546 -0.6818
  800MOL0     H10385   9.637   9.158   4.577  1.5723 -0.2198  0.6517
  800MOL0     H10386   9.996   8.980   4.758  0.2940  1.5518 -1.8401
  800MOL0     H10387  10.136   8.915   4.958  0.3014  0.6739 -0.1355
  800MOL0     H10388  10.305   9.217   5.170 -1.9459  1.6092  2.6021
  800MOL0     H10389  10.237   9.174   5.329 -3.5418 -1.4446 -0.1639
  800MOL0     H10390  10.485   9.137   5.291 -1.3368  0.9971 -0.7641
  800MOL0     H10391  10.443   9.005   5.186  2.7897  0.2367  1.5521
  800MOL0     H10392  10.337   9.018   5.475  2.3677  1.7915  0.2073
  800MOL0     H10393  10.311   8.894   5.357  1.5694 -1.4579 -0.6592
  800MOL0     H10394  10.505   8.884   5.549  0.2138  3.9515  0.2481
  800MOL0     H10395  10.601   8.966   5.435 -0.1230 -0.0662  2.5339
  800MOL0     H10396  10.583   8.567   5.285  0.4499  0.5649 -0.4387
  800MOL0     H10397  10.081   9.285   5.135 -0.1900 -2.7850  2.4433
  800MOL0     H10398  10.003   9.475   5.024 -2.8425 -0.2105  0.6307
  800MOL0     H10399   9.992   9.475   4.845  2.4375  0.8704  1.1266
  800MOL0     H10400   9.858   9.438   4.959 -0.6139 -1.0276  2.0909
  801MOL0     O10401   2.630  10.979   9.738  0.3493 -0.0172 -0.6498
  801MOL0     C10402   2.516  11.022   9.742  0.6157  0.1377 -0.1105
  801MOL0     O10403   2.404  10.972   9.675 -0.8872  0.1986  0.0275
  801MOL0     C10404   2.450  10.892   9.562 -1.1982  0.0275 -0.5363
  801MOL0     C10405   2.503  10.760   9.578 -0.2995  0.3365 -0.3033
  801MOL0     C10406   2.539  10.678   9.473  0.5256  0.3666  0.7361
  801MOL0     C10407   2.508  10.731   9.340  0.9949  0.1710  0.1551
  801MOL0     O10408   2.544  10.659   9.232  0.4758 -0.0168 -0.0168
  801MOL0     C10409   2.658  10.707   9.163 -0.1985 -0.4994  0.2206
  801MOL0     C10410   2.786  10.635   9.219 -0.0092  0.0176  0.7128
  801MOL0     C10411   2.785  10.478   9.204 -0.0181 -0.3728 -1.3524
  801MOL0     C10412   2.837  10.428   9.076 -0.8519  1.4850  1.0311
  801MOL0     C10413   2.841  10.272   9.078  0.0913  0.3886  0.0114
  801MOL0     C10414   2.901  10.218   8.944 -0.0535 -0.1472  0.3286
  801MOL0     C10415   2.869  10.065   8.934 -0.0546  0.3486 -0.2840
  801MOL0     C10416   2.923   9.993   8.804 -0.3911  0.6094 -0.0805
  801MOL0     N10417   2.884   9.852   8.812 -0.1743  0.2635 -0.0377
  801MOL0     C10418   2.755   9.805   8.834 -0.3644  0.5177 -0.0044
  801MOL0     C10419   2.774   9.670   8.841  0.0177 -0.0803 -0.1695
  801MOL0     C10420   2.686   9.573   8.922  1.1510  1.4219 -0.1448
  801MOL0     C10421   2.676   9.428   8.867 -0.6796 -0.0806  0.4362
  801MOL0     C10422   2.626   9.420   8.725  0.2876  0.0699 -0.5278
  801MOL0     C10423   2.730   9.442   8.617 -0.3269  0.2184  0.5568
  801MOL0     O10424   2.668   9.453   8.488 -0.1690 -0.5851  0.0753
  801MOL0     C10425   2.613   9.573   8.444 -0.9818  0.0583  0.4124
  801MOL0     C10426   2.583   9.576   8.306 -0.4488 -1.4243 -0.2989
  801MOL0     C10427   2.534   9.690   8.244  0.2747 -0.7439  0.8348
  801MOL0     C10428   2.528   9.687   8.098  1.3077  0.9913  0.2102
  801MOL0     C10429   2.511   9.803   8.330  0.1676  0.4863  0.6144
  801MOL0     C10430   2.473   9.932   8.279  0.2425 -0.0944  0.9304
  801MOL0     O10431   2.419  10.017   8.383 -0.0762 -0.4636  0.0643
  801MOL0     C10432   2.400  10.151   8.341 -0.1257 -0.5482 -0.0908
  801MOL0     C10433   2.487  10.250   8.400  0.2281  0.4943  0.2306
  801MOL0     C10434   2.465  10.382   8.360 -0.3265 -0.3455  0.3154
  801MOL0     C10435   2.383  10.417   8.258  0.0920 -0.2225  0.3182
  801MOL0     O10436   2.359  10.545   8.211  0.1292 -0.3978 -0.1744
  801MOL0     C10437   2.234  10.610   8.248 -0.0492  0.7469 -1.0603
  801MOL0     C10438   2.173  10.687   8.137  0.3513 -1.0208 -0.4091
  801MOL0     C10439   2.133  10.601   8.017 -1.3319  0.5826  0.3143
  801MOL0     C10440   2.111  10.693   7.895  0.0294  0.4611  0.2486
  801MOL0     C10441   2.069  10.612   7.774 -0.3579  0.4501  0.7073
  801MOL0     C10442   2.150  10.487   7.742  0.2587  0.0822 -0.4777
  801MOL0     C10443   2.071  10.406   7.639  0.4399  0.7401 -0.7231
  801MOL0     C10444   2.120  10.265   7.599 -0.0590  0.2624  0.5604
  801MOL0    Cl10445   2.141  10.172   7.744  0.2519  0.1015  0.3599
  801MOL0     C10446   2.302  10.318   8.196  0.1729  0.3721 -0.5550
  801MOL0     C10447   2.302  10.179   8.246  0.2059 -1.0550  0.1322
  801MOL0     O10448   2.484   9.967   8.162 -0.6853  0.1570  0.7211
  801MOL0     C10449   2.522   9.792   8.470 -0.0617  0.5067 -0.5846
  801MOL0     C10450   2.579   9.677   8.527  0.2641 -0.3282  0.0271
  801MOL0     N10451   2.903   9.642   8.822 -0.5180 -0.4715 -0.2627
  801MOL0     N10452   2.968   9.752   8.800 -0.4251  0.8051 -0.4058
  801MOL0     C10453   2.437  10.852   9.323 -0.1655 -0.3171 -0.8583
  801MOL0     C10454   2.409  10.937   9.434  0.2837  0.8222  0.8602
  801MOL0     C10455   2.478  11.147   9.807  0.4952 -0.5995 -0.1909
  801MOL0     C10456   2.335  11.167   9.838  0.4261  0.1233  0.2407
  801MOL0     C10457   2.289  11.283   9.910  0.2392 -1.0824 -0.2448
  801MOL0     C10458   2.378  11.385   9.944 -0.3382  0.5568  0.2269
  801MOL0     O10459   2.351  11.511   9.981  0.3636  0.1701 -0.8391
  801MOL0     C10460   2.227  11.528  10.049 -0.8495  0.5973 -0.4729
  801MOL0     C10461   2.226  11.671  10.080 -0.4577  0.7047 -0.4073
  801MOL0     C10462   2.139  11.764   9.997 -0.2832 -0.5390 -0.5405
  801MOL0     C10463   1.999  11.761  10.059  0.3112 -0.3264 -0.1829
  801MOL0     C10464   1.908  11.857   9.997 -0.5243  0.1416  0.4036
  801MOL0     C10465   1.826  11.932   9.954 -0.4609 -0.5235 -0.6170
  801MOL0     C10466   2.510  11.354   9.923  0.2251 -0.3472 -0.0938
  801MOL0     C10467   2.570  11.246   9.856  0.4461 -0.3882 -0.0052
  801MOL0     C10468   2.719  11.264   9.821  1.2812 -0.3455 -0.1920
  801MOL0     H10469   2.534  10.725   9.676  0.2713  1.2108 -0.1634
  801MOL0     H10470   2.594  10.587   9.493 -0.0553  0.3078  2.1644
  801MOL0     H10471   2.658  10.816   9.175 -1.9054 -0.2319 -1.7032
  801MOL0     H10472   2.636  10.691   9.057 -1.8567  1.3081  0.2429
  801MOL0     H10473   2.877  10.671   9.171  0.0322  0.1249  0.8693
  801MOL0     H10474   2.799  10.656   9.326 -1.7437 -0.0910  0.9687
  801MOL0     H10475   2.847  10.436   9.284 -1.1477  1.0502  0.3497
  801MOL0     H10476   2.689  10.431   9.226  0.1568  0.4999  1.7173
  801MOL0     H10477   2.766  10.457   8.998  0.8343 -1.6886 -1.9454
  801MOL0     H10478   2.933  10.465   9.040 -0.5090 -0.9265 -0.8112
  801MOL0     H10479   2.742  10.228   9.096  0.4877 -0.1634  0.8839
  801MOL0     H10480   2.911  10.241   9.156  2.1488  2.6052 -0.8312
  801MOL0     H10481   2.843  10.265   8.863 -0.8654 -0.7667  0.5358
  801MOL0     H10482   3.007  10.244   8.935 -0.3272  0.3985 -2.6322
  801MOL0     H10483   2.760  10.066   8.941 -0.2566  3.2393 -2.1492
  801MOL0     H10484   2.908  10.016   9.023  1.9222 -1.4962 -2.0565
  801MOL0     H10485   2.882  10.037   8.713 -0.5668 -2.4695 -1.6160
  801MOL0     H10486   3.032   9.982   8.798 -0.6272 -2.0143 -0.8664
  801MOL0     H10487   2.669   9.870   8.847 -0.8511  0.2006 -1.4911
  801MOL0     H10488   2.589   9.622   8.916  0.0602 -0.7560 -1.4054
  801MOL0     H10489   2.707   9.576   9.030  0.1738 -2.8519  0.3747
  801MOL0     H10490   2.775   9.383   8.876 -0.4076  0.5733  0.7488
  801MOL0     H10491   2.615   9.365   8.933  1.0709 -0.8527  1.3886
  801MOL0     H10492   2.603   9.313   8.723 -2.7092  0.5736  1.1999
  801MOL0     H10493   2.533   9.474   8.706 -0.4080 -0.4923  1.0850
  801MOL0     H10494   2.792   9.531   8.635 -1.8963  1.1097  1.8282
  801MOL0     H10495   2.801   9.359   8.616 -0.4912  0.0561 -1.8460
  801MOL0     H10496   2.620   9.485   8.258  1.8578 -0.9645  0.4845
  801MOL0     H10497   2.600   9.751   8.045  2.5206 -1.2750 -1.0490
  801MOL0     H10498   2.428   9.718   8.067  0.3637 -3.5030 -2.0454
  801MOL0     H10499   2.536   9.583   8.065 -0.5277  0.6004  0.8809
  801MOL0     H10500   2.575  10.231   8.460 -0.6136  2.8917  2.3857
  801MOL0     H10501   2.520  10.464   8.405 -2.3787  1.3119 -0.0603
  801MOL0     H10502   2.166  10.529   8.278  0.7096 -0.4241 -2.3742
  801MOL0     H10503   2.249  10.667   8.340 -0.3723 -2.4151  1.1556
  801MOL0     H10504   2.082  10.738   8.172  1.2937  0.1777  0.3579
  801MOL0     H10505   2.246  10.762   8.106 -2.4050  2.1469  0.1312
  801MOL0     H10506   2.037  10.553   8.037 -1.8604  1.1899 -0.7076
  801MOL0     H10507   2.215  10.531   7.996 -1.8372 -0.5931  2.0473
  801MOL0     H10508   2.205  10.733   7.857  0.3222 -2.2303 -2.2501
  801MOL0     H10509   2.052  10.784   7.911  0.4537  1.4529 -2.9868
  801MOL0     H10510   1.965  10.584   7.793 -0.4980  0.3432 -0.1710
  801MOL0     H10511   2.067  10.674   7.684 -2.3205 -2.8409 -1.7423
  801MOL0     H10512   2.152  10.418   7.828  1.0808 -2.8498 -2.6993
  801MOL0     H10513   2.252  10.516   7.715  1.8921 -2.3142  2.4005
  801MOL0     H10514   2.057  10.467   7.549 -0.3868  2.9708  0.8055
  801MOL0     H10515   1.969  10.388   7.674  1.0206  1.3282  1.3797
  801MOL0     H10516   2.218  10.275   7.550 -0.6108  1.4032 -0.3847
  801MOL0     H10517   2.043  10.208   7.547  0.8348 -0.7902  0.3659
  801MOL0     H10518   2.223  10.338   8.124 -0.5716 -2.1247 -0.5462
  801MOL0     H10519   2.230  10.102   8.220 -1.9823  0.2545  1.9203
  801MOL0     H10520   2.507   9.867   8.547 -0.3805 -1.7645  1.6904
  801MOL0     H10521   2.597   9.676   8.634  2.0904 -2.0374 -0.2466
  801MOL0     H10522   2.407  10.870   9.220 -0.0150  1.2770 -0.6391
  801MOL0     H10523   2.346  11.024   9.420 -0.5408  0.2701  1.0853
  801MOL0     H10524   2.255  11.099   9.811 -0.8840  1.1117  1.4956
  801MOL0     H10525   2.184  11.306   9.929  0.6997 -1.2707  3.1515
  801MOL0     H10526   2.135  11.494   9.999 -0.6942 -0.6015  0.0139
  801MOL0     H10527   2.219  11.473  10.144  0.2305  2.0723  0.5042
  801MOL0     H10528   2.325  11.713  10.060 -0.1328 -1.4724 -4.2052
  801MOL0     H10529   2.208  11.687  10.187 -0.2490 -0.1218 -0.2420
  801MOL0     H10530   2.182  11.864  10.004 -3.6365  0.9647  0.7214
  801MOL0     H10531   2.122  11.727   9.895 -1.4135 -2.3378  0.2705
  801MOL0     H10532   1.996  11.778  10.167  4.3805  0.1253  0.0362
  801MOL0     H10533   1.955  11.665  10.032  3.5170 -1.2156 -3.0066
  801MOL0     H10534   1.752  11.998   9.913 -1.6252 -1.0067  0.6171
  801MOL0     H10535   2.581  11.429   9.956  1.0128 -0.7804 -0.7795
  801MOL0     H10536   2.726  11.310   9.722 -1.0708  0.9599  0.1784
  801MOL0     H10537   2.769  11.331   9.891 -2.0403  1.4175  0.6851
  801MOL0     H10538   2.771  11.168   9.820 -2.8896 -2.8655  0.6962
  802MOL0     O10539   2.478   3.205   5.086  0.1234 -0.5825 -1.0287
  802MOL0     C10540   2.600   3.219   5.061  0.0290 -0.3400 -0.2459
  802MOL0     O10541   2.658   3.279   4.953  0.1992 -0.2404  0.7825
  802MOL0     C10542   2.576   3.364   4.887 -0.0040  0.2980 -0.0180
  802MOL0     C10543   2.616   3.502   4.867 -0.1321  0.0204  0.4921
  802MOL0     C10544   2.536   3.586   4.789 -0.4769  0.5579 -0.0129
  802MOL0     C10545   2.432   3.535   4.719  0.5217  0.7363 -0.1948
  802MOL0     O10546   2.375   3.626   4.640  0.5962 -0.1854  0.1030
  802MOL0     C10547   2.242   3.593   4.596  0.7670  0.6199  0.7760
  802MOL0     C10548   2.168   3.709   4.546  0.5656 -1.0572  0.2296
  802MOL0     C10549   2.014   3.662   4.549  0.2277  0.0149 -0.0257
  802MOL0     C10550   1.933   3.771   4.482 -0.0214 -0.0650  0.2665
  802MOL0     C10551   1.782   3.744   4.477 -0.3874  0.1208 -0.7277
  802MOL0     C10552   1.747   3.628   4.379 -0.1535  0.2140  0.8006
  802MOL0     C10553   1.664   3.523   4.449 -0.1647 -0.5696 -0.3372
  802MOL0     C10554   1.663   3.391   4.378 -0.1207  0.3013  0.2528
  802MOL0     N10555   1.574   3.294   4.439 -0.3761 -0.6120 -0.3387
  802MOL0     C10556   1.582   3.238   4.565  0.6042 -1.3954  1.0767
  802MOL0     C10557   1.505   3.134   4.567  0.1846 -0.2103 -0.5520
  802MOL0     C10558   1.502   3.030   4.674 -1.0980  1.1547  0.2286
  802MOL0     C10559   1.373   2.945   4.658  0.0374  0.6763  0.2753
  802MOL0     C10560   1.375   2.835   4.751  0.4160 -0.0213 -0.0562
  802MOL0     C10561   1.251   2.746   4.726  0.2570 -0.9482  0.2072
  802MOL0     O10562   1.272   2.694   4.597 -0.5401  0.7114  0.2185
  802MOL0     C10563   1.166   2.648   4.528 -1.3534  0.8281 -0.5654
  802MOL0     C10564   1.186   2.653   4.390 -1.0247 -0.2045 -0.1223
  802MOL0     C10565   1.077   2.618   4.313 -0.2421  0.2816 -0.0459
  802MOL0     C10566   1.110   2.621   4.162 -0.9956 -0.0598 -0.3077
  802MOL0     C10567   0.946   2.584   4.362 -0.8390 -0.2501  0.0620
  802MOL0     C10568   0.820   2.564   4.279  0.2097 -0.0013  0.7027
  802MOL0     O10569   0.712   2.635   4.325  0.2463 -0.2456  0.0407
  802MOL0     C10570   0.602   2.651   4.243  0.3180  0.3854  1.0766
  802MOL0     C10571   0.587   2.772   4.176  0.2451 -0.3732  0.1733
  802MOL0     C10572   0.467   2.792   4.107 -0.2544 -0.4733 -0.1206
  802MOL0     C10573   0.368   2.696   4.086 -0.3654  0.1905 -0.1571
  802MOL0     O10574   0.272   2.731   3.992 -0.8439 -0.0745  0.9485
  802MOL0     C10575   0.191   2.617   3.940  0.3436 -0.5259  0.7004
  802MOL0     C10576   0.177   2.661   3.789  0.5287  0.1014  0.4307
  802MOL0     C10577   0.153   2.813   3.770  0.9963  0.2749 -0.5526
  802MOL0     C10578   0.085   2.843   3.635  0.1599  1.2576  0.5183
  802MOL0     C10579   0.163   2.778   3.520  0.1794  0.0379 -0.3513
  802MOL0     C10580   0.099   2.817   3.389  0.6873  0.8019  0.2661
  802MOL0     C10581  -0.057   2.787   3.365  0.7034  1.1071  0.7178
  802MOL0     C10582  -0.125   2.897   3.292 -0.2070  0.0240  0.0824
  802MOL0    Cl10583  -0.072   2.900   3.121  0.0268  0.1245  0.1732
  802MOL0     C10584   0.377   2.581   4.168 -0.3110  0.9476 -0.0617
  802MOL0     C10585   0.496   2.566   4.241 -0.1079 -0.4729 -0.7143
  802MOL0     O10586   0.811   2.492   4.179 -0.8538 -0.6536  0.2371
  802MOL0     C10587   0.930   2.574   4.500 -0.6615  0.5160  0.0262
  802MOL0     C10588   1.043   2.599   4.583 -0.2427 -0.3570  0.0701
  802MOL0     N10589   1.433   3.131   4.449  0.1933  0.1639  0.2601
  802MOL0     N10590   1.459   3.237   4.382 -0.8521 -0.7801  0.2799
  802MOL0     C10591   2.397   3.399   4.733  0.6710 -0.7673  0.2366
  802MOL0     C10592   2.465   3.320   4.813 -0.5277  0.4016  0.0796
  802MOL0     C10593   2.688   3.139   5.155  0.4220  0.2940  0.4852
  802MOL0     C10594   2.639   3.016   5.204 -0.5620 -0.6980 -0.2483
  802MOL0     C10595   2.707   2.945   5.303 -0.6332  0.0481 -0.6274
  802MOL0     C10596   2.833   2.997   5.355 -0.0475  1.0511 -0.0265
  802MOL0     O10597   2.911   2.937   5.452 -0.5017  0.1246 -0.2148
  802MOL0     C10598   2.863   2.834   5.538  1.4981  0.3773  0.5002
  802MOL0     C10599   2.954   2.775   5.648  0.9109  0.2540 -0.6704
  802MOL0     C10600   2.988   2.880   5.754  0.2876  0.2900  0.0058
  802MOL0     C10601   3.098   2.984   5.720  0.2190  0.2004  0.0350
  802MOL0     C10602   3.228   2.933   5.694 -1.3586 -0.3724  0.1950
  802MOL0     C10603   3.343   2.894   5.685  0.3720 -0.5480 -0.9427
  802MOL0     C10604   2.883   3.115   5.293  0.0561  0.4357 -0.6832
  802MOL0     C10605   2.813   3.183   5.198  0.9261 -0.2725  0.6598
  802MOL0     C10606   2.883   3.307   5.138 -0.6983  0.0600 -0.1687
  802MOL0     H10607   2.703   3.526   4.927 -0.7281  0.7421  1.0780
  802MOL0     H10608   2.558   3.692   4.794 -0.9230  0.6084  2.8839
  802MOL0     H10609   2.198   3.558   4.690  1.9936  2.6116  2.1673
  802MOL0     H10610   2.229   3.514   4.522 -3.1809  2.1824 -0.4499
  802MOL0     H10611   2.173   3.788   4.621 -2.0637 -1.3306  0.7915
  802MOL0     H10612   2.213   3.741   4.452  1.4710  2.4614  1.6936
  802MOL0     H10613   2.007   3.562   4.503 -0.1692 -0.4465  1.0043
  802MOL0     H10614   1.975   3.649   4.650  0.0352  1.8953  0.1701
  802MOL0     H10615   1.939   3.866   4.535  1.5395  0.2674 -0.4552
  802MOL0     H10616   1.975   3.804   4.387  0.2520  0.3746  0.5380
  802MOL0     H10617   1.736   3.837   4.441 -2.1231 -0.9143 -1.2956
  802MOL0     H10618   1.744   3.726   4.578 -0.3429  0.9507 -0.5560
  802MOL0     H10619   1.692   3.667   4.293 -1.5379  0.3131  1.6856
  802MOL0     H10620   1.838   3.585   4.337  0.6754  0.6908  2.0284
  802MOL0     H10621   1.563   3.566   4.450 -0.4613 -1.0493  2.9726
  802MOL0     H10622   1.704   3.505   4.549 -1.0940  1.3357  0.4244
  802MOL0     H10623   1.633   3.399   4.273 -0.9998 -2.8816  0.1650
  802MOL0     H10624   1.764   3.350   4.381 -0.6861 -1.0960  2.4988
  802MOL0     H10625   1.652   3.272   4.641 -1.3310  1.6024  1.6818
  802MOL0     H10626   1.521   3.069   4.775 -2.4897 -0.1793  1.0505
  802MOL0     H10627   1.585   2.962   4.654 -1.8118  0.4835 -0.5000
  802MOL0     H10628   1.286   3.008   4.682 -0.6039  1.2279 -3.0149
  802MOL0     H10629   1.365   2.902   4.558 -0.4917 -2.8357  1.6874
  802MOL0     H10630   1.457   2.762   4.744 -0.6047 -1.1197 -1.1977
  802MOL0     H10631   1.378   2.873   4.853  0.0724  1.8517 -0.7148
  802MOL0     H10632   1.243   2.675   4.808 -1.8052  1.2491  2.0883
  802MOL0     H10633   1.158   2.802   4.712 -0.4656 -2.0073  0.7401
  802MOL0     H10634   1.281   2.686   4.347 -0.6018 -0.3587  0.6814
  802MOL0     H10635   1.078   2.525   4.123 -1.0997 -0.7741  1.4448
  802MOL0     H10636   1.217   2.632   4.142 -0.7800 -1.6624 -0.1584
  802MOL0     H10637   1.053   2.693   4.103  0.6323  0.5127 -1.2698
  802MOL0     H10638   0.660   2.851   4.184  0.2622 -0.5902  3.0183
  802MOL0     H10639   0.465   2.882   4.045  0.4360 -0.9219 -0.8297
  802MOL0     H10640   0.225   2.514   3.952 -3.3226 -1.9026  0.5143
  802MOL0     H10641   0.095   2.630   3.991 -0.0888  0.2103 -0.2583
  802MOL0     H10642   0.259   2.619   3.729  0.3396 -0.3414  0.4789
  802MOL0     H10643   0.089   2.617   3.741 -0.3721  1.0570  1.1428
  802MOL0     H10644   0.252   2.858   3.776  0.8574  0.6110 -0.7941
  802MOL0     H10645   0.095   2.859   3.851  0.9815 -1.2024  0.3213
  802MOL0     H10646   0.078   2.949   3.611  1.3354  1.5384  1.3402
  802MOL0     H10647  -0.011   2.790   3.636 -0.9208  3.0882 -0.4233
  802MOL0     H10648   0.263   2.824   3.521 -0.0126  0.4697  0.6906
  802MOL0     H10649   0.161   2.669   3.519 -0.9657  0.0353  0.5579
  802MOL0     H10650   0.141   2.751   3.312 -2.8915 -0.9223 -0.4018
  802MOL0     H10651   0.120   2.920   3.359 -0.8718  1.8594  2.5486
  802MOL0     H10652  -0.116   2.789   3.457 -0.3981  1.6335  0.0168
  802MOL0     H10653  -0.076   2.688   3.323  0.0826  0.1736  3.0602
  802MOL0     H10654  -0.110   2.991   3.345 -1.4318  0.6640 -0.6547
  802MOL0     H10655  -0.233   2.879   3.290 -0.5875  1.2408  3.5503
  802MOL0     H10656   0.306   2.499   4.173 -0.0127  0.6166 -0.9393
  802MOL0     H10657   0.513   2.473   4.294  0.8076 -0.4818 -1.0159
  802MOL0     H10658   0.831   2.548   4.536 -1.4077 -0.2148 -2.3918
  802MOL0     H10659   1.021   2.596   4.689 -0.1112 -0.5615  0.0919
  802MOL0     H10660   2.316   3.355   4.677  2.1636 -1.7261 -1.2465
  802MOL0     H10661   2.437   3.215   4.824  0.7315 -0.3989 -3.1540
  802MOL0     H10662   2.548   2.974   5.164 -1.1518 -2.0582  2.2774
  802MOL0     H10663   2.666   2.855   5.345 -0.0806 -0.0264 -0.2315
  802MOL0     H10664   2.769   2.871   5.579  1.1625 -0.5747  0.6103
  802MOL0     H10665   2.843   2.747   5.474  4.1028  0.4061 -0.4749
  802MOL0     H10666   3.049   2.757   5.597  1.3288 -0.2321  0.2592
  802MOL0     H10667   2.914   2.685   5.696  3.1870 -1.0511 -1.0762
  802MOL0     H10668   2.889   2.920   5.774 -0.5047 -1.9098  0.7632
  802MOL0     H10669   3.026   2.826   5.841  1.9781  1.0415 -0.2328
  802MOL0     H10670   3.095   3.055   5.803 -0.7029 -0.7250  0.8210
  802MOL0     H10671   3.065   3.048   5.637 -3.4868  1.8857  2.5173
  802MOL0     H10672   3.449   2.877   5.681  0.2918 -1.3500 -0.0013
  802MOL0     H10673   2.977   3.161   5.321 -0.1923  1.9185 -2.1184
  802MOL0     H10674   2.824   3.399   5.145 -0.6147  0.2779 -1.8826
  802MOL0     H10675   2.981   3.337   5.177 -1.4713  0.6636  1.4107
  802MOL0     H10676   2.901   3.287   5.032 -1.2539 -2.8350  0.1799
  803MOL0     O10677   9.526   9.171   9.604 -0.1365  0.1731 -0.0563
  803MOL0     C10678   9.523   9.157   9.726  0.0393 -0.1993  0.0248
  803MOL0     O10679   9.629   9.138   9.803 -0.1017  0.0783 -0.2550
  803MOL0     C10680   9.760   9.166   9.774 -0.1122  0.0977 -0.2701
  803MOL0     C10681   9.850   9.186   9.880 -0.9652 -0.0320 -0.2752
  803MOL0     C10682   9.985   9.215   9.863  1.6441  0.6041  0.0017
  803MOL0     C10683  10.043   9.213   9.732 -0.3580  0.4468  0.2146
  803MOL0     O10684  10.171   9.246   9.711  0.5511  0.7372 -0.0728
  803MOL0     C10685  10.237   9.223   9.580 -1.0759 -0.5053  0.1441
  803MOL0     C10686  10.383   9.283   9.602 -0.3021 -0.5788  0.1869
  803MOL0     C10687  10.381   9.436   9.638 -0.3967 -0.1709 -0.1966
  803MOL0     C10688  10.387   9.510   9.510 -0.0261 -0.8775  0.7574
  803MOL0     C10689  10.341   9.655   9.522 -0.0058 -0.9591  0.2375
  803MOL0     C10690  10.340   9.727   9.383  0.0095  0.1237 -0.7114
  803MOL0     C10691  10.346   9.873   9.404 -0.5555 -0.8798 -1.0065
  803MOL0     C10692  10.350   9.965   9.273  0.6193  0.8820  0.7804
  803MOL0     N10693  10.210   9.966   9.225  0.8645  0.3764  0.6102
  803MOL0     C10694  10.115  10.044   9.287 -0.1228 -1.0244 -0.1891
  803MOL0     C10695   9.997   9.988   9.244 -0.3909 -1.2123 -0.2692
  803MOL0     C10696   9.862  10.063   9.280  0.1988  0.0307  0.4439
  803MOL0     C10697   9.816  10.148   9.163 -0.4146  0.4858  0.0016
  803MOL0     C10698   9.784  10.076   9.031  0.0015  0.3785  0.1757
  803MOL0     C10699   9.693   9.953   9.038  0.6150  1.0368  0.2015
  803MOL0     O10700   9.560   9.991   9.095 -0.7967 -0.0184  0.1522
  803MOL0     C10701   9.491   9.877   9.146 -0.5575 -0.1147  0.0250
  803MOL0     C10702   9.449   9.776   9.057  0.1938 -0.5075  0.1574
  803MOL0     C10703   9.385   9.663   9.108 -0.8511  1.0886 -0.2776
  803MOL0     C10704   9.333   9.564   9.002 -0.8204  0.4012 -0.0740
  803MOL0     C10705   9.376   9.643   9.254  0.4620  0.2827  0.7283
  803MOL0     C10706   9.307   9.524   9.310  0.2262  0.4189 -0.5085
  803MOL0     O10707   9.290   9.404   9.241 -0.0420 -0.7678 -0.9284
  803MOL0     C10708   9.204   9.311   9.307 -1.5981  0.1903 -0.6669
  803MOL0     C10709   9.258   9.190   9.371  1.1160  0.6266  0.6388
  803MOL0     C10710   9.169   9.099   9.422 -0.0824  0.3384  0.1533
  803MOL0     C10711   9.025   9.116   9.415 -0.3566  0.7160  0.2327
  803MOL0     O10712   8.925   9.027   9.437 -0.2003  0.8063 -0.2584
  803MOL0     C10713   8.945   8.902   9.502  0.0208  0.4679 -0.1941
  803MOL0     C10714   8.816   8.819   9.467 -0.8834 -0.5868  0.8322
  803MOL0     C10715   8.796   8.779   9.323  0.4950  0.6602  0.5319
  803MOL0     C10716   8.727   8.890   9.237 -0.1336  0.3849 -0.1612
  803MOL0     C10717   8.693   8.838   9.092 -0.5150  0.5100 -0.2529
  803MOL0     C10718   8.638   8.947   8.998 -0.4560  0.3136  0.3721
  803MOL0     C10719   8.569   8.863   8.878 -0.0229 -1.0985 -0.7936
  803MOL0     C10720   8.512   8.963   8.773 -0.4845  0.3726 -0.1953
  803MOL0    Cl10721   8.645   9.050   8.705 -0.2042  0.3949 -0.0004
  803MOL0     C10722   8.975   9.236   9.365 -0.0793  0.1572 -0.1497
  803MOL0     C10723   9.070   9.325   9.306 -0.0576  0.9542  0.8506
  803MOL0     O10724   9.275   9.539   9.431 -0.8193  0.6264 -0.0978
  803MOL0     C10725   9.422   9.747   9.334 -0.2562  0.1842 -0.6704
  803MOL0     C10726   9.482   9.864   9.280 -0.0845 -0.9001 -0.1479
  803MOL0     N10727  10.015   9.883   9.152 -0.4114 -0.7141  0.5925
  803MOL0     N10728  10.142   9.874   9.146 -0.2027 -0.3474 -0.3105
  803MOL0     C10729   9.953   9.167   9.628  0.3598 -0.4411  0.0794
  803MOL0     C10730   9.822   9.145   9.647  0.2027 -0.7621  0.0920
  803MOL0     C10731   9.384   9.162   9.783 -0.4749  0.1952  1.2019
  803MOL0     C10732   9.283   9.217   9.701  0.7221 -0.1780 -0.8855
  803MOL0     C10733   9.155   9.227   9.749  1.1462  1.2252  0.2475
  803MOL0     C10734   9.121   9.186   9.877  0.1152  0.2065  0.4839
  803MOL0     O10735   8.991   9.197   9.917 -0.2271  0.2399  0.0893
  803MOL0     C10736   8.944   9.144  10.036 -0.1085  1.0136  0.1372
  803MOL0     C10737   8.801   9.145  10.019  0.1334  0.1820  0.6616
  803MOL0     C10738   8.754   9.047   9.910 -0.3930 -1.4039  0.4368
  803MOL0     C10739   8.603   9.033   9.899  0.6492  0.7666  0.6198
  803MOL0     C10740   8.555   8.941   9.797  0.2662  0.6236 -0.3572
  803MOL0     C10741   8.516   8.864   9.709 -0.0012 -0.3310 -0.6358
  803MOL0     C10742   9.218   9.126   9.957 -0.1252 -0.3412  0.3457
  803MOL0     C10743   9.349   9.118   9.915 -0.5750  0.3186  1.3457
  803MOL0     C10744   9.451   9.056  10.010  0.0654 -0.3320 -0.0859
  803MOL0     H10745   9.795   9.197   9.973  1.4087  0.6243  1.1350
  803MOL0     H10746  10.040   9.237   9.954 -0.4872  0.9298  1.2655
  803MOL0     H10747  10.183   9.285   9.507 -2.5802  1.6646  2.8922
  803MOL0     H10748  10.245   9.120   9.546 -0.4417  0.2733 -2.2603
  803MOL0     H10749  10.420   9.222   9.685  1.1943 -0.0638 -0.0655
  803MOL0     H10750  10.456   9.256   9.525  0.3015  0.2258  0.4714
  803MOL0     H10751  10.290   9.463   9.694  0.7975  1.3299  1.1153
  803MOL0     H10752  10.469   9.456   9.700 -0.7715  0.4454  0.1470
  803MOL0     H10753  10.490   9.502   9.472  0.7837 -0.0237  2.6422
  803MOL0     H10754  10.325   9.461   9.434 -0.5838 -0.3749  0.8843
  803MOL0     H10755  10.404   9.703   9.597 -0.1727 -0.3440 -0.0094
  803MOL0     H10756  10.244   9.662   9.571 -0.9809  0.9486 -1.7516
  803MOL0     H10757  10.411   9.692   9.307  1.7825  0.5381  0.6578
  803MOL0     H10758  10.241   9.702   9.347  0.6974 -0.8275 -2.0054
  803MOL0     H10759  10.442   9.897   9.452  0.3729 -3.1217 -1.6235
  803MOL0     H10760  10.264   9.896   9.473  0.2687  0.3317 -0.3970
  803MOL0     H10761  10.387  10.066   9.293 -0.2618  1.3140  0.3455
  803MOL0     H10762  10.406   9.908   9.199 -1.3757 -1.1628  0.7346
  803MOL0     H10763  10.115  10.128   9.356 -0.2450 -2.0335  1.0780
  803MOL0     H10764   9.891  10.132   9.360 -1.2373  2.4879 -1.0018
  803MOL0     H10765   9.784   9.999   9.322 -0.3310  1.0852  1.1028
  803MOL0     H10766   9.729  10.208   9.195 -0.4126  0.5353 -0.0851
  803MOL0     H10767   9.895  10.220   9.142  0.0956  0.6137  2.0957
  803MOL0     H10768   9.740  10.155   8.970  0.9273  0.1840 -0.7853
  803MOL0     H10769   9.868  10.040   8.970 -0.6932  1.5925 -1.5809
  803MOL0     H10770   9.680   9.918   8.935  0.8737 -0.2300  0.5874
  803MOL0     H10771   9.737   9.867   9.089 -0.7721 -0.4814 -1.0691
  803MOL0     H10772   9.455   9.789   8.950  0.3899  0.9460  0.3169
  803MOL0     H10773   9.387   9.471   9.017  1.0245  1.2096 -1.3425
  803MOL0     H10774   9.344   9.593   8.897 -1.6649  0.2098 -0.2302
  803MOL0     H10775   9.224   9.554   9.014 -0.9838  1.0758 -0.8765
  803MOL0     H10776   9.362   9.162   9.370  0.3971 -2.6085 -1.8950
  803MOL0     H10777   9.193   8.999   9.456 -3.9558  0.0046  2.5728
  803MOL0     H10778   9.029   8.850   9.456  1.1272  0.8828  1.2779
  803MOL0     H10779   8.952   8.916   9.610  1.4496 -2.9677  0.3126
  803MOL0     H10780   8.825   8.734   9.536  1.1403 -0.4206  0.8462
  803MOL0     H10781   8.729   8.873   9.504 -1.2522  0.2127 -1.0957
  803MOL0     H10782   8.746   8.684   9.302  4.2401 -1.3206 -0.2997
  803MOL0     H10783   8.892   8.760   9.272  0.4678  1.0734  0.3211
  803MOL0     H10784   8.802   8.970   9.234  1.5980 -1.1516  0.2387
  803MOL0     H10785   8.638   8.930   9.287  1.0121 -0.0644  2.4499
  803MOL0     H10786   8.794   8.816   9.055  0.4650 -0.1378  2.5346
  803MOL0     H10787   8.625   8.753   9.084 -3.5597  2.7802 -0.1375
  803MOL0     H10788   8.711   9.022   8.968 -0.5347 -0.3112 -1.4864
  803MOL0     H10789   8.557   9.003   9.048  1.2093  3.5414 -0.2709
  803MOL0     H10790   8.485   8.798   8.903 -1.3113  0.4683 -0.8988
  803MOL0     H10791   8.646   8.800   8.831 -2.1603 -4.8620  0.2855
  803MOL0     H10792   8.441   9.039   8.805  0.6923  1.1553  0.6137
  803MOL0     H10793   8.459   8.907   8.695 -3.2105 -1.6348  2.8325
  803MOL0     H10794   8.868   9.252   9.362 -0.4711 -2.0151  0.4607
  803MOL0     H10795   9.036   9.420   9.264 -0.6722  1.6098  2.7205
  803MOL0     H10796   9.396   9.743   9.439 -1.0857  2.3192 -0.7452
  803MOL0     H10797   9.506   9.938   9.357 -1.6688  0.0480 -0.5129
  803MOL0     H10798   9.992   9.167   9.527 -1.5731  5.3258 -1.0250
  803MOL0     H10799   9.763   9.129   9.557  1.8647 -2.5011 -0.7694
  803MOL0     H10800   9.310   9.259   9.604 -1.6247  0.6238 -1.2651
  803MOL0     H10801   9.085   9.278   9.683 -0.5173  2.6772  2.9506
  803MOL0     H10802   8.988   9.046  10.056  1.3967  1.5427 -0.3950
  803MOL0     H10803   8.960   9.207  10.125 -1.4515  1.0778  0.3450
  803MOL0     H10804   8.774   9.250  10.001  1.5202  0.8584  2.2836
  803MOL0     H10805   8.747   9.105  10.105 -1.5709  1.5535  0.2998
  803MOL0     H10806   8.783   9.078   9.809  0.1721 -2.7180  0.1601
  803MOL0     H10807   8.818   8.960   9.930  2.3633  0.6760  1.2708
  803MOL0     H10808   8.565   9.130   9.867 -2.6979 -0.6306 -0.0446
  803MOL0     H10809   8.560   9.002   9.995  1.8598 -0.9630  0.6399
  803MOL0     H10810   8.470   8.791   9.646 -0.3444  0.1849 -0.9894
  803MOL0     H10811   9.196   9.092  10.058 -0.5758  0.5831  0.5640
  803MOL0     H10812   9.407   9.024  10.106 -1.7015  1.1407 -0.3364
  803MOL0     H10813   9.494   8.968   9.960 -1.8603 -1.4638  0.1151
  803MOL0     H10814   9.524   9.134  10.028  0.1793 -0.6022  0.6581
  804MOL0     O10815   1.683   8.034   1.670 -0.2888  0.5484 -0.1711
  804MOL0     C10816   1.675   8.013   1.791  0.1812 -0.8079  0.2011
  804MOL0     O10817   1.662   7.887   1.844  0.2140 -0.3436  0.2815
  804MOL0     C10818   1.680   7.784   1.750 -0.2409  0.7935 -1.3660
  804MOL0     C10819   1.804   7.719   1.740  0.6660 -0.1736  0.5406
  804MOL0     C10820   1.807   7.601   1.661 -0.4103 -0.6512  0.3184
  804MOL0     C10821   1.698   7.548   1.585  0.4184 -0.4767  0.6291
  804MOL0     O10822   1.699   7.434   1.503  0.4855  1.0667 -1.0818
  804MOL0     C10823   1.830   7.385   1.462  0.6260 -0.6586  0.5886
  804MOL0     C10824   1.816   7.258   1.371 -0.2644 -0.8419 -0.5143
  804MOL0     C10825   1.811   7.131   1.454 -0.2586 -0.2343 -0.5158
  804MOL0     C10826   1.820   7.010   1.362 -0.1491  0.2776  0.2240
  804MOL0     C10827   1.868   6.881   1.425  0.7008 -0.1485 -0.5391
  804MOL0     C10828   1.869   6.755   1.339 -0.0844  0.2153 -0.6597
  804MOL0     C10829   1.737   6.717   1.297 -0.3097  0.0163 -1.0434
  804MOL0     C10830   1.719   6.587   1.206  0.7107 -0.6064 -0.6750
  804MOL0     N10831   1.766   6.470   1.280 -0.4794  0.5930 -0.0722
  804MOL0     C10832   1.754   6.440   1.410 -0.7640 -0.7339  0.2193
  804MOL0     C10833   1.816   6.324   1.421 -0.5721  0.8299 -0.2315
  804MOL0     C10834   1.834   6.246   1.551 -0.0845  0.6530 -0.3503
  804MOL0     C10835   1.703   6.232   1.627  0.2856  0.3845  0.0468
  804MOL0     C10836   1.702   6.142   1.750 -0.2812  0.6142  0.1362
  804MOL0     C10837   1.568   6.070   1.782 -0.1662  0.0650 -0.5417
  804MOL0     O10838   1.464   6.171   1.783 -0.2340  0.0190  0.1119
  804MOL0     C10839   1.417   6.236   1.890  0.2334 -0.2553 -1.4167
  804MOL0     C10840   1.441   6.203   2.026  0.0018 -0.0953 -0.6596
  804MOL0     C10841   1.390   6.283   2.137  0.4253  0.7376 -0.2562
  804MOL0     C10842   1.431   6.228   2.272 -0.2727  0.3222  0.0162
  804MOL0     C10843   1.318   6.400   2.112  0.3151  1.1433 -0.1819
  804MOL0     C10844   1.268   6.498   2.214 -0.1087  0.7169  0.4852
  804MOL0     O10845   1.248   6.624   2.168  0.6192 -0.2632  0.5016
  804MOL0     C10846   1.216   6.728   2.260  0.1460 -0.3161 -0.2176
  804MOL0     C10847   1.145   6.829   2.205  0.9348  0.7539 -0.6028
  804MOL0     C10848   1.119   6.936   2.275  0.1073 -0.0748 -0.4201
  804MOL0     C10849   1.161   6.958   2.407 -0.4207 -1.1442  0.2846
  804MOL0     O10850   1.132   7.081   2.464  0.5981 -0.3239 -0.4504
  804MOL0     C10851   1.195   7.124   2.586 -0.9113 -0.5623 -0.7768
  804MOL0     C10852   1.104   7.226   2.643 -0.1985 -0.4528 -0.8448
  804MOL0     C10853   1.107   7.381   2.593 -0.0250  0.6374  0.1468
  804MOL0     C10854   1.029   7.478   2.689  0.1322  0.2614 -0.3079
  804MOL0     C10855   1.056   7.631   2.656  0.1853 -0.2582 -0.5605
  804MOL0     C10856   0.953   7.715   2.725  0.6092 -0.7319 -0.3308
  804MOL0     C10857   0.946   7.853   2.659  0.1363  0.4359 -0.3253
  804MOL0     C10858   0.858   7.949   2.749 -1.6094 -0.0086  0.1576
  804MOL0    Cl10859   0.922   7.989   2.911 -0.2986 -0.0134 -0.0029
  804MOL0     C10860   1.233   6.854   2.461  0.2779 -0.1737 -0.7069
  804MOL0     C10861   1.260   6.735   2.395  0.4983  0.2036 -0.2904
  804MOL0     O10862   1.245   6.456   2.330  0.3410  1.1285 -1.0396
  804MOL0     C10863   1.286   6.427   1.974  1.0912 -0.0280  0.9210
  804MOL0     C10864   1.328   6.344   1.865 -0.4699  1.1460  0.1192
  804MOL0     N10865   1.883   6.289   1.308  0.2452  0.0685 -0.5915
  804MOL0     N10866   1.839   6.374   1.220 -0.1984  0.4059  0.5214
  804MOL0     C10867   1.586   7.621   1.603  0.1946  0.3247 -0.2585
  804MOL0     C10868   1.577   7.734   1.678  1.6054 -0.2939 -0.0264
  804MOL0     C10869   1.675   8.135   1.883  0.4516  0.9627  0.5786
  804MOL0     C10870   1.702   8.108   2.018 -0.7543  0.0882 -0.0885
  804MOL0     C10871   1.710   8.217   2.113  0.6127  1.5154  0.0760
  804MOL0     C10872   1.682   8.348   2.081 -0.0851 -0.5337 -0.1818
  804MOL0     O10873   1.697   8.450   2.177 -0.4670  0.4781 -0.4650
  804MOL0     C10874   1.673   8.587   2.140  0.3886 -0.3667 -0.2330
  804MOL0     C10875   1.692   8.692   2.254 -0.0037 -0.6553 -1.0184
  804MOL0     C10876   1.789   8.646   2.360  0.8665 -0.2564 -0.3523
  804MOL0     C10877   1.861   8.751   2.443  0.6105  0.2827 -0.7416
  804MOL0     C10878   1.767   8.834   2.520  0.5302 -0.0588 -0.0752
  804MOL0     C10879   1.698   8.904   2.588  0.0117  0.7331 -0.0442
  804MOL0     C10880   1.654   8.374   1.945 -0.4007  0.1371  0.5260
  804MOL0     C10881   1.651   8.274   1.845 -0.0107  0.4335  0.1499
  804MOL0     C10882   1.615   8.310   1.707  0.2675  0.7399 -0.4567
  804MOL0     H10883   1.888   7.742   1.804 -0.6245  3.5052  1.1648
  804MOL0     H10884   1.889   7.532   1.677 -0.0778 -0.0898  1.1074
  804MOL0     H10885   1.907   7.372   1.538  1.3319  1.0286  0.1879
  804MOL0     H10886   1.856   7.460   1.388  0.1509 -3.2221 -2.4011
  804MOL0     H10887   1.728   7.281   1.311  1.0256 -0.3011 -2.2918
  804MOL0     H10888   1.898   7.260   1.298 -0.1494  2.5385 -0.4249
  804MOL0     H10889   1.882   7.130   1.538  1.1693  1.0955 -1.6634
  804MOL0     H10890   1.713   7.128   1.504 -1.9601 -0.2544 -3.6418
  804MOL0     H10891   1.720   6.994   1.323  0.1374  0.3298 -0.5427
  804MOL0     H10892   1.895   7.029   1.285  0.7547 -1.3335  0.6603
  804MOL0     H10893   1.800   6.868   1.509  1.8230  2.0599  0.8084
  804MOL0     H10894   1.967   6.899   1.469  2.2745  3.6705 -4.8088
  804MOL0     H10895   1.918   6.769   1.242  0.9358  0.4489 -0.1235
  804MOL0     H10896   1.911   6.671   1.394 -2.2535 -1.0327 -0.8165
  804MOL0     H10897   1.693   6.798   1.239 -1.6292 -1.3780 -2.0683
  804MOL0     H10898   1.667   6.714   1.382 -1.7496  1.6939 -2.1089
  804MOL0     H10899   1.611   6.576   1.191  0.1038  0.5122  2.2108
  804MOL0     H10900   1.765   6.599   1.108 -1.6976 -0.4186 -1.8430
  804MOL0     H10901   1.684   6.472   1.486 -1.4002  0.0184 -0.6710
  804MOL0     H10902   1.906   6.275   1.627 -0.7124  1.0293  0.1156
  804MOL0     H10903   1.863   6.147   1.516  1.8695  0.5069  1.5170
  804MOL0     H10904   1.656   6.327   1.655 -2.8453 -1.3066  0.9349
  804MOL0     H10905   1.644   6.188   1.547  1.9949 -3.3558  0.6481
  804MOL0     H10906   1.774   6.061   1.740 -0.1907  0.6519  0.4744
  804MOL0     H10907   1.712   6.210   1.835 -1.1910  0.2569  0.5405
  804MOL0     H10908   1.530   5.995   1.713 -2.3514  1.0283 -0.4897
  804MOL0     H10909   1.590   6.032   1.882 -0.9302  1.1639  0.0673
  804MOL0     H10910   1.499   6.114   2.051  0.0755  0.0548 -0.2884
  804MOL0     H10911   1.483   6.306   2.328  1.6608  0.0141 -1.2725
  804MOL0     H10912   1.491   6.137   2.270  0.2075  0.6237  0.3902
  804MOL0     H10913   1.336   6.208   2.323 -0.0359 -0.9935 -0.0416
  804MOL0     H10914   1.112   6.822   2.102 -0.2223 -1.1970 -0.1487
  804MOL0     H10915   1.060   7.015   2.230  2.4388  1.8415 -0.3265
  804MOL0     H10916   1.218   7.045   2.657  1.4162  1.1144  0.4617
  804MOL0     H10917   1.291   7.165   2.552 -2.5310  2.7821 -1.6792
  804MOL0     H10918   1.005   7.182   2.646 -0.4287  0.0587  1.2627
  804MOL0     H10919   1.145   7.237   2.745 -1.4273 -1.7659 -0.1750
  804MOL0     H10920   1.073   7.388   2.489 -2.9200 -2.2154  0.7324
  804MOL0     H10921   1.212   7.411   2.596  0.7337 -1.7516 -0.5124
  804MOL0     H10922   1.052   7.458   2.795 -2.4054 -2.7608 -0.1911
  804MOL0     H10923   0.926   7.441   2.680  0.6436 -1.4343  0.3359
  804MOL0     H10924   1.163   7.646   2.671 -0.1466  0.9854  0.8023
  804MOL0     H10925   1.049   7.645   2.548 -0.6657  1.6318 -0.3054
  804MOL0     H10926   0.973   7.720   2.832  0.1213  2.3185 -0.2882
  804MOL0     H10927   0.858   7.663   2.714  1.0092 -2.0669  1.9384
  804MOL0     H10928   0.910   7.843   2.557  0.7674  0.4950 -0.5596
  804MOL0     H10929   1.047   7.893   2.653  0.4500 -0.4078 -0.7524
  804MOL0     H10930   0.757   7.907   2.748 -1.7222  0.2502  0.3749
  804MOL0     H10931   0.854   8.042   2.691  1.2916 -1.1159 -2.0667
  804MOL0     H10932   1.278   6.858   2.560  0.0896 -1.3111 -0.5545
  804MOL0     H10933   1.310   6.651   2.441 -1.2386 -0.0233  1.3092
  804MOL0     H10934   1.226   6.509   1.936 -0.7533 -1.1028  1.3799
  804MOL0     H10935   1.283   6.358   1.768 -1.6018  1.0880  0.6184
  804MOL0     H10936   1.499   7.588   1.548  1.4560 -3.3846 -0.2666
  804MOL0     H10937   1.479   7.779   1.687  0.3993 -1.7873 -3.5687
  804MOL0     H10938   1.718   8.010   2.060 -2.0457  1.1787  3.2228
  804MOL0     H10939   1.737   8.187   2.214  5.2127 -0.1073 -1.3658
  804MOL0     H10940   1.738   8.615   2.057 -1.7080 -0.1119 -1.9042
  804MOL0     H10941   1.569   8.596   2.107 -0.2484  0.6486  1.8999
  804MOL0     H10942   1.593   8.713   2.294 -1.5593  0.3353 -4.9359
  804MOL0     H10943   1.733   8.790   2.227  1.9574 -0.5714  1.8229
  804MOL0     H10944   1.734   8.584   2.432 -3.3585  0.3912 -2.7516
  804MOL0     H10945   1.869   8.584   2.318  1.6272  1.2379 -1.1919
  804MOL0     H10946   1.914   8.814   2.371 -0.6808  1.7742 -0.4373
  804MOL0     H10947   1.932   8.699   2.507 -0.1698 -1.3036 -1.0809
  804MOL0     H10948   1.627   8.960   2.646  0.0572  0.7089  0.0352
  804MOL0     H10949   1.659   8.477   1.913  2.0675  1.0629  3.3803
  804MOL0     H10950   1.559   8.405   1.705 -1.3227 -0.1663 -0.5832
  804MOL0     H10951   1.702   8.323   1.642  1.8731 -4.1563  0.3645
  804MOL0     H10952   1.551   8.226   1.680 -0.3097 -0.1765  3.1367
  805MOL0     O10953   8.502   6.742   9.671  0.8112  0.7487  0.2733
  805MOL0     C10954   8.489   6.620   9.657 -1.1504  0.2464  0.4698
  805MOL0     O10955   8.519   6.549   9.546 -0.4588 -0.4428 -0.0133
  805MOL0     C10956   8.576   6.616   9.439  0.4543 -0.4352  0.0397
  805MOL0     C10957   8.696   6.676   9.456  0.2412  0.8672  0.4067
  805MOL0     C10958   8.745   6.764   9.361 -0.1923  0.2551 -0.8083
  805MOL0     C10959   8.686   6.785   9.242 -0.7787  0.9697 -0.2042
  805MOL0     O10960   8.753   6.866   9.151 -0.5335  1.0351  0.2011
  805MOL0     C10961   8.697   6.890   9.014 -0.0392  0.5290 -0.9875
  805MOL0     C10962   8.758   7.022   8.964  0.6209  0.1113 -0.0714
  805MOL0     C10963   8.696   7.061   8.825 -0.5639 -0.1511 -0.1627
  805MOL0     C10964   8.752   7.199   8.765 -0.2950  0.3856 -0.7144
  805MOL0     C10965   8.687   7.213   8.630  0.3130 -0.7009 -0.1394
  805MOL0     C10966   8.742   7.116   8.526  0.5257  0.1345  1.1519
  805MOL0     C10967   8.680   7.154   8.392  0.4750 -0.0514 -0.3074
  805MOL0     C10968   8.725   7.052   8.282  0.2339 -0.4411 -0.9511
  805MOL0     N10969   8.666   7.089   8.156 -0.5413  0.7117 -0.4674
  805MOL0     C10970   8.580   7.008   8.081 -0.1932  0.0457 -0.6468
  805MOL0     C10971   8.559   7.068   7.961 -0.1185 -0.6972  0.4142
  805MOL0     C10972   8.480   7.017   7.844  0.6130  0.1741  0.0002
  805MOL0     C10973   8.536   6.901   7.768  0.7658 -0.1024 -0.3851
  805MOL0     C10974   8.456   6.861   7.641  0.8098 -0.6069 -0.2011
  805MOL0     C10975   8.313   6.798   7.675 -0.3737  0.8419 -0.3055
  805MOL0     O10976   8.321   6.663   7.727  0.1906 -0.1686  0.1897
  805MOL0     C10977   8.323   6.559   7.637 -0.2997 -0.1043  0.2681
  805MOL0     C10978   8.197   6.487   7.629 -0.2139 -0.7918  0.4391
  805MOL0     C10979   8.199   6.377   7.539  0.3851  0.7368 -0.9848
  805MOL0     C10980   8.099   6.269   7.572  0.4298 -0.3836  0.0726
  805MOL0     C10981   8.305   6.342   7.449 -1.2357 -0.3090 -0.1841
  805MOL0     C10982   8.301   6.232   7.357  0.6341  0.5265 -0.5150
  805MOL0     O10983   8.182   6.162   7.337 -0.6421  0.7786 -0.0568
  805MOL0     C10984   8.162   6.091   7.219 -0.0635 -0.6144 -0.6391
  805MOL0     C10985   8.052   6.003   7.222  0.9044 -0.6383 -0.0769
  805MOL0     C10986   8.020   5.920   7.117  0.1872 -0.2113  0.3502
  805MOL0     C10987   8.102   5.923   7.003  0.6756 -0.1333  0.4898
  805MOL0     O10988   8.082   5.841   6.897  0.5397  0.2016  0.1192
  805MOL0     C10989   8.007   5.712   6.902 -0.1602 -0.2728  0.8578
  805MOL0     C10990   8.064   5.617   6.798  0.0991 -0.6361 -0.4348
  805MOL0     C10991   8.075   5.675   6.655 -0.0970 -0.8580  0.2150
  805MOL0     C10992   7.947   5.737   6.593  0.6449  0.0484 -0.1933
  805MOL0     C10993   7.973   5.838   6.482  0.7954  0.1005 -0.7821
  805MOL0     C10994   7.838   5.882   6.436  0.1853  1.2496  0.0835
  805MOL0     C10995   7.865   5.973   6.317  0.0951  0.5691 -0.1102
  805MOL0     C10996   7.737   6.013   6.244  0.5494 -0.1824 -0.1924
  805MOL0    Cl10997   7.623   6.089   6.358 -1.0350  0.4985 -0.4184
  805MOL0     C10998   8.213   6.004   6.998  0.1150  0.4758  0.3484
  805MOL0     C10999   8.232   6.097   7.104 -0.0614 -0.2999 -0.6213
  805MOL0     O11000   8.405   6.204   7.307 -0.0635 -0.1095 -0.1925
  805MOL0     C11001   8.417   6.434   7.450  0.5771  0.2590  0.5662
  805MOL0     C11002   8.431   6.527   7.545  0.0963 -0.3346 -0.4683
  805MOL0     N11003   8.633   7.188   7.960 -0.6555  0.6082 -1.0157
  805MOL0     N11004   8.703   7.199   8.069 -0.0708  0.4764 -0.5440
  805MOL0     C11005   8.561   6.719   9.221 -0.0573 -0.0090 -0.4450
  805MOL0     C11006   8.510   6.632   9.318  0.1364 -0.0286 -0.1050
  805MOL0     C11007   8.422   6.539   9.763 -0.0092  0.2635 -0.3006
  805MOL0     C11008   8.327   6.436   9.727  0.5317 -0.0176  0.2334
  805MOL0     C11009   8.255   6.362   9.812 -0.5650  0.1368 -0.1571
  805MOL0     C11010   8.265   6.388   9.945 -0.1683 -1.0992 -0.7544
  805MOL0     O11011   8.193   6.317  10.034 -0.0089 -0.4075 -0.0682
  805MOL0     C11012   8.061   6.373  10.058  0.0719  0.9151  0.3703
  805MOL0     C11013   8.050   6.405  10.211 -0.5363 -0.1839 -0.0123
  805MOL0     C11014   8.067   6.274  10.289  0.0642 -0.0413  0.7784
  805MOL0     C11015   8.069   6.319  10.434 -0.2898  0.0519 -0.5384
  805MOL0     C11016   8.106   6.206  10.517  0.3143 -0.0965  0.2935
  805MOL0     C11017   8.120   6.094  10.571  0.4884 -1.9607 -0.6614
  805MOL0     C11018   8.345   6.495   9.990  0.7774 -0.5733 -0.3396
  805MOL0     C11019   8.430   6.567   9.897  0.3420  0.6791 -0.6772
  805MOL0     C11020   8.509   6.663   9.976  0.7984  0.0268  0.1058
  805MOL0     H11021   8.743   6.664   9.553 -0.2317  0.6856  0.6187
  805MOL0     H11022   8.841   6.811   9.378 -0.4308  0.2887  0.6312
  805MOL0     H11023   8.587   6.890   9.012 -0.0966 -2.6937 -1.9073
  805MOL0     H11024   8.731   6.805   8.955 -2.2061 -1.2154  0.1379
  805MOL0     H11025   8.733   7.097   9.040  1.7370  0.6414 -0.2144
  805MOL0     H11026   8.867   7.018   8.960  0.7902  2.0074  1.4219
  805MOL0     H11027   8.718   6.975   8.760  0.0554  0.2742 -0.5297
  805MOL0     H11028   8.588   7.074   8.824 -0.6422 -0.5632 -2.0351
  805MOL0     H11029   8.720   7.288   8.820 -2.0054 -1.0029  0.6469
  805MOL0     H11030   8.861   7.201   8.771 -0.1610  4.7297 -1.3788
  805MOL0     H11031   8.695   7.317   8.598 -0.9742 -1.3671 -2.9540
  805MOL0     H11032   8.579   7.197   8.641  0.3154 -1.4618 -1.1550
  805MOL0     H11033   8.851   7.122   8.510  0.3809 -1.2031 -0.7211
  805MOL0     H11034   8.714   7.013   8.552  2.0308 -0.7416 -0.4737
  805MOL0     H11035   8.711   7.256   8.367 -1.9726  0.5080 -1.4070
  805MOL0     H11036   8.571   7.161   8.406  0.6146 -1.2004  1.8101
  805MOL0     H11037   8.833   7.055   8.264  0.2874 -1.3590 -0.7947
  805MOL0     H11038   8.704   6.949   8.312  0.6806  0.2432  2.1028
  805MOL0     H11039   8.547   6.907   8.106  0.3355 -0.0939 -0.5032
  805MOL0     H11040   8.473   7.103   7.777  1.8707 -0.0549 -0.4627
  805MOL0     H11041   8.380   6.997   7.882  1.0510 -1.8242  0.2019
  805MOL0     H11042   8.642   6.918   7.750  0.7975  0.2192  0.0784
  805MOL0     H11043   8.534   6.817   7.839 -2.2613 -1.7225 -2.2115
  805MOL0     H11044   8.443   6.945   7.573 -0.1067 -1.8667 -1.6504
  805MOL0     H11045   8.526   6.799   7.584  2.2779  1.6035 -0.9428
  805MOL0     H11046   8.238   6.851   7.734 -0.8561  2.9576 -2.6412
  805MOL0     H11047   8.259   6.803   7.580  1.1927 -0.3906 -1.3103
  805MOL0     H11048   8.123   6.493   7.708  0.6008 -0.0808  1.1884
  805MOL0     H11049   8.020   6.256   7.497 -0.9944  2.0606  1.0245
  805MOL0     H11050   8.046   6.302   7.662 -0.4998  3.0877 -1.5560
  805MOL0     H11051   8.155   6.176   7.583  0.0472 -0.5387  0.7378
  805MOL0     H11052   7.998   5.996   7.316  3.9821 -1.1098  1.8024
  805MOL0     H11053   7.938   5.849   7.118 -1.0182  1.1298  1.9830
  805MOL0     H11054   8.000   5.665   7.001 -0.1520 -0.5147  0.7423
  805MOL0     H11055   7.904   5.726   6.867  0.6989  2.4006 -0.8678
  805MOL0     H11056   8.163   5.594   6.839 -0.0771  0.6859  0.7861
  805MOL0     H11057   8.009   5.524   6.812  1.8601 -1.6418  0.1588
  805MOL0     H11058   8.129   5.595   6.602  0.8221 -1.9410  2.6541
  805MOL0     H11059   8.156   5.747   6.672  1.1584 -2.4873  1.4808
  805MOL0     H11060   7.886   5.785   6.670  0.6889  0.0733 -0.1738
  805MOL0     H11061   7.895   5.654   6.545  1.6264 -2.6914  3.0871
  805MOL0     H11062   8.034   5.923   6.514  0.7711  0.8373 -2.5607
  805MOL0     H11063   8.038   5.795   6.405  0.7947 -0.3208 -0.5541
  805MOL0     H11064   7.789   5.942   6.513 -2.0623  0.6927 -0.8385
  805MOL0     H11065   7.765   5.804   6.412 -0.1766  1.9280 -1.0754
  805MOL0     H11066   7.925   5.914   6.246 -0.3353 -1.0829  0.8477
  805MOL0     H11067   7.925   6.062   6.339 -2.3340  2.5672 -1.1697
  805MOL0     H11068   7.695   5.938   6.178  2.1162 -0.2205 -1.1977
  805MOL0     H11069   7.770   6.086   6.170  2.8239 -0.9476 -0.0026
  805MOL0     H11070   8.285   6.004   6.917  2.1906  4.0854  2.0027
  805MOL0     H11071   8.310   6.171   7.083 -2.0816  1.5657 -2.0923
  805MOL0     H11072   8.494   6.435   7.374  4.2440 -1.1436  3.9295
  805MOL0     H11073   8.523   6.585   7.549 -0.0733 -0.0718 -0.3209
  805MOL0     H11074   8.507   6.744   9.130  0.1871  1.4673 -0.2101
  805MOL0     H11075   8.411   6.588   9.309 -1.4058  3.0691  0.4143
  805MOL0     H11076   8.313   6.403   9.624 -0.6711  3.5337 -0.9096
  805MOL0     H11077   8.203   6.276   9.772  2.0107 -1.8471  0.4561
  805MOL0     H11078   8.057   6.470  10.007  0.4813  2.1716  2.5652
  805MOL0     H11079   7.986   6.302  10.022  3.0443 -1.8216 -0.9368
  805MOL0     H11080   7.961   6.455  10.250 -0.7663 -0.4708 -0.1618
  805MOL0     H11081   8.131   6.473  10.238  0.3646 -1.7452  1.4324
  805MOL0     H11082   7.978   6.214  10.268 -0.9086  1.5645  0.0800
  805MOL0     H11083   8.153   6.216  10.256 -0.5958 -0.4702 -0.2649
  805MOL0     H11084   7.975   6.366  10.465  1.7290  2.8502  1.8969
  805MOL0     H11085   8.145   6.397  10.445  0.7998 -0.6701 -2.4203
  805MOL0     H11086   8.151   6.001  10.614 -1.7695 -1.2255  2.9872
  805MOL0     H11087   8.341   6.522  10.095  1.5654  1.5314 -0.8048
  805MOL0     H11088   8.560   6.607  10.054 -0.7371 -1.4195  0.1086
  805MOL0     H11089   8.583   6.698   9.902  1.9493  0.2612  1.3270
  805MOL0     H11090   8.438   6.741  10.004 -2.2214 -1.6709 -2.2289
  806MOL0     O11091   5.545  10.527   7.736  0.1433  0.8876 -1.1150
  806MOL0     C11092   5.508  10.474   7.842  0.3002 -0.2354  0.4239
  806MOL0     O11093   5.542  10.513   7.962 -0.3586  0.1188  0.0527
  806MOL0     C11094   5.590  10.645   7.980 -0.8735  0.0502  0.1090
  806MOL0     C11095   5.537  10.763   7.919 -0.5664 -0.0674  0.1984
  806MOL0     C11096   5.594  10.880   7.940 -0.7442  0.0191  0.2459
  806MOL0     C11097   5.696  10.892   8.038 -0.0589 -0.5305 -0.5822
  806MOL0     O11098   5.742  11.020   8.071  0.2048 -0.2369 -0.3913
  806MOL0     C11099   5.890  11.019   8.083  0.3339  0.0971 -0.7285
  806MOL0     C11100   5.932  11.132   7.986 -0.7778 -0.0979 -0.3705
  806MOL0     C11101   5.894  11.098   7.835 -0.0343 -0.0922 -0.1009
  806MOL0     C11102   5.977  11.193   7.741  1.0184 -0.8308  1.0353
  806MOL0     C11103   5.968  11.124   7.602  0.4386  0.2792  0.0396
  806MOL0     C11104   6.033  11.230   7.505  0.2542 -0.2315  0.8749
  806MOL0     C11105   6.035  11.181   7.361  0.7035 -1.4567  0.5702
  806MOL0     C11106   6.113  11.280   7.274  0.6323 -0.3656 -0.9668
  806MOL0     N11107   6.080  11.241   7.135 -0.2613 -0.3811  0.8000
  806MOL0     C11108   6.124  11.131   7.070 -0.6713  0.2618 -0.0075
  806MOL0     C11109   6.037  11.106   6.959  0.6273 -0.2737 -0.6294
  806MOL0     C11110   6.066  11.009   6.846  0.0584 -0.0436 -0.1147
  806MOL0     C11111   6.125  10.880   6.899 -0.0112 -0.4194  0.2627
  806MOL0     C11112   6.154  10.792   6.785 -0.5043 -0.4835  0.8609
  806MOL0     C11113   6.211  10.659   6.830 -0.1591 -0.5034 -0.3143
  806MOL0     O11114   6.110  10.570   6.888 -0.2261 -0.1760  0.4595
  806MOL0     C11115   6.144  10.441   6.898  1.2974 -0.0266 -0.5112
  806MOL0     C11116   6.267  10.381   6.864  0.1122 -0.0814 -0.3212
  806MOL0     C11117   6.278  10.240   6.867 -0.9296 -0.1257  0.6015
  806MOL0     C11118   6.415  10.203   6.816 -0.2852 -1.0703 -0.0935
  806MOL0     C11119   6.176  10.154   6.917  0.5498  0.0611 -0.1655
  806MOL0     C11120   6.172  10.007   6.919  0.3363 -1.0717  0.1212
  806MOL0     O11121   6.235   9.944   6.809  0.8648 -0.5476  0.3396
  806MOL0     C11122   6.276   9.818   6.810  0.4451 -0.1813 -0.1313
  806MOL0     C11123   6.201   9.714   6.852  0.9117 -1.2896 -0.6443
  806MOL0     C11124   6.240   9.588   6.816 -0.6646  0.3663 -0.3078
  806MOL0     C11125   6.366   9.562   6.752 -0.3276  0.6532  0.3349
  806MOL0     O11126   6.395   9.434   6.707 -0.6105  0.1582  0.0734
  806MOL0     C11127   6.517   9.416   6.629 -1.3231  0.4467  0.4393
  806MOL0     C11128   6.515   9.279   6.554 -1.1588 -0.6505 -0.6278
  806MOL0     C11129   6.515   9.166   6.663  0.5192  0.2484 -0.3273
  806MOL0     C11130   6.555   9.024   6.612  0.5122 -0.6658 -0.3055
  806MOL0     C11131   6.708   9.021   6.608 -0.0205 -0.4425 -0.5347
  806MOL0     C11132   6.778   8.890   6.569 -0.0010  0.3055 -0.2330
  806MOL0     C11133   6.929   8.910   6.556  0.6299  0.1065 -0.6374
  806MOL0     C11134   6.998   8.789   6.501  0.0899 -0.1093 -0.0262
  806MOL0    Cl11135   7.173   8.835   6.471  0.0609  0.1741 -0.0932
  806MOL0     C11136   6.462   9.669   6.753 -0.4250  0.3002 -0.4305
  806MOL0     C11137   6.410   9.802   6.785  0.2500  0.0517 -0.0850
  806MOL0     O11138   6.114   9.948   7.010 -0.2638 -0.0986 -0.4504
  806MOL0     C11139   6.061  10.224   6.963  0.3728  0.3334  0.6794
  806MOL0     C11140   6.042  10.359   6.959  0.4000  0.4036 -0.5736
  806MOL0     N11141   5.928  11.195   6.970  0.0922  0.6384 -0.2453
  806MOL0     N11142   5.955  11.267   7.079  1.0849 -0.3854 -1.1063
  806MOL0     C11143   5.741  10.779   8.105  0.1994  0.4974 -0.9097
  806MOL0     C11144   5.697  10.649   8.073 -0.4437 -0.8029  0.6625
  806MOL0     C11145   5.439  10.339   7.860 -0.4005  0.3570 -0.0358
  806MOL0     C11146   5.501  10.248   7.946  0.5529 -0.7406  0.2418
  806MOL0     C11147   5.453  10.115   7.971 -0.9857  0.1571 -0.4706
  806MOL0     C11148   5.336  10.075   7.917  1.2425  0.2840  0.5809
  806MOL0     O11149   5.292   9.951   7.942  0.0412  0.0345  0.2168
  806MOL0     C11150   5.195   9.899   7.845  0.3316 -0.4695 -0.3412
  806MOL0     C11151   5.221   9.750   7.838 -0.1501 -1.2891  0.4685
  806MOL0     C11152   5.164   9.691   7.715  0.7905 -0.1505  0.3126
  806MOL0     C11153   5.182   9.537   7.706  0.5101  0.4330  0.1743
  806MOL0     C11154   5.323   9.503   7.709 -0.2015  0.7294  0.0145
  806MOL0     C11155   5.431   9.470   7.728  0.1334 -0.7294 -0.5259
  806MOL0     C11156   5.264  10.171   7.834 -0.5634  0.1963  0.6747
  806MOL0     C11157   5.315  10.295   7.802 -0.1083  0.2424  0.4225
  806MOL0     C11158   5.229  10.379   7.707 -0.2854  0.2813 -0.2017
  806MOL0     H11159   5.459  10.754   7.844 -1.7261 -2.0110  1.5455
  806MOL0     H11160   5.574  10.970   7.882  1.4044 -0.0347 -0.6785
  806MOL0     H11161   5.939  10.927   8.050  3.7797  0.4886  2.7238
  806MOL0     H11162   5.913  11.039   8.188 -1.0388  1.5332 -0.6642
  806MOL0     H11163   5.899  11.229   8.024  4.0934  1.8916 -0.4405
  806MOL0     H11164   6.040  11.135   8.002 -1.0146  2.2123  1.2360
  806MOL0     H11165   5.932  10.999   7.811 -1.7382 -0.9390  0.4989
  806MOL0     H11166   5.790  11.112   7.806  0.0322 -2.9448 -2.0027
  806MOL0     H11167   5.932  11.292   7.753 -0.4248 -1.7938  6.1068
  806MOL0     H11168   6.075  11.214   7.783 -0.4202  2.5365  3.1347
  806MOL0     H11169   5.864  11.112   7.569 -0.4853  1.0684  2.4363
  806MOL0     H11170   6.011  11.024   7.598  1.1741  0.6092 -0.7209
  806MOL0     H11171   5.968  11.318   7.517  0.4515 -0.1144  1.0912
  806MOL0     H11172   6.134  11.260   7.531  0.4185 -0.6954  0.7894
  806MOL0     H11173   5.932  11.172   7.322  0.3233  2.9531 -0.0051
  806MOL0     H11174   6.072  11.079   7.356 -0.5622 -1.9131 -0.1886
  806MOL0     H11175   6.089  11.385   7.289  1.3636  0.3619 -4.2047
  806MOL0     H11176   6.221  11.279   7.289  0.6465  0.8613 -0.9492
  806MOL0     H11177   6.212  11.076   7.103  0.8019  1.1524 -2.1974
  806MOL0     H11178   6.130  11.060   6.773  0.2280  1.7416  1.2189
  806MOL0     H11179   5.975  11.000   6.787  1.1053 -0.0451 -1.8238
  806MOL0     H11180   6.215  10.892   6.960 -0.1134 -0.8260  0.4959
  806MOL0     H11181   6.049  10.840   6.967  1.3597  1.1092  2.8478
  806MOL0     H11182   6.056  10.775   6.739 -0.5669  0.2203  0.7289
  806MOL0     H11183   6.216  10.834   6.706  0.0914 -4.3436 -0.9366
  806MOL0     H11184   6.247  10.612   6.738  0.8705  0.9658 -0.6871
  806MOL0     H11185   6.298  10.671   6.896  0.1313  0.2717 -0.8345
  806MOL0     H11186   6.348  10.443   6.829 -0.3553  1.1489  0.7196
  806MOL0     H11187   6.490  10.199   6.895  3.0885 -1.1118 -3.0743
  806MOL0     H11188   6.453  10.267   6.735 -1.8593 -0.1666 -0.1667
  806MOL0     H11189   6.400  10.104   6.772 -2.2418 -0.5834 -0.6514
  806MOL0     H11190   6.105   9.735   6.899  1.3456 -0.2174 -0.1960
  806MOL0     H11191   6.159   9.515   6.810 -1.6065  1.0903  2.3447
  806MOL0     H11192   6.543   9.500   6.563  0.7744 -0.2795  0.2862
  806MOL0     H11193   6.603   9.416   6.696  1.7241  1.0417 -3.1138
  806MOL0     H11194   6.422   9.277   6.495 -0.5756  1.9310 -1.7738
  806MOL0     H11195   6.600   9.281   6.486 -0.6756 -0.5885 -0.0242
  806MOL0     H11196   6.409   9.152   6.688  0.5121 -1.6291 -1.2413
  806MOL0     H11197   6.568   9.199   6.753  1.0357  1.7382 -1.1388
  806MOL0     H11198   6.523   9.007   6.509 -1.0936 -1.0313  0.2212
  806MOL0     H11199   6.495   8.958   6.676  1.1717  0.1688  1.2255
  806MOL0     H11200   6.745   9.101   6.544  2.3570 -0.6090  0.5331
  806MOL0     H11201   6.743   9.037   6.710 -1.1896 -1.2879  0.0231
  806MOL0     H11202   6.741   8.859   6.471 -0.5224 -2.3371  0.7308
  806MOL0     H11203   6.747   8.817   6.644 -3.7200 -0.9014 -2.6693
  806MOL0     H11204   6.964   8.946   6.653 -2.7869 -0.1812  0.8576
  806MOL0     H11205   6.939   8.990   6.481 -0.4554  0.9853  0.1132
  806MOL0     H11206   6.959   8.770   6.401  2.3853  0.3406 -1.0642
  806MOL0     H11207   6.984   8.698   6.560  1.5052  0.8532  1.9079
  806MOL0     H11208   6.568   9.663   6.732 -0.4263 -0.2845 -0.2763
  806MOL0     H11209   6.461   9.897   6.774  1.2906 -0.7329 -2.6497
  806MOL0     H11210   5.976  10.169   7.003 -2.5774  1.9201 -2.7693
  806MOL0     H11211   5.957  10.404   7.008 -1.1631 -1.9141 -0.9481
  806MOL0     H11212   5.789  10.798   8.201 -0.4849  2.0169 -0.8509
  806MOL0     H11213   5.724  10.562   8.131  0.4508 -1.5433 -0.8239
  806MOL0     H11214   5.594  10.277   7.994  0.5879 -0.8403  0.2328
  806MOL0     H11215   5.508  10.051   8.040 -2.1273 -0.6773 -0.3068
  806MOL0     H11216   5.096   9.913   7.890  0.8395 -0.2318  0.7629
  806MOL0     H11217   5.206   9.934   7.742  1.5785 -2.4045 -0.9277
  806MOL0     H11218   5.166   9.705   7.921 -0.9912  3.0151  2.5310
  806MOL0     H11219   5.328   9.728   7.847  1.2649  4.6086  3.8774
  806MOL0     H11220   5.057   9.716   7.710  1.0437  0.7391 -2.0333
  806MOL0     H11221   5.211   9.741   7.630  0.0319 -0.7862 -0.5113
  806MOL0     H11222   5.145   9.495   7.612  0.2845 -0.1794  0.5318
  806MOL0     H11223   5.126   9.503   7.794 -0.3123  2.3605  0.4546
  806MOL0     H11224   5.534   9.451   7.751  0.2628 -0.3563 -0.7750
  806MOL0     H11225   5.169  10.141   7.789 -0.2860 -1.7941  1.3115
  806MOL0     H11226   5.294  10.457   7.665  0.3125 -1.1119 -1.9762
  806MOL0     H11227   5.193  10.317   7.625 -0.3772 -0.5221  0.4374
  806MOL0     H11228   5.147  10.419   7.769 -1.8562  0.1931 -2.1223
  807MOL0     O11229   3.124   5.016   0.064  0.8860  0.8421 -0.1417
  807MOL0     C11230   3.157   5.122   0.035  0.3713  0.0381  0.9026
  807MOL0     O11231   3.287   5.169   0.057 -0.3502 -0.4795 -0.3112
  807MOL0     C11232   3.392   5.087   0.102 -0.7601 -0.9694 -0.0026
  807MOL0     C11233   3.477   5.004   0.015 -0.0623 -0.3721 -0.0932
  807MOL0     C11234   3.579   4.922   0.062 -0.4602 -0.1273 -0.5869
  807MOL0     C11235   3.589   4.895   0.203  0.5027  0.6697 -0.5402
  807MOL0     O11236   3.691   4.832   0.264 -0.2995  0.5539  0.2370
  807MOL0     C11237   3.679   4.688   0.267 -0.3747 -0.5230  0.3434
  807MOL0     C11238   3.563   4.634   0.350 -0.9444 -0.5047 -0.4902
  807MOL0     C11239   3.557   4.671   0.496 -0.6131  0.4864 -0.1199
  807MOL0     C11240   3.448   4.593   0.572  0.5491 -0.0390  0.9586
  807MOL0     C11241   3.306   4.647   0.543  0.2861  0.0445 -0.3607
  807MOL0     C11242   3.214   4.613   0.665 -0.2019 -0.0322  0.8053
  807MOL0     C11243   3.077   4.665   0.639  0.0351 -0.5348 -1.0938
  807MOL0     C11244   2.984   4.643   0.756  1.0901  0.1509 -0.5631
  807MOL0     N11245   2.998   4.738   0.871  0.2600 -0.4063 -0.1389
  807MOL0     C11246   2.940   4.860   0.907  0.9021  0.6708 -0.1530
  807MOL0     C11247   2.975   4.895   1.036  0.0686 -0.3291  0.0478
  807MOL0     C11248   2.920   5.011   1.104  0.6061 -0.1242  0.9103
  807MOL0     C11249   2.964   5.035   1.241  0.6523 -0.1906 -0.0572
  807MOL0     C11250   2.874   4.967   1.345  0.2564  0.4539  0.1961
  807MOL0     C11251   2.728   5.030   1.345 -1.2124  0.0844 -0.0591
  807MOL0     O11252   2.638   4.966   1.449 -0.0253 -0.6858  0.8034
  807MOL0     C11253   2.615   5.052   1.550 -0.0904 -0.1152  0.0574
  807MOL0     C11254   2.668   5.031   1.684  0.5878 -0.7408 -0.1305
  807MOL0     C11255   2.642   5.098   1.796  1.4961 -0.1572 -0.3501
  807MOL0     C11256   2.691   5.040   1.930  1.3359  0.6671  0.7783
  807MOL0     C11257   2.561   5.213   1.781  0.6308 -0.7776  0.1575
  807MOL0     C11258   2.530   5.310   1.885  0.0787 -0.2423 -0.2847
  807MOL0     O11259   2.439   5.409   1.860 -0.1232 -0.1175  0.0443
  807MOL0     C11260   2.405   5.511   1.954  0.4641 -0.1275 -0.4523
  807MOL0     C11261   2.482   5.563   2.064 -0.3358 -0.4549  0.2499
  807MOL0     C11262   2.450   5.671   2.133  0.5298 -0.0261 -0.1907
  807MOL0     C11263   2.325   5.738   2.112  0.4917  0.4299 -0.8377
  807MOL0     O11264   2.292   5.833   2.204  0.2283 -0.4943 -0.9990
  807MOL0     C11265   2.252   5.961   2.162  0.4737  0.2984 -0.2938
  807MOL0     C11266   2.200   6.033   2.288 -0.6154 -0.2807 -1.0925
  807MOL0     C11267   2.198   6.186   2.301  0.3762  0.0905 -0.3965
  807MOL0     C11268   2.186   6.226   2.445  0.1276  0.3948  0.2893
  807MOL0     C11269   2.157   6.378   2.448  0.3613  0.1319 -0.1936
  807MOL0     C11270   2.128   6.434   2.599 -0.9796  0.3181  0.0514
  807MOL0     C11271   2.080   6.579   2.607  0.4701 -0.3046 -0.7430
  807MOL0     C11272   2.116   6.648   2.739 -0.0778  0.1275  0.9345
  807MOL0    Cl11273   2.068   6.552   2.895 -0.1606  0.4010 -0.4242
  807MOL0     C11274   2.246   5.686   2.003  0.4563  0.0085 -0.3365
  807MOL0     C11275   2.280   5.577   1.929  0.1190  0.2769  1.1500
  807MOL0     O11276   2.586   5.297   1.998 -0.3522 -0.4477  0.6689
  807MOL0     C11277   2.503   5.237   1.650  0.2055  0.7133  0.2884
  807MOL0     C11278   2.525   5.153   1.540  0.6237  0.0578  0.1928
  807MOL0     N11279   3.047   4.787   1.083 -0.1797  0.1451  0.2934
  807MOL0     N11280   3.056   4.704   0.987 -0.3197 -0.3332 -0.8496
  807MOL0     C11281   3.504   4.962   0.293 -0.1153 -0.0481  0.4643
  807MOL0     C11282   3.419   5.064   0.244  0.0267 -0.1339 -0.4463
  807MOL0     C11283   3.075   5.225  -0.037  0.7946 -0.1795 -0.4431
  807MOL0     C11284   3.128   5.348  -0.074 -0.1047 -0.0401  0.5141
  807MOL0     C11285   3.059   5.451  -0.142  0.1040 -0.4401  0.1088
  807MOL0     C11286   2.929   5.423  -0.181 -0.3645 -0.3461  0.6471
  807MOL0     O11287   2.856   5.520  -0.250 -0.0972  0.6933 -0.0901
  807MOL0     C11288   2.856   5.652  -0.188  0.1014  0.0041 -0.1728
  807MOL0     C11289   2.736   5.733  -0.237 -0.1716  0.3497 -0.3877
  807MOL0     C11290   2.743   5.878  -0.182 -0.4778  0.1489  0.6137
  807MOL0     C11291   2.623   5.949  -0.231 -0.4846 -0.3021  0.7523
  807MOL0     C11292   2.618   5.963  -0.383 -0.5980  0.4717 -0.1804
  807MOL0     C11293   2.607   5.966  -0.504 -0.1125  0.7562 -0.0688
  807MOL0     C11294   2.870   5.305  -0.137 -0.4411  0.0286  0.3265
  807MOL0     C11295   2.936   5.208  -0.069 -0.1148  0.4551 -0.4815
  807MOL0     C11296   2.859   5.082  -0.038  0.1985 -0.4042  0.2413
  807MOL0     H11297   3.456   5.015  -0.091  0.9802 -1.5345 -0.4372
  807MOL0     H11298   3.656   4.870   0.005  1.9381  0.8353  1.5559
  807MOL0     H11299   3.769   4.648   0.316  0.5824  0.3197 -0.6687
  807MOL0     H11300   3.674   4.648   0.165  3.5877  1.5063 -0.8647
  807MOL0     H11301   3.470   4.669   0.305 -1.2083 -0.1922  0.2751
  807MOL0     H11302   3.564   4.525   0.353 -1.1073 -0.5199 -0.9079
  807MOL0     H11303   3.652   4.651   0.548 -1.1896  1.7683  1.5143
  807MOL0     H11304   3.549   4.779   0.506 -2.3197  0.4486 -0.7977
  807MOL0     H11305   3.443   4.486   0.552  1.6502 -0.9031  4.5579
  807MOL0     H11306   3.470   4.615   0.677 -0.2039  1.1144  0.8965
  807MOL0     H11307   3.272   4.602   0.449  2.5712 -3.3027  0.2413
  807MOL0     H11308   3.313   4.756   0.542  0.9480  0.0192  0.3897
  807MOL0     H11309   3.205   4.504   0.671 -1.0163 -0.0975 -0.9932
  807MOL0     H11310   3.254   4.661   0.755  2.2840  0.2589 -0.3588
  807MOL0     H11311   3.036   4.616   0.550 -2.7651  0.5051 -0.4656
  807MOL0     H11312   3.094   4.773   0.635  1.5462 -0.7507 -1.1578
  807MOL0     H11313   2.878   4.660   0.735  0.7950 -0.7867  0.0642
  807MOL0     H11314   2.987   4.542   0.797 -3.5318  0.7301  2.0095
  807MOL0     H11315   2.868   4.907   0.840 -0.0585 -0.7988 -0.2190
  807MOL0     H11316   2.811   5.000   1.100  0.5643  0.5066  0.2191
  807MOL0     H11317   2.943   5.094   1.037 -2.7469  1.8268  1.9120
  807MOL0     H11318   3.067   5.001   1.260 -0.3064 -1.7989  2.9433
  807MOL0     H11319   2.978   5.140   1.269 -0.4309 -0.3423  1.1530
  807MOL0     H11320   2.871   4.858   1.334  0.0457  0.6016 -1.4481
  807MOL0     H11321   2.914   4.990   1.444 -0.6897  0.5241  0.5726
  807MOL0     H11322   2.735   5.138   1.365 -2.8219  0.8131 -2.8577
  807MOL0     H11323   2.675   5.028   1.250  0.7307  1.6763 -1.2508
  807MOL0     H11324   2.734   4.945   1.690  0.2314 -1.0276 -0.2993
  807MOL0     H11325   2.721   4.934   1.934  0.8959  0.4995 -0.0525
  807MOL0     H11326   2.604   5.040   1.996  1.1687  1.2883  0.5648
  807MOL0     H11327   2.773   5.106   1.958 -0.0790  2.6295  0.4736
  807MOL0     H11328   2.577   5.515   2.087 -0.2636  0.5584  2.3940
  807MOL0     H11329   2.514   5.689   2.219 -1.8186 -1.2326  1.9526
  807MOL0     H11330   2.330   6.027   2.121  0.7092 -0.8264 -1.7256
  807MOL0     H11331   2.173   5.946   2.088 -2.5052 -0.3806  2.7942
  807MOL0     H11332   2.099   5.993   2.306 -1.5137  3.0431  2.9972
  807MOL0     H11333   2.255   5.994   2.374 -1.7695 -0.1681 -0.2801
  807MOL0     H11334   2.119   6.227   2.238  2.2896  0.5530 -2.6332
  807MOL0     H11335   2.299   6.212   2.266  0.4810 -1.1577 -1.1114
  807MOL0     H11336   2.279   6.204   2.498 -1.4596  0.9378  3.5600
  807MOL0     H11337   2.110   6.177   2.508  1.4187 -1.9072  0.1656
  807MOL0     H11338   2.235   6.443   2.408  1.1253 -0.0883  0.8870
  807MOL0     H11339   2.067   6.399   2.389  0.3422  2.6257  0.5766
  807MOL0     H11340   2.219   6.414   2.657 -1.8456  0.1576  1.3982
  807MOL0     H11341   2.051   6.366   2.636 -2.4141  2.6023  1.4840
  807MOL0     H11342   1.971   6.585   2.590  0.3172  1.3227  0.5913
  807MOL0     H11343   2.132   6.628   2.524  3.7802 -0.3149  1.1963
  807MOL0     H11344   2.058   6.741   2.737  0.8559  0.7085 -0.3592
  807MOL0     H11345   2.223   6.673   2.734 -0.1317  0.8756  2.6638
  807MOL0     H11346   2.159   5.747   1.981  1.0867  1.0390 -0.0613
  807MOL0     H11347   2.222   5.536   1.846 -0.5174  0.6560  1.3960
  807MOL0     H11348   2.440   5.322   1.631  1.6774  1.4121 -1.8940
  807MOL0     H11349   2.476   5.177   1.446  0.6891  3.4209  0.8765
  807MOL0     H11350   3.533   4.953   0.397  0.2361 -1.8658  0.2345
  807MOL0     H11351   3.358   5.118   0.314 -1.7788 -0.2504 -1.8589
  807MOL0     H11352   3.229   5.374  -0.043  0.4650 -0.2790 -1.0886
  807MOL0     H11353   3.117   5.538  -0.170  1.1232 -1.5018 -1.2023
  807MOL0     H11354   2.869   5.649  -0.080  0.3330 -2.8327 -0.1949
  807MOL0     H11355   2.936   5.710  -0.235  0.0413  0.2727  0.0555
  807MOL0     H11356   2.645   5.685  -0.200  1.1543 -2.3451 -0.3835
  807MOL0     H11357   2.751   5.727  -0.345  2.0693 -1.8755 -0.0506
  807MOL0     H11358   2.736   5.886  -0.073  1.9883  0.2497  0.8042
  807MOL0     H11359   2.840   5.910  -0.219  0.7399 -2.4262  1.3544
  807MOL0     H11360   2.632   6.053  -0.200 -0.0600  0.1209 -0.6973
  807MOL0     H11361   2.529   5.902  -0.200 -0.7533 -1.1449 -1.1577
  807MOL0     H11362   2.609   5.945  -0.609 -0.6238 -2.9887  0.5435
  807MOL0     H11363   2.770   5.295  -0.178  0.4789 -2.7615 -1.5499
  807MOL0     H11364   2.880   5.055   0.066 -0.3016 -0.5967  0.2987
  807MOL0     H11365   2.753   5.082  -0.065  0.5543  1.8232 -1.4040
  807MOL0     H11366   2.912   5.014  -0.105  1.9652 -1.2557  2.3804
  808MOL0     O11367   8.426   4.213   6.109  0.0027 -0.5264 -0.3498
  808MOL0     C11368   8.489   4.115   6.061  0.1352  0.0653  0.3075
  808MOL0     O11369   8.471   4.069   5.932  0.2503 -1.0972 -0.3123
  808MOL0     C11370   8.369   4.128   5.863  0.7895 -0.5368 -0.2276
  808MOL0     C11371   8.396   4.209   5.757  0.6937 -0.3793 -0.2016
  808MOL0     C11372   8.296   4.271   5.682  0.2359 -0.1291  0.2340
  808MOL0     C11373   8.161   4.231   5.696  0.9426  0.4579  0.1574
  808MOL0     O11374   8.075   4.283   5.601  0.1113  0.5039  0.0073
  808MOL0     C11375   7.936   4.274   5.611  0.5379  0.0817  0.0604
  808MOL0     C11376   7.876   4.334   5.476  1.2051 -0.1743  0.0121
  808MOL0     C11377   7.908   4.490   5.461 -0.1610 -0.3755 -0.4697
  808MOL0     C11378   7.958   4.534   5.327 -0.2658  0.3766  0.6964
  808MOL0     C11379   7.943   4.686   5.306 -0.3855  0.4014 -0.3258
  808MOL0     C11380   7.987   4.729   5.159  0.3503  0.4657 -0.3433
  808MOL0     C11381   8.141   4.705   5.145  0.4642 -0.3935 -0.5079
  808MOL0     C11382   8.204   4.803   5.056 -0.0519 -0.2034  0.3309
  808MOL0     N11383   8.245   4.931   5.113 -0.0020 -1.0554 -0.1871
  808MOL0     C11384   8.217   4.967   5.243 -0.5850 -0.2001 -0.1796
  808MOL0     C11385   8.299   5.069   5.271 -0.0091  0.0282  0.8231
  808MOL0     C11386   8.288   5.152   5.401 -0.5848 -0.0603 -0.3495
  808MOL0     C11387   8.181   5.256   5.413  1.3088  0.5622  0.5595
  808MOL0     C11388   8.049   5.190   5.467  0.0497  0.6894  0.6987
  808MOL0     C11389   7.928   5.287   5.476  0.7812 -0.0278 -0.9666
  808MOL0     O11390   7.965   5.421   5.519 -0.4956 -0.7539 -0.3363
  808MOL0     C11391   7.851   5.481   5.564  0.4542  0.0855 -0.1391
  808MOL0     C11392   7.742   5.514   5.483  0.4787 -0.4565  0.6290
  808MOL0     C11393   7.629   5.592   5.523  0.8137  0.0401  0.2345
  808MOL0     C11394   7.520   5.637   5.422  0.5951  0.3029 -0.5144
  808MOL0     C11395   7.626   5.622   5.663  0.1137 -0.1841  0.0272
  808MOL0     C11396   7.506   5.685   5.730 -0.3189 -0.3323 -0.4646
  808MOL0     O11397   7.531   5.720   5.868  0.2437  0.4441  0.1508
  808MOL0     C11398   7.467   5.820   5.935 -0.1707  0.3106 -0.3633
  808MOL0     C11399   7.449   5.946   5.882  0.0759 -0.1043 -0.3357
  808MOL0     C11400   7.407   6.062   5.960  0.3158 -0.3100 -0.3242
  808MOL0     C11401   7.382   6.043   6.098  0.3048  0.0168  0.6465
  808MOL0     O11402   7.340   6.156   6.152 -0.5581  1.0450 -1.1600
  808MOL0     C11403   7.281   6.136   6.283  0.3257 -0.2330  0.2513
  808MOL0     C11404   7.245   6.260   6.359  0.2662  0.4540 -1.1308
  808MOL0     C11405   7.367   6.338   6.393 -0.4055  0.3709  1.3472
  808MOL0     C11406   7.327   6.461   6.480 -0.5200 -1.3413 -0.4182
  808MOL0     C11407   7.431   6.577   6.457 -0.7178  0.2235 -0.7125
  808MOL0     C11408   7.388   6.670   6.343 -0.1533 -0.4554  0.3384
  808MOL0     C11409   7.490   6.786   6.306  0.2578  0.2627  0.3290
  808MOL0     C11410   7.434   6.920   6.323 -0.1219  0.5835 -0.8630
  808MOL0    Cl11411   7.467   6.989   6.485 -0.5259  0.2716 -0.4723
  808MOL0     C11412   7.414   5.918   6.154  0.1154 -0.0431 -0.2835
  808MOL0     C11413   7.459   5.815   6.069 -0.7055  0.1147 -0.4141
  808MOL0     O11414   7.404   5.718   5.669 -0.8772  0.0637 -0.5437
  808MOL0     C11415   7.743   5.606   5.738  0.3262 -0.8007  0.5154
  808MOL0     C11416   7.854   5.538   5.692 -0.0047 -0.2650 -0.0232
  808MOL0     N11417   8.372   5.086   5.160  0.9265 -0.5854 -0.2725
  808MOL0     N11418   8.350   5.003   5.067 -0.3076  0.6500  0.2810
  808MOL0     C11419   8.124   4.140   5.800 -1.5880  0.0989  0.7285
  808MOL0     C11420   8.229   4.094   5.890  0.1271 -0.6464  0.6455
  808MOL0     C11421   8.589   4.041   6.141 -0.0790  0.4106  0.7857
  808MOL0     C11422   8.585   4.071   6.269 -0.2052  0.2933 -0.6006
  808MOL0     C11423   8.669   3.997   6.363  0.0097  0.2294  0.1253
  808MOL0     C11424   8.763   3.902   6.318 -0.2341 -0.3148 -0.3968
  808MOL0     O11425   8.849   3.856   6.418  0.1796 -0.0721  0.9033
  808MOL0     C11426   8.962   3.760   6.381 -0.1070 -0.4185 -0.1361
  808MOL0     C11427   8.928   3.605   6.381  0.7215 -0.1722  0.4466
  808MOL0     C11428   8.806   3.572   6.295  1.2230  0.4082  0.5111
  808MOL0     C11429   8.761   3.423   6.305  0.0265 -0.6357 -0.1379
  808MOL0     C11430   8.680   3.393   6.185 -0.0302 -0.3373  0.8581
  808MOL0     C11431   8.605   3.372   6.089  0.2928  0.2897 -0.8100
  808MOL0     C11432   8.770   3.870   6.182 -0.1375  0.6120 -0.4038
  808MOL0     C11433   8.684   3.941   6.092 -0.2626  0.4728 -0.2134
  808MOL0     C11434   8.703   3.903   5.948 -0.0040  0.0926 -0.4201
  808MOL0     H11435   8.496   4.247   5.737  0.8205  1.5816  3.3060
  808MOL0     H11436   8.319   4.345   5.606 -0.4427  0.1055  0.2518
  808MOL0     H11437   7.902   4.328   5.699 -2.9393  1.5177 -1.9645
  808MOL0     H11438   7.897   4.173   5.619  0.3998 -0.0257 -1.6417
  808MOL0     H11439   7.911   4.280   5.388  0.7384  2.9778 -2.2938
  808MOL0     H11440   7.767   4.321   5.474  1.3514 -1.7448 -2.7635
  808MOL0     H11441   7.814   4.543   5.477  1.1510  2.9837 -2.7895
  808MOL0     H11442   7.971   4.524   5.544  0.8736  0.7047 -1.6686
  808MOL0     H11443   8.057   4.492   5.310 -0.0135  0.5165  1.7951
  808MOL0     H11444   7.888   4.485   5.258  0.2500 -0.8691  1.0466
  808MOL0     H11445   8.003   4.728   5.387  0.4340 -1.4551  0.0898
  808MOL0     H11446   7.838   4.716   5.316 -0.0563  1.1316  1.2783
  808MOL0     H11447   7.933   4.687   5.074 -1.7782  3.6288 -0.7070
  808MOL0     H11448   7.983   4.837   5.141  1.0646  0.8725  1.6081
  808MOL0     H11449   8.150   4.603   5.104 -2.4257  0.2432 -3.0422
  808MOL0     H11450   8.180   4.699   5.247  0.2245 -1.5929 -0.4677
  808MOL0     H11451   8.289   4.742   5.024 -0.8977 -2.6480  2.3989
  808MOL0     H11452   8.137   4.823   4.972  0.2293  0.8153  0.3328
  808MOL0     H11453   8.140   4.934   5.313  1.1963 -0.7383  1.6102
  808MOL0     H11454   8.375   5.216   5.385  0.2513 -1.0383  0.1699
  808MOL0     H11455   8.310   5.084   5.484 -0.8972  0.8542  0.5043
  808MOL0     H11456   8.210   5.337   5.481  1.9980 -0.6879  1.7841
  808MOL0     H11457   8.159   5.303   5.316  1.9787  1.2673  0.7338
  808MOL0     H11458   8.012   5.118   5.393  0.7359 -2.4190  3.1804
  808MOL0     H11459   8.077   5.145   5.562 -0.6126 -0.1354  0.5145
  808MOL0     H11460   7.871   5.291   5.383 -0.9708  0.9612  0.0837
  808MOL0     H11461   7.857   5.248   5.551 -0.1745  1.7976 -0.8762
  808MOL0     H11462   7.755   5.494   5.377 -0.6116 -0.0130  0.3970
  808MOL0     H11463   7.440   5.563   5.411  0.6451  0.2664 -0.6320
  808MOL0     H11464   7.573   5.636   5.327  1.0575 -0.5581 -0.2662
  808MOL0     H11465   7.492   5.740   5.447  1.3270  0.5919 -0.8579
  808MOL0     H11466   7.472   5.965   5.777  1.6874 -0.8443 -0.1372
  808MOL0     H11467   7.392   6.159   5.913 -1.5278 -1.2504 -1.8400
  808MOL0     H11468   7.185   6.086   6.294  0.6841 -0.6269  1.9236
  808MOL0     H11469   7.345   6.078   6.350  0.2606  1.7028  2.0997
  808MOL0     H11470   7.166   6.316   6.308 -1.0219 -0.1260  0.1805
  808MOL0     H11471   7.207   6.237   6.458  0.8098 -1.9498 -1.4293
  808MOL0     H11472   7.405   6.374   6.297  0.2575 -2.0107  0.6470
  808MOL0     H11473   7.446   6.284   6.446  1.3305  2.4297  0.9830
  808MOL0     H11474   7.324   6.439   6.587 -0.0164  0.2353 -0.0505
  808MOL0     H11475   7.224   6.486   6.453 -0.8293  2.2683  3.2013
  808MOL0     H11476   7.436   6.646   6.541  1.6925 -1.0237  0.2537
  808MOL0     H11477   7.530   6.534   6.441 -1.1120 -1.0709  0.2212
  808MOL0     H11478   7.293   6.710   6.379  0.1650 -0.2910  1.0023
  808MOL0     H11479   7.366   6.617   6.250  1.8931  0.8259 -0.9581
  808MOL0     H11480   7.533   6.787   6.205  2.2568 -0.6850  1.1282
  808MOL0     H11481   7.583   6.768   6.359 -0.0094 -0.6632  0.5047
  808MOL0     H11482   7.329   6.914   6.294  0.2321 -1.8777 -1.9474
  808MOL0     H11483   7.486   6.989   6.255  2.9086 -1.7597 -1.1705
  808MOL0     H11484   7.415   5.900   6.261  1.0048  0.0374 -0.2730
  808MOL0     H11485   7.499   5.730   6.124  1.4339  1.6648  0.5770
  808MOL0     H11486   7.752   5.644   5.839 -1.8857  2.6850 -0.4373
  808MOL0     H11487   7.945   5.538   5.750 -0.2426  0.6000  0.3522
  808MOL0     H11488   8.022   4.104   5.812 -1.3252 -0.7510  0.4654
  808MOL0     H11489   8.192   4.046   5.980 -4.0084 -0.0239 -0.5173
  808MOL0     H11490   8.520   4.138   6.325 -0.2414 -1.4929  1.6576
  808MOL0     H11491   8.662   4.021   6.469  0.2577 -1.2859  0.5046
  808MOL0     H11492   9.004   3.789   6.284  0.1819 -0.4704 -0.0271
  808MOL0     H11493   9.043   3.781   6.452 -2.4797  2.4143  2.0151
  808MOL0     H11494   8.895   3.579   6.481 -0.9138  0.7823  0.1873
  808MOL0     H11495   9.013   3.543   6.350  1.2222  0.3748  0.7044
  808MOL0     H11496   8.726   3.642   6.321  2.3882  1.2695  1.9499
  808MOL0     H11497   8.824   3.593   6.189  1.7719  0.2271  0.5666
  808MOL0     H11498   8.699   3.405   6.394 -0.5316  2.6173  0.2583
  808MOL0     H11499   8.845   3.352   6.302 -0.8440 -1.6521 -2.2271
  808MOL0     H11500   8.537   3.375   6.006  1.6359 -0.5194 -1.9834
  808MOL0     H11501   8.842   3.803   6.136 -2.7560 -2.2542 -0.7014
  808MOL0     H11502   8.802   3.858   5.938  1.3763  2.2868  1.8981
  808MOL0     H11503   8.621   3.838   5.916 -1.2901  1.3198  0.2712
  808MOL0     H11504   8.697   3.995   5.888 -0.4366  0.6267  0.4163
  809MOL0     O11505   1.280   3.665   9.817 -0.4369 -0.8547  0.6137
  809MOL0     C11506   1.391   3.615   9.788 -0.4667 -0.4597  0.5597
  809MOL0     O11507   1.442   3.493   9.813  0.2189 -0.3507 -0.7310
  809MOL0     C11508   1.385   3.424   9.909 -0.2187 -0.3451 -0.2803
  809MOL0     C11509   1.450   3.384  10.018  1.0813  0.3285 -0.2383
  809MOL0     C11510   1.388   3.303  10.116  0.2601 -0.8488  0.1525
  809MOL0     C11511   1.250   3.266  10.106 -1.6458  0.2942 -0.4101
  809MOL0     O11512   1.204   3.190  10.215 -0.2071 -0.4449 -0.1432
  809MOL0     C11513   1.066   3.185  10.248 -0.7477 -0.9922 -0.1564
  809MOL0     C11514   1.027   3.140  10.384 -0.1846 -0.0187 -0.6402
  809MOL0     C11515   0.870   3.142  10.410 -0.1688  0.1736 -0.1657
  809MOL0     C11516   0.831   3.086  10.540 -0.0461 -0.0857  0.2368
  809MOL0     C11517   0.860   3.193  10.647 -0.4606 -0.2635  0.4126
  809MOL0     C11518   0.787   3.164  10.778 -0.0217  0.0190 -0.1303
  809MOL0     C11519   0.820   3.020  10.821  0.2310 -1.4100 -0.2297
  809MOL0     C11520   0.801   2.990  10.966 -0.2223 -0.2185 -0.0308
  809MOL0     N11521   0.665   3.010  11.019 -0.9553 -0.5517  0.1243
  809MOL0     C11522   0.630   3.123  11.102  0.8160  0.7178  0.3752
  809MOL0     C11523   0.531   3.075  11.175 -0.6117  0.3188 -0.0603
  809MOL0     C11524   0.469   3.145  11.294 -0.1552 -0.6519 -0.8945
  809MOL0     C11525   0.523   3.089  11.432  0.9509 -0.3759 -0.1689
  809MOL0     C11526   0.475   3.154  11.561 -0.4039 -0.3213 -0.9618
  809MOL0     C11527   0.323   3.170  11.601  0.3830  0.4102 -0.1058
  809MOL0     O11528   0.255   3.045  11.580 -0.3739  0.2192 -0.0113
  809MOL0     C11529   0.249   2.951  11.684 -0.1205 -0.3972  0.4937
  809MOL0     C11530   0.213   2.818  11.643  0.7224 -0.4967  1.0563
  809MOL0     C11531   0.175   2.715  11.725  0.8605 -0.0994 -0.2441
  809MOL0     C11532   0.119   2.590  11.672 -0.1219 -0.3549 -0.1000
  809MOL0     C11533   0.192   2.743  11.864  0.6612 -0.2748 -0.1977
  809MOL0     C11534   0.161   2.649  11.977  0.1664 -1.0585 -0.2926
  809MOL0     O11535   0.181   2.708  12.096  0.4299  0.1769 -0.6183
  809MOL0     C11536   0.151   2.634  12.214 -0.1597 -0.2025 -0.5629
  809MOL0     C11537   0.250   2.585  12.295  0.3631  0.2118  0.1825
  809MOL0     C11538   0.210   2.520  12.420  0.1200  0.1897  0.7691
  809MOL0     C11539   0.076   2.507  12.455 -0.7090 -1.3452 -0.1670
  809MOL0     O11540   0.026   2.446  12.563  0.0616  1.0261  0.8095
  809MOL0     C11541  -0.002   2.519  12.676  0.1664 -0.4368  0.3038
  809MOL0     C11542  -0.151   2.516  12.715  0.3683 -0.0629 -1.2051
  809MOL0     C11543  -0.166   2.602  12.846  0.1985  0.2341 -0.1141
  809MOL0     C11544  -0.308   2.568  12.900 -0.0056 -0.3112  0.2673
  809MOL0     C11545  -0.336   2.668  13.002 -0.7620 -0.5448 -0.3578
  809MOL0     C11546  -0.253   2.648  13.136  0.1350  0.0287  0.8433
  809MOL0     C11547  -0.264   2.509  13.210 -0.7873  0.0676  0.8677
  809MOL0     C11548  -0.390   2.489  13.285 -0.3403 -0.4818 -0.2090
  809MOL0    Cl11549  -0.521   2.456  13.166 -0.5533 -0.2149  0.1065
  809MOL0     C11550  -0.020   2.552  12.361 -0.7255 -0.3385  0.2229
  809MOL0     C11551   0.019   2.614  12.247  0.0297  0.4259 -0.5076
  809MOL0     O11552   0.147   2.531  11.963  0.2561 -0.0699 -0.4148
  809MOL0     C11553   0.232   2.872  11.908 -0.6730 -0.7374 -0.5352
  809MOL0     C11554   0.265   2.978  11.818  0.5538  1.2123 -1.4039
  809MOL0     N11555   0.504   2.945  11.131  0.1520 -0.2926  0.3970
  809MOL0     N11556   0.590   2.901  11.045 -0.1691  0.2155  0.4512
  809MOL0     C11557   1.177   3.309  10.001  0.1964  0.7731 -0.5171
  809MOL0     C11558   1.251   3.377   9.896  0.3824  0.0203  0.1083
  809MOL0     C11559   1.483   3.711   9.721 -0.5838 -1.0919 -0.4307
  809MOL0     C11560   1.426   3.798   9.630  0.4541  0.4536 -0.4626
  809MOL0     C11561   1.503   3.873   9.546 -0.7029 -0.7214 -0.3803
  809MOL0     C11562   1.641   3.881   9.562  0.3751 -1.2631 -0.4079
  809MOL0     O11563   1.692   3.975   9.481 -0.3159  0.6288  0.3815
  809MOL0     C11564   1.830   4.018   9.505  0.5527  0.0352  0.0557
  809MOL0     C11565   1.872   4.118   9.397  0.2753 -0.5188 -0.2781
  809MOL0     C11566   1.859   4.075   9.250  0.3113  0.7071 -0.1882
  809MOL0     C11567   1.950   3.970   9.215  0.8337 -0.4992  0.3104
  809MOL0     C11568   2.095   3.994   9.203 -0.2355  0.3763  0.3286
  809MOL0     C11569   2.211   4.010   9.225  0.3984 -0.3708 -0.2837
  809MOL0     C11570   1.705   3.804   9.665  0.1765  0.0347 -0.0347
  809MOL0     C11571   1.621   3.716   9.744 -0.2814  0.4516  0.7213
  809MOL0     C11572   1.681   3.635   9.858  0.8171  0.1097  0.0231
  809MOL0     H11573   1.555   3.404  10.035  0.6908 -0.0256  3.2710
  809MOL0     H11574   1.444   3.272  10.203 -1.8985  1.9960  2.7782
  809MOL0     H11575   1.018   3.118  10.176 -4.2045  0.1709  0.9005
  809MOL0     H11576   1.017   3.282  10.232  1.1731 -0.0914 -0.9825
  809MOL0     H11577   1.063   3.040  10.409  0.6488  0.3710 -0.2300
  809MOL0     H11578   1.081   3.202  10.456 -2.9548  1.5292  0.2588
  809MOL0     H11579   0.823   3.240  10.401 -2.3654 -0.8196 -0.3763
  809MOL0     H11580   0.827   3.072  10.337 -0.6086 -3.0504  2.8713
  809MOL0     H11581   0.730   3.045  10.534  0.0317 -0.1524 -0.9134
  809MOL0     H11582   0.893   3.000  10.565  0.9276  0.9117  1.3553
  809MOL0     H11583   0.825   3.290  10.611 -0.9163 -0.9295 -1.0025
  809MOL0     H11584   0.968   3.199  10.668 -0.0658 -1.3668 -1.1628
  809MOL0     H11585   0.824   3.233  10.854 -0.4413 -0.0879  0.1697
  809MOL0     H11586   0.680   3.185  10.766 -0.4047  0.1150  2.8066
  809MOL0     H11587   0.926   2.997  10.802  0.8359  1.4431 -0.7795
  809MOL0     H11588   0.754   2.955  10.763 -1.1898 -0.8899  0.7686
  809MOL0     H11589   0.834   2.887  10.980 -2.1563 -0.8297  0.3876
  809MOL0     H11590   0.874   3.046  11.025 -2.2732  0.8886  1.6161
  809MOL0     H11591   0.683   3.216  11.119  1.9747 -0.2077  2.2469
  809MOL0     H11592   0.362   3.124  11.287  0.5469 -5.8959  0.0559
  809MOL0     H11593   0.487   3.253  11.299 -1.1382 -0.5168  2.8513
  809MOL0     H11594   0.480   2.989  11.435 -3.6173  1.3212 -0.3700
  809MOL0     H11595   0.632   3.089  11.429  0.9595 -2.4593 -1.4731
  809MOL0     H11596   0.509   3.102  11.651 -1.0163  1.1359  0.1567
  809MOL0     H11597   0.523   3.252  11.553 -1.6242  0.1240 -4.3138
  809MOL0     H11598   0.317   3.208  11.703  3.8199  1.4036 -0.1390
  809MOL0     H11599   0.277   3.235  11.527 -2.4960 -0.2088  1.0155
  809MOL0     H11600   0.218   2.801  11.536  0.0696 -1.5671  1.1850
  809MOL0     H11601   0.186   2.510  11.703  0.3280 -1.4246 -3.4487
  809MOL0     H11602   0.120   2.581  11.563  2.6128 -0.8152 -0.1000
  809MOL0     H11603   0.017   2.578  11.710 -0.6000 -2.3647 -1.8198
  809MOL0     H11604   0.352   2.596  12.262 -0.4931  1.4344 -2.2951
  809MOL0     H11605   0.287   2.493  12.491  0.9646 -0.7558 -0.4634
  809MOL0     H11606   0.056   2.481  12.760 -0.4227 -2.6550 -0.2254
  809MOL0     H11607   0.037   2.621  12.661  1.0161 -0.7717  0.1865
  809MOL0     H11608  -0.216   2.554  12.636 -1.3632  3.4280  1.5983
  809MOL0     H11609  -0.177   2.410  12.723 -0.8446  0.2917 -0.0860
  809MOL0     H11610  -0.146   2.708  12.826 -0.3759  0.3460 -0.1232
  809MOL0     H11611  -0.091   2.566  12.917 -0.0125 -1.0695 -0.5393
  809MOL0     H11612  -0.326   2.465  12.932  1.4644 -0.0879  1.9035
  809MOL0     H11613  -0.368   2.589  12.811 -0.6623 -0.6734  0.6186
  809MOL0     H11614  -0.311   2.766  12.961 -2.5093  0.0984  0.0135
  809MOL0     H11615  -0.445   2.673  13.016 -0.7508  1.0061 -0.6220
  809MOL0     H11616  -0.283   2.730  13.202  0.4659  0.7244  0.1474
  809MOL0     H11617  -0.147   2.645  13.107 -0.0745 -0.0028  0.0427
  809MOL0     H11618  -0.181   2.513  13.282 -1.1127  0.1250  1.2431
  809MOL0     H11619  -0.238   2.431  13.137  1.2249 -0.8158  2.4228
  809MOL0     H11620  -0.412   2.577  13.346 -2.8501  0.1690 -1.9130
  809MOL0     H11621  -0.374   2.409  13.358  3.2270  1.6843  1.6916
  809MOL0     H11622  -0.126   2.536  12.372 -1.1726  1.2867 -1.2441
  809MOL0     H11623  -0.043   2.646  12.164  2.4854  0.1442 -2.6112
  809MOL0     H11624   0.258   2.892  12.011 -0.3034  0.6589 -0.8830
  809MOL0     H11625   0.288   3.074  11.863  3.7254 -0.4327  0.9164
  809MOL0     H11626   1.073   3.287   9.982 -0.1725  2.6353 -0.8453
  809MOL0     H11627   1.206   3.413   9.804  3.8772 -0.8701 -2.1484
  809MOL0     H11628   1.318   3.807   9.620 -0.2924 -2.3690  2.9469
  809MOL0     H11629   1.441   3.936   9.483  0.8346  2.5634  1.1584
  809MOL0     H11630   1.816   4.070   9.600 -2.8968  1.4600 -1.0762
  809MOL0     H11631   1.896   3.934   9.527 -2.6549 -2.2852  1.5638
  809MOL0     H11632   1.973   4.159   9.408 -0.4694  1.8341 -1.4088
  809MOL0     H11633   1.813   4.208   9.410 -0.0526 -0.6312 -0.9300
  809MOL0     H11634   1.758   4.034   9.236  0.2384 -0.1756  2.4095
  809MOL0     H11635   1.868   4.158   9.179  2.2243  0.1172 -0.6936
  809MOL0     H11636   1.919   3.945   9.113  0.3279  2.6782 -0.4172
  809MOL0     H11637   1.934   3.884   9.281 -2.5123  0.7355  1.3284
  809MOL0     H11638   2.316   4.023   9.240  0.0985  1.3059  0.5578
  809MOL0     H11639   1.804   3.826   9.703  0.3252 -0.3529 -0.1961
  809MOL0     H11640   1.610   3.631   9.942  0.5078  4.1020  0.1392
  809MOL0     H11641   1.704   3.537   9.814  0.1659  0.0162 -0.1210
  809MOL0     H11642   1.770   3.687   9.894  0.0073  0.3188  1.8874
  810MOL0     O11643   7.482   6.259   7.274  0.2490 -0.8412 -0.2297
  810MOL0     C11644   7.600   6.254   7.247  0.3995  0.6518  0.7844
  810MOL0     O11645   7.700   6.197   7.315 -0.4243 -0.6082  0.5455
  810MOL0     C11646   7.684   6.179   7.455  0.4784 -0.2383 -0.3119
  810MOL0     C11647   7.729   6.282   7.550  0.4684  0.2452  0.5690
  810MOL0     C11648   7.702   6.265   7.690  0.2986 -1.2101 -0.5645
  810MOL0     C11649   7.656   6.144   7.735 -0.9239  0.1471 -0.8051
  810MOL0     O11650   7.646   6.119   7.871  0.2807  0.2201 -0.2475
  810MOL0     C11651   7.665   6.224   7.972  0.1611  0.0230 -1.0289
  810MOL0     C11652   7.629   6.150   8.100  0.2291  0.5129  1.1792
  810MOL0     C11653   7.656   6.219   8.233 -0.0245  0.3627  0.5018
  810MOL0     C11654   7.560   6.171   8.346 -0.5137 -0.1538 -0.5145
  810MOL0     C11655   7.599   6.214   8.495  0.4328  0.3782  0.1262
  810MOL0     C11656   7.616   6.368   8.506 -0.4007  0.5585 -0.4378
  810MOL0     C11657   7.677   6.400   8.644 -0.5133  0.2301 -0.1804
  810MOL0     C11658   7.705   6.556   8.660  0.2093  1.1362  0.1792
  810MOL0     N11659   7.576   6.629   8.677 -0.2658 -0.0042 -0.5773
  810MOL0     C11660   7.487   6.603   8.789 -0.0368 -0.1284  0.3667
  810MOL0     C11661   7.380   6.687   8.757 -0.1671  0.3350 -0.1527
  810MOL0     C11662   7.251   6.697   8.837 -0.2973  0.4284  0.0140
  810MOL0     C11663   7.156   6.798   8.782  0.6699 -0.2280  0.6815
  810MOL0     C11664   7.019   6.801   8.870 -0.4808  0.1905  0.0273
  810MOL0     C11665   6.946   6.915   8.817  0.7902  0.6092 -0.1067
  810MOL0     O11666   7.023   7.023   8.868 -0.1541  0.0364 -0.8027
  810MOL0     C11667   7.051   7.134   8.786  0.1395 -0.8017  0.7455
  810MOL0     C11668   6.965   7.165   8.683  0.1167  0.8501 -0.6699
  810MOL0     C11669   6.977   7.280   8.609  0.0911 -0.0449  0.0688
  810MOL0     C11670   6.880   7.300   8.499 -0.1999 -0.1752 -0.2961
  810MOL0     C11671   7.077   7.372   8.646 -0.8349  0.1033  0.2755
  810MOL0     C11672   7.106   7.500   8.585  0.5133  0.0970 -0.0149
  810MOL0     O11673   7.207   7.582   8.642  1.1928 -0.7237  0.4662
  810MOL0     C11674   7.251   7.683   8.562 -0.5559  0.2298  0.2572
  810MOL0     C11675   7.168   7.780   8.519 -0.4396 -0.7502  0.4074
  810MOL0     C11676   7.223   7.888   8.436 -0.1801 -0.0361 -0.8096
  810MOL0     C11677   7.347   7.881   8.391 -1.5878 -0.2352  0.5811
  810MOL0     O11678   7.389   7.981   8.310  0.4511  0.6500  0.7746
  810MOL0     C11679   7.520   7.971   8.244  0.1024  0.6148  0.0302
  810MOL0     C11680   7.645   8.013   8.319  0.7749 -0.0437  0.3917
  810MOL0     C11681   7.656   8.167   8.340  0.5291 -0.5572  0.2681
  810MOL0     C11682   7.535   8.245   8.392 -0.3404 -0.2270  0.0425
  810MOL0     C11683   7.570   8.397   8.379  0.4936 -0.4176  0.2881
  810MOL0     C11684   7.517   8.449   8.253 -0.3911 -0.9218  0.0308
  810MOL0     C11685   7.571   8.590   8.230 -0.1439 -0.0365 -0.3995
  810MOL0     C11686   7.539   8.634   8.097  0.7393 -0.1534  0.4052
  810MOL0    Cl11687   7.644   8.558   7.978  0.1162 -0.5134  0.4483
  810MOL0     C11688   7.431   7.772   8.435  0.1799 -0.8091  0.1709
  810MOL0     C11689   7.387   7.680   8.529 -0.7172  0.0360  0.1528
  810MOL0     O11690   7.036   7.535   8.488 -0.4394 -0.1290  0.0644
  810MOL0     C11691   7.160   7.338   8.755  0.2886 -0.5296 -0.9266
  810MOL0     C11692   7.141   7.229   8.835  0.0668  0.3929  0.1021
  810MOL0     N11693   7.420   6.765   8.657  0.7390 -0.5197  0.0570
  810MOL0     N11694   7.537   6.735   8.611 -0.4171  0.5470 -1.2206
  810MOL0     C11695   7.628   6.044   7.644 -0.5041  0.4840 -0.1138
  810MOL0     C11696   7.634   6.065   7.504  0.3933  0.1748  0.5902
  810MOL0     C11697   7.632   6.329   7.122 -1.0535  0.0031  0.7519
  810MOL0     C11698   7.538   6.415   7.061  0.2619 -0.3943  0.6242
  810MOL0     C11699   7.576   6.494   6.961  0.1183  0.4348  0.6809
  810MOL0     C11700   7.700   6.491   6.896 -0.1073  0.4518 -0.3154
  810MOL0     O11701   7.719   6.575   6.784 -0.9548  0.8391 -1.0954
  810MOL0     C11702   7.846   6.644   6.802 -0.8372 -0.0738 -0.4040
  810MOL0     C11703   7.843   6.791   6.756  0.0728  1.0264  0.4587
  810MOL0     C11704   7.774   6.808   6.611 -0.1321  0.1510 -0.4439
  810MOL0     C11705   7.824   6.932   6.547  0.4175 -0.3601 -0.1097
  810MOL0     C11706   7.833   6.924   6.395  0.1234  1.6584  0.6694
  810MOL0     C11707   7.833   6.894   6.277  0.0778 -0.2195 -0.0977
  810MOL0     C11708   7.793   6.395   6.946  0.0324  0.2048 -1.4152
  810MOL0     C11709   7.762   6.323   7.065 -0.2421  0.0786 -0.1901
  810MOL0     C11710   7.865   6.216   7.089  0.1565 -0.4255 -1.2840
  810MOL0     H11711   7.765   6.379   7.517 -0.1364  0.8127  1.5203
  810MOL0     H11712   7.720   6.349   7.757 -1.1159 -0.2775 -1.3076
  810MOL0     H11713   7.606   6.316   7.961  0.0602 -0.2149 -2.8273
  810MOL0     H11714   7.768   6.263   7.974  0.8313 -1.6686 -0.9914
  810MOL0     H11715   7.526   6.115   8.090  0.8245 -0.5006 -2.9339
  810MOL0     H11716   7.699   6.066   8.090  0.1301  0.4094  1.3540
  810MOL0     H11717   7.760   6.209   8.267 -0.0645  1.6337  1.0609
  810MOL0     H11718   7.641   6.327   8.230 -0.3158  0.3227  0.5306
  810MOL0     H11719   7.460   6.214   8.334 -0.4843  1.1052  2.6568
  810MOL0     H11720   7.560   6.063   8.359 -1.7847  0.0475  1.6009
  810MOL0     H11721   7.695   6.167   8.517  1.9362  2.4650 -1.5633
  810MOL0     H11722   7.518   6.182   8.560 -0.8118  1.2588 -0.9378
  810MOL0     H11723   7.684   6.414   8.434 -0.7035 -0.0490 -1.1253
  810MOL0     H11724   7.520   6.421   8.500 -0.5187  0.2387 -1.6940
  810MOL0     H11725   7.761   6.330   8.648  0.2016  0.6381 -4.0513
  810MOL0     H11726   7.601   6.380   8.720 -2.3000  4.4565 -0.5647
  810MOL0     H11727   7.762   6.570   8.752  2.8852 -0.8571 -1.0315
  810MOL0     H11728   7.748   6.601   8.570  0.0404 -1.9045 -1.5969
  810MOL0     H11729   7.490   6.536   8.874 -0.8300 -0.0845  0.4417
  810MOL0     H11730   7.277   6.725   8.939 -0.5139  0.5474  0.0371
  810MOL0     H11731   7.204   6.598   8.828  0.5611  0.0421 -0.2980
  810MOL0     H11732   7.199   6.898   8.771 -2.2411  1.0966  0.3852
  810MOL0     H11733   7.137   6.772   8.678  1.0803 -0.6485  0.7053
  810MOL0     H11734   6.964   6.707   8.854  0.9553 -0.4624 -1.4266
  810MOL0     H11735   7.043   6.807   8.976  1.3453  3.9432 -0.4389
  810MOL0     H11736   6.940   6.911   8.708 -0.5747  0.8128 -0.0677
  810MOL0     H11737   6.846   6.915   8.861  0.5577 -1.3905 -0.5308
  810MOL0     H11738   6.882   7.098   8.661 -3.4652  4.0144  1.8483
  810MOL0     H11739   6.843   7.403   8.501 -2.0040 -0.6723 -3.0440
  810MOL0     H11740   6.796   7.231   8.498 -0.0674 -0.3516  0.4652
  810MOL0     H11741   6.931   7.298   8.402 -1.6215 -2.0185 -1.0555
  810MOL0     H11742   7.073   7.797   8.568  1.5924  6.9951  2.9946
  810MOL0     H11743   7.161   7.971   8.405  0.5561 -0.4490 -3.6450
  810MOL0     H11744   7.537   7.869   8.210  0.4081  0.2125  1.3498
  810MOL0     H11745   7.521   8.038   8.157  2.7318 -2.5108 -2.6495
  810MOL0     H11746   7.636   7.970   8.419  0.7026  1.2780  0.9701
  810MOL0     H11747   7.732   7.962   8.277 -0.6111 -0.5273 -2.0781
  810MOL0     H11748   7.684   8.208   8.242 -1.1599 -2.8596 -1.2888
  810MOL0     H11749   7.740   8.195   8.404 -1.1224  0.5890  2.0225
  810MOL0     H11750   7.515   8.208   8.493  2.6871 -0.1726  0.7583
  810MOL0     H11751   7.448   8.222   8.330 -1.2409  2.2274  0.2847
  810MOL0     H11752   7.533   8.457   8.462 -1.0781 -1.1407  0.1478
  810MOL0     H11753   7.675   8.407   8.352  0.7555 -0.7420  1.1570
  810MOL0     H11754   7.407   8.448   8.251 -0.7689  4.2449  1.8821
  810MOL0     H11755   7.559   8.389   8.172  3.0851 -1.8379  2.2875
  810MOL0     H11756   7.679   8.595   8.245 -0.3071  0.7044  0.6453
  810MOL0     H11757   7.520   8.653   8.303 -1.6391  0.3377 -1.7189
  810MOL0     H11758   7.550   8.742   8.103  3.5395 -0.2487 -1.3537
  810MOL0     H11759   7.433   8.618   8.073  0.6711  1.3561 -0.4287
  810MOL0     H11760   7.533   7.770   8.399 -0.3590  0.1007 -1.5968
  810MOL0     H11761   7.449   7.601   8.569  2.4422  2.1314 -0.2499
  810MOL0     H11762   7.246   7.397   8.785 -0.1698  1.4680 -3.2301
  810MOL0     H11763   7.199   7.204   8.923 -1.3241  0.3715  1.0439
  810MOL0     H11764   7.607   5.946   7.685  2.7492 -0.1458  0.3486
  810MOL0     H11765   7.600   5.989   7.433 -0.5350  3.1266 -2.3645
  810MOL0     H11766   7.442   6.418   7.110  0.1978 -1.8149  0.6025
  810MOL0     H11767   7.497   6.561   6.930  0.3205  1.0656  1.4631
  810MOL0     H11768   7.869   6.649   6.908  3.2805 -1.1828 -1.0656
  810MOL0     H11769   7.928   6.589   6.756  0.8318  1.4094  0.6611
  810MOL0     H11770   7.948   6.817   6.738  0.0836 -0.9859 -3.3148
  810MOL0     H11771   7.804   6.846   6.842  1.6576  0.5386  1.5342
  810MOL0     H11772   7.823   6.727   6.556  2.4673  2.6508 -2.0401
  810MOL0     H11773   7.666   6.800   6.619 -0.0163 -1.8686 -0.2556
  810MOL0     H11774   7.916   6.972   6.592  1.2419 -2.2887  0.0185
  810MOL0     H11775   7.752   7.008   6.577 -0.3560 -1.5130  1.0634
  810MOL0     H11776   7.811   6.851   6.181 -2.4771  1.4627 -0.3441
  810MOL0     H11777   7.881   6.369   6.887 -0.7115 -2.0815 -1.6313
  810MOL0     H11778   7.927   6.207   6.999 -3.1663 -3.3800 -3.5680
  810MOL0     H11779   7.917   6.231   7.184  0.2990  2.3853 -1.7478
  810MOL0     H11780   7.815   6.119   7.097 -2.1185  0.6135 -2.1123
  811MOL0     O11781   9.931   6.125   7.009 -0.5242  0.0540 -0.0656
  811MOL0     C11782   9.850   6.034   6.994  0.3182 -0.7162  0.1049
  811MOL0     O11783   9.874   5.903   7.010 -0.1759 -0.2107 -1.4342
  811MOL0     C11784  10.002   5.877   7.055  0.8310  0.1102 -1.3378
  811MOL0     C11785  10.102   5.893   6.960  0.7906 -0.9365  0.2906
  811MOL0     C11786  10.231   5.845   6.992 -0.7013  0.3651  0.0378
  811MOL0     C11787  10.257   5.792   7.123 -0.8004  0.2852 -0.1222
  811MOL0     O11788  10.382   5.735   7.141  0.3996 -0.8938 -0.4469
  811MOL0     C11789  10.429   5.686   7.267  1.0099 -0.3799  0.2297
  811MOL0     C11790  10.530   5.579   7.253 -0.1597  0.0628 -0.5614
  811MOL0     C11791  10.660   5.631   7.173  0.3276  0.1726  0.6224
  811MOL0     C11792  10.761   5.721   7.250 -0.6726  0.4319 -0.1035
  811MOL0     C11793  10.894   5.714   7.173  0.5843  0.6333  0.6088
  811MOL0     C11794  11.019   5.783   7.246  0.0484  0.3217 -0.1247
  811MOL0     C11795  11.019   5.936   7.228 -0.3123  0.1585  0.9484
  811MOL0     C11796  11.117   6.013   7.317  0.4715  0.2590 -0.9406
  811MOL0     N11797  11.095   6.157   7.291  0.4630 -0.2853  1.0122
  811MOL0     C11798  10.978   6.220   7.312  0.8302  0.0966  0.8181
  811MOL0     C11799  11.024   6.347   7.305 -0.1207 -0.2125 -0.4626
  811MOL0     C11800  10.933   6.458   7.332 -0.1395  0.2325 -0.1546
  811MOL0     C11801  10.951   6.513   7.476  0.4528 -0.2400 -0.6205
  811MOL0     C11802  10.860   6.628   7.505  0.5972 -1.4052 -0.3822
  811MOL0     C11803  10.888   6.750   7.436 -0.1759 -1.0979  0.3972
  811MOL0     O11804  11.025   6.791   7.432 -0.9776 -0.3894 -0.6530
  811MOL0     C11805  11.083   6.848   7.545 -0.4728 -1.2728  0.0558
  811MOL0     C11806  11.017   6.922   7.645 -0.4202 -0.1131  0.8399
  811MOL0     C11807  11.083   6.994   7.737 -0.6633 -0.6542 -0.2457
  811MOL0     C11808  10.991   7.059   7.836  0.7121  0.5594  0.2798
  811MOL0     C11809  11.226   7.006   7.729 -0.4728 -0.1970 -0.6597
  811MOL0     C11810  11.311   7.069   7.837  0.7226 -1.1198 -0.1896
  811MOL0     O11811  11.447   7.046   7.834 -0.5952  0.0266  0.3703
  811MOL0     C11812  11.523   7.088   7.936  0.2269  0.1229 -0.3455
  811MOL0     C11813  11.585   6.988   8.023  0.0299  0.0970  0.8351
  811MOL0     C11814  11.670   7.021   8.124  0.2421 -0.1585 -0.4610
  811MOL0     C11815  11.671   7.159   8.163 -0.0193  0.2173  0.4676
  811MOL0     O11816  11.720   7.208   8.281 -0.5234 -0.3934 -0.2110
  811MOL0     C11817  11.825   7.128   8.330  0.7013  0.0651 -0.8871
  811MOL0     C11818  11.874   7.213   8.448 -0.0029  1.3405 -0.5768
  811MOL0     C11819  11.995   7.146   8.517 -0.0331  1.0809  0.7035
  811MOL0     C11820  12.053   7.242   8.628 -0.3835 -0.9991 -0.2523
  811MOL0     C11821  12.189   7.190   8.694  0.4638 -0.3824  0.8144
  811MOL0     C11822  12.234   7.265   8.814  0.1402  0.1237 -0.5312
  811MOL0     C11823  12.382   7.224   8.843 -0.0892 -0.1095  0.0749
  811MOL0     C11824  12.447   7.313   8.937 -0.8246 -0.1222  0.8114
  811MOL0    Cl11825  12.626   7.320   8.923  0.7900 -0.1113 -0.3435
  811MOL0     C11826  11.607   7.260   8.081 -0.1051  0.3549 -0.0056
  811MOL0     C11827  11.539   7.222   7.964  0.4481 -0.1573  0.5907
  811MOL0     O11828  11.254   7.131   7.932 -0.4715 -0.4092  0.4623
  811MOL0     C11829  11.293   6.947   7.619 -0.4679 -0.2119  0.0722
  811MOL0     C11830  11.221   6.865   7.534  0.5883 -0.3400 -0.0675
  811MOL0     N11831  11.158   6.358   7.283 -1.0640  0.8811 -0.1200
  811MOL0     N11832  11.205   6.240   7.276  0.4250  0.4076  0.5120
  811MOL0     C11833  10.160   5.797   7.218  0.4482  0.0360 -0.4066
  811MOL0     C11834  10.028   5.832   7.185 -0.2728  0.0874  0.7418
  811MOL0     C11835   9.715   6.079   6.955  0.4940 -0.5643 -0.1352
  811MOL0     C11836   9.641   5.999   6.856  0.0595  0.4383 -0.6608
  811MOL0     C11837   9.511   6.027   6.809 -0.1324  0.4058 -0.2050
  811MOL0     C11838   9.444   6.146   6.860  0.1646 -0.4661  0.0927
  811MOL0     O11839   9.316   6.171   6.806 -0.5576 -0.4377 -0.3833
  811MOL0     C11840   9.214   6.173   6.907  0.2156 -0.8141 -0.4729
  811MOL0     C11841   9.084   6.160   6.820  0.0016 -0.2073  0.7174
  811MOL0     C11842   8.956   6.164   6.907 -0.3986 -1.0132  0.0506
  811MOL0     C11843   8.835   6.179   6.815 -0.4799 -0.3577 -0.6822
  811MOL0     C11844   8.718   6.135   6.886  0.3342 -0.2123 -0.6559
  811MOL0     C11845   8.619   6.091   6.945  0.2687  0.3238  0.5392
  811MOL0     C11846   9.506   6.218   6.963  0.5826 -0.5011  0.1876
  811MOL0     C11847   9.635   6.196   7.005  0.2118  0.0467 -0.2545
  811MOL0     C11848   9.687   6.282   7.115  0.4498  0.2328  0.3795
  811MOL0     H11849  10.087   5.944   6.865 -0.8946 -3.1068 -0.7244
  811MOL0     H11850  10.314   5.843   6.923 -2.7799  1.3732 -2.6462
  811MOL0     H11851  10.340   5.646   7.315  0.1127  1.9484  0.6492
  811MOL0     H11852  10.469   5.757   7.341  0.6295  0.1891 -0.1042
  811MOL0     H11853  10.538   5.533   7.352  1.6023 -2.0729 -1.5944
  811MOL0     H11854  10.491   5.502   7.185 -0.5973 -0.8508  0.6781
  811MOL0     H11855  10.718   5.549   7.130  0.4878 -0.5756  2.1785
  811MOL0     H11856  10.634   5.694   7.087  0.0241 -1.3400 -0.4207
  811MOL0     H11857  10.723   5.823   7.246 -1.4458  0.1165 -0.8082
  811MOL0     H11858  10.766   5.682   7.352  1.4891 -0.7606 -0.5997
  811MOL0     H11859  10.876   5.742   7.068 -1.0032  0.8376  0.9201
  811MOL0     H11860  10.919   5.608   7.167 -2.9194 -0.3977  1.7239
  811MOL0     H11861  11.019   5.753   7.351 -0.8171  0.3376 -0.1088
  811MOL0     H11862  11.106   5.737   7.198 -0.8588 -1.3932 -0.1992
  811MOL0     H11863  10.918   5.977   7.228 -1.3313 -2.1983  1.5499
  811MOL0     H11864  11.048   5.952   7.124 -1.8927 -0.0767  0.4475
  811MOL0     H11865  11.098   5.987   7.422 -0.5645 -0.5389 -1.3128
  811MOL0     H11866  11.216   5.984   7.279 -0.6907 -0.5308 -3.5221
  811MOL0     H11867  10.876   6.185   7.327  0.4209  0.9951  0.1882
  811MOL0     H11868  10.828   6.430   7.315 -1.1626  1.6756  3.0975
  811MOL0     H11869  10.953   6.542   7.265 -0.5188  1.8969  1.7199
  811MOL0     H11870  10.931   6.441   7.556 -0.8562  3.6123  2.8988
  811MOL0     H11871  11.055   6.549   7.482 -0.5172  2.5683  1.1180
  811MOL0     H11872  10.754   6.602   7.498  0.8209 -2.2941 -0.5892
  811MOL0     H11873  10.879   6.640   7.612 -0.2578 -1.8251 -0.1728
  811MOL0     H11874  10.860   6.744   7.330 -0.7012 -3.5544  0.6244
  811MOL0     H11875  10.839   6.840   7.475  1.3653 -0.0456  0.0042
  811MOL0     H11876  10.909   6.914   7.653 -0.6698  1.1330 -0.5851
  811MOL0     H11877  10.973   7.167   7.830  3.7291  1.1483  0.5387
  811MOL0     H11878  11.023   7.041   7.939 -1.2682  0.4939  0.9377
  811MOL0     H11879  10.897   7.003   7.832  0.1803  1.2200  2.5151
  811MOL0     H11880  11.573   6.886   7.988 -0.3196  0.3925  0.0766
  811MOL0     H11881  11.705   6.943   8.190 -2.4549 -1.9599 -1.0263
  811MOL0     H11882  11.805   7.024   8.356  1.8796  0.8439  4.0224
  811MOL0     H11883  11.902   7.137   8.252  1.1163 -4.1618 -1.1767
  811MOL0     H11884  11.898   7.317   8.427  1.1504  1.5575  1.5464
  811MOL0     H11885  11.797   7.218   8.525 -0.8749  1.3310 -1.4245
  811MOL0     H11886  12.068   7.113   8.443 -1.3775  1.8606 -1.0429
  811MOL0     H11887  11.959   7.052   8.559 -2.7285  1.9366  0.5179
  811MOL0     H11888  11.983   7.263   8.710 -0.6422 -0.7027 -0.5458
  811MOL0     H11889  12.077   7.340   8.587 -0.8911 -0.1844  1.3031
  811MOL0     H11890  12.180   7.083   8.715  0.2450 -0.0139  2.7386
  811MOL0     H11891  12.271   7.201   8.622  1.3635 -1.5611  1.6207
  811MOL0     H11892  12.176   7.251   8.906 -0.0922 -0.7871 -0.8074
  811MOL0     H11893  12.242   7.371   8.788 -2.0858  0.3664 -0.4487
  811MOL0     H11894  12.438   7.236   8.749 -0.8587 -0.9290 -0.5075
  811MOL0     H11895  12.393   7.122   8.882  0.0172 -0.3809 -0.6377
  811MOL0     H11896  12.425   7.272   9.036 -1.1929 -1.0414  0.3612
  811MOL0     H11897  12.394   7.407   8.924 -0.5508 -0.0015  0.5317
  811MOL0     H11898  11.622   7.362   8.116 -1.4663  0.8079 -0.6646
  811MOL0     H11899  11.490   7.287   7.892  2.0612 -0.8967 -1.2708
  811MOL0     H11900  11.402   6.947   7.619 -0.4598 -0.5720 -1.1964
  811MOL0     H11901  11.264   6.814   7.449  2.3532  1.8411 -0.5989
  811MOL0     H11902  10.177   5.749   7.314 -2.1028 -0.5411 -0.1846
  811MOL0     H11903   9.938   5.810   7.243 -1.2242  1.3516 -0.1924
  811MOL0     H11904   9.701   5.922   6.809  0.6810  1.0810 -0.9520
  811MOL0     H11905   9.478   5.962   6.728 -0.1116  0.1059  0.0251
  811MOL0     H11906   9.231   6.089   6.975  2.2524  1.2604  1.7669
  811MOL0     H11907   9.212   6.269   6.958  2.1597 -0.9891  0.0056
  811MOL0     H11908   9.098   6.079   6.748  3.8687  1.9052 -1.2293
  811MOL0     H11909   9.067   6.238   6.745  0.7529 -0.7995 -0.0923
  811MOL0     H11910   8.950   6.074   6.969 -0.9315  0.1325  1.7236
  811MOL0     H11911   8.947   6.252   6.971 -0.0245 -0.3855 -0.7369
  811MOL0     H11912   8.841   6.113   6.728 -0.1241 -0.5308 -0.5291
  811MOL0     H11913   8.820   6.283   6.783 -3.3472  0.0785  1.6093
  811MOL0     H11914   8.535   6.040   6.988  1.0914 -0.7290  0.9259
  811MOL0     H11915   9.453   6.285   7.030 -2.6363 -0.8779 -1.7154
  811MOL0     H11916   9.742   6.223   7.189  0.4806  1.4360  1.3420
  811MOL0     H11917   9.757   6.356   7.076  0.7749 -0.1061  0.3188
  811MOL0     H11918   9.605   6.335   7.164 -1.3102 -2.2457  0.3090
  812MOL0     O11919   5.082  10.888   7.027  0.0147  0.4898  0.6753
  812MOL0     C11920   5.018  10.815   6.950  0.3525 -0.2536  0.7981
  812MOL0     O11921   5.081  10.743   6.845  0.6862 -0.0472 -1.1923
  812MOL0     C11922   5.217  10.752   6.836 -0.2740 -0.4524  0.3863
  812MOL0     C11923   5.305  10.660   6.901  0.7806  0.5764 -0.5014
  812MOL0     C11924   5.443  10.678   6.899  0.0080 -0.8495  0.0234
  812MOL0     C11925   5.497  10.796   6.848  0.9035  0.2259  0.5466
  812MOL0     O11926   5.625  10.846   6.862 -0.9237  0.3501  0.0624
  812MOL0     C11927   5.725  10.805   6.956 -1.0559 -0.3805  0.2724
  812MOL0     C11928   5.693  10.825   7.102 -0.3532 -0.0629 -0.1158
  812MOL0     C11929   5.805  10.771   7.177 -0.1137 -0.0014 -0.9617
  812MOL0     C11930   5.782  10.782   7.322 -0.1890 -0.3224  0.0271
  812MOL0     C11931   5.902  10.715   7.397 -0.2412 -0.1781 -0.8299
  812MOL0     C11932   5.863  10.701   7.542 -0.9995 -0.0331 -0.9747
  812MOL0     C11933   5.951  10.599   7.615  0.3964 -0.0982 -0.4581
  812MOL0     C11934   5.921  10.597   7.766 -0.1695 -0.4694 -0.4352
  812MOL0     N11935   5.953  10.464   7.811  0.2177  0.5026 -0.3000
  812MOL0     C11936   5.874  10.356   7.808 -0.2535  0.6961 -0.4232
  812MOL0     C11937   5.935  10.261   7.887  0.1748  0.4023 -0.4386
  812MOL0     C11938   5.899  10.122   7.915  1.3220 -0.4263  0.6743
  812MOL0     C11939   5.807  10.062   7.803 -1.1671  0.2866 -0.4265
  812MOL0     C11940   5.768   9.920   7.845  0.2564 -0.2357 -0.3592
  812MOL0     C11941   5.690   9.832   7.748  0.7616 -1.1891 -0.0680
  812MOL0     O11942   5.556   9.891   7.717  0.1229  0.7017  0.1189
  812MOL0     C11943   5.486   9.856   7.600  0.0688 -0.6737 -0.7928
  812MOL0     C11944   5.395   9.956   7.549  0.4035 -0.1223 -0.1277
  812MOL0     C11945   5.319   9.936   7.428 -1.0350  0.1488 -0.6772
  812MOL0     C11946   5.226  10.043   7.404  0.1491 -0.3197 -0.1875
  812MOL0     C11947   5.323   9.809   7.367  0.8406  0.4477  0.2309
  812MOL0     C11948   5.240   9.776   7.254  0.6017  0.0352  0.6165
  812MOL0     O11949   5.300   9.717   7.143 -0.3027  0.1105  0.0433
  812MOL0     C11950   5.264   9.748   7.016  0.0384 -0.1033  0.0005
  812MOL0     C11951   5.204   9.873   6.984 -0.2209  0.4338 -0.5080
  812MOL0     C11952   5.169   9.908   6.857  0.5474  0.9592 -0.3407
  812MOL0     C11953   5.181   9.808   6.749 -0.3937 -0.0779 -0.1209
  812MOL0     O11954   5.131   9.813   6.621  0.1834 -0.2833 -0.1108
  812MOL0     C11955   5.094   9.943   6.558  0.0172  0.3845  0.5047
  812MOL0     C11956   4.988   9.916   6.445  0.0878 -0.2625 -0.9461
  812MOL0     C11957   4.941  10.055   6.389  0.3927 -0.3426 -0.5314
  812MOL0     C11958   4.852  10.051   6.268 -0.3412  0.0095 -0.2656
  812MOL0     C11959   4.831  10.195   6.224 -0.4281  0.4435  0.2280
  812MOL0     C11960   4.807  10.200   6.072  0.3623 -0.2032 -0.7130
  812MOL0     C11961   4.667  10.188   6.037 -0.4919 -0.6248  0.4477
  812MOL0     C11962   4.657  10.204   5.885 -0.2691 -0.4744  0.6989
  812MOL0    Cl11963   4.487  10.222   5.840 -0.4669 -0.1941  0.0064
  812MOL0     C11964   5.243   9.684   6.783  0.8403 -0.3234  0.3032
  812MOL0     C11965   5.274   9.656   6.906  0.0210  0.3919 -0.5201
  812MOL0     O11966   5.119   9.790   7.273 -0.4837  0.4120 -0.2842
  812MOL0     C11967   5.415   9.716   7.418 -0.4302  0.4273 -0.6532
  812MOL0     C11968   5.498   9.730   7.529  0.1286 -0.3391  0.1409
  812MOL0     N11969   6.037  10.319   7.949  0.0554 -0.4012  0.7414
  812MOL0     N11970   6.058  10.441   7.901 -0.5325  0.0522 -1.2212
  812MOL0     C11971   5.418  10.882   6.766 -0.7492  0.0448 -0.3633
  812MOL0     C11972   5.283  10.861   6.761  1.2082 -0.4733  0.2099
  812MOL0     C11973   4.867  10.814   6.962 -0.5192 -0.8666  0.2303
  812MOL0     C11974   4.817  10.887   7.060  0.2156  0.3209 -0.6245
  812MOL0     C11975   4.686  10.892   7.092 -0.1161 -0.1000 -0.5097
  812MOL0     C11976   4.590  10.819   7.017  0.2380  0.3132 -0.0232
  812MOL0     O11977   4.460  10.818   7.050  0.6173  0.5895  0.1512
  812MOL0     C11978   4.391  10.938   7.046  0.0129  0.4206 -0.0755
  812MOL0     C11979   4.285  10.936   7.153  0.4316 -0.4406  1.4113
  812MOL0     C11980   4.181  10.822   7.149  0.5763  0.0881 -0.3678
  812MOL0     C11981   4.114  10.816   7.020  0.9586  0.3453 -0.0926
  812MOL0     C11982   4.019  10.696   7.032 -0.3911 -0.1674  0.6640
  812MOL0     C11983   3.953  10.596   7.031 -0.0251 -0.6708 -0.1598
  812MOL0     C11984   4.635  10.747   6.907  0.3345  0.2648  0.0825
  812MOL0     C11985   4.775  10.743   6.884 -0.7011  1.1324  0.4651
  812MOL0     C11986   4.819  10.664   6.758 -0.5417 -0.4616 -0.6201
  812MOL0     H11987   5.246  10.583   6.951  1.1591  1.3944  1.2837
  812MOL0     H11988   5.512  10.623   6.961  2.7836  2.0845 -0.2371
  812MOL0     H11989   5.806  10.877   6.938  0.0079 -1.1224  1.8590
  812MOL0     H11990   5.765  10.706   6.933  1.8023  0.8350 -0.4874
  812MOL0     H11991   5.681  10.932   7.119 -0.4362 -0.0689 -0.1367
  812MOL0     H11992   5.600  10.775   7.130 -1.3232  1.1315 -1.1063
  812MOL0     H11993   5.818  10.667   7.145 -1.6763 -1.1067  1.6788
  812MOL0     H11994   5.895  10.829   7.153 -0.7500  1.2904 -0.2978
  812MOL0     H11995   5.776  10.890   7.338 -1.4238 -0.1741 -1.1827
  812MOL0     H11996   5.686  10.741   7.352  0.0733  0.0841  1.4622
  812MOL0     H11997   5.989  10.780   7.385  1.4511 -2.3866 -1.1079
  812MOL0     H11998   5.932  10.616   7.365  0.5615 -0.8441  1.7442
  812MOL0     H11999   5.881  10.794   7.598 -0.7634 -1.8498  2.2298
  812MOL0     H12000   5.761  10.672   7.567 -0.6687  0.3452  0.9840
  812MOL0     H12001   6.056  10.627   7.605  0.9220 -2.1672 -1.4516
  812MOL0     H12002   5.925  10.500   7.574 -3.1862  0.6078 -0.2023
  812MOL0     H12003   5.980  10.677   7.812 -2.2855  1.5902 -1.0836
  812MOL0     H12004   5.815  10.614   7.788 -0.1263  2.7459 -2.1591
  812MOL0     H12005   5.780  10.337   7.758 -1.3626 -0.7402  2.0504
  812MOL0     H12006   5.852  10.119   8.014  0.0713  0.6816  0.1400
  812MOL0     H12007   5.997  10.074   7.925  0.5396 -2.1233  0.3925
  812MOL0     H12008   5.714  10.115   7.779 -0.9559 -0.3839 -3.0309
  812MOL0     H12009   5.868  10.055   7.712 -1.3781 -2.7538 -0.4301
  812MOL0     H12010   5.865   9.871   7.861  0.8413  1.5820  2.2474
  812MOL0     H12011   5.722   9.916   7.944 -1.0603 -0.4524 -0.9606
  812MOL0     H12012   5.739   9.835   7.650 -2.3058 -1.7903 -1.7863
  812MOL0     H12013   5.679   9.728   7.781  3.4349 -0.6249  3.0763
  812MOL0     H12014   5.383  10.042   7.613  0.0473 -0.9686  0.9661
  812MOL0     H12015   5.135  10.027   7.462  0.4563  0.3867  0.5098
  812MOL0     H12016   5.210  10.051   7.296  0.8500 -0.0829 -0.2834
  812MOL0     H12017   5.267  10.138   7.439 -1.3737 -0.4695  2.1944
  812MOL0     H12018   5.192   9.954   7.055 -3.7657  0.1219 -0.5658
  812MOL0     H12019   5.122  10.004   6.838 -1.7290  0.2665  1.3028
  812MOL0     H12020   5.051  10.011   6.632 -2.3323  0.4033 -0.7734
  812MOL0     H12021   5.179   9.985   6.505  2.5619  0.2674  4.1365
  812MOL0     H12022   5.032   9.854   6.367 -0.2672 -0.0150 -1.3490
  812MOL0     H12023   4.901   9.872   6.494 -0.2812  3.2099  1.9996
  812MOL0     H12024   5.032  10.104   6.353  1.8101 -1.3346  1.4795
  812MOL0     H12025   4.902  10.119   6.468  3.6669 -0.2027  1.1366
  812MOL0     H12026   4.749  10.016   6.282 -0.5198  1.0643  1.2379
  812MOL0     H12027   4.895   9.987   6.190 -0.0313 -1.5445  1.1266
  812MOL0     H12028   4.753  10.250   6.276 -0.7011 -0.6931  1.0634
  812MOL0     H12029   4.922  10.254   6.240 -0.8487  0.6488  2.0506
  812MOL0     H12030   4.862  10.118   6.026  2.4801  0.9922 -0.4781
  812MOL0     H12031   4.842  10.297   6.034 -0.6091  1.3048  1.9352
  812MOL0     H12032   4.611  10.264   6.093  0.6285 -0.0055  0.7641
  812MOL0     H12033   4.633  10.091   6.074  0.3148 -0.9639  0.3101
  812MOL0     H12034   4.697  10.120   5.828 -1.2201 -0.0137 -0.7093
  812MOL0     H12035   4.714  10.290   5.848 -0.6966 -0.3985  0.2013
  812MOL0     H12036   5.253   9.611   6.704  0.4283  0.9969 -1.0204
  812MOL0     H12037   5.320   9.559   6.926 -2.5639 -1.0744 -1.2566
  812MOL0     H12038   5.416   9.627   7.356 -3.5804  1.7384 -2.8527
  812MOL0     H12039   5.576   9.658   7.556  0.8519  0.5333  0.4251
  812MOL0     H12040   5.462  10.978   6.740  3.1466 -0.7896  2.2494
  812MOL0     H12041   5.231  10.938   6.704  2.8694  0.2964 -0.3305
  812MOL0     H12042   4.874  10.949   7.128  1.8840  0.1208 -1.7877
  812MOL0     H12043   4.657  10.955   7.176  1.2404  0.6478 -0.5764
  812MOL0     H12044   4.456  11.021   7.072 -1.0693  1.4312 -0.5154
  812MOL0     H12045   4.355  10.967   6.947  0.4732 -0.8856 -0.6551
  812MOL0     H12046   4.235  11.033   7.159 -0.3647 -0.5538 -1.6342
  812MOL0     H12047   4.333  10.931   7.251  1.0054  3.1974  1.4445
  812MOL0     H12048   4.225  10.725   7.177 -2.0086 -1.1677 -0.3696
  812MOL0     H12049   4.104  10.836   7.226  1.3621 -1.0138  0.6797
  812MOL0     H12050   4.182  10.798   6.937 -0.3050  4.0567 -2.2013
  812MOL0     H12051   4.057  10.909   7.004  0.1763  0.9495  4.7345
  812MOL0     H12052   3.897  10.505   7.032 -2.8664  0.8643  3.8900
  812MOL0     H12053   4.558  10.706   6.842 -0.2762 -0.9242  1.5162
  812MOL0     H12054   4.868  10.740   6.696 -0.4703 -0.1393 -0.1683
  812MOL0     H12055   4.889  10.584   6.783 -1.9479 -0.6806  3.1830
  812MOL0     H12056   4.739  10.612   6.704 -2.6013 -0.8598  2.5668
  813MOL0     O12057   0.500  10.762  11.136 -0.3204  0.2287  0.1733
  813MOL0     C12058   0.570  10.810  11.222  0.1887 -0.4862 -0.3343
  813MOL0     O12059   0.537  10.920  11.301  0.3811  0.2778 -0.0862
  813MOL0     C12060   0.410  10.957  11.308  0.1119 -1.7348 -0.9853
  813MOL0     C12061   0.358  11.036  11.206 -0.6243 -0.7794 -0.6871
  813MOL0     C12062   0.229  11.088  11.222  0.9875  1.3729  0.5647
  813MOL0     C12063   0.155  11.053  11.330  1.5382 -0.1957 -0.0988
  813MOL0     O12064   0.047  11.124  11.340 -0.2884 -0.0092 -1.0961
  813MOL0     C12065  -0.059  11.078  11.251 -0.9949  0.4190 -0.4750
  813MOL0     C12066  -0.169  11.185  11.248  0.3976 -0.5866 -0.4208
  813MOL0     C12067  -0.272  11.167  11.361  0.3664  0.7195 -0.1776
  813MOL0     C12068  -0.364  11.299  11.368  0.6060 -0.5247  0.0616
  813MOL0     C12069  -0.475  11.271  11.461  0.0566  0.9756  0.3439
  813MOL0     C12070  -0.561  11.390  11.503  0.2770 -0.3287 -0.1831
  813MOL0     C12071  -0.633  11.454  11.383 -1.0134 -0.4838  0.3868
  813MOL0     C12072  -0.778  11.489  11.411  0.3975  0.1834 -1.1182
  813MOL0     N12073  -0.800  11.592  11.518 -0.6345  0.6077  0.1182
  813MOL0     C12074  -0.926  11.637  11.569 -0.0168 -0.4291 -0.0995
  813MOL0     C12075  -0.895  11.746  11.637 -0.2381 -0.6623 -0.3093
  813MOL0     C12076  -0.987  11.836  11.702 -0.3953 -0.4890 -0.2498
  813MOL0     C12077  -1.024  11.792  11.835  0.7240  0.1400 -0.3528
  813MOL0     C12078  -1.096  11.907  11.899 -0.2592 -0.1208 -0.5015
  813MOL0     C12079  -1.155  11.866  12.035 -0.7871  0.9952 -0.0672
  813MOL0     O12080  -1.054  11.857  12.133  0.6708  0.7478  0.3501
  813MOL0     C12081  -1.090  11.867  12.267 -0.1252  0.0636  0.4536
  813MOL0     C12082  -1.000  11.919  12.366 -0.5135  0.1774  0.5633
  813MOL0     C12083  -1.034  11.915  12.503 -0.1503 -0.3775  0.4805
  813MOL0     C12084  -0.931  11.961  12.602  0.4578 -0.5149  0.4818
  813MOL0     C12085  -1.160  11.866  12.539  1.1988  0.9803 -1.1639
  813MOL0     C12086  -1.193  11.863  12.683 -0.4275  0.1852  0.0318
  813MOL0     O12087  -1.306  11.935  12.720  0.1927  0.1181  0.1861
  813MOL0     C12088  -1.351  11.950  12.845 -0.4532  0.1485  0.2284
  813MOL0     C12089  -1.479  11.913  12.876  0.1566 -0.4538 -0.0196
  813MOL0     C12090  -1.534  11.930  13.006 -0.0660  0.4424  0.4772
  813MOL0     C12091  -1.461  12.001  13.109 -0.5254 -0.0441  0.1249
  813MOL0     O12092  -1.495  12.010  13.241  0.0236 -0.0933 -0.5071
  813MOL0     C12093  -1.624  11.973  13.280 -0.0611 -1.0805 -0.7841
  813MOL0     C12094  -1.640  12.009  13.429 -0.3938  0.2294  0.4382
  813MOL0     C12095  -1.776  11.985  13.499 -0.4737 -0.2637 -0.0572
  813MOL0     C12096  -1.873  12.097  13.454 -0.1950 -0.9260 -0.2856
  813MOL0     C12097  -2.013  12.088  13.513 -0.4856  0.8765 -0.6624
  813MOL0     C12098  -2.041  12.205  13.603 -0.1759 -0.1143 -0.0739
  813MOL0     C12099  -2.060  12.338  13.528  0.1679  0.7622 -0.5432
  813MOL0     C12100  -2.115  12.462  13.613  0.6502 -0.1173  0.3480
  813MOL0    Cl12101  -2.066  12.476  13.782  0.3529  0.2785 -0.1256
  813MOL0     C12102  -1.327  12.035  13.081 -0.0842  0.6311  0.5020
  813MOL0     C12103  -1.276  12.002  12.952  0.6644 -0.8525  0.4200
  813MOL0     O12104  -1.116  11.815  12.763  0.3599  0.9496 -1.4451
  813MOL0     C12105  -1.255  11.832  12.438  0.8032  0.3826 -0.4259
  813MOL0     C12106  -1.218  11.820  12.310 -1.3667  0.5767 -0.3592
  813MOL0     N12107  -0.752  11.767  11.630 -0.1935  0.3234  0.3542
  813MOL0     N12108  -0.706  11.680  11.554  0.1130 -0.6813  0.3645
  813MOL0     C12109   0.203  10.961  11.426  0.9248 -0.3465 -0.2680
  813MOL0     C12110   0.334  10.918  11.414  0.4363 -0.6790 -1.0260
  813MOL0     C12111   0.695  10.740  11.270  0.1909  0.2052 -0.2096
  813MOL0     C12112   0.745  10.780  11.389 -0.7340 -0.4937  0.8468
  813MOL0     C12113   0.868  10.745  11.438  0.6495 -0.2140  0.5333
  813MOL0     C12114   0.951  10.665  11.361  0.1218  0.9774 -0.0654
  813MOL0     O12115   1.074  10.629  11.413  0.2731 -0.1906  0.0268
  813MOL0     C12116   1.188  10.561  11.360  0.3235  0.2084  0.3520
  813MOL0     C12117   1.158  10.413  11.347  0.1047  0.1078  0.8227
  813MOL0     C12118   1.277  10.343  11.271  0.3394 -0.2628 -0.0222
  813MOL0     C12119   1.264  10.194  11.261  0.3272 -0.1229 -0.9542
  813MOL0     C12120   1.249  10.132  11.389  0.3276 -0.5826  0.0786
  813MOL0     C12121   1.238  10.072  11.493  0.0052 -0.7210  0.2400
  813MOL0     C12122   0.902  10.615  11.239 -0.3547 -0.4544 -0.2808
  813MOL0     C12123   0.767  10.642  11.195  0.1678  0.1627  0.2977
  813MOL0     C12124   0.716  10.563  11.069 -0.0045  0.0185 -0.0051
  813MOL0     H12125   0.423  11.066  11.124 -1.2496 -1.5707 -1.4843
  813MOL0     H12126   0.195  11.161  11.149 -0.5401  3.2408  2.9938
  813MOL0     H12127  -0.095  10.977  11.276  1.9351 -0.8578 -0.9228
  813MOL0     H12128  -0.015  11.060  11.152  2.0113 -1.0938  0.9745
  813MOL0     H12129  -0.117  11.281  11.253 -0.1197 -0.2753 -0.9426
  813MOL0     H12130  -0.222  11.182  11.153 -0.4733 -0.2780  0.0517
  813MOL0     H12131  -0.321  11.070  11.348  2.2389 -0.4331  0.8905
  813MOL0     H12132  -0.220  11.165  11.457 -1.6793 -1.5027  0.9840
  813MOL0     H12133  -0.306  11.381  11.411 -1.3385  1.4032 -0.8237
  813MOL0     H12134  -0.420  11.332  11.281  0.1065  1.5396  1.0912
  813MOL0     H12135  -0.424  11.223  11.545  0.5625 -2.4837 -1.7585
  813MOL0     H12136  -0.542  11.197  11.416  0.6197  0.9652 -0.4879
  813MOL0     H12137  -0.642  11.344  11.562  2.6174  0.0359  3.7061
  813MOL0     H12138  -0.515  11.465  11.569 -3.7950  2.1812  0.1665
  813MOL0     H12139  -0.630  11.381  11.302  0.9461  2.4563 -2.4545
  813MOL0     H12140  -0.572  11.538  11.347  0.5212 -1.1617  1.2553
  813MOL0     H12141  -0.829  11.505  11.316 -3.1204 -1.2794  0.3391
  813MOL0     H12142  -0.839  11.401  11.433 -3.1993  2.2412 -2.0180
  813MOL0     H12143  -1.021  11.586  11.555  0.1354 -1.0421  1.0059
  813MOL0     H12144  -1.078  11.842  11.641  2.4360  2.0296 -4.8539
  813MOL0     H12145  -0.944  11.934  11.722  0.0907 -1.3629  3.9303
  813MOL0     H12146  -1.095  11.709  11.835 -1.0991  1.5937  2.1196
  813MOL0     H12147  -0.938  11.755  11.891 -0.2692 -3.1148 -0.7587
  813MOL0     H12148  -1.022  11.982  11.927 -0.3341 -0.6857  1.3068
  813MOL0     H12149  -1.171  11.953  11.833  0.5339  2.1549  0.1214
  813MOL0     H12150  -1.233  11.938  12.062 -3.5981 -1.8023 -0.1917
  813MOL0     H12151  -1.204  11.771  12.012 -0.0259  0.4577  0.4966
  813MOL0     H12152  -0.912  11.970  12.330 -0.8211 -0.2940 -0.9271
  813MOL0     H12153  -0.842  12.001  12.552  1.4508 -0.8923  1.8710
  813MOL0     H12154  -0.898  11.886  12.675  1.0495 -2.6819 -1.8770
  813MOL0     H12155  -0.977  12.038  12.663  2.7251  1.6538 -0.3649
  813MOL0     H12156  -1.531  11.852  12.802  2.3714 -0.8602 -1.3338
  813MOL0     H12157  -1.621  11.871  13.034 -0.2760  1.1734  1.4509
  813MOL0     H12158  -1.701  12.026  13.224  0.7027  0.4799 -0.4300
  813MOL0     H12159  -1.651  11.867  13.274 -4.3540 -0.1933 -0.5296
  813MOL0     H12160  -1.574  11.938  13.481  2.9313  0.4854 -2.9865
  813MOL0     H12161  -1.614  12.115  13.434  1.4203  0.0316 -2.2803
  813MOL0     H12162  -1.751  11.983  13.605 -1.4224 -0.4214  0.1710
  813MOL0     H12163  -1.814  11.886  13.470 -0.1418 -0.5794  0.5832
  813MOL0     H12164  -1.881  12.092  13.345  1.8431 -0.3673 -0.5010
  813MOL0     H12165  -1.839  12.198  13.480  1.8651 -1.0961 -2.0634
  813MOL0     H12166  -2.089  12.101  13.435  0.3657 -0.6849 -1.8224
  813MOL0     H12167  -2.017  11.989  13.559  0.2539  0.6471 -1.0846
  813MOL0     H12168  -1.960  12.206  13.676  1.1398 -0.7417 -1.4771
  813MOL0     H12169  -2.130  12.177  13.662 -0.1609 -1.2139 -0.5547
  813MOL0     H12170  -2.140  12.311  13.458 -0.6296 -1.1739  0.9966
  813MOL0     H12171  -1.973  12.360  13.467  0.1067 -0.1454 -0.9751
  813MOL0     H12172  -2.223  12.448  13.615  0.5721 -0.0585 -1.6894
  813MOL0     H12173  -2.115  12.558  13.560 -2.0081 -0.2177  0.0781
  813MOL0     H12174  -1.269  12.067  13.167  0.3906 -2.0380  1.2500
  813MOL0     H12175  -1.171  12.010  12.923  0.7010 -1.4847  0.3756
  813MOL0     H12176  -1.354  11.800  12.470  1.6447 -1.3342  0.6230
  813MOL0     H12177  -1.296  11.784  12.243 -2.0248  1.3683 -0.0207
  813MOL0     H12178   0.145  10.922  11.509 -0.9650 -1.8866 -2.1944
  813MOL0     H12179   0.376  10.855  11.492  0.9811  0.7013 -0.1732
  813MOL0     H12180   0.696  10.845  11.460 -1.6064  0.6624 -0.7661
  813MOL0     H12181   0.900  10.790  11.531  2.5009  0.6438 -0.4448
  813MOL0     H12182   1.218  10.594  11.260  0.4316 -1.4632 -0.1971
  813MOL0     H12183   1.276  10.570  11.423 -0.0615 -0.7272  1.0504
  813MOL0     H12184   1.064  10.401  11.293  1.1925  3.3684 -2.1551
  813MOL0     H12185   1.150  10.370  11.448 -1.9940 -0.2108  0.5683
  813MOL0     H12186   1.269  10.386  11.171 -4.5327 -0.2922  0.1310
  813MOL0     H12187   1.370  10.360  11.326 -1.1174 -0.7568  2.7765
  813MOL0     H12188   1.345  10.158  11.199  0.3625  1.2109 -1.7260
  813MOL0     H12189   1.175  10.164  11.205  0.1113 -1.5148  0.0929
  813MOL0     H12190   1.234  10.024  11.589  0.7564  2.8501  2.2224
  813MOL0     H12191   0.966  10.548  11.183 -0.0706 -0.4409  0.0322
  813MOL0     H12192   0.685  10.634  10.992 -2.3402 -0.5540  0.3158
  813MOL0     H12193   0.786  10.488  11.030 -0.3149 -0.7952  0.9373
  813MOL0     H12194   0.627  10.503  11.094 -0.4231 -0.2326 -1.9527
  814MOL0     O12195  11.508   3.395   5.294  0.0637  0.2814  0.3956
  814MOL0     C12196  11.542   3.300   5.222  0.4667 -0.0166 -0.3500
  814MOL0     O12197  11.655   3.297   5.153 -0.1533 -0.3328  1.0014
  814MOL0     C12198  11.754   3.393   5.177  0.4441 -1.0610 -0.0553
  814MOL0     C12199  11.739   3.520   5.115 -0.2404  0.6099  0.3214
  814MOL0     C12200  11.839   3.613   5.132  0.6571 -0.4087  0.1141
  814MOL0     C12201  11.938   3.586   5.226 -0.1631  0.0150  0.0552
  814MOL0     O12202  12.034   3.686   5.246  0.6200  1.0569  0.8934
  814MOL0     C12203  12.126   3.684   5.351 -0.0789  0.7892  0.1463
  814MOL0     C12204  12.195   3.824   5.345 -0.2230  0.8885 -0.4420
  814MOL0     C12205  12.100   3.939   5.358 -0.8561  0.3134  0.0323
  814MOL0     C12206  12.164   4.082   5.376 -0.2647  1.7623 -0.0059
  814MOL0     C12207  12.072   4.193   5.330 -0.6986 -0.0765 -0.6149
  814MOL0     C12208  12.143   4.325   5.301 -0.1410 -0.5957  0.5591
  814MOL0     C12209  12.056   4.427   5.233  0.0240 -0.2970 -0.4628
  814MOL0     C12210  12.143   4.537   5.167 -0.0156  0.2528 -0.3554
  814MOL0     N12211  12.233   4.497   5.060  0.2504 -0.7336  0.3081
  814MOL0     C12212  12.204   4.491   4.923 -0.7811 -0.2293 -0.2710
  814MOL0     C12213  12.316   4.426   4.873 -0.0920 -0.5191  0.5023
  814MOL0     C12214  12.333   4.384   4.732  0.5900 -0.1548 -0.2893
  814MOL0     C12215  12.273   4.475   4.618  1.1857  0.5391 -0.5421
  814MOL0     C12216  12.332   4.612   4.613  0.2963  0.1732  0.3191
  814MOL0     C12217  12.281   4.690   4.491  0.0406 -0.3562  0.1211
  814MOL0     O12218  12.373   4.648   4.395 -0.2801 -0.3432  0.4645
  814MOL0     C12219  12.378   4.710   4.275 -0.4629 -0.8088  0.0649
  814MOL0     C12220  12.295   4.823   4.234  0.9087 -0.1667  0.1724
  814MOL0     C12221  12.291   4.855   4.099  0.4919  0.3122 -0.0963
  814MOL0     C12222  12.221   4.985   4.056  0.1449  0.0834  0.7045
  814MOL0     C12223  12.363   4.774   4.004 -0.0206 -0.2916 -0.0370
  814MOL0     C12224  12.358   4.787   3.857 -0.0883  0.0361  1.0365
  814MOL0     O12225  12.268   4.873   3.804  0.4250  0.1234 -0.4960
  814MOL0     C12226  12.272   4.932   3.681 -0.0156 -0.0534  0.4651
  814MOL0     C12227  12.384   4.928   3.593 -0.8759  0.4344  0.0566
  814MOL0     C12228  12.383   5.004   3.474  0.6018  0.1698  0.0793
  814MOL0     C12229  12.267   5.063   3.427 -0.7500 -0.3765 -0.3882
  814MOL0     O12230  12.263   5.132   3.311  0.3691  0.4068  0.2408
  814MOL0     C12231  12.132   5.172   3.257 -0.9420  0.4743 -0.4903
  814MOL0     C12232  12.149   5.227   3.120  0.4272 -0.3466  0.8754
  814MOL0     C12233  12.199   5.377   3.102 -0.4235  0.4802  0.2060
  814MOL0     C12234  12.129   5.440   2.984 -0.0777 -0.5240  0.1907
  814MOL0     C12235  12.143   5.587   2.968 -0.4663 -0.0819  0.8128
  814MOL0     C12236  12.268   5.628   2.891  0.3869  0.3432  0.6130
  814MOL0     C12237  12.411   5.577   2.924  0.1496  0.5143 -0.3372
  814MOL0     C12238  12.510   5.642   2.829 -0.2779  0.4166 -0.2989
  814MOL0    Cl12239  12.490   5.592   2.658 -0.3867 -0.3694  0.2199
  814MOL0     C12240  12.158   5.063   3.510 -0.2545 -0.4409 -0.2305
  814MOL0     C12241  12.163   5.010   3.641  0.0102  0.9192  0.4602
  814MOL0     O12242  12.435   4.720   3.794  0.2334  0.6868  0.0624
  814MOL0     C12243  12.433   4.664   4.048 -0.6044  0.1924 -0.7036
  814MOL0     C12244  12.456   4.642   4.182 -0.0452  0.0585 -0.0352
  814MOL0     N12245  12.409   4.402   4.974  0.2048 -0.1165  0.1405
  814MOL0     N12246  12.355   4.450   5.077 -0.4681 -0.7493  0.1001
  814MOL0     C12247  11.936   3.465   5.293 -0.7679  0.3787 -0.6261
  814MOL0     C12248  11.855   3.365   5.266  0.1947  0.8183 -0.6490
  814MOL0     C12249  11.435   3.197   5.208  0.6512 -0.0364 -0.1274
  814MOL0     C12250  11.326   3.194   5.308  0.8131  0.2563  0.4281
  814MOL0     C12251  11.217   3.101   5.289 -0.2614  0.1513  0.1753
  814MOL0     C12252  11.203   3.016   5.174  0.1857 -0.0963  0.2951
  814MOL0     O12253  11.100   2.924   5.153  0.4927  0.1542 -0.1327
  814MOL0     C12254  11.005   2.899   5.261 -0.3645  0.3958  0.5553
  814MOL0     C12255  10.889   2.804   5.230  0.5261  0.2472 -0.0104
  814MOL0     C12256  10.887   2.713   5.362  0.3625 -0.2489  0.0459
  814MOL0     C12257  10.777   2.617   5.367  0.1874  0.3208 -0.0041
  814MOL0     C12258  10.654   2.694   5.407 -0.5491  0.3143 -0.2063
  814MOL0     C12259  10.575   2.764   5.458 -0.2743 -0.8135 -0.7481
  814MOL0     C12260  11.309   3.024   5.079  0.8881  0.3547 -0.0763
  814MOL0     C12261  11.427   3.100   5.099 -0.4889 -0.2626 -0.1385
  814MOL0     C12262  11.535   3.076   4.994 -0.2820 -0.5469  0.0030
  814MOL0     H12263  11.655   3.554   5.056 -0.9862  0.9695  1.5419
  814MOL0     H12264  11.822   3.706   5.078 -3.2086 -0.4740  0.9371
  814MOL0     H12265  12.190   3.596   5.344 -1.9453 -0.7313  1.2770
  814MOL0     H12266  12.072   3.669   5.445  1.9387 -0.2263  1.2073
  814MOL0     H12267  12.266   3.827   5.428 -1.9027 -1.4967  1.2365
  814MOL0     H12268  12.248   3.840   5.250  1.4213 -0.0256  0.2730
  814MOL0     H12269  12.048   3.946   5.262  3.5021 -1.9694 -2.8453
  814MOL0     H12270  12.034   3.925   5.445  2.1295  1.2899  2.6506
  814MOL0     H12271  12.181   4.091   5.483 -0.5497 -2.6037  0.5832
  814MOL0     H12272  12.257   4.085   5.318  1.3871 -0.8928  2.2757
  814MOL0     H12273  12.002   4.219   5.410  0.9622  1.4274  0.4189
  814MOL0     H12274  12.024   4.162   5.236  1.0041 -0.1048 -1.5223
  814MOL0     H12275  12.191   4.368   5.390  0.8088 -0.3870 -0.0316
  814MOL0     H12276  12.226   4.306   5.232  0.3435  0.8263  0.7151
  814MOL0     H12277  11.986   4.478   5.300  0.1808 -0.4831 -0.1549
  814MOL0     H12278  12.003   4.376   5.152  0.1865  3.3879 -3.1667
  814MOL0     H12279  12.083   4.616   5.121 -1.3746 -2.1026 -2.9703
  814MOL0     H12280  12.205   4.584   5.243  1.1135  1.5457 -1.9849
  814MOL0     H12281  12.114   4.491   4.863 -1.0139  1.4468  0.0587
  814MOL0     H12282  12.282   4.288   4.724  0.8290 -0.2508 -0.6756
  814MOL0     H12283  12.438   4.364   4.707  1.4895  3.3268  0.1289
  814MOL0     H12284  12.290   4.426   4.521 -1.7935  1.0159 -1.3890
  814MOL0     H12285  12.164   4.473   4.626  1.2579  1.5162  1.0868
  814MOL0     H12286  12.318   4.664   4.709 -0.6889  0.3710  0.0835
  814MOL0     H12287  12.441   4.604   4.615  0.5156 -1.5759  6.9255
  814MOL0     H12288  12.178   4.664   4.464 -0.2344  1.4664 -0.7741
  814MOL0     H12289  12.291   4.799   4.499  2.3140 -0.3621 -1.6108
  814MOL0     H12290  12.243   4.882   4.308  0.9526  1.2008 -0.8353
  814MOL0     H12291  12.208   5.037   4.152 -0.4721 -0.8799  1.1617
  814MOL0     H12292  12.125   4.969   4.006 -1.0651 -0.1577  2.9480
  814MOL0     H12293  12.277   5.040   3.980 -0.3773 -0.3304  0.0097
  814MOL0     H12294  12.475   4.877   3.622 -1.5669  0.7173  3.0060
  814MOL0     H12295  12.469   4.996   3.408  1.6845  0.4040  1.4009
  814MOL0     H12296  12.066   5.085   3.259  0.0992 -0.3279  1.1051
  814MOL0     H12297  12.077   5.239   3.324  2.0685 -0.0156  2.7940
  814MOL0     H12298  12.220   5.160   3.069 -1.7394  0.1223 -3.1911
  814MOL0     H12299  12.055   5.204   3.070  1.1776 -0.9285 -0.3153
  814MOL0     H12300  12.306   5.364   3.083 -0.7341  0.2039 -1.5539
  814MOL0     H12301  12.183   5.443   3.188  1.1438  3.0953 -1.3649
  814MOL0     H12302  12.024   5.426   3.012  0.5070 -1.5162  2.0672
  814MOL0     H12303  12.144   5.377   2.895  0.8878 -2.8659  1.8977
  814MOL0     H12304  12.050   5.614   2.915 -0.4844 -1.9238 -0.1802
  814MOL0     H12305  12.155   5.640   3.062 -0.3610  2.9544 -0.7672
  814MOL0     H12306  12.262   5.737   2.901 -2.1887  0.4294 -0.7635
  814MOL0     H12307  12.246   5.601   2.787 -0.2614  2.3069  0.2105
  814MOL0     H12308  12.421   5.468   2.922  2.8042  0.6935 -0.9359
  814MOL0     H12309  12.431   5.615   3.025 -3.0223 -3.1864  1.9677
  814MOL0     H12310  12.608   5.610   2.866 -0.1011 -0.5237 -1.5183
  814MOL0     H12311  12.516   5.751   2.838  0.4192  0.6130 -2.6500
  814MOL0     H12312  12.067   5.116   3.484  0.0162 -0.6381 -1.6624
  814MOL0     H12313  12.082   5.029   3.710  1.2249  1.9217  1.6477
  814MOL0     H12314  12.489   4.601   3.979  1.1558  1.9883 -1.0188
  814MOL0     H12315  12.504   4.551   4.214 -2.4786 -1.4348 -0.4008
  814MOL0     H12316  12.018   3.446   5.362 -1.0628 -2.3673 -0.8860
  814MOL0     H12317  11.854   3.271   5.320  0.6192  1.8426  1.2324
  814MOL0     H12318  11.313   3.269   5.386 -3.6287  0.0073  0.1781
  814MOL0     H12319  11.137   3.088   5.362  0.0064  0.9057  0.6117
  814MOL0     H12320  11.063   2.858   5.344  0.6920  1.8116  0.5405
  814MOL0     H12321  10.960   2.994   5.291 -0.2083  0.9513 -0.9038
  814MOL0     H12322  10.907   2.740   5.143 -1.0636  2.9140 -2.4786
  814MOL0     H12323  10.793   2.856   5.227  1.8108  3.1888  3.3725
  814MOL0     H12324  10.984   2.661   5.358 -0.1956 -1.2966 -3.9134
  814MOL0     H12325  10.886   2.782   5.447  1.8696  2.1353 -1.7521
  814MOL0     H12326  10.805   2.545   5.445 -2.2493  2.4578  3.1143
  814MOL0     H12327  10.755   2.565   5.273 -4.1892  0.4031  0.7503
  814MOL0     H12328  10.515   2.828   5.521  0.8491 -0.1798 -0.3010
  814MOL0     H12329  11.303   2.969   4.985  0.7903 -2.4119  1.4420
  814MOL0     H12330  11.552   3.170   4.940 -0.2201  1.5115  3.3490
  814MOL0     H12331  11.633   3.061   5.039 -0.0840  2.1377  0.6449
  814MOL0     H12332  11.510   3.000   4.919  1.1975 -0.6874 -0.3803
  815MOL0     O12333   0.076   0.274  10.450 -0.1560 -0.1289  0.4051
  815MOL0     C12334   0.099   0.175  10.527 -0.4605 -0.4768 -0.2959
  815MOL0     O12335   0.144   0.190  10.657  0.0754  0.3097 -0.4138
  815MOL0     C12336   0.137   0.321  10.706 -0.1640  0.0667  0.7260
  815MOL0     C12337   0.252   0.392  10.684 -0.5100 -0.9221 -0.6968
  815MOL0     C12338   0.260   0.523  10.732 -0.2865 -0.0422  0.4101
  815MOL0     C12339   0.159   0.582  10.795  0.5099  0.1532  0.0189
  815MOL0     O12340   0.164   0.713  10.828  0.5472 -0.3484 -0.0094
  815MOL0     C12341   0.279   0.765  10.893 -1.2053  0.0232 -0.5943
  815MOL0     C12342   0.243   0.897  10.960 -1.4350 -0.8051  0.1199
  815MOL0     C12343   0.157   0.888  11.082 -0.6154  0.2734 -0.5719
  815MOL0     C12344   0.023   0.824  11.051 -0.5198  0.6839  0.0200
  815MOL0     C12345  -0.086   0.860  11.147 -0.2583  0.7646  0.1990
  815MOL0     C12346  -0.222   0.816  11.094 -1.2801 -0.1273 -0.0073
  815MOL0     C12347  -0.325   0.875  11.188  0.4248  0.3097 -0.7910
  815MOL0     C12348  -0.451   0.788  11.171  0.7664 -0.0992 -0.3495
  815MOL0     N12349  -0.575   0.853  11.229 -0.0300  0.4529  0.9800
  815MOL0     C12350  -0.659   0.927  11.148  0.3370 -0.2670  0.4619
  815MOL0     C12351  -0.730   1.007  11.234  0.3309 -0.0346 -0.2663
  815MOL0     C12352  -0.830   1.109  11.199  0.1914  0.2717 -0.4530
  815MOL0     C12353  -0.939   1.115  11.318 -0.7099  0.3779  0.0949
  815MOL0     C12354  -1.003   0.977  11.349 -0.2507 -0.1008 -0.4312
  815MOL0     C12355  -1.138   0.993  11.425 -0.8814  0.0248  1.0013
  815MOL0     O12356  -1.103   1.018  11.563  0.0620  0.4535 -0.4884
  815MOL0     C12357  -1.217   1.033  11.640 -0.1053  0.7733  0.3722
  815MOL0     C12358  -1.184   1.090  11.760 -0.3794 -0.2321 -0.4081
  815MOL0     C12359  -1.282   1.111  11.859 -0.1694  0.0083 -0.2667
  815MOL0     C12360  -1.229   1.152  11.987  0.4427  0.1638 -0.0532
  815MOL0     C12361  -1.422   1.081  11.835 -0.1805  0.1323  0.1010
  815MOL0     C12362  -1.531   1.086  11.941  0.5437 -0.5812  0.5623
  815MOL0     O12363  -1.496   1.103  12.063  0.9446  0.1955 -0.1523
  815MOL0     C12364  -1.580   1.130  12.166 -0.4644  1.0743  0.8191
  815MOL0     C12365  -1.527   1.090  12.289 -0.0581 -0.2158  1.1631
  815MOL0     C12366  -1.601   1.096  12.406 -0.9436 -0.3991  0.0394
  815MOL0     C12367  -1.727   1.150  12.408 -0.0671  0.0453 -0.2983
  815MOL0     O12368  -1.801   1.178  12.521 -0.9558 -0.9488  0.6438
  815MOL0     C12369  -1.831   1.063  12.614  0.1449  0.6643  0.6936
  815MOL0     C12370  -1.839   1.102  12.764 -0.1614 -0.0205  0.7694
  815MOL0     C12371  -1.943   1.211  12.791 -0.2477  0.5963  0.5744
  815MOL0     C12372  -1.989   1.199  12.930  0.5177  0.2962 -0.1538
  815MOL0     C12373  -1.872   1.207  13.041 -0.5105  0.8627 -0.7590
  815MOL0     C12374  -1.813   1.348  13.064 -0.1269  0.3571  0.6881
  815MOL0     C12375  -1.736   1.341  13.198 -0.2265 -0.4257  0.3586
  815MOL0     C12376  -1.661   1.472  13.223 -1.7540 -0.7059  0.4582
  815MOL0    Cl12377  -1.787   1.597  13.264  0.2889  0.2406 -0.3734
  815MOL0     C12378  -1.791   1.177  12.282  0.1244  0.7161 -0.2974
  815MOL0     C12379  -1.714   1.183  12.158  0.0254 -0.5064 -0.7094
  815MOL0     O12380  -1.641   1.079  11.895 -0.0491 -0.9573 -0.6114
  815MOL0     C12381  -1.455   1.028  11.708 -0.5597  0.0039 -0.5324
  815MOL0     C12382  -1.353   0.988  11.618  0.5629  0.0170  0.0093
  815MOL0     N12383  -0.689   0.974  11.366 -0.0733 -0.4336  0.9044
  815MOL0     N12384  -0.599   0.895  11.356 -0.4219 -0.3614  0.3739
  815MOL0     C12385   0.038   0.517  10.817 -0.7089 -0.4820  0.7670
  815MOL0     C12386   0.030   0.379  10.776  0.0769  0.3818 -0.1361
  815MOL0     C12387   0.084   0.026  10.484  0.3319 -0.7795 -0.4048
  815MOL0     C12388   0.093  -0.078  10.586  1.2182  0.4502 -1.1307
  815MOL0     C12389   0.054  -0.211  10.565  0.9600  0.1278 -0.5893
  815MOL0     C12390   0.015  -0.256  10.436  0.7442 -0.2811  0.2841
  815MOL0     O12391  -0.038  -0.382  10.432 -0.0532  0.2235 -0.7354
  815MOL0     C12392  -0.092  -0.432  10.310  0.3415 -0.6346  0.1653
  815MOL0     C12393  -0.247  -0.412  10.304  0.3089 -0.1925 -0.2946
  815MOL0     C12394  -0.324  -0.530  10.371 -0.5243  0.3756  0.2546
  815MOL0     C12395  -0.466  -0.486  10.416 -0.1250 -0.3511  0.0306
  815MOL0     C12396  -0.561  -0.600  10.440 -0.1004 -0.8707 -0.0978
  815MOL0     C12397  -0.638  -0.685  10.461  0.0005 -0.7067  0.1674
  815MOL0     C12398   0.000  -0.158  10.333  0.1215  0.3832  0.0662
  815MOL0     C12399   0.043  -0.021  10.354  0.3804  0.4734 -0.0483
  815MOL0     C12400   0.048   0.071  10.229  0.4159  0.1267 -0.2635
  815MOL0     H12401   0.336   0.351  10.629  0.4087 -1.6400  1.1457
  815MOL0     H12402   0.352   0.579  10.718  0.0886 -0.9097 -0.7432
  815MOL0     H12403   0.356   0.781  10.817 -1.4889 -2.2877 -1.4463
  815MOL0     H12404   0.315   0.694  10.968 -1.6204  0.4298  0.0011
  815MOL0     H12405   0.336   0.951  10.978 -2.5173  0.7028  1.4279
  815MOL0     H12406   0.193   0.959  10.885 -0.7990  0.0591  0.3929
  815MOL0     H12407   0.206   0.832  11.163 -0.2485 -0.1617 -1.0890
  815MOL0     H12408   0.126   0.989  11.109 -0.8028 -0.0545  0.4780
  815MOL0     H12409  -0.017   0.858  10.955 -1.9568  0.8227  0.6533
  815MOL0     H12410   0.038   0.716  11.061 -1.8906  0.6647  2.5530
  815MOL0     H12411  -0.095   0.969  11.148 -2.0598  0.6525 -0.2760
  815MOL0     H12412  -0.071   0.820  11.248 -0.8187  0.9155  0.3445
  815MOL0     H12413  -0.241   0.847  10.991  1.5329 -2.7000 -1.4245
  815MOL0     H12414  -0.228   0.707  11.099  0.6887 -0.2299  0.8893
  815MOL0     H12415  -0.348   0.977  11.156 -1.0667  0.1860 -0.2061
  815MOL0     H12416  -0.287   0.878  11.291  0.9430 -0.2272 -0.9671
  815MOL0     H12417  -0.479   0.769  11.067  1.1277 -4.4452  0.1504
  815MOL0     H12418  -0.442   0.690  11.219 -0.7595  0.0786  0.3498
  815MOL0     H12419  -0.666   0.922  11.040  0.8634 -2.4499  0.4941
  815MOL0     H12420  -0.889   1.081  11.111  0.7996  0.5050 -0.9416
  815MOL0     H12421  -0.785   1.205  11.173 -0.9703  0.3790 -2.1975
  815MOL0     H12422  -0.874   1.133  11.404 -0.8342 -2.7159  0.9411
  815MOL0     H12423  -1.014   1.195  11.305  1.5215  2.5693 -0.0340
  815MOL0     H12424  -1.022   0.916  11.261  3.2396 -3.2878  0.7524
  815MOL0     H12425  -0.938   0.930  11.424 -1.6392  0.4298  1.1810
  815MOL0     H12426  -1.189   1.084  11.392  1.6021  1.3112  0.4509
  815MOL0     H12427  -1.195   0.904  11.397  1.7722 -1.2266 -0.8777
  815MOL0     H12428  -1.081   1.118  11.776 -0.6002  0.6403 -0.4459
  815MOL0     H12429  -1.224   1.063  12.050 -1.1665 -0.4902 -0.8091
  815MOL0     H12430  -1.302   1.224  12.024 -0.2635 -0.9480  0.7513
  815MOL0     H12431  -1.128   1.193  11.977 -0.3219  1.8452 -1.2483
  815MOL0     H12432  -1.423   1.070  12.312  1.2242  2.5105 -1.5796
  815MOL0     H12433  -1.552   1.065  12.497 -1.1216 -1.1157 -0.1002
  815MOL0     H12434  -1.921   1.013  12.578 -0.0152 -0.2695  2.2957
  815MOL0     H12435  -1.748   0.993  12.603 -2.0920 -1.8110 -1.6676
  815MOL0     H12436  -1.875   1.020  12.827 -0.5459  1.0692  2.0230
  815MOL0     H12437  -1.745   1.145  12.802  1.2294  0.4996 -2.8541
  815MOL0     H12438  -2.032   1.192  12.731  1.4614  1.3536 -2.4005
  815MOL0     H12439  -1.905   1.313  12.778  0.5716  0.7314  3.3346
  815MOL0     H12440  -2.049   1.110  12.949  0.2538  0.5942  0.4241
  815MOL0     H12441  -2.062   1.277  12.952 -0.6710 -0.8651  0.1556
  815MOL0     H12442  -1.917   1.193  13.140  3.0390  1.6087  1.1150
  815MOL0     H12443  -1.805   1.125  13.015 -1.4695  0.1978 -1.1825
  815MOL0     H12444  -1.893   1.423  13.063 -0.0901  0.4029 -0.4607
  815MOL0     H12445  -1.738   1.376  12.990  0.8382  0.7229  1.7704
  815MOL0     H12446  -1.655   1.268  13.192 -0.2128 -0.9665  4.3008
  815MOL0     H12447  -1.798   1.308  13.282 -1.0479  2.4023  1.0021
  815MOL0     H12448  -1.602   1.506  13.138 -0.1795  0.9465  2.1098
  815MOL0     H12449  -1.603   1.466  13.316  0.1749  0.3925 -0.6051
  815MOL0     H12450  -1.895   1.204  12.269  0.5593  0.9475 -5.5676
  815MOL0     H12451  -1.767   1.216  12.069 -2.3664  0.2877  0.8986
  815MOL0     H12452  -1.553   0.987  11.684 -0.6484  0.5714 -1.1645
  815MOL0     H12453  -1.380   0.927  11.533  3.0948 -2.0680  0.5912
  815MOL0     H12454  -0.056   0.562  10.849 -0.8231  0.6376 -1.0095
  815MOL0     H12455  -0.064   0.333  10.804 -0.5970  1.0574 -1.2252
  815MOL0     H12456   0.113  -0.047  10.688 -2.5980 -1.2263  0.3122
  815MOL0     H12457   0.065  -0.269  10.656 -0.9784  2.4860  1.2832
  815MOL0     H12458  -0.036  -0.396  10.223  2.7561 -1.3895  1.3346
  815MOL0     H12459  -0.084  -0.541  10.308 -1.5056 -0.7877 -0.2839
  815MOL0     H12460  -0.280  -0.397  10.201 -0.6853  3.3533  0.3973
  815MOL0     H12461  -0.271  -0.319  10.357  1.8982 -1.1085  2.2175
  815MOL0     H12462  -0.328  -0.607  10.294  1.7843  2.3644 -2.0470
  815MOL0     H12463  -0.262  -0.566  10.453 -0.4004  1.5299  0.6903
  815MOL0     H12464  -0.515  -0.421  10.343 -1.2591 -2.3389 -1.0693
  815MOL0     H12465  -0.455  -0.436  10.513 -0.6205 -2.3105  1.1561
  815MOL0     H12466  -0.697  -0.771  10.485  2.0114 -2.0529  0.6237
  815MOL0     H12467  -0.041  -0.186  10.237  1.2667 -0.4229 -0.2131
  815MOL0     H12468   0.142   0.126  10.227  0.2484  0.4338 -2.6829
  815MOL0     H12469   0.037   0.026  10.130 -0.1319  1.0245 -0.6169
  815MOL0     H12470  -0.031   0.146  10.235 -0.2532 -0.2371 -3.0097
  816MOL0     O12471   2.588   1.768   2.482  0.4930 -0.3807  0.2735
  816MOL0     C12472   2.596   1.888   2.455 -0.2180 -0.2961 -0.2634
  816MOL0     O12473   2.701   1.951   2.395  0.6594 -0.8101  0.7731
  816MOL0     C12474   2.777   1.869   2.315  0.2423 -0.1964  0.5536
  816MOL0     C12475   2.911   1.864   2.348 -0.2751  0.1361 -0.4777
  816MOL0     C12476   3.000   1.792   2.267 -0.8882  0.9593  0.3642
  816MOL0     C12477   2.951   1.730   2.147  0.2028 -0.2924 -1.0147
  816MOL0     O12478   3.025   1.664   2.053 -0.9596 -0.7383 -0.0401
  816MOL0     C12479   3.159   1.712   2.038  0.6408 -0.3076 -0.2470
  816MOL0     C12480   3.248   1.620   1.947  0.3264  0.0462  0.7379
  816MOL0     C12481   3.193   1.603   1.809  0.1745 -0.3822 -0.7098
  816MOL0     C12482   3.298   1.533   1.729 -0.0705  0.0966 -0.2201
  816MOL0     C12483   3.263   1.481   1.591  0.2771  0.6979  0.7946
  816MOL0     C12484   3.390   1.432   1.519 -0.1127 -0.5728  0.2862
  816MOL0     C12485   3.373   1.397   1.372  0.0141  0.5950 -0.9679
  816MOL0     C12486   3.503   1.336   1.330 -0.2779 -0.4110  0.1044
  816MOL0     N12487   3.508   1.191   1.344  0.3406 -0.7009 -1.1376
  816MOL0     C12488   3.433   1.099   1.283 -0.4379 -0.1853  0.7744
  816MOL0     C12489   3.467   0.983   1.340  0.5069  0.0534 -1.5503
  816MOL0     C12490   3.388   0.854   1.320 -0.7891  1.1612 -0.2627
  816MOL0     C12491   3.384   0.777   1.458  0.6882  0.3836 -0.2460
  816MOL0     C12492   3.348   0.636   1.438 -0.1307  0.3610 -0.2122
  816MOL0     C12493   3.330   0.566   1.573 -0.0135  1.1176  0.4680
  816MOL0     O12494   3.437   0.588   1.667 -0.1645 -0.4490 -0.2406
  816MOL0     C12495   3.463   0.494   1.761 -0.1665  0.0460 -0.9768
  816MOL0     C12496   3.389   0.381   1.793  0.3478  0.1052 -0.4318
  816MOL0     C12497   3.427   0.299   1.899 -0.4102 -0.7055  0.5359
  816MOL0     C12498   3.350   0.184   1.941  0.2502  0.2912 -0.1559
  816MOL0     C12499   3.549   0.331   1.969  0.4718  0.3553  0.5730
  816MOL0     C12500   3.585   0.259   2.089 -0.3106 -0.2945  0.6924
  816MOL0     O12501   3.501   0.246   2.196  0.8443  0.0662  0.0256
  816MOL0     C12502   3.554   0.201   2.309  1.2709 -0.6026  0.0780
  816MOL0     C12503   3.617   0.276   2.409  0.0141  0.0963 -0.2673
  816MOL0     C12504   3.671   0.203   2.516 -0.7277 -1.2044 -0.3087
  816MOL0     C12505   3.659   0.064   2.526  0.1171  0.5158  0.1962
  816MOL0     O12506   3.718  -0.021   2.618 -1.2381  0.4095  0.6028
  816MOL0     C12507   3.726   0.029   2.749  0.0221 -0.6645 -0.2659
  816MOL0     C12508   3.762  -0.093   2.852 -0.4563 -0.9932  0.2190
  816MOL0     C12509   3.661  -0.211   2.855 -0.4121 -0.0523  0.3151
  816MOL0     C12510   3.641  -0.298   2.731  0.2186  0.4525 -0.5968
  816MOL0     C12511   3.596  -0.445   2.777 -0.3226 -1.0002  0.1667
  816MOL0     C12512   3.455  -0.444   2.848 -0.2155  1.2162  0.4756
  816MOL0     C12513   3.427  -0.599   2.867  0.6619 -0.1727  0.2205
  816MOL0     C12514   3.293  -0.611   2.941  0.3691 -0.2660 -0.2078
  816MOL0    Cl12515   3.262  -0.783   2.924 -0.0571 -0.5597  0.0367
  816MOL0     C12516   3.588  -0.006   2.430  0.7225 -0.0673 -0.9933
  816MOL0     C12517   3.532   0.066   2.327  0.0824  0.1500 -0.2637
  816MOL0     O12518   3.707   0.225   2.092 -0.5332  0.3373  0.2065
  816MOL0     C12519   3.623   0.447   1.942  0.3639 -0.3189  0.3523
  816MOL0     C12520   3.575   0.530   1.835  0.0174  0.0420 -0.5749
  816MOL0     N12521   3.565   1.014   1.438 -0.1027  0.6021 -0.0625
  816MOL0     N12522   3.598   1.134   1.433  1.0449  0.1373  0.3905
  816MOL0     C12523   2.812   1.741   2.127 -0.2342 -0.0850  0.1346
  816MOL0     C12524   2.723   1.804   2.209  0.2975  0.3297  0.4204
  816MOL0     C12525   2.493   1.997   2.507  0.1342  0.6182 -0.2285
  816MOL0     C12526   2.540   2.117   2.557  0.3480 -0.1363  1.0752
  816MOL0     C12527   2.454   2.211   2.619  1.0694 -0.1233  0.4767
  816MOL0     C12528   2.320   2.179   2.632 -0.2039  0.5248  0.2665
  816MOL0     O12529   2.242   2.281   2.686 -0.2111 -0.1619  0.0178
  816MOL0     C12530   2.096   2.275   2.685 -0.3256  0.3625  0.5334
  816MOL0     C12531   2.023   2.381   2.771  0.4845 -0.0625  0.0167
  816MOL0     C12532   2.049   2.371   2.915 -0.0482  0.1700  0.4836
  816MOL0     C12533   2.056   2.506   2.987  1.1890 -0.7307  0.5112
  816MOL0     C12534   2.096   2.504   3.123  0.4125  0.4481  0.7446
  816MOL0     C12535   2.147   2.492   3.235  0.0270 -1.0535 -0.1439
  816MOL0     C12536   2.271   2.061   2.583 -0.2803  1.0000  0.0806
  816MOL0     C12537   2.357   1.967   2.518 -0.8660  0.3358 -0.4939
  816MOL0     C12538   2.300   1.842   2.470 -0.2886 -0.2891 -0.2526
  816MOL0     H12539   2.951   1.904   2.440  2.5749  0.0097 -1.5622
  816MOL0     H12540   3.102   1.793   2.303 -0.6076 -3.9570  0.4505
  816MOL0     H12541   3.208   1.730   2.134 -1.6148  0.8149  0.7738
  816MOL0     H12542   3.156   1.804   1.979  1.5848 -1.1539 -1.6773
  816MOL0     H12543   3.351   1.653   1.940  0.2777 -0.0822 -0.9702
  816MOL0     H12544   3.254   1.524   1.999  1.0799 -0.1609  0.2749
  816MOL0     H12545   3.100   1.545   1.809  0.1522 -0.3628  0.2651
  816MOL0     H12546   3.172   1.704   1.774  0.6856  0.1669  0.5258
  816MOL0     H12547   3.390   1.592   1.727  0.9491 -1.4003  0.7472
  816MOL0     H12548   3.333   1.448   1.788  0.0472 -1.1738 -2.0197
  816MOL0     H12549   3.219   1.566   1.537  1.1777  0.3908 -0.4644
  816MOL0     H12550   3.182   1.408   1.590  1.9331 -1.2281  1.0750
  816MOL0     H12551   3.461   1.515   1.526 -1.0971  0.9991 -4.6119
  816MOL0     H12552   3.437   1.346   1.567  0.2144  0.7045  2.3527
  816MOL0     H12553   3.346   1.487   1.317 -2.6273 -0.1822 -1.0675
  816MOL0     H12554   3.291   1.328   1.351 -1.9507  1.5222  2.6810
  816MOL0     H12555   3.511   1.355   1.222  1.6542 -0.4303  0.2123
  816MOL0     H12556   3.593   1.385   1.368 -0.3042  0.0363 -0.3908
  816MOL0     H12557   3.366   1.119   1.201  1.5050  1.3234 -0.5487
  816MOL0     H12558   3.436   0.789   1.246 -3.8303  0.2324 -1.5882
  816MOL0     H12559   3.287   0.869   1.280 -0.6486  0.8509 -0.7441
  816MOL0     H12560   3.478   0.782   1.513  1.4357  3.2279 -1.5683
  816MOL0     H12561   3.310   0.819   1.526 -0.8480 -1.9303 -0.3877
  816MOL0     H12562   3.253   0.636   1.383  0.1959  0.9155 -0.7998
  816MOL0     H12563   3.432   0.589   1.386  0.7061 -0.2833  1.6295
  816MOL0     H12564   3.237   0.604   1.616  0.4725  0.5987  2.0516
  816MOL0     H12565   3.315   0.458   1.561 -2.4577  1.1832  2.1131
  816MOL0     H12566   3.306   0.335   1.741  0.2754 -0.2150 -0.0381
  816MOL0     H12567   3.287   0.148   1.859  2.1023 -0.8040 -1.1516
  816MOL0     H12568   3.280   0.218   2.019  0.6616  0.8130 -0.0102
  816MOL0     H12569   3.410   0.102   1.980  0.9390  0.3747 -1.0254
  816MOL0     H12570   3.647   0.380   2.395  0.3967 -0.1193 -1.0622
  816MOL0     H12571   3.742   0.240   2.590  0.3599 -4.7205  0.6277
  816MOL0     H12572   3.803   0.105   2.737 -1.7717  1.5879  1.5582
  816MOL0     H12573   3.638   0.087   2.778 -0.1314  0.5519 -2.8826
  816MOL0     H12574   3.859  -0.136   2.825 -1.3981 -3.8026  1.0091
  816MOL0     H12575   3.781  -0.050   2.951 -2.6963 -1.6669  0.9967
  816MOL0     H12576   3.568  -0.174   2.901  0.4365  1.4017  0.9588
  816MOL0     H12577   3.700  -0.284   2.926  3.0998 -0.2987 -1.6929
  816MOL0     H12578   3.736  -0.301   2.677  0.6637 -1.8755  0.2029
  816MOL0     H12579   3.565  -0.265   2.659  0.6867 -0.2320 -1.4250
  816MOL0     H12580   3.601  -0.515   2.693  0.6459 -1.3216  0.4753
  816MOL0     H12581   3.677  -0.471   2.846  1.1046  2.2509 -0.1190
  816MOL0     H12582   3.386  -0.385   2.787  0.1214  1.3294  0.2014
  816MOL0     H12583   3.463  -0.398   2.947 -1.5225  1.9422  0.2753
  816MOL0     H12584   3.509  -0.648   2.919  0.7655  1.6658  1.9154
  816MOL0     H12585   3.421  -0.638   2.765  3.0309  1.0276 -0.4495
  816MOL0     H12586   3.221  -0.545   2.892  0.5124  1.0315  1.2531
  816MOL0     H12587   3.305  -0.581   3.046 -0.2187  0.1803 -0.2630
  816MOL0     H12588   3.591  -0.113   2.444  2.8030 -0.0283 -0.8576
  816MOL0     H12589   3.481  -0.001   2.258  1.7503 -2.6856  1.0684
  816MOL0     H12590   3.710   0.476   1.999  1.3722  0.4302 -1.4710
  816MOL0     H12591   3.630   0.622   1.818 -1.8887  1.0803 -1.5325
  816MOL0     H12592   2.783   1.704   2.029 -0.5727 -1.6804  0.8236
  816MOL0     H12593   2.617   1.817   2.188  0.4893  4.7910  1.3128
  816MOL0     H12594   2.645   2.145   2.560 -0.1207  2.0439 -0.3298
  816MOL0     H12595   2.493   2.306   2.655 -1.3221  1.1183 -0.0162
  816MOL0     H12596   2.069   2.289   2.579 -1.4949  0.1883  0.8002
  816MOL0     H12597   2.062   2.174   2.710 -2.3886  0.6755 -0.7643
  816MOL0     H12598   1.916   2.368   2.753  0.4845  0.9527 -0.8102
  816MOL0     H12599   2.048   2.480   2.732  2.4316 -0.4825  0.1054
  816MOL0     H12600   1.975   2.311   2.967  0.2965  0.4677  1.3451
  816MOL0     H12601   2.145   2.322   2.936  0.8911  1.2103 -1.1561
  816MOL0     H12602   1.953   2.542   2.991  0.8506 -1.5125 -0.7545
  816MOL0     H12603   2.112   2.583   2.933 -3.5604  2.9204  0.0629
  816MOL0     H12604   2.193   2.467   3.329  1.4738  0.1640 -0.4984
  816MOL0     H12605   2.165   2.040   2.572 -0.0105 -0.4863  0.1112
  816MOL0     H12606   2.318   1.756   2.536 -0.5849  0.2584  0.5700
  816MOL0     H12607   2.191   1.853   2.466 -0.4509 -0.8167  1.6158
  816MOL0     H12608   2.344   1.821   2.372 -2.7732 -1.1476 -1.2592
  817MOL0     O12609   9.803   2.391   9.066 -0.4621 -0.2022 -0.2418
  817MOL0     C12610   9.792   2.321   8.966  0.2920  0.0693  0.0056
  817MOL0     O12611   9.700   2.221   8.965 -0.8807 -0.7180 -0.5218
  817MOL0     C12612   9.587   2.222   9.049 -0.0207  0.9275  0.1625
  817MOL0     C12613   9.542   2.334   9.133  0.1548  0.4744  1.1645
  817MOL0     C12614   9.430   2.314   9.215 -0.2715 -0.5396  0.6030
  817MOL0     C12615   9.362   2.196   9.219  0.4380 -0.1711 -0.3946
  817MOL0     O12616   9.252   2.187   9.303 -0.6202 -0.5410 -0.0003
  817MOL0     C12617   9.161   2.082   9.275  0.3273 -0.6412 -0.4310
  817MOL0     C12618   9.039   2.074   9.372  0.9214  0.4355  0.6503
  817MOL0     C12619   9.078   2.051   9.526 -0.0199  0.7369 -0.1439
  817MOL0     C12620   8.954   1.981   9.595 -0.6187 -0.4055 -0.8485
  817MOL0     C12621   8.975   1.915   9.725 -0.5892 -0.0525  0.7062
  817MOL0     C12622   8.848   1.916   9.803 -0.5313  0.4205 -1.0370
  817MOL0     C12623   8.878   1.847   9.931  0.4329 -0.2965  0.4876
  817MOL0     C12624   8.957   1.913  10.045 -0.1421 -0.5771  0.2580
  817MOL0     N12625   8.921   2.058  10.054 -0.5694  0.2479 -0.2006
  817MOL0     C12626   8.812   2.096  10.126  0.3393  0.3200 -0.0745
  817MOL0     C12627   8.799   2.224  10.102 -0.1330 -0.3782 -1.6498
  817MOL0     C12628   8.692   2.314  10.150  1.1903 -0.4388  0.2552
  817MOL0     C12629   8.559   2.291  10.079 -0.0202  0.0756 -0.1465
  817MOL0     C12630   8.574   2.284   9.930  0.3822 -0.7377  1.0947
  817MOL0     C12631   8.446   2.239   9.856  0.1324  0.2335  0.1939
  817MOL0     O12632   8.454   2.094   9.850  0.0995 -0.2544 -0.0074
  817MOL0     C12633   8.348   2.011   9.807 -0.5057  0.4894  0.2257
  817MOL0     C12634   8.214   2.059   9.790  1.0112  1.0467 -0.3965
  817MOL0     C12635   8.114   1.966   9.743 -0.6228 -0.7651 -0.1244
  817MOL0     C12636   7.975   2.019   9.722 -0.1268 -0.5974  0.1094
  817MOL0     C12637   8.140   1.829   9.731 -0.5739  0.0539 -0.3805
  817MOL0     C12638   8.039   1.732   9.686 -0.8928  0.9929  0.5047
  817MOL0     O12639   8.084   1.603   9.705 -0.6853  0.4887 -0.5997
  817MOL0     C12640   8.002   1.495   9.677 -0.4503 -0.5526  0.5353
  817MOL0     C12641   8.063   1.409   9.585  0.7396  0.2086 -0.4497
  817MOL0     C12642   7.986   1.302   9.533 -1.1138  0.1311  0.0445
  817MOL0     C12643   7.856   1.281   9.584 -0.1244 -0.3002  0.6731
  817MOL0     O12644   7.776   1.182   9.539  0.4908 -0.8201  0.3288
  817MOL0     C12645   7.805   1.118   9.417  0.1261  0.2045 -0.3378
  817MOL0     C12646   7.688   1.030   9.378 -0.4859 -1.1350  0.3128
  817MOL0     C12647   7.713   0.955   9.249 -0.8257  0.9383 -0.7997
  817MOL0     C12648   7.648   0.811   9.262  1.2778 -0.7418  0.0549
  817MOL0     C12649   7.591   0.779   9.122 -0.1808  0.1038  0.3008
  817MOL0     C12650   7.519   0.635   9.127 -0.2162  0.6792 -0.2153
  817MOL0     C12651   7.470   0.591   8.987  1.1082  0.6893  0.5048
  817MOL0     C12652   7.564   0.488   8.927  0.0562  1.3662 -0.1172
  817MOL0    Cl12653   7.703   0.559   8.851 -0.4084  0.6277  0.3619
  817MOL0     C12654   7.805   1.363   9.679  0.4724 -0.8581 -0.7007
  817MOL0     C12655   7.873   1.472   9.733  0.6086 -0.8137  0.1369
  817MOL0     O12656   7.934   1.760   9.631 -0.3867 -0.0887  1.2224
  817MOL0     C12657   8.273   1.785   9.745 -0.9487 -1.6033 -0.4581
  817MOL0     C12658   8.380   1.877   9.782  0.3165 -0.3967  0.5922
  817MOL0     N12659   8.895   2.264  10.012  0.0488 -0.0608  0.5576
  817MOL0     N12660   8.980   2.167   9.994  0.3837 -0.3598 -0.0708
  817MOL0     C12661   9.411   2.088   9.137  0.5350  0.4125 -0.2903
  817MOL0     C12662   9.524   2.103   9.059  0.2307 -0.1648  1.2087
  817MOL0     C12663   9.890   2.332   8.861 -0.0790  0.5777  0.5721
  817MOL0     C12664   9.916   2.214   8.781  0.2593 -0.9056 -0.1490
  817MOL0     C12665   9.998   2.214   8.675  0.1111 -0.5770  0.0080
  817MOL0     C12666  10.065   2.332   8.637 -0.6157 -0.3019  0.1136
  817MOL0     O12667  10.156   2.314   8.530  0.1890  0.2192  1.0915
  817MOL0     C12668  10.271   2.398   8.524  0.1803 -1.3010 -0.2976
  817MOL0     C12669  10.379   2.367   8.419 -0.5279  0.2769 -0.1443
  817MOL0     C12670  10.449   2.233   8.442  0.0061 -1.0976 -0.0876
  817MOL0     C12671  10.511   2.180   8.323 -0.2767  0.1414  1.6878
  817MOL0     C12672  10.554   2.044   8.339 -1.0797  0.7812  0.4190
  817MOL0     C12673  10.609   1.934   8.366  0.1263 -0.0810 -0.3165
  817MOL0     C12674  10.041   2.448   8.708  0.3512 -0.4548 -0.0907
  817MOL0     C12675   9.949   2.449   8.813 -0.0897 -0.0703  0.6107
  817MOL0     C12676   9.916   2.589   8.862  0.1020 -0.2623  0.2259
  817MOL0     H12677   9.593   2.429   9.145  1.6008 -0.4612  2.7891
  817MOL0     H12678   9.399   2.400   9.273  1.3023  2.3335 -2.4658
  817MOL0     H12679   9.205   1.984   9.296 -2.5580 -1.4011  3.1063
  817MOL0     H12680   9.133   2.081   9.169  1.2713  3.2063 -0.8855
  817MOL0     H12681   8.989   2.171   9.363 -2.3426 -1.2741 -1.3672
  817MOL0     H12682   8.966   2.002   9.336  0.0230  1.7704 -0.2440
  817MOL0     H12683   9.169   1.991   9.531 -1.3272 -1.3451 -0.1039
  817MOL0     H12684   9.100   2.153   9.561  0.0852  1.7279 -2.9066
  817MOL0     H12685   8.887   2.066   9.609 -0.4210 -0.3817  0.0583
  817MOL0     H12686   8.913   1.906   9.527 -1.9477 -0.7611  0.2989
  817MOL0     H12687   9.047   1.970   9.786 -0.9458  0.1431  0.9516
  817MOL0     H12688   9.003   1.813   9.698 -0.2858  1.0155 -3.6915
  817MOL0     H12689   8.811   2.018   9.820  1.6453  1.1981 -0.6680
  817MOL0     H12690   8.760   1.873   9.755 -0.4530 -1.1790  0.1593
  817MOL0     H12691   8.917   1.747   9.912  1.2905 -0.1648  1.4861
  817MOL0     H12692   8.785   1.824   9.985  0.5469 -2.0300 -0.0021
  817MOL0     H12693   8.929   1.853  10.132 -1.0303 -1.3723 -0.5527
  817MOL0     H12694   9.063   1.891  10.026  0.4092  1.9763  0.0042
  817MOL0     H12695   8.744   2.044  10.194  2.3349 -2.7496 -0.2060
  817MOL0     H12696   8.706   2.414  10.107  0.2642 -0.7004 -0.6788
  817MOL0     H12697   8.687   2.327  10.259  2.6927  2.3912  0.0928
  817MOL0     H12698   8.506   2.203  10.117  0.5561  0.2370  1.0796
  817MOL0     H12699   8.483   2.364  10.106 -0.7445 -1.6376  2.9209
  817MOL0     H12700   8.595   2.386   9.897  3.3764 -1.4736  0.3579
  817MOL0     H12701   8.646   2.215   9.885 -1.8492 -1.9545 -0.8391
  817MOL0     H12702   8.360   2.272   9.914  0.1447  1.8164 -0.6289
  817MOL0     H12703   8.445   2.277   9.754 -2.3975 -1.7894 -0.6408
  817MOL0     H12704   8.187   2.163   9.802 -1.4572  0.3497  0.9347
  817MOL0     H12705   7.940   2.007   9.619 -3.3703  3.3038  0.4987
  817MOL0     H12706   7.973   2.127   9.734  1.6292 -0.5424  0.1804
  817MOL0     H12707   7.903   1.962   9.782 -1.0572  0.5021  0.0690
  817MOL0     H12708   8.159   1.419   9.536 -0.0648 -0.4024 -2.2307
  817MOL0     H12709   8.022   1.217   9.476 -1.2750 -1.4934  2.2467
  817MOL0     H12710   7.818   1.201   9.347  2.0191  1.0461  0.9251
  817MOL0     H12711   7.893   1.052   9.416  0.5327  0.7439 -0.6444
  817MOL0     H12712   7.676   0.962   9.463  3.1851 -1.8583  0.4307
  817MOL0     H12713   7.600   1.093   9.366 -0.5233 -0.8156  1.9981
  817MOL0     H12714   7.821   0.938   9.240 -0.8850 -0.6405  0.9884
  817MOL0     H12715   7.679   1.008   9.159 -1.8864 -0.4244 -1.2394
  817MOL0     H12716   7.581   0.809   9.348  1.3971 -1.1546  0.1410
  817MOL0     H12717   7.727   0.740   9.289 -0.7948 -1.8363  4.1307
  817MOL0     H12718   7.517   0.857   9.099 -0.0889  1.0941  2.9937
  817MOL0     H12719   7.666   0.767   9.043 -1.5697  0.8115 -1.1857
  817MOL0     H12720   7.433   0.644   9.194 -1.1994 -0.4071 -1.3002
  817MOL0     H12721   7.588   0.558   9.163 -0.9757  0.1193  0.0499
  817MOL0     H12722   7.446   0.677   8.925 -0.8648  0.4469  0.8706
  817MOL0     H12723   7.371   0.547   9.001  0.8739  1.5663  1.7091
  817MOL0     H12724   7.524   0.413   8.857  1.4734 -1.8959  2.3021
  817MOL0     H12725   7.601   0.424   9.008  0.0785 -0.5514 -1.5638
  817MOL0     H12726   7.706   1.337   9.715 -0.9797  3.0950 -1.3946
  817MOL0     H12727   7.821   1.524   9.813 -1.3332 -1.7844 -0.4357
  817MOL0     H12728   8.299   1.679   9.743 -0.7096 -1.5660  0.4373
  817MOL0     H12729   8.484   1.847   9.796 -0.2196 -2.5412  0.3276
  817MOL0     H12730   9.364   1.991   9.141  2.8320 -0.7949 -0.6896
  817MOL0     H12731   9.573   2.026   9.001  0.3416  0.1814  0.8292
  817MOL0     H12732   9.853   2.132   8.815 -0.3954  0.8429  3.2989
  817MOL0     H12733  10.016   2.128   8.612  2.3745  2.3271 -3.7654
  817MOL0     H12734  10.234   2.496   8.494 -0.2050 -1.5161 -0.5454
  817MOL0     H12735  10.314   2.400   8.625  2.0962  0.2271 -1.0812
  817MOL0     H12736  10.452   2.449   8.420 -0.5917  0.3638  1.6891
  817MOL0     H12737  10.320   2.361   8.326 -2.3918  0.9036  0.9295
  817MOL0     H12738  10.533   2.239   8.512 -0.4353  0.4040  0.3682
  817MOL0     H12739  10.368   2.167   8.473 -0.3784  1.0721  4.3092
  817MOL0     H12740  10.596   2.244   8.299  0.7831 -0.8317  2.7215
  817MOL0     H12741  10.442   2.184   8.238  0.4983 -1.5286  0.9432
  817MOL0     H12742  10.657   1.838   8.373  2.3155  1.0256  0.9959
  817MOL0     H12743  10.104   2.536   8.699  1.7129 -1.4225 -0.4662
  817MOL0     H12744   9.939   2.596   8.969  0.0256 -0.2747  0.2443
  817MOL0     H12745   9.981   2.665   8.817  3.8965 -3.7663 -0.8380
  817MOL0     H12746   9.810   2.617   8.853  0.3725  0.3873 -1.3387
  818MOL0     O12747  11.528   2.373   7.768  0.0406  0.1895 -0.6554
  818MOL0     C12748  11.425   2.430   7.726 -0.2893 -0.2704 -0.3905
  818MOL0     O12749  11.310   2.442   7.792  0.4570 -0.0584  0.2988
  818MOL0     C12750  11.313   2.417   7.929 -0.2240 -0.2292 -0.7081
  818MOL0     C12751  11.272   2.299   7.982  1.5910 -0.8112 -0.7175
  818MOL0     C12752  11.229   2.294   8.115 -1.0014  0.1360  0.2551
  818MOL0     C12753  11.239   2.408   8.201 -0.2945  0.2809  0.3475
  818MOL0     O12754  11.200   2.386   8.328 -0.3286  0.3634  0.5860
  818MOL0     C12755  11.310   2.367   8.421 -0.4028 -0.0672  0.5644
  818MOL0     C12756  11.271   2.359   8.566 -0.5360 -0.2527  0.0385
  818MOL0     C12757  11.390   2.317   8.662  0.5844  0.6093 -0.1380
  818MOL0     C12758  11.450   2.178   8.635 -0.5756 -0.4835  0.2039
  818MOL0     C12759  11.545   2.128   8.737 -0.5251  0.5115  0.6148
  818MOL0     C12760  11.682   2.190   8.721  0.0413  0.1529  0.3267
  818MOL0     C12761  11.778   2.105   8.803 -1.3747  0.2325  0.6457
  818MOL0     C12762  11.920   2.160   8.824  0.2341  0.4709  0.9527
  818MOL0     N12763  12.006   2.049   8.883  0.0553  0.5391  0.3714
  818MOL0     C12764  12.020   1.919   8.847 -0.2712 -0.1747 -0.5348
  818MOL0     C12765  12.126   1.868   8.918 -0.4196  0.3083 -0.0596
  818MOL0     C12766  12.189   1.731   8.915  0.5027 -0.0786  0.6052
  818MOL0     C12767  12.110   1.627   8.995  0.0248  0.4246 -0.5679
  818MOL0     C12768  12.163   1.625   9.143  0.6092  0.9941 -0.0335
  818MOL0     C12769  12.292   1.551   9.175 -0.5332 -0.6215 -0.0469
  818MOL0     O12770  12.275   1.419   9.128 -0.0453  0.0642 -0.1724
  818MOL0     C12771  12.225   1.308   9.199  0.6776  0.0821 -0.1147
  818MOL0     C12772  12.232   1.180   9.149  0.1489 -0.4694  0.0530
  818MOL0     C12773  12.180   1.076   9.222  0.3514  0.0806  0.1411
  818MOL0     C12774  12.175   0.943   9.153  1.2650  0.6386 -0.6884
  818MOL0     C12775  12.132   1.095   9.349 -0.0000  0.2498 -0.2620
  818MOL0     C12776  12.100   0.989   9.455 -0.3443 -0.0953 -0.2359
  818MOL0     O12777  12.098   1.029   9.593  0.2426  0.2711  0.6243
  818MOL0     C12778  12.085   0.929   9.687 -0.0771  0.5404  0.3524
  818MOL0     C12779  11.976   0.842   9.693 -0.1600 -0.3295 -0.1098
  818MOL0     C12780  11.956   0.761   9.807 -0.7196  0.0192 -0.7158
  818MOL0     C12781  12.066   0.742   9.896  0.2340  0.7531  0.0020
  818MOL0     O12782  12.067   0.649   9.997  0.7968 -0.0697  0.4852
  818MOL0     C12783  11.948   0.583  10.021 -0.9273 -0.1435  0.6717
  818MOL0     C12784  11.954   0.498  10.148 -0.1583  0.5566 -0.6205
  818MOL0     C12785  12.016   0.361  10.137  0.1979  0.3316  0.1548
  818MOL0     C12786  11.984   0.280  10.263 -0.3887  0.2579  0.3097
  818MOL0     C12787  12.059   0.147  10.265 -0.5160 -0.3408  0.0297
  818MOL0     C12788  12.012   0.061  10.380 -0.0018  0.2939 -0.4176
  818MOL0     C12789  12.108  -0.057  10.393  0.0950 -0.7698 -0.6272
  818MOL0     C12790  12.042  -0.176  10.454  0.5353 -0.1910 -0.1519
  818MOL0    Cl12791  11.894  -0.252  10.371 -0.1199  0.2156  0.2441
  818MOL0     C12792  12.183   0.814   9.872  0.3461  0.0214 -0.1359
  818MOL0     C12793  12.186   0.911   9.774  0.0072 -0.7387 -0.2494
  818MOL0     O12794  12.082   0.879   9.412 -0.0888 -0.1377  0.7038
  818MOL0     C12795  12.130   1.224   9.400  0.6285  0.0384 -0.2629
  818MOL0     C12796  12.176   1.328   9.327  0.8843  0.0884 -0.0912
  818MOL0     N12797  12.166   1.970   8.997 -1.2196 -1.1276  0.0266
  818MOL0     N12798  12.101   2.079   8.973 -0.2341  0.2135 -0.1034
  818MOL0     C12799  11.285   2.529   8.150 -1.0121  0.6757 -0.2920
  818MOL0     C12800  11.313   2.530   8.017  0.3195 -0.2224  1.3279
  818MOL0     C12801  11.443   2.501   7.597  0.6479 -0.1755 -0.0894
  818MOL0     C12802  11.555   2.472   7.516 -0.1333  0.6145  0.7353
  818MOL0     C12803  11.584   2.532   7.392 -0.0661  0.8332 -0.2855
  818MOL0     C12804  11.497   2.622   7.332 -0.1245 -0.3495 -0.5861
  818MOL0     O12805  11.528   2.700   7.219 -0.0954  0.0084  0.2870
  818MOL0     C12806  11.658   2.697   7.174 -0.3961 -0.9508 -0.3706
  818MOL0     C12807  11.692   2.801   7.068 -0.0759 -0.2376  0.0712
  818MOL0     C12808  11.629   2.773   6.931  0.0312  0.4580 -0.6754
  818MOL0     C12809  11.688   2.660   6.859 -0.1033  0.8530  0.1368
  818MOL0     C12810  11.835   2.644   6.866 -0.8961  0.1592  0.4918
  818MOL0     C12811  11.959   2.644   6.856 -0.3021 -0.9828 -0.2533
  818MOL0     C12812  11.380   2.660   7.414 -0.3710  0.6499  0.8970
  818MOL0     C12813  11.350   2.602   7.540  0.2631  0.9027  0.6696
  818MOL0     C12814  11.221   2.660   7.601  0.1386  0.5759  0.6610
  818MOL0     H12815  11.265   2.208   7.924 -1.3893 -0.3248 -1.2965
  818MOL0     H12816  11.198   2.200   8.159 -2.6897  0.9437  0.9124
  818MOL0     H12817  11.389   2.441   8.402 -0.8206  0.2367 -0.0134
  818MOL0     H12818  11.355   2.270   8.397  0.5461  0.9414 -2.1140
  818MOL0     H12819  11.245   2.460   8.598  1.3301 -0.1014  1.2931
  818MOL0     H12820  11.184   2.295   8.579 -0.8610  0.0018 -0.8522
  818MOL0     H12821  11.472   2.388   8.657 -0.6893  2.0908 -0.9333
  818MOL0     H12822  11.352   2.308   8.764  0.8134 -1.2652 -0.1810
  818MOL0     H12823  11.362   2.115   8.616 -2.0987  1.7595 -0.5684
  818MOL0     H12824  11.499   2.174   8.537 -0.5696 -2.9646  0.2531
  818MOL0     H12825  11.562   2.021   8.728 -0.6690  0.5702 -0.5790
  818MOL0     H12826  11.487   2.142   8.828 -1.7453  2.9665 -0.4281
  818MOL0     H12827  11.706   2.168   8.617 -1.6532 -1.3284  0.1964
  818MOL0     H12828  11.682   2.297   8.742  0.8413  0.1192  0.5131
  818MOL0     H12829  11.800   2.006   8.760  0.0460  0.3233  1.1002
  818MOL0     H12830  11.729   2.099   8.900 -2.9547  0.0610 -0.1396
  818MOL0     H12831  11.956   2.163   8.721 -2.8618 -1.0903 -0.3130
  818MOL0     H12832  11.928   2.256   8.875 -1.9804  2.3392 -1.9198
  818MOL0     H12833  11.971   1.847   8.783  1.5273 -1.8602 -0.1225
  818MOL0     H12834  12.293   1.746   8.944  0.8904 -0.4074 -0.5663
  818MOL0     H12835  12.185   1.694   8.812  2.0122 -1.4987  1.0166
  818MOL0     H12836  12.003   1.649   8.985 -0.7645 -2.3901  0.7664
  818MOL0     H12837  12.123   1.529   8.947 -1.8314  0.3980 -1.1084
  818MOL0     H12838  12.157   1.726   9.185 -0.4843  0.2500  1.6985
  818MOL0     H12839  12.086   1.587   9.210 -1.8705  1.4091 -2.4472
  818MOL0     H12840  12.383   1.587   9.125 -1.1246 -0.6725 -1.1847
  818MOL0     H12841  12.305   1.564   9.282  2.7306 -0.6924 -0.3393
  818MOL0     H12842  12.278   1.180   9.051 -0.6969  1.7907 -0.3941
  818MOL0     H12843  12.228   0.868   9.212  3.7967  2.5261 -0.3658
  818MOL0     H12844  12.224   0.937   9.055 -1.6874  1.7967 -2.3588
  818MOL0     H12845  12.069   0.920   9.140  1.3598  0.9281 -2.2357
  818MOL0     H12846  11.907   0.848   9.609  0.2214  1.7149 -0.3352
  818MOL0     H12847  11.867   0.700   9.818 -1.6768  1.6613  1.2973
  818MOL0     H12848  11.870   0.659  10.034  1.2348  1.6861  5.1564
  818MOL0     H12849  11.935   0.515   9.937 -2.0531 -1.2508  1.6931
  818MOL0     H12850  12.005   0.556  10.227  1.1721 -1.3129 -0.0451
  818MOL0     H12851  11.849   0.491  10.176 -0.5097  1.2927 -1.6881
  818MOL0     H12852  12.124   0.375  10.144  0.4796 -0.6397 -1.6903
  818MOL0     H12853  11.984   0.300  10.052 -0.2431  0.2256  0.3929
  818MOL0     H12854  11.875   0.267  10.257 -0.7193  3.0689 -3.1505
  818MOL0     H12855  12.005   0.346  10.347 -0.5977 -0.9836  1.3826
  818MOL0     H12856  12.044   0.093  10.171  2.9323 -5.2349  1.9340
  818MOL0     H12857  12.166   0.170  10.269 -0.2748 -1.5875  1.7943
  818MOL0     H12858  11.917   0.012  10.354  0.8208 -2.0640  0.7036
  818MOL0     H12859  12.011   0.114  10.476 -1.1893 -2.4179  1.2053
  818MOL0     H12860  12.187  -0.029  10.464 -0.3971 -1.8943  0.3871
  818MOL0     H12861  12.154  -0.093  10.301  1.6870 -1.9731  0.5712
  818MOL0     H12862  12.008  -0.145  10.553  3.2377 -2.1890  1.5145
  818MOL0     H12863  12.112  -0.259  10.463 -1.0269 -1.6034 -0.4031
  818MOL0     H12864  12.269   0.795   9.936  0.6746 -0.4341 -0.7023
  818MOL0     H12865  12.270   0.979   9.763 -0.3328 -0.2564  0.1503
  818MOL0     H12866  12.091   1.235   9.501  0.8222 -0.6436 -0.1139
  818MOL0     H12867  12.162   1.421   9.380 -1.3231 -0.2196 -0.0562
  818MOL0     H12868  11.294   2.613   8.217 -1.1101  1.0314 -0.7193
  818MOL0     H12869  11.340   2.627   7.975  0.1835 -0.9416 -0.5197
  818MOL0     H12870  11.630   2.395   7.538 -0.1221 -0.1017 -1.5605
  818MOL0     H12871  11.674   2.505   7.338  0.6062  2.7718 -0.2311
  818MOL0     H12872  11.724   2.718   7.259 -2.3629 -1.1874  1.2734
  818MOL0     H12873  11.684   2.605   7.120 -1.1060 -0.0776 -2.3088
  818MOL0     H12874  11.800   2.807   7.077  0.1395 -1.4268 -1.3357
  818MOL0     H12875  11.665   2.904   7.096  0.6778  0.4490 -1.5831
  818MOL0     H12876  11.521   2.756   6.940 -0.1379  1.2369 -1.1011
  818MOL0     H12877  11.651   2.855   6.863  1.6721 -0.2393 -1.0269
  818MOL0     H12878  11.659   2.669   6.754  0.7063  0.4669 -0.1285
  818MOL0     H12879  11.647   2.567   6.900  3.5075 -0.9655  0.0338
  818MOL0     H12880  12.065   2.626   6.845 -0.1427  0.7982 -2.2519
  818MOL0     H12881  11.312   2.733   7.371 -1.0071 -1.6330 -2.3900
  818MOL0     H12882  11.187   2.619   7.697 -0.1825 -2.5884 -0.6850
  818MOL0     H12883  11.240   2.767   7.618  0.1266  0.5380  0.9236
  818MOL0     H12884  11.139   2.642   7.531  1.1969 -1.2865 -0.1750
  819MOL0     O12885   9.976   4.701   9.933  0.2402 -0.0914 -0.5117
  819MOL0     C12886   9.898   4.659   9.853  0.1957  0.9324 -0.7618
  819MOL0     O12887   9.841   4.535   9.851  0.8059 -0.2698  0.7827
  819MOL0     C12888   9.840   4.452   9.957  0.4454 -0.4092 -1.0011
  819MOL0     C12889   9.953   4.371   9.992 -0.8968  0.5927  1.1291
  819MOL0     C12890   9.939   4.274  10.093  0.3629  0.5026  0.0168
  819MOL0     C12891   9.823   4.257  10.168 -0.0570  0.0785 -0.8999
  819MOL0     O12892   9.836   4.156  10.266  0.5200  0.6695 -0.1695
  819MOL0     C12893   9.721   4.081  10.300 -0.6438  0.3617 -0.7213
  819MOL0     C12894   9.758   3.972  10.395 -0.5184 -0.2344  0.4642
  819MOL0     C12895   9.826   4.014  10.531  0.2100 -0.5646 -0.2490
  819MOL0     C12896   9.852   3.895  10.628  0.6687  0.2741  0.6036
  819MOL0     C12897   9.920   3.944  10.754  0.8235 -0.3631  0.8389
  819MOL0     C12898  10.051   4.006  10.736  0.2678  0.7983 -0.9153
  819MOL0     C12899  10.114   4.013  10.878 -1.0355  0.5238 -0.2955
  819MOL0     C12900  10.231   4.117  10.871  0.0379  0.1979 -0.0123
  819MOL0     N12901  10.304   4.120  11.000 -0.1746  0.2657  0.6892
  819MOL0     C12902  10.360   4.008  11.056  0.3577 -1.0724  0.3181
  819MOL0     C12903  10.455   4.050  11.143  0.4634  0.1159 -0.8786
  819MOL0     C12904  10.543   3.972  11.246 -0.3286  0.4551  0.6051
  819MOL0     C12905  10.481   3.825  11.271  0.4453  0.3706 -0.0755
  819MOL0     C12906  10.345   3.833  11.344  0.1608  0.1721  0.0901
  819MOL0     C12907  10.289   3.692  11.376 -0.7665 -0.4631  0.5375
  819MOL0     O12908  10.168   3.711  11.444  0.5621 -0.2569 -0.9917
  819MOL0     C12909  10.087   3.608  11.444 -0.0215  0.7244 -0.1691
  819MOL0     C12910   9.952   3.640  11.466 -0.9528  0.7194 -0.1844
  819MOL0     C12911   9.844   3.547  11.481  0.2990  0.1578  0.5820
  819MOL0     C12912   9.708   3.618  11.512  0.2113 -0.2248 -0.3666
  819MOL0     C12913   9.870   3.410  11.465  0.5628  0.7571 -0.4894
  819MOL0     C12914   9.761   3.305  11.493 -0.9348 -1.0155  0.4862
  819MOL0     O12915   9.795   3.182  11.443 -0.8261 -0.3876 -0.3384
  819MOL0     C12916   9.738   3.071  11.499 -0.3030 -0.0395 -0.2617
  819MOL0     C12917   9.713   2.964  11.414  0.3213 -0.5093 -0.2922
  819MOL0     C12918   9.648   2.848  11.469  0.1997  0.2125  0.6249
  819MOL0     C12919   9.609   2.845  11.601 -0.2092  0.1885 -0.3734
  819MOL0     O12920   9.540   2.728  11.651  0.6073 -0.0717 -0.1989
  819MOL0     C12921   9.518   2.705  11.790 -0.0222 -0.3187  0.0247
  819MOL0     C12922   9.418   2.582  11.804  0.1609 -0.7956  0.2986
  819MOL0     C12923   9.431   2.524  11.941  0.5231  0.2962  0.0165
  819MOL0     C12924   9.313   2.425  11.967 -0.3175 -0.1896 -0.9685
  819MOL0     C12925   9.348   2.331  12.079 -0.0513  0.9985  1.2754
  819MOL0     C12926   9.224   2.242  12.095  0.7671  0.4380 -0.2866
  819MOL0     C12927   9.101   2.315  12.156  0.0866  0.2981  0.5224
  819MOL0     C12928   8.980   2.215  12.183  0.1231  0.0410  0.8984
  819MOL0    Cl12929   8.833   2.311  12.213  0.4665  0.1635  0.3714
  819MOL0     C12930   9.645   2.947  11.689 -0.9564 -0.7224 -0.6863
  819MOL0     C12931   9.703   3.062  11.635  0.4946 -0.0882 -0.6680
  819MOL0     O12932   9.653   3.327  11.551  0.6479  0.3902 -0.2689
  819MOL0     C12933   9.999   3.378  11.415 -0.9948  0.3894  0.0646
  819MOL0     C12934  10.110   3.474  11.409  0.3674  0.8813  0.0184
  819MOL0     N12935  10.456   4.187  11.140 -0.3811  0.5592 -0.0986
  819MOL0     N12936  10.363   4.231  11.055  0.5165 -0.5138  0.0207
  819MOL0     C12937   9.713   4.328  10.127  0.1974 -0.3869  0.3208
  819MOL0     C12938   9.719   4.431  10.026  0.2295 -1.6462 -0.7260
  819MOL0     C12939   9.890   4.715   9.714  0.0397 -0.4722  0.4036
  819MOL0     C12940   9.850   4.646   9.600  0.2797 -0.3405  1.0151
  819MOL0     C12941   9.849   4.704   9.473 -0.8532 -0.3675  0.2624
  819MOL0     C12942   9.862   4.842   9.460 -0.1850  0.5637 -0.0243
  819MOL0     O12943   9.839   4.890   9.328  0.2674 -0.2350  0.0091
  819MOL0     C12944   9.829   5.031   9.318  0.8986  0.5055 -0.1943
  819MOL0     C12945   9.809   5.069   9.170 -0.3635 -0.7440  0.4732
  819MOL0     C12946   9.934   5.050   9.078 -0.5780 -0.0493 -0.5738
  819MOL0     C12947  10.024   5.179   9.083  0.1364  0.3445 -0.5606
  819MOL0     C12948  10.145   5.170   9.003  0.2343  0.5038 -0.8325
  819MOL0     C12949  10.250   5.175   8.938  0.0902 -0.3394 -0.0168
  819MOL0     C12950   9.886   4.916   9.578 -0.5522 -0.2917 -0.1048
  819MOL0     C12951   9.917   4.859   9.698  0.6164 -0.2045  0.5310
  819MOL0     C12952   9.964   4.958   9.806 -0.8880  0.5189  0.6209
  819MOL0     H12953  10.043   4.395   9.935 -0.6963  0.5307  1.4155
  819MOL0     H12954  10.027   4.220  10.126  0.0052 -0.4169 -0.4873
  819MOL0     H12955   9.681   4.033  10.211 -1.5793  1.1519 -0.7546
  819MOL0     H12956   9.632   4.137  10.330 -0.9883  0.7841 -2.4317
  819MOL0     H12957   9.667   3.913  10.404 -1.2190  0.3538 -1.9371
  819MOL0     H12958   9.831   3.907  10.345  1.8586  1.3374  1.6863
  819MOL0     H12959   9.920   4.068  10.518 -1.0454  2.1493  1.1317
  819MOL0     H12960   9.761   4.092  10.573 -1.1681 -1.0116 -1.4681
  819MOL0     H12961   9.757   3.848  10.656  0.5441  0.1247 -0.0517
  819MOL0     H12962   9.904   3.824  10.562 -1.3932  0.2210 -1.0912
  819MOL0     H12963   9.944   3.860  10.820 -1.0474 -1.9626 -0.4157
  819MOL0     H12964   9.852   4.008  10.811  0.9749 -1.7823  2.7184
  819MOL0     H12965  10.117   3.948  10.671  0.6630 -0.7535  0.7763
  819MOL0     H12966  10.036   4.105  10.691  0.9958 -0.1666 -3.4338
  819MOL0     H12967  10.164   3.916  10.886  1.8560  1.8389 -0.7592
  819MOL0     H12968  10.038   4.021  10.955  0.4141 -2.0045  1.5330
  819MOL0     H12969  10.296   4.087  10.788 -0.3979 -1.2613  0.1388
  819MOL0     H12970  10.195   4.215  10.841  2.6603  0.6774 -1.9477
  819MOL0     H12971  10.342   3.904  11.030 -0.6420 -0.7962 -0.1362
  819MOL0     H12972  10.559   4.033  11.336 -1.3186  0.1882  0.9753
  819MOL0     H12973  10.627   3.956  11.179  0.5106 -4.5236  2.4283
  819MOL0     H12974  10.477   3.773  11.176 -0.7886 -0.6668  0.5202
  819MOL0     H12975  10.553   3.783  11.342 -0.7495  2.7911  2.8066
  819MOL0     H12976  10.361   3.887  11.438  0.5103 -0.8212  0.6096
  819MOL0     H12977  10.275   3.898  11.290 -0.5036 -0.2665  0.4187
  819MOL0     H12978  10.279   3.644  11.278  0.1079  1.1080 -0.3681
  819MOL0     H12979  10.360   3.626  11.427 -1.4507 -0.9163  0.9093
  819MOL0     H12980   9.941   3.744  11.493  1.5454  1.0493 -0.1949
  819MOL0     H12981   9.702   3.716  11.464 -4.5667  1.1003  2.2888
  819MOL0     H12982   9.700   3.641  11.618  0.4037 -1.1285 -0.1443
  819MOL0     H12983   9.635   3.547  11.473 -0.6502  0.9953 -1.0506
  819MOL0     H12984   9.737   2.964  11.309  0.3237  0.5962 -0.3032
  819MOL0     H12985   9.623   2.764  11.404 -0.1445 -1.2337  2.5476
  819MOL0     H12986   9.616   2.691  11.838  0.1955  1.5705  0.2201
  819MOL0     H12987   9.479   2.798  11.833  1.8848  0.9026 -0.7698
  819MOL0     H12988   9.322   2.632  11.792  1.1429  1.0345 -0.3891
  819MOL0     H12989   9.430   2.504  11.727 -0.0493  1.6521 -2.4129
  819MOL0     H12990   9.433   2.603  12.017 -1.5998 -0.0866  0.5456
  819MOL0     H12991   9.527   2.475  11.958  1.1069  1.2943 -0.3033
  819MOL0     H12992   9.283   2.382  11.871 -0.6738 -0.1297 -0.8829
  819MOL0     H12993   9.223   2.482  11.991 -1.1635 -1.6338 -0.5965
  819MOL0     H12994   9.428   2.270  12.036 -0.2733  0.7740  1.1834
  819MOL0     H12995   9.393   2.376  12.168  2.7531  1.7100 -0.3590
  819MOL0     H12996   9.254   2.159  12.160  0.4026  0.5868  0.0730
  819MOL0     H12997   9.198   2.193  12.000 -0.2599  0.4639 -0.0308
  819MOL0     H12998   9.069   2.385  12.079 -2.8206  0.5850  1.8645
  819MOL0     H12999   9.123   2.368  12.249 -2.0148  1.4220  0.4252
  819MOL0     H13000   9.011   2.151  12.266  1.2830 -0.8235 -0.1574
  819MOL0     H13001   8.960   2.146  12.101 -0.8805  2.2380 -0.8251
  819MOL0     H13002   9.616   2.932  11.793  0.3109 -1.5362 -0.4345
  819MOL0     H13003   9.721   3.145  11.702 -1.0409  0.0046 -0.3218
  819MOL0     H13004  10.034   3.276  11.405  4.5965  2.1205 -1.3955
  819MOL0     H13005  10.208   3.437  11.380  0.0831  0.9576 -1.1061
  819MOL0     H13006   9.613   4.312  10.166  1.0333 -0.9917  2.3083
  819MOL0     H13007   9.635   4.498  10.009  1.6187  0.2336 -0.6124
  819MOL0     H13008   9.829   4.540   9.610 -1.0970  0.0203  2.5654
  819MOL0     H13009   9.841   4.636   9.389  0.1383 -0.4153  0.1909
  819MOL0     H13010   9.744   5.059   9.380 -0.3448 -1.4207 -0.9204
  819MOL0     H13011   9.917   5.083   9.356  0.9625  1.6749 -1.8292
  819MOL0     H13012   9.777   5.173   9.162  1.6114  0.0544  2.1439
  819MOL0     H13013   9.739   4.995   9.129 -2.0093  0.4732  0.9582
  819MOL0     H13014   9.990   4.964   9.115 -1.3488 -0.2646  0.1065
  819MOL0     H13015   9.900   5.023   8.978  0.3468 -0.5772 -0.7654
  819MOL0     H13016  10.052   5.196   9.187 -2.0987  0.3262  0.0847
  819MOL0     H13017   9.975   5.270   9.047 -2.3132 -0.3273  0.9029
  819MOL0     H13018  10.336   5.164   8.875 -1.0767 -1.8535 -1.4437
  819MOL0     H13019   9.894   5.024   9.572 -3.9323  0.0189 -0.9656
  819MOL0     H13020  10.006   5.049   9.761 -2.4692  0.6550 -0.6348
  819MOL0     H13021   9.870   4.982   9.855 -1.2486 -0.5543  0.4784
  819MOL0     H13022  10.036   4.923   9.881 -1.2180 -0.9330  0.2791
  820MOL0     O13023   0.330   4.403   4.915  0.0578 -1.0175 -0.6075
  820MOL0     C13024   0.308   4.287   4.891 -0.5083  0.0514 -0.6056
  820MOL0     O13025   0.366   4.207   4.790  0.3253 -0.1586 -0.3296
  820MOL0     C13026   0.400   4.256   4.670  0.4677 -0.7145 -0.2983
  820MOL0     C13027   0.333   4.369   4.610 -0.3388  0.2117 -0.5364
  820MOL0     C13028   0.381   4.411   4.491  0.2988  0.7293  0.7667
  820MOL0     C13029   0.492   4.353   4.418 -0.5368  0.2392  0.5997
  820MOL0     O13030   0.505   4.391   4.291  0.3414 -0.0660  0.2910
  820MOL0     C13031   0.626   4.365   4.216  0.0467  0.4526  0.1106
  820MOL0     C13032   0.601   4.388   4.063  0.0154 -0.0352 -1.1770
  820MOL0     C13033   0.720   4.322   3.984 -0.4420  0.1109  0.6283
  820MOL0     C13034   0.715   4.359   3.828  0.4945 -0.4974 -0.2102
  820MOL0     C13035   0.842   4.309   3.764  0.5092  0.2926  0.1003
  820MOL0     C13036   0.979   4.369   3.809  0.4607 -0.3174  0.5308
  820MOL0     C13037   1.100   4.287   3.746  0.5434 -0.0360  0.0504
  820MOL0     C13038   1.231   4.359   3.757 -0.4448 -0.4166  1.3047
  820MOL0     N13039   1.270   4.449   3.642 -0.1578  0.3855  1.1320
  820MOL0     C13040   1.214   4.570   3.624  0.2103 -0.0830  0.3973
  820MOL0     C13041   1.277   4.613   3.512 -0.2589 -0.0625 -0.0663
  820MOL0     C13042   1.257   4.748   3.456 -0.2757  0.4932 -0.4285
  820MOL0     C13043   1.269   4.869   3.554  0.1077 -0.1445  0.7078
  820MOL0     C13044   1.264   5.005   3.484 -0.3302 -0.5612 -0.0036
  820MOL0     C13045   1.250   5.112   3.586 -0.5524  0.8892 -0.2535
  820MOL0     O13046   1.124   5.115   3.658  0.6303  0.5729 -0.6052
  820MOL0     C13047   1.129   5.129   3.790 -0.3866 -0.4529  0.3654
  820MOL0     C13048   1.165   5.245   3.848 -1.0646 -0.6375 -0.3091
  820MOL0     C13049   1.168   5.253   3.991  0.1603  0.1019 -0.4316
  820MOL0     C13050   1.222   5.383   4.051 -0.2491 -0.4404 -0.3932
  820MOL0     C13051   1.120   5.140   4.065  0.1476  0.4439  0.2584
  820MOL0     C13052   1.120   5.115   4.207 -0.3995  0.5936 -0.5310
  820MOL0     O13053   1.023   5.039   4.269  0.6583  0.8986 -0.2606
  820MOL0     C13054   1.051   4.997   4.398 -0.8745  0.7851  0.2032
  820MOL0     C13055   0.952   5.031   4.486 -1.2996 -0.5050 -0.5348
  820MOL0     C13056   0.965   4.995   4.623  0.2831 -0.9008 -0.3165
  820MOL0     C13057   1.071   4.926   4.671  0.2243 -0.0318 -0.4446
  820MOL0     O13058   1.090   4.902   4.804 -0.3645 -0.8924 -0.4113
  820MOL0     C13059   1.103   4.764   4.841  0.0870  1.1567 -1.0318
  820MOL0     C13060   1.106   4.765   4.998 -0.8274  0.4357  0.1719
  820MOL0     C13061   0.990   4.831   5.071  0.1770  0.1333  0.5817
  820MOL0     C13062   1.019   4.976   5.104 -0.3207 -0.4307  0.4319
  820MOL0     C13063   0.909   5.057   5.182 -0.9084  0.3616  0.4942
  820MOL0     C13064   0.858   4.989   5.319 -0.0637  0.1966 -0.7330
  820MOL0     C13065   0.742   5.064   5.376  0.3394 -0.7130 -0.2559
  820MOL0     C13066   0.667   4.982   5.473 -0.0009 -0.5990 -0.8455
  820MOL0    Cl13067   0.586   4.848   5.390 -0.7258 -0.7347  0.3780
  820MOL0     C13068   1.169   4.886   4.579  0.3386  0.5379 -0.6062
  820MOL0     C13069   1.160   4.921   4.447  0.4565 -0.0870  0.4190
  820MOL0     O13070   1.215   5.164   4.265  0.0377  0.4089 -0.8163
  820MOL0     C13071   1.076   5.024   3.991 -0.2633 -0.1307 -0.2468
  820MOL0     C13072   1.089   5.025   3.855 -0.6186  1.0802  0.0841
  820MOL0     N13073   1.360   4.517   3.467 -0.0044 -0.2914  1.5438
  820MOL0     N13074   1.352   4.412   3.541  0.1836  0.7533 -0.1221
  820MOL0     C13075   0.564   4.256   4.486  0.0626  0.1718  0.2028
  820MOL0     C13076   0.517   4.198   4.611  0.9523 -0.2001  0.4868
  820MOL0     C13077   0.238   4.220   5.002 -0.7446  1.0583  0.1999
  820MOL0     C13078   0.259   4.079   5.010 -0.5073  0.2688  0.0986
  820MOL0     C13079   0.214   4.016   5.128  0.2635 -0.0632 -0.7913
  820MOL0     C13080   0.152   4.076   5.228  0.0961 -0.6623 -0.1922
  820MOL0     O13081   0.096   4.017   5.339 -0.0121  0.0474  0.1388
  820MOL0     C13082   0.107   3.877   5.373 -0.1239 -1.0166 -0.2128
  820MOL0     C13083   0.007   3.860   5.485  0.2458  0.1027 -0.5039
  820MOL0     C13084   0.021   3.712   5.547  0.4864  0.2351 -0.0868
  820MOL0     C13085   0.133   3.622   5.504 -0.2997  1.3121 -0.4150
  820MOL0     C13086   0.259   3.654   5.567 -0.8292  0.6755 -0.2381
  820MOL0     C13087   0.363   3.678   5.625  0.6579 -0.8413 -0.3511
  820MOL0     C13088   0.136   4.213   5.222  0.1670 -0.7707 -0.8057
  820MOL0     C13089   0.179   4.290   5.105 -0.2258  0.1511  0.8336
  820MOL0     C13090   0.140   4.442   5.110  0.8515  0.0134 -0.1527
  820MOL0     H13091   0.255   4.429   4.654 -0.0687  2.7327 -3.1751
  820MOL0     H13092   0.325   4.482   4.431 -0.4807 -1.4132 -1.1807
  820MOL0     H13093   0.647   4.260   4.237  0.2817  0.5796  0.5281
  820MOL0     H13094   0.719   4.417   4.241  0.1506  1.0288 -1.3786
  820MOL0     H13095   0.504   4.345   4.035  0.0004 -0.9202  0.1556
  820MOL0     H13096   0.588   4.497   4.064  3.0561  0.4240  1.1367
  820MOL0     H13097   0.813   4.360   4.028  0.2836  2.2177 -2.4277
  820MOL0     H13098   0.713   4.213   3.991  2.5250 -0.4762 -2.5745
  820MOL0     H13099   0.631   4.309   3.779  2.0962 -2.1628 -1.4380
  820MOL0     H13100   0.698   4.467   3.827  0.4311 -0.5123 -1.0421
  820MOL0     H13101   0.834   4.340   3.659  1.3908  2.3240  0.5725
  820MOL0     H13102   0.848   4.200   3.770 -1.3759  0.0625 -1.1111
  820MOL0     H13103   0.983   4.477   3.794 -0.2133 -0.1231  1.6135
  820MOL0     H13104   0.984   4.355   3.917  1.3231 -1.1455  0.3968
  820MOL0     H13105   1.089   4.284   3.638  1.1986  1.5128 -0.0917
  820MOL0     H13106   1.101   4.183   3.780 -1.2743 -0.0746  0.0458
  820MOL0     H13107   1.229   4.427   3.843 -2.2457  2.3445 -0.7636
  820MOL0     H13108   1.309   4.284   3.775  0.1825  0.0548  0.5910
  820MOL0     H13109   1.146   4.617   3.694 -0.2095 -1.0250  0.6406
  820MOL0     H13110   1.159   4.745   3.408  0.3276 -3.7764 -1.7675
  820MOL0     H13111   1.323   4.770   3.371 -0.3582  1.2455 -0.3038
  820MOL0     H13112   1.191   4.864   3.630  2.0278  2.6765  3.1149
  820MOL0     H13113   1.362   4.871   3.613 -0.8842  1.6864  2.3467
  820MOL0     H13114   1.359   5.031   3.437 -1.0782  2.6866  0.0259
  820MOL0     H13115   1.182   5.000   3.411 -0.0105 -1.7738 -0.3038
  820MOL0     H13116   1.337   5.105   3.652  0.0549 -0.7922 -1.1630
  820MOL0     H13117   1.267   5.207   3.535  0.9194  0.5667 -0.4118
  820MOL0     H13118   1.219   5.313   3.783 -0.7492  0.5278  1.0986
  820MOL0     H13119   1.295   5.391   4.132  0.6043  1.5025 -1.2882
  820MOL0     H13120   1.136   5.443   4.080  1.5077  2.1233 -0.1536
  820MOL0     H13121   1.264   5.434   3.963 -0.9278 -0.5398 -0.7825
  820MOL0     H13122   0.866   5.092   4.460 -1.0491  0.4013  0.6702
  820MOL0     H13123   0.892   5.021   4.699  1.7667  2.3641  0.1697
  820MOL0     H13124   1.019   4.700   4.812  0.3605  0.1148  0.3789
  820MOL0     H13125   1.193   4.715   4.804 -3.0955 -3.1886 -4.0638
  820MOL0     H13126   1.121   4.663   5.034 -0.7228  1.1952  2.4366
  820MOL0     H13127   1.198   4.817   5.024 -1.3627  2.1298 -1.1702
  820MOL0     H13128   0.975   4.775   5.164 -0.2515  1.5070  1.3807
  820MOL0     H13129   0.901   4.814   5.010  2.7208 -3.1410 -2.6380
  820MOL0     H13130   1.037   5.042   5.019  2.3926 -3.7000 -1.7884
  820MOL0     H13131   1.105   4.969   5.171 -1.0776  0.7202  1.5817
  820MOL0     H13132   0.934   5.162   5.198 -2.6762  1.2330 -1.8666
  820MOL0     H13133   0.821   5.064   5.118  0.4407  2.5510 -1.2594
  820MOL0     H13134   0.943   4.993   5.388 -0.3009 -0.9917 -0.3395
  820MOL0     H13135   0.840   4.883   5.298  1.3834  0.6754 -5.7442
  820MOL0     H13136   0.668   5.099   5.303  1.1661 -1.1414 -1.3248
  820MOL0     H13137   0.787   5.153   5.420  0.5387 -0.9916  0.1059
  820MOL0     H13138   0.585   5.037   5.519  2.4519  0.8670  2.0678
  820MOL0     H13139   0.731   4.949   5.555 -2.5342 -0.6479  1.2250
  820MOL0     H13140   1.248   4.817   4.606 -0.6079 -0.4871 -0.3527
  820MOL0     H13141   1.237   4.895   4.375  0.2524  4.4363 -1.7945
  820MOL0     H13142   1.043   4.936   4.045  3.5564 -0.0987  2.5956
  820MOL0     H13143   1.056   4.946   3.789 -0.5625  0.2874  0.9849
  820MOL0     H13144   0.648   4.201   4.444 -2.0511 -0.3913 -3.7178
  820MOL0     H13145   0.556   4.111   4.664  0.0518 -0.5831  0.5291
  820MOL0     H13146   0.300   4.019   4.929  0.4122 -0.6567  1.2197
  820MOL0     H13147   0.221   3.908   5.132 -2.7446 -0.3528 -0.8896
  820MOL0     H13148   0.093   3.811   5.286  1.2957 -0.5475 -0.8302
  820MOL0     H13149   0.212   3.855   5.396  0.1827 -0.7922 -1.3085
  820MOL0     H13150  -0.091   3.878   5.440 -0.3416  4.0914  1.8916
  820MOL0     H13151   0.026   3.938   5.559  1.9011  0.8813 -1.6732
  820MOL0     H13152   0.035   3.725   5.655 -0.8393  2.7827 -0.1479
  820MOL0     H13153  -0.080   3.672   5.538  0.4425  0.1983  0.4932
  820MOL0     H13154   0.144   3.618   5.395  0.1778  0.4838 -0.3474
  820MOL0     H13155   0.104   3.519   5.529 -2.9335  0.8430 -4.4021
  820MOL0     H13156   0.452   3.713   5.673  0.4815  2.0964 -1.9361
  820MOL0     H13157   0.099   4.266   5.309  0.2820 -1.8168 -0.1070
  820MOL0     H13158   0.047   4.460   5.165  1.3873  0.7536  0.5188
  820MOL0     H13159   0.213   4.512   5.151 -0.5869  1.4197  0.0888
  820MOL0     H13160   0.117   4.485   5.011 -0.8171 -1.1640 -0.3123
  821MOL0     O13161   4.353   8.632   5.499  0.3619  0.2827  0.4843
  821MOL0     C13162   4.399   8.533   5.561  0.3796 -0.1090  0.1948
  821MOL0     O13163   4.329   8.459   5.654  0.3005  0.7896 -0.4534
  821MOL0     C13164   4.192   8.468   5.651 -0.1207  0.5265 -0.3332
  821MOL0     C13165   4.126   8.450   5.774 -0.0638 -0.2097  0.0219
  821MOL0     C13166   3.985   8.487   5.794  0.0726  1.1356  1.1418
  821MOL0     C13167   3.925   8.529   5.676  0.1098 -0.4471  0.8404
  821MOL0     O13168   3.788   8.555   5.686  0.1004 -0.4661 -0.1139
  821MOL0     C13169   3.744   8.685   5.735  0.3419  0.9871 -0.2324
  821MOL0     C13170   3.695   8.672   5.881  0.3572 -0.4205  0.6267
  821MOL0     C13171   3.557   8.597   5.877  0.3329  0.3059 -0.1577
  821MOL0     C13172   3.507   8.547   6.009  0.1695 -1.1374 -0.1094
  821MOL0     C13173   3.400   8.439   5.998  0.1370  0.5223 -0.1169
  821MOL0     C13174   3.372   8.368   6.129 -0.0081  0.5117 -0.2226
  821MOL0     C13175   3.294   8.237   6.114  0.4023  0.1738  0.8958
  821MOL0     C13176   3.273   8.168   6.255 -0.7956  0.1755 -0.7210
  821MOL0     N13177   3.393   8.153   6.345 -0.0998 -0.8348 -0.8470
  821MOL0     C13178   3.386   8.177   6.485  0.2618 -0.0608 -0.4119
  821MOL0     C13179   3.511   8.133   6.526 -0.4092 -0.0971  0.1661
  821MOL0     C13180   3.565   8.114   6.659  0.6117 -0.9327  0.2369
  821MOL0     C13181   3.530   7.980   6.710  0.4312 -0.0156 -0.7717
  821MOL0     C13182   3.598   7.944   6.836 -0.6926 -0.0094  0.1478
  821MOL0     C13183   3.590   7.785   6.857 -0.0329 -0.8912  0.2673
  821MOL0     O13184   3.608   7.764   6.998  1.0769  0.9295 -1.1578
  821MOL0     C13185   3.670   7.652   7.053 -0.0047  0.1888 -0.6325
  821MOL0     C13186   3.696   7.656   7.193  0.4065 -1.0551  0.5335
  821MOL0     C13187   3.752   7.554   7.263  0.2462 -0.7649 -0.3160
  821MOL0     C13188   3.730   7.571   7.418 -0.3169  0.3406 -0.5521
  821MOL0     C13189   3.791   7.432   7.200 -1.0944 -0.5865  0.1379
  821MOL0     C13190   3.832   7.305   7.267  0.5509 -0.0792 -0.6327
  821MOL0     O13191   3.825   7.190   7.189 -0.4459 -0.9859 -0.1362
  821MOL0     C13192   3.882   7.080   7.239 -0.8115  0.6962  0.3221
  821MOL0     C13193   4.017   7.056   7.228 -0.0633 -0.3361 -0.8304
  821MOL0     C13194   4.069   6.941   7.281  0.9130  0.4336  1.5828
  821MOL0     C13195   3.993   6.835   7.329  0.8610 -0.1458 -0.0088
  821MOL0     O13196   4.051   6.715   7.364  0.2210  0.4210 -0.1845
  821MOL0     C13197   3.977   6.613   7.438  0.2269  0.3557  0.2725
  821MOL0     C13198   3.992   6.640   7.583 -0.2714  1.0204 -0.2191
  821MOL0     C13199   3.906   6.754   7.627 -0.2157 -0.5562  0.6806
  821MOL0     C13200   3.927   6.772   7.771  0.6702  0.1734  0.8687
  821MOL0     C13201   3.834   6.875   7.824  0.1802 -0.3130  0.0369
  821MOL0     C13202   3.894   6.926   7.955 -0.2381 -0.2863 -0.9669
  821MOL0     C13203   3.900   6.829   8.074  0.1191 -0.1920  1.4563
  821MOL0     C13204   3.917   6.893   8.218  1.0647 -0.5474 -0.8285
  821MOL0    Cl13205   3.927   6.749   8.336 -0.0480 -0.0178  0.2735
  821MOL0     C13206   3.853   6.850   7.328 -0.5177 -0.4600  0.2037
  821MOL0     C13207   3.799   6.974   7.282 -0.3454  0.6270  0.1499
  821MOL0     O13208   3.850   7.302   7.383 -0.0821 -0.3253  0.1921
  821MOL0     C13209   3.779   7.429   7.062 -0.2407 -0.9048 -0.3068
  821MOL0     C13210   3.718   7.528   6.982 -0.0234 -1.1225  0.6023
  821MOL0     N13211   3.589   8.099   6.412  0.2342  0.4263 -0.1920
  821MOL0     N13212   3.515   8.114   6.302 -0.2044  0.3064 -0.5636
  821MOL0     C13213   3.977   8.525   5.546  0.5264  1.0760 -0.0907
  821MOL0     C13214   4.112   8.486   5.537 -0.1722 -1.1072 -0.8830
  821MOL0     C13215   4.549   8.510   5.556 -0.5012  0.2281 -0.0681
  821MOL0     C13216   4.600   8.445   5.675 -1.7743  0.4327  0.3461
  821MOL0     C13217   4.744   8.443   5.693  0.7097 -0.2495  0.5566
  821MOL0     C13218   4.826   8.514   5.611 -0.6309 -0.7591  0.1353
  821MOL0     O13219   4.957   8.526   5.649  0.3430 -0.3061  0.2122
  821MOL0     C13220   5.044   8.614   5.579 -0.7594  0.0678 -0.4702
  821MOL0     C13221   5.176   8.648   5.657 -0.5029 -0.3629 -0.1658
  821MOL0     C13222   5.252   8.761   5.587 -0.4015 -0.5851  0.9253
  821MOL0     C13223   5.385   8.781   5.655 -0.3908 -0.9355  0.3645
  821MOL0     C13224   5.399   8.794   5.803  0.8820 -0.4470 -0.2594
  821MOL0     C13225   5.417   8.813   5.923  0.0049  0.1287 -0.3443
  821MOL0     C13226   4.780   8.557   5.488 -0.0455 -0.2674  0.4028
  821MOL0     C13227   4.640   8.551   5.455  0.6458 -0.1080  0.3416
  821MOL0     C13228   4.594   8.579   5.312 -0.0863  0.1057 -0.8647
  821MOL0     H13229   4.196   8.421   5.852  2.8740 -1.0591 -2.7099
  821MOL0     H13230   3.948   8.492   5.896 -2.8118 -0.4930  0.2711
  821MOL0     H13231   3.664   8.719   5.669  0.0743 -1.0681 -1.0404
  821MOL0     H13232   3.827   8.757   5.731  2.9039 -1.5853  2.0229
  821MOL0     H13233   3.765   8.627   5.952  0.1847  1.6415  2.2223
  821MOL0     H13234   3.680   8.776   5.912 -2.8470 -0.4019 -0.6003
  821MOL0     H13235   3.476   8.664   5.848 -0.6028 -0.9347 -0.4809
  821MOL0     H13236   3.546   8.511   5.810 -0.6488 -0.9745  1.5853
  821MOL0     H13237   3.594   8.520   6.069  0.4724  2.6147  1.4177
  821MOL0     H13238   3.467   8.637   6.057 -0.8881 -2.1178  0.9067
  821MOL0     H13239   3.433   8.367   5.922  2.8583  2.0918 -0.5578
  821MOL0     H13240   3.307   8.487   5.968 -0.3845  0.7991  1.8164
  821MOL0     H13241   3.470   8.343   6.169  1.8218  5.9997 -0.5198
  821MOL0     H13242   3.316   8.435   6.195  1.1299  1.9049 -0.6323
  821MOL0     H13243   3.342   8.179   6.035  0.4898  3.1724 -1.4743
  821MOL0     H13244   3.196   8.253   6.068 -0.4783 -0.6744  2.4041
  821MOL0     H13245   3.196   8.230   6.302 -0.8909  2.4307 -3.5624
  821MOL0     H13246   3.229   8.070   6.232 -0.5524  0.6753 -3.6210
  821MOL0     H13247   3.302   8.202   6.548  0.1602 -0.5569 -0.3425
  821MOL0     H13248   3.529   8.188   6.731  1.2556 -0.2772 -0.0987
  821MOL0     H13249   3.673   8.129   6.650  0.6991 -2.0776 -1.0278
  821MOL0     H13250   3.425   7.974   6.739  0.7317 -3.6329  0.0745
  821MOL0     H13251   3.529   7.897   6.639 -0.9939 -0.8802  0.1938
  821MOL0     H13252   3.701   7.976   6.819  0.1909 -0.1289  4.2042
  821MOL0     H13253   3.566   7.999   6.925 -1.1413 -1.9614  1.2412
  821MOL0     H13254   3.502   7.740   6.810  0.3050 -1.5978  0.2863
  821MOL0     H13255   3.675   7.753   6.795 -1.2329 -2.4776 -0.6330
  821MOL0     H13256   3.667   7.753   7.232  1.5258 -0.4905  0.0053
  821MOL0     H13257   3.825   7.564   7.471 -0.2751  2.3580 -0.3031
  821MOL0     H13258   3.672   7.483   7.449  1.1932 -0.5799 -0.2517
  821MOL0     H13259   3.681   7.665   7.444 -0.8928  1.0216 -3.7456
  821MOL0     H13260   4.080   7.132   7.183  0.2067 -1.5899 -2.6384
  821MOL0     H13261   4.172   6.908   7.269  0.5785 -0.0027 -0.6633
  821MOL0     H13262   3.871   6.601   7.414  0.3160 -3.4798  1.1188
  821MOL0     H13263   4.017   6.513   7.421  3.6696  1.6943 -0.4102
  821MOL0     H13264   3.973   6.549   7.641  0.8777  0.1084 -1.2331
  821MOL0     H13265   4.095   6.669   7.605  0.6252 -1.3687 -1.0125
  821MOL0     H13266   3.802   6.745   7.594 -0.2690  2.1312 -0.1372
  821MOL0     H13267   3.938   6.846   7.576 -0.1185 -1.0377 -0.1386
  821MOL0     H13268   4.031   6.803   7.784  1.1851  0.4242 -2.9032
  821MOL0     H13269   3.924   6.674   7.820 -0.0861  0.6005  1.7053
  821MOL0     H13270   3.812   6.962   7.762 -2.8095  0.2515  1.6459
  821MOL0     H13271   3.735   6.835   7.852  0.4565 -0.4180  0.8826
  821MOL0     H13272   3.829   7.008   7.985  0.1112 -0.3231 -0.0953
  821MOL0     H13273   3.995   6.962   7.933 -0.3249  1.5454  1.2624
  821MOL0     H13274   3.984   6.761   8.060  1.0020  0.5066  3.0577
  821MOL0     H13275   3.812   6.764   8.074 -1.8645  2.3429  1.4003
  821MOL0     H13276   3.835   6.964   8.231  2.2832  0.6785  0.7796
  821MOL0     H13277   4.009   6.952   8.217  1.7346 -1.5384 -0.1416
  821MOL0     H13278   3.785   6.769   7.350  1.2533 -2.7029 -1.9599
  821MOL0     H13279   3.691   6.971   7.269 -0.5179 -3.5852  1.0597
  821MOL0     H13280   3.811   7.346   7.001  1.9465 -0.7624  0.5507
  821MOL0     H13281   3.693   7.501   6.880  0.6489 -0.5212  0.2698
  821MOL0     H13282   3.917   8.553   5.461  0.5097  1.0527 -0.0866
  821MOL0     H13283   4.164   8.482   5.441  3.9306  0.4558  1.0329
  821MOL0     H13284   4.543   8.404   5.758 -2.0772 -2.8424 -1.3552
  821MOL0     H13285   4.785   8.391   5.779  1.3701 -2.8875 -1.2147
  821MOL0     H13286   5.062   8.567   5.482 -2.3746  1.4925 -1.5201
  821MOL0     H13287   4.992   8.710   5.571  2.3678  1.9309 -0.1074
  821MOL0     H13288   5.227   8.552   5.645 -3.4638 -1.8624 -1.9414
  821MOL0     H13289   5.153   8.673   5.761  1.7753 -0.1155  0.3163
  821MOL0     H13290   5.264   8.746   5.479 -1.4815  1.0814  0.5344
  821MOL0     H13291   5.209   8.862   5.597  0.8923  0.0013  0.7872
  821MOL0     H13292   5.442   8.856   5.600 -2.7519 -0.9390 -2.3156
  821MOL0     H13293   5.441   8.689   5.638 -2.6012 -2.8471  2.6027
  821MOL0     H13294   5.428   8.839   6.027 -1.1613 -0.2847 -0.1057
  821MOL0     H13295   4.841   8.585   5.402  0.4395  1.9799  1.3920
  821MOL0     H13296   4.545   8.676   5.304 -3.3791 -1.3834 -0.4475
  821MOL0     H13297   4.677   8.559   5.244  0.7020 -2.7587  0.7436
  821MOL0     H13298   4.511   8.514   5.283 -1.1606  0.8222  0.4789
  822MOL0     O13299  11.139   6.287  10.483  0.1439  0.0772  0.6311
  822MOL0     C13300  11.166   6.178  10.427 -0.3168  0.2821 -0.5519
  822MOL0     O13301  11.272   6.164  10.342  0.6646  0.3119  0.4206
  822MOL0     C13302  11.360   6.269  10.330 -0.0887 -0.6561 -0.1289
  822MOL0     C13303  11.414   6.283  10.211 -0.5822  0.2644 -0.7329
  822MOL0     C13304  11.514   6.379  10.193 -0.0757  0.9602 -0.3523
  822MOL0     C13305  11.561   6.462  10.288 -0.1657 -0.1410  0.1021
  822MOL0     O13306  11.671   6.542  10.271 -0.0077 -0.2434 -0.5051
  822MOL0     C13307  11.737   6.594  10.391 -0.7371 -0.3102  0.1204
  822MOL0     C13308  11.872   6.650  10.367  1.2589 -0.4253 -0.4977
  822MOL0     C13309  11.926   6.713  10.496 -0.2086 -0.0567  0.2994
  822MOL0     C13310  12.049   6.797  10.465  0.1511  0.9260  0.8341
  822MOL0     C13311  12.067   6.911  10.566 -0.6349  0.4985  0.1198
  822MOL0     C13312  12.177   7.012  10.527 -0.2003  0.8380  0.0038
  822MOL0     C13313  12.144   7.158  10.540 -0.0558  0.3979  0.4973
  822MOL0     C13314  12.272   7.236  10.571  0.1034 -0.1342  0.3841
  822MOL0     N13315  12.335   7.283  10.439  1.3123 -0.2950  0.2822
  822MOL0     C13316  12.454   7.229  10.400 -0.0019 -0.3811  0.1110
  822MOL0     C13317  12.475   7.304  10.285  0.5609 -0.0032  0.2844
  822MOL0     C13318  12.588   7.275  10.185  0.7191 -0.8121 -0.2866
  822MOL0     C13319  12.571   7.336  10.041 -0.7056  0.3411  0.4151
  822MOL0     C13320  12.447   7.271   9.962 -0.1044 -1.0604  0.7624
  822MOL0     C13321  12.424   7.129   9.999  0.0912  0.7333  0.2075
  822MOL0     O13322  12.543   7.050   9.977 -0.4990 -0.1793  0.7999
  822MOL0     C13323  12.522   6.914   9.980 -0.4911  0.5510  1.0281
  822MOL0     C13324  12.403   6.841  10.011  0.1027 -0.0802 -0.2731
  822MOL0     C13325  12.391   6.702   9.992 -0.6444 -0.2389  0.6458
  822MOL0     C13326  12.247   6.658  10.010 -0.8799 -0.5436  0.1442
  822MOL0     C13327  12.502   6.626   9.941 -0.2728 -0.2872  0.1725
  822MOL0     C13328  12.492   6.476   9.906  0.1141  0.2383 -0.5722
  822MOL0     O13329  12.387   6.419   9.973 -0.3713  0.3559  0.4169
  822MOL0     C13330  12.343   6.298   9.921  0.4034 -0.3260 -0.8836
  822MOL0     C13331  12.421   6.190   9.950  0.1113  0.8770  0.0113
  822MOL0     C13332  12.374   6.067   9.903  0.2844 -0.2409  0.6853
  822MOL0     C13333  12.276   6.047   9.808 -0.4539 -0.6062  0.1824
  822MOL0     O13334  12.241   5.918   9.779  0.0839  0.8006  0.5840
  822MOL0     C13335  12.186   5.908   9.643 -0.5849  0.7300 -0.5317
  822MOL0     C13336  12.192   5.766   9.588  0.3681 -0.6401 -0.1526
  822MOL0     C13337  12.102   5.676   9.666 -1.0481  0.9164  0.2182
  822MOL0     C13338  12.119   5.526   9.620 -0.4098 -0.9205 -1.0860
  822MOL0     C13339  12.021   5.431   9.678  0.1058  0.4966  0.5849
  822MOL0     C13340  12.031   5.428   9.836 -0.1702  0.4108 -0.0178
  822MOL0     C13341  11.995   5.288   9.887 -0.1895  0.1559 -0.9616
  822MOL0     C13342  12.055   5.263  10.026  0.0970 -0.6278 -1.4617
  822MOL0    Cl13343  11.940   5.317  10.147  0.6480  0.0856 -0.1978
  822MOL0     C13344  12.200   6.167   9.782 -0.9789 -0.9204 -0.0942
  822MOL0     C13345  12.230   6.289   9.843  0.0495  0.1122  0.3492
  822MOL0     O13346  12.582   6.422   9.845  0.8924  0.1163  0.1621
  822MOL0     C13347  12.627   6.695   9.929  0.2185  0.1232 -0.2687
  822MOL0     C13348  12.634   6.828   9.949 -0.0626 -0.7208 -0.3673
  822MOL0     N13349  12.377   7.399  10.269 -0.7575 -0.8680  0.1845
  822MOL0     N13350  12.286   7.383  10.354  0.5932  0.1064 -0.1221
  822MOL0     C13351  11.498   6.450  10.417  0.8071 -0.1395  0.3743
  822MOL0     C13352  11.401   6.352  10.438 -1.0379 -0.2422  0.2812
  822MOL0     C13353  11.069   6.068  10.446 -0.5585  0.4062 -0.5803
  822MOL0     C13354  11.055   5.988  10.336 -0.1202  1.1016  0.0584
  822MOL0     C13355  10.962   5.888  10.348  0.1950  0.2560 -0.6748
  822MOL0     C13356  10.885   5.860  10.467 -0.4864  0.1344  0.7105
  822MOL0     O13357  10.795   5.755  10.464 -0.6527 -0.1926  0.2884
  822MOL0     C13358  10.691   5.760  10.558 -1.0810 -0.5968 -0.3508
  822MOL0     C13359  10.738   5.664  10.671 -0.2406 -0.5944 -0.1990
  822MOL0     C13360  10.646   5.654  10.794  0.4151  1.7208 -0.4517
  822MOL0     C13361  10.724   5.638  10.931 -0.1010 -0.2611  0.1407
  822MOL0     C13362  10.798   5.762  10.958 -0.3256 -0.7575 -0.2860
  822MOL0     C13363  10.867   5.865  10.976  0.0514  0.4293  0.0521
  822MOL0     C13364  10.914   5.932  10.578  0.1085 -0.8577 -0.5191
  822MOL0     C13365  11.005   6.038  10.577 -0.0055 -0.4472  0.4461
  822MOL0     C13366  11.040   6.108  10.701 -0.8193  0.1117 -1.0584
  822MOL0     H13367  11.378   6.217  10.132  0.9684 -0.4412 -0.8942
  822MOL0     H13368  11.557   6.392  10.094 -0.6332 -1.4888 -0.9864
  822MOL0     H13369  11.753   6.506  10.454 -0.4643 -1.3977 -1.4141
  822MOL0     H13370  11.672   6.662  10.449  0.8415  0.0566  1.5548
  822MOL0     H13371  11.937   6.575  10.321  1.4462 -0.8083  0.3784
  822MOL0     H13372  11.853   6.738  10.305 -0.2834 -0.1086  0.3636
  822MOL0     H13373  11.854   6.781  10.544  0.1569  0.5382  0.0212
  822MOL0     H13374  11.932   6.636  10.573 -0.9310  2.0575  2.6213
  822MOL0     H13375  12.131   6.726  10.451  0.3921  1.6433 -2.0184
  822MOL0     H13376  12.029   6.837  10.365 -1.6958 -0.1641  0.7330
  822MOL0     H13377  12.085   6.862  10.663 -2.1216 -0.7163 -0.1637
  822MOL0     H13378  11.975   6.970  10.564 -1.2348 -0.4169 -0.5261
  822MOL0     H13379  12.274   6.987  10.570  0.4018  0.1956 -1.6526
  822MOL0     H13380  12.199   7.008  10.420  2.7452  1.4646  0.5179
  822MOL0     H13381  12.074   7.180  10.622 -0.8834  0.4583 -0.2153
  822MOL0     H13382  12.090   7.196  10.453 -1.5888 -0.9210  0.8269
  822MOL0     H13383  12.257   7.331  10.624  4.6903  0.5456  0.8405
  822MOL0     H13384  12.339   7.187  10.642  0.0078 -1.2073 -0.2532
  822MOL0     H13385  12.520   7.156  10.445 -0.3370 -1.7543 -1.5024
  822MOL0     H13386  12.610   7.168  10.185  4.3869 -0.1740  0.6512
  822MOL0     H13387  12.679   7.320  10.225 -0.0318  2.0194 -1.5061
  822MOL0     H13388  12.568   7.444  10.028  0.0299  0.1371 -1.6609
  822MOL0     H13389  12.665   7.306   9.996  0.0861 -1.2407  2.9126
  822MOL0     H13390  12.356   7.327   9.987  0.4033 -0.7491  1.9569
  822MOL0     H13391  12.462   7.274   9.854 -4.5555 -1.4117 -0.0585
  822MOL0     H13392  12.388   7.109  10.100  2.1556 -0.4172  0.7902
  822MOL0     H13393  12.343   7.095   9.934  0.9965  0.5016 -0.8378
  822MOL0     H13394  12.317   6.893  10.053 -0.7860  0.9660 -3.1972
  822MOL0     H13395  12.182   6.742   9.986 -0.4650 -0.4306 -0.6296
  822MOL0     H13396  12.232   6.630  10.115 -0.4283 -1.9344 -0.1290
  822MOL0     H13397  12.219   6.584   9.934 -1.7952  0.6427 -0.6989
  822MOL0     H13398  12.516   6.193  10.001  0.6008 -1.5769 -0.6288
  822MOL0     H13399  12.441   5.983   9.916  0.3422 -0.0630  1.6224
  822MOL0     H13400  12.083   5.944   9.639 -0.7475  0.3152 -0.0745
  822MOL0     H13401  12.250   5.953   9.566  3.7167 -2.3535  0.8850
  822MOL0     H13402  12.146   5.763   9.489 -1.8174  1.2447  0.7127
  822MOL0     H13403  12.298   5.740   9.587  0.2784 -1.0038 -1.0324
  822MOL0     H13404  11.999   5.711   9.647 -0.8464  0.3386 -2.2708
  822MOL0     H13405  12.119   5.674   9.774  2.0203 -0.0642 -0.1891
  822MOL0     H13406  12.221   5.493   9.642  0.0231  0.2570 -1.2551
  822MOL0     H13407  12.109   5.525   9.512 -0.7878  0.8655 -1.1092
  822MOL0     H13408  11.918   5.451   9.648 -0.4114 -3.3627 -0.8043
  822MOL0     H13409  12.038   5.335   9.629 -0.1745  1.1020 -0.7296
  822MOL0     H13410  11.963   5.497   9.887  2.4776  2.0492  1.5504
  822MOL0     H13411  12.134   5.438   9.873  1.4636 -1.2101 -3.6329
  822MOL0     H13412  12.028   5.211   9.817  2.1806  1.5126 -1.4425
  822MOL0     H13413  11.886   5.285   9.889 -0.2336 -0.2243  2.5733
  822MOL0     H13414  12.145   5.325  10.034 -1.9605  2.5901 -1.2690
  822MOL0     H13415  12.084   5.158  10.042 -0.6591 -0.8534 -1.5480
  822MOL0     H13416  12.113   6.160   9.717 -2.0586  0.5407  1.1025
  822MOL0     H13417  12.151   6.359   9.819 -1.2684 -1.2257  0.6842
  822MOL0     H13418  12.716   6.637   9.908  1.4219  2.1216 -0.9536
  822MOL0     H13419  12.731   6.877   9.952 -0.9800  1.1712  2.4233
  822MOL0     H13420  11.519   6.511  10.503 -1.4397  0.5065  0.5298
  822MOL0     H13421  11.361   6.327  10.536  0.1600 -2.9111  0.1562
  822MOL0     H13422  11.116   5.992  10.247 -1.6789  0.3535 -1.0999
  822MOL0     H13423  10.953   5.813  10.271  1.1833 -2.3627  1.5950
  822MOL0     H13424  10.668   5.864  10.580 -2.6049  0.2617 -5.0219
  822MOL0     H13425  10.604   5.708  10.518 -0.3288  1.3210 -5.0488
  822MOL0     H13426  10.839   5.680  10.711 -1.7251  0.5984  3.5297
  822MOL0     H13427  10.734   5.566  10.623 -1.8077 -0.4034 -0.5106
  822MOL0     H13428  10.587   5.746  10.796 -0.8353  1.1001  4.6897
  822MOL0     H13429  10.583   5.566  10.774 -2.0284  3.1395  0.5223
  822MOL0     H13430  10.804   5.564  10.920  5.3213  4.6471  1.2565
  822MOL0     H13431  10.661   5.625  11.019 -1.5766 -0.9907 -0.9798
  822MOL0     H13432  10.911   5.963  10.982 -1.0293  0.8475  1.9084
  822MOL0     H13433  10.871   5.922  10.677  0.8278  1.5674  0.1002
  822MOL0     H13434  10.984   6.202  10.696 -2.8490 -1.0218 -0.8328
  822MOL0     H13435  11.022   6.056  10.795  1.1018 -2.3384 -1.9277
  822MOL0     H13436  11.147   6.125  10.692 -0.6594  0.9171  1.5557
  823MOL0     O13437   1.616   2.956   1.815  0.4507 -0.1615  0.3353
  823MOL0     C13438   1.704   3.005   1.886 -0.0216  0.4528 -0.4909
  823MOL0     O13439   1.760   3.129   1.863  0.4381 -0.7404 -0.0106
  823MOL0     C13440   1.766   3.177   1.735  0.1567 -0.3769  0.0200
  823MOL0     C13441   1.656   3.233   1.677 -0.3586 -0.2156  0.3220
  823MOL0     C13442   1.663   3.274   1.543  0.0334 -0.2630  0.0414
  823MOL0     C13443   1.780   3.262   1.469  0.6323 -0.1194  0.2916
  823MOL0     O13444   1.773   3.293   1.336  0.8513  0.1481  0.0907
  823MOL0     C13445   1.896   3.323   1.264 -0.5301 -0.0811  0.7042
  823MOL0     C13446   1.866   3.332   1.119 -0.2701 -0.6438  0.4057
  823MOL0     C13447   1.765   3.457   1.099  0.3753 -0.5373  0.9858
  823MOL0     C13448   1.737   3.485   0.956 -0.2499  0.0375  0.1397
  823MOL0     C13449   1.705   3.636   0.915 -0.0254 -0.4975 -0.0508
  823MOL0     C13450   1.597   3.713   1.010 -1.3989  0.0070  0.6600
  823MOL0     C13451   1.459   3.645   1.005  0.1916 -0.3235  0.7864
  823MOL0     C13452   1.348   3.737   1.046  0.8068 -0.1801  0.8676
  823MOL0     N13453   1.316   3.718   1.181 -0.0022 -0.0175 -0.1679
  823MOL0     C13454   1.307   3.596   1.245  0.5598  0.7536 -0.2658
  823MOL0     C13455   1.297   3.624   1.376 -0.1389 -0.2050  0.2451
  823MOL0     C13456   1.285   3.521   1.486 -0.0744 -0.3606 -0.8159
  823MOL0     C13457   1.139   3.483   1.528 -0.9130 -0.5994  0.0105
  823MOL0     C13458   1.075   3.387   1.419  1.6247  1.2490 -0.2480
  823MOL0     C13459   0.927   3.350   1.450  0.8062 -0.0589 -0.4024
  823MOL0     O13460   0.865   3.298   1.330  0.0304 -0.3486 -0.6610
  823MOL0     C13461   0.912   3.180   1.288  0.4880  0.6041 -0.4792
  823MOL0     C13462   0.928   3.070   1.370  0.6968  0.4500  0.5775
  823MOL0     C13463   0.986   2.948   1.336 -0.6677  0.8660  0.4677
  823MOL0     C13464   0.986   2.832   1.439  0.0342 -0.3049  0.1775
  823MOL0     C13465   1.034   2.922   1.196 -0.1238 -0.4702 -0.9534
  823MOL0     C13466   1.104   2.798   1.140  0.2654 -0.5648  0.2231
  823MOL0     O13467   1.121   2.684   1.201 -0.5279  0.1855 -0.2778
  823MOL0     C13468   1.205   2.587   1.154  0.2129 -0.4989  0.3590
  823MOL0     C13469   1.335   2.580   1.195 -0.1742 -0.3757 -0.5856
  823MOL0     C13470   1.420   2.488   1.138 -0.3151 -0.1879 -0.1273
  823MOL0     C13471   1.375   2.402   1.028 -1.1488  0.6213 -0.7120
  823MOL0     O13472   1.448   2.309   0.959  0.3390  0.0286 -0.1014
  823MOL0     C13473   1.569   2.255   1.017 -0.0769  0.1032 -0.1368
  823MOL0     C13474   1.608   2.133   0.930 -0.2621 -0.2873  0.6302
  823MOL0     C13475   1.758   2.101   0.954  0.8378 -0.0733 -0.2619
  823MOL0     C13476   1.862   2.181   0.871  0.6538 -0.7228  0.3424
  823MOL0     C13477   2.000   2.146   0.943  0.1026  0.0347 -0.5481
  823MOL0     C13478   2.120   2.225   0.890  0.5900  0.2117 -0.1976
  823MOL0     C13479   2.244   2.139   0.867 -0.9416 -0.7379  0.5698
  823MOL0     C13480   2.364   2.230   0.831  0.0302  0.8514  0.9864
  823MOL0    Cl13481   2.322   2.326   0.689  0.0246 -0.5498 -0.2228
  823MOL0     C13482   1.242   2.416   0.992  0.4741  0.1450 -0.7835
  823MOL0     C13483   1.155   2.505   1.050 -0.0485  0.6073 -0.4188
  823MOL0     O13484   1.149   2.819   1.024  0.5468 -0.6030  0.0877
  823MOL0     C13485   1.014   3.037   1.110  0.0793 -0.1044  0.1830
  823MOL0     C13486   0.957   3.159   1.158  0.5444 -1.0265  0.6207
  823MOL0     N13487   1.299   3.761   1.391  0.0273  0.0855 -0.5955
  823MOL0     N13488   1.328   3.810   1.275  0.3289 -0.4356  0.2113
  823MOL0     C13489   1.897   3.221   1.533 -0.0422 -1.1859 -0.0697
  823MOL0     C13490   1.892   3.185   1.666  1.2580  0.1077  0.0056
  823MOL0     C13491   1.731   2.940   2.012  0.3820 -1.3448 -0.3686
  823MOL0     C13492   1.615   2.887   2.086 -2.0206 -1.3825 -0.1065
  823MOL0     C13493   1.645   2.842   2.214 -0.1064 -0.4282  0.2900
  823MOL0     C13494   1.769   2.840   2.267  1.2075 -0.1647 -0.9316
  823MOL0     O13495   1.786   2.796   2.394 -1.2128  0.2217  0.1135
  823MOL0     C13496   1.833   2.662   2.406  0.6805  0.7368  0.6814
  823MOL0     C13497   1.883   2.641   2.548 -0.3508  0.2286 -0.2119
  823MOL0     C13498   1.787   2.682   2.666 -0.1944  0.4793  0.1151
  823MOL0     C13499   1.817   2.817   2.723 -0.3879 -0.2567  0.9203
  823MOL0     C13500   1.762   2.942   2.654  0.0466  0.5991  0.2678
  823MOL0     C13501   1.723   3.037   2.588 -0.7013  0.2528  1.3279
  823MOL0     C13502   1.878   2.872   2.198 -0.1422  0.7454 -0.3693
  823MOL0     C13503   1.860   2.920   2.070  0.0717  0.1879  0.8508
  823MOL0     C13504   1.985   2.980   2.009 -0.0535 -0.8559 -0.2511
  823MOL0     H13505   1.556   3.225   1.719 -0.6208 -1.7300 -0.4820
  823MOL0     H13506   1.573   3.317   1.500  0.9814  2.2715  0.4490
  823MOL0     H13507   1.977   3.250   1.277  0.2653  0.7868  0.7302
  823MOL0     H13508   1.944   3.417   1.295 -0.2845  0.3249 -0.8190
  823MOL0     H13509   1.963   3.356   1.074 -0.6854 -2.3081 -1.5172
  823MOL0     H13510   1.833   3.237   1.077  0.3645  0.4826 -2.9695
  823MOL0     H13511   1.671   3.433   1.149 -1.9855 -1.1199 -3.2392
  823MOL0     H13512   1.808   3.549   1.139 -1.9212  1.6490 -1.2110
  823MOL0     H13513   1.828   3.484   0.895 -0.6535  2.4187 -0.5869
  823MOL0     H13514   1.662   3.409   0.935 -1.3163  0.8425  0.9287
  823MOL0     H13515   1.673   3.634   0.810  0.0266  2.6903 -0.2333
  823MOL0     H13516   1.800   3.688   0.930 -0.0299 -0.2863 -0.7282
  823MOL0     H13517   1.633   3.718   1.113 -0.8187  0.3108  0.4442
  823MOL0     H13518   1.601   3.812   0.964 -0.0475 -1.3694 -2.4719
  823MOL0     H13519   1.456   3.546   1.050 -0.4363 -0.8356 -0.3610
  823MOL0     H13520   1.440   3.615   0.902  1.0766 -2.2910  1.1566
  823MOL0     H13521   1.380   3.840   1.031  1.6345 -0.6332 -0.6030
  823MOL0     H13522   1.266   3.705   0.981  0.3994  0.5056  1.0305
  823MOL0     H13523   1.292   3.494   1.211 -0.0240  1.1395 -1.1981
  823MOL0     H13524   1.329   3.556   1.580 -0.0405  0.1724 -1.0288
  823MOL0     H13525   1.345   3.435   1.453 -3.8188 -2.8269 -1.8762
  823MOL0     H13526   1.132   3.432   1.625 -0.9372  0.2656  0.4787
  823MOL0     H13527   1.084   3.578   1.530 -0.5069 -0.3235 -1.1990
  823MOL0     H13528   1.072   3.442   1.325 -3.0398  1.8639  0.0238
  823MOL0     H13529   1.133   3.294   1.417 -0.5941 -0.3622  2.7397
  823MOL0     H13530   0.911   3.295   1.544 -0.7344  1.5058  0.3265
  823MOL0     H13531   0.874   3.444   1.468  1.8130  0.2739  0.9979
  823MOL0     H13532   0.879   3.067   1.467 -0.8412 -2.5394 -0.1719
  823MOL0     H13533   0.967   2.874   1.539 -1.6587  0.6054 -0.4763
  823MOL0     H13534   1.080   2.777   1.431  0.6644  0.9097 -1.3169
  823MOL0     H13535   0.908   2.764   1.406  0.3921 -0.4711 -0.3436
  823MOL0     H13536   1.365   2.638   1.282  0.6407 -2.8022  0.8673
  823MOL0     H13537   1.518   2.480   1.183 -1.7913  1.4061  3.8099
  823MOL0     H13538   1.636   2.340   1.025 -1.3461  1.3993 -2.2735
  823MOL0     H13539   1.553   2.200   1.111  2.1010  0.5755  0.5583
  823MOL0     H13540   1.537   2.052   0.947 -2.6755  1.2070 -1.5297
  823MOL0     H13541   1.600   2.143   0.821  3.9274  0.0423  0.2029
  823MOL0     H13542   1.773   1.996   0.927 -3.1791 -0.9906  0.3149
  823MOL0     H13543   1.779   2.111   1.061 -0.5134  3.5858 -0.1807
  823MOL0     H13544   1.843   2.288   0.863  2.3217 -0.5384 -3.5950
  823MOL0     H13545   1.854   2.154   0.765  0.5511 -0.1562  0.2031
  823MOL0     H13546   1.999   2.168   1.050  4.0883  2.8555 -0.8881
  823MOL0     H13547   2.024   2.040   0.928 -3.4613 -0.5924 -3.1089
  823MOL0     H13548   2.150   2.289   0.973  0.5057 -0.8344  0.6561
  823MOL0     H13549   2.089   2.277   0.798  1.2368  0.6722 -0.1628
  823MOL0     H13550   2.229   2.062   0.790 -1.2735 -2.6464  2.4453
  823MOL0     H13551   2.273   2.088   0.959  3.2981  0.8894  0.3422
  823MOL0     H13552   2.456   2.172   0.819 -2.5326 -3.2393 -1.1132
  823MOL0     H13553   2.371   2.308   0.907 -0.7433  2.6440 -0.6937
  823MOL0     H13554   1.204   2.356   0.909 -2.8208  1.5630 -0.4606
  823MOL0     H13555   1.053   2.513   1.014  0.4019 -0.3875 -2.0229
  823MOL0     H13556   1.048   3.036   1.007 -0.6969 -2.0674 -0.0935
  823MOL0     H13557   0.957   3.247   1.094  2.6918 -0.0850  1.8098
  823MOL0     H13558   1.998   3.203   1.498  0.7733  0.5249  1.2219
  823MOL0     H13559   1.974   3.146   1.726  1.5263  1.6436  0.6949
  823MOL0     H13560   1.513   2.889   2.048 -1.4225 -3.1630 -2.0089
  823MOL0     H13561   1.570   2.825   2.290  0.7892  1.6360  1.7034
  823MOL0     H13562   1.753   2.590   2.389  2.5323 -0.8330 -2.2532
  823MOL0     H13563   1.917   2.639   2.340  1.1298  0.6867  1.2516
  823MOL0     H13564   1.978   2.697   2.548  1.5791 -2.7669 -1.8664
  823MOL0     H13565   1.915   2.538   2.566  5.7313  1.2863 -2.4635
  823MOL0     H13566   1.686   2.671   2.627  0.1203  1.9999 -1.2150
  823MOL0     H13567   1.790   2.608   2.747 -0.8623 -1.2310 -1.3492
  823MOL0     H13568   1.926   2.824   2.726 -0.4068  0.1884  0.7175
  823MOL0     H13569   1.787   2.814   2.828  2.3152 -0.7715  1.7613
  823MOL0     H13570   1.695   3.117   2.523  0.2410  0.1118  0.7326
  823MOL0     H13571   1.973   2.867   2.250 -1.2637  2.4056  2.0158
  823MOL0     H13572   2.068   2.930   2.060 -0.0955 -0.2861  0.3775
  823MOL0     H13573   1.972   2.970   1.901 -1.6943  0.2168 -0.1915
  823MOL0     H13574   1.981   3.088   2.026 -2.1920 -0.6163 -1.8404
  824MOL0     O13575   3.008   4.495   0.248 -0.3286  0.4929 -0.2672
  824MOL0     C13576   3.112   4.427   0.243 -0.5684  0.9017  0.4252
  824MOL0     O13577   3.129   4.303   0.292  0.5553  0.0847 -0.6869
  824MOL0     C13578   3.025   4.254   0.366  1.3159 -0.7760 -0.5599
  824MOL0     C13579   2.905   4.195   0.316 -0.4608 -0.4865  0.8875
  824MOL0     C13580   2.813   4.125   0.395 -0.2965  1.3948  0.0055
  824MOL0     C13581   2.813   4.147   0.528 -0.4063  0.6406  0.3600
  824MOL0     O13582   2.724   4.092   0.628 -0.6807 -0.1059  0.0679
  824MOL0     C13583   2.610   4.022   0.592 -0.0311 -0.1023  0.0671
  824MOL0     C13584   2.492   4.114   0.616 -0.1934  0.5646 -0.4439
  824MOL0     C13585   2.349   4.044   0.622  0.3814 -0.4899  0.8386
  824MOL0     C13586   2.327   3.955   0.496 -0.7343  0.4865 -0.1468
  824MOL0     C13587   2.204   3.871   0.510  0.1256 -0.3406  0.1418
  824MOL0     C13588   2.076   3.960   0.498 -0.0777 -0.4036  0.2790
  824MOL0     C13589   1.940   3.887   0.508  0.3477 -0.0438  1.7503
  824MOL0     C13590   1.904   3.816   0.637 -0.1632  0.6787 -0.5334
  824MOL0     N13591   1.878   3.909   0.751  0.2248 -0.5538 -0.2135
  824MOL0     C13592   1.766   3.955   0.819  0.4908  0.5522  0.7233
  824MOL0     C13593   1.810   4.022   0.924 -0.2101 -0.1217  0.1315
  824MOL0     C13594   1.740   4.118   1.019 -0.3830  0.7590  0.8060
  824MOL0     C13595   1.767   4.070   1.160  0.1280 -0.1430 -0.6552
  824MOL0     C13596   1.713   4.177   1.264 -0.3956  0.5087 -0.3757
  824MOL0     C13597   1.567   4.175   1.289 -0.2654  0.4013 -0.0526
  824MOL0     O13598   1.542   4.282   1.379  1.3040 -0.5153  0.4727
  824MOL0     C13599   1.415   4.312   1.406 -0.2114  0.8439  0.4468
  824MOL0     C13600   1.399   4.425   1.481 -0.3257 -0.5102  0.3887
  824MOL0     C13601   1.273   4.477   1.521 -0.5393 -0.3811 -0.2473
  824MOL0     C13602   1.269   4.615   1.576 -0.7379  0.4727  0.4077
  824MOL0     C13603   1.160   4.403   1.504  0.3737 -0.3220 -0.1656
  824MOL0     C13604   1.026   4.447   1.555 -0.7516  0.6192  0.2448
  824MOL0     O13605   0.913   4.414   1.487 -0.9538  0.5191 -0.3839
  824MOL0     C13606   0.811   4.510   1.488 -0.4084 -0.6699  0.0615
  824MOL0     C13607   0.835   4.649   1.467 -0.3750 -1.0353  0.2348
  824MOL0     C13608   0.729   4.742   1.467  0.0593  0.2721  0.3196
  824MOL0     C13609   0.598   4.690   1.480  0.3660 -0.6424 -0.8890
  824MOL0     O13610   0.481   4.768   1.485 -0.5232 -0.5125 -0.0979
  824MOL0     C13611   0.493   4.903   1.533  0.5099 -0.2769  0.2411
  824MOL0     C13612   0.354   4.968   1.511 -0.5545 -0.5671  0.4485
  824MOL0     C13613   0.309   4.966   1.363  1.0072  0.6287 -0.1013
  824MOL0     C13614   0.196   5.065   1.330  0.4837 -0.1200  0.2696
  824MOL0     C13615   0.220   5.214   1.370  0.1899 -0.3610 -0.0962
  824MOL0     C13616   0.104   5.310   1.332  0.4045 -0.3343 -0.0197
  824MOL0     C13617   0.127   5.452   1.389  0.0463  0.2955  0.4652
  824MOL0     C13618   0.015   5.555   1.363  0.1697 -0.1579 -0.1770
  824MOL0    Cl13619  -0.154   5.492   1.396 -0.5802  0.2831  0.5349
  824MOL0     C13620   0.576   4.560   1.502 -0.1114  0.5215 -0.6347
  824MOL0     C13621   0.683   4.469   1.505 -0.3767  0.2251  0.6872
  824MOL0     O13622   1.035   4.514   1.661 -0.4827 -0.7863  0.1552
  824MOL0     C13623   1.173   4.288   1.431  0.3609 -0.1935  0.0961
  824MOL0     C13624   1.299   4.239   1.385  0.5134  0.4964  0.3751
  824MOL0     N13625   1.956   4.015   0.934  0.4037 -0.0664  0.4343
  824MOL0     N13626   1.989   3.949   0.823  1.6667 -0.0190  0.5431
  824MOL0     C13627   2.932   4.210   0.580 -0.1428 -0.4548  0.3321
  824MOL0     C13628   3.038   4.254   0.504  0.1990 -0.4277 -0.3808
  824MOL0     C13629   3.227   4.479   0.175  0.2470 -0.5200 -0.9590
  824MOL0     C13630   3.324   4.394   0.125 -0.4787  0.8944 -0.3131
  824MOL0     C13631   3.435   4.439   0.045  0.0505 -0.1580  0.5245
  824MOL0     C13632   3.434   4.576   0.013 -0.0108  0.8956  0.3058
  824MOL0     O13633   3.528   4.627  -0.069  0.4421  0.4995  0.1190
  824MOL0     C13634   3.543   4.556  -0.192  0.2802  0.8614  0.5567
  824MOL0     C13635   3.692   4.544  -0.223 -0.4709  0.6507  0.4981
  824MOL0     C13636   3.748   4.654  -0.305  1.4007 -0.6175 -0.1581
  824MOL0     C13637   3.889   4.626  -0.365  0.3432  0.0498 -0.5805
  824MOL0     C13638   3.980   4.555  -0.262  0.8187 -0.7819 -0.3499
  824MOL0     C13639   4.029   4.501  -0.168  0.2012  0.4461  0.2143
  824MOL0     C13640   3.336   4.659   0.055  0.0045 -0.1247  0.3692
  824MOL0     C13641   3.238   4.620   0.143  0.0931  0.1321  0.4478
  824MOL0     C13642   3.156   4.729   0.211 -0.8394 -0.4430  0.5541
  824MOL0     H13643   2.889   4.190   0.209 -1.3028  1.3495  0.8846
  824MOL0     H13644   2.727   4.085   0.342  1.3876 -1.9377 -0.4453
  824MOL0     H13645   2.601   3.934   0.656  1.7316 -2.5868 -2.7888
  824MOL0     H13646   2.609   3.988   0.488  1.5724 -0.9233  0.2849
  824MOL0     H13647   2.500   4.173   0.708 -1.6568 -2.0223  1.4477
  824MOL0     H13648   2.483   4.175   0.525 -1.0184  0.5637 -0.3643
  824MOL0     H13649   2.333   3.989   0.715  3.1477  0.2744  1.8459
  824MOL0     H13650   2.266   4.116   0.627 -1.4521 -2.4481  0.1829
  824MOL0     H13651   2.313   4.020   0.409  2.0515  1.6081  0.1573
  824MOL0     H13652   2.405   3.879   0.481 -0.7495 -0.0746  2.2966
  824MOL0     H13653   2.203   3.826   0.609  2.5106  4.4038  2.7205
  824MOL0     H13654   2.202   3.804   0.424 -0.0204  0.7575 -0.7435
  824MOL0     H13655   2.066   4.038   0.574  1.4594 -0.8008  0.9265
  824MOL0     H13656   2.089   4.004   0.399 -0.5946  5.1192  2.2904
  824MOL0     H13657   1.927   3.813   0.428 -0.5236  1.4550  0.4347
  824MOL0     H13658   1.865   3.963   0.482 -1.7513 -2.1972  1.2031
  824MOL0     H13659   1.810   3.765   0.615  0.5632 -0.3553 -1.3683
  824MOL0     H13660   1.982   3.740   0.652  0.4562  0.4625 -3.9500
  824MOL0     H13661   1.665   3.927   0.790  0.0595  1.4495  1.3324
  824MOL0     H13662   1.635   4.112   0.989  0.8634  0.4049 -4.6222
  824MOL0     H13663   1.760   4.222   0.993 -1.7002  1.2513  1.6865
  824MOL0     H13664   1.714   3.977   1.183  0.1338  0.3109  1.3870
  824MOL0     H13665   1.873   4.070   1.183 -0.6552 -0.6752  3.8991
  824MOL0     H13666   1.765   4.150   1.356  1.5189 -1.4276 -1.9233
  824MOL0     H13667   1.744   4.276   1.232 -0.1854  0.3962 -0.5229
  824MOL0     H13668   1.510   4.191   1.198  1.5683  1.2176 -1.1219
  824MOL0     H13669   1.539   4.079   1.334 -0.0501  2.1750  4.4155
  824MOL0     H13670   1.490   4.483   1.483 -0.9804  0.6109 -0.6154
  824MOL0     H13671   1.362   4.671   1.558  0.7109 -1.7925  0.4206
  824MOL0     H13672   1.268   4.616   1.686 -2.6785  2.0291  0.4242
  824MOL0     H13673   1.194   4.678   1.528 -2.3452 -2.1037 -0.6533
  824MOL0     H13674   0.939   4.679   1.455 -1.1058  0.9172 -2.2184
  824MOL0     H13675   0.736   4.848   1.447 -1.4996 -0.2466 -3.7155
  824MOL0     H13676   0.519   4.905   1.639  3.4508  1.5020 -0.4156
  824MOL0     H13677   0.571   4.966   1.490  0.3665  1.5631  2.4517
  824MOL0     H13678   0.273   4.925   1.570 -1.6548  0.5784 -0.1961
  824MOL0     H13679   0.362   5.069   1.552 -0.9929 -0.0412 -0.7270
  824MOL0     H13680   0.275   4.871   1.322  2.5514 -0.1977  0.4674
  824MOL0     H13681   0.390   5.003   1.298 -0.4892  4.0034 -0.2599
  824MOL0     H13682   0.099   5.023   1.360 -0.5296 -0.0467 -2.5691
  824MOL0     H13683   0.199   5.068   1.221  1.1168 -0.2536  0.2789
  824MOL0     H13684   0.226   5.219   1.479 -0.1665 -2.0803  0.0417
  824MOL0     H13685   0.312   5.252   1.325 -0.6945 -0.7410 -2.3537
  824MOL0     H13686   0.011   5.270   1.371  2.7883 -3.2880  3.3012
  824MOL0     H13687   0.081   5.319   1.225 -3.0027  1.7158  0.7439
  824MOL0     H13688   0.217   5.497   1.345  0.5985  0.8301  2.0739
  824MOL0     H13689   0.153   5.438   1.494  0.8310 -1.0629  0.1098
  824MOL0     H13690   0.014   5.580   1.256 -2.3909 -2.6374 -0.8550
  824MOL0     H13691   0.037   5.647   1.417  1.7421  0.3955 -1.6734
  824MOL0     H13692   0.472   4.537   1.522  0.2467 -0.7564 -0.1198
  824MOL0     H13693   0.663   4.365   1.526 -1.6010 -0.0433 -1.5929
  824MOL0     H13694   1.086   4.222   1.431  2.4307 -3.1362 -1.7488
  824MOL0     H13695   1.299   4.143   1.334  1.0287 -1.3624  3.5866
  824MOL0     H13696   2.938   4.230   0.687  4.6804 -0.0382  0.2186
  824MOL0     H13697   3.132   4.287   0.548  0.1810 -0.3058 -0.4346
  824MOL0     H13698   3.327   4.288   0.148  2.9570 -0.0725 -3.9739
  824MOL0     H13699   3.520   4.373   0.031  2.1680  2.6392 -1.0876
  824MOL0     H13700   3.507   4.452  -0.187 -0.1751  0.9678 -0.2379
  824MOL0     H13701   3.484   4.590  -0.278 -1.2358  0.6627  1.4727
  824MOL0     H13702   3.715   4.449  -0.271 -2.1363  0.4513  0.0474
  824MOL0     H13703   3.745   4.531  -0.128  2.9672  1.1731 -1.1938
  824MOL0     H13704   3.691   4.675  -0.396  0.5110 -3.8314 -0.4613
  824MOL0     H13705   3.738   4.742  -0.242  0.5384  0.9769 -2.3838
  824MOL0     H13706   3.934   4.722  -0.390  1.7058  0.2519  2.3087
  824MOL0     H13707   3.887   4.564  -0.455  0.6429 -2.4588  1.0374
  824MOL0     H13708   4.070   4.463  -0.076  0.9809 -0.4884 -0.5054
  824MOL0     H13709   3.345   4.761   0.018  0.7599  0.2182  1.4279
  824MOL0     H13710   3.060   4.743   0.160  0.9714 -1.0346 -3.3904
  824MOL0     H13711   3.156   4.703   0.317  2.9393 -1.9247  0.3703
  824MOL0     H13712   3.221   4.816   0.198  3.0289 -3.0037  1.1696
  825MOL0     O13713   9.568   2.687   2.126 -0.2320 -0.4172 -0.2622
  825MOL0     C13714   9.467   2.652   2.178 -1.0544  0.5103  0.1075
  825MOL0     O13715   9.340   2.632   2.115 -0.2553 -0.4326  0.2273
  825MOL0     C13716   9.321   2.648   1.982  0.1700 -0.2355 -0.0693
  825MOL0     C13717   9.386   2.580   1.889 -0.2860  0.3564 -0.4973
  825MOL0     C13718   9.354   2.590   1.757  0.0198 -0.1237 -0.2675
  825MOL0     C13719   9.250   2.676   1.712  0.1917  0.0059 -0.1811
  825MOL0     O13720   9.210   2.706   1.588 -0.3168 -0.6787 -0.2197
  825MOL0     C13721   9.224   2.605   1.492  0.3990 -0.3871  0.2282
  825MOL0     C13722   9.162   2.656   1.359  0.9285 -0.4547  0.7438
  825MOL0     C13723   9.003   2.666   1.376  0.0006 -0.1326 -0.3633
  825MOL0     C13724   8.926   2.708   1.253  0.4217 -0.5847 -0.1978
  825MOL0     C13725   8.784   2.756   1.276 -0.6490 -0.2875  0.7834
  825MOL0     C13726   8.710   2.665   1.376  0.3841 -0.2166 -0.6210
  825MOL0     C13727   8.563   2.695   1.387 -0.0965 -1.0225 -0.1781
  825MOL0     C13728   8.529   2.848   1.426 -0.6537  0.1378  0.2384
  825MOL0     N13729   8.585   2.906   1.548  0.3519  1.5556  0.3228
  825MOL0     C13730   8.664   2.849   1.645  0.1933  0.1149  0.7159
  825MOL0     C13731   8.729   2.951   1.698  0.2416 -0.1420 -0.4677
  825MOL0     C13732   8.834   2.936   1.804  0.8484  0.8317 -0.8971
  825MOL0     C13733   8.873   3.067   1.881 -0.4588  0.4887  0.1803
  825MOL0     C13734   8.981   3.039   1.978 -0.6687  0.0439 -0.1286
  825MOL0     C13735   8.928   2.976   2.113  0.1898 -0.6414  0.3254
  825MOL0     O13736   8.939   2.831   2.109  0.0522  0.4818  1.0464
  825MOL0     C13737   8.934   2.766   2.230 -0.4563  0.1558 -0.1530
  825MOL0     C13738   8.971   2.635   2.233 -0.9502 -0.5797 -0.0403
  825MOL0     C13739   8.979   2.552   2.352  0.9188 -1.2207  0.7152
  825MOL0     C13740   9.051   2.421   2.357  0.6199 -0.0854  0.7971
  825MOL0     C13741   8.917   2.604   2.470 -0.6611 -0.6315  0.4657
  825MOL0     C13742   8.905   2.528   2.589  0.1245  0.7883 -0.1707
  825MOL0     O13743   8.780   2.483   2.617  0.2193  0.3247  0.1249
  825MOL0     C13744   8.741   2.456   2.743 -0.3975 -0.1094 -0.4706
  825MOL0     C13745   8.775   2.344   2.810 -0.3375 -0.5317 -1.0315
  825MOL0     C13746   8.727   2.311   2.940  0.7623 -0.5444 -0.5561
  825MOL0     C13747   8.641   2.403   3.007  1.0543  0.6562  0.6941
  825MOL0     O13748   8.575   2.387   3.125  0.2812 -0.0741  0.7062
  825MOL0     C13749   8.633   2.315   3.232  0.1838 -0.7515 -0.2341
  825MOL0     C13750   8.745   2.409   3.294 -0.3932  0.6392  0.1783
  825MOL0     C13751   8.716   2.491   3.414 -0.1845 -0.3936 -0.2259
  825MOL0     C13752   8.592   2.582   3.382 -1.1440 -0.3448  0.6042
  825MOL0     C13753   8.558   2.679   3.501  0.0411 -0.2536  0.4654
  825MOL0     C13754   8.635   2.807   3.499 -0.3076 -0.3519 -0.0628
  825MOL0     C13755   8.620   2.893   3.625 -0.3465  0.0582  0.1741
  825MOL0     C13756   8.482   2.930   3.666  1.5156  0.7397  0.3590
  825MOL0    Cl13757   8.471   3.042   3.808  0.1720  0.1224 -0.2499
  825MOL0     C13758   8.607   2.520   2.930 -0.4685  0.0284  0.3666
  825MOL0     C13759   8.657   2.543   2.802  0.0838  0.5662 -0.2381
  825MOL0     O13760   9.003   2.503   2.654 -0.2594 -0.0736  0.3901
  825MOL0     C13761   8.859   2.735   2.466  0.0068  0.4600 -0.3893
  825MOL0     C13762   8.870   2.813   2.350 -0.0132 -0.2240  0.2884
  825MOL0     N13763   8.694   3.070   1.636  0.2940 -0.6322  0.7916
  825MOL0     N13764   8.613   3.036   1.541 -0.7917  0.5131  0.1859
  825MOL0     C13765   9.195   2.759   1.818  0.2527  0.2119  0.1944
  825MOL0     C13766   9.223   2.735   1.944  0.0826 -0.0057 -0.3488
  825MOL0     C13767   9.482   2.607   2.322  0.1205 -0.4912 -0.4626
  825MOL0     C13768   9.360   2.627   2.397 -0.5989 -0.0359 -0.2536
  825MOL0     C13769   9.348   2.596   2.531  0.0764 -0.5535 -0.0546
  825MOL0     C13770   9.456   2.544   2.605 -0.1662 -0.8633 -1.0196
  825MOL0     O13771   9.439   2.502   2.735  0.3500 -0.2994 -0.2618
  825MOL0     C13772   9.538   2.420   2.801 -0.5461  0.9299  0.5812
  825MOL0     C13773   9.641   2.508   2.878  0.2037  0.6795  0.2609
  825MOL0     C13774   9.570   2.598   2.988  0.0389  0.0552 -0.1149
  825MOL0     C13775   9.659   2.641   3.102 -0.0690  0.5325 -0.1453
  825MOL0     C13776   9.580   2.747   3.166 -0.7430 -0.2190 -1.3373
  825MOL0     C13777   9.527   2.837   3.222 -0.2578  1.3591  0.6494
  825MOL0     C13778   9.583   2.536   2.537  0.1861 -0.4275  0.0846
  825MOL0     C13779   9.589   2.563   2.394 -0.5056 -1.3234 -0.8765
  825MOL0     C13780   9.726   2.558   2.334 -0.6822 -0.1129 -0.4148
  825MOL0     H13781   9.458   2.502   1.913 -0.6017 -0.3002 -1.5726
  825MOL0     H13782   9.416   2.523   1.699 -0.4665 -1.7251  1.0159
  825MOL0     H13783   9.171   2.516   1.530  1.6238  0.3671  4.2234
  825MOL0     H13784   9.328   2.570   1.491  0.3262 -0.5927 -0.7397
  825MOL0     H13785   9.210   2.747   1.322  2.5069 -1.6758 -0.3357
  825MOL0     H13786   9.179   2.580   1.282  0.8187 -0.0639  0.3347
  825MOL0     H13787   8.950   2.584   1.426 -0.7326  1.3287  1.3680
  825MOL0     H13788   8.995   2.743   1.453 -1.4219 -0.7848  0.1906
  825MOL0     H13789   8.973   2.785   1.191 -4.1515  0.0197 -3.4279
  825MOL0     H13790   8.912   2.627   1.181  0.9347  0.9267 -2.0842
  825MOL0     H13791   8.735   2.776   1.180 -1.2662 -1.7132  0.7738
  825MOL0     H13792   8.813   2.847   1.330 -1.3011  0.1894  0.3472
  825MOL0     H13793   8.715   2.560   1.344 -1.6700  0.4034 -3.3725
  825MOL0     H13794   8.746   2.676   1.479 -0.7973  2.6106 -0.4334
  825MOL0     H13795   8.538   2.630   1.471  1.3283 -0.7561  0.4851
  825MOL0     H13796   8.509   2.662   1.298  0.6437  0.5348 -1.2460
  825MOL0     H13797   8.559   2.912   1.342 -1.7280 -0.6342 -0.7642
  825MOL0     H13798   8.422   2.851   1.447 -1.3897 -2.3466 -2.4469
  825MOL0     H13799   8.670   2.744   1.670 -4.8213 -0.7689 -0.7553
  825MOL0     H13800   8.915   2.885   1.751 -0.9552 -1.7553 -1.4208
  825MOL0     H13801   8.788   2.872   1.880 -0.4723  3.1817  0.3973
  825MOL0     H13802   8.921   3.139   1.815  3.5927  0.2140  2.5417
  825MOL0     H13803   8.790   3.112   1.937 -2.2109 -2.5523  0.2580
  825MOL0     H13804   9.067   2.978   1.947  1.7402  2.0912  2.0687
  825MOL0     H13805   9.027   3.135   2.001  1.6083 -1.1582  0.7403
  825MOL0     H13806   9.000   3.017   2.185 -1.5435  4.1483 -0.2981
  825MOL0     H13807   8.827   3.019   2.123  1.1989  1.9257  0.2917
  825MOL0     H13808   9.018   2.607   2.140  1.1156  3.8717 -0.5870
  825MOL0     H13809   9.136   2.439   2.424  0.8721 -1.3809  0.8440
  825MOL0     H13810   9.087   2.381   2.263  2.2627 -1.6245  2.0236
  825MOL0     H13811   8.992   2.333   2.387  0.2804 -1.1836 -2.6597
  825MOL0     H13812   8.840   2.270   2.764  2.3148 -0.3973  2.0806
  825MOL0     H13813   8.757   2.217   2.985  1.8901  0.1792  0.2600
  825MOL0     H13814   8.557   2.296   3.308  0.8154 -0.5673  0.4572
  825MOL0     H13815   8.674   2.217   3.207 -0.1003 -1.6484  2.5029
  825MOL0     H13816   8.811   2.343   3.350 -0.4723  1.6403  1.4998
  825MOL0     H13817   8.796   2.467   3.216 -1.8349  0.3152 -1.0519
  825MOL0     H13818   8.804   2.551   3.438 -1.7546  2.9743 -2.1427
  825MOL0     H13819   8.714   2.422   3.498  1.5409  0.7703  0.8359
  825MOL0     H13820   8.508   2.517   3.360  1.1259 -2.9160 -1.1516
  825MOL0     H13821   8.614   2.643   3.294 -1.9589 -0.2786  0.4434
  825MOL0     H13822   8.451   2.705   3.497 -1.0656 -4.0639  1.0270
  825MOL0     H13823   8.571   2.622   3.593  2.1841 -1.1889 -0.3785
  825MOL0     H13824   8.603   2.874   3.419  0.8743 -0.4415 -0.6326
  825MOL0     H13825   8.738   2.776   3.479  0.3451  1.7786 -0.1709
  825MOL0     H13826   8.664   2.991   3.602 -3.8917  1.5060 -1.0681
  825MOL0     H13827   8.663   2.851   3.717  0.0196  0.9308  0.4170
  825MOL0     H13828   8.416   2.845   3.688 -1.8416  0.6830 -6.8415
  825MOL0     H13829   8.440   2.964   3.571  0.0288  0.2964  0.8247
  825MOL0     H13830   8.533   2.588   2.970  2.6224  2.5783  2.1968
  825MOL0     H13831   8.615   2.632   2.756 -2.0805  0.8024  2.0305
  825MOL0     H13832   8.809   2.783   2.550  1.8407  2.2780 -0.2622
  825MOL0     H13833   8.835   2.915   2.336  1.7225  0.6527  1.8940
  825MOL0     H13834   9.117   2.822   1.776 -0.2214  0.7727  1.8629
  825MOL0     H13835   9.166   2.775   2.027 -3.3745 -3.6541 -0.6592
  825MOL0     H13836   9.271   2.657   2.342 -0.6141  1.6121  0.6307
  825MOL0     H13837   9.256   2.616   2.586  1.5881  1.4800  1.9218
  825MOL0     H13838   9.495   2.346   2.869  1.0155 -2.5909 -1.9416
  825MOL0     H13839   9.594   2.363   2.726  0.1094  0.7733  1.1791
  825MOL0     H13840   9.689   2.575   2.806 -0.8790  0.8326 -0.3321
  825MOL0     H13841   9.725   2.450   2.918  2.6761  1.5147 -3.2386
  825MOL0     H13842   9.526   2.691   2.953  3.9017  2.9748  1.9782
  825MOL0     H13843   9.490   2.535   3.027 -0.6982  2.1892  2.0068
  825MOL0     H13844   9.746   2.688   3.056 -0.5501  1.9836  0.3893
  825MOL0     H13845   9.683   2.552   3.162 -1.1767  1.3650  1.6220
  825MOL0     H13846   9.490   2.928   3.263  0.5767  1.5613  0.9706
  825MOL0     H13847   9.672   2.494   2.582  0.8026  1.4672  0.7191
  825MOL0     H13848   9.716   2.492   2.248  1.0399  3.4245 -3.6081
  825MOL0     H13849   9.751   2.660   2.302 -0.6585  0.7430  2.0556
  825MOL0     H13850   9.802   2.503   2.391 -1.5200 -1.0756 -0.2047
  826MOL0     O13851   9.537   8.876   7.312 -0.4329 -0.4395 -0.1722
  826MOL0     C13852   9.477   8.771   7.280 -0.1012 -0.0849 -0.0903
  826MOL0     O13853   9.347   8.749   7.257  0.0171 -0.2690  0.0570
  826MOL0     C13854   9.276   8.863   7.248  0.0433  0.0950  0.2777
  826MOL0     C13855   9.247   8.941   7.360 -0.8887 -0.5753  0.9004
  826MOL0     C13856   9.182   9.068   7.347 -0.3396  0.2749  0.9835
  826MOL0     C13857   9.139   9.116   7.223  0.3676 -1.1188  0.0147
  826MOL0     O13858   9.052   9.226   7.228  0.2446  0.9571  0.0901
  826MOL0     C13859   9.029   9.304   7.106 -0.2629  0.5846 -0.1031
  826MOL0     C13860   8.896   9.275   7.031 -0.3673  1.0351 -0.7980
  826MOL0     C13861   8.774   9.292   7.120 -0.5032 -0.4898  0.2425
  826MOL0     C13862   8.654   9.232   7.045  0.5414  0.2894 -0.1516
  826MOL0     C13863   8.534   9.224   7.144  0.1809 -0.6746  0.4729
  826MOL0     C13864   8.408   9.216   7.062  0.4532 -0.1571 -0.3392
  826MOL0     C13865   8.292   9.242   7.153 -0.5699  0.6247  0.1004
  826MOL0     C13866   8.165   9.218   7.069 -0.4008  0.1646 -0.2288
  826MOL0     N13867   8.053   9.225   7.160 -0.3767  1.4549  0.4689
  826MOL0     C13868   7.997   9.331   7.222 -0.0004 -0.3804  0.1877
  826MOL0     C13869   7.902   9.278   7.298 -0.1087 -0.9761 -0.6626
  826MOL0     C13870   7.815   9.351   7.393  0.6992 -0.9931  1.0158
  826MOL0     C13871   7.715   9.449   7.328  1.3755 -0.2330  0.0347
  826MOL0     C13872   7.646   9.527   7.434 -0.5377 -0.4106 -1.2058
  826MOL0     C13873   7.728   9.642   7.502  1.3279 -0.5022 -0.9216
  826MOL0     O13874   7.791   9.727   7.403  0.0541  0.0643  0.8808
  826MOL0     C13875   7.867   9.831   7.445  0.2514  1.5287 -0.0210
  826MOL0     C13876   7.949   9.896   7.355  0.0607 -0.0072 -0.3888
  826MOL0     C13877   8.024  10.007   7.388  0.0491  0.3130 -1.1167
  826MOL0     C13878   8.114  10.070   7.284 -1.0044 -0.7480  0.9992
  826MOL0     C13879   8.012  10.061   7.522  1.0370 -0.7616  0.5211
  826MOL0     C13880   8.061  10.195   7.560 -1.1921 -0.5453  0.2539
  826MOL0     O13881   8.053  10.286   7.459 -0.0720  0.5446 -1.0539
  826MOL0     C13882   8.106  10.414   7.464  1.0178 -0.2333 -0.5088
  826MOL0     C13883   8.224  10.444   7.535 -0.1062 -0.5904  0.0504
  826MOL0     C13884   8.273  10.577   7.540 -0.4200  0.2844 -0.2436
  826MOL0     C13885   8.204  10.678   7.487 -0.6753  0.0978  0.7225
  826MOL0     O13886   8.257  10.798   7.485 -0.6606  0.6329  0.1847
  826MOL0     C13887   8.288  10.870   7.365  0.4251 -1.0472  0.0586
  826MOL0     C13888   8.382  10.993   7.400  0.1475 -0.2573  0.2505
  826MOL0     C13889   8.408  11.086   7.290  0.2209  0.4969  0.7697
  826MOL0     C13890   8.511  11.022   7.198  0.6798  0.1442 -1.0544
  826MOL0     C13891   8.507  11.079   7.052  0.1283 -0.7630  0.3382
  826MOL0     C13892   8.604  11.005   6.959 -0.4823  0.2418 -0.6710
  826MOL0     C13893   8.760  11.050   6.960  0.8742  0.9291  0.2541
  826MOL0     C13894   8.777  11.206   6.942 -0.3130  0.3960  0.2381
  826MOL0    Cl13895   8.722  11.267   6.786  0.2583 -0.1704  0.0179
  826MOL0     C13896   8.086  10.645   7.411 -0.3320 -0.7613  0.5747
  826MOL0     C13897   8.029  10.516   7.410 -0.3100 -0.1888 -0.4264
  826MOL0     O13898   8.107  10.212   7.672  0.4417  0.3332  0.3201
  826MOL0     C13899   7.937   9.987   7.612 -0.1079  0.1672 -0.4801
  826MOL0     C13900   7.870   9.873   7.575 -0.2412 -0.1234 -0.0358
  826MOL0     N13901   7.907   9.138   7.294  0.6723  0.2036  0.0088
  826MOL0     N13902   7.996   9.106   7.205 -0.1861  0.2142  1.2715
  826MOL0     C13903   9.163   9.038   7.116  0.2793 -0.0694  0.8928
  826MOL0     C13904   9.228   8.916   7.126 -0.1854  0.3174  0.0324
  826MOL0     C13905   9.556   8.645   7.277  0.7429  0.5386 -0.0475
  826MOL0     C13906   9.532   8.566   7.160  0.1286 -1.2032  0.7370
  826MOL0     C13907   9.606   8.445   7.144  0.3099 -0.6199 -0.0597
  826MOL0     C13908   9.683   8.395   7.242  0.3634 -0.3265 -0.1459
  826MOL0     O13909   9.748   8.284   7.233 -0.3941  0.6128 -0.5741
  826MOL0     C13910   9.880   8.309   7.183 -0.4892 -0.7858  0.5962
  826MOL0     C13911   9.928   8.164   7.133 -0.2264 -0.4030 -0.6669
  826MOL0     C13912  10.077   8.172   7.102 -0.0072  0.3042  0.0256
  826MOL0     C13913  10.122   8.034   7.046 -0.4219  0.5519  0.1711
  826MOL0     C13914  10.262   8.029   7.014 -0.6617  0.6321  0.0695
  826MOL0     C13915  10.377   7.995   6.985  1.1559  0.4278  0.7454
  826MOL0     C13916   9.687   8.468   7.366 -0.4714  0.2766 -0.8125
  826MOL0     C13917   9.631   8.596   7.385  0.3133  0.2470 -0.9030
  826MOL0     C13918   9.653   8.656   7.520 -0.2860  0.1794  0.1207
  826MOL0     H13919   9.287   8.919   7.459  0.4758 -0.6925  0.3337
  826MOL0     H13920   9.166   9.140   7.427  1.7323  2.2060 -0.2305
  826MOL0     H13921   9.108   9.294   7.032 -1.6969  0.7242 -1.7218
  826MOL0     H13922   9.036   9.411   7.130  2.5750  0.5325 -0.4082
  826MOL0     H13923   8.897   9.337   6.941 -0.5451  3.2694  0.6631
  826MOL0     H13924   8.903   9.169   7.004 -1.8649  0.6231  0.2507
  826MOL0     H13925   8.793   9.250   7.219  4.5747 -0.9367 -0.6225
  826MOL0     H13926   8.747   9.397   7.129  0.0207 -0.4225  1.0750
  826MOL0     H13927   8.628   9.305   6.968 -1.3662  1.2194  1.2625
  826MOL0     H13928   8.682   9.136   7.003  0.4734 -0.5988  1.7209
  826MOL0     H13929   8.547   9.316   7.201 -0.1242 -0.8934  0.8991
  826MOL0     H13930   8.535   9.144   7.219 -2.3851 -2.0515 -0.8058
  826MOL0     H13931   8.405   9.280   6.973 -1.3592 -1.7602 -1.5159
  826MOL0     H13932   8.395   9.114   7.026  1.1713 -0.9042  1.3935
  826MOL0     H13933   8.306   9.343   7.192 -0.1480 -0.1381  2.0622
  826MOL0     H13934   8.300   9.172   7.237  1.7362  1.3415  0.5553
  826MOL0     H13935   8.153   9.285   6.983 -0.8611 -0.3648 -0.5837
  826MOL0     H13936   8.161   9.117   7.027 -1.6985  1.1883 -2.8126
  826MOL0     H13937   8.041   9.429   7.209  3.4968 -1.2293  3.7504
  826MOL0     H13938   7.885   9.397   7.463  2.3625 -2.3156  0.2900
  826MOL0     H13939   7.754   9.284   7.454 -2.6372  3.0208  2.5735
  826MOL0     H13940   7.753   9.529   7.264 -2.8064  1.1298 -1.0968
  826MOL0     H13941   7.636   9.408   7.265  2.9324 -2.1367 -0.7650
  826MOL0     H13942   7.555   9.565   7.386 -1.9968 -2.0581  0.1178
  826MOL0     H13943   7.621   9.449   7.507  2.1801 -0.0570  0.2302
  826MOL0     H13944   7.659   9.691   7.571  1.0272 -1.1689 -0.7362
  826MOL0     H13945   7.806   9.594   7.563  2.3612  2.7151  0.4867
  826MOL0     H13946   7.933   9.879   7.249 -2.4607 -0.3086 -0.0382
  826MOL0     H13947   8.059  10.141   7.221 -0.4502 -0.4435  0.8549
  826MOL0     H13948   8.146   9.988   7.220  1.0219  1.2262 -0.6788
  826MOL0     H13949   8.203  10.120   7.323 -0.9288 -0.6386  0.6906
  826MOL0     H13950   8.288  10.365   7.572 -0.9087 -0.8306  0.9563
  826MOL0     H13951   8.370  10.589   7.588  0.4612  3.2406 -2.4632
  826MOL0     H13952   8.318  10.806   7.282  1.4870 -0.6690  0.1404
  826MOL0     H13953   8.193  10.914   7.333  0.4324  1.0876  2.6578
  826MOL0     H13954   8.339  11.055   7.479 -1.5340 -0.2112 -0.6579
  826MOL0     H13955   8.474  10.950   7.441  1.3980  2.3748  0.4218
  826MOL0     H13956   8.434  11.182   7.334  3.2615 -0.1439  0.5812
  826MOL0     H13957   8.317  11.093   7.229  0.6156  2.0705  0.3125
  826MOL0     H13958   8.489  10.916   7.181 -1.8279  0.1292  1.5578
  826MOL0     H13959   8.610  11.024   7.246  0.6559  0.1135 -1.0028
  826MOL0     H13960   8.406  11.071   7.012  0.6676  4.0294 -2.7079
  826MOL0     H13961   8.529  11.186   7.051 -3.2360  0.0153 -1.4241
  826MOL0     H13962   8.570  11.031   6.858  2.3703  4.2537 -0.8398
  826MOL0     H13963   8.600  10.898   6.981  0.9324  0.1250 -0.9118
  826MOL0     H13964   8.800  11.003   6.870 -1.4118  1.9844 -1.4268
  826MOL0     H13965   8.812  11.021   7.051 -0.5086  0.6021  0.9702
  826MOL0     H13966   8.879  11.238   6.963 -0.3418  1.1739 -0.7435
  826MOL0     H13967   8.722  11.259   7.020  1.7294  1.7615  0.8175
  826MOL0     H13968   8.040  10.714   7.341  0.4327 -1.3656 -0.5610
  826MOL0     H13969   7.948  10.488   7.344 -0.8657 -0.7914  0.4842
  826MOL0     H13970   7.924   9.997   7.719 -1.7007 -0.1815 -0.6145
  826MOL0     H13971   7.833   9.818   7.661 -0.3099  3.5226  2.5368
  826MOL0     H13972   9.112   9.057   7.022  2.0706  1.0921  0.0906
  826MOL0     H13973   9.231   8.864   7.031 -0.9854  2.0837 -1.0146
  826MOL0     H13974   9.462   8.608   7.089  0.6648 -0.6920  0.5053
  826MOL0     H13975   9.583   8.377   7.063 -3.2763 -3.0287  2.6454
  826MOL0     H13976   9.882   8.389   7.109  0.4797  1.9857  3.3930
  826MOL0     H13977   9.941   8.339   7.268 -1.0957  0.5454  0.5903
  826MOL0     H13978   9.856   8.129   7.058 -2.3129  0.0412  1.0294
  826MOL0     H13979   9.918   8.085   7.209  3.6479  0.6521  1.2210
  826MOL0     H13980  10.085   8.252   7.027 -1.6219 -0.5334 -1.1070
  826MOL0     H13981  10.131   8.202   7.192 -1.0534  2.0198  0.1392
  826MOL0     H13982  10.066   8.000   6.958  0.1817  2.0378 -0.8244
  826MOL0     H13983  10.108   7.960   7.125 -1.9941 -0.5621 -1.0831
  826MOL0     H13984  10.477   7.975   6.951  0.9104 -2.2324  1.3641
  826MOL0     H13985   9.730   8.404   7.443  0.4236 -0.9139 -2.2571
  826MOL0     H13986   9.719   8.742   7.507 -1.7507  0.9831 -2.8870
  826MOL0     H13987   9.563   8.682   7.576 -0.1846  0.0478  0.3473
  826MOL0     H13988   9.705   8.584   7.584  1.6619  0.7034 -0.7948
  827MOL0     O13989   8.598   8.533   9.672 -0.6076  0.6756  0.0443
  827MOL0     C13990   8.600   8.472   9.783  0.4143 -0.3136  0.4429
  827MOL0     O13991   8.697   8.486   9.883 -0.0218  0.1612 -0.1426
  827MOL0     C13992   8.819   8.534   9.833 -0.8970  0.2922  0.4234
  827MOL0     C13993   8.903   8.468   9.732  0.6603  1.4476  0.6303
  827MOL0     C13994   9.023   8.522   9.689  0.5271 -0.2753 -0.1336
  827MOL0     C13995   9.081   8.648   9.743  0.4823 -0.1235  0.8926
  827MOL0     O13996   9.198   8.696   9.690 -0.7926 -0.1934  0.1604
  827MOL0     C13997   9.276   8.795   9.760  0.4044  0.3381  0.3420
  827MOL0     C13998   9.422   8.804   9.701 -0.2257 -0.1940 -0.1182
  827MOL0     C13999   9.419   8.859   9.558 -0.4856  0.2916  1.0579
  827MOL0     C14000   9.560   8.833   9.503  0.0708  0.7699 -0.1368
  827MOL0     C14001   9.576   8.899   9.362  0.3739  0.1696  0.2353
  827MOL0     C14002   9.721   8.901   9.314  0.2661  0.7799 -0.4811
  827MOL0     C14003   9.733   8.976   9.183  0.4604 -0.6735  0.2483
  827MOL0     C14004   9.871   8.973   9.137 -0.4046  0.2543 -1.3597
  827MOL0     N14005   9.950   9.085   9.180 -1.4228 -0.2947  0.0051
  827MOL0     C14006   9.936   9.211   9.129  0.5644 -0.6546  0.0612
  827MOL0     C14007  10.033   9.288   9.194  0.4605  0.4686  0.2613
  827MOL0     C14008  10.053   9.433   9.163 -0.8374  0.3313 -0.7809
  827MOL0     C14009  10.073   9.443   9.005  0.5745  1.1117 -0.0338
  827MOL0     C14010  10.118   9.585   8.970  0.6856 -0.3144 -0.5516
  827MOL0     C14011  10.264   9.614   9.002  0.4909 -0.1003 -0.6208
  827MOL0     O14012  10.348   9.520   8.931 -0.8083 -0.3221 -0.2379
  827MOL0     C14013  10.465   9.477   8.992 -0.6778 -0.7391 -0.1460
  827MOL0     C14014  10.585   9.501   8.929  0.3328 -0.4033  0.5943
  827MOL0     C14015  10.713   9.481   8.991  0.9111  0.7326 -0.1046
  827MOL0     C14016  10.837   9.519   8.920 -0.4506  0.2932 -0.3518
  827MOL0     C14017  10.712   9.407   9.107 -0.2842 -0.3722 -0.4788
  827MOL0     C14018  10.838   9.342   9.164 -0.2849  0.0408 -0.5964
  827MOL0     O14019  10.806   9.282   9.284 -0.0178 -0.0911 -0.6358
  827MOL0     C14020  10.918   9.227   9.345 -0.1101  0.6655 -0.8273
  827MOL0     C14021  11.001   9.132   9.289  0.1745  0.5863  0.7829
  827MOL0     C14022  11.103   9.068   9.360 -0.3074 -0.2590 -0.1167
  827MOL0     C14023  11.141   9.116   9.483  0.4513 -0.6558  1.2227
  827MOL0     O14024  11.273   9.084   9.519  0.2994  1.3251 -0.8553
  827MOL0     C14025  11.306   9.078   9.658  0.3787 -0.4151  0.3111
  827MOL0     C14026  11.452   9.020   9.671 -0.8382 -0.3395  0.2185
  827MOL0     C14027  11.490   8.902   9.575  0.1496 -0.2481  0.3796
  827MOL0     C14028  11.634   8.862   9.597  0.9929  0.5153 -0.3820
  827MOL0     C14029  11.705   8.824   9.468  0.1763 -1.2738  0.8460
  827MOL0     C14030  11.670   8.685   9.404 -0.3678  0.6729 -0.1557
  827MOL0     C14031  11.749   8.661   9.268  0.4782 -0.1476  0.8546
  827MOL0     C14032  11.725   8.509   9.227  0.4775 -0.2871  0.2189
  827MOL0    Cl14033  11.556   8.479   9.187 -0.0177 -0.7910 -0.0449
  827MOL0     C14034  11.050   9.212   9.544  0.0987 -0.0961 -0.8092
  827MOL0     C14035  10.941   9.262   9.485 -0.2903  0.0635  0.2086
  827MOL0     O14036  10.954   9.340   9.111 -0.6474 -0.2335 -0.1050
  827MOL0     C14037  10.587   9.388   9.174 -0.0492  0.3211  0.1732
  827MOL0     C14038  10.469   9.430   9.115 -0.6103 -0.2790 -0.6364
  827MOL0     N14039  10.114   9.208   9.274 -0.2220  0.5662  0.1454
  827MOL0     N14040  10.056   9.090   9.267  0.6808  0.3449  0.3438
  827MOL0     C14041   9.003   8.711   9.839 -0.1758 -0.0939  0.9318
  827MOL0     C14042   8.873   8.658   9.874 -0.0018  0.8020 -0.2781
  827MOL0     C14043   8.478   8.391   9.801  0.0733  0.4063 -0.2342
  827MOL0     C14044   8.439   8.290   9.699  0.9749 -0.2274  0.0352
  827MOL0     C14045   8.321   8.211   9.709 -0.0624  0.6058 -0.7640
  827MOL0     C14046   8.241   8.227   9.822 -0.9537 -0.1117  0.0876
  827MOL0     O14047   8.120   8.166   9.827 -0.4466 -0.4234 -0.3233
  827MOL0     C14048   8.116   8.030   9.821 -0.3799  0.4864 -1.5838
  827MOL0     C14049   8.114   7.939   9.945 -0.4246  0.1153 -0.1017
  827MOL0     C14050   8.237   7.960  10.044 -0.1679  0.2183  0.1635
  827MOL0     C14051   8.228   7.874  10.165 -0.5950  0.1681 -0.0973
  827MOL0     C14052   8.110   7.917  10.253 -0.4723 -0.6490 -0.1274
  827MOL0     C14053   8.037   7.951  10.345 -0.3355 -0.2390  0.9000
  827MOL0     C14054   8.288   8.310   9.923 -0.4621  0.6294  0.1825
  827MOL0     C14055   8.396   8.400   9.912  0.4174  0.1564 -0.8774
  827MOL0     C14056   8.424   8.490  10.032 -1.0077 -0.3452  0.1212
  827MOL0     H14057   8.870   8.372   9.694 -1.3628  0.7083  3.8258
  827MOL0     H14058   9.076   8.473   9.608 -1.1352 -1.8333 -0.3414
  827MOL0     H14059   9.284   8.775   9.867  2.8111  4.9673  1.2909
  827MOL0     H14060   9.224   8.889   9.741  1.2694  0.5410 -1.2872
  827MOL0     H14061   9.474   8.881   9.759  0.3570 -1.8350  1.6315
  827MOL0     H14062   9.479   8.711   9.707  0.1680 -0.0295 -1.0437
  827MOL0     H14063   9.334   8.812   9.508 -1.0985  1.8332  0.6203
  827MOL0     H14064   9.421   8.967   9.546  0.7366  0.3563  1.6449
  827MOL0     H14065   9.633   8.883   9.568 -0.0825 -0.3874  0.9744
  827MOL0     H14066   9.581   8.726   9.496 -1.6127  0.3873  0.1669
  827MOL0     H14067   9.529   8.998   9.360 -3.8379 -1.6210  0.3083
  827MOL0     H14068   9.517   8.847   9.285 -0.5936  1.4120  0.1102
  827MOL0     H14069   9.787   8.955   9.382 -1.3442  4.9372 -1.9024
  827MOL0     H14070   9.753   8.797   9.304 -0.3713  0.6903 -1.8706
  827MOL0     H14071   9.698   9.079   9.198 -0.3066 -0.7884 -0.6242
  827MOL0     H14072   9.661   8.934   9.111  1.5450 -4.0494  0.9632
  827MOL0     H14073   9.929   8.891   9.181 -0.4446  0.0354 -1.7075
  827MOL0     H14074   9.873   8.958   9.029  0.1416 -4.4744 -0.8920
  827MOL0     H14075   9.857   9.247   9.065  1.1297  0.5983  0.0239
  827MOL0     H14076  10.139   9.461   9.225 -2.3008  3.0748  0.2098
  827MOL0     H14077   9.962   9.488   9.190 -0.7976  0.1934 -0.3556
  827MOL0     H14078  10.131   9.358   8.967 -0.3738  0.1406  0.6145
  827MOL0     H14079   9.974   9.426   8.964  0.5800 -0.8153  0.6491
  827MOL0     H14080  10.107   9.589   8.861  0.5121 -1.3203 -0.5833
  827MOL0     H14081  10.056   9.661   9.017  0.8167 -0.8358  0.5048
  827MOL0     H14082  10.273   9.719   8.974  1.7596  1.5380  4.6670
  827MOL0     H14083  10.282   9.618   9.110 -1.9049  3.6493 -0.1950
  827MOL0     H14084  10.585   9.552   8.833  3.1048  2.0735  1.7742
  827MOL0     H14085  10.914   9.551   8.991 -1.1882 -1.2576  1.2234
  827MOL0     H14086  10.805   9.604   8.859  2.3068  1.5792 -0.1620
  827MOL0     H14087  10.868   9.440   8.852  0.6857 -1.3382  1.9246
  827MOL0     H14088  10.990   9.095   9.187  1.5086 -0.9816  1.1652
  827MOL0     H14089  11.164   8.991   9.314  1.1824  0.8800 -0.1374
  827MOL0     H14090  11.308   9.181   9.694  0.2203 -0.0402 -0.7149
  827MOL0     H14091  11.229   9.020   9.709  1.5113 -1.5622  0.7779
  827MOL0     H14092  11.514   9.095   9.622 -1.4169 -2.6702 -4.6856
  827MOL0     H14093  11.476   9.005   9.777 -0.4255  2.3670  0.5830
  827MOL0     H14094  11.480   8.933   9.471 -0.9806  2.6151  1.2242
  827MOL0     H14095  11.434   8.811   9.600  0.6840 -0.6683  0.0529
  827MOL0     H14096  11.641   8.778   9.667  2.8532  1.5702  0.7870
  827MOL0     H14097  11.692   8.939   9.650 -0.1299 -0.9364  3.3117
  827MOL0     H14098  11.699   8.900   9.389 -1.3109  0.5559  2.5952
  827MOL0     H14099  11.810   8.825   9.497  0.3172  1.4741  0.5092
  827MOL0     H14100  11.563   8.689   9.384 -0.2746  0.2172 -0.7755
  827MOL0     H14101  11.694   8.608   9.479 -2.6266 -0.2738 -0.3256
  827MOL0     H14102  11.854   8.675   9.292  0.9436 -1.4028 -0.3633
  827MOL0     H14103  11.728   8.729   9.184  2.5406 -2.6045 -1.8375
  827MOL0     H14104  11.761   8.438   9.301  1.4716 -1.5454 -1.3927
  827MOL0     H14105  11.779   8.483   9.136  0.4997 -0.1334  0.1874
  827MOL0     H14106  11.081   9.254   9.639 -0.1822  1.8579 -1.5498
  827MOL0     H14107  10.880   9.340   9.530  2.5383  1.5169  1.7698
  827MOL0     H14108  10.576   9.332   9.267  2.4150 -0.6621 -0.0344
  827MOL0     H14109  10.377   9.426   9.174 -0.8056  2.7162 -0.5470
  827MOL0     H14110   9.034   8.809   9.874  2.7970  0.4895 -2.7399
  827MOL0     H14111   8.830   8.718   9.954  0.8002 -0.1296  0.8883
  827MOL0     H14112   8.478   8.291   9.598 -0.3019  0.3453 -0.4803
  827MOL0     H14113   8.293   8.146   9.626 -1.9510  1.4280 -0.8321
  827MOL0     H14114   8.014   8.016   9.783 -3.1762  0.6401  4.6293
  827MOL0     H14115   8.194   7.986   9.759 -0.7342 -1.4956 -0.6927
  827MOL0     H14116   8.124   7.836   9.909 -0.8653  0.7888 -2.2504
  827MOL0     H14117   8.016   7.955   9.992 -1.5983  0.0712 -2.4098
  827MOL0     H14118   8.331   7.951   9.989 -0.2752  0.7424 -0.1224
  827MOL0     H14119   8.241   8.067  10.069 -1.8296  0.7922 -1.7209
  827MOL0     H14120   8.315   7.904  10.226 -1.6954  1.6681  0.7938
  827MOL0     H14121   8.230   7.767  10.143  0.1933  0.3369 -0.9183
  827MOL0     H14122   7.984   7.982  10.433 -0.4881  0.2400  0.6431
  827MOL0     H14123   8.227   8.318  10.012 -0.3134  2.3454  0.1673
  827MOL0     H14124   8.525   8.469  10.068 -0.5881 -0.8833 -1.2857
  827MOL0     H14125   8.424   8.596  10.006  0.0233 -0.7382 -1.6379
  827MOL0     H14126   8.354   8.482  10.115 -1.1255 -1.3234 -0.0557
  828MOL0     O14127   2.814  10.918  11.338  0.1409  0.4087  0.4474
  828MOL0     C14128   2.778  11.009  11.260 -0.4308  0.2189  0.3024
  828MOL0     O14129   2.699  10.989  11.153 -0.9309  0.9176  0.2319
  828MOL0     C14130   2.636  10.870  11.129 -0.1518 -0.6536  0.1650
  828MOL0     C14131   2.704  10.758  11.088  0.2811 -0.1454 -0.1513
  828MOL0     C14132   2.623  10.652  11.042 -0.7308 -1.1347  0.5684
  828MOL0     C14133   2.482  10.658  11.039  1.2237  0.5102 -0.4336
  828MOL0     O14134   2.390  10.551  11.027 -0.2365  0.3299  0.4486
  828MOL0     C14135   2.432  10.415  11.054  0.0730  0.9204 -0.9229
  828MOL0     C14136   2.472  10.402  11.200  0.9043  0.4753 -0.2197
  828MOL0     C14137   2.354  10.423  11.289  1.0344 -0.6886  0.5709
  828MOL0     C14138   2.380  10.475  11.435 -0.1857  0.5540 -0.2563
  828MOL0     C14139   2.255  10.477  11.525  1.0905 -0.8982  0.3080
  828MOL0     C14140   2.164  10.597  11.506 -0.3098 -0.3341  0.3675
  828MOL0     C14141   2.205  10.736  11.559 -0.2477  0.1474  0.0026
  828MOL0     C14142   2.106  10.848  11.514 -0.0762 -0.4448  0.1999
  828MOL0     N14143   2.109  10.879  11.373 -0.2025 -0.5306 -0.0313
  828MOL0     C14144   1.994  10.923  11.309  0.0914 -0.3087  0.1050
  828MOL0     C14145   2.035  10.980  11.195 -0.1115 -0.4026  0.0670
  828MOL0     C14146   1.936  11.042  11.091 -0.3989  0.4999  0.2787
  828MOL0     C14147   1.951  10.961  10.955  0.2734 -0.4822 -0.2309
  828MOL0     C14148   1.871  11.032  10.841  1.9182  0.5904 -0.1403
  828MOL0     C14149   1.766  10.940  10.778 -0.7065  0.2794  0.8300
  828MOL0     O14150   1.671  10.904  10.879 -1.1190  0.6599 -0.2647
  828MOL0     C14151   1.583  10.998  10.920 -0.3789  0.5043  0.5244
  828MOL0     C14152   1.520  11.101  10.851 -0.1061  0.9380  0.4227
  828MOL0     C14153   1.442  11.197  10.905 -0.5999 -0.1714  0.9566
  828MOL0     C14154   1.412  11.315  10.812  0.6089  0.9322  0.0319
  828MOL0     C14155   1.414  11.200  11.040 -0.1597  0.0157  0.1356
  828MOL0     C14156   1.344  11.318  11.110  0.1697 -0.2465 -0.3205
  828MOL0     O14157   1.363  11.318  11.244 -0.0037 -0.3080  0.5489
  828MOL0     C14158   1.343  11.439  11.324 -0.4552  0.4133  0.1025
  828MOL0     C14159   1.255  11.433  11.430  0.2570  1.1563  0.2990
  828MOL0     C14160   1.227  11.541  11.503  0.1917 -0.7348  0.9736
  828MOL0     C14161   1.286  11.666  11.472  0.4405 -0.5338  0.1060
  828MOL0     O14162   1.222  11.774  11.539 -0.2775  0.2336  0.6337
  828MOL0     C14163   1.176  11.878  11.449 -0.2794 -0.1738 -0.0883
  828MOL0     C14164   1.252  12.008  11.449 -0.1845 -0.8047  1.2275
  828MOL0     C14165   1.273  12.070  11.584 -0.4678 -0.0289  0.6309
  828MOL0     C14166   1.150  12.117  11.657  0.6348 -0.3301 -0.2887
  828MOL0     C14167   1.182  12.188  11.790 -0.0921 -0.1455  0.2866
  828MOL0     C14168   1.049  12.211  11.875 -0.2594  0.4236  0.3769
  828MOL0     C14169   0.998  12.068  11.927  0.0514 -0.0754 -0.3246
  828MOL0     C14170   0.860  12.066  11.997 -0.4498 -0.4583  0.8124
  828MOL0    Cl14171   0.809  11.907  12.052  0.0101  0.3574  0.2794
  828MOL0     C14172   1.373  11.680  11.360  0.0624 -0.9989 -0.3640
  828MOL0     C14173   1.405  11.564  11.288 -0.0402 -0.1366  0.6380
  828MOL0     O14174   1.258  11.384  11.055 -0.2287 -0.1812 -0.1591
  828MOL0     C14175   1.480  11.099  11.113 -0.6385 -0.0943 -0.0893
  828MOL0     C14176   1.565  11.004  11.055 -0.2400 -0.1198 -0.4157
  828MOL0     N14177   2.174  10.987  11.203  0.0548 -0.1310  0.8550
  828MOL0     N14178   2.217  10.925  11.306  0.3584 -0.0679 -0.1588
  828MOL0     C14179   2.417  10.771  11.088 -1.3394  0.1466  1.5162
  828MOL0     C14180   2.498  10.878  11.131  0.4368 -0.3944  0.4303
  828MOL0     C14181   2.814  11.145  11.304 -0.4427 -0.4416  0.1960
  828MOL0     C14182   2.836  11.242  11.198  0.0852  0.2330 -0.0092
  828MOL0     C14183   2.886  11.370  11.217 -0.8701 -0.1516 -0.0601
  828MOL0     C14184   2.888  11.414  11.354 -0.1678  0.1545  0.2030
  828MOL0     O14185   2.925  11.546  11.399 -0.4353 -0.0372 -0.1678
  828MOL0     C14186   2.859  11.665  11.331 -0.5685 -0.1754 -0.4704
  828MOL0     C14187   2.709  11.648  11.377  0.1336 -0.0129  0.4572
  828MOL0     C14188   2.675  11.631  11.525 -0.0244  1.1055 -0.3611
  828MOL0     C14189   2.615  11.750  11.590  0.1914  0.5795  0.5139
  828MOL0     C14190   2.481  11.771  11.545  0.3972 -0.2016  0.2052
  828MOL0     C14191   2.360  11.765  11.518  0.1937  0.0037 -0.0165
  828MOL0     C14192   2.852  11.331  11.456 -0.6374  0.0294 -0.5891
  828MOL0     C14193   2.816  11.193  11.439 -0.4818 -0.3385  0.0015
  828MOL0     C14194   2.777  11.115  11.561 -0.4413 -0.3733  0.0123
  828MOL0     H14195   2.811  10.759  11.074  0.3178 -2.0398 -0.2187
  828MOL0     H14196   2.649  10.559  10.994  1.0455 -0.9770  1.1666
  828MOL0     H14197   2.522  10.388  10.998  1.5488 -0.1958  1.7764
  828MOL0     H14198   2.349  10.345  11.039  2.0036 -1.4978 -1.0522
  828MOL0     H14199   2.506  10.299  11.209 -2.4084 -0.6638  0.7535
  828MOL0     H14200   2.551  10.476  11.217  2.2371 -0.6846 -1.1359
  828MOL0     H14201   2.287  10.498  11.245  2.4073  0.4302  0.2972
  828MOL0     H14202   2.302  10.327  11.290 -0.7035 -0.0152 -3.2966
  828MOL0     H14203   2.450  10.408  11.485 -1.2622 -0.6077 -0.2607
  828MOL0     H14204   2.435  10.569  11.436  1.9051 -0.6009  0.9844
  828MOL0     H14205   2.284  10.476  11.630 -2.4644 -3.6790  1.4730
  828MOL0     H14206   2.199  10.385  11.504 -1.2277  0.4070  0.4046
  828MOL0     H14207   2.138  10.609  11.401 -0.0879  0.3598  0.3857
  828MOL0     H14208   2.070  10.570  11.555  1.4863 -4.1714  2.1133
  828MOL0     H14209   2.307  10.757  11.526  0.9099  2.1436  4.1514
  828MOL0     H14210   2.210  10.734  11.668  1.3734  0.0951 -0.0560
  828MOL0     H14211   2.008  10.816  11.548  0.0728  0.8430  1.9902
  828MOL0     H14212   2.136  10.939  11.567 -1.2732 -1.0596  2.0111
  828MOL0     H14213   1.895  10.914  11.353 -0.9465  1.2210 -1.7547
  828MOL0     H14214   1.953  11.149  11.075  1.7230  0.4583  1.8202
  828MOL0     H14215   1.831  11.035  11.117 -0.0028  2.7786  2.8817
  828MOL0     H14216   2.055  10.966  10.923  0.3037  1.4972  0.0732
  828MOL0     H14217   1.913  10.861  10.979 -0.4564 -0.5655 -1.6241
  828MOL0     H14218   1.833  11.123  10.887  0.5914 -1.4550  3.1137
  828MOL0     H14219   1.946  11.054  10.764  0.2191 -1.3047 -2.4795
  828MOL0     H14220   1.720  10.984  10.689 -1.0554 -0.8649  0.4176
  828MOL0     H14221   1.824  10.858  10.735 -0.8996  1.2694 -1.4675
  828MOL0     H14222   1.527  11.079  10.745  0.8723  0.8109  0.5008
  828MOL0     H14223   1.432  11.409  10.865 -0.6554  0.5500  1.2470
  828MOL0     H14224   1.303  11.314  10.805  0.4884 -1.3485  1.2306
  828MOL0     H14225   1.478  11.317  10.725  1.8218 -0.2770  0.8830
  828MOL0     H14226   1.208  11.339  11.456  0.1650 -0.1187 -3.6810
  828MOL0     H14227   1.148  11.538  11.579 -0.4938 -0.1106  0.3023
  828MOL0     H14228   1.176  11.842  11.346 -0.0765  0.1835 -0.2128
  828MOL0     H14229   1.077  11.919  11.471 -0.4666  1.8219 -3.9685
  828MOL0     H14230   1.353  11.990  11.409  0.7760  0.6351  2.8378
  828MOL0     H14231   1.204  12.073  11.376  1.9084 -0.8415 -0.2968
  828MOL0     H14232   1.346  12.151  11.585 -0.8530  0.3302  0.2664
  828MOL0     H14233   1.310  11.986  11.644 -0.9971 -2.4718 -2.2025
  828MOL0     H14234   1.081  12.036  11.682 -1.8856  1.8815  0.3412
  828MOL0     H14235   1.089  12.185  11.598 -0.2474  1.3245  2.3178
  828MOL0     H14236   1.255  12.129  11.846  2.0468 -0.2626 -2.4275
  828MOL0     H14237   1.232  12.283  11.769  1.9965 -1.5755 -1.5525
  828MOL0     H14238   0.966  12.268  11.832 -0.9902 -0.4388  0.6216
  828MOL0     H14239   1.082  12.276  11.957  1.0978 -1.0204  1.0156
  828MOL0     H14240   1.066  12.028  12.002  0.9460 -0.5886 -1.3873
  828MOL0     H14241   0.985  12.005  11.839  0.2723 -3.1036  1.6615
  828MOL0     H14242   0.786  12.117  11.934 -2.7526 -1.6385  2.3986
  828MOL0     H14243   0.881  12.122  12.088 -0.6616 -0.1486  0.6706
  828MOL0     H14244   1.406  11.780  11.335 -2.2586  0.2534  1.1619
  828MOL0     H14245   1.467  11.574  11.199 -3.0712 -0.3558 -1.6668
  828MOL0     H14246   1.459  11.096  11.219 -3.5070 -1.1136 -0.5984
  828MOL0     H14247   1.609  10.921  11.110 -1.2731 -0.8659 -0.6756
  828MOL0     H14248   2.309  10.776  11.100 -1.2862  1.9010  1.5943
  828MOL0     H14249   2.452  10.975  11.152 -0.6720  0.0489 -3.2107
  828MOL0     H14250   2.813  11.204  11.098  1.3469 -3.6842  0.9970
  828MOL0     H14251   2.906  11.424  11.124  2.4329 -3.2352 -1.3555
  828MOL0     H14252   2.911  11.750  11.377 -1.2394 -2.6785  6.1073
  828MOL0     H14253   2.857  11.666  11.222 -2.1011  1.5253 -0.4687
  828MOL0     H14254   2.672  11.561  11.322 -0.7149  0.1071  0.8255
  828MOL0     H14255   2.662  11.734  11.327  2.9992  0.9621 -0.7539
  828MOL0     H14256   2.611  11.543  11.534  0.1404  0.7698 -2.0879
  828MOL0     H14257   2.770  11.612  11.575  0.2890 -0.0482 -1.3599
  828MOL0     H14258   2.671  11.841  11.566 -1.5212  1.3852 -0.6341
  828MOL0     H14259   2.608  11.738  11.698 -0.5900  1.2399  0.5426
  828MOL0     H14260   2.258  11.751  11.487 -1.2985  2.6086  3.1313
  828MOL0     H14261   2.865  11.369  11.558  5.8085 -1.6698 -0.3127
  828MOL0     H14262   2.736  11.193  11.626 -3.0194 -0.7736 -1.0129
  828MOL0     H14263   2.701  11.039  11.544 -1.7292  0.8471  0.1591
  828MOL0     H14264   2.863  11.070  11.612  0.6056  4.5156  3.2499
  829MOL0     O14265  11.516   4.794   9.727 -0.4735 -0.4082  0.7576
  829MOL0     C14266  11.525   4.911   9.764  0.1510 -0.4222 -0.0520
  829MOL0     O14267  11.610   5.011   9.715 -0.1205  0.6632 -0.6028
  829MOL0     C14268  11.711   4.978   9.631  0.0336  1.7182 -0.3360
  829MOL0     C14269  11.703   4.883   9.528 -0.3655 -0.3511  1.2184
  829MOL0     C14270  11.807   4.860   9.431  1.0654  1.3052 -0.3104
  829MOL0     C14271  11.926   4.921   9.455  0.2744  0.7341 -0.1122
  829MOL0     O14272  12.039   4.873   9.383 -0.5895 -1.1715 -0.1143
  829MOL0     C14273  12.046   4.860   9.242  0.9527 -0.7404  0.0199
  829MOL0     C14274  12.049   4.997   9.184  0.2453  0.6879  0.7089
  829MOL0     C14275  12.030   4.997   9.033  0.7645  0.4605  0.1006
  829MOL0     C14276  11.917   4.905   8.971 -0.0046 -0.1613  0.6525
  829MOL0     C14277  11.779   4.949   9.020  0.5457 -0.2778 -0.1545
  829MOL0     C14278  11.685   4.835   9.006  0.5829 -0.2753 -0.0699
  829MOL0     C14279  11.537   4.877   9.042 -0.2280 -0.1761  0.7408
  829MOL0     C14280  11.535   4.928   9.184  0.1219 -0.5841 -0.5533
  829MOL0     N14281  11.397   4.950   9.230 -0.8683 -0.5705 -0.6510
  829MOL0     C14282  11.348   4.898   9.338 -0.3788  0.1559 -0.1665
  829MOL0     C14283  11.228   4.959   9.358 -0.6933 -0.4677  0.0430
  829MOL0     C14284  11.131   4.918   9.471 -1.0057  0.0566  0.3632
  829MOL0     C14285  11.092   5.032   9.566  0.6418  1.0156  0.3277
  829MOL0     C14286  11.211   5.116   9.612  0.1280 -0.2350  0.6407
  829MOL0     C14287  11.189   5.210   9.732 -0.0260  0.3309  0.4647
  829MOL0     O14288  11.303   5.281   9.769 -0.0648  0.0724 -0.0946
  829MOL0     C14289  11.328   5.397   9.712  0.2007 -0.1863 -0.1251
  829MOL0     C14290  11.450   5.450   9.742 -0.2950 -0.2641  0.2023
  829MOL0     C14291  11.497   5.573   9.689  0.4942 -0.0693 -0.2815
  829MOL0     C14292  11.637   5.620   9.722  0.1211  0.7126 -0.4166
  829MOL0     C14293  11.421   5.642   9.597  0.2413  0.7780  0.7888
  829MOL0     C14294  11.455   5.781   9.554  0.3317  0.2657 -0.7641
  829MOL0     O14295  11.463   5.798   9.416  0.1612  0.0188 -0.2142
  829MOL0     C14296  11.480   5.929   9.369  0.1711  0.1471 -0.8053
  829MOL0     C14297  11.612   5.974   9.359  0.4976 -0.3430 -0.8940
  829MOL0     C14298  11.633   6.104   9.316  0.0261 -0.2837  0.6542
  829MOL0     C14299  11.521   6.189   9.295  0.1550  0.3965  0.6259
  829MOL0     O14300  11.554   6.317   9.245  0.0564 -0.1896 -0.3236
  829MOL0     C14301  11.481   6.370   9.132 -0.0876  0.9632 -0.2311
  829MOL0     C14302  11.550   6.492   9.069 -0.2287  0.2174 -0.6463
  829MOL0     C14303  11.539   6.627   9.146 -0.6126  0.6480 -0.3417
  829MOL0     C14304  11.639   6.636   9.260  0.4165 -0.7961 -0.8705
  829MOL0     C14305  11.685   6.773   9.320 -0.1893  0.6520 -0.3597
  829MOL0     C14306  11.763   6.848   9.204  0.7350 -0.8742  1.1246
  829MOL0     C14307  11.881   6.940   9.227  0.5728 -1.0003  0.2137
  829MOL0     C14308  11.821   7.060   9.295 -0.1192 -0.1300 -0.1260
  829MOL0    Cl14309  11.923   7.208   9.287  0.6562  0.0839 -0.0624
  829MOL0     C14310  11.389   6.142   9.294  0.1410  0.2081 -0.6333
  829MOL0     C14311  11.369   6.007   9.331  0.4803 -0.0451 -0.0181
  829MOL0     O14312  11.457   5.870   9.642  0.4256  0.1951 -0.2927
  829MOL0     C14313  11.294   5.585   9.564 -0.8735 -0.0927  0.6334
  829MOL0     C14314  11.246   5.466   9.616 -1.2382 -0.3386 -0.7320
  829MOL0     N14315  11.206   5.042   9.247 -0.6429 -0.2803  0.5571
  829MOL0     N14316  11.310   5.030   9.174  0.2431 -0.4356  0.9052
  829MOL0     C14317  11.940   5.028   9.547 -0.1717  0.4925 -0.3388
  829MOL0     C14318  11.828   5.049   9.640 -0.6263  0.1974  0.2152
  829MOL0     C14319  11.429   4.957   9.869  0.1334  0.5929 -0.1101
  829MOL0     C14320  11.472   5.065   9.957 -0.6270  0.6589  0.3788
  829MOL0     C14321  11.394   5.107  10.054  0.8985 -0.8127 -0.1147
  829MOL0     C14322  11.269   5.047  10.082  0.4791 -0.2325 -0.0668
  829MOL0     O14323  11.198   5.115  10.179  0.6482 -0.1890 -0.2204
  829MOL0     C14324  11.103   5.026  10.249 -0.2372 -0.4982 -0.0930
  829MOL0     C14325  11.023   5.109  10.353 -0.3519 -1.0171  0.2915
  829MOL0     C14326  10.943   5.021  10.454 -0.2874  1.1980 -0.1017
  829MOL0     C14327  10.819   4.960  10.388 -0.7145  0.0997  0.3003
  829MOL0     C14328  10.701   5.044  10.383 -0.5649  0.8269 -0.6091
  829MOL0     C14329  10.594   5.091  10.400 -0.7037  0.1569 -0.4230
  829MOL0     C14330  11.228   4.937  10.008  0.2253 -0.1680 -1.0252
  829MOL0     C14331  11.306   4.883   9.901  0.6458 -0.0788  0.2620
  829MOL0     C14332  11.256   4.757   9.825 -0.4678 -0.9876 -0.2677
  829MOL0     H14333  11.609   4.836   9.501 -0.3548  0.5472 -0.5067
  829MOL0     H14334  11.802   4.784   9.353  3.3419 -1.7448  2.2457
  829MOL0     H14335  11.973   4.789   9.204  2.2014 -0.7947 -2.5412
  829MOL0     H14336  12.150   4.825   9.236  2.1346  1.0479  5.1247
  829MOL0     H14337  11.969   5.057   9.227  2.3734  3.4810  1.0214
  829MOL0     H14338  12.148   5.036   9.209  0.9991 -0.6553 -0.0420
  829MOL0     H14339  12.013   5.100   8.999  0.2150 -0.2904 -2.1025
  829MOL0     H14340  12.129   4.974   8.992  0.4510 -1.8372  0.4695
  829MOL0     H14341  11.917   4.917   8.862  1.7448  0.7390  0.7064
  829MOL0     H14342  11.928   4.799   8.995 -1.5337 -0.6878 -0.7948
  829MOL0     H14343  11.729   5.031   8.968 -0.2014 -0.0481  0.8857
  829MOL0     H14344  11.780   4.968   9.128 -1.1781  0.0497 -0.1673
  829MOL0     H14345  11.678   4.807   8.900  3.3906 -1.5175 -0.0289
  829MOL0     H14346  11.711   4.747   9.066  0.9415 -0.7679 -0.9253
  829MOL0     H14347  11.466   4.798   9.019 -1.7530  1.3028  0.1834
  829MOL0     H14348  11.503   4.963   8.984 -0.4742  0.2932  1.5622
  829MOL0     H14349  11.587   4.862   9.254  0.0988  0.3164  0.3428
  829MOL0     H14350  11.588   5.024   9.186  1.4712 -1.2185  3.6258
  829MOL0     H14351  11.394   4.828   9.406  4.0292  1.3319 -1.5814
  829MOL0     H14352  11.176   4.840   9.534 -3.5829  0.1977  2.5527
  829MOL0     H14353  11.039   4.875   9.430 -1.5537  0.3280  1.2785
  829MOL0     H14354  11.022   5.103   9.520  2.7448  2.4608 -0.7838
  829MOL0     H14355  11.042   4.992   9.655  4.2232  1.5786  2.7760
  829MOL0     H14356  11.303   5.062   9.637  0.9881  0.5741 -0.6441
  829MOL0     H14357  11.239   5.184   9.532 -0.5859  1.6420  1.9293
  829MOL0     H14358  11.108   5.278   9.703  0.1030  0.1430 -0.3557
  829MOL0     H14359  11.147   5.158   9.819 -1.0885  3.2981  1.8683
  829MOL0     H14360  11.513   5.392   9.809  1.2603 -0.4788 -1.3603
  829MOL0     H14361  11.634   5.689   9.807  0.5821  2.0575 -1.4672
  829MOL0     H14362  11.675   5.670   9.634 -1.1495 -1.9219 -2.6287
  829MOL0     H14363  11.702   5.537   9.754 -0.3613 -0.8783 -3.2190
  829MOL0     H14364  11.694   5.906   9.383  1.5004  0.7728 -1.0608
  829MOL0     H14365  11.729   6.152   9.296 -1.0659  1.8367  0.1776
  829MOL0     H14366  11.486   6.295   9.052  0.3874  0.0397  0.6487
  829MOL0     H14367  11.377   6.391   9.157 -1.6893 -2.6710 -2.9393
  829MOL0     H14368  11.652   6.457   9.050 -0.2037 -3.9136  4.8994
  829MOL0     H14369  11.498   6.505   8.973 -2.1036  1.5126  0.4734
  829MOL0     H14370  11.437   6.647   9.179 -1.2116 -2.0829 -0.2811
  829MOL0     H14371  11.568   6.713   9.084  2.7767 -0.4003 -0.3918
  829MOL0     H14372  11.727   6.579   9.229  0.1214 -1.6350 -0.2291
  829MOL0     H14373  11.592   6.581   9.343 -1.9890  0.9812 -0.9724
  829MOL0     H14374  11.602   6.841   9.341  1.5568  2.9319 -0.4583
  829MOL0     H14375  11.751   6.764   9.407 -0.5978 -1.6403 -0.2227
  829MOL0     H14376  11.693   6.900   9.138  1.1966 -1.8651 -0.2032
  829MOL0     H14377  11.808   6.773   9.138  2.1642 -0.0245  1.0989
  829MOL0     H14378  11.922   6.981   9.134 -0.9038 -0.4503 -0.2144
  829MOL0     H14379  11.969   6.896   9.275  2.2358 -2.1301 -3.5050
  829MOL0     H14380  11.809   7.032   9.400  0.7017  0.2076  0.0656
  829MOL0     H14381  11.726   7.082   9.245  0.0709  1.0698  0.0016
  829MOL0     H14382  11.298   6.195   9.265 -1.0093 -0.4853  1.4890
  829MOL0     H14383  11.268   5.972   9.352  1.1883 -1.5743  1.0575
  829MOL0     H14384  11.226   5.641   9.500 -2.1520 -1.9489  0.2666
  829MOL0     H14385  11.142   5.442   9.597 -1.4838  0.8825 -1.0206
  829MOL0     H14386  12.040   5.068   9.553  0.4878 -0.7829 -1.9104
  829MOL0     H14387  11.831   5.127   9.715  2.2549 -0.1369  0.5386
  829MOL0     H14388  11.564   5.118   9.937  1.1553 -3.1292 -3.0000
  829MOL0     H14389  11.419   5.200  10.104 -1.7041  1.0573 -2.0071
  829MOL0     H14390  11.032   4.974  10.183 -1.1592  0.2194  0.3078
  829MOL0     H14391  11.159   4.953  10.308  3.1911  2.3943  0.5631
  829MOL0     H14392  10.953   5.173  10.299 -0.3187 -1.7695 -0.6658
  829MOL0     H14393  11.095   5.176  10.402 -0.4137 -1.7744  1.4445
  829MOL0     H14394  11.004   4.940  10.496 -0.9786  1.1026  0.7609
  829MOL0     H14395  10.917   5.079  10.543 -1.8811  0.9163 -0.3448
  829MOL0     H14396  10.795   4.865  10.437  0.9148  0.5808  2.1641
  829MOL0     H14397  10.839   4.938  10.282 -2.1634 -0.8931  0.2098
  829MOL0     H14398  10.501   5.143  10.406 -0.1690  1.1066 -0.0795
  829MOL0     H14399  11.144   4.883  10.049  1.4764  0.1136  2.1694
  829MOL0     H14400  11.273   4.775   9.718 -0.0044 -1.9242 -0.3650
  829MOL0     H14401  11.317   4.670   9.849  1.1629 -0.3998 -2.0026
  829MOL0     H14402  11.148   4.745   9.838 -0.5704  1.7565  2.6808
  830MOL0     O14403   6.409   5.421   1.327  0.6221  0.3592 -0.3024
  830MOL0     C14404   6.475   5.450   1.424 -0.1240 -0.3823  0.1879
  830MOL0     O14405   6.607   5.476   1.413 -0.4489 -0.3907  0.9100
  830MOL0     C14406   6.690   5.466   1.303  0.0952 -0.3858  0.4589
  830MOL0     C14407   6.828   5.499   1.333  0.8740  0.1431  0.1402
  830MOL0     C14408   6.927   5.481   1.232 -0.0367  0.0978  0.1348
  830MOL0     C14409   6.895   5.426   1.104  0.1302 -0.2111 -0.1720
  830MOL0     O14410   6.987   5.401   1.005 -0.4506  0.2536 -0.1234
  830MOL0     C14411   7.078   5.291   1.036  0.8920  0.1133 -0.5593
  830MOL0     C14412   7.135   5.233   0.901 -0.9949 -0.0183 -0.0675
  830MOL0     C14413   7.019   5.242   0.802  0.1192  0.0977  0.2883
  830MOL0     C14414   7.053   5.170   0.667  0.5178  0.3701 -0.3560
  830MOL0     C14415   6.962   5.198   0.551 -0.0597  0.1319 -0.1741
  830MOL0     C14416   6.827   5.139   0.573 -0.5196 -0.1012  0.1244
  830MOL0     C14417   6.729   5.135   0.452  0.3094 -0.4124  0.3342
  830MOL0     C14418   6.573   5.133   0.475 -0.4015  0.4266  0.2055
  830MOL0     N14419   6.514   5.227   0.383  0.2099 -0.6083 -0.2441
  830MOL0     C14420   6.427   5.323   0.412 -0.6759  0.3105 -0.1294
  830MOL0     C14421   6.385   5.363   0.288  0.4770  0.1245  0.0432
  830MOL0     C14422   6.278   5.460   0.272  0.4521  0.0891  0.4670
  830MOL0     C14423   6.315   5.606   0.310  0.0792  0.5306 -0.4266
  830MOL0     C14424   6.307   5.626   0.464  0.5341 -0.2072 -0.0549
  830MOL0     C14425   6.333   5.775   0.496 -0.3572 -0.3599  0.3204
  830MOL0     O14426   6.218   5.850   0.482  0.6017 -0.4576 -0.5555
  830MOL0     C14427   6.146   5.867   0.600 -0.0147 -0.4276  0.5296
  830MOL0     C14428   6.180   5.815   0.729  0.0263 -0.0160 -0.1065
  830MOL0     C14429   6.102   5.843   0.837  0.1008 -0.2511 -0.6737
  830MOL0     C14430   6.145   5.779   0.967  0.7049 -0.3674 -0.1302
  830MOL0     C14431   5.985   5.922   0.823  0.3566  0.1921 -1.0835
  830MOL0     C14432   5.895   5.959   0.937  0.0057 -0.3781 -0.5570
  830MOL0     O14433   5.938   5.923   1.060 -0.0630  0.1513  0.1593
  830MOL0     C14434   5.853   5.957   1.158 -0.0708  0.7233 -0.0446
  830MOL0     C14435   5.760   5.863   1.205  0.2792  0.4938 -0.0745
  830MOL0     C14436   5.663   5.904   1.303 -0.1107  1.0482  0.0966
  830MOL0     C14437   5.656   6.032   1.352 -0.9774  1.2555  0.4699
  830MOL0     O14438   5.549   6.048   1.449 -0.0947  0.1742  0.7755
  830MOL0     C14439   5.520   6.183   1.492 -0.4592 -0.5666  0.6181
  830MOL0     C14440   5.392   6.187   1.571  0.8552  0.2043 -0.0292
  830MOL0     C14441   5.409   6.131   1.703 -0.3709  0.7082  0.2255
  830MOL0     C14442   5.281   6.117   1.789 -0.9835  0.8559  0.3503
  830MOL0     C14443   5.313   6.029   1.911 -0.8662 -0.3865 -0.4604
  830MOL0     C14444   5.202   6.038   2.013  0.7855 -0.4963  0.0243
  830MOL0     C14445   5.228   5.950   2.135 -0.7440  0.0198  0.8837
  830MOL0     C14446   5.224   5.797   2.129  0.9819  0.2948  0.0353
  830MOL0    Cl14447   5.377   5.727   2.060  0.0784  0.1490 -0.5955
  830MOL0     C14448   5.750   6.118   1.307 -0.1907 -1.0502 -0.4206
  830MOL0     C14449   5.848   6.082   1.214  0.0164  0.4937 -0.7040
  830MOL0     O14450   5.796   6.029   0.912 -0.5203 -0.2068  1.0841
  830MOL0     C14451   5.952   5.959   0.696 -0.5518 -0.3242  0.1103
  830MOL0     C14452   6.037   5.952   0.588 -0.1136  0.2864 -0.5005
  830MOL0     N14453   6.450   5.298   0.188 -0.1418  0.1544  0.1299
  830MOL0     N14454   6.534   5.225   0.248  0.5915  0.0051  0.1002
  830MOL0     C14455   6.758   5.390   1.082 -0.6018 -0.1161  0.2524
  830MOL0     C14456   6.662   5.412   1.180 -0.1859  0.6983 -0.7118
  830MOL0     C14457   6.409   5.464   1.551  0.6182  0.7255 -1.0756
  830MOL0     C14458   6.499   5.497   1.660  0.1455 -0.8844  0.3823
  830MOL0     C14459   6.455   5.493   1.789  0.3491  0.2687  0.5439
  830MOL0     C14460   6.319   5.467   1.813  0.2431 -0.3183  0.8185
  830MOL0     O14461   6.289   5.469   1.939  0.1252 -0.0627  0.4314
  830MOL0     C14462   6.160   5.477   1.998  0.1158  0.1479  0.5705
  830MOL0     C14463   6.115   5.623   2.001 -0.5274  0.5940  0.0013
  830MOL0     C14464   6.233   5.722   2.032  0.0863 -0.0131  0.0334
  830MOL0     C14465   6.193   5.867   2.047 -0.0254  0.5989 -0.3198
  830MOL0     C14466   6.295   5.964   2.014  0.5709  0.6353 -0.7846
  830MOL0     C14467   6.372   6.053   1.981  1.3180 -0.8088 -0.5258
  830MOL0     C14468   6.227   5.434   1.711 -1.6445  0.0426  0.1675
  830MOL0     C14469   6.272   5.425   1.579 -0.2909  0.2260 -0.4781
  830MOL0     C14470   6.169   5.396   1.475  0.2336 -0.1763  0.0960
  830MOL0     H14471   6.859   5.532   1.432  2.3495 -2.5092  0.6490
  830MOL0     H14472   7.030   5.493   1.262  0.6176  0.4139 -2.0540
  830MOL0     H14473   7.036   5.200   1.081  0.4966  0.0678 -1.0081
  830MOL0     H14474   7.164   5.330   1.090 -0.0089  0.1454  0.9274
  830MOL0     H14475   7.222   5.294   0.874 -0.6040 -1.2641 -1.7696
  830MOL0     H14476   7.183   5.138   0.928  0.8688  1.3638  1.8089
  830MOL0     H14477   6.926   5.205   0.844 -0.0467 -1.7673 -1.5603
  830MOL0     H14478   6.997   5.348   0.784 -1.9738 -0.1007  1.4093
  830MOL0     H14479   7.155   5.194   0.634  1.0926  0.0840  1.1637
  830MOL0     H14480   7.065   5.063   0.682  1.9288  0.4536 -0.7236
  830MOL0     H14481   6.994   5.151   0.458 -3.0861  1.8615 -2.2680
  830MOL0     H14482   6.953   5.304   0.523  3.0680  0.0259 -2.0015
  830MOL0     H14483   6.829   5.042   0.623  0.2908  0.6266  1.5704
  830MOL0     H14484   6.788   5.217   0.639 -4.0003  1.1492 -3.0137
  830MOL0     H14485   6.758   5.056   0.381 -0.3420  0.5126 -1.0163
  830MOL0     H14486   6.755   5.224   0.394  0.9591 -1.0877 -0.4478
  830MOL0     H14487   6.545   5.030   0.452  3.3622 -0.7264  0.0474
  830MOL0     H14488   6.560   5.157   0.580  3.0464  1.7357  0.4622
  830MOL0     H14489   6.391   5.341   0.513  2.1240 -2.6775  1.5751
  830MOL0     H14490   6.208   5.419   0.346  0.9283 -0.8363  0.4165
  830MOL0     H14491   6.245   5.465   0.167  0.1073  1.4574  0.6194
  830MOL0     H14492   6.410   5.642   0.268 -1.2305  1.6043 -2.6709
  830MOL0     H14493   6.239   5.668   0.261 -2.9709 -2.4569  0.1647
  830MOL0     H14494   6.210   5.591   0.500  1.9980 -3.5426  1.0679
  830MOL0     H14495   6.376   5.564   0.521  0.5209  0.9850  1.3356
  830MOL0     H14496   6.384   5.779   0.592 -1.6374 -1.5559  1.0762
  830MOL0     H14497   6.414   5.802   0.428  2.4346 -1.8423  2.8217
  830MOL0     H14498   6.272   5.759   0.744  1.4882  2.3221  0.0659
  830MOL0     H14499   6.070   5.713   1.011  1.3850 -1.9158 -1.1928
  830MOL0     H14500   6.171   5.843   1.051 -0.7625 -1.6373  1.3526
  830MOL0     H14501   6.240   5.728   0.951  0.7394  0.2529 -2.3695
  830MOL0     H14502   5.748   5.777   1.141  0.5805 -1.2814  2.1232
  830MOL0     H14503   5.584   5.836   1.333  1.2387 -1.1342 -1.0767
  830MOL0     H14504   5.586   6.215   1.573 -2.5257  0.2373  2.0659
  830MOL0     H14505   5.518   6.257   1.412  1.4061 -1.5729 -0.4160
  830MOL0     H14506   5.355   6.290   1.575  0.1973 -0.0461  2.5743
  830MOL0     H14507   5.318   6.124   1.523  1.2298 -1.5947  1.6272
  830MOL0     H14508   5.462   6.202   1.768 -0.6706 -1.6440  3.2201
  830MOL0     H14509   5.455   6.032   1.699 -2.3933 -0.2563 -1.6842
  830MOL0     H14510   5.202   6.072   1.727 -2.0231 -1.5561  3.1620
  830MOL0     H14511   5.245   6.212   1.830 -1.4029  0.6927  0.3722
  830MOL0     H14512   5.317   5.922   1.889 -2.4169 -0.7273  0.7955
  830MOL0     H14513   5.413   6.056   1.946 -0.7002  0.8752 -1.8045
  830MOL0     H14514   5.111   6.004   1.962 -0.8102  3.7517 -0.3457
  830MOL0     H14515   5.169   6.140   2.033  2.1344 -0.0454  0.0405
  830MOL0     H14516   5.164   5.976   2.220 -0.0646  2.7148  0.6681
  830MOL0     H14517   5.323   5.985   2.176 -1.6431  1.5570  1.7537
  830MOL0     H14518   5.143   5.765   2.063 -0.1803  0.3185  1.4143
  830MOL0     H14519   5.219   5.755   2.230 -0.7638 -0.4138 -0.3118
  830MOL0     H14520   5.743   6.219   1.345  2.9077 -1.2540  1.0020
  830MOL0     H14521   5.920   6.156   1.181  0.4729  1.7568  2.7252
  830MOL0     H14522   5.865   6.021   0.674  0.6388  0.6189 -2.3167
  830MOL0     H14523   6.011   6.002   0.496 -0.1080 -0.4144 -0.8860
  830MOL0     H14524   6.731   5.358   0.981 -1.9413  0.2857  0.4577
  830MOL0     H14525   6.559   5.391   1.151  0.7809 -1.5531 -2.8718
  830MOL0     H14526   6.604   5.511   1.637  0.3640 -0.8655  1.3622
  830MOL0     H14527   6.518   5.509   1.876  1.5460 -0.1915 -0.2165
  830MOL0     H14528   6.087   5.408   1.955 -0.9757  1.7320 -0.2142
  830MOL0     H14529   6.170   5.447   2.103  1.0828  1.0180  0.7492
  830MOL0     H14530   6.041   5.645   2.078  1.0221 -0.6698  1.9634
  830MOL0     H14531   6.082   5.650   1.900  0.5412 -0.9686 -0.8218
  830MOL0     H14532   6.287   5.686   2.120 -0.3881 -0.3718  0.1785
  830MOL0     H14533   6.296   5.728   1.943 -1.0150 -1.1727 -0.8664
  830MOL0     H14534   6.171   5.869   2.154 -1.4369 -1.1220 -0.5433
  830MOL0     H14535   6.107   5.889   1.984 -0.7873 -2.0010 -0.2742
  830MOL0     H14536   6.441   6.130   1.952  1.0431 -0.9127 -1.5058
  830MOL0     H14537   6.125   5.413   1.741 -2.5609 -2.5998 -3.9565
  830MOL0     H14538   6.199   5.304   1.424 -3.0339 -1.1961 -0.2582
  830MOL0     H14539   6.065   5.386   1.509  0.4570 -0.0860  0.8285
  830MOL0     H14540   6.168   5.476   1.401  0.5566 -1.1893 -1.0231
  831MOL0     O14541   7.926   2.439   0.224 -0.6134  0.5192  0.0342
  831MOL0     C14542   7.872   2.529   0.287 -1.5364 -0.2266  0.2845
  831MOL0     O14543   7.738   2.559   0.289 -0.2520 -0.0995 -0.1244
  831MOL0     C14544   7.657   2.478   0.217  0.2969  0.9025  0.2765
  831MOL0     C14545   7.597   2.378   0.287  0.4647  0.1245  0.4376
  831MOL0     C14546   7.502   2.304   0.218 -0.8423  0.6805 -0.3662
  831MOL0     C14547   7.482   2.314   0.080 -0.1509 -0.2905 -0.0860
  831MOL0     O14548   7.374   2.255   0.017 -0.3450  0.3520 -0.6092
  831MOL0     C14549   7.388   2.223  -0.127 -0.6199 -0.5449  0.1289
  831MOL0     C14550   7.307   2.102  -0.149 -0.3622  0.6436  0.7411
  831MOL0     C14551   7.302   2.075  -0.308  0.1528  0.1805 -0.1301
  831MOL0     C14552   7.206   1.959  -0.332  0.8518 -0.3713  0.8714
  831MOL0     C14553   7.204   1.939  -0.481  0.2934  0.4917 -0.7342
  831MOL0     C14554   7.140   1.807  -0.516 -0.6033 -0.0798  0.4424
  831MOL0     C14555   7.108   1.807  -0.666 -0.0345  0.4315 -0.4881
  831MOL0     C14556   6.999   1.713  -0.688 -0.3310  0.8368  0.6662
  831MOL0     N14557   7.042   1.581  -0.653 -0.5184 -0.0867  0.3513
  831MOL0     C14558   6.996   1.525  -0.536 -0.6277  0.2470  0.0701
  831MOL0     C14559   7.046   1.393  -0.553  0.0858 -0.2974  0.4554
  831MOL0     C14560   7.017   1.287  -0.456 -0.2583 -0.0133  0.4434
  831MOL0     C14561   6.916   1.192  -0.514  0.1457  0.2618  0.2891
  831MOL0     C14562   6.835   1.117  -0.415  0.1547 -0.2530  0.2676
  831MOL0     C14563   6.734   1.023  -0.498 -0.3001 -0.4803 -1.0833
  831MOL0     O14564   6.648   1.100  -0.582 -0.3627  0.9230  0.4871
  831MOL0     C14565   6.568   1.020  -0.671 -0.6412 -0.0166 -0.0105
  831MOL0     C14566   6.515   1.093  -0.775  0.6980  0.3345  0.3042
  831MOL0     C14567   6.434   1.035  -0.873 -0.6054 -0.8919 -0.7083
  831MOL0     C14568   6.398   1.132  -0.985  0.7080  0.8193  0.3284
  831MOL0     C14569   6.402   0.896  -0.872 -0.4211 -0.3030 -0.5929
  831MOL0     C14570   6.308   0.826  -0.960 -0.3847  0.5386 -0.3767
  831MOL0     O14571   6.296   0.689  -0.935  0.0629 -0.0472  0.2916
  831MOL0     C14572   6.202   0.626  -1.009  0.5914 -0.1386  0.4548
  831MOL0     C14573   6.074   0.669  -1.045  0.6513  0.5810 -0.0746
  831MOL0     C14574   5.983   0.577  -1.107  0.0997 -0.3625 -0.0360
  831MOL0     C14575   6.025   0.453  -1.148 -0.0837 -0.0143 -0.8787
  831MOL0     O14576   5.930   0.382  -1.203  0.0694  0.4232 -0.3054
  831MOL0     C14577   5.894   0.266  -1.127  0.6093 -0.2205 -0.0882
  831MOL0     C14578   5.782   0.300  -1.024  0.2246 -0.2744 -0.5927
  831MOL0     C14579   5.820   0.360  -0.891 -0.4756 -0.5514 -0.2567
  831MOL0     C14580   5.710   0.343  -0.783  0.5936  0.3244  0.1779
  831MOL0     C14581   5.749   0.414  -0.653  0.1940  0.7946 -0.5701
  831MOL0     C14582   5.625   0.412  -0.559  1.2566  0.4374  0.0185
  831MOL0     C14583   5.645   0.449  -0.413  0.5448 -0.5050 -0.5023
  831MOL0     C14584   5.523   0.396  -0.327 -0.1156 -0.0764 -0.5899
  831MOL0    Cl14585   5.547   0.447  -0.156  0.0101  0.6375 -0.0152
  831MOL0     C14586   6.160   0.413  -1.120  0.1795 -0.0242  0.4011
  831MOL0     C14587   6.241   0.496  -1.053 -0.2327 -0.1395  0.3199
  831MOL0     O14588   6.255   0.886  -1.055  0.2086  0.1498  0.1848
  831MOL0     C14589   6.472   0.815  -0.772  0.6870  0.0125 -0.0563
  831MOL0     C14590   6.542   0.877  -0.665 -0.0785 -0.8561 -0.3383
  831MOL0     N14591   7.119   1.384  -0.670 -0.2450  0.1779  0.0603
  831MOL0     N14592   7.109   1.494  -0.735  0.3168  0.3545 -0.5876
  831MOL0     C14593   7.557   2.410   0.008  0.5162 -1.3225 -0.3219
  831MOL0     C14594   7.649   2.489   0.078  0.1158 -0.5551 -0.0162
  831MOL0     C14595   7.956   2.602   0.388  0.2265 -0.6953 -0.7764
  831MOL0     C14596   8.088   2.558   0.420 -1.1849  0.2414  0.1972
  831MOL0     C14597   8.165   2.629   0.506 -0.0416 -0.0312  0.2593
  831MOL0     C14598   8.121   2.749   0.561  0.7452 -0.0313 -0.1746
  831MOL0     O14599   8.179   2.822   0.658  0.0149 -0.1074 -0.3717
  831MOL0     C14600   8.315   2.863   0.639  0.4186  0.0343  1.2509
  831MOL0     C14601   8.329   2.971   0.528  0.8414 -0.3030  0.6327
  831MOL0     C14602   8.240   3.101   0.566  0.1054 -0.6413  0.9758
  831MOL0     C14603   8.264   3.152   0.708 -0.0363 -0.1580 -0.1062
  831MOL0     C14604   8.406   3.178   0.752  0.1286 -0.9023  0.4344
  831MOL0     C14605   8.519   3.212   0.763  0.4317  0.8441 -0.6164
  831MOL0     C14606   7.983   2.790   0.547  0.0360  0.0710  1.0670
  831MOL0     C14607   7.902   2.717   0.456  0.8119 -1.1867  0.1672
  831MOL0     C14608   7.756   2.770   0.443 -1.2840  0.6271  0.3076
  831MOL0     H14609   7.625   2.377   0.391  0.1457  0.3646  0.5284
  831MOL0     H14610   7.430   2.251   0.278 -5.3716  3.7474 -2.5271
  831MOL0     H14611   7.491   2.200  -0.156 -1.6226 -3.9142 -1.2433
  831MOL0     H14612   7.355   2.308  -0.189  2.6288 -1.1106 -2.6717
  831MOL0     H14613   7.351   2.015  -0.100 -0.3699  1.1522  1.6706
  831MOL0     H14614   7.204   2.120  -0.119 -0.5142  1.8650 -0.4284
  831MOL0     H14615   7.270   2.165  -0.362  0.3624 -1.6901 -3.6360
  831MOL0     H14616   7.408   2.060  -0.329  1.5133  5.8771  0.8761
  831MOL0     H14617   7.248   1.873  -0.279  1.0619  0.0877  1.4711
  831MOL0     H14618   7.109   1.988  -0.292  0.7115 -2.3810  2.1354
  831MOL0     H14619   7.302   1.942  -0.530  0.1387  1.7238 -0.9874
  831MOL0     H14620   7.146   2.018  -0.530  0.7745 -1.4271 -4.8879
  831MOL0     H14621   7.190   1.712  -0.499 -0.6260 -0.2284 -0.2762
  831MOL0     H14622   7.041   1.806  -0.470 -1.7942  1.1408 -1.8743
  831MOL0     H14623   7.205   1.792  -0.714  0.1331  0.2836 -0.1129
  831MOL0     H14624   7.075   1.907  -0.693 -0.0588  0.8494  0.9681
  831MOL0     H14625   6.912   1.744  -0.629 -0.6628 -1.3311  1.3987
  831MOL0     H14626   6.961   1.699  -0.789  2.9996 -2.1869 -0.3502
  831MOL0     H14627   6.940   1.559  -0.450  2.2946 -0.8251  2.6034
  831MOL0     H14628   7.006   1.326  -0.354  2.5263 -1.3141  1.3492
  831MOL0     H14629   7.109   1.229  -0.443 -0.2734 -0.0536  0.3708
  831MOL0     H14630   6.850   1.256  -0.572 -0.9185  1.4815  2.6810
  831MOL0     H14631   6.975   1.125  -0.577 -0.4400  0.6181 -0.6626
  831MOL0     H14632   6.895   1.055  -0.349 -0.4629 -0.6944  0.4187
  831MOL0     H14633   6.773   1.188  -0.359  0.8035  0.5544 -0.0088
  831MOL0     H14634   6.796   0.949  -0.548  0.7288  0.2258 -0.8830
  831MOL0     H14635   6.673   0.971  -0.424 -1.9368 -0.0890 -2.0950
  831MOL0     H14636   6.530   1.201  -0.783 -0.9046  0.7081  1.6627
  831MOL0     H14637   6.412   1.236  -0.953  0.3780  0.3294  2.1580
  831MOL0     H14638   6.295   1.126  -1.022  0.1334 -1.4232  2.1027
  831MOL0     H14639   6.462   1.122  -1.073  0.4995  0.9034  0.1643
  831MOL0     H14640   6.028   0.764  -1.020 -3.1016 -0.1102 -3.2795
  831MOL0     H14641   5.877   0.593  -1.129 -0.4578  0.0157  2.6230
  831MOL0     H14642   5.854   0.193  -1.198  0.7281  0.4111 -0.8172
  831MOL0     H14643   5.977   0.223  -1.071 -1.4747 -1.6479  2.1534
  831MOL0     H14644   5.702   0.364  -1.064 -0.0165 -1.7252 -2.5510
  831MOL0     H14645   5.738   0.204  -0.996  1.7214 -1.0433 -0.7560
  831MOL0     H14646   5.851   0.465  -0.899 -0.4014 -0.4533  1.0899
  831MOL0     H14647   5.913   0.317  -0.853  0.4281  3.0371  2.0788
  831MOL0     H14648   5.693   0.236  -0.770  2.4707  0.0017  0.2532
  831MOL0     H14649   5.612   0.383  -0.812  0.7074 -0.8698 -2.1105
  831MOL0     H14650   5.830   0.347  -0.622 -0.9041 -0.8491 -1.1310
  831MOL0     H14651   5.782   0.513  -0.686  2.0040 -0.3144 -2.2953
  831MOL0     H14652   5.597   0.306  -0.558 -1.5651  1.0701  2.8465
  831MOL0     H14653   5.546   0.468  -0.611 -0.5246  0.0206  2.1275
  831MOL0     H14654   5.646   0.558  -0.402  1.2002 -0.2226 -2.8276
  831MOL0     H14655   5.739   0.413  -0.371  1.5067  3.6552  1.4230
  831MOL0     H14656   5.515   0.288  -0.338 -1.3667  0.2862 -6.5044
  831MOL0     H14657   5.432   0.447  -0.359  1.3103  3.4751  0.4223
  831MOL0     H14658   6.188   0.313  -1.152 -0.1767 -0.0171  0.0473
  831MOL0     H14659   6.347   0.478  -1.040 -0.3957 -1.3965  0.0474
  831MOL0     H14660   6.451   0.710  -0.754  0.1569  0.5025  2.6671
  831MOL0     H14661   6.592   0.823  -0.585 -0.2097  1.3596  1.3197
  831MOL0     H14662   7.552   2.435  -0.098  0.4518  4.4831  0.7260
  831MOL0     H14663   7.705   2.563   0.022  0.5927 -2.1010 -1.6884
  831MOL0     H14664   8.126   2.462   0.386  2.1480  1.2011  0.8530
  831MOL0     H14665   8.263   2.592   0.537  0.7401  1.4850 -0.3113
  831MOL0     H14666   8.351   2.907   0.733  0.2180 -1.0274  1.8416
  831MOL0     H14667   8.376   2.776   0.615 -0.9313 -0.9332  1.2020
  831MOL0     H14668   8.310   2.929   0.429  2.4093 -2.0509  1.0139
  831MOL0     H14669   8.434   3.000   0.519  0.8424 -0.2388  0.8211
  831MOL0     H14670   8.274   3.172   0.490 -3.1329 -0.4615 -0.4698
  831MOL0     H14671   8.133   3.081   0.552  0.3109 -1.1208 -0.0483
  831MOL0     H14672   8.208   3.089   0.778 -2.3954 -0.6012 -2.2469
  831MOL0     H14673   8.215   3.250   0.716 -0.9904 -0.6767  0.6962
  831MOL0     H14674   8.618   3.252   0.772 -0.0864  1.7580  1.5419
  831MOL0     H14675   7.940   2.871   0.606 -2.8849 -0.8009  0.2778
  831MOL0     H14676   7.726   2.796   0.342  0.2483 -2.4672 -1.0904
  831MOL0     H14677   7.694   2.685   0.475  1.2813 -0.3848  3.0694
  831MOL0     H14678   7.749   2.855   0.512  0.8973 -0.3955  1.9251
  832MOL0     O14679   3.401  10.212   6.430 -0.7377  0.2304  0.0387
  832MOL0     C14680   3.325  10.255   6.343 -0.9300 -0.1596  0.4359
  832MOL0     O14681   3.225  10.347   6.360  0.9349 -0.2742 -0.0660
  832MOL0     C14682   3.177  10.373   6.493 -0.2814  0.1728  0.8632
  832MOL0     C14683   3.106  10.496   6.507 -0.4155  0.1144 -0.0357
  832MOL0     C14684   3.045  10.535   6.628 -0.5730  0.1246  0.6461
  832MOL0     C14685   3.046  10.450   6.736 -0.4577 -0.0188  0.2539
  832MOL0     O14686   2.959  10.467   6.844 -0.6033  0.2420  0.1959
  832MOL0     C14687   2.850  10.374   6.849 -0.4032 -0.0456 -0.3324
  832MOL0     C14688   2.769  10.374   6.982  0.2398 -0.1394  0.5452
  832MOL0     C14689   2.704  10.520   6.997  0.2236  0.1978  0.0265
  832MOL0     C14690   2.658  10.542   7.132  0.0066  0.1503 -0.0979
  832MOL0     C14691   2.598  10.689   7.138 -0.6621 -0.7759 -0.8382
  832MOL0     C14692   2.586  10.730   7.288 -0.9515 -0.7107  0.5577
  832MOL0     C14693   2.535  10.868   7.311 -0.7393 -0.0942  0.4917
  832MOL0     C14694   2.654  10.977   7.300  0.3234  0.9040  0.3585
  832MOL0     N14695   2.604  11.109   7.331 -0.8131  0.3000 -0.4435
  832MOL0     C14696   2.563  11.159   7.459  1.0064  0.1833  0.0442
  832MOL0     C14697   2.544  11.295   7.438  0.5684 -0.1052 -0.0222
  832MOL0     C14698   2.479  11.396   7.533 -0.3309  0.4170  0.0544
  832MOL0     C14699   2.507  11.542   7.491 -0.4566 -0.0399  0.3913
  832MOL0     C14700   2.661  11.581   7.484 -0.3039  0.4058  0.8138
  832MOL0     C14701   2.722  11.580   7.616  0.1505 -0.2405 -0.1726
  832MOL0     O14702   2.739  11.448   7.665 -0.2078  0.0556 -0.5638
  832MOL0     C14703   2.816  11.427   7.786  0.1655  0.2164 -0.4442
  832MOL0     C14704   2.899  11.528   7.851 -0.0791  0.2694 -0.3243
  832MOL0     C14705   2.954  11.508   7.976  0.2261  0.0382  0.7645
  832MOL0     C14706   3.025  11.615   8.041  0.3231  0.5504 -1.0961
  832MOL0     C14707   2.932  11.381   8.038  0.0006 -0.0680 -0.1099
  832MOL0     C14708   2.984  11.347   8.177 -1.1083 -0.3084 -0.1758
  832MOL0     O14709   3.098  11.414   8.225  0.0836  0.3344 -0.3628
  832MOL0     C14710   3.137  11.394   8.357 -0.3859  0.4425  0.6035
  832MOL0     C14711   3.176  11.268   8.408 -1.0433  0.5115  0.1936
  832MOL0     C14712   3.230  11.245   8.531 -0.3190 -0.4028  0.1721
  832MOL0     C14713   3.226  11.354   8.620 -0.1058 -0.1593  0.4931
  832MOL0     O14714   3.256  11.332   8.749 -0.8179 -0.4061 -0.7459
  832MOL0     C14715   3.154  11.355   8.846 -0.3127 -0.4806 -0.3834
  832MOL0     C14716   3.210  11.385   8.983  0.6880 -1.0764 -0.0812
  832MOL0     C14717   3.084  11.419   9.073 -0.3538 -0.2569  0.2673
  832MOL0     C14718   3.047  11.572   9.048 -0.6931 -0.0668  0.8188
  832MOL0     C14719   2.895  11.608   9.058 -0.5173  0.2500 -0.3741
  832MOL0     C14720   2.866  11.744   9.007 -0.8294 -0.1816  0.5631
  832MOL0     C14721   2.735  11.790   9.067  0.1713 -0.4987  0.4465
  832MOL0     C14722   2.700  11.932   9.020  0.1733 -0.5389  0.4662
  832MOL0    Cl14723   2.821  12.059   9.081  0.1781  0.0983 -0.1780
  832MOL0     C14724   3.196  11.489   8.576  0.0728  0.3621 -0.2722
  832MOL0     C14725   3.155  11.503   8.445  0.4584  0.5722  0.2890
  832MOL0     O14726   2.910  11.266   8.231  0.0498 -0.1414 -0.0450
  832MOL0     C14727   2.873  11.274   7.969  0.7093 -0.5839 -0.0334
  832MOL0     C14728   2.807  11.299   7.845  0.0885  0.0390 -0.3111
  832MOL0     N14729   2.575  11.318   7.302 -0.3873  0.8619 -0.9210
  832MOL0     N14730   2.609  11.210   7.240  0.6056 -0.0753 -0.3805
  832MOL0     C14731   3.124  10.332   6.726 -0.0162  0.4220 -0.8283
  832MOL0     C14732   3.190  10.293   6.608 -0.9087  1.3938  0.6203
  832MOL0     C14733   3.333  10.199   6.206  0.0575 -0.5155  0.2885
  832MOL0     C14734   3.324  10.057   6.199  0.0448 -0.5611  0.4930
  832MOL0     C14735   3.320   9.998   6.072 -0.2508  0.0095  0.5316
  832MOL0     C14736   3.328  10.078   5.960  0.3017  0.1692  0.5198
  832MOL0     O14737   3.325  10.015   5.837 -0.0836 -0.2473  0.5796
  832MOL0     C14738   3.320  10.089   5.714  0.0586  0.5726  0.2733
  832MOL0     C14739   3.312   9.984   5.595 -0.3018 -0.5109 -0.2270
  832MOL0     C14740   3.177   9.915   5.605 -1.0101 -0.3425  0.7090
  832MOL0     C14741   3.127   9.831   5.486  0.3336 -0.1582  0.0237
  832MOL0     C14742   3.085   9.917   5.376  0.0791  0.0508 -0.6503
  832MOL0     C14743   3.051   9.999   5.295 -0.4579  0.6112 -0.4974
  832MOL0     C14744   3.340  10.220   5.967 -0.4732 -0.6016  0.2242
  832MOL0     C14745   3.349  10.284   6.094 -0.1283  0.6195  0.4062
  832MOL0     C14746   3.357  10.426   6.089 -0.9505 -0.1282 -0.4624
  832MOL0     H14747   3.105  10.570   6.427  0.0806  3.1763  2.6095
  832MOL0     H14748   2.995  10.631   6.632  2.4307  1.8562 -0.8016
  832MOL0     H14749   2.893  10.273   6.844  1.4432  0.6374  0.8651
  832MOL0     H14750   2.783  10.392   6.765 -0.8054 -1.2863 -0.3022
  832MOL0     H14751   2.698  10.292   6.990  2.5632 -2.3088  0.2085
  832MOL0     H14752   2.836  10.364   7.069 -1.5458 -0.5746  1.9351
  832MOL0     H14753   2.774  10.600   6.975  2.1397 -1.6500 -1.0425
  832MOL0     H14754   2.618  10.527   6.929  1.5477 -0.2439 -1.7582
  832MOL0     H14755   2.584  10.468   7.165 -0.6745  0.7876 -0.1628
  832MOL0     H14756   2.745  10.525   7.195  1.0887  1.2703 -1.2492
  832MOL0     H14757   2.497  10.686   7.095 -0.0217 -0.8106 -2.4140
  832MOL0     H14758   2.649  10.765   7.079  0.6703 -0.6474  0.4321
  832MOL0     H14759   2.507  10.662   7.323 -1.4712 -1.6507 -2.1855
  832MOL0     H14760   2.679  10.716   7.343 -0.1303 -1.8104 -1.0150
  832MOL0     H14761   2.495  10.869   7.413 -1.6133 -0.9222  0.1663
  832MOL0     H14762   2.453  10.896   7.245  0.6861  0.2745 -1.2129
  832MOL0     H14763   2.746  10.946   7.350 -0.3836 -2.3219 -0.0851
  832MOL0     H14764   2.682  10.966   7.195 -0.8004 -0.0299  0.1322
  832MOL0     H14765   2.566  11.113   7.558 -0.1670  2.2680  1.1177
  832MOL0     H14766   2.512  11.384   7.637  1.0182  3.1158  0.0121
  832MOL0     H14767   2.372  11.375   7.539 -0.1263 -1.2299 -1.3570
  832MOL0     H14768   2.473  11.560   7.388 -1.2956  1.2001  0.8583
  832MOL0     H14769   2.452  11.619   7.546  0.1643  0.9837 -0.3688
  832MOL0     H14770   2.715  11.511   7.419  0.2849  2.8346 -1.4500
  832MOL0     H14771   2.668  11.677   7.434 -4.3909  0.4000 -0.1418
  832MOL0     H14772   2.814  11.639   7.619 -0.7963  1.2905  0.2556
  832MOL0     H14773   2.655  11.630   7.687  0.2679  0.8064 -0.7771
  832MOL0     H14774   2.915  11.620   7.795 -1.6904  1.0661  0.4534
  832MOL0     H14775   3.129  11.581   8.035  0.6398  1.5769 -1.6281
  832MOL0     H14776   2.995  11.628   8.145  0.8533  1.0304 -0.9971
  832MOL0     H14777   3.002  11.711   7.994  0.0766  0.7903 -0.5001
  832MOL0     H14778   3.169  11.177   8.349  0.3909  1.7267 -2.0079
  832MOL0     H14779   3.247  11.142   8.561  1.4477 -1.3718 -3.5021
  832MOL0     H14780   3.094  11.437   8.805 -3.2615 -1.8991  0.7605
  832MOL0     H14781   3.088  11.268   8.856  0.5492 -0.9466  1.5232
  832MOL0     H14782   3.274  11.306   9.021  1.3197 -0.8858 -0.7316
  832MOL0     H14783   3.269  11.477   8.978 -1.3252  0.5096  2.5718
  832MOL0     H14784   3.090  11.390   9.178  1.6024 -1.6223 -0.1778
  832MOL0     H14785   3.008  11.348   9.041  0.1724 -0.0758 -1.4657
  832MOL0     H14786   3.075  11.591   8.944 -1.2310 -1.9256  0.2983
  832MOL0     H14787   3.120  11.628   9.107  2.3314 -0.7516 -1.9667
  832MOL0     H14788   2.827  11.537   9.010 -0.8496 -1.1359  2.0198
  832MOL0     H14789   2.869  11.607   9.164 -0.9179  1.0469 -0.4544
  832MOL0     H14790   2.869  11.740   8.898 -0.9910  2.0972  0.4233
  832MOL0     H14791   2.943  11.816   9.037 -0.8790 -0.1107  0.5217
  832MOL0     H14792   2.753  11.789   9.175  0.9250  0.4717  0.3437
  832MOL0     H14793   2.661  11.715   9.036  3.4817 -4.0875  0.4197
  832MOL0     H14794   2.601  11.950   9.063  1.1086  1.4050  1.9727
  832MOL0     H14795   2.687  11.928   8.912 -4.4403  1.1500  0.7531
  832MOL0     H14796   3.181  11.578   8.635 -0.7575  2.3553 -3.2872
  832MOL0     H14797   3.125  11.601   8.409 -2.9498  0.9623  3.5970
  832MOL0     H14798   2.877  11.173   8.009  1.5881 -0.4175  0.3213
  832MOL0     H14799   2.757  11.215   7.798 -1.2564  1.3281 -1.2403
  832MOL0     H14800   3.129  10.258   6.805  1.0867  2.0130  0.6630
  832MOL0     H14801   3.241  10.198   6.616 -2.6831  0.4758  1.7278
  832MOL0     H14802   3.327   9.992   6.286 -2.0132 -1.7744 -0.2847
  832MOL0     H14803   3.294   9.893   6.059 -0.9029  0.0791  1.1667
  832MOL0     H14804   3.240  10.163   5.724 -0.7703 -0.2758  0.0917
  832MOL0     H14805   3.416  10.142   5.715  0.1701  0.3952 -0.5875
  832MOL0     H14806   3.395   9.913   5.607 -0.1803 -0.2534  0.5263
  832MOL0     H14807   3.319  10.045   5.505  1.9429  0.1833  0.3530
  832MOL0     H14808   3.189   9.850   5.692  0.5336 -0.8260  0.1636
  832MOL0     H14809   3.106   9.994   5.631  0.6062  0.9425  1.3475
  832MOL0     H14810   3.041   9.773   5.521  0.4684 -0.3334  0.0674
  832MOL0     H14811   3.206   9.764   5.450  2.1398  1.3328  0.9986
  832MOL0     H14812   3.029  10.066   5.214  2.8653  2.6850  0.0974
  832MOL0     H14813   3.346  10.297   5.891  1.0089  0.3104  1.1901
  832MOL0     H14814   3.416  10.461   6.174 -0.2265  0.9670 -1.3795
  832MOL0     H14815   3.419  10.455   6.003  0.1220 -2.2756 -0.4964
  832MOL0     H14816   3.262  10.479   6.089 -0.9242 -0.0783  0.2616
  833MOL0     O14817   2.314   4.320   8.483  0.1717  0.5720  1.3321
  833MOL0     C14818   2.330   4.420   8.417  0.3049  0.3509  0.5148
  833MOL0     O14819   2.447   4.497   8.423 -0.3045 -0.1193  0.0357
  833MOL0     C14820   2.544   4.457   8.522  0.8718  0.0279  0.1221
  833MOL0     C14821   2.678   4.428   8.494  0.5516 -0.1015  0.1166
  833MOL0     C14822   2.769   4.415   8.590 -0.2227  0.0859 -0.9162
  833MOL0     C14823   2.736   4.424   8.725  0.3494 -0.4621  0.3077
  833MOL0     O14824   2.822   4.425   8.837  0.1237 -0.7482 -0.6177
  833MOL0     C14825   2.966   4.401   8.824 -1.2582  0.4965  0.4067
  833MOL0     C14826   3.029   4.364   8.959  0.1289 -0.5310  0.0456
  833MOL0     C14827   3.164   4.296   8.960  0.1315 -0.0009  0.1774
  833MOL0     C14828   3.143   4.148   8.988  0.1321 -0.0989 -0.9853
  833MOL0     C14829   3.278   4.073   9.019  0.2144 -0.0980 -0.3524
  833MOL0     C14830   3.336   4.121   9.156  0.0204 -0.0249 -0.2553
  833MOL0     C14831   3.445   4.027   9.210  0.8778  0.0428 -0.0320
  833MOL0     C14832   3.505   4.076   9.337  0.1185 -0.6000  0.3528
  833MOL0     N14833   3.608   3.996   9.387 -0.0082  0.3751  0.3091
  833MOL0     C14834   3.726   3.972   9.318 -0.7393  0.1556 -0.5316
  833MOL0     C14835   3.805   3.913   9.405 -0.6422  1.0367 -0.5938
  833MOL0     C14836   3.955   3.902   9.374 -0.3759  0.0549 -0.2260
  833MOL0     C14837   4.046   3.888   9.497  0.9173 -0.7053  0.4064
  833MOL0     C14838   4.199   3.891   9.467 -0.7041 -0.6555  0.5925
  833MOL0     C14839   4.291   3.851   9.584  0.3288 -0.2909 -0.0014
  833MOL0     O14840   4.416   3.929   9.583 -0.4460  0.3852 -0.2325
  833MOL0     C14841   4.514   3.893   9.678 -0.6566 -0.2046 -0.2543
  833MOL0     C14842   4.647   3.950   9.669  0.4596 -0.4870  0.3137
  833MOL0     C14843   4.749   3.926   9.753 -0.5695  0.1678  0.0906
  833MOL0     C14844   4.875   3.997   9.719  0.4999 -0.1978  0.6210
  833MOL0     C14845   4.732   3.842   9.865  0.6854 -0.0301  0.0697
  833MOL0     C14846   4.835   3.799   9.966  0.5954  0.1820  1.2832
  833MOL0     O14847   4.784   3.723  10.070 -0.8557 -0.7836 -0.4767
  833MOL0     C14848   4.865   3.709  10.183 -0.3146  0.1802 -0.0535
  833MOL0     C14849   4.910   3.807  10.264 -0.4026  0.8343 -0.0932
  833MOL0     C14850   4.962   3.781  10.392  0.5291 -0.5532  0.0055
  833MOL0     C14851   5.004   3.650  10.415 -0.5924  0.0575 -0.1321
  833MOL0     O14852   5.066   3.617  10.523 -0.1079  0.7767  0.2170
  833MOL0     C14853   5.003   3.529  10.613  1.0038 -0.4376 -0.2504
  833MOL0     C14854   5.088   3.508  10.742 -0.0618  0.4016  0.2014
  833MOL0     C14855   5.093   3.635  10.823  0.4059 -0.5538  0.3470
  833MOL0     C14856   5.198   3.639  10.932 -0.9714  0.2554 -0.8153
  833MOL0     C14857   5.244   3.786  10.963  0.1000  0.3748 -0.1298
  833MOL0     C14858   5.132   3.889  10.997 -0.6986 -0.7648 -0.4583
  833MOL0     C14859   5.211   4.007  11.055  0.0365 -0.4962 -0.0020
  833MOL0     C14860   5.109   4.120  11.091  0.1188 -0.0103 -0.1291
  833MOL0    Cl14861   5.092   4.227  10.948  0.3971 -0.1189 -0.2488
  833MOL0     C14862   4.970   3.547  10.326 -0.6102  0.0399 -0.2806
  833MOL0     C14863   4.888   3.571  10.220  0.9100 -0.1068 -0.2519
  833MOL0     O14864   4.950   3.834   9.964  0.3266  0.5539 -0.4621
  833MOL0     C14865   4.601   3.787   9.882  0.3265  0.2460 -0.2919
  833MOL0     C14866   4.496   3.815   9.794 -0.0800 -0.3335  0.2309
  833MOL0     N14867   3.729   3.873   9.516 -0.0529  0.8470 -0.0578
  833MOL0     N14868   3.611   3.928   9.505 -0.4480  0.6387  0.2197
  833MOL0     C14869   2.603   4.447   8.764 -1.1502  0.2334  0.4073
  833MOL0     C14870   2.507   4.465   8.658 -0.0091  0.1053 -0.5292
  833MOL0     C14871   2.210   4.467   8.338  0.5640 -0.2642  0.0778
  833MOL0     C14872   2.221   4.599   8.303  0.0421 -1.2181 -0.8795
  833MOL0     C14873   2.126   4.660   8.215 -0.4397  0.0520 -0.6450
  833MOL0     C14874   2.012   4.582   8.174 -1.1690 -0.6981  0.3048
  833MOL0     O14875   1.927   4.616   8.077  0.1226 -0.4273  0.9076
  833MOL0     C14876   1.932   4.746   8.024 -0.2981  0.0011  0.0642
  833MOL0     C14877   2.049   4.752   7.924  1.0239  0.3408  0.9134
  833MOL0     C14878   2.030   4.650   7.812 -0.0610  0.9245 -0.1712
  833MOL0     C14879   2.152   4.628   7.722 -0.1604 -0.5572  0.4781
  833MOL0     C14880   2.132   4.548   7.598  0.3776  1.6129 -0.1262
  833MOL0     C14881   2.107   4.471   7.507  0.3554 -0.4709  0.3633
  833MOL0     C14882   2.003   4.453   8.219 -0.3213 -0.0712  0.0709
  833MOL0     C14883   2.101   4.389   8.295  0.3593 -0.6569  0.9320
  833MOL0     C14884   2.089   4.241   8.326 -0.5095 -0.2434  0.4896
  833MOL0     H14885   2.705   4.403   8.392 -0.1606 -2.7891  0.5007
  833MOL0     H14886   2.873   4.391   8.570 -0.1112 -1.6424  1.3766
  833MOL0     H14887   3.023   4.489   8.793 -0.5702 -0.1964 -0.3172
  833MOL0     H14888   2.977   4.314   8.758  1.0535 -1.7950  3.5283
  833MOL0     H14889   3.036   4.457   9.017  0.1765 -1.7960  2.1917
  833MOL0     H14890   2.962   4.298   9.015 -0.9122 -0.4944 -1.1226
  833MOL0     H14891   3.221   4.308   8.868 -0.0838 -0.0192  0.0405
  833MOL0     H14892   3.234   4.337   9.033  1.2890 -2.3828  0.5248
  833MOL0     H14893   3.077   4.128   9.073  3.5315  1.5108  2.3096
  833MOL0     H14894   3.109   4.106   8.893 -0.0571  0.3421 -1.1117
  833MOL0     H14895   3.355   4.093   8.944 -0.1237 -1.4514 -1.1039
  833MOL0     H14896   3.259   3.966   9.032  0.8690  0.1050  3.6401
  833MOL0     H14897   3.380   4.221   9.147 -4.1986  2.1445  0.8281
  833MOL0     H14898   3.259   4.128   9.233  0.3290  1.8341 -0.0668
  833MOL0     H14899   3.526   4.016   9.137 -0.1021  2.4092 -1.5798
  833MOL0     H14900   3.385   3.936   9.222  1.9087 -0.9518 -1.9280
  833MOL0     H14901   3.558   4.170   9.320  2.2826 -2.1107 -1.8758
  833MOL0     H14902   3.419   4.083   9.405 -1.4279 -1.8050 -1.3976
  833MOL0     H14903   3.733   4.009   9.216 -0.4767 -2.6249 -1.5984
  833MOL0     H14904   3.978   3.998   9.326  2.0168 -1.1710 -1.6953
  833MOL0     H14905   3.963   3.814   9.309  0.8669  1.0466 -1.4638
  833MOL0     H14906   4.021   3.973   9.560  0.0391 -1.9369  1.7790
  833MOL0     H14907   4.007   3.795   9.539 -2.7917 -0.8013 -2.6416
  833MOL0     H14908   4.210   3.818   9.387  1.4354 -0.5491  0.7242
  833MOL0     H14909   4.225   3.990   9.429 -4.9675  0.9674  1.4103
  833MOL0     H14910   4.227   3.873   9.670  1.4416  0.3016  0.7064
  833MOL0     H14911   4.313   3.744   9.589  2.7070  0.1835  1.4176
  833MOL0     H14912   4.666   4.013   9.582  2.4979  0.7474  1.5751
  833MOL0     H14913   4.874   4.048   9.622 -1.5633  0.0404  0.7142
  833MOL0     H14914   4.958   3.927   9.719  1.6852  1.1561  2.1473
  833MOL0     H14915   4.897   4.067   9.800  0.2245  0.2955  0.2781
  833MOL0     H14916   4.882   3.906  10.228 -1.0306 -0.0902 -2.2844
  833MOL0     H14917   4.990   3.861  10.460 -3.1884  0.9594  0.0216
  833MOL0     H14918   4.901   3.557  10.642 -0.1269  0.3396 -4.3666
  833MOL0     H14919   4.995   3.435  10.559 -2.3766 -0.3542 -0.1068
  833MOL0     H14920   5.046   3.429  10.805 -0.0102 -0.1718 -0.4586
  833MOL0     H14921   5.187   3.472  10.712 -1.1053 -0.4319 -2.5999
  833MOL0     H14922   4.992   3.653  10.861 -0.1131 -1.0341 -0.7669
  833MOL0     H14923   5.114   3.726  10.765 -5.4328  1.8319  1.3011
  833MOL0     H14924   5.293   3.591  10.903  0.3560  1.8803  0.6368
  833MOL0     H14925   5.156   3.594  11.022  0.0297 -0.0569 -0.4832
  833MOL0     H14926   5.300   3.784  11.056  0.1100  0.1920 -0.1389
  833MOL0     H14927   5.306   3.824  10.881 -0.0160  4.4090  1.4085
  833MOL0     H14928   5.063   3.852  11.073 -0.4264 -1.6532 -0.6203
  833MOL0     H14929   5.091   3.920  10.900 -0.3564  0.9523 -0.0739
  833MOL0     H14930   5.283   4.049  10.984 -1.4813  2.3348  0.0064
  833MOL0     H14931   5.262   3.975  11.147 -2.0741  0.1095  1.4654
  833MOL0     H14932   5.158   4.177  11.171 -0.4014  0.6452 -0.2670
  833MOL0     H14933   5.016   4.081  11.133 -0.3501  1.5660  0.3836
  833MOL0     H14934   5.011   3.448  10.347  2.9662  1.2608 -0.7214
  833MOL0     H14935   4.850   3.490  10.158  0.5818  0.1613 -0.3977
  833MOL0     H14936   4.575   3.712   9.957  0.6972  1.6146  1.2513
  833MOL0     H14937   4.397   3.776   9.814 -0.6354  1.8332  2.1607
  833MOL0     H14938   2.589   4.459   8.871  1.9751 -0.0177  0.9302
  833MOL0     H14939   2.408   4.495   8.691  0.0497 -0.6661  0.3678
  833MOL0     H14940   2.294   4.673   8.333 -0.9434 -0.4331 -0.3505
  833MOL0     H14941   2.155   4.761   8.185  0.1120  0.0201 -0.2273
  833MOL0     H14942   1.837   4.769   7.975 -0.2443 -0.0222 -0.0526
  833MOL0     H14943   1.960   4.827   8.092  2.6315 -0.2828 -0.6645
  833MOL0     H14944   2.146   4.734   7.972  1.4553  0.5895  0.1593
  833MOL0     H14945   2.047   4.854   7.883  1.2999  0.3028  0.7953
  833MOL0     H14946   2.007   4.549   7.847 -2.6268  1.4963 -0.0487
  833MOL0     H14947   1.944   4.670   7.748  1.8748 -0.6086 -3.5307
  833MOL0     H14948   2.238   4.589   7.778 -0.5831 -1.8034  0.2812
  833MOL0     H14949   2.173   4.729   7.686 -2.2882 -0.4327 -0.5834
  833MOL0     H14950   2.063   4.397   7.443 -1.7870  1.2424 -0.2856
  833MOL0     H14951   1.927   4.393   8.171  1.2686 -1.5263 -0.7294
  833MOL0     H14952   2.170   4.184   8.281 -0.8715 -0.3239 -0.0812
  833MOL0     H14953   2.071   4.223   8.432  1.4380 -0.5948  0.7896
  833MOL0     H14954   2.007   4.201   8.264  0.4389 -1.4228 -0.0501
  834MOL0     O14955   7.332   8.747  10.904  0.4312  0.3219  0.0714
  834MOL0     C14956   7.410   8.774  10.811  0.0408 -1.1046  0.1714
  834MOL0     O14957   7.385   8.877  10.718 -0.9166 -0.3435  0.0987
  834MOL0     C14958   7.264   8.941  10.713 -0.2044  1.2813  0.1287
  834MOL0     C14959   7.179   8.896  10.608 -0.5028 -0.1066 -0.7628
  834MOL0     C14960   7.054   8.942  10.587 -0.3855 -0.1184  1.2387
  834MOL0     C14961   7.001   9.032  10.676 -0.5604  0.4229 -0.8830
  834MOL0     O14962   6.874   9.071  10.642 -0.1761 -0.4022 -0.1775
  834MOL0     C14963   6.790   9.132  10.739  0.1691 -0.6136 -0.0590
  834MOL0     C14964   6.635   9.107  10.713  0.3939 -0.1756  0.4502
  834MOL0     C14965   6.588   8.964  10.686 -0.8590 -0.2574  0.4587
  834MOL0     C14966   6.439   8.952  10.711  0.4374 -0.3930 -0.5321
  834MOL0     C14967   6.400   8.802  10.719 -1.3017 -0.8604 -0.5924
  834MOL0     C14968   6.267   8.793  10.783  0.5397 -0.1403 -0.1551
  834MOL0     C14969   6.224   8.653  10.800 -0.7104  0.4401  0.2519
  834MOL0     C14970   6.097   8.648  10.886 -0.4506 -0.2077  0.3480
  834MOL0     N14971   6.065   8.516  10.931  0.3877 -0.3052  0.1813
  834MOL0     C14972   6.128   8.449  11.032 -1.0734 -0.0141  0.0203
  834MOL0     C14973   6.080   8.328  11.036 -0.2221  0.2200  0.5474
  834MOL0     C14974   6.106   8.214  11.130 -0.1841  0.1342  1.0578
  834MOL0     C14975   6.203   8.224  11.242  0.1045 -0.0869 -0.0505
  834MOL0     C14976   6.349   8.237  11.201  0.4474  0.4465 -0.7456
  834MOL0     C14977   6.439   8.192  11.317  0.9676 -0.3361  1.0996
  834MOL0     O14978   6.569   8.239  11.293 -0.1894 -0.7026  0.0154
  834MOL0     C14979   6.673   8.174  11.356  0.4284 -0.4842  0.4870
  834MOL0     C14980   6.809   8.222  11.334  1.0271 -0.5795 -0.1398
  834MOL0     C14981   6.917   8.176  11.407 -0.1314 -1.2246  0.4395
  834MOL0     C14982   7.044   8.264  11.373  0.1201 -0.2730  0.1904
  834MOL0     C14983   6.906   8.068  11.497 -0.2905 -0.0479  0.4587
  834MOL0     C14984   7.022   7.997  11.567  0.1169 -0.3667 -0.1350
  834MOL0     O14985   6.990   7.902  11.661 -0.3965  0.2367 -0.2838
  834MOL0     C14986   7.051   7.785  11.650  0.9811  0.8885  0.5364
  834MOL0     C14987   7.044   7.696  11.534  0.1623 -0.5818 -0.1981
  834MOL0     C14988   7.112   7.566  11.548 -0.3538 -0.4869 -0.1434
  834MOL0     C14989   7.166   7.524  11.673 -0.1426  0.5128  0.4121
  834MOL0     O14990   7.229   7.400  11.697 -0.1279 -0.0096  0.0349
  834MOL0     C14991   7.168   7.289  11.629 -0.3567  0.3316  0.0383
  834MOL0     C14992   7.239   7.167  11.676 -0.1202 -0.1789  0.1506
  834MOL0     C14993   7.210   7.035  11.615 -0.2664 -0.0160  1.1262
  834MOL0     C14994   7.097   6.970  11.676  0.3937 -0.2682 -0.2653
  834MOL0     C14995   7.057   6.836  11.605  0.3086 -0.6629  0.1565
  834MOL0     C14996   6.934   6.777  11.673 -0.1904  0.4406 -0.4441
  834MOL0     C14997   6.863   6.662  11.607 -0.6719 -0.4020 -0.4572
  834MOL0     C14998   6.937   6.529  11.636  0.4243 -0.4512 -1.4511
  834MOL0    Cl14999   6.889   6.380  11.541  0.1940  0.0149  0.2232
  834MOL0     C15000   7.146   7.613  11.783  0.1837  0.1871  0.8023
  834MOL0     C15001   7.095   7.745  11.770 -0.3427  0.5069 -0.2100
  834MOL0     O15002   7.129   8.021  11.521 -0.5311  0.4594 -0.4467
  834MOL0     C15003   6.773   8.013  11.514  0.2880 -0.7828 -0.3815
  834MOL0     C15004   6.661   8.071  11.451  0.1116 -0.0081 -0.0890
  834MOL0     N15005   5.981   8.325  10.931 -0.8746  0.1616  0.1113
  834MOL0     N15006   5.975   8.432  10.861 -0.4101  0.0553 -0.2636
  834MOL0     C15007   7.079   9.072  10.785 -0.6662  0.3191  0.0283
  834MOL0     C15008   7.212   9.031  10.801  0.1007  0.3914 -0.4168
  834MOL0     C15009   7.522   8.673  10.787  0.0149  0.2400 -0.4872
  834MOL0     C15010   7.512   8.540  10.852 -0.2953 -1.1228  0.3820
  834MOL0     C15011   7.617   8.448  10.849  0.4700 -0.2637  0.2855
  834MOL0     C15012   7.731   8.476  10.771 -0.4165 -0.2583 -0.1874
  834MOL0     O15013   7.831   8.385  10.747  0.3499  0.6777  0.1374
  834MOL0     C15014   7.878   8.327  10.872  0.3094 -0.1544 -0.1833
  834MOL0     C15015   8.010   8.255  10.845  1.2530  0.6211  0.2715
  834MOL0     C15016   7.996   8.140  10.750 -0.8364  0.7226  0.7586
  834MOL0     C15017   7.894   8.033  10.785  0.1650 -0.1358 -0.2498
  834MOL0     C15018   7.898   7.983  10.922 -0.0512  0.2181 -0.2494
  834MOL0     C15019   7.906   7.933  11.034 -0.9603  0.0517  0.1225
  834MOL0     C15020   7.749   8.600  10.714  0.6084 -0.5808 -0.2696
  834MOL0     C15021   7.644   8.699  10.717 -0.4250 -0.4148 -0.4170
  834MOL0     C15022   7.685   8.829  10.656  0.0146 -0.1905 -0.2510
  834MOL0     H15023   7.229   8.837  10.531 -0.3130  0.1695 -0.8552
  834MOL0     H15024   7.007   8.920  10.491  0.4195  3.2623 -0.0816
  834MOL0     H15025   6.801   9.240  10.722 -0.7463 -0.5822 -0.5304
  834MOL0     H15026   6.823   9.128  10.843 -0.8760  4.3806  0.7313
  834MOL0     H15027   6.578   9.160  10.790 -0.4813 -0.4629  0.0074
  834MOL0     H15028   6.610   9.162  10.622  0.5668  1.5521  1.3988
  834MOL0     H15029   6.617   8.933  10.585  1.2669  2.0100  0.2869
  834MOL0     H15030   6.640   8.891  10.749  2.4197  0.9899 -0.5781
  834MOL0     H15031   6.408   9.013  10.796  1.8331  1.2605 -1.1553
  834MOL0     H15032   6.388   9.002  10.628 -1.6869 -0.9068  0.3945
  834MOL0     H15033   6.476   8.742  10.769  1.8630  0.0326 -3.9436
  834MOL0     H15034   6.404   8.756  10.620  0.4565  0.6095 -1.2587
  834MOL0     H15035   6.250   8.856  10.871 -0.9569 -0.2487 -0.3372
  834MOL0     H15036   6.191   8.822  10.709  2.4677  0.6375 -1.9349
  834MOL0     H15037   6.305   8.603  10.854  2.3833  3.7035 -0.9105
  834MOL0     H15038   6.215   8.599  10.706  1.9607 -2.1528  1.3197
  834MOL0     H15039   6.110   8.707  10.977 -1.1342 -1.6001  1.3815
  834MOL0     H15040   6.011   8.690  10.831 -0.1590  0.8304  0.6524
  834MOL0     H15041   6.199   8.485  11.106  0.0640 -1.1730 -0.4909
  834MOL0     H15042   6.122   8.132  11.061 -2.5996 -1.0989  1.8547
  834MOL0     H15043   6.012   8.188  11.180  1.2209 -2.1699  2.6962
  834MOL0     H15044   6.173   8.304  11.310 -2.1152 -2.6427  2.2319
  834MOL0     H15045   6.190   8.132  11.299 -3.6597  1.2897  1.6251
  834MOL0     H15046   6.357   8.168  11.116  1.0075 -0.8174  0.3135
  834MOL0     H15047   6.363   8.343  11.177 -1.7966  0.6987 -1.1874
  834MOL0     H15048   6.416   8.252  11.405  1.0646  0.1011  0.8301
  834MOL0     H15049   6.432   8.084  11.333  1.9636 -0.3687  1.3726
  834MOL0     H15050   6.822   8.298  11.257  3.5371 -2.0858 -1.3198
  834MOL0     H15051   7.139   8.236  11.419 -0.4163 -1.0486  0.8632
  834MOL0     H15052   7.022   8.370  11.387  0.1443  0.1399 -2.4323
  834MOL0     H15053   7.069   8.252  11.267  0.6099 -1.2856  0.4153
  834MOL0     H15054   6.994   7.731  11.445 -0.9269  2.8251  1.5973
  834MOL0     H15055   7.118   7.500  11.462 -3.1758  1.1444 -1.7354
  834MOL0     H15056   7.061   7.286  11.649 -0.6471  1.5226 -1.1610
  834MOL0     H15057   7.173   7.302  11.520  0.2098 -1.7691 -0.2326
  834MOL0     H15058   7.341   7.197  11.652  0.7184 -1.6786  1.6393
  834MOL0     H15059   7.237   7.162  11.786  0.6348 -0.2647  0.1657
  834MOL0     H15060   7.302   6.977  11.625 -0.0716  0.0504 -0.0696
  834MOL0     H15061   7.182   7.052  11.510 -1.9754 -1.7080  1.2419
  834MOL0     H15062   7.016   7.043  11.673  2.0737  2.1326  4.0902
  834MOL0     H15063   7.120   6.959  11.782 -0.5680  3.1597  0.3967
  834MOL0     H15064   7.033   6.842  11.499 -1.7578  1.5251  0.6660
  834MOL0     H15065   7.131   6.756  11.616  1.7386  0.6962  0.9548
  834MOL0     H15066   6.859   6.857  11.675 -2.4849 -1.5565 -1.0638
  834MOL0     H15067   6.974   6.740  11.768  0.8412 -2.1787 -1.7650
  834MOL0     H15068   6.861   6.683  11.499  0.0706  2.8412  0.0576
  834MOL0     H15069   6.758   6.656  11.636 -1.3190  0.5598 -2.3751
  834MOL0     H15070   6.913   6.510  11.741 -0.6503  0.8643 -1.4269
  834MOL0     H15071   7.045   6.532  11.621  0.3407 -0.9931 -2.2308
  834MOL0     H15072   7.204   7.592  11.872  1.6687  1.1847  0.1159
  834MOL0     H15073   7.103   7.813  11.853  3.6183  1.5353 -1.2323
  834MOL0     H15074   6.765   7.934  11.588  0.0559  0.4252  0.9326
  834MOL0     H15075   6.568   8.021  11.475  0.9631 -1.1483  0.9737
  834MOL0     H15076   7.041   9.123  10.874  3.6102  1.0259  1.7313
  834MOL0     H15077   7.282   9.049  10.882  2.8085 -1.4929 -2.1662
  834MOL0     H15078   7.426   8.521  10.916 -0.4574  1.7218  1.1243
  834MOL0     H15079   7.595   8.350  10.890 -1.7549  0.6773  1.5120
  834MOL0     H15080   7.896   8.415  10.934 -2.9351  0.6734 -0.2239
  834MOL0     H15081   7.809   8.258  10.922  1.8985 -1.6494  0.0406
  834MOL0     H15082   8.048   8.212  10.938  3.1854 -0.7687 -1.0587
  834MOL0     H15083   8.085   8.323  10.802 -0.1631  2.9413  1.2852
  834MOL0     H15084   7.963   8.192  10.660  3.9397 -1.8052 -2.9638
  834MOL0     H15085   8.097   8.101  10.734 -0.4975  1.7484  0.3130
  834MOL0     H15086   7.911   7.940  10.730  2.5565  1.0609 -1.7177
  834MOL0     H15087   7.791   8.063  10.763  0.2074 -0.3175 -0.7093
  834MOL0     H15088   7.905   7.886  11.130 -2.6713 -1.6376 -0.6666
  834MOL0     H15089   7.839   8.624  10.659  0.2112  0.0837 -0.6355
  834MOL0     H15090   7.765   8.814  10.583  0.2180 -0.9648  0.1279
  834MOL0     H15091   7.601   8.883  10.611  0.5768 -0.6024 -1.8629
  834MOL0     H15092   7.723   8.885  10.742  2.4111 -0.4069 -1.0783
  835MOL0     O15093  10.125   1.070   8.253  0.0125  0.1357  0.1582
  835MOL0     C15094  10.065   0.958   8.266  0.6728 -0.5387 -0.0380
  835MOL0     O15095  10.129   0.837   8.277  0.0909 -0.1807 -0.0847
  835MOL0     C15096  10.182   0.777   8.168  1.0968  0.3935  0.0776
  835MOL0     C15097  10.248   0.657   8.185 -0.8935 -0.9086  0.4203
  835MOL0     C15098  10.297   0.586   8.074 -0.3453  0.8065  0.4297
  835MOL0     C15099  10.294   0.640   7.950  0.2154 -0.1205  0.7591
  835MOL0     O15100  10.328   0.572   7.843 -0.2660  0.6759  0.1336
  835MOL0     C15101  10.431   0.469   7.837  0.3165 -0.9650  0.1902
  835MOL0     C15102  10.492   0.476   7.700  0.0903 -0.4404  0.6008
  835MOL0     C15103  10.599   0.571   7.669 -0.4561 -0.2206 -1.0468
  835MOL0     C15104  10.536   0.705   7.684 -0.0333 -0.5640  0.1244
  835MOL0     C15105  10.632   0.813   7.632 -0.6298 -1.1445  0.2347
  835MOL0     C15106  10.595   0.957   7.645  0.0911 -1.2420  0.3233
  835MOL0     C15107  10.693   1.044   7.555  0.4850 -0.2212 -0.1614
  835MOL0     C15108  10.697   1.186   7.604 -0.0957 -0.2054 -0.3971
  835MOL0     N15109  10.774   1.278   7.509 -0.7684  0.5747 -0.3177
  835MOL0     C15110  10.869   1.241   7.414 -0.5486  0.2522 -0.3530
  835MOL0     C15111  10.920   1.358   7.375  0.9515 -0.5368  0.6780
  835MOL0     C15112  11.040   1.373   7.290  0.7125  0.3496 -0.3222
  835MOL0     C15113  11.166   1.319   7.361  0.6528 -0.3301  0.4538
  835MOL0     C15114  11.297   1.349   7.287 -0.2376  0.2488 -0.8158
  835MOL0     C15115  11.417   1.270   7.343 -0.6703  0.0906 -0.4138
  835MOL0     O15116  11.461   1.341   7.465 -0.1017 -0.3181 -0.0046
  835MOL0     C15117  11.538   1.269   7.554  0.2888 -0.1856  0.2033
  835MOL0     C15118  11.554   1.320   7.681  0.6633 -1.0969  0.6400
  835MOL0     C15119  11.628   1.251   7.775 -0.3385  0.3584 -0.9164
  835MOL0     C15120  11.643   1.314   7.907 -0.2072  0.1587 -0.1457
  835MOL0     C15121  11.685   1.123   7.741  0.4704  0.1648 -0.1507
  835MOL0     C15122  11.754   1.039   7.834 -0.0787  0.6610  0.0788
  835MOL0     O15123  11.703   1.031   7.965  0.1165 -0.3841 -0.1079
  835MOL0     C15124  11.793   0.962   8.046 -0.8167 -0.8375  1.0457
  835MOL0     C15125  11.783   0.822   8.045  0.1114 -0.6795 -0.5049
  835MOL0     C15126  11.885   0.758   8.123  0.2641 -0.9426  0.9211
  835MOL0     C15127  11.983   0.834   8.194  1.3708  0.7198  0.2279
  835MOL0     O15128  12.092   0.769   8.254 -0.1666 -0.4311 -0.9934
  835MOL0     C15129  12.216   0.795   8.179  0.1184 -0.3326 -0.9021
  835MOL0     C15130  12.291   0.666   8.180  0.8332  0.0227 -0.1250
  835MOL0     C15131  12.371   0.633   8.318 -0.3617 -0.6161 -0.2955
  835MOL0     C15132  12.489   0.539   8.290 -0.0309 -0.2326 -0.5370
  835MOL0     C15133  12.539   0.479   8.418 -0.8124 -0.4182  0.3296
  835MOL0     C15134  12.671   0.395   8.401  0.1995 -0.3889 -0.2002
  835MOL0     C15135  12.654   0.269   8.308  0.5212 -0.0334  0.4985
  835MOL0     C15136  12.549   0.170   8.348  0.4711  0.1826 -0.0946
  835MOL0    Cl15137  12.558   0.012   8.273  0.4579 -0.2146  0.8252
  835MOL0     C15138  11.978   0.976   8.184 -0.4943  0.2308 -0.2557
  835MOL0     C15139  11.885   1.039   8.109  0.0691 -0.0332  0.3626
  835MOL0     O15140  11.858   0.991   7.796  0.3402 -0.7515 -0.4041
  835MOL0     C15141  11.670   1.071   7.612  0.0534 -0.2473  0.5111
  835MOL0     C15142  11.610   1.150   7.518 -0.1605  0.2062  0.1686
  835MOL0     N15143  10.881   1.453   7.464  0.5044 -0.2554 -0.5421
  835MOL0     N15144  10.794   1.409   7.542 -0.3359  0.0280 -0.3604
  835MOL0     C15145  10.234   0.761   7.936  1.2880 -1.0021  0.2238
  835MOL0     C15146  10.173   0.832   8.038 -0.2948  0.1263  0.8312
  835MOL0     C15147   9.920   0.960   8.248  0.3173  0.1211  0.4475
  835MOL0     C15148   9.868   1.043   8.149  0.1775  0.6907  0.2841
  835MOL0     C15149   9.730   1.058   8.118  0.8889 -0.1961  0.0406
  835MOL0     C15150   9.641   0.984   8.193  0.8058  0.7300  0.1584
  835MOL0     O15151   9.507   1.001   8.162 -0.3636 -1.1237 -0.6297
  835MOL0     C15152   9.411   0.948   8.249  0.2738 -0.6643  0.2356
  835MOL0     C15153   9.366   0.809   8.219  0.1824  0.2736 -0.4680
  835MOL0     C15154   9.357   0.787   8.068 -0.1535  0.3713  0.4110
  835MOL0     C15155   9.283   0.660   8.010 -0.2461 -0.2241  0.5504
  835MOL0     C15156   9.349   0.545   8.047 -0.6775 -0.5825 -0.3064
  835MOL0     C15157   9.400   0.443   8.078 -0.1884 -0.0841 -1.1667
  835MOL0     C15158   9.690   0.886   8.285 -0.4553 -0.5706  0.2873
  835MOL0     C15159   9.822   0.877   8.319  0.6304  0.1695 -0.2586
  835MOL0     C15160   9.862   0.770   8.419 -0.2053  0.0676 -0.6076
  835MOL0     H15161  10.259   0.620   8.286  1.4923 -0.7512  0.2701
  835MOL0     H15162  10.345   0.491   8.097 -0.3340  0.6536 -0.2101
  835MOL0     H15163  10.385   0.371   7.854 -0.4867 -0.8825 -1.3783
  835MOL0     H15164  10.499   0.479   7.922  0.1439  0.1489  0.2095
  835MOL0     H15165  10.544   0.381   7.691  1.5128  0.3974 -0.4462
  835MOL0     H15166  10.405   0.481   7.633  0.5103 -1.8179 -0.0719
  835MOL0     H15167  10.678   0.565   7.744 -1.9088  1.3516  0.6937
  835MOL0     H15168  10.630   0.557   7.565 -2.1022  0.3700 -1.6390
  835MOL0     H15169  10.439   0.705   7.633 -1.1070 -1.7379  2.0501
  835MOL0     H15170  10.509   0.712   7.790  0.2600 -1.1138  0.2394
  835MOL0     H15171  10.665   0.790   7.531  1.5886  1.6363  0.1951
  835MOL0     H15172  10.723   0.805   7.692  0.4629  3.9448 -0.2889
  835MOL0     H15173  10.499   0.975   7.597  1.1949  0.0032 -1.5449
  835MOL0     H15174  10.596   0.999   7.746  0.7706 -0.0039 -0.1775
  835MOL0     H15175  10.667   1.040   7.449  2.4602 -0.5006 -0.6812
  835MOL0     H15176  10.792   1.000   7.567  0.0106 -0.9433  1.4699
  835MOL0     H15177  10.607   1.247   7.614  0.4861  0.9995 -1.9903
  835MOL0     H15178  10.743   1.171   7.702 -1.5965 -1.0012  0.2023
  835MOL0     H15179  10.895   1.139   7.388 -0.0394 -0.3221  2.1721
  835MOL0     H15180  11.049   1.482   7.288 -1.5363  0.5709 -0.6236
  835MOL0     H15181  11.028   1.329   7.191  0.8476  1.0431 -0.6537
  835MOL0     H15182  11.164   1.364   7.461 -2.5717 -0.0464  0.3709
  835MOL0     H15183  11.156   1.212   7.378 -2.4015 -0.6541 -2.3639
  835MOL0     H15184  11.272   1.316   7.186 -1.5821 -0.7555 -0.1914
  835MOL0     H15185  11.319   1.457   7.287 -0.7242  0.3511 -0.8538
  835MOL0     H15186  11.386   1.165   7.348  3.3145 -1.3086 -1.3216
  835MOL0     H15187  11.500   1.259   7.273 -0.0609 -2.3183  0.5768
  835MOL0     H15188  11.510   1.414   7.712  1.6717 -0.9678  1.7658
  835MOL0     H15189  11.603   1.416   7.906 -0.8089  0.0164 -4.0471
  835MOL0     H15190  11.744   1.325   7.948 -1.3449  0.4928  2.8313
  835MOL0     H15191  11.592   1.251   7.981 -0.1337 -0.4773 -0.6221
  835MOL0     H15192  11.706   0.771   7.990 -0.9813  1.0520 -0.6545
  835MOL0     H15193  11.894   0.650   8.125 -0.8634 -1.0484  2.1633
  835MOL0     H15194  12.201   0.829   8.076 -1.4458  0.3462 -0.4867
  835MOL0     H15195  12.277   0.870   8.230  1.7651 -1.7091 -0.7520
  835MOL0     H15196  12.214   0.590   8.166 -1.1795  2.1389 -1.1723
  835MOL0     H15197  12.365   0.660   8.099  2.2042  1.6481  0.9235
  835MOL0     H15198  12.302   0.577   8.382 -0.4923  1.8899  1.9193
  835MOL0     H15199  12.396   0.727   8.368 -0.8638  0.1946 -1.5236
  835MOL0     H15200  12.561   0.600   8.235 -1.1844  1.7183 -0.0061
  835MOL0     H15201  12.457   0.456   8.226  0.3805 -1.0006  0.2311
  835MOL0     H15202  12.566   0.564   8.482  0.2138  1.2871 -2.2321
  835MOL0     H15203  12.460   0.421   8.466  0.8404 -2.1469  1.0756
  835MOL0     H15204  12.699   0.354   8.498 -1.7930 -2.0645 -0.2833
  835MOL0     H15205  12.748   0.461   8.361  2.0601 -2.6824 -0.6112
  835MOL0     H15206  12.756   0.230   8.304  0.2964 -0.9640  2.6532
  835MOL0     H15207  12.620   0.303   8.210 -2.3409  0.6566  1.6398
  835MOL0     H15208  12.446   0.198   8.320 -0.7503 -4.1951 -0.7983
  835MOL0     H15209  12.548   0.147   8.455 -1.6383 -1.8331 -0.4598
  835MOL0     H15210  12.052   1.040   8.231  1.6905 -0.1023 -2.9514
  835MOL0     H15211  11.878   1.147   8.098 -1.2825 -0.1389  0.0139
  835MOL0     H15212  11.725   0.982   7.588  1.9123  0.3603  2.2434
  835MOL0     H15213  11.612   1.108   7.418  4.2398  0.5534 -0.1026
  835MOL0     H15214  10.225   0.809   7.839 -0.0774 -0.8448  0.4023
  835MOL0     H15215  10.136   0.932   8.018  1.5768  0.5915 -0.5081
  835MOL0     H15216   9.930   1.105   8.085  0.3435  2.4486  2.0729
  835MOL0     H15217   9.701   1.137   8.050 -1.0852 -2.2772 -1.7274
  835MOL0     H15218   9.444   0.954   8.353 -1.2687  1.4009  0.6906
  835MOL0     H15219   9.322   1.010   8.234  0.8266  0.9768  3.1067
  835MOL0     H15220   9.278   0.796   8.283  1.8253  1.0069  2.1461
  835MOL0     H15221   9.429   0.729   8.259 -3.3731 -3.5990 -1.9784
  835MOL0     H15222   9.289   0.866   8.034 -2.0071 -1.8150 -1.2571
  835MOL0     H15223   9.454   0.791   8.017  0.5970 -3.2693  1.2384
  835MOL0     H15224   9.284   0.654   7.901 -0.8676 -1.5200  0.5963
  835MOL0     H15225   9.174   0.664   8.024 -0.7335  4.1388 -2.2946
  835MOL0     H15226   9.444   0.350   8.108 -1.7414 -0.0780  1.4770
  835MOL0     H15227   9.617   0.820   8.331 -1.9055  0.0562 -1.0457
  835MOL0     H15228   9.932   0.694   8.383  2.0789  0.0458  3.2668
  835MOL0     H15229   9.919   0.807   8.504  2.3105 -2.5614 -0.9735
  835MOL0     H15230   9.773   0.717   8.454  1.5071 -1.3106  2.0317
  836MOL0     O15231   9.063   0.888   5.399 -0.0080 -0.3169  0.1800
  836MOL0     C15232   8.985   0.985   5.378  0.7759  0.6473 -0.1775
  836MOL0     O15233   8.867   0.969   5.315  0.2888  0.5564 -0.3364
  836MOL0     C15234   8.810   0.849   5.286  0.3877  0.7021 -0.5283
  836MOL0     C15235   8.773   0.772   5.393  0.3797  0.0422  0.2559
  836MOL0     C15236   8.700   0.656   5.378  0.0298 -0.0476  0.0573
  836MOL0     C15237   8.675   0.615   5.253  0.4812  1.1485  0.6995
  836MOL0     O15238   8.613   0.495   5.255  0.8499 -0.0633  0.7906
  836MOL0     C15239   8.568   0.429   5.132 -0.1794  0.2133 -0.6174
  836MOL0     C15240   8.493   0.304   5.168 -0.3089 -0.9454  0.2143
  836MOL0     C15241   8.566   0.228   5.273 -0.7498 -0.2368 -0.7545
  836MOL0     C15242   8.485   0.093   5.317 -0.0166 -0.5057  0.2204
  836MOL0     C15243   8.584   0.002   5.393 -0.3804 -0.7986  0.5239
  836MOL0     C15244   8.610   0.047   5.538  0.1862 -0.3845 -0.0045
  836MOL0     C15245   8.743   0.003   5.591 -0.2038 -0.1188  0.1730
  836MOL0     C15246   8.755   0.057   5.734  0.4360  0.4606  0.4353
  836MOL0     N15247   8.889   0.030   5.789  0.9090 -0.5740 -0.5771
  836MOL0     C15248   9.003   0.091   5.763 -0.5868 -0.0073  0.5252
  836MOL0     C15249   9.091   0.045   5.850 -0.5875  0.1479  0.8907
  836MOL0     C15250   9.231   0.096   5.884 -0.0117  0.6344 -0.4727
  836MOL0     C15251   9.263   0.255   5.887  0.1223  1.2691 -0.0399
  836MOL0     C15252   9.420   0.273   5.882  0.1739  0.2588  0.1110
  836MOL0     C15253   9.489   0.201   6.002  0.6947 -0.6061  0.3384
  836MOL0     O15254   9.454   0.271   6.119 -0.3572  0.3043  0.0933
  836MOL0     C15255   9.493   0.394   6.144 -0.8788 -0.4675 -0.1923
  836MOL0     C15256   9.628   0.418   6.132  1.4201  0.5647  1.2575
  836MOL0     C15257   9.679   0.552   6.136  0.2279 -0.4829 -0.6318
  836MOL0     C15258   9.818   0.577   6.082 -0.2557 -0.9837 -0.0234
  836MOL0     C15259   9.593   0.659   6.170  0.3782  0.5577  1.0174
  836MOL0     C15260   9.632   0.801   6.189  0.0812  0.0557  0.8666
  836MOL0     O15261   9.540   0.901   6.166 -0.0830 -0.6328  0.0478
  836MOL0     C15262   9.578   1.030   6.158 -0.6256  0.0572 -0.1074
  836MOL0     C15263   9.566   1.111   6.270  0.3262 -0.2181 -0.2895
  836MOL0     C15264   9.593   1.245   6.263 -0.2035  0.3731 -0.9034
  836MOL0     C15265   9.617   1.310   6.139  0.0238 -0.1856 -0.2694
  836MOL0     O15266   9.637   1.449   6.139  1.3129 -0.4759 -0.9506
  836MOL0     C15267   9.602   1.510   6.016  0.9923  0.2855 -0.1385
  836MOL0     C15268   9.606   1.658   6.036  0.0939 -0.2453  1.0466
  836MOL0     C15269   9.474   1.732   6.055  0.4095 -0.2391 -0.7537
  836MOL0     C15270   9.422   1.717   6.195 -0.0342 -0.5484 -1.0292
  836MOL0     C15271   9.295   1.795   6.224  0.4358 -0.3789 -0.1601
  836MOL0     C15272   9.283   1.854   6.371 -0.1417 -0.4822 -0.2929
  836MOL0     C15273   9.254   1.733   6.459  0.5397 -0.5942  0.3729
  836MOL0     C15274   9.217   1.793   6.590  0.0812  0.6725 -0.1299
  836MOL0    Cl15275   9.171   1.657   6.703 -0.1110  0.0440  0.1299
  836MOL0     C15276   9.640   1.227   6.027  0.0616 -0.5256 -0.0421
  836MOL0     C15277   9.615   1.089   6.034  0.2317 -0.2679  0.5322
  836MOL0     O15278   9.746   0.817   6.228  0.2364 -0.6284  0.1418
  836MOL0     C15279   9.457   0.622   6.197 -0.3037 -0.5180 -0.4429
  836MOL0     C15280   9.410   0.498   6.188 -0.3504  0.1473 -0.2274
  836MOL0     N15281   9.016  -0.039   5.938 -0.5947  0.3053  0.0189
  836MOL0     N15282   8.893  -0.047   5.903  0.5397 -0.1964  0.7068
  836MOL0     C15283   8.710   0.686   5.143 -0.0971 -0.4097 -0.2455
  836MOL0     C15284   8.783   0.808   5.156  0.8279  0.1034  0.2441
  836MOL0     C15285   9.034   1.128   5.406  0.9557 -0.6291 -0.1465
  836MOL0     C15286   9.176   1.140   5.422 -0.2504 -0.1404  0.3298
  836MOL0     C15287   9.236   1.256   5.455  0.0789 -0.9881 -0.4608
  836MOL0     C15288   9.159   1.368   5.477  0.2673  0.0513  0.9580
  836MOL0     O15289   9.219   1.490   5.503  0.3746  0.2113 -0.9314
  836MOL0     C15290   9.154   1.580   5.602  0.0058  0.6898  0.5337
  836MOL0     C15291   9.245   1.636   5.711 -0.6984 -0.0416  1.0669
  836MOL0     C15292   9.167   1.728   5.807 -0.0301 -0.0386  0.1359
  836MOL0     C15293   9.064   1.659   5.911  0.0164 -0.1285  0.0143
  836MOL0     C15294   9.027   1.767   6.008 -0.7141  0.1352  0.9758
  836MOL0     C15295   8.992   1.870   6.055  0.1753 -0.1263 -0.2438
  836MOL0     C15296   9.023   1.362   5.452  0.4259  0.4015 -0.7398
  836MOL0     C15297   8.958   1.244   5.420  0.0998 -0.2371 -0.1559
  836MOL0     C15298   8.817   1.248   5.390 -0.1547 -0.6519  0.5111
  836MOL0     H15299   8.812   0.796   5.491  1.5068  2.0942 -0.6291
  836MOL0     H15300   8.650   0.606   5.460 -2.0818 -1.2898 -1.8688
  836MOL0     H15301   8.656   0.408   5.072 -0.9216 -0.2720 -1.5682
  836MOL0     H15302   8.497   0.490   5.075 -3.4573 -1.4734  1.2947
  836MOL0     H15303   8.392   0.326   5.203  0.4936 -0.6555  2.4884
  836MOL0     H15304   8.486   0.246   5.075  0.3090 -0.8244  0.0872
  836MOL0     H15305   8.655   0.198   5.217 -1.7078 -1.3515 -1.7317
  836MOL0     H15306   8.592   0.288   5.361  0.0098 -4.1749  1.9611
  836MOL0     H15307   8.400   0.116   5.381  2.3855  0.1202  3.4177
  836MOL0     H15308   8.448   0.041   5.228  0.4880  0.0913 -0.3559
  836MOL0     H15309   8.683  -0.008   5.348 -0.5467  0.9895 -0.3065
  836MOL0     H15310   8.539  -0.098   5.396 -2.1288 -0.0372  1.1023
  836MOL0     H15311   8.597   0.156   5.538 -2.5611 -0.6402  1.2143
  836MOL0     H15312   8.531   0.012   5.605  1.0196 -0.2595  1.0865
  836MOL0     H15313   8.825   0.048   5.535 -0.1278  1.8393  1.7528
  836MOL0     H15314   8.755  -0.105   5.604 -2.2031 -0.6847 -1.9308
  836MOL0     H15315   8.736   0.165   5.736  0.3952  0.4554  0.3424
  836MOL0     H15316   8.675   0.003   5.785 -0.8576  0.0445 -1.8882
  836MOL0     H15317   9.016   0.173   5.692 -3.0755  1.2519  1.4307
  836MOL0     H15318   9.300   0.054   5.810  1.2912  3.2590 -0.8853
  836MOL0     H15319   9.262   0.047   5.976 -1.7645 -0.7372 -0.5480
  836MOL0     H15320   9.212   0.292   5.798 -0.6034  0.4222  0.0063
  836MOL0     H15321   9.225   0.315   5.970 -2.9018 -0.5442  0.0267
  836MOL0     H15322   9.458   0.236   5.786  2.0512  0.1348  0.8590
  836MOL0     H15323   9.442   0.380   5.876  1.0994  0.0343 -0.9517
  836MOL0     H15324   9.458   0.096   6.003  1.6672 -0.8958  0.9348
  836MOL0     H15325   9.598   0.202   5.987  0.9361 -1.2421  1.8596
  836MOL0     H15326   9.683   0.327   6.110 -1.3250 -0.2925 -3.2579
  836MOL0     H15327   9.831   0.672   6.031  0.7009  0.7721  3.2035
  836MOL0     H15328   9.843   0.495   6.014  1.5522  0.5080 -1.2422
  836MOL0     H15329   9.878   0.579   6.174 -1.1525 -2.2497  0.6209
  836MOL0     H15330   9.533   1.062   6.361  1.4197 -2.7888 -1.1767
  836MOL0     H15331   9.591   1.301   6.356  0.7504 -2.8132  1.1935
  836MOL0     H15332   9.678   1.496   5.939 -0.2249 -0.2899 -1.2725
  836MOL0     H15333   9.511   1.462   5.979  0.4553 -1.3406  2.9963
  836MOL0     H15334   9.660   1.683   6.127 -1.7721  1.6612  1.7244
  836MOL0     H15335   9.651   1.697   5.944  0.4579 -2.8023  0.0657
  836MOL0     H15336   9.397   1.685   5.993 -2.8584 -0.6675  3.2297
  836MOL0     H15337   9.481   1.837   6.023  1.8789 -0.3776 -0.9744
  836MOL0     H15338   9.490   1.758   6.270 -1.6049 -1.5306  1.0414
  836MOL0     H15339   9.403   1.611   6.216 -1.6940  0.0246  0.6293
  836MOL0     H15340   9.296   1.883   6.158 -1.1601 -0.2696 -0.0897
  836MOL0     H15341   9.211   1.729   6.200 -1.8705  3.2168 -3.3351
  836MOL0     H15342   9.193   1.916   6.372 -1.6398 -2.5446  0.7279
  836MOL0     H15343   9.365   1.920   6.400 -0.5676 -0.2681  0.4359
  836MOL0     H15344   9.341   1.667   6.468 -0.2153 -1.5990  0.4577
  836MOL0     H15345   9.168   1.686   6.411 -1.9677  2.1730  1.8049
  836MOL0     H15346   9.132   1.862   6.587  1.3285  2.2673 -0.0084
  836MOL0     H15347   9.304   1.841   6.634  1.6900 -1.6051 -0.6233
  836MOL0     H15348   9.682   1.272   5.938  0.2094 -0.8465 -0.1345
  836MOL0     H15349   9.617   1.035   5.940  1.7098  3.0595 -1.5508
  836MOL0     H15350   9.383   0.695   6.229  0.4448  0.5260 -1.0007
  836MOL0     H15351   9.302   0.493   6.200 -0.3790 -2.3278 -1.0549
  836MOL0     H15352   8.697   0.641   5.045  1.0626  0.6236 -0.9006
  836MOL0     H15353   8.817   0.878   5.080  0.3414  2.5497  2.1469
  836MOL0     H15354   9.238   1.052   5.405  1.9160  1.3405  0.1675
  836MOL0     H15355   9.344   1.265   5.461  0.0572 -1.5991  2.1036
  836MOL0     H15356   9.122   1.668   5.545  0.0308 -0.2201 -0.9497
  836MOL0     H15357   9.074   1.527   5.655  1.6100 -0.5819  1.7928
  836MOL0     H15358   9.328   1.691   5.665 -2.1607 -1.3324 -3.6583
  836MOL0     H15359   9.289   1.545   5.754 -0.3911  0.1637  1.1889
  836MOL0     H15360   9.246   1.779   5.863 -0.6880  1.0071  0.1415
  836MOL0     H15361   9.118   1.808   5.751  1.5426 -1.3883 -3.4727
  836MOL0     H15362   9.111   1.576   5.964  1.5592  0.8048  0.1610
  836MOL0     H15363   8.979   1.607   5.864  1.8636 -1.2499 -2.3249
  836MOL0     H15364   8.946   1.957   6.097  0.0200  1.6161 -3.6878
  836MOL0     H15365   8.958   1.449   5.453 -1.4319 -0.7484 -4.1266
  836MOL0     H15366   8.773   1.172   5.455  2.0914 -1.1758  1.5316
  836MOL0     H15367   8.761   1.341   5.398 -2.3220 -1.6261 -1.9474
  836MOL0     H15368   8.799   1.219   5.286 -2.0935 -1.1702  0.9539
  837MOL0     O15369   4.914  11.212  10.418 -0.2312  0.4401  0.7658
  837MOL0     C15370   4.870  11.113  10.357  0.0231 -0.1851  0.6060
  837MOL0     O15371   4.747  11.105  10.295  0.4192  0.6002  0.8372
  837MOL0     C15372   4.695  11.208  10.224 -0.0260  0.1651  0.7144
  837MOL0     C15373   4.564  11.235  10.244  0.1446  0.1136 -0.2066
  837MOL0     C15374   4.507  11.346  10.179  0.3631 -0.6275  0.1992
  837MOL0     C15375   4.576  11.421  10.079 -0.1081  0.1215 -1.5785
  837MOL0     O15376   4.514  11.531  10.035 -0.3647 -0.1009  0.2210
  837MOL0     C15377   4.383  11.535   9.986 -0.3575 -0.6365  1.1115
  837MOL0     C15378   4.347  11.667   9.926 -0.4300 -0.4425 -0.2006
  837MOL0     C15379   4.427  11.685   9.792 -0.0146  0.3869  0.0501
  837MOL0     C15380   4.380  11.806   9.711  0.3319  0.4016  0.0031
  837MOL0     C15381   4.481  11.857   9.605 -0.3441  0.0191  0.1186
  837MOL0     C15382   4.419  11.955   9.504  0.4513  0.0143 -0.4743
  837MOL0     C15383   4.514  12.011   9.394 -0.1645 -0.3205  0.3375
  837MOL0     C15384   4.639  12.075   9.448  0.4129  0.0218 -0.9160
  837MOL0     N15385   4.703  12.135   9.339 -0.1779  0.1577  0.7822
  837MOL0     C15386   4.654  12.233   9.256 -0.5105 -0.9527  0.3827
  837MOL0     C15387   4.742  12.238   9.154 -0.6774  0.4363 -0.2337
  837MOL0     C15388   4.745  12.334   9.039  0.3340  0.5848  0.0992
  837MOL0     C15389   4.642  12.284   8.941  0.8001 -0.4702  0.3224
  837MOL0     C15390   4.632  12.381   8.826 -0.8783  0.4540 -0.0137
  837MOL0     C15391   4.510  12.361   8.740  0.1959  0.5542 -0.1993
  837MOL0     O15392   4.493  12.473   8.650  0.4995  0.6603  0.6331
  837MOL0     C15393   4.462  12.599   8.699  0.6616  0.4950 -0.7250
  837MOL0     C15394   4.510  12.705   8.631 -0.1365 -0.4379 -0.4066
  837MOL0     C15395   4.483  12.837   8.663 -0.8292 -1.1400  0.1641
  837MOL0     C15396   4.535  12.941   8.574 -0.0445  1.2634 -0.2207
  837MOL0     C15397   4.389  12.865   8.771  0.1549 -0.5628  0.2721
  837MOL0     C15398   4.357  13.000   8.817 -0.5309  0.0035 -0.3662
  837MOL0     O15399   4.361  13.101   8.723 -0.7232 -0.1058 -0.0976
  837MOL0     C15400   4.307  13.228   8.746 -0.8310 -0.2407  0.0281
  837MOL0     C15401   4.177  13.249   8.778  1.7154  0.2808  0.3944
  837MOL0     C15402   4.121  13.370   8.807 -0.2601  1.2835  0.5242
  837MOL0     C15403   4.198  13.482   8.773 -0.2365 -1.0745  1.3378
  837MOL0     O15404   4.141  13.605   8.775  0.0243 -0.4149 -0.4392
  837MOL0     C15405   4.188  13.696   8.876  0.2385  0.2147 -0.2062
  837MOL0     C15406   4.097  13.720   8.991  0.5274 -0.4622  0.2191
  837MOL0     C15407   4.177  13.777   9.107  0.5977 -0.4094  0.2221
  837MOL0     C15408   4.089  13.832   9.222 -0.1612  0.5485  0.4206
  837MOL0     C15409   4.180  13.882   9.341  0.8559 -0.0721  0.2895
  837MOL0     C15410   4.103  13.950   9.446 -0.2536  1.0808 -0.7788
  837MOL0     C15411   4.191  13.990   9.555  0.3344  0.1963 -0.5460
  837MOL0     C15412   4.121  14.054   9.676  0.5702 -0.1287  0.3363
  837MOL0    Cl15413   3.996  13.958   9.749  0.4634 -0.4950  0.1950
  837MOL0     C15414   4.336  13.466   8.731 -0.1488 -0.2269  0.4799
  837MOL0     C15415   4.384  13.335   8.714 -0.6229 -0.4932 -0.4995
  837MOL0     O15416   4.302  13.001   8.925  0.0593 -0.1791 -0.0927
  837MOL0     C15417   4.333  12.748   8.841  0.0874  0.3386 -0.8079
  837MOL0     C15418   4.372  12.621   8.797  0.8080  0.2312 -0.4721
  837MOL0     N15419   4.833  12.138   9.175  0.6423  0.3588 -0.7953
  837MOL0     N15420   4.817  12.081   9.287  0.3595  0.3325  0.3655
  837MOL0     C15421   4.709  11.387  10.055  0.1583  0.3505 -0.3439
  837MOL0     C15422   4.771  11.275  10.125  0.1793 -0.5288  0.6014
  837MOL0     C15423   4.952  10.992  10.338 -0.4022  0.4023 -0.2943
  837MOL0     C15424   4.915  10.907  10.225 -0.3362  0.2052  0.5033
  837MOL0     C15425   4.971  10.777  10.214 -0.2952 -0.0869 -0.6208
  837MOL0     C15426   5.069  10.735  10.311 -0.5966  0.8027  0.1207
  837MOL0     O15427   5.123  10.614  10.279 -0.3172  0.5306  0.3759
  837MOL0     C15428   5.196  10.551  10.382 -0.0798 -0.1455 -0.0052
  837MOL0     C15429   5.227  10.407  10.359 -0.0782 -0.4534  0.4559
  837MOL0     C15430   5.311  10.392  10.230  0.1208  1.1912  0.6316
  837MOL0     C15431   5.353  10.244  10.201  0.3763 -0.5177  0.2504
  837MOL0     C15432   5.441  10.188  10.302 -0.5903 -0.2090 -0.3570
  837MOL0     C15433   5.521  10.160  10.391  0.5714 -0.1024 -0.5919
  837MOL0     C15434   5.109  10.824  10.407 -0.7668  0.9388 -0.2201
  837MOL0     C15435   5.053  10.945  10.425  0.0131 -0.4509  0.4601
  837MOL0     C15436   5.108  11.019  10.545  0.0316 -0.5609  1.1581
  837MOL0     H15437   4.514  11.178  10.322 -0.9423  0.2083 -0.8156
  837MOL0     H15438   4.401  11.360  10.199  0.2933  1.1135 -1.1025
  837MOL0     H15439   4.306  11.513  10.060 -1.3937 -1.3553 -0.1237
  837MOL0     H15440   4.373  11.454   9.912 -2.3512  1.0886 -0.6816
  837MOL0     H15441   4.240  11.685   9.918 -0.0084  2.8816  0.1217
  837MOL0     H15442   4.381  11.750   9.989 -0.3047 -0.8113  0.2213
  837MOL0     H15443   4.533  11.697   9.818  0.7936 -0.1323 -2.7089
  837MOL0     H15444   4.417  11.599   9.726 -0.2013  2.0661 -2.2172
  837MOL0     H15445   4.286  11.796   9.658  0.5939  2.9749 -1.0962
  837MOL0     H15446   4.352  11.890   9.776 -0.4227  0.3962 -0.3048
  837MOL0     H15447   4.534  11.781   9.548 -1.1574 -0.1620 -0.4089
  837MOL0     H15448   4.555  11.914   9.661 -0.5472 -0.6593  1.1006
  837MOL0     H15449   4.328  11.919   9.455 -2.4216  4.0357  1.3517
  837MOL0     H15450   4.393  12.040   9.568  1.2968 -2.7357  3.9592
  837MOL0     H15451   4.451  12.074   9.330 -1.6885 -1.5652  0.5458
  837MOL0     H15452   4.553  11.932   9.329  0.8618 -0.2807  0.8766
  837MOL0     H15453   4.600  12.151   9.516 -1.2512 -0.9729 -0.6882
  837MOL0     H15454   4.707  12.005   9.497 -2.9415 -0.8303  3.2025
  837MOL0     H15455   4.562  12.289   9.270 -0.5716 -0.8343 -0.4085
  837MOL0     H15456   4.841  12.332   8.987 -0.2064 -4.1886 -1.1729
  837MOL0     H15457   4.717  12.436   9.068 -0.5821 -0.6420  4.2326
  837MOL0     H15458   4.652  12.181   8.906 -2.1242 -0.8339  0.3432
  837MOL0     H15459   4.546  12.284   8.994  0.3727 -2.2497 -0.3880
  837MOL0     H15460   4.628  12.483   8.866  0.9057  0.2508  0.8154
  837MOL0     H15461   4.727  12.372   8.773 -1.6329 -0.8324 -1.2027
  837MOL0     H15462   4.507  12.272   8.676  4.0027  0.8031 -0.9669
  837MOL0     H15463   4.420  12.350   8.802 -0.1780  3.4879 -0.0859
  837MOL0     H15464   4.577  12.696   8.546 -1.0576  1.4275 -1.3932
  837MOL0     H15465   4.557  13.034   8.628 -3.6787  0.5403  2.9568
  837MOL0     H15466   4.461  12.964   8.496 -0.6847 -1.6614 -0.5744
  837MOL0     H15467   4.626  12.907   8.523  1.8106 -0.6876  3.9320
  837MOL0     H15468   4.112  13.162   8.786 -0.1251  1.2526 -2.4928
  837MOL0     H15469   4.020  13.372   8.846  0.0378 -1.7906  1.7245
  837MOL0     H15470   4.286  13.665   8.912  0.2185  1.8018  1.3173
  837MOL0     H15471   4.212  13.788   8.822  2.1409  0.1518  0.4520
  837MOL0     H15472   4.029  13.803   8.967  0.5145  0.5111  3.1322
  837MOL0     H15473   4.036  13.636   9.025 -0.0634 -0.1005  0.0784
  837MOL0     H15474   4.257  13.846   9.077 -1.4069  0.9114 -2.6313
  837MOL0     H15475   4.222  13.684   9.141  0.5262 -0.2719  0.6928
  837MOL0     H15476   4.029  13.755   9.273  0.3381  1.0628  1.8488
  837MOL0     H15477   4.021  13.906   9.179  1.3153  2.0242  0.5480
  837MOL0     H15478   4.222  13.788   9.379  0.2402 -0.0342  1.0742
  837MOL0     H15479   4.257  13.950   9.303  1.7494 -1.1027  0.2210
  837MOL0     H15480   4.013  13.890   9.464  1.3576 -1.1874  0.2035
  837MOL0     H15481   4.064  14.038   9.393  1.7354  2.0496 -0.7555
  837MOL0     H15482   4.270  14.059   9.523  2.1445 -0.8837  1.3485
  837MOL0     H15483   4.246  13.899   9.580 -1.0986 -0.1863  1.4288
  837MOL0     H15484   4.074  14.136   9.621 -0.3967 -2.3456 -2.3635
  837MOL0     H15485   4.204  14.072   9.745  0.7838  1.3243 -0.2548
  837MOL0     H15486   4.397  13.555   8.721 -0.7704  0.1529  0.0635
  837MOL0     H15487   4.489  13.308   8.704 -0.5452 -0.8483  0.9718
  837MOL0     H15488   4.295  12.772   8.940  0.0636 -1.7227 -0.2678
  837MOL0     H15489   4.338  12.535   8.853 -1.4316 -1.0133 -3.4679
  837MOL0     H15490   4.759  11.447   9.979  1.0591  1.4532  1.0698
  837MOL0     H15491   4.877  11.260  10.112  0.7104  3.0503 -0.0898
  837MOL0     H15492   4.852  10.950  10.148 -1.4362  2.4475  2.4939
  837MOL0     H15493   4.946  10.708  10.134 -2.5028 -0.8055  0.5912
  837MOL0     H15494   5.293  10.597  10.406  0.2703 -0.0093 -1.5502
  837MOL0     H15495   5.146  10.568  10.477 -1.0092  2.1241 -0.8252
  837MOL0     H15496   5.129  10.358  10.349 -1.3166  2.0199 -0.0979
  837MOL0     H15497   5.287  10.383  10.448 -1.1382  0.7759  1.5405
  837MOL0     H15498   5.267  10.424  10.136  1.8662 -0.9176 -1.0060
  837MOL0     H15499   5.402  10.450  10.244  0.5608  0.6665  0.0071
  837MOL0     H15500   5.401  10.249  10.103 -1.8044  0.8673 -0.8277
  837MOL0     H15501   5.257  10.193  10.190  0.4996 -0.2669 -2.6902
  837MOL0     H15502   5.606  10.140  10.454  1.5394 -1.0570 -2.1396
  837MOL0     H15503   5.192  10.793  10.471  0.7665  1.3566 -1.9306
  837MOL0     H15504   5.202  11.064  10.512 -2.4922  4.3075 -0.4059
  837MOL0     H15505   5.027  11.086  10.576 -0.2654 -0.0455 -0.5763
  837MOL0     H15506   5.125  10.941  10.620 -1.9976 -1.4720  0.7300
  838MOL0     O15507   6.422   2.764   4.982 -0.7553 -0.6612 -0.0032
  838MOL0     C15508   6.430   2.642   4.989 -0.5096  0.0338  0.1239
  838MOL0     O15509   6.343   2.552   4.918 -0.2432 -1.0490  0.2225
  838MOL0     C15510   6.224   2.591   4.864  0.2429  0.3988  0.1700
  838MOL0     C15511   6.123   2.660   4.935 -0.1874  0.2611  0.6228
  838MOL0     C15512   6.006   2.706   4.881 -0.5931 -0.7052 -1.0362
  838MOL0     C15513   5.973   2.676   4.750 -0.5308 -0.2018  0.3959
  838MOL0     O15514   5.850   2.690   4.691  0.2480 -0.1371 -0.3640
  838MOL0     C15515   5.738   2.730   4.773  0.0052  0.3325 -0.4194
  838MOL0     C15516   5.604   2.707   4.699  0.4439 -0.7248  1.2999
  838MOL0     C15517   5.489   2.716   4.805 -0.5056 -0.2523 -0.9661
  838MOL0     C15518   5.348   2.737   4.741  0.3347  0.5825  0.6286
  838MOL0     C15519   5.266   2.830   4.831  0.1243  0.2638  0.5309
  838MOL0     C15520   5.128   2.861   4.769 -0.2308  0.3023  0.3601
  838MOL0     C15521   5.039   2.932   4.867  0.1537 -1.0011  0.4905
  838MOL0     C15522   4.970   2.842   4.969  0.2290 -0.2558 -0.3398
  838MOL0     N15523   5.015   2.860   5.105 -0.1183  0.5134  0.7570
  838MOL0     C15524   4.939   2.862   5.211 -0.3125 -0.2618 -0.2164
  838MOL0     C15525   5.014   2.834   5.310 -0.5065  1.3181 -1.2685
  838MOL0     C15526   4.985   2.812   5.465 -1.1467  0.9277 -0.2543
  838MOL0     C15527   4.854   2.850   5.511 -0.4199 -0.3093 -0.7419
  838MOL0     C15528   4.753   2.741   5.503  0.0556 -0.2985  0.2104
  838MOL0     C15529   4.629   2.775   5.586  0.4302  0.3111  0.1787
  838MOL0     O15530   4.649   2.765   5.731 -0.2318  0.1739  0.4760
  838MOL0     C15531   4.560   2.813   5.818 -0.4371 -0.6516  0.6471
  838MOL0     C15532   4.591   2.793   5.956  0.7149 -0.0936 -0.2593
  838MOL0     C15533   4.496   2.834   6.050  0.1766  0.3560 -0.6960
  838MOL0     C15534   4.540   2.819   6.195 -0.0994 -0.6292  0.6271
  838MOL0     C15535   4.372   2.885   6.022 -0.1090 -0.1010 -1.0557
  838MOL0     C15536   4.273   2.931   6.119 -0.0018  0.6367  0.0641
  838MOL0     O15537   4.182   3.019   6.074  0.1253 -0.0484  0.2927
  838MOL0     C15538   4.094   3.073   6.159 -0.4760  0.2925 -0.6063
  838MOL0     C15539   4.123   3.200   6.215  1.0962  0.9410  0.0389
  838MOL0     C15540   4.012   3.257   6.292  0.0685 -0.5112 -0.1004
  838MOL0     C15541   3.882   3.207   6.309 -1.2733  0.1257  0.2683
  838MOL0     O15542   3.785   3.271   6.373  0.4762 -0.4106  0.1138
  838MOL0     C15543   3.661   3.281   6.305 -0.4254  0.4119  0.0161
  838MOL0     C15544   3.612   3.423   6.329 -0.6788 -0.0374 -0.2535
  838MOL0     C15545   3.537   3.438   6.463 -0.2246  0.9335  0.6140
  838MOL0     C15546   3.397   3.384   6.452 -0.4643  0.7096  0.0565
  838MOL0     C15547   3.317   3.372   6.583 -0.5593 -0.4295  0.3509
  838MOL0     C15548   3.261   3.512   6.617  0.0289 -0.2592 -0.1929
  838MOL0     C15549   3.198   3.511   6.751 -0.4203  0.8763 -0.4056
  838MOL0     C15550   3.098   3.621   6.767  0.5682  0.0455 -0.7974
  838MOL0    Cl15551   3.167   3.778   6.819  0.7422  0.0822  0.1518
  838MOL0     C15552   3.865   3.080   6.257 -0.3270  0.0208  0.1179
  838MOL0     C15553   3.967   3.011   6.188  0.2728 -0.3707 -0.3178
  838MOL0     O15554   4.277   2.891   6.235  0.5561  0.0152 -0.2545
  838MOL0     C15555   4.343   2.901   5.886 -0.0264 -0.6702 -0.1865
  838MOL0     C15556   4.439   2.871   5.782 -0.1009 -0.6185 -0.5895
  838MOL0     N15557   5.144   2.807   5.264  0.2537  0.3136  0.3642
  838MOL0     N15558   5.140   2.831   5.139 -0.2230  0.6134 -0.1635
  838MOL0     C15559   6.072   2.620   4.672 -0.0005  1.0159 -0.0548
  838MOL0     C15560   6.194   2.579   4.721 -0.5769  0.6238 -0.8144
  838MOL0     C15561   6.548   2.602   5.058  0.3069  0.6796  0.4390
  838MOL0     C15562   6.617   2.502   5.007  0.7051  0.1063  0.2220
  838MOL0     C15563   6.718   2.433   5.084 -0.4411  0.2989  0.5848
  838MOL0     C15564   6.772   2.493   5.195 -0.5968  0.5053  0.0860
  838MOL0     O15565   6.885   2.441   5.259 -0.3129 -0.2485 -0.3684
  838MOL0     C15566   6.980   2.526   5.312 -0.5126 -1.2798 -0.0326
  838MOL0     C15567   7.087   2.441   5.355  0.0007 -0.3838 -0.5838
  838MOL0     C15568   7.057   2.389   5.495 -0.1156  0.2818 -0.7982
  838MOL0     C15569   7.187   2.321   5.545  0.4186  0.9669  0.7293
  838MOL0     C15570   7.178   2.296   5.687 -0.7324  0.5242 -0.3531
  838MOL0     C15571   7.179   2.261   5.806  0.0954 -0.6491  1.1442
  838MOL0     C15572   6.689   2.591   5.250 -1.3056 -0.1525 -0.3331
  838MOL0     C15573   6.579   2.636   5.192  0.6808 -0.8947 -0.3761
  838MOL0     C15574   6.496   2.731   5.281  0.4797 -0.0831 -0.9418
  838MOL0     H15575   6.135   2.671   5.042  2.3076  0.6237  0.3689
  838MOL0     H15576   5.936   2.760   4.944  1.6229  0.7310  0.2984
  838MOL0     H15577   5.752   2.836   4.796  0.3102  0.7295 -2.2487
  838MOL0     H15578   5.731   2.666   4.862  4.1104  0.2498  0.0445
  838MOL0     H15579   5.591   2.782   4.620  0.4638 -0.9548  1.0761
  838MOL0     H15580   5.603   2.610   4.649 -0.3997  0.8437 -1.9716
  838MOL0     H15581   5.494   2.616   4.847  0.0756 -0.6696 -1.9841
  838MOL0     H15582   5.501   2.794   4.881 -4.6319  0.8783 -1.2114
  838MOL0     H15583   5.347   2.791   4.646  0.0006  0.7435  0.7224
  838MOL0     H15584   5.291   2.646   4.716  1.1408  0.1542  0.3188
  838MOL0     H15585   5.331   2.914   4.857  1.7550 -1.1364  1.2107
  838MOL0     H15586   5.250   2.771   4.921  0.3639 -2.4624 -1.1011
  838MOL0     H15587   5.142   2.927   4.684  1.2067 -1.0400 -0.4934
  838MOL0     H15588   5.077   2.767   4.745 -0.3221  0.4683 -0.1048
  838MOL0     H15589   4.960   2.974   4.804 -0.1435 -2.4724 -0.1657
  838MOL0     H15590   5.086   3.009   4.930  1.9326 -4.1445  3.3775
  838MOL0     H15591   4.864   2.871   4.972  0.4923  0.6519  1.4211
  838MOL0     H15592   4.981   2.736   4.945  0.5004 -0.6573  1.4497
  838MOL0     H15593   4.833   2.870   5.192 -0.2294 -1.5404 -1.3659
  838MOL0     H15594   5.057   2.873   5.520 -0.0812  1.0520 -1.7302
  838MOL0     H15595   5.002   2.708   5.493 -1.2526  1.3262  1.4336
  838MOL0     H15596   4.869   2.872   5.617  0.8018  1.7146 -1.2754
  838MOL0     H15597   4.824   2.940   5.456  1.3239 -0.3612 -1.8709
  838MOL0     H15598   4.722   2.738   5.399 -0.2549  0.8727  0.2610
  838MOL0     H15599   4.797   2.646   5.537  1.9433  0.2202 -0.6406
  838MOL0     H15600   4.586   2.874   5.564 -0.6226 -0.0222  0.6486
  838MOL0     H15601   4.546   2.709   5.559  1.2190 -0.9580  0.8171
  838MOL0     H15602   4.678   2.740   5.992 -0.4631 -0.8524  1.5958
  838MOL0     H15603   4.525   2.916   6.244 -2.7411 -0.5893 -0.0867
  838MOL0     H15604   4.648   2.807   6.204 -0.4457 -2.8813  3.1880
  838MOL0     H15605   4.493   2.747   6.262  2.3758  0.2308  3.5301
  838MOL0     H15606   4.220   3.246   6.199  1.2182 -0.0722 -2.7543
  838MOL0     H15607   4.037   3.356   6.326 -1.0992  0.0503 -0.8309
  838MOL0     H15608   3.664   3.268   6.197 -2.5172  0.3297 -0.0755
  838MOL0     H15609   3.597   3.201   6.344 -0.2562 -0.8112 -2.0780
  838MOL0     H15610   3.694   3.496   6.339  0.2525 -1.0966  0.0323
  838MOL0     H15611   3.551   3.452   6.243 -0.2514 -1.1391 -0.9473
  838MOL0     H15612   3.530   3.544   6.491  2.4190  0.8209  2.0372
  838MOL0     H15613   3.605   3.390   6.535  0.3569 -0.5762 -0.8771
  838MOL0     H15614   3.410   3.280   6.420  0.4108  0.4975  1.0532
  838MOL0     H15615   3.338   3.438   6.378 -0.8299 -0.8806 -0.8635
  838MOL0     H15616   3.237   3.299   6.567 -0.6344 -0.1166 -0.7847
  838MOL0     H15617   3.369   3.332   6.670  0.4824 -0.7237 -0.3927
  838MOL0     H15618   3.192   3.542   6.537  2.0848 -2.4884 -3.0208
  838MOL0     H15619   3.345   3.581   6.629  0.6956 -1.2022  0.7252
  838MOL0     H15620   3.266   3.506   6.837 -1.3799  0.5747  0.3544
  838MOL0     H15621   3.144   3.416   6.759  1.3896 -0.1851 -0.1636
  838MOL0     H15622   3.044   3.600   6.859  1.4324  0.4395 -0.1829
  838MOL0     H15623   3.026   3.631   6.685 -1.7378  0.9342  1.2280
  838MOL0     H15624   3.768   3.033   6.271 -0.0322 -0.8656 -0.7354
  838MOL0     H15625   3.950   2.911   6.148 -0.6569 -0.6996  0.8477
  838MOL0     H15626   4.252   2.946   5.846  1.9273  1.2943 -2.8374
  838MOL0     H15627   4.399   2.872   5.681 -1.6847  0.3503 -0.0073
  838MOL0     H15628   6.051   2.594   4.569  1.7281  0.2138 -0.2410
  838MOL0     H15629   6.273   2.531   4.664  0.2456  1.3169 -0.2728
  838MOL0     H15630   6.597   2.455   4.911 -0.3116  0.2777  0.3421
  838MOL0     H15631   6.772   2.352   5.035  0.2542  0.2901  1.3412
  838MOL0     H15632   7.004   2.602   5.237  0.6176 -1.1777  0.4115
  838MOL0     H15633   6.950   2.589   5.397  1.8134  0.2791 -0.2736
  838MOL0     H15634   7.181   2.494   5.367  0.0968 -0.0949 -2.3679
  838MOL0     H15635   7.106   2.357   5.288  0.8102 -1.6414  1.1453
  838MOL0     H15636   7.032   2.465   5.569  0.2489 -1.3084  1.0600
  838MOL0     H15637   6.974   2.318   5.496  0.2120 -0.1044 -0.8301
  838MOL0     H15638   7.276   2.384   5.540  0.0157  1.4731 -0.5077
  838MOL0     H15639   7.208   2.223   5.500 -5.7005 -1.4086  1.9396
  838MOL0     H15640   7.172   2.220   5.905 -3.2386 -2.1274  0.4637
  838MOL0     H15641   6.715   2.622   5.351  0.0010  3.8198 -1.6845
  838MOL0     H15642   6.392   2.700   5.267  0.5362 -0.6916 -0.0430
  838MOL0     H15643   6.500   2.714   5.389  0.1687 -1.3837 -1.1146
  838MOL0     H15644   6.500   2.835   5.248  2.0580 -0.7584 -3.1468
  839MOL0     O15645   2.585   1.726   8.315  0.4777  0.1008 -0.3778
  839MOL0     C15646   2.669   1.712   8.407  0.5093  0.3066  0.6367
  839MOL0     O15647   2.684   1.799   8.514 -0.2967  0.1384  1.0409
  839MOL0     C15648   2.643   1.925   8.517  0.9377 -0.6448 -0.1284
  839MOL0     C15649   2.572   1.977   8.628  0.0922  0.0642 -0.1665
  839MOL0     C15650   2.527   2.109   8.624  0.7625 -0.4406 -0.0294
  839MOL0     C15651   2.574   2.194   8.525  0.2001 -0.3593 -0.7152
  839MOL0     O15652   2.547   2.330   8.525 -0.0094 -0.2203  0.0152
  839MOL0     C15653   2.492   2.384   8.653  0.2698  0.8194  0.1843
  839MOL0     C15654   2.481   2.532   8.631 -0.3122 -0.4437  0.1262
  839MOL0     C15655   2.382   2.604   8.728  0.1730  0.5100 -0.1621
  839MOL0     C15656   2.367   2.747   8.701  0.4192 -1.4845 -0.1632
  839MOL0     C15657   2.286   2.841   8.794  0.6894 -0.0496  0.3366
  839MOL0     C15658   2.134   2.838   8.748 -0.5621 -0.3869 -0.2025
  839MOL0     C15659   2.111   2.943   8.645  0.0058 -0.8656 -0.5175
  839MOL0     C15660   1.961   2.946   8.599  0.3326 -0.7775  0.9243
  839MOL0     N15661   1.879   3.002   8.704  0.9911  0.1121 -0.0360
  839MOL0     C15662   1.865   3.134   8.737  0.7313 -0.5563  0.1163
  839MOL0     C15663   1.790   3.131   8.855  0.5886  1.1628 -0.4877
  839MOL0     C15664   1.774   3.242   8.948 -0.0103 -0.0997  0.3449
  839MOL0     C15665   1.878   3.218   9.061 -0.1263  0.4497  0.4575
  839MOL0     C15666   2.011   3.283   9.017  0.2013 -0.3823 -0.9858
  839MOL0     C15667   2.107   3.254   9.134 -0.5731  0.3437  0.3224
  839MOL0     O15668   2.054   3.342   9.239 -0.1827  0.1384 -0.3161
  839MOL0     C15669   2.075   3.307   9.362 -0.8420  0.0947 -0.9066
  839MOL0     C15670   2.051   3.399   9.452 -0.0682 -0.8789 -0.0078
  839MOL0     C15671   2.053   3.379   9.589 -0.3747 -0.4017 -0.2257
  839MOL0     C15672   2.020   3.494   9.682  0.3448  0.2131 -0.1393
  839MOL0     C15673   2.100   3.254   9.633  0.0885  0.0388  0.8518
  839MOL0     C15674   2.125   3.214   9.775 -0.0480 -0.0778  0.0758
  839MOL0     O15675   2.211   3.102   9.790  0.5446 -0.0174  0.1114
  839MOL0     C15676   2.267   3.090   9.914 -0.2148 -0.3902 -1.0165
  839MOL0     C15677   2.217   3.009  10.016 -0.0241 -0.4861  0.4689
  839MOL0     C15678   2.265   3.018  10.144  0.6284  0.4953 -0.4765
  839MOL0     C15679   2.374   3.093  10.183  0.3248  0.1637 -0.5420
  839MOL0     O15680   2.403   3.116  10.318  0.3818 -0.1952  0.0050
  839MOL0     C15681   2.466   2.997  10.375  1.4873  0.5526  0.2944
  839MOL0     C15682   2.609   3.006  10.427 -0.4748 -0.3282  0.3930
  839MOL0     C15683   2.634   3.105  10.544  1.2317 -0.5905 -0.4011
  839MOL0     C15684   2.780   3.116  10.598 -0.6159 -0.0978  0.3997
  839MOL0     C15685   2.847   3.257  10.590 -0.1088 -0.2097  0.4092
  839MOL0     C15686   2.994   3.272  10.591  1.1967 -0.0593 -0.1303
  839MOL0     C15687   3.042   3.206  10.723 -0.5815  0.2664  0.6922
  839MOL0     C15688   3.193   3.236  10.745  0.0834  0.5011  0.9400
  839MOL0    Cl15689   3.279   3.126  10.640 -0.5791 -0.3172 -0.0597
  839MOL0     C15690   2.429   3.169  10.082  0.1866 -0.8296 -0.8964
  839MOL0     C15691   2.379   3.168   9.950  0.2073 -1.3877 -0.7295
  839MOL0     O15692   2.076   3.280   9.871 -0.4419  0.6866 -0.0446
  839MOL0     C15693   2.126   3.148   9.541  0.0094 -0.4338  0.2847
  839MOL0     C15694   2.109   3.178   9.407  0.7051  0.3533 -0.9742
  839MOL0     N15695   1.766   2.995   8.892 -0.1359 -0.4330  0.0020
  839MOL0     N15696   1.818   2.923   8.796 -0.3892  0.7004  0.4278
  839MOL0     C15697   2.643   2.143   8.416  0.0551 -0.2462 -0.3249
  839MOL0     C15698   2.676   2.006   8.410  0.4283 -0.1607  0.6320
  839MOL0     C15699   2.774   1.611   8.394  0.4311  0.1592 -0.1344
  839MOL0     C15700   2.879   1.611   8.488  0.9897 -0.8513  0.1867
  839MOL0     C15701   2.983   1.521   8.487 -0.0078  0.3156  0.0570
  839MOL0     C15702   2.985   1.424   8.391 -0.2797  0.3633  0.7151
  839MOL0     O15703   3.093   1.342   8.397 -0.3733 -0.4554 -0.0516
  839MOL0     C15704   3.193   1.339   8.297  0.0717 -0.4665  0.8817
  839MOL0     C15705   3.266   1.478   8.292  0.2568 -0.1849 -0.4098
  839MOL0     C15706   3.382   1.477   8.195  0.7260  0.3458 -0.2451
  839MOL0     C15707   3.342   1.440   8.054  0.0078 -0.6721  0.2846
  839MOL0     C15708   3.443   1.500   7.954  0.8138  0.5219 -0.0028
  839MOL0     C15709   3.525   1.521   7.865 -0.4746  0.7635 -0.6868
  839MOL0     C15710   2.892   1.422   8.294  0.1813  0.1769  0.1417
  839MOL0     C15711   2.782   1.516   8.294 -0.8660 -0.7064  0.1789
  839MOL0     C15712   2.688   1.500   8.180  0.3117  0.6316  0.4992
  839MOL0     H15713   2.536   1.926   8.717 -0.1132 -0.0594 -0.3169
  839MOL0     H15714   2.473   2.147   8.711 -1.0098 -0.5466 -1.0256
  839MOL0     H15715   2.560   2.364   8.736  0.5975 -0.3175 -0.3387
  839MOL0     H15716   2.393   2.345   8.675  1.0223 -0.9922  0.5046
  839MOL0     H15717   2.579   2.579   8.639 -1.7088  3.0923 -1.7266
  839MOL0     H15718   2.450   2.542   8.527 -1.5185 -4.1641 -0.0491
  839MOL0     H15719   2.284   2.554   8.723  1.0882 -1.3853 -0.0495
  839MOL0     H15720   2.413   2.586   8.831 -0.3835 -0.4580 -0.1513
  839MOL0     H15721   2.470   2.784   8.706  0.6046 -1.8034 -1.2649
  839MOL0     H15722   2.353   2.770   8.595  2.2876  2.4135  0.2406
  839MOL0     H15723   2.322   2.944   8.790 -0.7512  0.4396 -0.6790
  839MOL0     H15724   2.279   2.793   8.891 -0.3578 -4.6646 -1.7489
  839MOL0     H15725   2.098   2.738   8.722  2.6789 -1.2103 -2.1655
  839MOL0     H15726   2.074   2.870   8.833 -0.9983 -1.9512  0.1124
  839MOL0     H15727   2.171   2.923   8.556  1.5314 -0.4453  0.3777
  839MOL0     H15728   2.126   3.046   8.680  0.4069  0.1828 -3.5367
  839MOL0     H15729   1.956   3.014   8.513  0.8157 -0.8824  0.8101
  839MOL0     H15730   1.918   2.848   8.574 -2.0891  0.3869  0.1296
  839MOL0     H15731   1.905   3.216   8.680  0.0365  0.6681  1.3214
  839MOL0     H15732   1.672   3.258   8.985 -0.3938  3.3125 -1.7336
  839MOL0     H15733   1.796   3.334   8.892 -0.4377  0.0854  0.4754
  839MOL0     H15734   1.835   3.265   9.149 -1.9097 -0.2777  0.0254
  839MOL0     H15735   1.900   3.113   9.084  2.4801  0.9983  0.7787
  839MOL0     H15736   2.053   3.246   8.923  0.8763  2.0466 -1.6861
  839MOL0     H15737   2.001   3.391   9.006 -0.2496 -0.3196 -0.0446
  839MOL0     H15738   2.093   3.147   9.147 -2.9932  0.2564 -2.1349
  839MOL0     H15739   2.213   3.267   9.109 -0.9417 -0.6666 -2.0884
  839MOL0     H15740   2.011   3.495   9.420  0.5779 -1.3003 -2.2385
  839MOL0     H15741   2.065   3.584   9.639  0.4268  0.1599 -0.1653
  839MOL0     H15742   2.063   3.499   9.782 -1.2474 -2.9702  0.8536
  839MOL0     H15743   1.911   3.496   9.695 -0.3043 -1.5101 -3.8601
  839MOL0     H15744   2.132   2.942  10.007 -2.1249  1.8213  1.5964
  839MOL0     H15745   2.207   2.954  10.211  1.7666  1.2982  1.3690
  839MOL0     H15746   2.402   2.957  10.455  3.5837  0.7572  2.1622
  839MOL0     H15747   2.462   2.912  10.307  1.4410  0.1381  0.8092
  839MOL0     H15748   2.639   2.904  10.453 -1.9954 -0.9280 -0.0666
  839MOL0     H15749   2.670   3.049  10.347  0.9703  3.2456  3.1340
  839MOL0     H15750   2.568   3.076  10.626 -0.7896 -0.5755 -1.9687
  839MOL0     H15751   2.603   3.204  10.511 -4.7743 -0.2570  4.5707
  839MOL0     H15752   2.839   3.048  10.536  0.1289  1.6469 -0.9077
  839MOL0     H15753   2.787   3.092  10.704 -1.5933  0.5485  0.6232
  839MOL0     H15754   2.805   3.311  10.505 -1.8174 -1.9985  0.0350
  839MOL0     H15755   2.804   3.319  10.670 -2.3079 -2.3054  0.9912
  839MOL0     H15756   3.036   3.369  10.565  1.2917 -0.2454 -0.7026
  839MOL0     H15757   3.012   3.213  10.500 -1.5889  0.7347 -1.3055
  839MOL0     H15758   3.017   3.100  10.721  3.4788 -0.8393 -1.0102
  839MOL0     H15759   2.990   3.250  10.809  0.8538 -0.4770  1.9696
  839MOL0     H15760   3.218   3.235  10.852  1.2936  0.5101  0.6687
  839MOL0     H15761   3.214   3.341  10.720  4.0465 -0.8011 -2.2563
  839MOL0     H15762   2.520   3.223  10.105  0.2874 -1.5353  0.4975
  839MOL0     H15763   2.410   3.234   9.869 -0.1344 -1.4731 -0.9285
  839MOL0     H15764   2.158   3.050   9.574  2.1172  0.4488  1.0719
  839MOL0     H15765   2.137   3.092   9.346  2.1989  0.0590  0.0709
  839MOL0     H15766   2.671   2.208   8.334  1.9900  0.4888  0.8574
  839MOL0     H15767   2.725   1.970   8.320 -1.0316  0.4871 -0.4656
  839MOL0     H15768   2.878   1.687   8.565 -3.8470  1.9844 -2.1598
  839MOL0     H15769   3.060   1.532   8.563 -0.5537 -0.7657  0.7856
  839MOL0     H15770   3.266   1.258   8.306 -0.8439 -1.5220 -0.6189
  839MOL0     H15771   3.135   1.305   8.210 -1.3221  1.8671  0.8230
  839MOL0     H15772   3.295   1.506   8.394 -2.6343 -2.9106  1.4073
  839MOL0     H15773   3.188   1.545   8.257 -2.1160 -3.8434 -2.9111
  839MOL0     H15774   3.429   1.575   8.204  0.8283  0.1790  1.3049
  839MOL0     H15775   3.445   1.400   8.241 -1.1053 -0.6583  0.7492
  839MOL0     H15776   3.245   1.482   8.029 -0.3077 -0.4365  1.8347
  839MOL0     H15777   3.327   1.333   8.033 -0.9065 -0.3509 -0.7717
  839MOL0     H15778   3.602   1.543   7.794  1.1872  0.1455  0.8389
  839MOL0     H15779   2.881   1.339   8.224 -0.7526 -0.7649  1.3707
  839MOL0     H15780   2.585   1.500   8.216  1.1363 -2.0259  3.2415
  839MOL0     H15781   2.718   1.578   8.109  0.8315  0.9594  1.0644
  839MOL0     H15782   2.699   1.402   8.133  0.2175  0.5724  0.6004
  840MOL0     O15783   5.361   4.315   4.174  1.0198 -0.1214 -0.7353
  840MOL0     C15784   5.245   4.286   4.150  0.1877  0.6917 -0.1617
  840MOL0     O15785   5.184   4.159   4.165  0.0604  0.7118 -0.4149
  840MOL0     C15786   5.251   4.052   4.215  0.5507  0.5544 -0.5343
  840MOL0     C15787   5.227   3.918   4.165 -0.3895  0.1968  1.7320
  840MOL0     C15788   5.283   3.810   4.222 -0.0049 -0.1816 -0.0421
  840MOL0     C15789   5.371   3.827   4.329 -0.3868  0.8945 -0.3345
  840MOL0     O15790   5.442   3.723   4.375  0.5128 -0.0471 -1.1298
  840MOL0     C15791   5.502   3.643   4.278 -0.0759  0.3574 -0.2978
  840MOL0     C15792   5.598   3.545   4.345  0.1426  0.1944  0.3561
  840MOL0     C15793   5.673   3.468   4.242  0.0432  0.3824  0.2874
  840MOL0     C15794   5.745   3.340   4.306 -0.5658  0.7652  0.1097
  840MOL0     C15795   5.830   3.269   4.205 -0.2047  0.5160  0.3255
  840MOL0     C15796   5.975   3.330   4.194  0.0398  0.7416  0.9853
  840MOL0     C15797   6.051   3.282   4.319  0.0716 -0.3950  0.9020
  840MOL0     C15798   6.161   3.376   4.353 -0.3848 -0.1406  0.4751
  840MOL0     N15799   6.104   3.500   4.409 -0.3006 -0.0738  0.1822
  840MOL0     C15800   6.051   3.514   4.534  0.3356  0.0016  0.6483
  840MOL0     C15801   6.054   3.646   4.561  0.5071 -0.7945  0.8936
  840MOL0     C15802   6.006   3.721   4.683  0.1320 -0.1246 -0.1984
  840MOL0     C15803   6.131   3.764   4.780  0.6988 -1.6682 -0.3978
  840MOL0     C15804   6.215   3.655   4.844  1.0988 -0.6072  0.2567
  840MOL0     C15805   6.134   3.533   4.905 -0.3998 -0.2975  0.6694
  840MOL0     O15806   6.223   3.456   4.989 -0.6352  0.4811 -0.0563
  840MOL0     C15807   6.326   3.391   4.928 -0.3569 -0.5931  0.4538
  840MOL0     C15808   6.416   3.332   5.007 -0.3518  0.4838 -0.2225
  840MOL0     C15809   6.543   3.272   4.974 -0.8940  0.9109 -0.4788
  840MOL0     C15810   6.627   3.214   5.084 -0.6432  0.1482 -0.5022
  840MOL0     C15811   6.572   3.260   4.839 -0.7597  0.0792 -0.2853
  840MOL0     C15812   6.689   3.199   4.795 -0.1210  0.2847  0.2440
  840MOL0     O15813   6.794   3.284   4.784 -0.5872  0.1056 -0.0536
  840MOL0     C15814   6.906   3.241   4.710 -1.4496  0.3327  0.2716
  840MOL0     C15815   6.996   3.144   4.755 -0.0021  0.8986  0.6681
  840MOL0     C15816   7.106   3.110   4.678  0.6659 -0.0317 -1.0643
  840MOL0     C15817   7.119   3.171   4.547  0.2609  0.7183 -0.1544
  840MOL0     O15818   7.230   3.146   4.473  0.0027  0.8050 -0.2322
  840MOL0     C15819   7.352   3.130   4.549  0.2232  0.9209 -0.6780
  840MOL0     C15820   7.408   3.264   4.589 -0.2797  0.6458 -0.3431
  840MOL0     C15821   7.445   3.358   4.480  0.2299  0.6091 -1.3548
  840MOL0     C15822   7.551   3.292   4.398 -0.4839 -0.4004  0.4745
  840MOL0     C15823   7.621   3.386   4.309 -0.0919 -0.1541  0.5452
  840MOL0     C15824   7.709   3.494   4.377  0.0467 -0.6984  0.0056
  840MOL0     C15825   7.759   3.604   4.285  0.1773  0.5627 -0.0807
  840MOL0     C15826   7.728   3.747   4.349 -0.0638  0.5326 -0.4223
  840MOL0    Cl15827   7.813   3.779   4.519 -0.1962 -0.6493  0.1250
  840MOL0     C15828   7.022   3.260   4.498 -0.1933  0.2227  0.5375
  840MOL0     C15829   6.914   3.296   4.585  0.0566 -0.2386  1.0398
  840MOL0     O15830   6.681   3.076   4.759  0.5895 -0.5206  0.1735
  840MOL0     C15831   6.474   3.305   4.744  0.2873 -0.0896 -0.3186
  840MOL0     C15832   6.356   3.378   4.791  0.4015  0.2306  0.0964
  840MOL0     N15833   6.109   3.715   4.450  0.3875  1.0808 -0.3572
  840MOL0     N15834   6.143   3.621   4.365 -0.1686 -0.9064  0.1983
  840MOL0     C15835   5.390   3.954   4.387  0.2222  0.3861  0.0873
  840MOL0     C15836   5.332   4.063   4.331  0.4695 -0.0103  0.4946
  840MOL0     C15837   5.171   4.386   4.081  0.0313  0.6763 -0.8229
  840MOL0     C15838   5.091   4.339   3.976  0.3279 -0.4514  0.4005
  840MOL0     C15839   5.005   4.424   3.905  0.3638  0.2280 -0.3324
  840MOL0     C15840   4.990   4.555   3.946 -1.1132  0.4318  0.4481
  840MOL0     O15841   4.902   4.635   3.878 -0.1634  0.3011  0.1076
  840MOL0     C15842   4.958   4.687   3.759 -0.6478 -0.2812 -1.0201
  840MOL0     C15843   4.898   4.824   3.729  0.3930  0.3044 -0.1797
  840MOL0     C15844   4.934   4.853   3.586 -0.1575  0.4545 -0.9780
  840MOL0     C15845   4.899   4.992   3.542  0.9835 -0.5120 -0.3975
  840MOL0     C15846   4.788   5.051   3.614  0.2169 -0.1674  0.1713
  840MOL0     C15847   4.687   5.085   3.676  0.4256  0.2757  0.2771
  840MOL0     C15848   5.068   4.603   4.057 -0.9667  0.2734 -0.2932
  840MOL0     C15849   5.166   4.522   4.123  0.1998  0.0881  0.0172
  840MOL0     C15850   5.237   4.582   4.240  0.6845 -0.2909 -0.7159
  840MOL0     H15851   5.168   3.922   4.074  1.1085  1.1377  0.7515
  840MOL0     H15852   5.247   3.711   4.196  0.9659 -0.3234 -0.8548
  840MOL0     H15853   5.554   3.705   4.203 -2.2127 -1.7326 -3.7330
  840MOL0     H15854   5.431   3.583   4.221  0.0870 -1.2536  1.1456
  840MOL0     H15855   5.670   3.607   4.399 -0.1620 -0.7060  1.8622
  840MOL0     H15856   5.549   3.485   4.423  0.9123  2.9305  3.1368
  840MOL0     H15857   5.610   3.437   4.158  0.5264  0.2545 -0.0376
  840MOL0     H15858   5.749   3.531   4.193 -0.4051 -1.2616 -2.7580
  840MOL0     H15859   5.797   3.357   4.401  2.4775 -2.2002 -0.8131
  840MOL0     H15860   5.660   3.276   4.329  0.0769  0.1376  0.7815
  840MOL0     H15861   5.785   3.275   4.106  3.5590 -0.0775 -1.6168
  840MOL0     H15862   5.836   3.163   4.235 -3.0167 -0.1321 -1.1189
  840MOL0     H15863   6.023   3.289   4.105  0.1143  2.7914  0.0268
  840MOL0     H15864   5.971   3.437   4.174 -1.2107  0.3674 -1.0373
  840MOL0     H15865   6.087   3.179   4.307 -3.9737 -1.7629 -2.0322
  840MOL0     H15866   5.990   3.285   4.410  0.3407 -0.2491  1.0773
  840MOL0     H15867   6.226   3.335   4.431  0.9930  0.5300 -0.2731
  840MOL0     H15868   6.227   3.394   4.267 -1.2324  0.0063 -0.1598
  840MOL0     H15869   6.028   3.433   4.602  1.2479 -1.4895 -0.7686
  840MOL0     H15870   5.938   3.661   4.743 -0.9560  0.9990 -0.2587
  840MOL0     H15871   5.950   3.811   4.654 -0.5133 -0.8450 -1.2683
  840MOL0     H15872   6.205   3.818   4.720  1.3065 -3.8140 -1.6657
  840MOL0     H15873   6.098   3.829   4.862 -0.3456 -1.4382 -0.9721
  840MOL0     H15874   6.288   3.614   4.773  1.3273 -0.6431  0.5076
  840MOL0     H15875   6.275   3.704   4.920 -0.0996 -0.7714  1.3353
  840MOL0     H15876   6.049   3.564   4.967 -0.3999 -0.1033  0.5727
  840MOL0     H15877   6.096   3.467   4.826  1.4620  0.4703 -0.9427
  840MOL0     H15878   6.386   3.316   5.110 -1.0483 -0.5490 -0.5754
  840MOL0     H15879   6.736   3.214   5.068 -0.4263 -3.0026  0.3626
  840MOL0     H15880   6.586   3.118   5.116 -0.2290  0.5479  1.3272
  840MOL0     H15881   6.618   3.287   5.165  3.2994  2.0032 -1.4719
  840MOL0     H15882   6.982   3.111   4.857  2.0157  3.1422  1.7863
  840MOL0     H15883   7.163   3.028   4.722 -1.0045  0.4072  2.2013
  840MOL0     H15884   7.353   3.058   4.632  0.5397 -0.3992 -1.7926
  840MOL0     H15885   7.433   3.081   4.494  0.8000  0.2185  0.7355
  840MOL0     H15886   7.332   3.317   4.646  1.1135 -0.7385  3.0969
  840MOL0     H15887   7.497   3.251   4.651  2.7000  1.0489 -4.1752
  840MOL0     H15888   7.478   3.449   4.531 -0.0393 -1.1783  2.2747
  840MOL0     H15889   7.363   3.387   4.413 -1.3860  0.4233  0.4442
  840MOL0     H15890   7.501   3.211   4.344 -0.8309  1.4726 -2.2105
  840MOL0     H15891   7.627   3.261   4.471 -1.0398 -0.7143  0.9288
  840MOL0     H15892   7.689   3.330   4.244 -1.0353 -0.1663 -0.4618
  840MOL0     H15893   7.545   3.435   4.248  1.1361  1.5612  0.2887
  840MOL0     H15894   7.796   3.439   4.413  0.5802  0.2819  0.2562
  840MOL0     H15895   7.656   3.527   4.467 -0.1543  2.3861 -1.1326
  840MOL0     H15896   7.704   3.596   4.190 -0.2120  1.0158  0.1030
  840MOL0     H15897   7.864   3.579   4.269 -0.0639 -2.1132  1.8699
  840MOL0     H15898   7.620   3.756   4.359 -0.1877  2.5197 -2.5336
  840MOL0     H15899   7.763   3.822   4.277  3.0084  1.4946  1.8198
  840MOL0     H15900   7.036   3.285   4.393  0.4628  0.3963  0.6619
  840MOL0     H15901   6.839   3.360   4.539  2.3676  1.9675  0.0756
  840MOL0     H15902   6.485   3.305   4.636 -0.8083  3.2050 -0.5445
  840MOL0     H15903   6.285   3.408   4.715 -1.2053  1.7440  2.1190
  840MOL0     H15904   5.465   3.969   4.464 -0.0689 -1.6216  0.8259
  840MOL0     H15905   5.358   4.159   4.374  0.9149 -0.2128  0.6860
  840MOL0     H15906   5.109   4.236   3.948 -3.6652 -1.2384  0.2207
  840MOL0     H15907   4.941   4.392   3.823  0.9845  1.0699 -1.1730
  840MOL0     H15908   5.067   4.687   3.763 -0.5790  2.3868 -1.0582
  840MOL0     H15909   4.921   4.631   3.672 -1.4740 -0.3073 -0.6634
  840MOL0     H15910   4.935   4.900   3.798 -3.3787  1.3815  0.8748
  840MOL0     H15911   4.789   4.816   3.736  0.2961  1.4756 -0.1548
  840MOL0     H15912   5.040   4.828   3.575 -0.0606  0.0407  0.6796
  840MOL0     H15913   4.881   4.780   3.525  2.7351 -1.9363 -0.8409
  840MOL0     H15914   4.871   4.990   3.436  0.6761  0.9615 -0.3626
  840MOL0     H15915   4.989   5.053   3.544 -0.2510  1.5069  3.2168
  840MOL0     H15916   4.600   5.115   3.732 -1.0511 -3.0812  0.0382
  840MOL0     H15917   5.054   4.705   4.092 -1.9335 -0.4770  1.7244
  840MOL0     H15918   5.341   4.605   4.217  1.2086 -1.9555 -0.1072
  840MOL0     H15919   5.178   4.668   4.272 -2.0896 -2.2511 -0.2173
  840MOL0     H15920   5.244   4.519   4.329 -3.0537  0.0294 -0.0069
  841MOL0     O15921   0.397   2.258  10.364  0.2008  0.2786  0.1661
  841MOL0     C15922   0.347   2.359  10.401  0.9981 -0.0713  0.1123
  841MOL0     O15923   0.295   2.371  10.526 -0.1644  0.6353 -0.8595
  841MOL0     C15924   0.330   2.264  10.618  1.6104 -0.1824  0.4033
  841MOL0     C15925   0.224   2.198  10.675  0.0229  0.4522  0.7664
  841MOL0     C15926   0.246   2.108  10.782  0.9199  0.0251 -0.5299
  841MOL0     C15927   0.383   2.083  10.818  0.4348  0.2230  0.4403
  841MOL0     O15928   0.432   2.009  10.925 -0.1192  0.4268 -0.0602
  841MOL0     C15929   0.364   2.004  11.046 -0.1011  0.4093  1.2012
  841MOL0     C15930   0.456   1.954  11.171 -0.6865 -0.0626 -0.0044
  841MOL0     C15931   0.566   2.050  11.211  0.4601  0.3737  0.5087
  841MOL0     C15932   0.679   1.982  11.292 -0.1347 -0.4331  0.4305
  841MOL0     C15933   0.814   2.066  11.287  1.3822 -0.3634  0.0690
  841MOL0     C15934   0.929   1.994  11.360 -0.3940  0.0437  0.4774
  841MOL0     C15935   1.053   2.080  11.379 -0.7651 -0.3390 -0.1506
  841MOL0     C15936   1.170   1.999  11.444  0.8778 -0.3853  0.4781
  841MOL0     N15937   1.250   1.906  11.365 -0.1891 -0.6689  0.5912
  841MOL0     C15938   1.237   1.883  11.236 -0.1450  0.2117  0.4336
  841MOL0     C15939   1.342   1.797  11.210 -0.1693 -0.4430  0.5902
  841MOL0     C15940   1.366   1.719  11.081  0.3836  0.4119  0.0367
  841MOL0     C15941   1.297   1.581  11.077  0.2704 -0.1961 -0.6862
  841MOL0     C15942   1.378   1.475  10.990  0.0992  0.3953  0.4320
  841MOL0     C15943   1.322   1.335  10.980  0.6339 -0.0309  0.1418
  841MOL0     O15944   1.366   1.249  11.092  0.0675 -0.4452 -0.9491
  841MOL0     C15945   1.344   1.113  11.086  0.6221  0.5168  0.3650
  841MOL0     C15946   1.351   1.042  11.210 -1.0264 -0.0360 -0.7057
  841MOL0     C15947   1.328   0.900  11.216 -0.7763  0.5995 -0.0421
  841MOL0     C15948   1.374   0.838  11.353  0.6618 -0.4523 -0.1010
  841MOL0     C15949   1.310   0.828  11.094 -0.7426 -0.1535 -0.5838
  841MOL0     C15950   1.292   0.684  11.089 -0.6402  0.3939 -0.8304
  841MOL0     O15951   1.198   0.636  11.013 -0.2560 -0.5919 -0.4610
  841MOL0     C15952   1.136   0.522  11.038  0.7865  0.2915 -0.9822
  841MOL0     C15953   1.203   0.399  11.046  0.6153  0.0179  0.9484
  841MOL0     C15954   1.130   0.276  11.061 -0.1838 -0.3323  0.1076
  841MOL0     C15955   0.990   0.278  11.067  0.3048 -1.5742  0.9114
  841MOL0     O15956   0.917   0.169  11.085 -0.0500  0.1809  0.4081
  841MOL0     C15957   0.986   0.071  11.164 -0.2069  0.0213 -0.2798
  841MOL0     C15958   0.882  -0.018  11.221 -0.0495  0.4004 -0.1186
  841MOL0     C15959   0.767   0.043  11.296 -0.0085  0.5285 -0.1629
  841MOL0     C15960   0.807   0.129  11.414 -0.5453  0.3659  0.6273
  841MOL0     C15961   0.709   0.132  11.528  0.7272  0.1403 -0.4108
  841MOL0     C15962   0.578   0.216  11.495 -0.1581 -0.0485 -0.1384
  841MOL0     C15963   0.495   0.243  11.621  0.4024 -0.6645  1.0854
  841MOL0     C15964   0.396   0.354  11.581 -0.4064  0.5213  0.3886
  841MOL0    Cl15965   0.235   0.316  11.661 -0.3748 -0.2805  0.0645
  841MOL0     C15966   0.923   0.398  11.063  0.4660 -0.0931  0.0311
  841MOL0     C15967   0.998   0.521  11.052  0.2399  0.9480  0.6342
  841MOL0     O15968   1.351   0.610  11.169 -0.0604 -0.2459  0.5646
  841MOL0     C15969   1.298   0.899  10.975  0.7455  0.1933  0.0239
  841MOL0     C15970   1.307   1.035  10.976 -0.6863  0.2006  0.2729
  841MOL0     N15971   1.412   1.777  11.321  0.0877 -0.4957 -0.4263
  841MOL0     N15972   1.347   1.832  11.417  0.0539 -0.7438 -0.5763
  841MOL0     C15973   0.486   2.139  10.736  0.3367  0.0105  0.6056
  841MOL0     C15974   0.457   2.231  10.640 -0.2126 -0.7020 -1.2080
  841MOL0     C15975   0.313   2.466  10.302 -0.7963  0.6338  0.3744
  841MOL0     C15976   0.361   2.451  10.170 -0.1738  0.0093 -0.6578
  841MOL0     C15977   0.327   2.535  10.068  0.7336  0.2283  0.8803
  841MOL0     C15978   0.251   2.653  10.099  0.1408 -0.4120 -0.3165
  841MOL0     O15979   0.217   2.751  10.009 -0.3578  0.1838  0.4977
  841MOL0     C15980   0.279   2.752   9.872 -0.1428  0.1506 -0.0499
  841MOL0     C15981   0.251   2.883   9.807  0.8830 -0.7601  0.6094
  841MOL0     C15982   0.301   3.002   9.879 -0.1129  0.2818 -0.2941
  841MOL0     C15983   0.181   3.068   9.952 -0.8069  0.3133 -0.6119
  841MOL0     C15984   0.084   3.135   9.867 -0.2067 -0.4877  0.6122
  841MOL0     C15985   0.013   3.173   9.779  0.9946 -0.4932 -0.3315
  841MOL0     C15986   0.214   2.677  10.232  0.3790  0.6242 -0.0828
  841MOL0     C15987   0.236   2.580  10.336 -0.0665 -0.7639  0.5838
  841MOL0     C15988   0.191   2.621  10.474  0.1655 -0.3074 -0.4470
  841MOL0     H15989   0.124   2.212  10.634  0.0772 -2.9082 -0.8825
  841MOL0     H15990   0.166   2.055  10.833  2.4411 -2.2190 -0.3424
  841MOL0     H15991   0.277   1.938  11.030  0.2867 -0.6690  3.1871
  841MOL0     H15992   0.318   2.100  11.071  0.7387  0.8030  1.2291
  841MOL0     H15993   0.396   1.922  11.257 -0.0166  0.4605  0.6691
  841MOL0     H15994   0.510   1.865  11.138  0.1815  0.5085 -0.1525
  841MOL0     H15995   0.593   2.098  11.116 -1.9520  0.2007 -0.3206
  841MOL0     H15996   0.524   2.133  11.269 -0.0428  1.4048 -1.2367
  841MOL0     H15997   0.650   1.977  11.398  1.6192  3.0879  1.2378
  841MOL0     H15998   0.696   1.878  11.265  0.2226  0.3369 -2.6261
  841MOL0     H15999   0.809   2.165  11.333 -0.4495  1.0927 -2.8960
  841MOL0     H16000   0.822   2.091  11.181 -1.7279  2.1665  0.2682
  841MOL0     H16001   0.897   1.965  11.461  1.1219 -0.2045  0.9015
  841MOL0     H16002   0.941   1.903  11.301 -3.5700  0.6407 -1.3778
  841MOL0     H16003   1.035   2.167  11.444  3.4590  1.8880 -1.5626
  841MOL0     H16004   1.082   2.113  11.279  1.1359 -2.5154 -0.4116
  841MOL0     H16005   1.240   2.066  11.495  0.3443  0.6869 -0.1718
  841MOL0     H16006   1.116   1.939  11.518 -0.5328  0.7538  0.4206
  841MOL0     H16007   1.151   1.906  11.174 -0.0103 -0.3863  0.0188
  841MOL0     H16008   1.475   1.710  11.083  0.3940  0.6462  1.1207
  841MOL0     H16009   1.338   1.778  10.994 -2.4579 -2.6004 -1.2860
  841MOL0     H16010   1.288   1.541  11.179 -2.4396  0.2743 -0.6692
  841MOL0     H16011   1.193   1.594  11.047 -1.1040 -2.1342  2.6027
  841MOL0     H16012   1.395   1.520  10.891  0.8132 -1.0966 -0.1632
  841MOL0     H16013   1.482   1.467  11.023  0.9919  0.8192 -2.0250
  841MOL0     H16014   1.213   1.333  10.977  0.4675 -4.1702  1.8499
  841MOL0     H16015   1.360   1.295  10.885  1.4507  0.4375  0.2608
  841MOL0     H16016   1.387   1.086  11.302 -3.2300 -0.2606  0.3136
  841MOL0     H16017   1.288   0.808  11.413  1.9595 -1.8430  1.1334
  841MOL0     H16018   1.419   0.921  11.409 -2.9061  2.6974 -1.4450
  841MOL0     H16019   1.452   0.763  11.342  1.2468  0.2357 -0.7146
  841MOL0     H16020   1.311   0.388  11.042  0.4783 -1.1135 -0.0371
  841MOL0     H16021   1.180   0.179  11.060 -0.5505 -0.5224 -0.0231
  841MOL0     H16022   1.047   0.007  11.100 -2.0154  1.9217 -4.2936
  841MOL0     H16023   1.045   0.111  11.246  1.1130  0.0034 -1.1961
  841MOL0     H16024   0.849  -0.079  11.137 -2.0474 -0.4877  1.2218
  841MOL0     H16025   0.924  -0.104  11.274 -1.3159 -0.5375 -0.5915
  841MOL0     H16026   0.703  -0.041  11.324  1.9676 -0.5967  1.2360
  841MOL0     H16027   0.704   0.108  11.234  1.4478  4.4199  2.0111
  841MOL0     H16028   0.825   0.233  11.388  0.5863 -0.2841 -1.3986
  841MOL0     H16029   0.895   0.084  11.460  1.0083  2.2345 -0.3884
  841MOL0     H16030   0.689   0.029  11.559  1.9570 -1.1205 -3.3758
  841MOL0     H16031   0.755   0.190  11.608 -3.0322  4.3064 -0.8525
  841MOL0     H16032   0.525   0.163  11.415  0.6044 -1.4630  0.2413
  841MOL0     H16033   0.611   0.313  11.457  2.2747 -0.2217  1.3298
  841MOL0     H16034   0.557   0.281  11.703  0.5226  2.0516 -0.1763
  841MOL0     H16035   0.446   0.151  11.655 -0.1792 -1.2496 -1.1127
  841MOL0     H16036   0.377   0.346  11.474 -2.2594  0.4536  0.6975
  841MOL0     H16037   0.437   0.454  11.595  3.6355 -0.9219  0.2198
  841MOL0     H16038   0.815   0.391  11.064  0.4364 -0.8410  2.9276
  841MOL0     H16039   0.936   0.609  11.039 -1.3926 -0.4396 -1.4640
  841MOL0     H16040   1.279   0.863  10.874 -2.7908  2.5279 -0.3304
  841MOL0     H16041   1.295   1.092  10.884  1.2472 -0.5237 -0.4952
  841MOL0     H16042   0.590   2.123  10.763 -0.0923 -1.9554  1.2587
  841MOL0     H16043   0.535   2.272  10.576  1.5764 -1.7064  0.2498
  841MOL0     H16044   0.426   2.365  10.154  2.0905  1.3333  0.8093
  841MOL0     H16045   0.359   2.508   9.968 -0.5451  1.2872  0.1377
  841MOL0     H16046   0.387   2.734   9.870  0.2519  2.0201  1.3736
  841MOL0     H16047   0.220   2.677   9.818  1.8022 -1.9984  0.6037
  841MOL0     H16048   0.144   2.905   9.797  1.3823  1.6670 -0.2863
  841MOL0     H16049   0.278   2.882   9.701  2.7858 -1.7372  1.0575
  841MOL0     H16050   0.361   2.974   9.966  1.4380  3.2394 -0.2786
  841MOL0     H16051   0.347   3.079   9.816 -1.2092  0.9741 -0.2821
  841MOL0     H16052   0.226   3.141  10.020  0.6677 -1.3753  0.2832
  841MOL0     H16053   0.131   2.981   9.997 -0.2945  1.3990  2.2502
  841MOL0     H16054  -0.049   3.200   9.695  1.1080 -0.9330 -0.5610
  841MOL0     H16055   0.157   2.766  10.257 -1.8610 -0.8471  0.4163
  841MOL0     H16056   0.269   2.645  10.546 -1.4517 -3.2247  2.5593
  841MOL0     H16057   0.120   2.705  10.475  2.5040  1.8249 -1.9937
  841MOL0     H16058   0.133   2.535  10.509 -1.4858  0.0748 -2.0492
  842MOL0     O16059   0.762   0.034   9.313  0.2246 -0.3822 -0.8219
  842MOL0     C16060   0.675  -0.047   9.287  1.3984  0.8173 -0.1030
  842MOL0     O16061   0.700  -0.176   9.260  0.3427 -0.5252  0.6127
  842MOL0     C16062   0.825  -0.219   9.231 -0.1630 -0.0159 -0.4578
  842MOL0     C16063   0.906  -0.286   9.326  0.4584  0.2128 -0.3204
  842MOL0     C16064   1.039  -0.333   9.311 -0.4541 -0.4635 -0.4650
  842MOL0     C16065   1.081  -0.328   9.173  0.5994 -0.6642  0.8354
  842MOL0     O16066   1.207  -0.384   9.160  0.1299  0.0132  0.7855
  842MOL0     C16067   1.300  -0.319   9.062 -0.8632  0.2542 -0.7054
  842MOL0     C16068   1.445  -0.363   9.084  0.1057  0.7390  0.2795
  842MOL0     C16069   1.482  -0.481   8.986 -0.4874  0.2162 -0.7647
  842MOL0     C16070   1.627  -0.533   9.016 -0.3449 -0.1043 -0.2112
  842MOL0     C16071   1.655  -0.666   8.953 -0.5839 -0.4091 -0.0370
  842MOL0     C16072   1.786  -0.639   8.869 -0.5221 -1.3733  0.3925
  842MOL0     C16073   1.851  -0.768   8.822 -0.6351  0.0530 -0.1556
  842MOL0     C16074   1.998  -0.738   8.800  0.0093 -0.5915 -0.0708
  842MOL0     N16075   2.077  -0.840   8.732  0.5888  0.0562 -0.8552
  842MOL0     C16076   2.039  -0.971   8.731  0.7078 -0.6255 -0.0680
  842MOL0     C16077   2.132  -1.025   8.647 -1.0425  0.2321  0.5272
  842MOL0     C16078   2.119  -1.176   8.610 -0.3644 -0.5362 -0.1411
  842MOL0     C16079   2.017  -1.198   8.499  0.2070 -0.2416 -0.8312
  842MOL0     C16080   2.000  -1.346   8.458 -0.1702  0.2218 -0.0855
  842MOL0     C16081   1.914  -1.419   8.569 -0.5928  0.7531 -0.1030
  842MOL0     O16082   1.783  -1.355   8.607 -0.7298 -0.2704 -0.1584
  842MOL0     C16083   1.764  -1.281   8.727  0.2845 -0.2899  0.0050
  842MOL0     C16084   1.843  -1.289   8.848 -1.0248 -0.4243  0.2114
  842MOL0     C16085   1.817  -1.214   8.972 -0.7577 -0.0388 -0.1515
  842MOL0     C16086   1.931  -1.227   9.078 -0.0068  0.5746 -0.5312
  842MOL0     C16087   1.693  -1.144   8.978  0.3022  0.8033 -0.8843
  842MOL0     C16088   1.640  -1.065   9.090 -0.8712 -0.5681  0.2446
  842MOL0     O16089   1.543  -0.979   9.071  0.2058 -0.7442  0.1107
  842MOL0     C16090   1.471  -0.932   9.181  0.6802 -0.4084  0.0708
  842MOL0     C16091   1.422  -0.801   9.182  0.0278 -0.0617 -0.6944
  842MOL0     C16092   1.347  -0.741   9.284 -0.2026 -0.3180  0.8401
  842MOL0     C16093   1.315  -0.806   9.400 -0.0235 -1.0698  0.7491
  842MOL0     O16094   1.237  -0.728   9.494  0.2593  0.1433  0.0137
  842MOL0     C16095   1.203  -0.790   9.623 -0.1508  1.2003  0.2351
  842MOL0     C16096   1.183  -0.685   9.736 -0.6260 -0.1591 -0.0640
  842MOL0     C16097   1.051  -0.608   9.735  0.0421 -0.0597 -0.1113
  842MOL0     C16098   0.928  -0.695   9.772  0.4199 -0.0447  0.2403
  842MOL0     C16099   0.814  -0.663   9.674  0.0843  0.3998 -0.6984
  842MOL0     C16100   0.705  -0.767   9.658  0.3589 -0.6076  0.0906
  842MOL0     C16101   0.668  -0.827   9.798  0.0069 -0.1560 -0.7851
  842MOL0     C16102   0.526  -0.885   9.787 -0.5293 -0.8688 -0.3172
  842MOL0    Cl16103   0.462  -0.955   9.931 -0.3898  0.1987 -0.4203
  842MOL0     C16104   1.364  -0.940   9.406  0.6825  0.1859  0.1055
  842MOL0     C16105   1.442  -1.008   9.302  1.2200 -0.5047  0.5334
  842MOL0     O16106   1.690  -1.099   9.196  0.0898  0.1897  0.0701
  842MOL0     C16107   1.611  -1.152   8.860  0.0634 -0.3772 -0.0803
  842MOL0     C16108   1.647  -1.206   8.740  0.3548  0.2395 -0.0892
  842MOL0     N16109   2.219  -0.927   8.595 -0.1218 -0.2249 -0.3486
  842MOL0     N16110   2.189  -0.818   8.651 -0.2352 -0.4945  0.3806
  842MOL0     C16111   1.004  -0.257   9.075 -0.0719  0.3000 -0.7625
  842MOL0     C16112   0.874  -0.209   9.106  0.3546  0.4195  0.0495
  842MOL0     C16113   0.530  -0.008   9.283  0.4807 -0.1244  0.0174
  842MOL0     C16114   0.469   0.055   9.394  0.7569  0.1230 -0.4332
  842MOL0     C16115   0.332   0.078   9.398 -0.3006  0.3072 -0.5268
  842MOL0     C16116   0.253   0.047   9.294 -1.2859  0.3715 -0.6800
  842MOL0     O16117   0.124   0.070   9.301  1.0246  0.2033  0.2357
  842MOL0     C16118   0.034   0.018   9.200  0.1557 -1.2300  0.2664
  842MOL0     C16119  -0.112   0.019   9.245  0.1034 -0.8271 -0.2426
  842MOL0     C16120  -0.153  -0.046   9.390  0.2949 -1.1126 -0.2262
  842MOL0     C16121  -0.154  -0.192   9.379  0.2264 -0.1410 -0.2276
  842MOL0     C16122  -0.024  -0.253   9.403 -0.1200 -0.3548 -0.2091
  842MOL0     C16123   0.094  -0.289   9.418  0.5756  0.4560 -0.4725
  842MOL0     C16124   0.313  -0.007   9.175 -0.8920  0.0097 -0.1562
  842MOL0     C16125   0.450  -0.036   9.164 -0.5451 -0.3025  0.6817
  842MOL0     C16126   0.506  -0.069   9.026  0.0501 -0.6589 -0.1796
  842MOL0     H16127   0.853  -0.286   9.421 -0.8513 -0.6053 -1.0197
  842MOL0     H16128   1.112  -0.358   9.387  0.7536  0.0954 -1.4101
  842MOL0     H16129   1.291  -0.212   9.084 -0.3138  0.4980 -1.6255
  842MOL0     H16130   1.279  -0.342   8.957  1.9052  0.0641 -1.2763
  842MOL0     H16131   1.504  -0.279   9.044  1.7063 -1.3737 -2.1360
  842MOL0     H16132   1.458  -0.390   9.189 -3.1329 -2.3279  0.0738
  842MOL0     H16133   1.414  -0.567   8.993  1.9516 -1.7359  0.7730
  842MOL0     H16134   1.484  -0.456   8.879  0.1166  0.3826 -0.7151
  842MOL0     H16135   1.684  -0.449   8.975  0.0075 -2.0767 -4.2565
  842MOL0     H16136   1.635  -0.539   9.125 -3.0560  2.0999  0.2162
  842MOL0     H16137   1.571  -0.680   8.885 -1.0038  1.5012  0.0393
  842MOL0     H16138   1.662  -0.759   9.010  0.2124 -0.0997  0.3941
  842MOL0     H16139   1.767  -0.578   8.780  2.3139 -2.5377 -1.1165
  842MOL0     H16140   1.860  -0.588   8.932 -1.0102 -1.8196  1.3384
  842MOL0     H16141   1.820  -0.804   8.724  0.6551 -0.3184 -0.4588
  842MOL0     H16142   1.824  -0.851   8.888 -0.5412  0.6335  0.6256
  842MOL0     H16143   2.006  -0.650   8.736  0.4799 -0.6662 -0.1196
  842MOL0     H16144   2.042  -0.722   8.899 -1.2116 -0.2399  0.4312
  842MOL0     H16145   1.949  -1.014   8.773  0.0709  0.0771 -0.6554
  842MOL0     H16146   2.089  -1.231   8.699 -2.1953  1.3147  0.4509
  842MOL0     H16147   2.215  -1.217   8.577  0.6558 -0.7593  2.8238
  842MOL0     H16148   1.920  -1.159   8.530 -1.0424 -2.7772 -1.2737
  842MOL0     H16149   2.060  -1.139   8.417  1.0171 -2.0912 -1.8038
  842MOL0     H16150   1.951  -1.338   8.360 -0.5211  0.3558  0.1002
  842MOL0     H16151   2.101  -1.386   8.451 -0.4774 -0.4649 -0.8044
  842MOL0     H16152   1.884  -1.515   8.527 -0.4785  0.7624 -0.2109
  842MOL0     H16153   1.979  -1.423   8.656  1.9435  0.0707 -1.9028
  842MOL0     H16154   1.919  -1.366   8.848 -1.1192 -0.5385 -1.1534
  842MOL0     H16155   1.980  -1.132   9.101  2.4751 -0.9830  0.9832
  842MOL0     H16156   2.008  -1.289   9.032 -0.9995 -0.2704 -1.0919
  842MOL0     H16157   1.903  -1.284   9.167  0.0963 -1.8898 -1.9762
  842MOL0     H16158   1.448  -0.734   9.101  2.5718  1.8587  1.5292
  842MOL0     H16159   1.320  -0.636   9.278 -0.2399 -0.4098 -4.0524
  842MOL0     H16160   1.121  -0.862   9.615  1.9660 -1.6072  2.2331
  842MOL0     H16161   1.287  -0.848   9.660 -1.0788  0.3043  1.0018
  842MOL0     H16162   1.206  -0.738   9.829  0.7972  0.4697 -0.0375
  842MOL0     H16163   1.259  -0.614   9.703  3.1474 -2.8128  1.9934
  842MOL0     H16164   1.048  -0.580   9.629 -1.1927 -0.4776 -0.2027
  842MOL0     H16165   1.046  -0.511   9.786 -0.4955  0.1684 -0.5821
  842MOL0     H16166   0.904  -0.677   9.878  1.0331 -0.7695  0.5120
  842MOL0     H16167   0.948  -0.802   9.764 -0.3484 -0.1770 -0.0196
  842MOL0     H16168   0.763  -0.571   9.707 -2.0833 -0.6380 -0.9362
  842MOL0     H16169   0.853  -0.636   9.576 -1.1331  0.6303 -1.1340
  842MOL0     H16170   0.748  -0.848   9.598 -0.6026 -0.5702 -0.6752
  842MOL0     H16171   0.613  -0.729   9.613 -1.8623 -4.6009  0.7943
  842MOL0     H16172   0.664  -0.752   9.877 -4.0765  1.3708 -2.1529
  842MOL0     H16173   0.729  -0.911   9.832 -1.7595 -2.1911 -2.3154
  842MOL0     H16174   0.520  -0.959   9.707 -0.7955 -3.6915  2.1298
  842MOL0     H16175   0.455  -0.808   9.754  0.3220  0.0887  0.0002
  842MOL0     H16176   1.332  -0.990   9.498  0.8172  0.9180  0.5598
  842MOL0     H16177   1.463  -1.113   9.319 -4.1264 -2.1194 -0.6911
  842MOL0     H16178   1.516  -1.100   8.858  1.3990  2.2491 -2.9297
  842MOL0     H16179   1.577  -1.187   8.659  0.1388  3.1964  0.6743
  842MOL0     H16180   1.031  -0.252   8.970 -1.3865 -4.0269 -1.5236
  842MOL0     H16181   0.824  -0.156   9.025 -1.4597 -2.2325 -0.7008
  842MOL0     H16182   0.520   0.099   9.480 -2.8313 -1.4397  2.8087
  842MOL0     H16183   0.303   0.136   9.485  5.3558  2.5792  0.2822
  842MOL0     H16184   0.038   0.083   9.112 -1.2487  1.6541  2.1468
  842MOL0     H16185   0.055  -0.084   9.168  2.3791 -1.8054  3.1146
  842MOL0     H16186  -0.172  -0.027   9.166  1.5270  0.0333 -1.9228
  842MOL0     H16187  -0.130   0.127   9.250 -1.3909 -1.0963  0.5335
  842MOL0     H16188  -0.088  -0.014   9.473 -1.4551 -1.3153  1.2772
  842MOL0     H16189  -0.251  -0.008   9.419  1.2333  0.0218  1.6550
  842MOL0     H16190  -0.187  -0.217   9.278  0.0086 -1.9090  0.2418
  842MOL0     H16191  -0.230  -0.229   9.449 -2.7057  0.8417 -2.6649
  842MOL0     H16192   0.194  -0.311   9.450 -0.7211 -1.0921  2.9311
  842MOL0     H16193   0.266  -0.044   9.084 -3.1746 -1.8642  1.6409
  842MOL0     H16194   0.615  -0.073   9.030  0.3469  3.8289  0.3415
  842MOL0     H16195   0.454  -0.153   8.978 -1.1313  0.4721 -0.9265
  842MOL0     H16196   0.499   0.026   8.973 -1.7933 -0.0194  1.1244
  843MOL0     O16197   5.506   6.312  10.193  0.0717  0.8129 -0.1293
  843MOL0     C16198   5.521   6.231  10.104 -0.5465 -0.7424 -0.6676
  843MOL0     O16199   5.642   6.149  10.088  0.7442  0.2788 -0.4726
  843MOL0     C16200   5.728   6.145  10.195 -0.7842 -0.0130  0.4722
  843MOL0     C16201   5.783   6.016  10.231  0.9109  0.4016 -0.8479
  843MOL0     C16202   5.895   6.004  10.316 -0.5266  0.5213  0.2237
  843MOL0     C16203   5.954   6.117  10.370  0.7667  0.5486  0.3781
  843MOL0     O16204   6.059   6.099  10.457  0.8980  0.7577  0.6358
  843MOL0     C16205   6.046   6.134  10.593 -0.4020 -1.2524  0.0357
  843MOL0     C16206   6.134   6.061  10.680 -0.2803  0.1204  0.0648
  843MOL0     C16207   6.284   6.080  10.659  0.4826  0.0570 -0.0151
  843MOL0     C16208   6.357   6.034  10.784  0.5130  0.2176 -0.1056
  843MOL0     C16209   6.510   6.024  10.758 -0.9056  0.0622 -0.2517
  843MOL0     C16210   6.584   5.949  10.870  0.3931 -0.5593  0.0151
  843MOL0     C16211   6.736   5.964  10.834  0.3550  0.4736  0.2300
  843MOL0     C16212   6.795   6.096  10.848 -0.0537  0.4148  0.1470
  843MOL0     N16213   6.790   6.149  10.987  0.0737  0.5717  0.9356
  843MOL0     C16214   6.731   6.271  11.010  0.1192  0.5270 -0.5333
  843MOL0     C16215   6.765   6.296  11.139 -0.0076 -0.2975 -0.6890
  843MOL0     C16216   6.713   6.415  11.219 -0.2653 -0.5566 -0.2605
  843MOL0     C16217   6.567   6.395  11.267  0.3298 -0.5602  0.8075
  843MOL0     C16218   6.521   6.495  11.379  0.0848  0.0439  0.0269
  843MOL0     C16219   6.382   6.550  11.368 -0.4903  0.7970 -0.9770
  843MOL0     O16220   6.354   6.608  11.501 -0.3221  0.3330  0.2906
  843MOL0     C16221   6.235   6.681  11.519  1.1614  0.0108 -0.0250
  843MOL0     C16222   6.162   6.737  11.415  0.8818  0.0944  0.3443
  843MOL0     C16223   6.057   6.820  11.437  0.1765 -0.2102 -0.3935
  843MOL0     C16224   5.995   6.882  11.316 -1.3249 -0.0563 -1.1451
  843MOL0     C16225   6.004   6.835  11.565 -0.1733  0.0662 -0.2976
  843MOL0     C16226   5.887   6.919  11.611  0.2153 -0.8304 -0.6125
  843MOL0     O16227   5.880   6.951  11.743  0.4761  0.4049  0.6585
  843MOL0     C16228   5.773   7.010  11.798 -0.0025  1.5865 -0.0026
  843MOL0     C16229   5.795   7.116  11.883 -0.5085  0.3411  0.1641
  843MOL0     C16230   5.689   7.186  11.932  0.6180 -0.2791 -0.0233
  843MOL0     C16231   5.559   7.149  11.898  0.3595 -0.2869  0.2389
  843MOL0     O16232   5.459   7.224  11.961 -0.1515 -0.1041 -0.3819
  843MOL0     C16233   5.345   7.257  11.876  0.5553 -0.5947  0.2862
  843MOL0     C16234   5.266   7.376  11.918 -0.2917  0.0033 -0.5535
  843MOL0     C16235   5.196   7.369  12.054  0.0364  0.2644  0.4018
  843MOL0     C16236   5.114   7.503  12.074 -0.8042  0.2347  0.9054
  843MOL0     C16237   4.954   7.486  12.053 -0.3210 -0.4955 -0.4117
  843MOL0     C16238   4.903   7.628  12.057  0.4690 -0.1744 -0.2650
  843MOL0     C16239   4.816   7.659  12.185  0.3151 -0.1895  0.3315
  843MOL0     C16240   4.917   7.681  12.307  0.2566  0.6534 -0.6647
  843MOL0    Cl16241   5.052   7.802  12.282  0.3433 -0.0289  0.4321
  843MOL0     C16242   5.539   7.037  11.813  0.6498  0.7464 -0.6718
  843MOL0     C16243   5.645   6.958  11.763  0.3661 -0.4630  0.9644
  843MOL0     O16244   5.807   6.953  11.526  0.1770 -0.7902  0.4621
  843MOL0     C16245   6.080   6.770  11.663 -0.1951  0.4061 -0.7017
  843MOL0     C16246   6.194   6.696  11.649  0.2265 -0.2269 -0.5550
  843MOL0     N16247   6.838   6.190  11.187  0.2306  0.5801  0.0192
  843MOL0     N16248   6.859   6.105  11.091  0.1095 -0.6392  0.0321
  843MOL0     C16249   5.891   6.245  10.345 -0.3352 -0.3620  0.0083
  843MOL0     C16250   5.781   6.254  10.255  0.6278 -0.6508  0.7932
  843MOL0     C16251   5.404   6.212  10.011 -1.6132  0.1544  0.3631
  843MOL0     C16252   5.285   6.290  10.018 -0.0387 -0.7053 -0.2691
  843MOL0     C16253   5.172   6.257   9.941  0.0058 -1.0744 -0.0962
  843MOL0     C16254   5.177   6.158   9.843 -0.1262 -0.7895 -1.3702
  843MOL0     O16255   5.059   6.144   9.779  0.1059  0.6170 -1.0155
  843MOL0     C16256   5.056   6.029   9.691  0.2065  0.4356 -0.0913
  843MOL0     C16257   4.914   5.979   9.680  0.1661  0.3652  0.2855
  843MOL0     C16258   4.893   5.914   9.541 -0.4812 -0.9712 -0.2967
  843MOL0     C16259   4.988   5.798   9.522  0.6435  0.8564  0.1004
  843MOL0     C16260   5.118   5.840   9.458  0.3886 -0.1695  0.8407
  843MOL0     C16261   5.222   5.891   9.413 -0.0650 -0.2106  0.3785
  843MOL0     C16262   5.293   6.084   9.821  0.0440 -0.1864  0.3663
  843MOL0     C16263   5.411   6.119   9.902 -0.7122  0.3881 -0.1603
  843MOL0     C16264   5.536   6.042   9.863  0.4814  0.2476  0.6779
  843MOL0     H16265   5.735   5.923  10.201  1.5401 -0.6100  1.0474
  843MOL0     H16266   5.936   5.906  10.340  0.5391  1.0135  0.4448
  843MOL0     H16267   5.947   6.118  10.636  0.0267  1.0185  2.0778
  843MOL0     H16268   6.060   6.242  10.598  0.6832 -1.4339  1.9364
  843MOL0     H16269   6.107   6.071  10.786  0.4950  1.2334  0.1678
  843MOL0     H16270   6.124   5.955  10.658  1.6795  0.1601 -1.2019
  843MOL0     H16271   6.309   6.031  10.565 -0.5613  0.6098 -0.5998
  843MOL0     H16272   6.298   6.189  10.650 -1.1818  0.1821 -1.6537
  843MOL0     H16273   6.329   6.103  10.865  0.7267  1.3583 -0.9696
  843MOL0     H16274   6.326   5.931  10.802  7.3388 -2.3390 -0.3694
  843MOL0     H16275   6.535   6.130  10.761  0.3904 -0.1751 -1.5469
  843MOL0     H16276   6.524   5.981  10.658 -0.5258 -0.2621 -0.0635
  843MOL0     H16277   6.557   5.993  10.967 -2.7566  1.7553 -1.7455
  843MOL0     H16278   6.549   5.846  10.871 -3.6905  0.6283 -1.0840
  843MOL0     H16279   6.752   5.941  10.728 -2.9987  1.2017 -0.5823
  843MOL0     H16280   6.787   5.887  10.892  0.9068 -0.1635 -1.0756
  843MOL0     H16281   6.900   6.087  10.820  0.1064 -0.0025  0.8447
  843MOL0     H16282   6.753   6.172  10.781  3.8392  3.8973  1.2011
  843MOL0     H16283   6.668   6.345  10.962  0.3149  2.1844  1.6344
  843MOL0     H16284   6.709   6.496  11.145 -0.0403 -0.1612  0.1541
  843MOL0     H16285   6.780   6.431  11.304 -2.2770  0.3566  1.2392
  843MOL0     H16286   6.504   6.423  11.182 -0.0084 -1.0337  0.8941
  843MOL0     H16287   6.553   6.289  11.293  1.2813 -0.8962  0.0094
  843MOL0     H16288   6.542   6.430  11.465 -0.4155 -0.3957 -0.1733
  843MOL0     H16289   6.595   6.575  11.384  2.2151 -1.8528  1.1103
  843MOL0     H16290   6.367   6.630  11.294 -0.0090  0.3368 -1.5823
  843MOL0     H16291   6.305   6.473  11.358  0.9318 -1.6234  3.8738
  843MOL0     H16292   6.204   6.732  11.315 -0.9927  1.9589 -0.5926
  843MOL0     H16293   6.022   6.835  11.221  1.3158  0.4659 -0.7461
  843MOL0     H16294   6.016   6.988  11.326  1.7027 -0.6824  0.6480
  843MOL0     H16295   5.887   6.871  11.322 -1.3331 -0.5252 -2.0865
  843MOL0     H16296   5.898   7.143  11.902 -0.1264 -0.6984 -0.3570
  843MOL0     H16297   5.710   7.267  12.002 -1.9618  0.8015 -0.3960
  843MOL0     H16298   5.370   7.257  11.769  2.4854  3.9770  0.5085
  843MOL0     H16299   5.274   7.174  11.881 -1.3556  1.0243  1.5202
  843MOL0     H16300   5.339   7.457  11.910  1.7457 -1.8027 -0.9141
  843MOL0     H16301   5.194   7.387  11.836  1.7497  0.2043 -2.4197
  843MOL0     H16302   5.265   7.341  12.135 -2.8564 -1.8687  2.3555
  843MOL0     H16303   5.116   7.295  12.047 -1.8643  2.0816  1.5599
  843MOL0     H16304   5.156   7.584  12.013 -0.0496 -0.5503  0.3484
  843MOL0     H16305   5.131   7.538  12.176  4.3111  2.3137 -0.3299
  843MOL0     H16306   4.930   7.440  11.956 -0.0379 -1.1243 -0.1866
  843MOL0     H16307   4.904   7.425  12.128 -1.1263  0.1720 -0.3905
  843MOL0     H16308   4.822   7.639  11.984 -1.0633  1.8425  1.5783
  843MOL0     H16309   4.974   7.709  12.040 -0.4936  1.5366  2.9202
  843MOL0     H16310   4.743   7.579  12.194 -0.3717  0.4671  0.7271
  843MOL0     H16311   4.765   7.755  12.170  0.6488  0.1763  1.4035
  843MOL0     H16312   4.950   7.582  12.341  0.1578 -0.0400 -2.4500
  843MOL0     H16313   4.862   7.710  12.397 -1.0654  0.5502 -1.4205
  843MOL0     H16314   5.435   7.008  11.803  0.2621  0.0641  3.5195
  843MOL0     H16315   5.643   6.867  11.704 -0.6303  0.4448 -0.4561
  843MOL0     H16316   6.055   6.769  11.769  2.4947  2.3353  0.0714
  843MOL0     H16317   6.253   6.659  11.732  1.7398  0.8761 -1.0897
  843MOL0     H16318   5.940   6.330  10.390 -0.9753 -0.1426  0.2987
  843MOL0     H16319   5.750   6.355  10.227 -0.3123 -1.8585 -3.2452
  843MOL0     H16320   5.266   6.356  10.102  2.2298  0.2013 -0.4041
  843MOL0     H16321   5.078   6.311   9.939  0.5030 -0.1571  0.5515
  843MOL0     H16322   5.105   6.056   9.597 -0.2523  5.2231  0.7897
  843MOL0     H16323   5.111   5.943   9.731 -2.0178 -2.7922 -3.2462
  843MOL0     H16324   4.843   6.061   9.689 -1.4797 -1.1187  1.5038
  843MOL0     H16325   4.894   5.906   9.759  1.8479  2.2373  2.5842
  843MOL0     H16326   4.794   5.867   9.538  0.5036 -3.4081  1.7199
  843MOL0     H16327   4.909   5.988   9.462 -1.1608 -0.0903  0.3661
  843MOL0     H16328   4.927   5.727   9.465 -0.7878  4.0487 -2.6141
  843MOL0     H16329   5.018   5.767   9.623  1.3863 -0.8117 -0.6002
  843MOL0     H16330   5.314   5.934   9.379 -0.4392 -0.1741 -0.6421
  843MOL0     H16331   5.303   6.012   9.740  0.3444 -0.3009  0.5067
  843MOL0     H16332   5.619   6.107   9.834 -1.3706  1.0389 -3.4266
  843MOL0     H16333   5.564   5.978   9.948  0.7327 -1.7115 -0.8023
  843MOL0     H16334   5.524   5.973   9.779  2.6504 -2.6473  2.5314
  844MOL0     O16335   6.384   8.424   5.552 -0.5384 -0.1208 -0.3784
  844MOL0     C16336   6.354   8.460   5.437 -0.5107 -0.2791 -0.2016
  844MOL0     O16337   6.399   8.409   5.313 -0.2822 -0.6333 -0.2800
  844MOL0     C16338   6.504   8.324   5.322 -0.6916 -0.7309 -0.3196
  844MOL0     C16339   6.630   8.380   5.342 -0.4671 -0.3209  0.3756
  844MOL0     C16340   6.743   8.295   5.349 -1.0296 -0.0674 -0.2152
  844MOL0     C16341   6.724   8.158   5.341 -0.1652  0.4109  0.6288
  844MOL0     O16342   6.822   8.063   5.364 -0.0836  0.0886 -0.5490
  844MOL0     C16343   6.949   8.123   5.408 -0.5014 -0.3539  0.2453
  844MOL0     C16344   7.046   8.016   5.448 -0.1750 -0.9996 -0.0751
  844MOL0     C16345   7.086   7.915   5.346  1.2775  0.1626  0.3065
  844MOL0     C16346   7.217   7.850   5.394  0.3391 -0.2846 -1.1504
  844MOL0     C16347   7.250   7.730   5.300  0.4338 -0.1887 -0.4141
  844MOL0     C16348   7.369   7.650   5.352 -0.4899 -0.6518  0.1765
  844MOL0     C16349   7.414   7.545   5.248  0.0325 -0.8786  0.4789
  844MOL0     C16350   7.312   7.431   5.224  0.9718  0.8651 -0.1841
  844MOL0     N16351   7.293   7.362   5.353  0.3111 -0.4057  0.4526
  844MOL0     C16352   7.364   7.248   5.385  0.7398  0.2865 -0.2966
  844MOL0     C16353   7.317   7.211   5.509 -0.2240  0.3190 -0.8423
  844MOL0     C16354   7.354   7.082   5.576  0.3744  0.0602  0.1529
  844MOL0     C16355   7.336   6.958   5.490  0.9226  0.6255 -0.9956
  844MOL0     C16356   7.439   6.853   5.539 -0.3744 -0.4873  0.3099
  844MOL0     C16357   7.434   6.728   5.444 -0.3192  0.3732  0.6943
  844MOL0     O16358   7.529   6.630   5.491  0.1983 -0.1950 -0.1770
  844MOL0     C16359   7.648   6.596   5.428 -0.5364 -0.2542  0.0642
  844MOL0     C16360   7.702   6.673   5.325  0.3651  0.0327  0.0011
  844MOL0     C16361   7.804   6.615   5.253 -0.3745 -0.2397 -0.1322
  844MOL0     C16362   7.858   6.693   5.123  0.4255  0.3889 -0.8714
  844MOL0     C16363   7.866   6.490   5.299  0.4695 -0.3173 -0.1500
  844MOL0     C16364   7.967   6.415   5.221 -0.2367 -0.0320  0.1229
  844MOL0     O16365   8.041   6.328   5.290 -0.4993  0.4374  0.1753
  844MOL0     C16366   8.111   6.238   5.220  0.0349  0.2479 -0.7290
  844MOL0     C16367   8.046   6.122   5.174  0.8683 -0.8467 -0.7130
  844MOL0     C16368   8.115   6.026   5.103 -0.0738 -0.2694  0.2502
  844MOL0     C16369   8.252   6.043   5.071  0.3714 -0.4962  0.4261
  844MOL0     O16370   8.313   5.941   5.000  0.3475  0.2159 -0.2814
  844MOL0     C16371   8.429   5.970   4.924 -0.0766 -0.4140  0.7206
  844MOL0     C16372   8.483   5.832   4.869  0.9582 -0.3572 -0.1248
  844MOL0     C16373   8.582   5.856   4.761  0.5757 -0.9579 -0.6772
  844MOL0     C16374   8.647   5.728   4.696  0.2212  0.0068 -0.6253
  844MOL0     C16375   8.733   5.628   4.790  0.4440  0.3538 -0.2627
  844MOL0     C16376   8.817   5.544   4.697 -0.3116  0.1751 -0.3658
  844MOL0     C16377   8.901   5.444   4.774 -0.2771  0.7584 -0.6868
  844MOL0     C16378   8.957   5.344   4.672 -0.3066  0.6620 -0.4565
  844MOL0    Cl16379   9.038   5.420   4.527  0.4792  0.2115  0.0890
  844MOL0     C16380   8.318   6.157   5.117  0.4195 -0.1460 -0.3046
  844MOL0     C16381   8.242   6.249   5.186  0.3529 -0.9909 -0.2774
  844MOL0     O16382   7.963   6.418   5.097  0.6351  0.4076  0.3366
  844MOL0     C16383   7.812   6.434   5.410  0.2420 -0.3493 -0.1343
  844MOL0     C16384   7.712   6.490   5.481 -0.0290  0.6607  0.2695
  844MOL0     N16385   7.250   7.325   5.556 -0.0964 -0.5781  0.2911
  844MOL0     N16386   7.215   7.396   5.452 -0.1450  0.3331 -0.4774
  844MOL0     C16387   6.600   8.110   5.315  0.3637  0.3531 -0.6635
  844MOL0     C16388   6.485   8.186   5.301  1.0192  0.2754 -0.3193
  844MOL0     C16389   6.248   8.554   5.424  0.0838  0.2248 -0.3221
  844MOL0     C16390   6.146   8.516   5.343  0.1221 -0.3420  0.0369
  844MOL0     C16391   6.035   8.592   5.341  0.4195  0.5155 -0.2356
  844MOL0     C16392   6.031   8.712   5.412  0.7563 -0.6372  0.3035
  844MOL0     O16393   5.935   8.805   5.401  0.1258  0.0828  0.6409
  844MOL0     C16394   5.819   8.775   5.321  0.3788 -0.1295 -0.1570
  844MOL0     C16395   5.702   8.859   5.366 -0.0340 -0.5319  0.0766
  844MOL0     C16396   5.733   9.003   5.321 -0.1565 -0.0784  0.3940
  844MOL0     C16397   5.608   9.097   5.333 -0.1873 -0.4067  0.2523
  844MOL0     C16398   5.560   9.101   5.474 -0.0624 -0.1855  0.7204
  844MOL0     C16399   5.537   9.123   5.590  0.1941 -0.0533 -0.2292
  844MOL0     C16400   6.139   8.752   5.492 -0.2013  0.1091 -0.4078
  844MOL0     C16401   6.254   8.676   5.500 -0.4890  0.3444 -0.1454
  844MOL0     C16402   6.377   8.729   5.582 -0.4944  0.6812  1.0202
  844MOL0     H16403   6.644   8.486   5.360 -1.9060 -0.1493  0.6562
  844MOL0     H16404   6.839   8.344   5.362 -0.3677 -1.5485  0.8492
  844MOL0     H16405   6.933   8.193   5.491 -1.2377 -0.8461  0.5358
  844MOL0     H16406   6.991   8.172   5.320 -0.5022 -1.5486 -0.4410
  844MOL0     H16407   7.139   8.066   5.478  0.0771 -1.6953  0.3455
  844MOL0     H16408   7.010   7.954   5.531  2.7600 -1.8205  0.7337
  844MOL0     H16409   6.999   7.850   5.330 -0.9643  2.4800  2.1572
  844MOL0     H16410   7.094   7.973   5.254  2.8501 -0.3880  0.0626
  844MOL0     H16411   7.298   7.921   5.409 -1.2672  1.6581 -1.2502
  844MOL0     H16412   7.198   7.806   5.493  0.2481 -0.6261 -1.3164
  844MOL0     H16413   7.259   7.756   5.194 -0.9571  3.3603  0.1948
  844MOL0     H16414   7.169   7.659   5.321  2.9624 -2.3344  3.0812
  844MOL0     H16415   7.452   7.722   5.353 -0.4228 -0.7153 -0.5026
  844MOL0     H16416   7.363   7.603   5.450  1.6698 -4.4793 -1.3006
  844MOL0     H16417   7.513   7.507   5.275  0.4832 -0.1593 -0.1307
  844MOL0     H16418   7.438   7.599   5.156 -0.1620 -1.3573  0.1400
  844MOL0     H16419   7.214   7.464   5.190  0.1182  0.9689  2.1714
  844MOL0     H16420   7.355   7.365   5.148 -0.5190 -1.4946  0.9123
  844MOL0     H16421   7.430   7.189   5.323  4.0681 -1.8084  4.6276
  844MOL0     H16422   7.284   7.080   5.660 -0.5662  1.3189 -0.5675
  844MOL0     H16423   7.452   7.101   5.620 -1.0720  3.7707  2.3010
  844MOL0     H16424   7.235   6.918   5.505  0.6679  1.5516 -0.0946
  844MOL0     H16425   7.348   6.970   5.382  0.7939  0.3909 -1.0362
  844MOL0     H16426   7.541   6.888   5.554 -1.0065  1.4850  0.3904
  844MOL0     H16427   7.408   6.819   5.638 -1.4665 -1.2942 -0.2795
  844MOL0     H16428   7.333   6.688   5.448 -0.3856  0.3307 -0.8602
  844MOL0     H16429   7.452   6.751   5.339  1.0621  1.2337  1.0809
  844MOL0     H16430   7.661   6.768   5.293  1.5879  1.5022  2.4967
  844MOL0     H16431   7.880   6.627   5.038 -3.1762  1.4931 -2.8459
  844MOL0     H16432   7.954   6.740   5.148  0.0562  0.1506  1.1431
  844MOL0     H16433   7.786   6.772   5.099 -0.2966 -0.7469 -2.6559
  844MOL0     H16434   7.942   6.108   5.203  0.7040 -3.1041 -2.1215
  844MOL0     H16435   8.046   5.955   5.058 -1.2573  2.1480 -2.0646
  844MOL0     H16436   8.407   6.035   4.839  0.4769 -1.5682 -0.3235
  844MOL0     H16437   8.514   6.012   4.979  0.5268 -0.0708 -0.4385
  844MOL0     H16438   8.521   5.784   4.959  2.1551  0.4329 -0.1718
  844MOL0     H16439   8.396   5.775   4.835  0.1577  1.0708 -0.5697
  844MOL0     H16440   8.659   5.914   4.812 -0.8764  1.0040 -0.6146
  844MOL0     H16441   8.534   5.925   4.691  0.7669 -0.2349 -0.0974
  844MOL0     H16442   8.720   5.757   4.620  0.3439 -1.1650 -0.9674
  844MOL0     H16443   8.571   5.661   4.656  0.9521 -1.2340 -0.0110
  844MOL0     H16444   8.801   5.680   4.859  2.6879  0.1533 -2.1805
  844MOL0     H16445   8.655   5.574   4.845 -0.1163 -0.2863 -1.6438
  844MOL0     H16446   8.884   5.614   4.646  0.1008 -2.0315 -3.1489
  844MOL0     H16447   8.757   5.489   4.623  0.1163  0.3899 -0.8791
  844MOL0     H16448   8.834   5.387   4.839 -0.4096  0.2681 -1.2442
  844MOL0     H16449   8.988   5.488   4.824  0.1938 -1.6949  0.8618
  844MOL0     H16450   8.871   5.287   4.634  0.2165  0.1506 -0.8997
  844MOL0     H16451   9.027   5.281   4.728 -2.1391 -1.0007  0.0751
  844MOL0     H16452   8.426   6.169   5.112  0.5090  0.5862  2.1032
  844MOL0     H16453   8.289   6.339   5.225  1.1546 -1.1324 -0.8868
  844MOL0     H16454   7.844   6.335   5.442 -1.2377 -0.9615 -0.4595
  844MOL0     H16455   7.666   6.434   5.562  1.1329  0.4801  0.8218
  844MOL0     H16456   6.607   8.002   5.305  4.5916  0.1833  1.7409
  844MOL0     H16457   6.383   8.149   5.295  1.5227 -1.1513 -0.6353
  844MOL0     H16458   6.161   8.424   5.286  1.0083  0.3801 -0.9164
  844MOL0     H16459   5.955   8.560   5.275  0.3478 -1.4409  0.7290
  844MOL0     H16460   5.857   8.784   5.219  0.3894  0.7301 -0.0855
  844MOL0     H16461   5.788   8.671   5.337 -0.8667  0.2365 -0.0264
  844MOL0     H16462   5.702   8.839   5.473  0.9074 -0.0233  0.1827
  844MOL0     H16463   5.606   8.827   5.324  0.7444 -5.3161  1.4020
  844MOL0     H16464   5.812   9.034   5.390  0.2442 -2.7869  1.2786
  844MOL0     H16465   5.754   9.015   5.214 -2.6020  1.9389  0.0386
  844MOL0     H16466   5.526   9.070   5.266 -1.0376 -0.5170  1.3273
  844MOL0     H16467   5.631   9.202   5.311 -1.5306 -0.0016  0.6974
  844MOL0     H16468   5.535   9.156   5.692 -1.6714  0.0090 -0.2579
  844MOL0     H16469   6.138   8.854   5.528 -0.0280 -0.8849  2.7304
  844MOL0     H16470   6.454   8.651   5.580 -0.6123  0.5665 -0.7677
  844MOL0     H16471   6.412   8.827   5.549 -0.1282 -0.1613 -1.3214
  844MOL0     H16472   6.349   8.725   5.687 -2.0810 -0.7115  0.5893
  845MOL0     O16473   3.102   3.674  11.482 -1.0728  0.0813  0.1310
  845MOL0     C16474   3.093   3.783  11.421 -0.3293  0.5534 -0.3698
  845MOL0     O16475   3.170   3.888  11.441  0.6450  0.2359 -0.0959
  845MOL0     C16476   3.279   3.897  11.527  0.0130 -0.1705  0.5075
  845MOL0     C16477   3.387   3.802  11.528  0.6469  0.7839  0.7432
  845MOL0     C16478   3.489   3.810  11.623  0.4384  0.3026 -0.3844
  845MOL0     C16479   3.501   3.917  11.709 -0.8050  0.3690  0.2131
  845MOL0     O16480   3.612   3.931  11.793  0.0312 -0.9221  0.2132
  845MOL0     C16481   3.589   3.962  11.937  0.6108 -0.3112 -0.3764
  845MOL0     C16482   3.626   3.832  12.013 -0.2445  0.1264 -0.4363
  845MOL0     C16483   3.517   3.720  12.016  0.1586 -0.2182 -0.5769
  845MOL0     C16484   3.553   3.591  12.099  0.1750  0.3938 -0.7157
  845MOL0     C16485   3.645   3.498  12.021  0.6390  0.7638  0.2004
  845MOL0     C16486   3.778   3.461  12.086  0.6566 -0.7463 -0.2627
  845MOL0     C16487   3.871   3.351  12.012 -0.4032 -0.7405  0.3091
  845MOL0     C16488   3.869   3.364  11.859 -0.9472 -0.9692 -0.0599
  845MOL0     N16489   3.956   3.480  11.811  0.2577 -0.5291 -0.3383
  845MOL0     C16490   3.903   3.612  11.789 -1.1816  0.7629  0.0067
  845MOL0     C16491   4.016   3.678  11.754  0.0877 -0.2668  1.0933
  845MOL0     C16492   4.004   3.824  11.716  0.1955  0.4094 -0.3850
  845MOL0     C16493   4.093   3.876  11.604 -0.5327 -0.5783  0.8370
  845MOL0     C16494   4.076   4.032  11.587 -0.0431  0.4342 -0.6237
  845MOL0     C16495   4.011   4.085  11.454 -0.2750 -0.0861 -0.3817
  845MOL0     O16496   3.869   4.049  11.439  1.3708  1.2028  0.1892
  845MOL0     C16497   3.798   4.090  11.319 -1.0687 -0.2931 -0.7958
  845MOL0     C16498   3.658   4.095  11.319 -0.1569 -0.4568 -0.0243
  845MOL0     C16499   3.587   4.134  11.204 -0.2173  0.0091  0.7650
  845MOL0     C16500   3.439   4.111  11.214  0.3173 -0.0762 -0.2058
  845MOL0     C16501   3.657   4.188  11.092 -0.3991  0.5030  0.3338
  845MOL0     C16502   3.594   4.233  10.965  0.7982 -0.1561 -0.5271
  845MOL0     O16503   3.680   4.263  10.868  0.1226 -0.4193 -0.9056
  845MOL0     C16504   3.630   4.332  10.764 -0.5891  0.0878  0.9045
  845MOL0     C16505   3.717   4.311  10.651  0.0054  0.7156  0.3255
  845MOL0     C16506   3.684   4.353  10.523  0.2771  0.0929  0.0834
  845MOL0     C16507   3.560   4.410  10.500 -0.2822 -0.4111  1.1836
  845MOL0     O16508   3.538   4.453  10.364 -0.2518 -0.0713  0.4126
  845MOL0     C16509   3.412   4.431  10.299  0.1980 -0.6585  0.9962
  845MOL0     C16510   3.448   4.358  10.165 -0.2296  0.0085 -0.2061
  845MOL0     C16511   3.333   4.347  10.074  1.1288  0.1299  0.1038
  845MOL0     C16512   3.368   4.286   9.934  0.6872  0.4873 -0.1439
  845MOL0     C16513   3.241   4.268   9.840 -0.1684 -0.5605  0.0349
  845MOL0     C16514   3.285   4.249   9.693  0.4081  0.1880 -0.6163
  845MOL0     C16515   3.168   4.264   9.590  0.1019 -0.1746 -1.0390
  845MOL0     C16516   3.221   4.364   9.487  0.3194 -0.0119  1.4679
  845MOL0    Cl16517   3.114   4.350   9.331  0.0434  0.3807  0.0586
  845MOL0     C16518   3.472   4.430  10.607  0.2343  0.1157 -0.6140
  845MOL0     C16519   3.516   4.399  10.737  0.7073 -0.6566  0.1893
  845MOL0     O16520   3.470   4.229  10.950 -0.5077  0.9232 -0.4453
  845MOL0     C16521   3.804   4.184  11.099  0.7852  0.4041 -0.8748
  845MOL0     C16522   3.868   4.133  11.211  0.0341 -0.6316  0.5055
  845MOL0     N16523   4.131   3.604  11.764  0.2776 -1.2120 -0.7453
  845MOL0     N16524   4.093   3.479  11.791  0.0015 -0.4361 -0.1378
  845MOL0     C16525   3.396   4.014  11.711 -0.2868  0.4905 -0.5085
  845MOL0     C16526   3.284   4.003  11.622 -0.5334  0.0758 -0.2669
  845MOL0     C16527   2.978   3.815  11.330 -0.5838  0.3863 -0.7277
  845MOL0     C16528   3.002   3.894  11.217  0.6759 -0.6291  0.3016
  845MOL0     C16529   2.900   3.939  11.130 -0.0903 -0.3219 -0.1890
  845MOL0     C16530   2.773   3.891  11.144  0.4235 -0.0373  0.1012
  845MOL0     O16531   2.669   3.915  11.049 -0.5162  0.3411 -0.2474
  845MOL0     C16532   2.687   4.004  10.939  0.0193 -0.2014  1.0256
  845MOL0     C16533   2.574   4.065  10.863 -0.7253  0.2867  0.2836
  845MOL0     C16534   2.618   4.093  10.710 -0.0917 -0.6098 -0.5785
  845MOL0     C16535   2.518   4.162  10.627 -0.6162 -0.4118 -0.6505
  845MOL0     C16536   2.488   4.294  10.672 -0.0293  0.6823 -0.8385
  845MOL0     C16537   2.446   4.394  10.734 -0.2724  0.9622  0.5295
  845MOL0     C16538   2.747   3.802  11.255  0.7388 -0.1311  0.1214
  845MOL0     C16539   2.845   3.762  11.347  0.1860  0.5479 -0.1996
  845MOL0     C16540   2.805   3.648  11.442  0.3190 -0.8340 -0.4002
  845MOL0     H16541   3.383   3.719  11.458  0.0199  3.6948 -3.0448
  845MOL0     H16542   3.573   3.741  11.628  0.6449  0.5195 -0.8033
  845MOL0     H16543   3.485   3.989  11.959  0.8141 -0.2044  0.4762
  845MOL0     H16544   3.652   4.045  11.972 -1.9606  0.1546  3.7320
  845MOL0     H16545   3.720   3.791  11.975  0.9745 -0.6809  3.0800
  845MOL0     H16546   3.649   3.847  12.118 -1.4494 -2.7784  0.3307
  845MOL0     H16547   3.433   3.771  12.062 -2.7760 -2.0202 -3.4776
  845MOL0     H16548   3.501   3.696  11.910 -2.8629  0.8903 -0.4634
  845MOL0     H16549   3.608   3.617  12.190  0.7956  1.7234 -1.4510
  845MOL0     H16550   3.454   3.560  12.133 -0.7367  1.6682 -2.0988
  845MOL0     H16551   3.655   3.535  11.919 -2.6177  1.3491 -0.0089
  845MOL0     H16552   3.596   3.401  12.010  3.4687 -0.7750  0.2298
  845MOL0     H16553   3.838   3.553  12.090  0.0046 -0.3672  1.7681
  845MOL0     H16554   3.772   3.431  12.190  1.8570 -0.3056 -0.0535
  845MOL0     H16555   3.831   3.250  12.025 -3.0963  0.3846  1.5092
  845MOL0     H16556   3.974   3.346  12.049 -0.6422 -2.3828  0.8106
  845MOL0     H16557   3.922   3.282  11.809  1.1509 -0.6200  1.4423
  845MOL0     H16558   3.768   3.373  11.817 -0.3337  1.7378 -1.2191
  845MOL0     H16559   3.802   3.649  11.798 -1.2676  0.2453  1.3104
  845MOL0     H16560   4.032   3.881  11.805  0.2195 -0.6389  0.3045
  845MOL0     H16561   3.903   3.846  11.682 -0.0796 -1.9353 -1.2688
  845MOL0     H16562   4.193   3.853  11.640 -0.8222 -2.6869  0.4323
  845MOL0     H16563   4.068   3.831  11.507 -1.1538  1.9101 -0.2421
  845MOL0     H16564   4.025   4.077  11.673  0.1409  0.0607 -0.3139
  845MOL0     H16565   4.177   4.073  11.600 -0.3031  0.2677  3.1625
  845MOL0     H16566   4.008   4.195  11.456 -0.1224 -0.0655  2.6389
  845MOL0     H16567   4.080   4.058  11.373  1.1123  1.2777  0.2900
  845MOL0     H16568   3.602   4.059  11.405  1.1571 -1.2874  0.5290
  845MOL0     H16569   3.378   4.188  11.166  1.3223  1.8070  1.3718
  845MOL0     H16570   3.405   4.132  11.316  2.5867  1.3777  0.3354
  845MOL0     H16571   3.401   4.011  11.195 -0.3755 -0.1542  1.4881
  845MOL0     H16572   3.814   4.265  10.665 -0.0773  0.4425  0.0249
  845MOL0     H16573   3.751   4.329  10.441 -0.9375  2.0406 -1.5666
  845MOL0     H16574   3.335   4.377  10.355 -2.2301  2.4019  0.8652
  845MOL0     H16575   3.370   4.526  10.264 -1.3621 -2.6926 -3.3920
  845MOL0     H16576   3.531   4.416  10.125 -1.3948  1.4525 -0.6139
  845MOL0     H16577   3.476   4.255  10.189 -0.4223 -0.1210 -0.5288
  845MOL0     H16578   3.299   4.451  10.069  1.0525  0.1630  1.0955
  845MOL0     H16579   3.247   4.298  10.121  2.0881 -0.0487  1.7518
  845MOL0     H16580   3.410   4.186   9.944 -1.1535 -0.9402 -4.4209
  845MOL0     H16581   3.442   4.352   9.887  0.4937  0.4206 -0.5502
  845MOL0     H16582   3.177   4.186   9.873  0.9746 -0.8766  1.6118
  845MOL0     H16583   3.179   4.358   9.844 -0.7099 -0.9627  0.9715
  845MOL0     H16584   3.329   4.149   9.688 -1.7491 -0.7868 -1.0385
  845MOL0     H16585   3.362   4.324   9.672 -1.4786  2.2081 -0.6499
  845MOL0     H16586   3.084   4.315   9.637  2.0501  0.7191  1.6663
  845MOL0     H16587   3.144   4.167   9.545  1.2541 -0.6879 -0.5989
  845MOL0     H16588   3.321   4.337   9.453 -0.1022 -0.6592  0.6855
  845MOL0     H16589   3.237   4.471   9.504 -1.1316  0.8613 -1.8136
  845MOL0     H16590   3.374   4.474  10.590  0.6790  0.4678 -2.5547
  845MOL0     H16591   3.437   4.411  10.811 -2.2779 -0.0100 -2.8664
  845MOL0     H16592   3.860   4.225  11.016 -0.6034  1.9373 -1.1217
  845MOL0     H16593   3.974   4.121  11.194 -0.6133 -1.4424 -4.7987
  845MOL0     H16594   3.402   4.100  11.776  1.3556 -0.7259  1.0450
  845MOL0     H16595   3.197   4.069  11.616 -0.3453  0.2885 -0.7615
  845MOL0     H16596   3.103   3.922  11.190  0.3210 -0.7395 -1.2345
  845MOL0     H16597   2.937   3.999  11.048  2.9453 -0.1269  1.1975
  845MOL0     H16598   2.745   4.095  10.957  0.0724  0.6471 -2.6653
  845MOL0     H16599   2.748   3.945  10.870 -1.1639  0.4598 -0.6450
  845MOL0     H16600   2.545   4.157  10.915 -0.0703  0.6344  0.0525
  845MOL0     H16601   2.496   3.991  10.883  0.5603 -0.4125  3.1856
  845MOL0     H16602   2.708   4.154  10.722 -0.4957 -0.1266  0.1056
  845MOL0     H16603   2.647   3.996  10.669 -0.5922 -1.0449  0.0705
  845MOL0     H16604   2.435   4.091  10.626  0.6709 -1.9985  0.4058
  845MOL0     H16605   2.570   4.163  10.531  2.3809  0.1525  0.8612
  845MOL0     H16606   2.422   4.494  10.766  1.8369  0.9984  2.2338
  845MOL0     H16607   2.652   3.749  11.252  0.4710  0.3674 -0.2163
  845MOL0     H16608   2.873   3.562  11.437 -1.3691 -2.1604 -1.7691
  845MOL0     H16609   2.809   3.681  11.546  2.4422  1.8877 -1.2368
  845MOL0     H16610   2.705   3.605  11.431  0.3399 -1.6663  2.0205
  846MOL0     O16611   9.044   8.732   6.786 -0.2941 -0.2468 -0.0988
  846MOL0     C16612   9.092   8.658   6.708 -0.9221  0.5829  1.1634
  846MOL0     O16613   9.155   8.551   6.736  0.1870 -0.5489  0.0639
  846MOL0     C16614   9.190   8.487   6.853  0.1336 -0.6346 -0.5528
  846MOL0     C16615   9.167   8.540   6.979  0.2750  0.0525 -0.1278
  846MOL0     C16616   9.182   8.475   7.103 -0.0594  0.1005 -0.0719
  846MOL0     C16617   9.228   8.348   7.103  0.5028 -0.5461 -0.0446
  846MOL0     O16618   9.250   8.282   7.225 -0.1661  1.0202 -0.5242
  846MOL0     C16619   9.234   8.142   7.225  0.1171  0.7955  0.4028
  846MOL0     C16620   9.269   8.092   7.356  0.7345  0.4423 -0.6140
  846MOL0     C16621   9.408   8.146   7.399  0.1126  0.1198 -0.5482
  846MOL0     C16622   9.505   8.058   7.489 -0.8019  0.0839  0.3671
  846MOL0     C16623   9.590   7.941   7.437  0.4784  0.6363  0.2527
  846MOL0     C16624   9.643   7.841   7.540  0.2317  0.7258  0.1910
  846MOL0     C16625   9.731   7.908   7.648 -0.0994  0.6598  1.1630
  846MOL0     C16626   9.865   7.946   7.592  0.2327 -0.6625  0.4455
  846MOL0     N16627   9.957   7.838   7.548 -0.5909  0.5757  0.0299
  846MOL0     C16628  10.013   7.819   7.423 -0.3383  0.9396 -0.3339
  846MOL0     C16629  10.052   7.687   7.414  0.1521 -0.5998 -0.5222
  846MOL0     C16630  10.125   7.616   7.300  0.2489 -0.6322  0.1414
  846MOL0     C16631  10.266   7.674   7.292 -0.0325  2.0283  0.9312
  846MOL0     C16632  10.360   7.631   7.406  0.2398  0.8850 -0.9912
  846MOL0     C16633  10.394   7.478   7.387 -0.1461 -0.2091  0.0937
  846MOL0     O16634  10.455   7.446   7.256 -0.6266  0.1236 -0.8000
  846MOL0     C16635  10.452   7.310   7.226 -0.2596 -0.6954  0.5936
  846MOL0     C16636  10.499   7.203   7.305 -1.2674 -0.5713  0.4591
  846MOL0     C16637  10.493   7.071   7.259 -0.1238  0.2099 -1.0683
  846MOL0     C16638  10.549   6.977   7.359  0.5809 -0.5249  0.2832
  846MOL0     C16639  10.456   7.035   7.125  0.7991 -0.9281  0.3937
  846MOL0     C16640  10.447   6.895   7.080  0.2372 -0.0522  0.7523
  846MOL0     O16641  10.419   6.885   6.945 -0.2318 -0.3368 -0.0848
  846MOL0     C16642  10.388   6.773   6.873  0.3594 -0.7072  0.3143
  846MOL0     C16643  10.341   6.658   6.931 -0.2858 -0.4334 -0.7113
  846MOL0     C16644  10.329   6.546   6.847  0.5833 -0.1525 -0.4425
  846MOL0     C16645  10.371   6.540   6.718 -0.1474 -0.5958  1.8308
  846MOL0     O16646  10.369   6.427   6.640 -0.0465  0.2698  0.1411
  846MOL0     C16647  10.282   6.315   6.676 -0.5666  0.2367 -0.2761
  846MOL0     C16648  10.325   6.188   6.617  0.6679  1.0430 -0.6020
  846MOL0     C16649  10.467   6.162   6.660  0.1792  0.0273 -0.3971
  846MOL0     C16650  10.516   6.016   6.624  0.1489 -0.5821 -0.7350
  846MOL0     C16651  10.411   5.914   6.663 -0.0417 -0.3753  0.0923
  846MOL0     C16652  10.315   5.863   6.557  1.3553  0.0151  0.7772
  846MOL0     C16653  10.383   5.794   6.439  0.4296  0.2639 -0.8351
  846MOL0     C16654  10.304   5.781   6.309  1.0905  0.0909  0.0212
  846MOL0    Cl16655  10.395   5.697   6.173 -0.2290 -0.1967 -0.1959
  846MOL0     C16656  10.416   6.657   6.654  0.7686 -0.7846 -1.1817
  846MOL0     C16657  10.414   6.773   6.735  0.0268 -0.2868 -0.1240
  846MOL0     O16658  10.457   6.798   7.155  0.6503  0.1135 -0.3977
  846MOL0     C16659  10.414   7.141   7.046  1.0376  0.4587  0.2716
  846MOL0     C16660  10.426   7.278   7.093  0.1253 -0.0720 -0.5709
  846MOL0     N16661  10.044   7.645   7.547 -0.8882  0.7491 -0.0450
  846MOL0     N16662   9.991   7.731   7.626  0.0148  0.5310  0.4162
  846MOL0     C16663   9.251   8.289   6.978  0.2621  0.0985  0.5884
  846MOL0     C16664   9.225   8.357   6.856 -0.2181 -0.0032 -0.5716
  846MOL0     C16665   9.074   8.680   6.562  0.5950 -0.2304 -0.4281
  846MOL0     C16666   9.115   8.591   6.463  0.5272  0.3528 -0.0627
  846MOL0     C16667   9.078   8.609   6.324 -1.0647  0.1658 -0.8112
  846MOL0     C16668   9.002   8.719   6.292 -0.1053 -1.0111  0.5028
  846MOL0     O16669   8.944   8.747   6.172  0.1088 -0.4905  0.0654
  846MOL0     C16670   8.880   8.634   6.104  0.2098  0.0784 -0.8258
  846MOL0     C16671   8.800   8.676   5.982 -1.1880  0.3925  0.1719
  846MOL0     C16672   8.890   8.716   5.856  0.3049  0.0591 -1.0964
  846MOL0     C16673   8.813   8.756   5.735 -1.0161 -0.0466  0.2258
  846MOL0     C16674   8.739   8.635   5.676 -0.6366 -0.1803  1.8709
  846MOL0     C16675   8.674   8.548   5.627  0.1176 -0.1699 -0.2594
  846MOL0     C16676   8.991   8.823   6.390 -0.1296 -1.0261  0.0053
  846MOL0     C16677   9.025   8.809   6.521 -0.2972 -0.5678 -0.0440
  846MOL0     C16678   9.022   8.939   6.603  0.7844  0.7713  0.5638
  846MOL0     H16679   9.117   8.636   6.988  0.8882  0.1902  2.6774
  846MOL0     H16680   9.136   8.528   7.186 -3.4518  2.5950 -3.2238
  846MOL0     H16681   9.301   8.093   7.154 -0.2259  2.1192 -0.9053
  846MOL0     H16682   9.131   8.107   7.219  1.2899 -3.0685  0.4470
  846MOL0     H16683   9.192   8.114   7.431 -1.4292 -4.0769 -1.1783
  846MOL0     H16684   9.270   7.982   7.353  0.2999  0.3479  1.3348
  846MOL0     H16685   9.469   8.182   7.315  1.0296 -0.5763 -0.1962
  846MOL0     H16686   9.392   8.230   7.467  3.0176 -2.1313  3.3234
  846MOL0     H16687   9.575   8.131   7.531  0.4523 -1.0502  0.3401
  846MOL0     H16688   9.436   8.022   7.565 -2.7622  1.0046 -0.8988
  846MOL0     H16689   9.667   7.987   7.374 -1.9190  1.7915 -1.9957
  846MOL0     H16690   9.532   7.884   7.363  1.9408 -1.3612  0.5492
  846MOL0     H16691   9.561   7.788   7.589 -0.0024  0.1813 -0.7662
  846MOL0     H16692   9.696   7.761   7.487 -1.0232 -1.7565  2.4688
  846MOL0     H16693   9.741   7.833   7.727 -1.9838 -0.1448  0.7111
  846MOL0     H16694   9.677   7.991   7.693 -2.7574  0.5767 -1.5622
  846MOL0     H16695   9.856   8.019   7.511  0.2892 -0.7169  0.3895
  846MOL0     H16696   9.931   7.999   7.661  0.2722 -1.0289  0.6873
  846MOL0     H16697  10.029   7.891   7.343 -0.4691  0.1199 -1.1075
  846MOL0     H16698  10.077   7.636   7.204 -1.0467  0.5970  0.9825
  846MOL0     H16699  10.120   7.508   7.315 -0.0641 -0.7798 -0.9924
  846MOL0     H16700  10.295   7.642   7.192 -1.0724  1.1248  0.9057
  846MOL0     H16701  10.260   7.784   7.292  2.3767  2.2794 -2.1376
  846MOL0     H16702  10.451   7.690   7.416  0.5784  0.0083  1.7307
  846MOL0     H16703  10.297   7.647   7.494  0.1625  1.3879 -1.1356
  846MOL0     H16704  10.458   7.454   7.472 -0.9858 -2.7970  0.0714
  846MOL0     H16705  10.303   7.421   7.409 -0.6824  1.0002  1.1441
  846MOL0     H16706  10.548   7.225   7.400 -1.9956  2.0593  0.3239
  846MOL0     H16707  10.649   6.942   7.333  0.0901 -0.9799 -1.0704
  846MOL0     H16708  10.483   6.891   7.368 -0.8355  0.2433 -1.8811
  846MOL0     H16709  10.560   7.021   7.458 -0.4988  0.2825  0.0640
  846MOL0     H16710  10.310   6.642   7.034  1.9020 -0.9805 -0.0797
  846MOL0     H16711  10.283   6.458   6.891  1.5579  0.7236  2.5681
  846MOL0     H16712  10.276   6.283   6.780 -3.5970 -1.8401 -0.9498
  846MOL0     H16713  10.178   6.330   6.645 -0.6857 -0.6320 -0.3145
  846MOL0     H16714  10.258   6.119   6.669  0.8127  0.0166 -1.7303
  846MOL0     H16715  10.319   6.184   6.508  2.0320  1.4075 -0.7186
  846MOL0     H16716  10.475   6.181   6.768 -0.8709 -1.4059 -0.0430
  846MOL0     H16717  10.539   6.233   6.618  0.3773  1.0275  1.5432
  846MOL0     H16718  10.614   6.003   6.671  1.3505  0.7288 -2.7552
  846MOL0     H16719  10.530   6.024   6.516 -0.9348 -0.8535 -0.9034
  846MOL0     H16720  10.469   5.822   6.677 -1.1676 -1.2543 -0.8631
  846MOL0     H16721  10.359   5.952   6.751 -0.6957 -1.6593  0.2793
  846MOL0     H16722  10.265   5.951   6.515  1.1421 -0.7208 -0.5581
  846MOL0     H16723  10.244   5.792   6.601  1.9259 -1.8991 -1.2240
  846MOL0     H16724  10.414   5.693   6.466  1.6091  0.0120 -2.9426
  846MOL0     H16725  10.475   5.849   6.415  0.9562  0.2628  1.0117
  846MOL0     H16726  10.270   5.879   6.275 -1.0757  0.2116  2.2284
  846MOL0     H16727  10.216   5.718   6.325 -0.7336  1.6526 -3.0391
  846MOL0     H16728  10.451   6.661   6.551  2.7552  2.7965 -0.5635
  846MOL0     H16729  10.451   6.867   6.696 -3.5314  0.8468 -1.1817
  846MOL0     H16730  10.362   7.122   6.953 -0.9125 -2.2109  1.7511
  846MOL0     H16731  10.396   7.356   7.023 -3.8119 -1.9885 -1.2833
  846MOL0     H16732   9.294   8.190   6.970  0.1246  0.1259 -0.8234
  846MOL0     H16733   9.245   8.298   6.767  0.2424  1.3473 -1.3989
  846MOL0     H16734   9.174   8.500   6.473 -2.6332 -1.8813 -0.1563
  846MOL0     H16735   9.108   8.531   6.255 -1.8003 -2.5506  1.7358
  846MOL0     H16736   8.961   8.564   6.080  0.0529 -0.1810 -0.6050
  846MOL0     H16737   8.808   8.583   6.169 -1.3614  3.4892  0.3477
  846MOL0     H16738   8.732   8.760   5.998 -3.7572 -1.1780 -1.8420
  846MOL0     H16739   8.730   8.595   5.960  0.0022 -1.1261  1.6866
  846MOL0     H16740   8.949   8.804   5.885 -1.0803  0.6934 -0.1218
  846MOL0     H16741   8.956   8.631   5.837  1.6978  0.3237  1.8997
  846MOL0     H16742   8.875   8.787   5.651 -0.0486  3.6737  2.0938
  846MOL0     H16743   8.751   8.845   5.744 -2.8253 -0.8006 -3.2115
  846MOL0     H16744   8.626   8.460   5.590 -2.1373 -0.2621  2.5367
  846MOL0     H16745   8.957   8.919   6.354  2.8993  0.1357 -0.0169
  846MOL0     H16746   8.929   8.929   6.659  1.1413 -2.3229  0.7786
  846MOL0     H16747   9.112   8.925   6.664  2.1303  0.2786 -1.4480
  846MOL0     H16748   9.015   9.036   6.552  1.3133  0.8464  0.6256
  847MOL0     O16749   7.900   1.293   2.561 -0.7129 -0.3389 -0.4072
  847MOL0     C16750   8.002   1.242   2.609 -0.4121  0.2607 -0.7129
  847MOL0     O16751   8.097   1.188   2.532  0.2908  0.2277  0.2705
  847MOL0     C16752   8.062   1.154   2.397  0.0082  0.3325 -1.4331
  847MOL0     C16753   8.041   1.016   2.364 -0.0856 -0.2008  0.4041
  847MOL0     C16754   7.998   0.974   2.241  0.3657 -0.4935  0.8558
  847MOL0     C16755   7.983   1.068   2.142 -0.0605  1.0346 -0.0187
  847MOL0     O16756   7.948   1.012   2.023 -0.0549  0.7596 -0.1727
  847MOL0     C16757   8.005   1.065   1.904  0.9905 -0.9718 -0.2013
  847MOL0     C16758   8.027   0.946   1.812 -0.0708 -0.3809 -1.0322
  847MOL0     C16759   8.112   0.989   1.696  0.1452  0.1057  1.0249
  847MOL0     C16760   8.260   1.028   1.735  0.4343  0.0747  0.3039
  847MOL0     C16761   8.356   1.052   1.614  0.3753  0.5678  0.0970
  847MOL0     C16762   8.495   1.067   1.669  0.3049  0.2329 -0.3200
  847MOL0     C16763   8.610   1.077   1.570  0.7345  0.3570  0.0394
  847MOL0     C16764   8.755   1.082   1.625  0.0267  0.2167  0.0180
  847MOL0     N16765   8.857   1.126   1.537 -0.0774 -0.6858 -0.5524
  847MOL0     C16766   8.880   1.255   1.493  0.0527  0.6736 -0.7492
  847MOL0     C16767   8.999   1.252   1.424  0.6513  0.3138  0.3626
  847MOL0     C16768   9.069   1.370   1.350 -0.1762 -0.3582  0.3006
  847MOL0     C16769   9.138   1.318   1.232  0.1120 -0.0085  0.6753
  847MOL0     C16770   9.178   1.429   1.135  0.2364 -0.1555 -0.5900
  847MOL0     C16771   9.285   1.519   1.200 -0.5724 -0.4819 -0.1257
  847MOL0     O16772   9.315   1.609   1.097  0.3103  0.5187  0.1348
  847MOL0     C16773   9.425   1.609   1.015  0.0862  0.3302  0.1803
  847MOL0     C16774   9.434   1.713   0.924 -0.4807  0.1123 -0.4350
  847MOL0     C16775   9.541   1.716   0.828  0.2078  0.5283 -0.8468
  847MOL0     C16776   9.550   1.861   0.760 -0.3357 -0.4339 -0.0980
  847MOL0     C16777   9.650   1.618   0.823 -0.0769  0.6843  0.6892
  847MOL0     C16778   9.758   1.609   0.724 -0.4773  0.0494 -0.0715
  847MOL0     O16779   9.842   1.505   0.736 -0.8121 -0.1390 -0.3063
  847MOL0     C16780   9.972   1.513   0.680  0.8898  0.4892  0.0042
  847MOL0     C16781  10.071   1.578   0.754 -0.1495 -0.5154  0.0532
  847MOL0     C16782  10.208   1.583   0.709 -0.8298 -0.6223  0.2024
  847MOL0     C16783  10.244   1.520   0.582  0.1387  0.5839 -0.3911
  847MOL0     O16784  10.370   1.499   0.545 -0.3477  0.0314  0.1032
  847MOL0     C16785  10.400   1.569   0.419 -0.3757  0.6527  0.8099
  847MOL0     C16786  10.541   1.565   0.389 -0.3420  0.3596  0.1363
  847MOL0     C16787  10.635   1.608   0.509 -0.2480 -0.1339  0.4699
  847MOL0     C16788  10.784   1.597   0.461 -0.0501 -0.2345 -0.2605
  847MOL0     C16789  10.876   1.645   0.583  1.4751 -0.1429 -0.6053
  847MOL0     C16790  10.869   1.797   0.589  0.2632 -1.4375 -0.8305
  847MOL0     C16791  10.862   1.855   0.736 -0.0742 -0.0881  0.9867
  847MOL0     C16792  10.906   2.006   0.737  0.3147 -0.0016  0.4783
  847MOL0    Cl16793  10.795   2.089   0.644  0.1468 -0.0828 -0.0888
  847MOL0     C16794  10.133   1.466   0.506 -0.0102 -0.2338  0.2609
  847MOL0     C16795  10.001   1.455   0.559 -0.5440 -0.5730  0.6912
  847MOL0     O16796   9.782   1.701   0.649  0.5809 -0.5835  0.5707
  847MOL0     C16797   9.624   1.513   0.911  0.4640  0.1366 -0.1116
  847MOL0     C16798   9.520   1.508   1.012  0.2409 -0.0353 -0.6956
  847MOL0     N16799   9.029   1.116   1.414 -0.2307  0.3856  0.2867
  847MOL0     N16800   8.945   1.047   1.480  0.2813  0.1616 -1.1240
  847MOL0     C16801   7.998   1.206   2.171 -0.8767  1.4769  0.1174
  847MOL0     C16802   8.038   1.246   2.296  0.0309 -0.3423 -0.1490
  847MOL0     C16803   8.044   1.254   2.754  0.1765  0.3771  0.6778
  847MOL0     C16804   8.165   1.193   2.791 -0.5176  0.4943 -0.8036
  847MOL0     C16805   8.208   1.205   2.924  0.5816 -0.8539  0.7177
  847MOL0     C16806   8.146   1.292   3.017 -0.1251 -0.2766  0.1219
  847MOL0     O16807   8.190   1.295   3.150 -0.7340  0.7345 -0.2719
  847MOL0     C16808   8.134   1.408   3.220 -1.0038 -0.4893 -0.7834
  847MOL0     C16809   8.217   1.436   3.344  0.8279  0.6572  0.9232
  847MOL0     C16810   8.368   1.451   3.309 -0.5601 -0.2698  0.2419
  847MOL0     C16811   8.447   1.463   3.435  0.7809 -0.1576  1.0722
  847MOL0     C16812   8.589   1.478   3.407 -0.1995  0.8456 -1.0897
  847MOL0     C16813   8.702   1.489   3.379  0.1032 -0.3062 -0.0062
  847MOL0     C16814   8.026   1.352   2.978 -0.1810 -0.1779  0.3506
  847MOL0     C16815   7.972   1.323   2.848  0.6332 -0.4516 -0.2698
  847MOL0     C16816   7.838   1.394   2.828  0.5016  0.1086  0.4724
  847MOL0     H16817   8.057   0.937   2.436  1.3612 -0.4464 -0.1467
  847MOL0     H16818   7.993   0.870   2.208  0.8019 -1.4375  3.5116
  847MOL0     H16819   8.088   1.135   1.917 -0.2274  0.2325  1.3509
  847MOL0     H16820   7.927   1.126   1.859  1.2498 -0.5277 -0.0500
  847MOL0     H16821   8.090   0.881   1.873 -0.5798  0.0669 -0.0018
  847MOL0     H16822   7.933   0.898   1.783 -1.0936  0.2025  1.1379
  847MOL0     H16823   8.106   0.911   1.620 -2.1849  2.1251 -1.0470
  847MOL0     H16824   8.070   1.074   1.642  0.9309 -1.1729 -1.7959
  847MOL0     H16825   8.265   1.126   1.782 -1.9124  2.2436 -3.4848
  847MOL0     H16826   8.303   0.955   1.805  1.8053 -0.1935 -0.7881
  847MOL0     H16827   8.325   1.139   1.554 -1.7216 -0.4989 -0.4472
  847MOL0     H16828   8.357   0.962   1.553 -0.2174 -0.3003  1.3384
  847MOL0     H16829   8.501   1.158   1.729 -0.2822 -0.8876  1.5251
  847MOL0     H16830   8.505   0.974   1.727  1.3317 -0.0138 -0.8622
  847MOL0     H16831   8.584   1.162   1.507 -1.9016  0.1615  0.7220
  847MOL0     H16832   8.602   0.993   1.500 -1.2370  0.1052  0.5060
  847MOL0     H16833   8.753   1.161   1.701  1.7186  1.1590 -0.8574
  847MOL0     H16834   8.795   0.988   1.664  3.1693  1.9484  1.3018
  847MOL0     H16835   8.811   1.338   1.507 -2.8268 -1.3279 -1.9597
  847MOL0     H16836   9.142   1.412   1.420  1.5952  0.7560 -2.0958
  847MOL0     H16837   9.002   1.450   1.318  1.7731  2.1423  1.9688
  847MOL0     H16838   9.224   1.256   1.256  1.3130  1.6307  0.8090
  847MOL0     H16839   9.065   1.256   1.179  1.3825 -0.3674 -0.7380
  847MOL0     H16840   9.192   1.383   1.037 -3.7013 -3.3613  0.0684
  847MOL0     H16841   9.091   1.490   1.109 -0.8002 -1.9773 -1.6360
  847MOL0     H16842   9.249   1.578   1.285  1.8253 -0.8921  1.2761
  847MOL0     H16843   9.376   1.476   1.243  0.8494  3.8149  1.7392
  847MOL0     H16844   9.367   1.798   0.930  0.9273  1.2871 -0.7070
  847MOL0     H16845   9.653   1.891   0.740 -1.1184  3.2507  0.6173
  847MOL0     H16846   9.496   1.941   0.811  0.4960  0.1229 -0.0745
  847MOL0     H16847   9.501   1.861   0.662 -2.5680  3.3748  0.7908
  847MOL0     H16848  10.049   1.616   0.853  0.6418 -0.8331  0.3573
  847MOL0     H16849  10.272   1.640   0.775 -1.6248  1.9200 -1.0988
  847MOL0     H16850  10.340   1.521   0.340  0.4056 -1.1903  1.2831
  847MOL0     H16851  10.390   1.677   0.429  0.1652  0.9327 -1.1353
  847MOL0     H16852  10.575   1.466   0.359 -3.0421 -1.5363  2.8034
  847MOL0     H16853  10.538   1.638   0.308  0.2501 -1.3392 -1.4847
  847MOL0     H16854  10.614   1.544   0.595 -2.4760 -1.3390 -0.8794
  847MOL0     H16855  10.605   1.712   0.526 -1.1903  0.8374 -5.1074
  847MOL0     H16856  10.802   1.651   0.368 -1.7300 -1.3217 -1.2604
  847MOL0     H16857  10.802   1.490   0.445 -1.9144 -0.4783 -0.9454
  847MOL0     H16858  10.844   1.599   0.677  5.4342  1.4241  1.7608
  847MOL0     H16859  10.974   1.596   0.581  0.8294 -1.8289  2.3048
  847MOL0     H16860  10.788   1.840   0.531  0.1988  0.4527  0.5830
  847MOL0     H16861  10.958   1.828   0.533  0.7273  1.0697  1.1308
  847MOL0     H16862  10.946   1.804   0.786  0.9766  1.8129  1.2480
  847MOL0     H16863  10.769   1.831   0.788 -2.0498  1.2465 -1.7169
  847MOL0     H16864  10.998   2.016   0.679 -0.2217 -1.3316 -0.6353
  847MOL0     H16865  10.917   2.061   0.832 -0.9427  1.1858 -0.0296
  847MOL0     H16866  10.149   1.426   0.407 -1.4137 -3.3229  1.1695
  847MOL0     H16867   9.924   1.399   0.507  0.5690  0.2480 -1.9874
  847MOL0     H16868   9.688   1.426   0.896 -0.8347 -0.8153 -0.2690
  847MOL0     H16869   9.513   1.425   1.081 -0.7612  1.4823  1.0910
  847MOL0     H16870   7.984   1.280   2.093 -2.4263 -0.9268 -2.0415
  847MOL0     H16871   8.063   1.351   2.312  2.0521 -0.8848  0.5367
  847MOL0     H16872   8.213   1.116   2.731  0.7463  0.7735 -0.1645
  847MOL0     H16873   8.303   1.158   2.948  1.7112 -0.8104 -3.0399
  847MOL0     H16874   8.145   1.498   3.158 -1.3539 -0.2774 -0.5371
  847MOL0     H16875   8.028   1.400   3.241 -0.6312  1.3106  2.3988
  847MOL0     H16876   8.193   1.352   3.410 -2.7250  2.1930  1.8139
  847MOL0     H16877   8.174   1.526   3.388  0.8867  2.7254 -2.8120
  847MOL0     H16878   8.405   1.363   3.255  3.0899 -0.6747  2.9752
  847MOL0     H16879   8.383   1.530   3.235  2.6145 -3.9481 -3.5710
  847MOL0     H16880   8.436   1.383   3.508  2.1996  1.0311  2.6732
  847MOL0     H16881   8.406   1.558   3.471  1.5590  1.0734 -1.0780
  847MOL0     H16882   8.799   1.492   3.332  0.4071 -3.4958  0.2363
  847MOL0     H16883   7.974   1.427   3.036  0.1302  0.6248 -0.3882
  847MOL0     H16884   7.779   1.425   2.915 -1.2001 -0.2170 -0.5152
  847MOL0     H16885   7.867   1.480   2.767 -1.3237 -0.0300 -0.6622
  847MOL0     H16886   7.776   1.326   2.769  2.9914 -1.2076 -0.7929
  848MOL0     O16887   1.700   0.954   7.637 -0.5671  0.6337  0.0990
  848MOL0     C16888   1.762   0.988   7.537  0.9240 -0.8347  0.4169
  848MOL0     O16889   1.702   0.991   7.421 -0.2385 -0.2037 -0.0291
  848MOL0     C16890   1.628   0.881   7.374 -0.3179  0.0203  0.6026
  848MOL0     C16891   1.627   0.755   7.423  0.2160  0.7677 -0.1722
  848MOL0     C16892   1.544   0.656   7.367  0.7616 -0.5090  0.2765
  848MOL0     C16893   1.474   0.678   7.251  0.8926 -0.1438 -0.5323
  848MOL0     O16894   1.399   0.582   7.191  0.2029 -0.6953  0.1895
  848MOL0     C16895   1.290   0.515   7.269 -0.9826  0.0891 -0.1591
  848MOL0     C16896   1.185   0.623   7.312 -1.0884  0.4446  0.2839
  848MOL0     C16897   1.089   0.564   7.419 -0.0010 -0.3411  0.8375
  848MOL0     C16898   1.024   0.436   7.374  0.6555 -0.1314  0.5254
  848MOL0     C16899   0.904   0.391   7.460  0.0406  1.1630  0.6478
  848MOL0     C16900   0.815   0.279   7.400  0.3271  0.6742  0.0416
  848MOL0     C16901   0.701   0.241   7.490  0.2735 -0.6844 -0.2268
  848MOL0     C16902   0.625   0.118   7.441  0.6867 -0.3524 -0.0652
  848MOL0     N16903   0.505   0.097   7.534  0.0970  0.3029  0.1869
  848MOL0     C16904   0.484   0.027   7.651 -0.0557  0.6799 -0.3262
  848MOL0     C16905   0.363   0.051   7.696  0.5516  0.0752  0.7032
  848MOL0     C16906   0.301  -0.021   7.803  0.4786 -0.8422  0.0512
  848MOL0     C16907   0.159   0.022   7.819 -0.0272  0.5518 -0.4321
  848MOL0     C16908   0.086  -0.058   7.924 -0.7040  0.7896 -0.9198
  848MOL0     C16909  -0.056  -0.009   7.936 -0.9624 -0.5496 -0.0158
  848MOL0     O16910  -0.123  -0.072   8.045  0.2161 -0.3388  0.2710
  848MOL0     C16911  -0.250  -0.026   8.083  0.1632  0.3609 -0.2107
  848MOL0     C16912  -0.326  -0.115   8.163  0.1499  0.3876  0.7017
  848MOL0     C16913  -0.456  -0.095   8.183  0.0183  0.4478  0.0625
  848MOL0     C16914  -0.526  -0.202   8.264  0.0098 -0.6766  0.9491
  848MOL0     C16915  -0.526   0.017   8.140 -0.0713 -0.5387  0.8245
  848MOL0     C16916  -0.669   0.046   8.179  0.0598  1.1451 -0.3422
  848MOL0     O16917  -0.721   0.155   8.108  0.3071 -0.0678 -0.2908
  848MOL0     C16918  -0.862   0.154   8.112 -0.2865 -0.3400 -0.2411
  848MOL0     C16919  -0.932   0.208   8.216  0.8861  0.0131 -0.4820
  848MOL0     C16920  -1.077   0.221   8.203  0.0940 -0.5074  0.5411
  848MOL0     C16921  -1.149   0.195   8.090  0.0057 -0.3713 -0.3409
  848MOL0     O16922  -1.278   0.229   8.104  0.7628 -0.6573 -0.6041
  848MOL0     C16923  -1.371   0.197   7.993  0.2689 -0.6749 -0.5307
  848MOL0     C16924  -1.486   0.290   8.018 -0.2623  0.2277  0.0910
  848MOL0     C16925  -1.581   0.323   7.901  0.3100  0.1940 -0.1605
  848MOL0     C16926  -1.632   0.467   7.921 -0.4168  0.5566 -0.2273
  848MOL0     C16927  -1.758   0.491   7.836 -0.5921  0.6602 -0.2566
  848MOL0     C16928  -1.818   0.627   7.872 -1.1771 -0.5509  0.6476
  848MOL0     C16929  -1.850   0.722   7.747 -0.6267  0.4082 -0.4748
  848MOL0     C16930  -1.732   0.772   7.665 -0.5816  0.2839 -0.3276
  848MOL0    Cl16931  -1.787   0.867   7.521  0.1981 -0.1963  0.1921
  848MOL0     C16932  -1.083   0.147   7.981 -0.3650 -0.6207 -0.0563
  848MOL0     C16933  -0.936   0.121   7.994  0.1181 -0.4699 -0.2523
  848MOL0     O16934  -0.732  -0.018   8.260  0.1682 -0.5383 -0.3397
  848MOL0     C16935  -0.445   0.106   8.061  0.1139  0.3272 -0.1933
  848MOL0     C16936  -0.311   0.090   8.033 -0.6852 -0.9548 -0.3575
  848MOL0     N16937   0.309   0.147   7.616  0.3501  0.1698  0.1920
  848MOL0     N16938   0.389   0.168   7.523 -0.0205  0.3742 -0.4277
  848MOL0     C16939   1.494   0.794   7.179 -0.4846 -0.2928 -0.2935
  848MOL0     C16940   1.570   0.896   7.239  0.0949  0.0232 -0.5700
  848MOL0     C16941   1.886   1.069   7.554  0.5356  0.6923  0.0965
  848MOL0     C16942   1.920   1.127   7.678 -0.8005  0.9176 -0.1940
  848MOL0     C16943   2.039   1.197   7.694 -0.1763 -0.5455 -0.0865
  848MOL0     C16944   2.116   1.225   7.579  0.2332 -0.3213 -0.7091
  848MOL0     O16945   2.225   1.321   7.581 -0.1505 -0.7876  0.5503
  848MOL0     C16946   2.337   1.263   7.653  0.2913  0.1832 -0.7861
  848MOL0     C16947   2.438   1.372   7.663 -0.4780 -0.2304  0.0083
  848MOL0     C16948   2.390   1.460   7.777  0.3543 -0.4373 -0.0959
  848MOL0     C16949   2.478   1.566   7.804 -0.7797 -0.2429 -0.6433
  848MOL0     C16950   2.452   1.633   7.930 -0.0806  0.1835 -0.4555
  848MOL0     C16951   2.437   1.683   8.039  0.4740 -0.2817 -0.1523
  848MOL0     C16952   2.091   1.156   7.461  0.4126  0.0963 -0.0476
  848MOL0     C16953   1.980   1.074   7.447 -0.4164  0.1694 -0.2298
  848MOL0     C16954   1.982   0.995   7.317  1.3153 -0.4453 -0.2932
  848MOL0     H16955   1.671   0.729   7.519  0.2245  2.3460  0.2761
  848MOL0     H16956   1.533   0.564   7.423  1.2219 -0.9902 -0.4067
  848MOL0     H16957   1.332   0.460   7.354  4.4651  1.2240 -1.7120
  848MOL0     H16958   1.239   0.450   7.198 -0.4527 -1.4317  0.7901
  848MOL0     H16959   1.233   0.717   7.340  0.7113 -0.1377 -0.6944
  848MOL0     H16960   1.126   0.651   7.224 -1.0307 -0.7474 -0.1513
  848MOL0     H16961   1.155   0.545   7.504 -0.3642  1.2766  1.5165
  848MOL0     H16962   1.017   0.639   7.454 -0.0995 -0.2595  0.4653
  848MOL0     H16963   0.989   0.447   7.271 -0.8445 -1.9480  0.7668
  848MOL0     H16964   1.103   0.363   7.355  0.2777 -0.3176 -0.3732
  848MOL0     H16965   0.845   0.478   7.491 -0.1150  0.3389  2.7996
  848MOL0     H16966   0.950   0.356   7.552  3.2250  2.9762 -0.0931
  848MOL0     H16967   0.776   0.318   7.305 -1.0599 -1.2205 -0.2181
  848MOL0     H16968   0.877   0.193   7.373 -0.0850 -0.1405  1.6089
  848MOL0     H16969   0.626   0.321   7.492  0.5726 -0.3689 -1.1505
  848MOL0     H16970   0.747   0.218   7.587 -0.2251 -0.9769 -0.0531
  848MOL0     H16971   0.590   0.122   7.338 -1.3920 -3.3329  0.4233
  848MOL0     H16972   0.694   0.033   7.446 -0.4991 -1.2934  0.6941
  848MOL0     H16973   0.554  -0.036   7.706 -0.4737 -0.5089 -1.1015
  848MOL0     H16974   0.358   0.004   7.893  3.0351 -0.4569 -1.5698
  848MOL0     H16975   0.291  -0.126   7.774  1.0277 -0.7232 -0.6158
  848MOL0     H16976   0.153   0.129   7.843 -2.1818  0.8766 -2.0862
  848MOL0     H16977   0.099   0.002   7.730 -2.2528 -1.9904  1.4658
  848MOL0     H16978   0.097  -0.166   7.908  1.6403  0.5366  1.5473
  848MOL0     H16979   0.140  -0.053   8.020 -3.3305 -1.0983  0.7873
  848MOL0     H16980  -0.067   0.099   7.937 -4.2792 -0.7356 -1.9481
  848MOL0     H16981  -0.094  -0.035   7.837 -0.1674  1.0453 -0.7680
  848MOL0     H16982  -0.292  -0.217   8.179 -0.6885 -1.3456 -5.7498
  848MOL0     H16983  -0.623  -0.224   8.220  0.6408  1.5764 -1.9576
  848MOL0     H16984  -0.531  -0.165   8.367 -0.5920 -1.3208  1.1511
  848MOL0     H16985  -0.467  -0.294   8.267  1.8837  0.4254  0.3068
  848MOL0     H16986  -0.888   0.225   8.314 -1.3809  0.0230  0.5901
  848MOL0     H16987  -1.129   0.250   8.293 -1.8715 -0.2156 -0.6487
  848MOL0     H16988  -1.331   0.226   7.896  0.1623  2.7431  0.3261
  848MOL0     H16989  -1.390   0.089   7.989  0.0433 -0.9927  3.8533
  848MOL0     H16990  -1.540   0.247   8.103  1.7503 -1.3139  0.6921
  848MOL0     H16991  -1.445   0.383   8.058 -1.1941  0.3722  0.7244
  848MOL0     H16992  -1.664   0.252   7.902  0.1166  0.4058 -0.7139
  848MOL0     H16993  -1.533   0.307   7.804 -1.0309  1.3800 -1.0576
  848MOL0     H16994  -1.549   0.530   7.886  1.5416 -1.6241  0.2042
  848MOL0     H16995  -1.651   0.477   8.029 -2.0523 -1.7459 -0.2367
  848MOL0     H16996  -1.742   0.491   7.727  0.9550  2.3561 -0.0767
  848MOL0     H16997  -1.834   0.414   7.854  0.3833  0.2298  2.3308
  848MOL0     H16998  -1.748   0.683   7.935 -1.4574 -1.1394  1.5029
  848MOL0     H16999  -1.910   0.616   7.931 -0.5942  1.6823  2.1181
  848MOL0     H17000  -1.905   0.808   7.786  1.0861  1.3427 -0.0782
  848MOL0     H17001  -1.914   0.667   7.677  1.1135  0.3153 -2.0685
  848MOL0     H17002  -1.672   0.684   7.642  0.1699  0.7873 -0.2989
  848MOL0     H17003  -1.668   0.841   7.720 -1.4097 -0.0873  1.1726
  848MOL0     H17004  -1.129   0.122   7.886 -0.2926 -0.3321 -0.1655
  848MOL0     H17005  -0.891   0.076   7.906 -0.4364 -2.6132  0.5029
  848MOL0     H17006  -0.508   0.189   8.031 -1.0802  0.2693  1.9984
  848MOL0     H17007  -0.275   0.158   7.957  0.1487  0.3969  1.1840
  848MOL0     H17008   1.444   0.809   7.083  1.4514  0.7390 -1.1844
  848MOL0     H17009   1.567   0.983   7.174 -0.2993 -0.8101 -1.6802
  848MOL0     H17010   1.889   1.107   7.781  3.0405 -1.6287  0.6804
  848MOL0     H17011   2.070   1.246   7.786  0.2724  4.3099 -2.5097
  848MOL0     H17012   2.316   1.209   7.746 -1.6916 -0.5264 -1.6050
  848MOL0     H17013   2.384   1.193   7.583  1.3902  1.7276 -1.6480
  848MOL0     H17014   2.436   1.438   7.576  2.1254  2.8100  2.0318
  848MOL0     H17015   2.539   1.334   7.676  0.1515  1.5718  0.6807
  848MOL0     H17016   2.290   1.499   7.761 -1.4897 -5.2634 -2.6311
  848MOL0     H17017   2.369   1.399   7.865 -1.9225  3.2843  2.1919
  848MOL0     H17018   2.489   1.630   7.716  4.4890 -2.7590 -2.1963
  848MOL0     H17019   2.580   1.528   7.814 -1.8866 -4.1446 -2.5565
  848MOL0     H17020   2.429   1.716   8.141 -0.7827 -3.4444  0.8948
  848MOL0     H17021   2.158   1.169   7.377 -0.2714 -0.8477 -0.7542
  848MOL0     H17022   2.076   1.012   7.264  0.2309  0.1871 -2.0777
  848MOL0     H17023   1.968   0.889   7.341  1.8138 -0.6236 -0.7750
  848MOL0     H17024   1.907   1.037   7.250  3.3392  0.2206 -2.2647
  849MOL0     O17025   8.271   5.562   8.318 -0.0598 -0.4137 -0.4408
  849MOL0     C17026   8.259   5.481   8.225  0.5960  0.3447  0.2990
  849MOL0     O17027   8.336   5.365   8.203  0.4038 -0.1559 -0.7822
  849MOL0     C17028   8.398   5.286   8.299 -1.3625  0.1804  0.3994
  849MOL0     C17029   8.500   5.193   8.259  0.3616 -0.1937  1.1787
  849MOL0     C17030   8.572   5.132   8.349 -0.8458  1.1377 -0.3020
  849MOL0     C17031   8.541   5.127   8.485  0.0948  0.0659  0.0617
  849MOL0     O17032   8.608   5.053   8.579 -0.7028 -0.3246  0.1512
  849MOL0     C17033   8.755   5.061   8.575 -0.1378 -0.3985  0.4296
  849MOL0     C17034   8.829   4.979   8.681  0.1773 -0.6678 -0.0889
  849MOL0     C17035   8.808   5.039   8.829 -0.9505  0.1084 -0.1637
  849MOL0     C17036   8.931   4.997   8.909 -0.3668  0.4405  0.2292
  849MOL0     C17037   8.892   4.862   8.975  0.1045 -0.4525  0.0019
  849MOL0     C17038   9.014   4.771   9.005  0.5333 -0.4849  0.6741
  849MOL0     C17039   9.120   4.854   9.076  0.2869  1.2893 -0.2639
  849MOL0     C17040   9.255   4.767   9.098  1.0331 -0.3675 -0.9755
  849MOL0     N17041   9.329   4.755   8.974  0.2405 -0.3455 -0.2877
  849MOL0     C17042   9.381   4.856   8.899  0.5651  0.1648  0.3158
  849MOL0     C17043   9.474   4.804   8.817 -1.3140 -0.8881 -0.6322
  849MOL0     C17044   9.560   4.865   8.708 -0.4139 -0.3006 -0.4171
  849MOL0     C17045   9.664   4.955   8.777  0.0927  0.3969  0.1593
  849MOL0     C17046   9.750   5.024   8.671  0.3050 -0.2104 -0.2279
  849MOL0     C17047   9.856   4.929   8.622 -0.6541 -0.3553  0.2795
  849MOL0     O17048   9.970   5.011   8.581 -0.2762 -0.7312 -0.1321
  849MOL0     C17049  10.084   4.947   8.542  0.4682  0.7191 -0.0670
  849MOL0     C17050  10.127   4.947   8.411  0.6897  0.2714  0.5474
  849MOL0     C17051  10.255   4.894   8.377 -0.5433 -0.7067  0.0831
  849MOL0     C17052  10.303   4.889   8.248 -0.4703 -0.5859 -0.6717
  849MOL0     C17053  10.341   4.839   8.481 -1.0814 -0.5977  0.7496
  849MOL0     C17054  10.472   4.767   8.456 -0.2347 -1.1599  0.2526
  849MOL0     O17055  10.482   4.695   8.346 -0.2383  0.2656 -0.4470
  849MOL0     C17056  10.598   4.649   8.290  0.6408 -0.2376 -0.8469
  849MOL0     C17057  10.592   4.607   8.161  0.1686  0.6373 -0.0495
  849MOL0     C17058  10.691   4.564   8.081 -0.8091  0.2416 -0.3212
  849MOL0     C17059  10.821   4.560   8.134 -0.8201  0.6711 -0.6007
  849MOL0     O17060  10.942   4.519   8.073 -0.8102  1.0771 -0.4018
  849MOL0     C17061  10.949   4.459   7.944 -0.0600  0.2958 -0.0042
  849MOL0     C17062  11.090   4.463   7.885  1.2197 -0.5124 -0.4813
  849MOL0     C17063  11.167   4.326   7.902  0.3209 -0.7060 -0.8211
  849MOL0     C17064  11.188   4.299   8.052 -0.1607  0.2153 -0.1628
  849MOL0     C17065  11.281   4.182   8.068 -0.1171  0.1774  0.1947
  849MOL0     C17066  11.199   4.060   8.063 -0.1978 -0.1761 -0.3025
  849MOL0     C17067  11.286   3.940   8.027 -0.5588  0.1557  0.2080
  849MOL0     C17068  11.392   3.911   8.129 -0.7018  0.4509  0.4656
  849MOL0    Cl17069  11.463   3.740   8.117  0.4019  0.2413  0.4023
  849MOL0     C17070  10.840   4.605   8.265  0.4776 -0.1504 -0.5796
  849MOL0     C17071  10.734   4.645   8.341 -0.1108 -0.9824 -0.6523
  849MOL0     O17072  10.559   4.779   8.545 -0.2390 -0.3657 -0.1598
  849MOL0     C17073  10.300   4.857   8.611 -0.3165  0.3810 -0.9370
  849MOL0     C17074  10.171   4.908   8.642  0.7428 -0.1494  0.4176
  849MOL0     N17075   9.478   4.665   8.835 -0.8474  0.0227  0.5791
  849MOL0     N17076   9.391   4.644   8.930  0.2547 -0.1773  0.2562
  849MOL0     C17077   8.438   5.216   8.525  0.5038  0.4716  0.5334
  849MOL0     C17078   8.363   5.294   8.435 -0.4291 -0.2945  0.0472
  849MOL0     C17079   8.151   5.507   8.126 -0.8516  0.2649  0.4199
  849MOL0     C17080   8.025   5.559   8.170 -0.1371  0.5506 -0.2325
  849MOL0     C17081   7.923   5.593   8.084  0.7142 -0.3347  0.7352
  849MOL0     C17082   7.927   5.549   7.954 -0.4152 -0.0178  0.7633
  849MOL0     O17083   7.819   5.557   7.871  0.0743 -0.6451  0.4241
  849MOL0     C17084   7.823   5.671   7.782 -0.3841 -0.2712  0.6663
  849MOL0     C17085   7.738   5.630   7.660  0.2898 -0.4411  0.2677
  849MOL0     C17086   7.809   5.678   7.531 -0.3822 -0.5754  0.4226
  849MOL0     C17087   7.711   5.668   7.412 -0.6340 -0.2264 -0.2397
  849MOL0     C17088   7.726   5.532   7.360  0.8448  0.3951 -0.3487
  849MOL0     C17089   7.750   5.417   7.324  0.2213 -1.6046 -0.3525
  849MOL0     C17090   8.042   5.483   7.905 -0.2951 -0.3419  0.2845
  849MOL0     C17091   8.160   5.461   7.985  0.0465 -0.5300 -0.6605
  849MOL0     C17092   8.269   5.392   7.913  0.1702  0.2507 -0.1623
  849MOL0     H17093   8.527   5.182   8.154  1.4495 -0.0438  1.4363
  849MOL0     H17094   8.653   5.068   8.317 -1.0431  0.5003  0.4459
  849MOL0     H17095   8.779   5.166   8.591  2.2893 -1.0561  1.5515
  849MOL0     H17096   8.786   5.039   8.472  0.0477  3.5097 -0.4998
  849MOL0     H17097   8.789   4.877   8.670  0.7213 -0.8015 -1.0120
  849MOL0     H17098   8.936   4.975   8.658  1.0259  0.1786  3.2213
  849MOL0     H17099   8.806   5.146   8.808  1.5057 -0.2308 -2.6532
  849MOL0     H17100   8.715   5.019   8.882 -0.7965 -0.0100  0.0636
  849MOL0     H17101   9.010   4.969   8.838 -1.6103 -1.5319 -0.4644
  849MOL0     H17102   8.973   5.076   8.972  0.9444  0.2881 -0.4072
  849MOL0     H17103   8.832   4.813   8.898 -2.2667 -0.7048  1.8902
  849MOL0     H17104   8.824   4.879   9.059 -0.1591  0.3165 -0.3642
  849MOL0     H17105   8.978   4.682   9.059  1.6173 -1.0731  0.4618
  849MOL0     H17106   9.057   4.725   8.915 -0.9124 -0.6050  0.0261
  849MOL0     H17107   9.077   4.877   9.174  0.3078 -4.5444  1.4888
  849MOL0     H17108   9.141   4.945   9.019  2.0387  0.9563 -0.2012
  849MOL0     H17109   9.301   4.815   9.184 -0.0536 -2.0158  0.6072
  849MOL0     H17110   9.223   4.666   9.127 -0.6372  0.5636  0.5818
  849MOL0     H17111   9.364   4.963   8.900  0.0455  0.0906  0.0162
  849MOL0     H17112   9.513   4.933   8.636 -0.9283  2.1770  2.0805
  849MOL0     H17113   9.606   4.783   8.653 -1.7566 -1.1661 -0.2817
  849MOL0     H17114   9.606   5.025   8.838  1.6758  2.0958 -0.1577
  849MOL0     H17115   9.719   4.906   8.858  0.3491  1.8361  0.9098
  849MOL0     H17116   9.688   5.058   8.587 -1.5700 -1.7432  0.4588
  849MOL0     H17117   9.805   5.112   8.708  0.7500 -1.3147  1.8814
  849MOL0     H17118   9.893   4.862   8.700 -1.4445  0.6373  1.5646
  849MOL0     H17119   9.833   4.868   8.535 -0.5415 -1.7027  1.1543
  849MOL0     H17120  10.050   4.993   8.350  1.9550  0.4248 -0.9909
  849MOL0     H17121  10.239   4.943   8.176 -1.4617 -2.3042 -1.1323
  849MOL0     H17122  10.304   4.787   8.210  0.2436 -1.6726  2.0893
  849MOL0     H17123  10.407   4.921   8.236 -0.1491 -1.8728 -1.4382
  849MOL0     H17124  10.494   4.601   8.113  1.4356 -1.3801 -2.6664
  849MOL0     H17125  10.669   4.543   7.977 -1.7238  0.9254 -0.2797
  849MOL0     H17126  10.922   4.354   7.956 -2.3600  0.7858 -0.3880
  849MOL0     H17127  10.884   4.501   7.866 -0.8103 -2.0827 -0.7511
  849MOL0     H17128  11.088   4.460   7.775  0.6165 -1.6532 -0.4505
  849MOL0     H17129  11.151   4.544   7.927  0.9476 -1.1402  1.1748
  849MOL0     H17130  11.262   4.345   7.851  0.4482  0.2791 -0.2456
  849MOL0     H17131  11.116   4.243   7.851 -0.1184 -0.3456 -0.9798
  849MOL0     H17132  11.087   4.282   8.091  0.6428 -1.2518  1.4349
  849MOL0     H17133  11.222   4.384   8.111  0.3312 -0.4409  0.5250
  849MOL0     H17134  11.352   4.180   7.985 -0.3842  0.5028 -0.0443
  849MOL0     H17135  11.332   4.197   8.164 -2.6560 -0.6480  1.7862
  849MOL0     H17136  11.115   4.059   7.994  0.1228  1.8230 -0.7816
  849MOL0     H17137  11.153   4.056   8.162 -0.6507  1.3332 -0.4221
  849MOL0     H17138  11.328   3.948   7.926 -1.7988 -0.4722 -0.3792
  849MOL0     H17139  11.226   3.849   8.032 -0.0696 -0.2513 -0.9402
  849MOL0     H17140  11.342   3.915   8.226  2.8103 -0.4188  2.4944
  849MOL0     H17141  11.470   3.987   8.123 -1.8738  1.6689 -0.0975
  849MOL0     H17142  10.943   4.615   8.298  0.9543 -1.5332 -1.5748
  849MOL0     H17143  10.744   4.672   8.445 -2.9985 -0.1034 -0.5003
  849MOL0     H17144  10.381   4.839   8.682  0.5434 -0.7905 -2.1562
  849MOL0     H17145  10.137   4.921   8.744  1.1371 -0.8137  0.6368
  849MOL0     H17146   8.415   5.236   8.629  2.7128  2.5081  0.7044
  849MOL0     H17147   8.278   5.357   8.459  0.8761  2.4210 -1.8590
  849MOL0     H17148   8.004   5.566   8.276 -1.2217 -0.7945 -0.3382
  849MOL0     H17149   7.832   5.636   8.125  0.3098 -0.1429 -0.3361
  849MOL0     H17150   7.790   5.765   7.828  1.3564  0.5183  0.3707
  849MOL0     H17151   7.928   5.686   7.756  0.3617 -2.9014  1.8668
  849MOL0     H17152   7.639   5.677   7.669  1.5891  2.3155  1.3917
  849MOL0     H17153   7.722   5.523   7.647 -3.9825  0.2016 -1.3855
  849MOL0     H17154   7.838   5.782   7.545  2.4870 -1.4722  2.1096
  849MOL0     H17155   7.897   5.620   7.500 -0.1956  0.4257 -1.0257
  849MOL0     H17156   7.726   5.744   7.335  2.0723 -0.8090 -0.4067
  849MOL0     H17157   7.610   5.680   7.453 -0.0203  1.0528  1.0020
  849MOL0     H17158   7.780   5.318   7.296  0.7476 -1.7110  0.5513
  849MOL0     H17159   8.031   5.449   7.803 -0.2912 -0.1219  0.2096
  849MOL0     H17160   8.243   5.286   7.918 -3.2189  0.7397 -3.1188
  849MOL0     H17161   8.273   5.408   7.805  2.1349  1.1177 -0.0087
  849MOL0     H17162   8.369   5.418   7.950  1.1993 -1.7815 -1.3249
  850MOL0     O17163   8.896   1.145   6.626  0.0903 -0.1179 -0.1018
  850MOL0     C17164   9.014   1.097   6.624 -0.2087  0.4928  0.0231
  850MOL0     O17165   9.114   1.131   6.708 -0.7000 -0.4128  0.1298
  850MOL0     C17166   9.085   1.207   6.816  0.3226 -0.0208  0.0393
  850MOL0     C17167   9.031   1.339   6.808 -0.1369  0.6981  0.4256
  850MOL0     C17168   9.006   1.417   6.925  0.4216 -0.8587  0.0109
  850MOL0     C17169   9.029   1.362   7.052 -0.5758 -0.2728  0.1968
  850MOL0     O17170   9.015   1.420   7.174 -0.4874  0.1868 -0.6646
  850MOL0     C17171   8.967   1.561   7.178  0.0188 -0.2418 -0.9206
  850MOL0     C17172   9.028   1.639   7.310 -0.6504  0.8011  0.5693
  850MOL0     C17173   8.928   1.757   7.359 -0.0611 -0.5624 -0.6383
  850MOL0     C17174   8.885   1.859   7.249  0.0690 -0.5332 -0.9235
  850MOL0     C17175   9.009   1.929   7.189 -0.1907  0.4705 -0.1899
  850MOL0     C17176   8.979   2.019   7.074 -0.5706 -0.3982 -0.5440
  850MOL0     C17177   9.104   2.089   7.022 -0.9239 -0.1421  0.9596
  850MOL0     C17178   9.067   2.170   6.902  0.5194  0.0059  0.5011
  850MOL0     N17179   9.185   2.235   6.845  0.4998  0.4600  0.0831
  850MOL0     C17180   9.228   2.354   6.884 -0.1450 -1.0438 -0.1011
  850MOL0     C17181   9.340   2.382   6.803  0.7512 -0.6606  0.0541
  850MOL0     C17182   9.434   2.502   6.817 -0.2637 -0.1946  0.1927
  850MOL0     C17183   9.464   2.579   6.686 -0.0587  0.1943  0.0298
  850MOL0     C17184   9.332   2.628   6.611  0.1948 -0.4257 -0.5051
  850MOL0     C17185   9.252   2.730   6.698 -0.2740 -0.5165  0.2709
  850MOL0     O17186   9.146   2.802   6.626 -0.2160 -0.1817  1.2232
  850MOL0     C17187   9.024   2.739   6.621 -0.0221 -0.1566 -0.4646
  850MOL0     C17188   8.909   2.820   6.592  0.1879 -0.1921 -0.5799
  850MOL0     C17189   8.780   2.760   6.585 -0.1541  0.1771 -0.2092
  850MOL0     C17190   8.652   2.829   6.534  0.1365 -0.9973 -0.2513
  850MOL0     C17191   8.760   2.625   6.629 -0.3049 -0.1476 -0.6410
  850MOL0     C17192   8.624   2.563   6.655 -0.7524 -0.5211 -0.0556
  850MOL0     O17193   8.543   2.629   6.733  0.1862  0.2995 -0.4305
  850MOL0     C17194   8.408   2.603   6.749  0.3131  0.6757 -0.0261
  850MOL0     C17195   8.346   2.632   6.870 -0.5505 -0.1609 -0.4413
  850MOL0     C17196   8.204   2.601   6.897 -0.1619 -0.5120  0.9659
  850MOL0     C17197   8.119   2.534   6.806 -0.4695 -0.2962  0.9490
  850MOL0     O17198   7.990   2.487   6.817  0.2832  0.4093  0.6012
  850MOL0     C17199   7.948   2.464   6.947  0.3406  0.9923  0.3901
  850MOL0     C17200   7.825   2.374   6.935 -0.2630 -0.0687  0.3575
  850MOL0     C17201   7.689   2.453   6.923 -0.2202  0.1272 -1.0502
  850MOL0     C17202   7.661   2.508   6.782 -0.1609 -0.1585 -0.6213
  850MOL0     C17203   7.519   2.550   6.767 -0.2236 -0.3089 -0.9059
  850MOL0     C17204   7.521   2.639   6.644 -0.0814 -0.1944  1.0405
  850MOL0     C17205   7.370   2.666   6.620  0.6765 -0.0763  0.8421
  850MOL0     C17206   7.344   2.795   6.534  0.1847 -0.6213  0.9005
  850MOL0    Cl17207   7.400   2.941   6.608  0.3065 -0.2782  0.1340
  850MOL0     C17208   8.187   2.509   6.683 -0.8631 -0.7556  0.3883
  850MOL0     C17209   8.320   2.539   6.659  0.7423  0.4398 -0.3053
  850MOL0     O17210   8.610   2.448   6.611 -0.5506 -0.0903 -0.1185
  850MOL0     C17211   8.878   2.548   6.663  0.7616  0.0976 -0.0281
  850MOL0     C17212   9.007   2.604   6.653  0.2097  0.4079  0.6533
  850MOL0     N17213   9.359   2.265   6.728 -0.3791 -0.2159 -0.6952
  850MOL0     N17214   9.268   2.178   6.758 -0.1406  0.2633  0.8353
  850MOL0     C17215   9.087   1.237   7.057  0.7618  0.5687 -0.2683
  850MOL0     C17216   9.121   1.159   6.944  0.9840 -0.3278  0.0919
  850MOL0     C17217   9.036   1.002   6.506  0.4307  1.2012  0.7322
  850MOL0     C17218   8.978   1.027   6.381 -0.1825 -0.0363  0.3552
  850MOL0     C17219   9.004   0.945   6.270 -0.6466 -0.5063  0.9010
  850MOL0     C17220   9.085   0.836   6.287  0.4466  0.3080 -0.3586
  850MOL0     O17221   9.129   0.754   6.191  0.5384 -0.9915 -0.2537
  850MOL0     C17222   9.039   0.736   6.084 -0.2639 -0.0522 -0.2776
  850MOL0     C17223   9.046   0.603   6.020  0.5307 -0.8763 -0.6285
  850MOL0     C17224   8.955   0.596   5.897 -0.1473  0.1176  0.3081
  850MOL0     C17225   8.957   0.453   5.837  0.9584 -0.4372  0.1600
  850MOL0     C17226   8.864   0.441   5.728  0.8075  0.4286 -0.3825
  850MOL0     C17227   8.806   0.427   5.628  0.3441  0.7543  0.5267
  850MOL0     C17228   9.140   0.812   6.407 -0.3331  0.4167 -0.2012
  850MOL0     C17229   9.122   0.895   6.514 -0.1892 -1.0710 -0.2701
  850MOL0     C17230   9.204   0.876   6.634  0.7727  0.0488 -0.0347
  850MOL0     H17231   9.010   1.376   6.708 -1.3219 -0.3199  0.2715
  850MOL0     H17232   8.956   1.511   6.906 -2.0655 -2.1706 -0.4172
  850MOL0     H17233   8.858   1.556   7.186  0.2074 -1.1002  3.2253
  850MOL0     H17234   8.993   1.619   7.089 -1.3230  0.4165 -0.9075
  850MOL0     H17235   9.041   1.560   7.385 -1.0023 -0.3818 -0.5801
  850MOL0     H17236   9.130   1.677   7.300  0.0245 -1.1579 -0.4524
  850MOL0     H17237   8.836   1.702   7.380 -0.4828  0.1641 -0.5556
  850MOL0     H17238   8.972   1.815   7.441 -2.3599  0.5224 -0.0909
  850MOL0     H17239   8.830   1.803   7.173  1.6919 -2.2086 -0.9302
  850MOL0     H17240   8.831   1.944   7.291  3.0371  2.1395 -2.0822
  850MOL0     H17241   9.077   1.853   7.149  3.0686  2.5438  0.9922
  850MOL0     H17242   9.054   1.991   7.267 -2.3446 -0.5191  1.9730
  850MOL0     H17243   8.934   1.957   6.996 -0.7018 -2.1241  0.8582
  850MOL0     H17244   8.925   2.107   7.112  0.8086 -0.0986  0.8518
  850MOL0     H17245   9.177   2.013   6.994  1.8682  2.5190  0.4861
  850MOL0     H17246   9.150   2.147   7.102  1.8125 -0.4648 -0.2733
  850MOL0     H17247   9.025   2.098   6.830 -1.0840  0.7690  0.6315
  850MOL0     H17248   8.985   2.229   6.941 -2.1460 -2.4473 -0.9487
  850MOL0     H17249   9.196   2.417   6.966  1.1104 -0.9768  0.3681
  850MOL0     H17250   9.529   2.456   6.846  0.1851 -0.6340 -1.7963
  850MOL0     H17251   9.401   2.571   6.895  1.3208  1.3721 -0.4738
  850MOL0     H17252   9.524   2.666   6.714 -0.0188  0.0310  0.4566
  850MOL0     H17253   9.514   2.512   6.616 -0.1687 -1.1002  1.1463
  850MOL0     H17254   9.361   2.682   6.520  1.2014  3.3232  1.7928
  850MOL0     H17255   9.272   2.543   6.580  0.9725 -1.3301  0.3973
  850MOL0     H17256   9.218   2.690   6.794 -2.9534 -1.3850 -0.9319
  850MOL0     H17257   9.322   2.812   6.716 -0.1629 -0.3147 -0.9627
  850MOL0     H17258   8.928   2.926   6.579  2.3039  0.1153  3.4368
  850MOL0     H17259   8.608   2.763   6.460  1.1198 -2.1217  0.1256
  850MOL0     H17260   8.665   2.927   6.488 -4.3871 -0.9185 -1.7795
  850MOL0     H17261   8.585   2.848   6.619 -0.9426  2.3307 -1.6838
  850MOL0     H17262   8.404   2.660   6.957 -2.5530  0.7135  0.6797
  850MOL0     H17263   8.164   2.617   6.996 -2.7958  1.9930 -0.3554
  850MOL0     H17264   8.018   2.404   7.006 -1.4030 -0.3805  1.1585
  850MOL0     H17265   7.923   2.556   6.999 -2.3025  1.3254 -1.2843
  850MOL0     H17266   7.837   2.304   6.852  1.1793 -1.5403  1.7277
  850MOL0     H17267   7.818   2.321   7.031 -1.8997  2.0359  1.4956
  850MOL0     H17268   7.684   2.524   7.006  0.4463  0.2188 -1.0833
  850MOL0     H17269   7.610   2.378   6.931 -0.7094  0.6818 -0.5267
  850MOL0     H17270   7.678   2.432   6.705  0.6482 -1.2202  0.5511
  850MOL0     H17271   7.732   2.591   6.775 -1.9372  2.1267  3.9527
  850MOL0     H17272   7.458   2.461   6.752 -1.5893 -0.3953  3.5635
  850MOL0     H17273   7.491   2.611   6.854  0.9486 -2.2370  0.9253
  850MOL0     H17274   7.560   2.586   6.557 -0.3191  0.3043  0.6242
  850MOL0     H17275   7.580   2.731   6.652 -0.3631  0.0606  0.3049
  850MOL0     H17276   7.321   2.707   6.709  1.4894  1.4593  0.6119
  850MOL0     H17277   7.320   2.580   6.575  0.2442  1.0785 -1.0316
  850MOL0     H17278   7.236   2.803   6.518  0.0440 -0.2883  1.9505
  850MOL0     H17279   7.384   2.793   6.432 -1.7959  0.7990  0.0300
  850MOL0     H17280   8.129   2.461   6.604 -3.5975 -0.7014  2.2345
  850MOL0     H17281   8.361   2.521   6.560 -2.6982  1.1196 -2.0290
  850MOL0     H17282   8.861   2.446   6.697 -0.8083 -0.1115 -1.3065
  850MOL0     H17283   9.089   2.542   6.688  1.5260  0.1367 -2.5315
  850MOL0     H17284   9.094   1.196   7.157 -3.3320  2.3874  1.0011
  850MOL0     H17285   9.156   1.058   6.958  1.6943 -0.0892  0.0491
  850MOL0     H17286   8.915   1.114   6.363 -1.3275 -0.8087  0.5697
  850MOL0     H17287   8.963   0.984   6.177 -2.7275 -2.0913  1.0819
  850MOL0     H17288   8.935   0.744   6.115 -0.9687 -2.1652 -1.8598
  850MOL0     H17289   9.073   0.807   6.007  3.6358 -2.5136 -1.1525
  850MOL0     H17290   9.000   0.529   6.087 -0.8879 -0.2325 -0.8764
  850MOL0     H17291   9.150   0.578   5.997  1.1720  0.6116  0.4566
  850MOL0     H17292   8.854   0.628   5.924 -1.0112 -0.0119 -2.4683
  850MOL0     H17293   8.987   0.659   5.814 -0.2446 -0.6421 -0.3168
  850MOL0     H17294   8.923   0.378   5.908  1.7303 -0.9599 -0.0089
  850MOL0     H17295   9.059   0.430   5.802  1.0513  0.6117 -0.2981
  850MOL0     H17296   8.753   0.401   5.539  1.9060  0.3949 -0.3451
  850MOL0     H17297   9.208   0.727   6.410 -0.2490  0.4626 -0.7256
  850MOL0     H17298   9.301   0.919   6.609 -0.0562  1.6217 -0.7132
  850MOL0     H17299   9.172   0.921   6.728 -0.1613  0.7103 -0.6515
  850MOL0     H17300   9.224   0.770   6.654 -1.7062  0.0326  3.3716
  851MOL0     O17301   5.713   7.228   4.571 -0.4473 -0.4711 -0.0978
  851MOL0     C17302   5.762   7.174   4.472  0.7037  1.0476  0.6561
  851MOL0     O17303   5.771   7.036   4.450  0.3905  0.2521  0.7028
  851MOL0     C17304   5.702   6.960   4.533 -0.1010  0.2907 -0.1809
  851MOL0     C17305   5.564   6.973   4.558 -0.5543  0.4875  0.0183
  851MOL0     C17306   5.511   6.863   4.634  0.4039 -0.4764  0.1713
  851MOL0     C17307   5.585   6.762   4.703  0.0893  0.3583 -0.6983
  851MOL0     O17308   5.521   6.664   4.762  0.2074 -0.7246  0.0785
  851MOL0     C17309   5.597   6.559   4.828 -0.7190 -1.0145  0.4416
  851MOL0     C17310   5.497   6.459   4.887  0.8403 -0.5990  0.2075
  851MOL0     C17311   5.410   6.503   4.998  0.2217 -1.0568 -0.3122
  851MOL0     C17312   5.477   6.504   5.135 -0.3925 -0.0169  0.9421
  851MOL0     C17313   5.375   6.534   5.246  0.8896  0.3442 -1.4073
  851MOL0     C17314   5.433   6.527   5.383  0.6998 -1.0359  0.6978
  851MOL0     C17315   5.327   6.535   5.490 -1.0541 -0.1102 -0.2673
  851MOL0     C17316   5.238   6.660   5.486  0.6842 -0.9843 -0.1969
  851MOL0     N17317   5.317   6.784   5.509  0.1999 -1.3581 -0.0809
  851MOL0     C17318   5.264   6.904   5.471 -0.0566 -0.1218  0.2433
  851MOL0     C17319   5.371   6.986   5.488  0.5611 -0.9142  0.2595
  851MOL0     C17320   5.368   7.137   5.453 -0.7726  0.0234  0.1851
  851MOL0     C17321   5.252   7.216   5.514  0.3146 -0.6415  0.5843
  851MOL0     C17322   5.217   7.196   5.662 -0.5155 -0.6812 -0.9909
  851MOL0     C17323   5.339   7.219   5.760  0.4985  0.6652 -0.6710
  851MOL0     O17324   5.282   7.221   5.888 -0.0608  0.7513 -0.3370
  851MOL0     C17325   5.360   7.287   5.982 -0.4480 -0.5687 -0.2526
  851MOL0     C17326   5.304   7.400   6.046  0.1215 -0.2374  0.5392
  851MOL0     C17327   5.369   7.479   6.132 -1.0328  0.6563  0.5945
  851MOL0     C17328   5.295   7.582   6.216  0.2388  0.1097 -0.4406
  851MOL0     C17329   5.513   7.462   6.142 -0.0075 -0.3936  0.3361
  851MOL0     C17330   5.611   7.565   6.199  0.1172  0.6290 -0.2318
  851MOL0     O17331   5.728   7.523   6.241  0.5410 -0.2806  0.5460
  851MOL0     C17332   5.805   7.625   6.277 -0.7432 -1.6231  0.2836
  851MOL0     C17333   5.877   7.699   6.181  0.1566  0.2503  0.0564
  851MOL0     C17334   5.948   7.817   6.213 -0.3845 -1.0396 -0.1266
  851MOL0     C17335   5.951   7.859   6.348  0.3391  0.2102 -1.1328
  851MOL0     O17336   6.003   7.981   6.381 -0.5891  0.2847  0.2559
  851MOL0     C17337   6.127   7.967   6.469  0.2713  0.3566  0.5052
  851MOL0     C17338   6.229   8.084   6.460  0.2272  0.3071 -0.5420
  851MOL0     C17339   6.373   8.034   6.436 -0.0661  0.2551  0.8800
  851MOL0     C17340   6.463   8.161   6.431  0.6360  0.5315 -0.4648
  851MOL0     C17341   6.606   8.111   6.407  0.8798 -0.1661  0.3559
  851MOL0     C17342   6.681   8.095   6.540  0.3410 -0.0658  0.9848
  851MOL0     C17343   6.829   8.042   6.514 -0.7319 -0.5429  0.0864
  851MOL0     C17344   6.898   8.065   6.652  0.4248  0.4703  0.2545
  851MOL0    Cl17345   6.834   7.966   6.790 -0.1700 -0.4475 -0.1692
  851MOL0     C17346   5.903   7.772   6.450  0.2690  0.9273 -0.6078
  851MOL0     C17347   5.827   7.654   6.413 -0.2694 -0.4035 -0.2430
  851MOL0     O17348   5.576   7.682   6.190  0.9730  0.5725  0.9036
  851MOL0     C17349   5.571   7.347   6.082  0.0161  0.4818 -0.4351
  851MOL0     C17350   5.494   7.263   6.011 -0.4105 -0.1291 -0.2025
  851MOL0     N17351   5.481   6.921   5.547 -0.5809  0.0769  0.4513
  851MOL0     N17352   5.440   6.802   5.571  0.1398  0.9737 -0.4424
  851MOL0     C17353   5.725   6.771   4.684  0.6807  0.3305 -0.3589
  851MOL0     C17354   5.777   6.863   4.598  0.4453  0.0249 -0.4675
  851MOL0     C17355   5.824   7.254   4.353  0.1382  0.6094  0.2841
  851MOL0     C17356   5.864   7.179   4.242 -0.1067  0.6703  0.3862
  851MOL0     C17357   5.914   7.235   4.122  0.7247 -0.6718 -0.3660
  851MOL0     C17358   5.918   7.375   4.106  0.1723  0.4182 -0.5015
  851MOL0     O17359   5.973   7.417   3.995  0.2127  1.1725 -0.2252
  851MOL0     C17360   6.009   7.555   3.992 -0.1460  0.0275 -0.8982
  851MOL0     C17361   6.095   7.584   3.867 -0.8084  0.3474 -0.9145
  851MOL0     C17362   6.229   7.504   3.851 -0.5356  0.8205  0.2344
  851MOL0     C17363   6.295   7.534   3.710  0.4354  0.0892 -0.3445
  851MOL0     C17364   6.443   7.510   3.719  0.2459 -0.4192 -0.8282
  851MOL0     C17365   6.565   7.488   3.720 -0.9306  0.4229  1.4751
  851MOL0     C17366   5.876   7.449   4.224 -0.7527 -0.6036 -0.1901
  851MOL0     C17367   5.831   7.395   4.342 -0.9278 -0.3437  0.3496
  851MOL0     C17368   5.786   7.485   4.463  0.4094  0.9169  0.6130
  851MOL0     H17369   5.496   7.051   4.526  0.9145  0.9008 -2.2810
  851MOL0     H17370   5.404   6.848   4.644 -0.3698  2.3694 -2.3034
  851MOL0     H17371   5.658   6.602   4.908 -0.6789  0.7861 -0.5175
  851MOL0     H17372   5.653   6.520   4.742  0.5880  2.0357 -0.1887
  851MOL0     H17373   5.430   6.427   4.807  0.4104 -0.3397  0.4604
  851MOL0     H17374   5.552   6.371   4.921 -0.3985 -1.3147  0.4234
  851MOL0     H17375   5.374   6.605   4.977  1.0090 -0.1497  2.3688
  851MOL0     H17376   5.316   6.447   5.002 -0.5470  0.2118  0.2547
  851MOL0     H17377   5.520   6.405   5.151  5.1375  2.4290  3.7871
  851MOL0     H17378   5.562   6.572   5.145 -1.2443  0.6991  4.1508
  851MOL0     H17379   5.289   6.467   5.251  0.5574  0.8653  1.0285
  851MOL0     H17380   5.347   6.638   5.225  0.2880  0.8131  1.3415
  851MOL0     H17381   5.486   6.432   5.396 -1.5114 -2.6044 -0.8548
  851MOL0     H17382   5.504   6.610   5.381 -0.9545  0.5209 -2.4600
  851MOL0     H17383   5.367   6.515   5.589 -2.3766  3.7743  1.2290
  851MOL0     H17384   5.263   6.450   5.463  2.3693 -2.0392 -3.2397
  851MOL0     H17385   5.203   6.660   5.382  0.1081 -1.0265 -0.0061
  851MOL0     H17386   5.147   6.660   5.546  0.3409  1.3537 -0.6143
  851MOL0     H17387   5.165   6.928   5.434  0.0750 -0.4427 -0.3386
  851MOL0     H17388   5.356   7.149   5.344 -2.8338  2.9573  0.6072
  851MOL0     H17389   5.458   7.184   5.492 -0.4269  1.1410 -1.8048
  851MOL0     H17390   5.263   7.323   5.497  0.5845 -0.1845  3.1284
  851MOL0     H17391   5.164   7.177   5.461 -0.7764  1.7455  0.5011
  851MOL0     H17392   5.132   7.258   5.691  1.9119  1.7612  1.5289
  851MOL0     H17393   5.189   7.091   5.678  2.4855 -1.6775 -1.6712
  851MOL0     H17394   5.418   7.144   5.764  2.4541  2.5044 -2.3922
  851MOL0     H17395   5.396   7.310   5.736 -0.2241  0.4248 -3.6484
  851MOL0     H17396   5.198   7.422   6.047  0.5499  2.0577  1.2191
  851MOL0     H17397   5.186   7.578   6.210  0.3344 -0.6557 -2.2855
  851MOL0     H17398   5.335   7.680   6.189  1.1941  1.5901  5.1012
  851MOL0     H17399   5.332   7.578   6.319  1.3616  0.4872 -0.8125
  851MOL0     H17400   5.891   7.663   6.079  2.4394  1.8751 -0.3040
  851MOL0     H17401   6.008   7.871   6.140  0.4532 -1.8510 -0.0661
  851MOL0     H17402   6.089   7.959   6.571 -1.5286  1.9380  0.0171
  851MOL0     H17403   6.178   7.873   6.444 -0.6978 -0.3181  1.0157
  851MOL0     H17404   6.200   8.152   6.380 -0.5918  0.0756 -0.4531
  851MOL0     H17405   6.231   8.143   6.552  2.0612 -2.9552  1.7329
  851MOL0     H17406   6.379   7.959   6.357 -0.7048 -2.0607  2.9226
  851MOL0     H17407   6.401   7.978   6.525  0.1366  0.5921  1.0298
  851MOL0     H17408   6.470   8.219   6.524  1.4952  1.9256 -1.3543
  851MOL0     H17409   6.424   8.223   6.350 -1.7265 -3.3755 -2.5915
  851MOL0     H17410   6.602   8.018   6.351 -2.1000 -0.9833  1.7214
  851MOL0     H17411   6.660   8.182   6.343  4.5964 -3.4729 -0.5257
  851MOL0     H17412   6.632   8.020   6.603 -1.6996  0.7965  0.4714
  851MOL0     H17413   6.684   8.188   6.598  1.5388 -0.2199  1.2043
  851MOL0     H17414   6.870   8.109   6.438 -0.1322  1.9280  2.4470
  851MOL0     H17415   6.843   7.936   6.491 -1.1919 -0.5974  0.0449
  851MOL0     H17416   6.881   8.168   6.683  3.1647  0.4596  2.1992
  851MOL0     H17417   7.004   8.044   6.637 -0.1719 -1.6626 -1.6098
  851MOL0     H17418   5.914   7.795   6.555 -0.4685 -0.5758 -0.1777
  851MOL0     H17419   5.764   7.625   6.496  1.2147  0.6242  1.3145
  851MOL0     H17420   5.675   7.319   6.097 -0.2721 -2.0217 -2.3854
  851MOL0     H17421   5.541   7.177   5.963  0.2651 -0.6702  1.3576
  851MOL0     H17422   5.792   6.698   4.729  1.1514  1.6412  1.1874
  851MOL0     H17423   5.886   6.855   4.598  0.3228 -4.8228 -2.3196
  851MOL0     H17424   5.859   7.071   4.238  0.4426  0.6681 -0.3425
  851MOL0     H17425   5.941   7.170   4.040 -0.1440  0.0332 -1.2311
  851MOL0     H17426   5.925   7.625   3.988 -0.4399 -0.3242 -0.9389
  851MOL0     H17427   6.065   7.589   4.079  1.6094 -0.0853 -1.9173
  851MOL0     H17428   6.128   7.689   3.861  1.2132 -0.2690 -1.2849
  851MOL0     H17429   6.032   7.561   3.780 -0.1967  0.6450 -1.4441
  851MOL0     H17430   6.299   7.549   3.922  0.7154  3.7380 -2.5570
  851MOL0     H17431   6.226   7.395   3.856 -0.3593  0.7710 -0.5112
  851MOL0     H17432   6.274   7.640   3.692 -1.3173  0.2641  2.1538
  851MOL0     H17433   6.258   7.468   3.632 -2.3775 -2.1148  2.5926
  851MOL0     H17434   6.671   7.470   3.723 -0.7575  1.3425  1.0181
  851MOL0     H17435   5.889   7.555   4.201 -1.0129 -0.8212 -1.4168
  851MOL0     H17436   5.680   7.476   4.486 -0.1125  1.3947 -1.4279
  851MOL0     H17437   5.846   7.460   4.551  0.7508 -4.6866 -0.8225
  851MOL0     H17438   5.793   7.591   4.439  1.1792  0.8204  0.3709
  852MOL0     O17439   8.685   4.284   4.539  0.3469  0.5391 -0.1543
  852MOL0     C17440   8.621   4.327   4.446  0.1793  0.2908  0.0982
  852MOL0     O17441   8.580   4.254   4.340  0.1448  0.7776  0.0481
  852MOL0     C17442   8.586   4.115   4.341 -0.5911 -0.3590  0.3505
  852MOL0     C17443   8.551   4.027   4.448  1.2497 -0.5898 -0.5210
  852MOL0     C17444   8.572   3.890   4.446 -0.7197 -0.4189 -1.0784
  852MOL0     C17445   8.640   3.838   4.347  0.5491  0.0951  0.9539
  852MOL0     O17446   8.666   3.706   4.354  0.3385  0.4373 -0.0343
  852MOL0     C17447   8.712   3.640   4.234  0.0166 -0.2878 -0.7659
  852MOL0     C17448   8.682   3.489   4.242  0.8023 -0.5742  0.5864
  852MOL0     C17449   8.758   3.397   4.138  0.8541 -0.5366  0.8655
  852MOL0     C17450   8.910   3.416   4.121  0.1825  0.7415 -0.3870
  852MOL0     C17451   8.990   3.302   4.046  0.2120 -1.1147  0.3055
  852MOL0     C17452   9.145   3.345   4.039 -0.0087  0.2782 -0.5265
  852MOL0     C17453   9.224   3.249   3.952  0.3812  0.1911  0.3998
  852MOL0     C17454   9.369   3.294   3.939  0.1336 -0.0750 -0.0261
  852MOL0     N17455   9.451   3.199   3.858  0.8225  0.0202  0.6816
  852MOL0     C17456   9.577   3.228   3.803 -0.1201  1.0538 -0.4625
  852MOL0     C17457   9.606   3.121   3.732 -1.1764 -0.0007  0.6299
  852MOL0     C17458   9.733   3.109   3.653 -0.2536 -0.4450  0.0451
  852MOL0     C17459   9.692   3.111   3.503 -0.3247 -0.0852  0.0056
  852MOL0     C17460   9.805   3.149   3.409 -0.0046  1.4626  0.0128
  852MOL0     C17461   9.773   3.149   3.265 -0.3234  0.0674  1.1696
  852MOL0     O17462   9.667   3.237   3.226  0.0102  0.2838  0.3042
  852MOL0     C17463   9.699   3.358   3.179  0.5682  0.0745 -0.5382
  852MOL0     C17464   9.758   3.456   3.258 -0.6904 -0.2538 -0.0709
  852MOL0     C17465   9.798   3.582   3.198  0.2179  0.5203  0.1669
  852MOL0     C17466   9.855   3.684   3.290 -0.0227 -0.0367 -1.2523
  852MOL0     C17467   9.781   3.597   3.056 -0.1791 -0.4552 -0.7496
  852MOL0     C17468   9.832   3.713   2.981 -0.4422  0.4708 -0.4891
  852MOL0     O17469   9.969   3.724   2.990  0.4066  0.6846  0.3435
  852MOL0     C17470  10.036   3.820   2.915  0.6557  0.6591  0.0469
  852MOL0     C17471  10.156   3.778   2.859 -0.1406 -0.3239  0.8012
  852MOL0     C17472  10.241   3.872   2.797 -0.3864 -0.5030  0.2322
  852MOL0     C17473  10.206   4.007   2.804  0.0319  0.8272 -0.6219
  852MOL0     O17474  10.277   4.111   2.748  0.7370  0.4472  0.4395
  852MOL0     C17475  10.420   4.117   2.755  0.4444  0.2392 -0.2928
  852MOL0     C17476  10.470   4.226   2.656 -0.5415  0.5128 -0.2584
  852MOL0     C17477  10.421   4.369   2.697 -0.3274 -0.3655  0.5505
  852MOL0     C17478  10.288   4.399   2.637 -0.1786  0.8839 -0.0351
  852MOL0     C17479  10.281   4.548   2.587 -0.1208  0.5659 -0.0682
  852MOL0     C17480  10.186   4.557   2.466 -0.5284 -0.3503 -0.1599
  852MOL0     C17481  10.056   4.595   2.533 -0.2969  0.3617  0.0101
  852MOL0     C17482   9.943   4.596   2.433  0.1331 -0.6098  0.1662
  852MOL0    Cl17483   9.941   4.739   2.328 -0.2961  0.2215 -0.3595
  852MOL0     C17484  10.089   4.050   2.857  0.7373  0.4728 -0.5455
  852MOL0     C17485  10.001   3.956   2.913  0.9503 -0.4682 -0.1166
  852MOL0     O17486   9.757   3.784   2.916 -0.6630  0.6873  0.4819
  852MOL0     C17487   9.702   3.505   2.988  0.0981 -0.3473 -0.1700
  852MOL0     C17488   9.666   3.388   3.045  0.9538  0.4486  0.8527
  852MOL0     N17489   9.498   3.042   3.715 -0.8140  0.4938 -1.1477
  852MOL0     N17490   9.399   3.091   3.781 -1.0125 -0.7431 -0.2084
  852MOL0     C17491   8.679   3.919   4.241  0.1173  0.2849 -0.1128
  852MOL0     C17492   8.662   4.056   4.239 -0.2364  0.1262  0.3003
  852MOL0     C17493   8.585   4.473   4.439  0.1512 -0.6233  0.3993
  852MOL0     C17494   8.469   4.496   4.363  0.5698  0.2485 -0.4289
  852MOL0     C17495   8.405   4.625   4.353  0.7383  0.2194 -0.3810
  852MOL0     C17496   8.465   4.736   4.413  0.6769  0.4356 -0.4811
  852MOL0     O17497   8.402   4.860   4.424 -0.4659  0.5523  0.7223
  852MOL0     C17498   8.294   4.854   4.516 -0.3315 -0.2404  0.3176
  852MOL0     C17499   8.205   4.976   4.520  1.3758 -0.4388 -0.3341
  852MOL0     C17500   8.157   5.016   4.381  0.7624  0.6767  0.6244
  852MOL0     C17501   8.001   5.042   4.370  0.1237  0.0173 -0.2851
  852MOL0     C17502   7.963   5.154   4.449  0.3600 -0.7769  0.8504
  852MOL0     C17503   7.922   5.250   4.507 -0.1673 -0.2279 -0.1158
  852MOL0     C17504   8.575   4.714   4.499  0.5028 -0.5461  0.4018
  852MOL0     C17505   8.633   4.583   4.516 -0.2743  0.2725  0.1606
  852MOL0     C17506   8.766   4.570   4.586  0.2884 -0.0729  0.2329
  852MOL0     H17507   8.511   4.072   4.539  0.2227  0.5860 -1.5213
  852MOL0     H17508   8.536   3.845   4.538  3.0944 -2.0932 -0.2096
  852MOL0     H17509   8.821   3.649   4.223  0.2771  0.5247  1.7371
  852MOL0     H17510   8.679   3.677   4.137 -3.2051 -0.6659  0.0770
  852MOL0     H17511   8.708   3.450   4.340  1.2040  2.5028  1.8008
  852MOL0     H17512   8.576   3.473   4.223  0.9659 -0.4003 -0.5634
  852MOL0     H17513   8.738   3.296   4.176 -1.0616 -0.3647  0.3994
  852MOL0     H17514   8.718   3.408   4.037 -0.5697 -1.8212  1.2589
  852MOL0     H17515   8.947   3.510   4.078  5.2064 -2.5628 -4.6879
  852MOL0     H17516   8.950   3.399   4.221  2.6017 -2.6826 -1.7484
  852MOL0     H17517   8.954   3.298   3.943  1.3770  2.5123 -0.3844
  852MOL0     H17518   8.996   3.207   4.100  2.7783 -1.0218  0.3092
  852MOL0     H17519   9.148   3.440   3.984 -2.8113  0.3887 -0.6388
  852MOL0     H17520   9.189   3.359   4.138  1.3848  0.3393 -1.1360
  852MOL0     H17521   9.175   3.234   3.855  1.7204 -0.4422 -0.2102
  852MOL0     H17522   9.227   3.147   3.992  3.0323  1.6477  4.5125
  852MOL0     H17523   9.378   3.390   3.887 -2.0917  0.1206 -0.1121
  852MOL0     H17524   9.407   3.319   4.038 -0.9148  1.2094  0.0779
  852MOL0     H17525   9.648   3.305   3.831  2.3553 -1.4686  0.6750
  852MOL0     H17526   9.782   3.015   3.682  0.5143  1.1391  4.7690
  852MOL0     H17527   9.807   3.183   3.684  0.9236 -1.3077 -0.6224
  852MOL0     H17528   9.652   3.016   3.465 -1.1712  0.1292  0.3412
  852MOL0     H17529   9.610   3.182   3.488 -1.1628 -0.7891  1.0622
  852MOL0     H17530   9.826   3.253   3.434  5.6147  0.5900  0.1784
  852MOL0     H17531   9.884   3.080   3.440 -3.5023 -2.5404  0.9119
  852MOL0     H17532   9.860   3.178   3.205 -0.4110 -0.0280  0.9949
  852MOL0     H17533   9.750   3.049   3.226 -1.1729  1.0889 -1.0895
  852MOL0     H17534   9.761   3.437   3.365 -2.2362  0.7895  0.1934
  852MOL0     H17535   9.949   3.724   3.250 -0.0726  1.7123  0.2672
  852MOL0     H17536   9.888   3.643   3.386 -1.2455  0.9849 -0.3782
  852MOL0     H17537   9.782   3.762   3.313  1.6406  1.7232 -1.6658
  852MOL0     H17538  10.186   3.674   2.857  2.3511  0.3226 -1.9426
  852MOL0     H17539  10.338   3.857   2.750  0.1204 -0.1549  1.1412
  852MOL0     H17540  10.453   4.144   2.855  1.8605 -0.2454 -0.6121
  852MOL0     H17541  10.467   4.023   2.726 -0.3054 -0.4498  0.6612
  852MOL0     H17542  10.578   4.215   2.645 -1.0511 -3.8490 -4.0688
  852MOL0     H17543  10.434   4.205   2.555  2.6292 -0.8315 -1.2275
  852MOL0     H17544  10.503   4.436   2.668 -1.4866  0.4160 -1.0516
  852MOL0     H17545  10.414   4.371   2.806  0.5327  3.3086  0.6894
  852MOL0     H17546  10.210   4.374   2.709  2.6024 -2.7703  2.0419
  852MOL0     H17547  10.265   4.345   2.544  0.0896  0.8656 -0.0901
  852MOL0     H17548  10.267   4.610   2.676  2.5328  1.5363 -0.2281
  852MOL0     H17549  10.379   4.585   2.555  0.3295 -0.9834 -0.5654
  852MOL0     H17550  10.184   4.464   2.409 -0.0216 -1.2319  1.2133
  852MOL0     H17551  10.216   4.640   2.401 -1.4456 -0.1885 -0.3948
  852MOL0     H17552  10.073   4.698   2.565  2.3657  1.3547 -3.8443
  852MOL0     H17553  10.030   4.531   2.617  2.0907 -0.0160  0.5345
  852MOL0     H17554   9.852   4.590   2.492  0.8085 -2.9835  1.0811
  852MOL0     H17555   9.948   4.501   2.378  2.7651  0.9906 -2.7558
  852MOL0     H17556  10.063   4.155   2.859  0.2459  0.3594  1.3245
  852MOL0     H17557   9.910   3.986   2.964  0.9070 -2.3824  1.0244
  852MOL0     H17558   9.675   3.536   2.888 -1.2566  0.6286  0.4689
  852MOL0     H17559   9.622   3.318   2.975  1.2732  0.2441  0.8527
  852MOL0     H17560   8.730   3.889   4.149  1.2042 -2.8520  1.3666
  852MOL0     H17561   8.680   4.127   4.159 -3.2759  2.2430  1.2885
  852MOL0     H17562   8.417   4.411   4.321 -1.7210  1.0378  0.6489
  852MOL0     H17563   8.321   4.637   4.285 -0.2786  0.2583  0.8576
  852MOL0     H17564   8.234   4.764   4.498  0.7665 -1.1702  1.1326
  852MOL0     H17565   8.337   4.828   4.613  1.9202 -1.4495 -0.9212
  852MOL0     H17566   8.241   5.064   4.574 -0.7584  0.2361  0.0810
  852MOL0     H17567   8.120   4.943   4.580 -1.4962  3.5647 -1.7754
  852MOL0     H17568   8.216   5.101   4.344 -0.0761  0.7442 -0.6268
  852MOL0     H17569   8.186   4.932   4.318  0.2810  1.1529 -0.2571
  852MOL0     H17570   7.958   4.945   4.397  0.0068 -0.9671 -3.5407
  852MOL0     H17571   7.973   5.072   4.269  1.7131  2.7614 -0.0007
  852MOL0     H17572   7.890   5.339   4.557  2.8034  1.7399 -1.4552
  852MOL0     H17573   8.624   4.788   4.562  2.1634 -1.1762 -0.0973
  852MOL0     H17574   8.753   4.479   4.644 -1.8981 -0.8109 -1.2519
  852MOL0     H17575   8.847   4.552   4.514  0.4694  0.1242  0.3847
  852MOL0     H17576   8.787   4.659   4.647  0.1048  0.5400 -0.5722
  853MOL0     O17577   1.998   0.286   0.058 -0.3527 -0.1794 -0.9316
  853MOL0     C17578   1.900   0.217   0.007 -0.0157  0.4061 -0.7956
  853MOL0     O17579   1.847   0.227  -0.116  0.5802 -0.0356 -0.1169
  853MOL0     C17580   1.934   0.258  -0.220  0.4314  0.5397 -0.6958
  853MOL0     C17581   1.895   0.353  -0.317 -0.1421  0.0474 -0.3591
  853MOL0     C17582   1.976   0.389  -0.428  0.4350 -0.3533 -0.0880
  853MOL0     C17583   2.101   0.333  -0.449 -0.6435  0.2450  0.0325
  853MOL0     O17584   2.186   0.379  -0.552  0.0466  0.6014  0.2206
  853MOL0     C17585   2.157   0.320  -0.674  0.1863 -0.2311  0.5277
  853MOL0     C17586   2.224   0.182  -0.682  0.2919 -0.8475  0.2139
  853MOL0     C17587   2.232   0.124  -0.821  0.3100 -0.3314 -0.2024
  853MOL0     C17588   2.347   0.183  -0.903 -0.1740  0.2758  1.3632
  853MOL0     C17589   2.336   0.123  -1.054 -0.6907  0.1912  0.2761
  853MOL0     C17590   2.438   0.210  -1.145  0.4455  0.0621 -0.1052
  853MOL0     C17591   2.582   0.169  -1.104 -0.1935  0.2172  0.1962
  853MOL0     C17592   2.678   0.199  -1.213 -0.8464  0.3407 -0.6746
  853MOL0     N17593   2.812   0.150  -1.171 -0.5797  0.0499  0.4304
  853MOL0     C17594   2.852   0.020  -1.138 -0.3088  0.0177  0.6942
  853MOL0     C17595   2.982   0.039  -1.108 -0.0796  0.1053  0.2523
  853MOL0     C17596   3.065  -0.081  -1.070  0.5565 -0.6957 -0.5282
  853MOL0     C17597   3.171  -0.058  -0.961  0.1714 -0.0083 -0.4521
  853MOL0     C17598   3.312  -0.126  -0.978 -0.2932 -0.2024  0.0936
  853MOL0     C17599   3.382  -0.114  -0.835 -0.5945 -0.4099 -0.0075
  853MOL0     O17600   3.403   0.019  -0.791  0.8501 -0.1043  0.8721
  853MOL0     C17601   3.471   0.043  -0.673 -0.4575 -0.9559  0.3766
  853MOL0     C17602   3.521  -0.049  -0.585 -0.4508 -0.2135 -0.1500
  853MOL0     C17603   3.610  -0.022  -0.477  1.0132 -0.0767  0.0896
  853MOL0     C17604   3.665  -0.132  -0.388  0.9234 -0.6232  0.0935
  853MOL0     C17605   3.634   0.116  -0.447  0.4889  0.2286 -0.7443
  853MOL0     C17606   3.733   0.168  -0.356 -1.1324 -0.1281  0.6488
  853MOL0     O17607   3.701   0.303  -0.307 -0.7329 -0.4002 -0.5693
  853MOL0     C17608   3.801   0.392  -0.285 -0.0782 -0.0139  0.1075
  853MOL0     C17609   3.765   0.506  -0.212  0.1028 -0.3653  0.4964
  853MOL0     C17610   3.862   0.598  -0.181 -0.0620  0.2152 -0.3410
  853MOL0     C17611   3.988   0.593  -0.242 -1.3730 -0.4918  0.3561
  853MOL0     O17612   4.089   0.696  -0.212  0.3297  0.4836 -0.3529
  853MOL0     C17613   4.093   0.743  -0.074  0.6904  0.4291 -0.8823
  853MOL0     C17614   4.234   0.763  -0.021  0.1395  0.2717 -0.2873
  853MOL0     C17615   4.326   0.842  -0.114 -0.8042 -0.0448  0.3048
  853MOL0     C17616   4.461   0.860  -0.047  0.3835 -0.0248 -0.4213
  853MOL0     C17617   4.545   0.967  -0.107 -0.1904 -0.0406  0.5507
  853MOL0     C17618   4.567   0.949  -0.257 -0.2856  0.1151  0.6334
  853MOL0     C17619   4.640   0.821  -0.308  0.3373  0.7455  0.5824
  853MOL0     C17620   4.668   0.825  -0.453  0.0250 -0.0316 -0.0858
  853MOL0    Cl17621   4.770   0.694  -0.514  0.1752  0.2191 -0.1471
  853MOL0     C17622   4.030   0.481  -0.323 -0.2252 -0.8149  0.6332
  853MOL0     C17623   3.933   0.387  -0.338  0.0091  0.5187 -0.6919
  853MOL0     O17624   3.835   0.104  -0.318  0.3588  0.3150  0.2202
  853MOL0     C17625   3.568   0.211  -0.535 -0.7337 -0.0451 -0.3820
  853MOL0     C17626   3.494   0.178  -0.640 -0.9298  0.7097 -0.0953
  853MOL0     N17627   3.024   0.166  -1.121  0.0711  0.1870 -0.4490
  853MOL0     N17628   2.917   0.229  -1.168 -0.7781  0.2374 -0.0640
  853MOL0     C17629   2.135   0.225  -0.360  0.4744 -0.2063 -0.1588
  853MOL0     C17630   2.052   0.197  -0.253 -0.4792  0.1901  0.1423
  853MOL0     C17631   1.812   0.135   0.102  0.8105  0.2631 -0.6208
  853MOL0     C17632   1.669   0.141   0.099 -0.7670 -0.8068 -0.0812
  853MOL0     C17633   1.597   0.045   0.181  0.2563  0.2139  0.2661
  853MOL0     C17634   1.658  -0.026   0.281  0.4364  0.7683 -0.3322
  853MOL0     O17635   1.583  -0.125   0.341 -0.6221  0.0402  0.2948
  853MOL0     C17636   1.631  -0.214   0.426 -0.4511 -0.0616 -1.1927
  853MOL0     C17637   1.500  -0.286   0.475  0.3161 -0.0145  1.0315
  853MOL0     C17638   1.416  -0.201   0.578  0.2533  1.1551  0.0612
  853MOL0     C17639   1.508  -0.193   0.705  0.3354  0.2181  0.7967
  853MOL0     C17640   1.424  -0.155   0.823  0.1839  0.6377 -0.5912
  853MOL0     C17641   1.361  -0.125   0.922 -0.1709 -0.7211  0.0188
  853MOL0     C17642   1.799  -0.019   0.293  0.0714 -0.6627 -0.1273
  853MOL0     C17643   1.880   0.053   0.206  0.3441 -0.3012  1.2954
  853MOL0     C17644   2.029   0.038   0.217  0.5756 -0.0697 -0.7373
  853MOL0     H17645   1.803   0.406  -0.296 -0.0486  0.9434 -2.0461
  853MOL0     H17646   1.940   0.457  -0.504 -3.1587  0.5995  2.2120
  853MOL0     H17647   2.205   0.389  -0.744 -0.0727  2.0464  2.4530
  853MOL0     H17648   2.049   0.322  -0.690 -0.0207 -3.7846  0.7810
  853MOL0     H17649   2.325   0.179  -0.641 -0.1932  0.4504  1.6236
  853MOL0     H17650   2.157   0.122  -0.619 -0.7905  2.1628  2.1775
  853MOL0     H17651   2.248   0.017  -0.811  4.3194  0.0045 -1.3740
  853MOL0     H17652   2.139   0.128  -0.879  0.3116 -1.7985 -0.3392
  853MOL0     H17653   2.333   0.291  -0.918 -1.8122 -0.2336 -1.4416
  853MOL0     H17654   2.448   0.160  -0.868  0.7012 -0.1327 -1.2074
  853MOL0     H17655   2.234   0.146  -1.086 -0.1349 -0.6368 -2.2574
  853MOL0     H17656   2.357   0.016  -1.057  1.5629  0.5475  1.3058
  853MOL0     H17657   2.435   0.185  -1.251  0.2064  0.2824 -0.1497
  853MOL0     H17658   2.428   0.317  -1.126 -2.1046 -0.4965  2.4681
  853MOL0     H17659   2.585   0.064  -1.072  1.2989  0.9147  2.6803
  853MOL0     H17660   2.604   0.235  -1.020  0.4949 -1.2896  1.2596
  853MOL0     H17661   2.649   0.140  -1.301 -0.6954 -0.5029 -0.1647
  853MOL0     H17662   2.681   0.305  -1.240  0.9112 -0.1846 -2.8636
  853MOL0     H17663   2.799  -0.074  -1.128  0.9903 -0.8568 -0.3419
  853MOL0     H17664   3.118  -0.124  -1.156 -0.5398 -0.7203 -1.2126
  853MOL0     H17665   2.988  -0.153  -1.039 -0.2046 -0.3368 -1.5194
  853MOL0     H17666   3.190   0.049  -0.949 -1.3399  0.1133  1.2253
  853MOL0     H17667   3.118  -0.092  -0.872  2.0656 -2.2561 -0.0761
  853MOL0     H17668   3.303  -0.227  -1.020  2.2952  1.1191 -4.2656
  853MOL0     H17669   3.366  -0.078  -1.059 -1.9364 -1.5984 -1.9310
  853MOL0     H17670   3.332  -0.179  -0.763  1.1823 -1.3332  0.4329
  853MOL0     H17671   3.486  -0.145  -0.843 -0.6965 -0.9365  0.6643
  853MOL0     H17672   3.499  -0.155  -0.598  0.4498 -0.3749 -0.4263
  853MOL0     H17673   3.579  -0.181  -0.342  1.0464 -0.9919 -0.0618
  853MOL0     H17674   3.733  -0.104  -0.307 -1.2152  0.7611  1.5204
  853MOL0     H17675   3.711  -0.210  -0.451 -1.7154 -1.1287 -1.3634
  853MOL0     H17676   3.662   0.522  -0.181  0.5809  2.2736  1.0193
  853MOL0     H17677   3.837   0.679  -0.113 -4.5567 -2.2645  1.3248
  853MOL0     H17678   4.046   0.842  -0.072 -1.9527 -0.6699 -2.5934
  853MOL0     H17679   4.040   0.680  -0.002 -0.9174  1.8328 -0.7644
  853MOL0     H17680   4.235   0.814   0.076 -1.5762 -0.2639  0.0394
  853MOL0     H17681   4.278   0.665  -0.002  0.1701  0.1221 -1.1035
  853MOL0     H17682   4.279   0.940  -0.123 -1.1743 -0.4012 -2.3722
  853MOL0     H17683   4.342   0.790  -0.209  0.8952  0.0753  0.4927
  853MOL0     H17684   4.518   0.766  -0.055 -0.3884 -0.4184 -1.5180
  853MOL0     H17685   4.462   0.880   0.060  0.4005 -0.2153 -0.3847
  853MOL0     H17686   4.494   1.062  -0.088 -2.8809 -1.4574  0.9742
  853MOL0     H17687   4.636   0.964  -0.047 -2.0406 -0.4431  3.5400
  853MOL0     H17688   4.627   1.029  -0.303  0.6123 -2.2627 -2.7699
  853MOL0     H17689   4.469   0.960  -0.304  0.9350 -0.3541 -2.2402
  853MOL0     H17690   4.583   0.730  -0.287 -0.3419  0.7822 -0.9591
  853MOL0     H17691   4.736   0.815  -0.255 -0.0892  2.3502  1.5981
  853MOL0     H17692   4.705   0.925  -0.479  2.6772 -1.0805 -0.6864
  853MOL0     H17693   4.569   0.817  -0.499 -0.9722 -1.3488  2.0952
  853MOL0     H17694   4.130   0.486  -0.365 -0.5649  1.9167 -0.0228
  853MOL0     H17695   3.953   0.301  -0.402 -0.2056  1.2669 -1.7882
  853MOL0     H17696   3.591   0.315  -0.517 -0.3372 -0.2084  0.0909
  853MOL0     H17697   3.457   0.256  -0.705 -0.6428 -0.0001 -1.1546
  853MOL0     H17698   2.225   0.165  -0.369 -0.6175 -2.3148  1.9426
  853MOL0     H17699   2.086   0.121  -0.183  1.1474  1.3569  0.6795
  853MOL0     H17700   1.623   0.201   0.022 -0.7333 -3.8503 -2.6928
  853MOL0     H17701   1.493   0.024   0.160  0.8517 -1.3464 -1.4004
  853MOL0     H17702   1.695  -0.292   0.383  2.0727  0.6923  0.9608
  853MOL0     H17703   1.694  -0.162   0.499 -0.2830 -2.5320  0.5571
  853MOL0     H17704   1.518  -0.381   0.525 -1.5272 -1.9117 -1.6390
  853MOL0     H17705   1.445  -0.301   0.381  1.7521  1.4703 -0.1198
  853MOL0     H17706   1.401  -0.100   0.538  2.0836  1.6777  0.6207
  853MOL0     H17707   1.318  -0.246   0.600  0.5992 -1.0941 -2.4666
  853MOL0     H17708   1.585  -0.117   0.694 -0.2717  0.7238 -0.0471
  853MOL0     H17709   1.562  -0.287   0.719  0.9904  0.0147 -2.3896
  853MOL0     H17710   1.309  -0.074   1.001  1.1321 -1.1503  1.1957
  853MOL0     H17711   1.847  -0.086   0.363 -1.6166 -0.8016  0.9688
  853MOL0     H17712   2.048  -0.022   0.306  2.8214  0.0019 -1.0927
  853MOL0     H17713   2.077  -0.019   0.137  1.7838 -1.8040  1.1375
  853MOL0     H17714   2.091   0.128   0.229 -2.1841  2.0894 -1.6065
  854MOL0     O17715   0.134  10.337  10.223 -0.0939 -1.2304 -0.2132
  854MOL0     C17716   0.021  10.382  10.206 -0.1403 -0.2861 -0.4295
  854MOL0     O17717  -0.090  10.324  10.257 -0.9088  0.3341 -0.8592
  854MOL0     C17718  -0.075  10.213  10.333  0.5030  0.2703  0.3601
  854MOL0     C17719  -0.043  10.095  10.266 -0.2760  0.6579 -1.1257
  854MOL0     C17720  -0.001   9.983  10.341 -0.3061  0.0429  0.6772
  854MOL0     C17721  -0.006   9.996  10.477  0.9798  0.8836 -0.1177
  854MOL0     O17722   0.005   9.884  10.562 -0.1248 -0.2662 -0.2024
  854MOL0     C17723   0.119   9.800  10.554 -0.5078  0.6369  0.5747
  854MOL0     C17724   0.236   9.840  10.643  0.4071  0.2600 -0.0725
  854MOL0     C17725   0.271   9.986  10.638 -0.3366 -0.1755 -0.1897
  854MOL0     C17726   0.370  10.020  10.751 -0.0969  0.8908  0.3130
  854MOL0     C17727   0.409  10.171  10.765  0.8533  0.0336  0.2764
  854MOL0     C17728   0.300  10.248  10.843 -0.1111  0.7085  0.8902
  854MOL0     C17729   0.352  10.374  10.905 -0.0692 -0.7425 -0.2508
  854MOL0     C17730   0.322  10.499  10.821  1.1462 -0.4212  0.1321
  854MOL0     N17731   0.404  10.509  10.698 -1.0613 -0.2566  0.0977
  854MOL0     C17732   0.353  10.482  10.575  0.4528  0.3926  0.1455
  854MOL0     C17733   0.468  10.481  10.497  0.4693 -1.1810 -0.6349
  854MOL0     C17734   0.459  10.470  10.355 -0.0138  0.0852 -0.0218
  854MOL0     C17735   0.586  10.403  10.296  0.4078 -0.2931  0.1727
  854MOL0     C17736   0.679  10.509  10.239  0.1219  0.1094  0.0306
  854MOL0     C17737   0.697  10.644  10.334  0.4913  0.7470  0.1882
  854MOL0     O17738   0.760  10.750  10.266  0.7327  1.2028  0.7194
  854MOL0     C17739   0.681  10.833  10.191 -0.1228 -0.0810 -1.4015
  854MOL0     C17740   0.745  10.941  10.131  1.2008 -0.5216 -0.6150
  854MOL0     C17741   0.678  11.034  10.048 -0.5343 -0.2371  0.1841
  854MOL0     C17742   0.760  11.150   9.988 -0.1607 -0.5447  0.3788
  854MOL0     C17743   0.549  11.015  10.011 -0.8412  0.3549 -0.2857
  854MOL0     C17744   0.472  11.106   9.935 -0.0645 -0.3105  0.2805
  854MOL0     O17745   0.464  11.241   9.962 -0.0453  0.2149  0.3299
  854MOL0     C17746   0.367  11.321   9.910  0.6905  0.2893  1.0070
  854MOL0     C17747   0.347  11.337   9.767 -0.1299 -0.3421 -0.7783
  854MOL0     C17748   0.280  11.449   9.713 -0.1174  0.1682  0.5063
  854MOL0     C17749   0.245  11.556   9.797  0.8313  0.1541  0.1926
  854MOL0     O17750   0.186  11.664   9.733  0.0024  0.4160  0.5541
  854MOL0     C17751   0.127  11.771   9.797 -0.0095 -0.1028  0.0726
  854MOL0     C17752   0.236  11.885   9.811  0.9797 -0.5972 -0.3592
  854MOL0     C17753   0.322  11.907   9.689  0.5914  0.3273  1.1481
  854MOL0     C17754   0.465  11.854   9.692  0.7536  0.5357 -0.5709
  854MOL0     C17755   0.560  11.938   9.605 -0.0227 -0.5842 -0.0516
  854MOL0     C17756   0.692  11.864   9.583  0.0705  0.0628 -0.2531
  854MOL0     C17757   0.796  11.945   9.499 -0.3524  0.3367 -1.0772
  854MOL0     C17758   0.926  11.860   9.489 -0.0770  0.1574  0.6580
  854MOL0    Cl17759   1.069  11.960   9.469 -0.0249 -0.3337 -0.1480
  854MOL0     C17760   0.261  11.539   9.936 -0.5587  0.1821 -0.0088
  854MOL0     C17761   0.321  11.423   9.990 -0.1931 -0.1898 -0.4962
  854MOL0     O17762   0.409  11.052   9.846 -0.0150  0.0440 -0.0135
  854MOL0     C17763   0.480  10.908  10.069 -0.6166  0.2459  0.7364
  854MOL0     C17764   0.545  10.815  10.160 -0.6912  0.5356 -0.0146
  854MOL0     N17765   0.569  10.531  10.579 -0.4238 -0.0186 -0.1113
  854MOL0     N17766   0.532  10.544  10.691 -0.6305 -0.2832  0.0145
  854MOL0     C17767  -0.063  10.105  10.536  0.3572 -0.4936  0.4354
  854MOL0     C17768  -0.092  10.216  10.469  0.0184 -0.3628  0.0255
  854MOL0     C17769   0.011  10.499  10.130 -0.2313  0.4034  0.6300
  854MOL0     C17770   0.127  10.555  10.068  0.0985 -0.3085 -0.3181
  854MOL0     C17771   0.124  10.686  10.018 -0.4944  0.2525 -0.1420
  854MOL0     C17772   0.009  10.765  10.018 -0.1250  0.4187 -1.4723
  854MOL0     O17773   0.013  10.893   9.963 -0.5822 -0.3396 -0.2253
  854MOL0     C17774  -0.104  10.976   9.955 -0.4420 -0.3215 -0.4296
  854MOL0     C17775  -0.065  11.096   9.863 -0.5434  0.1460  0.1638
  854MOL0     C17776  -0.147  11.222   9.889  0.1812 -0.5965 -0.6300
  854MOL0     C17777  -0.099  11.342   9.808 -0.5322 -0.5823 -0.1274
  854MOL0     C17778  -0.192  11.456   9.825  0.3310 -0.5956  0.8621
  854MOL0     C17779  -0.265  11.551   9.836 -0.0558 -0.9380  0.1240
  854MOL0     C17780  -0.108  10.711  10.076 -0.5682  1.1032  0.2332
  854MOL0     C17781  -0.111  10.574  10.126  0.0587 -0.3396  0.2297
  854MOL0     C17782  -0.242  10.534  10.195  0.1917 -1.3529  0.7658
  854MOL0     H17783  -0.042  10.092  10.157  0.9154 -2.2959 -1.1130
  854MOL0     H17784   0.034   9.893  10.290 -1.0031 -0.6116  1.3341
  854MOL0     H17785   0.146   9.786  10.449 -1.1889 -0.5327  0.5333
  854MOL0     H17786   0.072   9.710  10.593  0.9760 -0.1937  0.5300
  854MOL0     H17787   0.202   9.811  10.743 -3.3925  2.6997 -0.4163
  854MOL0     H17788   0.320   9.780  10.608 -0.9057 -2.3964  1.0297
  854MOL0     H17789   0.304   9.992  10.534 -0.6282 -2.7803 -0.5074
  854MOL0     H17790   0.176  10.038  10.649 -0.2345  1.0080 -3.6784
  854MOL0     H17791   0.321   9.993  10.845 -0.0371  0.2614  0.1674
  854MOL0     H17792   0.460   9.963  10.728 -1.2275 -1.1433  0.6203
  854MOL0     H17793   0.426  10.205  10.662 -2.3793 -2.9573 -1.4469
  854MOL0     H17794   0.501  10.167  10.824  0.0177 -0.3741  1.5896
  854MOL0     H17795   0.220  10.271  10.773  1.4486  0.3245 -1.1154
  854MOL0     H17796   0.245  10.192  10.920 -0.8434 -0.4753 -0.4477
  854MOL0     H17797   0.457  10.365  10.933  0.5938  1.1632 -1.8715
  854MOL0     H17798   0.300  10.376  11.002 -0.9929 -1.5718 -0.7110
  854MOL0     H17799   0.213  10.504  10.818  1.2137  0.8726 -0.8686
  854MOL0     H17800   0.346  10.591  10.874 -0.1941  0.0839 -0.1076
  854MOL0     H17801   0.251  10.458  10.547  0.2300  1.1448  0.2789
  854MOL0     H17802   0.436  10.565  10.306  0.6586  2.1642  3.3483
  854MOL0     H17803   0.371  10.405  10.340  0.8630 -1.0617 -0.3579
  854MOL0     H17804   0.639  10.347  10.373  0.5335 -0.7134 -0.2162
  854MOL0     H17805   0.569  10.331  10.215  0.0730 -2.5327  2.1434
  854MOL0     H17806   0.774  10.457  10.228  1.2044  1.3334  2.6419
  854MOL0     H17807   0.651  10.550  10.142  1.8805  1.0974 -0.0984
  854MOL0     H17808   0.606  10.687  10.377 -0.9176 -1.8495  0.0057
  854MOL0     H17809   0.758  10.619  10.421 -2.6753  2.3080  3.0567
  854MOL0     H17810   0.852  10.931  10.142  1.2793  0.2866 -0.6374
  854MOL0     H17811   0.868  11.134   9.996 -0.3052 -3.1810 -1.6114
  854MOL0     H17812   0.720  11.239  10.037 -1.4819 -0.8873 -0.0250
  854MOL0     H17813   0.734  11.161   9.882 -0.2551 -0.0770  0.4492
  854MOL0     H17814   0.385  11.257   9.704 -0.1439 -0.5359 -0.5402
  854MOL0     H17815   0.266  11.456   9.605 -0.0893 -0.8696  0.4277
  854MOL0     H17816   0.059  11.820   9.727 -0.1521 -1.2467 -0.6076
  854MOL0     H17817   0.086  11.752   9.897  3.3360 -0.1097  1.5827
  854MOL0     H17818   0.184  11.978   9.835  2.7895  0.1994  0.5669
  854MOL0     H17819   0.290  11.859   9.902  0.2321 -0.4395  0.1431
  854MOL0     H17820   0.328  12.015   9.672 -0.1241 -0.0985 -2.6753
  854MOL0     H17821   0.270  11.863   9.604 -0.0951 -1.6834  2.5285
  854MOL0     H17822   0.466  11.757   9.640 -1.7769 -0.2593  0.6628
  854MOL0     H17823   0.504  11.848   9.794 -0.1354  1.5443 -0.1553
  854MOL0     H17824   0.516  11.979   9.513 -0.2420  0.8964  0.6852
  854MOL0     H17825   0.588  12.025   9.664  0.6372 -1.6249  1.2317
  854MOL0     H17826   0.675  11.779   9.516  1.0211 -2.1513  2.1570
  854MOL0     H17827   0.742  11.840   9.677 -0.9331  1.5409  0.6940
  854MOL0     H17828   0.822  12.035   9.556 -2.3929  0.4696 -0.2484
  854MOL0     H17829   0.755  11.980   9.404 -2.7713 -2.2061 -1.0830
  854MOL0     H17830   0.910  11.809   9.393  0.4295  0.6625  0.2966
  854MOL0     H17831   0.927  11.782   9.566 -1.8812 -0.2353  0.3176
  854MOL0     H17832   0.251  11.624  10.003  3.5548  0.2050  0.8492
  854MOL0     H17833   0.340  11.434  10.096 -5.2226  0.2434  0.6004
  854MOL0     H17834   0.377  10.912  10.034  0.0903  2.7859 -1.4060
  854MOL0     H17835   0.485  10.731  10.193 -0.1344  0.1420 -0.0043
  854MOL0     H17836  -0.088  10.110  10.641 -2.8647 -2.7750 -0.0568
  854MOL0     H17837  -0.137  10.295  10.527 -0.6273 -2.0212  1.8923
  854MOL0     H17838   0.225  10.508  10.073  1.5712  2.6408  2.1232
  854MOL0     H17839   0.221  10.720   9.983  0.0283 -1.2112 -0.1909
  854MOL0     H17840  -0.195  10.931   9.915 -1.8147  1.8806  0.0608
  854MOL0     H17841  -0.133  11.014  10.053  0.3452 -1.6515  0.3413
  854MOL0     H17842  -0.067  11.063   9.759  2.2588 -2.5747  0.8134
  854MOL0     H17843   0.039  11.131   9.869 -0.4674  0.4324 -2.0115
  854MOL0     H17844  -0.254  11.207   9.873 -0.3127  1.5558  0.3087
  854MOL0     H17845  -0.135  11.254   9.993  4.3895  1.8131 -1.6267
  854MOL0     H17846  -0.092  11.312   9.703 -0.5266  0.3982 -0.4102
  854MOL0     H17847  -0.005  11.380   9.850 -0.0437 -0.2308 -1.4988
  854MOL0     H17848  -0.321  11.643   9.834 -0.1920 -0.9737  1.3596
  854MOL0     H17849  -0.204  10.761  10.067 -2.7770 -2.8704 -0.3396
  854MOL0     H17850  -0.274  10.434  10.167  0.2031 -1.1068 -0.1507
  854MOL0     H17851  -0.236  10.525  10.304 -0.8010 -0.8644  0.8694
  854MOL0     H17852  -0.323  10.607  10.188  1.3981 -0.1610 -2.5260
  855MOL0     O17853   5.008   2.133   6.420 -0.2630 -0.2747  0.8002
  855MOL0     C17854   5.113   2.149   6.363  0.6039 -0.0735  0.7187
  855MOL0     O17855   5.233   2.090   6.401  0.0139  0.1003 -1.0715
  855MOL0     C17856   5.301   2.125   6.513  0.1839  0.1592  0.2524
  855MOL0     C17857   5.439   2.156   6.505  1.2074 -0.4816 -0.2992
  855MOL0     C17858   5.520   2.169   6.621 -0.3027  0.3063 -0.7888
  855MOL0     C17859   5.456   2.163   6.746  1.1022  1.2248  0.3590
  855MOL0     O17860   5.513   2.207   6.867  0.3297  0.2217 -0.0461
  855MOL0     C17861   5.644   2.174   6.905 -0.6983 -0.5878 -0.1231
  855MOL0     C17862   5.670   2.019   6.902  0.5959  0.0995 -0.0659
  855MOL0     C17863   5.586   1.932   6.994  0.6319 -0.3959  0.2798
  855MOL0     C17864   5.661   1.822   7.077  0.3882  0.3840  0.9978
  855MOL0     C17865   5.704   1.711   6.984 -0.9448 -0.7013 -0.2572
  855MOL0     C17866   5.746   1.580   7.051 -0.0335 -0.1335  0.3221
  855MOL0     C17867   5.860   1.604   7.148  0.2368  0.2492 -0.1218
  855MOL0     C17868   5.916   1.469   7.208  0.0364  0.0298 -0.5061
  855MOL0     N17869   6.014   1.491   7.312  0.8519 -0.3349  0.8789
  855MOL0     C17870   5.999   1.462   7.443  0.2007 -0.9479  0.1789
  855MOL0     C17871   6.133   1.466   7.489  0.1673  0.4226 -1.3147
  855MOL0     C17872   6.169   1.434   7.631  0.8845 -0.0948  0.3233
  855MOL0     C17873   6.182   1.280   7.647 -0.6197  0.3887 -0.6802
  855MOL0     C17874   6.144   1.229   7.782  0.3034  0.4727  0.7293
  855MOL0     C17875   6.243   1.297   7.876  0.6814  0.8505  0.1362
  855MOL0     O17876   6.270   1.213   7.987  0.1916 -0.7186  0.0614
  855MOL0     C17877   6.243   1.266   8.107 -0.2775  0.3431 -0.2520
  855MOL0     C17878   6.116   1.243   8.160  0.1271  0.0287  0.5673
  855MOL0     C17879   6.097   1.270   8.297 -0.6908 -0.9645 -0.4009
  855MOL0     C17880   5.959   1.242   8.342 -0.5523  0.2520  1.0686
  855MOL0     C17881   6.191   1.336   8.373  0.6761 -0.3449 -0.0861
  855MOL0     C17882   6.179   1.380   8.510 -0.2960  0.0990 -0.3505
  855MOL0     O17883   6.274   1.355   8.594  0.6534 -0.2594  0.4522
  855MOL0     C17884   6.252   1.406   8.721  0.3257 -0.7069  0.9666
  855MOL0     C17885   6.249   1.322   8.826 -0.3657  0.4469 -0.0090
  855MOL0     C17886   6.219   1.363   8.959 -0.6666 -0.1383 -0.1366
  855MOL0     C17887   6.208   1.501   8.985 -0.0329  0.2538  0.0373
  855MOL0     O17888   6.177   1.547   9.107 -0.0227  0.2739 -0.2321
  855MOL0     C17889   6.171   1.454   9.216 -0.5617  0.6850 -0.4254
  855MOL0     C17890   6.152   1.517   9.355  0.4052 -0.9006 -0.2878
  855MOL0     C17891   6.281   1.557   9.415 -0.1186  0.5407 -0.1336
  855MOL0     C17892   6.277   1.614   9.553  0.1501 -0.4785 -0.0072
  855MOL0     C17893   6.415   1.674   9.604  0.9764  0.0855 -0.0924
  855MOL0     C17894   6.392   1.777   9.715  0.2850 -0.9095  1.3954
  855MOL0     C17895   6.518   1.812   9.789 -0.5174 -0.7439  0.4166
  855MOL0     C17896   6.488   1.891   9.923  0.2839 -0.5284  0.3823
  855MOL0    Cl17897   6.623   1.855  10.035  0.5086 -0.0764  0.8040
  855MOL0     C17898   6.218   1.585   8.877  0.5117 -0.3293  0.4977
  855MOL0     C17899   6.257   1.541   8.744 -0.1838 -0.2643 -0.5486
  855MOL0     O17900   6.086   1.452   8.535  1.0102  0.3529  0.6787
  855MOL0     C17901   6.320   1.343   8.322 -0.2284 -0.2069 -0.7760
  855MOL0     C17902   6.349   1.315   8.194  0.0290  0.0547 -0.6125
  855MOL0     N17903   6.228   1.505   7.388 -0.0715  0.1532 -0.2295
  855MOL0     N17904   6.146   1.524   7.287 -0.7578 -0.5224  0.4704
  855MOL0     C17905   5.324   2.129   6.755  1.1323 -0.1479  0.0536
  855MOL0     C17906   5.243   2.110   6.637  0.5639 -0.2510 -0.4106
  855MOL0     C17907   5.128   2.246   6.252 -0.4206 -0.4897  0.2081
  855MOL0     C17908   5.248   2.305   6.231 -0.2971 -0.4692  0.0641
  855MOL0     C17909   5.281   2.390   6.117  0.4969  0.0511 -0.0092
  855MOL0     C17910   5.182   2.424   6.019  0.9270  0.2523  0.4062
  855MOL0     O17911   5.190   2.508   5.905 -0.0782 -0.8225 -0.0359
  855MOL0     C17912   5.299   2.493   5.809  0.1051  1.0009  0.0062
  855MOL0     C17913   5.260   2.418   5.682 -0.3651  0.1027 -0.0853
  855MOL0     C17914   5.165   2.506   5.596 -0.4366 -0.3805  0.6853
  855MOL0     C17915   5.165   2.432   5.464 -0.5185  0.1707 -0.4336
  855MOL0     C17916   5.296   2.441   5.394 -0.8710  0.2310  0.3227
  855MOL0     C17917   5.401   2.449   5.326 -0.4222 -0.0384  0.0002
  855MOL0     C17918   5.055   2.367   6.036 -0.1357  0.6176 -0.3500
  855MOL0     C17919   5.023   2.285   6.155 -0.7975  0.2763  0.3409
  855MOL0     C17920   4.885   2.246   6.171 -1.2784  0.3583  0.3721
  855MOL0     H17921   5.486   2.169   6.408 -0.6079  1.3863 -1.0107
  855MOL0     H17922   5.624   2.198   6.624 -0.9228  2.6639  1.1321
  855MOL0     H17923   5.674   2.218   7.001 -2.3499  0.1043  0.0976
  855MOL0     H17924   5.708   2.228   6.834 -0.6385  2.0132  1.7620
  855MOL0     H17925   5.651   1.993   6.797  3.0051  0.9161 -0.7808
  855MOL0     H17926   5.776   2.006   6.922  0.4144  0.2712  1.0973
  855MOL0     H17927   5.514   1.995   7.047 -1.3224 -2.1104 -0.2340
  855MOL0     H17928   5.524   1.886   6.916 -0.1755  0.4155  0.4261
  855MOL0     H17929   5.745   1.866   7.131 -0.4123  0.9368  1.8225
  855MOL0     H17930   5.600   1.769   7.151  0.0219  0.8132  1.0092
  855MOL0     H17931   5.784   1.743   6.917 -0.0641 -0.0888  1.0454
  855MOL0     H17932   5.623   1.673   6.920 -1.3182 -2.1643  1.0315
  855MOL0     H17933   5.661   1.523   7.089 -1.0574  0.7391 -0.5910
  855MOL0     H17934   5.789   1.520   6.970  2.4748  0.9876  0.7250
  855MOL0     H17935   5.822   1.661   7.233  0.2779 -0.0889  0.1248
  855MOL0     H17936   5.953   1.637   7.100  1.5817 -3.7180 -0.5704
  855MOL0     H17937   5.829   1.412   7.242 -0.5875 -0.5136 -2.8208
  855MOL0     H17938   5.958   1.405   7.129  1.2296  0.0027  0.1205
  855MOL0     H17939   5.910   1.439   7.500 -1.6220 -3.0106 -3.1642
  855MOL0     H17940   6.091   1.474   7.697  1.2636 -1.4997  1.6824
  855MOL0     H17941   6.262   1.483   7.657  0.4534 -0.6455  3.1493
  855MOL0     H17942   6.106   1.229   7.588  1.1472 -0.8840 -1.9685
  855MOL0     H17943   6.284   1.250   7.618 -0.0626  3.1948 -1.9684
  855MOL0     H17944   6.042   1.250   7.816 -0.4815 -1.1401 -0.5326
  855MOL0     H17945   6.168   1.122   7.782  0.5599  0.4890 -1.3358
  855MOL0     H17946   6.339   1.316   7.828  0.0281  2.0885 -0.7432
  855MOL0     H17947   6.188   1.387   7.907 -1.0061  0.7934 -2.4126
  855MOL0     H17948   6.036   1.189   8.111  1.6345 -0.8275 -1.0852
  855MOL0     H17949   5.941   1.138   8.313  0.6348  0.0709  0.8998
  855MOL0     H17950   5.896   1.316   8.293 -1.0908  0.7732  2.5059
  855MOL0     H17951   5.948   1.263   8.449 -0.6610  2.1370  0.7248
  855MOL0     H17952   6.259   1.216   8.804  0.2527  0.9560 -2.4959
  855MOL0     H17953   6.219   1.289   9.038 -0.7696 -1.5387 -1.4099
  855MOL0     H17954   6.092   1.379   9.204 -0.7265  1.0186 -1.5682
  855MOL0     H17955   6.264   1.397   9.218 -1.0075 -0.4065 -3.6590
  855MOL0     H17956   6.090   1.607   9.349  3.3259  1.5136  2.3816
  855MOL0     H17957   6.100   1.446   9.418 -1.7977 -0.3242 -1.3448
  855MOL0     H17958   6.329   1.632   9.351  0.0489 -1.1491 -2.0992
  855MOL0     H17959   6.344   1.468   9.405  0.7960  1.2126 -0.4442
  855MOL0     H17960   6.231   1.544   9.622 -1.0101  0.0770 -0.1775
  855MOL0     H17961   6.201   1.693   9.551  1.5023  0.9130  1.1529
  855MOL0     H17962   6.483   1.593   9.632  0.4668 -0.2729  0.1205
  855MOL0     H17963   6.460   1.724   9.518 -0.8692 -1.3711 -1.9931
  855MOL0     H17964   6.327   1.731   9.790 -1.3912  0.6037  0.9344
  855MOL0     H17965   6.337   1.863   9.675 -0.9221 -3.0518 -1.9009
  855MOL0     H17966   6.582   1.869   9.721  2.3790 -1.4705  2.3728
  855MOL0     H17967   6.579   1.722   9.803  1.5784  0.3387 -1.1479
  855MOL0     H17968   6.398   1.850   9.969 -0.1722 -2.1324 -1.7451
  855MOL0     H17969   6.455   1.994   9.909  2.2058 -0.0272 -1.0101
  855MOL0     H17970   6.198   1.691   8.886  0.6064 -0.1421 -1.0919
  855MOL0     H17971   6.270   1.611   8.662  3.3202 -1.3174 -1.1010
  855MOL0     H17972   6.396   1.378   8.390 -2.2798  1.1441  0.9502
  855MOL0     H17973   6.449   1.329   8.154 -0.6419  1.5017 -1.8293
  855MOL0     H17974   5.290   2.130   6.858  0.5249 -1.7095 -0.0924
  855MOL0     H17975   5.139   2.079   6.641 -0.2887  2.2000 -1.5677
  855MOL0     H17976   5.325   2.290   6.306  0.3646  0.2463 -0.4555
  855MOL0     H17977   5.387   2.413   6.102  0.3566 -0.1110 -1.4318
  855MOL0     H17978   5.347   2.589   5.787  0.6790  0.3508 -1.7837
  855MOL0     H17979   5.377   2.433   5.856 -1.8181 -0.2249  1.7627
  855MOL0     H17980   5.215   2.323   5.708 -2.1427  1.0753  0.5258
  855MOL0     H17981   5.356   2.397   5.633 -0.0495  0.3083  0.4319
  855MOL0     H17982   5.066   2.522   5.640 -2.3502 -2.9888 -2.2172
  855MOL0     H17983   5.216   2.602   5.588 -1.1983 -0.0212 -0.0180
  855MOL0     H17984   5.090   2.471   5.394 -1.4536  0.6693  0.8151
  855MOL0     H17985   5.150   2.325   5.483 -3.2565  0.1599 -1.9980
  855MOL0     H17986   5.493   2.442   5.272  3.5134  0.9403  5.7045
  855MOL0     H17987   4.979   2.410   5.972  0.0580  1.7358  0.1522
  855MOL0     H17988   4.823   2.306   6.104  1.5493 -0.2286 -3.0860
  855MOL0     H17989   4.882   2.138   6.160 -0.9388  0.1563  2.0208
  855MOL0     H17990   4.857   2.269   6.274 -0.8678  1.7417  0.1993
  856MOL0     O17991   9.050   3.046   4.399  0.6877  0.7572  0.4671
  856MOL0     C17992   8.953   3.103   4.450 -0.6995 -0.7685 -0.6649
  856MOL0     O17993   8.822   3.067   4.453  0.0345 -0.0987 -0.1783
  856MOL0     C17994   8.794   2.941   4.447  0.2753  0.9651 -0.5572
  856MOL0     C17995   8.685   2.917   4.372 -0.6481  0.6526 -0.0496
  856MOL0     C17996   8.637   2.790   4.379  0.1764  0.1947  0.6944
  856MOL0     C17997   8.683   2.691   4.455  0.8842 -0.8895  0.1955
  856MOL0     O17998   8.618   2.575   4.440 -0.1488  0.2253  0.2017
  856MOL0     C17999   8.629   2.469   4.544 -0.4413  0.3355  0.2309
  856MOL0     C18000   8.546   2.341   4.514 -0.6649 -0.3258 -0.3736
  856MOL0     C18001   8.636   2.212   4.545  0.0934 -0.4441 -0.3334
  856MOL0     C18002   8.536   2.093   4.546 -0.1425  0.1159  0.3499
  856MOL0     C18003   8.444   2.072   4.662  0.6328  0.0233  0.1965
  856MOL0     C18004   8.326   2.161   4.667 -0.8139 -0.5831  0.9438
  856MOL0     C18005   8.206   2.098   4.721 -0.0547 -0.5935  0.7387
  856MOL0     C18006   8.136   1.998   4.627 -0.1415  0.1086 -0.2685
  856MOL0     N18007   8.103   2.036   4.492  0.2479 -0.3514  0.0345
  856MOL0     C18008   7.992   2.110   4.458  0.4507 -0.0364  0.3171
  856MOL0     C18009   8.012   2.140   4.334 -0.0742  0.7840  0.4826
  856MOL0     C18010   7.930   2.225   4.241  0.3509  0.1357 -0.5885
  856MOL0     C18011   7.822   2.318   4.302  0.7793 -0.2182 -0.5087
  856MOL0     C18012   7.726   2.374   4.201  0.0190 -0.1131  0.4696
  856MOL0     C18013   7.786   2.480   4.109 -1.2986 -0.3358 -0.4689
  856MOL0     O18014   7.696   2.526   4.009 -0.4360  0.2039 -0.2165
  856MOL0     C18015   7.675   2.660   4.000  0.0585  0.4660 -0.8729
  856MOL0     C18016   7.765   2.762   4.044  0.1756  0.7126  0.9320
  856MOL0     C18017   7.727   2.901   4.037  0.5387 -0.3895 -0.1438
  856MOL0     C18018   7.814   3.010   4.094  0.6849 -0.0107  0.5615
  856MOL0     C18019   7.601   2.932   3.965 -0.5774 -0.3707 -0.1529
  856MOL0     C18020   7.555   3.068   3.932  1.0261 -0.5567 -0.1552
  856MOL0     O18021   7.422   3.081   3.902  0.0118  0.3032 -0.0339
  856MOL0     C18022   7.380   3.212   3.912  0.0300  0.5581  0.5332
  856MOL0     C18023   7.381   3.295   3.800 -1.0602 -0.5274 -0.5635
  856MOL0     C18024   7.311   3.421   3.802 -0.2041 -1.0953  1.0236
  856MOL0     C18025   7.239   3.469   3.907  0.9290  1.3270  0.1783
  856MOL0     O18026   7.149   3.576   3.884  0.3758  0.4536  0.4099
  856MOL0     C18027   7.050   3.618   3.982  0.5477 -0.2161  0.9202
  856MOL0     C18028   6.926   3.678   3.910  0.1400 -0.7502  0.0951
  856MOL0     C18029   6.828   3.724   4.020 -0.2585 -0.3924 -0.8018
  856MOL0     C18030   6.702   3.787   3.963 -0.4112  0.0745 -0.3467
  856MOL0     C18031   6.589   3.830   4.058 -0.1591 -0.4267 -0.8421
  856MOL0     C18032   6.626   3.910   4.194 -0.2154 -0.5985  0.5875
  856MOL0     C18033   6.683   4.050   4.159 -0.3543  0.5104 -1.0053
  856MOL0     C18034   6.702   4.129   4.283 -1.1878 -0.2245  0.2165
  856MOL0    Cl18035   6.540   4.197   4.330 -0.0960 -0.1352 -0.0695
  856MOL0     C18036   7.242   3.383   4.024  0.3712 -0.2147 -0.3923
  856MOL0     C18037   7.301   3.250   4.017  0.3598  0.2476 -0.4900
  856MOL0     O18038   7.633   3.163   3.916 -0.6784 -0.2166 -0.3815
  856MOL0     C18039   7.514   2.824   3.927 -0.2093  0.9742 -0.6077
  856MOL0     C18040   7.555   2.690   3.952  0.0832  0.5390  0.5881
  856MOL0     N18041   8.138   2.102   4.300  0.8034 -0.0344 -0.4646
  856MOL0     N18042   8.191   2.031   4.388  0.5351  1.3094 -0.4671
  856MOL0     C18043   8.808   2.710   4.519 -0.2178 -0.0528 -0.1047
  856MOL0     C18044   8.868   2.836   4.507  0.9951 -0.2471 -0.5212
  856MOL0     C18045   8.983   3.228   4.523 -0.5842  0.5248  0.3424
  856MOL0     C18046   8.878   3.282   4.603  0.1557  0.2055  0.0391
  856MOL0     C18047   8.899   3.402   4.674  0.4837 -0.3776  0.0957
  856MOL0     C18048   9.023   3.462   4.684 -0.6602  0.9592  0.0156
  856MOL0     O18049   9.033   3.573   4.763  0.1772  0.2778 -1.1570
  856MOL0     C18050   9.010   3.702   4.704 -0.2333  0.0080  0.9676
  856MOL0     C18051   8.976   3.798   4.825  0.3931 -0.1103 -0.4422
  856MOL0     C18052   9.095   3.836   4.901  0.1598  0.2769 -0.1082
  856MOL0     C18053   9.064   3.904   5.038  0.6751  0.1749  0.6304
  856MOL0     C18054   9.195   3.945   5.098  0.7568 -0.3939  0.5900
  856MOL0     C18055   9.302   3.986   5.146 -0.1377 -0.1579 -0.4706
  856MOL0     C18056   9.125   3.409   4.607  0.0089 -1.1762 -0.4769
  856MOL0     C18057   9.113   3.292   4.528  0.0218  0.7966 -0.2094
  856MOL0     C18058   9.228   3.257   4.449 -0.0357 -0.2857  0.3611
  856MOL0     H18059   8.642   2.994   4.308 -0.9748  0.9626  0.5365
  856MOL0     H18060   8.545   2.760   4.331 -0.1716 -0.1782  1.5719
  856MOL0     H18061   8.595   2.505   4.641 -2.8505 -0.6079 -0.2092
  856MOL0     H18062   8.736   2.447   4.550 -0.3715  0.3102 -0.8779
  856MOL0     H18063   8.454   2.357   4.569 -1.8820 -3.8116 -1.1628
  856MOL0     H18064   8.526   2.339   4.406  1.1932 -1.6794 -0.7608
  856MOL0     H18065   8.712   2.198   4.468 -0.3278  0.1924 -0.8816
  856MOL0     H18066   8.685   2.219   4.642 -3.2408 -5.8706  2.2106
  856MOL0     H18067   8.480   2.108   4.454  1.0661  3.2293 -0.0027
  856MOL0     H18068   8.588   1.996   4.542  2.2437  1.1635  2.9691
  856MOL0     H18069   8.502   2.065   4.755  3.2912  1.3441 -1.2392
  856MOL0     H18070   8.400   1.973   4.645 -0.5945  0.3896  1.0780
  856MOL0     H18071   8.362   2.238   4.735  0.2129  0.7286 -0.9963
  856MOL0     H18072   8.295   2.209   4.573 -0.4355 -1.0427  0.5852
  856MOL0     H18073   8.142   2.185   4.737 -1.5999 -1.0898 -2.1366
  856MOL0     H18074   8.222   2.045   4.816 -0.3308  0.3872  1.3469
  856MOL0     H18075   8.189   1.903   4.624 -1.4648 -0.6234 -1.2706
  856MOL0     H18076   8.043   1.972   4.679  0.3416  0.4234  0.7965
  856MOL0     H18077   7.908   2.134   4.523 -1.3571 -0.9039 -1.6084
  856MOL0     H18078   7.876   2.155   4.176 -3.6070  0.9277  1.4943
  856MOL0     H18079   7.998   2.292   4.188  0.7374  0.9655  0.9136
  856MOL0     H18080   7.763   2.256   4.371 -2.4195  1.0728 -1.8646
  856MOL0     H18081   7.858   2.404   4.359 -0.9003  2.0204 -2.5674
  856MOL0     H18082   7.692   2.290   4.138 -2.5780 -0.0503  1.6672
  856MOL0     H18083   7.634   2.411   4.247 -2.5460 -1.0796 -3.3748
  856MOL0     H18084   7.826   2.559   4.174 -0.4746 -1.3208  0.2521
  856MOL0     H18085   7.877   2.441   4.064  0.6630  0.2385  2.6351
  856MOL0     H18086   7.868   2.750   4.074  1.4246 -1.3585 -3.3197
  856MOL0     H18087   7.879   2.960   4.166  3.0428  2.8507  0.5848
  856MOL0     H18088   7.758   3.085   4.150  0.0112 -1.8850  2.5425
  856MOL0     H18089   7.878   3.050   4.015  3.4485 -0.2339  2.5298
  856MOL0     H18090   7.435   3.255   3.714 -0.3967 -1.4691  0.2609
  856MOL0     H18091   7.310   3.473   3.706  1.0233  0.9461  2.0649
  856MOL0     H18092   7.018   3.540   4.051 -1.2574  0.0099  0.4090
  856MOL0     H18093   7.095   3.697   4.042 -2.2943 -1.3767  4.9740
  856MOL0     H18094   6.961   3.764   3.853 -1.5932  0.3790  0.6234
  856MOL0     H18095   6.883   3.596   3.852 -2.6476 -0.2727  1.3066
  856MOL0     H18096   6.869   3.798   4.089 -1.0301  0.5076 -1.2929
  856MOL0     H18097   6.802   3.629   4.068 -0.0269 -0.3189 -0.5261
  856MOL0     H18098   6.662   3.712   3.894 -0.6013 -0.1616  0.0206
  856MOL0     H18099   6.724   3.873   3.898  2.1545 -0.6619 -0.5284
  856MOL0     H18100   6.516   3.886   4.000 -0.4405  2.1700  1.7299
  856MOL0     H18101   6.538   3.738   4.088  2.6033 -1.8974 -0.2731
  856MOL0     H18102   6.696   3.846   4.249  0.5795  0.7460  1.1815
  856MOL0     H18103   6.535   3.922   4.254 -2.0764 -1.4126 -1.9106
  856MOL0     H18104   6.614   4.109   4.098  0.4990  2.6691  0.0117
  856MOL0     H18105   6.779   4.038   4.107 -1.2098  1.0585 -2.8074
  856MOL0     H18106   6.762   4.219   4.268  1.3437 -1.9699 -0.8358
  856MOL0     H18107   6.739   4.065   4.364 -0.0085 -0.7461 -0.6910
  856MOL0     H18108   7.187   3.423   4.109 -1.1963  2.3580 -2.4408
  856MOL0     H18109   7.283   3.178   4.097  0.5537 -0.4074 -1.0261
  856MOL0     H18110   7.417   2.849   3.885 -0.3271  0.2463 -0.7933
  856MOL0     H18111   7.478   2.621   3.918 -0.3827  1.6423 -0.6722
  856MOL0     H18112   8.861   2.627   4.565  0.5946  0.3711 -0.2440
  856MOL0     H18113   8.955   2.855   4.569  0.9573 -3.0346  0.5407
  856MOL0     H18114   8.777   3.245   4.610  0.4818 -0.7195  0.0192
  856MOL0     H18115   8.815   3.439   4.732  0.2225 -2.7609  1.3739
  856MOL0     H18116   9.097   3.737   4.646  1.0280 -1.2037  2.0560
  856MOL0     H18117   8.921   3.697   4.641  1.3690 -5.3732 -1.4755
  856MOL0     H18118   8.900   3.749   4.887  0.1659  1.7271  0.8156
  856MOL0     H18119   8.920   3.887   4.795  1.1457  1.0062  1.3213
  856MOL0     H18120   9.151   3.743   4.915  5.0622  2.2873 -3.5193
  856MOL0     H18121   9.162   3.897   4.840  3.3840  0.3376  3.1509
  856MOL0     H18122   9.023   3.834   5.112 -0.1010 -0.4544 -0.3644
  856MOL0     H18123   9.000   3.990   5.018 -0.3886 -0.5848  0.6609
  856MOL0     H18124   9.389   4.019   5.199  1.5516 -3.6451 -0.7951
  856MOL0     H18125   9.215   3.466   4.625 -1.5883  0.5738  3.0786
  856MOL0     H18126   9.198   3.265   4.344 -0.1886  1.8515  0.5112
  856MOL0     H18127   9.311   3.324   4.474  1.0894 -1.4204 -0.2547
  856MOL0     H18128   9.256   3.155   4.476 -2.8500 -0.8660  1.4211
  857MOL0     O18129   6.827   9.501  10.698 -0.1003 -0.2689 -0.6699
  857MOL0     C18130   6.948   9.506  10.667  0.9076 -0.4520  0.1771
  857MOL0     O18131   7.044   9.447  10.744 -0.0141  0.0876 -0.0864
  857MOL0     C18132   7.045   9.411  10.879 -0.0074 -0.3758  0.5952
  857MOL0     C18133   6.928   9.394  10.963 -0.3926 -0.3222 -0.5395
  857MOL0     C18134   6.946   9.322  11.078 -0.0400  0.0860 -0.8698
  857MOL0     C18135   7.079   9.270  11.116  0.2202  0.1508 -0.0456
  857MOL0     O18136   7.079   9.171  11.214 -0.1882 -0.0853 -0.6161
  857MOL0     C18137   7.196   9.087  11.229  0.5884  0.3405 -0.3327
  857MOL0     C18138   7.165   8.990  11.339  0.3797  0.4144 -0.0341
  857MOL0     C18139   7.060   8.884  11.309 -0.0042  0.0203  0.6845
  857MOL0     C18140   6.961   8.845  11.425 -0.4134  0.4688  0.9241
  857MOL0     C18141   6.869   8.740  11.367 -0.2947 -0.0886 -0.6421
  857MOL0     C18142   6.734   8.744  11.439  1.0861 -0.0790 -0.3229
  857MOL0     C18143   6.633   8.857  11.411  1.0049 -0.5299  0.0740
  857MOL0     C18144   6.583   8.868  11.265  0.7105  0.4883 -0.2864
  857MOL0     N18145   6.501   8.991  11.239  0.6553 -0.2339  0.4848
  857MOL0     C18146   6.464   9.043  11.115 -0.0830 -0.3099  0.7721
  857MOL0     C18147   6.383   9.147  11.142  0.0572  0.1024 -0.0252
  857MOL0     C18148   6.331   9.248  11.034 -0.0813  0.3144  0.6487
  857MOL0     C18149   6.452   9.345  11.014 -0.0117 -0.0469  0.0254
  857MOL0     C18150   6.420   9.433  10.896 -0.3298 -0.5144  0.4475
  857MOL0     C18151   6.506   9.557  10.880  0.2990 -0.0004 -0.4104
  857MOL0     O18152   6.495   9.629  11.006  1.3900 -0.6647  0.3453
  857MOL0     C18153   6.585   9.726  11.040 -0.1431  0.0356 -0.8438
  857MOL0     C18154   6.698   9.761  10.954  0.1989 -0.3050 -0.0608
  857MOL0     C18155   6.802   9.847  10.998  0.5709 -0.0883 -0.9158
  857MOL0     C18156   6.915   9.868  10.902 -0.0816  0.0140  0.0136
  857MOL0     C18157   6.773   9.921  11.116  0.4558 -0.0099  0.4353
  857MOL0     C18158   6.864  10.031  11.171 -0.2953 -0.0661  0.8965
  857MOL0     O18159   6.802  10.102  11.265  0.7545  0.0041 -0.2713
  857MOL0     C18160   6.881  10.166  11.359  0.2006 -0.3111 -0.2455
  857MOL0     C18161   6.908  10.306  11.355 -0.1293  0.7636 -0.2720
  857MOL0     C18162   7.006  10.363  11.451  0.3484  0.6475  1.1403
  857MOL0     C18163   7.076  10.285  11.539 -0.2970 -0.4820  0.4737
  857MOL0     O18164   7.166  10.353  11.621  0.2688  0.2814 -0.2801
  857MOL0     C18165   7.273  10.276  11.687  0.9283 -0.3800  0.0141
  857MOL0     C18166   7.320  10.374  11.794  0.0460  0.0194  0.7468
  857MOL0     C18167   7.212  10.384  11.907  0.6857 -0.7567  0.0190
  857MOL0     C18168   7.264  10.449  12.034 -1.3132 -0.5944  0.5163
  857MOL0     C18169   7.174  10.437  12.160 -0.7230 -0.4921  0.1483
  857MOL0     C18170   7.037  10.507  12.144 -0.0915 -0.2516  0.4868
  857MOL0     C18171   6.922  10.404  12.128  0.2707 -0.5093  0.7870
  857MOL0     C18172   6.874  10.332  12.254  0.0161  0.3387  0.1405
  857MOL0    Cl18173   6.811  10.453  12.367 -0.3225 -0.3655  0.3260
  857MOL0     C18174   7.048  10.147  11.540  0.3741  0.9918  0.5089
  857MOL0     C18175   6.954  10.083  11.454 -0.1053 -0.2376  0.2768
  857MOL0     O18176   6.979  10.052  11.132  1.1269  0.6907 -0.1822
  857MOL0     C18177   6.659   9.898  11.191 -0.3759 -0.1995  0.3586
  857MOL0     C18178   6.570   9.804  11.155 -0.7130  0.2849 -0.3703
  857MOL0     N18179   6.369   9.159  11.282 -0.0171  0.6642  0.1356
  857MOL0     N18180   6.445   9.072  11.333  0.0560 -0.3754 -1.0617
  857MOL0     C18181   7.189   9.295  11.035 -1.2159 -0.0312  0.5421
  857MOL0     C18182   7.171   9.362  10.912  0.6207  0.2587  0.0657
  857MOL0     C18183   6.991   9.545  10.527 -0.3308 -0.1770 -0.7257
  857MOL0     C18184   6.924   9.493  10.411 -0.2838  0.4246 -0.0299
  857MOL0     C18185   6.959   9.540  10.283  0.5500  0.7724  0.4750
  857MOL0     C18186   7.068   9.627  10.256  0.8686  0.5538  0.0789
  857MOL0     O18187   7.097   9.652  10.128  0.3055 -0.0377  1.0496
  857MOL0     C18188   7.087   9.793  10.092 -0.9473  0.5468  0.0110
  857MOL0     C18189   6.954   9.832  10.048  0.2509  0.3333  0.4956
  857MOL0     C18190   6.877   9.747   9.961 -0.7698  0.8303 -0.1532
  857MOL0     C18191   6.762   9.828   9.897  0.5790  0.4764  0.4289
  857MOL0     C18192   6.702   9.748   9.789 -0.2104  0.0985  0.2420
  857MOL0     C18193   6.655   9.681   9.700 -0.9848  0.2869 -0.7955
  857MOL0     C18194   7.152   9.648  10.366  0.2067 -0.4289 -0.3630
  857MOL0     C18195   7.115   9.618  10.505 -0.5253  0.4027 -0.6476
  857MOL0     C18196   7.181   9.683  10.622 -0.0348 -0.6017  0.6946
  857MOL0     H18197   6.827   9.432  10.957  0.1361  0.9406 -3.0430
  857MOL0     H18198   6.854   9.296  11.129  0.0642 -1.5299 -1.4386
  857MOL0     H18199   7.296   9.131  11.234  0.0182  1.7814 -1.1647
  857MOL0     H18200   7.198   9.025  11.138 -1.1292 -3.0632  1.7280
  857MOL0     H18201   7.262   8.942  11.357  1.3230  1.7237 -1.3644
  857MOL0     H18202   7.127   9.042  11.427 -0.5020  0.9449 -0.7061
  857MOL0     H18203   7.015   8.912  11.213 -0.8091  0.0334  1.0569
  857MOL0     H18204   7.118   8.794  11.285 -0.4801  0.3842 -2.2752
  857MOL0     H18205   7.018   8.803  11.508 -2.3392  1.6528  2.9296
  857MOL0     H18206   6.905   8.930  11.464 -2.4493 -1.2747  2.0329
  857MOL0     H18207   6.914   8.641  11.378 -0.7992 -0.4156 -1.4823
  857MOL0     H18208   6.853   8.751  11.260 -0.3036  4.0637 -0.3912
  857MOL0     H18209   6.688   8.649  11.413 -1.1246  0.8002  0.1420
  857MOL0     H18210   6.757   8.732  11.545 -0.3978  0.1533  0.0378
  857MOL0     H18211   6.680   8.952  11.437  1.6730 -1.7521  3.9263
  857MOL0     H18212   6.551   8.860  11.484  1.7474 -1.0298  0.9489
  857MOL0     H18213   6.670   8.861  11.199 -0.7905  1.7793 -2.5532
  857MOL0     H18214   6.530   8.775  11.240  4.5928 -2.0796  0.1841
  857MOL0     H18215   6.505   9.014  11.019 -1.0635  0.3616  0.1347
  857MOL0     H18216   6.246   9.311  11.060  0.5168  1.9955 -1.2221
  857MOL0     H18217   6.309   9.185  10.947  2.2574  0.7922 -0.3521
  857MOL0     H18218   6.469   9.411  11.100  1.1257  0.1673 -0.3513
  857MOL0     H18219   6.550   9.296  11.009 -0.3161 -0.5910 -0.8791
  857MOL0     H18220   6.418   9.376  10.803 -0.7764 -0.4871  0.4400
  857MOL0     H18221   6.318   9.472  10.900 -1.4829 -2.4168 -3.8181
  857MOL0     H18222   6.612   9.538  10.861  0.6517  1.5531 -0.1513
  857MOL0     H18223   6.469   9.627  10.804 -1.4131 -0.6056 -0.1723
  857MOL0     H18224   6.706   9.722  10.854  1.9421  1.2184 -0.5752
  857MOL0     H18225   6.938   9.974  10.886  1.3230 -0.2210  0.3631
  857MOL0     H18226   6.885   9.830  10.804  0.8674  4.5208 -2.2595
  857MOL0     H18227   7.006   9.822  10.940  1.9857  3.0785 -0.8496
  857MOL0     H18228   6.859  10.370  11.282  0.0182  0.3816 -0.7088
  857MOL0     H18229   7.020  10.471  11.453  2.2000  0.4588  3.7272
  857MOL0     H18230   7.250  10.179  11.732 -0.0231  0.5748  1.7262
  857MOL0     H18231   7.345  10.262  11.607  0.7144  4.4701 -1.3646
  857MOL0     H18232   7.416  10.337  11.830  0.8897  1.3041 -0.0865
  857MOL0     H18233   7.345  10.468  11.743 -3.1843  0.5453 -0.1180
  857MOL0     H18234   7.185  10.282  11.938 -0.0064 -0.0548  1.8648
  857MOL0     H18235   7.118  10.431  11.876  0.5278 -1.7733 -1.1321
  857MOL0     H18236   7.279  10.554  12.009 -1.0085 -0.6860  0.3173
  857MOL0     H18237   7.359  10.401  12.057  0.5254  3.4619  2.2479
  857MOL0     H18238   7.167  10.330  12.184 -1.1769 -0.0337  2.2709
  857MOL0     H18239   7.233  10.493  12.233  2.4558 -0.7011 -2.0557
  857MOL0     H18240   7.054  10.566  12.053  1.1883 -3.5954 -1.6336
  857MOL0     H18241   7.017  10.567  12.233 -0.7387 -0.2438  0.3401
  857MOL0     H18242   6.962  10.330  12.058  3.0858  0.4730  1.2006
  857MOL0     H18243   6.833  10.454  12.089 -0.6005 -1.9346  0.8590
  857MOL0     H18244   6.951  10.268  12.299 -1.5996 -1.7258  0.1529
  857MOL0     H18245   6.790  10.268  12.223 -1.2915  2.1506 -0.1945
  857MOL0     H18246   7.101  10.084  11.611  1.5472  1.0032 -0.3333
  857MOL0     H18247   6.940   9.976  11.457 -1.2767 -0.2182 -2.1534
  857MOL0     H18248   6.642   9.951  11.283 -1.0346 -0.6769  0.5239
  857MOL0     H18249   6.486   9.766  11.212 -2.9849 -1.8383 -4.6037
  857MOL0     H18250   7.281   9.237  11.048 -0.6221  1.1856  2.0982
  857MOL0     H18251   7.245   9.373  10.834  0.7238  0.5135  0.1961
  857MOL0     H18252   6.837   9.428  10.414  0.1189 -0.0730  1.2007
  857MOL0     H18253   6.897   9.520  10.196 -1.2429 -1.8617  2.1934
  857MOL0     H18254   7.115   9.857  10.177  2.5655 -1.7496  0.8207
  857MOL0     H18255   7.151   9.812  10.006 -0.9399 -3.4731 -1.0664
  857MOL0     H18256   6.970   9.928   9.999  1.8377 -1.7680 -3.5806
  857MOL0     H18257   6.885   9.845  10.133 -2.0679  2.2386 -1.5414
  857MOL0     H18258   6.946   9.706   9.887 -0.5994 -0.2685  0.5791
  857MOL0     H18259   6.836   9.660  10.014 -0.1895 -0.2247 -1.3675
  857MOL0     H18260   6.799   9.918   9.847  2.1396  0.1695  0.9867
  857MOL0     H18261   6.684   9.851   9.970 -2.8816  0.4388 -2.9508
  857MOL0     H18262   6.606   9.630   9.619 -1.0365 -2.6189  0.9150
  857MOL0     H18263   7.242   9.706  10.346  1.5521 -1.5924  1.8900
  857MOL0     H18264   7.250   9.756  10.579 -2.0591  1.7554  1.1770
  857MOL0     H18265   7.096   9.727  10.676 -2.7014 -3.0402 -1.1795
  857MOL0     H18266   7.238   9.617  10.688  3.4217  0.5156 -0.9626
  858MOL0     O18267   5.726  10.978   5.861 -0.0711  0.1733  0.2101
  858MOL0     C18268   5.621  11.001   5.797 -0.3667  0.1698 -0.0415
  858MOL0     O18269   5.534  11.112   5.813  0.0167 -0.0662 -0.4996
  858MOL0     C18270   5.548  11.218   5.896  0.9016  0.0225  0.0025
  858MOL0     C18271   5.441  11.302   5.896 -0.0175  0.2246  0.6022
  858MOL0     C18272   5.452  11.429   5.971  0.5715 -0.3237 -0.2150
  858MOL0     C18273   5.580  11.455   6.032  0.1974 -1.3025 -0.6163
  858MOL0     O18274   5.615  11.576   6.085  0.3510 -0.1570 -0.3017
  858MOL0     C18275   5.548  11.687   6.037 -0.0318  0.0476  0.1157
  858MOL0     C18276   5.597  11.817   6.115  0.5802  0.1815 -0.5917
  858MOL0     C18277   5.587  11.805   6.271 -0.3154  0.6949  0.3616
  858MOL0     C18278   5.444  11.824   6.320 -0.3771  0.0465 -0.3075
  858MOL0     C18279   5.438  11.758   6.459  0.2473 -0.8497 -0.8248
  858MOL0     C18280   5.302  11.775   6.521  0.7178  0.3320 -0.0109
  858MOL0     C18281   5.307  11.732   6.669  0.5792  0.2351  0.3409
  858MOL0     C18282   5.186  11.742   6.754  0.1180  0.6327  0.0350
  858MOL0     N18283   5.210  11.683   6.886 -0.1603 -0.2846 -0.0045
  858MOL0     C18284   5.321  11.701   6.972  0.6201 -0.1762 -0.1389
  858MOL0     C18285   5.284  11.646   7.093  0.2362 -0.1631 -0.4014
  858MOL0     C18286   5.354  11.651   7.226  0.0313 -0.0250 -0.1056
  858MOL0     C18287   5.502  11.724   7.222  0.6711  0.4711 -0.6279
  858MOL0     C18288   5.596  11.643   7.135 -1.9394  0.3519 -0.2415
  858MOL0     C18289   5.733  11.613   7.207  0.7556  0.9430  0.8892
  858MOL0     O18290   5.713  11.527   7.319  0.3743 -0.4492 -0.1297
  858MOL0     C18291   5.792  11.553   7.424 -0.6873 -0.1434  0.1562
  858MOL0     C18292   5.930  11.603   7.409 -0.1172  0.6595  0.2366
  858MOL0     C18293   6.012  11.625   7.519 -0.5131 -0.5014 -0.1604
  858MOL0     C18294   6.163  11.650   7.487  0.6036 -0.2450  0.1834
  858MOL0     C18295   5.970  11.595   7.652 -0.2127  0.2609 -0.7333
  858MOL0     C18296   6.061  11.604   7.766 -0.3776  0.9649  0.0920
  858MOL0     O18297   6.187  11.552   7.756  0.3196  0.3780 -0.7655
  858MOL0     C18298   6.263  11.542   7.865 -0.2118 -0.3422 -0.2699
  858MOL0     C18299   6.350  11.646   7.910  0.3842  0.2667 -0.8598
  858MOL0     C18300   6.440  11.629   8.013  0.7505 -0.4773  1.9050
  858MOL0     C18301   6.453  11.502   8.083 -0.3119 -0.7249 -0.3690
  858MOL0     O18302   6.539  11.476   8.183 -0.2155  0.0580  0.5002
  858MOL0     C18303   6.662  11.554   8.172 -1.4330  0.8676 -0.5306
  858MOL0     C18304   6.767  11.478   8.251 -0.2891  0.2692 -0.9987
  858MOL0     C18305   6.731  11.467   8.403 -0.5016 -1.0542 -0.5282
  858MOL0     C18306   6.845  11.444   8.500  0.3315 -0.0641  0.1437
  858MOL0     C18307   6.867  11.303   8.558 -0.1126 -0.0657 -0.5245
  858MOL0     C18308   6.962  11.322   8.678 -0.0458  0.7213  0.4321
  858MOL0     C18309   7.020  11.188   8.718  0.3193 -0.4646 -0.3501
  858MOL0     C18310   7.092  11.220   8.855 -0.2995  0.0180 -0.1048
  858MOL0    Cl18311   7.252  11.302   8.819  0.7484 -0.3202  0.2001
  858MOL0     C18312   6.362  11.405   8.041  0.5650  0.9110 -0.2172
  858MOL0     C18313   6.272  11.422   7.940  0.4425  1.4642 -0.1470
  858MOL0     O18314   6.016  11.668   7.859 -0.5956 -0.1668  0.2878
  858MOL0     C18315   5.836  11.556   7.664  0.5744  0.1998 -0.5015
  858MOL0     C18316   5.753  11.534   7.556  0.7713 -0.1293  0.1725
  858MOL0     N18317   5.167  11.576   7.066  0.2493  0.5027 -0.0210
  858MOL0     N18318   5.112  11.613   6.949 -0.5973  0.3481  0.0704
  858MOL0     C18319   5.674  11.360   6.031 -0.6349 -0.3822  0.3725
  858MOL0     C18320   5.662  11.244   5.967  0.1010  0.4098 -0.1738
  858MOL0     C18321   5.561  10.900   5.710  0.1131  0.0230  0.0346
  858MOL0     C18322   5.423  10.904   5.684 -0.0495  0.7768 -0.8813
  858MOL0     C18323   5.352  10.799   5.621 -1.0357  0.3343  0.3127
  858MOL0     C18324   5.415  10.688   5.569  0.3126  0.3559 -0.5343
  858MOL0     O18325   5.345  10.587   5.497  0.0033 -0.3819  0.1962
  858MOL0     C18326   5.213  10.616   5.455  0.1161  0.0851  0.0555
  858MOL0     C18327   5.168  10.505   5.353 -0.0495  0.0156 -1.1293
  858MOL0     C18328   5.019  10.518   5.326  0.0224 -1.2983  0.2995
  858MOL0     C18329   4.985  10.637   5.239 -0.2013  0.0291 -0.8079
  858MOL0     C18330   4.848  10.614   5.198 -1.4950  0.2018 -0.1906
  858MOL0     C18331   4.737  10.589   5.159 -0.6829 -0.3385  0.0884
  858MOL0     C18332   5.557  10.689   5.582 -0.0125 -0.6808  0.0391
  858MOL0     C18333   5.636  10.785   5.661 -0.0489 -0.2888  0.7460
  858MOL0     C18334   5.783  10.765   5.673 -0.0963  0.1664  0.1830
  858MOL0     H18335   5.350  11.284   5.840  0.7308  1.5591 -1.1069
  858MOL0     H18336   5.373  11.502   5.958  4.7471  4.4407 -2.3764
  858MOL0     H18337   5.442  11.686   6.063  0.3412  0.5479  1.8112
  858MOL0     H18338   5.554  11.693   5.928 -2.7689  0.0355 -0.0925
  858MOL0     H18339   5.704  11.825   6.095  0.9904 -0.2213  1.2437
  858MOL0     H18340   5.540  11.902   6.077 -0.4545  0.1619  0.8582
  858MOL0     H18341   5.626  11.708   6.303 -0.4673  0.8875  1.1479
  858MOL0     H18342   5.643  11.885   6.320 -2.0606  3.6509 -2.1202
  858MOL0     H18343   5.409  11.927   6.323 -1.4534 -0.2449 -1.7992
  858MOL0     H18344   5.367  11.762   6.272 -2.1456  1.2002  0.9229
  858MOL0     H18345   5.506  11.811   6.526  0.1357  1.3784 -2.3661
  858MOL0     H18346   5.478  11.656   6.450  0.1461 -0.8794 -0.9416
  858MOL0     H18347   5.258  11.876   6.522 -2.9544 -1.0872 -0.8036
  858MOL0     H18348   5.228  11.719   6.463 -1.4470  2.0498  0.9161
  858MOL0     H18349   5.387  11.791   6.716  0.1700  1.8872 -0.9430
  858MOL0     H18350   5.325  11.624   6.668  0.1645  0.1532 -1.1659
  858MOL0     H18351   5.152  11.846   6.761  1.9922  1.2611  0.5828
  858MOL0     H18352   5.104  11.685   6.709 -1.4057  1.2623  1.8821
  858MOL0     H18353   5.405  11.765   6.947 -0.3161  0.5637 -1.5402
  858MOL0     H18354   5.369  11.555   7.277 -1.8400 -0.0755  0.4104
  858MOL0     H18355   5.289  11.710   7.291 -0.5495  2.0362 -2.4082
  858MOL0     H18356   5.491  11.831   7.200 -0.1695  0.8568  1.4620
  858MOL0     H18357   5.539  11.723   7.325  3.2161  0.2671 -1.4754
  858MOL0     H18358   5.553  11.547   7.105 -1.1730  0.0060 -0.2508
  858MOL0     H18359   5.611  11.689   7.037 -2.9467 -0.0843 -0.6119
  858MOL0     H18360   5.799  11.557   7.140  1.7356  1.9011  1.0211
  858MOL0     H18361   5.776  11.710   7.234  0.5129  2.4186 -3.3558
  858MOL0     H18362   5.975  11.620   7.311  1.0507  0.6046  0.7478
  858MOL0     H18363   6.226  11.560   7.487  0.7086 -0.1740  0.4337
  858MOL0     H18364   6.204  11.723   7.557 -0.5419 -0.9724  1.6671
  858MOL0     H18365   6.177  11.707   7.394  3.7398 -0.6145  0.3149
  858MOL0     H18366   6.335  11.744   7.867  1.0271  0.4413 -0.6896
  858MOL0     H18367   6.500  11.715   8.043 -0.5914  0.0156  3.3189
  858MOL0     H18368   6.704  11.550   8.071  1.0107 -2.0688  0.4660
  858MOL0     H18369   6.655  11.657   8.210 -0.5808  0.1624  1.7199
  858MOL0     H18370   6.771  11.374   8.217 -1.5902 -1.2792  2.9300
  858MOL0     H18371   6.858  11.539   8.244 -1.4649  2.1491 -0.5769
  858MOL0     H18372   6.654  11.393   8.428  1.2123 -1.1823  6.3856
  858MOL0     H18373   6.692  11.564   8.432 -1.7657 -1.6783 -0.0533
  858MOL0     H18374   6.826  11.506   8.588 -0.1118  1.8916 -1.2602
  858MOL0     H18375   6.940  11.463   8.449  0.4763  0.0375  0.4494
  858MOL0     H18376   6.774  11.251   8.583 -1.4031  2.4798  0.3746
  858MOL0     H18377   6.913  11.233   8.489  0.6437 -0.4110  0.3149
  858MOL0     H18378   6.920  11.374   8.765 -1.8125  0.1210 -0.0246
  858MOL0     H18379   7.040  11.388   8.637 -0.0940  0.8271  0.5105
  858MOL0     H18380   7.084  11.151   8.638  1.3797  2.3857 -0.9460
  858MOL0     H18381   6.941  11.115   8.740  1.4253 -0.8701  2.9512
  858MOL0     H18382   7.114  11.126   8.906  2.1472  2.0197  2.9020
  858MOL0     H18383   7.028  11.279   8.921  0.4341 -0.2962  0.9230
  858MOL0     H18384   6.358  11.309   8.092  3.3822 -0.5661 -2.4649
  858MOL0     H18385   6.201  11.342   7.927  2.1533 -0.6489  2.3551
  858MOL0     H18386   5.789  11.523   7.756 -3.0333 -1.7582 -2.7798
  858MOL0     H18387   5.655  11.490   7.571 -0.5419  2.9846  1.5603
  858MOL0     H18388   5.766  11.375   6.086  0.7486 -2.8541 -1.0899
  858MOL0     H18389   5.748  11.177   5.973  0.3140  0.6632 -0.3938
  858MOL0     H18390   5.363  10.977   5.737  0.9433  0.5020  0.6935
  858MOL0     H18391   5.244  10.794   5.622 -1.0264  0.1369  0.5988
  858MOL0     H18392   5.147  10.619   5.542 -1.7119  1.8235 -1.2835
  858MOL0     H18393   5.220  10.712   5.403  3.6740 -0.5848 -0.9808
  858MOL0     H18394   5.187  10.406   5.396  3.3750  0.6758 -0.7987
  858MOL0     H18395   5.239  10.507   5.270  0.8344  0.0932 -0.3902
  858MOL0     H18396   4.993  10.431   5.265  0.0594 -0.1672 -1.4196
  858MOL0     H18397   4.955  10.522   5.415  1.6631  1.1432  1.4911
  858MOL0     H18398   5.054  10.639   5.154 -0.6488 -1.6103 -1.2498
  858MOL0     H18399   5.000  10.723   5.305 -0.4310  0.1059 -0.8518
  858MOL0     H18400   4.641  10.565   5.117 -1.2106  3.3894 -1.2545
  858MOL0     H18401   5.613  10.615   5.527  2.4522  1.3856 -0.4087
  858MOL0     H18402   5.827  10.864   5.661 -1.0364  0.5039 -0.6620
  858MOL0     H18403   5.821  10.724   5.767 -0.2752  1.2014  0.7197
  858MOL0     H18404   5.822  10.709   5.587  1.8980  3.7604 -1.4886
  859MOL0     O18405   1.603   8.244  10.805 -0.6006  0.0543  0.1099
  859MOL0     C18406   1.525   8.152  10.788 -0.4439  0.3467  0.5693
  859MOL0     O18407   1.525   8.076  10.669 -0.2353 -0.3473  0.3383
  859MOL0     C18408   1.625   8.110  10.577  0.6797 -0.1676 -0.2894
  859MOL0     C18409   1.586   8.195  10.477 -0.8627  0.0139  0.1568
  859MOL0     C18410   1.667   8.212  10.365  0.1357  0.4269 -0.0445
  859MOL0     C18411   1.790   8.144  10.348  0.2155  0.1368 -0.2042
  859MOL0     O18412   1.854   8.159  10.226  0.1090 -0.7729 -0.6490
  859MOL0     C18413   1.906   8.037  10.178 -0.8893  0.1314  0.1778
  859MOL0     C18414   1.925   8.042  10.030 -0.4422 -0.8142 -0.2596
  859MOL0     C18415   2.052   8.138   9.997  0.2179 -0.1526  0.6967
  859MOL0     C18416   2.052   8.197   9.850  0.2679  0.0164  0.5871
  859MOL0     C18417   2.094   8.089   9.745  0.8204 -0.3777 -0.4680
  859MOL0     C18418   2.113   8.158   9.609  0.1956 -0.2953  0.0763
  859MOL0     C18419   1.975   8.161   9.525  0.9326  0.9305 -0.2702
  859MOL0     C18420   1.983   8.250   9.400 -0.0802  0.8219  0.4392
  859MOL0     N18421   2.086   8.213   9.300  0.6091  0.2400  0.1946
  859MOL0     C18422   2.064   8.210   9.165  0.3355 -0.4197  0.1319
  859MOL0     C18423   2.184   8.219   9.112 -0.4071 -0.8018 -0.3794
  859MOL0     C18424   2.215   8.233   8.968 -0.6702 -1.0196  0.5684
  859MOL0     C18425   2.248   8.378   8.940  0.3675 -0.0634  0.5652
  859MOL0     C18426   2.390   8.419   8.975  0.0655 -0.6801  0.9343
  859MOL0     C18427   2.419   8.570   8.939 -0.0676  0.5229 -0.3131
  859MOL0     O18428   2.555   8.585   8.891  0.1897  0.2242  0.0365
  859MOL0     C18429   2.620   8.711   8.865  0.2006  0.4664  0.0145
  859MOL0     C18430   2.558   8.834   8.886 -1.0820 -0.1407 -0.2179
  859MOL0     C18431   2.636   8.951   8.864 -0.3106  0.1258 -0.2967
  859MOL0     C18432   2.568   9.074   8.922  0.5414 -0.5315 -0.2433
  859MOL0     C18433   2.766   8.938   8.824  0.3006 -0.3897 -0.0306
  859MOL0     C18434   2.868   9.046   8.821  0.1999 -0.0320  0.0851
  859MOL0     O18435   2.995   9.023   8.880  0.5768  0.7737  0.0870
  859MOL0     C18436   3.096   9.112   8.885 -0.0120 -1.1729  0.4846
  859MOL0     C18437   3.087   9.244   8.849  0.2708  0.3687 -0.1644
  859MOL0     C18438   3.193   9.327   8.863  0.2140  0.0662  0.8827
  859MOL0     C18439   3.319   9.281   8.911 -0.1659 -0.3723  0.6373
  859MOL0     O18440   3.436   9.343   8.930  0.1610  0.1072 -1.1780
  859MOL0     C18441   3.457   9.465   8.861  0.4225 -1.0254 -0.5641
  859MOL0     C18442   3.393   9.585   8.920  0.2406  0.0772 -0.1259
  859MOL0     C18443   3.422   9.594   9.072  0.3345  0.2825 -0.6913
  859MOL0     C18444   3.382   9.733   9.137 -0.3637 -0.4416  0.7767
  859MOL0     C18445   3.472   9.773   9.253  1.0716  0.0579  0.1980
  859MOL0     C18446   3.436   9.907   9.316  0.3307 -0.8476 -0.5763
  859MOL0     C18447   3.520  10.031   9.257 -0.3698 -0.3110  0.3222
  859MOL0     C18448   3.558  10.136   9.359  0.3636  0.5410  0.5655
  859MOL0    Cl18449   3.414  10.208   9.428  0.8141 -0.3620  0.0728
  859MOL0     C18450   3.314   9.154   8.965  0.2185 -0.1155 -0.1548
  859MOL0     C18451   3.208   9.064   8.949  0.7124 -0.1521  1.1539
  859MOL0     O18452   2.835   9.146   8.751 -0.4389 -0.3662  0.2720
  859MOL0     C18453   2.824   8.818   8.786 -0.7359  0.5150 -0.2553
  859MOL0     C18454   2.751   8.703   8.813  0.4485 -0.7223  0.2892
  859MOL0     N18455   2.276   8.229   9.221  0.1010 -0.6999  0.1440
  859MOL0     N18456   2.214   8.227   9.334  0.3256  0.6225 -0.0831
  859MOL0     C18457   1.828   8.063  10.460 -0.2145 -0.0415  0.6329
  859MOL0     C18458   1.748   8.045  10.567 -0.8116  1.3964  1.1761
  859MOL0     C18459   1.422   8.118  10.893  0.1345  0.2962  0.9344
  859MOL0     C18460   1.420   8.198  11.009 -0.6870  0.3187 -0.4910
  859MOL0     C18461   1.346   8.168  11.117  0.7396 -0.1475 -0.4120
  859MOL0     C18462   1.273   8.052  11.130 -0.3317  0.7539 -0.6961
  859MOL0     O18463   1.210   8.023  11.245  0.6767 -0.1377 -0.1502
  859MOL0     C18464   1.165   7.894  11.276 -0.1449  0.5051 -1.0326
  859MOL0     C18465   1.072   7.900  11.397 -0.9817  0.3252  0.5071
  859MOL0     C18466   1.152   7.938  11.524 -0.7851 -0.0778  0.4594
  859MOL0     C18467   1.056   7.998  11.637  0.1055  0.0557 -0.1554
  859MOL0     C18468   0.996   8.124  11.606  0.2855  0.3842  0.8458
  859MOL0     C18469   0.940   8.225  11.576 -0.0208  0.3802 -1.0711
  859MOL0     C18470   1.278   7.964  11.020  0.3681 -0.0419  0.7673
  859MOL0     C18471   1.350   7.995  10.901 -0.0920  0.6081 -0.5683
  859MOL0     C18472   1.336   7.895  10.786  0.1135  0.2119 -0.4513
  859MOL0     H18473   1.490   8.248  10.479 -3.5245 -4.1844 -2.0280
  859MOL0     H18474   1.632   8.259  10.274  0.0455 -3.3108 -2.1546
  859MOL0     H18475   1.839   7.951  10.186  0.3560 -1.0762 -1.5646
  859MOL0     H18476   2.001   8.023  10.231  0.1810  2.6871 -0.9311
  859MOL0     H18477   1.937   7.938   9.997  3.1309 -1.2832  1.9469
  859MOL0     H18478   1.835   8.084   9.986 -0.7595 -3.2125 -2.1023
  859MOL0     H18479   2.039   8.229  10.057 -0.8537  0.7552 -0.8390
  859MOL0     H18480   2.146   8.089  10.021 -0.1493 -1.9215 -1.2047
  859MOL0     H18481   1.954   8.237   9.823  0.1438  1.2246  2.6048
  859MOL0     H18482   2.135   8.267   9.838  0.8156 -0.1500  2.9150
  859MOL0     H18483   2.020   8.009   9.741  3.0211 -2.4917 -2.0410
  859MOL0     H18484   2.192   8.043   9.765  0.7195  0.7606  3.4140
  859MOL0     H18485   2.133   8.264   9.623 -2.5373  0.7749 -2.9605
  859MOL0     H18486   2.198   8.112   9.558  1.7829 -1.5053  3.4823
  859MOL0     H18487   1.900   8.199   9.596 -1.0710 -2.7662 -0.1258
  859MOL0     H18488   1.931   8.067   9.491 -2.0524  1.3319  1.9990
  859MOL0     H18489   1.890   8.269   9.345 -0.5136  1.6188  1.4220
  859MOL0     H18490   2.010   8.345   9.447  2.4938 -0.5834  2.0501
  859MOL0     H18491   1.973   8.205   9.106  0.0309 -1.0255  0.6383
  859MOL0     H18492   2.123   8.206   8.916  0.0340  1.4748 -2.2486
  859MOL0     H18493   2.291   8.159   8.940 -1.7326 -2.1953  0.7105
  859MOL0     H18494   2.233   8.389   8.832  2.2427 -3.1008 -0.1004
  859MOL0     H18495   2.181   8.448   8.992 -0.7498 -0.0831 -0.7887
  859MOL0     H18496   2.411   8.414   9.083 -0.1126  1.3553  1.0983
  859MOL0     H18497   2.461   8.356   8.921 -1.0706  0.5595 -2.1770
  859MOL0     H18498   2.346   8.592   8.861 -0.8208  1.1917  0.5602
  859MOL0     H18499   2.404   8.629   9.029  0.7932 -2.1919  1.7425
  859MOL0     H18500   2.462   8.848   8.935 -0.5447  1.2914  0.4724
  859MOL0     H18501   2.506   9.112   8.841  1.7641  0.1353 -0.9040
  859MOL0     H18502   2.650   9.141   8.949  1.4698 -2.6482  2.7345
  859MOL0     H18503   2.508   9.060   9.012  1.4777  2.4373  0.9732
  859MOL0     H18504   3.013   9.287   8.782  1.9093  2.5437 -0.7192
  859MOL0     H18505   3.193   9.428   8.824  2.2571  0.5464  1.9404
  859MOL0     H18506   3.565   9.487   8.861  0.5365 -1.2840  1.8413
  859MOL0     H18507   3.421   9.460   8.758 -3.5305  2.2386  0.3789
  859MOL0     H18508   3.428   9.674   8.869 -0.9224  1.8880  2.0256
  859MOL0     H18509   3.284   9.578   8.913  0.2363  0.7975 -0.8845
  859MOL0     H18510   3.531   9.582   9.077  0.2491 -1.1578 -1.5231
  859MOL0     H18511   3.381   9.508   9.126  4.4535 -1.0154  0.7632
  859MOL0     H18512   3.276   9.747   9.159 -1.0359  7.1045 -3.8139
  859MOL0     H18513   3.387   9.820   9.071 -3.2466  1.0425  2.3257
  859MOL0     H18514   3.468   9.693   9.328 -4.0767  0.6214  0.8436
  859MOL0     H18515   3.569   9.772   9.201 -0.6004  0.1853 -3.1817
  859MOL0     H18516   3.439   9.902   9.425  1.6778  0.4541 -0.5215
  859MOL0     H18517   3.331   9.930   9.292  0.6690  0.8730 -0.5417
  859MOL0     H18518   3.468  10.085   9.178  0.5971  1.0380  0.5850
  859MOL0     H18519   3.600   9.974   9.210 -1.4580 -1.7218  0.1068
  859MOL0     H18520   3.609  10.224   9.317 -1.4113  1.8034  0.9307
  859MOL0     H18521   3.604  10.097   9.451 -2.0800  0.9537  2.0521
  859MOL0     H18522   3.398   9.122   9.026  1.2796 -0.9434 -1.9693
  859MOL0     H18523   3.215   8.964   8.990  0.8432  0.1930  2.0017
  859MOL0     H18524   2.925   8.815   8.746 -0.8539 -1.4939 -0.4882
  859MOL0     H18525   2.792   8.605   8.791  0.2236 -0.5725 -0.8311
  859MOL0     H18526   1.927   8.020  10.446  0.9808  1.6066  3.2847
  859MOL0     H18527   1.784   7.976  10.643  1.8306 -0.3351 -1.4132
  859MOL0     H18528   1.477   8.289  11.023 -0.5340  0.0054  1.0627
  859MOL0     H18529   1.332   8.241  11.197 -0.8546 -0.1504 -0.6670
  859MOL0     H18530   1.115   7.847  11.190 -0.0561 -0.2866 -0.6591
  859MOL0     H18531   1.245   7.822  11.292  0.7083  1.3307 -1.4601
  859MOL0     H18532   1.015   7.807  11.407 -1.4381 -0.0566 -3.7283
  859MOL0     H18533   0.997   7.977  11.380 -0.4550  0.6827 -0.2259
  859MOL0     H18534   1.208   7.852  11.564  0.6180  0.2347 -0.7481
  859MOL0     H18535   1.223   8.017  11.502 -0.9794  0.6691  2.3450
  859MOL0     H18536   1.105   8.007  11.734 -0.1906  1.2111 -0.0965
  859MOL0     H18537   0.968   7.935  11.652  1.1994 -1.0135  2.3234
  859MOL0     H18538   0.886   8.313  11.548 -2.5106 -0.0052  1.8370
  859MOL0     H18539   1.211   7.879  11.011 -2.0689  1.5954  2.2651
  859MOL0     H18540   1.295   7.799  10.821  1.3578 -0.1009  0.2078
  859MOL0     H18541   1.276   7.939  10.707 -0.7979  2.9903  1.6332
  859MOL0     H18542   1.435   7.869  10.748 -0.8675 -1.6303 -1.9410
  860MOL0     O18543   7.830   9.971   7.031 -0.4573 -0.4135  0.7189
  860MOL0     C18544   7.893   9.880   6.979 -0.1584  0.0964  0.4100
  860MOL0     O18545   8.023   9.884   6.936 -0.0575 -0.7768  0.1785
  860MOL0     C18546   8.108   9.992   6.944 -0.0721  0.0739  0.1770
  860MOL0     C18547   8.059  10.119   6.921 -0.3761  0.0104  0.0085
  860MOL0     C18548   8.149  10.228   6.923  0.1218  0.4579  0.1563
  860MOL0     C18549   8.284  10.202   6.957  0.1196  0.1715  0.0358
  860MOL0     O18550   8.365  10.314   6.978  0.3624  0.6629 -0.5119
  860MOL0     C18551   8.487  10.299   7.060 -0.3815  0.4115 -0.1693
  860MOL0     C18552   8.569  10.422   7.072 -0.3443 -1.0270  0.2935
  860MOL0     C18553   8.626  10.483   6.943  0.8679  0.5890  0.2307
  860MOL0     C18554   8.713  10.616   6.948 -0.3848  0.1440 -0.1126
  860MOL0     C18555   8.767  10.644   6.812  0.7628 -0.8613 -0.4594
  860MOL0     C18556   8.899  10.578   6.781 -0.3442  0.1017 -0.3071
  860MOL0     C18557   9.031  10.612   6.864  0.1381  0.3218  0.0148
  860MOL0     C18558   9.148  10.525   6.809  1.1387  0.8315  0.2764
  860MOL0     N18559   9.274  10.562   6.870 -0.4586  0.3113 -0.6724
  860MOL0     C18560   9.342  10.683   6.853  0.0912 -0.4257 -0.3318
  860MOL0     C18561   9.450  10.676   6.927 -0.6254  0.4080  0.2062
  860MOL0     C18562   9.547  10.789   6.945  0.4671  0.3573  0.3207
  860MOL0     C18563   9.627  10.814   6.809  1.2563 -0.8685  0.5529
  860MOL0     C18564   9.724  10.705   6.785 -0.3645  0.1909 -0.8967
  860MOL0     C18565   9.803  10.712   6.656  0.2229 -0.5257 -0.1310
  860MOL0     O18566   9.907  10.609   6.667 -0.4093 -0.2363 -0.8201
  860MOL0     C18567   9.990  10.581   6.560  0.4732  0.5469 -0.0570
  860MOL0     C18568   9.971  10.613   6.422 -0.1094  0.5629  0.6652
  860MOL0     C18569  10.053  10.554   6.323 -0.2595 -0.4208 -0.1897
  860MOL0     C18570  10.003  10.575   6.180  0.3035  0.1705 -0.0127
  860MOL0     C18571  10.182  10.493   6.360 -0.2229  0.6896 -0.8353
  860MOL0     C18572  10.287  10.439   6.275  0.8462  0.6457 -0.4944
  860MOL0     O18573  10.398  10.395   6.328  0.1552  0.0405 -0.6299
  860MOL0     C18574  10.481  10.325   6.241 -0.6150 -0.0873 -0.9393
  860MOL0     C18575  10.554  10.390   6.145  0.8760  0.8098  0.4857
  860MOL0     C18576  10.629  10.310   6.060  0.2721 -0.3662 -0.1257
  860MOL0     C18577  10.628  10.174   6.070 -0.8141 -0.4616  0.2538
  860MOL0     O18578  10.688  10.084   5.978  0.0695  0.0646  0.1797
  860MOL0     C18579  10.801  10.131   5.892  0.1453 -0.1650 -0.7536
  860MOL0     C18580  10.821  10.033   5.777  0.5994 -0.5891 -0.3676
  860MOL0     C18581  10.702  10.054   5.684 -0.1419 -0.3081  0.0409
  860MOL0     C18582  10.687   9.969   5.555  0.0752 -0.6967 -0.5919
  860MOL0     C18583  10.612  10.052   5.443  0.5348 -0.7982  0.4345
  860MOL0     C18584  10.563   9.974   5.325 -0.5668  0.1521 -0.1232
  860MOL0     C18585  10.674   9.934   5.230  1.0671 -0.1686 -0.2697
  860MOL0     C18586  10.616   9.854   5.112  0.1325 -1.1037 -0.4284
  860MOL0    Cl18587  10.750   9.780   5.024  0.2275 -0.0121 -0.1270
  860MOL0     C18588  10.581  10.113   6.185 -0.1912  0.1041  0.4170
  860MOL0     C18589  10.493  10.189   6.259 -0.1519  0.4247  0.0753
  860MOL0     O18590  10.255  10.444   6.154 -0.0569 -0.3946  0.5903
  860MOL0     C18591  10.194  10.466   6.500 -0.6418 -0.3833  0.1327
  860MOL0     C18592  10.106  10.512   6.594  0.3397  0.3136 -0.3296
  860MOL0     N18593   9.457  10.550   6.989 -0.0167  0.5716 -0.8024
  860MOL0     N18594   9.355  10.483   6.946 -0.6854  0.3979 -0.1588
  860MOL0     C18595   8.331  10.072   6.970  0.1890 -0.0573  0.4118
  860MOL0     C18596   8.244   9.965   6.966  0.3563  0.9538 -0.1601
  860MOL0     C18597   7.818   9.754   6.935  0.2168  0.1933 -0.1180
  860MOL0     C18598   7.876   9.664   6.843  0.1814  0.4946 -0.5009
  860MOL0     C18599   7.826   9.536   6.829  0.5186  0.3041 -0.3959
  860MOL0     C18600   7.704   9.497   6.888  0.7220  0.3984 -0.2329
  860MOL0     O18601   7.650   9.378   6.859 -0.4572  0.4444  0.5915
  860MOL0     C18602   7.741   9.271   6.877  0.7321 -0.7042 -0.3625
  860MOL0     C18603   7.655   9.146   6.876 -0.7712  0.0641  0.6038
  860MOL0     C18604   7.730   9.012   6.855 -0.5583 -0.2607  0.6085
  860MOL0     C18605   7.650   8.885   6.886  0.3632  0.1935  0.9217
  860MOL0     C18606   7.543   8.862   6.780 -0.2768 -0.1069 -0.1738
  860MOL0     C18607   7.453   8.843   6.700  0.0099  0.0767 -0.8918
  860MOL0     C18608   7.639   9.588   6.963 -0.6206  0.5151  0.4264
  860MOL0     C18609   7.690   9.719   6.991 -0.0234  0.1462  0.3534
  860MOL0     C18610   7.616   9.804   7.084  0.6162 -0.5693 -0.0369
  860MOL0     H18611   7.953  10.146   6.918 -0.2721  0.4125 -0.2232
  860MOL0     H18612   8.114  10.331   6.922  1.5159  0.9652 -0.5982
  860MOL0     H18613   8.544  10.223   7.006 -2.2769  1.2652 -3.6734
  860MOL0     H18614   8.463  10.276   7.164 -1.0726  3.3818  0.3997
  860MOL0     H18615   8.499  10.492   7.120 -1.3717 -0.3443 -2.0171
  860MOL0     H18616   8.655  10.402   7.137  0.6346 -0.0407 -0.6549
  860MOL0     H18617   8.681  10.403   6.892 -2.0471 -0.8289 -0.9279
  860MOL0     H18618   8.538  10.509   6.884 -0.5814  0.1739  2.1061
  860MOL0     H18619   8.649  10.702   6.972 -0.1548  1.2362 -2.9988
  860MOL0     H18620   8.797  10.611   7.017 -0.8069  1.5462  0.5525
  860MOL0     H18621   8.786  10.751   6.806  0.8645 -0.6429  2.2839
  860MOL0     H18622   8.698  10.630   6.729 -0.1919 -1.1827  0.3648
  860MOL0     H18623   8.876  10.472   6.784  0.6818 -0.1093  0.9820
  860MOL0     H18624   8.916  10.606   6.677  2.4268  2.7309  0.7006
  860MOL0     H18625   9.015  10.585   6.969  1.7908 -0.0222  0.2014
  860MOL0     H18626   9.052  10.719   6.868 -2.4231  0.8651  0.4853
  860MOL0     H18627   9.136  10.418   6.830 -1.2858  1.5851  3.7437
  860MOL0     H18628   9.152  10.531   6.700 -0.9603  0.4340  0.1351
  860MOL0     H18629   9.310  10.773   6.801 -2.5222 -1.2308 -0.2619
  860MOL0     H18630   9.610  10.761   7.030  0.0550  1.4280  0.9871
  860MOL0     H18631   9.503  10.886   6.965 -0.0680  0.6395 -1.9835
  860MOL0     H18632   9.564  10.824   6.720  0.2233 -0.8290  1.2709
  860MOL0     H18633   9.683  10.908   6.816  2.3859 -1.1632 -2.7195
  860MOL0     H18634   9.795  10.723   6.866  1.5894 -0.6643 -2.3343
  860MOL0     H18635   9.680  10.605   6.786  1.4491 -0.6397 -0.4639
  860MOL0     H18636   9.737  10.705   6.569  1.4779  0.0286 -1.1556
  860MOL0     H18637   9.853  10.809   6.662 -1.6631  0.4055  3.3572
  860MOL0     H18638   9.872  10.653   6.401 -1.0274 -2.3604 -1.1692
  860MOL0     H18639  10.065  10.633   6.112  2.1753 -1.9370 -0.2239
  860MOL0     H18640   9.904  10.619   6.164 -0.3806 -1.5972 -0.9712
  860MOL0     H18641   9.985  10.477   6.133  0.7737 -0.6817  1.5160
  860MOL0     H18642  10.547  10.498   6.148 -2.9872  0.7968 -1.7564
  860MOL0     H18643  10.679  10.358   5.975 -2.6089 -0.6333 -2.1144
  860MOL0     H18644  10.786  10.233   5.855 -2.6777 -0.6552 -1.1857
  860MOL0     H18645  10.890  10.119   5.954  0.9363  0.5764 -1.7122
  860MOL0     H18646  10.914  10.062   5.728  0.7127 -0.0526  0.1570
  860MOL0     H18647  10.838   9.932   5.814  1.4722 -0.6430 -0.8891
  860MOL0     H18648  10.705  10.154   5.641  0.2977 -1.3086 -2.4309
  860MOL0     H18649  10.610  10.047   5.742 -0.2439 -4.0656 -0.3276
  860MOL0     H18650  10.627   9.879   5.572 -0.4214 -0.1728  0.5862
  860MOL0     H18651  10.780   9.930   5.514 -0.2781 -2.1069 -0.1243
  860MOL0     H18652  10.530  10.110   5.487  0.7257  0.7154 -1.1458
  860MOL0     H18653  10.667  10.135   5.400 -1.3348 -0.5565 -1.6754
  860MOL0     H18654  10.492  10.032   5.266 -0.3885  1.7381  1.1409
  860MOL0     H18655  10.510   9.884   5.359 -3.0738  0.5937 -2.5191
  860MOL0     H18656  10.754   9.881   5.283  4.6957  3.8686 -1.1411
  860MOL0     H18657  10.719  10.028   5.196  2.3916 -0.5866  0.2431
  860MOL0     H18658  10.565   9.909   5.033  0.2949  1.7498  1.3402
  860MOL0     H18659  10.550   9.774   5.146 -1.6241 -0.0645 -1.2716
  860MOL0     H18660  10.593  10.007   6.207 -0.2389 -0.8221 -3.4357
  860MOL0     H18661  10.449  10.145   6.348  0.5545  1.3340  0.8978
  860MOL0     H18662  10.276  10.411   6.544 -0.2967  1.2439  1.6791
  860MOL0     H18663  10.116  10.491   6.700  1.9603 -1.9557 -0.8429
  860MOL0     H18664   8.434  10.052   7.000 -0.2038 -0.3829  1.5924
  860MOL0     H18665   8.269   9.859   6.972  1.9447  1.3147  0.0097
  860MOL0     H18666   7.972   9.685   6.798  1.7404 -3.1357  0.8026
  860MOL0     H18667   7.892   9.485   6.759 -0.7644 -0.0143 -1.4051
  860MOL0     H18668   7.812   9.268   6.793  0.1093  1.0879 -0.9993
  860MOL0     H18669   7.796   9.285   6.970  2.0561 -1.3998 -1.0180
  860MOL0     H18670   7.574   9.159   6.804  0.1209  2.3922 -0.0754
  860MOL0     H18671   7.618   9.138   6.979  0.3950  1.5384  1.1846
  860MOL0     H18672   7.744   9.012   6.746  0.3034  1.0378  0.7047
  860MOL0     H18673   7.825   9.016   6.909 -0.9458  2.7728  1.2868
  860MOL0     H18674   7.599   8.883   6.983 -2.0576 -3.5284 -0.2058
  860MOL0     H18675   7.716   8.797   6.881  3.1294  2.0658  2.1501
  860MOL0     H18676   7.384   8.825   6.621  1.0231  3.2873 -2.6701
  860MOL0     H18677   7.551   9.547   7.011 -0.4975 -0.3159 -0.0493
  860MOL0     H18678   7.611   9.902   7.037  0.9629 -0.9412 -0.8576
  860MOL0     H18679   7.515   9.762   7.092  0.6874 -1.3777 -2.5642
  860MOL0     H18680   7.670   9.798   7.179 -0.5080 -2.0101  0.5607
  861MOL0     O18681   3.955   3.638   4.656  0.6025  0.5456  0.4621
  861MOL0     C18682   4.002   3.532   4.628 -0.3758 -0.1050  0.4512
  861MOL0     O18683   4.104   3.518   4.545  0.7163  0.3787 -1.1614
  861MOL0     C18684   4.158   3.622   4.484  0.0516 -1.0397 -0.5968
  861MOL0     C18685   4.170   3.609   4.347  0.4795  0.0260  0.9050
  861MOL0     C18686   4.238   3.711   4.269  0.1534  0.4415 -0.1649
  861MOL0     C18687   4.290   3.824   4.334  0.5277 -0.4572  0.2264
  861MOL0     O18688   4.365   3.921   4.269 -0.3889 -0.4454 -0.3434
  861MOL0     C18689   4.354   3.928   4.123  0.0385  0.1620  0.1289
  861MOL0     C18690   4.424   4.055   4.066 -0.3953  0.3259 -0.6768
  861MOL0     C18691   4.388   4.087   3.926 -0.7149  0.0845  0.0204
  861MOL0     C18692   4.456   4.216   3.865 -0.0544 -0.4746  0.1428
  861MOL0     C18693   4.453   4.227   3.710 -0.0776  0.3989 -0.7951
  861MOL0     C18694   4.541   4.340   3.644  0.4284  0.3238 -0.9133
  861MOL0     C18695   4.469   4.479   3.695  0.2955  0.3496  0.5147
  861MOL0     C18696   4.566   4.597   3.653  0.2445  0.5309 -0.0055
  861MOL0     N18697   4.565   4.640   3.510  0.3515  0.2772  0.8083
  861MOL0     C18698   4.451   4.671   3.438  0.5107 -0.2340  0.1911
  861MOL0     C18699   4.499   4.730   3.326  0.4135 -0.2642 -0.1524
  861MOL0     C18700   4.416   4.811   3.225  0.8226 -0.1526 -0.4034
  861MOL0     C18701   4.296   4.726   3.180 -0.5901  0.2601  0.1672
  861MOL0     C18702   4.225   4.765   3.053  0.3694  0.4135 -0.7724
  861MOL0     C18703   4.195   4.916   3.045 -0.3358  1.1094  0.3455
  861MOL0     O18704   4.309   4.965   2.965  0.0218 -0.3976  0.0627
  861MOL0     C18705   4.317   5.098   2.950 -0.0799 -0.6523  0.4022
  861MOL0     C18706   4.209   5.188   2.968 -0.1220  0.4972  0.8188
  861MOL0     C18707   4.227   5.326   2.970 -0.6614 -0.0775  0.3217
  861MOL0     C18708   4.116   5.417   3.017 -0.2704 -0.1115 -0.4611
  861MOL0     C18709   4.357   5.376   2.925  0.2784 -0.9299  0.6383
  861MOL0     C18710   4.384   5.516   2.905 -0.6302 -0.4427  1.2054
  861MOL0     O18711   4.476   5.548   2.809 -0.4329 -0.2561 -0.3125
  861MOL0     C18712   4.510   5.681   2.789  0.1020  1.2206  0.7125
  861MOL0     C18713   4.595   5.747   2.881  0.5277  0.5929 -0.2197
  861MOL0     C18714   4.634   5.878   2.854  0.1818  0.6137 -0.7174
  861MOL0     C18715   4.593   5.946   2.738  0.3321  0.2383  0.2751
  861MOL0     O18716   4.635   6.061   2.706 -0.1454  0.2699 -0.1198
  861MOL0     C18717   4.691   6.148   2.801 -0.0125  0.3081  0.5978
  861MOL0     C18718   4.717   6.264   2.708 -0.4689 -0.1137 -0.9081
  861MOL0     C18719   4.777   6.382   2.785  0.6368  0.1234  0.0724
  861MOL0     C18720   4.913   6.362   2.845 -0.3890 -0.1210 -0.1638
  861MOL0     C18721   4.980   6.471   2.930 -1.0427  0.2999  0.8304
  861MOL0     C18722   4.957   6.609   2.875  0.7128 -0.4204  0.0125
  861MOL0     C18723   5.021   6.714   2.972  0.4291  0.3349  0.1212
  861MOL0     C18724   5.011   6.854   2.936 -0.1206  0.0883 -0.3624
  861MOL0    Cl18725   4.850   6.912   2.941  0.3440  0.1853 -0.2512
  861MOL0     C18726   4.520   5.873   2.646 -0.3279  0.8788  0.5318
  861MOL0     C18727   4.470   5.743   2.675  0.5500 -0.4122 -0.4003
  861MOL0     O18728   4.341   5.596   2.988  0.9933 -0.7056  0.1117
  861MOL0     C18729   4.467   5.284   2.901  0.6314  0.5530 -0.4320
  861MOL0     C18730   4.443   5.151   2.913 -0.0533 -0.0309 -0.2174
  861MOL0     N18731   4.641   4.736   3.332 -0.2609 -1.2767  0.8485
  861MOL0     N18732   4.678   4.683   3.443  0.3478 -0.4698  1.2238
  861MOL0     C18733   4.277   3.832   4.469 -0.3088  0.6153  0.9079
  861MOL0     C18734   4.208   3.731   4.550 -0.1401 -1.2701 -0.3960
  861MOL0     C18735   3.957   3.410   4.684  0.2938 -0.1862  0.1184
  861MOL0     C18736   3.981   3.294   4.607 -0.5602 -0.3323 -0.3115
  861MOL0     C18737   3.922   3.174   4.642 -0.4200  0.5914 -0.4752
  861MOL0     C18738   3.832   3.157   4.750  0.1350  0.2719 -0.0495
  861MOL0     O18739   3.754   3.045   4.774  0.7623  0.0999 -0.0104
  861MOL0     C18740   3.765   2.933   4.684 -0.8961 -1.0316 -0.1153
  861MOL0     C18741   3.671   2.832   4.726  0.1148  0.5223 -0.2779
  861MOL0     C18742   3.716   2.699   4.657 -0.5255 -0.8787 -0.4322
  861MOL0     C18743   3.629   2.587   4.704  0.7968  0.2292 -0.2261
  861MOL0     C18744   3.671   2.480   4.616 -0.0806  0.0563 -0.1135
  861MOL0     C18745   3.720   2.395   4.546  0.1728  1.8612  0.5071
  861MOL0     C18746   3.814   3.271   4.819 -0.4295 -0.6188 -0.2189
  861MOL0     C18747   3.882   3.394   4.804  0.3659 -0.0852 -0.6428
  861MOL0     C18748   3.886   3.500   4.920  0.0447 -0.3061 -0.0610
  861MOL0     H18749   4.129   3.517   4.306  2.3148 -0.2544 -0.4473
  861MOL0     H18750   4.245   3.710   4.161 -0.4523  3.5984 -0.3207
  861MOL0     H18751   4.252   3.927   4.085 -0.2532 -0.5801  0.8983
  861MOL0     H18752   4.415   3.849   4.078  0.6938  1.1709 -0.7888
  861MOL0     H18753   4.397   4.135   4.136  4.2913  1.0002  0.6927
  861MOL0     H18754   4.533   4.044   4.066 -0.4981 -1.2491  1.1083
  861MOL0     H18755   4.397   3.997   3.864 -3.8591 -0.3680  0.0637
  861MOL0     H18756   4.281   4.108   3.931 -0.7944 -0.2834 -0.1094
  861MOL0     H18757   4.416   4.302   3.919  3.0538  0.1094  1.8021
  861MOL0     H18758   4.561   4.218   3.897  0.2741  2.7141 -0.8100
  861MOL0     H18759   4.351   4.258   3.688 -0.0393  0.0768 -1.4560
  861MOL0     H18760   4.483   4.138   3.654  0.0406  0.1123 -0.2821
  861MOL0     H18761   4.647   4.330   3.665  0.6628  0.8126 -1.7919
  861MOL0     H18762   4.524   4.334   3.536 -1.5916  2.9675 -0.8671
  861MOL0     H18763   4.451   4.488   3.802 -1.1349  0.5714  0.2772
  861MOL0     H18764   4.369   4.499   3.654  0.0909  0.4462  1.0602
  861MOL0     H18765   4.521   4.686   3.698 -5.0448 -0.7624 -1.9373
  861MOL0     H18766   4.666   4.576   3.691  0.2570  0.4694 -0.0712
  861MOL0     H18767   4.346   4.655   3.460  0.0249  1.1689 -0.9552
  861MOL0     H18768   4.476   4.836   3.137 -0.8150  1.7677 -1.0486
  861MOL0     H18769   4.386   4.903   3.276 -0.9297 -1.2378  0.6023
  861MOL0     H18770   4.331   4.623   3.165  2.4664  0.8980  1.9739
  861MOL0     H18771   4.227   4.707   3.263 -0.0576  2.7615  1.2610
  861MOL0     H18772   4.283   4.732   2.965  0.0285  0.8131 -1.1489
  861MOL0     H18773   4.128   4.714   3.059  0.3990  0.5678  3.3137
  861MOL0     H18774   4.095   4.936   3.004 -0.1650  3.1500  0.8158
  861MOL0     H18775   4.197   4.953   3.148 -2.9914 -0.7573  1.1850
  861MOL0     H18776   4.112   5.155   3.006 -0.0221 -0.0167  0.6439
  861MOL0     H18777   4.029   5.351   3.029  1.1250 -1.6816  1.9390
  861MOL0     H18778   4.100   5.502   2.951 -2.8362  0.3106  0.5659
  861MOL0     H18779   4.133   5.467   3.113 -3.0467 -1.1639  0.6871
  861MOL0     H18780   4.645   5.695   2.962 -1.5207 -2.7417 -0.9342
  861MOL0     H18781   4.685   5.918   2.941  0.3019  0.9516 -0.9414
  861MOL0     H18782   4.622   6.167   2.883  1.7128  1.0921  1.9250
  861MOL0     H18783   4.776   6.104   2.853 -0.7564  1.0266  2.5138
  861MOL0     H18784   4.779   6.225   2.626 -1.6389  0.9352 -2.3591
  861MOL0     H18785   4.627   6.287   2.651 -1.7172 -3.2968 -0.4132
  861MOL0     H18786   4.714   6.417   2.868  2.8306  0.8945  1.5251
  861MOL0     H18787   4.791   6.460   2.709 -0.1971 -2.5902 -3.0853
  861MOL0     H18788   4.972   6.362   2.753  1.0865 -0.7990  0.7531
  861MOL0     H18789   4.922   6.268   2.900  1.8524 -2.1672 -3.6258
  861MOL0     H18790   4.943   6.465   3.032  0.7073  1.2850  1.5623
  861MOL0     H18791   5.082   6.433   2.937 -1.3605 -0.2409  3.5755
  861MOL0     H18792   4.849   6.624   2.873  0.3940 -2.4466 -2.2309
  861MOL0     H18793   4.996   6.620   2.773 -0.0104 -1.5643 -0.3950
  861MOL0     H18794   5.129   6.696   2.973  0.1898 -1.3593  1.7442
  861MOL0     H18795   4.986   6.689   3.073  0.1978 -2.3832 -0.5780
  861MOL0     H18796   5.044   6.870   2.833 -0.0817  1.9025 -0.1015
  861MOL0     H18797   5.080   6.907   3.002 -0.3147  2.3593 -1.8715
  861MOL0     H18798   4.505   5.924   2.552  2.4303  1.8772  0.5324
  861MOL0     H18799   4.402   5.695   2.605  2.2806 -1.4571 -1.4397
  861MOL0     H18800   4.567   5.320   2.882  0.0770  1.2585 -2.1965
  861MOL0     H18801   4.519   5.078   2.889 -1.1533 -0.4628 -2.7984
  861MOL0     H18802   4.309   3.927   4.513  0.9474  0.0057  1.3675
  861MOL0     H18803   4.191   3.728   4.657 -0.4211 -0.8542 -0.4263
  861MOL0     H18804   4.049   3.291   4.522 -0.1078  2.0363 -0.0942
  861MOL0     H18805   3.948   3.084   4.587 -0.0395 -0.4199  1.2763
  861MOL0     H18806   3.741   2.964   4.581 -0.7124  1.1088  0.4454
  861MOL0     H18807   3.865   2.892   4.695 -0.8342 -0.3733  2.4496
  861MOL0     H18808   3.566   2.860   4.716 -0.1865  0.7713  2.6686
  861MOL0     H18809   3.670   2.826   4.836 -0.6981  0.8154 -0.2634
  861MOL0     H18810   3.713   2.703   4.548 -2.2888 -0.5270 -0.3935
  861MOL0     H18811   3.816   2.675   4.696 -1.2276 -1.3002  1.2156
  861MOL0     H18812   3.524   2.598   4.676  0.9458 -0.2395 -0.9896
  861MOL0     H18813   3.633   2.571   4.812 -3.1813  1.4544  0.2724
  861MOL0     H18814   3.768   2.324   4.481  2.9860  3.5055  0.5991
  861MOL0     H18815   3.748   3.291   4.903  1.3664  1.3382  0.8225
  861MOL0     H18816   3.793   3.557   4.912 -1.7748 -3.1137 -0.5933
  861MOL0     H18817   3.885   3.442   5.013  0.8311  2.2467  1.6466
  861MOL0     H18818   3.983   3.550   4.916 -0.2983  0.3222 -0.7182
  862MOL0     O18819   7.318  10.114   3.405 -1.1427  0.4523 -0.0442
  862MOL0     C18820   7.223  10.066   3.469  0.8535  0.0482  0.4223
  862MOL0     O18821   7.230  10.007   3.596  0.2547 -0.5067  0.6764
  862MOL0     C18822   7.342  10.019   3.676 -0.8128  0.7928 -0.0293
  862MOL0     C18823   7.418  10.137   3.684  0.8883  0.0775  0.1850
  862MOL0     C18824   7.540  10.151   3.750  0.8270 -0.8540 -0.5206
  862MOL0     C18825   7.589  10.041   3.817  0.5876 -0.1411  0.3152
  862MOL0     O18826   7.705  10.056   3.892  0.4859 -0.5076 -0.1722
  862MOL0     C18827   7.727   9.951   3.988  0.3231 -0.3260 -0.6396
  862MOL0     C18828   7.851   9.991   4.086  0.3668 -0.7052  0.1003
  862MOL0     C18829   7.982  10.010   4.016 -0.6714  0.5563 -0.1488
  862MOL0     C18830   8.096  10.048   4.108 -0.2794 -0.3172  0.0885
  862MOL0     C18831   8.066  10.170   4.196  0.9564  0.6997  0.1322
  862MOL0     C18832   8.206  10.210   4.230  1.1037  0.2694 -0.1131
  862MOL0     C18833   8.213  10.314   4.346  0.1476  0.7735  0.6398
  862MOL0     C18834   8.351  10.364   4.360  0.0379  0.5331  0.3480
  862MOL0     N18835   8.358  10.486   4.442 -0.2459  1.1511  0.5989
  862MOL0     C18836   8.297  10.492   4.564  0.3262 -0.9324 -1.3647
  862MOL0     C18837   8.334  10.618   4.613 -0.3555  0.6277 -1.1027
  862MOL0     C18838   8.301  10.689   4.738  0.0527 -0.0080 -0.0267
  862MOL0     C18839   8.415  10.715   4.838  0.0124  0.2107 -0.5131
  862MOL0     C18840   8.523  10.813   4.784 -0.0927 -0.5503 -0.2126
  862MOL0     C18841   8.455  10.946   4.736 -0.2987 -0.2110  0.2780
  862MOL0     O18842   8.550  11.056   4.725  0.2122 -0.8919  0.5302
  862MOL0     C18843   8.640  11.056   4.624 -0.4068  0.0149  0.0729
  862MOL0     C18844   8.636  10.960   4.520  0.6373  0.4134  0.4246
  862MOL0     C18845   8.732  10.962   4.416  0.7140 -0.7932 -0.2098
  862MOL0     C18846   8.726  10.848   4.317  0.1629 -0.1228  0.6033
  862MOL0     C18847   8.838  11.066   4.416  0.1466  0.4539 -0.6418
  862MOL0     C18848   8.940  11.079   4.313 -0.3293 -0.2254  0.9769
  862MOL0     O18849   8.954  11.218   4.276  0.3583  0.8997 -0.4280
  862MOL0     C18850   9.018  11.269   4.157 -0.4431  0.1580 -0.6900
  862MOL0     C18851   9.012  11.408   4.129  0.2424 -0.5567  0.2885
  862MOL0     C18852   9.067  11.463   4.009  0.6311  0.3172  0.3045
  862MOL0     C18853   9.129  11.381   3.924 -0.6207 -0.1072 -0.4771
  862MOL0     O18854   9.186  11.449   3.816  0.8409 -0.3163 -0.8393
  862MOL0     C18855   9.300  11.383   3.762 -0.2096 -0.5609 -0.3615
  862MOL0     C18856   9.399  11.481   3.705 -0.1188 -0.0605 -0.0579
  862MOL0     C18857   9.381  11.538   3.560 -0.7136  0.3296 -0.1454
  862MOL0     C18858   9.509  11.547   3.486  0.4653 -0.0247 -0.2569
  862MOL0     C18859   9.495  11.663   3.388 -0.2036  0.0889 -0.5977
  862MOL0     C18860   9.617  11.668   3.293 -0.5731  0.2764  0.5011
  862MOL0     C18861   9.584  11.742   3.165  0.1404  0.5695 -0.4996
  862MOL0     C18862   9.703  11.731   3.063 -0.6899  0.6202 -0.3550
  862MOL0    Cl18863   9.737  11.559   3.002 -0.4312 -0.0684  0.2659
  862MOL0     C18864   9.136  11.242   3.945 -0.3967 -0.0438  0.3933
  862MOL0     C18865   9.080  11.192   4.063  0.2773 -0.0803 -0.4918
  862MOL0     O18866   9.011  10.991   4.275 -0.2995  0.3281  0.4218
  862MOL0     C18867   8.832  11.169   4.517  1.4226  0.0845 -0.4362
  862MOL0     C18868   8.740  11.153   4.628  0.5260 -0.2372  0.6696
  862MOL0     N18869   8.407  10.676   4.517  0.8900 -0.4129  0.0087
  862MOL0     N18870   8.420  10.594   4.412  0.9159  0.1913 -0.7019
  862MOL0     C18871   7.514   9.917   3.806  0.1170  0.1579 -0.7140
  862MOL0     C18872   7.400   9.907   3.736 -0.0378 -0.1826  0.2816
  862MOL0     C18873   7.082  10.073   3.412  0.0752  0.5951 -1.3300
  862MOL0     C18874   6.981  10.043   3.510 -0.9257 -0.4404 -0.1617
  862MOL0     C18875   6.849  10.039   3.470  0.4947 -0.4602 -0.0003
  862MOL0     C18876   6.813  10.067   3.335  0.9326 -0.4821 -0.9133
  862MOL0     O18877   6.675  10.067   3.302 -0.2983  0.3807  0.0146
  862MOL0     C18878   6.578  10.037   3.398  0.2295  0.7651  0.2706
  862MOL0     C18879   6.465   9.974   3.324  0.7846 -0.1279  0.2627
  862MOL0     C18880   6.398  10.070   3.229  0.4518  0.6476 -0.8763
  862MOL0     C18881   6.296   9.984   3.148  0.1269  0.6661  0.2051
  862MOL0     C18882   6.215  10.057   3.045  0.4742 -0.7543 -0.3679
  862MOL0     C18883   6.139  10.132   2.991  0.1787  0.5144  0.0607
  862MOL0     C18884   6.912  10.110   3.243 -0.4782 -0.3550 -1.1378
  862MOL0     C18885   7.043  10.110   3.285  0.1984 -0.0065  0.2389
  862MOL0     C18886   7.151  10.176   3.197 -0.4771  0.0135  0.3007
  862MOL0     H18887   7.377  10.221   3.628  2.6647  0.0917 -1.1749
  862MOL0     H18888   7.572  10.254   3.764 -1.3218 -0.1350 -0.4516
  862MOL0     H18889   7.755   9.855   3.943 -2.0710 -1.9970  1.1090
  862MOL0     H18890   7.632   9.931   4.039  0.2927  0.6523 -0.3004
  862MOL0     H18891   7.842  10.088   4.136  3.1085 -1.5140  2.4132
  862MOL0     H18892   7.853   9.912   4.162  1.3783  0.4158  1.2691
  862MOL0     H18893   8.021   9.914   3.980  0.2877  0.1565  1.8124
  862MOL0     H18894   7.969  10.088   3.941 -1.8861  3.3562  2.7559
  862MOL0     H18895   8.142   9.970   4.169  1.7170 -0.4427 -1.4707
  862MOL0     H18896   8.167  10.080   4.031  2.7736  0.5847  3.0699
  862MOL0     H18897   8.009  10.139   4.284  1.6704 -0.8885  0.0706
  862MOL0     H18898   8.017  10.248   4.137 -0.9807 -0.1180  0.5919
  862MOL0     H18899   8.277  10.133   4.263  2.9612  0.3401 -3.5361
  862MOL0     H18900   8.249  10.241   4.135  3.0148 -0.5237  0.4443
  862MOL0     H18901   8.194  10.277   4.447  0.4619  2.6953  1.4532
  862MOL0     H18902   8.136  10.389   4.329  0.0970  0.4181 -0.8195
  862MOL0     H18903   8.418  10.302   4.420  0.0787  1.7629  1.6214
  862MOL0     H18904   8.394  10.385   4.261 -2.0710  0.4973 -0.6322
  862MOL0     H18905   8.236  10.420   4.617  0.5172 -0.0392  0.1320
  862MOL0     H18906   8.226  10.630   4.792  0.1453  0.2333  0.3686
  862MOL0     H18907   8.234  10.774   4.721 -0.9687 -1.0628 -1.5776
  862MOL0     H18908   8.357  10.763   4.918 -1.8073  1.6257 -2.5531
  862MOL0     H18909   8.465  10.622   4.864  1.1804  1.5109  2.3761
  862MOL0     H18910   8.576  10.840   4.876 -0.2095 -0.1743 -0.2543
  862MOL0     H18911   8.588  10.779   4.704 -0.3869 -0.0086 -0.6912
  862MOL0     H18912   8.404  10.931   4.640 -0.4779 -1.5949  0.5594
  862MOL0     H18913   8.375  10.980   4.802 -1.6778  1.2945 -2.0080
  862MOL0     H18914   8.576  10.869   4.519  1.2796 -0.0208  0.3993
  862MOL0     H18915   8.825  10.811   4.290 -1.1167 -0.5995 -4.3022
  862MOL0     H18916   8.681  10.884   4.224 -0.4076  0.6326  1.1589
  862MOL0     H18917   8.665  10.763   4.350 -3.2330  2.8443  2.7960
  862MOL0     H18918   8.962  11.476   4.197  2.5928  0.0525  1.5130
  862MOL0     H18919   9.044  11.567   3.993  3.4478  1.3021  1.9074
  862MOL0     H18920   9.369  11.342   3.837  0.3564  0.0309 -0.5473
  862MOL0     H18921   9.277  11.304   3.690  2.3284  0.0773 -1.9868
  862MOL0     H18922   9.411  11.569   3.768  3.2058 -1.4605  1.4929
  862MOL0     H18923   9.495  11.429   3.702 -1.0611 -1.9690  1.3010
  862MOL0     H18924   9.335  11.636   3.573 -0.9093  0.2061  0.1233
  862MOL0     H18925   9.303  11.476   3.516 -1.6871  1.1372  0.4128
  862MOL0     H18926   9.529  11.454   3.433  2.0296  0.5629 -0.7417
  862MOL0     H18927   9.593  11.569   3.553  0.1498 -1.7132  0.7334
  862MOL0     H18928   9.409  11.650   3.323  1.5847  1.1572 -3.3945
  862MOL0     H18929   9.491  11.762   3.434  2.3079  0.8125 -1.7541
  862MOL0     H18930   9.639  11.564   3.267 -1.6476  0.2026 -0.1936
  862MOL0     H18931   9.709  11.710   3.335 -0.0668  2.3465 -2.3820
  862MOL0     H18932   9.572  11.850   3.182  0.2144  0.7184 -1.3199
  862MOL0     H18933   9.489  11.710   3.121  0.0005  0.3231 -0.0228
  862MOL0     H18934   9.792  11.773   3.109 -0.9299 -2.1175  3.0191
  862MOL0     H18935   9.674  11.786   2.973 -1.1716 -1.8871 -1.8241
  862MOL0     H18936   9.181  11.167   3.881  0.6588  0.3086  0.7094
  862MOL0     H18937   9.087  11.083   4.065 -0.5147 -0.1621 -1.3830
  862MOL0     H18938   8.913  11.241   4.517  1.2622  0.4552  2.9395
  862MOL0     H18939   8.750  11.222   4.711  0.6054  0.5939 -0.0156
  862MOL0     H18940   7.556   9.825   3.846  1.0475  0.4939 -0.8803
  862MOL0     H18941   7.346   9.813   3.728  1.3653 -1.1419  1.5721
  862MOL0     H18942   7.003   9.995   3.605  2.4910 -1.5547 -1.3597
  862MOL0     H18943   6.783  10.005   3.549 -0.7322  0.0210 -0.7812
  862MOL0     H18944   6.614   9.956   3.463  1.2154  0.5789 -0.4931
  862MOL0     H18945   6.555  10.131   3.450  3.5662  1.7968  0.1435
  862MOL0     H18946   6.391   9.925   3.388 -0.9845 -1.1698 -2.4137
  862MOL0     H18947   6.503   9.892   3.264  0.7342  0.2304 -0.2689
  862MOL0     H18948   6.345  10.149   3.282  0.4130  0.0178  0.0527
  862MOL0     H18949   6.472  10.113   3.162  0.0787  1.2515 -0.9036
  862MOL0     H18950   6.232   9.930   3.218 -0.1376 -0.4052 -0.8328
  862MOL0     H18951   6.356   9.910   3.094  3.2445 -1.1585  5.4642
  862MOL0     H18952   6.075  10.197   2.935  0.1052 -1.0189 -1.7320
  862MOL0     H18953   6.882  10.144   3.145  0.9046  0.5690 -1.2807
  862MOL0     H18954   7.098  10.236   3.122 -1.2206  0.7823  1.4119
  862MOL0     H18955   7.202  10.252   3.256 -0.5481  0.8989 -0.7462
  862MOL0     H18956   7.223  10.108   3.150 -3.6840 -3.3306 -0.3020
  863MOL0     O18957   2.208  10.632   9.113  0.1621  0.1249 -0.7686
  863MOL0     C18958   2.214  10.541   9.198 -0.1761  0.4346  0.1802
  863MOL0     O18959   2.153  10.538   9.321 -0.2456  0.1629  0.1709
  863MOL0     C18960   2.075  10.647   9.350  0.0584  0.6691  0.7593
  863MOL0     C18961   1.944  10.644   9.300  1.0179  0.7588  0.9799
  863MOL0     C18962   1.860  10.754   9.320 -0.4451  0.5550  0.6264
  863MOL0     C18963   1.914  10.871   9.369  0.6213  1.0622  0.5229
  863MOL0     O18964   1.844  10.997   9.375 -0.3259 -0.0072 -0.3863
  863MOL0     C18965   1.717  10.990   9.439 -0.1422 -0.0122  0.1529
  863MOL0     C18966   1.700  11.109   9.533  0.0248  0.3755 -0.2355
  863MOL0     C18967   1.583  11.198   9.499  0.4485  1.0970 -0.9978
  863MOL0     C18968   1.621  11.337   9.454 -0.0094  0.1436 -0.3624
  863MOL0     C18969   1.498  11.406   9.387  0.6281 -0.0522  1.0203
  863MOL0     C18970   1.410  11.463   9.493  0.1674 -0.2900 -0.0385
  863MOL0     C18971   1.287  11.539   9.451 -0.0665  0.5765  0.0214
  863MOL0     C18972   1.175  11.530   9.553  0.7006 -0.4117  0.7098
  863MOL0     N18973   1.217  11.591   9.684  0.7598 -0.4096 -0.4922
  863MOL0     C18974   1.243  11.724   9.710 -1.0134 -1.1016 -0.0100
  863MOL0     C18975   1.251  11.744   9.844 -0.0547 -0.1572  0.4894
  863MOL0     C18976   1.281  11.859   9.933  0.0542 -0.8257 -0.3685
  863MOL0     C18977   1.426  11.913   9.903  1.0725  0.3941 -0.6952
  863MOL0     C18978   1.439  12.060   9.933  0.4773 -0.0910  0.2133
  863MOL0     C18979   1.453  12.087  10.084 -0.3162  0.3174 -1.0846
  863MOL0     O18980   1.330  12.061  10.156 -0.6970  0.7545 -0.1999
  863MOL0     C18981   1.306  12.154  10.249  0.1745  1.0138 -0.0243
  863MOL0     C18982   1.250  12.097  10.366  0.6285 -0.3313 -1.0547
  863MOL0     C18983   1.218  12.185  10.477  0.2104  0.3572 -0.0394
  863MOL0     C18984   1.127  12.121  10.578 -0.0831  0.8176  0.0236
  863MOL0     C18985   1.254  12.322  10.474  0.2651 -1.0554  0.8315
  863MOL0     C18986   1.225  12.430  10.572 -0.4212  1.1793 -0.1700
  863MOL0     O18987   1.104  12.446  10.598 -0.3326  0.2756  0.4169
  863MOL0     C18988   1.061  12.516  10.695  0.0749  0.2152 -0.5048
  863MOL0     C18989   1.013  12.444  10.805  0.9656 -0.5673  0.0522
  863MOL0     C18990   0.956  12.506  10.917  0.2139 -0.0554 -0.1412
  863MOL0     C18991   0.956  12.649  10.915 -0.0809 -0.4658 -0.3389
  863MOL0     O18992   0.908  12.714  11.029  0.2714  0.7583 -0.7408
  863MOL0     C18993   1.010  12.739  11.124  0.9216  0.3049  0.0556
  863MOL0     C18994   0.958  12.727  11.271 -0.5795 -0.3104 -0.2111
  863MOL0     C18995   0.904  12.592  11.321 -0.2646 -0.9140 -0.5547
  863MOL0     C18996   1.010  12.482  11.311 -0.4664  0.4296 -0.1641
  863MOL0     C18997   0.971  12.341  11.372  0.8411 -0.6978 -0.1955
  863MOL0     C18998   0.848  12.276  11.304 -0.6746 -0.3300  0.0388
  863MOL0     C18999   0.817  12.143  11.368  0.1315 -0.5067 -0.0743
  863MOL0     C19000   0.784  12.138  11.522 -0.9078 -0.3504 -0.1517
  863MOL0    Cl19001   0.658  12.263  11.562  0.2696  0.5525 -0.0002
  863MOL0     C19002   1.024  12.714  10.810  0.8812  0.3768 -0.4232
  863MOL0     C19003   1.072  12.648  10.694  0.1461  0.7063  0.3150
  863MOL0     O19004   1.316  12.485  10.624 -0.0552 -1.5437 -0.4263
  863MOL0     C19005   1.293  12.376  10.346  0.3077  0.4171 -0.9895
  863MOL0     C19006   1.321  12.291  10.242 -0.2159  0.0697  0.4043
  863MOL0     N19007   1.233  11.616   9.900 -0.3017  0.0943  0.5203
  863MOL0     N19008   1.213  11.527   9.806  0.4205 -0.7130  0.3999
  863MOL0     C19009   2.044  10.877   9.426 -0.1432  0.1497  0.9942
  863MOL0     C19010   2.129  10.759   9.418  0.9108  0.9394  0.5006
  863MOL0     C19011   2.284  10.414   9.164 -1.6098 -0.2214 -0.4228
  863MOL0     C19012   2.272  10.309   9.252  0.3493  0.5679  0.3268
  863MOL0     C19013   2.353  10.199   9.227  0.9002  0.2826 -0.2665
  863MOL0     C19014   2.415  10.170   9.106 -0.1000  0.2474 -0.2948
  863MOL0     O19015   2.504  10.071   9.082  0.4933 -0.7242  0.5287
  863MOL0     C19016   2.541   9.976   9.184  0.2104 -0.9223  0.6705
  863MOL0     C19017   2.439   9.870   9.212  0.1051  0.8633 -0.0919
  863MOL0     C19018   2.504   9.741   9.264  0.6723 -0.4668 -0.4953
  863MOL0     C19019   2.396   9.654   9.325  0.6621  0.1214 -0.1612
  863MOL0     C19020   2.372   9.685   9.463 -0.5624  0.6960  1.1239
  863MOL0     C19021   2.345   9.712   9.574 -0.1150 -0.6754 -0.3292
  863MOL0     C19022   2.405  10.268   9.008 -0.2471  0.7667 -0.3261
  863MOL0     C19023   2.338  10.393   9.031 -0.3105  0.2352 -1.2471
  863MOL0     C19024   2.352  10.491   8.921 -0.1125  0.2161  0.9867
  863MOL0     H19025   1.892  10.557   9.262  1.1683  1.6990 -1.5585
  863MOL0     H19026   1.758  10.746   9.283  0.6009  0.2924 -2.5721
  863MOL0     H19027   1.696  10.900   9.496 -1.2665  0.9849  1.3854
  863MOL0     H19028   1.636  11.002   9.366  0.5190 -0.5002 -0.6772
  863MOL0     H19029   1.687  11.062   9.631  1.6231 -0.2656 -0.2989
  863MOL0     H19030   1.794  11.165   9.544 -0.1515  0.4827  0.8734
  863MOL0     H19031   1.509  11.158   9.429  0.4283 -0.5764 -0.0698
  863MOL0     H19032   1.532  11.199   9.596  1.2245 -2.4084 -0.4314
  863MOL0     H19033   1.668  11.400   9.531 -5.2560  1.8732  1.8305
  863MOL0     H19034   1.693  11.324   9.372  0.5195 -1.4931  0.3194
  863MOL0     H19035   1.445  11.337   9.321  4.6902 -0.9624 -1.6792
  863MOL0     H19036   1.522  11.485   9.316 -1.6476 -1.7001 -1.8267
  863MOL0     H19037   1.388  11.378   9.560  1.6942 -0.2889  0.5014
  863MOL0     H19038   1.476  11.523   9.556 -0.8011 -0.8449  1.5765
  863MOL0     H19039   1.261  11.497   9.353  0.4328  2.5557 -1.0213
  863MOL0     H19040   1.320  11.643   9.442 -1.0257  0.7927 -1.3542
  863MOL0     H19041   1.096  11.597   9.518  3.2394  0.9155 -3.1410
  863MOL0     H19042   1.139  11.428   9.570  0.0917 -0.3182  0.0016
  863MOL0     H19043   1.251  11.799   9.632 -1.3422  0.9544  1.8443
  863MOL0     H19044   1.268  11.830  10.038 -0.1226 -0.3140 -0.2431
  863MOL0     H19045   1.215  11.942   9.907  1.6192 -0.2695 -2.8502
  863MOL0     H19046   1.503  11.848   9.945  0.6931 -0.3385 -1.1179
  863MOL0     H19047   1.441  11.902   9.795  0.6580 -0.5417 -0.6640
  863MOL0     H19048   1.531  12.091   9.883  0.0789 -0.0710 -0.5185
  863MOL0     H19049   1.365  12.122   9.882 -1.7160 -1.1126  1.9830
  863MOL0     H19050   1.531  12.026  10.131 -0.6737  1.2568  0.7934
  863MOL0     H19051   1.500  12.186  10.089  1.9192 -0.6835 -0.9247
  863MOL0     H19052   1.237  11.990  10.370 -0.1915 -0.3112 -2.4404
  863MOL0     H19053   1.099  12.018  10.557  0.3236  1.2469 -3.2169
  863MOL0     H19054   1.029  12.169  10.583 -1.7391 -2.3358  0.5715
  863MOL0     H19055   1.167  12.128  10.680  0.2238  1.8487 -0.1567
  863MOL0     H19056   1.028  12.337  10.808  0.7912 -0.5681  1.6181
  863MOL0     H19057   0.928  12.449  11.005  1.0535 -0.4011 -0.0892
  863MOL0     H19058   1.096  12.674  11.106  3.0763  2.7583  0.8850
  863MOL0     H19059   1.048  12.841  11.108 -0.1471  0.7333  0.1263
  863MOL0     H19060   1.046  12.738  11.335 -0.9987 -0.0315  0.3277
  863MOL0     H19061   0.884  12.805  11.290 -1.2300 -0.9013 -0.2717
  863MOL0     H19062   0.821  12.578  11.250 -0.1594  1.1265 -1.1453
  863MOL0     H19063   0.877  12.611  11.425 -0.4757  0.5066 -0.8396
  863MOL0     H19064   1.100  12.506  11.369 -0.9407 -0.9374  1.2110
  863MOL0     H19065   1.033  12.463  11.206 -0.1641 -2.1673  0.3136
  863MOL0     H19066   1.059  12.279  11.356 -0.1541 -2.1061 -0.3241
  863MOL0     H19067   0.967  12.359  11.480 -1.3231 -1.6335 -0.0710
  863MOL0     H19068   0.864  12.270  11.196 -0.1468 -1.8715  0.1769
  863MOL0     H19069   0.768  12.348  11.323  0.7688  1.3269  0.0298
  863MOL0     H19070   0.896  12.070  11.351 -0.6551 -0.9564 -2.1335
  863MOL0     H19071   0.734  12.090  11.320 -0.9443 -0.3523  1.5437
  863MOL0     H19072   0.877  12.159  11.576  0.8482 -1.9114 -2.4170
  863MOL0     H19073   0.745  12.039  11.546  0.5300 -1.1911 -1.1064
  863MOL0     H19074   1.032  12.821  10.825 -0.3660  0.7259 -1.8795
  863MOL0     H19075   1.143  12.690  10.623 -0.3014 -0.7451 -1.0357
  863MOL0     H19076   1.312  12.482  10.336 -1.0074  0.9349  1.2153
  863MOL0     H19077   1.355  12.350  10.158  0.6133  1.7544  1.8473
  863MOL0     H19078   2.080  10.967   9.475  0.8896  0.2027  0.1618
  863MOL0     H19079   2.232  10.750   9.453  1.1465  0.9351 -0.1676
  863MOL0     H19080   2.203  10.312   9.336 -2.2035 -0.6749 -1.6079
  863MOL0     H19081   2.354  10.127   9.309  0.9990  2.2378  1.5547
  863MOL0     H19082   2.639   9.941   9.152  0.6759  2.3715 -2.0637
  863MOL0     H19083   2.551  10.031   9.278  0.8527 -4.1366  2.6251
  863MOL0     H19084   2.383   9.849   9.120 -1.1537  1.1801  0.5789
  863MOL0     H19085   2.370   9.908   9.288 -1.6261 -3.2617  0.6945
  863MOL0     H19086   2.545   9.683   9.181 -1.6227  0.4776 -2.3971
  863MOL0     H19087   2.583   9.755   9.339 -0.6216 -1.8452  1.2264
  863MOL0     H19088   2.431   9.551   9.323 -1.6903 -0.7304 -1.5294
  863MOL0     H19089   2.306   9.658   9.263  0.1103  2.6562  0.6560
  863MOL0     H19090   2.327   9.735   9.677 -0.1431  2.4727 -0.9600
  863MOL0     H19091   2.470  10.243   8.925  2.3433  0.8288  1.5604
  863MOL0     H19092   2.412  10.580   8.940  1.3839 -0.7626  0.9917
  863MOL0     H19093   2.403  10.454   8.831 -0.2086  0.0705  0.9900
  863MOL0     H19094   2.250  10.517   8.891 -0.6897 -0.3078  2.4043
  864MOL0     O19095  10.947  10.801   2.369  0.3796 -0.4467  0.1799
  864MOL0     C19096  10.926  10.702   2.302  0.7276  0.6092 -0.5239
  864MOL0     O19097  10.919  10.699   2.166  0.1675 -0.0823 -0.3083
  864MOL0     C19098  10.933  10.821   2.096 -0.6017 -0.6281 -0.3083
  864MOL0     C19099  10.818  10.901   2.067 -0.7631  0.1637  0.7332
  864MOL0     C19100  10.823  11.031   2.019  0.4009  0.3476 -0.4003
  864MOL0     C19101  10.944  11.078   1.981 -0.3936  0.5353 -0.1211
  864MOL0     O19102  10.941  11.200   1.918  0.3011 -0.7661 -0.7771
  864MOL0     C19103  11.056  11.282   1.958 -0.4649 -0.6708  0.4503
  864MOL0     C19104  11.034  11.421   1.902 -0.2877 -0.6715 -0.3261
  864MOL0     C19105  10.885  11.463   1.902  0.2568 -0.9700  0.1969
  864MOL0     C19106  10.879  11.617   1.891  1.2221 -0.0469  0.8786
  864MOL0     C19107  10.734  11.670   1.855 -0.3584  0.6743 -0.6317
  864MOL0     C19108  10.612  11.616   1.936 -0.1360  1.0310 -0.4569
  864MOL0     C19109  10.473  11.642   1.858 -0.4085 -0.8306  0.1724
  864MOL0     C19110  10.430  11.795   1.837  0.1753  0.8118  0.2811
  864MOL0     N19111  10.367  11.855   1.952 -0.0873  0.2137 -0.5868
  864MOL0     C19112  10.438  11.900   2.053 -0.9255  0.4615  0.9092
  864MOL0     C19113  10.345  11.977   2.125  0.3303 -0.3592 -1.1533
  864MOL0     C19114  10.369  12.050   2.262 -0.0391 -0.1288 -0.9111
  864MOL0     C19115  10.303  11.955   2.365  0.8081 -0.0937 -0.5900
  864MOL0     C19116  10.331  11.995   2.504  0.2303 -0.3706  0.2369
  864MOL0     C19117  10.260  12.124   2.550  0.1105 -0.4207  0.0349
  864MOL0     O19118  10.306  12.144   2.677 -0.1474 -0.3846 -0.7079
  864MOL0     C19119  10.254  12.245   2.745 -0.3593  0.7567  0.0863
  864MOL0     C19120  10.255  12.235   2.886  0.2414 -0.1149  0.4733
  864MOL0     C19121  10.215  12.343   2.973  0.1628  0.4150 -0.1064
  864MOL0     C19122  10.238  12.323   3.114 -0.0818 -0.1194  0.0180
  864MOL0     C19123  10.151  12.455   2.911 -0.2746 -0.1866 -0.2921
  864MOL0     C19124  10.067  12.556   2.974  0.0855 -0.4248  0.5437
  864MOL0     O19125   9.984  12.626   2.887  0.1742 -0.3232  0.3901
  864MOL0     C19126   9.893  12.730   2.925  0.1874  0.3739  0.5247
  864MOL0     C19127   9.792  12.760   2.823 -0.2744  0.7493  1.0487
  864MOL0     C19128   9.689  12.847   2.858  0.5129 -0.8342  0.0670
  864MOL0     C19129   9.678  12.920   2.978  0.1134 -1.2892 -0.3204
  864MOL0     O19130   9.592  13.032   2.978 -0.0780 -0.2877 -0.7160
  864MOL0     C19131   9.550  13.085   3.104 -0.6318 -0.3782  0.6892
  864MOL0     C19132   9.438  13.174   3.084  0.2232 -0.0949  0.4028
  864MOL0     C19133   9.365  13.211   3.208  0.3647 -0.2415  0.0983
  864MOL0     C19134   9.301  13.099   3.296 -0.1076 -0.0176 -0.0178
  864MOL0     C19135   9.221  13.164   3.409  0.0520 -0.3309 -0.6168
  864MOL0     C19136   9.089  13.091   3.441 -0.6397  0.0265 -0.6199
  864MOL0     C19137   9.029  13.146   3.574 -0.0889  1.2783 -0.0818
  864MOL0     C19138   8.947  13.041   3.657  0.7432  0.2704 -0.6114
  864MOL0    Cl19139   9.021  12.875   3.660 -0.7048  0.1193 -0.0557
  864MOL0     C19140   9.778  12.890   3.068  0.3961 -0.2506 -0.1637
  864MOL0     C19141   9.882  12.798   3.046  0.6841 -0.5766  0.5592
  864MOL0     O19142  10.078  12.579   3.093 -0.0432  0.6641  0.1230
  864MOL0     C19143  10.141  12.450   2.768 -0.1137 -0.4657  0.8386
  864MOL0     C19144  10.192  12.351   2.683 -0.3508 -0.6126 -0.9891
  864MOL0     N19145  10.230  11.971   2.050 -0.2291  0.6714  0.2510
  864MOL0     N19146  10.239  11.892   1.948 -0.5306  0.5298 -0.9901
  864MOL0     C19147  11.058  11.006   2.010 -0.6802 -0.5382  0.1586
  864MOL0     C19148  11.056  10.877   2.064 -0.0770 -0.1738  0.3737
  864MOL0     C19149  10.909  10.570   2.372  0.1662  0.2041  0.7551
  864MOL0     C19150  10.899  10.454   2.290  0.1794 -0.8353 -0.2886
  864MOL0     C19151  10.878  10.325   2.350 -0.5620 -0.7184  0.2980
  864MOL0     C19152  10.859  10.314   2.486 -0.5965  0.5785  0.9251
  864MOL0     O19153  10.833  10.191   2.537  1.0748 -0.4123  0.0312
  864MOL0     C19154  10.845  10.158   2.676  0.7529  0.5959  0.0434
  864MOL0     C19155  10.986  10.169   2.741  0.6736  1.0971 -0.5718
  864MOL0     C19156  11.076  10.060   2.682  0.3943 -0.7064  1.3456
  864MOL0     C19157  11.223  10.096   2.698 -0.4160 -0.1040 -0.1251
  864MOL0     C19158  11.260  10.092   2.847 -0.2286 -0.4597  0.1429
  864MOL0     C19159  11.292  10.129   2.957  0.6371 -0.1880  0.8127
  864MOL0     C19160  10.850  10.435   2.560  0.1906 -0.5043 -0.7908
  864MOL0     C19161  10.879  10.560   2.510 -0.4711  0.0748  0.3152
  864MOL0     C19162  10.872  10.673   2.613  0.1978  0.4257 -0.2002
  864MOL0     H19163  10.725  10.853   2.097  0.2180 -4.3646 -2.3451
  864MOL0     H19164  10.731  11.086   1.998 -1.5437 -1.6389  2.1470
  864MOL0     H19165  11.158  11.247   1.937  0.5797  1.6032  1.4109
  864MOL0     H19166  11.051  11.276   2.067  0.4363 -3.4105  0.4445
  864MOL0     H19167  11.097  11.487   1.962  3.1517 -2.1134 -2.0537
  864MOL0     H19168  11.074  11.438   1.801 -1.9418 -0.7237 -1.0155
  864MOL0     H19169  10.828  11.421   1.819  0.0291  0.6038 -0.4741
  864MOL0     H19170  10.837  11.425   1.993 -2.3366 -2.3232 -1.5907
  864MOL0     H19171  10.907  11.656   1.989 -0.3143  0.6742  1.0549
  864MOL0     H19172  10.946  11.650   1.811 -0.7599  0.6809 -0.5897
  864MOL0     H19173  10.714  11.656   1.749 -0.4968  0.2423 -0.5500
  864MOL0     H19174  10.736  11.778   1.871  0.1538  0.5459  0.2207
  864MOL0     H19175  10.614  11.507   1.944 -1.1686  0.9302 -1.2836
  864MOL0     H19176  10.617  11.658   2.037 -0.1484 -0.1164  0.0370
  864MOL0     H19177  10.401  11.583   1.914  0.9249 -3.6552 -0.9165
  864MOL0     H19178  10.484  11.608   1.754  0.4626 -0.1999  0.0446
  864MOL0     H19179  10.517  11.850   1.800  0.9622 -0.7962 -0.3713
  864MOL0     H19180  10.360  11.798   1.753  0.4776  1.0989  0.0338
  864MOL0     H19181  10.539  11.869   2.081 -2.4351 -2.3813  3.9356
  864MOL0     H19182  10.324  12.149   2.274 -0.6176 -0.4161 -0.6686
  864MOL0     H19183  10.476  12.065   2.276 -0.2716  2.5393 -1.4263
  864MOL0     H19184  10.195  11.961   2.351  0.7365  0.4403  0.1221
  864MOL0     H19185  10.331  11.852   2.341 -2.4867 -1.3820  0.5235
  864MOL0     H19186  10.304  11.915   2.573  1.9504 -0.2641  1.0960
  864MOL0     H19187  10.433  12.036   2.507 -0.3500  1.4037 -1.9480
  864MOL0     H19188  10.299  12.209   2.494 -0.5799  1.6066  2.4622
  864MOL0     H19189  10.151  12.128   2.543 -0.0849  0.1568  2.5223
  864MOL0     H19190  10.293  12.146   2.934 -0.4739 -1.4362 -1.2670
  864MOL0     H19191  10.272  12.223   3.142  1.2732  0.9859  2.7283
  864MOL0     H19192  10.147  12.338   3.173 -0.9216  1.6962 -1.6301
  864MOL0     H19193  10.314  12.400   3.129  2.0962 -2.6214  3.2724
  864MOL0     H19194   9.795  12.725   2.720 -0.0566 -2.7563  2.1394
  864MOL0     H19195   9.632  12.878   2.771  0.4180 -2.4672 -0.4801
  864MOL0     H19196   9.531  13.007   3.179 -0.5729 -3.2603 -2.0938
  864MOL0     H19197   9.633  13.138   3.152  1.5719 -1.5229 -1.6649
  864MOL0     H19198   9.464  13.252   3.012 -1.4581 -1.0618 -1.3512
  864MOL0     H19199   9.361  13.117   3.033 -0.1537  0.3970  0.4057
  864MOL0     H19200   9.283  13.277   3.177  1.9733  1.2124 -1.2574
  864MOL0     H19201   9.432  13.272   3.269  0.5227  2.1800 -2.3055
  864MOL0     H19202   9.378  13.037   3.343 -1.2752 -2.0666 -0.6924
  864MOL0     H19203   9.230  13.045   3.232 -3.5812  1.2858  2.4066
  864MOL0     H19204   9.285  13.183   3.496  1.0182  0.6634 -1.5248
  864MOL0     H19205   9.174  13.258   3.379  0.9335  0.0502 -0.8519
  864MOL0     H19206   9.119  12.986   3.440  0.5323  0.1700  3.1070
  864MOL0     H19207   9.020  13.096   3.357 -1.1921 -2.0423 -0.3445
  864MOL0     H19208   8.959  13.228   3.557 -1.5683  0.7439  2.7119
  864MOL0     H19209   9.111  13.174   3.641 -0.8873 -1.7975  2.4781
  864MOL0     H19210   8.849  13.037   3.607  0.0284  1.2969  0.6510
  864MOL0     H19211   8.936  13.080   3.758  0.9861  2.5433 -1.3980
  864MOL0     H19212   9.791  12.956   3.153 -5.1181  0.3257  0.5769
  864MOL0     H19213   9.956  12.789   3.126 -3.0723 -3.7501  4.1156
  864MOL0     H19214  10.097  12.533   2.714 -1.0398  0.4540  2.8868
  864MOL0     H19215  10.198  12.367   2.576  1.2449 -1.5509 -1.0518
  864MOL0     H19216  11.151  11.060   1.998 -1.1243  1.1075  3.0360
  864MOL0     H19217  11.146  10.819   2.085  0.2337  0.0328 -0.3487
  864MOL0     H19218  10.908  10.457   2.182 -1.3075  0.1381 -0.4230
  864MOL0     H19219  10.884  10.234   2.291  4.2763  0.3369 -1.2541
  864MOL0     H19220  10.785  10.221   2.743 -0.0925  0.3244 -0.4597
  864MOL0     H19221  10.792  10.064   2.690 -0.0231  0.7175 -1.7844
  864MOL0     H19222  10.970  10.158   2.849  2.4499 -2.3926 -0.5372
  864MOL0     H19223  11.027  10.267   2.716  0.2087  1.2480 -0.7525
  864MOL0     H19224  11.064   9.964   2.732  0.7126 -0.9403  0.9879
  864MOL0     H19225  11.041  10.048   2.579  1.0599  3.2996  0.4882
  864MOL0     H19226  11.251  10.191   2.652  0.2304 -1.3577 -2.4988
  864MOL0     H19227  11.290  10.031   2.640  3.4523 -0.0374  3.7160
  864MOL0     H19228  11.337  10.162   3.049 -0.1284  1.8923  0.5153
  864MOL0     H19229  10.831  10.422   2.666  1.2818  2.1361 -0.1776
  864MOL0     H19230  10.823  10.648   2.708  2.4714  2.2967  1.6139
  864MOL0     H19231  10.969  10.719   2.634  0.1767  1.2902 -1.8516
  864MOL0     H19232  10.808  10.753   2.574  2.5248  2.5284 -0.0080
  865MOL0     O19233   2.024   5.253  10.968 -0.4606 -0.4117  0.5173
  865MOL0     C19234   1.921   5.208  10.922 -0.1738 -0.9820 -1.1058
  865MOL0     O19235   1.901   5.205  10.785 -0.1690 -0.4300 -0.4611
  865MOL0     C19236   1.988   5.275  10.711  0.1489  0.6609 -0.1952
  865MOL0     C19237   1.926   5.375  10.633 -0.0023  0.5806  0.1442
  865MOL0     C19238   2.000   5.449  10.540  0.0217  0.5093 -0.1658
  865MOL0     C19239   2.137   5.418  10.526  0.2791 -0.3275 -0.0361
  865MOL0     O19240   2.221   5.497  10.456 -0.4167  0.0337 -0.2753
  865MOL0     C19241   2.158   5.583  10.361  0.2918  0.6912 -0.3566
  865MOL0     C19242   2.262   5.635  10.259  0.1170 -0.5100 -1.1874
  865MOL0     C19243   2.216   5.724  10.146 -0.0541 -0.0457  0.3165
  865MOL0     C19244   2.341   5.761  10.064 -0.1167  1.4804 -0.8821
  865MOL0     C19245   2.312   5.857   9.947 -0.1835  0.2765  0.4551
  865MOL0     C19246   2.429   5.894   9.862  0.0198  0.0107  1.0886
  865MOL0     C19247   2.389   5.983   9.750 -0.2033 -0.0198 -0.1067
  865MOL0     C19248   2.503   6.018   9.649 -0.0181 -0.4167 -0.0751
  865MOL0     N19249   2.534   5.919   9.542  1.1107  0.6146  0.3558
  865MOL0     C19250   2.655   5.857   9.513 -1.3121 -0.3063 -0.9791
  865MOL0     C19251   2.636   5.783   9.404  0.3953  0.6885 -0.1605
  865MOL0     C19252   2.743   5.696   9.344  0.1413  0.1590  0.3729
  865MOL0     C19253   2.729   5.693   9.180  0.3651  0.1421 -0.3706
  865MOL0     C19254   2.868   5.662   9.116 -0.9087 -0.8589 -0.1293
  865MOL0     C19255   2.862   5.662   8.960 -0.1759  0.1656 -0.3055
  865MOL0     O19256   2.791   5.774   8.913 -0.1490 -0.4325  0.7874
  865MOL0     C19257   2.845   5.894   8.896  0.0542 -0.4510  0.4686
  865MOL0     C19258   2.760   6.006   8.877 -0.7661  0.7024 -1.1584
  865MOL0     C19259   2.802   6.137   8.854 -0.2415 -0.0156 -0.0891
  865MOL0     C19260   2.710   6.243   8.824 -0.6632 -0.4245  0.4338
  865MOL0     C19261   2.947   6.154   8.861  0.2056 -0.1571 -0.2580
  865MOL0     C19262   3.019   6.280   8.817 -0.2828  0.1846  0.0934
  865MOL0     O19263   3.131   6.323   8.885  1.1974  0.4131 -0.9824
  865MOL0     C19264   3.200   6.434   8.840  0.2928 -0.7284 -0.2369
  865MOL0     C19265   3.194   6.549   8.913 -0.1836 -0.1496 -0.8050
  865MOL0     C19266   3.246   6.669   8.855  0.6184 -0.1024 -0.4599
  865MOL0     C19267   3.319   6.669   8.733 -0.1643  0.1056 -0.0484
  865MOL0     O19268   3.363   6.788   8.684 -0.1141  0.1446 -0.2953
  865MOL0     C19269   3.511   6.795   8.686  1.1235 -0.6454 -0.2580
  865MOL0     C19270   3.561   6.829   8.825 -0.1276 -0.0423  0.6427
  865MOL0     C19271   3.580   6.979   8.851  0.3660  0.4510  0.0201
  865MOL0     C19272   3.618   7.012   8.991  0.3733  0.1216 -0.3966
  865MOL0     C19273   3.668   7.164   8.997  0.0917  0.3560  0.4988
  865MOL0     C19274   3.719   7.206   9.135  0.3012 -0.4240  0.4580
  865MOL0     C19275   3.784   7.340   9.138 -0.0349 -0.5489 -0.3366
  865MOL0     C19276   3.921   7.326   9.067  0.0613  0.1393  0.4490
  865MOL0    Cl19277   4.001   7.492   9.051  0.0199  0.3745 -0.9290
  865MOL0     C19278   3.332   6.546   8.664  0.9446  0.3969  0.2543
  865MOL0     C19279   3.273   6.428   8.719  0.7603 -0.0342  0.6051
  865MOL0     O19280   2.987   6.322   8.705 -0.2016 -0.6506 -0.2218
  865MOL0     C19281   3.030   6.044   8.890  0.3098  0.9757  0.0681
  865MOL0     C19282   2.981   5.918   8.917 -0.9157  0.7153 -0.0622
  865MOL0     N19283   2.501   5.782   9.374 -0.2884  0.1445 -0.1802
  865MOL0     N19284   2.441   5.858   9.453  0.1102 -0.0082 -0.5588
  865MOL0     C19285   2.194   5.310  10.597 -0.3147  0.0846 -0.4691
  865MOL0     C19286   2.125   5.252  10.695 -0.3079  0.2538  0.2379
  865MOL0     C19287   1.816   5.168  11.009  0.1377  0.3250 -0.5839
  865MOL0     C19288   1.690   5.147  10.945 -1.2139 -0.7919 -0.1445
  865MOL0     C19289   1.575   5.113  11.021 -0.2630  0.8313 -0.4400
  865MOL0     C19290   1.588   5.074  11.155  0.1937 -0.1671  0.2464
  865MOL0     O19291   1.479   5.015  11.216  0.0520 -0.6850  0.0492
  865MOL0     C19292   1.504   4.961  11.348 -0.1064  0.4230  0.0528
  865MOL0     C19293   1.378   4.901  11.419  0.3285 -0.5658 -0.3500
  865MOL0     C19294   1.413   4.854  11.563  0.1412 -0.2711 -0.2979
  865MOL0     C19295   1.294   4.791  11.642 -0.2142  1.0461 -0.2920
  865MOL0     C19296   1.177   4.879  11.644 -0.4396 -0.6592 -0.3540
  865MOL0     C19297   1.085   4.959  11.646  0.5651 -0.3780 -0.4312
  865MOL0     C19298   1.717   5.082  11.213 -0.3798 -0.1536  0.3183
  865MOL0     C19299   1.833   5.130  11.143  0.3443  1.0437  0.1008
  865MOL0     C19300   1.967   5.127  11.210  0.2038  0.8760 -0.0563
  865MOL0     H19301   1.821   5.397  10.650  0.0530 -0.5039  2.1870
  865MOL0     H19302   1.955   5.532  10.486  0.9574  1.5220  0.5616
  865MOL0     H19303   2.106   5.668  10.406 -0.1364  0.4587 -0.4081
  865MOL0     H19304   2.082   5.529  10.305 -0.0960 -1.4700  2.0737
  865MOL0     H19305   2.331   5.689  10.323 -0.2771 -1.5945  0.2090
  865MOL0     H19306   2.305   5.541  10.221 -2.0366 -1.9592 -0.2551
  865MOL0     H19307   2.153   5.656  10.088 -1.6506  2.5775 -1.2048
  865MOL0     H19308   2.153   5.809  10.174 -2.0177 -1.5249  0.6003
  865MOL0     H19309   2.413   5.807  10.132 -0.4467  0.2532  0.3468
  865MOL0     H19310   2.384   5.669  10.023  1.4422  1.5519  0.5172
  865MOL0     H19311   2.270   5.949   9.989 -0.3823  1.2717 -1.7851
  865MOL0     H19312   2.235   5.816   9.881  0.1228 -0.0124  0.2725
  865MOL0     H19313   2.510   5.942   9.918 -0.9942  2.0225  0.9118
  865MOL0     H19314   2.472   5.798   9.831  1.8435  1.6603 -2.0384
  865MOL0     H19315   2.360   6.078   9.796  0.2700  1.3315 -2.4182
  865MOL0     H19316   2.307   5.951   9.684  1.0601  2.0216 -2.8648
  865MOL0     H19317   2.477   6.114   9.603  1.3697  0.4940  0.9620
  865MOL0     H19318   2.596   6.043   9.700 -0.0386 -0.0655 -0.2101
  865MOL0     H19319   2.749   5.870   9.566 -0.5696 -2.6890 -1.5965
  865MOL0     H19320   2.732   5.592   9.374 -1.6308 -1.0834 -3.8006
  865MOL0     H19321   2.838   5.744   9.368 -0.9229  2.6467 -0.0253
  865MOL0     H19322   2.661   5.611   9.153 -0.6809  0.9090 -0.1027
  865MOL0     H19323   2.693   5.793   9.154 -0.9450 -0.0153  0.7444
  865MOL0     H19324   2.935   5.744   9.140  1.2132 -2.3174 -0.7670
  865MOL0     H19325   2.921   5.568   9.135  1.1658 -0.0254 -1.3953
  865MOL0     H19326   2.952   5.655   8.899 -0.3410 -1.1930 -0.4191
  865MOL0     H19327   2.813   5.569   8.930 -0.8765 -0.3148  2.1126
  865MOL0     H19328   2.654   5.992   8.860 -1.7629  1.9057  2.8375
  865MOL0     H19329   2.603   6.219   8.820 -0.9186  0.0019  3.0945
  865MOL0     H19330   2.742   6.283   8.728  1.2383 -2.1078  0.3071
  865MOL0     H19331   2.712   6.310   8.911  0.3281 -0.8129  0.7217
  865MOL0     H19332   3.152   6.563   9.012 -0.1019  1.6968 -0.9846
  865MOL0     H19333   3.240   6.761   8.913 -2.3817 -0.1081 -0.6332
  865MOL0     H19334   3.560   6.701   8.659 -1.4347 -1.6844 -1.7322
  865MOL0     H19335   3.542   6.867   8.610  0.5941  2.5347  2.3017
  865MOL0     H19336   3.502   6.790   8.909 -0.4022 -0.3037  0.3332
  865MOL0     H19337   3.661   6.789   8.839 -0.4061 -0.5209  1.3239
  865MOL0     H19338   3.492   7.042   8.842  0.4922  0.6751  0.3266
  865MOL0     H19339   3.657   7.018   8.783 -1.3025 -1.2529 -3.0778
  865MOL0     H19340   3.693   6.946   9.037  0.2241 -1.9492 -2.9040
  865MOL0     H19341   3.525   7.003   9.048 -0.8462  1.0620 -2.1578
  865MOL0     H19342   3.741   7.162   8.916 -2.2009 -2.0023 -1.6702
  865MOL0     H19343   3.586   7.234   8.976  1.1251  1.8481  1.2435
  865MOL0     H19344   3.801   7.137   9.158  0.7592 -1.4437 -3.5247
  865MOL0     H19345   3.638   7.196   9.208  1.2001  1.9448  1.8930
  865MOL0     H19346   3.799   7.371   9.242 -0.2881 -1.3237 -0.0612
  865MOL0     H19347   3.714   7.412   9.094 -2.0644 -0.8875  2.1004
  865MOL0     H19348   3.902   7.299   8.963 -0.1190 -1.3858  0.8551
  865MOL0     H19349   3.988   7.254   9.114 -0.0164 -0.5859 -0.5418
  865MOL0     H19350   3.378   6.556   8.566  0.6432 -1.1985 -0.0683
  865MOL0     H19351   3.280   6.333   8.667  4.4934 -1.3169  2.9804
  865MOL0     H19352   3.137   6.055   8.906  0.5711 -0.4501 -0.5614
  865MOL0     H19353   3.041   5.841   8.964 -1.6561  1.7414  2.7928
  865MOL0     H19354   2.296   5.283  10.571  0.1510  1.7715 -0.4533
  865MOL0     H19355   2.168   5.177  10.761  0.5471  0.6946  0.1978
  865MOL0     H19356   1.671   5.166  10.840 -1.6600 -3.4113 -0.6211
  865MOL0     H19357   1.475   5.108  10.981 -1.0282 -0.0503  1.4524
  865MOL0     H19358   1.584   4.888  11.333  1.4316  2.2943 -1.4566
  865MOL0     H19359   1.546   5.043  11.407 -0.3606  1.0119 -0.5680
  865MOL0     H19360   1.343   4.816  11.360  1.2509 -0.1151 -1.5966
  865MOL0     H19361   1.292   4.969  11.419  1.2313  0.7433  2.2278
  865MOL0     H19362   1.490   4.776  11.562 -4.7428 -5.8493 -0.0536
  865MOL0     H19363   1.442   4.948  11.610 -0.0857  0.4650 -1.5726
  865MOL0     H19364   1.309   4.769  11.748 -1.3236  2.8525  0.2892
  865MOL0     H19365   1.267   4.695  11.598  0.3505  0.6571  0.2023
  865MOL0     H19366   1.004   5.028  11.634  0.8926  0.0750 -0.0649
  865MOL0     H19367   1.731   5.050  11.315 -0.8631 -0.9819  0.1329
  865MOL0     H19368   2.036   5.071  11.146  0.1782  0.3836  0.3366
  865MOL0     H19369   1.992   5.230  11.238 -3.9054  1.6649  1.4633
  865MOL0     H19370   1.950   5.072  11.303 -0.0029  1.3394  0.1850
  866MOL0     O19371   1.286   5.057   0.744 -0.2128  0.2086  0.4792
  866MOL0     C19372   1.199   5.138   0.780  0.1449 -0.2639 -0.1162
  866MOL0     O19373   1.209   5.227   0.882  0.1221  0.6550 -0.3707
  866MOL0     C19374   1.323   5.249   0.951 -0.0722 -1.2396  0.4804
  866MOL0     C19375   1.308   5.312   1.082  0.6012  0.6355 -0.4469
  866MOL0     C19376   1.414   5.348   1.157  0.0545 -0.2537  0.9069
  866MOL0     C19377   1.543   5.321   1.106 -0.4286  0.5196 -0.6188
  866MOL0     O19378   1.646   5.363   1.192 -0.4176  0.3404  0.3175
  866MOL0     C19379   1.773   5.295   1.184  0.2509 -0.0463 -1.0211
  866MOL0     C19380   1.889   5.356   1.263  0.3865  0.4553 -0.2338
  866MOL0     C19381   1.949   5.479   1.196 -0.1533 -0.0662 -0.7753
  866MOL0     C19382   2.083   5.452   1.125 -0.5183 -1.3302  0.3758
  866MOL0     C19383   2.123   5.590   1.068 -0.1449 -0.8672 -0.0996
  866MOL0     C19384   2.255   5.585   0.981 -1.1098  0.8339  0.3181
  866MOL0     C19385   2.269   5.725   0.920 -0.4879 -0.0467 -0.6255
  866MOL0     C19386   2.351   5.738   0.789 -0.3873 -0.0974 -0.0345
  866MOL0     N19387   2.498   5.707   0.797 -0.4317 -0.7887  0.2264
  866MOL0     C19388   2.587   5.791   0.856 -0.4674  0.7859  0.1755
  866MOL0     C19389   2.705   5.741   0.812  0.0210  0.0667  0.2052
  866MOL0     C19390   2.840   5.800   0.842  0.0051 -0.3046  0.2718
  866MOL0     C19391   2.939   5.691   0.898  0.2598  0.3291 -0.3713
  866MOL0     C19392   3.054   5.739   0.982 -0.4583  0.2934 -0.5816
  866MOL0     C19393   3.137   5.628   1.052 -0.9126 -0.2146  0.0010
  866MOL0     O19394   3.062   5.527   1.118  0.0696  0.1478  0.4410
  866MOL0     C19395   3.118   5.446   1.210 -0.0918 -0.2144  0.7541
  866MOL0     C19396   3.054   5.425   1.335 -0.8010  0.6404 -0.7324
  866MOL0     C19397   3.108   5.340   1.429 -0.5440  1.2711  0.3765
  866MOL0     C19398   3.032   5.320   1.559  0.3323  0.0505  0.2127
  866MOL0     C19399   3.238   5.275   1.402  0.2709 -0.2177 -1.0447
  866MOL0     C19400   3.303   5.180   1.497  0.4959 -0.3127 -0.5412
  866MOL0     O19401   3.427   5.126   1.462  0.9378 -0.0439 -0.1488
  866MOL0     C19402   3.493   5.052   1.553 -0.3610  0.6590  0.0690
  866MOL0     C19403   3.605   5.103   1.603 -0.5409  0.9054 -0.0833
  866MOL0     C19404   3.685   5.013   1.684  0.4790 -0.2964 -0.2946
  866MOL0     C19405   3.647   4.883   1.719 -0.1585  0.5495 -0.2649
  866MOL0     O19406   3.735   4.812   1.792 -0.0555 -0.3003 -0.7230
  866MOL0     C19407   3.676   4.753   1.905 -0.1292 -0.1606  0.4736
  866MOL0     C19408   3.786   4.664   1.977  0.6884 -0.1618 -0.4480
  866MOL0     C19409   3.854   4.739   2.096  0.5616 -0.8435  0.4144
  866MOL0     C19410   3.975   4.657   2.155 -0.9786  0.4910  0.9503
  866MOL0     C19411   4.035   4.700   2.291  1.0540 -0.2444 -0.3940
  866MOL0     C19412   4.064   4.856   2.290 -0.3434 -0.8768 -0.4504
  866MOL0     C19413   4.202   4.898   2.230 -0.0469  0.1377  0.3766
  866MOL0     C19414   4.220   5.057   2.222  0.0760 -0.3106 -0.6449
  866MOL0    Cl19415   4.298   5.099   2.069  0.3248  0.1593 -0.0221
  866MOL0     C19416   3.526   4.836   1.668  0.0982  0.4110 -0.3508
  866MOL0     C19417   3.452   4.923   1.591 -0.6072 -0.3064 -0.0028
  866MOL0     O19418   3.245   5.155   1.604 -0.0220  0.1328 -0.3966
  866MOL0     C19419   3.300   5.298   1.279  0.4388  0.7687 -0.2830
  866MOL0     C19420   3.242   5.388   1.188 -0.7522 -0.4798 -0.0556
  866MOL0     N19421   2.686   5.625   0.735  0.3594  0.2739 -0.3930
  866MOL0     N19422   2.556   5.598   0.746  0.0027  0.4934  0.4377
  866MOL0     C19423   1.567   5.260   0.976  0.2463 -1.0037  0.3971
  866MOL0     C19424   1.452   5.242   0.894  0.1860 -0.4680  0.8523
  866MOL0     C19425   1.063   5.135   0.720 -0.7505  0.3328  0.0469
  866MOL0     C19426   0.957   5.179   0.801 -0.3154  0.1281  1.1085
  866MOL0     C19427   0.823   5.175   0.760  0.9948 -0.2673 -0.1665
  866MOL0     C19428   0.785   5.124   0.631  0.0841 -0.8650 -0.7504
  866MOL0     O19429   0.660   5.129   0.593  0.1870 -0.4857 -0.1934
  866MOL0     C19430   0.641   5.222   0.482 -0.6206 -0.1703 -0.4092
  866MOL0     C19431   0.494   5.247   0.458 -0.4716  0.4117  0.1916
  866MOL0     C19432   0.421   5.110   0.455 -0.4312 -0.3045  0.8157
  866MOL0     C19433   0.267   5.129   0.431  0.6863  0.7513  0.2294
  866MOL0     C19434   0.217   4.996   0.386  0.3405 -0.0429  0.8460
  866MOL0     C19435   0.172   4.888   0.356  0.0876 -0.5159  0.7965
  866MOL0     C19436   0.896   5.076   0.551  0.4873  0.8101  0.0262
  866MOL0     C19437   1.030   5.082   0.591  0.8071 -0.3250  0.0937
  866MOL0     C19438   1.119   5.033   0.494 -0.1694  0.8222 -0.2141
  866MOL0     H19439   1.207   5.323   1.119  0.8688  2.2252 -0.1265
  866MOL0     H19440   1.404   5.388   1.257 -0.4016 -1.2453  1.2628
  866MOL0     H19441   1.808   5.297   1.080  2.6340 -2.3654 -0.3599
  866MOL0     H19442   1.770   5.186   1.197 -0.6678  0.3067  2.7945
  866MOL0     H19443   1.850   5.378   1.363 -0.1544  1.3532 -0.6282
  866MOL0     H19444   1.965   5.277   1.267 -1.2062 -1.0849  1.5250
  866MOL0     H19445   1.867   5.532   1.147 -1.8819 -1.8907 -0.0211
  866MOL0     H19446   1.972   5.531   1.290 -2.1398  2.0517 -1.3562
  866MOL0     H19447   2.158   5.407   1.190  0.4262  0.6611  0.7527
  866MOL0     H19448   2.063   5.374   1.051 -1.9813 -2.4344  1.8591
  866MOL0     H19449   2.138   5.666   1.144 -0.5154  1.7357 -2.4517
  866MOL0     H19450   2.041   5.625   1.005  0.6587  3.4904  0.9494
  866MOL0     H19451   2.349   5.552   1.026  0.1139  1.1842 -1.8164
  866MOL0     H19452   2.241   5.516   0.897  0.7831  0.8343 -0.0479
  866MOL0     H19453   2.320   5.794   0.988  2.8231 -1.8899 -0.9917
  866MOL0     H19454   2.171   5.766   0.896 -1.2322 -0.3741  1.6426
  866MOL0     H19455   2.302   5.669   0.719 -0.4128 -0.4877  0.3644
  866MOL0     H19456   2.336   5.838   0.748  2.1026  1.9308  3.5466
  866MOL0     H19457   2.577   5.883   0.913 -0.7431  0.8551  0.0216
  866MOL0     H19458   2.841   5.883   0.913  4.7764  0.5894 -0.4596
  866MOL0     H19459   2.879   5.843   0.749 -1.0079 -2.0280 -1.0111
  866MOL0     H19460   2.874   5.629   0.961  2.4307 -0.3869  1.3076
  866MOL0     H19461   2.984   5.630   0.819 -0.4761  1.8570 -2.0195
  866MOL0     H19462   3.114   5.809   0.922 -0.4377 -0.8191 -1.9231
  866MOL0     H19463   3.002   5.796   1.059 -1.5910 -2.2921  0.6751
  866MOL0     H19464   3.199   5.586   0.972 -0.1288  1.9776 -0.6127
  866MOL0     H19465   3.208   5.674   1.121  0.5674  0.6674 -1.9992
  866MOL0     H19466   2.967   5.483   1.365  0.9396  3.0500  0.0009
  866MOL0     H19467   2.935   5.371   1.558  0.3704  0.1433 -1.2368
  866MOL0     H19468   3.077   5.342   1.656  1.0410 -1.8717  0.3468
  866MOL0     H19469   2.996   5.217   1.562 -0.3806  0.2694 -0.3756
  866MOL0     H19470   3.635   5.206   1.586 -1.5726  1.0599 -1.0098
  866MOL0     H19471   3.779   5.047   1.725 -0.5588 -0.3876  2.3799
  866MOL0     H19472   3.644   4.831   1.974 -2.5687  1.9211 -2.7238
  866MOL0     H19473   3.594   4.688   1.872 -0.3631  1.6877 -3.0406
  866MOL0     H19474   3.743   4.575   2.025 -1.5433  1.1167  0.0607
  866MOL0     H19475   3.859   4.629   1.904 -0.8447 -1.2246 -1.5562
  866MOL0     H19476   3.782   4.763   2.174 -0.5945 -0.5112 -0.7094
  866MOL0     H19477   3.908   4.829   2.064  0.3764 -0.3320  1.5197
  866MOL0     H19478   4.060   4.660   2.086 -1.9426 -0.2918 -0.3043
  866MOL0     H19479   3.964   4.550   2.174  1.7389  0.0793  0.6178
  866MOL0     H19480   3.959   4.680   2.367  1.0079 -0.6769 -0.5492
  866MOL0     H19481   4.121   4.636   2.313 -0.4377 -2.1878  0.0566
  866MOL0     H19482   4.075   4.882   2.396  3.7982  0.0235 -0.9048
  866MOL0     H19483   3.977   4.906   2.249  0.1613 -1.4768 -2.3442
  866MOL0     H19484   4.212   4.856   2.130 -2.4242 -3.4487  1.4656
  866MOL0     H19485   4.285   4.865   2.292 -0.8366  0.2648  1.5484
  866MOL0     H19486   4.276   5.086   2.312  0.5023 -3.0633  0.0725
  866MOL0     H19487   4.125   5.111   2.214  0.9631  1.1112 -2.3523
  866MOL0     H19488   3.481   4.740   1.687  0.6740  0.4381  1.3436
  866MOL0     H19489   3.355   4.897   1.550 -1.0215 -1.0526  1.3883
  866MOL0     H19490   3.383   5.241   1.238 -0.5172 -0.5455 -0.4240
  866MOL0     H19491   3.296   5.399   1.095  0.8070  0.8587  0.9604
  866MOL0     H19492   1.665   5.245   0.931  0.3427  1.8079 -0.5169
  866MOL0     H19493   1.463   5.213   0.790 -4.2491 -1.3593  0.4424
  866MOL0     H19494   0.973   5.225   0.899  1.6483 -1.7786  1.7459
  866MOL0     H19495   0.742   5.209   0.823  2.9673  0.7260  1.9678
  866MOL0     H19496   0.699   5.313   0.503 -1.4871 -0.0036  1.5489
  866MOL0     H19497   0.681   5.186   0.387 -2.1653  1.8244 -1.9035
  866MOL0     H19498   0.474   5.307   0.368 -1.7125 -1.1073 -0.5984
  866MOL0     H19499   0.458   5.309   0.540  0.7261  1.6406 -0.1763
  866MOL0     H19500   0.464   5.041   0.381  0.6202  1.7808 -0.6160
  866MOL0     H19501   0.438   5.068   0.555  0.3193 -0.2872  0.7003
  866MOL0     H19502   0.249   5.213   0.363  0.8125 -0.6287 -1.5971
  866MOL0     H19503   0.207   5.154   0.519 -1.7930 -0.1313 -1.0893
  866MOL0     H19504   0.109   4.807   0.327  0.4036 -0.3607 -0.3814
  866MOL0     H19505   0.866   5.049   0.451 -2.1875 -0.2062  0.9983
  866MOL0     H19506   1.097   5.090   0.403 -0.5211  5.3745  2.4013
  866MOL0     H19507   1.220   5.063   0.523 -1.1245  1.5562  2.6096
  866MOL0     H19508   1.116   4.924   0.480 -0.7094  0.6760  0.9286
  867MOL0     O19509   1.941   9.969   3.843 -0.7816 -0.9934  0.5067
  867MOL0     C19510   2.017  10.063   3.809 -0.2333 -0.0680 -0.4746
  867MOL0     O19511   2.121  10.112   3.879 -0.3466  0.1062 -0.2274
  867MOL0     C19512   2.134  10.073   4.015  0.5276  0.0267 -0.2836
  867MOL0     C19513   2.195   9.956   4.072 -0.3595 -0.0159  0.1573
  867MOL0     C19514   2.199   9.945   4.211  0.6793  0.1563  0.3905
  867MOL0     C19515   2.131  10.030   4.304 -0.7006 -0.1402 -0.3425
  867MOL0     O19516   2.101  10.016   4.439  0.3372 -0.4518 -0.3296
  867MOL0     C19517   2.189   9.937   4.516  0.2376  0.0933 -0.0397
  867MOL0     C19518   2.121   9.809   4.558  0.3515  0.1547  0.4078
  867MOL0     C19519   2.214   9.712   4.630 -0.1219 -0.4850 -0.5920
  867MOL0     C19520   2.116   9.598   4.676  0.2490  0.2576  0.1327
  867MOL0     C19521   2.196   9.503   4.759  0.0959 -0.0962 -0.0509
  867MOL0     C19522   2.118   9.387   4.825  0.8271 -0.1724  0.4283
  867MOL0     C19523   2.168   9.322   4.962  0.4912  0.4788 -0.8043
  867MOL0     C19524   2.310   9.269   4.962 -0.1847 -0.6254  0.5415
  867MOL0     N19525   2.323   9.154   4.868 -1.0812  0.2354 -0.2087
  867MOL0     C19526   2.353   9.024   4.915 -0.1263 -0.0096  0.0937
  867MOL0     C19527   2.355   8.940   4.810  0.6200  0.3297  0.1941
  867MOL0     C19528   2.368   8.793   4.799 -0.4060  0.4978  0.6090
  867MOL0     C19529   2.250   8.728   4.724 -0.2199 -0.7321  0.2312
  867MOL0     C19530   2.124   8.717   4.807 -1.1119 -0.4181  0.7512
  867MOL0     C19531   1.990   8.675   4.727 -1.2956 -0.7968 -0.5374
  867MOL0     O19532   1.974   8.763   4.613  0.1686  0.6292  0.0015
  867MOL0     C19533   1.872   8.725   4.527 -1.2802 -0.5297 -0.1775
  867MOL0     C19534   1.777   8.625   4.545  0.1407 -0.9091 -0.2171
  867MOL0     C19535   1.683   8.600   4.444  0.2491  0.2148  0.1206
  867MOL0     C19536   1.595   8.484   4.483 -0.2080  0.6170  0.8095
  867MOL0     C19537   1.689   8.660   4.318  0.5116  0.3046  1.3826
  867MOL0     C19538   1.602   8.614   4.205  0.1946  0.0833  0.9465
  867MOL0     O19539   1.540   8.710   4.129  0.3731 -0.0881 -0.4445
  867MOL0     C19540   1.454   8.679   4.021 -0.1609 -0.4666 -0.3935
  867MOL0     C19541   1.506   8.601   3.921 -0.8866  0.2168  0.0347
  867MOL0     C19542   1.430   8.568   3.805 -0.6721  0.1693  0.9935
  867MOL0     C19543   1.300   8.630   3.790  0.5852 -0.0613 -0.0290
  867MOL0     O19544   1.218   8.590   3.683 -0.4781 -0.0681  0.3331
  867MOL0     C19545   1.084   8.548   3.722  0.6965  0.0734  0.0210
  867MOL0     C19546   1.009   8.490   3.600  0.8109  0.6201  0.3544
  867MOL0     C19547   1.058   8.344   3.554 -0.3320  0.5084 -0.2565
  867MOL0     C19548   0.943   8.249   3.507  0.0399 -0.2360  0.6850
  867MOL0     C19549   0.994   8.109   3.465  0.9790  0.2301  0.0849
  867MOL0     C19550   0.904   8.031   3.352 -0.6457 -0.8086 -0.8765
  867MOL0     C19551   0.965   7.891   3.312  0.0269 -0.6395 -0.2829
  867MOL0     C19552   0.864   7.813   3.242  0.1466 -0.2391 -0.1569
  867MOL0    Cl19553   0.867   7.637   3.298  0.1635  0.3434 -0.2420
  867MOL0     C19554   1.258   8.722   3.880 -0.6064  0.0278 -0.7694
  867MOL0     C19555   1.335   8.744   4.000  0.2118  0.1654 -0.4283
  867MOL0     O19556   1.588   8.492   4.184 -0.7207 -0.1433  0.3239
  867MOL0     C19557   1.789   8.757   4.298  0.5155 -0.5607  0.2013
  867MOL0     C19558   1.872   8.793   4.403 -0.7344 -0.3113 -0.2404
  867MOL0     N19559   2.323   9.021   4.705  0.3875  0.1361 -0.0926
  867MOL0     N19560   2.303   9.144   4.738 -0.2470  0.2602  0.2024
  867MOL0     C19561   2.080  10.149   4.242 -0.2748  1.2520 -0.5684
  867MOL0     C19562   2.078  10.172   4.106 -0.5547 -0.1862  0.9090
  867MOL0     C19563   1.968  10.133   3.679 -1.0619 -0.1227  0.0886
  867MOL0     C19564   1.875  10.080   3.593 -0.1632 -0.0768  0.7663
  867MOL0     C19565   1.823  10.145   3.479  0.6261  0.2828 -0.8076
  867MOL0     C19566   1.861  10.283   3.448  0.7214  0.2153 -0.0843
  867MOL0     O19567   1.807  10.358   3.347 -0.2822  0.8491 -0.2093
  867MOL0     C19568   1.770  10.294   3.219 -0.3944  0.2402 -0.5029
  867MOL0     C19569   1.697  10.382   3.117  0.6870 -0.1847  0.3508
  867MOL0     C19570   1.789  10.393   2.999  0.9556 -0.8522 -0.1458
  867MOL0     C19571   1.725  10.469   2.886  0.5780  1.2213 -0.1069
  867MOL0     C19572   1.786  10.604   2.876  0.4998  0.2364 -0.6263
  867MOL0     C19573   1.812  10.724   2.886  0.0916 -0.2476  0.1786
  867MOL0     C19574   1.956  10.341   3.532  0.2030 -0.4342 -0.1482
  867MOL0     C19575   2.006  10.273   3.646 -0.1145  0.0237 -1.1059
  867MOL0     C19576   2.122  10.343   3.714  0.5982 -0.3909 -0.4349
  867MOL0     H19577   2.226   9.874   4.009  2.9336  1.8995 -0.9496
  867MOL0     H19578   2.249   9.855   4.246  3.7034  1.9253  1.0005
  867MOL0     H19579   2.210  10.001   4.602  0.0404  2.9617 -1.9622
  867MOL0     H19580   2.285   9.910   4.471  1.4533  0.9425  1.9247
  867MOL0     H19581   2.039   9.847   4.620 -0.9673  0.9442 -1.6764
  867MOL0     H19582   2.059   9.753   4.487  1.1275 -1.2984  0.8460
  867MOL0     H19583   2.299   9.670   4.575  0.3841 -1.1907  0.7003
  867MOL0     H19584   2.245   9.750   4.727 -1.6865 -3.4912  1.2163
  867MOL0     H19585   2.032   9.630   4.738  0.1805 -2.1223  1.3783
  867MOL0     H19586   2.074   9.552   4.586  0.1474 -0.6866  0.6471
  867MOL0     H19587   2.240   9.559   4.842 -0.5488 -0.2160  0.3781
  867MOL0     H19588   2.274   9.460   4.695 -0.3958  0.0356 -0.7587
  867MOL0     H19589   2.015   9.423   4.837  1.6713  2.5102  0.4523
  867MOL0     H19590   2.104   9.314   4.745 -0.2515  4.1904 -3.8744
  867MOL0     H19591   2.095   9.249   4.998  0.4451  1.2053  0.6401
  867MOL0     H19592   2.155   9.400   5.038 -0.0878  0.1168 -0.5259
  867MOL0     H19593   2.365   9.353   4.919 -1.3845  0.2995  0.7741
  867MOL0     H19594   2.361   9.252   5.057  1.2361  1.3648  0.1975
  867MOL0     H19595   2.381   9.000   5.017 -0.2933  2.7036  0.8500
  867MOL0     H19596   2.375   8.750   4.899 -0.9185  1.9557  1.2997
  867MOL0     H19597   2.463   8.770   4.750 -1.1024 -0.6697 -0.2460
  867MOL0     H19598   2.247   8.777   4.626  3.2772 -2.9779 -1.1942
  867MOL0     H19599   2.284   8.627   4.700 -0.1579 -0.3518 -1.4515
  867MOL0     H19600   2.125   8.641   4.887  2.7857 -0.8045  0.5153
  867MOL0     H19601   2.110   8.815   4.853 -0.7432  0.9423 -1.8974
  867MOL0     H19602   1.997   8.573   4.687 -2.9059  0.2357 -3.7106
  867MOL0     H19603   1.914   8.690   4.804  0.6178 -1.2116  1.5715
  867MOL0     H19604   1.780   8.560   4.632  1.9559 -0.9098 -0.2318
  867MOL0     H19605   1.614   8.448   4.584  1.0943 -2.2838 -0.3599
  867MOL0     H19606   1.613   8.402   4.413 -0.3080  1.7196 -0.5746
  867MOL0     H19607   1.492   8.520   4.474  0.0539  1.3313  0.4944
  867MOL0     H19608   1.604   8.555   3.925 -2.3351 -3.3177 -1.0289
  867MOL0     H19609   1.471   8.494   3.738 -0.9657 -0.7840  1.8309
  867MOL0     H19610   1.091   8.469   3.797 -1.4295  0.4339  0.6780
  867MOL0     H19611   1.021   8.631   3.757  1.7389  1.4969 -1.3736
  867MOL0     H19612   0.901   8.487   3.616  1.1353  1.1017  3.1663
  867MOL0     H19613   1.022   8.557   3.515 -2.1821 -0.1149 -0.8196
  867MOL0     H19614   1.112   8.296   3.636 -3.3873 -1.9036  0.5457
  867MOL0     H19615   1.130   8.358   3.473  1.3488  1.4847  1.3175
  867MOL0     H19616   0.914   8.295   3.412 -0.3496 -2.2166 -0.2064
  867MOL0     H19617   0.857   8.236   3.574  0.3067 -1.8182  0.7506
  867MOL0     H19618   1.096   8.106   3.426  0.6445 -3.3691 -0.8962
  867MOL0     H19619   0.989   8.043   3.552  0.0337 -0.1164 -0.2128
  867MOL0     H19620   0.900   8.098   3.266 -2.3005  0.1924 -0.0646
  867MOL0     H19621   0.805   8.023   3.397 -1.4426  1.5458 -2.0407
  867MOL0     H19622   1.009   7.843   3.399  1.7133 -0.2827 -0.9002
  867MOL0     H19623   1.046   7.912   3.241 -0.2542  2.0673  0.0989
  867MOL0     H19624   0.880   7.838   3.137  0.1513 -0.4782 -0.2123
  867MOL0     H19625   0.766   7.854   3.272  0.4240 -0.9625  1.8708
  867MOL0     H19626   1.162   8.772   3.873 -0.7733  0.2927  2.0863
  867MOL0     H19627   1.300   8.818   4.071 -1.3143 -0.6118 -0.3304
  867MOL0     H19628   1.788   8.803   4.199  1.3657 -0.1965  0.3481
  867MOL0     H19629   1.946   8.869   4.381 -1.4691  0.2978 -0.6709
  867MOL0     H19630   2.030  10.220   4.306 -0.2770 -0.0899  0.9808
  867MOL0     H19631   2.049  10.268   4.064  0.7255  0.7509  2.0876
  867MOL0     H19632   1.850   9.976   3.608  0.2695 -0.3906 -0.6325
  867MOL0     H19633   1.755  10.095   3.411 -0.1710 -1.5368  1.2146
  867MOL0     H19634   1.867  10.256   3.185  1.1630  0.8715  2.8517
  867MOL0     H19635   1.707  10.206   3.239 -1.0400  0.4143 -1.6971
  867MOL0     H19636   1.681  10.480   3.164  0.8808 -0.8210  1.7960
  867MOL0     H19637   1.598  10.340   3.100 -0.6895  3.1678 -0.7868
  867MOL0     H19638   1.889  10.434   3.017  1.1801 -2.2193  1.9871
  867MOL0     H19639   1.799  10.289   2.967 -0.3476 -0.9847 -0.1843
  867MOL0     H19640   1.621  10.478   2.920  0.1220 -0.5445 -0.8863
  867MOL0     H19641   1.731  10.411   2.793 -1.6924 -0.2959  0.6047
  867MOL0     H19642   1.820  10.831   2.893 -1.5190 -0.2297  2.9720
  867MOL0     H19643   1.973  10.446   3.510  4.2189 -0.9590 -0.2720
  867MOL0     H19644   2.154  10.435   3.663  2.4471 -1.1874 -0.7562
  867MOL0     H19645   2.089  10.369   3.815 -2.5341  0.4655 -1.5315
  867MOL0     H19646   2.211  10.281   3.709  0.2666 -0.7867 -3.4850
  868MOL0     O19647   0.500   4.270   7.640 -0.2724 -0.0514 -0.1354
  868MOL0     C19648   0.608   4.225   7.675  0.1158  1.1224 -0.0456
  868MOL0     O19649   0.719   4.300   7.706 -0.5009 -0.4844 -0.4104
  868MOL0     C19650   0.722   4.429   7.674 -0.3579 -0.6807  0.8485
  868MOL0     C19651   0.717   4.475   7.543  0.1351 -0.1302  0.3830
  868MOL0     C19652   0.711   4.605   7.508 -1.1324 -0.3868 -0.4976
  868MOL0     C19653   0.715   4.707   7.611  0.2217 -0.2034 -0.1594
  868MOL0     O19654   0.710   4.846   7.595 -0.1293  0.5935 -0.3045
  868MOL0     C19655   0.645   4.872   7.464  0.1158  0.9338  0.5807
  868MOL0     C19656   0.618   5.019   7.444  0.3812  0.4124 -0.2809
  868MOL0     C19657   0.747   5.089   7.394 -0.2781  0.2526 -0.0833
  868MOL0     C19658   0.724   5.228   7.337 -0.0132 -0.8643  0.5494
  868MOL0     C19659   0.847   5.302   7.336 -0.4028 -0.0671  0.7167
  868MOL0     C19660   0.834   5.449   7.317 -0.5849  0.7022  0.1602
  868MOL0     C19661   0.763   5.508   7.435 -0.1000  0.7158 -0.7546
  868MOL0     C19662   0.766   5.658   7.453  0.3479  0.1654 -0.4985
  868MOL0     N19663   0.755   5.739   7.336  0.1466  0.2544  0.1428
  868MOL0     C19664   0.860   5.756   7.247 -0.6742 -0.2166 -0.0951
  868MOL0     C19665   0.816   5.798   7.131 -0.6615  0.5033 -0.4228
  868MOL0     C19666   0.914   5.818   7.016 -0.1806 -0.1787 -0.1039
  868MOL0     C19667   0.942   5.966   7.000 -0.3299 -0.8895 -0.0767
  868MOL0     C19668   1.018   6.023   7.113  0.2053 -0.4030  0.1745
  868MOL0     C19669   1.042   6.172   7.125 -0.1932 -0.4056  0.0579
  868MOL0     O19670   0.932   6.255   7.066  0.3289  0.0098 -0.1777
  868MOL0     C19671   0.870   6.340   7.155 -0.1055 -0.7296  0.4832
  868MOL0     C19672   0.761   6.293   7.236 -0.3147  0.5710  0.3094
  868MOL0     C19673   0.691   6.373   7.327  0.4823 -0.4979 -0.4131
  868MOL0     C19674   0.567   6.305   7.383 -1.1467 -0.0617 -1.1811
  868MOL0     C19675   0.732   6.507   7.342  0.3838  0.1641  0.8546
  868MOL0     C19676   0.666   6.598   7.434  0.5901 -0.1000 -0.0896
  868MOL0     O19677   0.717   6.734   7.455 -0.2151  0.2363  0.1228
  868MOL0     C19678   0.657   6.831   7.532  0.2504  0.3629  0.3478
  868MOL0     C19679   0.598   6.814   7.660 -0.3467 -0.4318 -0.1161
  868MOL0     C19680   0.551   6.921   7.733 -0.3804 -1.1733  0.6993
  868MOL0     C19681   0.535   7.049   7.660  0.2548 -0.2493 -0.6956
  868MOL0     O19682   0.466   7.165   7.708 -0.2607 -0.2503  0.2043
  868MOL0     C19683   0.388   7.155   7.826  0.4264 -0.4141 -0.2912
  868MOL0     C19684   0.437   7.241   7.945 -0.5097  0.2561  0.1221
  868MOL0     C19685   0.537   7.172   8.024  0.5504  0.3978  0.1371
  868MOL0     C19686   0.683   7.196   7.966  0.3501  1.2781  0.0251
  868MOL0     C19687   0.788   7.100   8.021 -0.3479  0.3365 -0.6708
  868MOL0     C19688   0.823   7.113   8.171 -0.4272 -0.2756 -0.6704
  868MOL0     C19689   0.964   7.068   8.199  0.0284  0.2286  0.7185
  868MOL0     C19690   0.986   7.043   8.351  0.5979 -0.7325  0.2102
  868MOL0    Cl19691   0.920   7.202   8.432 -0.0050 -0.0756  0.0934
  868MOL0     C19692   0.580   7.060   7.533  0.2413  0.2511  0.0313
  868MOL0     C19693   0.657   6.956   7.476 -0.2448 -0.0797  0.2678
  868MOL0     O19694   0.556   6.570   7.488  0.0388 -0.3272 -0.3994
  868MOL0     C19695   0.835   6.559   7.260 -0.2859  0.2546 -0.6282
  868MOL0     C19696   0.904   6.479   7.168  0.6508  0.7233  0.2110
  868MOL0     N19697   0.681   5.817   7.157  0.3729 -0.0354  0.2491
  868MOL0     N19698   0.642   5.777   7.270  0.0724 -0.1486 -0.6796
  868MOL0     C19699   0.711   4.664   7.740 -0.1901 -0.4377  0.0153
  868MOL0     C19700   0.715   4.528   7.776  0.1174 -0.3980  0.5315
  868MOL0     C19701   0.628   4.079   7.676 -1.2459  1.2002 -0.3104
  868MOL0     C19702   0.739   4.031   7.756 -0.3424  0.7986  0.8024
  868MOL0     C19703   0.778   3.895   7.755  0.3774 -0.3988 -0.1329
  868MOL0     C19704   0.707   3.800   7.678  0.1204 -0.4258  0.0496
  868MOL0     O19705   0.749   3.668   7.678 -0.8447  0.0658 -0.6001
  868MOL0     C19706   0.706   3.576   7.576  0.2598 -0.3531 -0.0168
  868MOL0     C19707   0.805   3.446   7.573  0.9139 -0.8983 -0.6820
  868MOL0     C19708   0.829   3.376   7.710  0.1347 -0.0275 -0.5841
  868MOL0     C19709   0.731   3.258   7.747 -0.6688  0.9606  0.0333
  868MOL0     C19710   0.745   3.137   7.662  0.0327 -0.7676 -0.4953
  868MOL0     C19711   0.741   3.045   7.578  0.6015 -0.2092  0.4645
  868MOL0     C19712   0.602   3.846   7.598 -1.0453  0.6331 -0.4713
  868MOL0     C19713   0.553   3.979   7.611 -0.9850 -0.6463  0.5892
  868MOL0     C19714   0.420   4.016   7.533  0.3886 -0.3414 -0.4420
  868MOL0     H19715   0.712   4.393   7.472  0.7858  0.6335 -0.5852
  868MOL0     H19716   0.736   4.628   7.405  5.2245 -1.6158  0.3831
  868MOL0     H19717   0.549   4.821   7.456  0.8157 -0.0921 -3.0708
  868MOL0     H19718   0.704   4.833   7.381 -0.7853  0.7943 -0.0074
  868MOL0     H19719   0.543   5.031   7.366 -0.2762 -0.0939  0.2600
  868MOL0     H19720   0.594   5.060   7.543  0.4130  0.9782 -0.5058
  868MOL0     H19721   0.816   5.093   7.478 -2.0961 -1.1691  1.5703
  868MOL0     H19722   0.802   5.034   7.316  1.6838  2.3680 -0.3000
  868MOL0     H19723   0.688   5.210   7.235  2.2359  0.1777 -0.4786
  868MOL0     H19724   0.636   5.265   7.391 -0.2253  0.2971 -0.5606
  868MOL0     H19725   0.905   5.256   7.256  1.3797  1.7142  0.9145
  868MOL0     H19726   0.909   5.286   7.425  1.8736 -1.4834 -0.9923
  868MOL0     H19727   0.938   5.483   7.317 -1.0917  2.3353 -0.5385
  868MOL0     H19728   0.791   5.481   7.222  2.3763 -1.4680 -2.1158
  868MOL0     H19729   0.791   5.476   7.535 -0.0960  3.4275  0.1883
  868MOL0     H19730   0.659   5.480   7.414 -0.1004 -0.2760  0.4598
  868MOL0     H19731   0.683   5.684   7.518  1.9483  0.3780  1.5699
  868MOL0     H19732   0.856   5.685   7.509 -0.4249  1.3454  0.2016
  868MOL0     H19733   0.963   5.737   7.274 -0.4295 -1.3957 -1.6539
  868MOL0     H19734   0.882   5.789   6.915 -4.5218  2.4088  0.3202
  868MOL0     H19735   1.013   5.774   7.032  1.4963  2.5828 -1.9099
  868MOL0     H19736   1.006   5.974   6.911 -0.0504 -3.6714 -0.2054
  868MOL0     H19737   0.852   6.023   6.976 -0.2477 -1.4650 -1.8548
  868MOL0     H19738   0.970   6.006   7.210  1.4421 -1.5817  0.6030
  868MOL0     H19739   1.110   5.965   7.128  0.9099 -0.3289 -3.1548
  868MOL0     H19740   1.068   6.195   7.228 -1.7397  0.1801  0.3361
  868MOL0     H19741   1.131   6.190   7.064 -1.0276 -2.6776 -2.0138
  868MOL0     H19742   0.723   6.191   7.226 -2.4193  1.1922  1.3505
  868MOL0     H19743   0.574   6.196   7.369 -0.3215  0.0328 -1.5298
  868MOL0     H19744   0.478   6.334   7.328 -1.5912 -2.2426 -1.7257
  868MOL0     H19745   0.537   6.327   7.486 -2.7638 -2.2631 -1.1095
  868MOL0     H19746   0.589   6.712   7.695  1.1708 -0.2171  1.0545
  868MOL0     H19747   0.532   6.916   7.839 -0.5719 -0.9637  0.6770
  868MOL0     H19748   0.286   7.193   7.811  0.6119  0.1555 -0.1270
  868MOL0     H19749   0.377   7.051   7.857  0.5728 -0.4243 -0.2724
  868MOL0     H19750   0.465   7.343   7.919 -3.1075  0.4247 -2.5082
  868MOL0     H19751   0.355   7.247   8.017  1.6854 -3.7554  3.4320
  868MOL0     H19752   0.509   7.071   8.054  1.6546  0.5569  1.8075
  868MOL0     H19753   0.533   7.214   8.125  0.7210 -0.9259  0.7117
  868MOL0     H19754   0.723   7.298   7.971  2.0884  0.5950  1.4350
  868MOL0     H19755   0.681   7.175   7.859  2.0839  2.2041 -0.2245
  868MOL0     H19756   0.752   7.000   7.996  3.3991 -1.6985  1.1686
  868MOL0     H19757   0.878   7.120   7.961  1.9493  1.4095  2.8257
  868MOL0     H19758   0.754   7.062   8.239 -0.1648  0.7507  0.3846
  868MOL0     H19759   0.827   7.220   8.192 -0.7307 -0.6994  1.8262
  868MOL0     H19760   1.029   7.153   8.174  0.7432  0.0542  1.8952
  868MOL0     H19761   0.993   6.983   8.137  0.8185  2.2891 -1.9438
  868MOL0     H19762   1.089   7.018   8.379  0.7549  0.3230  0.6371
  868MOL0     H19763   0.925   6.959   8.385  0.5517 -0.4268  0.9101
  868MOL0     H19764   0.547   7.150   7.482 -1.2859 -0.2293  0.1092
  868MOL0     H19765   0.701   6.977   7.378  2.4696  0.9475  1.6002
  868MOL0     H19766   0.872   6.658   7.285 -1.7051  0.0855  2.7179
  868MOL0     H19767   0.995   6.511   7.117 -0.4899  0.8343 -1.8494
  868MOL0     H19768   0.709   4.740   7.818  2.5215 -2.3335  2.1150
  868MOL0     H19769   0.717   4.514   7.884  1.4847  0.3803  0.6313
  868MOL0     H19770   0.797   4.101   7.816  1.1422 -0.0068  0.3514
  868MOL0     H19771   0.856   3.859   7.821 -0.5027 -0.1566  1.0825
  868MOL0     H19772   0.600   3.551   7.584  0.2956 -0.3990  0.3339
  868MOL0     H19773   0.724   3.620   7.477  0.2497  1.1707  0.6207
  868MOL0     H19774   0.904   3.471   7.532  0.5016 -1.1112 -1.8454
  868MOL0     H19775   0.755   3.372   7.511 -2.2693  3.9889 -4.7315
  868MOL0     H19776   0.922   3.319   7.706 -0.9225 -1.8069 -1.0116
  868MOL0     H19777   0.848   3.457   7.781  1.9081 -0.1148 -0.9233
  868MOL0     H19778   0.632   3.304   7.735 -1.1064 -0.0875 -0.5422
  868MOL0     H19779   0.740   3.231   7.853 -1.0094  1.3918  0.1747
  868MOL0     H19780   0.725   2.975   7.499  0.5652 -1.8158  1.8447
  868MOL0     H19781   0.546   3.767   7.549  0.8859 -1.3500  0.3694
  868MOL0     H19782   0.461   4.086   7.459 -0.3703  0.8720  0.2362
  868MOL0     H19783   0.373   3.931   7.483 -0.5917 -0.0615 -0.0210
  868MOL0     H19784   0.348   4.066   7.598  1.1919  1.1260 -0.6207
  869MOL0     O19785   3.968   9.198  10.317  0.6560  0.8515 -0.2316
  869MOL0     C19786   4.020   9.303  10.358 -0.0699 -0.0853  0.4534
  869MOL0     O19787   4.058   9.334  10.485 -0.6390 -0.1954  0.0014
  869MOL0     C19788   4.060   9.244  10.582  0.0735  0.4867 -0.9259
  869MOL0     C19789   3.954   9.243  10.680  0.0691 -0.2897 -0.1129
  869MOL0     C19790   3.940   9.152  10.788  0.4081  0.3921  0.4982
  869MOL0     C19791   4.037   9.048  10.795 -0.0838 -1.2874  0.1129
  869MOL0     O19792   4.035   8.954  10.882  0.8466  0.7027 -0.4456
  869MOL0     C19793   3.915   8.935  10.965  0.1817 -0.4675 -0.7678
  869MOL0     C19794   3.942   8.812  11.055 -0.4840 -0.2261  1.0364
  869MOL0     C19795   3.893   8.829  11.193  0.2846 -0.1329 -1.3297
  869MOL0     C19796   3.919   8.699  11.277  0.5921  0.0471 -0.8746
  869MOL0     C19797   3.812   8.681  11.392 -0.2937 -0.6933  0.4516
  869MOL0     C19798   3.670   8.641  11.338  0.3336  0.0543  0.2404
  869MOL0     C19799   3.650   8.488  11.351 -0.8425  0.2678 -0.0671
  869MOL0     C19800   3.506   8.438  11.354  0.3728  0.5056  0.2739
  869MOL0     N19801   3.454   8.455  11.220  1.1378  0.3163  0.3172
  869MOL0     C19802   3.478   8.362  11.116 -0.1839 -0.4569  0.5411
  869MOL0     C19803   3.396   8.389  11.014 -0.0797 -0.2850 -0.2182
  869MOL0     C19804   3.367   8.299  10.903  0.5216 -0.7611  0.1174
  869MOL0     C19805   3.312   8.357  10.771 -0.0745  0.0906  0.2867
  869MOL0     C19806   3.308   8.259  10.653  0.3590  0.2392 -0.1476
  869MOL0     C19807   3.210   8.139  10.660 -0.6519  0.3786  1.3972
  869MOL0     O19808   3.220   8.064  10.779 -0.0243 -0.0518 -0.3475
  869MOL0     C19809   3.147   7.942  10.790 -0.0899 -0.5235  0.1679
  869MOL0     C19810   3.018   7.919  10.751 -0.3173  0.6287  0.7248
  869MOL0     C19811   2.956   7.798  10.797  0.6993  0.5032 -0.1174
  869MOL0     C19812   2.803   7.790  10.796  1.1787 -0.4899 -0.2543
  869MOL0     C19813   3.025   7.696  10.853  0.2280  0.3675  0.3016
  869MOL0     C19814   2.962   7.574  10.911 -0.0709 -0.8505  0.7456
  869MOL0     O19815   3.001   7.546  11.039 -0.5851  0.6327 -0.3315
  869MOL0     C19816   2.950   7.436  11.099 -0.0523  0.7596  0.4556
  869MOL0     C19817   2.811   7.403  11.111  1.0350  0.3686 -0.5970
  869MOL0     C19818   2.779   7.286  11.182  0.8751  0.6307 -0.0386
  869MOL0     C19819   2.875   7.197  11.237 -0.2097 -0.5592  0.6902
  869MOL0     O19820   2.840   7.095  11.323  0.4397  0.6115  0.2803
  869MOL0     C19821   2.743   7.124  11.425  0.2913 -0.3564 -0.6024
  869MOL0     C19822   2.635   7.018  11.425 -0.3355  0.5952  0.8294
  869MOL0     C19823   2.697   6.882  11.447 -1.7713 -0.7288 -0.1101
  869MOL0     C19824   2.592   6.788  11.494  0.3804  0.2193 -0.2125
  869MOL0     C19825   2.658   6.658  11.549  0.4086  0.3132 -0.8526
  869MOL0     C19826   2.566   6.536  11.570 -0.6050 -0.2976 -0.2214
  869MOL0     C19827   2.662   6.431  11.625  0.3470 -0.1894 -0.4517
  869MOL0     C19828   2.614   6.287  11.618  0.1660 -0.2459  0.2430
  869MOL0    Cl19829   2.479   6.254  11.731 -0.1707 -0.1604  0.0539
  869MOL0     C19830   3.007   7.232  11.226 -0.2033  0.3899  0.6219
  869MOL0     C19831   3.039   7.346  11.146  0.4696  0.5842 -1.5629
  869MOL0     O19832   2.880   7.508  10.846 -0.4003 -0.5985 -0.3311
  869MOL0     C19833   3.161   7.715  10.867  0.3546  0.6419 -0.7626
  869MOL0     C19834   3.219   7.840  10.848 -0.7707  0.4965  0.7393
  869MOL0     N19835   3.331   8.504  11.050  0.7214 -0.7163 -0.3613
  869MOL0     N19836   3.356   8.541  11.176 -0.1220  0.8224  0.6559
  869MOL0     C19837   4.141   9.054  10.699 -0.0821  0.1872 -0.4812
  869MOL0     C19838   4.159   9.150  10.599 -0.0990 -1.0326  0.4707
  869MOL0     C19839   4.031   9.421  10.260 -0.3743  0.2855  0.2100
  869MOL0     C19840   3.994   9.546  10.310 -0.3092 -0.8772  1.0611
  869MOL0     C19841   3.982   9.655  10.225 -0.3918  0.2706 -0.3070
  869MOL0     C19842   3.987   9.637  10.088 -0.4401  0.6734  0.0994
  869MOL0     O19843   3.988   9.734   9.989 -0.4936  0.0113  0.2362
  869MOL0     C19844   3.903   9.850  10.027 -0.3325 -0.0762 -1.0066
  869MOL0     C19845   3.871   9.944   9.913  0.6429  0.3902 -0.4071
  869MOL0     C19846   3.733  10.001   9.911 -0.3443  0.6244 -0.1389
  869MOL0     C19847   3.698  10.092  10.023  0.1701 -0.2226 -0.5102
  869MOL0     C19848   3.790  10.204  10.016 -0.8753  1.2907 -1.0141
  869MOL0     C19849   3.862  10.302   9.996  0.3172  0.4801 -0.0209
  869MOL0     C19850   4.038   9.518  10.045  0.1526  0.5119  1.0166
  869MOL0     C19851   4.061   9.415  10.124 -0.3310  0.5047  0.2101
  869MOL0     C19852   4.113   9.287  10.065 -0.1390  0.9153  0.3913
  869MOL0     H19853   3.877   9.315  10.656  0.3390  0.5157  1.3703
  869MOL0     H19854   3.863   9.166  10.863  0.4355 -0.3697  0.6745
  869MOL0     H19855   3.828   8.907  10.906 -1.2610  2.6227 -0.3126
  869MOL0     H19856   3.896   9.018  11.033 -2.4782 -0.9218 -0.8558
  869MOL0     H19857   3.914   8.715  11.012  0.5844  0.3287 -1.0604
  869MOL0     H19858   4.051   8.796  11.060 -0.5163 -0.6408  0.5335
  869MOL0     H19859   3.931   8.913  11.252  3.0072 -1.8928 -0.3773
  869MOL0     H19860   3.786   8.847  11.182  0.2410  1.8994  1.3458
  869MOL0     H19861   3.926   8.610  11.215  1.1124 -0.5273 -0.0083
  869MOL0     H19862   4.010   8.711  11.337 -0.7507 -0.9148  1.4654
  869MOL0     H19863   3.795   8.776  11.445 -0.9754 -0.9876  0.7690
  869MOL0     H19864   3.859   8.606  11.457  0.0482 -2.0003 -1.2426
  869MOL0     H19865   3.601   8.682  11.413 -0.1355 -1.1663  0.5025
  869MOL0     H19866   3.644   8.682  11.240 -0.3108  0.9062  0.7514
  869MOL0     H19867   3.706   8.452  11.438  1.7904 -1.9641 -2.5075
  869MOL0     H19868   3.706   8.440  11.271  1.2220 -0.7393  1.8551
  869MOL0     H19869   3.500   8.335  11.392  2.7483  0.3947  0.4985
  869MOL0     H19870   3.443   8.496  11.423 -3.6946  0.7818 -3.2295
  869MOL0     H19871   3.530   8.267  11.112  1.0901  0.1836 -3.8469
  869MOL0     H19872   3.298   8.228  10.950  1.3909 -1.8474 -0.2106
  869MOL0     H19873   3.459   8.243  10.885 -0.5888 -2.6311 -0.0600
  869MOL0     H19874   3.215   8.408  10.770  0.1524  0.6053 -2.7190
  869MOL0     H19875   3.389   8.426  10.738  2.0643 -2.9690 -1.7017
  869MOL0     H19876   3.287   8.324  10.567 -0.8247  0.2684  0.1475
  869MOL0     H19877   3.413   8.229  10.644  1.1813  2.2179  1.9375
  869MOL0     H19878   3.108   8.178  10.648 -0.8454 -0.2919  0.7409
  869MOL0     H19879   3.231   8.080  10.571  5.1427  3.3614  0.3051
  869MOL0     H19880   2.964   8.002  10.707 -1.2551  0.9032  2.3296
  869MOL0     H19881   2.766   7.888  10.767  5.0486  0.6609 -1.8404
  869MOL0     H19882   2.757   7.772  10.894  0.4188  0.3696 -0.4400
  869MOL0     H19883   2.756   7.717  10.729  1.3154  1.1022 -2.1634
  869MOL0     H19884   2.741   7.474  11.069 -0.6447  0.0620  1.4720
  869MOL0     H19885   2.678   7.246  11.184  1.8466 -1.9902 -0.3285
  869MOL0     H19886   2.787   7.125  11.525 -0.1159 -2.3745 -0.3694
  869MOL0     H19887   2.701   7.222  11.402  1.9497  0.4699 -0.3057
  869MOL0     H19888   2.566   7.046  11.505 -2.9401  0.2459 -1.1496
  869MOL0     H19889   2.577   7.023  11.332 -0.7359  1.0346  1.0998
  869MOL0     H19890   2.778   6.891  11.520 -0.0971  1.6887 -2.0791
  869MOL0     H19891   2.747   6.850  11.355 -0.5925 -1.4968  0.7677
  869MOL0     H19892   2.540   6.755  11.403 -0.5851 -0.9739  0.7374
  869MOL0     H19893   2.531   6.839  11.569  2.4150 -1.2794  2.6877
  869MOL0     H19894   2.744   6.633  11.486  4.1122  1.7200  3.1998
  869MOL0     H19895   2.705   6.687  11.643  0.4244 -0.5032 -0.6005
  869MOL0     H19896   2.539   6.501  11.470 -1.6727 -3.0539  0.9202
  869MOL0     H19897   2.483   6.550  11.641  0.1264 -0.3252  0.6649
  869MOL0     H19898   2.679   6.457  11.730 -2.0609  0.6526 -0.2154
  869MOL0     H19899   2.759   6.431  11.574 -0.6346  4.0224 -2.7966
  869MOL0     H19900   2.698   6.221  11.640  0.1853 -0.1065  0.6023
  869MOL0     H19901   2.594   6.263  11.513 -2.7141  1.6567  0.2522
  869MOL0     H19902   3.076   7.169  11.280 -0.3511  1.4311  2.0884
  869MOL0     H19903   3.147   7.361  11.140  0.4421  1.4971 -0.2863
  869MOL0     H19904   3.219   7.642  10.922 -1.2453  0.2775  0.5445
  869MOL0     H19905   3.325   7.848  10.869 -0.4654  0.6988 -0.7348
  869MOL0     H19906   4.214   8.974  10.708 -1.3435 -1.0702 -1.0109
  869MOL0     H19907   4.253   9.157  10.545  0.3352 -1.8913  1.0686
  869MOL0     H19908   3.990   9.555  10.418  3.9521  0.4367  1.3019
  869MOL0     H19909   3.949   9.752  10.261  2.0570  0.8290  0.6335
  869MOL0     H19910   3.809   9.819  10.073 -1.9676  2.6648 -2.2202
  869MOL0     H19911   3.942   9.912  10.107 -0.9539  0.5990 -1.2086
  869MOL0     H19912   3.894   9.885   9.824  1.5068  0.4290 -0.2149
  869MOL0     H19913   3.942  10.027   9.917  0.5446  0.4593 -0.0802
  869MOL0     H19914   3.735  10.053   9.814  5.3108  1.0627 -0.1047
  869MOL0     H19915   3.660   9.920   9.905  1.9503 -1.4492 -2.4172
  869MOL0     H19916   3.705  10.039  10.119 -0.8110 -2.6492 -1.7098
  869MOL0     H19917   3.595  10.122  10.000 -0.2529 -1.6869 -0.5841
  869MOL0     H19918   3.929  10.379   9.964 -0.8366  0.7954 -1.8032
  869MOL0     H19919   4.055   9.500   9.939  0.4100 -1.7204  1.3953
  869MOL0     H19920   4.047   9.253   9.986  2.4011  1.6512 -2.1995
  869MOL0     H19921   4.204   9.314  10.010 -0.2468  0.4888  0.0062
  869MOL0     H19922   4.144   9.204  10.130 -1.3106 -1.1751 -1.6141
  870MOL0     O19923   8.731   3.840   9.548  0.5092  0.0646 -0.4650
  870MOL0     C19924   8.666   3.898   9.640  0.7783 -0.3374  0.9419
  870MOL0     O19925   8.699   3.891   9.777  0.1191 -0.2161  0.0120
  870MOL0     C19926   8.832   3.856   9.803 -0.2442 -0.8696  0.5877
  870MOL0     C19927   8.877   3.722   9.791 -0.4260 -0.2589 -0.6200
  870MOL0     C19928   9.016   3.695   9.817  0.1385 -0.2863  0.7359
  870MOL0     C19929   9.106   3.799   9.836  0.4859 -0.5581 -0.1459
  870MOL0     O19930   9.241   3.767   9.858 -0.1173 -0.0387  0.3518
  870MOL0     C19931   9.334   3.868   9.876  1.3935  0.5269 -0.5146
  870MOL0     C19932   9.473   3.815   9.881 -0.5622  0.2017 -0.3547
  870MOL0     C19933   9.575   3.922   9.885  0.0054  1.5843  0.8195
  870MOL0     C19934   9.720   3.879   9.896  0.0765 -0.4459  0.0789
  870MOL0     C19935   9.759   3.773  10.007 -0.2880 -0.5280 -0.1628
  870MOL0     C19936   9.904   3.740  10.008  0.1538 -0.5825  0.0800
  870MOL0     C19937   9.933   3.645  10.132 -0.4258  1.2000  0.0066
  870MOL0     C19938  10.073   3.588  10.132 -0.8341  1.2381 -0.6695
  870MOL0     N19939  10.168   3.672  10.201  0.7899 -0.0105 -0.8365
  870MOL0     C19940  10.201   3.798  10.165  0.2347 -0.2625  0.1023
  870MOL0     C19941  10.271   3.847  10.269 -0.6416 -0.3963 -0.1218
  870MOL0     C19942  10.369   3.966  10.279 -0.2161 -0.9504 -0.5714
  870MOL0     C19943  10.286   4.076  10.331 -1.0974 -0.1866 -0.3013
  870MOL0     C19944  10.357   4.213  10.339  0.6518  0.2184  0.2692
  870MOL0     C19945  10.438   4.252  10.211 -0.4192 -0.1457 -0.7102
  870MOL0     O19946  10.355   4.246  10.099  0.0219  0.2618 -0.2207
  870MOL0     C19947  10.400   4.332  10.000 -0.2490  0.3883  0.4058
  870MOL0     C19948  10.348   4.468  10.000 -0.8870  0.5778 -0.4120
  870MOL0     C19949  10.391   4.570   9.911 -0.5776 -0.1671  0.4084
  870MOL0     C19950  10.316   4.700   9.916 -0.5303 -0.8012  0.1410
  870MOL0     C19951  10.490   4.533   9.814  0.4547 -0.4187 -0.6727
  870MOL0     C19952  10.523   4.622   9.698 -0.0402  0.2311 -0.0495
  870MOL0     O19953  10.638   4.586   9.645 -0.0308 -0.2284 -0.4050
  870MOL0     C19954  10.673   4.655   9.528  0.4193  0.2189  0.2257
  870MOL0     C19955  10.758   4.767   9.527 -0.1889 -0.1626  0.1429
  870MOL0     C19956  10.775   4.833   9.402 -0.0954  0.8515 -0.3349
  870MOL0     C19957  10.712   4.790   9.286  0.0878  0.1606 -0.5464
  870MOL0     O19958  10.719   4.855   9.163 -1.1876  0.3948  0.0727
  870MOL0     C19959  10.773   4.994   9.159  0.1385 -0.8085  0.0393
  870MOL0     C19960  10.762   5.031   9.009  0.4636  0.4015  0.0483
  870MOL0     C19961  10.771   5.178   8.957  0.5504 -0.4082 -0.6361
  870MOL0     C19962  10.728   5.192   8.815  0.1905 -0.2336  0.9480
  870MOL0     C19963  10.759   5.334   8.770  0.0588 -0.2706 -0.0530
  870MOL0     C19964  10.690   5.448   8.845  0.5231 -0.9617  0.2048
  870MOL0     C19965  10.538   5.441   8.871  0.1203  0.2841  1.2833
  870MOL0     C19966  10.475   5.551   8.947  0.6417 -0.8310  0.0974
  870MOL0    Cl19967  10.547   5.584   9.110  0.2625  0.2073  0.1104
  870MOL0     C19968  10.632   4.670   9.289  0.6955  0.6684  0.0354
  870MOL0     C19969  10.620   4.605   9.411 -0.4472  0.1640 -1.1601
  870MOL0     O19970  10.441   4.693   9.647 -0.4349 -1.2998 -0.4917
  870MOL0     C19971  10.553   4.403   9.832 -0.8142  0.0057 -0.0374
  870MOL0     C19972  10.507   4.300   9.922 -0.1908 -1.0300 -0.0821
  870MOL0     N19973  10.265   3.752  10.366 -0.5610  0.9077 -0.0146
  870MOL0     N19974  10.203   3.647  10.329 -0.7072  0.1684  0.1084
  870MOL0     C19975   9.052   3.927   9.867 -0.0697 -0.6389  0.1298
  870MOL0     C19976   8.916   3.958   9.852 -0.5724  0.1208  0.1072
  870MOL0     C19977   8.532   3.966   9.607  0.0628  1.3970 -0.3317
  870MOL0     C19978   8.506   4.072   9.690 -0.5965 -0.4410  0.2020
  870MOL0     C19979   8.395   4.152   9.680 -0.0089 -0.7057 -0.4178
  870MOL0     C19980   8.296   4.127   9.581 -0.0394 -0.2103  0.8776
  870MOL0     O19981   8.181   4.201   9.587  0.2192 -0.4057  1.0958
  870MOL0     C19982   8.083   4.191   9.477  0.3681  0.0047 -0.1897
  870MOL0     C19983   7.989   4.315   9.491  0.0949  0.0044  0.1942
  870MOL0     C19984   7.853   4.281   9.560 -0.6731 -0.4689  0.2401
  870MOL0     C19985   7.814   4.404   9.640  0.0114 -0.0247 -0.2569
  870MOL0     C19986   7.739   4.497   9.551 -0.3045 -0.1121  0.1711
  870MOL0     C19987   7.683   4.568   9.471 -0.1001 -0.2790 -0.1896
  870MOL0     C19988   8.323   4.025   9.486 -0.4522 -0.1457  1.1458
  870MOL0     C19989   8.436   3.942   9.504  1.1296  0.5506  0.5142
  870MOL0     C19990   8.450   3.825   9.408 -0.7314 -0.4126  0.1060
  870MOL0     H19991   8.795   3.662   9.754 -1.4691  0.7668 -0.0211
  870MOL0     H19992   9.060   3.601   9.784  2.7193  1.1307 -0.1295
  870MOL0     H19993   9.302   3.914   9.970 -1.0005 -1.8341 -0.0426
  870MOL0     H19994   9.326   3.943   9.797  2.6355  0.0824 -1.0885
  870MOL0     H19995   9.464   3.772   9.981 -4.2714  1.2821 -0.0781
  870MOL0     H19996   9.503   3.744   9.803  0.0746 -0.7650  0.7269
  870MOL0     H19997   9.562   3.986   9.797 -1.3148 -0.8060 -0.8169
  870MOL0     H19998   9.558   3.983   9.975  1.3099  2.9041  0.2137
  870MOL0     H19999   9.747   3.835   9.800  2.4607  1.5090 -0.2388
  870MOL0     H20000   9.780   3.970   9.908 -1.6497  1.0080 -1.7455
  870MOL0     H20001   9.699   3.682   9.998 -0.8464 -0.3988  1.6699
  870MOL0     H20002   9.739   3.817  10.106 -0.0633 -3.2392  1.1710
  870MOL0     H20003   9.950   3.708   9.914  3.5245  3.0481  0.1771
  870MOL0     H20004   9.957   3.836  10.013  0.1425 -0.6170  1.2351
  870MOL0     H20005   9.866   3.559  10.128  0.3598  0.6106 -2.1594
  870MOL0     H20006   9.917   3.687  10.231 -1.1897 -2.8477  1.8134
  870MOL0     H20007  10.072   3.490  10.181 -0.7925  1.3600 -0.4201
  870MOL0     H20008  10.113   3.561  10.034  0.8784  0.0912  0.2852
  870MOL0     H20009  10.191   3.853  10.072  0.6258  2.7334  1.7149
  870MOL0     H20010  10.412   3.989  10.181 -0.1494 -1.2170 -0.6050
  870MOL0     H20011  10.447   3.940  10.351 -0.8502  0.4460  0.6793
  870MOL0     H20012  10.202   4.078  10.261 -0.5349 -4.3841 -1.4002
  870MOL0     H20013  10.249   4.048  10.430  1.0950  0.8029  0.8564
  870MOL0     H20014  10.273   4.282  10.349 -0.9526 -1.9789  3.7402
  870MOL0     H20015  10.413   4.218  10.433 -1.0191 -1.0633  1.3970
  870MOL0     H20016  10.488   4.348  10.229  0.5428 -1.0069  1.7639
  870MOL0     H20017  10.516   4.175  10.213  0.9179  1.1586 -0.3104
  870MOL0     H20018  10.266   4.494  10.066 -1.2653 -1.1927 -0.1322
  870MOL0     H20019  10.385   4.785   9.917 -0.3457 -0.9079  2.7553
  870MOL0     H20020  10.256   4.711  10.007 -0.1130 -1.0356  0.4494
  870MOL0     H20021  10.250   4.708   9.829  1.2513  0.1420 -1.1688
  870MOL0     H20022  10.780   4.809   9.625 -1.6274 -0.4862  0.6402
  870MOL0     H20023  10.833   4.924   9.406  1.0376  0.1241  0.4302
  870MOL0     H20024  10.716   5.056   9.229  4.0942  1.6790  1.3788
  870MOL0     H20025  10.877   5.010   9.187 -0.0361 -2.3260  1.7386
  870MOL0     H20026  10.849   4.979   8.967 -0.0303 -0.2432 -0.1971
  870MOL0     H20027  10.671   4.990   8.965  0.3672  2.1734 -1.5090
  870MOL0     H20028  10.874   5.213   8.971  1.5911 -3.0963 -0.9592
  870MOL0     H20029  10.708   5.234   9.027  0.9249 -2.1098  1.1644
  870MOL0     H20030  10.621   5.172   8.812  0.3741 -1.4609  1.6226
  870MOL0     H20031  10.789   5.130   8.749  0.2862  2.4410 -1.6748
  870MOL0     H20032  10.867   5.350   8.783 -0.4624  1.1872  3.9792
  870MOL0     H20033  10.734   5.344   8.664 -1.6917 -0.1157  0.3465
  870MOL0     H20034  10.690   5.543   8.792 -0.7737 -0.1308  1.6130
  870MOL0     H20035  10.730   5.447   8.947 -4.6800 -0.7318  2.5940
  870MOL0     H20036  10.523   5.347   8.924  0.2669 -0.0524  0.7354
  870MOL0     H20037  10.469   5.428   8.787 -0.7800 -1.5136  2.2315
  870MOL0     H20038  10.367   5.534   8.957  0.6046 -0.3673  0.5429
  870MOL0     H20039  10.472   5.634   8.875  0.4499 -0.5772  0.3937
  870MOL0     H20040  10.572   4.637   9.205 -0.7618  0.9980  0.9075
  870MOL0     H20041  10.561   4.515   9.428 -1.7492  1.1353 -0.3537
  870MOL0     H20042  10.637   4.376   9.768 -0.1188 -2.1477  1.6691
  870MOL0     H20043  10.560   4.208   9.943 -0.1341 -0.3966  3.1258
  870MOL0     H20044   9.110   4.007   9.913 -0.5120 -0.1010 -0.2447
  870MOL0     H20045   8.884   4.062   9.852  4.7731  2.0652  1.5619
  870MOL0     H20046   8.570   4.093   9.775 -1.8718  0.1721  1.0354
  870MOL0     H20047   8.373   4.237   9.744 -0.1440 -0.1825 -1.1428
  870MOL0     H20048   8.137   4.201   9.383  2.3197  0.0064  0.8825
  870MOL0     H20049   8.029   4.097   9.486  0.9635 -0.2807  0.5419
  870MOL0     H20050   7.955   4.351   9.394  0.0165 -0.9360 -0.1414
  870MOL0     H20051   8.044   4.400   9.534  2.1595 -1.1851  0.0323
  870MOL0     H20052   7.766   4.253   9.500 -0.0410  1.3675 -1.6511
  870MOL0     H20053   7.877   4.200   9.630  1.3937 -1.7718 -1.8285
  870MOL0     H20054   7.895   4.466   9.679  0.4110 -1.2226  0.8532
  870MOL0     H20055   7.741   4.373   9.715  1.1270  1.6249  1.5995
  870MOL0     H20056   7.628   4.625   9.399 -0.5097 -0.0638  0.2856
  870MOL0     H20057   8.259   4.018   9.398  0.6472  1.0662  0.2128
  870MOL0     H20058   8.496   3.850   9.312  1.7415 -0.1476  1.2893
  870MOL0     H20059   8.496   3.747   9.469  0.2319  1.1410  1.4613
  870MOL0     H20060   8.365   3.760   9.383  2.1814 -3.4171 -3.0551
  871MOL0     O20061   5.582   7.571   5.653 -0.8776 -0.1578 -0.8112
  871MOL0     C20062   5.685   7.633   5.687  0.3989 -0.3548  0.0913
  871MOL0     O20063   5.810   7.582   5.683 -0.0872 -0.0594  0.3238
  871MOL0     C20064   5.832   7.451   5.679  1.1637  0.0130 -0.5981
  871MOL0     C20065   5.946   7.409   5.619 -0.3318  0.3445  0.4985
  871MOL0     C20066   5.973   7.269   5.609  0.0753 -0.0278  0.4061
  871MOL0     C20067   5.878   7.175   5.657 -0.7613  0.4544  0.3886
  871MOL0     O20068   5.896   7.041   5.641  1.1038 -1.3380  0.0679
  871MOL0     C20069   5.849   7.000   5.509 -0.1345 -0.1631  0.2525
  871MOL0     C20070   5.863   6.845   5.502 -0.0035 -0.2127 -0.3888
  871MOL0     C20071   5.803   6.775   5.637  0.5489 -0.1279 -0.4142
  871MOL0     C20072   5.807   6.619   5.635  0.3922 -1.3613 -0.0225
  871MOL0     C20073   5.948   6.567   5.607  0.0275 -0.4756  0.4211
  871MOL0     C20074   5.976   6.439   5.681 -0.4903 -0.3278 -0.0669
  871MOL0     C20075   6.078   6.359   5.596 -0.1247  0.6372  0.6742
  871MOL0     C20076   6.118   6.237   5.677  0.6058 -0.2683 -0.7082
  871MOL0     N20077   6.236   6.167   5.622 -0.1177 -0.6234  0.0259
  871MOL0     C20078   6.360   6.220   5.585 -0.5019 -0.1895 -0.4225
  871MOL0     C20079   6.439   6.111   5.550 -0.1653 -0.0357 -0.7329
  871MOL0     C20080   6.582   6.109   5.518 -0.0843  0.4813  0.5470
  871MOL0     C20081   6.604   6.033   5.394  0.6719 -0.9573  0.0571
  871MOL0     C20082   6.751   6.057   5.350 -0.5021  0.5171  0.5857
  871MOL0     C20083   6.798   6.003   5.206 -0.6970  0.0662  0.3961
  871MOL0     O20084   6.794   5.859   5.197 -0.3579  0.5792  0.0945
  871MOL0     C20085   6.777   5.794   5.081  0.4332  0.1281 -1.1487
  871MOL0     C20086   6.771   5.852   4.953 -0.1484 -0.7198  0.9282
  871MOL0     C20087   6.759   5.769   4.831  0.0520 -0.4705 -0.2892
  871MOL0     C20088   6.749   5.835   4.696 -0.4722 -0.4352  0.2801
  871MOL0     C20089   6.735   5.630   4.854 -0.3336 -0.4401  0.6521
  871MOL0     C20090   6.707   5.543   4.744 -0.3301  0.6580 -0.2271
  871MOL0     O20091   6.620   5.443   4.770  0.0988  0.1055 -0.4590
  871MOL0     C20092   6.569   5.373   4.665 -0.8455  0.2380  0.0934
  871MOL0     C20093   6.541   5.233   4.680  0.1495  0.4014 -0.6471
  871MOL0     C20094   6.476   5.160   4.582 -0.0547 -0.3116  1.1504
  871MOL0     C20095   6.453   5.214   4.457 -0.8168  0.2218  0.2595
  871MOL0     O20096   6.418   5.140   4.349  0.1407  0.1067  0.3300
  871MOL0     C20097   6.326   5.192   4.243  0.4243 -0.3202 -0.1433
  871MOL0     C20098   6.182   5.210   4.299 -0.2637  0.4273  0.4337
  871MOL0     C20099   6.080   5.273   4.207 -0.4628  0.0372  0.4182
  871MOL0     C20100   6.123   5.398   4.130  0.1689 -0.5323  0.7858
  871MOL0     C20101   6.006   5.460   4.042  0.3328  0.4101 -0.3699
  871MOL0     C20102   6.066   5.562   3.944 -0.4112  0.4838 -0.2930
  871MOL0     C20103   5.961   5.620   3.848 -0.1690  0.1808  0.9595
  871MOL0     C20104   5.870   5.720   3.902 -0.2344 -0.0400 -0.5469
  871MOL0    Cl20105   5.950   5.879   3.923 -0.7702  0.6224 -0.4172
  871MOL0     C20106   6.465   5.355   4.450 -0.0935  0.8309  0.0211
  871MOL0     C20107   6.517   5.432   4.551  0.2187  0.8310  1.2163
  871MOL0     O20108   6.773   5.550   4.641 -0.4672  0.8616  0.2996
  871MOL0     C20109   6.728   5.576   4.989  0.2530 -0.8930  0.2650
  871MOL0     C20110   6.749   5.657   5.098  0.0783 -0.0364  0.0495
  871MOL0     N20111   6.363   6.005   5.570  0.4797 -0.7332 -0.1874
  871MOL0     N20112   6.244   6.032   5.607  0.7417 -0.1293  0.2795
  871MOL0     C20113   5.767   7.225   5.721 -0.0655 -0.2806 -0.0168
  871MOL0     C20114   5.744   7.361   5.734  0.8150  0.3631  0.2672
  871MOL0     C20115   5.674   7.752   5.758  0.2495 -0.4367  0.0656
  871MOL0     C20116   5.785   7.843   5.748  0.7059  1.0076  0.0636
  871MOL0     C20117   5.783   7.954   5.821  0.1766  0.4328  0.9164
  871MOL0     C20118   5.673   7.989   5.907 -0.5575 -0.1760 -0.1609
  871MOL0     O20119   5.662   8.105   5.979 -0.2359  0.1679  1.0354
  871MOL0     C20120   5.760   8.135   6.083 -0.4353  0.4387  0.6098
  871MOL0     C20121   5.889   8.210   6.037  0.1513  0.2195 -0.6192
  871MOL0     C20122   5.964   8.263   6.160  1.2856  0.9483 -1.0540
  871MOL0     C20123   6.114   8.300   6.134  0.1889 -0.3264 -0.0210
  871MOL0     C20124   6.182   8.174   6.116 -0.3436 -0.4097  0.0350
  871MOL0     C20125   6.236   8.072   6.101 -0.5187  0.0794  0.5289
  871MOL0     C20126   5.579   7.889   5.934  0.2050  0.3550  0.1684
  871MOL0     C20127   5.568   7.778   5.843  0.9937  0.5203  0.1196
  871MOL0     C20128   5.453   7.679   5.883  0.5377 -0.3181 -1.7037
  871MOL0     H20129   6.013   7.476   5.566  0.8224  0.4247  1.9712
  871MOL0     H20130   6.062   7.235   5.557  0.6702  0.0042  1.3700
  871MOL0     H20131   5.896   7.050   5.424 -1.7313 -0.3187 -0.7626
  871MOL0     H20132   5.741   7.009   5.492 -0.4072 -1.3724  1.1917
  871MOL0     H20133   5.811   6.826   5.407 -0.9052 -0.7756  0.2011
  871MOL0     H20134   5.964   6.808   5.480  0.0757 -1.2850  1.5358
  871MOL0     H20135   5.855   6.812   5.726 -1.1506  1.6953 -0.1008
  871MOL0     H20136   5.704   6.817   5.658  0.3306 -1.3856  1.3222
  871MOL0     H20137   5.773   6.575   5.729 -0.5236  0.2151  0.4155
  871MOL0     H20138   5.742   6.586   5.554  0.1823 -1.9293  0.3776
  871MOL0     H20139   6.035   6.634   5.611  0.4878 -0.9611 -0.9882
  871MOL0     H20140   5.947   6.531   5.504  2.5832  2.7364 -0.9106
  871MOL0     H20141   6.005   6.449   5.786 -2.0441  0.0029  0.3523
  871MOL0     H20142   5.890   6.372   5.669  0.2915 -1.9836  2.6145
  871MOL0     H20143   6.162   6.429   5.596 -0.8959  1.5944 -0.4705
  871MOL0     H20144   6.025   6.334   5.504 -1.0517 -1.9981  1.8273
  871MOL0     H20145   6.139   6.267   5.780 -0.7744  2.8058 -1.2183
  871MOL0     H20146   6.034   6.167   5.679  0.1135  0.2915  2.0648
  871MOL0     H20147   6.390   6.323   5.572  0.8754 -0.7402 -1.8728
  871MOL0     H20148   6.636   6.062   5.601  0.8815 -0.1584 -0.4218
  871MOL0     H20149   6.622   6.211   5.511 -0.3250  0.7382  2.4479
  871MOL0     H20150   6.585   5.926   5.408 -1.9211 -0.5968 -0.3687
  871MOL0     H20151   6.532   6.075   5.324  1.4134  1.9654  0.9000
  871MOL0     H20152   6.774   6.163   5.341  2.4824 -0.1401 -0.5807
  871MOL0     H20153   6.809   6.017   5.434 -1.4903  2.0710  2.0783
  871MOL0     H20154   6.732   6.052   5.134 -0.5647  0.7917  0.7529
  871MOL0     H20155   6.899   6.035   5.178 -1.9782  4.8838  0.4700
  871MOL0     H20156   6.805   5.953   4.934  0.9567 -1.0398  1.1680
  871MOL0     H20157   6.813   5.779   4.627 -2.3732 -1.9706 -0.3096
  871MOL0     H20158   6.777   5.940   4.700 -0.6463 -0.3617 -0.3011
  871MOL0     H20159   6.643   5.819   4.677  0.0479 -5.1367  0.0408
  871MOL0     H20160   6.577   5.182   4.768  2.8834 -0.5232 -2.1680
  871MOL0     H20161   6.468   5.052   4.586  0.0007 -0.2925  2.0766
  871MOL0     H20162   6.370   5.280   4.196 -0.8510  1.0033  1.0697
  871MOL0     H20163   6.310   5.116   4.166  1.1058 -0.9623  0.3274
  871MOL0     H20164   6.153   5.105   4.306  0.8461  0.1469  1.0155
  871MOL0     H20165   6.184   5.253   4.399  0.2841  3.5793 -0.8235
  871MOL0     H20166   6.004   5.322   4.268  0.9377  0.7047  1.6935
  871MOL0     H20167   6.032   5.194   4.149 -2.3788  1.0942  0.4913
  871MOL0     H20168   6.199   5.358   4.061 -0.3539 -1.1301  0.5418
  871MOL0     H20169   6.163   5.484   4.184  2.4266  0.3597 -2.0655
  871MOL0     H20170   5.974   5.376   3.979 -0.7024  0.7735 -0.3475
  871MOL0     H20171   5.930   5.500   4.109  1.1584 -1.2345  1.6388
  871MOL0     H20172   6.155   5.530   3.890 -1.5237  0.2417 -2.0535
  871MOL0     H20173   6.099   5.653   3.996 -2.6992 -0.1685  2.5871
  871MOL0     H20174   5.897   5.543   3.806  0.3687  1.6271 -2.8909
  871MOL0     H20175   6.005   5.667   3.759 -2.7802 -0.7462 -0.9277
  871MOL0     H20176   5.848   5.690   4.004  1.4523 -0.6780 -0.3347
  871MOL0     H20177   5.777   5.735   3.846 -0.4048 -0.7273 -0.4579
  871MOL0     H20178   6.423   5.403   4.362 -1.5941 -0.4488  0.0091
  871MOL0     H20179   6.539   5.537   4.535  1.5633  0.0394 -3.7634
  871MOL0     H20180   6.693   5.475   5.010 -2.5784  0.6128  3.8503
  871MOL0     H20181   6.762   5.611   5.196  0.3866  0.4307  0.2338
  871MOL0     H20182   5.703   7.163   5.782  2.6273  0.7387  4.3262
  871MOL0     H20183   5.657   7.402   5.785  1.9408  2.7506  0.4119
  871MOL0     H20184   5.877   7.828   5.693  1.1943 -1.8959  1.4831
  871MOL0     H20185   5.866   8.023   5.812  1.0810 -0.7121  0.1636
  871MOL0     H20186   5.707   8.193   6.159  1.0944  1.6957  0.7632
  871MOL0     H20187   5.783   8.038   6.128  0.6585 -0.5782 -1.9498
  871MOL0     H20188   5.854   8.293   5.975  0.1419 -1.7820 -3.5094
  871MOL0     H20189   5.953   8.147   5.975  0.6534 -0.7733  0.8480
  871MOL0     H20190   5.897   8.342   6.194  2.0258  1.9715 -1.9082
  871MOL0     H20191   5.960   8.189   6.240 -0.9584  2.7481  0.6386
  871MOL0     H20192   6.153   8.338   6.229  2.7714 -0.3327 -1.0053
  871MOL0     H20193   6.116   8.359   6.042 -2.4730 -1.4900 -0.9465
  871MOL0     H20194   6.283   7.979   6.078 -0.4398 -0.8996  3.9973
  871MOL0     H20195   5.504   7.901   6.013 -1.2388  0.3574 -1.1534
  871MOL0     H20196   5.414   7.712   5.980  3.2747 -1.8284  0.0223
  871MOL0     H20197   5.369   7.681   5.813 -0.8256  1.4808 -0.1287
  871MOL0     H20198   5.492   7.577   5.894 -2.7850 -1.6076 -0.5408
  872MOL0     O20199  10.044  11.255   5.710  0.1220  0.3050  1.0473
  872MOL0     C20200  10.042  11.158   5.635  0.3329 -0.0454  0.4673
  872MOL0     O20201   9.992  11.157   5.510  0.1764 -0.0283  0.4196
  872MOL0     C20202   9.931  11.268   5.451 -0.3408  0.8986  0.6872
  872MOL0     C20203   9.805  11.245   5.406 -0.0845  0.2466 -0.6749
  872MOL0     C20204   9.719  11.347   5.354 -0.5237 -0.6788 -0.5229
  872MOL0     C20205   9.773  11.475   5.331  0.7586 -0.2179 -0.1971
  872MOL0     O20206   9.707  11.585   5.274  0.3568  0.3381 -0.0208
  872MOL0     C20207   9.588  11.561   5.196  0.1731  0.4288 -0.2748
  872MOL0     C20208   9.545  11.694   5.139  0.5420 -0.7780  0.0529
  872MOL0     C20209   9.442  11.678   5.024 -0.2374 -0.6279 -0.6585
  872MOL0     C20210   9.312  11.759   5.051  0.2747 -0.3710  0.5414
  872MOL0     C20211   9.212  11.732   4.935 -0.2856  0.5773  0.2484
  872MOL0     C20212   9.132  11.601   4.940 -0.1719  0.9001 -0.8588
  872MOL0     C20213   9.018  11.595   4.837 -0.1193 -0.4785 -0.7110
  872MOL0     C20214   8.953  11.456   4.832 -0.0287 -0.7399  0.3867
  872MOL0     N20215   8.847  11.444   4.934  0.0625  0.6694  0.4024
  872MOL0     C20216   8.800  11.316   4.972  0.7257 -1.2616  0.4272
  872MOL0     C20217   8.704  11.351   5.061  0.9542  0.9786 -0.4944
  872MOL0     C20218   8.632  11.243   5.146  0.1597 -0.4204 -0.6198
  872MOL0     C20219   8.583  11.128   5.051  0.6641 -0.6998  0.5185
  872MOL0     C20220   8.536  11.003   5.125 -0.7398 -0.2896  0.6979
  872MOL0     C20221   8.390  11.012   5.181 -1.5617  1.0501 -0.2254
  872MOL0     O20222   8.277  11.050   5.097  1.2735  0.5448  0.7008
  872MOL0     C20223   8.152  11.074   5.154 -0.9754 -0.1277 -0.2049
  872MOL0     C20224   8.051  11.108   5.063 -0.1430 -0.1742 -0.4459
  872MOL0     C20225   7.924  11.149   5.100 -0.0159 -0.1810 -0.5371
  872MOL0     C20226   7.827  11.192   4.998  0.2579 -0.9994  0.6512
  872MOL0     C20227   7.880  11.123   5.236 -0.4810 -0.9698 -0.6594
  872MOL0     C20228   7.744  11.113   5.291  0.1283 -1.1653  0.6647
  872MOL0     O20229   7.644  11.162   5.217  0.1640  0.4202  0.3634
  872MOL0     C20230   7.519  11.174   5.265 -0.7695 -0.2103  0.1988
  872MOL0     C20231   7.413  11.166   5.181  0.5829 -0.3756  0.4536
  872MOL0     C20232   7.282  11.185   5.229 -0.2083  0.0724  0.1406
  872MOL0     C20233   7.254  11.214   5.366 -0.2514  0.1397 -0.2496
  872MOL0     O20234   7.122  11.192   5.402 -0.0079 -0.1641 -0.0943
  872MOL0     C20235   7.055  11.286   5.491 -0.9827  0.0701  0.1817
  872MOL0     C20236   7.078  11.213   5.626  0.4872  0.2475  1.0074
  872MOL0     C20237   6.987  11.303   5.718 -1.0116  0.8147 -0.1692
  872MOL0     C20238   7.058  11.309   5.857  0.1588  0.6005 -0.6879
  872MOL0     C20239   6.975  11.375   5.967 -0.2399  0.5424  0.2790
  872MOL0     C20240   7.015  11.337   6.115  0.2409 -0.0421 -0.3544
  872MOL0     C20241   7.163  11.376   6.155 -1.1604  0.4857  0.3734
  872MOL0     C20242   7.181  11.365   6.302 -0.1625  0.3743  1.4618
  872MOL0    Cl20243   7.067  11.464   6.386 -0.5817  0.0721 -0.2157
  872MOL0     C20244   7.359  11.237   5.450  0.1578  0.2830 -0.1425
  872MOL0     C20245   7.494  11.221   5.400  0.1744  0.3071  0.1305
  872MOL0     O20246   7.730  11.059   5.396 -0.1276  1.2533  0.1983
  872MOL0     C20247   7.984  11.086   5.326  0.5031 -0.0601 -0.3482
  872MOL0     C20248   8.112  11.053   5.293  0.4747 -0.3869  0.6625
  872MOL0     N20249   8.678  11.487   5.059 -0.1160 -0.8762  0.4759
  872MOL0     N20250   8.776  11.541   4.992  0.3073 -0.1734 -0.2408
  872MOL0     C20251   9.905  11.498   5.364  0.2324 -0.3798 -0.8891
  872MOL0     C20252   9.985  11.397   5.435 -0.7598  0.2393 -0.1598
  872MOL0     C20253  10.124  11.032   5.664  0.2328  0.4138 -0.2711
  872MOL0     C20254  10.153  10.943   5.564 -0.9868 -0.6098 -0.1295
  872MOL0     C20255  10.212  10.822   5.585  0.3662 -0.6031 -1.0314
  872MOL0     C20256  10.248  10.779   5.713  0.3598  0.5095 -0.0486
  872MOL0     O20257  10.282  10.644   5.726  0.8479 -0.4438 -0.7498
  872MOL0     C20258  10.319  10.591   5.859 -0.1813 -0.0943 -0.4123
  872MOL0     C20259  10.457  10.644   5.907 -0.3503 -0.1318  0.0887
  872MOL0     C20260  10.552  10.653   5.775  0.1470 -0.2601 -1.1881
  872MOL0     C20261  10.691  10.676   5.822 -0.4293 -0.4641  0.0044
  872MOL0     C20262  10.788  10.707   5.717 -0.1576 -1.3154 -0.4836
  872MOL0     C20263  10.884  10.698   5.648  0.6604  1.1056  0.1599
  872MOL0     C20264  10.227  10.863   5.819  0.3429  0.8219  0.5552
  872MOL0     C20265  10.162  10.986   5.794  0.0688  0.3220  0.1141
  872MOL0     C20266  10.133  11.070   5.910 -0.6247 -0.6561 -0.5648
  872MOL0     H20267   9.765  11.147   5.428  0.5018  0.5774  2.3555
  872MOL0     H20268   9.617  11.336   5.319 -0.0224 -2.0837 -1.6242
  872MOL0     H20269   9.510  11.523   5.263  1.6068  1.7480  2.3067
  872MOL0     H20270   9.618  11.495   5.115  3.9474  1.9433 -0.3122
  872MOL0     H20271   9.504  11.760   5.215 -1.0510  1.0445 -2.2289
  872MOL0     H20272   9.626  11.740   5.081 -0.9282  2.3419  0.2896
  872MOL0     H20273   9.484  11.719   4.931  0.9869 -0.7250 -0.1607
  872MOL0     H20274   9.425  11.572   5.007  0.9658 -0.7277 -1.2891
  872MOL0     H20275   9.261  11.736   5.145 -1.3392 -0.5087 -0.3274
  872MOL0     H20276   9.330  11.867   5.042  0.7139 -0.4978 -0.1491
  872MOL0     H20277   9.257  11.745   4.837  0.4735 -2.5376  0.0723
  872MOL0     H20278   9.132  11.807   4.940  1.1878  2.3145 -1.0906
  872MOL0     H20279   9.207  11.522   4.930  2.6631  3.4895 -1.8934
  872MOL0     H20280   9.082  11.595   5.037  1.1901  1.7408 -0.0706
  872MOL0     H20281   9.065  11.622   4.742  1.2967  2.4609  0.6668
  872MOL0     H20282   8.950  11.678   4.858  0.1774 -0.4281  0.1265
  872MOL0     H20283   8.910  11.413   4.741  0.6315 -3.9006  1.4532
  872MOL0     H20284   9.045  11.398   4.839  0.8759  0.4898 -0.7245
  872MOL0     H20285   8.833  11.217   4.941  1.1274 -1.0788  0.2582
  872MOL0     H20286   8.548  11.276   5.208 -0.6320 -3.2944 -0.0119
  872MOL0     H20287   8.693  11.193   5.222 -1.9186 -0.7132  0.9411
  872MOL0     H20288   8.511  11.159   4.974 -0.4443 -3.4038  0.3613
  872MOL0     H20289   8.667  11.101   4.986 -1.3490  2.8830 -4.2289
  872MOL0     H20290   8.554  10.921   5.055 -1.0484  2.0649 -2.3651
  872MOL0     H20291   8.605  10.983   5.208 -0.3421 -0.9250  0.2311
  872MOL0     H20292   8.378  10.912   5.222  1.0801  0.0228 -1.6715
  872MOL0     H20293   8.384  11.080   5.266 -4.3807  0.9107 -0.2163
  872MOL0     H20294   8.082  11.105   4.959 -2.0667 -2.5463 -1.0493
  872MOL0     H20295   7.872  11.224   4.903  2.3865 -4.5549  0.2613
  872MOL0     H20296   7.776  11.281   5.037  1.7606 -0.5392  1.6439
  872MOL0     H20297   7.753  11.114   4.976 -2.9177  1.3249  2.3051
  872MOL0     H20298   7.432  11.146   5.076 -0.9279  0.5506 -0.0288
  872MOL0     H20299   7.198  11.172   5.161 -1.2076  0.4104  1.2892
  872MOL0     H20300   7.116  11.377   5.482 -0.4630 -0.3836 -1.1268
  872MOL0     H20301   6.952  11.310   5.465 -0.2779  2.6893 -0.5880
  872MOL0     H20302   7.033  11.113   5.621  1.7140 -0.3400  1.2718
  872MOL0     H20303   7.181  11.190   5.653  0.2753  1.6980  3.2908
  872MOL0     H20304   6.886  11.261   5.725  0.1893 -2.0633  1.8680
  872MOL0     H20305   6.978  11.406   5.683  0.1184  0.0764 -2.8989
  872MOL0     H20306   7.160  11.347   5.850  1.2858 -2.3373 -1.7767
  872MOL0     H20307   7.071  11.206   5.893  0.7599  0.7198 -0.5588
  872MOL0     H20308   6.967  11.483   5.953 -2.9058  0.4079  0.2027
  872MOL0     H20309   6.871  11.358   5.939 -0.1260  2.1395 -1.3327
  872MOL0     H20310   6.987  11.235   6.139  3.1240 -0.9431 -0.4429
  872MOL0     H20311   6.949  11.402   6.173 -3.6384  0.7944 -5.0243
  872MOL0     H20312   7.189  11.481   6.142 -1.8882  1.1508  3.3835
  872MOL0     H20313   7.238  11.307   6.116 -2.1675 -3.0845  4.0570
  872MOL0     H20314   7.282  11.400   6.323 -0.5419  0.7444  2.7904
  872MOL0     H20315   7.175  11.262   6.338  2.1617  0.5021  2.3697
  872MOL0     H20316   7.340  11.265   5.553 -2.6570  1.3104 -0.8577
  872MOL0     H20317   7.581  11.237   5.464  0.0489 -1.5308  0.8290
  872MOL0     H20318   7.954  11.087   5.430  0.2412 -2.4049 -0.3581
  872MOL0     H20319   8.186  11.032   5.369  0.1991 -1.3141  0.6898
  872MOL0     H20320   9.946  11.590   5.326 -0.6750  0.8351  0.9510
  872MOL0     H20321  10.088  11.418   5.461 -1.8768  0.7486  4.7268
  872MOL0     H20322  10.123  10.966   5.462 -2.5721 -0.2154  0.3885
  872MOL0     H20323  10.237  10.761   5.499 -0.6200  2.7004 -3.8869
  872MOL0     H20324  10.255  10.620   5.943 -0.8000  0.8922 -1.1955
  872MOL0     H20325  10.339  10.484   5.866  3.2300  0.5127  1.0276
  872MOL0     H20326  10.491  10.593   5.997  0.4532 -0.6554 -0.4951
  872MOL0     H20327  10.449  10.746   5.946  0.0979  0.2723 -0.8316
  872MOL0     H20328  10.551  10.559   5.717 -2.0280 -1.0158 -0.0128
  872MOL0     H20329  10.516  10.729   5.706 -1.7001 -0.0950 -0.1032
  872MOL0     H20330  10.736  10.586   5.865  2.3596  0.2443 -1.2185
  872MOL0     H20331  10.703  10.757   5.894  0.8452 -0.8406  0.2382
  872MOL0     H20332  10.982  10.703   5.606  1.4226 -1.2036  1.4594
  872MOL0     H20333  10.258  10.842   5.921  1.0323  0.8239  0.3461
  872MOL0     H20334  10.025  11.085   5.903 -1.0942 -1.2436  3.0918
  872MOL0     H20335  10.148  11.020   6.006  0.4117  0.2439 -0.2481
  872MOL0     H20336  10.184  11.166   5.900 -0.0991 -1.0926 -2.3766
  873MOL0     O20337  10.513   6.112   5.484  0.3324 -0.3159 -0.2705
  873MOL0     C20338  10.415   6.130   5.564 -0.8024  0.7564  0.4865
  873MOL0     O20339  10.322   6.034   5.586 -0.0083 -0.5890  0.3467
  873MOL0     C20340  10.293   5.939   5.489 -0.0724 -0.6105  0.0317
  873MOL0     C20341  10.338   5.815   5.532 -0.2213 -0.0448 -0.9426
  873MOL0     C20342  10.312   5.694   5.456 -0.1142  0.3458 -0.2109
  873MOL0     C20343  10.241   5.703   5.333 -0.0971 -0.4353 -0.3607
  873MOL0     O20344  10.235   5.587   5.258  0.5140  0.0902 -0.2801
  873MOL0     C20345  10.103   5.553   5.216  0.9929  0.4440  0.4064
  873MOL0     C20346  10.017   5.533   5.344 -0.0428  0.0536  0.4945
  873MOL0     C20347   9.884   5.464   5.295  0.6575 -0.1065  0.3079
  873MOL0     C20348   9.759   5.509   5.367  0.0287 -0.2509 -0.1175
  873MOL0     C20349   9.642   5.440   5.304  0.9385  0.2479 -0.9963
  873MOL0     C20350   9.511   5.451   5.392  1.6157 -0.2271  0.5766
  873MOL0     C20351   9.479   5.589   5.440 -0.5273 -0.6425 -0.1769
  873MOL0     C20352   9.356   5.590   5.524 -0.1538 -0.5809 -0.3597
  873MOL0     N20353   9.290   5.722   5.547  0.0914 -1.1346  1.4018
  873MOL0     C20354   9.348   5.816   5.632 -0.1603 -0.2302 -0.5344
  873MOL0     C20355   9.269   5.927   5.613 -0.4187 -0.1259 -0.3153
  873MOL0     C20356   9.269   6.046   5.700  0.0474 -0.1287 -0.4009
  873MOL0     C20357   9.273   6.169   5.617 -0.1412 -0.0232 -0.1493
  873MOL0     C20358   9.420   6.234   5.609  0.3710  0.5910  0.8044
  873MOL0     C20359   9.422   6.386   5.564 -0.0799 -0.9862 -0.1739
  873MOL0     O20360   9.559   6.433   5.556 -0.5843 -0.4979 -0.3693
  873MOL0     C20361   9.603   6.473   5.431  0.2638 -0.0474 -0.3103
  873MOL0     C20362   9.690   6.578   5.421  0.0852 -1.0586 -0.2706
  873MOL0     C20363   9.740   6.632   5.299 -0.3818  0.3976 -0.1851
  873MOL0     C20364   9.801   6.769   5.300  0.2220  0.5745 -0.0533
  873MOL0     C20365   9.737   6.548   5.186 -0.1021  0.4080  0.3804
  873MOL0     C20366   9.785   6.579   5.047 -0.4331  0.6144 -0.1627
  873MOL0     O20367   9.773   6.479   4.955  0.8820 -0.4765 -0.1110
  873MOL0     C20368   9.787   6.506   4.821 -0.1749  0.4160  0.1007
  873MOL0     C20369   9.724   6.406   4.739 -0.1786 -0.0453 -0.4133
  873MOL0     C20370   9.719   6.421   4.609  0.5947  0.1561 -0.0693
  873MOL0     C20371   9.768   6.531   4.537 -0.1469 -1.0816  1.3839
  873MOL0     O20372   9.762   6.541   4.397  0.1398  0.1208  1.2675
  873MOL0     C20373   9.692   6.439   4.323 -0.3059  0.2366 -0.4855
  873MOL0     C20374   9.543   6.475   4.338  0.0322 -0.2308 -0.2560
  873MOL0     C20375   9.464   6.400   4.227  1.0171 -0.3849 -0.7038
  873MOL0     C20376   9.315   6.452   4.231  0.0613 -0.0943 -0.8413
  873MOL0     C20377   9.220   6.330   4.216  0.7228 -0.2664  1.3834
  873MOL0     C20378   9.210   6.283   4.068 -0.2186 -1.1612  0.0154
  873MOL0     C20379   9.114   6.174   4.048  0.0796  0.0245  0.1056
  873MOL0     C20380   9.069   6.162   3.902 -0.1081  0.0510 -0.2239
  873MOL0    Cl20381   8.965   6.025   3.889 -0.6615  0.3422  0.1509
  873MOL0     C20382   9.822   6.625   4.617 -0.0664 -0.1950 -0.7059
  873MOL0     C20383   9.828   6.620   4.753 -0.8756  0.0451 -0.8940
  873MOL0     O20384   9.832   6.687   5.025 -1.6497 -0.3053 -0.3637
  873MOL0     C20385   9.661   6.425   5.192  0.9820 -0.2131  0.8250
  873MOL0     C20386   9.599   6.394   5.316  0.2029  0.8120 -0.0848
  873MOL0     N20387   9.161   5.893   5.529 -0.6074 -0.4338 -0.0596
  873MOL0     N20388   9.182   5.775   5.480 -1.1360 -0.3479  0.2729
  873MOL0     C20389  10.192   5.828   5.295 -0.2119 -0.3003  1.4661
  873MOL0     C20390  10.218   5.948   5.369 -0.2698 -0.0979 -0.7111
  873MOL0     C20391  10.394   6.266   5.620  0.2463  0.1410  0.0879
  873MOL0     C20392  10.398   6.381   5.531  0.6025  0.0432 -0.0698
  873MOL0     C20393  10.379   6.506   5.589 -1.3022 -0.1040 -0.2762
  873MOL0     C20394  10.366   6.528   5.731  0.3912 -0.8106  0.8935
  873MOL0     O20395  10.347   6.654   5.780 -0.3869  0.1255 -0.1619
  873MOL0     C20396  10.374   6.697   5.914 -0.0460 -0.6419  0.6242
  873MOL0     C20397  10.248   6.743   5.990 -0.6171 -0.0386  0.1483
  873MOL0     C20398  10.244   6.891   5.986  0.1995  0.4106 -0.4593
  873MOL0     C20399  10.214   6.949   5.846  0.3347 -0.9794 -0.0611
  873MOL0     C20400  10.252   7.088   5.831 -0.5995 -0.7642  0.2936
  873MOL0     C20401  10.279   7.206   5.816  0.9299 -0.4946 -0.2954
  873MOL0     C20402  10.370   6.414   5.815  0.4733  0.3661 -0.3219
  873MOL0     C20403  10.384   6.290   5.758  1.0518  0.4192 -0.0456
  873MOL0     C20404  10.384   6.174   5.857 -0.3607  0.8090  0.6054
  873MOL0     H20405  10.411   5.817   5.612  0.7969  1.4149 -1.8549
  873MOL0     H20406  10.347   5.593   5.478 -1.4968 -0.9114 -3.2172
  873MOL0     H20407  10.100   5.453   5.172 -1.1248  0.1777  1.0589
  873MOL0     H20408  10.070   5.630   5.146 -2.0019  0.7029  1.9418
  873MOL0     H20409  10.064   5.474   5.423  3.7791  0.2162 -1.4139
  873MOL0     H20410   9.991   5.630   5.387 -1.6711  0.4292 -1.2156
  873MOL0     H20411   9.861   5.464   5.188 -0.1249  0.8593  0.4610
  873MOL0     H20412   9.904   5.361   5.324 -1.0071 -0.0188  1.9630
  873MOL0     H20413   9.752   5.482   5.473 -0.0789  0.8631  0.1726
  873MOL0     H20414   9.748   5.617   5.360  0.4275 -0.1288  0.9610
  873MOL0     H20415   9.663   5.334   5.288  2.0191  0.6911 -2.8540
  873MOL0     H20416   9.622   5.471   5.201 -0.7262 -2.2395 -1.5038
  873MOL0     H20417   9.426   5.412   5.336 -0.4938  2.1111  1.9384
  873MOL0     H20418   9.527   5.391   5.482 -2.9853  1.5850  2.9060
  873MOL0     H20419   9.456   5.652   5.353  0.7135 -2.4698 -1.9453
  873MOL0     H20420   9.560   5.634   5.497  0.4928  0.4161 -2.3272
  873MOL0     H20421   9.281   5.520   5.487 -0.8453  0.3559 -0.7848
  873MOL0     H20422   9.389   5.557   5.623 -0.5690  1.0269  0.3560
  873MOL0     H20423   9.424   5.805   5.709  0.6595 -2.3340 -1.5771
  873MOL0     H20424   9.339   6.035   5.784  1.2610  0.6743 -1.2816
  873MOL0     H20425   9.168   6.047   5.741 -1.2980  0.5435 -3.4917
  873MOL0     H20426   9.236   6.158   5.514  1.2433  0.0986 -0.6813
  873MOL0     H20427   9.199   6.235   5.664 -1.7266 -1.2623 -0.8117
  873MOL0     H20428   9.469   6.222   5.705 -0.3092 -2.0290  0.9026
  873MOL0     H20429   9.481   6.188   5.530  1.7365 -1.5712  2.9763
  873MOL0     H20430   9.360   6.402   5.475 -1.4214 -1.4806  0.6333
  873MOL0     H20431   9.386   6.442   5.651 -1.0349 -0.7731 -0.6873
  873MOL0     H20432   9.696   6.644   5.507  2.0552  0.6329 -1.6203
  873MOL0     H20433   9.758   6.830   5.220  0.8570  2.3881  0.9370
  873MOL0     H20434   9.909   6.759   5.290  0.5422  3.1677  0.2299
  873MOL0     H20435   9.782   6.837   5.383  0.7168  0.1924  0.3788
  873MOL0     H20436   9.701   6.310   4.784  1.9604  1.1111  3.6095
  873MOL0     H20437   9.683   6.332   4.559  0.5156  0.7482 -1.1047
  873MOL0     H20438   9.705   6.435   4.214 -1.0546  0.1543 -0.5762
  873MOL0     H20439   9.696   6.335   4.357 -0.2719  0.7759  1.2229
  873MOL0     H20440   9.503   6.448   4.436  3.2965  2.9308  2.2271
  873MOL0     H20441   9.532   6.583   4.328  4.2251  0.1943 -2.7835
  873MOL0     H20442   9.466   6.292   4.241  1.9353 -0.6253 -2.3570
  873MOL0     H20443   9.491   6.415   4.122  0.6241  0.3247 -0.7117
  873MOL0     H20444   9.303   6.530   4.155  0.1986 -0.2128 -0.9846
  873MOL0     H20445   9.291   6.501   4.326  2.4877  0.4137 -0.4207
  873MOL0     H20446   9.253   6.246   4.277  0.4426 -1.0104  0.5266
  873MOL0     H20447   9.116   6.353   4.242 -1.2853 -5.3265 -0.8157
  873MOL0     H20448   9.309   6.270   4.023  0.9262  1.3419  1.6365
  873MOL0     H20449   9.165   6.365   4.012 -0.7520 -0.7647  1.0041
  873MOL0     H20450   9.025   6.187   4.111  1.2932  1.3018  1.6529
  873MOL0     H20451   9.167   6.081   4.071  0.6902  0.2024 -0.5460
  873MOL0     H20452   9.151   6.156   3.830  0.8586  1.0147  0.7412
  873MOL0     H20453   9.017   6.254   3.872  3.5679  2.0620 -1.1490
  873MOL0     H20454   9.845   6.718   4.565  1.1495 -0.5021 -0.7463
  873MOL0     H20455   9.887   6.704   4.789  1.3651 -0.4508 -3.1260
  873MOL0     H20456   9.654   6.356   5.109 -4.4161  1.2998 -0.3487
  873MOL0     H20457   9.535   6.307   5.326  2.9693 -1.1254  2.7209
  873MOL0     H20458  10.145   5.854   5.201  3.1738  2.7117  0.3613
  873MOL0     H20459  10.162   6.038   5.343  0.4245  0.4562 -0.3236
  873MOL0     H20460  10.397   6.366   5.423 -0.3492  1.6116 -0.3149
  873MOL0     H20461  10.369   6.582   5.512 -2.1544  0.1840  0.1029
  873MOL0     H20462  10.421   6.615   5.969  1.9882  1.3689  2.0904
  873MOL0     H20463  10.457   6.768   5.917 -0.1731 -0.3886 -1.0723
  873MOL0     H20464  10.276   6.699   6.086  0.7973 -1.2427 -0.7683
  873MOL0     H20465  10.164   6.691   5.943  0.2860 -1.7048  0.3419
  873MOL0     H20466  10.163   6.928   6.048  0.7191  0.7755  0.0137
  873MOL0     H20467  10.336   6.931   6.030  1.4812  1.2669 -3.6056
  873MOL0     H20468  10.105   6.942   5.839  0.0009 -0.2095  2.9591
  873MOL0     H20469  10.266   6.895   5.767  2.3446  1.6193 -0.6382
  873MOL0     H20470  10.291   7.312   5.802 -2.3716 -0.2350 -2.1946
  873MOL0     H20471  10.353   6.419   5.922 -2.8068 -1.0251 -0.6372
  873MOL0     H20472  10.281   6.136   5.866 -0.8454  2.2861  1.4785
  873MOL0     H20473  10.447   6.089   5.829 -1.9690 -0.6639  1.2718
  873MOL0     H20474  10.417   6.211   5.954 -2.1598 -4.3795  3.6355
  874MOL0     O20475   1.356  10.361   2.940  0.4859  0.3559 -0.8394
  874MOL0     C20476   1.332  10.412   3.049 -0.5718 -0.4527 -0.0833
  874MOL0     O20477   1.241  10.374   3.139 -0.2746 -0.4391  0.0358
  874MOL0     C20478   1.154  10.277   3.101 -0.2842 -0.9093 -0.1390
  874MOL0     C20479   1.150  10.157   3.173  0.8130  0.1980  0.5722
  874MOL0     C20480   1.045  10.058   3.157 -0.5107 -0.6411  0.4724
  874MOL0     C20481   0.945  10.084   3.065 -0.6227 -0.1693  0.1586
  874MOL0     O20482   0.850   9.985   3.044 -0.4697 -0.9444  0.4646
  874MOL0     C20483   0.753   9.996   2.938  0.4201 -0.7728  0.0026
  874MOL0     C20484   0.816   9.966   2.802  0.5349 -0.1111 -0.3498
  874MOL0     C20485   0.912   9.847   2.821  0.4466 -0.6119 -0.0029
  874MOL0     C20486   0.978   9.830   2.682  0.6263  0.4076 -0.5037
  874MOL0     C20487   0.996   9.673   2.641 -0.1537  0.3011  0.9768
  874MOL0     C20488   0.876   9.580   2.634  0.0176 -0.3182  0.0784
  874MOL0     C20489   0.898   9.433   2.582 -0.2754 -0.5373 -0.3418
  874MOL0     C20490   0.972   9.409   2.445  0.8378 -0.3565  0.5695
  874MOL0     N20491   1.011   9.273   2.429 -0.3112  0.3230  0.3549
  874MOL0     C20492   0.974   9.190   2.332 -0.2811 -0.1582  0.6166
  874MOL0     C20493   1.047   9.079   2.338  1.1422  0.7878  0.6051
  874MOL0     C20494   1.036   8.952   2.248 -0.3893  0.9407  0.3094
  874MOL0     C20495   1.157   8.928   2.152  0.6723  0.5268 -0.5598
  874MOL0     C20496   1.270   8.854   2.228 -0.0930 -0.1197 -0.4614
  874MOL0     C20497   1.243   8.706   2.257 -1.1041 -0.0998 -0.1346
  874MOL0     O20498   1.341   8.654   2.349  0.0091 -0.1913  0.0162
  874MOL0     C20499   1.363   8.521   2.340  0.6998  0.0171 -0.7560
  874MOL0     C20500   1.467   8.464   2.423  0.7677 -1.2536  0.8388
  874MOL0     C20501   1.504   8.332   2.413 -0.5654 -0.0659  0.7316
  874MOL0     C20502   1.631   8.289   2.483  0.5405 -0.3505  0.6528
  874MOL0     C20503   1.425   8.246   2.329 -0.7907  0.3803  0.1439
  874MOL0     C20504   1.445   8.105   2.312 -0.4965  0.6368  0.2908
  874MOL0     O20505   1.336   8.029   2.289  0.2180 -0.0893  0.4690
  874MOL0     C20506   1.334   7.894   2.319 -0.0795  0.2857 -0.8603
  874MOL0     C20507   1.375   7.851   2.444  0.6413  0.0349 -0.0798
  874MOL0     C20508   1.380   7.712   2.466 -0.9486 -0.0376  0.0404
  874MOL0     C20509   1.355   7.615   2.361  0.1033 -0.0866 -0.3164
  874MOL0     O20510   1.364   7.478   2.381 -0.3020 -0.3026 -0.6467
  874MOL0     C20511   1.383   7.386   2.274  0.2417 -1.5475  0.8502
  874MOL0     C20512   1.420   7.253   2.331  0.3728  0.7769 -0.4585
  874MOL0     C20513   1.494   7.177   2.233 -0.8604  0.1697 -0.0500
  874MOL0     C20514   1.523   7.046   2.291 -1.3343  0.1682  0.1526
  874MOL0     C20515   1.604   6.928   2.207  0.0784 -0.3063 -0.4789
  874MOL0     C20516   1.535   6.892   2.072 -0.3149  0.5351 -0.7073
  874MOL0     C20517   1.619   6.790   1.995  0.1305 -0.5720  0.6191
  874MOL0     C20518   1.555   6.652   2.011 -0.1346  0.6934  0.2262
  874MOL0    Cl20519   1.654   6.532   1.904  0.2403  0.0129  0.1668
  874MOL0     C20520   1.322   7.668   2.231  0.5001  0.0235 -0.7138
  874MOL0     C20521   1.310   7.803   2.214 -0.5568 -0.2733 -0.7268
  874MOL0     O20522   1.555   8.055   2.338 -0.7016  0.2379 -0.9852
  874MOL0     C20523   1.326   8.302   2.246 -0.1623 -0.0773 -0.0651
  874MOL0     C20524   1.290   8.434   2.255 -0.9593  0.6339 -0.2565
  874MOL0     N20525   1.126   9.090   2.454 -0.4688  0.4671  0.6372
  874MOL0     N20526   1.098   9.209   2.509  0.7683 -0.3095  0.9135
  874MOL0     C20527   0.940  10.209   3.002  0.4676 -0.4603  0.9388
  874MOL0     C20528   1.044  10.305   3.012  0.0850  0.1525 -0.3232
  874MOL0     C20529   1.402  10.541   3.083  0.2173 -1.1519 -0.2699
  874MOL0     C20530   1.429  10.585   3.215  0.8470  0.7759 -0.0133
  874MOL0     C20531   1.494  10.705   3.241 -0.4393 -0.7193  0.5008
  874MOL0     C20532   1.533  10.795   3.139 -0.3802  0.3112  0.6589
  874MOL0     O20533   1.568  10.919   3.167  0.7436  0.1791 -0.8318
  874MOL0     C20534   1.614  11.012   3.064  0.1539 -0.0650  0.4917
  874MOL0     C20535   1.490  11.086   3.010  0.2879 -0.7475 -0.2818
  874MOL0     C20536   1.525  11.147   2.871 -0.6533 -0.6169  0.6320
  874MOL0     C20537   1.396  11.199   2.800 -1.2008  0.2219  0.3630
  874MOL0     C20538   1.316  11.085   2.756  0.6786  0.6731 -0.0544
  874MOL0     C20539   1.263  10.980   2.720 -0.2209 -0.3133  0.7676
  874MOL0     C20540   1.501  10.753   3.013 -0.5236  0.2279  0.8178
  874MOL0     C20541   1.429  10.638   2.980 -0.5182 -0.7129  0.0153
  874MOL0     C20542   1.380  10.636   2.835  0.8145  0.7414 -0.3102
  874MOL0     H20543   1.231  10.144   3.244  0.1362 -0.2938  1.2713
  874MOL0     H20544   1.064   9.960   3.200  2.6951 -1.2950 -1.9999
  874MOL0     H20545   0.699  10.090   2.922 -1.0212 -1.3248  1.3192
  874MOL0     H20546   0.670   9.928   2.961  0.6330 -0.5520  1.5263
  874MOL0     H20547   0.732   9.943   2.737  1.0060 -2.5852 -0.1792
  874MOL0     H20548   0.879  10.044   2.759 -0.0134 -0.3142 -1.5574
  874MOL0     H20549   0.996   9.873   2.886  0.3260  1.2875 -0.5538
  874MOL0     H20550   0.855   9.763   2.861  1.3533 -1.3108 -0.1649
  874MOL0     H20551   0.925   9.871   2.596 -1.3368 -5.2473 -2.4486
  874MOL0     H20552   1.074   9.882   2.687  0.6608  0.2548  0.4967
  874MOL0     H20553   1.079   9.628   2.698  1.5039 -2.3936 -3.0986
  874MOL0     H20554   1.039   9.672   2.540 -0.2124 -4.2020  0.8253
  874MOL0     H20555   0.822   9.575   2.729  2.0641 -1.2625  1.2688
  874MOL0     H20556   0.808   9.614   2.555  1.3180  1.2864 -0.4038
  874MOL0     H20557   0.799   9.390   2.561 -0.1287 -0.8839 -0.3360
  874MOL0     H20558   0.946   9.367   2.655  0.6733 -0.8228 -1.1995
  874MOL0     H20559   0.908   9.436   2.361 -1.7299 -0.8713  2.2484
  874MOL0     H20560   1.061   9.473   2.454  0.3268  0.0456  4.2232
  874MOL0     H20561   0.916   9.209   2.243  3.3161 -0.2525 -1.9970
  874MOL0     H20562   0.942   8.960   2.194 -0.5711  0.0634  0.4772
  874MOL0     H20563   1.032   8.871   2.322 -0.5217  1.0889  0.4649
  874MOL0     H20564   1.137   8.863   2.067 -0.5356  0.5630 -0.3151
  874MOL0     H20565   1.190   9.025   2.112 -2.1429  1.3076 -1.1940
  874MOL0     H20566   1.364   8.857   2.173  0.5321 -1.2729  0.4987
  874MOL0     H20567   1.309   8.899   2.320  0.6258 -0.1069 -0.7693
  874MOL0     H20568   1.147   8.698   2.308 -1.3304  1.2507 -0.3019
  874MOL0     H20569   1.236   8.660   2.158 -1.8524  2.5623 -1.4215
  874MOL0     H20570   1.530   8.525   2.486  0.9534  0.8815 -1.2783
  874MOL0     H20571   1.643   8.355   2.570  1.2009 -0.6035  0.7619
  874MOL0     H20572   1.713   8.303   2.412  0.4263 -0.4470  0.5012
  874MOL0     H20573   1.642   8.186   2.518 -0.4300 -0.9707 -0.7929
  874MOL0     H20574   1.409   7.908   2.530  0.2593 -0.9726  0.7630
  874MOL0     H20575   1.405   7.681   2.567 -4.8158 -0.7928  0.8924
  874MOL0     H20576   1.298   7.389   2.206 -0.9271 -0.9484  2.2671
  874MOL0     H20577   1.476   7.417   2.225  1.3212 -2.0943  2.4652
  874MOL0     H20578   1.486   7.264   2.417  2.4893 -2.2469 -1.5237
  874MOL0     H20579   1.328   7.196   2.349  1.6782 -1.7186 -1.2021
  874MOL0     H20580   1.592   7.224   2.220 -0.5215 -0.5563 -0.1724
  874MOL0     H20581   1.437   7.162   2.141  0.0087  1.4367 -0.8334
  874MOL0     H20582   1.436   6.993   2.330  0.9877 -2.8978  1.6121
  874MOL0     H20583   1.578   7.072   2.382 -3.0238  0.1786  1.2128
  874MOL0     H20584   1.709   6.958   2.198  0.1974  1.1228  3.5255
  874MOL0     H20585   1.609   6.843   2.276  0.6910 -0.7217 -1.0148
  874MOL0     H20586   1.524   6.982   2.010 -1.7931 -0.2755 -1.6751
  874MOL0     H20587   1.430   6.865   2.086  0.0300 -1.5121 -1.7442
  874MOL0     H20588   1.722   6.786   2.031  0.4455  0.7709 -0.0758
  874MOL0     H20589   1.614   6.813   1.888 -0.6030 -1.9127  0.3354
  874MOL0     H20590   1.449   6.649   1.983 -1.4351  2.2384  4.2263
  874MOL0     H20591   1.555   6.623   2.116  2.0034  2.2859  0.7146
  874MOL0     H20592   1.298   7.592   2.157 -1.7334 -0.6018  0.5729
  874MOL0     H20593   1.255   7.841   2.128 -1.5366 -0.5068 -0.2295
  874MOL0     H20594   1.263   8.249   2.176 -0.2449  1.4702 -1.2073
  874MOL0     H20595   1.204   8.469   2.197  0.4471  3.4014 -0.8626
  874MOL0     H20596   0.858  10.240   2.938  2.5622  1.2794 -1.1034
  874MOL0     H20597   1.038  10.404   2.967  0.5683  0.0135 -0.7035
  874MOL0     H20598   1.397  10.508   3.285 -0.9371  1.8904  0.4428
  874MOL0     H20599   1.499  10.732   3.346 -1.7919  1.0493  0.1702
  874MOL0     H20600   1.688  11.073   3.116  0.8397 -0.1097 -0.4277
  874MOL0     H20601   1.666  10.974   2.976  0.8615  3.7528 -0.9081
  874MOL0     H20602   1.452  11.163   3.078  0.7529 -1.5579  0.9180
  874MOL0     H20603   1.416  11.006   3.002  2.0882 -3.2675  4.5211
  874MOL0     H20604   1.599  11.226   2.885 -1.0304 -0.0769 -0.3256
  874MOL0     H20605   1.551  11.060   2.809 -1.5866  0.2125 -0.9888
  874MOL0     H20606   1.421  11.249   2.706 -3.7950 -0.6728 -0.9102
  874MOL0     H20607   1.337  11.266   2.863  0.8891  0.1810  2.4774
  874MOL0     H20608   1.216  10.893   2.678 -0.5096  0.9920 -1.7896
  874MOL0     H20609   1.530  10.825   2.937 -0.4028  0.7238  1.3311
  874MOL0     H20610   1.439  10.558   2.786 -1.9929  0.0175 -2.8424
  874MOL0     H20611   1.276  10.602   2.823  1.3895 -0.9377 -0.7593
  874MOL0     H20612   1.390  10.725   2.772  1.5293  2.7772  2.4791
  875MOL0     O20613   3.926   0.631   6.521 -0.2501 -0.4463  0.0369
  875MOL0     C20614   3.983   0.526   6.574 -0.1456  0.3766  0.1060
  875MOL0     O20615   4.110   0.468   6.538 -0.2429 -0.5439  0.0622
  875MOL0     C20616   4.173   0.534   6.436 -0.0229  0.4107  0.8415
  875MOL0     C20617   4.121   0.561   6.307 -0.1851  0.7866 -0.8002
  875MOL0     C20618   4.200   0.627   6.217 -1.0184  0.4262  0.5958
  875MOL0     C20619   4.336   0.666   6.243 -0.2946  1.0676 -0.0831
  875MOL0     O20620   4.411   0.724   6.148 -0.9720  0.1208 -0.3897
  875MOL0     C20621   4.551   0.740   6.164  0.0907 -0.3957  0.4492
  875MOL0     C20622   4.616   0.783   6.030  0.1209  0.2427  0.3371
  875MOL0     C20623   4.529   0.854   5.938  0.0501  0.5722  0.5022
  875MOL0     C20624   4.605   0.902   5.814 -0.7507  1.4441 -0.6846
  875MOL0     C20625   4.516   0.976   5.713 -0.3995 -0.8126  0.6292
  875MOL0     C20626   4.593   1.036   5.600 -0.5412  0.4273 -0.5617
  875MOL0     C20627   4.686   0.920   5.532  0.1595 -0.1415  0.3605
  875MOL0     C20628   4.795   0.986   5.443  0.2398 -0.2812  0.4727
  875MOL0     N20629   4.745   1.055   5.322  0.5585  0.2298 -0.7422
  875MOL0     C20630   4.827   1.075   5.213  0.7214 -0.5132 -0.2559
  875MOL0     C20631   4.737   1.107   5.110  0.3901 -1.1660 -0.1608
  875MOL0     C20632   4.789   1.149   4.967  0.7103  0.0692  0.3039
  875MOL0     C20633   4.706   1.100   4.855 -0.7045 -0.1873 -0.7368
  875MOL0     C20634   4.580   1.183   4.829  0.8009 -0.4914 -0.2359
  875MOL0     C20635   4.465   1.129   4.739  0.3278  0.0327 -0.0686
  875MOL0     O20636   4.506   1.138   4.597  0.5093 -0.0869  0.2564
  875MOL0     C20637   4.404   1.153   4.505 -0.2363  0.0116  0.7641
  875MOL0     C20638   4.270   1.119   4.530 -0.2684  0.2357  1.3509
  875MOL0     C20639   4.171   1.138   4.434  0.1076 -0.4383  0.0261
  875MOL0     C20640   4.026   1.120   4.487  0.3571  0.0408  0.4737
  875MOL0     C20641   4.193   1.172   4.297  0.3499  0.0891  1.0908
  875MOL0     C20642   4.101   1.181   4.180  0.0944  0.2125  0.7064
  875MOL0     O20643   3.974   1.206   4.207  0.3326  0.0708 -0.1281
  875MOL0     C20644   3.879   1.230   4.108 -0.4404  0.5679 -0.6710
  875MOL0     C20645   3.886   1.362   4.063 -0.2496  0.2061  0.1634
  875MOL0     C20646   3.780   1.395   3.980 -0.6096  0.0285 -0.5987
  875MOL0     C20647   3.690   1.307   3.931  0.3040  0.9729 -0.4956
  875MOL0     O20648   3.600   1.365   3.851 -0.2360  0.4876 -0.3677
  875MOL0     C20649   3.548   1.290   3.748  0.3422  1.0360  0.2848
  875MOL0     C20650   3.396   1.273   3.735  0.0140  0.5260  0.1720
  875MOL0     C20651   3.356   1.140   3.803  0.4519 -0.6112  0.4666
  875MOL0     C20652   3.205   1.120   3.778 -0.5469  0.0035  0.0435
  875MOL0     C20653   3.179   1.041   3.648 -0.1896 -0.2181  0.1877
  875MOL0     C20654   3.028   1.001   3.649  0.3575 -0.6334  0.4720
  875MOL0     C20655   2.980   0.984   3.507 -0.4666  0.1114 -0.4628
  875MOL0     C20656   2.848   0.898   3.495 -0.6692  0.6443  0.1913
  875MOL0    Cl20657   2.866   0.766   3.375 -0.0768  0.4275 -0.2826
  875MOL0     C20658   3.693   1.172   3.969 -0.3277  0.0223  0.4709
  875MOL0     C20659   3.786   1.142   4.063 -0.4536 -0.4370 -0.7743
  875MOL0     O20660   4.149   1.155   4.069  0.3238  0.4585  0.0190
  875MOL0     C20661   4.334   1.185   4.271 -0.9925  0.0020  0.2057
  875MOL0     C20662   4.435   1.185   4.371  0.2007 -0.0687  0.5939
  875MOL0     N20663   4.612   1.074   5.155  0.2561 -0.9615  0.2610
  875MOL0     N20664   4.622   1.048   5.276  0.1291  0.3100 -0.3168
  875MOL0     C20665   4.379   0.641   6.372 -0.4653  1.1321 -0.4610
  875MOL0     C20666   4.297   0.586   6.466 -0.3139  0.4207  0.6398
  875MOL0     C20667   3.902   0.461   6.689  0.0789  0.7238  0.4496
  875MOL0     C20668   3.976   0.350   6.748  0.2658  0.9952 -0.6602
  875MOL0     C20669   3.930   0.298   6.869  0.0221 -0.1707 -1.3107
  875MOL0     C20670   3.805   0.339   6.929  0.1242 -0.9204  0.6029
  875MOL0     O20671   3.752   0.273   7.043  0.4500 -0.7430  0.2846
  875MOL0     C20672   3.625   0.203   7.027  0.1356 -0.2351  0.2078
  875MOL0     C20673   3.555   0.193   7.165  0.5536  0.8433 -0.4582
  875MOL0     C20674   3.590   0.060   7.241  0.6573  0.3007  0.3775
  875MOL0     C20675   3.479   0.017   7.334  0.0414  0.2872 -0.2186
  875MOL0     C20676   3.485  -0.126   7.364 -0.2444 -0.5888  0.5287
  875MOL0     C20677   3.480  -0.241   7.384  0.4585  0.2393  0.5153
  875MOL0     C20678   3.732   0.440   6.856  0.4590  0.2850  0.1026
  875MOL0     C20679   3.785   0.509   6.747 -0.0796  0.0688 -0.3521
  875MOL0     C20680   3.698   0.620   6.692 -0.0526 -0.2200 -0.0195
  875MOL0     H20681   4.025   0.511   6.291  1.9529 -3.6334 -1.4262
  875MOL0     H20682   4.158   0.652   6.120  0.3792 -1.3769 -0.5350
  875MOL0     H20683   4.592   0.641   6.187  0.0162 -0.5536 -0.0738
  875MOL0     H20684   4.584   0.807   6.243  0.7557  1.3419 -1.2179
  875MOL0     H20685   4.704   0.846   6.049  0.1829  0.6258 -1.1270
  875MOL0     H20686   4.651   0.698   5.971  1.6602  1.2665 -0.2858
  875MOL0     H20687   4.446   0.794   5.901  0.7087 -0.0339 -0.0355
  875MOL0     H20688   4.485   0.942   5.985 -1.0286  1.9729 -2.8557
  875MOL0     H20689   4.694   0.950   5.855 -1.0289  0.3746  1.2828
  875MOL0     H20690   4.630   0.804   5.772  0.6021  1.0985  0.8620
  875MOL0     H20691   4.478   1.063   5.768 -1.0355 -0.2723 -0.6267
  875MOL0     H20692   4.439   0.909   5.674 -1.7470  1.3186 -0.5811
  875MOL0     H20693   4.526   1.088   5.531  0.4552  1.0271 -1.1020
  875MOL0     H20694   4.664   1.113   5.629 -0.4724 -0.9198  3.4281
  875MOL0     H20695   4.625   0.864   5.460 -1.6664 -0.6507  2.2050
  875MOL0     H20696   4.742   0.864   5.608  1.9531  1.7751  0.5417
  875MOL0     H20697   4.856   1.040   5.516 -2.2104  0.8438  1.8237
  875MOL0     H20698   4.852   0.901   5.404  1.0005  1.0953 -1.5872
  875MOL0     H20699   4.935   1.084   5.206  0.6599  0.8516  0.0897
  875MOL0     H20700   4.891   1.110   4.969 -0.1280 -2.3111 -0.2925
  875MOL0     H20701   4.799   1.258   4.955 -0.8831  0.4301  1.8313
  875MOL0     H20702   4.782   1.113   4.778  1.9018  1.0144  1.8489
  875MOL0     H20703   4.680   0.994   4.862 -1.3287 -0.1722 -2.3105
  875MOL0     H20704   4.536   1.194   4.928  0.3648  0.2835 -0.5053
  875MOL0     H20705   4.608   1.282   4.792 -1.5928  0.5082  0.3819
  875MOL0     H20706   4.436   1.026   4.765  0.8658 -0.1206 -0.0690
  875MOL0     H20707   4.378   1.193   4.754  0.2802 -0.1102  0.2751
  875MOL0     H20708   4.237   1.068   4.620 -0.9281 -1.8971 -0.0199
  875MOL0     H20709   3.986   1.216   4.521 -1.2608 -0.4942  0.1935
  875MOL0     H20710   4.022   1.047   4.569  0.0211 -0.3911  0.0818
  875MOL0     H20711   3.950   1.088   4.415 -0.8902 -2.0894  2.5836
  875MOL0     H20712   3.936   1.440   4.119 -1.5071  1.3989 -0.3207
  875MOL0     H20713   3.765   1.496   3.945  0.6245 -0.7680 -3.7635
  875MOL0     H20714   3.561   1.343   3.653  2.3797 -1.2933 -0.8402
  875MOL0     H20715   3.607   1.199   3.732 -2.3038 -1.5713  3.6915
  875MOL0     H20716   3.333   1.349   3.783 -2.5049 -0.9676 -0.5846
  875MOL0     H20717   3.367   1.268   3.629 -0.1852 -1.0558  0.2886
  875MOL0     H20718   3.373   1.135   3.911 -0.7248  0.3399  0.7237
  875MOL0     H20719   3.396   1.056   3.745 -2.3082 -0.9086 -1.1931
  875MOL0     H20720   3.150   1.215   3.776 -2.5846 -1.1004 -2.6396
  875MOL0     H20721   3.162   1.053   3.852 -1.0092  0.9391  0.6429
  875MOL0     H20722   3.206   1.108   3.566 -0.1092  1.7661  1.7736
  875MOL0     H20723   3.238   0.950   3.639 -2.1688 -1.4945 -0.7659
  875MOL0     H20724   2.965   1.077   3.697  0.6853  1.3333 -2.0203
  875MOL0     H20725   3.025   0.902   3.695  0.7704 -0.5624  0.6516
  875MOL0     H20726   3.061   0.942   3.448 -2.9354  0.8948 -4.8802
  875MOL0     H20727   2.959   1.080   3.458 -0.1973  0.2761 -0.2579
  875MOL0     H20728   2.761   0.957   3.464 -0.6069  0.3983 -0.4806
  875MOL0     H20729   2.824   0.866   3.597  2.5525  2.2205  1.5861
  875MOL0     H20730   3.627   1.093   3.932 -0.7622 -1.0900  3.3577
  875MOL0     H20731   3.798   1.042   4.105 -1.4605  0.0797  0.8281
  875MOL0     H20732   4.380   1.200   4.174 -0.4562 -0.2399  0.4192
  875MOL0     H20733   4.539   1.182   4.342  0.0559 -0.2827  0.0771
  875MOL0     H20734   4.480   0.663   6.406  0.4803 -1.2344 -1.5494
  875MOL0     H20735   4.334   0.554   6.562  1.4575  1.9800  0.5302
  875MOL0     H20736   4.061   0.311   6.693 -0.7547  0.9775 -2.2797
  875MOL0     H20737   4.002   0.231   6.915  0.0398  0.2021 -0.7799
  875MOL0     H20738   3.558   0.255   6.958 -0.4838 -1.8326 -0.4448
  875MOL0     H20739   3.645   0.104   6.985  2.3027  0.4277 -0.4676
  875MOL0     H20740   3.447   0.204   7.154  0.2537 -1.7493 -0.6773
  875MOL0     H20741   3.582   0.274   7.234  0.1132 -0.4512  1.2935
  875MOL0     H20742   3.597  -0.025   7.172 -2.3664 -1.9726  2.5787
  875MOL0     H20743   3.686   0.081   7.289  1.9531  0.1167 -2.0058
  875MOL0     H20744   3.386   0.047   7.285 -1.0483 -2.8514 -0.3365
  875MOL0     H20745   3.481   0.072   7.429 -2.8553  0.9595 -0.4403
  875MOL0     H20746   3.484  -0.341   7.424  3.8955  0.6170  1.4311
  875MOL0     H20747   3.634   0.464   6.897  2.0232 -0.8567  5.2214
  875MOL0     H20748   3.617   0.652   6.757  2.1513  1.4776  2.0625
  875MOL0     H20749   3.755   0.713   6.685  1.5317 -1.1059  0.6053
  875MOL0     H20750   3.664   0.594   6.592 -0.1122  0.3140 -0.1425
  876MOL0     O20751   1.416   5.743   5.105  0.6017  0.2314 -0.4938
  876MOL0     C20752   1.304   5.761   5.139  0.6293 -0.4364  0.2037
  876MOL0     O20753   1.200   5.779   5.054  0.2488 -0.0508 -0.0263
  876MOL0     C20754   1.205   5.832   4.927  0.8062 -0.7310  0.1085
  876MOL0     C20755   1.320   5.884   4.868 -0.1443 -0.1624  0.2147
  876MOL0     C20756   1.329   5.934   4.740 -0.6332  0.2149  1.1768
  876MOL0     C20757   1.214   5.932   4.664 -0.2592 -0.5600  0.1874
  876MOL0     O20758   1.204   5.994   4.544 -0.1021 -0.0473  0.2623
  876MOL0     C20759   1.227   6.136   4.554  0.4518 -0.6909 -0.3845
  876MOL0     C20760   1.346   6.180   4.475  0.0474  0.3367  0.4012
  876MOL0     C20761   1.347   6.125   4.333  0.2726  0.2512 -0.1058
  876MOL0     C20762   1.458   6.200   4.250 -0.0185  0.1824 -0.0175
  876MOL0     C20763   1.470   6.134   4.111 -0.0238  0.5784 -0.3630
  876MOL0     C20764   1.574   6.214   4.023 -0.3576  0.3101 -0.3902
  876MOL0     C20765   1.643   6.135   3.906  0.0214  0.0843 -0.0496
  876MOL0     C20766   1.680   5.988   3.941  0.1596 -0.2482 -0.5238
  876MOL0     N20767   1.787   5.940   3.856  0.3676  0.2928 -0.3480
  876MOL0     C20768   1.812   5.809   3.844  0.8262 -0.3119  0.0253
  876MOL0     C20769   1.935   5.794   3.779  0.4025 -0.6349  0.5422
  876MOL0     C20770   2.015   5.678   3.720  0.4526 -0.8576 -0.2031
  876MOL0     C20771   1.944   5.543   3.687 -1.0297 -0.4532 -0.1382
  876MOL0     C20772   2.038   5.448   3.613 -0.6831 -0.0310  1.6823
  876MOL0     C20773   1.965   5.320   3.576  1.3320  0.4201 -0.5237
  876MOL0     O20774   2.061   5.238   3.504  0.0711  0.2499  0.4924
  876MOL0     C20775   2.085   5.258   3.370  0.0861 -0.3652 -0.2342
  876MOL0     C20776   2.191   5.181   3.322 -0.0142 -0.2004 -0.3936
  876MOL0     C20777   2.232   5.188   3.186 -0.1402  0.1420 -0.4631
  876MOL0     C20778   2.336   5.091   3.148  0.4175  0.1994  0.7013
  876MOL0     C20779   2.165   5.272   3.097  1.6527 -0.4496 -0.3569
  876MOL0     C20780   2.194   5.290   2.962 -0.8107  0.5139  0.2503
  876MOL0     O20781   2.308   5.245   2.918 -0.9615 -0.0792  0.1414
  876MOL0     C20782   2.373   5.268   2.796 -0.3083 -0.2853 -0.4704
  876MOL0     C20783   2.485   5.187   2.773  0.6394  0.3046  0.0199
  876MOL0     C20784   2.570   5.221   2.676 -0.1527 -0.4913  0.9077
  876MOL0     C20785   2.538   5.309   2.572  0.6235 -0.5535 -0.2758
  876MOL0     O20786   2.628   5.336   2.478 -0.8778 -0.5560 -0.5815
  876MOL0     C20787   2.618   5.458   2.411  0.2914  0.0032 -1.3663
  876MOL0     C20788   2.745   5.490   2.321  0.1542  1.3640 -0.9545
  876MOL0     C20789   2.820   5.373   2.252 -0.1949  0.7738 -0.7696
  876MOL0     C20790   2.969   5.403   2.219 -0.1000  0.0592  0.0931
  876MOL0     C20791   3.029   5.288   2.133  0.3289 -0.1858  0.4599
  876MOL0     C20792   3.148   5.346   2.067  0.3976 -0.7209  0.2466
  876MOL0     C20793   3.251   5.243   2.025  0.3536  0.4690 -0.5787
  876MOL0     C20794   3.328   5.309   1.903  0.8836 -0.0783 -0.0089
  876MOL0    Cl20795   3.475   5.203   1.861 -0.1200 -0.0584 -0.0020
  876MOL0     C20796   2.405   5.370   2.582  0.0089 -0.4204  0.3839
  876MOL0     C20797   2.340   5.365   2.705 -0.4077 -0.0896  0.1636
  876MOL0     O20798   2.097   5.309   2.888  0.1608  0.2496 -0.1022
  876MOL0     C20799   2.049   5.344   3.147  0.8985 -0.4680  0.8662
  876MOL0     C20800   2.013   5.340   3.283 -0.1378  1.0345 -0.1731
  876MOL0     N20801   1.979   5.920   3.749  0.4101 -0.1893  0.1576
  876MOL0     N20802   1.896   6.005   3.807  0.1776 -0.3465 -0.3896
  876MOL0     C20803   1.097   5.879   4.720  0.2778 -0.4508 -0.0313
  876MOL0     C20804   1.085   5.849   4.855 -0.4516  0.2717 -0.7547
  876MOL0     C20805   1.263   5.757   5.290 -0.1087 -0.5357 -0.4841
  876MOL0     C20806   1.144   5.710   5.326 -0.4729 -0.8418  0.2124
  876MOL0     C20807   1.108   5.697   5.463  1.1615 -0.6441  0.5313
  876MOL0     C20808   1.191   5.716   5.571  0.6214 -0.6606 -0.5920
  876MOL0     O20809   1.148   5.679   5.694 -0.1795 -0.0895 -0.7451
  876MOL0     C20810   1.233   5.694   5.806 -0.0970  0.3753 -0.4902
  876MOL0     C20811   1.162   5.632   5.919 -0.8117  0.1592 -0.2212
  876MOL0     C20812   1.161   5.481   5.904 -0.1677  0.1634  0.8595
  876MOL0     C20813   1.268   5.422   6.003  0.8975  1.3156 -1.1422
  876MOL0     C20814   1.406   5.435   5.958 -0.1567  0.0515 -0.0805
  876MOL0     C20815   1.523   5.459   5.917 -0.3144 -0.0478 -0.5889
  876MOL0     C20816   1.316   5.770   5.536 -0.4561  0.3992 -0.6944
  876MOL0     C20817   1.353   5.790   5.402  0.3166  0.2213 -0.2050
  876MOL0     C20818   1.489   5.843   5.374 -0.4472 -0.5947 -0.5345
  876MOL0     H20819   1.400   5.903   4.939  0.7946  0.1875 -0.9166
  876MOL0     H20820   1.425   5.978   4.715  0.4397 -1.0238  2.9171
  876MOL0     H20821   1.225   6.171   4.657 -0.9289 -0.6645 -0.4017
  876MOL0     H20822   1.145   6.188   4.504  1.8691  0.6572 -1.4266
  876MOL0     H20823   1.365   6.287   4.469  2.6753 -0.1259 -0.9692
  876MOL0     H20824   1.432   6.136   4.528  0.4707  0.5912 -0.0685
  876MOL0     H20825   1.356   6.016   4.336 -1.6798  0.0703  0.3288
  876MOL0     H20826   1.249   6.146   4.289 -0.6693  1.7059  2.4732
  876MOL0     H20827   1.436   6.306   4.236  2.3145  0.6102 -0.7989
  876MOL0     H20828   1.558   6.202   4.293 -0.7231 -0.8805  1.8063
  876MOL0     H20829   1.374   6.150   4.061 -0.2132 -0.7214 -0.4555
  876MOL0     H20830   1.500   6.030   4.130 -0.5526  0.7813  1.8822
  876MOL0     H20831   1.525   6.303   3.981 -0.6702  0.4377  0.2342
  876MOL0     H20832   1.657   6.251   4.084  1.0817  0.6779 -2.4376
  876MOL0     H20833   1.734   6.192   3.887 -0.0554 -0.0906 -0.9935
  876MOL0     H20834   1.587   6.130   3.812  2.8142 -1.5053 -1.8105
  876MOL0     H20835   1.714   5.989   4.045  2.4660 -0.3790 -1.2077
  876MOL0     H20836   1.598   5.916   3.948 -0.3305  0.0751 -2.3351
  876MOL0     H20837   1.745   5.730   3.875 -1.6546  1.5521 -0.2771
  876MOL0     H20838   2.097   5.663   3.790 -0.4598  0.5304  1.2344
  876MOL0     H20839   2.062   5.721   3.631  0.5936  0.5604  0.5259
  876MOL0     H20840   1.917   5.498   3.783  1.7020  0.4734  1.1696
  876MOL0     H20841   1.851   5.564   3.632 -1.5292  0.6205  1.0684
  876MOL0     H20842   2.075   5.490   3.519 -2.4953  1.5284  1.6145
  876MOL0     H20843   2.126   5.413   3.668  0.0460 -2.1143 -0.6179
  876MOL0     H20844   1.933   5.272   3.669 -1.7580  1.5804 -0.8618
  876MOL0     H20845   1.869   5.335   3.526  1.5991  3.6947 -0.2378
  876MOL0     H20846   2.238   5.115   3.394 -1.4872 -1.1918 -0.2916
  876MOL0     H20847   2.310   5.030   3.061  1.3493 -1.1791  1.3518
  876MOL0     H20848   2.343   5.017   3.228  0.2463  0.6294  1.1135
  876MOL0     H20849   2.435   5.135   3.132  1.5667 -2.6241 -0.6909
  876MOL0     H20850   2.518   5.115   2.848 -0.2756  0.3796  0.5042
  876MOL0     H20851   2.672   5.185   2.669  0.1439 -0.1024  2.7358
  876MOL0     H20852   2.528   5.450   2.350  0.4801  0.8236 -1.7624
  876MOL0     H20853   2.604   5.535   2.488 -1.9895  0.0294 -1.7643
  876MOL0     H20854   2.712   5.554   2.239  2.7064  2.0802 -1.5369
  876MOL0     H20855   2.819   5.544   2.381 -0.4537  0.8460  0.2956
  876MOL0     H20856   2.778   5.334   2.159  1.0279 -2.1223 -0.2162
  876MOL0     H20857   2.833   5.288   2.320  0.8373  1.9799  0.6278
  876MOL0     H20858   3.027   5.401   2.312 -0.2040  0.2255  0.1627
  876MOL0     H20859   2.982   5.500   2.170 -1.0746 -0.4581 -1.2580
  876MOL0     H20860   3.053   5.209   2.205 -0.3392  0.9162  1.9476
  876MOL0     H20861   2.956   5.252   2.060 -0.3868  2.2104 -0.0959
  876MOL0     H20862   3.197   5.425   2.125  1.7966 -1.2437 -0.1763
  876MOL0     H20863   3.103   5.409   1.989  0.4816 -0.9588  0.0042
  876MOL0     H20864   3.205   5.147   1.999 -0.9819  0.8270  0.4100
  876MOL0     H20865   3.331   5.225   2.097  0.9115 -0.4034 -1.3886
  876MOL0     H20866   3.362   5.412   1.917 -0.0820  1.0831 -4.6149
  876MOL0     H20867   3.258   5.317   1.819  0.3637 -0.5552  0.3730
  876MOL0     H20868   2.369   5.440   2.507 -0.6162  1.9483  2.7756
  876MOL0     H20869   2.257   5.432   2.723 -0.5584 -0.3778  0.5615
  876MOL0     H20870   1.998   5.403   3.071  1.2881 -2.1538 -0.7729
  876MOL0     H20871   1.927   5.400   3.310  1.3106  3.1322  0.0024
  876MOL0     H20872   1.015   5.886   4.650  1.3831 -1.1208 -1.4533
  876MOL0     H20873   0.991   5.820   4.902 -1.6270 -0.8752 -3.5612
  876MOL0     H20874   1.079   5.669   5.249  0.1105 -1.8497  0.2339
  876MOL0     H20875   1.010   5.654   5.484  0.2865  2.3155  3.3729
  876MOL0     H20876   1.331   5.649   5.787 -0.6072 -0.0313 -2.4605
  876MOL0     H20877   1.254   5.798   5.831  2.6417  0.0323 -1.0698
  876MOL0     H20878   1.062   5.675   5.921 -0.6540  0.5634 -0.9536
  876MOL0     H20879   1.224   5.657   6.006 -2.5093 -1.1952  1.5003
  876MOL0     H20880   1.059   5.449   5.926 -0.4568 -0.3932 -1.1204
  876MOL0     H20881   1.181   5.455   5.800 -1.5139  0.4993  0.5039
  876MOL0     H20882   1.246   5.314   6.002 -1.3003  1.7077 -1.9093
  876MOL0     H20883   1.260   5.451   6.108 -0.5261 -3.6088  0.3962
  876MOL0     H20884   1.625   5.467   5.885  0.3240 -0.4243  1.2421
  876MOL0     H20885   1.401   5.790   5.600  0.0551  1.6403 -1.7270
  876MOL0     H20886   1.559   5.824   5.457  2.5134  1.2497 -2.3993
  876MOL0     H20887   1.541   5.794   5.291  2.7003 -0.9216  1.4342
  876MOL0     H20888   1.488   5.950   5.348  0.7147 -0.6256 -0.7891
  877MOL0     O20889  11.060   8.579   9.788  1.3780 -0.2879 -0.3648
  877MOL0     C20890  10.957   8.522   9.755  0.3614  0.0767 -0.1318
  877MOL0     O20891  10.833   8.572   9.769  0.1317  0.1610 -0.5023
  877MOL0     C20892  10.827   8.702   9.812 -0.2221 -0.1722  0.2729
  877MOL0     C20893  10.811   8.803   9.714 -1.1309  0.1446 -0.5864
  877MOL0     C20894  10.809   8.937   9.751 -0.2916 -0.3246 -0.0661
  877MOL0     C20895  10.807   8.975   9.884 -0.2424  0.0284  0.0092
  877MOL0     O20896  10.796   9.112   9.905  0.0117 -1.2758 -0.1192
  877MOL0     C20897  10.816   9.175  10.037  0.8941 -0.0659  0.6101
  877MOL0     C20898  10.768   9.319  10.023  0.2374  0.0049 -0.3481
  877MOL0     C20899  10.866   9.419   9.956 -0.8774 -0.3525 -0.1901
  877MOL0     C20900  10.807   9.516   9.855 -0.2226 -0.8140 -0.1014
  877MOL0     C20901  10.707   9.616   9.923 -1.2433 -0.8558 -0.3193
  877MOL0     C20902  10.664   9.730   9.828 -0.5496  0.2236  0.0745
  877MOL0     C20903  10.574   9.841   9.895  0.3468 -0.8433  0.0727
  877MOL0     C20904  10.435   9.784   9.938 -0.2373 -0.2408  0.4214
  877MOL0     N20905  10.366   9.875  10.029  0.6588  0.4645  0.1781
  877MOL0     C20906  10.420   9.963  10.113  0.3673  0.2165 -0.0123
  877MOL0     C20907  10.317  10.053  10.145 -0.4885 -1.1038 -0.0617
  877MOL0     C20908  10.319  10.189  10.211  0.1997  0.4523 -0.0161
  877MOL0     C20909  10.247  10.186  10.346  0.3189 -0.2809  0.2290
  877MOL0     C20910  10.280  10.308  10.427 -0.3195 -0.3630  0.6264
  877MOL0     C20911  10.420  10.308  10.477  0.9817 -0.0833 -1.1025
  877MOL0     O20912  10.448  10.200  10.566  0.0061  0.4152 -0.3246
  877MOL0     C20913  10.582  10.176  10.614 -0.8092  0.4123 -0.1385
  877MOL0     C20914  10.603  10.131  10.746  0.1715  0.5058 -1.0037
  877MOL0     C20915  10.733  10.111  10.803 -0.3484 -0.6364 -0.0508
  877MOL0     C20916  10.726  10.058  10.949  0.1929 -0.2869 -0.2315
  877MOL0     C20917  10.852  10.115  10.713  1.3545  0.4350  0.0666
  877MOL0     C20918  10.988  10.087  10.747 -0.6820  0.0023 -0.0646
  877MOL0     O20919  11.023  10.079  10.884 -0.1173 -0.6057 -0.5175
  877MOL0     C20920  11.147  10.050  10.921 -1.1984 -0.5631  0.6447
  877MOL0     C20921  11.161   9.948  11.020  0.0516 -0.1164 -0.2154
  877MOL0     C20922  11.288   9.909  11.062 -0.3709 -0.6437  1.0509
  877MOL0     C20923  11.406   9.966  10.999  0.8242 -0.2510 -0.1633
  877MOL0     O20924  11.527   9.926  11.029 -0.7371 -0.0711 -1.2455
  877MOL0     C20925  11.557   9.833  11.143 -0.0145 -0.5015  0.5889
  877MOL0     C20926  11.705   9.806  11.157 -0.6870 -0.1132 -0.3639
  877MOL0     C20927  11.789   9.937  11.148 -0.1925 -0.5240  0.1348
  877MOL0     C20928  11.936   9.908  11.119  0.0637  0.2615  1.1162
  877MOL0     C20929  12.023  10.025  11.137 -0.8141  0.1011 -0.4128
  877MOL0     C20930  12.162   9.994  11.104  0.2003 -0.7505  0.9325
  877MOL0     C20931  12.250  10.125  11.115  0.4516  0.4806  0.5360
  877MOL0     C20932  12.370  10.127  11.021  0.1095  0.1349  0.3794
  877MOL0    Cl20933  12.484  10.000  11.063  0.2714 -0.1416  0.0452
  877MOL0     C20934  11.388  10.082  10.922 -0.3110  0.6449  0.3005
  877MOL0     C20935  11.264  10.108  10.868  0.3174  0.2183  0.1263
  877MOL0     O20936  11.069  10.066  10.662  0.0871 -0.3043 -0.5920
  877MOL0     C20937  10.822  10.154  10.584  0.1155  0.6643  0.0503
  877MOL0     C20938  10.699  10.186  10.532 -0.0980 -0.5895 -0.0809
  877MOL0     N20939  10.208  10.015  10.068  0.4448 -0.1110 -0.0631
  877MOL0     N20940  10.229   9.906  10.015 -0.0473  0.9862  0.3081
  877MOL0     C20941  10.819   8.877   9.979  0.2756 -0.8905  0.3212
  877MOL0     C20942  10.827   8.744   9.944 -0.9984 -0.7877 -1.2466
  877MOL0     C20943  10.966   8.378   9.704 -1.1627  0.7505  0.1204
  877MOL0     C20944  10.912   8.350   9.576 -0.3596 -0.3383  0.0152
  877MOL0     C20945  10.937   8.232   9.513 -0.0635  0.8313 -0.3249
  877MOL0     C20946  11.030   8.139   9.564 -0.7235  0.3209 -0.3486
  877MOL0     O20947  11.075   8.025   9.506  0.8357 -0.5348 -0.4015
  877MOL0     C20948  11.077   8.020   9.364  0.1183 -0.4734  0.1162
  877MOL0     C20949  11.117   7.882   9.326  0.0119  1.1237  1.2101
  877MOL0     C20950  11.085   7.841   9.185  0.3602  0.2523 -0.5032
  877MOL0     C20951  11.142   7.702   9.169 -1.1993 -0.3012  0.9570
  877MOL0     C20952  11.055   7.602   9.224  0.4226 -1.1798 -0.4075
  877MOL0     C20953  10.981   7.511   9.257 -0.0318  0.0445 -0.3573
  877MOL0     C20954  11.094   8.173   9.688  0.2756 -0.1253  0.0552
  877MOL0     C20955  11.062   8.292   9.763 -0.8544 -0.3625 -0.5686
  877MOL0     C20956  11.108   8.321   9.905  0.3272 -0.4334  0.5704
  877MOL0     H20957  10.798   8.778   9.609 -0.6447 -0.5817 -0.4784
  877MOL0     H20958  10.810   9.020   9.681  1.0866 -0.3204 -0.0682
  877MOL0     H20959  10.922   9.168  10.062  1.5829  0.6450 -1.8082
  877MOL0     H20960  10.753   9.119  10.106  0.2485 -0.7960 -0.5336
  877MOL0     H20961  10.678   9.319   9.962  0.9131  0.4585 -1.3816
  877MOL0     H20962  10.740   9.343  10.125 -0.5119 -1.5043 -0.1703
  877MOL0     H20963  10.911   9.477  10.038 -0.9046  1.1378 -1.1793
  877MOL0     H20964  10.945   9.364   9.905 -0.8402 -0.3042 -0.1851
  877MOL0     H20965  10.898   9.561   9.814  0.4400 -3.4355 -1.7062
  877MOL0     H20966  10.766   9.478   9.761  1.8647 -0.6402 -1.1437
  877MOL0     H20967  10.736   9.661  10.018 -1.7239  0.4681 -0.7754
  877MOL0     H20968  10.616   9.562   9.950 -2.3453  1.8762  2.0245
  877MOL0     H20969  10.757   9.771   9.789 -0.3181  2.6475  2.8446
  877MOL0     H20970  10.602   9.681   9.752 -0.2047  3.1238 -2.2522
  877MOL0     H20971  10.552   9.914   9.817 -2.4720 -2.0967 -0.4557
  877MOL0     H20972  10.634   9.877   9.979 -0.4883 -1.3598  0.9255
  877MOL0     H20973  10.369   9.753   9.856 -0.5683 -2.4202  1.4373
  877MOL0     H20974  10.446   9.692   9.995 -3.0836  1.8500  4.9112
  877MOL0     H20975  10.524   9.963  10.143  0.2366 -1.4761  0.5666
  877MOL0     H20976  10.261  10.262  10.153 -0.7208  0.7254  1.1951
  877MOL0     H20977  10.422  10.223  10.212 -0.5022  2.7105 -0.3669
  877MOL0     H20978  10.138  10.177  10.336  0.1690  0.7304  0.8552
  877MOL0     H20979  10.273  10.100  10.408  0.5034 -1.1113 -0.9755
  877MOL0     H20980  10.251  10.403  10.381 -0.3341  1.1677  3.5362
  877MOL0     H20981  10.208  10.301  10.510 -0.4146 -2.3588  0.4152
  877MOL0     H20982  10.479  10.287  10.387  0.3290  2.7425 -2.2787
  877MOL0     H20983  10.455  10.401  10.523 -3.6844  1.7732 -0.7517
  877MOL0     H20984  10.512  10.114  10.803  0.1631 -0.2212 -1.2236
  877MOL0     H20985  10.644  10.094  11.011  0.5109  0.8535 -0.4553
  877MOL0     H20986  10.816  10.082  11.007 -1.1110 -1.1441  2.2713
  877MOL0     H20987  10.734   9.949  10.941 -0.4582 -0.5902  2.2598
  877MOL0     H20988  11.076   9.899  11.068  0.5275  0.1373  0.8970
  877MOL0     H20989  11.300   9.830  11.135  2.0299  0.1490  1.6227
  877MOL0     H20990  11.530   9.879  11.238  1.4964 -0.0703  0.8403
  877MOL0     H20991  11.517   9.732  11.132 -0.7491 -0.1301 -0.3199
  877MOL0     H20992  11.727   9.731  11.234 -1.0589  1.1118  0.9730
  877MOL0     H20993  11.725   9.736  11.075 -1.0064 -2.2832  1.3113
  877MOL0     H20994  11.779   9.981  11.247 -3.1745 -4.1905  1.7615
  877MOL0     H20995  11.756  10.009  11.073  2.4545  0.7144  0.0601
  877MOL0     H20996  11.956   9.869  11.019 -0.5083 -1.8713  1.7933
  877MOL0     H20997  11.964   9.825  11.184  0.2518 -0.5886 -0.0081
  877MOL0     H20998  11.982  10.109  11.079  3.1064  0.1969 -3.4251
  877MOL0     H20999  12.012  10.055  11.242  0.8963 -0.0333 -0.1723
  877MOL0     H21000  12.167   9.960  11.000 -1.7430  0.6534  0.3222
  877MOL0     H21001  12.194   9.899  11.148  0.6615 -1.7755 -1.4542
  877MOL0     H21002  12.293  10.156  11.211  1.9469 -1.0796  0.4191
  877MOL0     H21003  12.179  10.202  11.085  0.8664  0.1838 -1.3136
  877MOL0     H21004  12.409  10.228  11.037 -0.5921  0.4178  0.3784
  877MOL0     H21005  12.342  10.119  10.915  0.2569 -1.0034  0.4190
  877MOL0     H21006  11.458  10.139  10.862 -0.5372 -0.2897 -0.9086
  877MOL0     H21007  11.257  10.178  10.786  1.4307  1.3482  0.9614
  877MOL0     H21008  10.912  10.166  10.524  1.5883  3.3421  2.5487
  877MOL0     H21009  10.680  10.200  10.426  0.2751  1.1359  0.0467
  877MOL0     H21010  10.826   8.905  10.084  3.9502 -0.1317  0.0043
  877MOL0     H21011  10.838   8.676  10.028 -0.5266  0.7395 -0.0297
  877MOL0     H21012  10.840   8.417   9.529 -1.1237 -1.4522 -0.4341
  877MOL0     H21013  10.884   8.196   9.425  2.5033 -4.7787  0.0019
  877MOL0     H21014  10.979   8.045   9.322 -0.9325  0.6964  3.0025
  877MOL0     H21015  11.149   8.087   9.317 -0.7166 -0.7405 -1.6064
  877MOL0     H21016  11.067   7.817   9.399 -0.2242 -0.2300 -0.1108
  877MOL0     H21017  11.225   7.876   9.342  0.3418  1.8567 -0.5705
  877MOL0     H21018  10.978   7.831   9.165  0.9713 -0.7668 -4.1686
  877MOL0     H21019  11.127   7.912   9.112 -2.3248  1.6991 -0.7757
  877MOL0     H21020  11.236   7.692   9.225 -0.3013 -1.9188 -0.7371
  877MOL0     H21021  11.155   7.686   9.062  1.1783  2.6069  0.6631
  877MOL0     H21022  10.919   7.425   9.274 -0.4921  0.1830 -1.3181
  877MOL0     H21023  11.168   8.107   9.732  1.5313  0.2072 -1.4585
  877MOL0     H21024  11.169   8.412   9.907 -2.6296  1.6835 -0.0635
  877MOL0     H21025  11.026   8.340   9.975 -1.5964  0.9447 -1.9202
  877MOL0     H21026  11.165   8.235   9.943  0.4045  0.0721  1.6265
  878MOL0     O21027  10.313   3.132   3.176 -0.7920 -0.1432  0.3505
  878MOL0     C21028  10.245   3.231   3.153 -0.2843  0.8275  0.2863
  878MOL0     O21029  10.172   3.243   3.036  0.0563  0.2050 -0.2653
  878MOL0     C21030  10.232   3.231   2.909 -0.6200 -0.2949 -0.9137
  878MOL0     C21031  10.374   3.238   2.886 -0.1377  0.6730  0.2699
  878MOL0     C21032  10.426   3.230   2.755  0.9117 -0.0832 -0.0250
  878MOL0     C21033  10.335   3.207   2.647 -1.0035 -0.5472  0.5451
  878MOL0     O21034  10.387   3.201   2.518  0.0271  0.2293  0.2752
  878MOL0     C21035  10.354   3.088   2.447  0.0702  0.1564  0.0882
  878MOL0     C21036  10.401   3.111   2.299 -0.2934 -0.8726  0.4753
  878MOL0     C21037  10.552   3.064   2.275 -0.5132  0.0778 -0.3570
  878MOL0     C21038  10.612   3.124   2.147 -0.0795 -0.1177  0.0741
  878MOL0     C21039  10.606   3.275   2.129 -0.3125 -0.5413  0.3118
  878MOL0     C21040  10.709   3.315   2.019  0.0924 -0.4341  0.6773
  878MOL0     C21041  10.764   3.456   2.012  1.1417  1.2064 -0.5648
  878MOL0     C21042  10.820   3.500   2.145 -0.8434  0.7778 -0.1861
  878MOL0     N21043  10.919   3.607   2.125 -0.3747 -0.2218  0.2194
  878MOL0     C21044  11.043   3.615   2.064  0.5509  1.0251 -1.2277
  878MOL0     C21045  11.106   3.729   2.113  0.5068  0.7848 -0.4639
  878MOL0     C21046  11.245   3.766   2.093  0.0721  0.7230  0.3100
  878MOL0     C21047  11.354   3.683   2.142  0.9331 -0.0298 -0.1295
  878MOL0     C21048  11.493   3.739   2.124  0.9152 -0.1898 -0.5998
  878MOL0     C21049  11.594   3.637   2.169  0.9234 -0.0228 -0.0432
  878MOL0     O21050  11.630   3.553   2.054 -0.1976  0.0089  0.4629
  878MOL0     C21051  11.737   3.460   2.069 -0.3903 -1.1834  0.6608
  878MOL0     C21052  11.795   3.377   1.969  0.4045  0.7972 -0.1239
  878MOL0     C21053  11.879   3.265   2.001  0.2578 -0.8285 -0.5916
  878MOL0     C21054  11.898   3.169   1.889  0.0857  0.0402  0.6208
  878MOL0     C21055  11.944   3.258   2.130 -0.4783 -0.0987  0.0024
  878MOL0     C21056  12.043   3.163   2.191 -0.2514  0.3861 -0.1375
  878MOL0     O21057  12.080   3.179   2.326 -0.2875 -0.1693 -0.3330
  878MOL0     C21058  12.169   3.084   2.370  0.0581 -0.8432 -0.0571
  878MOL0     C21059  12.114   2.983   2.458  0.4044  0.3887 -0.3012
  878MOL0     C21060  12.197   2.878   2.501  0.7326  0.2214 -0.0200
  878MOL0     C21061  12.336   2.883   2.467  0.5776 -0.0702  0.2337
  878MOL0     O21062  12.429   2.784   2.513 -0.1190 -0.0688 -0.3821
  878MOL0     C21063  12.389   2.702   2.623 -0.6607  0.1422 -0.5005
  878MOL0     C21064  12.521   2.653   2.688  0.0179  0.9142 -0.1760
  878MOL0     C21065  12.495   2.582   2.820  0.1589  0.2331 -0.3236
  878MOL0     C21066  12.614   2.567   2.911 -0.2441  0.5066  0.4854
  878MOL0     C21067  12.658   2.422   2.908  0.5788  0.0490 -0.0751
  878MOL0     C21068  12.723   2.390   2.771 -0.4118  0.0094 -0.7968
  878MOL0     C21069  12.804   2.260   2.749  0.0908  0.9496 -0.5342
  878MOL0     C21070  12.725   2.135   2.800 -0.5582 -0.1688 -0.6966
  878MOL0    Cl21071  12.554   2.136   2.751  0.3225  0.2511  0.4845
  878MOL0     C21072  12.384   2.995   2.395 -0.3675 -0.1693  0.2778
  878MOL0     C21073  12.297   3.095   2.342 -0.3137 -0.7965 -0.4047
  878MOL0     O21074  12.102   3.089   2.111  0.3411 -0.1675 -0.3230
  878MOL0     C21075  11.894   3.351   2.217 -0.8852 -0.0069 -0.7511
  878MOL0     C21076  11.801   3.451   2.195 -0.2256  0.1320  0.0860
  878MOL0     N21077  11.011   3.786   2.203 -0.6105 -0.3792 -0.1820
  878MOL0     N21078  10.904   3.729   2.192  0.3419  0.9311 -0.7515
  878MOL0     C21079  10.201   3.201   2.680  0.4548  1.1577 -0.6587
  878MOL0     C21080  10.152   3.206   2.801 -0.5628 -0.4162 -0.4469
  878MOL0     C21081  10.240   3.329   3.260 -0.2760 -0.1691 -0.5660
  878MOL0     C21082  10.248   3.279   3.392  0.1440  0.2940 -0.2384
  878MOL0     C21083  10.229   3.369   3.498  0.0520  0.0850 -0.7447
  878MOL0     C21084  10.211   3.504   3.483  0.4622  0.5237  0.1551
  878MOL0     O21085  10.225   3.572   3.609 -0.2376  0.1215  0.4521
  878MOL0     C21086  10.235   3.718   3.605 -1.1833 -0.3098  0.6905
  878MOL0     C21087  10.102   3.790   3.582  0.0663  0.9282  0.5265
  878MOL0     C21088  10.090   3.930   3.647 -0.7466  0.2933 -0.2178
  878MOL0     C21089   9.999   4.030   3.589 -0.5103  0.2223  0.6448
  878MOL0     C21090   9.860   3.975   3.582  1.0084  0.4227  0.1827
  878MOL0     C21091   9.742   3.952   3.550 -0.2887 -0.6306  0.6024
  878MOL0     C21092  10.189   3.549   3.352 -0.2701 -0.4399  0.0417
  878MOL0     C21093  10.204   3.464   3.246  0.3662 -0.5151 -0.6111
  878MOL0     C21094  10.197   3.528   3.108  0.2708  0.3920 -0.8701
  878MOL0     H21095  10.447   3.254   2.964  0.5543  0.8282 -0.3941
  878MOL0     H21096  10.532   3.241   2.736  0.8401 -1.3019 -1.3303
  878MOL0     H21097  10.245   3.086   2.457  0.0347  2.9975  1.2700
  878MOL0     H21098  10.402   2.997   2.484  1.2875 -0.2536 -2.2762
  878MOL0     H21099  10.351   3.047   2.226 -0.1033 -2.2584  1.5070
  878MOL0     H21100  10.386   3.212   2.261 -1.7742 -1.2550 -0.0070
  878MOL0     H21101  10.616   3.091   2.359 -0.2631 -0.3401 -0.4086
  878MOL0     H21102  10.553   2.955   2.272  1.6418 -0.0194  1.5130
  878MOL0     H21103  10.715   3.089   2.141 -0.0953 -0.1172 -0.1890
  878MOL0     H21104  10.550   3.074   2.072 -2.2200 -1.7224  2.7170
  878MOL0     H21105  10.633   3.331   2.219 -1.5709  0.1806  0.2653
  878MOL0     H21106  10.501   3.303   2.116 -0.9155 -1.4128  2.6926
  878MOL0     H21107  10.788   3.240   2.012  1.5988  1.2504 -2.8149
  878MOL0     H21108  10.656   3.323   1.923  2.0664  3.3188 -0.2982
  878MOL0     H21109  10.686   3.528   1.984 -1.5115 -1.1444  0.2961
  878MOL0     H21110  10.843   3.453   1.937 -0.7926 -0.1557 -2.6806
  878MOL0     H21111  10.739   3.530   2.212 -0.8365  1.0433 -0.2974
  878MOL0     H21112  10.864   3.408   2.185 -0.8792  0.8268 -0.0323
  878MOL0     H21113  11.090   3.542   1.998 -0.5617 -0.5685 -0.3244
  878MOL0     H21114  11.274   3.862   2.137  1.4478  1.5603 -2.1696
  878MOL0     H21115  11.258   3.769   1.984  0.9009  3.3523  0.4120
  878MOL0     H21116  11.339   3.659   2.247  1.0804 -0.1729 -0.1390
  878MOL0     H21117  11.362   3.590   2.084 -0.2558  0.3612 -0.9688
  878MOL0     H21118  11.518   3.778   2.025  0.0923  1.9231 -0.0319
  878MOL0     H21119  11.502   3.825   2.190  0.5081 -0.2681 -0.4374
  878MOL0     H21120  11.692   3.678   2.193  2.0776 -1.0838 -2.5247
  878MOL0     H21121  11.566   3.584   2.261 -1.1104  2.0703  0.6117
  878MOL0     H21122  11.753   3.371   1.869  2.3738  0.4526 -0.9943
  878MOL0     H21123  11.821   3.091   1.885  1.7412 -1.6294 -1.8484
  878MOL0     H21124  11.991   3.111   1.890  0.1411  0.1095  1.9381
  878MOL0     H21125  11.899   3.232   1.800 -0.9728  0.7208  1.0673
  878MOL0     H21126  12.009   2.975   2.485  1.1094  1.4990  3.4207
  878MOL0     H21127  12.151   2.808   2.570 -1.3900  1.2814 -0.2770
  878MOL0     H21128  12.334   2.760   2.697  2.1712  0.7005  1.3499
  878MOL0     H21129  12.328   2.616   2.595 -3.4301  1.7496  0.2594
  878MOL0     H21130  12.579   2.591   2.619  0.5296 -0.3462  1.3421
  878MOL0     H21131  12.588   2.737   2.707 -1.3642  1.9344  0.3225
  878MOL0     H21132  12.450   2.487   2.790  0.3756 -1.1871  3.3065
  878MOL0     H21133  12.421   2.645   2.870 -2.3042 -1.9517 -1.0136
  878MOL0     H21134  12.589   2.605   3.010  0.9867  0.9262  0.6542
  878MOL0     H21135  12.694   2.632   2.874 -0.5521  0.6711  0.1055
  878MOL0     H21136  12.727   2.407   2.991 -0.9000  2.5101  1.7222
  878MOL0     H21137  12.572   2.355   2.916  0.4947  0.1713  0.0490
  878MOL0     H21138  12.799   2.465   2.749 -0.5732  0.6748  0.7970
  878MOL0     H21139  12.643   2.392   2.696 -2.6965  0.0786  1.5116
  878MOL0     H21140  12.900   2.263   2.801 -1.7597 -1.1758  3.4109
  878MOL0     H21141  12.822   2.243   2.642  1.0697 -3.2483  0.0934
  878MOL0     H21142  12.733   2.138   2.909  3.2283 -2.9667 -0.7098
  878MOL0     H21143  12.772   2.041   2.770  0.3794  1.4780 -5.3221
  878MOL0     H21144  12.488   3.022   2.384  0.1602  0.3764  4.7127
  878MOL0     H21145  12.343   3.179   2.291 -2.0309  0.1679 -0.4345
  878MOL0     H21146  11.912   3.357   2.324 -0.9666  2.2941 -0.8197
  878MOL0     H21147  11.767   3.499   2.286  2.6524 -0.4960  1.6076
  878MOL0     H21148  10.131   3.200   2.596 -2.2915  0.0632  1.4873
  878MOL0     H21149  10.046   3.204   2.822 -0.8853 -1.3460 -2.0275
  878MOL0     H21150  10.259   3.171   3.401  0.3779  0.0732 -2.4500
  878MOL0     H21151  10.247   3.330   3.597  2.2056  2.6596 -0.0028
  878MOL0     H21152  10.287   3.751   3.695 -0.7081 -2.6932  1.3535
  878MOL0     H21153  10.305   3.743   3.525 -0.0485 -1.8970  1.1122
  878MOL0     H21154  10.031   3.720   3.628  1.0869 -0.2045  0.4491
  878MOL0     H21155  10.074   3.806   3.478 -0.5444  2.9198  0.9668
  878MOL0     H21156  10.073   3.933   3.755  0.7428  0.6396  0.0411
  878MOL0     H21157  10.192   3.969   3.640 -0.1912 -0.7167  1.5897
  878MOL0     H21158  10.034   4.054   3.488 -3.1340  0.9034 -0.1938
  878MOL0     H21159  10.009   4.129   3.635 -0.1258  0.1257  0.7754
  878MOL0     H21160   9.643   3.938   3.512  0.1718 -1.0215 -0.4817
  878MOL0     H21161  10.185   3.657   3.338 -1.6850 -0.4462  0.2731
  878MOL0     H21162  10.101   3.498   3.064  0.8026 -2.7054 -0.1197
  878MOL0     H21163  10.201   3.637   3.116 -0.5462  0.3037  1.9005
  878MOL0     H21164  10.281   3.503   3.043 -0.1105 -0.8869 -0.8949
  879MOL0     O21165   6.896   8.345   2.770  0.5132 -0.2913  0.2372
  879MOL0     C21166   6.980   8.373   2.680  0.4618  1.2432  0.9566
  879MOL0     O21167   6.947   8.421   2.553  0.2190 -0.2476 -0.5796
  879MOL0     C21168   6.823   8.399   2.491  0.1416 -0.1919 -0.1379
  879MOL0     C21169   6.835   8.391   2.352 -0.5228  0.4720  0.2974
  879MOL0     C21170   6.719   8.376   2.272 -0.1203  0.7668  0.4713
  879MOL0     C21171   6.597   8.338   2.319 -0.2316 -0.5910  0.1755
  879MOL0     O21172   6.496   8.320   2.224  0.4424  0.4840 -0.2843
  879MOL0     C21173   6.380   8.256   2.291 -0.7859  0.0032 -0.1211
  879MOL0     C21174   6.273   8.204   2.195  0.5867 -0.6516 -0.7416
  879MOL0     C21175   6.220   8.321   2.116  0.2302 -0.0692 -1.2079
  879MOL0     C21176   6.152   8.430   2.207  0.9739  1.1038  0.0292
  879MOL0     C21177   6.053   8.507   2.135 -0.3323 -0.8854  0.1599
  879MOL0     C21178   5.942   8.571   2.223  1.1160 -0.5826 -0.3328
  879MOL0     C21179   5.856   8.675   2.166 -0.0479 -0.5972  0.1646
  879MOL0     C21180   5.789   8.632   2.040  1.2243 -0.3135  1.0844
  879MOL0     N21181   5.672   8.545   2.068  0.4244 -0.2780 -0.0888
  879MOL0     C21182   5.676   8.411   2.115  0.0241  0.1317 -0.0846
  879MOL0     C21183   5.547   8.385   2.154 -0.2639 -0.4105 -0.2375
  879MOL0     C21184   5.497   8.257   2.209 -0.6363 -0.1920  0.2930
  879MOL0     C21185   5.517   8.223   2.365  0.0343  0.5790 -0.1691
  879MOL0     C21186   5.480   8.075   2.393  0.1024  0.5247  0.4746
  879MOL0     C21187   5.351   8.033   2.333 -0.6349  0.5793 -0.1736
  879MOL0     O21188   5.310   7.904   2.395 -0.3074 -0.5296  0.0718
  879MOL0     C21189   5.191   7.844   2.356  0.0063 -0.0324 -0.2588
  879MOL0     C21190   5.101   7.912   2.271 -0.3032 -0.0403 -0.5346
  879MOL0     C21191   4.978   7.850   2.240 -0.0776 -0.2242 -0.8783
  879MOL0     C21192   4.896   7.910   2.128  0.3419 -0.3632  0.6675
  879MOL0     C21193   4.940   7.724   2.311 -0.0484 -0.5877  0.6445
  879MOL0     C21194   4.810   7.663   2.295  0.2293  0.3871  0.2935
  879MOL0     O21195   4.791   7.528   2.264  0.0996  0.1351  0.0745
  879MOL0     C21196   4.678   7.465   2.298 -0.0665 -0.4030  0.3118
  879MOL0     C21197   4.621   7.454   2.426  1.1099 -0.3400  0.0563
  879MOL0     C21198   4.498   7.385   2.438 -0.3698 -0.0065 -0.0184
  879MOL0     C21199   4.434   7.322   2.334 -0.4415  0.0500  0.0690
  879MOL0     O21200   4.316   7.251   2.359  0.1279 -0.5389 -0.4314
  879MOL0     C21201   4.330   7.155   2.468 -0.2260 -1.2932  0.5740
  879MOL0     C21202   4.213   7.071   2.463  0.6842  0.5823  0.2772
  879MOL0     C21203   4.100   7.124   2.547  0.5270 -0.6056  0.4160
  879MOL0     C21204   3.968   7.039   2.515 -0.1840 -0.3522 -0.8432
  879MOL0     C21205   3.855   7.083   2.603  0.2378 -0.8870  0.9424
  879MOL0     C21206   3.814   7.225   2.617 -0.6240  0.0823  0.3379
  879MOL0     C21207   3.714   7.253   2.724 -0.2832  0.3091 -0.8215
  879MOL0     C21208   3.576   7.194   2.688 -0.5680  0.0315 -0.4211
  879MOL0    Cl21209   3.570   7.025   2.742 -0.0740 -0.3488  0.2777
  879MOL0     C21210   4.488   7.340   2.209 -0.8037  0.2285 -0.3009
  879MOL0     C21211   4.611   7.403   2.190 -0.2136 -0.3655 -0.1927
  879MOL0     O21212   4.723   7.739   2.342  0.4433 -0.0035  0.0562
  879MOL0     C21213   5.030   7.669   2.400 -0.2903  0.2489  0.9215
  879MOL0     C21214   5.150   7.726   2.426 -0.0226 -0.3701  0.1806
  879MOL0     N21215   5.472   8.503   2.136 -0.5260 -0.2679 -0.4347
  879MOL0     N21216   5.546   8.596   2.094  0.1352 -0.1272  0.2606
  879MOL0     C21217   6.589   8.350   2.463 -0.2614 -0.2248  0.5459
  879MOL0     C21218   6.702   8.371   2.549  0.0564 -0.0504  0.0192
  879MOL0     C21219   7.127   8.383   2.717 -0.3013 -0.1365  0.0585
  879MOL0     C21220   7.200   8.483   2.649 -0.1779  0.2776 -0.0146
  879MOL0     C21221   7.341   8.490   2.676  0.7935 -0.1865  0.2066
  879MOL0     C21222   7.405   8.394   2.759 -0.5458  0.7706  0.3875
  879MOL0     O21223   7.541   8.414   2.780 -0.3531 -0.0438  0.4952
  879MOL0     C21224   7.616   8.305   2.832  0.5857 -0.3175 -0.9012
  879MOL0     C21225   7.762   8.329   2.826 -0.0961  0.6231 -0.6905
  879MOL0     C21226   7.809   8.461   2.889  0.4127 -0.0547  0.4606
  879MOL0     C21227   7.795   8.491   3.035 -0.4540  0.6111  1.0054
  879MOL0     C21228   7.873   8.612   3.068 -0.1228 -0.4304 -0.1107
  879MOL0     C21229   7.931   8.712   3.098  0.8888  0.7932 -0.6961
  879MOL0     C21230   7.329   8.296   2.824 -0.6058 -0.2469 -0.4225
  879MOL0     C21231   7.192   8.294   2.805  0.1823 -0.4726  0.5449
  879MOL0     C21232   7.117   8.188   2.880 -0.5713  0.1681  0.2442
  879MOL0     H21233   6.931   8.417   2.307 -1.8558  0.3977 -2.8734
  879MOL0     H21234   6.727   8.375   2.164 -0.6524 -0.2090  0.4315
  879MOL0     H21235   6.340   8.338   2.352  2.0190 -0.1899  2.2000
  879MOL0     H21236   6.413   8.174   2.355 -1.8547  0.2369  0.7479
  879MOL0     H21237   6.330   8.142   2.125  1.5607 -1.3430  0.5970
  879MOL0     H21238   6.197   8.128   2.219 -0.8696  0.7157 -0.8773
  879MOL0     H21239   6.299   8.365   2.056  0.7896 -0.4401 -0.7519
  879MOL0     H21240   6.142   8.278   2.052  0.0052 -0.7501 -0.4915
  879MOL0     H21241   6.101   8.372   2.284  2.4676 -1.1459 -0.5713
  879MOL0     H21242   6.225   8.496   2.254  1.8614 -0.6610  1.2252
  879MOL0     H21243   6.008   8.447   2.055 -1.1464 -0.1297  0.0394
  879MOL0     H21244   6.110   8.586   2.085 -1.7479 -0.7867 -1.3851
  879MOL0     H21245   5.884   8.483   2.253  1.2559 -1.1390 -1.5976
  879MOL0     H21246   5.992   8.616   2.309  2.4100  3.0717 -2.7717
  879MOL0     H21247   5.917   8.763   2.146  3.3920 -2.5750  1.1203
  879MOL0     H21248   5.775   8.703   2.235 -0.9385 -0.4385 -0.9129
  879MOL0     H21249   5.754   8.722   1.989  0.3203 -0.5431  1.2975
  879MOL0     H21250   5.853   8.581   1.968  2.6507 -0.9565  2.7233
  879MOL0     H21251   5.763   8.348   2.129  0.7118  1.7405  4.4624
  879MOL0     H21252   5.542   8.182   2.143 -0.4598  0.3032 -0.1644
  879MOL0     H21253   5.390   8.273   2.192 -0.3534  1.5426 -0.1257
  879MOL0     H21254   5.622   8.231   2.396  0.1395 -0.4083 -0.2424
  879MOL0     H21255   5.457   8.292   2.424  0.8743 -1.0667  2.8352
  879MOL0     H21256   5.559   8.004   2.368  1.2856  1.4765  1.3783
  879MOL0     H21257   5.472   8.086   2.502  0.9601 -1.6483  0.8002
  879MOL0     H21258   5.270   8.103   2.358 -0.7728  0.4901 -0.3640
  879MOL0     H21259   5.358   8.017   2.225 -0.1663 -0.1051 -0.0497
  879MOL0     H21260   5.122   8.001   2.212  0.4088 -0.5676 -1.0968
  879MOL0     H21261   4.925   7.858   2.036 -0.5329  1.8568 -0.9268
  879MOL0     H21262   4.905   8.018   2.132  0.7091 -0.3675  0.1301
  879MOL0     H21263   4.789   7.895   2.142  0.1229  0.7457  0.2666
  879MOL0     H21264   4.671   7.498   2.512  0.6996  2.2652 -0.9418
  879MOL0     H21265   4.476   7.371   2.543  2.8451 -2.9230  0.4535
  879MOL0     H21266   4.417   7.089   2.459  0.3180 -0.2933 -3.9897
  879MOL0     H21267   4.336   7.205   2.564 -1.7287 -3.8473  2.1102
  879MOL0     H21268   4.185   7.049   2.359  1.8302 -2.9930  0.5984
  879MOL0     H21269   4.224   6.977   2.517  0.0396  0.2052 -0.2319
  879MOL0     H21270   4.075   7.228   2.523  0.2627 -1.1231 -1.7345
  879MOL0     H21271   4.132   7.117   2.651  0.7478 -0.9995  0.3218
  879MOL0     H21272   3.991   6.938   2.552 -1.4835 -0.4143 -0.1337
  879MOL0     H21273   3.953   7.035   2.406 -0.3375 -4.1964 -0.8452
  879MOL0     H21274   3.767   7.039   2.556  0.1605  1.9190 -1.9370
  879MOL0     H21275   3.878   7.055   2.706 -0.5815 -0.4365  1.2560
  879MOL0     H21276   3.775   7.253   2.519  1.0415  1.8226  0.1058
  879MOL0     H21277   3.899   7.293   2.631  2.0378 -3.0521  0.6571
  879MOL0     H21278   3.695   7.360   2.741  0.3313 -0.1401  4.4113
  879MOL0     H21279   3.746   7.217   2.822 -1.5961  0.7258 -0.2124
  879MOL0     H21280   3.556   7.191   2.581  1.6291 -0.4582 -0.8555
  879MOL0     H21281   3.503   7.255   2.743  0.2113 -1.1844  2.1053
  879MOL0     H21282   4.431   7.295   2.128 -1.4104  0.7325 -0.1622
  879MOL0     H21283   4.660   7.411   2.093  4.6004 -1.7535  1.8512
  879MOL0     H21284   4.999   7.575   2.445 -1.0483  1.4664  3.1400
  879MOL0     H21285   5.217   7.679   2.498  1.1625  0.2733 -0.4722
  879MOL0     H21286   6.492   8.349   2.513 -0.6779  2.0468 -0.1052
  879MOL0     H21287   6.695   8.373   2.658  3.7779 -2.1947  0.4655
  879MOL0     H21288   7.171   8.544   2.564  0.6699  0.1104 -0.4411
  879MOL0     H21289   7.399   8.571   2.634 -1.8490  1.8258  0.2201
  879MOL0     H21290   7.596   8.305   2.939  0.4726  1.4956 -0.8980
  879MOL0     H21291   7.574   8.215   2.787 -1.0074  0.8492 -1.8482
  879MOL0     H21292   7.783   8.328   2.719 -1.7698 -1.2309 -1.0551
  879MOL0     H21293   7.815   8.246   2.874 -1.3248  0.2729  0.1067
  879MOL0     H21294   7.917   8.459   2.871  0.1153  1.3730 -1.9485
  879MOL0     H21295   7.779   8.553   2.838 -0.5675  0.3697  1.7434
  879MOL0     H21296   7.834   8.406   3.092  4.2398  2.4599  1.0046
  879MOL0     H21297   7.689   8.504   3.059 -0.2870  1.3181  1.3803
  879MOL0     H21298   7.984   8.798   3.133  0.8517  0.9396 -0.9940
  879MOL0     H21299   7.371   8.234   2.903  0.7746 -0.6187 -1.4165
  879MOL0     H21300   7.185   8.148   2.955  2.5902  1.9235 -1.4755
  879MOL0     H21301   7.030   8.239   2.924 -0.9723  0.0978 -0.4470
  879MOL0     H21302   7.084   8.104   2.818 -2.6648  1.2280 -0.1875
  880MOL0     O21303   2.235   7.418   0.500  0.4181  0.0717 -0.8659
  880MOL0     C21304   2.208   7.363   0.607 -0.2642 -0.2138  0.4012
  880MOL0     O21305   2.283   7.374   0.726  0.1518  0.4845  0.0964
  880MOL0     C21306   2.389   7.459   0.748 -0.1527  0.5746  0.7324
  880MOL0     C21307   2.393   7.588   0.700 -0.9016 -0.1931  0.1864
  880MOL0     C21308   2.515   7.669   0.721  0.4017  0.1737 -1.4556
  880MOL0     C21309   2.625   7.609   0.781 -0.1834 -0.0915  0.3476
  880MOL0     O21310   2.742   7.690   0.788  0.2220  0.4921 -0.8424
  880MOL0     C21311   2.822   7.678   0.908  0.7358  0.8262 -0.3292
  880MOL0     C21312   2.968   7.730   0.884  0.0168 -0.0457  0.0960
  880MOL0     C21313   2.961   7.881   0.839  0.2117  0.0921  0.0813
  880MOL0     C21314   3.101   7.944   0.865 -0.0835  1.0295 -0.4605
  880MOL0     C21315   3.084   8.093   0.815 -0.7813 -0.3872 -0.0014
  880MOL0     C21316   3.209   8.183   0.837 -0.1747  0.0122 -0.5456
  880MOL0     C21317   3.177   8.327   0.806 -0.3097 -0.6860 -0.4298
  880MOL0     C21318   3.185   8.356   0.649 -0.2314 -0.7394  0.2528
  880MOL0     N21319   3.307   8.307   0.585  0.5808  0.0271 -0.5258
  880MOL0     C21320   3.301   8.190   0.513 -0.2821 -0.5022  0.5112
  880MOL0     C21321   3.432   8.146   0.531 -0.1697  0.4192 -0.3654
  880MOL0     C21322   3.471   8.002   0.489 -0.5764 -0.1524 -0.2181
  880MOL0     C21323   3.553   7.927   0.604 -0.1156  0.3112  0.7746
  880MOL0     C21324   3.566   7.783   0.549 -0.4015 -0.8743 -0.2891
  880MOL0     C21325   3.670   7.695   0.621  0.3464  0.1806 -0.2249
  880MOL0     O21326   3.646   7.565   0.573 -0.3419 -0.2925 -0.2434
  880MOL0     C21327   3.679   7.455   0.641 -0.2715 -0.3136 -1.2514
  880MOL0     C21328   3.616   7.337   0.596 -0.0461  0.5576  0.1506
  880MOL0     C21329   3.658   7.214   0.655 -0.1089 -0.6278  0.9274
  880MOL0     C21330   3.586   7.093   0.613 -0.4853 -0.9025 -0.3556
  880MOL0     C21331   3.756   7.214   0.758  0.7301  0.6323  0.0411
  880MOL0     C21332   3.786   7.085   0.842 -0.2362 -0.6632 -0.2264
  880MOL0     O21333   3.688   6.995   0.887  0.4390 -0.2362 -0.1080
  880MOL0     C21334   3.706   6.933   1.006 -0.0582  0.5168  0.4515
  880MOL0     C21335   3.676   6.998   1.125 -0.1091  0.9773 -0.4487
  880MOL0     C21336   3.708   6.931   1.242 -0.3049 -0.2188  0.1234
  880MOL0     C21337   3.774   6.814   1.250 -0.1757  0.4729  0.3849
  880MOL0     O21338   3.800   6.734   1.366 -0.3011 -0.7054  0.1846
  880MOL0     C21339   3.804   6.798   1.501  0.1333 -0.1810  0.3976
  880MOL0     C21340   3.691   6.764   1.602  0.3103  0.3561  0.8617
  880MOL0     C21341   3.663   6.881   1.694  0.3301  0.1144  0.0197
  880MOL0     C21342   3.522   6.874   1.755  0.3470 -0.4706 -1.0113
  880MOL0     C21343   3.484   6.999   1.835 -1.0509 -0.0083 -0.2232
  880MOL0     C21344   3.336   6.998   1.865 -1.1398 -0.2383  0.2048
  880MOL0     C21345   3.288   7.129   1.934  0.1710  0.5343  0.4201
  880MOL0     C21346   3.155   7.124   2.011 -0.0261 -0.0432 -0.2573
  880MOL0    Cl21347   3.021   7.107   1.898 -0.4371  0.2082  0.1404
  880MOL0     C21348   3.800   6.750   1.133 -0.5800  0.1097  0.0583
  880MOL0     C21349   3.755   6.805   1.010  0.7494 -0.3874 -0.3637
  880MOL0     O21350   3.903   7.081   0.876  0.5925 -0.1901  0.1221
  880MOL0     C21351   3.820   7.334   0.794  0.2949 -0.6617  0.9041
  880MOL0     C21352   3.778   7.456   0.742  0.7163 -0.0738 -0.3732
  880MOL0     N21353   3.506   8.250   0.588 -0.0445  0.3125  0.3082
  880MOL0     N21354   3.429   8.345   0.627  0.3925 -0.0928 -0.6684
  880MOL0     C21355   2.619   7.473   0.822  1.0199 -0.8217  0.1294
  880MOL0     C21356   2.503   7.403   0.806  0.3904 -0.9346 -0.0864
  880MOL0     C21357   2.102   7.258   0.604 -0.6042  0.1714  0.5477
  880MOL0     C21358   2.095   7.163   0.709 -0.6423 -0.3251  0.2875
  880MOL0     C21359   2.001   7.054   0.711 -0.2454 -0.0227 -0.4328
  880MOL0     C21360   1.910   7.041   0.605  0.0436  0.0818 -0.3524
  880MOL0     O21361   1.821   6.932   0.607 -0.2626  0.3442 -0.6408
  880MOL0     C21362   1.745   6.908   0.490 -0.4169 -0.2152  0.2057
  880MOL0     C21363   1.613   6.989   0.509 -0.3604  0.2666 -0.3450
  880MOL0     C21364   1.503   6.903   0.584 -0.4623  0.3101 -0.7605
  880MOL0     C21365   1.382   6.987   0.607  0.9223 -0.0386  0.2143
  880MOL0     C21366   1.303   7.020   0.491 -0.0018  0.5545  1.2077
  880MOL0     C21367   1.220   7.035   0.394  0.0751  0.4194 -0.0881
  880MOL0     C21368   1.903   7.153   0.517 -0.0402 -0.2147  0.2957
  880MOL0     C21369   1.995   7.257   0.512 -0.4261  0.2843 -0.3976
  880MOL0     C21370   1.980   7.363   0.403  0.0334 -1.1284 -0.0913
  880MOL0     H21371   2.311   7.624   0.638 -0.8199 -3.3665 -2.0102
  880MOL0     H21372   2.529   7.773   0.695  0.1904  1.2896  2.2857
  880MOL0     H21373   2.836   7.574   0.941  1.3125  0.2583 -2.2512
  880MOL0     H21374   2.772   7.725   0.993  0.9289 -1.7122  1.2904
  880MOL0     H21375   3.026   7.722   0.976 -2.4421  2.7902  2.0730
  880MOL0     H21376   3.015   7.677   0.800 -0.1153 -2.7708  1.6185
  880MOL0     H21377   2.934   7.882   0.733  0.6134  1.2521 -0.0289
  880MOL0     H21378   2.875   7.924   0.891 -3.2211 -2.7583 -2.7122
  880MOL0     H21379   3.141   7.934   0.966 -0.4162 -2.8507 -0.5533
  880MOL0     H21380   3.174   7.908   0.791 -1.0846 -0.2484 -0.8718
  880MOL0     H21381   3.002   8.136   0.873  1.4461  3.1629  0.8918
  880MOL0     H21382   3.061   8.100   0.709 -0.5713  0.4318 -0.0013
  880MOL0     H21383   3.239   8.184   0.943 -0.0883 -1.3289 -0.5393
  880MOL0     H21384   3.296   8.150   0.780 -2.0146 -1.2482 -2.7838
  880MOL0     H21385   3.259   8.390   0.840  1.6385 -1.9755 -2.4037
  880MOL0     H21386   3.078   8.352   0.844 -1.1066 -1.1612 -2.0741
  880MOL0     H21387   3.104   8.302   0.600 -1.4964 -0.0367  1.4825
  880MOL0     H21388   3.174   8.463   0.629  0.6554 -0.8636 -1.0044
  880MOL0     H21389   3.218   8.150   0.456 -0.5569  0.5340  0.1510
  880MOL0     H21390   3.534   8.009   0.400 -1.0529  1.6920 -0.4425
  880MOL0     H21391   3.382   7.940   0.471 -0.0865 -1.2654  1.0429
  880MOL0     H21392   3.654   7.968   0.606  0.1371 -0.1323 -1.1972
  880MOL0     H21393   3.496   7.931   0.698 -0.7546  0.9529  0.3780
  880MOL0     H21394   3.470   7.732   0.550 -1.2313  0.5254  2.7595
  880MOL0     H21395   3.604   7.790   0.447 -1.5480  0.8129 -0.6582
  880MOL0     H21396   3.775   7.721   0.606  0.2702  0.8612  0.3691
  880MOL0     H21397   3.650   7.695   0.728 -1.4278  1.4544 -0.5131
  880MOL0     H21398   3.535   7.328   0.524 -0.7963  0.5804  0.9711
  880MOL0     H21399   3.642   7.014   0.563 -0.6517 -0.8784 -0.5834
  880MOL0     H21400   3.506   7.113   0.542 -0.8187 -1.5990 -0.1868
  880MOL0     H21401   3.549   7.057   0.709 -0.6381  1.1242  0.3929
  880MOL0     H21402   3.627   7.095   1.119 -1.1602  0.3832 -2.2921
  880MOL0     H21403   3.679   6.990   1.329  0.4811  1.0317 -0.4453
  880MOL0     H21404   3.899   6.776   1.550 -0.3985 -1.1408  1.0278
  880MOL0     H21405   3.806   6.906   1.482  0.5950 -0.4543 -1.3340
  880MOL0     H21406   3.604   6.748   1.539  2.4982 -0.6511 -2.1122
  880MOL0     H21407   3.704   6.672   1.660 -2.3719 -0.2255  0.6662
  880MOL0     H21408   3.670   6.981   1.652 -2.1638  0.3052 -0.1216
  880MOL0     H21409   3.734   6.878   1.777 -2.1690  3.1219  2.5479
  880MOL0     H21410   3.520   6.784   1.818  2.8325 -2.2733 -3.2941
  880MOL0     H21411   3.453   6.867   1.671 -0.3840  1.3026 -0.6167
  880MOL0     H21412   3.536   6.997   1.931 -1.3431  3.2355  0.1057
  880MOL0     H21413   3.518   7.090   1.786  1.3636 -0.5588  0.3216
  880MOL0     H21414   3.332   6.918   1.940 -0.0132  1.5260  2.2663
  880MOL0     H21415   3.275   6.981   1.777  0.2599  3.5788 -1.7442
  880MOL0     H21416   3.284   7.208   1.858 -4.1519 -0.2604 -0.4484
  880MOL0     H21417   3.375   7.152   1.997 -1.4295  1.3700  2.4449
  880MOL0     H21418   3.131   7.220   2.056 -0.0379  0.0807 -0.5280
  880MOL0     H21419   3.147   7.044   2.086 -0.9700  0.2553 -0.0275
  880MOL0     H21420   3.846   6.653   1.125 -0.7208  0.1355 -1.2431
  880MOL0     H21421   3.764   6.741   0.923  0.9913 -0.1928 -0.4840
  880MOL0     H21422   3.877   7.342   0.886  0.1940  3.6127  0.7992
  880MOL0     H21423   3.837   7.544   0.767 -0.5748  1.1319 -1.4234
  880MOL0     H21424   2.699   7.423   0.876  0.4009 -0.4572  1.4328
  880MOL0     H21425   2.513   7.298   0.827  2.6385 -0.9349 -0.8732
  880MOL0     H21426   2.157   7.176   0.797 -0.4309  0.2561  0.0546
  880MOL0     H21427   2.003   6.984   0.794  1.4569  0.0736 -0.3436
  880MOL0     H21428   1.807   6.936   0.404  1.9849  1.3275  2.2850
  880MOL0     H21429   1.720   6.802   0.480 -2.1194 -0.3450  4.1277
  880MOL0     H21430   1.577   7.020   0.411 -2.2314 -0.2115  0.1423
  880MOL0     H21431   1.630   7.082   0.564  0.1696  0.7214 -1.2545
  880MOL0     H21432   1.480   6.806   0.540  0.6711  0.6511 -2.1561
  880MOL0     H21433   1.542   6.875   0.683  1.8719 -0.3564 -1.8086
  880MOL0     H21434   1.393   7.088   0.645 -0.5317  0.2008  0.0569
  880MOL0     H21435   1.326   6.931   0.683 -0.3197  1.5145  0.4836
  880MOL0     H21436   1.156   7.054   0.310  1.9355 -0.6535 -1.8410
  880MOL0     H21437   1.834   7.150   0.433  2.5270 -0.5044 -1.9439
  880MOL0     H21438   1.980   7.460   0.453 -2.0953 -0.7603 -0.7098
  880MOL0     H21439   2.057   7.369   0.326  0.9468  3.8071  0.8833
  880MOL0     H21440   1.881   7.365   0.358 -0.5556  1.6909  1.1045
  881MOL0     O21441   3.508   7.056   2.188 -0.1742  0.5570  1.3369
  881MOL0     C21442   3.459   7.101   2.286 -0.0440  0.0491 -0.1092
  881MOL0     O21443   3.401   7.021   2.378  0.2865 -0.1206  0.0768
  881MOL0     C21444   3.369   6.890   2.349  1.1024  0.6062 -0.2318
  881MOL0     C21445   3.375   6.797   2.453 -0.4747 -0.1503 -0.9741
  881MOL0     C21446   3.316   6.673   2.441  0.6070 -0.2907  0.1677
  881MOL0     C21447   3.261   6.631   2.323 -0.1035 -0.0151  0.6631
  881MOL0     O21448   3.208   6.505   2.318  0.7652  0.3408  0.0684
  881MOL0     C21449   3.305   6.416   2.257 -0.1194  0.3907  1.1449
  881MOL0     C21450   3.273   6.274   2.309  0.2779  0.0573  0.8174
  881MOL0     C21451   3.306   6.261   2.461  0.2480  0.1863  0.1253
  881MOL0     C21452   3.275   6.118   2.518  0.0979  0.0180 -0.0513
  881MOL0     C21453   3.370   6.093   2.638  0.6411  0.1667 -0.2924
  881MOL0     C21454   3.355   5.948   2.694 -0.5938  0.6088 -0.3955
  881MOL0     C21455   3.241   5.934   2.805  0.5303 -0.3175  0.4481
  881MOL0     C21456   3.291   6.003   2.935  0.0780  0.4201  0.5202
  881MOL0     N21457   3.223   5.953   3.059 -0.6291  0.6060  0.5343
  881MOL0     C21458   3.265   5.973   3.192 -0.3015 -1.1001  0.1820
  881MOL0     C21459   3.166   5.923   3.275 -0.2004  0.1940  0.4621
  881MOL0     C21460   3.195   5.911   3.430  0.4039  0.8881 -0.2623
  881MOL0     C21461   3.271   6.030   3.502  1.3236 -0.5126 -0.4274
  881MOL0     C21462   3.310   5.982   3.647 -0.1574  0.9061  0.4695
  881MOL0     C21463   3.201   5.970   3.757 -0.7775  0.0626 -0.1661
  881MOL0     O21464   3.111   5.869   3.718 -0.6790 -0.0653 -0.0217
  881MOL0     C21465   3.132   5.732   3.747 -0.4136 -0.2251  0.8785
  881MOL0     C21466   3.044   5.653   3.684 -0.1171  0.6317 -0.0086
  881MOL0     C21467   3.052   5.516   3.705  0.1093  0.2701  0.1881
  881MOL0     C21468   2.953   5.434   3.626 -0.3045  0.0600 -0.3887
  881MOL0     C21469   3.145   5.456   3.791  0.1113 -0.1216  0.9272
  881MOL0     C21470   3.146   5.318   3.826 -0.2141  0.8091 -0.2820
  881MOL0     O21471   3.274   5.273   3.849 -0.3778 -0.7999  0.0299
  881MOL0     C21472   3.292   5.144   3.911  0.2117 -0.0848  0.6744
  881MOL0     C21473   3.220   5.095   4.025 -0.2128 -1.5816 -0.0733
  881MOL0     C21474   3.275   4.984   4.096  1.3449 -0.2495  0.1161
  881MOL0     C21475   3.398   4.934   4.057 -0.6855  0.4279 -0.4495
  881MOL0     O21476   3.457   4.818   4.104  0.4446  0.1177  0.4192
  881MOL0     C21477   3.408   4.759   4.224 -0.0277  0.3323  0.3148
  881MOL0     C21478   3.512   4.646   4.272  1.0217 -1.1396 -0.3348
  881MOL0     C21479   3.486   4.611   4.425  0.1720  0.4487 -0.7123
  881MOL0     C21480   3.589   4.680   4.510  0.0418 -0.5829 -0.2709
  881MOL0     C21481   3.543   4.707   4.660  1.2619  0.0446  0.1126
  881MOL0     C21482   3.475   4.842   4.681  0.2165 -0.6238  0.8173
  881MOL0     C21483   3.315   4.838   4.645 -0.3912 -0.5461  0.3132
  881MOL0     C21484   3.228   4.960   4.696 -1.2154  0.3846 -0.1323
  881MOL0    Cl21485   3.292   5.108   4.655 -0.1448 -0.1480  0.4288
  881MOL0     C21486   3.479   5.000   3.967  0.2834  0.0883  0.0570
  881MOL0     C21487   3.422   5.100   3.889 -0.0752  0.8278 -0.1604
  881MOL0     O21488   3.043   5.253   3.838  0.5285 -0.9310 -0.8121
  881MOL0     C21489   3.242   5.543   3.854  0.9664  0.0275 -0.3048
  881MOL0     C21490   3.228   5.679   3.833 -0.4481  1.1429 -0.2689
  881MOL0     N21491   3.075   5.863   3.196 -0.0936  0.1440 -0.2840
  881MOL0     N21492   3.108   5.882   3.071  0.9670  0.7385 -0.0206
  881MOL0     C21493   3.266   6.716   2.216 -0.7022  0.0118  0.4554
  881MOL0     C21494   3.317   6.846   2.223  0.4359 -0.4259  0.6644
  881MOL0     C21495   3.463   7.245   2.305 -0.4145 -0.3809 -0.1357
  881MOL0     C21496   3.360   7.297   2.374  0.1514  0.4655  0.9745
  881MOL0     C21497   3.368   7.426   2.430  0.1356 -0.3454 -0.7420
  881MOL0     C21498   3.463   7.513   2.373  0.4136  0.6736 -0.5461
  881MOL0     O21499   3.464   7.647   2.401  0.0244  0.3575  0.5531
  881MOL0     C21500   3.587   7.731   2.410 -0.4274  0.4425 -0.7418
  881MOL0     C21501   3.613   7.768   2.559 -0.4247 -1.1312 -0.6946
  881MOL0     C21502   3.760   7.807   2.592  0.3875 -0.4870 -0.3249
  881MOL0     C21503   3.844   7.690   2.633  0.2108  0.9365  0.0691
  881MOL0     C21504   3.867   7.598   2.518  0.0384  0.4920  0.2501
  881MOL0     C21505   3.884   7.517   2.430 -0.4636  0.5192  0.1923
  881MOL0     C21506   3.565   7.466   2.290 -0.2579 -0.7914 -1.3946
  881MOL0     C21507   3.572   7.325   2.264  0.0967 -0.5287  0.1484
  881MOL0     C21508   3.694   7.281   2.187  0.0405 -0.1147  0.6310
  881MOL0     H21509   3.406   6.833   2.551 -0.1191 -0.7164 -0.8759
  881MOL0     H21510   3.317   6.602   2.523 -0.9568  0.5117  0.9242
  881MOL0     H21511   3.407   6.448   2.277  0.3481 -0.6287  0.4806
  881MOL0     H21512   3.300   6.421   2.148 -1.5278 -0.3112  1.1547
  881MOL0     H21513   3.165   6.265   2.292  0.3731 -0.5934  0.5209
  881MOL0     H21514   3.321   6.190   2.258 -0.8619 -0.3588  0.3930
  881MOL0     H21515   3.413   6.278   2.471  0.6925 -1.8913 -0.5897
  881MOL0     H21516   3.243   6.330   2.518 -2.2437 -0.8467 -1.2063
  881MOL0     H21517   3.170   6.100   2.543 -0.1326 -0.5666 -1.3863
  881MOL0     H21518   3.310   6.047   2.442  1.8764  2.0345 -1.2290
  881MOL0     H21519   3.360   6.169   2.716  4.3411 -0.3330  0.8591
  881MOL0     H21520   3.476   6.100   2.612  0.3150 -0.2253 -1.8296
  881MOL0     H21521   3.340   5.884   2.607 -0.3209  0.8330 -0.6071
  881MOL0     H21522   3.449   5.904   2.731 -2.1680 -1.2412  1.6638
  881MOL0     H21523   3.194   5.838   2.827 -1.7791  0.4449 -0.8167
  881MOL0     H21524   3.156   5.994   2.771  0.3046 -1.2639 -0.6900
  881MOL0     H21525   3.400   6.006   2.943  0.3208 -1.9571 -0.8006
  881MOL0     H21526   3.270   6.109   2.920  0.3339  0.7830  2.4583
  881MOL0     H21527   3.351   6.035   3.218 -1.3451  0.6209 -0.3013
  881MOL0     H21528   3.248   5.816   3.440 -0.2279  0.5210 -0.3392
  881MOL0     H21529   3.096   5.891   3.471 -0.4068  0.4676 -2.2726
  881MOL0     H21530   3.362   6.046   3.443  2.3403  0.6712  1.3649
  881MOL0     H21531   3.213   6.123   3.508  1.8446 -0.0884 -1.6664
  881MOL0     H21532   3.348   5.881   3.632 -2.7143  0.0709 -1.0808
  881MOL0     H21533   3.395   6.042   3.680 -2.4079  3.9636  1.1791
  881MOL0     H21534   3.238   5.953   3.859  0.0689 -0.2834 -0.5225
  881MOL0     H21535   3.143   6.063   3.763  0.4597  0.9396 -1.2637
  881MOL0     H21536   2.973   5.698   3.614  1.2674  1.3895 -0.9817
  881MOL0     H21537   2.855   5.473   3.653 -0.4718  1.0225 -2.2743
  881MOL0     H21538   2.963   5.325   3.635  2.7148  0.4178  3.2588
  881MOL0     H21539   2.964   5.462   3.521  0.5758  1.8265  0.1387
  881MOL0     H21540   3.129   5.142   4.060  0.4689 -0.2579 -0.0157
  881MOL0     H21541   3.230   4.943   4.185  0.3957  0.3821 -0.0566
  881MOL0     H21542   3.386   4.830   4.304  0.7499  0.3740  0.4952
  881MOL0     H21543   3.313   4.710   4.203 -0.0735  0.6346 -0.2002
  881MOL0     H21544   3.492   4.557   4.212 -0.5510 -1.2673  0.3543
  881MOL0     H21545   3.608   4.699   4.264  0.0003  0.9461  0.6375
  881MOL0     H21546   3.483   4.503   4.439 -1.8875  0.2015 -2.4360
  881MOL0     H21547   3.392   4.654   4.461  0.5048  1.8955 -1.4499
  881MOL0     H21548   3.628   4.775   4.472 -0.4373  0.6918  2.1742
  881MOL0     H21549   3.676   4.615   4.515  2.9405  2.9427 -0.2692
  881MOL0     H21550   3.497   4.614   4.693  2.8797 -1.5774 -1.9089
  881MOL0     H21551   3.636   4.716   4.716  0.5682  2.5136  1.0103
  881MOL0     H21552   3.534   4.918   4.629 -1.0701  1.0304  1.6579
  881MOL0     H21553   3.492   4.875   4.784  1.0883  0.9378  0.2074
  881MOL0     H21554   3.271   4.748   4.689 -0.0234 -1.1500 -0.5172
  881MOL0     H21555   3.303   4.828   4.536  2.0595 -3.9983  0.1861
  881MOL0     H21556   3.238   4.948   4.805  2.2181 -3.3859 -0.6386
  881MOL0     H21557   3.127   4.941   4.659 -0.0383 -2.4147 -2.2015
  881MOL0     H21558   3.575   4.955   3.944 -0.0741 -2.1159  2.3731
  881MOL0     H21559   3.470   5.143   3.802  0.1778  3.4999  1.1855
  881MOL0     H21560   3.333   5.505   3.901  0.5334 -1.1587 -0.3842
  881MOL0     H21561   3.309   5.740   3.873 -1.0050  0.5708  1.8556
  881MOL0     H21562   3.214   6.697   2.122 -0.4098  1.5213 -0.0417
  881MOL0     H21563   3.315   6.917   2.141  0.1058 -1.2155 -0.0353
  881MOL0     H21564   3.271   7.239   2.395  0.3118 -1.4012 -2.8507
  881MOL0     H21565   3.291   7.474   2.488  0.1932 -0.5174 -0.5240
  881MOL0     H21566   3.674   7.683   2.364  1.1791  1.9846  0.5299
  881MOL0     H21567   3.578   7.822   2.349  3.0366  1.4855  0.0548
  881MOL0     H21568   3.580   7.682   2.617 -1.1968 -1.2585 -1.3039
  881MOL0     H21569   3.555   7.855   2.593  0.7081 -1.2435  1.6984
  881MOL0     H21570   3.797   7.863   2.505 -1.4170 -0.1659 -0.9215
  881MOL0     H21571   3.743   7.879   2.673 -1.9416 -0.3338 -0.8827
  881MOL0     H21572   3.796   7.639   2.717 -0.3544  0.8487 -0.3014
  881MOL0     H21573   3.942   7.720   2.671 -0.4052  0.9681  1.7000
  881MOL0     H21574   3.909   7.444   2.355 -0.3154  0.6249  0.1392
  881MOL0     H21575   3.619   7.548   2.244 -3.0441 -0.2497 -4.0482
  881MOL0     H21576   3.663   7.261   2.084 -1.1511 -2.3455  1.3307
  881MOL0     H21577   3.780   7.348   2.198 -0.0773  0.5169 -1.8474
  881MOL0     H21578   3.719   7.185   2.233 -0.0300 -0.5293 -0.1870
  882MOL0     O21579   3.381   5.180   9.301 -0.3864  0.0109  0.3950
  882MOL0     C21580   3.351   5.274   9.374  0.6281  0.3882  0.2252
  882MOL0     O21581   3.231   5.319   9.407  0.3563 -0.0971 -0.5365
  882MOL0     C21582   3.124   5.266   9.332  0.0184  0.0852  0.3581
  882MOL0     C21583   3.106   5.242   9.192 -0.1711 -1.2932  0.3652
  882MOL0     C21584   2.990   5.195   9.133 -0.1030 -0.2754 -0.1285
  882MOL0     C21585   2.877   5.173   9.213 -0.0674  0.8396 -0.9224
  882MOL0     O21586   2.763   5.118   9.164  0.3811 -0.3837  0.3509
  882MOL0     C21587   2.726   5.001   9.228  0.4571  0.2461  0.0757
  882MOL0     C21588   2.671   4.903   9.119 -0.1233  0.3035 -0.0313
  882MOL0     C21589   2.582   4.790   9.165 -0.4486  0.7425  0.5572
  882MOL0     C21590   2.660   4.682   9.245  0.6343  0.5505 -0.8799
  882MOL0     C21591   2.565   4.573   9.285  0.0464 -1.1071 -0.0497
  882MOL0     C21592   2.640   4.451   9.341 -0.7836  0.1516  0.4588
  882MOL0     C21593   2.540   4.332   9.361  0.1821 -0.1414  0.0868
  882MOL0     C21594   2.425   4.353   9.461  0.1758  0.2322  0.1391
  882MOL0     N21595   2.463   4.355   9.601  0.2757 -0.0003 -0.6164
  882MOL0     C21596   2.469   4.230   9.662 -0.4258  0.1483 -0.8131
  882MOL0     C21597   2.489   4.252   9.794 -0.1155  0.1039 -0.6707
  882MOL0     C21598   2.515   4.147   9.903 -0.7854  0.2977  0.0605
  882MOL0     C21599   2.394   4.109   9.985  0.4074 -0.3370 -0.1751
  882MOL0     C21600   2.272   4.056   9.900  0.1130  1.1997  0.4527
  882MOL0     C21601   2.165   3.996   9.996  0.7522 -0.6467 -0.8694
  882MOL0     O21602   2.039   3.967   9.926 -0.4416 -0.8951  0.0357
  882MOL0     C21603   1.939   3.927  10.007 -0.1092 -0.8046 -0.3135
  882MOL0     C21604   1.810   3.974   9.988 -0.3269 -0.5511 -0.3542
  882MOL0     C21605   1.702   3.929  10.066  0.3954 -0.1370 -0.7283
  882MOL0     C21606   1.561   3.977  10.025  0.0576 -0.1671  0.4919
  882MOL0     C21607   1.727   3.843  10.177 -0.7641  0.4703  0.4289
  882MOL0     C21608   1.619   3.786  10.266 -0.6924  0.6945 -0.0477
  882MOL0     O21609   1.513   3.869  10.285  0.4300  0.6779 -0.3971
  882MOL0     C21610   1.398   3.815  10.322 -0.2030 -0.3047  0.3769
  882MOL0     C21611   1.329   3.723  10.248 -0.3246  0.2037  0.2237
  882MOL0     C21612   1.210   3.667  10.296 -0.9411 -0.4499  0.0897
  882MOL0     C21613   1.151   3.709  10.410  0.9419 -0.3108  0.3522
  882MOL0     O21614   1.034   3.643  10.458 -0.0803  0.1818 -0.9434
  882MOL0     C21615   0.985   3.681  10.593 -0.2332 -1.3745 -0.4318
  882MOL0     C21616   0.854   3.608  10.628  0.3495 -0.2292  0.8333
  882MOL0     C21617   0.818   3.588  10.772 -0.1634  0.6086  0.3250
  882MOL0     C21618   0.662   3.565  10.790 -1.6645  0.4684 -0.3321
  882MOL0     C21619   0.632   3.516  10.934 -0.8400 -0.3730  0.9458
  882MOL0     C21620   0.482   3.471  10.944 -0.4571 -0.0185  0.1743
  882MOL0     C21621   0.433   3.470  11.084  0.4116 -1.4014  0.6286
  882MOL0     C21622   0.300   3.399  11.097  0.1378 -0.0438 -0.0267
  882MOL0    Cl21623   0.209   3.417  11.246 -0.0403 -0.2535 -0.1253
  882MOL0     C21624   1.204   3.823  10.477 -0.6830  0.1390 -0.5069
  882MOL0     C21625   1.325   3.877  10.426  0.0317  0.9191  0.1588
  882MOL0     O21626   1.641   3.680  10.329  0.5300  0.7002  0.1983
  882MOL0     C21627   1.864   3.791  10.184  0.4896  0.4947  0.0378
  882MOL0     C21628   1.970   3.838  10.104 -0.1755  0.2101  0.1302
  882MOL0     N21629   2.490   4.390   9.805 -0.8043  0.6853  0.2854
  882MOL0     N21630   2.482   4.450   9.698  0.1207  0.3131 -0.5117
  882MOL0     C21631   2.885   5.222   9.342 -0.7201 -0.0008 -0.8527
  882MOL0     C21632   3.004   5.261   9.404  0.4486  0.9549  0.4599
  882MOL0     C21633   3.465   5.343   9.430 -0.8450  0.6797 -0.3980
  882MOL0     C21634   3.472   5.367   9.571  0.3233 -0.1105  0.2235
  882MOL0     C21635   3.581   5.433   9.625  0.6251  0.6918  0.9367
  882MOL0     C21636   3.701   5.456   9.554 -0.5646 -1.0030 -0.5879
  882MOL0     O21637   3.811   5.528   9.610  0.1763  0.0417  0.2369
  882MOL0     C21638   3.886   5.463   9.715  0.2288 -0.4112 -1.2087
  882MOL0     C21639   3.973   5.343   9.670  0.3883  0.6533 -0.3206
  882MOL0     C21640   4.095   5.400   9.593  0.5393 -0.5434 -1.0771
  882MOL0     C21641   4.216   5.315   9.604  1.1706 -0.4200  0.8706
  882MOL0     C21642   4.196   5.175   9.566 -0.6027 -0.2947  0.0243
  882MOL0     C21643   4.191   5.060   9.523 -0.0673 -0.3241 -0.3284
  882MOL0     C21644   3.702   5.420   9.415  0.5338 -0.0021 -0.2370
  882MOL0     C21645   3.582   5.373   9.355 -0.2528  0.1955 -0.8050
  882MOL0     C21646   3.591   5.366   9.205  0.5014 -0.3387  0.5397
  882MOL0     H21647   3.192   5.263   9.128  0.7224 -1.0183  1.6273
  882MOL0     H21648   3.000   5.171   9.028  2.8528  1.7556 -0.4237
  882MOL0     H21649   2.645   5.012   9.301 -0.2768  0.9399 -0.8185
  882MOL0     H21650   2.805   4.954   9.287 -0.4461  0.5553  1.5858
  882MOL0     H21651   2.622   4.967   9.045  0.4250 -0.2705 -0.9087
  882MOL0     H21652   2.751   4.864   9.054  1.6098  2.7128  0.5164
  882MOL0     H21653   2.497   4.824   9.226  0.1729  0.7121  1.4588
  882MOL0     H21654   2.549   4.731   9.079  1.3394 -0.8994  0.9542
  882MOL0     H21655   2.748   4.642   9.194  1.6799 -0.8620  1.8293
  882MOL0     H21656   2.690   4.712   9.346 -1.4500  0.2067 -0.1053
  882MOL0     H21657   2.501   4.545   9.201  0.4516  1.4475 -1.2821
  882MOL0     H21658   2.501   4.610   9.366 -2.6026 -2.8895 -1.1606
  882MOL0     H21659   2.723   4.424   9.275 -1.4399 -0.8937  0.0394
  882MOL0     H21660   2.672   4.488   9.439 -0.6836 -0.5621  0.7044
  882MOL0     H21661   2.612   4.264   9.407  4.0813  3.5767  0.1218
  882MOL0     H21662   2.500   4.295   9.266 -2.1954 -2.3199  1.7828
  882MOL0     H21663   2.368   4.441   9.429 -3.2390 -2.3215 -1.3485
  882MOL0     H21664   2.354   4.272   9.441  1.5694 -0.8642 -0.5406
  882MOL0     H21665   2.453   4.133   9.614 -2.6610  0.0534  0.0359
  882MOL0     H21666   2.590   4.196   9.965  0.7034  2.6817 -3.3514
  882MOL0     H21667   2.557   4.051   9.871 -3.1563 -0.0543 -2.3617
  882MOL0     H21668   2.424   4.040  10.065 -2.5167  1.6095  2.8174
  882MOL0     H21669   2.366   4.198  10.041  0.4864 -1.5168  1.8385
  882MOL0     H21670   2.224   4.132   9.838  0.4074 -0.2699 -1.6876
  882MOL0     H21671   2.300   3.984   9.822 -0.3622 -0.1687  1.5082
  882MOL0     H21672   2.203   3.908  10.049 -0.0061 -0.3188  0.2551
  882MOL0     H21673   2.147   4.071  10.074  0.9358 -2.6201  1.1920
  882MOL0     H21674   1.812   4.048   9.908  1.2271  1.6584  1.6044
  882MOL0     H21675   1.553   4.028   9.928 -1.7599 -0.1510  0.6162
  882MOL0     H21676   1.519   4.045  10.098 -2.3611  1.1116 -1.9002
  882MOL0     H21677   1.494   3.891  10.015 -0.9968  0.5072  1.4899
  882MOL0     H21678   1.372   3.692  10.153 -1.9895 -0.2555 -0.4066
  882MOL0     H21679   1.153   3.593  10.240  2.0805 -3.4888  0.7270
  882MOL0     H21680   1.060   3.652  10.666  2.1227  0.5809 -1.9312
  882MOL0     H21681   0.957   3.787  10.589  0.5511 -1.1999 -2.0566
  882MOL0     H21682   0.771   3.658  10.578 -2.3155 -3.5197  1.5623
  882MOL0     H21683   0.863   3.506  10.589 -0.5722  0.5383 -1.5570
  882MOL0     H21684   0.844   3.682  10.823  2.9168 -0.2543  0.5220
  882MOL0     H21685   0.871   3.502  10.812  1.7864  0.0277 -3.1899
  882MOL0     H21686   0.639   3.489  10.715  0.1157  1.4469 -1.9633
  882MOL0     H21687   0.601   3.653  10.769 -0.6551  1.5470  1.0338
  882MOL0     H21688   0.690   3.429  10.966  1.5121 -0.3935 -2.7738
  882MOL0     H21689   0.646   3.593  11.010 -0.3682  0.0837  0.4071
  882MOL0     H21690   0.468   3.383  10.881 -2.3599  0.7876 -0.5971
  882MOL0     H21691   0.415   3.539  10.890  1.7245  0.5131 -2.0690
  882MOL0     H21692   0.417   3.573  11.116 -0.3850  0.0241 -3.7642
  882MOL0     H21693   0.504   3.422  11.152  2.0289  1.1179  0.8192
  882MOL0     H21694   0.325   3.293  11.084 -0.1106 -0.4193  2.2537
  882MOL0     H21695   0.229   3.424  11.017 -1.0510  0.1532  1.0560
  882MOL0     H21696   1.159   3.875  10.561  3.3473  0.2180  1.8334
  882MOL0     H21697   1.371   3.968  10.465 -2.2370  0.5337  4.3225
  882MOL0     H21698   1.889   3.732  10.272 -3.8659  1.1432  1.9687
  882MOL0     H21699   2.067   3.790  10.113 -0.0848  0.2096 -0.8041
  882MOL0     H21700   2.787   5.222   9.388 -0.1549 -1.5270  0.4293
  882MOL0     H21701   2.996   5.303   9.504 -1.0888  1.9479 -0.0456
  882MOL0     H21702   3.385   5.341   9.630 -0.7197  6.0769  2.1721
  882MOL0     H21703   3.563   5.457   9.729 -2.7449  0.8421  0.4316
  882MOL0     H21704   3.951   5.529   9.773 -0.7396 -0.2378 -0.2925
  882MOL0     H21705   3.811   5.426   9.785 -1.2859  0.7655 -2.1524
  882MOL0     H21706   3.913   5.276   9.608 -0.8494  0.4026  1.0857
  882MOL0     H21707   4.002   5.283   9.757  2.7782  0.8745 -0.9036
  882MOL0     H21708   4.065   5.416   9.489 -2.5671  0.3095 -0.1531
  882MOL0     H21709   4.121   5.495   9.641 -2.3065  0.4953 -1.3975
  882MOL0     H21710   4.240   5.325   9.710 -1.4089 -1.5155  1.6229
  882MOL0     H21711   4.292   5.361   9.540 -0.0706 -0.0179 -0.3622
  882MOL0     H21712   4.178   4.960   9.488 -1.3788 -0.0204 -0.7510
  882MOL0     H21713   3.786   5.436   9.349 -0.8955  1.4668 -1.8014
  882MOL0     H21714   3.685   5.406   9.166 -0.2441 -0.1045 -1.1076
  882MOL0     H21715   3.582   5.263   9.169 -0.6139 -1.0687  2.7638
  882MOL0     H21716   3.506   5.421   9.165 -0.1939 -0.4611  1.8262
  883MOL0     O21717  10.331   4.072   5.708  0.6884  0.2006  0.9464
  883MOL0     C21718  10.270   4.172   5.738  0.2030  0.0878 -0.7254
  883MOL0     O21719  10.186   4.243   5.658 -0.1607  0.2078 -0.2139
  883MOL0     C21720  10.194   4.208   5.518 -0.0380  0.5331  0.6330
  883MOL0     C21721  10.317   4.197   5.443 -0.1293  0.2080 -0.0850
  883MOL0     C21722  10.307   4.168   5.305  0.5074  1.0650  0.1280
  883MOL0     C21723  10.184   4.158   5.239  0.0752 -0.3234  0.1928
  883MOL0     O21724  10.191   4.138   5.100 -0.1651  0.0188 -0.3583
  883MOL0     C21725  10.145   4.009   5.062 -0.4193  0.0883  0.2216
  883MOL0     C21726  10.176   3.996   4.913  0.2412 -0.6356  0.0398
  883MOL0     C21727  10.104   4.094   4.822 -0.1308 -0.4413  0.1264
  883MOL0     C21728  10.134   4.048   4.674 -0.0299 -0.0537  0.0695
  883MOL0     C21729  10.109   4.159   4.576 -0.4804  1.2833 -1.4449
  883MOL0     C21730  10.110   4.119   4.431  0.0231  0.7576  0.3871
  883MOL0     C21731  10.239   4.059   4.379  0.9856  0.4265 -1.3348
  883MOL0     C21732  10.361   4.149   4.408 -0.1791 -0.4252 -0.5433
  883MOL0     N21733  10.486   4.086   4.359 -0.3232  0.6380  0.2868
  883MOL0     C21734  10.502   4.028   4.228  0.3515  0.6104 -0.5089
  883MOL0     C21735  10.622   3.973   4.226 -0.2323 -0.5046 -0.0168
  883MOL0     C21736  10.689   3.893   4.114 -0.2877  0.3332  0.3878
  883MOL0     C21737  10.690   3.739   4.141 -0.0438  0.2017 -0.4193
  883MOL0     C21738  10.754   3.721   4.282  0.4370  0.8595 -0.0486
  883MOL0     C21739  10.777   3.575   4.302  0.2571 -0.2350  0.0051
  883MOL0     O21740  10.697   3.489   4.216  0.4450 -0.4979 -0.0604
  883MOL0     C21741  10.739   3.360   4.200  0.6336  0.2200 -0.5727
  883MOL0     C21742  10.767   3.274   4.307  0.8083  0.4344  0.2959
  883MOL0     C21743  10.792   3.138   4.291 -0.1122 -0.2745 -0.2397
  883MOL0     C21744  10.803   3.059   4.416 -0.6889 -0.2141 -0.6740
  883MOL0     C21745  10.794   3.087   4.156 -0.1562 -0.3870 -1.2173
  883MOL0     C21746  10.835   2.944   4.120  0.2452 -1.0853  0.1910
  883MOL0     O21747  10.778   2.891   4.014 -0.2685 -0.0263  1.1226
  883MOL0     C21748  10.815   2.768   3.975 -0.8256 -0.1118  0.2375
  883MOL0     C21749  10.744   2.662   4.029 -0.3603 -0.1674  0.1361
  883MOL0     C21750  10.782   2.531   4.000  0.4464 -0.4269  0.0939
  883MOL0     C21751  10.895   2.502   3.913 -0.5161  0.0666 -0.1954
  883MOL0     O21752  10.910   2.379   3.854 -0.5137  0.7272  0.1791
  883MOL0     C21753  10.931   2.275   3.944 -0.1568 -0.1574  0.5623
  883MOL0     C21754  10.904   2.141   3.869  0.0037  0.1883 -0.2245
  883MOL0     C21755  10.899   2.014   3.962  0.8195 -0.3559  0.9572
  883MOL0     C21756  10.855   1.888   3.882  0.7545 -0.3832 -0.3129
  883MOL0     C21757  10.873   1.755   3.956  0.1941 -0.3803 -0.5298
  883MOL0     C21758  10.859   1.639   3.855  0.2960 -0.1870  0.0075
  883MOL0     C21759  10.717   1.620   3.803  0.4929  0.0778 -0.0016
  883MOL0     C21760  10.706   1.496   3.721 -0.3598  0.1968  0.0036
  883MOL0    Cl21761  10.553   1.469   3.631  0.0441 -0.5077  0.3217
  883MOL0     C21762  10.969   2.608   3.871  0.8750  1.3772  0.6723
  883MOL0     C21763  10.935   2.739   3.904  0.1341  0.3496 -0.4805
  883MOL0     O21764  10.934   2.897   4.170  0.0761 -0.5784 -0.0994
  883MOL0     C21765  10.750   3.173   4.055 -0.7557 -0.5435 -0.6914
  883MOL0     C21766  10.730   3.309   4.072 -0.9672 -0.0668 -0.4354
  883MOL0     N21767  10.681   4.017   4.348  0.0338 -0.0448  0.1050
  883MOL0     N21768  10.601   4.079   4.429  0.6180  0.0991 -0.0100
  883MOL0     C21769  10.063   4.178   5.308  0.1037  0.3354  0.5097
  883MOL0     C21770  10.077   4.200   5.445  0.8698 -0.3624  0.1550
  883MOL0     C21771  10.290   4.236   5.869  0.5116 -0.7531 -0.4216
  883MOL0     C21772  10.250   4.372   5.882  0.4173 -0.3069 -0.9080
  883MOL0     C21773  10.255   4.426   6.017 -0.5271  0.2000 -0.2774
  883MOL0     C21774  10.314   4.355   6.126 -1.1979  0.6566  0.0008
  883MOL0     O21775  10.352   4.405   6.249  1.0456 -0.0506  0.1478
  883MOL0     C21776  10.251   4.403   6.348  0.4337 -0.2595  0.4307
  883MOL0     C21777  10.256   4.267   6.410  0.7533 -1.0059 -0.5514
  883MOL0     C21778  10.203   4.281   6.557 -0.9536  0.3014  1.1758
  883MOL0     C21779  10.225   4.154   6.642  0.1184  1.0927  0.1795
  883MOL0     C21780  10.111   4.056   6.643  0.6715  0.0975  0.0866
  883MOL0     C21781  10.031   3.966   6.658  0.3297 -0.2766 -0.0300
  883MOL0     C21782  10.350   4.228   6.102 -0.0494  0.3698  0.6311
  883MOL0     C21783  10.336   4.167   5.981 -0.1960 -0.3451 -0.1037
  883MOL0     C21784  10.398   4.030   5.971 -0.4684 -0.2778 -0.5746
  883MOL0     H21785  10.412   4.210   5.494 -0.9902  1.1314  1.3625
  883MOL0     H21786  10.396   4.157   5.243  0.4830  0.9061  0.1204
  883MOL0     H21787  10.039   3.988   5.079 -0.4720  0.6825  0.6759
  883MOL0     H21788  10.187   3.923   5.114  0.4748 -0.4432 -1.3060
  883MOL0     H21789  10.283   4.003   4.890  0.1014 -1.5367 -0.9685
  883MOL0     H21790  10.159   3.892   4.886 -0.0543 -0.6138  0.1357
  883MOL0     H21791   9.995   4.095   4.833 -0.0045  0.0617  1.5167
  883MOL0     H21792  10.152   4.191   4.837  1.1230 -0.7675 -1.5534
  883MOL0     H21793  10.240   4.024   4.665  0.5941  2.7752 -1.0768
  883MOL0     H21794  10.072   3.961   4.651  1.7914 -1.2881 -0.3667
  883MOL0     H21795  10.178   4.243   4.592  2.8072 -0.4448 -4.7786
  883MOL0     H21796  10.010   4.193   4.607 -0.3231 -0.0067  0.7130
  883MOL0     H21797  10.029   4.048   4.409 -0.0572  1.1122 -0.4758
  883MOL0     H21798  10.092   4.209   4.372  3.1173  0.4672 -1.2101
  883MOL0     H21799  10.224   4.042   4.272  1.2075  0.0882 -1.3144
  883MOL0     H21800  10.256   3.958   4.418 -1.5432  0.2122 -0.5837
  883MOL0     H21801  10.355   4.236   4.343 -1.1299  0.3999  0.6155
  883MOL0     H21802  10.366   4.175   4.514  1.8934 -1.5135 -0.3231
  883MOL0     H21803  10.426   4.026   4.150  0.3451  2.6846 -0.6120
  883MOL0     H21804  10.794   3.920   4.104 -0.5764  1.2990 -0.0672
  883MOL0     H21805  10.637   3.916   4.021  0.2005  0.4713  0.1504
  883MOL0     H21806  10.589   3.698   4.134 -0.1518  0.7064 -5.5427
  883MOL0     H21807  10.751   3.691   4.064  0.6933 -0.3852  0.5010
  883MOL0     H21808  10.835   3.793   4.286 -1.0634  2.6803 -0.7415
  883MOL0     H21809  10.683   3.748   4.361  1.8329 -2.1865  2.5080
  883MOL0     H21810  10.882   3.550   4.286 -0.1374 -0.9957 -1.6157
  883MOL0     H21811  10.739   3.545   4.400 -2.1276 -2.4198 -1.4360
  883MOL0     H21812  10.764   3.317   4.406 -2.4252  3.5017 -0.9084
  883MOL0     H21813  10.710   3.017   4.454 -1.3991  0.0634 -2.0305
  883MOL0     H21814  10.850   3.122   4.492  0.9157  0.1915 -1.9335
  883MOL0     H21815  10.868   2.971   4.415 -2.4249 -1.5557 -1.2854
  883MOL0     H21816  10.656   2.689   4.087 -2.7798  0.1372 -3.3867
  883MOL0     H21817  10.713   2.451   4.023 -1.5340  0.4188 -2.4960
  883MOL0     H21818  11.030   2.278   3.990 -0.9552  0.3672  2.3450
  883MOL0     H21819  10.860   2.283   4.027  1.1845  0.7719  1.6586
  883MOL0     H21820  10.811   2.137   3.811  1.1360 -2.1177 -2.0553
  883MOL0     H21821  10.977   2.134   3.788  0.2235  1.0519 -0.1129
  883MOL0     H21822  10.814   2.031   4.029  1.7837  2.1751  1.6614
  883MOL0     H21823  10.991   1.986   4.015  2.0126 -2.9230 -2.1411
  883MOL0     H21824  10.899   1.890   3.781 -0.0262  1.5762 -0.6580
  883MOL0     H21825  10.748   1.899   3.863  1.0718  1.1339 -1.4178
  883MOL0     H21826  10.974   1.755   4.000 -0.4381 -0.6912  0.9719
  883MOL0     H21827  10.799   1.758   4.035  2.4921 -0.8635  1.7703
  883MOL0     H21828  10.888   1.542   3.898 -2.3838 -0.6609  0.9222
  883MOL0     H21829  10.932   1.659   3.776 -0.4674  0.0949 -0.6282
  883MOL0     H21830  10.691   1.702   3.736  1.1122  0.3246  0.0528
  883MOL0     H21831  10.642   1.606   3.882  0.3799 -2.1718 -0.4507
  883MOL0     H21832  10.726   1.404   3.776 -0.8206  0.2303  0.2355
  883MOL0     H21833  10.788   1.508   3.650  0.4286  1.1586  1.0502
  883MOL0     H21834  11.049   2.584   3.801  1.3140 -2.7334  2.2940
  883MOL0     H21835  10.997   2.821   3.866  1.2654  0.0888  0.7417
  883MOL0     H21836  10.728   3.122   3.962 -2.0155  1.2046 -1.4049
  883MOL0     H21837  10.705   3.373   3.988  4.5134  2.5443 -0.5616
  883MOL0     H21838   9.966   4.175   5.259 -1.7345  1.4648  3.7951
  883MOL0     H21839   9.982   4.205   5.497 -0.5590 -2.9224 -1.9494
  883MOL0     H21840  10.212   4.432   5.800  0.8628 -0.6132 -1.3433
  883MOL0     H21841  10.215   4.525   6.036 -1.4142 -0.1419 -0.3444
  883MOL0     H21842  10.281   4.473   6.427 -1.5154  1.7249 -0.4787
  883MOL0     H21843  10.147   4.429   6.326 -1.4694 -3.6859  4.1095
  883MOL0     H21844  10.353   4.217   6.410 -0.1764 -2.9237  0.0594
  883MOL0     H21845  10.198   4.193   6.354  3.2298 -1.1962 -3.0437
  883MOL0     H21846  10.251   4.363   6.612 -0.2365  1.0875 -0.5481
  883MOL0     H21847  10.095   4.288   6.548 -0.9448  0.7809  1.3874
  883MOL0     H21848  10.251   4.160   6.748  0.5240 -2.0426  0.3445
  883MOL0     H21849  10.310   4.097   6.604 -0.8841 -0.2518 -0.1256
  883MOL0     H21850   9.961   3.885   6.659 -1.3632  1.0830  2.4131
  883MOL0     H21851  10.388   4.162   6.179 -0.4604 -1.2102 -0.4736
  883MOL0     H21852  10.462   4.003   6.055  0.4179 -0.1058 -1.1744
  883MOL0     H21853  10.328   3.948   5.949 -0.7158 -0.7876  1.8866
  883MOL0     H21854  10.471   4.039   5.890  0.3897 -0.0770  0.2056
  884MOL0     O21855   4.282   2.292   3.911  0.3342  0.0457  0.7204
  884MOL0     C21856   4.251   2.359   3.810 -0.4405 -0.0781  0.0740
  884MOL0     O21857   4.331   2.368   3.701  0.2335  0.5373 -0.2164
  884MOL0     C21858   4.447   2.313   3.693 -0.5242  0.4559 -1.1023
  884MOL0     C21859   4.536   2.306   3.800 -1.3916  0.7314  0.1890
  884MOL0     C21860   4.670   2.259   3.782  0.9531 -0.5857 -0.0642
  884MOL0     C21861   4.711   2.216   3.652  0.4339  0.7715  0.0930
  884MOL0     O21862   4.828   2.145   3.651 -0.2135  0.7958 -0.0234
  884MOL0     C21863   4.909   2.155   3.526 -0.0699  0.5226  0.7780
  884MOL0     C21864   4.934   2.299   3.474  0.3906  0.5346  0.4861
  884MOL0     C21865   5.000   2.388   3.580  0.1222 -0.0086 -0.3243
  884MOL0     C21866   5.157   2.397   3.582  1.5398 -0.9196 -0.9218
  884MOL0     C21867   5.225   2.498   3.670 -0.3758 -0.9595 -0.2119
  884MOL0     C21868   5.199   2.478   3.819 -0.5331 -1.1051  0.7691
  884MOL0     C21869   5.259   2.598   3.897  0.0296  0.3228  0.2633
  884MOL0     C21870   5.415   2.603   3.890  0.0677  0.6507  0.3329
  884MOL0     N21871   5.475   2.685   3.782 -1.0164 -0.2185 -0.4924
  884MOL0     C21872   5.450   2.821   3.767 -1.4121  0.3451 -0.8246
  884MOL0     C21873   5.513   2.861   3.655  0.0546  0.2972 -0.4397
  884MOL0     C21874   5.521   2.993   3.587  0.0868  0.3323  0.2447
  884MOL0     C21875   5.378   3.049   3.588  0.2339  0.5232 -0.5926
  884MOL0     C21876   5.375   3.178   3.493 -0.1061  0.0263  0.0920
  884MOL0     C21877   5.234   3.224   3.465  0.3987  2.1819  0.0818
  884MOL0     O21878   5.173   3.254   3.589 -0.7696 -0.1418 -0.3598
  884MOL0     C21879   5.050   3.323   3.583 -0.3104 -0.3793 -0.3989
  884MOL0     C21880   4.962   3.339   3.468  0.1199  0.1272  0.6242
  884MOL0     C21881   4.841   3.408   3.483  0.3707  0.2864  0.0887
  884MOL0     C21882   4.759   3.412   3.354  0.3381 -0.1067 -0.7926
  884MOL0     C21883   4.810   3.469   3.607  0.5091 -0.5445  0.3472
  884MOL0     C21884   4.688   3.553   3.621  0.7956 -0.5258 -0.0695
  884MOL0     O21885   4.636   3.610   3.506  0.3202 -0.7903  0.7129
  884MOL0     C21886   4.532   3.697   3.517  0.1762  0.2082  0.4250
  884MOL0     C21887   4.553   3.830   3.484  0.9661 -0.2551 -0.5900
  884MOL0     C21888   4.442   3.916   3.495 -0.1425  0.4720  0.2403
  884MOL0     C21889   4.315   3.866   3.535 -0.0227  0.3795 -0.0750
  884MOL0     O21890   4.210   3.952   3.528  0.5117 -0.6322  0.4148
  884MOL0     C21891   4.140   3.957   3.653  0.0376 -0.2441  0.4137
  884MOL0     C21892   4.059   4.085   3.651  0.6595  0.3188 -0.3149
  884MOL0     C21893   3.959   4.089   3.526  0.5909  0.0796 -0.9619
  884MOL0     C21894   3.878   4.218   3.539  0.1220 -0.9247 -0.0703
  884MOL0     C21895   3.760   4.222   3.442  0.0837  0.6769 -0.0172
  884MOL0     C21896   3.670   4.339   3.481 -0.1582  0.1874  0.8051
  884MOL0     C21897   3.562   4.354   3.376 -0.2364  0.3082  0.2755
  884MOL0     C21898   3.463   4.467   3.409 -0.6232 -0.2570 -0.1203
  884MOL0    Cl21899   3.340   4.389   3.515 -0.1915 -0.1013  0.8577
  884MOL0     C21900   4.294   3.728   3.560 -0.1690  0.2590 -0.0997
  884MOL0     C21901   4.402   3.641   3.529  0.0042 -0.5229 -0.1879
  884MOL0     O21902   4.642   3.571   3.729  0.5312  0.1816 -0.1531
  884MOL0     C21903   4.885   3.431   3.720  0.2261 -0.3304  0.8043
  884MOL0     C21904   5.002   3.357   3.708  0.4523 -0.1247  0.5675
  884MOL0     N21905   5.572   2.746   3.603 -0.1858  1.1808  0.3023
  884MOL0     N21906   5.554   2.642   3.676  0.3405  0.2040  0.2130
  884MOL0     C21907   4.623   2.226   3.545  0.0954  0.2088 -0.0841
  884MOL0     C21908   4.491   2.269   3.569  0.1708  0.4305  0.0814
  884MOL0     C21909   4.129   2.437   3.810  0.7234  0.0294  0.4823
  884MOL0     C21910   4.091   2.500   3.686 -0.1066  0.0069  0.2002
  884MOL0     C21911   3.971   2.579   3.674  0.4692  0.9915 -0.6596
  884MOL0     C21912   3.905   2.614   3.795 -0.0290 -0.1919 -0.6993
  884MOL0     O21913   3.820   2.715   3.827  0.1895 -0.0213  0.0624
  884MOL0     C21914   3.813   2.833   3.743 -0.4639  0.9438  0.4949
  884MOL0     C21915   3.771   2.939   3.837  0.3390 -1.4316  0.0153
  884MOL0     C21916   3.739   3.065   3.759  0.8260 -0.1089  0.7825
  884MOL0     C21917   3.744   3.186   3.851 -0.1159 -0.5711  0.0676
  884MOL0     C21918   3.719   3.319   3.784  0.0193  0.2861 -1.0389
  884MOL0     C21919   3.718   3.421   3.730  0.1146 -0.2832  0.3774
  884MOL0     C21920   3.929   2.539   3.912 -0.4246 -0.4651 -0.0307
  884MOL0     C21921   4.042   2.453   3.916 -0.7668 -0.0343  0.4155
  884MOL0     C21922   4.064   2.379   4.046  0.5248  0.3227  0.1390
  884MOL0     H21923   4.524   2.340   3.902  4.5779  2.4197  0.7107
  884MOL0     H21924   4.747   2.273   3.857  1.6854  0.5361 -1.0058
  884MOL0     H21925   4.868   2.101   3.441 -1.5782  1.5071  0.8426
  884MOL0     H21926   4.999   2.097   3.550 -1.8146 -1.7282  2.3548
  884MOL0     H21927   5.001   2.299   3.387 -0.5300  0.4470 -0.2446
  884MOL0     H21928   4.840   2.340   3.437 -1.3380 -3.7881 -0.4910
  884MOL0     H21929   4.959   2.486   3.552 -1.7881 -0.2552  1.2987
  884MOL0     H21930   4.952   2.372   3.677  1.3348 -0.3619  0.2256
  884MOL0     H21931   5.184   2.294   3.607  5.0740  0.2056  0.5481
  884MOL0     H21932   5.198   2.420   3.483 -1.9699  3.3213 -1.6993
  884MOL0     H21933   5.179   2.595   3.651 -0.5880 -1.3143 -1.6451
  884MOL0     H21934   5.329   2.508   3.636 -0.5835 -1.1782 -0.9215
  884MOL0     H21935   5.092   2.482   3.843 -0.5394  0.3269  0.6143
  884MOL0     H21936   5.251   2.395   3.867  2.7745  1.4561  2.0239
  884MOL0     H21937   5.227   2.567   3.997  0.7248 -2.0420 -0.1740
  884MOL0     H21938   5.220   2.697   3.873 -0.9287  0.3403  1.7649
  884MOL0     H21939   5.454   2.646   3.983 -0.7185 -0.2865  1.1104
  884MOL0     H21940   5.456   2.502   3.886  3.1738  1.7442  1.4349
  884MOL0     H21941   5.395   2.882   3.838  2.9300 -0.2666  3.6518
  884MOL0     H21942   5.569   2.992   3.489 -0.9593  0.2956 -0.2863
  884MOL0     H21943   5.573   3.058   3.658  1.5806 -0.5653  0.0049
  884MOL0     H21944   5.301   2.979   3.551 -1.7301  1.3300  1.7101
  884MOL0     H21945   5.349   3.084   3.687  1.5332 -1.0158  0.3776
  884MOL0     H21946   5.429   3.262   3.538 -0.6031  1.0935 -1.2164
  884MOL0     H21947   5.419   3.151   3.396 -0.9671 -0.5071 -0.1628
  884MOL0     H21948   5.235   3.308   3.394  0.4477  1.5562 -0.6648
  884MOL0     H21949   5.179   3.144   3.415  2.5521  0.3661  0.4549
  884MOL0     H21950   4.973   3.279   3.378 -1.9221  0.1176  0.3281
  884MOL0     H21951   4.786   3.328   3.289  0.8232 -0.1359 -0.5620
  884MOL0     H21952   4.762   3.511   3.309 -1.2848  0.9081  1.1644
  884MOL0     H21953   4.652   3.404   3.374  0.3366  2.1851  0.5132
  884MOL0     H21954   4.644   3.873   3.443  0.7088 -1.0215 -2.0189
  884MOL0     H21955   4.447   4.018   3.457 -1.5264  0.1740 -0.8241
  884MOL0     H21956   4.070   3.873   3.663  0.7612 -0.8430  0.5887
  884MOL0     H21957   4.211   3.974   3.734  1.1906  0.8819 -0.7842
  884MOL0     H21958   3.989   4.075   3.735  0.4535  0.0897 -0.5107
  884MOL0     H21959   4.117   4.178   3.651 -0.3605  0.9718 -1.1950
  884MOL0     H21960   3.902   3.996   3.532  2.1786 -0.8329  1.6392
  884MOL0     H21961   4.010   4.096   3.429  2.1723  1.8717 -0.0796
  884MOL0     H21962   3.939   4.308   3.532 -5.3811  3.6892  2.1864
  884MOL0     H21963   3.848   4.226   3.644  3.9252 -1.4320  1.2040
  884MOL0     H21964   3.804   4.236   3.342 -2.7416 -2.7623 -1.9984
  884MOL0     H21965   3.709   4.125   3.449 -0.7577  1.2349  2.9997
  884MOL0     H21966   3.724   4.434   3.474 -1.6166  0.9005 -2.7678
  884MOL0     H21967   3.625   4.319   3.578  1.1670 -2.8986  0.8999
  884MOL0     H21968   3.509   4.259   3.364 -1.1043  1.0478 -2.2852
  884MOL0     H21969   3.612   4.380   3.283 -0.9544  0.6675 -0.0201
  884MOL0     H21970   3.416   4.500   3.316  0.2720  2.3991  0.2718
  884MOL0     H21971   3.525   4.548   3.449  0.2549 -0.5721 -0.8205
  884MOL0     H21972   4.200   3.676   3.577  0.6051 -0.6181  1.7885
  884MOL0     H21973   4.398   3.533   3.544  2.9160 -0.4951  1.7291
  884MOL0     H21974   4.864   3.461   3.822  1.8499  0.1414  1.0208
  884MOL0     H21975   5.057   3.333   3.799  0.9193 -0.4561  0.2045
  884MOL0     H21976   4.655   2.201   3.445  2.0231  0.6192  0.3794
  884MOL0     H21977   4.408   2.290   3.502 -1.1028  1.0774  1.7920
  884MOL0     H21978   4.143   2.486   3.592  0.3048  0.7034  0.3163
  884MOL0     H21979   3.942   2.629   3.582 -1.5218  0.0498 -0.6080
  884MOL0     H21980   3.912   2.851   3.702 -1.2383  2.5143 -0.7985
  884MOL0     H21981   3.745   2.817   3.659 -0.7626  1.5523  0.6128
  884MOL0     H21982   3.842   2.960   3.917 -0.5456  0.4761  0.3604
  884MOL0     H21983   3.680   2.895   3.879  0.1838 -1.5910 -0.4795
  884MOL0     H21984   3.812   3.076   3.678 -0.3685 -1.6518 -0.5937
  884MOL0     H21985   3.642   3.063   3.709  2.2977 -0.3273 -2.3733
  884MOL0     H21986   3.843   3.185   3.898  0.2871 -0.7758 -0.7827
  884MOL0     H21987   3.671   3.171   3.932 -0.7746 -2.9440 -0.8622
  884MOL0     H21988   3.717   3.520   3.688  3.9055 -0.5940 -0.8122
  884MOL0     H21989   3.863   2.560   3.995 -0.0128 -1.1026  0.4647
  884MOL0     H21990   4.075   2.271   4.039  2.5321  0.4597  0.5402
  884MOL0     H21991   4.140   2.412   4.117  0.5533  1.4369 -0.3750
  884MOL0     H21992   3.967   2.373   4.096  1.3431 -0.2134  1.7151
  885MOL0     O21993   9.991  10.623   1.718  0.0158 -0.4343  0.1090
  885MOL0     C21994  10.012  10.614   1.596 -0.2372 -0.1230 -0.8386
  885MOL0     O21995   9.920  10.589   1.501  0.5314  0.5112  0.2904
  885MOL0     C21996   9.798  10.554   1.551  0.8264 -0.2922 -0.4439
  885MOL0     C21997   9.767  10.429   1.613 -0.3947  0.5562 -0.0075
  885MOL0     C21998   9.638  10.389   1.658 -1.2006 -0.3613  0.0736
  885MOL0     C21999   9.532  10.489   1.646 -0.0180  0.0278 -0.7352
  885MOL0     O22000   9.407  10.471   1.689 -0.2593  0.2090 -0.9134
  885MOL0     C22001   9.390  10.360   1.782  0.2248  0.4260 -0.0755
  885MOL0     C22002   9.266  10.374   1.867  0.7122 -0.7545 -0.1093
  885MOL0     C22003   9.139  10.413   1.792  0.0520  0.2337  0.3398
  885MOL0     C22004   9.025  10.422   1.899 -0.6212  0.1688  1.0177
  885MOL0     C22005   8.988  10.280   1.947  0.2210 -0.9733 -0.0490
  885MOL0     C22006   8.922  10.186   1.845 -0.7747  0.7483 -0.3262
  885MOL0     C22007   8.863  10.059   1.901 -0.7097  0.0318  0.3377
  885MOL0     C22008   8.980   9.954   1.943  1.4661 -0.2169  0.7845
  885MOL0     N22009   9.028   9.882   1.822 -0.0961  0.2334 -0.0069
  885MOL0     C22010   9.017   9.747   1.787 -0.5840  0.1211  0.1223
  885MOL0     C22011   9.114   9.724   1.700  0.0115 -0.5034  0.0104
  885MOL0     C22012   9.125   9.595   1.634 -0.0374 -0.2558  0.2731
  885MOL0     C22013   9.172   9.482   1.726  0.4490 -0.2591  0.0807
  885MOL0     C22014   9.156   9.348   1.675 -0.2710  0.5753 -0.2538
  885MOL0     C22015   9.174   9.228   1.776 -0.1467  0.5825  0.3180
  885MOL0     O22016   9.073   9.212   1.879  0.7042 -0.4231  0.2901
  885MOL0     C22017   8.941   9.207   1.838  0.2711 -0.2117  0.2306
  885MOL0     C22018   8.904   9.144   1.719  0.2486  0.3068  0.9755
  885MOL0     C22019   8.772   9.126   1.661 -0.5754  0.1665 -0.0506
  885MOL0     C22020   8.754   9.037   1.539  0.2779  0.2396  0.4399
  885MOL0     C22021   8.667   9.185   1.728  0.6172  0.6848 -0.3232
  885MOL0     C22022   8.522   9.173   1.686 -0.0526 -0.1377  0.5247
  885MOL0     O22023   8.494   9.136   1.553  0.2559 -0.4354 -0.6611
  885MOL0     C22024   8.368   9.140   1.486  0.3428 -0.6885  0.3914
  885MOL0     C22025   8.386   9.110   1.351 -0.0711  0.5585 -0.6492
  885MOL0     C22026   8.284   9.130   1.262 -0.7267  0.1657  0.2506
  885MOL0     C22027   8.165   9.197   1.293  1.0447 -0.3730 -0.1604
  885MOL0     O22028   8.064   9.207   1.194  0.1248 -0.1587  0.4270
  885MOL0     C22029   7.938   9.252   1.230 -0.1646 -1.0211  0.8601
  885MOL0     C22030   7.849   9.138   1.269 -0.2664  0.0085  0.7345
  885MOL0     C22031   7.691   9.169   1.275 -0.0400  0.4442  0.8427
  885MOL0     C22032   7.628   9.160   1.134 -0.4924  0.1852 -0.7653
  885MOL0     C22033   7.478   9.117   1.137  0.0363  0.4315 -0.3203
  885MOL0     C22034   7.420   9.074   1.004 -0.2992  0.3833 -0.0925
  885MOL0     C22035   7.267   9.068   0.999 -0.4691 -0.9263 -0.2950
  885MOL0     C22036   7.209   9.044   0.855 -0.9121 -0.5999  1.1392
  885MOL0    Cl22037   7.031   9.067   0.873 -0.5252  0.3515 -0.1205
  885MOL0     C22038   8.147   9.244   1.423  0.5165  0.2639  0.0236
  885MOL0     C22039   8.250   9.219   1.524 -0.6954  0.4420  0.2151
  885MOL0     O22040   8.435   9.191   1.770 -0.3658 -0.3487  0.5632
  885MOL0     C22041   8.695   9.249   1.852 -0.2557 -0.5595  0.4160
  885MOL0     C22042   8.827   9.262   1.900  0.2396  0.5371 -0.3319
  885MOL0     N22043   9.176   9.841   1.674  0.0606 -0.2913 -0.3386
  885MOL0     N22044   9.133   9.934   1.748 -0.1193  0.3276 -1.1291
  885MOL0     C22045   9.562  10.615   1.587 -0.4414  0.3481  0.2213
  885MOL0     C22046   9.691  10.645   1.529 -0.6605 -0.0486 -0.0165
  885MOL0     C22047  10.149  10.644   1.557  0.8373  0.4265  1.1869
  885MOL0     C22048  10.223  10.543   1.501  1.3242  0.4548  0.7063
  885MOL0     C22049  10.349  10.568   1.443 -0.4754 -0.4595  0.3868
  885MOL0     C22050  10.397  10.693   1.447  0.0215 -0.2465 -0.3595
  885MOL0     O22051  10.520  10.695   1.387  0.3658  0.1541 -0.4349
  885MOL0     C22052  10.574  10.815   1.345 -0.6877  0.2664 -0.4975
  885MOL0     C22053  10.717  10.803   1.329  0.5730  0.4085 -0.8897
  885MOL0     C22054  10.766  10.688   1.238  0.8239 -0.2776 -0.7623
  885MOL0     C22055  10.908  10.689   1.198  0.3028  0.4590  0.2299
  885MOL0     C22056  10.939  10.577   1.113 -0.1432  0.2898  0.1140
  885MOL0     C22057  10.949  10.477   1.040 -0.0501  0.4767 -0.5099
  885MOL0     C22058  10.319  10.804   1.503 -0.9214  0.3236 -1.3526
  885MOL0     C22059  10.194  10.780   1.549 -0.8500 -0.0139  0.4232
  885MOL0     C22060  10.128  10.899   1.602  0.2880  0.5869 -0.1312
  885MOL0     H22061   9.848  10.357   1.603  2.9912  4.1823 -1.2340
  885MOL0     H22062   9.623  10.289   1.698  2.3596 -0.5342  1.3189
  885MOL0     H22063   9.473  10.346   1.851  0.6525  1.8112 -0.2788
  885MOL0     H22064   9.379  10.271   1.719 -3.3333 -0.8422  2.0470
  885MOL0     H22065   9.254  10.275   1.911  0.0073 -2.3106 -3.4891
  885MOL0     H22066   9.285  10.448   1.945  1.2141  0.5867 -1.4608
  885MOL0     H22067   9.158  10.515   1.759 -0.9819  0.4042  0.2420
  885MOL0     H22068   9.127  10.346   1.706 -0.6277  2.0038 -0.9930
  885MOL0     H22069   9.059  10.474   1.989 -0.2021 -0.1394  1.0397
  885MOL0     H22070   8.938  10.473   1.855  2.0551  0.5913 -4.6739
  885MOL0     H22071   8.916  10.285   2.029  0.5664 -1.3702  0.2877
  885MOL0     H22072   9.069  10.232   2.003  1.2101  2.1064  1.3374
  885MOL0     H22073   8.845  10.245   1.794 -4.2941 -1.4047  2.0472
  885MOL0     H22074   8.991  10.162   1.763 -0.7911 -0.5268  0.0072
  885MOL0     H22075   8.800  10.006   1.828  0.7237  0.2232 -1.1142
  885MOL0     H22076   8.798  10.081   1.986 -2.1433  3.3136 -1.4254
  885MOL0     H22077   9.050  10.017   1.999  0.3580  1.4674  0.3292
  885MOL0     H22078   8.951   9.870   2.007  0.6503 -1.4527 -1.1258
  885MOL0     H22079   8.934   9.691   1.828 -1.1689 -3.8074 -5.4156
  885MOL0     H22080   9.205   9.603   1.560 -0.4094 -3.7950 -0.7185
  885MOL0     H22081   9.033   9.565   1.583  1.0623 -4.7954  0.5201
  885MOL0     H22082   9.277   9.492   1.757  0.1280 -0.6118  1.3690
  885MOL0     H22083   9.114   9.491   1.819  1.9923 -0.5901  1.1251
  885MOL0     H22084   9.061   9.335   1.622  1.0998 -4.6764 -2.0259
  885MOL0     H22085   9.235   9.339   1.601 -0.0183  2.3005 -0.2388
  885MOL0     H22086   9.191   9.132   1.728 -0.5369 -0.4038  2.0517
  885MOL0     H22087   9.273   9.232   1.823  0.5901  0.0279 -1.1556
  885MOL0     H22088   8.984   9.083   1.677  0.6059  1.0302  0.5983
  885MOL0     H22089   8.665   8.973   1.543 -0.0329  0.4718 -1.5930
  885MOL0     H22090   8.840   8.975   1.511 -1.3297 -1.4304 -1.0953
  885MOL0     H22091   8.750   9.095   1.447  0.8194  0.1261  0.3453
  885MOL0     H22092   8.479   9.059   1.328 -0.5271 -1.0507  0.8521
  885MOL0     H22093   8.302   9.112   1.157  1.4988 -2.4762  0.9447
  885MOL0     H22094   7.942   9.336   1.301  2.5247  1.3549 -1.8448
  885MOL0     H22095   7.892   9.291   1.139  2.0287 -1.5529 -0.5475
  885MOL0     H22096   7.860   9.053   1.200 -0.6473 -2.1179  3.1240
  885MOL0     H22097   7.879   9.114   1.372 -0.3723  3.5848  1.7155
  885MOL0     H22098   7.663   9.266   1.317  0.9008  0.6909  0.9239
  885MOL0     H22099   7.655   9.086   1.337 -0.7683  0.0647 -0.0535
  885MOL0     H22100   7.684   9.085   1.077 -0.0631  0.1870 -0.3477
  885MOL0     H22101   7.643   9.259   1.089  1.6941  2.0928  3.5323
  885MOL0     H22102   7.461   9.038   1.210 -0.5504 -0.2733 -1.2074
  885MOL0     H22103   7.425   9.207   1.171 -1.4964  0.6091 -2.9062
  885MOL0     H22104   7.460   8.975   0.984 -2.9042 -0.4144 -1.9809
  885MOL0     H22105   7.458   9.139   0.924 -1.4595  0.2136 -0.8056
  885MOL0     H22106   7.224   9.154   1.052 -1.6954 -0.7932 -1.4538
  885MOL0     H22107   7.234   8.989   1.068 -0.5104  0.5841  1.5050
  885MOL0     H22108   7.242   8.950   0.810 -1.7135  0.1074 -1.0621
  885MOL0     H22109   7.246   9.120   0.785 -3.0369 -0.0704  0.5252
  885MOL0     H22110   8.059   9.292   1.466  1.2920  1.2181  0.5893
  885MOL0     H22111   8.236   9.245   1.629  2.3509 -0.9695  1.0816
  885MOL0     H22112   8.616   9.302   1.904  0.7292 -0.3919  1.8127
  885MOL0     H22113   8.834   9.313   1.996 -2.3594  1.8537 -0.7537
  885MOL0     H22114   9.481  10.687   1.589 -0.3506  0.4364  1.9212
  885MOL0     H22115   9.714  10.734   1.471  0.6970 -1.5107 -1.8218
  885MOL0     H22116  10.173  10.447   1.497 -1.8750  1.9921  0.8903
  885MOL0     H22117  10.411  10.488   1.405 -0.6307 -0.4337  0.0746
  885MOL0     H22118  10.535  10.846   1.247 -0.7565  2.3217  0.1202
  885MOL0     H22119  10.575  10.899   1.416  2.5481  0.3436 -0.4859
  885MOL0     H22120  10.746  10.759   1.424 -1.3235  0.4048 -0.2795
  885MOL0     H22121  10.772  10.896   1.311  0.0356  1.0161  0.5194
  885MOL0     H22122  10.755  10.593   1.292 -3.0828  1.2226  1.4717
  885MOL0     H22123  10.692  10.689   1.158  0.0511  1.4043 -0.0732
  885MOL0     H22124  10.979  10.686   1.282  1.9040 -0.6804 -1.0986
  885MOL0     H22125  10.940  10.776   1.140  1.5876 -1.2892 -1.8312
  885MOL0     H22126  10.925  10.394   0.977  1.1286  1.4953 -2.3611
  885MOL0     H22127  10.373  10.897   1.513 -0.8724  0.0092  2.5582
  885MOL0     H22128  10.173  10.929   1.697  3.0074 -1.0758 -0.7801
  885MOL0     H22129  10.148  10.991   1.545  1.7685  1.9540  2.4287
  885MOL0     H22130  10.022  10.873   1.602  0.7918 -2.1745 -3.1358
  886MOL0     O22131  10.391   8.275   0.795 -0.2434 -0.3397  0.7114
  886MOL0     C22132  10.429   8.392   0.792 -1.0439 -0.3889 -0.3986
  886MOL0     O22133  10.557   8.430   0.782  0.3926  0.1551  0.1064
  886MOL0     C22134  10.643   8.328   0.784  0.5416 -0.1605 -0.0678
  886MOL0     C22135  10.680   8.267   0.663  0.1016 -0.2893 -0.1213
  886MOL0     C22136  10.777   8.166   0.662 -0.2673  0.9281 -0.3644
  886MOL0     C22137  10.841   8.127   0.787  0.4542 -0.0592  0.6629
  886MOL0     O22138  10.942   8.035   0.777  0.2615  1.0384  0.0475
  886MOL0     C22139  10.941   7.928   0.875  0.1870 -0.5275 -0.9482
  886MOL0     C22140  10.864   7.805   0.829  0.2983  0.7547 -0.3933
  886MOL0     C22141  10.713   7.807   0.815 -0.4403  0.9358 -0.5100
  886MOL0     C22142  10.658   7.864   0.954  0.7095 -1.0174 -0.1911
  886MOL0     C22143  10.515   7.828   0.969 -0.6544  0.1210 -0.0797
  886MOL0     C22144  10.437   7.912   1.066  0.0434 -0.7548 -0.0348
  886MOL0     C22145  10.293   7.910   1.040  0.4113 -0.2068 -0.1672
  886MOL0     C22146  10.230   8.026   1.117 -0.1157 -0.8971 -0.5027
  886MOL0     N22147  10.242   8.002   1.261 -0.2907 -0.3325  1.1542
  886MOL0     C22148  10.156   7.938   1.339  0.1405  0.8956  0.3692
  886MOL0     C22149  10.210   7.912   1.459  0.4229  0.1822 -0.7188
  886MOL0     C22150  10.167   7.804   1.558  0.6920 -0.1325  0.0685
  886MOL0     C22151  10.033   7.832   1.630  0.6240 -0.6845  0.1581
  886MOL0     C22152   9.913   7.836   1.532 -0.3263  0.5147 -0.6304
  886MOL0     C22153   9.782   7.857   1.608 -0.2583 -0.3975  0.4571
  886MOL0     O22154   9.776   7.785   1.735 -0.0720  0.4918 -1.2211
  886MOL0     C22155   9.664   7.779   1.817  0.0162 -0.9467  0.2731
  886MOL0     C22156   9.551   7.847   1.775  0.0393 -0.3014 -0.3903
  886MOL0     C22157   9.428   7.836   1.834 -0.0434  0.1975  0.7715
  886MOL0     C22158   9.309   7.891   1.756 -0.0495  0.6641  0.0316
  886MOL0     C22159   9.419   7.743   1.943 -0.2140  0.5507 -0.3952
  886MOL0     C22160   9.295   7.740   2.029 -0.1677  0.8057 -0.9403
  886MOL0     O22161   9.201   7.818   2.007 -0.1118  0.1743  0.1779
  886MOL0     C22162   9.083   7.814   2.080  0.5472  1.4236 -0.7176
  886MOL0     C22163   9.018   7.698   2.116 -0.9623 -0.0398  0.2924
  886MOL0     C22164   8.911   7.699   2.210 -0.0908  0.2084  1.2265
  886MOL0     C22165   8.856   7.823   2.261  0.2316 -0.1975  0.4621
  886MOL0     O22166   8.754   7.839   2.349 -0.0395  0.3989  0.5903
  886MOL0     C22167   8.655   7.736   2.358 -0.1214  0.9669  0.5005
  886MOL0     C22168   8.698   7.630   2.468 -1.1695  0.0631  0.3085
  886MOL0     C22169   8.733   7.675   2.611 -1.7369  0.2783  0.4788
  886MOL0     C22170   8.645   7.786   2.666  0.3582  1.0140  0.0899
  886MOL0     C22171   8.701   7.838   2.806  0.1173 -0.3636 -0.5937
  886MOL0     C22172   8.631   7.968   2.850  1.3467  0.3905  0.3337
  886MOL0     C22173   8.489   7.944   2.897 -0.3174 -0.5518  0.0658
  886MOL0     C22174   8.498   7.879   3.032  0.6562  1.1253  0.4974
  886MOL0    Cl22175   8.323   7.855   3.071  0.1770  0.5267  0.2134
  886MOL0     C22176   8.907   7.939   2.202  0.9709  0.0752 -0.5223
  886MOL0     C22177   9.020   7.936   2.118 -0.7939 -0.4492  0.3460
  886MOL0     O22178   9.309   7.676   2.134  0.4121  0.4203 -0.0919
  886MOL0     C22179   9.530   7.670   1.988 -0.7470  0.8912 -0.3808
  886MOL0     C22180   9.654   7.689   1.927 -0.1762  0.1568  0.3876
  886MOL0     N22181  10.327   7.989   1.459 -0.5012  0.4919 -0.2639
  886MOL0     N22182  10.344   8.045   1.344 -1.0376 -0.9368  0.9352
  886MOL0     C22183  10.811   8.204   0.907  0.1851  0.4957 -0.4870
  886MOL0     C22184  10.714   8.306   0.900 -0.2267  0.6122 -0.6887
  886MOL0     C22185  10.323   8.503   0.795 -0.0398  0.4292 -0.9251
  886MOL0     C22186  10.358   8.619   0.730 -1.0750  0.2503  0.8136
  886MOL0     C22187  10.265   8.722   0.709 -0.0864 -0.4331  0.2855
  886MOL0     C22188  10.138   8.717   0.766 -0.0663  1.6920 -0.3367
  886MOL0     O22189  10.044   8.809   0.751 -0.1323 -0.2602  0.3791
  886MOL0     C22190  10.063   8.945   0.706  0.0092  0.0913  0.1218
  886MOL0     C22191   9.933   9.027   0.685 -0.1117  0.2236  0.3444
  886MOL0     C22192   9.845   9.003   0.805 -0.1490 -0.0982  0.3041
  886MOL0     C22193   9.713   9.078   0.782  0.4249  0.1846 -0.5137
  886MOL0     C22194   9.610   9.067   0.888 -0.2659 -0.3093 -0.0393
  886MOL0     C22195   9.526   9.058   0.975  0.4930 -0.2663  0.6357
  886MOL0     C22196  10.102   8.602   0.838  0.7301 -0.8499  0.4407
  886MOL0     C22197  10.191   8.501   0.849 -1.7047  0.0872 -0.3132
  886MOL0     C22198  10.145   8.372   0.916  0.0901  0.1902 -0.5886
  886MOL0     H22199  10.643   8.321   0.577  0.2266  0.4167  0.2636
  886MOL0     H22200  10.808   8.119   0.569 -2.5436 -0.5595 -0.4364
  886MOL0     H22201  10.922   7.966   0.976  1.7741  4.5523 -2.2944
  886MOL0     H22202  11.044   7.895   0.864  0.2594 -0.0372 -1.7889
  886MOL0     H22203  10.912   7.778   0.735  0.5423  1.8900 -0.6167
  886MOL0     H22204  10.887   7.729   0.904  3.0997  0.7746 -1.1207
  886MOL0     H22205  10.681   7.867   0.729  0.4838  3.8954  1.0637
  886MOL0     H22206  10.679   7.704   0.801  4.5070 -0.7181 -2.7648
  886MOL0     H22207  10.712   7.820   1.037  1.1377 -0.0101  0.0774
  886MOL0     H22208  10.653   7.973   0.950 -1.0863 -1.0414  0.3517
  886MOL0     H22209  10.507   7.725   1.005 -1.7763  0.7716  1.6982
  886MOL0     H22210  10.479   7.831   0.866 -1.5852 -2.9735  0.0394
  886MOL0     H22211  10.448   7.873   1.168 -1.7539  0.6074  0.7463
  886MOL0     H22212  10.471   8.015   1.070 -1.4891 -0.2502  1.9251
  886MOL0     H22213  10.256   7.816   1.083 -2.8151  0.5613 -0.9435
  886MOL0     H22214  10.260   7.896   0.937 -1.2444 -0.0323  0.2972
  886MOL0     H22215  10.284   8.121   1.106 -1.0205  0.1219  2.6546
  886MOL0     H22216  10.132   8.042   1.071  0.2752 -3.5818 -2.4617
  886MOL0     H22217  10.061   7.902   1.300 -1.8254  1.8427  3.8954
  886MOL0     H22218  10.244   7.784   1.633 -0.9502 -0.5229  1.7505
  886MOL0     H22219  10.160   7.714   1.496  0.8910 -0.2940  0.2788
  886MOL0     H22220  10.015   7.751   1.702 -1.6232  0.0609  0.5305
  886MOL0     H22221  10.041   7.926   1.684 -3.6174  0.6647 -1.1622
  886MOL0     H22222   9.926   7.923   1.468  0.0975  1.7192  1.0474
  886MOL0     H22223   9.909   7.742   1.475 -1.1722 -1.3603  2.2962
  886MOL0     H22224   9.759   7.962   1.629  1.6978 -0.5062  4.0500
  886MOL0     H22225   9.703   7.823   1.540 -1.4041  0.1970  1.4449
  886MOL0     H22226   9.557   7.911   1.688  0.3626  0.0511 -0.1118
  886MOL0     H22227   9.341   7.904   1.652  2.8171  1.6488  0.9232
  886MOL0     H22228   9.254   7.972   1.804 -2.1596  0.0152 -1.1717
  886MOL0     H22229   9.234   7.813   1.738 -1.5282  2.0261  0.0735
  886MOL0     H22230   9.058   7.602   2.086 -0.7099  0.2304 -0.2690
  886MOL0     H22231   8.874   7.599   2.233 -1.0446  1.1168  4.0202
  886MOL0     H22232   8.560   7.786   2.381 -1.0795 -0.0249 -1.0515
  886MOL0     H22233   8.644   7.690   2.259 -1.0633 -0.5663  1.2739
  886MOL0     H22234   8.616   7.558   2.478  1.6361 -3.2789  1.0359
  886MOL0     H22235   8.780   7.570   2.428 -1.7999 -1.3203  1.0317
  886MOL0     H22236   8.838   7.708   2.609 -1.0622 -1.6487  1.7509
  886MOL0     H22237   8.731   7.587   2.676  2.7870 -0.3937  0.0673
  886MOL0     H22238   8.552   7.733   2.687  1.2551  0.2844  2.7708
  886MOL0     H22239   8.638   7.863   2.589  0.5748  1.8357  0.8742
  886MOL0     H22240   8.688   7.756   2.878  0.6909 -0.4304 -0.5672
  886MOL0     H22241   8.804   7.871   2.790 -0.1430  1.6793  1.3984
  886MOL0     H22242   8.616   8.040   2.768 -0.2266 -0.4701 -0.1723
  886MOL0     H22243   8.689   8.003   2.935  1.9787 -1.7747  0.8478
  886MOL0     H22244   8.442   7.885   2.817 -2.3611  3.6256 -2.1983
  886MOL0     H22245   8.436   8.040   2.892  0.5050 -0.0742  0.2979
  886MOL0     H22246   8.551   7.938   3.108  3.8382 -1.6545  0.6577
  886MOL0     H22247   8.548   7.782   3.034 -0.8182  0.3170 -0.1247
  886MOL0     H22248   8.863   8.035   2.228  1.2496  0.7488 -2.4398
  886MOL0     H22249   9.067   8.026   2.080  0.4136 -1.3317 -0.3269
  886MOL0     H22250   9.531   7.594   2.065  2.4967  0.3565 -0.7986
  886MOL0     H22251   9.739   7.623   1.940 -1.5586 -2.2807 -1.9294
  886MOL0     H22252  10.863   8.182   0.999  1.2815  1.1686 -0.9323
  886MOL0     H22253  10.690   8.349   0.997 -0.3094 -1.7800  0.4242
  886MOL0     H22254  10.448   8.628   0.670  0.2301 -4.3416  1.6495
  886MOL0     H22255  10.302   8.809   0.656 -2.4787  0.1497 -0.5550
  886MOL0     H22256  10.131   8.992   0.777  3.4203 -1.9373 -1.5550
  886MOL0     H22257  10.104   8.936   0.605 -0.1176  2.8862 -0.2610
  886MOL0     H22258   9.880   9.005   0.592  0.5367  4.4032 -1.1968
  886MOL0     H22259   9.949   9.134   0.675  1.9596  0.1880  2.3145
  886MOL0     H22260   9.823   8.896   0.813 -2.3740  0.1463 -1.4457
  886MOL0     H22261   9.904   9.037   0.890  0.1338  4.1574 -1.3430
  886MOL0     H22262   9.655   9.030   0.702 -1.7098 -2.8538  2.5474
  886MOL0     H22263   9.734   9.181   0.751 -1.7572  0.6933 -0.4336
  886MOL0     H22264   9.448   9.033   1.044  2.8206  1.7870  4.2616
  886MOL0     H22265  10.003   8.597   0.882  1.1819 -2.9769  1.3577
  886MOL0     H22266  10.206   8.357   1.005  1.2643  2.5705 -0.9012
  886MOL0     H22267  10.039   8.374   0.946 -0.9452 -0.5707 -3.8067
  886MOL0     H22268  10.141   8.294   0.839 -3.4193  0.1170 -0.5329
  887MOL0     O22269   9.896   0.087   9.910  0.5056  0.0921  0.2056
  887MOL0     C22270   9.869   0.192   9.964 -0.2005  0.1019  0.5932
  887MOL0     O22271   9.743   0.241  10.001 -1.5454 -0.1384  0.2491
  887MOL0     C22272   9.622   0.183   9.968  0.4487  0.4811  0.8342
  887MOL0     C22273   9.509   0.266   9.970 -0.9548  0.0287  0.5607
  887MOL0     C22274   9.378   0.228   9.955 -0.7442  0.9891 -0.8369
  887MOL0     C22275   9.360   0.099   9.921 -0.2793  0.3591 -0.3548
  887MOL0     O22276   9.233   0.063   9.901  0.1423 -0.6767 -0.2234
  887MOL0     C22277   9.215  -0.046   9.810  0.3139 -0.2866  0.0149
  887MOL0     C22278   9.056  -0.064   9.787  0.1032 -0.0527  0.1172
  887MOL0     C22279   8.983   0.062   9.744  1.0211 -0.8359 -0.4704
  887MOL0     C22280   8.832   0.056   9.759  0.0008  0.6847  0.5331
  887MOL0     C22281   8.759   0.175   9.684  0.1035  0.2281  0.2128
  887MOL0     C22282   8.774   0.302   9.765 -0.1973 -0.3929  0.4772
  887MOL0     C22283   8.707   0.418   9.690 -0.0112 -0.7298  0.1000
  887MOL0     C22284   8.678   0.545   9.776  0.0830 -1.2382 -0.3232
  887MOL0     N22285   8.791   0.633   9.814 -0.5554 -0.2312  0.0093
  887MOL0     C22286   8.831   0.660   9.939 -0.6725 -0.3558  0.0729
  887MOL0     C22287   8.911   0.770   9.933 -0.9157  0.5767  0.6707
  887MOL0     C22288   8.989   0.841  10.043  0.2405 -0.1350  0.0116
  887MOL0     C22289   9.068   0.738  10.129 -0.5517  0.6976 -0.6479
  887MOL0     C22290   9.207   0.701  10.069  0.1735 -1.0359 -0.0796
  887MOL0     C22291   9.268   0.572  10.148  0.6860  0.8332 -0.3631
  887MOL0     O22292   9.167   0.470  10.161 -0.1815  0.1920  0.1405
  887MOL0     C22293   9.210   0.346  10.205  0.2051 -0.6360  0.0185
  887MOL0     C22294   9.336   0.316  10.266 -0.8011  0.7506 -0.0914
  887MOL0     C22295   9.375   0.180  10.290 -0.1993 -0.1904  0.0099
  887MOL0     C22296   9.523   0.144  10.315  0.3034  0.3950 -0.5359
  887MOL0     C22297   9.280   0.076  10.259 -0.2555  0.7286  0.1321
  887MOL0     C22298   9.311  -0.072  10.271  0.1482 -0.1326  0.3057
  887MOL0     O22299   9.212  -0.153  10.227  0.0671 -0.1342  0.6440
  887MOL0     C22300   9.249  -0.281  10.224  1.3093  0.3655 -0.0223
  887MOL0     C22301   9.281  -0.331  10.103  0.7609 -0.6471 -0.4936
  887MOL0     C22302   9.309  -0.467  10.106  0.0181 -0.2276  1.0008
  887MOL0     C22303   9.296  -0.549  10.218 -0.1776  0.1689 -0.3521
  887MOL0     O22304   9.316  -0.685  10.204 -1.0044 -0.5436  0.7775
  887MOL0     C22305   9.370  -0.752  10.314 -1.0461 -0.0029  0.2777
  887MOL0     C22306   9.463  -0.878  10.284  0.5393 -0.2540 -0.4347
  887MOL0     C22307   9.594  -0.843  10.219 -0.2641  0.6094 -0.0661
  887MOL0     C22308   9.696  -0.962  10.203 -0.5968 -1.2295 -0.2110
  887MOL0     C22309   9.674  -1.026  10.073  0.0450  0.3276  0.5612
  887MOL0     C22310   9.790  -1.124  10.037  0.0880 -0.0294 -0.1031
  887MOL0     C22311   9.759  -1.264  10.101 -0.6617  1.0875 -0.5584
  887MOL0     C22312   9.862  -1.329  10.187 -0.1926  0.9134 -0.4087
  887MOL0    Cl22313   9.909  -1.200  10.301  0.7098  0.0064 -0.5144
  887MOL0     C22314   9.255  -0.491  10.338  0.1934 -0.4235  0.0998
  887MOL0     C22315   9.232  -0.357  10.340  0.6227  0.3733 -0.2624
  887MOL0     O22316   9.420  -0.109  10.319 -0.1004 -0.1964  0.3312
  887MOL0     C22317   9.159   0.114  10.216  0.4280 -0.2693  0.5796
  887MOL0     C22318   9.119   0.245  10.178 -0.4237  0.9356  0.2452
  887MOL0     N22319   8.906   0.813   9.800  0.1160 -0.1537  0.0990
  887MOL0     N22320   8.835   0.732   9.731 -0.5218  0.0378  0.0679
  887MOL0     C22321   9.471   0.006   9.906  0.5228 -0.6598  0.0832
  887MOL0     C22322   9.604   0.052   9.930  0.5524 -0.6177  0.4211
  887MOL0     C22323   9.983   0.287   9.984 -0.8505 -0.6036 -0.7001
  887MOL0     C22324   9.970   0.433   9.964  0.5757  0.1795  0.1778
  887MOL0     C22325  10.069   0.529   9.993 -0.0705 -0.2067 -0.3070
  887MOL0     C22326  10.191   0.475  10.039  0.0876  1.8968  0.2204
  887MOL0     O22327  10.291   0.558  10.076 -0.1693  0.3697  0.7124
  887MOL0     C22328  10.321   0.664   9.985  0.0769 -0.7336  0.0842
  887MOL0     C22329  10.462   0.706  10.016  0.2488  0.3349  0.5147
  887MOL0     C22330  10.498   0.853   9.981  0.0248 -0.7501  0.1585
  887MOL0     C22331  10.528   0.883   9.835  0.8239  0.0435  0.6491
  887MOL0     C22332  10.651   0.824   9.783 -0.1013  0.4580 -0.5028
  887MOL0     C22333  10.747   0.769   9.740 -0.8640 -0.8572 -0.6166
  887MOL0     C22334  10.212   0.336  10.058 -1.3013 -0.8127  0.2979
  887MOL0     C22335  10.112   0.243  10.036 -0.3638  0.8320  0.0154
  887MOL0     C22336  10.142   0.099  10.075 -0.4288 -0.4101  0.6511
  887MOL0     H22337   9.529   0.370   9.994  0.3513  0.5412 -2.3134
  887MOL0     H22338   9.298   0.301   9.959 -1.7809 -0.1492  2.4626
  887MOL0     H22339   9.239  -0.139   9.862 -1.6836 -0.0359  1.5021
  887MOL0     H22340   9.268  -0.033   9.716  1.3595  3.1576  0.9275
  887MOL0     H22341   9.049  -0.144   9.713  2.0112  1.4077 -1.7480
  887MOL0     H22342   9.021  -0.092   9.887  1.2709 -1.5768  0.1302
  887MOL0     H22343   9.027   0.143   9.804  2.9238 -0.2131 -2.5404
  887MOL0     H22344   9.015   0.092   9.643  2.7633  0.6335  0.4526
  887MOL0     H22345   8.805  -0.028   9.694  2.7201  0.5731 -0.5698
  887MOL0     H22346   8.789   0.030   9.856  0.7658 -1.7642  0.2833
  887MOL0     H22347   8.652   0.156   9.674  0.6330 -1.6812 -3.9541
  887MOL0     H22348   8.802   0.181   9.583  1.2240  0.1626  0.6700
  887MOL0     H22349   8.721   0.287   9.859 -0.9963  0.5720  0.1992
  887MOL0     H22350   8.882   0.317   9.768 -0.1137  0.4031 -2.7355
  887MOL0     H22351   8.612   0.380   9.652 -1.1250  2.5214 -0.7040
  887MOL0     H22352   8.753   0.453   9.597 -2.4944  1.3283 -0.4553
  887MOL0     H22353   8.606   0.610   9.726  1.6028  0.3698 -0.5455
  887MOL0     H22354   8.637   0.519   9.874 -1.8044  1.2004 -0.3857
  887MOL0     H22355   8.797   0.600  10.022  0.5514 -2.3981 -0.8345
  887MOL0     H22356   8.908   0.895  10.093 -0.2789 -1.1303  0.2879
  887MOL0     H22357   9.064   0.916  10.019 -1.3329  1.6513  0.4700
  887MOL0     H22358   9.081   0.794  10.223  0.5764  2.1038 -1.5923
  887MOL0     H22359   9.011   0.645  10.139 -3.0810  1.9570 -2.3354
  887MOL0     H22360   9.207   0.701   9.959 -3.4248  1.1550 -0.2427
  887MOL0     H22361   9.278   0.773  10.110  2.9055 -3.7035  0.2303
  887MOL0     H22362   9.354   0.535  10.092  1.7009  1.4386  0.7511
  887MOL0     H22363   9.310   0.598  10.246  0.2198  0.1260  0.0356
  887MOL0     H22364   9.420   0.382  10.284  1.2845 -0.5591 -3.8844
  887MOL0     H22365   9.584   0.233  10.332 -1.4488  1.4095  0.8601
  887MOL0     H22366   9.550   0.079  10.231  1.2734  0.8846 -0.6106
  887MOL0     H22367   9.522   0.086  10.408  3.3031  1.4915  0.2939
  887MOL0     H22368   9.284  -0.278  10.008 -0.1132  0.7125  0.2063
  887MOL0     H22369   9.354  -0.505  10.014  1.3656  0.6307  1.2737
  887MOL0     H22370   9.429  -0.672  10.361 -0.0461 -0.5848  0.0544
  887MOL0     H22371   9.292  -0.801  10.373 -1.8051 -2.4975 -2.5497
  887MOL0     H22372   9.467  -0.936  10.376 -3.2109 -1.6047 -0.9610
  887MOL0     H22373   9.401  -0.934  10.214  1.9960 -0.4378 -1.6274
  887MOL0     H22374   9.649  -0.774  10.285  2.4449 -0.7821 -0.7310
  887MOL0     H22375   9.583  -0.806  10.117  3.5756 -2.1457 -1.7179
  887MOL0     H22376   9.689  -1.036  10.283  1.4346 -0.9599  0.2547
  887MOL0     H22377   9.797  -0.922  10.209 -0.3762 -1.8847  0.7641
  887MOL0     H22378   9.576  -1.075  10.074  0.1631  0.0606 -0.1821
  887MOL0     H22379   9.665  -0.951   9.994 -3.2012 -0.9103 -0.4426
  887MOL0     H22380   9.882  -1.079  10.074  0.2688  0.7701 -1.4709
  887MOL0     H22381   9.791  -1.137   9.928  1.6253 -1.1279  0.0169
  887MOL0     H22382   9.730  -1.342  10.029 -4.2454  2.3092 -0.6159
  887MOL0     H22383   9.687  -1.253  10.183 -0.8513 -0.5673 -0.4565
  887MOL0     H22384   9.958  -1.361  10.145 -0.1525  0.7244 -0.1723
  887MOL0     H22385   9.824  -1.414  10.244  3.4236 -0.2363  0.5712
  887MOL0     H22386   9.226  -0.565  10.413  1.6245 -2.9148 -1.6585
  887MOL0     H22387   9.188  -0.313  10.429  0.5415  2.5448 -1.3209
  887MOL0     H22388   9.075   0.048  10.195 -2.1007  2.7142  0.4635
  887MOL0     H22389   9.021   0.260  10.134 -0.2552  2.2652  0.2782
  887MOL0     H22390   9.458  -0.101   9.891  4.0094 -0.8209 -2.9061
  887MOL0     H22391   9.678  -0.027   9.928  2.1033  0.7703  0.5505
  887MOL0     H22392   9.884   0.471   9.910  0.4162 -2.4001 -1.5084
  887MOL0     H22393  10.054   0.636   9.992  5.7583  0.9159 -0.5425
  887MOL0     H22394  10.305   0.625   9.883 -0.1478 -2.3085  0.6927
  887MOL0     H22395  10.252   0.744  10.011 -0.2887 -1.8823  3.0063
  887MOL0     H22396  10.526   0.644   9.953 -2.5349  0.0057 -2.2717
  887MOL0     H22397  10.486   0.694  10.122 -0.9438  0.3697  0.8007
  887MOL0     H22398  10.421   0.914  10.030  0.5230 -1.9446  2.5802
  887MOL0     H22399  10.588   0.877  10.038  1.8809 -4.1970 -1.0773
  887MOL0     H22400  10.523   0.992   9.832 -3.8408 -0.0205 -1.1747
  887MOL0     H22401  10.442   0.857   9.773 -0.6541  2.1700  1.6939
  887MOL0     H22402  10.831   0.708   9.712 -1.9266 -3.2755  1.0657
  887MOL0     H22403  10.310   0.304  10.093  1.3690  4.8020 -0.7870
  887MOL0     H22404  10.052   0.074  10.131 -1.7894 -0.1121 -1.3235
  887MOL0     H22405  10.133   0.036   9.986 -0.0168  0.1062  0.2382
  887MOL0     H22406  10.235   0.079  10.129 -0.5024 -2.4416  0.1122
  888MOL0     O22407   8.833   6.344   2.919  0.1093 -0.0723  0.0493
  888MOL0     C22408   8.790   6.363   3.032  0.0807  0.1154 -0.9397
  888MOL0     O22409   8.838   6.463   3.121  0.1886 -0.0874  0.1055
  888MOL0     C22410   8.971   6.507   3.117  0.7934  0.1101  0.1520
  888MOL0     C22411   9.000   6.633   3.160 -0.9023 -0.6617 -0.0670
  888MOL0     C22412   9.138   6.670   3.193  0.3474  0.8408  0.5055
  888MOL0     C22413   9.246   6.579   3.187 -0.0089  1.3078 -0.5543
  888MOL0     O22414   9.374   6.599   3.216  0.1656  0.0369 -0.5800
  888MOL0     C22415   9.408   6.735   3.240 -1.1257 -0.3440  0.7976
  888MOL0     C22416   9.431   6.775   3.389 -0.4924  0.0353 -1.1600
  888MOL0     C22417   9.508   6.673   3.475 -0.0535  0.2924  0.1606
  888MOL0     C22418   9.665   6.688   3.462  0.5060 -1.0312 -0.3238
  888MOL0     C22419   9.739   6.583   3.542  0.0059 -0.0529  0.0551
  888MOL0     C22420   9.863   6.524   3.463  0.1225  0.0449 -0.4330
  888MOL0     C22421   9.952   6.445   3.558 -0.0526 -0.0518 -0.0817
  888MOL0     C22422   9.932   6.296   3.570  0.3135  0.2453  0.1727
  888MOL0     N22423   9.890   6.223   3.451  0.2965  0.2532 -0.9886
  888MOL0     C22424   9.758   6.195   3.436 -1.0404  0.2592 -0.2708
  888MOL0     C22425   9.754   6.160   3.309  1.0216  0.7058 -1.0422
  888MOL0     C22426   9.623   6.119   3.247 -0.7763  0.7604 -0.0801
  888MOL0     C22427   9.551   6.238   3.179  0.0235  0.1634 -0.4963
  888MOL0     C22428   9.637   6.339   3.097 -0.4674  0.1234  1.5630
  888MOL0     C22429   9.574   6.390   2.977 -0.4153  0.3322  0.2224
  888MOL0     O22430   9.682   6.450   2.896 -0.0777 -0.1415  0.7777
  888MOL0     C22431   9.708   6.397   2.772 -0.0526  0.3743  0.3284
  888MOL0     C22432   9.625   6.433   2.663 -0.3097 -0.2254 -0.6809
  888MOL0     C22433   9.637   6.367   2.533  0.3303  0.5083 -0.2491
  888MOL0     C22434   9.536   6.407   2.424  0.2046  0.1404  0.3657
  888MOL0     C22435   9.733   6.261   2.517  0.6694 -0.5899 -0.4998
  888MOL0     C22436   9.750   6.178   2.397  0.4179 -1.4197  0.3229
  888MOL0     O22437   9.861   6.098   2.389 -0.4257  0.4895 -0.4059
  888MOL0     C22438   9.900   6.021   2.283 -0.8619 -0.4232  0.1854
  888MOL0     C22439   9.849   6.030   2.153  0.6065  0.2808 -0.1410
  888MOL0     C22440   9.894   5.943   2.057  0.4165  0.1869 -0.2878
  888MOL0     C22441   9.990   5.855   2.089 -0.2027 -0.1858  0.4229
  888MOL0     O22442  10.010   5.761   1.988  0.5628  0.5675  0.9090
  888MOL0     C22443  10.113   5.661   2.001  0.0932  0.5660  0.2321
  888MOL0     C22444  10.115   5.553   1.888  0.2004 -0.2254 -0.4240
  888MOL0     C22445  10.107   5.618   1.751  0.2092 -0.1033  1.0268
  888MOL0     C22446  10.215   5.724   1.715  0.2025 -0.3439  0.0712
  888MOL0     C22447  10.205   5.770   1.567 -0.0534  0.0884  0.5100
  888MOL0     C22448  10.252   5.670   1.454 -0.0247 -0.5972  0.0788
  888MOL0     C22449  10.397   5.643   1.467  0.2590 -0.6880  0.7871
  888MOL0     C22450  10.507   5.740   1.407  0.8938  0.3257  0.2770
  888MOL0    Cl22451  10.670   5.724   1.504 -0.3007  0.2805 -0.0094
  888MOL0     C22452  10.045   5.847   2.223 -0.0548  0.0484  0.3789
  888MOL0     C22453   9.999   5.939   2.317 -0.5819  0.3195  0.5489
  888MOL0     O22454   9.656   6.188   2.318 -0.2133 -0.1361  0.2504
  888MOL0     C22455   9.808   6.221   2.631 -0.2929 -0.5855  0.3119
  888MOL0     C22456   9.790   6.283   2.759  0.3423  0.4541  0.4102
  888MOL0     N22457   9.878   6.156   3.250 -0.3614 -0.2509  0.1084
  888MOL0     N22458   9.966   6.185   3.336 -0.3412 -0.3769 -0.3996
  888MOL0     C22459   9.207   6.448   3.150 -0.1453  0.0193  0.4508
  888MOL0     C22460   9.076   6.410   3.115  0.2749 -0.4776  0.7419
  888MOL0     C22461   8.672   6.277   3.080 -0.3725  0.1067  0.3587
  888MOL0     C22462   8.670   6.244   3.218 -0.4086  0.2916  0.0135
  888MOL0     C22463   8.553   6.178   3.276  0.5323  0.4363 -0.0027
  888MOL0     C22464   8.449   6.144   3.189 -0.2919  0.0785 -0.6381
  888MOL0     O22465   8.331   6.095   3.238  0.3653  0.0853  0.2959
  888MOL0     C22466   8.322   6.044   3.376  0.1936  0.4932 -0.4160
  888MOL0     C22467   8.205   5.937   3.348 -0.2902  0.1352 -0.0164
  888MOL0     C22468   8.241   5.824   3.246  0.0934  0.9282  0.5429
  888MOL0     C22469   8.125   5.733   3.221 -0.6764  0.2863  0.3456
  888MOL0     C22470   8.160   5.633   3.113 -0.1478 -1.0270  0.9519
  888MOL0     C22471   8.199   5.553   3.028 -0.2676 -0.1881  0.0193
  888MOL0     C22472   8.459   6.156   3.052  0.0526 -0.9816  0.1628
  888MOL0     C22473   8.571   6.210   2.994  0.5018 -1.3054  0.2669
  888MOL0     C22474   8.569   6.242   2.845 -0.4376 -0.2206  0.5984
  888MOL0     H22475   8.927   6.712   3.175  0.1097  0.6308 -1.6861
  888MOL0     H22476   9.150   6.775   3.221 -0.5313  1.0510  0.1348
  888MOL0     H22477   9.357   6.821   3.195  2.2367 -0.3426 -3.5862
  888MOL0     H22478   9.505   6.744   3.192 -2.5138  0.0885 -2.1491
  888MOL0     H22479   9.474   6.875   3.402 -1.7231  0.3443  0.8081
  888MOL0     H22480   9.329   6.789   3.425  0.3053  2.3205  0.4208
  888MOL0     H22481   9.486   6.689   3.581 -1.7817 -1.0848  0.0587
  888MOL0     H22482   9.476   6.573   3.444  3.1141 -1.1994  1.2592
  888MOL0     H22483   9.684   6.671   3.355 -1.2225 -3.2687 -0.3347
  888MOL0     H22484   9.695   6.790   3.490 -2.8738  0.4435 -1.5757
  888MOL0     H22485   9.672   6.501   3.566 -4.1023  0.9447 -5.8608
  888MOL0     H22486   9.775   6.622   3.638  0.6076 -2.4850  0.8838
  888MOL0     H22487   9.815   6.452   3.395 -1.7861  0.2761  0.6064
  888MOL0     H22488   9.915   6.605   3.409  1.9831 -0.5044  0.4455
  888MOL0     H22489   9.964   6.497   3.653 -0.9864 -2.4949  1.4575
  888MOL0     H22490  10.053   6.449   3.515 -0.4401  1.0082 -0.9456
  888MOL0     H22491  10.016   6.246   3.618  0.0005 -1.8075 -1.2914
  888MOL0     H22492   9.851   6.279   3.642 -1.2128  0.4905 -1.4157
  888MOL0     H22493   9.681   6.195   3.512  1.9828  0.9844  3.0176
  888MOL0     H22494   9.556   6.074   3.321 -0.9804 -2.2206 -1.8873
  888MOL0     H22495   9.650   6.044   3.172 -0.3350  1.5072 -0.6769
  888MOL0     H22496   9.481   6.186   3.113  0.7276 -0.8197 -0.4867
  888MOL0     H22497   9.500   6.298   3.255 -2.5117  1.6455 -3.1457
  888MOL0     H22498   9.638   6.423   3.168  1.9156  0.7224  0.9087
  888MOL0     H22499   9.740   6.307   3.080 -0.7370 -0.3777  0.8416
  888MOL0     H22500   9.517   6.320   2.915 -0.5285  0.1861  0.4871
  888MOL0     H22501   9.497   6.462   3.003 -1.0436  0.5554 -2.0160
  888MOL0     H22502   9.545   6.505   2.679 -2.3619 -2.2616 -1.2149
  888MOL0     H22503   9.579   6.405   2.323 -0.3463  1.2142  0.1051
  888MOL0     H22504   9.501   6.506   2.451 -2.1590 -0.6926  0.5705
  888MOL0     H22505   9.450   6.339   2.419  0.0638 -0.0122  3.3827
  888MOL0     H22506   9.759   6.089   2.135 -0.1591 -1.4062 -2.2951
  888MOL0     H22507   9.848   5.934   1.960 -1.4146 -0.9378  0.6211
  888MOL0     H22508  10.215   5.698   1.991  0.8192 -1.4075 -0.0629
  888MOL0     H22509  10.097   5.608   2.096 -0.9659 -2.6759 -1.5900
  888MOL0     H22510  10.193   5.483   1.919 -0.6329 -0.4142  1.3271
  888MOL0     H22511  10.025   5.492   1.899  1.1665 -2.1356 -2.3257
  888MOL0     H22512  10.007   5.661   1.750  0.3378  0.3092 -1.8458
  888MOL0     H22513  10.119   5.532   1.684  0.8861  0.0987  0.8863
  888MOL0     H22514  10.313   5.676   1.722 -0.3324 -2.4135 -3.8740
  888MOL0     H22515  10.200   5.820   1.766  0.0638 -0.6026  0.5171
  888MOL0     H22516  10.102   5.787   1.535 -0.2533 -1.3522  0.3156
  888MOL0     H22517  10.257   5.866   1.569  0.4272 -0.1276 -0.5983
  888MOL0     H22518  10.232   5.714   1.356 -1.9958  0.4382  0.8803
  888MOL0     H22519  10.196   5.578   1.469  3.4428 -2.9957 -0.6310
  888MOL0     H22520  10.423   5.547   1.419  3.7941  1.5009 -2.2335
  888MOL0     H22521  10.420   5.625   1.572  0.4997 -1.2838  0.6406
  888MOL0     H22522  10.471   5.842   1.426  2.2118  0.7606  0.5303
  888MOL0     H22523  10.525   5.725   1.301  2.3943  2.8738  0.0755
  888MOL0     H22524  10.123   5.775   2.245  0.9218  0.5806 -1.2235
  888MOL0     H22525  10.043   5.928   2.415 -2.0931  1.0551  1.3391
  888MOL0     H22526   9.894   6.157   2.615 -0.5406 -0.4573 -1.9378
  888MOL0     H22527   9.856   6.250   2.839  3.7051  1.1078 -1.8887
  888MOL0     H22528   9.284   6.371   3.146 -0.8470 -0.6443 -2.1864
  888MOL0     H22529   9.053   6.307   3.090 -1.8966  0.2236 -0.4686
  888MOL0     H22530   8.757   6.266   3.279 -1.7934 -1.4452  2.8229
  888MOL0     H22531   8.553   6.155   3.382  1.5089 -3.0053 -0.6172
  888MOL0     H22532   8.417   6.004   3.414 -0.4001  3.4719  5.4268
  888MOL0     H22533   8.280   6.118   3.445  0.7657  0.4044  0.0336
  888MOL0     H22534   8.118   5.998   3.320 -0.8041 -0.1542  0.9274
  888MOL0     H22535   8.173   5.876   3.433  1.5005  1.7667  1.9499
  888MOL0     H22536   8.272   5.864   3.150 -3.2822  0.1175 -1.0467
  888MOL0     H22537   8.323   5.771   3.296  2.0646  1.4223 -1.9649
  888MOL0     H22538   8.034   5.784   3.186 -0.4211  0.6947  0.2716
  888MOL0     H22539   8.097   5.685   3.315 -0.3025  2.6985  1.8014
  888MOL0     H22540   8.229   5.465   2.975  0.9816  0.6717 -0.7640
  888MOL0     H22541   8.371   6.126   2.996 -1.9271  3.8667  0.1617
  888MOL0     H22542   8.484   6.188   2.803 -2.7093  1.4925  2.6859
  888MOL0     H22543   8.544   6.347   2.830 -0.3552 -0.5829 -2.8887
  888MOL0     H22544   8.660   6.218   2.789 -1.6215 -1.4423 -0.8789
  889MOL0     O22545   0.096   0.924   7.091  0.4393 -0.1162  0.6809
  889MOL0     C22546   0.021   1.007   7.032  0.5689 -1.0762 -1.0560
  889MOL0     O22547  -0.113   1.032   7.063 -0.6558  0.0093  0.5231
  889MOL0     C22548  -0.204   0.929   7.089  0.1156  0.2139  0.6855
  889MOL0     C22549  -0.186   0.793   7.067 -0.8572  0.0380 -0.9149
  889MOL0     C22550  -0.290   0.702   7.088 -0.2316 -0.3145 -0.3422
  889MOL0     C22551  -0.419   0.751   7.121 -0.0196  0.6956  0.7456
  889MOL0     O22552  -0.521   0.664   7.142  0.5996  0.4924  0.5771
  889MOL0     C22553  -0.517   0.614   7.277 -0.0406 -0.0337  0.3198
  889MOL0     C22554  -0.576   0.478   7.279  0.1984  0.1478  0.6202
  889MOL0     C22555  -0.570   0.425   7.415 -0.2864  0.5337 -0.4523
  889MOL0     C22556  -0.660   0.298   7.416  0.5798 -0.3516  0.0254
  889MOL0     C22557  -0.679   0.253   7.554  0.5522 -0.1802  0.0280
  889MOL0     C22558  -0.745   0.111   7.568  0.4250 -0.3392  0.5168
  889MOL0     C22559  -0.895   0.110   7.541 -0.1411 -1.1399 -0.1251
  889MOL0     C22560  -0.950  -0.027   7.563 -0.2913  0.5443 -0.5562
  889MOL0     N22561  -1.096  -0.033   7.591  0.4462  0.2851  0.4380
  889MOL0     C22562  -1.187   0.027   7.512  0.1277  0.9789  0.6225
  889MOL0     C22563  -1.299   0.007   7.583 -0.0896  0.1017  0.1547
  889MOL0     C22564  -1.427   0.084   7.564 -0.2225 -0.1840 -0.0207
  889MOL0     C22565  -1.398   0.236   7.566  0.6031 -0.9344 -0.6942
  889MOL0     C22566  -1.531   0.295   7.538  0.4575  0.4601  0.2625
  889MOL0     C22567  -1.522   0.451   7.546 -0.0991 -0.0031 -0.0259
  889MOL0     O22568  -1.446   0.483   7.424  0.7501 -0.3512  0.5170
  889MOL0     C22569  -1.396   0.616   7.414 -0.1838  0.0816  0.8254
  889MOL0     C22570  -1.358   0.664   7.282  1.3215  0.0378 -0.6650
  889MOL0     C22571  -1.310   0.790   7.262 -0.2984  0.6630 -0.7242
  889MOL0     C22572  -1.266   0.822   7.122  0.1682  0.8303 -0.0241
  889MOL0     C22573  -1.285   0.874   7.371 -1.2887 -0.4671 -0.1632
  889MOL0     C22574  -1.213   1.004   7.372  0.3405  0.2332 -0.4155
  889MOL0     O22575  -1.265   1.096   7.457 -0.6400  0.4884 -0.3875
  889MOL0     C22576  -1.226   1.232   7.467 -0.1111 -0.7883 -0.4425
  889MOL0     C22577  -1.307   1.313   7.542  0.5676 -0.3642  1.2866
  889MOL0     C22578  -1.278   1.455   7.557  0.2256 -0.0299  0.6556
  889MOL0     C22579  -1.150   1.508   7.511 -0.2276 -0.8967 -0.3707
  889MOL0     O22580  -1.119   1.645   7.539 -0.1807 -0.4040 -0.3714
  889MOL0     C22581  -0.977   1.670   7.548 -0.5000  0.6503 -0.1619
  889MOL0     C22582  -0.941   1.804   7.602 -0.6634 -0.1842 -1.3185
  889MOL0     C22583  -0.796   1.838   7.602 -0.2656 -0.3595 -0.3300
  889MOL0     C22584  -0.712   1.759   7.701  0.0524  0.2760 -0.3200
  889MOL0     C22585  -0.577   1.810   7.728  0.3477 -0.6407 -0.7825
  889MOL0     C22586  -0.473   1.743   7.633 -0.1871 -0.5926 -0.5963
  889MOL0     C22587  -0.338   1.810   7.644  0.7308 -0.1309 -0.7253
  889MOL0     C22588  -0.223   1.724   7.584  0.5655 -0.3963  0.1528
  889MOL0    Cl22589  -0.223   1.570   7.688 -0.7006 -0.0055  0.5612
  889MOL0     C22590  -1.067   1.415   7.442 -0.2532  0.1780  0.4764
  889MOL0     C22591  -1.110   1.281   7.410  0.6884 -0.6038  0.7861
  889MOL0     O22592  -1.113   1.022   7.303  0.5250  0.3601  0.0524
  889MOL0     C22593  -1.327   0.829   7.494 -0.1880 -0.2610  0.3298
  889MOL0     C22594  -1.367   0.703   7.517  0.5092 -0.1050  0.6134
  889MOL0     N22595  -1.266  -0.053   7.706  0.0836 -0.0243  0.2855
  889MOL0     N22596  -1.144  -0.084   7.700  0.0182  0.0737 -0.1524
  889MOL0     C22597  -0.439   0.885   7.140 -0.1475  0.9444 -0.2524
  889MOL0     C22598  -0.334   0.972   7.113  0.3734 -0.2142  0.2476
  889MOL0     C22599   0.090   1.116   6.968  0.3614 -0.5768  0.3886
  889MOL0     C22600   0.050   1.245   6.983  0.3210 -1.0732  0.1161
  889MOL0     C22601   0.119   1.351   6.921  0.2176  0.1027  0.3408
  889MOL0     C22602   0.225   1.334   6.831 -0.2785 -0.5295 -0.6494
  889MOL0     O22603   0.288   1.438   6.784  0.1692 -0.1735  0.2568
  889MOL0     C22604   0.414   1.461   6.857 -0.1253 -0.0043  0.0689
  889MOL0     C22605   0.395   1.601   6.913 -0.7843 -0.2158  1.3086
  889MOL0     C22606   0.510   1.626   7.013 -0.0139  0.1654 -0.1054
  889MOL0     C22607   0.485   1.572   7.160  0.0278  0.1641  0.0200
  889MOL0     C22608   0.614   1.559   7.218 -0.6826 -0.1118 -0.5887
  889MOL0     C22609   0.710   1.544   7.300  0.6799 -0.5600  0.6984
  889MOL0     C22610   0.270   1.201   6.816 -0.3819  0.2866 -0.4306
  889MOL0     C22611   0.212   1.100   6.889  0.6723  0.0251  0.0026
  889MOL0     C22612   0.276   0.973   6.859 -0.1630 -0.8516 -0.4483
  889MOL0     H22613  -0.090   0.747   7.047 -0.8849 -0.3636 -0.1718
  889MOL0     H22614  -0.286   0.594   7.078  1.2260 -0.7288  3.2518
  889MOL0     H22615  -0.582   0.677   7.338 -0.0483  0.5994 -0.3361
  889MOL0     H22616  -0.420   0.616   7.327  0.4973 -1.6899 -0.5582
  889MOL0     H22617  -0.677   0.498   7.243  0.4097  2.8393  1.3294
  889MOL0     H22618  -0.531   0.409   7.206 -1.7471  0.3187 -0.8003
  889MOL0     H22619  -0.469   0.399   7.451 -0.9404  0.6280  1.5811
  889MOL0     H22620  -0.607   0.491   7.495 -1.5067  0.3050 -0.8128
  889MOL0     H22621  -0.762   0.325   7.387  1.1181 -0.3940 -2.0611
  889MOL0     H22622  -0.625   0.225   7.342  0.0147  0.5827 -1.1912
  889MOL0     H22623  -0.741   0.326   7.607 -2.2502 -0.2878 -2.8149
  889MOL0     H22624  -0.585   0.259   7.609  1.3999 -2.1164 -1.1171
  889MOL0     H22625  -0.695   0.044   7.497  1.0321  3.2945 -2.8308
  889MOL0     H22626  -0.721   0.082   7.671  5.0361  1.2803  0.1136
  889MOL0     H22627  -0.927   0.149   7.444 -0.3715  0.2662  0.4890
  889MOL0     H22628  -0.944   0.176   7.614  1.9947  2.3498 -1.6014
  889MOL0     H22629  -0.917  -0.099   7.488 -3.2101 -2.1087  0.4817
  889MOL0     H22630  -0.902  -0.068   7.652  0.7146  2.6979 -0.0221
  889MOL0     H22631  -1.152   0.078   7.423 -0.0216  0.1401  0.0722
  889MOL0     H22632  -1.497   0.070   7.647 -1.9919 -0.3636 -1.4900
  889MOL0     H22633  -1.469   0.045   7.471  1.6714 -0.2315 -0.9179
  889MOL0     H22634  -1.361   0.258   7.667 -2.3154  0.6085  0.1552
  889MOL0     H22635  -1.330   0.267   7.486 -0.8428 -0.0071 -1.6003
  889MOL0     H22636  -1.559   0.270   7.436 -0.3313 -3.0633  1.2149
  889MOL0     H22637  -1.609   0.256   7.604 -1.2571  3.3381  0.0874
  889MOL0     H22638  -1.622   0.494   7.542 -0.0456  0.5103  2.4674
  889MOL0     H22639  -1.487   0.472   7.647  0.0163  1.7756 -0.4059
  889MOL0     H22640  -1.379   0.606   7.193 -2.9738 -0.2190  0.3036
  889MOL0     H22641  -1.163   0.859   7.115  0.3560  0.4931  0.8236
  889MOL0     H22642  -1.328   0.905   7.089  0.0843  0.9008  0.3009
  889MOL0     H22643  -1.278   0.730   7.064  0.6084  0.6183  0.2123
  889MOL0     H22644  -1.392   1.258   7.579 -0.4841 -1.4027 -2.3349
  889MOL0     H22645  -1.338   1.520   7.620 -0.2954  2.4506 -2.1561
  889MOL0     H22646  -0.930   1.604   7.622  1.9563  4.8849  2.4461
  889MOL0     H22647  -0.931   1.661   7.450  0.3091 -1.5849  0.3639
  889MOL0     H22648  -1.004   1.883   7.560 -1.9501  1.4558  3.1231
  889MOL0     H22649  -0.968   1.802   7.708 -3.6362 -0.9336 -1.9932
  889MOL0     H22650  -0.777   1.946   7.604  1.5094 -0.6312  1.1983
  889MOL0     H22651  -0.755   1.821   7.502  2.0347  0.1255  0.4596
  889MOL0     H22652  -0.699   1.654   7.672  1.3534 -0.3431  2.2175
  889MOL0     H22653  -0.771   1.754   7.793 -1.0943  1.0536 -1.0007
  889MOL0     H22654  -0.574   1.918   7.716  2.6600 -0.6325 -0.6303
  889MOL0     H22655  -0.564   1.798   7.836 -2.8839  1.6627 -0.0092
  889MOL0     H22656  -0.519   1.771   7.538 -1.5738  0.4946  0.3316
  889MOL0     H22657  -0.471   1.634   7.634  0.4903 -0.7183 -4.1189
  889MOL0     H22658  -0.308   1.823   7.748  1.7454 -2.3989 -0.6766
  889MOL0     H22659  -0.334   1.916   7.618 -0.3649  0.2958  0.7332
  889MOL0     H22660  -0.129   1.779   7.583 -0.4168  1.4808 -2.8784
  889MOL0     H22661  -0.240   1.693   7.481  0.4427  1.5479 -0.4456
  889MOL0     H22662  -0.971   1.439   7.398 -0.9723 -1.6558 -2.3929
  889MOL0     H22663  -1.038   1.222   7.354 -0.5352 -0.2371 -1.3009
  889MOL0     H22664  -1.321   0.893   7.581 -1.0297  0.7168 -0.3039
  889MOL0     H22665  -1.393   0.683   7.620 -1.5249  0.3294  0.2197
  889MOL0     H22666  -0.540   0.922   7.157 -0.0927  0.9597  0.0285
  889MOL0     H22667  -0.357   1.078   7.124  2.9608  0.6622 -1.6858
  889MOL0     H22668  -0.032   1.253   7.053  0.9555  0.5111  0.7125
  889MOL0     H22669   0.087   1.451   6.946  1.5570  0.1976  1.8430
  889MOL0     H22670   0.432   1.391   6.939  2.0575 -0.2377 -0.5523
  889MOL0     H22671   0.497   1.459   6.787 -0.9313  1.7307 -0.9859
  889MOL0     H22672   0.295   1.616   6.955 -2.1293  1.7538 -2.2114
  889MOL0     H22673   0.398   1.674   6.831 -0.3559 -0.4549  1.1047
  889MOL0     H22674   0.594   1.573   6.967 -2.0953 -3.8691  0.3314
  889MOL0     H22675   0.536   1.732   7.018 -0.7431  0.2795  2.5691
  889MOL0     H22676   0.434   1.476   7.165 -4.0426  2.0703 -0.5854
  889MOL0     H22677   0.426   1.646   7.215  1.2186 -0.2220  1.9021
  889MOL0     H22678   0.791   1.533   7.370  0.6008  1.3030  1.1412
  889MOL0     H22679   0.351   1.176   6.748 -0.5577 -1.4699 -0.0438
  889MOL0     H22680   0.325   0.939   6.950  1.2642  3.2421  0.5647
  889MOL0     H22681   0.196   0.906   6.829 -1.0742  0.4926 -1.1520
  889MOL0     H22682   0.360   0.987   6.790  0.4852  2.4887  0.7836
  890MOL0     O22683   3.528   2.810  10.697  0.4078 -0.0381 -0.1021
  890MOL0     C22684   3.486   2.742  10.606 -0.3874 -0.0895  0.1280
  890MOL0     O22685   3.377   2.657  10.614  0.1590 -0.2384 -0.4569
  890MOL0     C22686   3.293   2.665  10.728  0.1487  0.3392  0.7687
  890MOL0     C22687   3.260   2.787  10.779 -0.1992 -0.2066 -0.3362
  890MOL0     C22688   3.169   2.809  10.881  0.0954 -0.1168  1.3018
  890MOL0     C22689   3.100   2.693  10.927  0.4117 -0.1431 -0.3763
  890MOL0     O22690   3.010   2.699  11.036  0.8127  0.3358  0.0261
  890MOL0     C22691   2.897   2.606  11.029 -0.1328  0.2019  0.7468
  890MOL0     C22692   2.802   2.675  11.117 -0.5197  0.6289 -0.4672
  890MOL0     C22693   2.743   2.819  11.094  0.6721  0.1149  0.0709
  890MOL0     C22694   2.713   2.854  10.947  0.2967  0.4245 -1.0971
  890MOL0     C22695   2.621   2.976  10.949 -0.1219 -0.0200  0.0196
  890MOL0     C22696   2.693   3.108  10.986 -0.3110 -0.7392 -0.2164
  890MOL0     C22697   2.638   3.234  10.921 -0.2229 -0.5545 -0.3004
  890MOL0     C22698   2.507   3.279  10.962  0.5930  0.2585 -0.2348
  890MOL0     N22699   2.500   3.354  11.085  0.4898  1.0912 -0.0473
  890MOL0     C22700   2.493   3.297  11.207  0.2737 -0.5102 -0.4537
  890MOL0     C22701   2.503   3.398  11.293 -0.7531  0.0923  0.2551
  890MOL0     C22702   2.497   3.397  11.441 -0.2985  0.1555 -0.6576
  890MOL0     C22703   2.625   3.331  11.506  0.4300 -0.4196 -0.9014
  890MOL0     C22704   2.613   3.190  11.561  0.7806  0.2102  0.1793
  890MOL0     C22705   2.748   3.127  11.571 -0.0323  1.0081  0.5395
  890MOL0     O22706   2.845   3.190  11.664  0.3705  0.0795 -0.4525
  890MOL0     C22707   2.951   3.120  11.714 -0.6656  1.1953  0.5762
  890MOL0     C22708   2.989   2.988  11.692  0.5341  0.3146 -0.5479
  890MOL0     C22709   3.106   2.934  11.747 -0.4697  0.2868 -0.1171
  890MOL0     C22710   3.140   2.793  11.710  0.3416 -0.0199  0.4705
  890MOL0     C22711   3.193   3.012  11.823  0.7222  0.2520 -0.6862
  890MOL0     C22712   3.315   2.964  11.883  0.7152 -0.1680  1.1415
  890MOL0     O22713   3.332   2.999  12.011 -0.8128 -0.0163  0.3766
  890MOL0     C22714   3.448   2.969  12.077  0.1162 -0.7520  0.1169
  890MOL0     C22715   3.499   3.089  12.135 -0.0499 -0.0193  0.0826
  890MOL0     C22716   3.630   3.085  12.189  0.3060 -0.7586  0.2529
  890MOL0     C22717   3.717   2.971  12.171  0.3784  0.6903 -0.1496
  890MOL0     O22718   3.849   3.005  12.194  0.7112  0.5830 -0.7353
  890MOL0     C22719   3.940   2.911  12.170  0.2613  0.1739 -0.2088
  890MOL0     C22720   4.077   2.937  12.245 -0.7180  0.0710 -0.5322
  890MOL0     C22721   4.070   2.927  12.398 -0.5510  0.6859  0.7557
  890MOL0     C22722   4.106   2.782  12.453  0.5909 -0.3008 -0.3539
  890MOL0     C22723   4.237   2.785  12.540 -0.3571 -0.1580 -0.5195
  890MOL0     C22724   4.244   2.651  12.613 -1.4651 -0.6532 -0.3755
  890MOL0     C22725   4.349   2.647  12.729  0.1740  0.4494  0.3323
  890MOL0     C22726   4.489   2.684  12.681  0.0360 -0.2582 -0.2336
  890MOL0    Cl22727   4.535   2.561  12.551 -0.3315 -0.3764 -0.2562
  890MOL0     C22728   3.650   2.851  12.119  0.3604 -0.5386 -0.4504
  890MOL0     C22729   3.513   2.848  12.084 -0.5234 -0.1311 -1.2146
  890MOL0     O22730   3.402   2.920  11.802  0.6815  0.2533  0.2576
  890MOL0     C22731   3.155   3.147  11.844  0.3114  0.3220  0.6270
  890MOL0     C22732   3.040   3.195  11.791  0.2683  0.2630  0.7414
  890MOL0     N22733   2.514   3.519  11.220 -0.2707  0.1656 -0.0590
  890MOL0     N22734   2.499   3.489  11.095  0.2363  0.4122  0.0785
  890MOL0     C22735   3.130   2.571  10.868 -0.3999  0.5875  1.2237
  890MOL0     C22736   3.222   2.557  10.765 -0.9443  0.0931  0.3759
  890MOL0     C22737   3.557   2.759  10.476 -0.5291  0.6114  0.1938
  890MOL0     C22738   3.522   2.663  10.375 -0.4877  0.2697 -0.4579
  890MOL0     C22739   3.572   2.676  10.245  0.7465  0.1860 -0.5694
  890MOL0     C22740   3.659   2.778  10.212  0.1104  0.0875  0.4474
  890MOL0     O22741   3.735   2.786  10.096 -0.7594 -0.7900 -0.8816
  890MOL0     C22742   3.720   2.675  10.004 -0.5809  0.4110 -0.6332
  890MOL0     C22743   3.602   2.703   9.909 -1.2535 -0.7902  0.4645
  890MOL0     C22744   3.640   2.817   9.799 -0.7107 -0.7911  0.1178
  890MOL0     C22745   3.596   2.951   9.846 -0.6780  0.3251  0.1345
  890MOL0     C22746   3.587   3.056   9.740  0.8066 -0.0227  0.5351
  890MOL0     C22747   3.586   3.143   9.656  0.4892 -0.1231 -0.1138
  890MOL0     C22748   3.705   2.863  10.314  0.1615  0.9571 -0.4756
  890MOL0     C22749   3.655   2.853  10.444  0.3460 -0.0507  0.7924
  890MOL0     C22750   3.719   2.965  10.539  0.7703 -0.1037  0.8932
  890MOL0     H22751   3.293   2.880  10.733  0.6439  0.3986  1.4072
  890MOL0     H22752   3.154   2.907  10.924 -2.8496  0.4582 -0.7422
  890MOL0     H22753   2.925   2.505  11.059 -0.9897 -0.7995 -1.6516
  890MOL0     H22754   2.850   2.592  10.932 -0.4667 -2.7686  1.2580
  890MOL0     H22755   2.711   2.614  11.119 -1.2135  1.3622 -3.9441
  890MOL0     H22756   2.847   2.662  11.216 -1.4175 -0.1838 -0.1468
  890MOL0     H22757   2.666   2.837  11.171 -0.5488 -2.4483 -0.4616
  890MOL0     H22758   2.809   2.900  11.126 -2.7987  3.3423 -0.2538
  890MOL0     H22759   2.805   2.879  10.892  0.3777  2.0264 -0.3036
  890MOL0     H22760   2.658   2.774  10.897 -2.0832  0.5255  1.1678
  890MOL0     H22761   2.532   2.974  11.012  0.4751  3.7933  1.2581
  890MOL0     H22762   2.594   2.977  10.843  2.9870 -1.0957 -0.9055
  890MOL0     H22763   2.692   3.125  11.094 -0.7731  1.3918 -0.5224
  890MOL0     H22764   2.794   3.098  10.944 -0.0506  3.7189 -1.0373
  890MOL0     H22765   2.640   3.211  10.814 -0.7593 -0.1035 -0.4077
  890MOL0     H22766   2.714   3.312  10.936 -1.6977  1.3154 -2.0867
  890MOL0     H22767   2.459   3.345  10.889 -1.3382 -1.1168 -0.2560
  890MOL0     H22768   2.447   3.189  10.973 -2.0408  1.8446 -0.6850
  890MOL0     H22769   2.488   3.189  11.224 -1.7081 -0.0580  2.6469
  890MOL0     H22770   2.404   3.346  11.469  0.1613 -1.7875 -2.3947
  890MOL0     H22771   2.492   3.499  11.478  0.6593 -1.0783  3.4156
  890MOL0     H22772   2.702   3.328  11.429  2.8828  0.7622  1.3547
  890MOL0     H22773   2.648   3.395  11.592  1.6862 -0.1117 -1.4406
  890MOL0     H22774   2.582   3.198  11.665  0.6162 -0.9457  0.2304
  890MOL0     H22775   2.542   3.133  11.500 -0.5670 -0.6505  2.4393
  890MOL0     H22776   2.725   3.029  11.614  2.0868  0.6529  0.9787
  890MOL0     H22777   2.798   3.121  11.474  0.9084  0.3247  1.0549
  890MOL0     H22778   2.921   2.928  11.633  1.0739  0.6388 -1.5135
  890MOL0     H22779   3.093   2.775  11.612  0.9923  3.1931 -0.5410
  890MOL0     H22780   3.114   2.723  11.789 -1.1871  0.1295  0.1331
  890MOL0     H22781   3.246   2.780  11.685  1.3827  3.6022  2.3358
  890MOL0     H22782   3.444   3.182  12.130  0.8762  0.4953 -2.9283
  890MOL0     H22783   3.671   3.180  12.223 -2.7058  1.5786 -2.0262
  890MOL0     H22784   3.904   2.809  12.187  2.2104 -0.4346  0.5990
  890MOL0     H22785   3.955   2.907  12.061 -0.8349 -3.1899 -0.3513
  890MOL0     H22786   4.155   2.876  12.199  0.9648  0.2476  1.9070
  890MOL0     H22787   4.107   3.037  12.212 -0.1261 -0.2322 -0.9147
  890MOL0     H22788   3.973   2.957  12.437  0.8765  5.1988  1.3464
  890MOL0     H22789   4.140   3.001  12.437  0.8277  1.6490 -3.0320
  890MOL0     H22790   4.116   2.707  12.374 -1.5510 -0.2791 -0.7031
  890MOL0     H22791   4.021   2.753  12.515 -0.5623  1.1821 -1.1490
  890MOL0     H22792   4.323   2.817  12.480 -0.6931  3.4178  0.6891
  890MOL0     H22793   4.234   2.859  12.620  1.2683  0.7421 -1.2230
  890MOL0     H22794   4.260   2.570  12.541 -1.3925  0.1805 -1.3070
  890MOL0     H22795   4.146   2.623  12.652 -1.3813 -0.3043  0.0982
  890MOL0     H22796   4.341   2.543  12.762 -0.9982 -0.0872 -1.5136
  890MOL0     H22797   4.321   2.708  12.816  1.2158 -1.3115  1.9698
  890MOL0     H22798   4.557   2.673  12.766 -1.2882  0.4340  0.9781
  890MOL0     H22799   4.489   2.785  12.640 -0.1846  0.2309  0.9220
  890MOL0     H22800   3.708   2.759  12.114  2.4721  0.7410 -1.1535
  890MOL0     H22801   3.466   2.755  12.056 -3.0258  0.3401  0.9631
  890MOL0     H22802   3.228   3.210  11.893  0.6432 -0.1718  0.7771
  890MOL0     H22803   3.014   3.300  11.796  3.5196  1.2191 -0.0509
  890MOL0     H22804   3.082   2.482  10.905  1.1042  0.0678  2.0354
  890MOL0     H22805   3.230   2.454  10.731  1.7072 -0.7202  3.0582
  890MOL0     H22806   3.455   2.583  10.401  0.3672 -1.0523 -2.1367
  890MOL0     H22807   3.550   2.601  10.171  2.3859 -0.7665 -0.1326
  890MOL0     H22808   3.813   2.666   9.946  0.7313 -0.1004  1.4487
  890MOL0     H22809   3.704   2.577  10.051 -3.3931  0.0756 -2.0636
  890MOL0     H22810   3.513   2.734   9.964 -2.8575 -0.9737 -1.8912
  890MOL0     H22811   3.576   2.606   9.865 -2.2648 -2.0816  3.6376
  890MOL0     H22812   3.745   2.815   9.770 -1.4106 -0.4016 -2.6886
  890MOL0     H22813   3.585   2.808   9.705 -1.4905  0.5984  0.4093
  890MOL0     H22814   3.665   2.980   9.926  0.0591  0.3312 -0.4972
  890MOL0     H22815   3.492   2.950   9.881  0.3916  0.9374  3.7446
  890MOL0     H22816   3.591   3.212   9.574 -0.9342 -1.3140 -1.2715
  890MOL0     H22817   3.770   2.949  10.300 -0.1662  1.7497  2.2317
  890MOL0     H22818   3.813   3.008  10.500  0.3419 -0.1722 -0.2475
  890MOL0     H22819   3.652   3.048  10.565  1.7668  1.3271 -0.8347
  890MOL0     H22820   3.760   2.917  10.628  2.1763  1.7707  1.3435
  891MOL0     O22821   3.572   2.668   3.333 -0.2288 -0.3324  0.5640
  891MOL0     C22822   3.444   2.656   3.321 -0.5656 -0.4175  0.1212
  891MOL0     O22823   3.356   2.603   3.413 -0.5257 -0.1073  0.6110
  891MOL0     C22824   3.412   2.565   3.530 -0.8974 -0.3263  0.3992
  891MOL0     C22825   3.432   2.433   3.560  0.1151 -1.1058 -0.2546
  891MOL0     C22826   3.467   2.388   3.678 -0.9597 -0.1221 -0.1521
  891MOL0     C22827   3.516   2.475   3.778  0.6870  0.1108  0.9911
  891MOL0     O22828   3.560   2.417   3.893  0.3623 -0.0915 -0.4805
  891MOL0     C22829   3.518   2.476   4.022 -0.1982  0.3348  0.6547
  891MOL0     C22830   3.606   2.401   4.128  1.1166 -0.2825  1.1782
  891MOL0     C22831   3.545   2.259   4.143  0.5019  0.3351 -0.8432
  891MOL0     C22832   3.419   2.253   4.229  0.4871 -0.2127  0.0007
  891MOL0     C22833   3.360   2.106   4.213  0.3922 -0.8863  0.0529
  891MOL0     C22834   3.439   1.987   4.274  0.0962 -0.5189  0.8644
  891MOL0     C22835   3.359   1.858   4.294  0.3906  0.1271  0.3940
  891MOL0     C22836   3.314   1.845   4.442  1.5960  0.1711 -0.0087
  891MOL0     N22837   3.204   1.939   4.477  0.8776  0.4847  0.3612
  891MOL0     C22838   3.217   2.060   4.542  0.3807 -0.0912  0.3413
  891MOL0     C22839   3.100   2.118   4.532  0.1440  0.1456  1.3629
  891MOL0     C22840   3.066   2.253   4.571  0.3958 -0.3383  0.2610
  891MOL0     C22841   2.916   2.302   4.548 -0.3491 -0.3412  0.8422
  891MOL0     C22842   2.895   2.452   4.539 -0.8825  0.8531 -0.6694
  891MOL0     C22843   2.749   2.489   4.517 -0.4800  1.0698 -0.5117
  891MOL0     O22844   2.717   2.459   4.382 -0.7285 -0.6142 -0.6145
  891MOL0     C22845   2.584   2.433   4.368  0.3103  0.2509  0.2418
  891MOL0     C22846   2.484   2.532   4.378 -0.1108 -0.8522  0.4405
  891MOL0     C22847   2.352   2.504   4.368  0.4353  0.4523 -0.1926
  891MOL0     C22848   2.254   2.623   4.388 -0.4763 -0.3632  1.2860
  891MOL0     C22849   2.312   2.371   4.335  0.0326 -0.4436 -0.4974
  891MOL0     C22850   2.180   2.332   4.292  0.4125 -0.3252 -0.4090
  891MOL0     O22851   2.179   2.242   4.196  0.4976  0.2214 -0.2407
  891MOL0     C22852   2.076   2.158   4.164 -0.8640 -0.4586 -0.5161
  891MOL0     C22853   2.118   2.061   4.072 -0.2789  0.7520  0.1502
  891MOL0     C22854   2.031   1.955   4.044  0.6665 -0.1555  0.4083
  891MOL0     C22855   1.907   1.945   4.116  0.3893  0.3139 -1.0374
  891MOL0     O22856   1.836   1.828   4.087 -0.3819  0.0964  0.2365
  891MOL0     C22857   1.687   1.818   4.100  0.2613  0.5253  0.6249
  891MOL0     C22858   1.640   1.670   4.072 -0.7698 -0.8377  0.0092
  891MOL0     C22859   1.496   1.645   4.133 -0.3964 -0.2244  0.6256
  891MOL0     C22860   1.421   1.526   4.060 -0.2503  0.8324  0.6004
  891MOL0     C22861   1.272   1.510   4.125  0.1802  0.4844  0.3288
  891MOL0     C22862   1.201   1.387   4.063  0.9981  0.4807 -0.3367
  891MOL0     C22863   1.071   1.352   4.145 -0.1667  0.3007  0.3137
  891MOL0     C22864   1.103   1.279   4.281 -0.4668 -0.0548 -0.3897
  891MOL0    Cl22865   1.119   1.101   4.272 -0.2616 -0.4456 -0.0048
  891MOL0     C22866   1.869   2.040   4.206 -0.0147 -0.3251  0.2910
  891MOL0     C22867   1.964   2.136   4.234  0.1302  0.5518 -0.4079
  891MOL0     O22868   2.081   2.390   4.336  0.1062  0.1006 -0.0659
  891MOL0     C22869   2.412   2.268   4.334  0.2818  0.5851 -0.3308
  891MOL0     C22870   2.543   2.296   4.354  0.3376 -0.4345  0.5661
  891MOL0     N22871   3.013   2.037   4.478  0.3456 -0.0021  0.6526
  891MOL0     N22872   3.077   1.929   4.427 -0.0442  0.7172 -0.9539
  891MOL0     C22873   3.513   2.618   3.749  0.6542  1.1704  0.7378
  891MOL0     C22874   3.455   2.652   3.625  0.6012 -0.0727 -0.5690
  891MOL0     C22875   3.380   2.717   3.198  0.2379  0.4393  0.1875
  891MOL0     C22876   3.244   2.765   3.213 -0.4056  0.8912 -0.7495
  891MOL0     C22877   3.180   2.833   3.110  0.1930  0.6323 -0.1247
  891MOL0     C22878   3.238   2.848   2.989  0.0914  0.4053 -0.1726
  891MOL0     O22879   3.170   2.887   2.881 -0.1527  0.3717  0.6750
  891MOL0     C22880   3.185   3.022   2.839  0.0981  0.8574  0.3556
  891MOL0     C22881   3.114   3.034   2.702 -0.3731  0.2551 -0.1751
  891MOL0     C22882   3.073   3.186   2.663  0.1447  0.9383 -0.3751
  891MOL0     C22883   3.178   3.302   2.668  0.1893  0.0040 -0.1841
  891MOL0     C22884   3.108   3.414   2.616  0.6872 -0.1707  0.7440
  891MOL0     C22885   3.028   3.501   2.580 -0.4482  0.4736  0.3380
  891MOL0     C22886   3.366   2.789   2.972 -0.5352 -1.1484  0.3106
  891MOL0     C22887   3.437   2.733   3.072 -1.0246  0.4813  0.1668
  891MOL0     C22888   3.569   2.668   3.042 -0.5069  0.2701  0.8568
  891MOL0     H22889   3.403   2.365   3.480 -1.9858  2.7340 -3.1150
  891MOL0     H22890   3.467   2.280   3.690 -1.9910 -0.6080 -3.4996
  891MOL0     H22891   3.409   2.464   4.033 -0.6915  0.3799 -2.9303
  891MOL0     H22892   3.540   2.583   4.017 -1.0425  0.6884  2.9690
  891MOL0     H22893   3.708   2.387   4.090  0.7224  0.6812 -0.3240
  891MOL0     H22894   3.610   2.455   4.223  4.2951  3.0097 -0.5672
  891MOL0     H22895   3.530   2.215   4.045  2.0544  1.1028 -1.4539
  891MOL0     H22896   3.624   2.209   4.200  1.8417  2.2327 -0.9211
  891MOL0     H22897   3.423   2.299   4.329  0.6263 -0.4388  0.0988
  891MOL0     H22898   3.350   2.326   4.187  1.4171  0.2628 -0.7418
  891MOL0     H22899   3.353   2.084   4.106  1.5773  0.6022 -0.3887
  891MOL0     H22900   3.262   2.105   4.261  0.8531 -2.2692  1.0197
  891MOL0     H22901   3.517   1.953   4.206 -3.9847 -0.7644 -4.2417
  891MOL0     H22902   3.481   2.010   4.373  0.5168 -3.3690  1.4398
  891MOL0     H22903   3.419   1.771   4.266  0.3541  0.1410  0.2741
  891MOL0     H22904   3.266   1.859   4.237  1.1342  1.3079 -0.8489
  891MOL0     H22905   3.284   1.741   4.456 -1.4336  0.8248 -0.8651
  891MOL0     H22906   3.392   1.878   4.511  1.0091  0.6031  0.4587
  891MOL0     H22907   3.306   2.108   4.582  2.2716 -0.9514 -2.4945
  891MOL0     H22908   3.135   2.316   4.514  0.9394  0.8961  2.1835
  891MOL0     H22909   3.089   2.275   4.676 -1.6656 -2.4861  1.2503
  891MOL0     H22910   2.879   2.255   4.456 -2.1919 -0.5109  1.6264
  891MOL0     H22911   2.862   2.267   4.637  1.3533  2.8432  3.3333
  891MOL0     H22912   2.914   2.498   4.636 -1.4226 -0.9699  0.3564
  891MOL0     H22913   2.950   2.488   4.452 -0.7550 -2.4524 -2.1119
  891MOL0     H22914   2.690   2.437   4.593 -0.8242  1.2641 -0.6416
  891MOL0     H22915   2.740   2.598   4.531 -0.8078  1.4153 -2.9804
  891MOL0     H22916   2.511   2.637   4.390 -2.4318 -0.3592  1.8973
  891MOL0     H22917   2.195   2.629   4.296 -1.3302 -2.4123  1.6639
  891MOL0     H22918   2.314   2.713   4.404  1.2211 -0.7184 -2.1297
  891MOL0     H22919   2.191   2.599   4.474 -3.8751  0.2025 -0.8780
  891MOL0     H22920   2.212   2.088   4.025  0.1470  0.1260  0.6364
  891MOL0     H22921   2.046   1.874   3.975 -3.5904 -0.5202 -0.3597
  891MOL0     H22922   1.661   1.836   4.205  1.5325  2.5257  0.6328
  891MOL0     H22923   1.633   1.894   4.044  1.7668  0.0474 -1.6133
  891MOL0     H22924   1.642   1.656   3.964 -1.1355  1.4089 -0.3421
  891MOL0     H22925   1.710   1.600   4.119 -1.3072 -1.0533  0.5050
  891MOL0     H22926   1.430   1.732   4.124 -1.4080 -1.0610 -0.5287
  891MOL0     H22927   1.504   1.618   4.238  0.4431  4.0033  1.8382
  891MOL0     H22928   1.491   1.444   4.079 -2.8943 -1.4505  1.2560
  891MOL0     H22929   1.411   1.549   3.954 -0.7174 -0.4728  0.3464
  891MOL0     H22930   1.296   1.492   4.230 -1.2919  0.8023  0.7470
  891MOL0     H22931   1.226   1.604   4.094  2.6474  1.2493 -1.3580
  891MOL0     H22932   1.254   1.292   4.056  0.4655  0.2586 -1.6609
  891MOL0     H22933   1.161   1.424   3.968 -0.9317  2.7526  1.2333
  891MOL0     H22934   1.013   1.273   4.095 -0.0714 -2.4744  4.1300
  891MOL0     H22935   1.004   1.435   4.169 -2.0189 -0.6496 -1.2357
  891MOL0     H22936   1.015   1.290   4.345  0.1792 -0.6248  0.6429
  891MOL0     H22937   1.197   1.320   4.319 -0.6701 -0.4017  0.5067
  891MOL0     H22938   1.773   2.031   4.257 -0.1660  1.9278  0.4806
  891MOL0     H22939   1.934   2.201   4.316 -1.4501  0.4559 -0.8688
  891MOL0     H22940   2.377   2.167   4.312 -3.4205  2.0515 -1.8403
  891MOL0     H22941   2.617   2.216   4.357  0.8504  0.0529  1.2539
  891MOL0     H22942   3.533   2.693   3.824  2.1596  0.7593  0.7823
  891MOL0     H22943   3.440   2.754   3.592  0.9150  0.0427 -0.3602
  891MOL0     H22944   3.195   2.746   3.309  0.8244 -0.6251 -0.3856
  891MOL0     H22945   3.074   2.855   3.123 -0.0770 -1.6058  2.3063
  891MOL0     H22946   3.134   3.088   2.910 -1.4541  0.8542 -0.7037
  891MOL0     H22947   3.289   3.053   2.829  0.7238 -0.9742  0.7266
  891MOL0     H22948   3.018   2.981   2.708  0.4501 -1.1543  1.5592
  891MOL0     H22949   3.169   2.983   2.622 -0.3838 -1.4198  0.8424
  891MOL0     H22950   3.054   3.186   2.555 -0.0754 -1.6485 -0.3801
  891MOL0     H22951   2.987   3.205   2.728 -0.4687 -2.4439 -0.0527
  891MOL0     H22952   3.274   3.287   2.618 -0.1982  2.4514 -1.8576
  891MOL0     H22953   3.207   3.320   2.772  2.0268 -1.0191 -0.4824
  891MOL0     H22954   2.976   3.587   2.544 -1.0249 -1.1622 -3.1307
  891MOL0     H22955   3.404   2.813   2.873  0.6588  5.6626  1.9192
  891MOL0     H22956   3.582   2.576   3.100 -0.3207  1.0764  2.1527
  891MOL0     H22957   3.590   2.649   2.937 -1.0487 -0.2969  0.8473
  891MOL0     H22958   3.636   2.750   3.072 -0.3529  0.5167 -0.1317
  892MOL0     O22959   3.805   5.073  10.059 -0.0476  0.1581 -0.3739
  892MOL0     C22960   3.832   4.970  10.002 -0.3155  0.6990  0.1232
  892MOL0     O22961   3.902   4.867  10.060 -0.1081  0.4469  1.0856
  892MOL0     C22962   3.919   4.866  10.190  0.2048  0.8428  0.4175
  892MOL0     C22963   4.036   4.926  10.233 -0.2230  0.6689 -0.2812
  892MOL0     C22964   4.075   4.919  10.363 -0.6620 -0.0640 -0.3533
  892MOL0     C22965   3.981   4.869  10.457 -0.1262 -0.5461  0.0763
  892MOL0     O22966   4.009   4.863  10.590  0.6249  1.1328  0.1294
  892MOL0     C22967   4.127   4.909  10.644 -0.8999  0.0392 -0.7316
  892MOL0     C22968   4.135   4.889  10.798 -0.2177  0.1954 -0.5215
  892MOL0     C22969   4.197   4.997  10.888 -0.4316  0.0999  0.6339
  892MOL0     C22970   4.210   4.935  11.033 -0.1099  0.3597  0.1304
  892MOL0     C22971   4.296   5.012  11.131  0.1898 -0.3938 -1.1337
  892MOL0     C22972   4.264   5.161  11.151  0.1210 -0.0066 -0.1577
  892MOL0     C22973   4.124   5.194  11.199  0.1349 -0.8302 -0.0946
  892MOL0     C22974   4.112   5.186  11.349  0.0617 -0.2633 -0.2551
  892MOL0     N22975   3.971   5.186  11.395 -0.0968  0.5906  0.4248
  892MOL0     C22976   3.890   5.295  11.424  1.7301  0.2520 -0.3335
  892MOL0     C22977   3.758   5.251  11.430  0.3539 -0.5894 -0.1594
  892MOL0     C22978   3.645   5.328  11.486 -0.0038  1.5871  0.7877
  892MOL0     C22979   3.651   5.473  11.453 -0.3776  0.2064  0.5840
  892MOL0     C22980   3.657   5.513  11.300  0.2998  0.5594  0.4266
  892MOL0     C22981   3.534   5.461  11.205 -0.2257 -0.4802  0.7038
  892MOL0     O22982   3.510   5.320  11.222 -0.3449 -0.2790 -0.7360
  892MOL0     C22983   3.382   5.274  11.195  0.5166 -0.1865 -1.1691
  892MOL0     C22984   3.375   5.140  11.220 -0.0219  0.7868 -0.7728
  892MOL0     C22985   3.257   5.063  11.211 -0.1699  0.2647  1.1221
  892MOL0     C22986   3.267   4.918  11.212 -0.4471  0.3891 -0.0796
  892MOL0     C22987   3.137   5.132  11.177  0.0230 -0.3633 -0.0640
  892MOL0     C22988   3.009   5.058  11.139 -0.1070 -0.1269  0.2099
  892MOL0     O22989   2.986   4.938  11.195 -0.5509 -0.0783  0.7199
  892MOL0     C22990   2.915   4.834  11.149 -0.4912 -0.2082 -0.5988
  892MOL0     C22991   2.827   4.834  11.037  1.0009  0.1514  0.3497
  892MOL0     C22992   2.737   4.730  11.019 -1.1093 -0.5626  0.0734
  892MOL0     C22993   2.731   4.619  11.102  0.5087 -0.2283 -0.2030
  892MOL0     O22994   2.637   4.521  11.065  0.4988 -0.2211 -1.1741
  892MOL0     C22995   2.623   4.411  11.154  0.1344  0.4755  0.9456
  892MOL0     C22996   2.491   4.351  11.141  0.9047  0.3883 -0.6114
  892MOL0     C22997   2.459   4.265  11.268  0.3562  0.3437  0.5314
  892MOL0     C22998   2.335   4.182  11.238  0.3632 -0.0717  0.1889
  892MOL0     C22999   2.201   4.256  11.258 -0.1991 -0.6217 -0.2304
  892MOL0     C23000   2.086   4.160  11.287  0.0986  0.0480 -0.7952
  892MOL0     C23001   1.957   4.231  11.284  0.3149  0.6281 -1.1947
  892MOL0     C23002   1.849   4.145  11.341  0.8902  0.5306  0.3820
  892MOL0    Cl23003   1.807   4.020  11.221 -0.3418  0.1881  0.2352
  892MOL0     C23004   2.830   4.611  11.199 -0.0430 -0.2087  0.7412
  892MOL0     C23005   2.926   4.716  11.225  0.9382  0.9816  0.5011
  892MOL0     O23006   2.925   5.121  11.067 -0.8024 -0.1526 -0.2488
  892MOL0     C23007   3.147   5.270  11.149 -0.1153  0.3588 -0.5132
  892MOL0     C23008   3.269   5.346  11.153 -0.0670 -0.0402 -0.6216
  892MOL0     N23009   3.763   5.110  11.384 -0.1290 -0.0552  0.6592
  892MOL0     N23010   3.893   5.080  11.371  0.3367  0.4674  0.2089
  892MOL0     C23011   3.856   4.822  10.413 -0.1545  0.3203 -0.7188
  892MOL0     C23012   3.818   4.813  10.282  0.0938 -0.4294  0.7298
  892MOL0     C23013   3.814   4.957   9.854  0.2436  1.7302  0.5999
  892MOL0     C23014   3.889   4.860   9.783  0.0453  0.4009  0.8429
  892MOL0     C23015   3.894   4.861   9.644  0.0454  0.1748 -0.3240
  892MOL0     C23016   3.821   4.955   9.571  0.5120 -0.6564 -0.4040
  892MOL0     O23017   3.824   4.946   9.437 -0.5561 -0.0745  0.2329
  892MOL0     C23018   3.836   5.073   9.374 -1.4236  0.4822 -0.5304
  892MOL0     C23019   3.922   5.057   9.250  0.4196  0.4744  0.5493
  892MOL0     C23020   3.867   4.942   9.162  0.2052  0.2878  0.2428
  892MOL0     C23021   3.878   4.968   9.011 -0.6404  1.0340 -0.9399
  892MOL0     C23022   3.822   4.841   8.961  0.5364  0.4476 -0.3175
  892MOL0     C23023   3.777   4.738   8.925 -0.1607  0.4890 -0.3586
  892MOL0     C23024   3.744   5.051   9.639  0.0015 -0.5132 -0.4524
  892MOL0     C23025   3.741   5.049   9.780  0.3197 -0.2547 -0.2622
  892MOL0     C23026   3.646   5.158   9.835 -0.9480 -0.4953 -0.7991
  892MOL0     H23027   4.109   4.958  10.159  1.0796 -3.5474 -1.1093
  892MOL0     H23028   4.167   4.965  10.396 -1.3799  1.4528 -0.3906
  892MOL0     H23029   4.125   5.016  10.622 -2.2889 -0.1967 -1.8429
  892MOL0     H23030   4.219   4.866  10.602 -0.0244  1.5554 -0.4417
  892MOL0     H23031   4.040   4.858  10.843 -0.8293  1.6984 -0.7426
  892MOL0     H23032   4.186   4.793  10.813 -0.0003  0.1845 -1.3030
  892MOL0     H23033   4.302   5.007  10.858 -0.5711  0.5423  0.2825
  892MOL0     H23034   4.136   5.087  10.893 -1.4001 -0.6090  3.9534
  892MOL0     H23035   4.110   4.921  11.074 -1.3522 -0.5849 -2.9697
  892MOL0     H23036   4.264   4.840  11.029  0.1668  0.4884  0.7228
  892MOL0     H23037   4.403   5.005  11.108  0.6514 -2.5809  1.1906
  892MOL0     H23038   4.279   4.958  11.225  0.0219 -1.4844 -1.7731
  892MOL0     H23039   4.336   5.196  11.225 -0.5961  0.7841  0.1862
  892MOL0     H23040   4.276   5.229  11.066 -0.3792  3.5815  2.4104
  892MOL0     H23041   4.053   5.125  11.152 -0.3301  1.0127 -2.3222
  892MOL0     H23042   4.101   5.296  11.167 -0.6782 -0.6851  0.9173
  892MOL0     H23043   4.156   5.092  11.384  0.3782 -1.0766 -2.6196
  892MOL0     H23044   4.169   5.274  11.380 -0.8030 -0.1231  1.0167
  892MOL0     H23045   3.924   5.393  11.454 -2.2718  1.5916  0.2937
  892MOL0     H23046   3.650   5.312  11.594  1.4947  1.4379  0.7149
  892MOL0     H23047   3.546   5.292  11.456  1.1529 -0.8645 -0.4270
  892MOL0     H23048   3.561   5.521  11.492 -1.4090 -0.1540 -1.2442
  892MOL0     H23049   3.737   5.519  11.503  0.9355 -2.5170  1.0539
  892MOL0     H23050   3.668   5.621  11.289 -0.2244  0.5133 -0.6920
  892MOL0     H23051   3.746   5.469  11.254 -0.6795 -1.3024  0.1911
  892MOL0     H23052   3.442   5.518  11.223  0.2403  0.8617 -0.9505
  892MOL0     H23053   3.571   5.479  11.104  3.6913  0.5976  2.1277
  892MOL0     H23054   3.470   5.101  11.257 -0.5039  1.0151  0.7632
  892MOL0     H23055   3.206   4.877  11.293 -1.0846  0.2782 -0.6101
  892MOL0     H23056   3.367   4.906  11.253 -1.3986 -0.1989  2.2115
  892MOL0     H23057   3.271   4.870  11.113  1.5826  2.3137 -1.0111
  892MOL0     H23058   2.823   4.903  10.954  0.8070 -0.4350 -0.1364
  892MOL0     H23059   2.672   4.721  10.933  2.0587 -1.0584 -2.4648
  892MOL0     H23060   2.699   4.335  11.136  1.7274  2.4099 -1.2029
  892MOL0     H23061   2.649   4.439  11.257  1.3426  3.5406 -0.0884
  892MOL0     H23062   2.420   4.435  11.140  1.4675  0.8734 -1.9054
  892MOL0     H23063   2.473   4.304  11.044  2.0764 -1.1642 -0.1033
  892MOL0     H23064   2.443   4.321  11.361  1.0101  0.0124  0.8499
  892MOL0     H23065   2.542   4.199  11.294  1.0584  2.1300  3.3017
  892MOL0     H23066   2.332   4.103  11.315 -1.6639  0.2203  0.4814
  892MOL0     H23067   2.334   4.142  11.136  3.9583 -1.4760  0.5510
  892MOL0     H23068   2.201   4.323  11.344 -1.7970  0.0025 -0.6749
  892MOL0     H23069   2.173   4.310  11.167 -2.2410 -0.5445  0.3784
  892MOL0     H23070   2.100   4.110  11.384 -0.3629 -1.7454 -1.5990
  892MOL0     H23071   2.084   4.087  11.206 -3.8827  0.2213 -1.0673
  892MOL0     H23072   1.923   4.265  11.186 -0.5872  1.6240 -0.5653
  892MOL0     H23073   1.952   4.314  11.356 -0.8612 -0.2878 -0.1678
  892MOL0     H23074   1.764   4.212  11.358  0.2229  0.2568 -1.6559
  892MOL0     H23075   1.880   4.109  11.439  1.6741 -0.3409 -0.1656
  892MOL0     H23076   2.841   4.526  11.265 -1.2034 -0.2939  0.8566
  892MOL0     H23077   3.005   4.712  11.299 -0.5765  1.1398  2.2075
  892MOL0     H23078   3.066   5.329  11.107  0.0845  0.5372 -0.6513
  892MOL0     H23079   3.265   5.450  11.124  1.0025 -0.1874 -1.3705
  892MOL0     H23080   3.794   4.774  10.488 -0.5062  1.1813 -0.4428
  892MOL0     H23081   3.720   4.775  10.254 -0.0833 -0.2146  1.0536
  892MOL0     H23082   3.951   4.788   9.837 -0.6102  0.6773  1.9938
  892MOL0     H23083   3.965   4.794   9.596  2.3816  1.7238  0.7963
  892MOL0     H23084   3.736   5.110   9.350 -3.4187 -3.3040  1.1310
  892MOL0     H23085   3.885   5.147   9.438  1.2467 -2.1677  0.7175
  892MOL0     H23086   4.024   5.027   9.273  0.4636  0.7605  0.7376
  892MOL0     H23087   3.932   5.154   9.200 -0.2314  1.0320  1.4563
  892MOL0     H23088   3.920   4.850   9.185  0.7214  0.9983  2.0482
  892MOL0     H23089   3.759   4.931   9.159  0.4592 -2.8623 -1.5232
  892MOL0     H23090   3.979   4.982   8.974 -0.8666  2.3408 -1.0906
  892MOL0     H23091   3.805   5.046   8.986 -2.7851 -0.4142  0.4491
  892MOL0     H23092   3.729   4.644   8.907 -1.3075  1.1196 -0.6911
  892MOL0     H23093   3.678   5.115   9.582  2.0002 -0.1134 -2.4350
  892MOL0     H23094   3.576   5.189   9.757  1.4355  1.6310 -2.2512
  892MOL0     H23095   3.598   5.126   9.928  3.8449  0.3208  2.3542
  892MOL0     H23096   3.713   5.238   9.866 -3.1277  1.0763  0.0176
  893MOL0     O23097   7.955   2.438   1.006  0.1814 -0.5932  0.1986
  893MOL0     C23098   7.912   2.376   1.102 -0.0985 -0.1904 -0.1719
  893MOL0     O23099   7.885   2.423   1.223  0.3127  0.1191  0.1941
  893MOL0     C23100   7.875   2.560   1.231 -0.0122  0.3586  0.7832
  893MOL0     C23101   7.989   2.632   1.221 -0.0374 -0.1216 -0.1379
  893MOL0     C23102   7.979   2.776   1.250  0.5858  0.6548 -0.0579
  893MOL0     C23103   7.858   2.844   1.277 -0.4168  0.2311  0.2478
  893MOL0     O23104   7.859   2.979   1.295  0.3393  0.2791  0.5650
  893MOL0     C23105   7.739   3.034   1.353  0.3386  0.1686  0.8925
  893MOL0     C23106   7.643   3.064   1.232 -0.6992 -0.1720 -0.9158
  893MOL0     C23107   7.508   3.073   1.284  0.8184 -0.0437 -0.9509
  893MOL0     C23108   7.402   3.041   1.174  0.8530 -0.2297  0.2823
  893MOL0     C23109   7.254   3.052   1.220  0.0846  0.8033 -1.4330
  893MOL0     C23110   7.148   2.999   1.118 -0.2278  0.2872 -0.2901
  893MOL0     C23111   7.142   3.100   1.006 -0.5062 -0.6187 -0.1439
  893MOL0     C23112   7.053   3.047   0.885 -0.0829  0.6019  0.6809
  893MOL0     N23113   6.908   3.053   0.901  0.7286 -0.4062  0.8818
  893MOL0     C23114   6.837   3.156   0.844  0.6206 -0.0222 -0.1617
  893MOL0     C23115   6.709   3.118   0.861  0.0381 -0.1391 -0.5656
  893MOL0     C23116   6.599   3.222   0.825  0.2240  0.1399  0.3910
  893MOL0     C23117   6.457   3.197   0.882  0.0696  0.0312 -0.1994
  893MOL0     C23118   6.394   3.059   0.860 -0.1237 -0.2314  0.5341
  893MOL0     C23119   6.384   3.022   0.715 -0.2387 -0.1595  0.6595
  893MOL0     O23120   6.300   2.907   0.698 -0.6939 -0.0716  0.3540
  893MOL0     C23121   6.307   2.865   0.560  0.0071 -0.4191  0.3665
  893MOL0     C23122   6.331   2.942   0.440 -0.3931  0.3726  0.3923
  893MOL0     C23123   6.322   2.879   0.313 -1.0642  0.3974  0.1353
  893MOL0     C23124   6.357   2.961   0.191 -0.1545  0.0972  0.1674
  893MOL0     C23125   6.281   2.742   0.308  0.3906  0.0027  0.0797
  893MOL0     C23126   6.262   2.662   0.178 -0.3938 -0.0541  0.3051
  893MOL0     O23127   6.212   2.532   0.188  0.4681 -0.4337 -0.5545
  893MOL0     C23128   6.203   2.450   0.076 -1.1375  0.6508  0.1013
  893MOL0     C23129   6.233   2.311   0.088 -0.0342  0.2117  0.3688
  893MOL0     C23130   6.208   2.221  -0.016 -0.1035  0.9482 -0.1121
  893MOL0     C23131   6.144   2.261  -0.135 -0.3035 -0.4938  0.9180
  893MOL0     O23132   6.102   2.161  -0.223  0.6972  0.0951  0.6856
  893MOL0     C23133   6.022   2.192  -0.337 -0.5592  0.5408 -0.1324
  893MOL0     C23134   5.998   2.076  -0.438 -0.0990  0.1915  0.4933
  893MOL0     C23135   6.132   2.014  -0.484  0.3344 -0.8231 -0.7696
  893MOL0     C23136   6.119   1.884  -0.553  0.3978 -0.1217  0.3278
  893MOL0     C23137   6.221   1.863  -0.671 -0.0655 -0.1784  0.8638
  893MOL0     C23138   6.186   1.958  -0.796  0.1975 -0.0680 -0.6097
  893MOL0     C23139   6.294   1.948  -0.904  0.3194 -0.2849  0.4167
  893MOL0     C23140   6.270   2.043  -1.015 -0.4968 -0.5796 -0.6444
  893MOL0    Cl23141   6.409   2.008  -1.138  0.3385 -0.0651  0.2514
  893MOL0     C23142   6.118   2.403  -0.149  0.5213 -0.0914 -0.7785
  893MOL0     C23143   6.150   2.497  -0.044  0.2423 -0.1970 -0.3485
  893MOL0     O23144   6.291   2.719   0.076  0.0083 -0.4558  0.9651
  893MOL0     C23145   6.243   2.676   0.427  0.1144  0.6953  0.2174
  893MOL0     C23146   6.252   2.736   0.547 -0.6537  0.1870 -0.5984
  893MOL0     N23147   6.702   2.988   0.915  0.2097 -0.5403 -0.2692
  893MOL0     N23148   6.826   2.955   0.939  0.2597 -0.7718 -0.2042
  893MOL0     C23149   7.750   2.754   1.285 -0.0545 -0.4287 -0.4303
  893MOL0     C23150   7.752   2.623   1.258  0.5005  0.3864  0.5809
  893MOL0     C23151   7.845   2.251   1.069 -0.7074  0.5263  0.3731
  893MOL0     C23152   7.710   2.240   1.101  0.8595 -0.6927  0.1591
  893MOL0     C23153   7.635   2.132   1.066  0.0026  0.1588  0.7300
  893MOL0     C23154   7.685   2.027   0.991 -0.0125  0.0120  0.2241
  893MOL0     O23155   7.601   1.919   0.979  0.9162 -0.5468  0.5455
  893MOL0     C23156   7.637   1.815   0.894  0.7271 -0.0340  0.2020
  893MOL0     C23157   7.544   1.696   0.918  0.0179 -0.2567  0.2320
  893MOL0     C23158   7.528   1.667   1.073  0.0852  0.5941  0.0088
  893MOL0     C23159   7.480   1.531   1.104  0.3150  0.6554  0.0911
  893MOL0     C23160   7.344   1.525   1.162 -0.4033 -0.3320 -0.2316
  893MOL0     C23161   7.230   1.528   1.181  0.4942 -0.1886 -0.6506
  893MOL0     C23162   7.816   2.045   0.942  0.8236  0.7740 -0.1052
  893MOL0     C23163   7.906   2.155   0.983  1.0944  0.2473 -0.5924
  893MOL0     C23164   8.049   2.151   0.933  0.3566  0.7434 -0.7842
  893MOL0     H23165   8.088   2.588   1.210  1.5752  1.7536  4.2548
  893MOL0     H23166   8.068   2.839   1.244  3.0727 -2.1782  2.9935
  893MOL0     H23167   7.752   3.134   1.396  1.9458  0.0609  0.7213
  893MOL0     H23168   7.704   2.970   1.434  1.8131 -0.6345  0.9274
  893MOL0     H23169   7.662   3.162   1.189  0.4275 -0.4337 -1.0349
  893MOL0     H23170   7.648   2.980   1.163 -2.3169 -0.7996 -0.3268
  893MOL0     H23171   7.485   3.013   1.373 -2.3290 -1.8694 -2.7868
  893MOL0     H23172   7.489   3.172   1.327  0.2778 -0.6510  0.2737
  893MOL0     H23173   7.421   3.110   1.091 -1.2627  1.6037  1.2064
  893MOL0     H23174   7.408   2.941   1.130 -2.9007 -0.5900  0.2382
  893MOL0     H23175   7.239   3.153   1.259  2.7398  1.0855 -0.9499
  893MOL0     H23176   7.248   2.981   1.303 -0.1685  0.6204 -1.6036
  893MOL0     H23177   7.160   2.899   1.074  0.5763  0.2622 -0.0380
  893MOL0     H23178   7.049   2.996   1.163  0.5139  1.4026  1.5253
  893MOL0     H23179   7.241   3.131   0.971 -1.7712  2.4468 -1.3593
  893MOL0     H23180   7.105   3.193   1.050  0.5467 -0.5465  0.6290
  893MOL0     H23181   7.088   3.095   0.794  1.0502 -1.7540 -0.2044
  893MOL0     H23182   7.083   2.944   0.863 -1.6312  0.3062 -0.2545
  893MOL0     H23183   6.877   3.251   0.814  0.1943  0.5959  1.1220
  893MOL0     H23184   6.590   3.242   0.718 -3.3011  1.3130  0.7626
  893MOL0     H23185   6.624   3.319   0.869 -1.1407  0.2475  0.9977
  893MOL0     H23186   6.481   3.201   0.988 -1.1325 -1.9264  0.1906
  893MOL0     H23187   6.387   3.278   0.861  1.5858  2.2124  2.5555
  893MOL0     H23188   6.440   2.982   0.922  1.9985  0.6638  0.1693
  893MOL0     H23189   6.296   3.070   0.908  0.3048  2.5594  0.9742
  893MOL0     H23190   6.339   3.101   0.654 -1.3845 -0.3811  1.1787
  893MOL0     H23191   6.490   3.016   0.688 -0.5082  3.2238 -1.7013
  893MOL0     H23192   6.367   3.044   0.445 -0.1510  0.3945 -1.2719
  893MOL0     H23193   6.295   2.954   0.100 -0.9447 -0.4599  0.7329
  893MOL0     H23194   6.453   2.924   0.154 -0.2307 -0.6236  0.6609
  893MOL0     H23195   6.367   3.065   0.222  1.8316 -0.4974  1.6776
  893MOL0     H23196   6.264   2.271   0.184 -3.1554  0.4505  1.5774
  893MOL0     H23197   6.233   2.117   0.003 -0.3966  0.9225  0.1241
  893MOL0     H23198   5.924   2.226  -0.303 -1.0248 -2.0099  1.2647
  893MOL0     H23199   6.068   2.275  -0.393  3.3646  0.8694  3.1250
  893MOL0     H23200   5.936   1.996  -0.395  1.2004  0.2152  2.5425
  893MOL0     H23201   5.949   2.112  -0.529 -2.3950 -2.1518  0.6738
  893MOL0     H23202   6.190   1.988  -0.395  1.6822 -3.1664 -2.2187
  893MOL0     H23203   6.180   2.092  -0.545  0.4529 -0.1469  0.1708
  893MOL0     H23204   6.017   1.874  -0.593  0.5775  2.1776 -0.8617
  893MOL0     H23205   6.126   1.801  -0.482  3.1855  1.1531  1.6480
  893MOL0     H23206   6.321   1.887  -0.633 -0.8499  0.5703  2.5449
  893MOL0     H23207   6.235   1.759  -0.702  0.1076  0.1013 -0.0316
  893MOL0     H23208   6.182   2.061  -0.759  0.7682 -0.3499  0.2768
  893MOL0     H23209   6.087   1.930  -0.834 -0.3631  1.1831 -0.1188
  893MOL0     H23210   6.290   1.847  -0.946 -1.0920 -0.7470  1.5534
  893MOL0     H23211   6.398   1.960  -0.871  0.0422 -0.9576  1.6030
  893MOL0     H23212   6.274   2.143  -0.972 -2.6376 -0.4013 -0.7328
  893MOL0     H23213   6.176   2.035  -1.070  0.3041 -1.6103 -1.9391
  893MOL0     H23214   6.077   2.433  -0.244  1.6255  1.0361 -0.9293
  893MOL0     H23215   6.125   2.602  -0.058 -1.1161  0.1188  3.2045
  893MOL0     H23216   6.216   2.571   0.422  0.7183  0.5912 -3.5796
  893MOL0     H23217   6.218   2.681   0.634 -0.0888  0.0973 -0.4346
  893MOL0     H23218   7.654   2.803   1.293  0.9026  2.0776 -2.6909
  893MOL0     H23219   7.668   2.556   1.269 -0.2722  1.1545 -0.3717
  893MOL0     H23220   7.659   2.314   1.160  0.0180 -1.2076  0.0953
  893MOL0     H23221   7.527   2.122   1.078 -0.0077 -1.4413 -0.3728
  893MOL0     H23222   7.617   1.853   0.793 -1.9232 -2.3677 -0.2827
  893MOL0     H23223   7.738   1.778   0.910 -0.9815 -4.8138  1.6173
  893MOL0     H23224   7.596   1.614   0.867 -0.1977 -1.7442  2.2493
  893MOL0     H23225   7.457   1.716   0.856  3.3320  2.3605 -4.1434
  893MOL0     H23226   7.628   1.678   1.116 -0.9707  2.9423  2.1508
  893MOL0     H23227   7.468   1.749   1.115 -0.9409 -0.5896  0.9054
  893MOL0     H23228   7.543   1.483   1.179 -2.6382 -1.3300  1.5015
  893MOL0     H23229   7.482   1.480   1.007  0.8335  1.8504 -0.5483
  893MOL0     H23230   7.124   1.510   1.179  0.7798 -2.2549 -2.3968
  893MOL0     H23231   7.856   1.968   0.876 -1.8030  0.2251 -1.1675
  893MOL0     H23232   8.126   2.181   1.004  0.1418  0.8405 -0.5910
  893MOL0     H23233   8.065   2.044   0.920  0.6678  0.8564 -1.3488
  893MOL0     H23234   8.055   2.184   0.829 -0.3146 -4.4672 -2.7877
  894MOL0     O23235   8.609   4.968   0.964 -0.8870 -0.0623 -0.1784
  894MOL0     C23236   8.671   4.943   0.862  0.8952 -0.8372  0.3523
  894MOL0     O23237   8.635   4.867   0.768  0.3614  0.6556  0.2956
  894MOL0     C23238   8.508   4.817   0.750  0.3308 -0.0122  0.9919
  894MOL0     C23239   8.401   4.903   0.724  0.6036 -0.0006  0.1355
  894MOL0     C23240   8.280   4.858   0.684 -0.7001 -0.8543  0.2088
  894MOL0     C23241   8.256   4.719   0.670  0.6981 -1.0204  0.3648
  894MOL0     O23242   8.143   4.661   0.621  0.4130 -0.4040 -0.1423
  894MOL0     C23243   8.072   4.589   0.718 -0.8506 -0.4107  0.0267
  894MOL0     C23244   7.943   4.528   0.672 -0.6581 -0.2643 -0.3116
  894MOL0     C23245   7.837   4.530   0.785  0.0351 -0.0335 -0.2442
  894MOL0     C23246   7.696   4.490   0.740 -0.9040  0.6609  0.8279
  894MOL0     C23247   7.575   4.514   0.835 -0.1692 -0.4585  1.0164
  894MOL0     C23248   7.561   4.660   0.902  0.3147 -0.1255  0.8089
  894MOL0     C23249   7.531   4.766   0.795 -0.7438 -0.0185 -0.6851
  894MOL0     C23250   7.508   4.906   0.864  0.0350 -0.3907  0.1490
  894MOL0     N23251   7.378   4.905   0.937 -0.0422  0.1536 -0.0755
  894MOL0     C23252   7.264   4.869   0.876  0.0826  0.2957 -0.2387
  894MOL0     C23253   7.170   4.869   0.971  0.4302 -0.7438  0.0985
  894MOL0     C23254   7.028   4.829   0.949 -0.6251 -0.1073  0.2656
  894MOL0     C23255   6.925   4.923   1.018  0.1432  0.1477 -0.4321
  894MOL0     C23256   6.798   4.862   1.067  0.2373 -0.0678  0.0317
  894MOL0     C23257   6.711   4.783   0.965  0.4395  0.4872 -0.8790
  894MOL0     O23258   6.795   4.681   0.908  0.5709  0.0534  0.0042
  894MOL0     C23259   6.739   4.579   0.831  0.5297 -0.0199  0.3477
  894MOL0     C23260   6.817   4.485   0.757  0.0950 -0.6541  0.0619
  894MOL0     C23261   6.768   4.401   0.652  0.2955  0.9023  0.1941
  894MOL0     C23262   6.849   4.297   0.579  0.2002 -0.2727 -0.5490
  894MOL0     C23263   6.627   4.398   0.641 -0.4530 -0.7035 -0.2376
  894MOL0     C23264   6.556   4.317   0.547 -0.3513  0.5713 -0.2535
  894MOL0     O23265   6.447   4.251   0.593 -0.2540  0.0544 -0.3523
  894MOL0     C23266   6.364   4.194   0.499  0.6269 -0.1896 -0.7187
  894MOL0     C23267   6.300   4.081   0.533 -0.1042  1.2743 -0.3801
  894MOL0     C23268   6.209   4.016   0.461  0.1611  0.4889  0.7904
  894MOL0     C23269   6.177   4.074   0.332  0.4514 -1.0509 -0.0067
  894MOL0     O23270   6.075   4.007   0.262  0.3403 -0.2686  0.1439
  894MOL0     C23271   5.983   4.085   0.177 -0.3018  1.2242 -0.1283
  894MOL0     C23272   5.862   3.998   0.163  0.2172 -0.3646 -1.1416
  894MOL0     C23273   5.745   4.092   0.129  0.3931  0.5490 -0.9691
  894MOL0     C23274   5.599   4.031   0.146 -0.2851  0.0619 -0.4291
  894MOL0     C23275   5.500   4.136   0.103 -0.3645 -0.1930 -0.3855
  894MOL0     C23276   5.487   4.165  -0.056  0.5274  0.1257 -0.5759
  894MOL0     C23277   5.355   4.251  -0.075 -0.1478  0.2320 -0.1925
  894MOL0     C23278   5.226   4.167  -0.079  0.6471  0.0940  1.1440
  894MOL0    Cl23279   5.093   4.269  -0.104  0.0881  0.3597 -0.6054
  894MOL0     C23280   6.233   4.200   0.305 -0.5590 -0.9831  0.4163
  894MOL0     C23281   6.326   4.266   0.386 -0.0898 -0.2509 -0.2806
  894MOL0     O23282   6.594   4.318   0.431  0.1927 -0.7055 -0.0329
  894MOL0     C23283   6.547   4.479   0.718  0.0021 -0.5530  0.0617
  894MOL0     C23284   6.600   4.570   0.810 -0.0216 -0.2288  0.2506
  894MOL0     N23285   7.234   4.897   1.094  0.3323 -0.3996 -0.5854
  894MOL0     N23286   7.361   4.918   1.072  1.3378  0.9442 -0.3060
  894MOL0     C23287   8.369   4.634   0.678  0.2715 -0.4333  0.3861
  894MOL0     C23288   8.495   4.681   0.722 -0.3848  0.2242  0.5058
  894MOL0     C23289   8.793   5.025   0.831  0.0748  0.0169  0.3963
  894MOL0     C23290   8.820   5.041   0.696  0.4836 -0.2463  0.1144
  894MOL0     C23291   8.927   5.117   0.659 -0.3207 -0.2326 -0.1038
  894MOL0     C23292   9.012   5.187   0.750 -0.4310  0.2903 -0.2071
  894MOL0     O23293   9.130   5.252   0.718 -0.3174 -0.3132 -0.2101
  894MOL0     C23294   9.196   5.223   0.598  0.1025  0.6517 -0.4193
  894MOL0     C23295   9.335   5.273   0.598 -0.1236 -1.1424  0.1556
  894MOL0     C23296   9.432   5.203   0.696 -0.0162  0.2206  0.0094
  894MOL0     C23297   9.431   5.053   0.681 -0.4850 -0.6735 -0.3435
  894MOL0     C23298   9.521   4.997   0.787 -0.0881 -0.8595  0.6493
  894MOL0     C23299   9.590   4.938   0.866  0.8642 -0.5058  0.6005
  894MOL0     C23300   8.982   5.169   0.893  0.7075  0.7440  0.0347
  894MOL0     C23301   8.872   5.091   0.937  0.2887  0.2581 -1.1189
  894MOL0     C23302   8.854   5.086   1.088  0.3233  0.5025  0.3061
  894MOL0     H23303   8.417   5.010   0.733  1.3937 -0.2498  2.3035
  894MOL0     H23304   8.199   4.928   0.664 -2.2997 -3.1612 -2.2327
  894MOL0     H23305   8.053   4.660   0.799  0.6884 -1.8857  1.7775
  894MOL0     H23306   8.134   4.508   0.758 -1.9613 -0.5491  1.5555
  894MOL0     H23307   7.914   4.598   0.593  1.1756  0.6659 -0.2104
  894MOL0     H23308   7.976   4.430   0.635  3.1480  1.0828 -1.0247
  894MOL0     H23309   7.870   4.463   0.865  0.9807 -0.4839 -0.9948
  894MOL0     H23310   7.834   4.634   0.820  0.2771 -0.5207  1.3149
  894MOL0     H23311   7.684   4.542   0.644 -0.1787 -1.4636 -0.4858
  894MOL0     H23312   7.692   4.382   0.722 -3.1853  0.3662  2.6831
  894MOL0     H23313   7.592   4.454   0.925 -0.2876  1.0776  2.0940
  894MOL0     H23314   7.476   4.500   0.792 -0.7582  1.5437  1.6145
  894MOL0     H23315   7.475   4.658   0.969 -0.5298  1.8639 -0.1375
  894MOL0     H23316   7.656   4.679   0.954  1.5943  1.3189 -1.8605
  894MOL0     H23317   7.443   4.750   0.731 -1.0091  4.2313 -1.6684
  894MOL0     H23318   7.616   4.762   0.726 -0.6357 -2.6274 -0.5045
  894MOL0     H23319   7.586   4.931   0.936 -0.3169 -1.6951  1.0264
  894MOL0     H23320   7.491   4.987   0.793 -3.0156 -0.1322  1.0385
  894MOL0     H23321   7.242   4.830   0.777 -3.3879 -0.1688  0.6067
  894MOL0     H23322   7.023   4.729   0.992  0.5852 -0.1047  0.4329
  894MOL0     H23323   7.007   4.821   0.842  1.1292  0.6271 -0.1616
  894MOL0     H23324   6.984   4.975   1.095  2.9879  2.3993 -3.8051
  894MOL0     H23325   6.894   5.001   0.947  1.5245  1.3990  0.2686
  894MOL0     H23326   6.817   4.793   1.150 -1.7155 -0.1576  0.4582
  894MOL0     H23327   6.737   4.943   1.108  0.6236  0.3477 -0.2129
  894MOL0     H23328   6.646   4.718   1.024  0.4255  0.7501 -0.6028
  894MOL0     H23329   6.649   4.843   0.898 -2.4702  1.8273  2.7016
  894MOL0     H23330   6.922   4.500   0.776 -0.5004  2.6055  1.3866
  894MOL0     H23331   6.870   4.340   0.481  0.2044  2.0810  0.4111
  894MOL0     H23332   6.793   4.203   0.570 -2.2436  1.2529 -2.2082
  894MOL0     H23333   6.942   4.271   0.632 -0.8690 -3.8825 -0.1847
  894MOL0     H23334   6.315   4.030   0.628 -0.0365  4.0456  1.1983
  894MOL0     H23335   6.169   3.919   0.487 -0.7975 -0.9300 -4.7326
  894MOL0     H23336   5.978   4.184   0.223  3.6848 -0.3752  4.7021
  894MOL0     H23337   6.023   4.095   0.076 -0.0029 -2.6053 -0.5403
  894MOL0     H23338   5.884   3.915   0.096 -0.4765 -1.9640  0.5248
  894MOL0     H23339   5.843   3.952   0.261  0.7733  0.1703 -0.7691
  894MOL0     H23340   5.744   4.126   0.025 -1.9564 -2.2335 -2.0034
  894MOL0     H23341   5.750   4.181   0.193 -1.5709  0.0233 -0.0090
  894MOL0     H23342   5.580   3.985   0.243 -0.9281 -2.1232 -1.4999
  894MOL0     H23343   5.600   3.939   0.086  5.7718  0.7454 -1.9815
  894MOL0     H23344   5.414   4.091   0.154 -0.2933  2.1167  1.9731
  894MOL0     H23345   5.521   4.231   0.153  1.6570 -1.3565  1.0661
  894MOL0     H23346   5.490   4.075  -0.117 -1.0487 -1.5966  1.7071
  894MOL0     H23347   5.579   4.217  -0.085  1.3248 -1.3514 -0.7516
  894MOL0     H23348   5.368   4.312  -0.165  0.8916  1.1202  0.5210
  894MOL0     H23349   5.342   4.309   0.017 -1.1653  0.3210 -0.3869
  894MOL0     H23350   5.204   4.104   0.008 -3.0610 -2.6936 -1.4887
  894MOL0     H23351   5.229   4.105  -0.169 -0.4864  1.6363 -0.0092
  894MOL0     H23352   6.193   4.262   0.226 -0.2011 -2.8029 -1.2639
  894MOL0     H23353   6.381   4.354   0.356  0.1834  0.6506  2.5956
  894MOL0     H23354   6.439   4.480   0.715 -0.0233 -0.5806  0.8147
  894MOL0     H23355   6.531   4.634   0.863 -1.0305  0.8770 -2.2592
  894MOL0     H23356   8.360   4.528   0.657  2.2958 -0.7086  0.7605
  894MOL0     H23357   8.576   4.610   0.732  1.5448  2.0219 -1.1468
  894MOL0     H23358   8.764   4.999   0.613  1.2046 -0.2795 -0.3604
  894MOL0     H23359   8.943   5.127   0.552 -0.9015 -2.3729 -0.4302
  894MOL0     H23360   9.196   5.115   0.579  1.5236  1.0531 -3.3324
  894MOL0     H23361   9.138   5.264   0.515 -1.9166 -1.9018 -0.4007
  894MOL0     H23362   9.338   5.379   0.627  0.5732 -1.3171  0.7612
  894MOL0     H23363   9.366   5.258   0.494 -1.6751 -0.9554 -0.3557
  894MOL0     H23364   9.537   5.233   0.691 -0.0938  0.8414  1.5667
  894MOL0     H23365   9.399   5.232   0.796  0.9485 -0.1200  0.4346
  894MOL0     H23366   9.472   5.021   0.586  2.3371  0.3889  0.4191
  894MOL0     H23367   9.338   4.997   0.697  0.5692 -2.2689  0.3522
  894MOL0     H23368   9.618   4.889   0.957 -0.0717 -1.0771  0.5915
  894MOL0     H23369   9.048   5.221   0.961 -1.5241  3.6917  0.1483
  894MOL0     H23370   8.953   5.117   1.121  0.8603 -1.1009  0.3113
  894MOL0     H23371   8.781   5.159   1.122  0.5010  1.6156 -1.5584
  894MOL0     H23372   8.842   4.985   1.130  1.5053  0.0123 -0.4873
  895MOL0     O23373   3.692   0.205  10.600  0.3774  0.3889  0.9561
  895MOL0     C23374   3.668   0.321  10.587 -0.3199 -0.1903 -0.2202
  895MOL0     O23375   3.606   0.371  10.485  0.1369 -0.3433  0.1246
  895MOL0     C23376   3.545   0.303  10.377  0.6015 -0.6283 -0.5900
  895MOL0     C23377   3.599   0.294  10.252 -0.0331  0.2416 -0.7618
  895MOL0     C23378   3.545   0.229  10.144  0.2230 -0.2908 -0.5328
  895MOL0     C23379   3.419   0.169  10.160 -0.5527  0.0483  0.5181
  895MOL0     O23380   3.379   0.105  10.044  0.2861  0.9037 -0.0956
  895MOL0     C23381   3.239   0.073  10.035  0.5839 -0.4727 -0.5604
  895MOL0     C23382   3.202   0.073   9.889 -0.8941 -0.3994  0.3550
  895MOL0     C23383   3.054   0.037   9.873  1.0630 -0.2123 -0.6093
  895MOL0     C23384   2.974   0.159   9.894 -0.8596 -0.0677 -0.1889
  895MOL0     C23385   2.828   0.128   9.910  0.9594  1.4632  0.3265
  895MOL0     C23386   2.739   0.254   9.928 -0.0907  0.3060 -0.4681
  895MOL0     C23387   2.590   0.211   9.893 -0.6114 -0.4001 -0.1207
  895MOL0     C23388   2.506   0.333   9.854 -0.1932 -0.5459  0.9676
  895MOL0     N23389   2.497   0.429   9.966  0.6861 -0.5178  0.2401
  895MOL0     C23390   2.565   0.548   9.971 -0.3388 -0.4201 -0.1088
  895MOL0     C23391   2.528   0.597  10.096 -0.2046 -0.3830  0.4326
  895MOL0     C23392   2.565   0.725  10.157 -0.2111  0.5460 -0.0254
  895MOL0     C23393   2.583   0.708  10.307 -0.2341 -0.4574 -0.5621
  895MOL0     C23394   2.613   0.842  10.380 -0.3768 -0.8450  0.1654
  895MOL0     C23395   2.751   0.902  10.345 -0.3604 -0.8349  0.5585
  895MOL0     O23396   2.739   0.994  10.234  0.2987 -0.3152  0.1358
  895MOL0     C23397   2.836   0.990  10.137 -0.0254  0.2907 -0.3575
  895MOL0     C23398   2.972   1.002  10.173  0.0816  0.0549  0.2420
  895MOL0     C23399   3.076   0.992  10.089 -0.2775 -0.4219  0.0506
  895MOL0     C23400   3.213   1.022  10.140 -0.6429 -0.1563  0.9292
  895MOL0     C23401   3.039   0.991   9.946  1.3679  0.0413 -0.0931
  895MOL0     C23402   3.125   1.001   9.835  0.2921 -0.5972 -0.0309
  895MOL0     O23403   3.231   1.087   9.855 -0.0463 -0.2577 -0.3993
  895MOL0     C23404   3.333   1.101   9.768 -0.4313  0.1043 -0.2492
  895MOL0     C23405   3.380   1.229   9.734  0.5214  0.2029 -0.5735
  895MOL0     C23406   3.497   1.257   9.657 -0.2341 -0.2981 -0.8753
  895MOL0     C23407   3.578   1.152   9.607  0.0015 -0.1309 -0.2271
  895MOL0     O23408   3.688   1.183   9.534 -0.0450 -0.5818  0.2158
  895MOL0     C23409   3.766   1.074   9.465 -0.4651 -0.1796  0.7985
  895MOL0     C23410   3.847   1.119   9.341  0.2747  0.0318 -0.2602
  895MOL0     C23411   3.760   1.168   9.226  0.0127 -0.1256  1.0133
  895MOL0     C23412   3.852   1.221   9.119 -0.0720  0.7973  1.1428
  895MOL0     C23413   3.753   1.264   9.010  0.6657  0.0706 -0.3966
  895MOL0     C23414   3.812   1.260   8.862 -0.1791 -0.0181 -0.1651
  895MOL0     C23415   3.947   1.330   8.857  0.6357  0.2454 -0.2019
  895MOL0     C23416   3.989   1.346   8.716 -0.4774  0.4786 -1.2618
  895MOL0    Cl23417   4.036   1.185   8.660 -0.0041 -0.1185 -0.5443
  895MOL0     C23418   3.534   1.025   9.646  0.4980  0.0096 -0.0813
  895MOL0     C23419   3.417   1.001   9.714  0.3508  1.0250 -0.0944
  895MOL0     O23420   3.116   0.925   9.743 -0.0284  0.0805  0.1446
  895MOL0     C23421   2.900   0.973   9.901 -0.2657 -0.1489  0.0228
  895MOL0     C23422   2.797   0.976  10.002  0.5450  0.5367 -0.0603
  895MOL0     N23423   2.429   0.509  10.151  0.0948  0.3470  0.7575
  895MOL0     N23424   2.419   0.409  10.073 -0.2777  0.4330  0.0028
  895MOL0     C23425   3.371   0.151  10.287  0.6657 -0.9237 -0.9097
  895MOL0     C23426   3.424   0.225  10.395 -1.3573 -0.1225  0.0801
  895MOL0     C23427   3.698   0.422  10.702 -0.2955  1.1213 -0.7403
  895MOL0     C23428   3.619   0.542  10.704 -0.5972  0.3976 -0.6589
  895MOL0     C23429   3.644   0.642  10.791 -0.8282 -0.1087 -0.6153
  895MOL0     C23430   3.746   0.621  10.886 -0.4723 -0.0288  0.2589
  895MOL0     O23431   3.773   0.712  10.989  0.1249  0.0284 -0.7125
  895MOL0     C23432   3.833   0.834  10.933 -0.0392  0.9924 -0.3558
  895MOL0     C23433   3.961   0.858  11.007  0.2360  0.1677 -0.0601
  895MOL0     C23434   3.984   0.998  10.981 -0.1126  0.0431 -0.4530
  895MOL0     C23435   4.108   1.050  11.075  0.8645  0.4361  1.1395
  895MOL0     C23436   4.145   1.189  11.045  0.1056 -0.1100 -0.3925
  895MOL0     C23437   4.160   1.307  11.030  0.1367  0.0617 -0.1055
  895MOL0     C23438   3.823   0.504  10.892 -1.2680  0.1694 -0.4733
  895MOL0     C23439   3.803   0.402  10.799 -0.0627  0.4786  1.1200
  895MOL0     C23440   3.888   0.277  10.803 -1.0260 -0.9912 -0.8657
  895MOL0     H23441   3.698   0.336  10.239  1.3342 -2.9598 -1.6135
  895MOL0     H23442   3.593   0.245  10.048  0.3284  0.3221 -0.3851
  895MOL0     H23443   3.178   0.145  10.090 -0.3089 -1.5236 -0.1388
  895MOL0     H23444   3.210  -0.023  10.076 -0.4479 -0.2872 -0.8371
  895MOL0     H23445   3.237   0.166   9.842 -0.1924  0.0106  1.6410
  895MOL0     H23446   3.260  -0.007   9.843 -2.3514 -1.3536  0.1171
  895MOL0     H23447   3.036  -0.003   9.773 -1.7166 -0.2557 -0.1893
  895MOL0     H23448   3.020  -0.034   9.949 -3.0749  2.5330  0.4826
  895MOL0     H23449   3.015   0.209   9.983 -1.4294  0.4364 -0.1988
  895MOL0     H23450   2.992   0.225   9.809  1.7994 -0.2651  0.1255
  895MOL0     H23451   2.812   0.052   9.987 -0.0329  2.8542  1.5493
  895MOL0     H23452   2.795   0.093   9.812 -1.7788  2.3741  0.8410
  895MOL0     H23453   2.745   0.307  10.024  0.5708  0.4508 -0.5849
  895MOL0     H23454   2.773   0.333   9.860  1.4443  0.6133  0.6165
  895MOL0     H23455   2.542   0.169   9.982 -0.7177 -0.5266 -0.2368
  895MOL0     H23456   2.581   0.135   9.814  0.0108 -0.1535 -0.4308
  895MOL0     H23457   2.557   0.382   9.770 -3.9434  0.5935 -0.8455
  895MOL0     H23458   2.414   0.299   9.805  0.4577 -1.7828  0.5540
  895MOL0     H23459   2.628   0.604   9.903  4.2392 -1.3320  2.9774
  895MOL0     H23460   2.484   0.793  10.127 -1.9484 -2.0719 -1.6686
  895MOL0     H23461   2.658   0.761  10.112  2.1091 -1.2425  2.9470
  895MOL0     H23462   2.484   0.691  10.352  0.0343 -0.2268  0.1353
  895MOL0     H23463   2.649   0.626  10.337 -0.0187 -0.1082 -0.0534
  895MOL0     H23464   2.529   0.912  10.373  1.1662  1.1050  0.0749
  895MOL0     H23465   2.621   0.799  10.481 -2.3112 -2.3878 -0.2915
  895MOL0     H23466   2.784   0.973  10.422  1.6845 -0.4827 -0.5814
  895MOL0     H23467   2.831   0.827  10.338 -0.5233 -0.8112 -3.0273
  895MOL0     H23468   2.989   1.000  10.280  0.5346 -1.9020  0.1756
  895MOL0     H23469   3.283   0.948  10.099  2.7404  2.1537  2.0873
  895MOL0     H23470   3.213   1.015  10.250  3.2079 -3.5993  0.9646
  895MOL0     H23471   3.249   1.119  10.106  0.9205 -1.3314 -0.9808
  895MOL0     H23472   3.319   1.309   9.776 -1.7038 -0.7844 -1.7410
  895MOL0     H23473   3.497   1.358   9.618  0.3935  0.8942  1.9614
  895MOL0     H23474   3.841   1.027   9.529 -0.4859 -1.9708 -0.3991
  895MOL0     H23475   3.694   0.998   9.433 -1.1079  1.3242 -1.5613
  895MOL0     H23476   3.911   1.205   9.367 -0.1719 -0.0853  1.3117
  895MOL0     H23477   3.909   1.040   9.299 -0.5027  0.2396 -1.8465
  895MOL0     H23478   3.693   1.246   9.266  0.9485 -0.0675  2.5630
  895MOL0     H23479   3.702   1.085   9.185 -2.0245  1.2031  1.0376
  895MOL0     H23480   3.919   1.144   9.079  0.8470  2.3965 -0.5136
  895MOL0     H23481   3.920   1.292   9.168  0.0385 -0.6561  3.2400
  895MOL0     H23482   3.663   1.202   9.001 -0.4182  1.8659 -3.3299
  895MOL0     H23483   3.732   1.368   9.035  0.6662 -0.1738  0.6767
  895MOL0     H23484   3.731   1.303   8.802 -1.1919 -0.4410  0.8673
  895MOL0     H23485   3.833   1.154   8.843  3.3399 -0.1368  3.1761
  895MOL0     H23486   4.016   1.265   8.912  0.7007  0.1233 -0.4288
  895MOL0     H23487   3.932   1.432   8.894  0.9256  1.4580 -3.1849
  895MOL0     H23488   4.078   1.410   8.721  2.7212 -3.5912  1.6986
  895MOL0     H23489   3.916   1.384   8.644 -0.8519  0.9734 -0.6315
  895MOL0     H23490   3.590   0.937   9.615  0.2254  0.8021 -3.1674
  895MOL0     H23491   3.379   0.900   9.721 -1.1880  1.6682  1.7214
  895MOL0     H23492   2.879   0.980   9.795 -0.9271  0.5593  0.1967
  895MOL0     H23493   2.694   0.974   9.967  0.6795 -1.7068 -0.5066
  895MOL0     H23494   3.287   0.083  10.290  2.1589 -2.8775  2.0043
  895MOL0     H23495   3.388   0.219  10.497 -1.0578 -0.7167  0.1584
  895MOL0     H23496   3.539   0.547  10.630  0.3703  2.0993 -1.6564
  895MOL0     H23497   3.584   0.733  10.795  0.0375  0.4798 -0.8903
  895MOL0     H23498   3.866   0.824  10.829  1.5289  0.3666  0.1574
  895MOL0     H23499   3.756   0.911  10.936 -3.2937 -1.9706 -1.6733
  895MOL0     H23500   4.045   0.798  10.970  0.9073 -1.0409  3.1589
  895MOL0     H23501   3.955   0.839  11.114 -0.2481  0.2068 -0.0757
  895MOL0     H23502   4.002   1.007  10.873 -0.7973  0.4796 -0.5393
  895MOL0     H23503   3.898   1.064  10.993 -2.0197 -1.8701 -2.6116
  895MOL0     H23504   4.202   0.996  11.062 -0.0772 -0.9544 -0.1924
  895MOL0     H23505   4.079   1.048  11.181 -1.7236 -0.0904  0.4955
  895MOL0     H23506   4.185   1.411  11.026 -1.5157  0.5274  0.6579
  895MOL0     H23507   3.902   0.485  10.964 -2.4827  1.5056  1.3150
  895MOL0     H23508   3.829   0.185  10.794  0.7896 -2.2884 -0.0563
  895MOL0     H23509   3.953   0.292  10.716 -1.6459 -0.7808 -1.3043
  895MOL0     H23510   3.944   0.268  10.896  0.9525 -3.8122 -2.1783
  896MOL0     O23511   3.913  10.861   5.416 -0.0311  0.2613 -0.1325
  896MOL0     C23512   4.008  10.790   5.447 -0.2250 -0.2638 -0.4938
  896MOL0     O23513   4.121  10.838   5.517  0.3817 -0.0207 -0.7994
  896MOL0     C23514   4.117  10.970   5.562 -0.5155 -0.3247  0.0786
  896MOL0     C23515   4.129  11.080   5.474  0.0426 -0.1079  0.5910
  896MOL0     C23516   4.137  11.214   5.526 -0.3597 -0.2548 -0.3566
  896MOL0     C23517   4.120  11.236   5.659  0.4285 -1.0365 -0.5840
  896MOL0     O23518   4.092  11.362   5.711 -0.1675 -0.2857 -0.1661
  896MOL0     C23519   4.081  11.472   5.619 -0.2907  0.4377  0.4446
  896MOL0     C23520   4.030  11.603   5.685  0.2308  0.8724  0.1014
  896MOL0     C23521   4.123  11.674   5.793 -0.5104 -0.0166  0.6459
  896MOL0     C23522   4.064  11.792   5.855  0.0552  0.4427  0.1032
  896MOL0     C23523   3.946  11.763   5.956 -0.7068  0.1545  0.0168
  896MOL0     C23524   3.876  11.899   5.989  0.4774  0.4403  0.0858
  896MOL0     C23525   3.777  11.885   6.101  0.1422 -0.1774 -0.5839
  896MOL0     C23526   3.702  12.024   6.128 -1.4921  0.0986 -0.2418
  896MOL0     N23527   3.597  12.001   6.229  0.2738  0.6100 -0.5032
  896MOL0     C23528   3.464  11.969   6.209  0.8353 -0.0010  0.5858
  896MOL0     C23529   3.404  11.979   6.331 -0.8232 -0.3720  0.3052
  896MOL0     C23530   3.260  11.958   6.341  0.8656  0.0203  0.6858
  896MOL0     C23531   3.227  11.810   6.346 -0.5966  1.2803 -0.4000
  896MOL0     C23532   3.087  11.793   6.386  0.0206  0.4901 -0.1149
  896MOL0     C23533   2.995  11.794   6.254 -0.3947  0.1455  0.1973
  896MOL0     O23534   2.861  11.730   6.276 -0.2253 -0.6269 -1.1040
  896MOL0     C23535   2.822  11.600   6.261 -0.8051 -0.0871 -0.1471
  896MOL0     C23536   2.688  11.568   6.291 -0.6822 -0.1309  0.6714
  896MOL0     C23537   2.644  11.439   6.276  0.4795 -0.0039 -0.5437
  896MOL0     C23538   2.492  11.420   6.267 -1.0979 -0.3791  0.2288
  896MOL0     C23539   2.735  11.329   6.252 -0.6447  0.1655  0.0566
  896MOL0     C23540   2.698  11.187   6.229  0.5002  0.8879  0.2919
  896MOL0     O23541   2.807  11.110   6.179  0.0031 -1.1477 -0.2587
  896MOL0     C23542   2.795  10.980   6.141 -0.0069 -0.2650 -0.5144
  896MOL0     C23543   2.802  10.885   6.247 -1.1512  0.3752 -0.8038
  896MOL0     C23544   2.822  10.748   6.218  0.1548  0.1599 -0.0258
  896MOL0     C23545   2.819  10.714   6.078  1.2480  0.1301  0.0701
  896MOL0     O23546   2.832  10.584   6.044 -0.6888  0.0319 -0.1139
  896MOL0     C23547   2.717  10.495   6.066 -0.1033 -0.2084  0.2046
  896MOL0     C23548   2.729  10.403   6.179 -0.3438  0.1249 -0.3023
  896MOL0     C23549   2.846  10.311   6.158 -0.5726  0.5605  0.4472
  896MOL0     C23550   2.843  10.196   6.254  0.7131 -0.3473  0.3567
  896MOL0     C23551   2.939  10.083   6.226 -0.7959 -0.0607  0.6172
  896MOL0     C23552   2.912  10.012   6.102 -0.2260  0.2349 -0.2369
  896MOL0     C23553   2.989   9.874   6.101 -0.5709 -0.7288  0.1851
  896MOL0     C23554   3.036   9.837   5.955  0.4170  1.2460 -0.3023
  896MOL0    Cl23555   2.898   9.806   5.841 -0.8699 -0.0351  0.4454
  896MOL0     C23556   2.809  10.813   5.979  0.7637  0.0572  0.1283
  896MOL0     C23557   2.799  10.941   6.014 -0.9124 -0.2016  0.8830
  896MOL0     O23558   2.589  11.135   6.260  0.0378  0.1040 -0.6629
  896MOL0     C23559   2.875  11.368   6.236 -0.0321 -0.3918  0.6539
  896MOL0     C23560   2.914  11.503   6.231  0.6852  0.1962 -0.3748
  896MOL0     N23561   3.511  11.983   6.424 -0.3291 -0.7506 -0.2111
  896MOL0     N23562   3.618  12.003   6.364 -0.3724  0.5363 -0.0397
  896MOL0     C23563   4.104  11.131   5.748  0.8175  0.0460 -0.5239
  896MOL0     C23564   4.103  10.995   5.702  0.5909 -0.5208  1.5220
  896MOL0     C23565   3.999  10.651   5.389 -0.0711  0.2209  0.1049
  896MOL0     C23566   4.107  10.563   5.437  0.2363  0.3548 -0.1718
  896MOL0     C23567   4.108  10.426   5.394  0.0882 -1.1122 -1.0960
  896MOL0     C23568   4.011  10.373   5.317 -0.1892 -0.0951  0.6771
  896MOL0     O23569   4.020  10.239   5.293  0.0162  0.2405  0.1930
  896MOL0     C23570   3.924  10.178   5.206  1.4957 -1.4774 -0.3547
  896MOL0     C23571   3.967  10.036   5.200 -0.2018  0.8498  0.1017
  896MOL0     C23572   3.895   9.964   5.084  0.2010  0.1149 -0.9650
  896MOL0     C23573   3.787   9.868   5.144 -0.4557  0.3629  0.0188
  896MOL0     C23574   3.694   9.831   5.033 -0.7699 -0.1249 -0.1565
  896MOL0     C23575   3.602   9.811   4.961  0.1180  0.1690  0.6094
  896MOL0     C23576   3.912  10.462   5.263  0.5434  0.2691  0.0078
  896MOL0     C23577   3.898  10.593   5.303  0.1832  0.4277  0.6519
  896MOL0     C23578   3.781  10.667   5.239  0.3064 -0.3748 -0.3164
  896MOL0     H23579   4.142  11.064   5.368 -1.5341 -1.8194  0.6232
  896MOL0     H23580   4.146  11.295   5.454 -2.0287  2.4572  2.2572
  896MOL0     H23581   4.010  11.443   5.541  2.5769 -3.9662 -0.9044
  896MOL0     H23582   4.178  11.488   5.570 -0.1398 -0.8563  0.2988
  896MOL0     H23583   3.997  11.668   5.603  0.6878  2.1970  0.9437
  896MOL0     H23584   3.935  11.573   5.730 -0.3501  0.7483 -1.1554
  896MOL0     H23585   4.127  11.599   5.873 -2.4223  1.1857  1.9681
  896MOL0     H23586   4.225  11.692   5.759 -0.6256 -1.5728 -0.6593
  896MOL0     H23587   4.142  11.849   5.906  1.4208  0.2907 -1.7203
  896MOL0     H23588   4.030  11.855   5.772  1.0037 -0.3351 -0.9066
  896MOL0     H23589   3.971  11.713   6.050 -1.1519  3.8154  2.2764
  896MOL0     H23590   3.874  11.700   5.903  2.1310  0.0999 -4.2776
  896MOL0     H23591   3.953  11.972   6.016  0.4009  1.7291 -2.8003
  896MOL0     H23592   3.832  11.925   5.893 -1.5457 -3.2463 -0.1836
  896MOL0     H23593   3.822  11.843   6.191 -1.6905  0.1132  0.5240
  896MOL0     H23594   3.705  11.808   6.071 -1.4587  0.1503  2.1294
  896MOL0     H23595   3.767  12.104   6.165 -2.4789  0.9986 -0.4151
  896MOL0     H23596   3.657  12.061   6.035 -1.0829  3.0037  0.6245
  896MOL0     H23597   3.414  11.978   6.113  3.7489 -1.7957 -1.2452
  896MOL0     H23598   3.210  12.003   6.255  2.4593 -0.5367 -0.5628
  896MOL0     H23599   3.216  12.008   6.428  2.1966  0.3393  1.2076
  896MOL0     H23600   3.251  11.764   6.249 -1.8407  0.9575 -0.5719
  896MOL0     H23601   3.289  11.752   6.415  0.6145  0.5312 -2.0448
  896MOL0     H23602   3.072  11.695   6.433 -1.1313  0.5825 -0.2407
  896MOL0     H23603   3.049  11.862   6.462 -3.8468 -2.8987  1.4817
  896MOL0     H23604   2.996  11.898   6.221  1.5784  0.0152 -0.2891
  896MOL0     H23605   3.060  11.742   6.183  2.8620  2.1913  1.4536
  896MOL0     H23606   2.617  11.648   6.309 -0.2175  1.3421 -3.0486
  896MOL0     H23607   2.438  11.500   6.320 -1.9454 -0.5036 -0.4178
  896MOL0     H23608   2.454  11.331   6.318 -0.0107 -0.8499  0.2267
  896MOL0     H23609   2.471  11.428   6.160  0.0083  1.3117  0.1074
  896MOL0     H23610   2.800  10.916   6.351 -0.5705  2.4876 -1.3815
  896MOL0     H23611   2.837  10.674   6.296  1.7510  1.0213  0.5167
  896MOL0     H23612   2.625  10.553   6.079 -0.3812 -1.0261  2.2343
  896MOL0     H23613   2.699  10.429   5.980 -1.1030 -2.4787  2.0489
  896MOL0     H23614   2.733  10.459   6.273 -1.3872  0.3683 -0.3912
  896MOL0     H23615   2.632  10.352   6.182 -1.0528  1.2382 -2.4236
  896MOL0     H23616   2.940  10.362   6.180  0.1372 -0.7523  0.5621
  896MOL0     H23617   2.859  10.291   6.051  4.2611  2.1713  0.5055
  896MOL0     H23618   2.747  10.144   6.254  0.5748 -0.1231 -0.9983
  896MOL0     H23619   2.854  10.235   6.355  1.7308 -2.0803  0.9571
  896MOL0     H23620   3.044  10.108   6.245  0.2079 -4.2106  1.5913
  896MOL0     H23621   2.925  10.009   6.305 -0.2940 -0.6197  0.1914
  896MOL0     H23622   2.950  10.082   6.027 -1.4335 -0.1433 -1.2478
  896MOL0     H23623   2.807   9.984   6.091  0.1445 -1.0127 -0.8742
  896MOL0     H23624   2.929   9.788   6.131  0.2737 -1.7459 -0.9386
  896MOL0     H23625   3.070   9.883   6.174 -0.1039 -3.2411  0.0577
  896MOL0     H23626   3.097   9.747   5.965 -3.2371 -1.2529  1.5735
  896MOL0     H23627   3.092   9.923   5.914 -4.7011  5.7015  0.8915
  896MOL0     H23628   2.808  10.785   5.874 -0.7078  1.2113 -0.2018
  896MOL0     H23629   2.793  11.012   5.931 -2.1106 -2.7554 -1.3900
  896MOL0     H23630   2.942  11.293   6.196 -2.2489 -2.5270  0.6998
  896MOL0     H23631   3.018  11.526   6.208  0.1798 -0.1613 -3.3499
  896MOL0     H23632   4.082  11.136   5.854  0.5464  1.3562 -0.6180
  896MOL0     H23633   4.071  10.914   5.766 -1.2600 -0.8236  0.2707
  896MOL0     H23634   4.162  10.596   5.524 -1.0961  1.1594  0.4020
  896MOL0     H23635   4.174  10.352   5.439  1.3865  0.7385  0.1590
  896MOL0     H23636   3.826  10.192   5.254  2.3952  2.8756  0.6959
  896MOL0     H23637   3.920  10.224   5.107  2.1860 -2.4939 -0.8709
  896MOL0     H23638   3.970  10.000   5.303  5.2321  1.1690  0.3224
  896MOL0     H23639   4.071  10.040   5.169 -0.8320  1.2044 -2.1413
  896MOL0     H23640   3.855  10.047   5.024  4.1133  2.4699 -0.6744
  896MOL0     H23641   3.976   9.917   5.026  0.2333  0.9906 -1.6607
  896MOL0     H23642   3.730   9.915   5.224 -3.2610  2.1485 -2.8221
  896MOL0     H23643   3.842   9.786   5.191 -0.7106 -0.9616 -1.8945
  896MOL0     H23644   3.519   9.810   4.894  1.6431 -0.3424 -1.3525
  896MOL0     H23645   3.840  10.421   5.193  1.8348 -2.2814  0.0523
  896MOL0     H23646   3.721  10.592   5.186 -3.0794  2.6754 -1.2303
  896MOL0     H23647   3.716  10.713   5.314  0.2378 -3.0200  1.3671
  896MOL0     H23648   3.826  10.739   5.171  1.0741 -0.2849  0.2805
  897MOL0     O23649   7.432   4.080   2.972  0.3597 -0.9777  0.3953
  897MOL0     C23650   7.463   4.197   3.004 -1.4527 -0.0994 -0.7061
  897MOL0     O23651   7.593   4.243   3.000  0.3969  0.3827  1.1819
  897MOL0     C23652   7.692   4.154   3.008  0.2547  0.1853  0.7227
  897MOL0     C23653   7.718   4.096   3.129 -0.0101  0.0289  0.2826
  897MOL0     C23654   7.842   4.019   3.137  0.0346 -0.7354 -1.1597
  897MOL0     C23655   7.922   3.999   3.029 -0.7471 -0.6301  0.4935
  897MOL0     O23656   8.030   3.921   3.015 -0.1429  0.2758  0.3504
  897MOL0     C23657   8.026   3.786   3.067  0.1298 -0.3251  0.2396
  897MOL0     C23658   8.148   3.719   3.011  0.0721  1.0770 -0.1145
  897MOL0     C23659   8.274   3.760   3.089  1.1237  0.0674  0.2374
  897MOL0     C23660   8.396   3.688   3.027 -0.7046 -0.1577 -0.8180
  897MOL0     C23661   8.533   3.724   3.088  0.2094 -0.4281 -0.3782
  897MOL0     C23662   8.649   3.659   3.005  0.7249  1.4241 -0.2280
  897MOL0     C23663   8.789   3.700   3.065  0.5975 -0.2558 -0.0051
  897MOL0     C23664   8.826   3.852   3.094 -0.1289 -1.0132  0.7993
  897MOL0     N23665   8.806   3.940   2.979  0.7527  0.4085 -0.2492
  897MOL0     C23666   8.719   4.049   2.970 -0.7725  1.5662 -0.8460
  897MOL0     C23667   8.728   4.112   2.850 -1.2498 -0.5272 -0.9400
  897MOL0     C23668   8.626   4.206   2.807 -0.3637 -0.1955 -0.8099
  897MOL0     C23669   8.522   4.139   2.718 -0.3893 -0.1008 -0.0618
  897MOL0     C23670   8.408   4.088   2.796  0.0052  0.0739 -0.9792
  897MOL0     C23671   8.301   4.025   2.714  0.4755  0.1261 -0.7732
  897MOL0     O23672   8.255   4.130   2.625 -0.0112  0.0557  0.2037
  897MOL0     C23673   8.167   4.093   2.530 -0.8407  0.2208 -0.9471
  897MOL0     C23674   8.123   3.960   2.495 -0.4937 -0.3012 -1.1006
  897MOL0     C23675   8.058   3.928   2.381 -0.3801 -0.4304  0.0069
  897MOL0     C23676   8.013   3.785   2.352  0.1044  0.1588  0.2659
  897MOL0     C23677   8.006   4.042   2.298 -0.0823 -1.1985  0.2866
  897MOL0     C23678   7.931   4.033   2.169 -0.0445 -0.6326 -0.3226
  897MOL0     O23679   7.928   4.150   2.100  0.0463 -0.3978  0.2339
  897MOL0     C23680   7.870   4.168   1.978 -0.3016 -1.0132  0.9817
  897MOL0     C23681   7.777   4.092   1.912  0.0793  0.5027  0.8744
  897MOL0     C23682   7.739   4.126   1.777  0.4208 -0.0567 -0.5316
  897MOL0     C23683   7.794   4.233   1.715  0.4294 -0.2495 -0.2396
  897MOL0     O23684   7.749   4.247   1.582  0.5218 -0.2448 -0.3291
  897MOL0     C23685   7.818   4.314   1.478  0.5887 -1.2565  0.0761
  897MOL0     C23686   7.723   4.328   1.358  0.1788  0.3236 -0.3795
  897MOL0     C23687   7.603   4.414   1.391  0.4932  0.4316 -0.8114
  897MOL0     C23688   7.469   4.341   1.412 -0.8468 -0.6465  0.0264
  897MOL0     C23689   7.361   4.447   1.395  0.1202 -0.6768  0.8350
  897MOL0     C23690   7.313   4.460   1.257  0.8782  0.5159  0.4976
  897MOL0     C23691   7.222   4.340   1.222 -0.7109  0.3296 -0.3136
  897MOL0     C23692   7.149   4.372   1.093  0.0706  0.7668 -0.3147
  897MOL0    Cl23693   7.252   4.429   0.954  0.6738  0.2276 -0.1751
  897MOL0     C23694   7.885   4.315   1.786 -0.5158  0.8208 -0.5313
  897MOL0     C23695   7.916   4.289   1.915 -0.0435  0.2023 -0.5493
  897MOL0     O23696   7.876   3.930   2.133  0.8523 -1.1127 -0.2226
  897MOL0     C23697   8.047   4.177   2.338  1.2519 -0.8821 -0.2618
  897MOL0     C23698   8.129   4.201   2.446 -0.1556 -0.2226 -0.1343
  897MOL0     N23699   8.835   4.059   2.785 -0.9813 -0.6637 -0.3873
  897MOL0     N23700   8.887   3.967   2.868  0.4284  0.0129  0.0731
  897MOL0     C23701   7.893   4.067   2.905  0.9925  1.4014 -0.1959
  897MOL0     C23702   7.776   4.143   2.894 -0.3793  0.3062  0.8544
  897MOL0     C23703   7.366   4.314   2.993  0.6473  0.3242 -0.5611
  897MOL0     C23704   7.411   4.430   2.928  0.2295 -0.0029 -0.3281
  897MOL0     C23705   7.341   4.553   2.923 -0.4392 -0.1608  0.4471
  897MOL0     C23706   7.214   4.561   2.970 -0.7434  0.0934  0.3370
  897MOL0     O23707   7.139   4.676   2.951  0.5365  0.1314 -0.5084
  897MOL0     C23708   7.025   4.705   3.036  0.2900 -0.1201 -0.4653
  897MOL0     C23709   7.061   4.717   3.187 -0.2821  0.1019  0.7183
  897MOL0     C23710   7.158   4.832   3.208  0.1498  0.6200  0.0504
  897MOL0     C23711   7.303   4.782   3.222 -0.3083 -0.7565 -0.0960
  897MOL0     C23712   7.398   4.892   3.237  0.1797 -0.6710  0.1132
  897MOL0     C23713   7.458   4.990   3.265  0.4876 -0.0625 -0.3785
  897MOL0     C23714   7.158   4.440   3.025  0.1228  0.5134 -0.1170
  897MOL0     C23715   7.233   4.323   3.047 -1.9096 -0.9190 -0.5101
  897MOL0     C23716   7.167   4.212   3.118  0.0781 -0.4531 -1.1819
  897MOL0     H23717   7.652   4.088   3.215  0.0064  2.6601  0.6340
  897MOL0     H23718   7.859   3.954   3.222 -1.0701 -0.8515 -1.0130
  897MOL0     H23719   7.936   3.748   3.016  1.1483 -0.5165 -1.4941
  897MOL0     H23720   8.023   3.766   3.174  0.9332 -1.3014  0.0932
  897MOL0     H23721   8.139   3.610   3.021 -0.7306  1.3426  3.4768
  897MOL0     H23722   8.171   3.745   2.908  2.6526 -0.9309 -0.1534
  897MOL0     H23723   8.286   3.867   3.074 -0.2995  0.0051 -1.6439
  897MOL0     H23724   8.261   3.750   3.197 -0.9293 -0.5588 -0.0139
  897MOL0     H23725   8.379   3.581   3.041 -0.3762  0.1028  2.0383
  897MOL0     H23726   8.396   3.722   2.923  1.2313  1.1998 -0.4397
  897MOL0     H23727   8.539   3.713   3.197 -2.5075  0.3666 -0.0790
  897MOL0     H23728   8.543   3.833   3.077 -0.5420 -0.2430  0.6030
  897MOL0     H23729   8.639   3.550   3.007  1.3027  1.2678  4.1676
  897MOL0     H23730   8.648   3.695   2.902  1.5309 -1.0185 -1.1378
  897MOL0     H23731   8.870   3.661   3.003  0.7464  0.5713 -0.3443
  897MOL0     H23732   8.795   3.644   3.158  2.6469 -1.4783 -0.8072
  897MOL0     H23733   8.766   3.884   3.180 -1.4523 -1.5081  0.0861
  897MOL0     H23734   8.932   3.860   3.118  0.0145  0.7247 -0.2793
  897MOL0     H23735   8.635   4.066   3.037 -1.8248  3.7888 -2.5983
  897MOL0     H23736   8.688   4.278   2.755 -1.6383 -0.0982 -2.2587
  897MOL0     H23737   8.579   4.260   2.891  3.2497 -0.1490  1.3869
  897MOL0     H23738   8.484   4.209   2.643 -0.1923 -1.1781 -1.2069
  897MOL0     H23739   8.576   4.061   2.663 -1.1650 -0.7350  0.0557
  897MOL0     H23740   8.437   4.021   2.878  2.4846  1.8696 -0.2496
  897MOL0     H23741   8.361   4.174   2.846  0.5498 -0.5555  0.6675
  897MOL0     H23742   8.336   3.933   2.666 -0.7333  0.1250 -1.7212
  897MOL0     H23743   8.218   4.000   2.782 -0.9571  2.4078 -1.5739
  897MOL0     H23744   8.167   3.888   2.563 -1.8762 -0.3452 -0.2126
  897MOL0     H23745   8.028   3.713   2.433  0.7417 -1.9406 -1.5849
  897MOL0     H23746   8.056   3.742   2.260 -0.5405 -0.1956  0.1211
  897MOL0     H23747   7.905   3.779   2.338  0.3232  1.6585 -3.0220
  897MOL0     H23748   7.738   4.002   1.959 -1.5841  1.8407  2.2225
  897MOL0     H23749   7.674   4.059   1.721 -1.7823  0.9322  0.7149
  897MOL0     H23750   7.851   4.413   1.512  0.4203 -1.3145  0.4189
  897MOL0     H23751   7.900   4.250   1.447 -0.4225 -1.7699 -1.6524
  897MOL0     H23752   7.782   4.374   1.277 -0.4173  1.3702 -0.2409
  897MOL0     H23753   7.696   4.230   1.318  1.9377  0.0535 -1.0093
  897MOL0     H23754   7.597   4.474   1.300 -2.1851  1.7562  0.1192
  897MOL0     H23755   7.620   4.483   1.474 -3.0938  0.5553 -0.0082
  897MOL0     H23756   7.478   4.314   1.518  3.4490  0.6261  0.1893
  897MOL0     H23757   7.454   4.261   1.339  0.0915  0.6759 -1.6860
  897MOL0     H23758   7.273   4.430   1.458 -3.8686  1.6866 -3.4207
  897MOL0     H23759   7.396   4.547   1.422  0.9708 -0.4235 -1.0696
  897MOL0     H23760   7.395   4.468   1.185  0.3808  2.9899  0.1114
  897MOL0     H23761   7.240   4.541   1.247 -0.3016 -0.5325  0.3981
  897MOL0     H23762   7.144   4.321   1.296 -0.8774 -1.8823 -0.9840
  897MOL0     H23763   7.278   4.247   1.211 -2.9280 -1.0468 -0.4805
  897MOL0     H23764   7.066   4.441   1.114 -0.5371 -0.2357  0.6849
  897MOL0     H23765   7.102   4.279   1.062  0.4041 -0.4821  2.6055
  897MOL0     H23766   7.934   4.395   1.730 -1.6433  0.4047 -2.1846
  897MOL0     H23767   7.985   4.349   1.973  0.3330 -0.9301  0.1950
  897MOL0     H23768   8.012   4.267   2.288 -4.0609 -0.9688  2.5816
  897MOL0     H23769   8.169   4.300   2.462 -3.7426  1.4753 -0.9337
  897MOL0     H23770   7.951   4.038   2.818 -0.4334 -3.2195  0.1506
  897MOL0     H23771   7.748   4.194   2.802  1.8167  0.9088  0.4487
  897MOL0     H23772   7.512   4.424   2.888  0.5122 -4.0550  0.5799
  897MOL0     H23773   7.377   4.648   2.884 -1.5328 -0.9228 -2.7698
  897MOL0     H23774   6.979   4.799   3.005  0.1943  1.4198  3.7241
  897MOL0     H23775   6.950   4.628   3.016  1.4454 -1.2774 -0.4737
  897MOL0     H23776   7.100   4.623   3.228  2.3064  0.4060 -0.7927
  897MOL0     H23777   6.964   4.742   3.231 -0.2904  0.5059  0.4779
  897MOL0     H23778   7.148   4.906   3.128 -0.2717  2.8747  2.0725
  897MOL0     H23779   7.123   4.894   3.290 -1.4425  0.1209 -0.2193
  897MOL0     H23780   7.326   4.704   3.149  0.4722 -1.1967  0.5983
  897MOL0     H23781   7.316   4.731   3.318  1.4343  0.5801  0.4404
  897MOL0     H23782   7.503   5.075   3.312  4.1654 -2.0361  0.0568
  897MOL0     H23783   7.053   4.424   3.047  0.5740 -4.4766 -0.4636
  897MOL0     H23784   7.070   4.198   3.068 -0.2300  1.0936 -1.0562
  897MOL0     H23785   7.229   4.122   3.109  1.4917  0.6365 -3.2974
  897MOL0     H23786   7.165   4.237   3.224  1.6724  0.6007 -1.3709
  898MOL0     O23787   7.123   9.526   6.558 -0.4254  0.0804  0.1928
  898MOL0     C23788   7.220   9.466   6.602 -0.5432 -0.6539 -0.2011
  898MOL0     O23789   7.347   9.501   6.574  0.8534  0.5492  0.1247
  898MOL0     C23790   7.384   9.555   6.456 -0.1312  0.2171  0.4688
  898MOL0     C23791   7.372   9.693   6.425 -0.0472 -0.6105 -0.2169
  898MOL0     C23792   7.428   9.747   6.303  0.1889  0.6811 -0.9354
  898MOL0     C23793   7.480   9.657   6.218 -0.5295 -0.0440  0.3061
  898MOL0     O23794   7.496   9.710   6.091  0.3722 -0.0966 -0.3116
  898MOL0     C23795   7.598   9.814   6.075  0.4819 -0.0574  0.7391
  898MOL0     C23796   7.732   9.751   6.068 -1.3472  0.5432  0.4737
  898MOL0     C23797   7.741   9.648   5.956  0.1086  0.4780 -0.0721
  898MOL0     C23798   7.880   9.583   5.972  0.0186  0.3732 -0.7431
  898MOL0     C23799   7.921   9.492   5.861 -0.1258  0.0180 -0.8369
  898MOL0     C23800   8.053   9.426   5.888  0.5554  0.0909 -0.0460
  898MOL0     C23801   8.049   9.337   6.019 -0.3522  0.0053  0.1376
  898MOL0     C23802   8.174   9.268   6.043 -0.0356  0.2891  0.1092
  898MOL0     N23803   8.289   9.345   6.104  0.9989  1.3243  0.4395
  898MOL0     C23804   8.402   9.364   6.020  0.1662  0.0147 -0.1810
  898MOL0     C23805   8.477   9.447   6.095 -1.2400  0.5867  0.4446
  898MOL0     C23806   8.617   9.506   6.047  0.0411 -0.2069  0.0217
  898MOL0     C23807   8.612   9.653   6.076 -0.6944  0.5311  0.1064
  898MOL0     C23808   8.541   9.740   5.977 -0.9807 -0.0012  0.5926
  898MOL0     C23809   8.598   9.729   5.836 -0.5318 -0.0138  0.2642
  898MOL0     O23810   8.733   9.784   5.827 -0.4804 -0.4749  0.5675
  898MOL0     C23811   8.749   9.849   5.703  0.3361 -0.2878 -0.3356
  898MOL0     C23812   8.679   9.835   5.584  0.0697 -0.6217  0.6056
  898MOL0     C23813   8.724   9.900   5.466  0.2261  0.5140 -0.2251
  898MOL0     C23814   8.636   9.886   5.340  0.1805 -0.4551  0.5755
  898MOL0     C23815   8.842   9.982   5.463 -0.7782  0.5597  0.5495
  898MOL0     C23816   8.883  10.055   5.341 -0.6728  0.2599 -0.4227
  898MOL0     O23817   8.952  10.172   5.372  0.3091 -0.0363  0.4510
  898MOL0     C23818   8.990  10.256   5.273  0.5601  0.0995 -0.1961
  898MOL0     C23819   8.922  10.378   5.241 -0.2835 -1.4634  0.2734
  898MOL0     C23820   8.974  10.460   5.138 -0.9025 -0.4594 -0.3581
  898MOL0     C23821   9.100  10.436   5.079 -0.1574  0.6938 -0.7361
  898MOL0     O23822   9.142  10.526   4.987  1.0135  0.3438  0.8847
  898MOL0     C23823   9.230  10.484   4.879 -0.2002 -0.6773 -0.0893
  898MOL0     C23824   9.354  10.548   4.919 -0.1944  0.3637  0.3792
  898MOL0     C23825   9.349  10.698   4.901  0.3488 -0.1210 -0.1442
  898MOL0     C23826   9.490  10.743   4.879 -0.2672 -0.4814  0.3894
  898MOL0     C23827   9.496  10.894   4.835 -0.1720  0.3525 -0.4782
  898MOL0     C23828   9.471  10.996   4.948 -0.5799  0.2122 -0.5756
  898MOL0     C23829   9.581  10.985   5.053  0.3644 -0.4273 -0.2905
  898MOL0     C23830   9.598  11.115   5.134  0.5547  0.9417 -0.0732
  898MOL0    Cl23831   9.449  11.142   5.231  0.6564 -0.1232 -0.0855
  898MOL0     C23832   9.169  10.320   5.130 -0.1326  0.3486  0.6229
  898MOL0     C23833   9.116  10.231   5.226 -0.5827 -0.6748  0.1049
  898MOL0     O23834   8.871  10.013   5.226  0.3109  0.0845 -0.1489
  898MOL0     C23835   8.917   9.990   5.581 -0.2328  0.9139 -0.3433
  898MOL0     C23836   8.865   9.927   5.698 -0.2753 -0.6575 -0.0079
  898MOL0     N23837   8.415   9.470   6.221 -0.4076 -0.1245  0.2593
  898MOL0     N23838   8.290   9.414   6.216 -1.3668  0.1207  0.5361
  898MOL0     C23839   7.501   9.520   6.250 -0.7346  0.3386  0.1957
  898MOL0     C23840   7.451   9.468   6.363 -0.5121  0.0927 -0.0466
  898MOL0     C23841   7.199   9.353   6.705 -0.3502  0.5150  0.3745
  898MOL0     C23842   7.318   9.283   6.748 -0.7951  0.0123  0.0261
  898MOL0     C23843   7.310   9.178   6.843  0.2794  1.0452  0.1482
  898MOL0     C23844   7.177   9.144   6.892 -0.7173 -0.4578 -0.2683
  898MOL0     O23845   7.162   9.047   6.989 -0.1010  0.2054  0.8041
  898MOL0     C23846   7.085   8.931   6.942  0.3766  0.4529 -0.5407
  898MOL0     C23847   7.094   8.795   7.017  0.2646 -1.1316  0.4649
  898MOL0     C23848   7.014   8.792   7.150 -0.1595  0.4967  0.0326
  898MOL0     C23849   7.041   8.654   7.212 -1.0651 -0.2635  0.2495
  898MOL0     C23850   6.962   8.635   7.333 -1.3408  0.6836  0.3885
  898MOL0     C23851   6.918   8.624   7.440 -0.5435  0.7079 -0.3133
  898MOL0     C23852   7.063   9.212   6.847 -0.1790  0.5685  1.3845
  898MOL0     C23853   7.071   9.315   6.753  0.5652 -0.2681  0.4473
  898MOL0     C23854   6.940   9.367   6.696 -1.2111 -0.3562  0.0662
  898MOL0     H23855   7.310   9.759   6.486 -1.3032 -0.5337 -1.5226
  898MOL0     H23856   7.400   9.852   6.293 -1.0860  1.3831  5.4557
  898MOL0     H23857   7.597   9.872   6.168 -2.7868  1.9549 -0.3889
  898MOL0     H23858   7.590   9.883   5.990 -1.2076  3.2322  3.3201
  898MOL0     H23859   7.804   9.833   6.056 -0.3346 -0.0613  2.1045
  898MOL0     H23860   7.758   9.704   6.164 -0.0172 -2.7362 -1.3265
  898MOL0     H23861   7.664   9.571   5.963  0.1850  0.4094  0.0077
  898MOL0     H23862   7.729   9.688   5.854 -0.5219 -1.4966 -0.8285
  898MOL0     H23863   7.950   9.667   5.985 -0.6051  0.7371  0.4099
  898MOL0     H23864   7.876   9.525   6.065  0.8916  1.2730 -0.1139
  898MOL0     H23865   7.934   9.549   5.768 -0.8934 -0.5985 -1.3395
  898MOL0     H23866   7.842   9.416   5.857  0.8731 -1.3409  2.4185
  898MOL0     H23867   8.068   9.356   5.805 -0.5094  0.7867 -0.8538
  898MOL0     H23868   8.124   9.508   5.886  0.6872 -0.0308 -0.4602
  898MOL0     H23869   7.971   9.261   6.029 -1.9451  1.6799  1.1279
  898MOL0     H23870   8.028   9.402   6.104  0.5992 -1.0971  1.2449
  898MOL0     H23871   8.142   9.200   6.122  0.5239 -0.0512  0.0518
  898MOL0     H23872   8.193   9.203   5.958 -1.3304 -0.7030  0.5525
  898MOL0     H23873   8.409   9.336   5.915 -1.5056 -0.1305 -0.2829
  898MOL0     H23874   8.637   9.485   5.941 -1.1854 -0.6507 -0.1478
  898MOL0     H23875   8.697   9.458   6.103 -0.7971  0.1514  1.5781
  898MOL0     H23876   8.570   9.663   6.177  1.1744 -3.7894  1.5582
  898MOL0     H23877   8.719   9.680   6.074 -0.3177 -0.9132 -0.3046
  898MOL0     H23878   8.435   9.713   5.979 -1.2307  0.9162 -0.0408
  898MOL0     H23879   8.563   9.842   6.009  4.5586 -0.8306  0.3196
  898MOL0     H23880   8.592   9.628   5.795 -1.3434  0.3280 -0.5170
  898MOL0     H23881   8.528   9.786   5.774  0.8663  2.0127  0.4416
  898MOL0     H23882   8.598   9.765   5.564 -1.4286  0.9224  0.9781
  898MOL0     H23883   8.652   9.973   5.277  3.9356 -1.0335  0.5187
  898MOL0     H23884   8.531   9.871   5.367 -1.1865  2.3003 -2.6262
  898MOL0     H23885   8.679   9.806   5.280 -0.1111 -2.1437  2.4867
  898MOL0     H23886   8.818  10.401   5.265 -0.8692 -0.3284 -2.8215
  898MOL0     H23887   8.919  10.549   5.107 -0.3495 -0.2887 -0.8677
  898MOL0     H23888   9.249  10.377   4.870  0.2429 -0.5276 -1.1646
  898MOL0     H23889   9.197  10.518   4.780  0.9998  0.8894 -0.0000
  898MOL0     H23890   9.394  10.517   5.016  0.9355 -1.6542 -0.6804
  898MOL0     H23891   9.429  10.500   4.856  1.4342  1.9603  0.9944
  898MOL0     H23892   9.311  10.744   4.992  1.5693 -0.8634  0.7897
  898MOL0     H23893   9.301  10.719   4.805  1.2185 -1.1571 -0.8393
  898MOL0     H23894   9.531  10.693   4.791 -2.7643 -2.1257  0.0778
  898MOL0     H23895   9.552  10.712   4.963 -1.8675 -0.3971  1.6427
  898MOL0     H23896   9.596  10.913   4.794 -0.9955  0.4842 -2.5137
  898MOL0     H23897   9.433  10.906   4.747 -1.4721 -1.4805  0.1364
  898MOL0     H23898   9.369  10.974   4.981  0.3294 -1.4570  1.2649
  898MOL0     H23899   9.466  11.100   4.914  0.4925 -0.0242 -1.4886
  898MOL0     H23900   9.685  10.971   5.020  2.1026 -0.8461  4.5943
  898MOL0     H23901   9.563  10.907   5.127  3.3305 -0.7907  0.1832
  898MOL0     H23902   9.634  11.197   5.071  0.6060 -0.1238 -1.4817
  898MOL0     H23903   9.687  11.087   5.191  1.7869 -0.1825 -2.3686
  898MOL0     H23904   9.270  10.296   5.098  0.2262  1.1678  1.0822
  898MOL0     H23905   9.173  10.145   5.260 -1.4076 -1.1200  0.4054
  898MOL0     H23906   9.008  10.047   5.594 -0.7729  1.1253  3.5300
  898MOL0     H23907   8.908   9.947   5.796  0.9163 -1.0081 -0.4460
  898MOL0     H23908   7.533   9.450   6.174 -2.5887 -2.7367  2.0350
  898MOL0     H23909   7.470   9.365   6.391  2.8591  0.7208  0.4100
  898MOL0     H23910   7.414   9.321   6.714  0.0146 -1.4869  0.5719
  898MOL0     H23911   7.396   9.132   6.890 -1.7624 -1.0118  2.1264
  898MOL0     H23912   6.985   8.973   6.929  1.2540  1.8356 -3.8486
  898MOL0     H23913   7.105   8.916   6.835 -0.9181  2.4490 -1.1196
  898MOL0     H23914   7.200   8.777   7.038  0.6514  0.3968 -0.0798
  898MOL0     H23915   7.066   8.714   6.949 -0.6264  0.5747 -1.2836
  898MOL0     H23916   7.037   8.881   7.209  0.6465 -0.1456  0.7202
  898MOL0     H23917   6.909   8.791   7.118 -0.0586 -1.6573 -0.4120
  898MOL0     H23918   7.148   8.647   7.236 -0.6851  0.3172 -1.1899
  898MOL0     H23919   7.021   8.578   7.136 -0.5883 -0.1443  0.0030
  898MOL0     H23920   6.883   8.610   7.540  0.6471  1.7437  0.2794
  898MOL0     H23921   6.961   9.181   6.871 -0.5857  0.1932 -0.5821
  898MOL0     H23922   6.850   9.310   6.719 -0.7429 -1.6510 -1.1078
  898MOL0     H23923   6.920   9.467   6.734  0.9383  0.5602 -1.0245
  898MOL0     H23924   6.942   9.373   6.587 -0.1277  1.0435  0.1390
  899MOL0     O23925   8.082   0.347   2.848  0.3351  0.2585  0.0875
  899MOL0     C23926   8.092   0.247   2.922  1.0008  0.6937  0.7397
  899MOL0     O23927   8.180   0.143   2.914 -0.3779 -0.7934  0.3121
  899MOL0     C23928   8.251   0.145   2.794 -0.4882  0.3325 -0.3545
  899MOL0     C23929   8.203   0.079   2.685 -0.3599 -0.2628 -0.6086
  899MOL0     C23930   8.275   0.075   2.565  0.0016 -0.2237 -0.0106
  899MOL0     C23931   8.396   0.143   2.551  0.2795  0.3624  0.4062
  899MOL0     O23932   8.462   0.132   2.434  0.5946  0.4635 -0.5728
  899MOL0     C23933   8.444   0.007   2.363  0.0130 -0.7723  0.8596
  899MOL0     C23934   8.342   0.031   2.249 -0.0999 -1.8588 -0.1953
  899MOL0     C23935   8.324  -0.080   2.151  0.8074  0.4965  0.1876
  899MOL0     C23936   8.424  -0.098   2.041 -0.1789 -0.0815  0.8091
  899MOL0     C23937   8.397  -0.223   1.958  1.5119 -0.1629 -0.8097
  899MOL0     C23938   8.517  -0.229   1.858  0.2385 -0.1977 -0.1276
  899MOL0     C23939   8.521  -0.361   1.779  0.5731 -0.0808  0.4491
  899MOL0     C23940   8.604  -0.363   1.648  0.0019 -0.3652 -1.0833
  899MOL0     N23941   8.571  -0.268   1.543  0.5203  0.2400  0.6834
  899MOL0     C23942   8.636  -0.145   1.526 -0.4930  0.1759  0.8544
  899MOL0     C23943   8.598  -0.110   1.400 -0.3328  0.0458  0.5537
  899MOL0     C23944   8.636   0.017   1.328 -0.4131  0.0918 -0.1717
  899MOL0     C23945   8.786   0.063   1.351 -0.7342 -0.4375  0.9433
  899MOL0     C23946   8.797   0.220   1.327  0.0564 -0.0439  0.3710
  899MOL0     C23947   8.713   0.324   1.410 -0.7946  0.3946 -0.6783
  899MOL0     O23948   8.746   0.310   1.553 -0.7523  0.5399  0.4670
  899MOL0     C23949   8.652   0.354   1.647 -0.2284 -0.4132 -0.3869
  899MOL0     C23950   8.606   0.482   1.631  0.3885  0.7646 -1.9685
  899MOL0     C23951   8.503   0.538   1.717 -0.1943 -0.2753 -0.3020
  899MOL0     C23952   8.479   0.684   1.689  0.1496 -0.1768 -0.2534
  899MOL0     C23953   8.459   0.462   1.826 -0.2567  0.0386 -0.2164
  899MOL0     C23954   8.360   0.511   1.930 -0.5191 -0.5862 -0.2412
  899MOL0     O23955   8.361   0.440   2.045 -0.2101  0.3467 -1.0260
  899MOL0     C23956   8.318   0.506   2.164  0.4748 -0.0347  0.4915
  899MOL0     C23957   8.293   0.645   2.190  0.4440  0.0307  0.3603
  899MOL0     C23958   8.260   0.694   2.316 -0.6754  0.1182  1.1868
  899MOL0     C23959   8.249   0.603   2.421 -0.7923  0.0382  0.1359
  899MOL0     O23960   8.217   0.654   2.539 -0.6040 -0.7179 -0.1786
  899MOL0     C23961   8.197   0.574   2.654  0.1087 -0.6616  0.4108
  899MOL0     C23962   8.143   0.668   2.768 -0.9989 -0.2026 -0.0204
  899MOL0     C23963   7.993   0.686   2.732  0.0711 -0.2926 -0.3211
  899MOL0     C23964   7.924   0.777   2.841  0.0120 -0.4795 -0.6369
  899MOL0     C23965   7.772   0.804   2.833  0.1960 -0.3148  0.6386
  899MOL0     C23966   7.689   0.680   2.879  0.2087 -0.2766 -0.1143
  899MOL0     C23967   7.663   0.559   2.774  0.5793 -0.1382 -0.3160
  899MOL0     C23968   7.705   0.427   2.844 -0.7132 -0.6977  0.1666
  899MOL0    Cl23969   7.664   0.277   2.762 -0.3056  0.2244 -0.1067
  899MOL0     C23970   8.268   0.467   2.403 -0.6298 -0.1284  0.6366
  899MOL0     C23971   8.303   0.419   2.274  0.8441 -0.4493  0.7174
  899MOL0     O23972   8.277   0.597   1.900  0.1922 -0.0613  0.5170
  899MOL0     C23973   8.501   0.327   1.836  0.5879  0.2760 -0.5095
  899MOL0     C23974   8.587   0.275   1.744  0.2609 -0.3290  0.3071
  899MOL0     N23975   8.515  -0.207   1.341 -0.8189 -0.1233  1.0123
  899MOL0     N23976   8.506  -0.303   1.427  0.4555  0.2646 -0.1286
  899MOL0     C23977   8.445   0.214   2.663 -0.1351  0.2778  0.6474
  899MOL0     C23978   8.368   0.218   2.782  1.3346 -0.5045  0.0091
  899MOL0     C23979   7.993   0.231   3.024 -0.2765  0.2425 -0.9788
  899MOL0     C23980   7.895   0.135   3.024  0.5244  0.5648 -0.0383
  899MOL0     C23981   7.798   0.125   3.124 -1.3738  0.3853 -0.3183
  899MOL0     C23982   7.799   0.212   3.232  0.2578 -0.4874  0.8446
  899MOL0     O23983   7.709   0.199   3.330 -0.7720 -0.1105 -0.3854
  899MOL0     C23984   7.612   0.298   3.359 -0.5407 -1.2527  0.1893
  899MOL0     C23985   7.515   0.314   3.241  0.6636  0.1317 -0.1047
  899MOL0     C23986   7.432   0.441   3.243 -0.7266  0.3006 -0.0104
  899MOL0     C23987   7.310   0.436   3.151 -0.2403  0.0874  0.4541
  899MOL0     C23988   7.343   0.391   3.014 -0.0579  0.2363 -0.3472
  899MOL0     C23989   7.374   0.353   2.902 -0.0885  0.2860 -0.2113
  899MOL0     C23990   7.901   0.312   3.237 -0.5665  0.6054 -0.7863
  899MOL0     C23991   7.998   0.320   3.138  0.2656  0.3973 -0.0780
  899MOL0     C23992   8.108   0.415   3.157 -0.6626  0.0972  0.5296
  899MOL0     H23993   8.111   0.021   2.681  0.0612 -0.9037 -1.5548
  899MOL0     H23994   8.224   0.025   2.484  0.4373  0.7621 -0.9153
  899MOL0     H23995   8.412  -0.076   2.426  0.7776 -2.6707 -1.1326
  899MOL0     H23996   8.541  -0.026   2.325  0.7459 -0.3741  2.2954
  899MOL0     H23997   8.241   0.061   2.281  0.1559 -0.5463 -0.5651
  899MOL0     H23998   8.377   0.117   2.191  1.2414 -2.9927 -1.1359
  899MOL0     H23999   8.320  -0.169   2.215 -1.8737 -0.0761 -0.6354
  899MOL0     H24000   8.223  -0.084   2.110  1.0127 -0.5366 -0.2615
  899MOL0     H24001   8.422  -0.011   1.975  1.9663  0.2296  1.0912
  899MOL0     H24002   8.520  -0.094   2.093 -0.0518  1.6786  0.4981
  899MOL0     H24003   8.300  -0.221   1.908  0.8306 -1.1861  0.3997
  899MOL0     H24004   8.395  -0.315   2.017 -0.6865 -1.7434 -3.1081
  899MOL0     H24005   8.495  -0.150   1.785 -1.0421 -0.0488  0.3823
  899MOL0     H24006   8.607  -0.198   1.912 -0.5998  1.1756  0.5570
  899MOL0     H24007   8.421  -0.381   1.741 -0.8296  3.4796  1.7324
  899MOL0     H24008   8.550  -0.440   1.849  0.4914  0.3152  0.9386
  899MOL0     H24009   8.706  -0.334   1.676 -0.6096  0.4405  0.3878
  899MOL0     H24010   8.608  -0.466   1.609  2.7888 -1.1867  1.0191
  899MOL0     H24011   8.703  -0.092   1.592  0.3492 -2.2307  2.0570
  899MOL0     H24012   8.572   0.098   1.364 -2.1915 -0.6160 -1.5668
  899MOL0     H24013   8.613   0.007   1.222  1.4432  1.2486 -0.7292
  899MOL0     H24014   8.818   0.041   1.453 -3.5808 -0.7588  1.8630
  899MOL0     H24015   8.842   0.018   1.268  0.5763  2.7851 -0.0854
  899MOL0     H24016   8.897   0.262   1.344 -1.8283  4.1556  2.7605
  899MOL0     H24017   8.768   0.236   1.223 -0.0757  0.9668  0.5534
  899MOL0     H24018   8.742   0.422   1.371 -4.6304  2.2873  0.6823
  899MOL0     H24019   8.607   0.297   1.407 -0.7896  0.3370 -0.4044
  899MOL0     H24020   8.630   0.528   1.536 -0.9083 -0.3164 -2.8589
  899MOL0     H24021   8.446   0.741   1.776  0.6246 -0.5088  0.1541
  899MOL0     H24022   8.399   0.690   1.615 -2.1479  0.1906  2.1433
  899MOL0     H24023   8.563   0.746   1.655 -1.0148  2.3771  1.2355
  899MOL0     H24024   8.296   0.714   2.106 -4.4916  0.6772  0.4107
  899MOL0     H24025   8.226   0.795   2.332 -2.1197 -0.2559  0.6594
  899MOL0     H24026   8.128   0.491   2.641 -2.4859  1.1832  1.5881
  899MOL0     H24027   8.293   0.540   2.694 -0.2939  0.9638  2.9240
  899MOL0     H24028   8.146   0.628   2.870 -2.5924 -0.4046 -0.0270
  899MOL0     H24029   8.199   0.762   2.766 -2.7955  0.9444  0.9688
  899MOL0     H24030   7.927   0.599   2.739 -0.3076  0.1228  3.4219
  899MOL0     H24031   7.979   0.731   2.634  0.0870  2.2929  0.7888
  899MOL0     H24032   7.984   0.868   2.831  0.0996 -0.6952 -2.5900
  899MOL0     H24033   7.944   0.739   2.942 -0.0130 -0.7968 -0.7497
  899MOL0     H24034   7.762   0.891   2.899  1.9333  2.0580 -1.9820
  899MOL0     H24035   7.745   0.836   2.733 -0.3338 -0.2774  0.7908
  899MOL0     H24036   7.588   0.712   2.903 -1.0146 -3.6106 -0.2492
  899MOL0     H24037   7.739   0.665   2.975  0.1412 -1.7762 -0.2903
  899MOL0     H24038   7.710   0.582   2.678  0.1374 -1.7718 -0.9540
  899MOL0     H24039   7.557   0.557   2.745  0.0819 -0.3225  1.3505
  899MOL0     H24040   7.697   0.417   2.953  0.4320 -0.5855  0.2776
  899MOL0     H24041   7.813   0.439   2.830 -0.7548 -2.1624 -1.8547
  899MOL0     H24042   8.265   0.396   2.485 -2.4583  0.5219  1.1746
  899MOL0     H24043   8.348   0.320   2.272  3.7541  0.7516  1.1392
  899MOL0     H24044   8.463   0.263   1.915  2.6428  1.9653  2.0574
  899MOL0     H24045   8.634   0.177   1.746  2.5047  0.6484  3.6939
  899MOL0     H24046   8.537   0.271   2.674  0.0848 -0.5736  4.5687
  899MOL0     H24047   8.397   0.277   2.868 -1.2341  0.8024  0.0706
  899MOL0     H24048   7.890   0.067   2.940  1.4202 -1.2851  1.3446
  899MOL0     H24049   7.718   0.055   3.098  0.9490 -2.8422  0.5584
  899MOL0     H24050   7.560   0.264   3.449 -1.8470  0.1919  0.0263
  899MOL0     H24051   7.654   0.394   3.389 -2.1612 -0.6424  0.5989
  899MOL0     H24052   7.435   0.240   3.253 -1.5106  2.2656 -0.8613
  899MOL0     H24053   7.563   0.312   3.143 -0.3197  2.2287 -0.6752
  899MOL0     H24054   7.392   0.446   3.345  1.4940 -0.4876  0.9695
  899MOL0     H24055   7.500   0.526   3.237  0.0060 -0.3422 -1.1790
  899MOL0     H24056   7.272   0.538   3.143 -0.0631  0.2506  1.5651
  899MOL0     H24057   7.236   0.373   3.201  0.3575 -0.0031  1.2372
  899MOL0     H24058   7.394   0.347   2.797  1.5733  0.7327  0.0539
  899MOL0     H24059   7.900   0.381   3.320 -0.9448  2.2192 -2.0961
  899MOL0     H24060   8.199   0.360   3.185 -0.1532 -0.1087 -1.4139
  899MOL0     H24061   8.131   0.472   3.067  0.1062 -0.7892  0.1439
  899MOL0     H24062   8.070   0.496   3.220 -1.9767 -1.0477  1.2532
  900MOL0     O24063   9.132   5.108   1.370  0.1750  0.1307  0.3626
  900MOL0     C24064   9.195   5.205   1.406 -0.1221 -0.7983  0.1416
  900MOL0     O24065   9.165   5.282   1.514 -0.3424  0.4441 -0.5466
  900MOL0     C24066   9.096   5.239   1.624 -0.7114 -0.3280  0.5985
  900MOL0     C24067   8.984   5.323   1.659 -0.4769 -0.2662  0.0227
  900MOL0     C24068   8.890   5.298   1.760 -0.2584 -0.1567 -0.2569
  900MOL0     C24069   8.899   5.175   1.826  0.4858  0.5088 -0.1687
  900MOL0     O24070   8.811   5.148   1.933  0.5082 -0.0114  0.0427
  900MOL0     C24071   8.781   5.000   1.940  0.5977  0.5462 -0.1265
  900MOL0     C24072   8.664   4.989   2.044 -0.2819  0.6551 -0.1408
  900MOL0     C24073   8.595   4.857   2.029 -0.4043  0.2757 -0.1225
  900MOL0     C24074   8.525   4.802   2.156  0.1566 -0.0636 -0.0504
  900MOL0     C24075   8.629   4.746   2.259 -0.3608  0.5592  0.0528
  900MOL0     C24076   8.569   4.658   2.373 -0.7566 -0.6566  0.2976
  900MOL0     C24077   8.667   4.654   2.499  0.3900  1.1282 -0.2985
  900MOL0     C24078   8.787   4.562   2.480 -0.6763  0.1932 -0.7493
  900MOL0     N24079   8.756   4.427   2.429 -0.0240  0.3453  0.7590
  900MOL0     C24080   8.820   4.371   2.320  0.4939  0.0359 -0.0337
  900MOL0     C24081   8.752   4.264   2.291 -0.1072  0.0465  0.1651
  900MOL0     C24082   8.747   4.170   2.167  0.7843 -0.5441  0.3211
  900MOL0     C24083   8.793   4.244   2.039  0.2125 -0.0204 -0.0007
  900MOL0     C24084   8.676   4.316   1.969  0.3503 -0.9938  0.0306
  900MOL0     C24085   8.586   4.223   1.893  0.6144 -0.6093  0.5428
  900MOL0     O24086   8.470   4.302   1.852  0.0527  0.0340  0.6056
  900MOL0     C24087   8.379   4.354   1.934  0.4952  0.0293 -0.7000
  900MOL0     C24088   8.300   4.453   1.881  0.1658 -0.5149 -0.4988
  900MOL0     C24089   8.200   4.519   1.950 -0.0328  0.5897 -0.7740
  900MOL0     C24090   8.117   4.604   1.861 -0.2635 -0.1112 -0.8871
  900MOL0     C24091   8.186   4.485   2.090 -1.5457 -0.1339  0.2130
  900MOL0     C24092   8.103   4.562   2.184 -0.5619  0.1613  0.2189
  900MOL0     O24093   8.059   4.686   2.140  0.1397  0.0638  0.2041
  900MOL0     C24094   7.994   4.767   2.234 -0.6789  0.1641  1.7234
  900MOL0     C24095   8.085   4.855   2.302 -0.0001  0.0016  0.2400
  900MOL0     C24096   8.036   4.951   2.403  1.0907  0.2071 -0.5613
  900MOL0     C24097   7.895   4.968   2.411  0.2804 -0.3555 -0.4042
  900MOL0     O24098   7.849   5.055   2.504  0.3306  0.5050  0.0686
  900MOL0     C24099   7.864   5.190   2.479 -0.2851 -0.2130  0.0004
  900MOL0     C24100   7.983   5.260   2.554 -0.4144  0.5493 -0.5323
  900MOL0     C24101   7.948   5.321   2.693 -0.9994  0.7959 -0.4757
  900MOL0     C24102   7.834   5.417   2.693  0.6782 -0.4102  0.8081
  900MOL0     C24103   7.825   5.480   2.835 -0.6993  0.5292 -0.1443
  900MOL0     C24104   7.720   5.580   2.860 -0.6686 -0.2621  0.3409
  900MOL0     C24105   7.732   5.644   3.001  0.3924 -0.0076  0.0205
  900MOL0     C24106   7.629   5.754   3.010  0.2429 -0.1071 -0.9147
  900MOL0    Cl24107   7.664   5.831   3.177  0.1815  0.1387  0.0660
  900MOL0     C24108   7.813   4.882   2.335  0.4620 -0.1314 -0.7210
  900MOL0     C24109   7.865   4.791   2.249 -0.0392  0.5761 -0.2137
  900MOL0     O24110   8.093   4.522   2.302  0.0911  0.4029 -0.3998
  900MOL0     C24111   8.276   4.393   2.148  0.7858  0.5404 -0.9210
  900MOL0     C24112   8.369   4.328   2.070  0.2035 -0.3772  0.1452
  900MOL0     N24113   8.663   4.241   2.392 -0.2134 -0.5505  0.0127
  900MOL0     N24114   8.676   4.334   2.484 -0.1115 -0.5119 -0.1886
  900MOL0     C24115   9.011   5.085   1.799 -0.9829 -0.5492  0.2161
  900MOL0     C24116   9.105   5.122   1.695  0.6315  1.4045 -1.2433
  900MOL0     C24117   9.306   5.266   1.320 -0.8267 -0.2018  0.8990
  900MOL0     C24118   9.364   5.389   1.360  0.1363 -0.8227 -0.2856
  900MOL0     C24119   9.459   5.461   1.292 -0.2681 -0.2865 -1.0969
  900MOL0     C24120   9.501   5.405   1.166  0.5165  0.9748 -1.1929
  900MOL0     O24121   9.589   5.461   1.087 -1.0541 -0.0863  0.3571
  900MOL0     C24122   9.584   5.607   1.084 -0.1780  0.4859  0.3990
  900MOL0     C24123   9.598   5.670   0.944  0.1223 -0.8894  0.6781
  900MOL0     C24124   9.750   5.638   0.889 -0.5356  0.8706  0.5469
  900MOL0     C24125   9.736   5.539   0.767  0.1535 -0.4411 -0.5240
  900MOL0     C24126   9.872   5.499   0.737  0.9890 -0.1047 -0.1660
  900MOL0     C24127   9.987   5.471   0.707  0.2008 -0.3415  0.3937
  900MOL0     C24128   9.441   5.283   1.117  0.1466  0.0577 -0.4250
  900MOL0     C24129   9.348   5.211   1.197 -1.3457 -0.7935  0.1089
  900MOL0     C24130   9.308   5.082   1.140  0.2881 -0.1658 -0.2545
  900MOL0     H24131   8.971   5.416   1.604 -3.1459 -0.4065  0.3212
  900MOL0     H24132   8.808   5.364   1.788  0.3276  0.9253 -1.0132
  900MOL0     H24133   8.868   4.940   1.968  1.2332  0.4708 -2.1080
  900MOL0     H24134   8.755   4.970   1.838  3.4322  0.8255 -1.0361
  900MOL0     H24135   8.708   5.007   2.143 -1.2005  0.5797  0.2896
  900MOL0     H24136   8.592   5.070   2.030 -2.1653 -1.2692 -2.2536
  900MOL0     H24137   8.518   4.859   1.951 -1.9750 -0.1749  1.3483
  900MOL0     H24138   8.667   4.780   2.001  0.5021  0.6307  1.1535
  900MOL0     H24139   8.473   4.889   2.198  1.0799  0.2230  0.5448
  900MOL0     H24140   8.452   4.726   2.127  1.4220 -1.3566  0.0311
  900MOL0     H24141   8.661   4.837   2.312 -0.6024  0.2497  0.7357
  900MOL0     H24142   8.714   4.698   2.209 -0.3206  0.3332  0.3378
  900MOL0     H24143   8.483   4.717   2.407 -0.2441  1.3975 -1.7407
  900MOL0     H24144   8.529   4.558   2.356  1.6177 -1.4342 -1.0671
  900MOL0     H24145   8.618   4.598   2.579  3.0631 -0.9388  0.0352
  900MOL0     H24146   8.689   4.754   2.539  0.4995  0.1079  2.3920
  900MOL0     H24147   8.876   4.607   2.435  0.2731 -1.9299 -1.1508
  900MOL0     H24148   8.829   4.537   2.578 -0.3382  1.0101 -0.6784
  900MOL0     H24149   8.901   4.421   2.268  0.3173  0.3479 -0.0112
  900MOL0     H24150   8.647   4.132   2.148  0.2644  1.1748 -0.6135
  900MOL0     H24151   8.814   4.085   2.181  1.9932 -0.2564 -2.8791
  900MOL0     H24152   8.864   4.324   2.062  1.3022 -1.0112  0.1816
  900MOL0     H24153   8.836   4.171   1.970  1.9557  0.6848  0.3021
  900MOL0     H24154   8.624   4.370   2.048  0.2316 -1.0874  0.0168
  900MOL0     H24155   8.728   4.392   1.909 -0.4770  2.3098  3.1350
  900MOL0     H24156   8.647   4.177   1.815 -0.2001 -2.5959  1.0036
  900MOL0     H24157   8.566   4.141   1.962  0.8640  0.6772  2.2037
  900MOL0     H24158   8.312   4.477   1.776 -0.8679 -0.8078 -0.6980
  900MOL0     H24159   8.128   4.575   1.756 -1.8626  0.6544 -1.2869
  900MOL0     H24160   8.159   4.705   1.871  0.5325 -0.5063  0.0144
  900MOL0     H24161   8.011   4.610   1.888 -0.1397  1.4242 -0.6462
  900MOL0     H24162   8.190   4.832   2.286  0.4525  1.3745  1.0633
  900MOL0     H24163   8.101   5.018   2.459  1.6760  2.7396 -3.9944
  900MOL0     H24164   7.869   5.226   2.376  0.9777  0.8999  0.4210
  900MOL0     H24165   7.774   5.229   2.528  0.1680 -3.6590  4.1568
  900MOL0     H24166   8.061   5.183   2.563  0.7926  1.1613 -4.2498
  900MOL0     H24167   8.031   5.336   2.493  1.1862 -0.5019 -0.6669
  900MOL0     H24168   8.033   5.373   2.738 -1.7140 -0.1544  2.1716
  900MOL0     H24169   7.916   5.238   2.757  3.3334 -0.9516 -0.2196
  900MOL0     H24170   7.738   5.368   2.671  0.6883 -0.3145  0.5493
  900MOL0     H24171   7.855   5.495   2.620 -2.2207 -0.1774  0.0764
  900MOL0     H24172   7.805   5.395   2.901 -1.7719 -0.9750 -2.2885
  900MOL0     H24173   7.922   5.522   2.862  0.2446 -3.9031  4.9543
  900MOL0     H24174   7.619   5.550   2.831 -1.4097  3.7416 -2.0090
  900MOL0     H24175   7.730   5.667   2.793 -2.6509  1.6415  2.3182
  900MOL0     H24176   7.834   5.678   3.023 -0.1188  3.1934 -1.8125
  900MOL0     H24177   7.709   5.566   3.074  0.0097  0.3093  0.2422
  900MOL0     H24178   7.531   5.708   2.994 -0.9948  2.0707  0.0116
  900MOL0     H24179   7.639   5.844   2.948  1.0742  1.1361  0.9156
  900MOL0     H24180   7.707   4.876   2.357  0.3234  1.4664 -0.8445
  900MOL0     H24181   7.794   4.733   2.191  0.0302  1.3900 -1.1377
  900MOL0     H24182   8.289   4.383   2.255 -3.0611 -0.7052 -0.4121
  900MOL0     H24183   8.434   4.264   2.128 -0.7863 -0.8350  0.7719
  900MOL0     H24184   9.014   4.985   1.841  0.1832  0.1420  1.9392
  900MOL0     H24185   9.183   5.050   1.677  0.7030  0.5967  1.8375
  900MOL0     H24186   9.326   5.434   1.451 -1.2212  0.8511 -1.5927
  900MOL0     H24187   9.502   5.551   1.334 -2.6603  0.0197  0.9527
  900MOL0     H24188   9.486   5.644   1.115  0.0928  1.6586 -0.0842
  900MOL0     H24189   9.668   5.646   1.142 -1.3622  0.0149  2.5455
  900MOL0     H24190   9.591   5.778   0.962  1.4564 -0.9022  1.4190
  900MOL0     H24191   9.522   5.644   0.871  0.6204  1.5412 -0.8218
  900MOL0     H24192   9.796   5.728   0.847  0.2446 -0.8630 -2.5873
  900MOL0     H24193   9.801   5.586   0.970  3.1540  1.4134 -1.2571
  900MOL0     H24194   9.693   5.589   0.680  0.1590  2.6610  1.1054
  900MOL0     H24195   9.666   5.457   0.783  0.8253 -0.4377  3.8613
  900MOL0     H24196  10.091   5.448   0.693 -0.1230 -3.2239  1.9819
  900MOL0     H24197   9.464   5.246   1.017 -0.4166 -1.1066 -0.1403
  900MOL0     H24198   9.364   5.040   1.055  1.1748  0.0115  0.2355
  900MOL0     H24199   9.325   5.022   1.230  1.5283  2.5361  1.4131
  900MOL0     H24200   9.201   5.075   1.116  0.0916  1.5790 -0.0105
  901MOL0     O24201   6.737   7.951   3.907  0.2979  0.2854 -0.8829
  901MOL0     C24202   6.635   8.018   3.939  0.7159  0.5689 -0.3621
  901MOL0     O24203   6.604   8.146   3.901 -0.4112 -0.3101 -0.3485
  901MOL0     C24204   6.672   8.197   3.794 -0.4042 -0.3543  0.1104
  901MOL0     C24205   6.679   8.140   3.672  0.6936  0.0695  0.0782
  901MOL0     C24206   6.744   8.206   3.567 -0.1285  1.1269 -1.3014
  901MOL0     C24207   6.819   8.321   3.588  0.2573  0.2841  0.3187
  901MOL0     O24208   6.894   8.389   3.486 -0.4522 -0.1109  0.2357
  901MOL0     C24209   6.883   8.533   3.475  0.2629 -0.2235 -0.0028
  901MOL0     C24210   6.764   8.557   3.386 -0.2157 -0.4023  0.5159
  901MOL0     C24211   6.722   8.705   3.377  0.3047  0.4151  0.7000
  901MOL0     C24212   6.746   8.769   3.233 -0.4410 -1.2611 -0.3040
  901MOL0     C24213   6.666   8.896   3.198 -0.1588  0.4165 -0.4982
  901MOL0     C24214   6.668   8.933   3.044 -0.5894  0.3335 -0.6276
  901MOL0     C24215   6.547   8.868   2.975  0.0956 -0.5904  1.5095
  901MOL0     C24216   6.544   8.907   2.826 -0.0529  0.0552 -0.2117
  901MOL0     N24217   6.449   8.829   2.738  0.7192 -0.1360  0.3523
  901MOL0     C24218   6.378   8.900   2.646  0.3475 -0.0333 -0.2685
  901MOL0     C24219   6.302   8.807   2.587 -0.2166 -0.8207 -0.4915
  901MOL0     C24220   6.192   8.848   2.486 -0.4310  0.3135 -0.2054
  901MOL0     C24221   6.066   8.897   2.567 -0.4234  0.8104  0.2073
  901MOL0     C24222   5.959   8.931   2.461  0.4299  0.1362  0.2512
  901MOL0     C24223   5.833   8.994   2.523  0.5228  1.2064  0.3011
  901MOL0     O24224   5.848   9.129   2.580 -0.4353  0.2310  0.3772
  901MOL0     C24225   5.850   9.249   2.516  0.1814  0.2449 -0.2446
  901MOL0     C24226   5.818   9.271   2.380  0.1849  0.0283 -1.0310
  901MOL0     C24227   5.830   9.396   2.324 -0.5264  0.5128 -0.0816
  901MOL0     C24228   5.802   9.408   2.173  0.7034 -0.3248  0.6760
  901MOL0     C24229   5.883   9.503   2.404  0.1763 -0.1303  0.4025
  901MOL0     C24230   5.908   9.637   2.348  0.1726 -0.0526 -0.4438
  901MOL0     O24231   5.801   9.705   2.311 -0.0039  0.0693 -0.5691
  901MOL0     C24232   5.826   9.808   2.231 -0.3909 -0.0571  0.2091
  901MOL0     C24233   5.793   9.791   2.098  1.3028 -0.6374  0.1279
  901MOL0     C24234   5.793   9.899   2.009 -0.4196 -0.0254  0.5234
  901MOL0     C24235   5.840  10.018   2.054 -0.2264  0.2014 -0.4173
  901MOL0     O24236   5.861  10.115   1.956  0.4423  0.3883 -0.1230
  901MOL0     C24237   5.949  10.230   1.982  1.2600  0.1624 -0.3536
  901MOL0     C24238   5.981  10.318   1.858 -1.2107  0.3536 -0.4863
  901MOL0     C24239   6.078  10.248   1.767 -0.5436 -0.4342 -0.4617
  901MOL0     C24240   6.119  10.321   1.639  0.3697 -0.2650 -0.6251
  901MOL0     C24241   6.086  10.251   1.515  0.5295  0.4801 -1.3513
  901MOL0     C24242   6.164  10.314   1.397 -0.2007  0.8123  0.2638
  901MOL0     C24243   6.143  10.248   1.252 -0.6014 -0.2769  0.0883
  901MOL0     C24244   6.008  10.262   1.184  0.5598  0.0198 -0.8275
  901MOL0    Cl24245   5.998  10.141   1.047  0.1473 -0.0134 -0.1283
  901MOL0     C24246   5.878  10.037   2.190  0.0857  0.0613 -0.9468
  901MOL0     C24247   5.862   9.928   2.280  0.5098  0.7600  0.0744
  901MOL0     O24248   6.020   9.674   2.340 -0.4573  0.3087  0.6789
  901MOL0     C24249   5.919   9.477   2.538  0.3409 -0.5046 -0.1592
  901MOL0     C24250   5.912   9.345   2.584 -0.2045 -0.0588  0.5705
  901MOL0     N24251   6.324   8.687   2.641 -0.2016 -0.5649 -0.2423
  901MOL0     N24252   6.405   8.699   2.741  0.5665 -0.2682 -0.2355
  901MOL0     C24253   6.824   8.371   3.718 -1.6535  0.4455  0.1342
  901MOL0     C24254   6.744   8.310   3.819 -0.1368 -1.3485 -0.5126
  901MOL0     C24255   6.522   7.927   4.002 -0.5093 -0.3500  0.1525
  901MOL0     C24256   6.582   7.841   4.112  0.5137 -1.0664 -0.1399
  901MOL0     C24257   6.498   7.746   4.170  0.4309 -0.3788  0.3842
  901MOL0     C24258   6.367   7.729   4.132  0.0716 -1.0512  0.9371
  901MOL0     O24259   6.282   7.635   4.181  0.1450 -0.1215  0.9246
  901MOL0     C24260   6.291   7.583   4.314  0.4309 -0.1327  0.3713
  901MOL0     C24261   6.205   7.460   4.334 -0.5401 -0.2548 -0.5205
  901MOL0     C24262   6.238   7.407   4.475  0.3533  0.8575  0.6586
  901MOL0     C24263   6.138   7.309   4.519 -0.3558 -0.3112 -0.3099
  901MOL0     C24264   6.146   7.187   4.444  0.1361 -1.6394  0.3890
  901MOL0     C24265   6.161   7.080   4.386  0.0482  0.0565  0.1818
  901MOL0     C24266   6.314   7.811   4.029 -0.4835  1.4013  1.0084
  901MOL0     C24267   6.389   7.913   3.962 -0.6640  0.7133 -0.5394
  901MOL0     C24268   6.331   7.993   3.842 -0.2248 -0.4115 -0.3253
  901MOL0     H24269   6.656   8.037   3.650  2.5300 -0.6660  1.3764
  901MOL0     H24270   6.745   8.150   3.474 -2.5417  0.5743 -1.0737
  901MOL0     H24271   6.966   8.563   3.409 -0.3197  0.3593 -0.4801
  901MOL0     H24272   6.877   8.596   3.564 -1.3699  3.2905 -2.3645
  901MOL0     H24273   6.806   8.521   3.291 -0.9759 -2.3885  0.8707
  901MOL0     H24274   6.683   8.489   3.415 -1.2651  0.4736 -0.2597
  901MOL0     H24275   6.614   8.699   3.397 -0.6854 -1.2718 -3.8558
  901MOL0     H24276   6.774   8.766   3.451 -1.2030  4.6636 -1.4075
  901MOL0     H24277   6.849   8.805   3.223 -1.4684  3.0150  2.0482
  901MOL0     H24278   6.729   8.688   3.161 -2.1677  0.4961 -1.9865
  901MOL0     H24279   6.723   8.976   3.244 -0.3342 -0.3549  1.1423
  901MOL0     H24280   6.563   8.887   3.233 -0.1085 -0.4512 -0.5447
  901MOL0     H24281   6.669   9.042   3.033  1.6978  0.6332  1.5244
  901MOL0     H24282   6.759   8.887   3.005 -0.3392  2.2567 -2.5018
  901MOL0     H24283   6.454   8.908   3.018 -0.9625 -0.1535 -1.0097
  901MOL0     H24284   6.557   8.760   2.988  0.4334 -1.8434 -5.3777
  901MOL0     H24285   6.538   9.016   2.830  0.9119  0.0783  2.0189
  901MOL0     H24286   6.648   8.889   2.797  0.5464 -0.2575  1.9617
  901MOL0     H24287   6.378   9.007   2.632  0.2477 -0.3930 -4.0244
  901MOL0     H24288   6.157   8.764   2.426  0.7569 -0.7880  0.5878
  901MOL0     H24289   6.240   8.928   2.429  1.0805 -0.2860  0.1814
  901MOL0     H24290   6.025   8.825   2.639  1.0208  0.1544  0.4202
  901MOL0     H24291   6.094   8.984   2.628 -4.9832  2.4039  0.4122
  901MOL0     H24292   5.997   9.003   2.387  1.7522 -1.9705 -1.2583
  901MOL0     H24293   5.944   8.836   2.407  2.2304  0.1202 -0.2966
  901MOL0     H24294   5.765   8.989   2.437  1.4289  1.6813 -0.4745
  901MOL0     H24295   5.793   8.926   2.598 -1.4591  1.5738 -0.3740
  901MOL0     H24296   5.773   9.193   2.321  2.5154 -1.9777 -0.3113
  901MOL0     H24297   5.879   9.472   2.130 -0.3315  0.4993 -0.0001
  901MOL0     H24298   5.704   9.456   2.165  1.2655  0.6513 -0.6330
  901MOL0     H24299   5.787   9.306   2.135  0.7381 -0.5264  1.1920
  901MOL0     H24300   5.765   9.694   2.058  1.6656  0.1325 -2.1650
  901MOL0     H24301   5.790   9.882   1.901  1.2220  1.0555  0.2747
  901MOL0     H24302   5.904  10.305   2.048  3.0703  1.1071 -0.1321
  901MOL0     H24303   6.043  10.189   2.020 -0.2858 -3.5096 -0.1357
  901MOL0     H24304   5.890  10.355   1.809 -1.9008 -1.0090 -0.2968
  901MOL0     H24305   6.032  10.405   1.899 -0.9291 -0.2631  0.5061
  901MOL0     H24306   6.039  10.148   1.749 -0.9598 -0.4677  0.5664
  901MOL0     H24307   6.164  10.241   1.834 -1.9799  0.1428  1.5272
  901MOL0     H24308   6.226  10.345   1.646  0.1974  0.5394 -0.7039
  901MOL0     H24309   6.074  10.420   1.639  1.1705  0.1286  0.7364
  901MOL0     H24310   6.100  10.143   1.505 -2.6647  0.0413 -2.0082
  901MOL0     H24311   5.979  10.261   1.497  0.1362 -1.6519 -0.4979
  901MOL0     H24312   6.270  10.316   1.424  0.6117  2.5962 -2.6198
  901MOL0     H24313   6.125  10.417   1.397  0.4907  1.0794  0.6392
  901MOL0     H24314   6.184  10.147   1.250 -1.5546 -0.6792  0.4974
  901MOL0     H24315   6.211  10.299   1.183  1.5669 -4.2607 -0.9909
  901MOL0     H24316   5.990  10.367   1.159  0.3494 -0.0927 -1.1604
  901MOL0     H24317   5.932  10.250   1.262  1.0224  0.5939 -0.2760
  901MOL0     H24318   5.929  10.126   2.227 -1.3357  1.1261 -1.4658
  901MOL0     H24319   5.895   9.934   2.383  0.2649 -0.3830  0.2284
  901MOL0     H24320   5.947   9.560   2.603 -1.2888 -1.0639  1.3430
  901MOL0     H24321   5.945   9.319   2.684 -1.2972 -2.3960  0.3890
  901MOL0     H24322   6.886   8.452   3.754 -1.0834 -0.4939  1.3712
  901MOL0     H24323   6.732   8.348   3.920 -1.0683  0.9768 -1.4157
  901MOL0     H24324   6.684   7.854   4.145 -0.0368  3.3585  0.4921
  901MOL0     H24325   6.539   7.704   4.262 -1.1284  1.2742  1.9223
  901MOL0     H24326   6.390   7.548   4.345  1.4138 -0.3321 -2.6210
  901MOL0     H24327   6.258   7.657   4.387  2.3387 -0.0804  1.2417
  901MOL0     H24328   6.205   7.374   4.266 -4.4420 -1.7849  1.0923
  901MOL0     H24329   6.100   7.492   4.333 -0.5954 -0.3428  1.0706
  901MOL0     H24330   6.339   7.369   4.494 -1.0704 -3.4113  0.6472
  901MOL0     H24331   6.225   7.486   4.550 -3.0127 -0.9447  2.1633
  901MOL0     H24332   6.036   7.347   4.525  0.3643  1.3979  2.8667
  901MOL0     H24333   6.181   7.278   4.615  3.2221 -1.2352 -2.0295
  901MOL0     H24334   6.167   6.987   4.334 -1.2840 -0.5411  1.0437
  901MOL0     H24335   6.209   7.795   4.009  0.0783  0.5135 -1.6990
  901MOL0     H24336   6.341   8.101   3.848 -1.9648 -0.3154  3.4312
  901MOL0     H24337   6.391   7.953   3.759 -2.0483  0.1327 -1.9752
  901MOL0     H24338   6.227   7.964   3.824 -1.2301  1.8997  1.3549
  902MOL0     O24339   1.226   4.087   0.877 -0.5310 -0.4459 -0.0482
  902MOL0     C24340   1.177   4.188   0.821  0.1420  0.2499  0.2444
  902MOL0     O24341   1.247   4.294   0.777 -0.1408 -0.4161  0.3317
  902MOL0     C24342   1.383   4.286   0.752 -0.3394  0.2336 -0.4175
  902MOL0     C24343   1.421   4.254   0.626 -0.2818  0.9134  0.3896
  902MOL0     C24344   1.551   4.263   0.587  0.5333 -0.6288  0.6889
  902MOL0     C24345   1.651   4.307   0.672 -0.1724 -0.1941 -0.1800
  902MOL0     O24346   1.772   4.320   0.620 -0.6275 -0.5617 -0.4870
  902MOL0     C24347   1.895   4.305   0.698 -0.3636  0.4470 -0.6880
  902MOL0     C24348   1.976   4.434   0.750 -0.0436 -0.2524 -0.8506
  902MOL0     C24349   2.078   4.426   0.860  0.2602 -0.0565  0.1888
  902MOL0     C24350   2.172   4.307   0.847 -0.1392  0.2169 -0.0484
  902MOL0     C24351   2.216   4.256   0.982  0.7549 -0.8901 -0.7419
  902MOL0     C24352   2.297   4.132   0.970 -0.8271 -0.3187 -0.1120
  902MOL0     C24353   2.341   4.067   1.104  0.3080  0.7976  0.6279
  902MOL0     C24354   2.465   3.982   1.083 -0.5481  1.0021 -1.3280
  902MOL0     N24355   2.536   3.943   1.206  0.1024  0.5069 -0.1676
  902MOL0     C24356   2.560   4.030   1.308  0.4981 -0.3259 -0.3134
  902MOL0     C24357   2.518   3.959   1.421 -0.1929 -0.6468  0.0515
  902MOL0     C24358   2.478   4.002   1.561  0.3910 -0.6303 -0.1885
  902MOL0     C24359   2.337   3.951   1.599 -0.1095 -0.5394 -0.0087
  902MOL0     C24360   2.293   3.994   1.738 -0.5255  0.2563 -0.6775
  902MOL0     C24361   2.139   3.999   1.749  0.3594  0.7648  0.4674
  902MOL0     O24362   2.071   4.078   1.648 -0.2542  0.1401 -0.3160
  902MOL0     C24363   2.001   4.195   1.679 -0.3084 -0.2033  0.0848
  902MOL0     C24364   2.022   4.265   1.798 -0.1966  0.5983 -0.7147
  902MOL0     C24365   1.952   4.383   1.828 -0.9365 -0.2622  0.5860
  902MOL0     C24366   1.979   4.444   1.965  0.8155 -0.1106  0.2789
  902MOL0     C24367   1.854   4.430   1.738  0.5857 -0.2163  0.2575
  902MOL0     C24368   1.755   4.548   1.761 -0.3075 -0.4437  0.0655
  902MOL0     O24369   1.746   4.615   1.877  0.5704  0.3892 -0.9068
  902MOL0     C24370   1.668   4.728   1.899 -0.2478  0.5247 -0.9573
  902MOL0     C24371   1.717   4.821   1.996  0.7125  0.1154  0.0277
  902MOL0     C24372   1.652   4.940   2.012  0.0506 -1.3744  0.3322
  902MOL0     C24373   1.530   4.970   1.943 -0.6128 -0.0097  0.2505
  902MOL0     O24374   1.452   5.089   1.960 -1.1348  0.1420  0.9339
  902MOL0     C24375   1.488   5.179   2.066  0.2017 -0.4085  0.0001
  902MOL0     C24376   1.381   5.295   2.096  0.8989  0.7363 -0.3975
  902MOL0     C24377   1.382   5.409   2.000 -0.1589  0.6652  0.1537
  902MOL0     C24378   1.263   5.514   2.003  0.5779 -0.6393 -0.2563
  902MOL0     C24379   1.272   5.581   2.133 -0.1893  0.6174 -0.4398
  902MOL0     C24380   1.197   5.712   2.158  0.5013 -1.1510 -0.1588
  902MOL0     C24381   1.211   5.757   2.310 -0.0407 -0.3947  0.0353
  902MOL0     C24382   1.109   5.868   2.340 -0.1644  0.3098 -0.0817
  902MOL0    Cl24383   1.080   5.877   2.518  0.4064  0.2898 -0.2107
  902MOL0     C24384   1.481   4.875   1.850 -1.3966 -0.0642 -0.3353
  902MOL0     C24385   1.547   4.759   1.835  1.4684  0.3182  0.2319
  902MOL0     O24386   1.695   4.586   1.663  0.0899  0.4325  0.0495
  902MOL0     C24387   1.831   4.351   1.621  0.3841  0.5856  0.0347
  902MOL0     C24388   1.909   4.242   1.589  0.2268 -0.7816 -0.2294
  902MOL0     N24389   2.503   3.827   1.378  0.6930 -0.6544  0.3281
  902MOL0     N24390   2.515   3.819   1.256 -0.4847  0.8935  0.2527
  902MOL0     C24391   1.611   4.345   0.804 -0.2843  1.0194 -0.6703
  902MOL0     C24392   1.477   4.336   0.845 -0.0802 -0.3920  0.3959
  902MOL0     C24393   1.028   4.193   0.802  0.3523  0.0561 -0.2712
  902MOL0     C24394   0.983   4.288   0.706 -0.3697  0.0842 -0.0966
  902MOL0     C24395   0.844   4.308   0.690 -0.2515 -0.3271 -0.7326
  902MOL0     C24396   0.756   4.227   0.767  1.0908  0.1287  0.4320
  902MOL0     O24397   0.618   4.230   0.770 -0.3983  0.0193 -0.7223
  902MOL0     C24398   0.550   4.295   0.661 -0.8113  0.4991 -0.8207
  902MOL0     C24399   0.397   4.273   0.675  0.6641  0.1319 -0.4478
  902MOL0     C24400   0.351   4.128   0.717  0.7722 -0.2077 -0.7185
  902MOL0     C24401   0.216   4.099   0.669 -0.2666  0.1783 -0.4505
  902MOL0     C24402   0.220   4.045   0.541  0.4783 -0.1904  0.4819
  902MOL0     C24403   0.239   3.978   0.443 -1.0420 -0.4785  0.3250
  902MOL0     C24404   0.801   4.142   0.866  0.3472 -0.8231  0.0660
  902MOL0     C24405   0.938   4.119   0.884 -0.9107 -1.5003  0.8101
  902MOL0     C24406   0.975   4.026   0.993  0.1285  1.2702 -0.8960
  902MOL0     H24407   1.339   4.234   0.558  1.2835  1.2375 -1.7142
  902MOL0     H24408   1.561   4.248   0.479 -0.2725 -3.2595  0.9041
  902MOL0     H24409   1.966   4.248   0.639 -0.7159  0.7777 -1.4408
  902MOL0     H24410   1.869   4.235   0.778  0.6111  1.0010  0.1420
  902MOL0     H24411   2.033   4.463   0.661  1.8342 -2.9859 -0.6520
  902MOL0     H24412   1.908   4.518   0.766  1.2786  0.8010 -0.5350
  902MOL0     H24413   2.137   4.518   0.849  0.5508 -0.2037  0.4956
  902MOL0     H24414   2.034   4.429   0.960  1.5138 -1.0648  0.7968
  902MOL0     H24415   2.127   4.221   0.795 -0.4098  1.3906 -1.8423
  902MOL0     H24416   2.258   4.337   0.787 -0.6264 -0.3323 -1.0557
  902MOL0     H24417   2.131   4.222   1.041  0.7424  1.1339  0.4942
  902MOL0     H24418   2.263   4.343   1.028  0.8847 -2.2696  1.9077
  902MOL0     H24419   2.241   4.063   0.906 -1.9351  0.3544  0.1203
  902MOL0     H24420   2.381   4.178   0.917 -0.6745  0.6426  0.9377
  902MOL0     H24421   2.266   3.998   1.143  0.0870 -0.2716 -1.5156
  902MOL0     H24422   2.350   4.137   1.187  3.1425 -0.8928  1.9033
  902MOL0     H24423   2.461   3.894   1.019  0.3116  0.2408 -0.3927
  902MOL0     H24424   2.538   4.048   1.035  0.3193  0.5336 -0.7051
  902MOL0     H24425   2.570   4.137   1.290 -2.9811 -0.0913 -1.5874
  902MOL0     H24426   2.477   4.111   1.557 -1.7518 -0.6102  0.1835
  902MOL0     H24427   2.538   3.960   1.643 -1.7126 -1.5300  0.9568
  902MOL0     H24428   2.261   3.980   1.526  2.6335 -0.0156 -2.8955
  902MOL0     H24429   2.338   3.842   1.601 -1.3134 -0.5801 -0.6672
  902MOL0     H24430   2.325   3.925   1.817 -1.4214  2.5121  1.7797
  902MOL0     H24431   2.323   4.098   1.756  1.2896 -0.1349 -1.1902
  902MOL0     H24432   2.098   3.898   1.745  2.6298 -0.2279  0.5560
  902MOL0     H24433   2.112   4.020   1.853 -0.3536  1.6147  0.1232
  902MOL0     H24434   2.089   4.224   1.873 -0.5720 -1.5192 -1.4630
  902MOL0     H24435   1.910   4.394   2.034  0.4683 -2.5669 -1.7010
  902MOL0     H24436   1.962   4.552   1.965  0.7761 -0.1120 -0.4996
  902MOL0     H24437   2.083   4.420   1.989  0.8689 -0.6368 -0.4421
  902MOL0     H24438   1.813   4.803   2.042  1.5484  0.2409 -1.6019
  902MOL0     H24439   1.701   5.010   2.079  0.6760 -2.4680  1.0556
  902MOL0     H24440   1.492   5.119   2.158 -1.8964 -0.4966  0.0966
  902MOL0     H24441   1.589   5.210   2.040  0.5187 -1.6511 -0.3138
  902MOL0     H24442   1.283   5.246   2.090  2.7321 -3.2336 -1.4440
  902MOL0     H24443   1.396   5.331   2.198  0.0803 -1.4317  0.5588
  902MOL0     H24444   1.390   5.371   1.898 -1.6839 -2.8825  1.1996
  902MOL0     H24445   1.481   5.452   2.017  0.5806 -0.6847 -0.5816
  902MOL0     H24446   1.163   5.472   1.989 -0.1895  0.1986  2.1826
  902MOL0     H24447   1.284   5.593   1.930 -1.2474 -0.3250 -0.4863
  902MOL0     H24448   1.244   5.504   2.206  2.1334  1.1473  1.1381
  902MOL0     H24449   1.373   5.602   2.172 -0.8319  3.5475 -0.1355
  902MOL0     H24450   1.092   5.698   2.130 -0.2802  1.2854  1.2863
  902MOL0     H24451   1.236   5.791   2.093 -0.5385 -0.5553 -0.0844
  902MOL0     H24452   1.313   5.786   2.335 -1.0212  1.4958  2.2599
  902MOL0     H24453   1.191   5.682   2.387 -0.5435  0.3175  0.6157
  902MOL0     H24454   1.008   5.858   2.298 -1.5197  1.6309  2.6203
  902MOL0     H24455   1.149   5.962   2.301  1.2643 -0.8553 -1.5687
  902MOL0     H24456   1.386   4.873   1.797  0.5549  0.2867 -4.2167
  902MOL0     H24457   1.503   4.692   1.762  0.8896  0.8104  0.1206
  902MOL0     H24458   1.752   4.379   1.553 -0.5465  3.0031  1.9485
  902MOL0     H24459   1.912   4.189   1.495  2.5003 -1.8366  0.3667
  902MOL0     H24460   1.680   4.384   0.877 -0.2586 -0.9004  0.3853
  902MOL0     H24461   1.448   4.386   0.937  4.5666  2.1477  0.7897
  902MOL0     H24462   1.048   4.352   0.646  0.6006  2.3111  3.0680
  902MOL0     H24463   0.805   4.379   0.618 -2.1368 -1.2613 -0.6932
  902MOL0     H24464   0.570   4.401   0.672  0.0785  0.2132  0.5343
  902MOL0     H24465   0.586   4.256   0.565  2.4748 -0.6938  0.7591
  902MOL0     H24466   0.352   4.291   0.577  1.4286  1.5917 -0.5667
  902MOL0     H24467   0.371   4.357   0.739 -1.4918 -1.6154  1.1061
  902MOL0     H24468   0.428   4.056   0.687  2.7048  1.0664  0.8984
  902MOL0     H24469   0.363   4.132   0.826 -0.0720 -0.2460 -0.6153
  902MOL0     H24470   0.139   4.177   0.666 -1.4611 -0.9998 -1.5580
  902MOL0     H24471   0.182   4.022   0.738  0.9108  2.2140  2.6476
  902MOL0     H24472   0.256   3.928   0.350 -0.2490 -0.2668  0.3537
  902MOL0     H24473   0.721   4.095   0.921 -1.3775  2.9712  1.1755
  902MOL0     H24474   0.889   3.995   1.053  0.2428  0.2092 -1.2683
  902MOL0     H24475   1.035   3.943   0.955 -1.0259  0.1397 -0.3000
  902MOL0     H24476   1.053   4.080   1.048  3.4627 -1.4601 -2.5965
  903MOL0     O24477  11.016  10.238   2.004  0.8949  0.3731 -0.4835
  903MOL0     C24478  11.069  10.233   1.895 -0.7675  0.0857 -0.7477
  903MOL0     O24479  11.024  10.160   1.788 -0.6540 -0.0704 -0.9659
  903MOL0     C24480  10.898  10.110   1.806 -0.4079 -0.0064 -0.9341
  903MOL0     C24481  10.788  10.180   1.760 -0.1657 -0.0790 -0.0736
  903MOL0     C24482  10.655  10.130   1.769 -0.5148  0.3923  0.2555
  903MOL0     C24483  10.644   9.995   1.805  0.5103  0.8622  0.6429
  903MOL0     O24484  10.524   9.933   1.822  0.8853  0.1676 -0.3789
  903MOL0     C24485  10.422   9.984   1.911 -0.0492 -0.0658  1.1949
  903MOL0     C24486  10.294   9.910   1.904  0.7094  0.3903 -0.6826
  903MOL0     C24487  10.309   9.762   1.929  0.8562  0.0532  0.4130
  903MOL0     C24488  10.188   9.686   1.883  1.2999  0.0734 -0.4079
  903MOL0     C24489  10.159   9.548   1.954 -0.3408  0.4709  0.3078
  903MOL0     C24490  10.128   9.575   2.106  0.0179  0.2220 -0.8552
  903MOL0     C24491  10.033   9.464   2.163 -0.0953  1.5961 -0.2024
  903MOL0     C24492  10.077   9.313   2.128 -0.8197 -0.7630 -0.3119
  903MOL0     N24493  10.221   9.289   2.147  0.2772  0.3700  0.3947
  903MOL0     C24494  10.288   9.273   2.263  0.3848 -0.3521 -0.8316
  903MOL0     C24495  10.411   9.258   2.230 -0.3626 -0.4596  0.2255
  903MOL0     C24496  10.515   9.234   2.329 -0.0037 -0.3868 -0.7902
  903MOL0     C24497  10.564   9.090   2.317 -0.9406 -0.2784  0.1196
  903MOL0     C24498  10.656   9.043   2.425 -0.0321 -0.2546  0.1797
  903MOL0     C24499  10.700   8.893   2.433  0.4130  0.6760  0.1304
  903MOL0     O24500  10.827   8.879   2.506  0.4687  0.0806  0.3297
  903MOL0     C24501  10.885   8.756   2.528  0.2458  0.4233  0.0225
  903MOL0     C24502  10.841   8.628   2.496 -0.1608 -0.2284  0.7641
  903MOL0     C24503  10.912   8.516   2.513 -0.4500  0.0018 -1.2556
  903MOL0     C24504  10.843   8.389   2.456  0.0644 -0.6120 -0.4416
  903MOL0     C24505  11.043   8.520   2.558 -0.5236 -0.3001 -0.5280
  903MOL0     C24506  11.131   8.403   2.578 -0.5213  0.5948  0.4653
  903MOL0     O24507  11.270   8.435   2.594 -0.0082 -0.3243 -0.3155
  903MOL0     C24508  11.367   8.345   2.631  0.5176  0.5818 -0.1283
  903MOL0     C24509  11.347   8.207   2.659 -0.0894  0.5489 -0.3522
  903MOL0     C24510  11.456   8.126   2.691  0.0753  0.2100 -0.2062
  903MOL0     C24511  11.590   8.169   2.684 -0.2506  0.2434  0.6146
  903MOL0     O24512  11.680   8.077   2.716 -0.4806 -0.2866  0.5040
  903MOL0     C24513  11.810   8.135   2.728 -0.3586  0.4970  0.5281
  903MOL0     C24514  11.922   8.032   2.737 -0.1632  0.1316 -0.0607
  903MOL0     C24515  11.937   7.975   2.882 -0.2593 -1.2734  0.4945
  903MOL0     C24516  12.034   7.858   2.884  0.1897  0.7185 -0.3815
  903MOL0     C24517  11.991   7.767   3.000 -0.7492  0.2905 -0.2644
  903MOL0     C24518  12.098   7.672   3.044 -0.6837  0.0298  1.1092
  903MOL0     C24519  12.183   7.603   2.928  0.2147 -0.0848 -0.1518
  903MOL0     C24520  12.118   7.478   2.865 -0.1136 -0.3268  1.1765
  903MOL0    Cl24521  12.129   7.484   2.681 -0.0643  0.2515 -0.2047
  903MOL0     C24522  11.609   8.312   2.675 -0.6555  0.3247 -0.2519
  903MOL0     C24523  11.498   8.393   2.638  0.6539 -0.5009 -0.4436
  903MOL0     O24524  11.075   8.297   2.593 -0.2487  0.1256  1.3301
  903MOL0     C24525  11.096   8.643   2.585  0.5306 -0.5463  0.5323
  903MOL0     C24526  11.017   8.760   2.578  0.6389  0.2545  0.2961
  903MOL0     N24527  10.430   9.261   2.098  0.7576  0.4553 -0.0379
  903MOL0     N24528  10.311   9.270   2.043 -0.0562 -0.6107  0.2142
  903MOL0     C24529  10.758   9.919   1.831 -0.2586  0.5022  0.3983
  903MOL0     C24530  10.884   9.982   1.837 -0.7759 -0.0401 -0.2014
  903MOL0     C24531  11.202  10.296   1.880 -0.8094  0.7109 -0.0075
  903MOL0     C24532  11.293  10.234   1.791  0.4319 -0.5550  0.4415
  903MOL0     C24533  11.425  10.281   1.788  0.2962 -0.0717  0.0116
  903MOL0     C24534  11.471  10.393   1.853  0.2849 -1.1542  0.5727
  903MOL0     O24535  11.598  10.447   1.846  0.4954  0.7394 -0.0126
  903MOL0     C24536  11.696  10.362   1.773 -0.2976  0.4517  0.6872
  903MOL0     C24537  11.690  10.375   1.614  0.0671  0.6922  0.0191
  903MOL0     C24538  11.728  10.512   1.564  0.5992  0.8176 -0.7455
  903MOL0     C24539  11.686  10.536   1.417 -0.4084  0.1287  0.7289
  903MOL0     C24540  11.705  10.676   1.380  0.5300 -0.1448  0.2695
  903MOL0     C24541  11.738  10.789   1.349  0.0464  0.5441 -0.0673
  903MOL0     C24542  11.376  10.451   1.939  0.6321  0.1666  0.7588
  903MOL0     C24543  11.245  10.402   1.965  0.2000  0.1805  0.3087
  903MOL0     C24544  11.174  10.472   2.071  0.5925 -0.4835 -0.5456
  903MOL0     H24545  10.801  10.286   1.737  3.4430 -0.1487  1.1038
  903MOL0     H24546  10.572  10.193   1.741 -0.5401 -0.7132 -2.4957
  903MOL0     H24547  10.400  10.085   1.876 -0.0663 -0.8376 -1.1957
  903MOL0     H24548  10.463   9.983   2.013  2.1235  1.8577  0.4220
  903MOL0     H24549  10.220   9.954   1.972 -0.8119 -0.8253 -1.5052
  903MOL0     H24550  10.256   9.925   1.803  0.5906  2.3762 -0.3828
  903MOL0     H24551  10.401   9.726   1.882  1.7305  1.4520  0.9580
  903MOL0     H24552  10.321   9.751   2.037  2.7273  0.6522  0.3178
  903MOL0     H24553  10.100   9.750   1.892  1.1774 -0.2704  1.1186
  903MOL0     H24554  10.195   9.663   1.776  1.4731 -1.0232 -0.1679
  903MOL0     H24555  10.235   9.470   1.944 -1.3855 -0.8342  1.9988
  903MOL0     H24556  10.063   9.508   1.920 -2.4732  1.8490  4.1339
  903MOL0     H24557  10.223   9.566   2.161  1.2041 -0.2094 -2.8557
  903MOL0     H24558  10.081   9.672   2.121 -2.4254 -0.6697 -2.2333
  903MOL0     H24559   9.937   9.478   2.111 -1.7292 -0.3560  2.0968
  903MOL0     H24560  10.021   9.469   2.271  2.4167 -0.3384  0.2482
  903MOL0     H24561  10.024   9.242   2.192 -2.9549  2.1135  1.3349
  903MOL0     H24562  10.048   9.292   2.025 -2.7034 -1.1455  0.2658
  903MOL0     H24563  10.229   9.267   2.354 -0.1911  3.3729 -0.7783
  903MOL0     H24564  10.465   9.264   2.421 -0.5095  1.2710 -1.5736
  903MOL0     H24565  10.587   9.314   2.312 -2.2913  1.7951 -0.8479
  903MOL0     H24566  10.476   9.027   2.331 -1.3289  0.8261  3.3260
  903MOL0     H24567  10.619   9.077   2.223  2.2564 -1.0981  1.9290
  903MOL0     H24568  10.753   9.093   2.430  0.5149 -1.3457  3.5644
  903MOL0     H24569  10.618   9.079   2.522  2.8559 -0.4112  1.4921
  903MOL0     H24570  10.630   8.825   2.482 -0.5572  3.0021  2.1798
  903MOL0     H24571  10.722   8.854   2.333  3.7784 -0.8192  1.2973
  903MOL0     H24572  10.740   8.613   2.458  0.3182 -0.2286 -0.5511
  903MOL0     H24573  10.812   8.313   2.528  1.6512 -0.4539  0.4632
  903MOL0     H24574  10.917   8.329   2.403  0.9443 -0.8848  1.0183
  903MOL0     H24575  10.770   8.418   2.380  0.7851 -2.6106 -1.9613
  903MOL0     H24576  11.250   8.159   2.649  1.2971 -2.2219 -1.5257
  903MOL0     H24577  11.426   8.027   2.725  2.7710 -0.7649 -0.3863
  903MOL0     H24578  11.829   8.186   2.633 -1.2078 -2.8792 -1.6160
  903MOL0     H24579  11.818   8.197   2.818 -2.2352 -1.9999  2.5551
  903MOL0     H24580  11.916   7.949   2.667 -0.0601 -0.9907  1.2174
  903MOL0     H24581  12.014   8.090   2.729  0.1136 -0.1954  0.6750
  903MOL0     H24582  11.843   7.926   2.910 -0.9720 -1.0118 -1.3482
  903MOL0     H24583  11.956   8.049   2.961 -2.4125  2.3898 -2.1209
  903MOL0     H24584  12.135   7.900   2.892  0.8206 -0.6806 -0.7586
  903MOL0     H24585  12.038   7.799   2.792 -1.2100 -0.2563  0.1545
  903MOL0     H24586  11.964   7.823   3.090 -0.1884 -0.2868  0.2618
  903MOL0     H24587  11.902   7.718   2.960  0.8243 -2.3921 -0.6948
  903MOL0     H24588  12.051   7.589   3.099 -3.3976  0.8058  0.1397
  903MOL0     H24589  12.171   7.727   3.104 -3.1939  4.6667  0.4202
  903MOL0     H24590  12.278   7.569   2.971 -1.3753 -5.0002 -0.0001
  903MOL0     H24591  12.204   7.673   2.847 -1.9857 -0.3438 -0.9987
  903MOL0     H24592  12.012   7.483   2.889 -0.8358  1.8423 -1.8453
  903MOL0     H24593  12.163   7.391   2.914 -0.5844 -1.9759 -1.1750
  903MOL0     H24594  11.708   8.355   2.670 -1.4248  2.2347  0.0570
  903MOL0     H24595  11.509   8.498   2.618 -0.0681 -0.5183 -0.9801
  903MOL0     H24596  11.191   8.653   2.637 -0.7472  0.1681  2.8669
  903MOL0     H24597  11.064   8.855   2.600 -1.0042  0.4770  3.3790
  903MOL0     H24598  10.753   9.813   1.852 -0.4858  0.7639  1.7697
  903MOL0     H24599  10.966   9.917   1.865 -1.0801 -0.2868  0.1217
  903MOL0     H24600  11.273  10.142   1.737 -0.1723  1.1874 -2.5341
  903MOL0     H24601  11.497  10.222   1.732  1.5476  2.7679 -1.6626
  903MOL0     H24602  11.794  10.397   1.807  0.2512  0.1533 -0.5394
  903MOL0     H24603  11.692  10.255   1.795 -3.8193  0.6984  1.9889
  903MOL0     H24604  11.584  10.355   1.595 -0.3124  1.1620  1.4838
  903MOL0     H24605  11.755  10.300   1.567 -0.4964 -1.3232  2.2469
  903MOL0     H24606  11.687  10.580   1.639 -1.5024 -1.5476  0.3575
  903MOL0     H24607  11.838  10.511   1.562  0.7613 -0.7237  2.4602
  903MOL0     H24608  11.580  10.512   1.413 -1.0248  2.6686 -0.3497
  903MOL0     H24609  11.738  10.466   1.351  1.4472  1.7085  0.4009
  903MOL0     H24610  11.763  10.881   1.300 -1.0755 -0.5342 -2.8514
  903MOL0     H24611  11.417  10.532   1.998 -0.5846 -0.4252  2.5198
  903MOL0     H24612  11.248  10.538   2.117  0.7611 -1.1243  0.1186
  903MOL0     H24613  11.082  10.523   2.041 -0.4068 -1.3570  0.8942
  903MOL0     H24614  11.148  10.395   2.145  2.6935 -1.0829 -0.3558
  904MOL0     O24615   1.210   7.468   5.219  1.0310  0.2466  0.2600
  904MOL0     C24616   1.123   7.477   5.131  0.6725 -0.1402  1.1450
  904MOL0     O24617   1.111   7.587   5.040 -0.2765 -0.5443 -0.1288
  904MOL0     C24618   1.233   7.653   5.010 -0.3617 -1.4239 -0.1822
  904MOL0     C24619   1.306   7.711   5.115  0.7996 -0.0011  0.6683
  904MOL0     C24620   1.437   7.765   5.096 -0.1904  0.2619  0.5368
  904MOL0     C24621   1.494   7.754   4.967 -1.7359  0.2969 -0.5615
  904MOL0     O24622   1.626   7.788   4.950  0.7085  0.2403 -0.1700
  904MOL0     C24623   1.706   7.679   4.895 -0.7441  0.8849 -1.0586
  904MOL0     C24624   1.729   7.568   4.993 -0.7570  0.3963  0.0404
  904MOL0     C24625   1.794   7.631   5.106 -1.0383 -0.3297 -0.6268
  904MOL0     C24626   1.829   7.520   5.212 -0.4606  0.6807  0.1385
  904MOL0     C24627   1.913   7.569   5.321 -0.4935 -0.3329 -0.1931
  904MOL0     C24628   1.936   7.466   5.441  0.2018 -0.9162 -0.0211
  904MOL0     C24629   2.031   7.351   5.390  0.9026 -0.3916 -0.5208
  904MOL0     C24630   2.175   7.373   5.348 -0.6270 -0.6040  0.4040
  904MOL0     N24631   2.234   7.250   5.307  1.5479 -0.4156 -0.2516
  904MOL0     C24632   2.265   7.151   5.396  0.6796  0.0727  0.1735
  904MOL0     C24633   2.296   7.046   5.311 -0.9347 -0.4641 -0.6151
  904MOL0     C24634   2.335   6.914   5.364  0.0469 -0.3174  0.3351
  904MOL0     C24635   2.488   6.920   5.386 -0.3430 -0.7829 -0.3265
  904MOL0     C24636   2.539   6.773   5.410  0.5766 -0.4473 -0.0181
  904MOL0     C24637   2.692   6.785   5.439 -0.2507  0.5784  0.3313
  904MOL0     O24638   2.743   6.659   5.405 -0.9145  0.5530  0.5012
  904MOL0     C24639   2.860   6.658   5.349 -0.0285 -0.5679  0.4416
  904MOL0     C24640   2.966   6.748   5.369  0.5686 -0.1607 -0.2688
  904MOL0     C24641   3.084   6.731   5.308 -0.1123  1.1244 -0.7762
  904MOL0     C24642   3.188   6.829   5.347 -0.1100 -0.3489  0.0854
  904MOL0     C24643   3.114   6.611   5.231  0.3842  0.1298  0.6739
  904MOL0     C24644   3.240   6.579   5.153  0.1114 -0.2443 -0.8091
  904MOL0     O24645   3.256   6.457   5.109 -0.4809 -0.4454  0.7073
  904MOL0     C24646   3.375   6.407   5.048  0.2678 -0.4571 -0.4335
  904MOL0     C24647   3.373   6.319   4.944 -0.3717  0.2192  0.4966
  904MOL0     C24648   3.487   6.273   4.889 -0.2980  0.6349 -0.4467
  904MOL0     C24649   3.611   6.315   4.934 -0.4698 -0.4330 -0.3312
  904MOL0     O24650   3.709   6.236   4.879  1.1684 -0.1179 -0.4774
  904MOL0     C24651   3.847   6.269   4.893 -0.3404  0.1794  0.0498
  904MOL0     C24652   3.934   6.165   4.813 -0.0803 -0.4125 -0.4011
  904MOL0     C24653   3.874   6.117   4.683  0.1412  0.5357 -0.4458
  904MOL0     C24654   3.980   6.038   4.609 -0.3595 -0.4524 -0.5535
  904MOL0     C24655   3.938   6.035   4.460  0.7311  0.0107  0.2175
  904MOL0     C24656   3.992   5.912   4.388 -0.4302  0.4443 -0.1143
  904MOL0     C24657   3.957   5.911   4.240 -1.1304 -0.4374  0.6753
  904MOL0     C24658   3.991   5.778   4.164 -0.2685 -0.7140  0.0411
  904MOL0    Cl24659   3.863   5.659   4.193  0.2176  0.0494 -0.4491
  904MOL0     C24660   3.621   6.411   5.032 -0.5738 -0.8220 -0.0159
  904MOL0     C24661   3.504   6.452   5.087  0.2927  0.3861  0.1887
  904MOL0     O24662   3.322   6.669   5.125  0.5269  0.1299 -0.9613
  904MOL0     C24663   3.009   6.527   5.210 -0.3788  0.5846 -0.5558
  904MOL0     C24664   2.882   6.557   5.264 -1.1337  0.1009  0.3590
  904MOL0     N24665   2.294   7.086   5.178  0.2300  0.6607 -0.3965
  904MOL0     N24666   2.244   7.201   5.188  0.4570 -0.1344  0.6221
  904MOL0     C24667   1.424   7.708   4.865  0.0949  0.1307  0.8377
  904MOL0     C24668   1.292   7.663   4.879  0.1346  0.6309 -0.8441
  904MOL0     C24669   1.013   7.371   5.125 -0.5508  0.5931 -1.2630
  904MOL0     C24670   0.901   7.407   5.048 -0.0783 -0.3169  0.2710
  904MOL0     C24671   0.791   7.321   5.028 -0.5967 -0.0015  0.5283
  904MOL0     C24672   0.793   7.196   5.095  0.5929  0.9182  1.1684
  904MOL0     O24673   0.700   7.103   5.087  1.4365 -0.0739 -0.5547
  904MOL0     C24674   0.594   7.094   4.995 -0.4208 -0.2514 -0.2056
  904MOL0     C24675   0.512   6.966   5.029  0.2078  0.2204 -0.4816
  904MOL0     C24676   0.585   6.841   5.085  0.9598 -0.5773 -0.2071
  904MOL0     C24677   0.703   6.800   4.995 -0.0491  0.0504  0.8457
  904MOL0     C24678   0.800   6.731   5.077 -0.2974 -0.0350 -0.8281
  904MOL0     C24679   0.860   6.684   5.174  0.4235  1.1965 -0.1459
  904MOL0     C24680   0.904   7.161   5.167 -0.0719  0.7180 -0.3155
  904MOL0     C24681   1.008   7.246   5.187 -0.4717 -0.1802  0.1374
  904MOL0     C24682   1.112   7.191   5.289  0.3180  0.0861  0.7430
  904MOL0     H24683   1.266   7.703   5.216 -3.0252  1.2429 -0.5722
  904MOL0     H24684   1.499   7.806   5.175 -0.9937 -0.2685  1.4603
  904MOL0     H24685   1.801   7.726   4.868 -0.3061  4.2596  4.7898
  904MOL0     H24686   1.664   7.632   4.805 -2.4885  0.8211 -0.2567
  904MOL0     H24687   1.645   7.502   5.017  0.7384 -1.7839 -0.4766
  904MOL0     H24688   1.789   7.491   4.944 -2.0957  0.3407 -1.6242
  904MOL0     H24689   1.888   7.682   5.083 -2.7158  3.5869  0.3989
  904MOL0     H24690   1.728   7.711   5.141  2.0598  1.8067  0.8646
  904MOL0     H24691   1.741   7.470   5.253  0.9490 -0.5706  1.7694
  904MOL0     H24692   1.891   7.443   5.164 -2.1429  0.3525 -1.6364
  904MOL0     H24693   1.874   7.668   5.348  0.8316 -0.2924  1.8087
  904MOL0     H24694   2.011   7.602   5.285  1.2728 -2.4605  2.2297
  904MOL0     H24695   1.984   7.523   5.521  0.3148  1.5641 -1.7278
  904MOL0     H24696   1.841   7.420   5.471 -0.9351  1.7706  0.8303
  904MOL0     H24697   1.967   7.288   5.327  1.2615  1.0677 -2.4219
  904MOL0     H24698   2.039   7.284   5.477  1.0463  0.2348 -0.0447
  904MOL0     H24699   2.180   7.448   5.269  3.7592 -1.1890 -0.1309
  904MOL0     H24700   2.229   7.408   5.437  0.0470  1.8857 -0.8856
  904MOL0     H24701   2.256   7.164   5.504 -0.6131 -1.8634  0.3589
  904MOL0     H24702   2.315   6.841   5.285  0.2943 -2.0325  1.8064
  904MOL0     H24703   2.276   6.883   5.450 -0.8451  0.8620  0.1796
  904MOL0     H24704   2.533   6.978   5.305  0.6459 -0.6380  0.3117
  904MOL0     H24705   2.525   6.976   5.472  1.2842  1.6586 -2.4410
  904MOL0     H24706   2.494   6.727   5.498  0.9932 -0.7562  0.0388
  904MOL0     H24707   2.521   6.718   5.316  0.5574  0.1010 -0.3379
  904MOL0     H24708   2.726   6.869   5.377 -1.9149  0.3309 -0.9832
  904MOL0     H24709   2.703   6.804   5.546 -2.8113  2.0773  0.4201
  904MOL0     H24710   2.936   6.826   5.438 -2.3480 -1.5209  0.1774
  904MOL0     H24711   3.282   6.776   5.365  1.3900  2.3738  0.8840
  904MOL0     H24712   3.154   6.888   5.432  0.9136 -1.1954  1.1132
  904MOL0     H24713   3.213   6.891   5.260 -0.8193 -0.1756 -0.0009
  904MOL0     H24714   3.285   6.277   4.895  0.4957 -0.1937 -0.7489
  904MOL0     H24715   3.499   6.199   4.811  1.7733  1.2876 -0.8093
  904MOL0     H24716   3.860   6.369   4.850  0.1025 -0.2218 -0.7643
  904MOL0     H24717   3.887   6.274   4.995  2.3789  1.4093 -0.9760
  904MOL0     H24718   4.028   6.215   4.784  0.8658 -2.3406 -0.8117
  904MOL0     H24719   3.954   6.088   4.887 -1.9365  0.6772  1.3332
  904MOL0     H24720   3.839   6.204   4.626 -0.7018  1.1965  1.0323
  904MOL0     H24721   3.791   6.048   4.700  2.0407 -1.4111  1.5546
  904MOL0     H24722   3.990   5.940   4.657 -0.7843 -1.1877 -1.9083
  904MOL0     H24723   4.077   6.088   4.602  0.2543 -1.7536 -2.3509
  904MOL0     H24724   3.830   6.047   4.445  0.5663  1.0400  1.9518
  904MOL0     H24725   3.984   6.115   4.402  1.8066 -2.9689 -3.4303
  904MOL0     H24726   3.936   5.834   4.440  2.8826 -1.3036  1.0832
  904MOL0     H24727   4.099   5.909   4.411 -0.1773  0.1981 -1.2592
  904MOL0     H24728   4.002   5.994   4.185 -0.7129 -1.0879  0.0174
  904MOL0     H24729   3.848   5.916   4.227 -1.2401 -2.5696  0.4456
  904MOL0     H24730   4.087   5.751   4.208 -1.1805 -2.9080  0.8541
  904MOL0     H24731   4.002   5.791   4.056  1.2893  0.0442  0.2665
  904MOL0     H24732   3.719   6.423   5.077 -0.2661 -1.9521 -0.3433
  904MOL0     H24733   3.520   6.509   5.177 -0.0184  0.9735 -0.1247
  904MOL0     H24734   3.035   6.432   5.164 -0.0593 -1.6844  3.7658
  904MOL0     H24735   2.796   6.493   5.248 -1.1625  0.1867  0.1653
  904MOL0     H24736   1.471   7.727   4.769  6.4027 -1.6669  3.0687
  904MOL0     H24737   1.234   7.624   4.797 -1.3536 -1.0016  0.8788
  904MOL0     H24738   0.898   7.500   4.991  0.4372 -0.1711  0.4754
  904MOL0     H24739   0.708   7.345   4.962  0.3948 -1.1683 -1.1922
  904MOL0     H24740   0.545   7.192   4.995  2.2901  1.2240 -1.1836
  904MOL0     H24741   0.633   7.082   4.893  2.6582  2.9357  0.3790
  904MOL0     H24742   0.428   6.956   4.960 -1.0030  3.0843  0.4080
  904MOL0     H24743   0.456   7.005   5.115  1.1872  2.6801 -0.8708
  904MOL0     H24744   0.630   6.864   5.182  2.8853  0.4881 -1.2991
  904MOL0     H24745   0.507   6.764   5.091  0.5555 -0.0660  1.6337
  904MOL0     H24746   0.750   6.890   4.952  0.5757 -0.0257  1.3473
  904MOL0     H24747   0.660   6.737   4.917 -1.0950  2.3695 -0.5588
  904MOL0     H24748   0.901   6.634   5.259 -2.4246  1.4641  1.5050
  904MOL0     H24749   0.900   7.066   5.219 -0.5977  0.6984 -0.3829
  904MOL0     H24750   1.058   7.117   5.348 -0.5433 -1.8685 -2.2460
  904MOL0     H24751   1.193   7.135   5.242  1.5669  0.7715  2.0178
  904MOL0     H24752   1.162   7.272   5.342  1.5939  0.1286 -0.4714
  905MOL0     O24753  10.793   3.404   7.798  0.1654  0.6685 -0.3652
  905MOL0     C24754  10.723   3.335   7.714  0.2537  0.0758 -0.0171
  905MOL0     O24755  10.585   3.318   7.706 -0.3731  0.2313  0.5292
  905MOL0     C24756  10.505   3.418   7.757  0.2356 -0.2981 -0.6060
  905MOL0     C24757  10.403   3.469   7.677  0.0382 -0.0675 -0.8045
  905MOL0     C24758  10.299   3.555   7.738 -0.6731  0.5529  0.5640
  905MOL0     C24759  10.302   3.588   7.874 -0.2056  0.3123 -0.5974
  905MOL0     O24760  10.212   3.672   7.934 -0.3757  0.0937 -0.2449
  905MOL0     C24761  10.140   3.620   8.047  0.6411  0.2648 -0.1090
  905MOL0     C24762   9.984   3.635   8.036 -0.3814 -0.7192 -0.5849
  905MOL0     C24763   9.945   3.785   8.056 -0.1499  0.4846 -0.1962
  905MOL0     C24764   9.800   3.819   8.045  0.4552  0.1565  0.4354
  905MOL0     C24765   9.738   3.838   7.908  0.2817  0.5505  0.2065
  905MOL0     C24766   9.789   3.958   7.817  0.2213  0.2886  0.5079
  905MOL0     C24767   9.683   4.055   7.786 -0.3933  0.5102 -0.5195
  905MOL0     C24768   9.735   4.172   7.703 -0.3026  0.1054 -1.2473
  905MOL0     N24769   9.622   4.233   7.644  0.2490  0.5069 -1.1469
  905MOL0     C24770   9.601   4.223   7.512  0.1980 -0.8391  0.3781
  905MOL0     C24771   9.509   4.317   7.491  0.1074  0.1955  0.2563
  905MOL0     C24772   9.457   4.347   7.355  0.3211 -0.5709  0.4923
  905MOL0     C24773   9.568   4.411   7.278 -0.6336 -0.3103  0.8553
  905MOL0     C24774   9.512   4.477   7.151  0.5875 -0.0083 -0.6780
  905MOL0     C24775   9.582   4.618   7.115 -0.3213 -0.7819 -0.3064
  905MOL0     O24776   9.725   4.593   7.145  0.5232 -0.6277  0.1173
  905MOL0     C24777   9.786   4.691   7.214  0.3052 -1.3319  0.1037
  905MOL0     C24778   9.923   4.669   7.231 -0.2161 -1.1718 -0.3196
  905MOL0     C24779  10.016   4.757   7.279 -0.3277 -0.3256 -0.1401
  905MOL0     C24780  10.151   4.712   7.310 -0.0952  1.1128 -0.2706
  905MOL0     C24781   9.959   4.885   7.329  1.3940  0.6487  0.7637
  905MOL0     C24782  10.035   4.976   7.407 -0.1606  0.6565  0.0942
  905MOL0     O24783  10.074   4.917   7.524  0.1146  0.5864  0.6709
  905MOL0     C24784  10.187   4.947   7.594  0.5200  0.8109 -0.0930
  905MOL0     C24785  10.287   5.043   7.566 -0.6068  0.2857  0.5517
  905MOL0     C24786  10.389   5.046   7.653  0.7686  0.8098  0.4714
  905MOL0     C24787  10.395   4.956   7.770 -0.1551 -0.1697 -0.3254
  905MOL0     O24788  10.509   4.977   7.841 -0.3481  1.2154 -0.0811
  905MOL0     C24789  10.561   4.872   7.922 -0.1790 -0.4182  0.0723
  905MOL0     C24790  10.700   4.914   7.969 -0.0844  0.4385  0.3565
  905MOL0     C24791  10.807   4.877   7.871  0.6360 -0.1096 -0.0160
  905MOL0     C24792  10.789   4.941   7.731  0.2278  0.3369  0.4072
  905MOL0     C24793  10.886   4.881   7.636  0.4838  0.2764 -0.1046
  905MOL0     C24794  10.891   4.963   7.509 -0.1851 -0.5383 -0.1716
  905MOL0     C24795  11.008   4.905   7.426  0.1279 -0.4843 -0.4486
  905MOL0     C24796  11.039   5.007   7.318  0.0045 -0.8468 -0.7009
  905MOL0    Cl24797  10.933   4.986   7.188  0.0255  0.8174  0.5634
  905MOL0     C24798  10.308   4.848   7.780 -0.0600  0.1978  0.7798
  905MOL0     C24799  10.202   4.847   7.688 -0.6016 -0.0609  0.2073
  905MOL0     O24800  10.041   5.096   7.385  0.1261  0.1196  0.0158
  905MOL0     C24801   9.822   4.907   7.312 -0.5444 -0.8450  0.0169
  905MOL0     C24802   9.740   4.813   7.262 -0.4135 -0.5695 -0.7639
  905MOL0     N24803   9.457   4.371   7.604 -0.1961  0.2686  0.3193
  905MOL0     N24804   9.534   4.323   7.704 -0.0783 -0.2285  0.2287
  905MOL0     C24805  10.409   3.539   7.957  0.3145  0.7438  1.0821
  905MOL0     C24806  10.503   3.451   7.897 -0.2644 -0.8480  0.3531
  905MOL0     C24807  10.794   3.264   7.603  0.0587 -0.6709 -0.4324
  905MOL0     C24808  10.766   3.288   7.467 -0.6389 -0.2472 -0.6836
  905MOL0     C24809  10.836   3.218   7.370 -0.0312 -0.2792 -0.4957
  905MOL0     C24810  10.943   3.131   7.402  0.1814 -0.0247 -0.4405
  905MOL0     O24811  11.023   3.079   7.303 -0.0407  0.4676 -0.3438
  905MOL0     C24812  11.108   2.965   7.325 -0.1953  0.4131 -0.1014
  905MOL0     C24813  11.163   2.923   7.197 -0.1433  0.4390  0.5415
  905MOL0     C24814  11.220   3.036   7.108 -0.8653  0.4689 -0.4151
  905MOL0     C24815  11.366   3.072   7.130  0.0067  0.1110  0.2688
  905MOL0     C24816  11.399   3.164   7.019 -0.1652 -0.5509  0.3675
  905MOL0     C24817  11.425   3.253   6.933 -0.4333  0.1469  0.6343
  905MOL0     C24818  10.955   3.093   7.536 -0.2485  0.0106 -0.1680
  905MOL0     C24819  10.879   3.157   7.635 -0.1351 -0.3816 -0.2588
  905MOL0     C24820  10.907   3.110   7.777  0.1308 -0.4386 -0.9464
  905MOL0     H24821  10.403   3.443   7.571 -1.4026 -5.5312  0.1956
  905MOL0     H24822  10.227   3.594   7.665 -0.1650  0.9373  0.2609
  905MOL0     H24823  10.188   3.677   8.128 -0.7090 -0.1606  1.0284
  905MOL0     H24824  10.162   3.514   8.061 -1.1113 -0.1347 -0.0672
  905MOL0     H24825   9.961   3.598   7.935  0.2569 -4.9838  0.6383
  905MOL0     H24826   9.947   3.553   8.097  1.4351 -1.2240 -0.0956
  905MOL0     H24827   9.971   3.811   8.159  2.8340  1.6077 -1.1534
  905MOL0     H24828  10.018   3.840   7.997  0.3490 -0.6187 -0.6361
  905MOL0     H24829   9.742   3.748   8.103  1.0557  1.3410  2.6055
  905MOL0     H24830   9.789   3.919   8.089 -0.5397  0.9444 -1.4528
  905MOL0     H24831   9.629   3.843   7.908  0.3082  1.5124  0.2292
  905MOL0     H24832   9.760   3.753   7.843 -0.8685  0.7791 -0.5081
  905MOL0     H24833   9.859   4.015   7.879  1.2119 -0.7743  0.3877
  905MOL0     H24834   9.843   3.926   7.728  1.0830  1.3060  0.6335
  905MOL0     H24835   9.635   4.097   7.874  1.0831  1.4610 -0.1380
  905MOL0     H24836   9.610   4.004   7.722  2.1046 -0.7409 -2.5789
  905MOL0     H24837   9.784   4.246   7.767 -0.4761 -2.3263  1.9583
  905MOL0     H24838   9.802   4.133   7.626 -0.2654  1.5036 -1.9412
  905MOL0     H24839   9.653   4.154   7.446  0.0837 -1.1538  0.6129
  905MOL0     H24840   9.374   4.417   7.366  0.3293 -0.5269  0.2822
  905MOL0     H24841   9.419   4.253   7.314 -1.6537  0.1037  0.6752
  905MOL0     H24842   9.622   4.486   7.336 -1.0029 -0.5798  1.5524
  905MOL0     H24843   9.643   4.336   7.249 -0.5988  0.7453 -2.1851
  905MOL0     H24844   9.522   4.406   7.068  1.1128 -1.5151  0.6255
  905MOL0     H24845   9.405   4.494   7.165 -0.2860 -1.9804 -3.8235
  905MOL0     H24846   9.561   4.640   7.009  1.1395  1.3438 -0.1953
  905MOL0     H24847   9.538   4.704   7.166  3.9085  0.7142  1.1808
  905MOL0     H24848   9.968   4.579   7.192  0.3221 -1.0871  0.0872
  905MOL0     H24849  10.145   4.674   7.412 -0.5197  1.1151 -0.2946
  905MOL0     H24850  10.225   4.792   7.300  0.8330  0.6523  2.2083
  905MOL0     H24851  10.176   4.622   7.252  1.3525  1.1244  0.3065
  905MOL0     H24852  10.299   5.112   7.484  0.9114  0.5446  0.9587
  905MOL0     H24853  10.462   5.123   7.627  2.2257 -1.5446 -3.2548
  905MOL0     H24854  10.501   4.853   8.011  1.0730 -3.9652  0.3335
  905MOL0     H24855  10.554   4.784   7.857  1.0268 -0.8104  0.4367
  905MOL0     H24856  10.704   5.021   7.993 -0.2514  0.1165  1.9183
  905MOL0     H24857  10.726   4.863   8.062 -0.7448 -0.7173 -0.0753
  905MOL0     H24858  10.802   4.768   7.861 -1.9330 -0.3527  2.5098
  905MOL0     H24859  10.908   4.888   7.910  1.0393 -0.7023 -0.8619
  905MOL0     H24860  10.807   5.047   7.751  0.4856 -0.1128  2.9145
  905MOL0     H24861  10.691   4.922   7.686  0.5110 -5.2381  1.4170
  905MOL0     H24862  10.987   4.885   7.677  0.9943 -2.3784 -0.9321
  905MOL0     H24863  10.873   4.774   7.618  3.2234 -0.5235  1.9582
  905MOL0     H24864  10.914   5.068   7.527  0.1170  0.2938 -4.4064
  905MOL0     H24865  10.792   4.958   7.462  1.0542 -1.1675 -2.8946
  905MOL0     H24866  10.981   4.808   7.383  0.5763 -0.6224 -0.4276
  905MOL0     H24867  11.096   4.882   7.487 -2.0544 -2.7555  2.1274
  905MOL0     H24868  11.139   4.981   7.281  0.8862  0.0002  0.9619
  905MOL0     H24869  11.045   5.106   7.362 -0.8893 -1.4267  0.8276
  905MOL0     H24870  10.317   4.771   7.856  2.1673  0.5183  0.8961
  905MOL0     H24871  10.130   4.766   7.680  1.7503 -2.1507 -1.7011
  905MOL0     H24872   9.779   5.000   7.347 -0.6483 -0.0595 -2.0433
  905MOL0     H24873   9.632   4.828   7.261 -0.1155  2.4014 -0.2142
  905MOL0     H24874  10.429   3.565   8.060 -1.4096  0.0454  1.6280
  905MOL0     H24875  10.586   3.410   7.954 -0.2197  0.0236  0.9290
  905MOL0     H24876  10.683   3.353   7.442  1.3982  3.4659  1.3243
  905MOL0     H24877  10.812   3.260   7.273  0.0478  0.5403 -0.1752
  905MOL0     H24878  11.194   2.997   7.385 -0.1055  1.3820 -0.7171
  905MOL0     H24879  11.059   2.877   7.368  2.8750 -0.3081  2.2511
  905MOL0     H24880  11.083   2.876   7.138 -1.3488 -1.0447  3.1915
  905MOL0     H24881  11.238   2.844   7.211 -0.1441 -0.0330 -1.7108
  905MOL0     H24882  11.218   2.990   7.009  0.7228 -0.3716 -0.0826
  905MOL0     H24883  11.160   3.127   7.096 -0.4217  1.1037  1.6981
  905MOL0     H24884  11.441   2.992   7.125 -1.3883 -1.1745 -1.3921
  905MOL0     H24885  11.386   3.111   7.230  0.7381 -0.6049  0.4148
  905MOL0     H24886  11.460   3.318   6.855  0.6915  0.1175  1.0988
  905MOL0     H24887  11.031   3.019   7.556 -1.5903 -1.9966 -2.0519
  905MOL0     H24888  11.005   3.065   7.791 -0.5415 -1.1880  2.1861
  905MOL0     H24889  10.893   3.198   7.840 -0.8927 -0.5111 -1.0421
  905MOL0     H24890  10.827   3.044   7.814  1.3396 -0.1313  2.5620
  906MOL0     O24891   7.012   3.592   9.232  0.2987 -0.2688  0.5147
  906MOL0     C24892   7.134   3.587   9.210  0.1654 -0.8544  0.8300
  906MOL0     O24893   7.190   3.633   9.101  0.7176 -0.2168  0.8800
  906MOL0     C24894   7.120   3.704   9.005 -0.3939 -0.2144  0.1022
  906MOL0     C24895   7.079   3.837   9.022 -0.0434  0.2135 -0.4896
  906MOL0     C24896   7.020   3.911   8.914  0.2457 -0.6277 -0.5304
  906MOL0     C24897   7.001   3.850   8.789 -0.3273 -0.4819 -1.0962
  906MOL0     O24898   6.950   3.910   8.675  0.1689  0.1925 -0.4156
  906MOL0     C24899   7.006   4.034   8.633 -0.2745  0.6002  0.2022
  906MOL0     C24900   7.011   4.039   8.478  0.4979 -0.0149 -1.4140
  906MOL0     C24901   7.071   4.174   8.449 -0.0852 -0.9271 -0.8537
  906MOL0     C24902   7.111   4.188   8.306  0.1159  0.1244 -0.3511
  906MOL0     C24903   7.111   4.336   8.273 -0.4285  0.2151 -0.1801
  906MOL0     C24904   7.146   4.366   8.128 -0.5705  0.0260 -1.1697
  906MOL0     C24905   7.045   4.324   8.018 -0.4141 -0.8215  0.0379
  906MOL0     C24906   7.029   4.444   7.928 -0.3375  0.3625 -0.4322
  906MOL0     N24907   6.939   4.401   7.825 -0.6174 -0.1163 -0.0733
  906MOL0     C24908   6.958   4.300   7.729 -0.4193  0.7955 -0.0157
  906MOL0     C24909   6.856   4.341   7.642 -1.0503  0.9595 -0.4990
  906MOL0     C24910   6.835   4.287   7.504 -0.7879  0.0838 -0.0503
  906MOL0     C24911   6.944   4.350   7.417 -0.5731 -0.6895  0.8307
  906MOL0     C24912   7.094   4.313   7.455  1.0901  0.2447  0.7408
  906MOL0     C24913   7.194   4.343   7.341  0.1725 -0.2997 -0.3013
  906MOL0     O24914   7.186   4.256   7.228  0.4562 -0.1792  0.0595
  906MOL0     C24915   7.195   4.313   7.108  0.0683  1.0153  0.3687
  906MOL0     C24916   7.297   4.295   7.015 -0.1579 -1.3429 -0.2074
  906MOL0     C24917   7.289   4.348   6.879 -1.1432  0.0674 -0.3318
  906MOL0     C24918   7.416   4.348   6.803  0.0862  0.9800 -0.1705
  906MOL0     C24919   7.175   4.415   6.838  0.4710  0.0457  0.2470
  906MOL0     C24920   7.162   4.471   6.705 -0.2936  0.1925 -0.8307
  906MOL0     O24921   7.062   4.422   6.628 -0.0739  0.2165 -0.4619
  906MOL0     C24922   7.044   4.460   6.494 -0.3213 -0.6065 -0.7089
  906MOL0     C24923   7.146   4.499   6.405 -0.4925 -0.0672  0.5996
  906MOL0     C24924   7.113   4.538   6.273  0.9043 -0.4471 -0.5646
  906MOL0     C24925   6.976   4.569   6.243 -0.0576  0.7217  0.3641
  906MOL0     O24926   6.952   4.600   6.110 -0.8892 -0.4037 -0.3676
  906MOL0     C24927   6.818   4.614   6.068  0.2341  0.5184 -0.1170
  906MOL0     C24928   6.813   4.657   5.922 -0.7645  1.0533  0.1120
  906MOL0     C24929   6.895   4.577   5.817  0.6262 -0.5533  0.1256
  906MOL0     C24930   6.847   4.438   5.808 -0.2453 -0.6705 -0.1430
  906MOL0     C24931   6.948   4.352   5.723 -0.1876 -0.5713  0.1052
  906MOL0     C24932   6.907   4.204   5.714 -0.2367  0.4592  0.2486
  906MOL0     C24933   6.815   4.183   5.593 -0.6900 -0.4386  0.4138
  906MOL0     C24934   6.771   4.038   5.579  0.2307 -0.8428 -0.0609
  906MOL0    Cl24935   6.899   3.925   5.614  0.3124 -0.0519  0.0378
  906MOL0     C24936   6.876   4.529   6.335 -0.9657  0.1860  0.0747
  906MOL0     C24937   6.909   4.481   6.456 -1.2174  0.2407  0.1402
  906MOL0     O24938   7.239   4.557   6.679  0.7243  0.0427  0.2736
  906MOL0     C24939   7.069   4.420   6.929  0.4833  0.2234 -0.2552
  906MOL0     C24940   7.077   4.369   7.059  0.4185 -0.2144 -0.6134
  906MOL0     N24941   6.782   4.442   7.700  0.7277  0.0715 -0.3390
  906MOL0     N24942   6.834   4.476   7.806  0.1575  0.0516  0.3235
  906MOL0     C24943   7.040   3.716   8.774  0.1311  0.0058 -0.7873
  906MOL0     C24944   7.106   3.645   8.879  0.8498  0.9247  1.5267
  906MOL0     C24945   7.225   3.530   9.313 -0.7222  0.7119 -0.2709
  906MOL0     C24946   7.346   3.471   9.258  0.0479  0.0619  0.1540
  906MOL0     C24947   7.440   3.403   9.334 -0.1831 -0.6228 -0.5839
  906MOL0     C24948   7.412   3.391   9.471 -0.4215  0.3655  0.6199
  906MOL0     O24949   7.489   3.319   9.559  0.5214  0.6523  0.7723
  906MOL0     C24950   7.591   3.232   9.505  0.0169 -0.9405 -0.3867
  906MOL0     C24951   7.531   3.094   9.462  0.1942 -0.0816  0.5134
  906MOL0     C24952   7.647   3.000   9.422  0.3365  0.9667  0.1626
  906MOL0     C24953   7.597   2.883   9.330 -1.0761 -0.2398 -0.5877
  906MOL0     C24954   7.721   2.811   9.298  0.2155  0.4904 -0.1523
  906MOL0     C24955   7.833   2.767   9.266  0.5572  0.8567 -0.1937
  906MOL0     C24956   7.286   3.432   9.525  0.5236 -0.3576  0.5229
  906MOL0     C24957   7.201   3.512   9.454 -0.5598 -0.3677  0.6339
  906MOL0     C24958   7.087   3.559   9.533 -0.1470  0.1551 -0.4176
  906MOL0     H24959   7.085   3.883   9.121 -1.0860 -0.8148  0.0843
  906MOL0     H24960   6.985   4.014   8.913  1.1406 -0.2842  0.5325
  906MOL0     H24961   7.110   4.055   8.660  0.8078  0.3334 -3.2678
  906MOL0     H24962   6.936   4.111   8.667 -3.8063 -2.2473  0.0414
  906MOL0     H24963   7.070   3.954   8.445 -0.8820 -2.1790  1.2472
  906MOL0     H24964   6.909   4.032   8.440 -1.4683  0.7088  3.0090
  906MOL0     H24965   7.004   4.254   8.482 -2.2010 -1.8338 -2.6827
  906MOL0     H24966   7.162   4.185   8.507 -0.9099  1.2245  0.1402
  906MOL0     H24967   7.214   4.152   8.295 -0.6385 -2.1818 -0.4310
  906MOL0     H24968   7.054   4.130   8.232  1.8868  0.1456 -1.7912
  906MOL0     H24969   7.190   4.386   8.329 -1.0792  2.0630 -0.8400
  906MOL0     H24970   7.019   4.388   8.300 -1.2505 -1.8934  1.4497
  906MOL0     H24971   7.167   4.473   8.121  2.9016 -0.2417  2.0594
  906MOL0     H24972   7.233   4.303   8.107 -1.6927 -2.2196  0.4015
  906MOL0     H24973   6.948   4.306   8.066 -1.6337  1.8895 -1.2114
  906MOL0     H24974   7.087   4.238   7.965  0.2133 -1.2060  1.1202
  906MOL0     H24975   6.996   4.532   7.984 -1.3489  0.2979 -0.9088
  906MOL0     H24976   7.118   4.477   7.873  0.6100  0.8589  1.3210
  906MOL0     H24977   7.039   4.228   7.725 -1.1866 -0.0909  0.0700
  906MOL0     H24978   6.736   4.315   7.465 -1.4603  0.6201  1.9489
  906MOL0     H24979   6.839   4.178   7.502 -0.0140  0.1009  0.2296
  906MOL0     H24980   6.918   4.335   7.311  2.2441  1.3393 -0.2651
  906MOL0     H24981   6.934   4.458   7.429 -0.0661 -0.0976 -2.9073
  906MOL0     H24982   7.120   4.385   7.533  0.1300  2.0315 -0.5185
  906MOL0     H24983   7.091   4.214   7.500 -1.6048  0.2963  0.8599
  906MOL0     H24984   7.181   4.448   7.311 -0.9736 -0.4877 -0.5298
  906MOL0     H24985   7.296   4.339   7.379 -0.0626  1.2087  0.5716
  906MOL0     H24986   7.383   4.237   7.048 -0.7599 -0.8506  2.4787
  906MOL0     H24987   7.486   4.280   6.853 -1.4082 -1.1399 -0.7943
  906MOL0     H24988   7.451   4.450   6.788 -1.3993  1.3804 -1.1687
  906MOL0     H24989   7.391   4.302   6.707 -2.5326  0.5383  0.6322
  906MOL0     H24990   7.252   4.483   6.421 -0.2797 -0.2786 -0.8303
  906MOL0     H24991   7.192   4.543   6.198  1.5472 -4.1307 -0.3358
  906MOL0     H24992   6.759   4.524   6.086 -0.9577  0.9669 -1.5924
  906MOL0     H24993   6.772   4.694   6.128  1.7069  2.8145 -1.9019
  906MOL0     H24994   6.710   4.637   5.889 -0.5422 -0.5386  0.2944
  906MOL0     H24995   6.843   4.762   5.921  1.2896  0.5129 -0.6912
  906MOL0     H24996   7.000   4.592   5.845 -0.0508  4.8021  0.8939
  906MOL0     H24997   6.883   4.621   5.718 -2.3813  2.0875  1.4695
  906MOL0     H24998   6.745   4.436   5.768 -1.1695 -0.1979  2.0167
  906MOL0     H24999   6.847   4.405   5.912  2.4974  2.7954  1.1656
  906MOL0     H25000   6.941   4.388   5.620 -1.5094  0.0466  0.3930
  906MOL0     H25001   7.044   4.359   5.774 -1.0042  2.7495  1.5037
  906MOL0     H25002   6.845   4.173   5.798 -1.0905 -0.1864 -0.5909
  906MOL0     H25003   7.000   4.146   5.713 -0.9405 -0.7391  1.3593
  906MOL0     H25004   6.860   4.216   5.499 -0.7225  1.8338  1.1327
  906MOL0     H25005   6.723   4.241   5.608 -0.9953 -1.2299  1.8650
  906MOL0     H25006   6.733   4.016   5.479 -0.0293 -0.5299 -0.0347
  906MOL0     H25007   6.693   4.022   5.655  2.0007  2.6147  2.7975
  906MOL0     H25008   6.772   4.537   6.305 -1.2620 -0.9040  0.7719
  906MOL0     H25009   6.830   4.466   6.528  1.0626 -0.7662  2.6168
  906MOL0     H25010   6.988   4.483   6.893 -0.5387  0.2396  1.9312
  906MOL0     H25011   6.995   4.376   7.129  1.7534 -1.2272  1.1441
  906MOL0     H25012   7.027   3.676   8.674 -1.2568 -0.7062 -0.3575
  906MOL0     H25013   7.157   3.551   8.860  0.3352  1.1312 -1.3363
  906MOL0     H25014   7.362   3.483   9.152  1.7204 -2.5179  0.0169
  906MOL0     H25015   7.533   3.368   9.291 -0.0768 -0.5528 -0.4141
  906MOL0     H25016   7.650   3.281   9.427 -3.3600  4.6932  0.0280
  906MOL0     H25017   7.654   3.205   9.590 -1.3745  2.8080  2.1367
  906MOL0     H25018   7.467   3.109   9.374 -2.5413  2.9440  2.8296
  906MOL0     H25019   7.477   3.048   9.545  0.1098 -0.5443  0.2087
  906MOL0     H25020   7.729   3.063   9.385  0.8029  1.8456  2.4986
  906MOL0     H25021   7.670   2.955   9.519  0.1930  0.2281 -0.1438
  906MOL0     H25022   7.550   2.931   9.244 -4.3326  0.3183  1.3293
  906MOL0     H25023   7.517   2.826   9.379 -1.6405 -0.2507 -1.5069
  906MOL0     H25024   7.920   2.709   9.242  0.6013 -0.4320  2.6224
  906MOL0     H25025   7.267   3.411   9.630  1.9282  1.4297  1.1903
  906MOL0     H25026   6.999   3.500   9.505 -0.7284  0.3283  0.9566
  906MOL0     H25027   7.097   3.552   9.641 -0.4579  1.3780 -0.2941
  906MOL0     H25028   7.056   3.659   9.500 -2.8659 -0.8122 -1.1037
  907MOL0     O25029   8.424   8.157   5.905  0.2314  0.2755  0.2309
  907MOL0     C25030   8.378   8.169   6.020 -0.2795  0.0402 -0.2903
  907MOL0     O25031   8.299   8.082   6.084  0.6203  0.1885 -0.3048
  907MOL0     C25032   8.270   7.959   6.019 -0.7774 -0.5386  0.4583
  907MOL0     C25033   8.189   7.961   5.903  1.1623 -0.4151  0.5313
  907MOL0     C25034   8.165   7.840   5.835 -0.7275 -0.1983  0.2467
  907MOL0     C25035   8.234   7.729   5.879 -0.2868 -0.0946  0.3490
  907MOL0     O25036   8.248   7.614   5.813  0.1717  0.2246  0.3201
  907MOL0     C25037   8.220   7.601   5.666  1.5108 -0.1991 -0.3819
  907MOL0     C25038   8.298   7.473   5.631 -1.2812  0.7613  0.4550
  907MOL0     C25039   8.229   7.342   5.654  0.0075  0.1905  0.1461
  907MOL0     C25040   8.323   7.228   5.592 -1.2962  0.3871  0.4001
  907MOL0     C25041   8.265   7.082   5.588 -0.4066 -0.9138 -0.1132
  907MOL0     C25042   8.364   6.992   5.504  0.5497  0.5445  0.4495
  907MOL0     C25043   8.334   6.844   5.502 -0.3663  0.8957 -0.0808
  907MOL0     C25044   8.219   6.807   5.408 -0.4080  0.4762 -0.3538
  907MOL0     N25045   8.250   6.780   5.269  0.6518 -0.1150 -0.0769
  907MOL0     C25046   8.277   6.660   5.206 -0.1348  0.6211 -0.0604
  907MOL0     C25047   8.285   6.696   5.080  0.5800 -0.0006  0.1393
  907MOL0     C25048   8.339   6.607   4.977  0.1220 -0.3161  0.2910
  907MOL0     C25049   8.264   6.621   4.843 -0.2904  0.1888  0.6895
  907MOL0     C25050   8.249   6.490   4.766 -0.9224 -0.8158  0.9488
  907MOL0     C25051   8.384   6.423   4.726  0.5622  1.2456  0.0491
  907MOL0     O25052   8.370   6.308   4.645  0.6933  1.0143  0.2092
  907MOL0     C25053   8.489   6.255   4.608 -0.0358  0.0182 -0.6411
  907MOL0     C25054   8.610   6.278   4.676  0.7802  0.4277 -0.1430
  907MOL0     C25055   8.735   6.223   4.643  0.3843 -1.0632  0.8702
  907MOL0     C25056   8.855   6.277   4.720 -0.1172  0.4932  0.1028
  907MOL0     C25057   8.731   6.127   4.539  0.9087  1.2560  0.7106
  907MOL0     C25058   8.856   6.065   4.488  0.4806 -0.4612  0.0832
  907MOL0     O25059   8.836   5.987   4.377 -0.0005 -0.4359 -0.3439
  907MOL0     C25060   8.932   5.911   4.310  0.1096  0.0005 -0.6564
  907MOL0     C25061   9.028   5.835   4.373 -0.0064  0.1770  0.3893
  907MOL0     C25062   9.104   5.740   4.299 -0.0170  0.6242  0.5845
  907MOL0     C25063   9.092   5.720   4.162  0.4254  0.2830 -0.3254
  907MOL0     O25064   9.155   5.610   4.105 -0.4404  0.2897 -0.1018
  907MOL0     C25065   9.086   5.539   4.006 -0.1272 -0.7983  0.5708
  907MOL0     C25066   9.118   5.392   4.010  0.4276  0.8358 -0.3341
  907MOL0     C25067   9.254   5.357   3.946 -0.0340  0.4840  0.1662
  907MOL0     C25068   9.324   5.253   4.029 -0.2268 -0.3992  0.0820
  907MOL0     C25069   9.469   5.226   3.982  0.9213  0.1046  0.9349
  907MOL0     C25070   9.479   5.163   3.836 -0.6187  0.0429 -0.5553
  907MOL0     C25071   9.620   5.100   3.818  0.5515 -0.6336  0.3643
  907MOL0     C25072   9.633   4.955   3.884 -0.4023 -0.9298 -1.1723
  907MOL0    Cl25073   9.796   4.875   3.865 -0.5229 -0.1577  0.2317
  907MOL0     C25074   8.991   5.793   4.101  0.9059 -0.6355 -0.0940
  907MOL0     C25075   8.919   5.891   4.172  0.7426 -0.0171  0.6711
  907MOL0     O25076   8.959   6.070   4.557 -0.5969  0.3279 -0.0438
  907MOL0     C25077   8.608   6.089   4.480 -0.5708 -0.2147 -0.8056
  907MOL0     C25078   8.490   6.156   4.516 -0.4537 -0.2430  0.5241
  907MOL0     N25079   8.278   6.832   5.057 -0.1330  0.1665  0.6557
  907MOL0     N25080   8.250   6.883   5.178 -0.3318 -0.0721  0.1139
  907MOL0     C25081   8.315   7.733   5.991 -0.0648  0.2746 -0.2123
  907MOL0     C25082   8.335   7.848   6.057  0.4376  0.1726 -0.1819
  907MOL0     C25083   8.416   8.287   6.105 -0.3270 -0.8662  0.1875
  907MOL0     C25084   8.394   8.286   6.245 -0.8431 -0.1523  0.3723
  907MOL0     C25085   8.433   8.389   6.331  0.7342 -0.3839 -0.8832
  907MOL0     C25086   8.478   8.517   6.281 -0.2774 -0.7578  0.8684
  907MOL0     O25087   8.511   8.630   6.359 -0.0689  0.1904 -0.3064
  907MOL0     C25088   8.521   8.595   6.502  0.1824 -0.1709  0.5253
  907MOL0     C25089   8.593   8.704   6.579  0.2238  0.2898  0.1940
  907MOL0     C25090   8.697   8.646   6.668  0.7137 -0.6791 -0.1600
  907MOL0     C25091   8.651   8.539   6.768  0.3901 -0.5892 -0.3195
  907MOL0     C25092   8.736   8.555   6.882  0.3426  0.6391 -0.6758
  907MOL0     C25093   8.792   8.584   6.990  0.3438  0.2061 -0.8148
  907MOL0     C25094   8.477   8.520   6.139  0.2232  0.0076 -0.0857
  907MOL0     C25095   8.462   8.408   6.052  0.8194  0.3930  0.3878
  907MOL0     C25096   8.447   8.440   5.897  0.2215  0.1530 -0.8340
  907MOL0     H25097   8.132   8.048   5.872  0.0535 -0.3177  2.6267
  907MOL0     H25098   8.096   7.851   5.751  1.7454 -0.3879 -1.9460
  907MOL0     H25099   8.263   7.683   5.607  2.7298  2.6053  3.9666
  907MOL0     H25100   8.112   7.592   5.653  0.9559  0.8553  2.6805
  907MOL0     H25101   8.321   7.485   5.524 -0.3095  0.6593  0.6361
  907MOL0     H25102   8.400   7.493   5.667 -1.6957  0.6765  1.7359
  907MOL0     H25103   8.208   7.327   5.760  0.7815  0.3651  0.3292
  907MOL0     H25104   8.137   7.352   5.596 -0.3140  0.8615  0.7660
  907MOL0     H25105   8.329   7.253   5.486 -0.7950  2.6086  0.8973
  907MOL0     H25106   8.417   7.221   5.648 -1.3794 -2.6233  0.2794
  907MOL0     H25107   8.168   7.093   5.539 -0.6469  2.1097  0.8567
  907MOL0     H25108   8.241   7.050   5.690  1.6370 -1.0838  0.3604
  907MOL0     H25109   8.378   7.030   5.403 -0.3040 -1.7696 -0.6129
  907MOL0     H25110   8.465   6.997   5.546  1.3821  0.4288 -1.4552
  907MOL0     H25111   8.309   6.808   5.602 -0.8011 -3.3475 -1.5096
  907MOL0     H25112   8.424   6.794   5.466  0.6200  2.8794 -0.4913
  907MOL0     H25113   8.157   6.729   5.454 -0.5323  1.0617  0.4940
  907MOL0     H25114   8.141   6.884   5.402 -0.6361  0.2726 -0.0422
  907MOL0     H25115   8.280   6.553   5.225 -2.4245  0.0965 -2.0592
  907MOL0     H25116   8.316   6.504   5.007 -0.9200  0.3589  1.9327
  907MOL0     H25117   8.447   6.616   4.957 -0.6199  1.9782 -4.1290
  907MOL0     H25118   8.170   6.675   4.855  1.6129  4.8038 -2.2163
  907MOL0     H25119   8.336   6.687   4.792  0.0057 -1.2992 -0.9051
  907MOL0     H25120   8.179   6.434   4.828 -1.6138  0.9845  1.8639
  907MOL0     H25121   8.194   6.512   4.674 -3.7613  1.4380  3.0377
  907MOL0     H25122   8.443   6.498   4.672  2.5057 -0.0191  0.3095
  907MOL0     H25123   8.425   6.387   4.821  0.2423  1.5623  0.3102
  907MOL0     H25124   8.618   6.337   4.766  1.7134 -0.5849  0.4702
  907MOL0     H25125   8.870   6.205   4.802  5.3280  1.3501  0.2438
  907MOL0     H25126   8.835   6.377   4.761 -1.2469  0.2486  0.1809
  907MOL0     H25127   8.945   6.282   4.659 -0.2587 -0.5064 -0.2008
  907MOL0     H25128   9.034   5.845   4.481 -2.8190  3.7683  0.4251
  907MOL0     H25129   9.174   5.678   4.353 -0.0694 -2.7064 -2.7580
  907MOL0     H25130   8.978   5.547   4.016 -0.6162 -2.3322 -2.3342
  907MOL0     H25131   9.111   5.592   3.914 -4.6731 -0.4610 -0.6700
  907MOL0     H25132   9.106   5.361   4.114 -4.7167  0.0696 -0.9001
  907MOL0     H25133   9.038   5.336   3.961 -0.5476  1.0147  0.9827
  907MOL0     H25134   9.322   5.443   3.942 -1.6668  1.8212 -3.4102
  907MOL0     H25135   9.244   5.326   3.841  3.2071  0.6439 -0.2879
  907MOL0     H25136   9.271   5.158   4.038  3.8833 -2.8037  1.5772
  907MOL0     H25137   9.335   5.291   4.130  3.3661  1.1760 -0.7603
  907MOL0     H25138   9.513   5.327   3.982 -3.7986  2.5088 -1.6436
  907MOL0     H25139   9.518   5.169   4.061 -0.7945 -4.0235 -0.6880
  907MOL0     H25140   9.462   5.232   3.753 -1.7316 -1.7923 -1.9328
  907MOL0     H25141   9.388   5.109   3.807 -2.1211  1.2715  1.6067
  907MOL0     H25142   9.692   5.173   3.855  0.4156  0.6899 -1.7702
  907MOL0     H25143   9.652   5.097   3.713  0.7592 -1.8006  0.4502
  907MOL0     H25144   9.550   4.893   3.848 -2.3642  1.1897 -0.5166
  907MOL0     H25145   9.611   4.970   3.990  1.7441 -0.2358 -0.7820
  907MOL0     H25146   8.996   5.790   3.992  3.0956 -0.1357 -0.0417
  907MOL0     H25147   8.844   5.951   4.120 -0.9620 -1.6681  1.1381
  907MOL0     H25148   8.593   6.015   4.403 -0.4155 -1.4396  0.3169
  907MOL0     H25149   8.402   6.129   4.457 -0.7192  1.5588  0.0497
  907MOL0     H25150   8.378   7.650   6.022 -1.2933  0.1622  2.2307
  907MOL0     H25151   8.390   7.855   6.150  1.7352  2.3272 -1.0302
  907MOL0     H25152   8.350   8.195   6.284 -1.7048  0.2732  0.4221
  907MOL0     H25153   8.420   8.374   6.438  2.6154  1.6622 -0.3035
  907MOL0     H25154   8.419   8.581   6.539 -0.0163  2.3350  1.0682
  907MOL0     H25155   8.570   8.499   6.522  1.0145  0.8383  4.0483
  907MOL0     H25156   8.514   8.758   6.633 -2.4223 -0.8433 -2.2630
  907MOL0     H25157   8.643   8.764   6.502  0.0657 -0.2719 -0.3585
  907MOL0     H25158   8.768   8.600   6.598 -0.7586  0.4163 -2.5128
  907MOL0     H25159   8.744   8.733   6.715 -0.5844  0.3619 -0.7177
  907MOL0     H25160   8.655   8.439   6.725  3.8223 -0.8598  0.3265
  907MOL0     H25161   8.547   8.557   6.797  0.2676  1.2883 -1.7188
  907MOL0     H25162   8.851   8.606   7.076  0.8580  0.9685 -1.3449
  907MOL0     H25163   8.516   8.604   6.081 -0.1467 -0.6315 -1.2986
  907MOL0     H25164   8.349   8.402   5.867  0.2227 -1.4987  1.0561
  907MOL0     H25165   8.456   8.549   5.893 -0.3425  0.3878  2.1698
  907MOL0     H25166   8.520   8.394   5.829  1.1793  0.4784 -0.0439
  908MOL0     O25167   8.633   7.104   7.514 -0.0801  0.2104 -0.1108
  908MOL0     C25168   8.626   7.222   7.548 -0.3471  0.2788 -0.5316
  908MOL0     O25169   8.512   7.296   7.548 -0.6905 -0.2298 -0.1368
  908MOL0     C25170   8.397   7.236   7.505 -0.1311 -0.1068  0.2931
  908MOL0     C25171   8.385   7.238   7.365  0.5212  0.7864  0.4569
  908MOL0     C25172   8.289   7.157   7.306  0.4281  0.8788 -0.8725
  908MOL0     C25173   8.183   7.095   7.374  0.0961 -0.5315 -0.0032
  908MOL0     O25174   8.084   7.021   7.309  0.3197  0.9254 -0.2658
  908MOL0     C25175   7.968   6.972   7.380  0.8910 -0.8529  0.0948
  908MOL0     C25176   7.899   6.878   7.283  0.8145  0.2903  0.5656
  908MOL0     C25177   7.767   6.820   7.339  0.2277  1.3230  1.0668
  908MOL0     C25178   7.695   6.732   7.235  0.1026 -0.4589 -0.3199
  908MOL0     C25179   7.542   6.723   7.260  0.1535  0.9618 -1.2616
  908MOL0     C25180   7.515   6.619   7.375  0.5785  0.1555  0.8090
  908MOL0     C25181   7.366   6.623   7.420 -0.3635 -0.0203  0.1466
  908MOL0     C25182   7.335   6.538   7.547 -0.2544  0.2858 -0.7052
  908MOL0     N25183   7.402   6.579   7.669  0.3684 -0.2272  0.1823
  908MOL0     C25184   7.371   6.690   7.743  0.8637  0.0115  0.2541
  908MOL0     C25185   7.441   6.694   7.860  0.7368  0.7727 -0.4069
  908MOL0     C25186   7.428   6.790   7.981 -0.5029  0.1774  0.2034
  908MOL0     C25187   7.536   6.753   8.090 -0.3090 -0.3983 -0.5398
  908MOL0     C25188   7.529   6.847   8.216  0.0108  0.2920  0.7545
  908MOL0     C25189   7.550   6.995   8.179 -0.5064  0.3500 -0.4502
  908MOL0     O25190   7.657   7.022   8.093  0.1296 -0.4123  0.7786
  908MOL0     C25191   7.669   7.157   8.069 -0.5972  0.2216 -0.8348
  908MOL0     C25192   7.738   7.231   8.165  0.7745  0.0802 -1.1646
  908MOL0     C25193   7.764   7.373   8.141  0.3649 -0.2381  0.4677
  908MOL0     C25194   7.852   7.441   8.246 -0.7263 -0.0134 -0.8572
  908MOL0     C25195   7.693   7.435   8.033  0.2240 -0.3999  0.3499
  908MOL0     C25196   7.692   7.587   8.018  0.2380 -1.0807 -1.0042
  908MOL0     O25197   7.661   7.638   7.898  0.4593 -0.8230 -0.3133
  908MOL0     C25198   7.639   7.771   7.861 -0.1136  0.4349 -0.1438
  908MOL0     C25199   7.560   7.782   7.749 -0.5857 -0.4004 -1.0258
  908MOL0     C25200   7.534   7.911   7.695  0.3062  0.4428 -0.3427
  908MOL0     C25201   7.586   8.026   7.752 -0.1715 -0.3315  0.3315
  908MOL0     O25202   7.577   8.142   7.680 -0.0670  0.2203 -0.3127
  908MOL0     C25203   7.532   8.246   7.762 -0.2126  0.1629 -1.0694
  908MOL0     C25204   7.565   8.377   7.713 -0.2705 -0.0117 -0.2238
  908MOL0     C25205   7.718   8.404   7.675 -0.1514 -1.3708  1.0676
  908MOL0     C25206   7.751   8.549   7.636  0.5583  0.2005 -0.9008
  908MOL0     C25207   7.658   8.612   7.525  0.6025 -0.3784  0.3495
  908MOL0     C25208   7.674   8.546   7.383 -0.4516  0.2309 -0.1465
  908MOL0     C25209   7.591   8.612   7.273  0.8699  0.1734  0.8390
  908MOL0     C25210   7.641   8.588   7.127  0.0325 -0.5078  0.2342
  908MOL0    Cl25211   7.690   8.420   7.104 -0.2645  0.3847  0.5583
  908MOL0     C25212   7.674   8.011   7.866 -0.3051 -1.2390  0.3772
  908MOL0     C25213   7.698   7.883   7.920 -0.1303  0.5212 -0.2444
  908MOL0     O25214   7.709   7.649   8.124 -0.2033  0.0610  0.2064
  908MOL0     C25215   7.622   7.358   7.945  0.5069 -0.1339 -0.2549
  908MOL0     C25216   7.614   7.217   7.952  0.1255 -0.8438 -0.9065
  908MOL0     N25217   7.531   6.589   7.847 -0.4343  0.0238 -0.3671
  908MOL0     N25218   7.506   6.527   7.738 -0.0153  0.6021  0.4949
  908MOL0     C25219   8.194   7.110   7.515  0.3546  0.1342 -0.2028
  908MOL0     C25220   8.299   7.180   7.576  0.3767 -0.1213  0.6770
  908MOL0     C25221   8.748   7.294   7.585  0.7835 -0.0994 -0.3415
  908MOL0     C25222   8.822   7.243   7.691 -0.7401 -0.4338  0.6505
  908MOL0     C25223   8.936   7.312   7.746  0.4583 -0.1086 -0.1485
  908MOL0     C25224   8.959   7.442   7.696 -0.1282 -0.3017  0.1433
  908MOL0     O25225   9.068   7.515   7.725 -0.0389 -0.4518  0.9704
  908MOL0     C25226   9.133   7.484   7.841  0.0692 -0.1409 -0.0624
  908MOL0     C25227   9.255   7.571   7.871  0.9806  0.0227 -0.5512
  908MOL0     C25228   9.381   7.535   7.785 -0.0270  0.0120 -0.9066
  908MOL0     C25229   9.488   7.634   7.823 -0.0572 -0.4126 -0.0528
  908MOL0     C25230   9.611   7.588   7.760  1.0917  0.0955  0.5250
  908MOL0     C25231   9.713   7.542   7.701 -0.3338 -0.1282 -0.2941
  908MOL0     C25232   8.887   7.487   7.587 -0.3466  0.4612 -0.1190
  908MOL0     C25233   8.792   7.413   7.528 -0.0679 -0.2396  0.6861
  908MOL0     C25234   8.746   7.454   7.400 -0.5708 -0.5537 -0.6564
  908MOL0     H25235   8.448   7.293   7.295 -0.6839 -3.0419 -4.2314
  908MOL0     H25236   8.315   7.154   7.201  0.3880  0.5533 -0.8750
  908MOL0     H25237   7.907   7.060   7.402  2.1608 -0.0066  0.3220
  908MOL0     H25238   7.993   6.915   7.471  0.9396 -1.9131 -0.5726
  908MOL0     H25239   7.869   6.939   7.197  0.5596 -0.8512 -0.1750
  908MOL0     H25240   7.971   6.799   7.261  2.3295  0.8412  3.1188
  908MOL0     H25241   7.779   6.753   7.425  0.4721 -1.6142 -1.0914
  908MOL0     H25242   7.693   6.896   7.363 -2.0075 -0.9097  1.7434
  908MOL0     H25243   7.701   6.784   7.139 -0.1300 -0.4954 -0.3549
  908MOL0     H25244   7.744   6.634   7.231 -0.6041 -0.8379  0.1482
  908MOL0     H25245   7.482   6.700   7.172 -1.8999  2.8503 -0.4692
  908MOL0     H25246   7.507   6.821   7.295  0.3065  0.0002  1.9347
  908MOL0     H25247   7.531   6.524   7.322 -0.7790 -0.0863  0.8153
  908MOL0     H25248   7.585   6.627   7.459  3.0986 -0.4892 -1.0968
  908MOL0     H25249   7.297   6.584   7.345  0.6601 -1.7705  0.0624
  908MOL0     H25250   7.337   6.723   7.454 -2.3498 -0.8178  0.9478
  908MOL0     H25251   7.227   6.540   7.559 -0.3472  2.6468 -1.4646
  908MOL0     H25252   7.372   6.438   7.521  0.4189 -0.3915  2.5105
  908MOL0     H25253   7.291   6.760   7.720 -0.4365 -1.4265  0.2617
  908MOL0     H25254   7.334   6.775   8.034  1.0246  0.6161  3.2826
  908MOL0     H25255   7.447   6.894   7.950  1.6686 -0.3376 -0.4168
  908MOL0     H25256   7.521   6.646   8.110 -0.7876 -0.4637 -1.1960
  908MOL0     H25257   7.637   6.752   8.048 -0.5710 -1.3959 -1.1798
  908MOL0     H25258   7.445   6.832   8.284 -0.1724 -3.1110 -0.0186
  908MOL0     H25259   7.613   6.806   8.274  0.9602  0.6226 -0.3625
  908MOL0     H25260   7.456   7.029   8.135 -1.4827 -1.7112 -0.0887
  908MOL0     H25261   7.571   7.052   8.271  0.6976 -0.5505 -0.1290
  908MOL0     H25262   7.781   7.178   8.250  0.6409  1.2884 -0.3093
  908MOL0     H25263   7.925   7.363   8.264  0.3393  1.5107  1.9717
  908MOL0     H25264   7.794   7.471   8.334  0.9445 -3.0713  1.4692
  908MOL0     H25265   7.904   7.529   8.206 -1.2896  0.1807 -1.1861
  908MOL0     H25266   7.534   7.685   7.709  0.2832 -1.1232  0.0973
  908MOL0     H25267   7.481   7.924   7.602  1.3418 -0.7817 -1.1450
  908MOL0     H25268   7.423   8.231   7.758 -0.0347 -1.0793 -1.6069
  908MOL0     H25269   7.567   8.248   7.866 -1.8981  1.4827 -0.4681
  908MOL0     H25270   7.504   8.386   7.623 -1.8770 -2.6779  0.4953
  908MOL0     H25271   7.533   8.440   7.796  1.4751  1.9391 -0.9361
  908MOL0     H25272   7.731   8.343   7.585  0.1437  1.9486 -1.3226
  908MOL0     H25273   7.784   8.373   7.757  0.5222  0.5637  1.3034
  908MOL0     H25274   7.856   8.552   7.608  1.2179 -2.4986  0.8898
  908MOL0     H25275   7.745   8.616   7.722 -1.5700 -0.6963 -0.2808
  908MOL0     H25276   7.554   8.608   7.558 -0.0003  1.7337 -1.0618
  908MOL0     H25277   7.666   8.721   7.513  0.9003 -0.5302 -1.0006
  908MOL0     H25278   7.661   8.438   7.395 -0.2208  0.0357 -1.4760
  908MOL0     H25279   7.779   8.556   7.354 -1.2317  0.4918 -3.3067
  908MOL0     H25280   7.588   8.721   7.288 -1.7881  0.1044  1.1815
  908MOL0     H25281   7.492   8.568   7.284  1.2677 -1.1740 -0.6291
  908MOL0     H25282   7.720   8.661   7.105 -1.0643  0.8685  0.6757
  908MOL0     H25283   7.572   8.612   7.046 -0.2389  1.1541  0.9087
  908MOL0     H25284   7.724   8.099   7.906  0.0775  0.1655 -2.8903
  908MOL0     H25285   7.765   7.867   8.004 -0.3503 -0.2867 -0.2185
  908MOL0     H25286   7.565   7.406   7.867  2.2509 -1.1436 -2.2401
  908MOL0     H25287   7.563   7.159   7.876 -3.1642  2.2981 -1.3806
  908MOL0     H25288   8.126   7.057   7.582 -0.9672 -0.1986 -1.7424
  908MOL0     H25289   8.290   7.188   7.684  1.3110  4.7958  0.6501
  908MOL0     H25290   8.802   7.157   7.753  0.1951  0.7015  2.6365
  908MOL0     H25291   8.994   7.255   7.817  0.1136 -0.1622  0.0948
  908MOL0     H25292   9.054   7.493   7.915 -0.2183 -1.1232 -0.2329
  908MOL0     H25293   9.171   7.381   7.846 -1.4491 -0.8202 -1.5710
  908MOL0     H25294   9.270   7.564   7.979 -1.4332 -2.4005 -0.2535
  908MOL0     H25295   9.236   7.678   7.858  2.2752  0.3404 -0.0634
  908MOL0     H25296   9.425   7.437   7.806 -0.1981  0.3719  1.4559
  908MOL0     H25297   9.356   7.533   7.678  1.0631  1.3099 -1.2119
  908MOL0     H25298   9.497   7.636   7.932  0.0200  4.1362  0.0297
  908MOL0     H25299   9.461   7.732   7.783  1.4061  1.0644  2.3323
  908MOL0     H25300   9.806   7.506   7.662  0.1473  0.3962  0.3468
  908MOL0     H25301   8.929   7.577   7.543  4.0166 -1.4910 -0.4511
  908MOL0     H25302   8.734   7.363   7.340 -2.6818 -0.4960 -0.3912
  908MOL0     H25303   8.656   7.514   7.410 -1.4548 -2.0982  1.4461
  908MOL0     H25304   8.832   7.511   7.363 -0.4898  1.3826  2.1681
  909MOL0     O25305   6.786  10.090   8.365 -0.0419 -0.3953  0.2138
  909MOL0     C25306   6.694  10.153   8.424  0.3050  0.2844  0.8112
  909MOL0     O25307   6.626  10.112   8.530 -0.1747 -0.0398  0.6252
  909MOL0     C25308   6.607   9.980   8.553  1.0868 -0.3472 -0.3637
  909MOL0     C25309   6.646   9.934   8.677 -0.1263 -0.7923  0.2600
  909MOL0     C25310   6.643   9.801   8.713 -0.3112  0.8193 -0.0670
  909MOL0     C25311   6.611   9.698   8.616 -0.2275 -0.4635 -0.2979
  909MOL0     O25312   6.602   9.561   8.651  0.5375  0.0921  0.5494
  909MOL0     C25313   6.642   9.522   8.779 -0.7572  0.2178  0.0886
  909MOL0     C25314   6.623   9.369   8.812 -0.7188 -0.1831  0.1375
  909MOL0     C25315   6.740   9.280   8.758  0.2634 -0.2136 -0.5360
  909MOL0     C25316   6.731   9.134   8.803 -0.0011  0.5617 -0.3047
  909MOL0     C25317   6.823   9.030   8.728  1.3631  0.2521 -0.0253
  909MOL0     C25318   6.828   8.904   8.813 -0.3789  0.6185 -0.2408
  909MOL0     C25319   6.854   8.781   8.731 -0.0505 -0.4713  0.7214
  909MOL0     C25320   6.887   8.655   8.814  0.0624 -1.2582  0.7750
  909MOL0     N25321   6.966   8.560   8.738  0.0074 -0.0201  0.0881
  909MOL0     C25322   7.050   8.463   8.792 -1.0495 -0.1463  0.2243
  909MOL0     C25323   7.076   8.376   8.697 -0.0454 -0.5121 -0.9350
  909MOL0     C25324   7.141   8.244   8.700  0.3622 -0.4984  0.1393
  909MOL0     C25325   7.289   8.255   8.744 -0.2311 -0.3200  0.2754
  909MOL0     C25326   7.362   8.129   8.694 -0.2179 -0.4077 -0.2494
  909MOL0     C25327   7.325   8.002   8.778 -0.3141  0.8435  1.0055
  909MOL0     O25328   7.437   7.907   8.772  0.6992 -0.2726  0.0162
  909MOL0     C25329   7.428   7.782   8.831 -0.0679 -0.4548 -0.3664
  909MOL0     C25330   7.319   7.738   8.905  0.2962 -0.4993 -0.0937
  909MOL0     C25331   7.316   7.613   8.974 -0.7724 -0.3859  0.3657
  909MOL0     C25332   7.203   7.580   9.065  0.1502 -0.2289 -0.0671
  909MOL0     C25333   7.433   7.526   8.965  0.6320 -0.6775 -0.5116
  909MOL0     C25334   7.447   7.387   9.018 -0.4944  0.1283  0.2497
  909MOL0     O25335   7.550   7.314   8.956  0.1093  0.4628  0.0128
  909MOL0     C25336   7.573   7.177   8.976 -0.3405 -0.1730  0.0448
  909MOL0     C25337   7.488   7.068   8.961 -0.2941  0.9559  0.3532
  909MOL0     C25338   7.523   6.931   8.987  0.8383 -0.4668  0.1729
  909MOL0     C25339   7.652   6.905   9.037 -0.2769 -0.7286  0.1941
  909MOL0     O25340   7.673   6.772   9.077  0.3120 -0.8683  0.2512
  909MOL0     C25341   7.758   6.748   9.194  0.1705 -1.4266  0.5518
  909MOL0     C25342   7.747   6.612   9.257 -0.0957 -0.8470 -0.3641
  909MOL0     C25343   7.829   6.520   9.168  0.0246  0.3590 -0.4768
  909MOL0     C25344   7.789   6.373   9.204  0.9405  0.2980 -0.3206
  909MOL0     C25345   7.882   6.261   9.148  0.0707 -0.1463 -0.2406
  909MOL0     C25346   7.884   6.264   8.990  0.1641 -0.4309  0.5227
  909MOL0     C25347   7.954   6.146   8.935  0.4497 -0.5228 -0.1488
  909MOL0     C25348   8.100   6.155   8.947  0.1401 -0.1390 -0.0659
  909MOL0    Cl25349   8.177   6.008   8.893  0.4303  0.5131 -0.5191
  909MOL0     C25350   7.732   7.014   9.077 -0.2185 -0.4880  0.0083
  909MOL0     C25351   7.696   7.147   9.040 -0.0108  0.3096  0.4716
  909MOL0     O25352   7.378   7.344   9.104 -0.2175 -0.1445  0.4667
  909MOL0     C25353   7.544   7.569   8.893  0.2803  0.1560  0.3079
  909MOL0     C25354   7.541   7.696   8.831 -1.1648 -0.3905 -0.2803
  909MOL0     N25355   7.004   8.411   8.580 -0.0187 -0.4799 -0.7146
  909MOL0     N25356   6.938   8.520   8.617 -1.2965 -0.5778  0.7117
  909MOL0     C25357   6.563   9.752   8.493  0.0225 -0.7980 -0.2886
  909MOL0     C25358   6.562   9.887   8.461 -0.2312  0.1102  0.4439
  909MOL0     C25359   6.672  10.295   8.394 -0.3732  0.4102  0.0588
  909MOL0     C25360   6.670  10.393   8.500  0.3495 -0.5007 -0.0030
  909MOL0     C25361   6.647  10.524   8.463 -0.4672 -0.4546 -0.5481
  909MOL0     C25362   6.609  10.553   8.335  0.1569 -1.5624  0.3363
  909MOL0     O25363   6.560  10.680   8.306 -0.7175 -0.0432 -0.3559
  909MOL0     C25364   6.472  10.753   8.395 -0.1399 -0.6441  0.2993
  909MOL0     C25365   6.332  10.690   8.404  1.2119 -0.0523 -0.0883
  909MOL0     C25366   6.239  10.671   8.289  0.0928 -0.1562 -0.0915
  909MOL0     C25367   6.092  10.651   8.317 -0.5708 -0.0282 -0.4779
  909MOL0     C25368   6.017  10.762   8.376 -0.6411 -0.1327 -0.0514
  909MOL0     C25369   5.965  10.863   8.410  0.9082  0.3655 -0.0328
  909MOL0     C25370   6.614  10.459   8.235  0.5015  0.0041  0.4810
  909MOL0     C25371   6.644  10.329   8.258 -0.6918  0.3343  0.1646
  909MOL0     C25372   6.618  10.234   8.146 -0.2971  0.0336  1.5275
  909MOL0     H25373   6.676  10.006   8.754 -0.1493 -0.9057  0.3757
  909MOL0     H25374   6.671   9.767   8.813  3.2496 -0.7480 -1.4277
  909MOL0     H25375   6.576   9.573   8.850 -1.6301  0.7610 -1.0828
  909MOL0     H25376   6.746   9.545   8.803 -0.4175  1.2583 -2.1527
  909MOL0     H25377   6.635   9.366   8.920  3.7405 -2.0774 -0.2089
  909MOL0     H25378   6.524   9.333   8.781 -0.9753  0.4770  0.1584
  909MOL0     H25379   6.737   9.274   8.648 -0.2372  0.6296 -0.5707
  909MOL0     H25380   6.841   9.312   8.786 -1.7189  4.7194  1.9342
  909MOL0     H25381   6.757   9.130   8.909  2.1564 -0.9777 -0.8106
  909MOL0     H25382   6.625   9.114   8.784 -0.8332  1.0231  3.2034
  909MOL0     H25383   6.925   9.070   8.726  2.6082 -2.4229  2.3430
  909MOL0     H25384   6.792   9.012   8.625 -3.2521  3.0549  0.6257
  909MOL0     H25385   6.901   8.916   8.894  1.2527 -2.7689 -1.0619
  909MOL0     H25386   6.727   8.892   8.854 -1.4152 -0.0595 -2.8105
  909MOL0     H25387   6.941   8.796   8.666 -0.5655  1.9518  0.5032
  909MOL0     H25388   6.768   8.751   8.670  0.6424  0.4450 -0.7661
  909MOL0     H25389   6.955   8.690   8.892  0.0497  3.4917 -0.9780
  909MOL0     H25390   6.796   8.610   8.854 -2.7216 -0.3105 -3.7171
  909MOL0     H25391   7.096   8.463   8.890  0.2814  0.5401 -0.3874
  909MOL0     H25392   7.143   8.208   8.597  3.4757  2.1698 -0.9167
  909MOL0     H25393   7.091   8.177   8.770  2.1525 -1.6042  0.4123
  909MOL0     H25394   7.337   8.337   8.691 -0.4263 -1.0208 -1.0452
  909MOL0     H25395   7.294   8.273   8.852 -0.4762  3.2584 -0.1978
  909MOL0     H25396   7.359   8.108   8.587  1.6627  1.1094 -0.6632
  909MOL0     H25397   7.467   8.157   8.707  0.8047 -3.0976 -1.8403
  909MOL0     H25398   7.312   8.032   8.882 -0.6719  3.1152  0.3609
  909MOL0     H25399   7.228   7.969   8.740 -0.6339  1.2644  1.4391
  909MOL0     H25400   7.244   7.815   8.920  1.1201  0.6693 -1.6766
  909MOL0     H25401   7.188   7.472   9.054  1.4741 -0.4959  0.5479
  909MOL0     H25402   7.114   7.629   9.025 -0.4695  0.6163  2.2249
  909MOL0     H25403   7.232   7.597   9.169  0.1453 -0.7995  0.0348
  909MOL0     H25404   7.388   7.081   8.922 -0.4134 -0.6971  0.0408
  909MOL0     H25405   7.456   6.849   8.961 -0.7049  1.5228 -2.6848
  909MOL0     H25406   7.864   6.765   9.173 -0.0574  0.1065  0.5450
  909MOL0     H25407   7.718   6.815   9.271 -1.3249  1.3741 -2.4098
  909MOL0     H25408   7.797   6.618   9.354  1.9332 -0.6424 -1.3669
  909MOL0     H25409   7.647   6.571   9.269 -0.2460 -0.2949  0.3253
  909MOL0     H25410   7.932   6.536   9.199 -0.3616  2.1157  0.0338
  909MOL0     H25411   7.825   6.552   9.063  2.5789 -0.7978 -0.9978
  909MOL0     H25412   7.685   6.353   9.175  0.9815  1.0341 -0.9960
  909MOL0     H25413   7.794   6.368   9.313 -0.7889 -2.3855 -0.2646
  909MOL0     H25414   7.986   6.275   9.181  0.4112  2.0392 -1.9958
  909MOL0     H25415   7.856   6.162   9.187  2.4134 -1.4101 -1.6235
  909MOL0     H25416   7.940   6.350   8.953  1.3684 -1.9655 -1.3924
  909MOL0     H25417   7.781   6.273   8.953  0.9490 -0.9379 -1.9420
  909MOL0     H25418   7.921   6.143   8.830 -0.4514  0.2833  0.0924
  909MOL0     H25419   7.925   6.056   8.989  0.5275  1.2095  3.0346
  909MOL0     H25420   8.130   6.160   9.052 -2.6437 -1.9214  0.9546
  909MOL0     H25421   8.132   6.243   8.892  1.3058 -0.1183  0.6240
  909MOL0     H25422   7.833   6.992   9.111  1.2784 -3.4057 -5.1564
  909MOL0     H25423   7.756   7.236   9.046 -1.9664  1.8846 -1.6181
  909MOL0     H25424   7.633   7.509   8.888  0.1534 -0.0773  0.7752
  909MOL0     H25425   7.623   7.734   8.771 -0.8067 -2.6385 -1.3246
  909MOL0     H25426   6.514   9.680   8.428 -1.6707  1.8938 -2.1945
  909MOL0     H25427   6.540   9.934   8.365  0.6678 -2.6021 -1.1942
  909MOL0     H25428   6.684  10.361   8.603  0.7223  1.8203  0.7193
  909MOL0     H25429   6.648  10.592   8.548 -0.6367 -1.5676  0.3794
  909MOL0     H25430   6.522  10.769   8.491 -0.7925  1.3549  0.3443
  909MOL0     H25431   6.464  10.849   8.344  1.5379 -0.1373  0.9260
  909MOL0     H25432   6.274  10.732   8.486  2.2422  0.4674  0.3844
  909MOL0     H25433   6.352  10.584   8.426 -0.0833 -0.3940 -0.4601
  909MOL0     H25434   6.244  10.762   8.228 -1.7718  2.3813  3.2559
  909MOL0     H25435   6.269  10.582   8.232 -0.6966 -2.2356  2.5526
  909MOL0     H25436   6.079  10.561   8.377 -1.9777  1.5904  1.7760
  909MOL0     H25437   6.048  10.637   8.218 -1.6173 -0.2505  0.0166
  909MOL0     H25438   5.917  10.957   8.429 -0.8961 -0.3866 -0.6872
  909MOL0     H25439   6.585  10.502   8.140 -0.0727  1.8942  1.4542
  909MOL0     H25440   6.710  10.209   8.092 -2.4724 -3.3315 -1.0741
  909MOL0     H25441   6.585  10.140   8.192  1.2398 -0.8037  1.0000
  909MOL0     H25442   6.546  10.269   8.071 -1.0588 -1.9398  1.2620
  910MOL0     O25443   7.106  11.476   6.731 -0.4683  0.1036 -0.4843
  910MOL0     C25444   7.198  11.552   6.704 -0.4256 -0.5048  0.9121
  910MOL0     O25445   7.206  11.685   6.724  0.6956  1.0304 -0.8255
  910MOL0     C25446   7.101  11.743   6.786  0.7054 -0.3319 -1.5326
  910MOL0     C25447   7.105  11.753   6.930  0.2916  0.3891  0.6275
  910MOL0     C25448   7.000  11.831   6.980 -0.3463  0.4898  0.5140
  910MOL0     C25449   6.905  11.901   6.911  0.3793  0.2584 -0.8311
  910MOL0     O25450   6.818  11.979   6.991  0.1639 -0.4672 -0.1186
  910MOL0     C25451   6.686  11.988   6.946  0.0271 -0.4718 -0.5025
  910MOL0     C25452   6.613  12.095   7.028 -0.1758  0.5093 -0.8088
  910MOL0     C25453   6.481  12.129   6.971 -0.4832  0.1219 -0.3466
  910MOL0     C25454   6.413  12.241   7.061  0.5247 -0.4026  0.2222
  910MOL0     C25455   6.352  12.189   7.184 -0.2664  0.7360 -0.7238
  910MOL0     C25456   6.261  12.059   7.183 -0.0341 -0.0483 -0.2846
  910MOL0     C25457   6.182  12.058   7.308 -0.1678 -0.0691  0.3411
  910MOL0     C25458   6.269  12.054   7.423 -0.1408  0.1840  0.8884
  910MOL0     N25459   6.192  12.014   7.545  0.7245 -0.1609  0.2683
  910MOL0     C25460   6.064  12.040   7.574  1.0333 -0.0015  0.4256
  910MOL0     C25461   6.035  11.997   7.700  0.4106  0.7426  0.3303
  910MOL0     C25462   5.902  12.015   7.768 -0.2064  0.4365  0.5719
  910MOL0     C25463   5.792  11.927   7.700  0.0944 -0.0746 -0.0642
  910MOL0     C25464   5.682  12.015   7.631  0.1029  0.4828  0.5144
  910MOL0     C25465   5.602  11.931   7.530  0.5641  0.4281 -0.4620
  910MOL0     O25466   5.657  11.931   7.403 -0.2983  0.3629  0.7050
  910MOL0     C25467   5.659  12.053   7.330  0.1755 -0.8953  0.1201
  910MOL0     C25468   5.543  12.102   7.274 -0.1119  0.7286  0.7584
  910MOL0     C25469   5.537  12.227   7.203 -0.3831 -0.2751 -0.3623
  910MOL0     C25470   5.411  12.301   7.177 -0.3029  0.5404  0.3204
  910MOL0     C25471   5.656  12.288   7.162 -0.8886  0.7366  0.4856
  910MOL0     C25472   5.671  12.414   7.083  0.0937  0.2390 -0.5304
  910MOL0     O25473   5.569  12.450   6.996 -0.1199 -0.0157  0.4663
  910MOL0     C25474   5.535  12.588   7.000  0.0051 -0.9621  0.7269
  910MOL0     C25475   5.632  12.683   6.960  0.6036  0.1671  0.0497
  910MOL0     C25476   5.586  12.819   6.957  0.2335  0.2445 -0.1840
  910MOL0     C25477   5.461  12.867   6.988  0.0985  0.1022 -0.1934
  910MOL0     O25478   5.434  13.001   6.976  1.3401  0.1468 -0.1567
  910MOL0     C25479   5.301  13.032   6.915 -0.1468  0.9618 -0.0423
  910MOL0     C25480   5.260  13.163   6.957  0.2208  0.5333  1.0025
  910MOL0     C25481   5.288  13.259   6.841  0.7303  0.3371 -0.0938
  910MOL0     C25482   5.164  13.263   6.746 -0.3488  0.0740 -0.2940
  910MOL0     C25483   5.201  13.309   6.614 -0.5161 -0.0533 -0.7462
  910MOL0     C25484   5.222  13.189   6.524 -0.5642 -0.9084 -0.8297
  910MOL0     C25485   5.225  13.226   6.369  0.1292  0.1180 -0.6589
  910MOL0     C25486   5.217  13.094   6.288  0.0294  0.8474  0.4043
  910MOL0    Cl25487   5.342  12.977   6.325 -0.4580 -0.2868 -0.6682
  910MOL0     C25488   5.376  12.767   7.028  0.7165  0.7689 -0.9877
  910MOL0     C25489   5.402  12.633   7.030 -0.8512 -1.0423 -0.1788
  910MOL0     O25490   5.765  12.488   7.108 -0.0521 -0.6601 -1.0607
  910MOL0     C25491   5.778  12.232   7.208 -0.2556  0.3175  0.9997
  910MOL0     C25492   5.775  12.119   7.289  1.0655  0.0234 -0.9476
  910MOL0     N25493   6.157  11.938   7.743  0.2277 -0.1563  0.0381
  910MOL0     N25494   6.240  11.953   7.654 -0.0575 -0.3966  0.8257
  910MOL0     C25495   6.906  11.891   6.772  0.6850  0.1824 -0.5998
  910MOL0     C25496   7.008  11.810   6.711  0.8008  0.2516 -0.9570
  910MOL0     C25497   7.318  11.492   6.637 -0.0921  0.7379  0.0204
  910MOL0     C25498   7.354  11.362   6.669  0.1357 -0.2327 -0.7428
  910MOL0     C25499   7.464  11.303   6.612 -0.5507 -0.9095  0.5854
  910MOL0     C25500   7.543  11.367   6.519 -0.8214  0.6781  0.4453
  910MOL0     O25501   7.643  11.294   6.479 -0.4010  0.1555  0.3752
  910MOL0     C25502   7.744  11.353   6.400 -0.3784 -0.8017  0.3060
  910MOL0     C25503   7.817  11.468   6.474  0.4433  0.3334  0.4686
  910MOL0     C25504   7.851  11.427   6.628 -0.3226  0.8592  1.0793
  910MOL0     C25505   7.936  11.533   6.700  0.1008 -0.2113  1.0805
  910MOL0     C25506   7.888  11.667   6.723  0.3383  0.7529 -0.1600
  910MOL0     C25507   7.849  11.773   6.757 -0.1481 -0.2476  0.2336
  910MOL0     C25508   7.503  11.493   6.486 -0.2150  0.5823  0.5722
  910MOL0     C25509   7.395  11.558   6.537  0.2542  0.7062 -0.4948
  910MOL0     C25510   7.355  11.692   6.482 -0.1328  0.2369 -0.1588
  910MOL0     H25511   7.173  11.707   7.000 -0.1695  1.1743  1.6128
  910MOL0     H25512   7.006  11.861   7.084 -0.4553  1.4221  0.2615
  910MOL0     H25513   6.632  11.893   6.961  1.5239 -0.9271  2.8428
  910MOL0     H25514   6.696  12.021   6.842  3.3764  0.8010  0.1271
  910MOL0     H25515   6.594  12.048   7.125 -1.7867 -4.5603 -3.1976
  910MOL0     H25516   6.673  12.186   7.037 -0.0838  0.5309 -1.5826
  910MOL0     H25517   6.498  12.178   6.875  2.4920  2.2320  1.1114
  910MOL0     H25518   6.409  12.047   6.960 -3.5980  2.6768 -0.4421
  910MOL0     H25519   6.488  12.317   7.087  0.2452 -0.8643  2.6313
  910MOL0     H25520   6.335  12.284   6.997 -0.9780 -1.9849  0.9210
  910MOL0     H25521   6.302  12.265   7.244  2.4710  0.8165  1.6142
  910MOL0     H25522   6.434  12.164   7.251 -1.4556  0.9346  0.8765
  910MOL0     H25523   6.193  12.068   7.098  2.6415 -0.7964 -2.6433
  910MOL0     H25524   6.318  11.968   7.167 -0.0836  0.3047 -2.9155
  910MOL0     H25525   6.130  11.962   7.301  3.1352 -2.0644  1.0271
  910MOL0     H25526   6.118  12.147   7.306  2.4152  1.8807 -0.7513
  910MOL0     H25527   6.363  11.999   7.412  1.3792  2.3396  2.2758
  910MOL0     H25528   6.292  12.160   7.436 -0.1410  0.5919 -1.8857
  910MOL0     H25529   5.999  12.112   7.526  0.1767 -0.5745  0.6947
  910MOL0     H25530   5.870  12.120   7.764  3.5094  1.7692  1.5271
  910MOL0     H25531   5.916  11.976   7.869  2.9925  2.4673  1.0775
  910MOL0     H25532   5.840  11.859   7.629 -0.8831 -2.0673  1.0721
  910MOL0     H25533   5.736  11.868   7.773 -3.0119 -0.2089 -2.3688
  910MOL0     H25534   5.607  12.062   7.695  0.7409  1.1749  0.7711
  910MOL0     H25535   5.746  12.095   7.591 -0.0595  0.1235 -0.4889
  910MOL0     H25536   5.584  11.829   7.565 -1.0838  0.7351 -0.3084
  910MOL0     H25537   5.498  11.967   7.531  0.4674  0.1679  0.6038
  910MOL0     H25538   5.454  12.042   7.290  0.0886  1.1718  4.4320
  910MOL0     H25539   5.373  12.264   7.081  0.9632 -0.7132  0.2580
  910MOL0     H25540   5.426  12.409   7.170  0.6953  0.4947  1.4404
  910MOL0     H25541   5.335  12.290   7.255  1.5784  2.1192  2.5003
  910MOL0     H25542   5.730  12.667   6.916 -0.3853 -2.3898 -1.4689
  910MOL0     H25543   5.663  12.888   6.926  0.8057  0.6023  1.9104
  910MOL0     H25544   5.316  13.026   6.807 -0.8331 -0.3268 -0.0829
  910MOL0     H25545   5.224  12.961   6.948  1.3611  0.3797  2.4692
  910MOL0     H25546   5.155  13.172   6.986  0.7701  3.3257  2.5279
  910MOL0     H25547   5.323  13.192   7.041  0.6103  1.5750  0.3803
  910MOL0     H25548   5.379  13.225   6.790  0.9668  0.4979  0.2162
  910MOL0     H25549   5.305  13.359   6.881  3.4497 -0.1092  0.1025
  910MOL0     H25550   5.081  13.325   6.782 -2.2831 -0.9085 -2.7499
  910MOL0     H25551   5.123  13.162   6.741 -1.5028  0.4827  0.5021
  910MOL0     H25552   5.107  13.346   6.571 -2.3240 -1.8822  1.4254
  910MOL0     H25553   5.288  13.375   6.621  0.1024 -1.0287  1.8202
  910MOL0     H25554   5.142  13.118   6.549  1.7825 -2.7688  2.1769
  910MOL0     H25555   5.321  13.148   6.547  0.3110  1.1794 -0.6573
  910MOL0     H25556   5.311  13.289   6.346  2.2134 -1.6745  1.5641
  910MOL0     H25557   5.126  13.268   6.350 -1.9051 -3.9415 -0.3081
  910MOL0     H25558   5.219  13.119   6.182  3.8235  0.2515  0.1728
  910MOL0     H25559   5.123  13.044   6.309  0.6092 -0.8552 -0.8701
  910MOL0     H25560   5.274  12.795   7.050  0.9431 -0.4956  2.1062
  910MOL0     H25561   5.325  12.562   7.057 -1.8538  0.3944  0.9399
  910MOL0     H25562   5.870  12.279   7.175 -1.4156  2.4029  0.5424
  910MOL0     H25563   5.871  12.077   7.318  1.2924 -0.3480 -2.1809
  910MOL0     H25564   6.825  11.940   6.720 -0.1636  0.0390  0.5555
  910MOL0     H25565   7.018  11.803   6.603 -0.0485 -1.8924 -0.9571
  910MOL0     H25566   7.298  11.301   6.739 -0.4246 -0.3115 -1.2585
  910MOL0     H25567   7.492  11.206   6.649 -1.1214 -1.3415 -0.0793
  910MOL0     H25568   7.826  11.282   6.386  1.8165  2.1245 -3.4999
  910MOL0     H25569   7.695  11.369   6.303 -2.2772 -1.0564  1.1773
  910MOL0     H25570   7.757  11.559   6.461 -0.0235  0.2592  1.9771
  910MOL0     H25571   7.909  11.489   6.419  0.0511 -1.3298 -0.9176
  910MOL0     H25572   7.766  11.404   6.693 -1.0781  0.0305 -0.1813
  910MOL0     H25573   7.908  11.334   6.614 -0.8631  0.9849 -3.4491
  910MOL0     H25574   8.022  11.550   6.634 -3.0673  0.5974 -3.2755
  910MOL0     H25575   7.964  11.486   6.795 -3.0957 -2.5815  1.0400
  910MOL0     H25576   7.801  11.868   6.767  0.4554  0.4842 -2.6454
  910MOL0     H25577   7.551  11.542   6.402 -2.7960  0.3267 -1.1590
  910MOL0     H25578   7.391  11.780   6.536  1.2331  0.7599 -1.8269
  910MOL0     H25579   7.405  11.707   6.386  1.3040 -1.5153  0.2575
  910MOL0     H25580   7.246  11.694   6.479 -0.6017 -2.4785  4.7747
  911MOL0     O25581   8.536  10.645  10.384 -0.2462 -0.4797 -0.6558
  911MOL0     C25582   8.545  10.759  10.425  0.3544  0.6281 -0.3347
  911MOL0     O25583   8.632  10.800  10.512 -0.1884 -0.2725  0.1007
  911MOL0     C25584   8.744  10.708  10.539 -0.9091 -1.5306  0.3859
  911MOL0     C25585   8.767  10.644  10.658 -0.8736 -0.1203  0.7620
  911MOL0     C25586   8.884  10.567  10.688 -0.4104  0.2911 -0.0350
  911MOL0     C25587   8.989  10.559  10.586  0.0093  1.0948 -0.0927
  911MOL0     O25588   9.104  10.494  10.623  0.1368  0.2184  0.4520
  911MOL0     C25589   9.191  10.432  10.528  0.1487  0.7227  0.2541
  911MOL0     C25590   9.316  10.391  10.602  1.3902 -0.2138 -0.0766
  911MOL0     C25591   9.382  10.272  10.534  0.8204  0.3539 -0.1014
  911MOL0     C25592   9.432  10.182  10.643 -1.6600  0.4545  0.0664
  911MOL0     C25593   9.559  10.093  10.612 -0.2965  0.5823 -0.7293
  911MOL0     C25594   9.595   9.999  10.731  0.4778 -0.4746  0.9731
  911MOL0     C25595   9.497   9.888  10.743 -0.2244 -0.3276  0.4270
  911MOL0     C25596   9.546   9.802  10.859 -0.0033 -0.7550 -0.1341
  911MOL0     N25597   9.647   9.700  10.831 -0.3704 -0.8611  0.0363
  911MOL0     C25598   9.630   9.564  10.849  0.4065 -0.6267 -0.9091
  911MOL0     C25599   9.757   9.510  10.835 -0.2380  0.1705  0.5450
  911MOL0     C25600   9.804   9.367  10.807  0.0345 -0.2137 -0.0162
  911MOL0     C25601   9.793   9.329  10.656  0.2794 -0.7491 -0.3721
  911MOL0     C25602   9.909   9.231  10.615  0.3987 -0.2037  0.5942
  911MOL0     C25603   9.921   9.098  10.699  0.8487  0.2093  0.0735
  911MOL0     O25604  10.041   9.042  10.657  0.2319 -1.4095  0.2082
  911MOL0     C25605  10.099   8.948  10.740 -0.5898 -0.1526 -0.0093
  911MOL0     C25606  10.118   8.961  10.877 -0.3833 -0.0619 -0.3027
  911MOL0     C25607  10.194   8.856  10.947  1.2261  0.1987 -1.0638
  911MOL0     C25608  10.216   8.884  11.098  0.7386 -0.0676 -0.1249
  911MOL0     C25609  10.209   8.731  10.889 -0.4420  0.7961 -1.0262
  911MOL0     C25610  10.260   8.608  10.961  0.8304  0.3196  0.1647
  911MOL0     O25611  10.248   8.491  10.891  0.1169 -0.3230  0.1032
  911MOL0     C25612  10.259   8.375  10.955 -0.0511  0.4539 -0.2734
  911MOL0     C25613  10.313   8.269  10.882  0.2050 -1.0311 -0.0549
  911MOL0     C25614  10.318   8.136  10.938  1.1539  0.2629 -0.1477
  911MOL0     C25615  10.280   8.107  11.070  0.2953 -0.8332  0.5211
  911MOL0     O25616  10.291   7.983  11.124  0.3628 -0.7472 -0.6380
  911MOL0     C25617  10.168   7.896  11.104 -0.1676  0.0601  0.5579
  911MOL0     C25618  10.206   7.749  11.116 -0.2109 -0.3664  0.3627
  911MOL0     C25619  10.079   7.666  11.104  0.1452 -0.1741  0.0112
  911MOL0     C25620  10.093   7.525  11.172 -0.1767 -0.1462  0.3309
  911MOL0     C25621  10.181   7.434  11.088 -0.5074  0.7272 -1.3739
  911MOL0     C25622  10.140   7.288  11.093 -0.3647 -0.6288  0.3773
  911MOL0     C25623  10.021   7.247  10.998 -0.4829  0.3117  0.0138
  911MOL0     C25624   9.985   7.100  11.042  0.6489 -0.0389  0.2757
  911MOL0    Cl25625   9.867   7.102  11.188  0.2143  0.3224  0.1297
  911MOL0     C25626  10.216   8.215  11.140 -0.5523 -0.1571  0.3901
  911MOL0     C25627  10.200   8.337  11.078  0.3345  0.2360  0.1771
  911MOL0     O25628  10.294   8.615  11.075 -0.4226 -0.2232 -0.3586
  911MOL0     C25629  10.194   8.725  10.752  0.6516 -0.1360 -0.5992
  911MOL0     C25630  10.138   8.834  10.671  0.6512  0.0961 -1.3073
  911MOL0     N25631   9.847   9.612  10.811  0.5014  0.5063 -0.3879
  911MOL0     N25632   9.782   9.722  10.815 -0.0560  0.1302 -0.4560
  911MOL0     C25633   8.960  10.611  10.462 -0.4408 -0.7600  0.3066
  911MOL0     C25634   8.846  10.695  10.437 -0.6628  0.9341 -0.3671
  911MOL0     C25635   8.458  10.872  10.369  0.3502  0.3097  0.2520
  911MOL0     C25636   8.467  11.002  10.432 -0.0379  0.1654  0.2464
  911MOL0     C25637   8.401  11.112  10.378 -0.7866 -0.0094 -1.1279
  911MOL0     C25638   8.320  11.096  10.269  0.2226  0.2124 -0.8592
  911MOL0     O25639   8.261  11.210  10.225  0.7454 -0.4579  0.7002
  911MOL0     C25640   8.151  11.209  10.135 -1.0751 -0.1577  0.6786
  911MOL0     C25641   8.201  11.252   9.992  0.4595 -0.8395 -0.7700
  911MOL0     C25642   8.082  11.335   9.926  0.5439  0.5332  0.2806
  911MOL0     C25643   8.098  11.376   9.780  0.3270  0.0867  0.0176
  911MOL0     C25644   8.195  11.485   9.770 -0.1331 -0.6200  0.6221
  911MOL0     C25645   8.278  11.577   9.773  0.3353  0.0612 -0.0019
  911MOL0     C25646   8.294  10.967  10.216  0.4826 -0.1743  0.0754
  911MOL0     C25647   8.366  10.851  10.266  0.0447 -0.8160  0.1614
  911MOL0     C25648   8.315  10.720  10.202 -0.8981 -0.1858 -0.0522
  911MOL0     H25649   8.701  10.662  10.742  1.9080  1.8273  2.7271
  911MOL0     H25650   8.907  10.539  10.790 -1.3827 -1.2198 -0.1969
  911MOL0     H25651   9.226  10.496  10.448  1.3972 -0.1191  0.1024
  911MOL0     H25652   9.144  10.339  10.495 -0.0357  0.8391  0.1875
  911MOL0     H25653   9.397  10.465  10.595  0.8180  0.3116 -1.5534
  911MOL0     H25654   9.285  10.374  10.705  0.6122  1.2387 -0.0403
  911MOL0     H25655   9.317  10.229  10.457  2.3241  1.6147 -2.1804
  911MOL0     H25656   9.467  10.316  10.480 -0.3429  0.2109 -2.1327
  911MOL0     H25657   9.454  10.229  10.739 -0.8134  0.0100  0.1029
  911MOL0     H25658   9.351  10.110  10.661 -0.2000 -1.4423 -0.5704
  911MOL0     H25659   9.650  10.151  10.594  0.8616 -0.8156  0.3375
  911MOL0     H25660   9.540  10.024  10.529  0.6590 -1.1913  0.4504
  911MOL0     H25661   9.697   9.964  10.717 -0.0641 -1.1222 -1.9211
  911MOL0     H25662   9.586  10.064  10.819 -3.0988  1.0454 -0.3332
  911MOL0     H25663   9.490   9.824  10.655 -1.5341 -1.0408  1.0249
  911MOL0     H25664   9.400   9.928  10.772  0.9696  2.1502  1.3903
  911MOL0     H25665   9.590   9.871  10.931 -1.5692  0.3997 -0.2130
  911MOL0     H25666   9.451   9.759  10.894 -1.5535  1.0989 -1.7809
  911MOL0     H25667   9.537   9.510  10.865 -1.9682  2.9985 -1.1139
  911MOL0     H25668   9.756   9.288  10.865  0.9478 -0.7845 -0.0279
  911MOL0     H25669   9.910   9.364  10.831  0.7484 -0.3321 -2.8352
  911MOL0     H25670   9.693   9.293  10.630 -0.1949 -0.5240  1.0712
  911MOL0     H25671   9.789   9.419  10.594 -2.8027 -1.2002 -0.9892
  911MOL0     H25672   9.881   9.202  10.513  0.2968  1.2431  0.1878
  911MOL0     H25673  10.006   9.281  10.610 -1.2547  3.3541  1.3286
  911MOL0     H25674   9.936   9.133  10.802  0.2251  3.7524 -0.8827
  911MOL0     H25675   9.837   9.030  10.684  2.0200 -0.8347 -2.1716
  911MOL0     H25676  10.090   9.051  10.931 -2.3743 -1.8083  1.7471
  911MOL0     H25677  10.216   8.991  11.121 -0.6112 -0.7560  3.8247
  911MOL0     H25678  10.315   8.849  11.129 -0.3786 -1.0194  2.6799
  911MOL0     H25679  10.146   8.833  11.164  0.4036  0.5789  0.0352
  911MOL0     H25680  10.343   8.288  10.779 -1.2336 -0.5987 -0.4165
  911MOL0     H25681  10.366   8.067  10.869  0.1962  0.8597 -1.4562
  911MOL0     H25682  10.099   7.929  11.183  0.3874 -0.6673  1.3727
  911MOL0     H25683  10.118   7.915  11.009 -0.6315 -1.3634  0.4888
  911MOL0     H25684  10.279   7.721  11.039  0.8016 -0.4373  1.3275
  911MOL0     H25685  10.266   7.744  11.207  2.2471 -1.1764 -1.1916
  911MOL0     H25686  10.046   7.644  11.002 -2.0522 -0.7766  0.7795
  911MOL0     H25687  10.000   7.726  11.150  1.0459  2.2723 -1.4585
  911MOL0     H25688   9.997   7.472  11.174 -0.1372 -0.4852 -2.5080
  911MOL0     H25689  10.135   7.547  11.270  4.0477 -0.8658 -1.1202
  911MOL0     H25690  10.186   7.461  10.982 -0.4757  3.6630 -0.6993
  911MOL0     H25691  10.280   7.457  11.129 -0.6124  0.8634 -1.1998
  911MOL0     H25692  10.113   7.267  11.197 -1.4816 -0.8576  0.0584
  911MOL0     H25693  10.232   7.233  11.070  1.6751  2.3937  0.7238
  911MOL0     H25694  10.049   7.238  10.892 -0.6810 -1.7202  0.0946
  911MOL0     H25695   9.933   7.311  11.010  0.3376  1.1369  1.8995
  911MOL0     H25696  10.079   7.046  11.062  1.0269  0.2668 -0.6378
  911MOL0     H25697   9.934   7.050  10.960  1.0937  0.4882 -0.3269
  911MOL0     H25698  10.177   8.181  11.235  1.2370 -3.6817  0.0296
  911MOL0     H25699  10.151   8.418  11.131 -1.7554 -0.3406 -0.7884
  911MOL0     H25700  10.225   8.637  10.697 -1.8894 -0.7359 -1.1894
  911MOL0     H25701  10.123   8.833  10.564  1.3718 -0.9769 -1.4052
  911MOL0     H25702   9.039  10.601  10.388  1.6337  3.9267  1.5491
  911MOL0     H25703   8.834  10.737  10.337  0.9168  0.3542 -0.8237
  911MOL0     H25704   8.516  11.007  10.529 -1.1573 -1.0304  0.9033
  911MOL0     H25705   8.425  11.210  10.419  0.2937 -0.6122 -0.2477
  911MOL0     H25706   8.088  11.120  10.131 -0.6616 -0.4131 -2.7099
  911MOL0     H25707   8.078  11.279  10.177 -1.5743 -0.8233  0.9429
  911MOL0     H25708   8.217  11.167   9.925  3.2522 -0.7220 -0.3544
  911MOL0     H25709   8.292  11.308  10.016 -0.7921  0.5686  0.9336
  911MOL0     H25710   7.995  11.268   9.932  0.3339  0.4662 -2.3016
  911MOL0     H25711   8.072  11.428   9.983 -0.3676  1.0550 -0.7033
  911MOL0     H25712   8.004  11.412   9.738  0.1821 -0.5582 -0.2120
  911MOL0     H25713   8.124  11.291   9.717 -1.6700 -0.4213 -0.1914
  911MOL0     H25714   8.350  11.657   9.768 -0.6334  0.9052 -3.9450
  911MOL0     H25715   8.218  10.960  10.139 -0.0550  1.9480  0.3624
  911MOL0     H25716   8.238  10.733  10.125 -0.8295 -2.7960 -0.6763
  911MOL0     H25717   8.398  10.664  10.157 -3.5495 -3.5784 -1.2203
  911MOL0     H25718   8.254  10.657  10.267 -2.2981  0.8209 -0.3630
  912MOL0     O25719   6.456   2.060   6.956  0.5385 -1.2556  0.4190
  912MOL0     C25720   6.444   2.109   6.842 -0.7251 -0.3489  0.2692
  912MOL0     O25721   6.557   2.122   6.750  0.8238  0.0591  0.1961
  912MOL0     C25722   6.688   2.074   6.780 -0.7265  0.6429  0.1353
  912MOL0     C25723   6.752   2.005   6.683  0.7849  0.4607 -0.1743
  912MOL0     C25724   6.873   1.952   6.693 -0.0727 -0.1896  0.0911
  912MOL0     C25725   6.936   1.943   6.824 -0.1074 -0.6513  0.9843
  912MOL0     O25726   7.052   1.873   6.841  0.5693  0.3423  0.0486
  912MOL0     C25727   7.045   1.770   6.939  0.4985 -0.9038  0.6454
  912MOL0     C25728   7.189   1.706   6.955 -0.0092 -0.6357 -0.4208
  912MOL0     C25729   7.194   1.635   7.095  1.0453 -0.0460  0.3157
  912MOL0     C25730   7.333   1.560   7.120 -0.0405  0.6542 -0.0059
  912MOL0     C25731   7.332   1.454   7.229  0.2747  0.2335  0.2706
  912MOL0     C25732   7.245   1.342   7.201 -0.0842 -0.0636 -0.1032
  912MOL0     C25733   7.306   1.252   7.086 -0.1874  0.3445  0.0369
  912MOL0     C25734   7.207   1.171   7.006  0.1703 -0.0092  0.2077
  912MOL0     N25735   7.259   1.144   6.872 -0.0948 -0.4779 -0.3103
  912MOL0     C25736   7.214   1.202   6.756  0.3431 -0.1998 -0.4965
  912MOL0     C25737   7.295   1.166   6.664  0.1922  0.7995  0.6934
  912MOL0     C25738   7.282   1.200   6.515 -0.9191  0.1778  0.1270
  912MOL0     C25739   7.258   1.072   6.424 -0.4348 -0.1636 -0.0893
  912MOL0     C25740   7.122   1.008   6.452  0.1057 -0.6803  0.1413
  912MOL0     C25741   7.132   0.881   6.525  0.4267  0.2433  0.0711
  912MOL0     O25742   7.233   0.797   6.472 -0.2829  0.1673  0.4725
  912MOL0     C25743   7.294   0.719   6.562  0.1419  0.0718 -0.3081
  912MOL0     C25744   7.405   0.765   6.629 -0.3810  0.2213 -1.1357
  912MOL0     C25745   7.484   0.681   6.712  0.0485 -0.0512  0.7615
  912MOL0     C25746   7.598   0.748   6.780  0.3815 -0.4704  0.0376
  912MOL0     C25747   7.462   0.542   6.729  0.5865  0.0844 -0.9125
  912MOL0     C25748   7.536   0.443   6.819  1.2407  0.3486  0.4638
  912MOL0     O25749   7.459   0.324   6.864 -0.4135  0.4915  0.0412
  912MOL0     C25750   7.504   0.242   6.964  0.1479 -0.3003 -0.8025
  912MOL0     C25751   7.484   0.283   7.098 -1.2360  0.2942 -0.0061
  912MOL0     C25752   7.508   0.193   7.200 -0.3393 -0.0598  0.0429
  912MOL0     C25753   7.567   0.063   7.169  0.0698 -0.6276 -0.3139
  912MOL0     O25754   7.580  -0.022   7.276 -0.5769  0.7273 -0.3966
  912MOL0     C25755   7.630  -0.156   7.255 -0.3464 -0.4320 -0.9206
  912MOL0     C25756   7.655  -0.222   7.388  0.2449  0.1065  0.1356
  912MOL0     C25757   7.538  -0.232   7.485 -0.4686  0.4000 -0.0030
  912MOL0     C25758   7.422  -0.316   7.433 -0.1080  0.3480  0.1022
  912MOL0     C25759   7.321  -0.355   7.539  0.0841 -0.3793 -0.7698
  912MOL0     C25760   7.233  -0.461   7.471 -0.4309  0.8277 -0.1358
  912MOL0     C25761   7.119  -0.528   7.556  0.3521 -0.8715 -0.1056
  912MOL0     C25762   7.035  -0.421   7.641  0.3142 -0.8451 -0.0022
  912MOL0    Cl25763   6.862  -0.470   7.662  0.0440  0.0716  0.3238
  912MOL0     C25764   7.590   0.022   7.037 -0.8014 -0.4473 -0.1911
  912MOL0     C25765   7.548   0.112   6.937 -0.4373 -0.2400 -0.0668
  912MOL0     O25766   7.646   0.467   6.865  0.1341 -0.4178 -0.0199
  912MOL0     C25767   7.346   0.496   6.660  0.4686  1.2006 -0.2020
  912MOL0     C25768   7.270   0.583   6.574  0.0542  0.1736 -0.2916
  912MOL0     N25769   7.395   1.087   6.715 -0.3447  0.1372 -0.1868
  912MOL0     N25770   7.371   1.068   6.842  0.8659  0.2777 -0.7598
  912MOL0     C25771   6.876   2.016   6.925 -0.8206 -0.1337 -0.9905
  912MOL0     C25772   6.750   2.078   6.904 -0.2016 -0.3519 -0.1507
  912MOL0     C25773   6.310   2.149   6.805 -0.7502 -0.5862  0.2241
  912MOL0     C25774   6.298   2.260   6.720  0.5602  0.2981 -0.7017
  912MOL0     C25775   6.169   2.316   6.700 -0.3774  2.0980 -0.9227
  912MOL0     C25776   6.052   2.263   6.758  0.2027  0.3031  0.2626
  912MOL0     O25777   5.927   2.320   6.742  1.0603  0.6723  0.9048
  912MOL0     C25778   5.901   2.436   6.661  0.1289  0.0724  0.5228
  912MOL0     C25779   5.925   2.410   6.511  0.1461  0.4680 -0.3960
  912MOL0     C25780   5.818   2.332   6.438  0.1174 -0.5062  0.2600
  912MOL0     C25781   5.688   2.409   6.417  0.3224 -0.6508  0.2328
  912MOL0     C25782   5.691   2.522   6.314  0.4773  1.2507 -0.3318
  912MOL0     C25783   5.703   2.588   6.214  0.3667 -0.5211  0.0040
  912MOL0     C25784   6.066   2.146   6.827 -0.6592  0.4830  0.3945
  912MOL0     C25785   6.190   2.097   6.859  0.1382  0.6947 -0.2927
  912MOL0     C25786   6.183   1.965   6.932  0.8199 -0.1208 -0.5501
  912MOL0     H25787   6.702   2.009   6.586 -0.0222 -1.1243  0.1302
  912MOL0     H25788   6.921   1.898   6.612 -1.3581 -0.7521 -0.3291
  912MOL0     H25789   6.981   1.691   6.898 -0.3593  0.9387 -1.8671
  912MOL0     H25790   6.991   1.804   7.027 -0.6632 -0.2267 -0.2985
  912MOL0     H25791   7.209   1.629   6.880 -3.5623 -1.2322 -0.9451
  912MOL0     H25792   7.263   1.785   6.971 -1.2677  0.6424 -0.7026
  912MOL0     H25793   7.171   1.710   7.171  2.5952  1.6701 -0.8370
  912MOL0     H25794   7.110   1.565   7.090 -0.6034  1.8964 -0.5142
  912MOL0     H25795   7.364   1.498   7.035 -0.1769 -1.7505  1.5972
  912MOL0     H25796   7.405   1.641   7.134  1.8269 -0.3591 -2.8684
  912MOL0     H25797   7.291   1.502   7.318 -1.2045 -0.0177 -0.2519
  912MOL0     H25798   7.434   1.417   7.239  1.3861  2.8736 -0.3719
  912MOL0     H25799   7.242   1.281   7.291  2.6971  1.7598  1.3659
  912MOL0     H25800   7.143   1.370   7.176 -0.4382  3.1251  4.0069
  912MOL0     H25801   7.374   1.180   7.132 -1.9477 -3.2418 -2.4399
  912MOL0     H25802   7.372   1.299   7.013  1.2041 -2.1920 -0.4709
  912MOL0     H25803   7.174   1.083   7.062 -0.8004  0.7175  0.8342
  912MOL0     H25804   7.113   1.227   6.996  0.2010  0.1065  0.5420
  912MOL0     H25805   7.129   1.268   6.749  0.3654  0.0541  1.0724
  912MOL0     H25806   7.373   1.250   6.480 -0.9166  1.1531  1.4416
  912MOL0     H25807   7.199   1.266   6.491 -1.6939  0.5642  3.3680
  912MOL0     H25808   7.253   1.091   6.316 -1.5744 -2.1361 -0.4274
  912MOL0     H25809   7.339   0.999   6.438 -0.3678 -0.2737 -0.9842
  912MOL0     H25810   7.073   1.074   6.524  3.7024 -1.0836  3.2609
  912MOL0     H25811   7.070   0.995   6.356  0.2057  0.7151 -0.1225
  912MOL0     H25812   7.145   0.903   6.631  1.5452  3.0469 -0.5576
  912MOL0     H25813   7.031   0.838   6.524 -0.9749  2.8425  4.2052
  912MOL0     H25814   7.448   0.865   6.619 -0.3253  0.3767  0.4792
  912MOL0     H25815   7.586   0.856   6.794  3.3404 -0.1687  0.8697
  912MOL0     H25816   7.692   0.736   6.725  1.1760  1.8750  0.7676
  912MOL0     H25817   7.607   0.703   6.879 -1.5732 -1.0756 -0.0265
  912MOL0     H25818   7.458   0.386   7.119 -0.4505  0.6164 -0.5942
  912MOL0     H25819   7.480   0.212   7.303  1.6410  0.3236  0.5530
  912MOL0     H25820   7.579  -0.219   7.182 -0.8707 -0.2103 -0.7532
  912MOL0     H25821   7.727  -0.140   7.208  2.1700 -2.5011  2.9884
  912MOL0     H25822   7.685  -0.327   7.375 -0.8562 -0.0832 -1.0988
  912MOL0     H25823   7.739  -0.170   7.435 -1.1503  2.5702  0.0324
  912MOL0     H25824   7.508  -0.128   7.500 -1.8677  0.0066 -0.0119
  912MOL0     H25825   7.565  -0.262   7.587 -0.8832  1.6160  0.4776
  912MOL0     H25826   7.462  -0.411   7.394  1.0487 -0.2195  2.4927
  912MOL0     H25827   7.381  -0.264   7.346  0.6685 -3.1838 -2.5956
  912MOL0     H25828   7.370  -0.390   7.631 -2.4858 -0.1658  0.7998
  912MOL0     H25829   7.267  -0.266   7.574  2.4689  0.0379  2.2465
  912MOL0     H25830   7.287  -0.551   7.442 -1.7060  0.2583 -0.7977
  912MOL0     H25831   7.197  -0.416   7.378 -2.2575  2.3029  1.2020
  912MOL0     H25832   7.157  -0.609   7.619  0.3550 -0.0546  0.9708
  912MOL0     H25833   7.056  -0.565   7.475 -0.3165 -1.7709  0.8146
  912MOL0     H25834   7.033  -0.333   7.575  0.1850 -2.4789 -2.2772
  912MOL0     H25835   7.072  -0.397   7.741  0.0531  4.5003 -0.8892
  912MOL0     H25836   7.616  -0.082   7.018  2.0895 -0.0531  1.0171
  912MOL0     H25837   7.545   0.083   6.833 -0.7708 -0.4805  0.0101
  912MOL0     H25838   7.315   0.392   6.669  0.6943  1.1370 -0.1544
  912MOL0     H25839   7.191   0.538   6.514 -0.3937 -2.0066  1.7918
  912MOL0     H25840   6.935   2.018   7.016  1.3830  2.0197 -2.3369
  912MOL0     H25841   6.714   2.138   6.987  1.4865  0.3418  0.1355
  912MOL0     H25842   6.394   2.300   6.689  0.5742  1.1567  0.3734
  912MOL0     H25843   6.169   2.404   6.636 -1.6623  2.7099 -0.1199
  912MOL0     H25844   5.798   2.470   6.665 -0.0478 -0.5402  2.8193
  912MOL0     H25845   5.960   2.519   6.702 -1.3793  0.3917  2.1970
  912MOL0     H25846   6.012   2.343   6.503  0.9720  1.3240  0.8690
  912MOL0     H25847   5.951   2.499   6.453 -0.8398  1.8039  1.1279
  912MOL0     H25848   5.862   2.311   6.340  0.0480  0.3061  0.0542
  912MOL0     H25849   5.806   2.233   6.484 -2.0993 -0.8237 -0.8903
  912MOL0     H25850   5.645   2.445   6.511  1.8007  1.2609  0.2351
  912MOL0     H25851   5.621   2.329   6.383  1.6670 -2.3628  1.4458
  912MOL0     H25852   5.712   2.667   6.143  0.3079  1.6080  2.2338
  912MOL0     H25853   5.966   2.115   6.856 -1.4683  2.9849  0.4949
  912MOL0     H25854   6.261   1.894   6.903  0.6677 -1.0289  1.1518
  912MOL0     H25855   6.178   1.977   7.040  0.5334 -1.8265 -0.3445
  912MOL0     H25856   6.087   1.918   6.907  0.1138  0.4015  1.0938
  913MOL0     O25857   9.463   7.716   3.672  0.6443 -0.0273  0.5877
  913MOL0     C25858   9.523   7.611   3.653 -0.0659 -0.3549 -0.2693
  913MOL0     O25859   9.503   7.533   3.545 -0.1232  0.4150  0.3852
  913MOL0     C25860   9.442   7.569   3.420  0.2473 -1.0633 -0.6523
  913MOL0     C25861   9.400   7.699   3.377  0.5278  0.9388 -0.3359
  913MOL0     C25862   9.330   7.718   3.263  0.1843 -0.3063  0.6437
  913MOL0     C25863   9.309   7.613   3.176 -0.6343 -0.2831 -0.1700
  913MOL0     O25864   9.246   7.645   3.057 -0.3848 -0.1348  0.0020
  913MOL0     C25865   9.177   7.541   2.976 -0.1245  1.0068 -0.1728
  913MOL0     C25866   9.045   7.494   3.046  0.6994  0.7290 -0.1088
  913MOL0     C25867   8.952   7.615   3.080  0.0975  0.4320 -0.1632
  913MOL0     C25868   8.836   7.570   3.159  0.3316  0.1238  0.4084
  913MOL0     C25869   8.861   7.510   3.296 -0.5748  0.7772 -0.6235
  913MOL0     C25870   8.954   7.607   3.377  0.1460  0.4566 -0.3272
  913MOL0     C25871   8.935   7.594   3.521  0.8555 -0.1984  0.0901
  913MOL0     C25872   8.988   7.454   3.581  0.2973 -0.6476 -0.3724
  913MOL0     N25873   8.940   7.424   3.716 -0.5483 -0.2968 -0.0576
  913MOL0     C25874   8.922   7.522   3.810 -0.0870 -0.9652 -0.0058
  913MOL0     C25875   8.894   7.455   3.929  0.3246  1.4312  0.6406
  913MOL0     C25876   8.855   7.504   4.065  0.3880 -1.0534  0.0950
  913MOL0     C25877   8.963   7.496   4.169  0.0628 -0.4121 -0.1199
  913MOL0     C25878   8.890   7.532   4.304 -0.8709  1.0108 -0.1355
  913MOL0     C25879   8.990   7.551   4.413 -0.1395 -0.7213  0.1391
  913MOL0     O25880   9.095   7.452   4.420  0.0597 -0.3833  0.1518
  913MOL0     C25881   9.191   7.474   4.520  0.2988  0.0692 -0.0288
  913MOL0     C25882   9.273   7.365   4.539 -0.2191  0.5355  0.1175
  913MOL0     C25883   9.374   7.371   4.639 -0.7625  0.3612 -0.6247
  913MOL0     C25884   9.476   7.254   4.656  0.8119 -0.8880 -0.1043
  913MOL0     C25885   9.390   7.499   4.713 -0.0282  0.8233 -0.0510
  913MOL0     C25886   9.498   7.513   4.817 -0.0392 -0.0438  0.1610
  913MOL0     O25887   9.631   7.487   4.772  0.3436  0.3025 -0.3389
  913MOL0     C25888   9.730   7.457   4.865 -0.1163  0.1231 -0.1997
  913MOL0     C25889   9.800   7.337   4.846 -0.8629  0.8061 -0.0575
  913MOL0     C25890   9.906   7.294   4.921 -0.1236 -0.1325  0.2024
  913MOL0     C25891   9.939   7.375   5.035  0.1026  0.6728 -0.2204
  913MOL0     O25892  10.031   7.345   5.131 -0.0495 -0.4329 -0.1596
  913MOL0     C25893  10.073   7.209   5.137  0.0548  0.8116 -0.8051
  913MOL0     C25894  10.154   7.187   5.262 -0.6869  0.6119 -0.1323
  913MOL0     C25895  10.089   7.219   5.404 -0.3820 -0.0126  0.3054
  913MOL0     C25896   9.951   7.163   5.431  0.5168  0.4364  0.3918
  913MOL0     C25897   9.940   7.153   5.578  0.8354 -0.8739  0.5328
  913MOL0     C25898   9.809   7.099   5.628  0.3177  0.4246  0.2348
  913MOL0     C25899   9.799   7.117   5.786 -0.7891 -1.3958  0.4626
  913MOL0     C25900   9.696   7.033   5.855  0.1064 -0.8252  0.2489
  913MOL0    Cl25901   9.707   7.066   6.026  0.6671  0.3224  0.2833
  913MOL0     C25902   9.875   7.501   5.057 -0.2322  0.5830 -0.4189
  913MOL0     C25903   9.776   7.540   4.972  0.3878  1.0808 -1.4273
  913MOL0     O25904   9.464   7.549   4.928 -0.2266 -0.7228  0.2677
  913MOL0     C25905   9.318   7.612   4.679  0.7066  0.1258 -0.2566
  913MOL0     C25906   9.215   7.594   4.584  0.0247  0.5381 -0.1757
  913MOL0     N25907   8.895   7.324   3.896  0.1537  0.7889  1.1238
  913MOL0     N25908   8.928   7.299   3.772  0.6804 -0.1656 -0.4341
  913MOL0     C25909   9.360   7.484   3.208 -0.3187 -0.2767 -0.1252
  913MOL0     C25910   9.423   7.470   3.323  0.4926 -0.4335 -0.4938
  913MOL0     C25911   9.626   7.567   3.747  0.0328 -0.5802 -0.6243
  913MOL0     C25912   9.761   7.537   3.695 -0.2899 -0.6727  0.1106
  913MOL0     C25913   9.866   7.507   3.774  0.6687  0.1764  0.6153
  913MOL0     C25914   9.847   7.486   3.912 -0.5272  1.0928  0.4854
  913MOL0     O25915   9.932   7.452   4.012  0.0430  0.7765  0.1790
  913MOL0     C25916  10.070   7.459   3.982 -0.1316  0.6176  0.3997
  913MOL0     C25917  10.169   7.442   4.099 -0.9612  0.5367  0.3502
  913MOL0     C25918  10.178   7.571   4.190  0.8784 -0.8849 -0.5661
  913MOL0     C25919  10.292   7.541   4.294  0.2872 -0.5361  0.1774
  913MOL0     C25920  10.267   7.613   4.424  0.2601  0.1884  0.6169
  913MOL0     C25921  10.250   7.667   4.533 -0.4098 -0.9105  0.6794
  913MOL0     C25922   9.719   7.506   3.965  1.1344  0.6981 -0.1254
  913MOL0     C25923   9.606   7.543   3.885 -0.9214  0.0078  0.3899
  913MOL0     C25924   9.467   7.561   3.940 -0.7752  1.7195  0.9013
  913MOL0     H25925   9.426   7.789   3.432  2.2392  1.7896 -2.4077
  913MOL0     H25926   9.298   7.817   3.231  1.5535 -0.5134 -1.6138
  913MOL0     H25927   9.241   7.454   2.959 -0.9371  0.4118 -0.2652
  913MOL0     H25928   9.139   7.587   2.885  0.8848  0.7068 -0.7550
  913MOL0     H25929   8.996   7.421   2.981  0.8766 -1.3825  1.9942
  913MOL0     H25930   9.061   7.437   3.138 -0.9487 -1.0011 -0.8128
  913MOL0     H25931   9.009   7.688   3.139 -1.6519  3.0950 -1.5551
  913MOL0     H25932   8.938   7.675   2.990 -0.1788  0.3872 -0.1493
  913MOL0     H25933   8.776   7.660   3.180 -0.8708 -0.5439 -0.0353
  913MOL0     H25934   8.777   7.501   3.097  2.4915 -1.4938  0.0398
  913MOL0     H25935   8.906   7.410   3.294 -2.5716 -0.2728  1.6287
  913MOL0     H25936   8.767   7.497   3.352  0.7692  0.1115  1.6248
  913MOL0     H25937   9.057   7.585   3.348  0.2115  0.2708  0.0345
  913MOL0     H25938   8.932   7.711   3.351  1.2749  1.3687  2.0432
  913MOL0     H25939   8.828   7.607   3.538  1.0880  1.0597  0.6627
  913MOL0     H25940   8.995   7.675   3.562 -0.9161  1.9992 -1.4518
  913MOL0     H25941   8.967   7.361   3.527  0.7055 -1.1072  0.2467
  913MOL0     H25942   9.096   7.467   3.584  0.1314  1.7852 -2.0898
  913MOL0     H25943   8.931   7.630   3.809  3.0422 -1.1329 -0.0257
  913MOL0     H25944   8.764   7.456   4.101  0.5468 -0.2279  1.6804
  913MOL0     H25945   8.849   7.611   4.042  0.9620 -1.3570 -1.6246
  913MOL0     H25946   9.006   7.395   4.163 -1.2658 -0.9710 -0.5789
  913MOL0     H25947   9.046   7.567   4.164  1.5503 -2.1329 -1.5649
  913MOL0     H25948   8.822   7.615   4.284  1.2270  2.1703 -3.4497
  913MOL0     H25949   8.822   7.452   4.334  1.0362 -0.4663  0.4761
  913MOL0     H25950   9.040   7.647   4.395  4.5618 -2.9163 -0.0649
  913MOL0     H25951   8.946   7.566   4.512  1.1534  3.3573  0.3015
  913MOL0     H25952   9.253   7.274   4.483  1.7429  0.1459 -0.0364
  913MOL0     H25953   9.514   7.253   4.759  0.6535 -0.9303 -0.0460
  913MOL0     H25954   9.555   7.266   4.581  5.1272 -1.7096  3.8523
  913MOL0     H25955   9.418   7.166   4.630  0.4249 -0.0422 -2.3909
  913MOL0     H25956   9.782   7.283   4.753  2.0138  0.7890 -0.7101
  913MOL0     H25957   9.951   7.201   4.889  0.3441  1.0664 -2.9037
  913MOL0     H25958   9.988   7.141   5.143  2.3715 -2.1485  1.6209
  913MOL0     H25959  10.126   7.198   5.042  0.5004  1.6112 -0.6638
  913MOL0     H25960  10.195   7.086   5.274 -1.6620  0.4141  1.9598
  913MOL0     H25961  10.245   7.249   5.264  0.8247 -1.4691 -0.7097
  913MOL0     H25962  10.099   7.326   5.423 -0.6310  0.7384 -3.0738
  913MOL0     H25963  10.169   7.179   5.467  2.0585  4.6339  0.6272
  913MOL0     H25964   9.943   7.061   5.392 -0.7158 -0.2596  2.3050
  913MOL0     H25965   9.870   7.220   5.384  0.5271  0.1642  0.0424
  913MOL0     H25966  10.005   7.082   5.630 -0.5307 -2.4579  0.1469
  913MOL0     H25967   9.952   7.253   5.620 -1.2924 -0.6120  0.6485
  913MOL0     H25968   9.819   6.993   5.603  1.4333  0.6749 -0.4180
  913MOL0     H25969   9.729   7.146   5.570 -1.3851 -0.9566  1.3294
  913MOL0     H25970   9.788   7.225   5.801  0.5338 -1.4963  2.5889
  913MOL0     H25971   9.892   7.087   5.835 -0.8815 -2.6978 -0.1315
  913MOL0     H25972   9.726   6.929   5.838  1.7372 -0.3174 -0.1540
  913MOL0     H25973   9.595   7.064   5.825  2.2497  5.4154 -1.9713
  913MOL0     H25974   9.898   7.571   5.136  0.9424  0.8880 -0.9964
  913MOL0     H25975   9.709   7.624   4.987  2.0642  2.3232 -0.4849
  913MOL0     H25976   9.329   7.711   4.720 -1.2599  0.2546  0.0464
  913MOL0     H25977   9.166   7.687   4.560  0.7350  1.4669  1.7707
  913MOL0     H25978   9.337   7.399   3.145  0.8320  0.8038 -2.0710
  913MOL0     H25979   9.472   7.375   3.341 -0.3638 -0.6954  0.5728
  913MOL0     H25980   9.783   7.569   3.593 -0.6480 -0.0560  0.2203
  913MOL0     H25981   9.967   7.497   3.736 -0.0894 -3.8845 -0.9199
  913MOL0     H25982  10.092   7.381   3.908 -0.8222  0.4570  0.3649
  913MOL0     H25983  10.089   7.550   3.925 -1.1308 -1.1431 -2.9700
  913MOL0     H25984  10.267   7.425   4.054 -1.2672  1.1168 -0.5647
  913MOL0     H25985  10.147   7.349   4.152  2.2281 -0.0642  0.8181
  913MOL0     H25986  10.199   7.657   4.126 -0.4899  0.9405  1.3206
  913MOL0     H25987  10.082   7.587   4.241 -0.4315 -1.6282 -2.6740
  913MOL0     H25988  10.386   7.579   4.252  0.5207 -2.8364 -1.5455
  913MOL0     H25989  10.301   7.433   4.307  0.0476 -0.5765  0.0170
  913MOL0     H25990  10.231   7.707   4.631 -0.3433 -1.0090  0.7322
  913MOL0     H25991   9.692   7.501   4.070 -1.8502  1.2041 -0.7673
  913MOL0     H25992   9.394   7.506   3.880 -2.0201  0.4674  3.3961
  913MOL0     H25993   9.471   7.526   4.044 -1.3775  1.7517  0.9414
  913MOL0     H25994   9.444   7.668   3.938 -1.1908  1.6835 -2.5084
  914MOL0     O25995   8.297  10.583   5.432  0.1004  0.2610 -0.0134
  914MOL0     C25996   8.361  10.628   5.340 -0.3134  0.6567 -0.3282
  914MOL0     O25997   8.307  10.640   5.215  0.5067 -0.3808  0.9308
  914MOL0     C25998   8.165  10.652   5.199 -0.5094 -0.7865  0.1131
  914MOL0     C25999   8.112  10.615   5.074 -0.1573 -0.1284 -0.2148
  914MOL0     C26000   7.983  10.623   5.042 -0.4733  0.0468 -0.8702
  914MOL0     C26001   7.895  10.677   5.137 -0.1068 -0.0615 -0.0448
  914MOL0     O26002   7.762  10.709   5.120  0.8645  0.1160 -0.5879
  914MOL0     C26003   7.718  10.720   4.987 -0.3043  0.7405  0.0126
  914MOL0     C26004   7.574  10.771   4.991 -0.3454  0.0507 -0.0512
  914MOL0     C26005   7.481  10.690   5.081  0.3657 -0.3620 -0.8556
  914MOL0     C26006   7.351  10.773   5.103 -0.7967 -0.0590  0.4909
  914MOL0     C26007   7.243  10.687   5.170 -0.1885 -0.1814 -1.0502
  914MOL0     C26008   7.202  10.564   5.087 -0.1737  0.6402 -0.6175
  914MOL0     C26009   7.066  10.488   5.131 -0.0668 -0.3624 -0.0349
  914MOL0     C26010   7.088  10.360   5.222 -0.0967 -0.7096  0.0616
  914MOL0     N26011   6.970  10.309   5.288  0.2485 -0.0469  0.6635
  914MOL0     C26012   6.937  10.330   5.417 -1.1859  0.3466  0.5089
  914MOL0     C26013   6.833  10.250   5.430 -1.0123 -0.4759  0.1258
  914MOL0     C26014   6.753  10.256   5.562 -0.5210 -0.3478 -0.4045
  914MOL0     C26015   6.843  10.197   5.677  0.0849  0.0624  1.6151
  914MOL0     C26016   6.852  10.049   5.667  0.2057 -0.5059 -1.2872
  914MOL0     C26017   6.851   9.975   5.798  0.1783 -0.0304  0.0192
  914MOL0     O26018   6.816   9.834   5.766  0.3017  0.1797  0.0173
  914MOL0     C26019   6.899   9.730   5.814  0.4781 -0.6060  0.1914
  914MOL0     C26020   6.983   9.745   5.930 -0.5789  0.6817 -0.4901
  914MOL0     C26021   7.048   9.637   5.984  0.0931 -0.3860 -0.2432
  914MOL0     C26022   7.142   9.667   6.103  0.2299  0.0189 -0.0178
  914MOL0     C26023   7.033   9.512   5.918 -0.1083 -0.6806  0.7173
  914MOL0     C26024   7.105   9.388   5.963 -0.4024  0.4304 -0.6749
  914MOL0     O26025   7.138   9.374   6.107 -0.0133  0.2608  0.8873
  914MOL0     C26026   7.225   9.273   6.143  1.2686  1.0490  0.8690
  914MOL0     C26027   7.332   9.220   6.063  0.1288 -0.5951 -1.0848
  914MOL0     C26028   7.417   9.126   6.119 -0.7729  0.0198 -0.3824
  914MOL0     C26029   7.406   9.089   6.256  0.9686 -0.7991 -0.3007
  914MOL0     O26030   7.480   8.996   6.325  0.2564 -0.3505 -0.7770
  914MOL0     C26031   7.582   8.938   6.255 -0.0072  0.3741 -0.3263
  914MOL0     C26032   7.656   8.852   6.356  1.2312 -0.0279 -1.0121
  914MOL0     C26033   7.584   8.713   6.367  0.4370 -0.0994  0.0042
  914MOL0     C26034   7.672   8.613   6.439  0.5182 -1.4354  0.0282
  914MOL0     C26035   7.593   8.495   6.510  0.1950 -0.4566 -0.4851
  914MOL0     C26036   7.555   8.387   6.402  0.3439 -0.0154 -0.4264
  914MOL0     C26037   7.667   8.286   6.375 -0.4280 -0.6640 -0.6348
  914MOL0     C26038   7.643   8.170   6.274  0.3677  0.7816  0.3714
  914MOL0    Cl26039   7.792   8.075   6.258  0.1846 -0.0649  0.0935
  914MOL0     C26040   7.294   9.132   6.328  1.0549  0.3489 -0.3927
  914MOL0     C26041   7.206   9.235   6.276 -0.2957  1.2504  0.1749
  914MOL0     O26042   7.119   9.295   5.886  0.2043 -0.1694  0.5734
  914MOL0     C26043   6.952   9.494   5.799 -0.4502 -0.4871 -0.1412
  914MOL0     C26044   6.882   9.612   5.748 -0.0697 -0.3250 -0.0869
  914MOL0     N26045   6.805  10.179   5.317 -0.0674  0.4150 -0.1387
  914MOL0     N26046   6.892  10.214   5.230  0.5097  0.2674  0.6176
  914MOL0     C26047   7.945  10.711   5.263 -0.5079  0.0238 -0.1708
  914MOL0     C26048   8.084  10.708   5.293  0.3735  0.1752  0.7431
  914MOL0     C26049   8.511  10.667   5.362  0.4583 -0.1715 -0.0679
  914MOL0     C26050   8.596  10.684   5.243 -0.3166 -0.1652  0.9808
  914MOL0     C26051   8.740  10.705   5.258  0.7066 -0.7785  0.1420
  914MOL0     C26052   8.791  10.727   5.382 -0.8390 -0.3542 -0.5389
  914MOL0     O26053   8.927  10.774   5.388  0.2141  0.4048  0.8438
  914MOL0     C26054   8.961  10.868   5.488  0.9783  0.8196  0.0130
  914MOL0     C26055   8.914  11.004   5.443  0.6591  0.4457  0.3544
  914MOL0     C26056   9.015  11.065   5.352  0.4031 -0.3641  0.7159
  914MOL0     C26057   8.956  11.188   5.276  1.2067  0.0335  0.3007
  914MOL0     C26058   9.064  11.267   5.215  0.3400 -0.1611 -0.0022
  914MOL0     C26059   9.158  11.320   5.164 -0.5072 -0.1692  0.0172
  914MOL0     C26060   8.713  10.686   5.494 -0.5482  0.9103 -0.3081
  914MOL0     C26061   8.575  10.663   5.491 -0.1795 -0.4729  0.2770
  914MOL0     C26062   8.512  10.617   5.618 -0.3737 -0.3674  1.2921
  914MOL0     H26063   8.188  10.586   5.002  0.0135  1.7698 -0.8482
  914MOL0     H26064   7.952  10.592   4.943  0.0668  1.0558 -1.3690
  914MOL0     H26065   7.716  10.618   4.949  4.5577  0.3616  0.0522
  914MOL0     H26066   7.778  10.784   4.920 -0.9372  2.2109  0.7985
  914MOL0     H26067   7.568  10.874   5.027 -1.2185  0.5526 -1.5386
  914MOL0     H26068   7.542  10.773   4.886  3.0743  0.7801 -1.1847
  914MOL0     H26069   7.456  10.592   5.040  2.1767 -0.1187 -2.6509
  914MOL0     H26070   7.509  10.675   5.186  1.9888 -3.4347 -1.5955
  914MOL0     H26071   7.376  10.857   5.167  2.1719 -0.3088 -0.2040
  914MOL0     H26072   7.317  10.808   5.005  3.1766  2.9119 -0.0503
  914MOL0     H26073   7.160  10.756   5.188  0.6170 -0.1223  3.6283
  914MOL0     H26074   7.274  10.646   5.266 -0.3889  1.1762 -0.3745
  914MOL0     H26075   7.195  10.597   4.983  0.2319 -1.9888 -1.5579
  914MOL0     H26076   7.278  10.485   5.085  2.9183  3.3938 -1.6464
  914MOL0     H26077   7.014  10.461   5.038  0.8887  1.3824 -1.1272
  914MOL0     H26078   7.003  10.558   5.187  0.1982  2.8985 -3.4295
  914MOL0     H26079   7.134  10.281   5.163  0.6981 -1.0589  1.1190
  914MOL0     H26080   7.160  10.375   5.303  0.2171 -2.1019  0.0593
  914MOL0     H26081   6.979  10.403   5.485 -0.2137  3.5744 -3.2021
  914MOL0     H26082   6.657  10.207   5.544 -0.3069 -0.9725  0.1034
  914MOL0     H26083   6.729  10.362   5.576 -0.0133 -0.1257 -1.1262
  914MOL0     H26084   6.948  10.230   5.670  0.5526 -1.7406 -1.6155
  914MOL0     H26085   6.798  10.228   5.772 -0.5198  0.0880  1.3224
  914MOL0     H26086   6.772  10.003   5.609  0.0323 -0.0527 -1.4110
  914MOL0     H26087   6.949  10.026   5.620  0.3531 -0.8357 -0.8277
  914MOL0     H26088   6.954   9.983   5.831  0.7407 -3.4104 -0.5713
  914MOL0     H26089   6.785  10.021   5.873  0.4345  0.0745  0.1792
  914MOL0     H26090   6.990   9.834   5.992 -0.1962 -1.6795  3.2059
  914MOL0     H26091   7.097   9.636   6.198  1.2678 -0.1795  0.4244
  914MOL0     H26092   7.171   9.770   6.122  3.1487 -0.2124 -2.4851
  914MOL0     H26093   7.234   9.610   6.092  0.7390  0.5801  1.1850
  914MOL0     H26094   7.339   9.260   5.963  4.0727  1.9268 -0.0022
  914MOL0     H26095   7.495   9.097   6.050  0.4314  0.3353  0.7972
  914MOL0     H26096   7.551   8.873   6.174  0.8084 -0.3558 -0.0716
  914MOL0     H26097   7.657   9.008   6.215 -1.4090  1.0227 -1.9243
  914MOL0     H26098   7.758   8.845   6.316  0.4856 -3.4321 -2.6968
  914MOL0     H26099   7.655   8.911   6.448 -0.3316 -1.0711 -0.3305
  914MOL0     H26100   7.554   8.676   6.269  4.3542  2.1129 -2.2559
  914MOL0     H26101   7.497   8.726   6.432  1.7671  1.5631  1.5509
  914MOL0     H26102   7.730   8.671   6.511  1.6480  0.2226 -2.0900
  914MOL0     H26103   7.745   8.570   6.370  1.5998  1.5252 -0.8255
  914MOL0     H26104   7.645   8.452   6.596 -0.6093  3.7231  2.4157
  914MOL0     H26105   7.504   8.541   6.553 -0.2273 -3.8559  2.7573
  914MOL0     H26106   7.524   8.438   6.310  0.0694  0.2557 -0.1858
  914MOL0     H26107   7.463   8.336   6.433 -0.7700  2.1010 -0.0099
  914MOL0     H26108   7.690   8.245   6.473  0.9653  0.7701 -0.3152
  914MOL0     H26109   7.755   8.340   6.338 -0.0551 -1.8134 -1.5054
  914MOL0     H26110   7.622   8.209   6.174 -2.0203 -0.3193  0.3824
  914MOL0     H26111   7.561   8.104   6.305 -1.3583  0.9361 -3.3124
  914MOL0     H26112   7.286   9.100   6.432  0.0412  0.0902 -0.5401
  914MOL0     H26113   7.123   9.276   6.333 -0.5473  1.0440 -0.0449
  914MOL0     H26114   6.933   9.393   5.766  2.7895 -1.4642  0.6392
  914MOL0     H26115   6.814   9.610   5.664 -0.5495  1.7568  0.1899
  914MOL0     H26116   7.879  10.743   5.344  1.2534  0.2600  1.2432
  914MOL0     H26117   8.107  10.733   5.396 -0.3593 -5.1147  2.5317
  914MOL0     H26118   8.539  10.677   5.151  1.1532 -0.3196  0.0514
  914MOL0     H26119   8.804  10.723   5.173  4.4362 -0.8366  2.6757
  914MOL0     H26120   8.903  10.845   5.578  1.2375 -2.8938 -0.6132
  914MOL0     H26121   9.061  10.871   5.531  1.4979 -1.7869 -0.8588
  914MOL0     H26122   8.892  11.070   5.527 -0.4655  0.7132 -0.1413
  914MOL0     H26123   8.817  10.988   5.395  0.2206  0.0446  1.3587
  914MOL0     H26124   9.094  11.105   5.416 -0.4997  1.2395  0.8678
  914MOL0     H26125   9.058  10.989   5.286  1.0252 -1.5358  2.3858
  914MOL0     H26126   8.890  11.245   5.342 -0.7546  1.4266 -2.6641
  914MOL0     H26127   8.893  11.145   5.198  0.8193 -3.1941  2.1884
  914MOL0     H26128   9.253  11.347   5.122 -0.3690 -3.5385 -2.2914
  914MOL0     H26129   8.775  10.667   5.581 -2.7112  0.7429  1.2693
  914MOL0     H26130   8.443  10.690   5.663 -0.9097 -0.5734  0.8105
  914MOL0     H26131   8.459  10.523   5.599  1.2174 -1.2989  1.3771
  914MOL0     H26132   8.584  10.590   5.696  0.0487 -3.4463 -0.0353
  915MOL0     O26133   9.330   2.704   7.344  1.3070  0.2147 -0.2084
  915MOL0     C26134   9.310   2.707   7.226  0.0122  0.0236  0.2021
  915MOL0     O26135   9.297   2.595   7.154  0.8028 -0.5985 -0.6832
  915MOL0     C26136   9.284   2.467   7.216 -0.6010  0.3724  0.0179
  915MOL0     C26137   9.180   2.430   7.290  0.0567  0.6294 -0.7713
  915MOL0     C26138   9.181   2.313   7.363  0.3855  0.4969 -0.1727
  915MOL0     C26139   9.288   2.233   7.360  0.0519 -0.6015 -0.1064
  915MOL0     O26140   9.277   2.112   7.437 -0.7483  0.0181  0.6507
  915MOL0     C26141   9.382   2.024   7.404 -0.5126 -0.7980  0.2599
  915MOL0     C26142   9.382   1.900   7.487  1.3052  0.1768  0.8891
  915MOL0     C26143   9.420   1.945   7.630 -0.1454 -0.5305 -0.2061
  915MOL0     C26144   9.444   1.833   7.724 -0.1773  0.4947  0.5897
  915MOL0     C26145   9.497   1.885   7.856 -0.3971  0.2759 -1.2917
  915MOL0     C26146   9.562   1.773   7.940  0.1422  0.3313 -0.0050
  915MOL0     C26147   9.604   1.828   8.075 -0.8960 -1.8983 -0.4819
  915MOL0     C26148   9.711   1.944   8.060  0.1242  0.5611 -0.7842
  915MOL0     N26149   9.803   1.958   8.172 -0.3376  0.4439 -0.1280
  915MOL0     C26150   9.886   1.860   8.217  0.5406  0.4058  0.6303
  915MOL0     C26151   9.944   1.896   8.339 -0.6205 -0.3999 -0.4390
  915MOL0     C26152  10.047   1.826   8.438  1.5307  0.8612  1.1184
  915MOL0     C26153  10.182   1.899   8.441 -0.1840  0.0138 -0.0033
  915MOL0     C26154  10.270   1.847   8.555 -0.1720  0.3763  1.2718
  915MOL0     C26155  10.304   1.703   8.555  1.4456 -0.8614  0.4468
  915MOL0     O26156  10.392   1.684   8.435  0.5170 -0.6993  0.4955
  915MOL0     C26157  10.444   1.561   8.430 -0.3607 -0.0170  0.4090
  915MOL0     C26158  10.580   1.532   8.460  0.8117 -0.5044  0.0065
  915MOL0     C26159  10.635   1.411   8.439  0.6125  0.5617 -0.0527
  915MOL0     C26160  10.772   1.398   8.489  0.4778  0.1105 -0.4511
  915MOL0     C26161  10.564   1.318   8.346  0.4125 -0.2130  0.1527
  915MOL0     C26162  10.618   1.201   8.283  0.5922  1.0528  0.4957
  915MOL0     O26163  10.542   1.110   8.208  0.6271  0.1952 -0.7405
  915MOL0     C26164  10.597   0.985   8.172 -0.5402  0.6181 -0.6258
  915MOL0     C26165  10.714   0.978   8.094 -0.5051 -0.4134 -0.3482
  915MOL0     C26166  10.777   0.856   8.066 -0.3590 -0.1763 -0.0941
  915MOL0     C26167  10.710   0.741   8.117  0.4367  1.1673  0.6493
  915MOL0     O26168  10.755   0.614   8.101  0.3651  0.6772  0.1844
  915MOL0     C26169  10.857   0.568   8.009 -0.4267  0.1775 -0.8321
  915MOL0     C26170  10.992   0.572   8.090 -1.1160 -0.2947 -0.5939
  915MOL0     C26171  10.990   0.457   8.197  0.1997 -0.4787  0.2782
  915MOL0     C26172  11.138   0.419   8.227  0.7267  0.1666 -0.2052
  915MOL0     C26173  11.149   0.325   8.348 -0.1256 -0.3781 -0.9483
  915MOL0     C26174  11.291   0.275   8.376  0.3565 -0.4664 -0.2017
  915MOL0     C26175  11.290   0.188   8.507 -0.2100  0.0391  1.1106
  915MOL0     C26176  11.228   0.045   8.489  0.6907 -1.0291  0.2931
  915MOL0    Cl26177  11.260  -0.043   8.634 -0.0609 -0.2644  0.0587
  915MOL0     C26178  10.600   0.744   8.196  0.0204  0.6610 -0.8887
  915MOL0     C26179  10.533   0.870   8.221  0.0952  0.4963 -0.8528
  915MOL0     O26180  10.736   1.191   8.305 -0.1709  0.0910 -0.1387
  915MOL0     C26181  10.433   1.349   8.324  0.2133  0.2556 -0.3510
  915MOL0     C26182  10.376   1.470   8.360  0.0754 -0.0218  0.1323
  915MOL0     N26183   9.884   2.018   8.369 -0.6001  0.4740 -0.3846
  915MOL0     N26184   9.810   2.052   8.266 -0.0480  0.0636 -0.0059
  915MOL0     C26185   9.397   2.273   7.289  0.4808  0.2171 -0.4315
  915MOL0     C26186   9.399   2.390   7.220 -0.0533 -1.2321  0.3531
  915MOL0     C26187   9.269   2.833   7.154 -0.2947 -1.1251  0.0935
  915MOL0     C26188   9.200   2.825   7.034 -0.6326 -0.5054 -0.5053
  915MOL0     C26189   9.173   2.937   6.957 -0.0237  0.3617  0.4774
  915MOL0     C26190   9.204   3.061   7.003  0.0223 -0.5755 -0.7842
  915MOL0     O26191   9.158   3.173   6.943  0.7497  0.1313 -0.4451
  915MOL0     C26192   9.241   3.285   6.932 -0.4443 -0.2334 -0.6245
  915MOL0     C26193   9.372   3.269   6.865 -0.2231 -0.2466  0.0994
  915MOL0     C26194   9.351   3.208   6.725 -0.5215  0.1322 -0.5992
  915MOL0     C26195   9.487   3.172   6.670 -0.0117 -0.5414 -0.4467
  915MOL0     C26196   9.547   3.058   6.743  0.4557  0.0890 -0.2371
  915MOL0     C26197   9.615   2.966   6.785  0.6999  0.0310  0.3166
  915MOL0     C26198   9.288   3.066   7.116  0.1342  0.3106 -0.5417
  915MOL0     C26199   9.320   2.959   7.194  0.1138 -0.4723 -0.0942
  915MOL0     C26200   9.402   2.984   7.310  0.1656  1.9773  0.2384
  915MOL0     H26201   9.093   2.495   7.281 -1.0963 -0.9138 -1.1599
  915MOL0     H26202   9.095   2.279   7.420 -0.2224  2.2314  0.0330
  915MOL0     H26203   9.480   2.070   7.417  0.6970 -3.4684  1.3841
  915MOL0     H26204   9.376   2.006   7.296  1.4845  1.8515 -0.4028
  915MOL0     H26205   9.286   1.848   7.486  0.4253  1.5922  3.1161
  915MOL0     H26206   9.460   1.834   7.447  0.2191 -0.3190 -0.5043
  915MOL0     H26207   9.509   2.008   7.623 -1.2676  1.1534  0.0669
  915MOL0     H26208   9.347   2.014   7.675  1.4689  0.7840  0.4894
  915MOL0     H26209   9.345   1.790   7.737 -0.0378 -0.0846 -0.2305
  915MOL0     H26210   9.507   1.755   7.680 -0.3402  1.5590 -1.6323
  915MOL0     H26211   9.423   1.938   7.917  0.7841 -1.6073  2.0206
  915MOL0     H26212   9.577   1.952   7.823  0.6640 -1.6796 -2.9055
  915MOL0     H26213   9.495   1.691   7.968 -3.0668  3.0231  0.8601
  915MOL0     H26214   9.646   1.731   7.885 -0.0811  1.4388 -1.2453
  915MOL0     H26215   9.657   1.758   8.141  3.0028  1.8969  0.8880
  915MOL0     H26216   9.524   1.868   8.138  0.3880  0.5293 -0.2728
  915MOL0     H26217   9.785   1.932   7.980 -0.0627  3.5677 -1.5222
  915MOL0     H26218   9.665   2.042   8.047  2.1019  1.4551 -1.4675
  915MOL0     H26219   9.901   1.763   8.172 -2.1100 -0.0628  0.6091
  915MOL0     H26220  10.067   1.724   8.405  3.1323  1.4204  0.2738
  915MOL0     H26221  10.003   1.832   8.538 -0.3031  1.4922  0.3243
  915MOL0     H26222  10.233   1.890   8.344  1.2223 -2.9101  0.8944
  915MOL0     H26223  10.161   2.004   8.461 -0.9044 -0.6833  3.4630
  915MOL0     H26224  10.364   1.902   8.568  0.8825 -1.2249  0.8463
  915MOL0     H26225  10.220   1.858   8.652 -0.5419  2.8640  0.8578
  915MOL0     H26226  10.344   1.669   8.651  1.2937  2.8173  1.9999
  915MOL0     H26227  10.206   1.656   8.546  0.9150  0.1399  0.7990
  915MOL0     H26228  10.634   1.618   8.500 -2.4900  0.9792  1.6458
  915MOL0     H26229  10.780   1.312   8.555  0.5403 -1.3235 -2.2664
  915MOL0     H26230  10.792   1.485   8.553  0.8935 -1.0363  1.0186
  915MOL0     H26231  10.846   1.393   8.408  0.6747  1.1812 -0.3576
  915MOL0     H26232  10.762   1.062   8.046 -0.6489 -0.0001  0.2315
  915MOL0     H26233  10.866   0.867   8.006  0.8227 -1.0895  1.4164
  915MOL0     H26234  10.838   0.462   7.987  0.7706 -1.1690  3.5286
  915MOL0     H26235  10.854   0.624   7.916  1.7718  0.2311 -0.9131
  915MOL0     H26236  11.070   0.549   8.018  0.4630  1.4856  0.4697
  915MOL0     H26237  11.016   0.673   8.121  0.2577  0.8609 -4.7549
  915MOL0     H26238  10.952   0.365   8.152 -1.5726 -0.3637  1.4522
  915MOL0     H26239  10.939   0.467   8.293  2.6201 -2.4910  1.8958
  915MOL0     H26240  11.189   0.507   8.267  0.9693 -0.2245  0.3507
  915MOL0     H26241  11.196   0.370   8.149 -2.9614 -3.5541 -0.9288
  915MOL0     H26242  11.099   0.376   8.430  1.1328 -1.8023  0.7706
  915MOL0     H26243  11.092   0.234   8.326 -0.1336 -0.0953 -2.1497
  915MOL0     H26244  11.347   0.366   8.398 -0.9806  0.3678 -0.1492
  915MOL0     H26245  11.335   0.221   8.291  1.5197 -1.5851  1.0624
  915MOL0     H26246  11.249   0.237   8.595 -1.1367 -2.8359  2.3759
  915MOL0     H26247  11.399   0.180   8.517  0.9771 -0.8301 -6.3663
  915MOL0     H26248  11.252  -0.000   8.392 -1.4237  4.8138 -3.4936
  915MOL0     H26249  11.120   0.056   8.479  0.6992  1.9311  2.3227
  915MOL0     H26250  10.553   0.656   8.238 -0.2155  0.4073 -1.6599
  915MOL0     H26251  10.445   0.894   8.280 -0.0679 -0.5982 -0.6404
  915MOL0     H26252  10.373   1.276   8.270 -0.0236 -1.1589  1.6916
  915MOL0     H26253  10.283   1.508   8.319  0.8126 -0.7893 -2.4942
  915MOL0     H26254   9.496   2.228   7.299  0.0105 -1.1835 -1.7050
  915MOL0     H26255   9.493   2.424   7.179  1.4035 -0.3272  3.9984
  915MOL0     H26256   9.162   2.730   6.997 -0.6585  0.0680 -2.0292
  915MOL0     H26257   9.090   2.927   6.888  0.4837  1.3677 -0.3080
  915MOL0     H26258   9.199   3.368   6.874  2.7058  0.5768 -1.9421
  915MOL0     H26259   9.272   3.327   7.028  1.4157 -1.5049 -0.6152
  915MOL0     H26260   9.440   3.207   6.924 -0.5884  0.1465  0.9512
  915MOL0     H26261   9.418   3.368   6.862  1.7128 -1.1253 -1.9700
  915MOL0     H26262   9.280   3.125   6.723 -1.4395  0.9007 -0.8777
  915MOL0     H26263   9.304   3.278   6.655  1.4018  0.5382 -1.5388
  915MOL0     H26264   9.546   3.263   6.688  0.9389 -1.6070  2.4909
  915MOL0     H26265   9.491   3.149   6.563  1.6313  2.8093 -1.2539
  915MOL0     H26266   9.692   2.908   6.832  3.0955  5.0987  3.5396
  915MOL0     H26267   9.319   3.163   7.153  4.5198 -0.7133 -0.9744
  915MOL0     H26268   9.460   3.075   7.290 -0.9567  2.3570 -1.5061
  915MOL0     H26269   9.344   2.982   7.402  2.1179 -0.2020  1.5289
  915MOL0     H26270   9.482   2.910   7.311  0.8648  2.6127 -2.1368
  916MOL0     O26271   3.066   4.887   2.053  1.1639  0.3100 -0.5312
  916MOL0     C26272   2.960   4.815   2.045  0.4736 -1.2489  0.0302
  916MOL0     O26273   2.861   4.823   2.135  0.1746  0.1652 -0.7989
  916MOL0     C26274   2.893   4.872   2.257 -0.0235 -0.3264  0.6125
  916MOL0     C26275   2.961   4.797   2.346  0.2859 -0.0122 -0.2754
  916MOL0     C26276   2.971   4.852   2.472  0.5894  0.5518  1.4724
  916MOL0     C26277   2.902   4.962   2.514 -0.4766  0.3644 -0.9921
  916MOL0     O26278   2.917   5.020   2.642  0.2587  0.1774  0.1827
  916MOL0     C26279   3.006   4.968   2.739 -0.3936 -0.2159 -0.7389
  916MOL0     C26280   2.922   4.992   2.867  0.2697 -1.4518 -0.3261
  916MOL0     C26281   2.926   5.137   2.908 -0.0884 -1.1092  0.2588
  916MOL0     C26282   2.865   5.155   3.045 -0.5186  0.0151  0.0682
  916MOL0     C26283   2.872   5.302   3.080  0.5094  0.2180  0.0681
  916MOL0     C26284   2.829   5.338   3.222 -0.5305 -0.3909  0.5353
  916MOL0     C26285   2.681   5.368   3.241  0.4580  0.3787  0.1451
  916MOL0     C26286   2.645   5.514   3.198 -0.7556 -0.4323  0.0870
  916MOL0     N26287   2.658   5.615   3.305  0.0875  0.3488  0.6541
  916MOL0     C26288   2.633   5.753   3.287  0.3591  1.0378  0.5931
  916MOL0     C26289   2.676   5.818   3.398 -0.1196 -0.0698  0.4516
  916MOL0     C26290   2.659   5.966   3.402 -0.7351  0.4806 -0.6567
  916MOL0     C26291   2.791   6.030   3.376 -0.8852 -0.5447  0.3538
  916MOL0     C26292   2.807   6.182   3.405  1.0833  0.4279  0.3635
  916MOL0     C26293   2.946   6.236   3.370  0.2518  1.3303  0.4062
  916MOL0     O26294   2.952   6.249   3.225 -0.5209  0.2428  0.4620
  916MOL0     C26295   3.065   6.309   3.174 -0.7731 -0.1571  0.4802
  916MOL0     C26296   3.185   6.337   3.242  0.2711 -0.6314 -1.4842
  916MOL0     C26297   3.298   6.399   3.183 -0.3065 -0.1723  0.2944
  916MOL0     C26298   3.422   6.423   3.265  0.5212 -1.2487  0.0215
  916MOL0     C26299   3.295   6.426   3.041  0.2100 -0.3709 -1.1839
  916MOL0     C26300   3.412   6.475   2.965 -0.0457 -0.0162  0.0003
  916MOL0     O26301   3.381   6.493   2.836 -0.6970  0.1217  0.3317
  916MOL0     C26302   3.487   6.530   2.755 -0.1768 -0.1800  0.3340
  916MOL0     C26303   3.530   6.662   2.750 -0.7072  0.3052  0.3725
  916MOL0     C26304   3.624   6.702   2.649  0.2024 -1.1340 -0.4494
  916MOL0     C26305   3.665   6.612   2.546 -0.3076 -0.1152 -0.3057
  916MOL0     O26306   3.752   6.643   2.439  0.2135  0.0492 -0.3798
  916MOL0     C26307   3.708   6.590   2.314 -0.5663  0.4645  0.0688
  916MOL0     C26308   3.735   6.691   2.205 -0.1281 -0.6121 -0.1188
  916MOL0     C26309   3.890   6.710   2.191  0.0170  0.6581 -0.0852
  916MOL0     C26310   3.927   6.790   2.063  0.2845 -0.4931 -0.0570
  916MOL0     C26311   4.079   6.792   2.053  0.2109  0.0982 -0.2942
  916MOL0     C26312   4.123   6.861   1.918 -0.0255  0.2740  0.1156
  916MOL0     C26313   4.284   6.859   1.899  0.1502  0.0081 -0.3090
  916MOL0     C26314   4.350   6.957   1.791  0.3094  0.0372 -0.2771
  916MOL0    Cl26315   4.325   7.130   1.849 -0.3591  0.1053  0.1660
  916MOL0     C26316   3.610   6.484   2.553 -0.2256  0.6868 -0.6022
  916MOL0     C26317   3.526   6.442   2.654 -0.5304  0.5698  0.3729
  916MOL0     O26318   3.521   6.481   3.013 -0.7113 -0.7359  0.7925
  916MOL0     C26319   3.165   6.395   2.975  0.2931 -0.5265  0.1337
  916MOL0     C26320   3.063   6.334   3.038 -0.6829  0.1422  0.2681
  916MOL0     N26321   2.717   5.715   3.487 -0.2107 -0.8223  0.4478
  916MOL0     N26322   2.694   5.603   3.432  0.2131 -0.0894 -0.0208
  916MOL0     C26323   2.839   5.029   2.421 -0.4410 -0.4835 -0.0260
  916MOL0     C26324   2.838   4.991   2.291 -0.5322  0.1291 -0.2677
  916MOL0     C26325   2.933   4.739   1.917  0.1949  0.7183  0.4431
  916MOL0     C26326   2.854   4.625   1.926 -0.4669 -0.3599 -0.3679
  916MOL0     C26327   2.830   4.540   1.814 -0.1004  0.1246  0.9400
  916MOL0     C26328   2.879   4.574   1.689 -0.6360  0.1423  0.2490
  916MOL0     O26329   2.862   4.500   1.576 -0.4589 -0.3630  0.7697
  916MOL0     C26330   2.844   4.585   1.457 -1.1099 -0.6141 -0.0009
  916MOL0     C26331   2.766   4.507   1.357 -0.4095  0.1211 -0.3864
  916MOL0     C26332   2.615   4.492   1.394 -0.2661 -0.2285 -0.4743
  916MOL0     C26333   2.585   4.425   1.533  0.2877  0.2084  0.3485
  916MOL0     C26334   2.441   4.411   1.538  0.3196  0.9903  0.5284
  916MOL0     C26335   2.317   4.395   1.536 -0.4268  0.6692  0.3838
  916MOL0     C26336   2.962   4.690   1.677  0.2120  0.1025 -0.0720
  916MOL0     C26337   2.985   4.774   1.789  0.1917  0.3639  0.6060
  916MOL0     C26338   3.056   4.906   1.771 -0.1729  0.8030 -0.2151
  916MOL0     H26339   3.004   4.698   2.331  0.6993  0.2848 -1.1412
  916MOL0     H26340   3.013   4.777   2.538  2.1020 -0.8566 -0.9063
  916MOL0     H26341   3.099   5.025   2.737 -0.3175 -0.0222  2.9488
  916MOL0     H26342   3.036   4.863   2.732  1.5793 -0.0886  3.3678
  916MOL0     H26343   2.819   4.955   2.862 -1.2331  1.9147  2.0662
  916MOL0     H26344   2.970   4.942   2.952 -0.4817  0.1236  1.0794
  916MOL0     H26345   3.028   5.175   2.898 -1.0490  1.5141 -0.7033
  916MOL0     H26346   2.857   5.195   2.845 -0.0734 -1.4737 -0.0948
  916MOL0     H26347   2.759   5.130   3.040 -0.2498 -0.9493 -4.2562
  916MOL0     H26348   2.913   5.094   3.121  2.1189 -1.1707 -2.3679
  916MOL0     H26349   2.805   5.354   3.010 -1.9418 -0.9326  1.4471
  916MOL0     H26350   2.978   5.326   3.071  1.0199 -0.0417  3.7055
  916MOL0     H26351   2.855   5.263   3.296 -2.2788  0.4330  2.0579
  916MOL0     H26352   2.886   5.422   3.261 -0.8226 -0.9326  2.1898
  916MOL0     H26353   2.650   5.349   3.344  2.5493 -1.7474  0.4702
  916MOL0     H26354   2.626   5.289   3.189 -0.0084 -0.6035  2.0561
  916MOL0     H26355   2.716   5.543   3.119 -0.5611 -1.8872 -0.3072
  916MOL0     H26356   2.545   5.531   3.157 -0.6847 -1.6115 -0.6206
  916MOL0     H26357   2.605   5.798   3.192  1.0007 -1.2229 -0.7555
  916MOL0     H26358   2.636   5.994   3.505  2.7293 -1.8623  0.9289
  916MOL0     H26359   2.581   5.997   3.331 -1.9677 -4.0285 -1.5615
  916MOL0     H26360   2.876   5.969   3.410 -0.4047 -2.6763 -3.9374
  916MOL0     H26361   2.798   6.032   3.267  0.0178  4.1679  0.3065
  916MOL0     H26362   2.732   6.248   3.360 -0.6939  0.4047  3.0387
  916MOL0     H26363   2.791   6.193   3.513 -1.4650  1.5152 -0.0565
  916MOL0     H26364   2.988   6.327   3.414  2.8723 -0.4626  1.8729
  916MOL0     H26365   3.018   6.166   3.413  0.0433  2.2854  2.4516
  916MOL0     H26366   3.190   6.317   3.348 -0.9783  1.6185 -0.9332
  916MOL0     H26367   3.418   6.394   3.370  1.0114  2.4692  1.2032
  916MOL0     H26368   3.436   6.531   3.269  0.7851 -1.2870  0.1279
  916MOL0     H26369   3.502   6.368   3.214  1.3754 -0.2315  0.2433
  916MOL0     H26370   3.477   6.736   2.810 -0.5467  1.1773 -0.5213
  916MOL0     H26371   3.641   6.809   2.646 -1.8895 -0.7574 -0.8599
  916MOL0     H26372   3.759   6.495   2.295  3.3268  2.3115  0.1708
  916MOL0     H26373   3.602   6.565   2.318 -0.7113  1.2076  2.0938
  916MOL0     H26374   3.694   6.650   2.112 -0.1433 -0.6317 -0.1032
  916MOL0     H26375   3.687   6.786   2.231  1.6904  1.3140 -3.0946
  916MOL0     H26376   3.953   6.622   2.196 -1.6179 -0.5144  0.8314
  916MOL0     H26377   3.923   6.777   2.270 -0.2437  1.6134 -0.7654
  916MOL0     H26378   3.879   6.888   2.065  0.6883 -0.3075  0.9145
  916MOL0     H26379   3.883   6.743   1.975 -0.6714  1.0575 -0.4407
  916MOL0     H26380   4.123   6.850   2.134 -1.5443  0.4643  0.4274
  916MOL0     H26381   4.122   6.691   2.056 -0.4084 -0.1575  0.0666
  916MOL0     H26382   4.078   6.960   1.918  1.9989  1.2381  1.2928
  916MOL0     H26383   4.079   6.808   1.833  0.2867 -1.0403  0.7343
  916MOL0     H26384   4.301   6.757   1.862 -2.2294 -0.5157 -0.1258
  916MOL0     H26385   4.334   6.870   1.995  3.0138  0.0566 -1.6911
  916MOL0     H26386   4.315   6.945   1.688  1.6532  4.9600 -1.5379
  916MOL0     H26387   4.458   6.938   1.787  0.6846  1.6067  1.3086
  916MOL0     H26388   3.634   6.408   2.479  0.5289  0.5655 -0.2446
  916MOL0     H26389   3.484   6.343   2.671 -0.5542  0.7221  1.2669
  916MOL0     H26390   3.162   6.410   2.868 -0.8652 -0.6386  0.1387
  916MOL0     H26391   2.980   6.288   2.986  1.3616  0.4334 -3.5480
  916MOL0     H26392   2.797   5.122   2.459 -0.4956 -0.6294  0.2814
  916MOL0     H26393   2.779   5.052   2.222  1.0945  0.3574 -1.5269
  916MOL0     H26394   2.832   4.595   2.028  4.8559 -0.9002  0.9297
  916MOL0     H26395   2.770   4.449   1.813  0.6886 -0.4209  1.8337
  916MOL0     H26396   2.795   4.678   1.485 -0.2158  0.3396 -1.4657
  916MOL0     H26397   2.944   4.595   1.413 -1.7782 -1.1971 -1.7634
  916MOL0     H26398   2.805   4.406   1.344 -0.4691 -0.2422  1.8578
  916MOL0     H26399   2.773   4.559   1.260  8.1940 -0.9752 -1.1287
  916MOL0     H26400   2.558   4.585   1.384 -1.6856 -1.1844 -2.0398
  916MOL0     H26401   2.573   4.440   1.307 -3.9953  0.8158  0.4820
  916MOL0     H26402   2.617   4.499   1.607  0.6423  1.5022 -1.0442
  916MOL0     H26403   2.634   4.328   1.547 -0.1581 -0.2477 -1.0761
  916MOL0     H26404   2.211   4.399   1.547 -0.4050  6.2794  1.6749
  916MOL0     H26405   3.012   4.727   1.587  1.1026  0.3390  0.5038
  916MOL0     H26406   2.986   4.989   1.785 -1.8753 -0.5962 -0.0636
  916MOL0     H26407   3.142   4.917   1.837 -0.5282  0.0758  0.3694
  916MOL0     H26408   3.085   4.916   1.665 -0.3886 -0.1981 -0.3815
  917MOL0     O26409  10.474   7.699   6.619 -0.3889  0.0832 -0.4611
  917MOL0     C26410  10.532   7.794   6.665  0.0393 -0.8511 -0.7888
  917MOL0     O26411  10.513   7.919   6.634 -0.4520  0.2689 -0.0803
  917MOL0     C26412  10.393   7.962   6.565 -1.1552 -0.7762  1.5898
  917MOL0     C26413  10.347   8.091   6.604 -0.0899 -0.0486 -0.5728
  917MOL0     C26414  10.246   8.160   6.535 -0.8373 -0.2853  0.5423
  917MOL0     C26415  10.206   8.116   6.406  1.1960  0.1423 -0.3611
  917MOL0     O26416  10.104   8.176   6.324  0.4416  0.2248  0.3236
  917MOL0     C26417  10.059   8.309   6.362 -0.1039 -0.1006 -0.5139
  917MOL0     C26418   9.938   8.329   6.288 -0.2947  0.0677 -0.0334
  917MOL0     C26419   9.964   8.366   6.143 -1.2593  0.0791  0.2014
  917MOL0     C26420   9.836   8.382   6.070  0.3626  0.2766 -0.2319
  917MOL0     C26421   9.841   8.406   5.922  0.5808 -0.6358 -0.0676
  917MOL0     C26422   9.875   8.556   5.885 -1.3867  0.3303  0.0911
  917MOL0     C26423   9.740   8.630   5.889  0.6323 -0.5476 -0.5391
  917MOL0     C26424   9.753   8.783   5.868  0.1984  0.8290  0.4010
  917MOL0     N26425   9.837   8.823   5.752  0.6258  0.0283  0.6747
  917MOL0     C26426   9.799   8.802   5.611  0.7403 -0.1215 -0.2859
  917MOL0     C26427   9.913   8.795   5.543 -0.1553 -0.5959  0.8886
  917MOL0     C26428   9.939   8.733   5.409 -0.5887  0.0448  1.2677
  917MOL0     C26429   9.949   8.857   5.311  0.6139  1.0407 -0.5125
  917MOL0     C26430   9.804   8.918   5.292 -1.1311  0.5364  0.4681
  917MOL0     C26431   9.800   9.005   5.164 -0.8282  0.9581  0.2272
  917MOL0     O26432   9.675   9.075   5.182 -0.7139  0.1666 -0.8050
  917MOL0     C26433   9.576   9.057   5.093  0.4969 -0.8180  0.2523
  917MOL0     C26434   9.445   9.003   5.121 -0.8545  0.0612  0.0920
  917MOL0     C26435   9.352   8.980   5.017  0.1544  0.7638 -0.0868
  917MOL0     C26436   9.208   8.924   5.036 -0.1584  0.3885 -0.0644
  917MOL0     C26437   9.393   9.020   4.886 -1.1135  0.7272 -0.6710
  917MOL0     C26438   9.310   8.999   4.772  0.7197  0.5975 -0.0468
  917MOL0     O26439   9.224   9.096   4.728 -0.7820 -0.7107 -0.2552
  917MOL0     C26440   9.124   9.067   4.640 -0.3309  0.0206 -0.2635
  917MOL0     C26441   9.098   9.167   4.547 -0.1278 -0.0134 -0.2033
  917MOL0     C26442   8.992   9.156   4.464  0.2172  0.7859  0.8186
  917MOL0     C26443   8.931   9.034   4.441  0.0826 -0.1490 -0.7413
  917MOL0     O26444   8.834   9.027   4.345 -0.1354 -0.0416 -1.1984
  917MOL0     C26445   8.766   8.899   4.330  0.3976  0.9024 -0.1055
  917MOL0     C26446   8.666   8.902   4.223  0.2663 -0.1309  0.1337
  917MOL0     C26447   8.546   8.974   4.274  0.4128 -0.1973  0.6831
  917MOL0     C26448   8.412   8.930   4.217 -0.6025  0.3909 -0.1675
  917MOL0     C26449   8.415   8.924   4.072  0.2670  0.0255  0.7762
  917MOL0     C26450   8.271   8.877   4.033  0.1700  0.3078 -0.1718
  917MOL0     C26451   8.245   8.872   3.880  0.3280  0.0482 -0.0453
  917MOL0     C26452   8.245   9.008   3.813 -0.3192 -0.3793 -0.5719
  917MOL0    Cl26453   8.111   9.101   3.888  0.9869  0.0661 -0.2648
  917MOL0     C26454   8.961   8.928   4.528  0.0168  0.1181 -0.2796
  917MOL0     C26455   9.049   8.948   4.632  0.1485 -0.5269  1.2291
  917MOL0     O26456   9.306   8.885   4.731 -0.6813 -0.1672 -0.9455
  917MOL0     C26457   9.517   9.076   4.859 -0.9244  0.3814  0.1633
  917MOL0     C26458   9.613   9.090   4.958 -0.3909  0.1547 -0.3076
  917MOL0     N26459  10.020   8.825   5.633  0.7626 -0.0461 -0.6111
  917MOL0     N26460   9.973   8.836   5.754 -0.3601  0.2279 -0.0231
  917MOL0     C26461  10.259   8.003   6.355 -0.3989  0.8157  0.3152
  917MOL0     C26462  10.345   7.920   6.437  0.6271  0.6444  0.4731
  917MOL0     C26463  10.634   7.759   6.760 -0.4159 -0.1476  0.4070
  917MOL0     C26464  10.761   7.818   6.744 -0.1070 -0.4324  0.7552
  917MOL0     C26465  10.860   7.807   6.835  0.0313  0.5586 -0.7743
  917MOL0     C26466  10.838   7.742   6.944 -0.4971 -0.2409 -0.0233
  917MOL0     O26467  10.950   7.735   7.023  0.5044 -0.0341 -1.0503
  917MOL0     C26468  10.948   7.629   7.127  0.0113 -0.6080 -0.3295
  917MOL0     C26469  11.086   7.606   7.194  0.6753  0.3385 -0.3916
  917MOL0     C26470  11.172   7.731   7.216  0.7746 -0.3929 -0.0537
  917MOL0     C26471  11.234   7.725   7.360  0.7946  0.0279  1.2720
  917MOL0     C26472  11.129   7.750   7.465 -0.7111 -0.1297  1.0228
  917MOL0     C26473  11.057   7.766   7.567 -0.2027  0.3948 -0.3808
  917MOL0     C26474  10.716   7.677   6.967  0.6289 -0.0338 -0.7852
  917MOL0     C26475  10.610   7.679   6.876  0.3614  0.0255 -0.1676
  917MOL0     C26476  10.473   7.634   6.928 -0.4565  0.1003 -0.4461
  917MOL0     H26477  10.378   8.145   6.693 -1.6083  0.4945 -0.3491
  917MOL0     H26478  10.214   8.255   6.577  0.2569 -0.1207  1.0364
  917MOL0     H26479  10.131   8.391   6.352 -0.9752  0.8120  0.4367
  917MOL0     H26480  10.031   8.307   6.468 -0.4591  0.3429 -0.5962
  917MOL0     H26481   9.877   8.238   6.290  1.8173 -1.4870  3.3016
  917MOL0     H26482   9.878   8.414   6.322  1.2550  1.1027  0.2461
  917MOL0     H26483  10.017   8.462   6.134 -1.3826  0.0817 -0.6549
  917MOL0     H26484  10.021   8.289   6.090  1.4042  1.6763  0.5788
  917MOL0     H26485   9.775   8.292   6.084 -0.6602  0.4383 -2.9816
  917MOL0     H26486   9.781   8.464   6.117  3.7604  2.8329 -0.3859
  917MOL0     H26487   9.752   8.381   5.864 -0.6815 -0.5317  1.7772
  917MOL0     H26488   9.918   8.346   5.872 -0.5193 -1.1036 -1.2674
  917MOL0     H26489   9.955   8.596   5.948 -1.7942  0.7854  0.3297
  917MOL0     H26490   9.901   8.546   5.780 -2.1934 -1.2632  0.0035
  917MOL0     H26491   9.703   8.607   5.989 -3.1366 -3.1665 -2.3141
  917MOL0     H26492   9.669   8.588   5.818  0.7410 -3.4546  0.9540
  917MOL0     H26493   9.649   8.816   5.856 -0.0817  0.4479  1.6454
  917MOL0     H26494   9.804   8.827   5.954 -0.4881  3.5538 -0.4778
  917MOL0     H26495   9.698   8.778   5.578  0.9337  1.1671 -1.9675
  917MOL0     H26496   9.860   8.663   5.383  1.1097 -1.1253 -1.2035
  917MOL0     H26497  10.031   8.673   5.404  0.2271  1.2089  1.6593
  917MOL0     H26498  10.010   8.938   5.352 -1.8010  1.2136  3.2610
  917MOL0     H26499   9.978   8.819   5.213 -3.2216  1.2172 -1.8951
  917MOL0     H26500   9.737   8.833   5.281 -0.6007  0.3077 -1.1906
  917MOL0     H26501   9.778   8.978   5.380 -0.5999 -1.4583  2.0619
  917MOL0     H26502   9.884   9.073   5.150 -0.1953 -0.1344 -1.6577
  917MOL0     H26503   9.785   8.942   5.076 -0.8789 -1.3782  1.7909
  917MOL0     H26504   9.427   8.976   5.224 -2.0697 -0.6894 -0.2979
  917MOL0     H26505   9.188   8.928   5.144  0.8929  0.2436  0.1526
  917MOL0     H26506   9.208   8.819   5.006 -0.4559  0.8530 -1.7633
  917MOL0     H26507   9.136   8.979   4.976  0.6075  1.1840 -0.2676
  917MOL0     H26508   9.154   9.259   4.558 -0.1271  0.1098 -1.1344
  917MOL0     H26509   8.969   9.237   4.395 -0.4105  1.1272  1.4207
  917MOL0     H26510   8.838   8.825   4.294 -1.1275 -1.1395  0.7798
  917MOL0     H26511   8.716   8.863   4.421  0.5637 -1.7387 -0.9699
  917MOL0     H26512   8.706   8.955   4.136  1.3707 -0.4590  0.4218
  917MOL0     H26513   8.630   8.803   4.192 -1.2718  0.8514 -1.3566
  917MOL0     H26514   8.561   9.081   4.254 -1.5709 -0.2215 -1.3674
  917MOL0     H26515   8.530   8.964   4.381 -0.5502  1.4483  0.7281
  917MOL0     H26516   8.336   8.998   4.255 -1.4957 -0.1693 -0.9095
  917MOL0     H26517   8.398   8.825   4.245  0.2862 -0.1829 -1.7302
  917MOL0     H26518   8.436   9.023   4.029  1.9618 -0.5107  0.3158
  917MOL0     H26519   8.490   8.854   4.034 -0.5853  1.0723 -3.3658
  917MOL0     H26520   8.190   8.937   4.077 -0.3125 -1.3236  1.2523
  917MOL0     H26521   8.257   8.774   4.065  0.2159  0.4404  0.2746
  917MOL0     H26522   8.152   8.815   3.870  0.4543 -0.9212  3.1285
  917MOL0     H26523   8.326   8.830   3.820 -1.4553  0.3935 -2.8743
  917MOL0     H26524   8.239   8.996   3.704  1.6566  0.9360 -0.8722
  917MOL0     H26525   8.341   9.058   3.826  0.0027 -1.2802  0.7127
  917MOL0     H26526   8.913   8.831   4.533 -0.8152  0.5870  2.3317
  917MOL0     H26527   9.064   8.858   4.691 -1.7034 -2.1423 -0.6196
  917MOL0     H26528   9.539   9.087   4.754 -1.3812 -2.5922 -0.3420
  917MOL0     H26529   9.711   9.123   4.924 -1.6557  1.1808 -3.3303
  917MOL0     H26530  10.230   7.973   6.255 -0.0652  0.8551  0.2037
  917MOL0     H26531  10.404   7.839   6.397  2.3055  2.1343 -0.2255
  917MOL0     H26532  10.788   7.855   6.646  0.5837 -0.7441  0.8249
  917MOL0     H26533  10.961   7.847   6.827  1.1115 -1.9998 -1.1471
  917MOL0     H26534  10.878   7.662   7.204 -1.2099 -0.3324 -1.5280
  917MOL0     H26535  10.913   7.535   7.082 -0.2214 -1.3952  1.4120
  917MOL0     H26536  11.144   7.528   7.144 -0.0549  0.3853 -1.3272
  917MOL0     H26537  11.056   7.566   7.292 -0.7169  1.3753 -0.3647
  917MOL0     H26538  11.257   7.752   7.152 -0.4436  0.9478 -1.2933
  917MOL0     H26539  11.111   7.821   7.223  0.1248 -0.9495  2.5029
  917MOL0     H26540  11.300   7.812   7.352  0.2768  0.2947 -0.3184
  917MOL0     H26541  11.291   7.636   7.388  3.0493  0.9869  0.0432
  917MOL0     H26542  10.984   7.783   7.643  0.8031  1.8225  0.3101
  917MOL0     H26543  10.710   7.624   7.062  0.2450  1.0160 -0.2092
  917MOL0     H26544  10.485   7.537   6.977 -4.1360  0.1391  0.8002
  917MOL0     H26545  10.435   7.710   6.996 -1.2697  0.2175 -1.0101
  917MOL0     H26546  10.399   7.626   6.848 -2.5029  1.0202  1.2735
  918MOL0     O26547   6.143  11.174  11.083 -0.2257 -0.1017 -0.4658
  918MOL0     C26548   6.067  11.172  10.989  0.4147  0.0491 -0.0816
  918MOL0     O26549   6.113  11.169  10.860 -0.1246 -0.4114 -0.7169
  918MOL0     C26550   6.243  11.190  10.825 -0.2360 -0.1467  0.1450
  918MOL0     C26551   6.339  11.272  10.880  0.4336 -0.0455 -0.6807
  918MOL0     C26552   6.468  11.279  10.823  0.1301 -0.2602  0.6468
  918MOL0     C26553   6.493  11.209  10.703 -0.2507  0.1274 -0.8397
  918MOL0     O26554   6.622  11.229  10.649  0.7915  0.6052 -0.2776
  918MOL0     C26555   6.656  11.166  10.525  0.3413  0.0307 -0.2405
  918MOL0     C26556   6.807  11.189  10.503 -0.1555 -0.1650 -0.2874
  918MOL0     C26557   6.831  11.320  10.428  0.1023  0.0816 -0.0467
  918MOL0     C26558   6.984  11.340  10.398 -0.7172 -0.2674 -0.1202
  918MOL0     C26559   6.991  11.470  10.324 -0.4035  0.4056 -0.1531
  918MOL0     C26560   7.140  11.509  10.317 -0.2448  0.1815  0.0525
  918MOL0     C26561   7.148  11.643  10.257  0.0875 -0.6293 -0.5967
  918MOL0     C26562   7.278  11.705  10.231 -0.4951 -0.8808  0.3439
  918MOL0     N26563   7.315  11.691  10.091  0.1133  0.0838  1.1511
  918MOL0     C26564   7.260  11.763   9.989 -0.5091 -0.0719  0.7975
  918MOL0     C26565   7.343  11.731   9.886  0.4974  0.1574  0.5225
  918MOL0     C26566   7.335  11.790   9.743 -0.2394 -0.3991 -0.4716
  918MOL0     C26567   7.373  11.944   9.739  0.7763 -0.7153  0.2567
  918MOL0     C26568   7.493  11.991   9.822 -1.2710  0.2504 -0.0469
  918MOL0     C26569   7.629  11.984   9.733 -0.9988 -1.3676 -0.4531
  918MOL0     O26570   7.608  12.066   9.619  0.4801 -0.0049  0.1152
  918MOL0     C26571   7.717  12.110   9.552 -0.8564  0.3440 -0.1068
  918MOL0     C26572   7.771  12.044   9.441  0.7312 -0.2305 -0.1512
  918MOL0     C26573   7.883  12.090   9.363  0.8559  1.8323 -0.4026
  918MOL0     C26574   7.919  12.020   9.237 -0.0436  0.0349  0.2461
  918MOL0     C26575   7.943  12.203   9.420  1.3683  0.1658  0.1093
  918MOL0     C26576   8.056  12.267   9.339  0.2219 -0.5972 -0.0750
  918MOL0     O26577   8.083  12.228   9.213  0.2548 -0.2654 -0.0146
  918MOL0     C26578   8.185  12.290   9.150 -0.7407  0.0566  0.4374
  918MOL0     C26579   8.304  12.225   9.124 -0.6634  0.1033  1.0586
  918MOL0     C26580   8.413  12.284   9.046  0.6869 -0.2872  0.3887
  918MOL0     C26581   8.385  12.417   9.004 -1.2481 -0.3860  0.3378
  918MOL0     O26582   8.486  12.506   8.951 -0.6043  0.1589  0.1946
  918MOL0     C26583   8.621  12.458   8.931 -0.1730 -0.4583  0.5187
  918MOL0     C26584   8.719  12.586   8.918 -0.6942  0.2411 -0.0829
  918MOL0     C26585   8.716  12.646   8.771  0.2184 -0.6028 -0.2827
  918MOL0     C26586   8.801  12.771   8.752  0.6705  0.4899  0.0313
  918MOL0     C26587   8.820  12.785   8.603  1.3780 -0.5310  0.2134
  918MOL0     C26588   8.898  12.673   8.526 -0.0728 -0.4810  0.0340
  918MOL0     C26589   8.930  12.706   8.379  0.1786  0.1170 -0.8556
  918MOL0     C26590   8.969  12.578   8.311  0.2194  0.7635 -0.2256
  918MOL0    Cl26591   9.096  12.485   8.410 -0.0843 -0.2223  0.1854
  918MOL0     C26592   8.268  12.487   9.031 -0.0502  0.8223  0.7032
  918MOL0     C26593   8.169  12.422   9.112 -0.3797  0.5942 -0.6071
  918MOL0     O26594   8.131  12.336   9.409 -0.3018 -0.2901 -0.1494
  918MOL0     C26595   7.894  12.259   9.543 -0.0670 -0.3094 -0.0935
  918MOL0     C26596   7.783  12.215   9.605 -0.2050 -0.1074 -0.3016
  918MOL0     N26597   7.448  11.652   9.932  0.6021  0.5176 -0.9967
  918MOL0     N26598   7.429  11.629  10.055  0.3225 -0.5868  0.0721
  918MOL0     C26599   6.402  11.121  10.653  0.0076 -0.4098  0.4101
  918MOL0     C26600   6.274  11.115  10.716  0.6772 -0.3503  0.8714
  918MOL0     C26601   5.920  11.131  11.009  0.3080 -0.2939  0.8516
  918MOL0     C26602   5.843  11.117  10.886  1.0129 -0.0796  0.5729
  918MOL0     C26603   5.709  11.065  10.891 -0.3518 -0.8253  0.8961
  918MOL0     C26604   5.651  11.047  11.014 -0.6087  0.1089 -0.1963
  918MOL0     O26605   5.525  11.000  11.017 -0.4561  0.6332 -0.2340
  918MOL0     C26606   5.427  11.094  11.054 -1.1762 -0.0082 -0.0089
  918MOL0     C26607   5.324  11.119  10.942  0.5639  0.0689  0.3577
  918MOL0     C26608   5.199  11.178  10.987  0.4727  0.2502  0.3919
  918MOL0     C26609   5.104  11.152  10.871 -0.0850 -0.1845  0.4071
  918MOL0     C26610   4.975  11.217  10.894 -0.9601 -0.2230  1.0588
  918MOL0     C26611   4.878  11.284  10.891  0.1725 -0.0813  0.2134
  918MOL0     C26612   5.722  11.053  11.128  0.9729  0.8314  0.1801
  918MOL0     C26613   5.859  11.096  11.135  0.3631  0.8299  0.2686
  918MOL0     C26614   5.936  11.094  11.267  0.1431 -1.6730  0.4493
  918MOL0     H26615   6.319  11.329  10.970  0.4686  0.7126 -1.1488
  918MOL0     H26616   6.550  11.332  10.870 -0.6993  0.9355  0.7933
  918MOL0     H26617   6.603  11.204  10.438 -1.4401  0.8597  1.1441
  918MOL0     H26618   6.654  11.057  10.537  0.8929 -0.3662 -3.0155
  918MOL0     H26619   6.858  11.211  10.598  0.6473  1.0074 -0.9540
  918MOL0     H26620   6.851  11.104  10.450 -1.1266 -1.1770  0.4959
  918MOL0     H26621   6.773  11.311  10.336  0.7772  1.9091 -0.7137
  918MOL0     H26622   6.805  11.401  10.497  4.2766  1.0259  0.7035
  918MOL0     H26623   7.046  11.332  10.488  1.0201 -1.8802 -1.3744
  918MOL0     H26624   7.022  11.255  10.341  2.6055  1.6543 -1.0514
  918MOL0     H26625   6.925  11.548  10.364 -2.7401 -0.6056 -1.8015
  918MOL0     H26626   6.944  11.448  10.228  1.1038 -1.6078 -0.4956
  918MOL0     H26627   7.167  11.529  10.421  0.2804  0.9098 -0.2178
  918MOL0     H26628   7.201  11.429  10.274 -2.1221 -1.3469  0.1110
  918MOL0     H26629   7.087  11.704  10.325 -0.0277 -0.7087 -0.6269
  918MOL0     H26630   7.089  11.636  10.164 -2.2797 -1.2811  0.8632
  918MOL0     H26631   7.266  11.813  10.242  1.9883 -0.4032 -1.0908
  918MOL0     H26632   7.356  11.671  10.300  0.9586 -4.6274 -2.7578
  918MOL0     H26633   7.182  11.838   9.995 -1.4688 -0.6773 -2.1931
  918MOL0     H26634   7.235  11.779   9.702  0.3183 -2.6411 -1.4187
  918MOL0     H26635   7.406  11.741   9.675 -0.4502 -1.0323 -0.2445
  918MOL0     H26636   7.385  11.968   9.633 -0.9903 -0.1720  0.1508
  918MOL0     H26637   7.288  11.999   9.779  0.5351 -1.3290  0.6012
  918MOL0     H26638   7.470  12.087   9.870  0.9829  0.4890  0.6644
  918MOL0     H26639   7.501  11.924   9.909 -0.3996  0.2917 -0.0856
  918MOL0     H26640   7.718  12.012   9.791 -0.3263 -0.4525 -1.8732
  918MOL0     H26641   7.647  11.878   9.717  0.8085 -1.5200  2.0253
  918MOL0     H26642   7.706  11.961   9.415  1.0526 -0.2591 -0.8949
  918MOL0     H26643   7.861  11.928   9.232  0.7906 -0.5721  1.4203
  918MOL0     H26644   8.026  11.999   9.241  0.6010  2.7730 -0.5405
  918MOL0     H26645   7.891  12.076   9.147 -1.4244  0.3314  0.8326
  918MOL0     H26646   8.312  12.130   9.176 -2.2039  0.5187  2.0947
  918MOL0     H26647   8.505  12.229   9.033 -1.1174 -3.1034 -1.9221
  918MOL0     H26648   8.654  12.418   9.028  0.6162 -1.2854 -0.0726
  918MOL0     H26649   8.637  12.390   8.846 -0.3935  1.4075 -1.0789
  918MOL0     H26650   8.694  12.659   8.995 -2.5213 -1.2918  0.8495
  918MOL0     H26651   8.818  12.550   8.948 -0.1661 -0.5592 -2.5653
  918MOL0     H26652   8.615  12.687   8.759  0.5856  0.7131  0.8389
  918MOL0     H26653   8.743  12.560   8.709  3.9819  1.5264 -1.9029
  918MOL0     H26654   8.896  12.767   8.806  0.2435  0.4037  0.7887
  918MOL0     H26655   8.756  12.865   8.785  1.8701  1.9040 -2.0922
  918MOL0     H26656   8.722  12.797   8.557  1.3414  2.3687  0.8610
  918MOL0     H26657   8.860  12.885   8.584  4.0404 -1.4400  0.5632
  918MOL0     H26658   8.846  12.577   8.538 -3.0007  0.9888  0.1295
  918MOL0     H26659   8.994  12.666   8.577  0.1606 -4.2038 -0.5907
  918MOL0     H26660   9.003  12.786   8.364 -2.4655  2.5689 -1.7797
  918MOL0     H26661   8.836  12.745   8.338 -1.4600 -0.8106  1.7630
  918MOL0     H26662   9.014  12.601   8.214  1.4915 -4.6260 -1.2328
  918MOL0     H26663   8.886  12.509   8.295  0.1494 -0.2946  3.8442
  918MOL0     H26664   8.264  12.594   9.013 -1.2353  0.8122  0.8001
  918MOL0     H26665   8.073  12.468   9.130 -0.3573  0.1836  0.6636
  918MOL0     H26666   7.939  12.352   9.576  0.8998  0.6909 -3.7447
  918MOL0     H26667   7.738  12.265   9.690 -1.4621  0.2821 -1.1643
  918MOL0     H26668   6.413  11.066  10.560  1.6992 -3.2324  2.1277
  918MOL0     H26669   6.202  11.057  10.659  0.5266 -0.2757  0.9859
  918MOL0     H26670   5.891  11.133  10.790  1.7490  1.1893  1.1212
  918MOL0     H26671   5.649  11.037  10.806 -0.0021 -1.5229  0.8669
  918MOL0     H26672   5.376  11.057  11.144  0.5139  3.2274  2.4811
  918MOL0     H26673   5.462  11.192  11.085 -2.0346  0.0231  0.9005
  918MOL0     H26674   5.302  11.027  10.886  2.3163 -0.3957  0.3627
  918MOL0     H26675   5.377  11.183  10.870 -0.9630  3.6352  2.1444
  918MOL0     H26676   5.151  11.140  11.078 -0.8836 -1.6882 -1.0360
  918MOL0     H26677   5.209  11.285  11.008 -0.4760  0.4003  0.1282
  918MOL0     H26678   5.096  11.045  10.849  0.8863 -0.2180  0.1850
  918MOL0     H26679   5.159  11.195  10.787  0.5643  0.5480  1.1959
  918MOL0     H26680   4.794  11.350  10.883  1.7353  2.3275  2.1752
  918MOL0     H26681   5.669  11.017  11.216 -1.6463 -1.1293 -2.0091
  918MOL0     H26682   6.019  11.024  11.253  0.1515 -1.1328 -3.3034
  918MOL0     H26683   5.966  11.199  11.272 -1.9886 -0.9333 -0.9914
  918MOL0     H26684   5.869  11.081  11.352  0.7534 -1.9280  0.8980
  919MOL0     O26685   8.128   5.465   7.367  0.1713 -0.0910 -0.8988
  919MOL0     C26686   8.229   5.508   7.319 -0.3428  0.2059 -0.4423
  919MOL0     O26687   8.306   5.614   7.369 -0.7520  0.2288  0.0501
  919MOL0     C26688   8.258   5.681   7.475  0.0931  0.8563 -0.1687
  919MOL0     C26689   8.316   5.661   7.604  0.7789  0.8387 -0.4113
  919MOL0     C26690   8.282   5.747   7.705 -0.1707  0.2910 -0.6581
  919MOL0     C26691   8.185   5.849   7.695  0.6344 -0.5726 -0.7003
  919MOL0     O26692   8.166   5.940   7.795 -0.5156 -0.0403  0.3668
  919MOL0     C26693   8.172   5.880   7.928  0.4339 -0.6151 -0.3192
  919MOL0     C26694   8.090   5.971   8.014  0.5655 -0.5804  0.8926
  919MOL0     C26695   8.118   5.946   8.155  0.1231 -0.2482 -0.4701
  919MOL0     C26696   8.008   6.003   8.241  0.1492 -0.5100 -0.5514
  919MOL0     C26697   8.052   5.988   8.390  0.6945 -0.4149  0.7747
  919MOL0     C26698   8.057   5.847   8.438 -0.1330 -0.1583  0.5348
  919MOL0     C26699   8.088   5.842   8.594  0.2138 -0.8135 -0.5355
  919MOL0     C26700   8.121   5.695   8.622  0.1213  0.8607  0.0857
  919MOL0     N26701   8.010   5.604   8.584 -0.1834 -0.0705 -1.0960
  919MOL0     C26702   8.019   5.468   8.573  0.1938  0.3164 -0.1846
  919MOL0     C26703   7.894   5.427   8.552 -0.3245 -0.8111  0.3465
  919MOL0     C26704   7.847   5.287   8.516 -0.6960 -0.3901 -0.1691
  919MOL0     C26705   7.934   5.166   8.550 -0.3597 -0.7276  0.4983
  919MOL0     C26706   7.842   5.039   8.530  0.1464 -1.3488  0.0354
  919MOL0     C26707   7.858   4.995   8.379 -0.4095  0.2658  0.0177
  919MOL0     O26708   7.794   4.865   8.351  0.2989 -0.5453 -0.0127
  919MOL0     C26709   7.806   4.766   8.440  1.0071  0.0290  0.9802
  919MOL0     C26710   7.698   4.680   8.458  0.0438  0.3657 -0.0151
  919MOL0     C26711   7.710   4.567   8.545  0.2433  0.4109  0.1641
  919MOL0     C26712   7.582   4.487   8.560 -0.4633 -0.0601  0.6218
  919MOL0     C26713   7.832   4.529   8.606  0.3047 -0.1418 -0.5223
  919MOL0     C26714   7.863   4.404   8.698 -0.1957 -0.2226 -0.4970
  919MOL0     O26715   7.759   4.308   8.711  0.1382 -0.2182 -0.5729
  919MOL0     C26716   7.799   4.193   8.779 -0.1339 -0.1606 -1.2347
  919MOL0     C26717   7.727   4.163   8.898 -0.0740  0.1589  0.0011
  919MOL0     C26718   7.769   4.057   8.976  0.2820  0.7280 -0.5300
  919MOL0     C26719   7.873   3.970   8.930  0.2274 -0.1110 -0.2639
  919MOL0     O26720   7.916   3.858   8.987 -0.7143 -0.8267  0.6290
  919MOL0     C26721   7.907   3.857   9.133 -0.1598  0.0362  0.0961
  919MOL0     C26722   8.030   3.804   9.214  0.3584 -0.1440 -0.2322
  919MOL0     C26723   8.100   3.681   9.149 -0.5275 -0.3470  0.8337
  919MOL0     C26724   8.234   3.706   9.070  0.6183  0.4251  1.3319
  919MOL0     C26725   8.221   3.784   8.945 -0.8372 -0.6802  0.4783
  919MOL0     C26726   8.337   3.820   8.858 -1.4468  0.3628  0.4134
  919MOL0     C26727   8.436   3.923   8.918  0.1351  0.6664  0.3720
  919MOL0     C26728   8.553   3.947   8.826  0.0471  0.1001  0.5243
  919MOL0    Cl26729   8.501   4.058   8.692  0.2467 -0.9145 -0.1645
  919MOL0     C26730   7.933   3.995   8.806 -0.1064  1.1573  0.4847
  919MOL0     C26731   7.890   4.099   8.735  0.0920 -0.5380 -0.1224
  919MOL0     O26732   7.971   4.409   8.758  0.0633  0.1212 -0.7353
  919MOL0     C26733   7.938   4.613   8.578  0.2384 -0.8965  0.0587
  919MOL0     C26734   7.926   4.723   8.491 -0.1140  0.0851 -0.0941
  919MOL0     N26735   7.807   5.537   8.546  0.8311 -0.6632  0.4069
  919MOL0     N26736   7.880   5.644   8.570  0.3083 -0.1020  0.4092
  919MOL0     C26737   8.124   5.872   7.574  1.1184 -0.1321 -0.3982
  919MOL0     C26738   8.169   5.790   7.462  1.0214 -0.4649 -0.2598
  919MOL0     C26739   8.303   5.440   7.206  0.4646 -0.5374  0.1143
  919MOL0     C26740   8.441   5.449   7.196  0.0970 -0.1062 -0.5475
  919MOL0     C26741   8.510   5.391   7.098  0.0030  0.5141  0.6730
  919MOL0     C26742   8.443   5.336   6.986 -0.3784  0.0374 -0.1903
  919MOL0     O26743   8.508   5.285   6.876 -0.4471  0.1022 -0.2633
  919MOL0     C26744   8.651   5.305   6.854 -0.2653 -0.5880  0.4589
  919MOL0     C26745   8.693   5.263   6.717  0.1246 -0.1918 -0.5477
  919MOL0     C26746   8.835   5.319   6.680 -0.5337  0.2245 -1.2787
  919MOL0     C26747   8.944   5.263   6.767 -0.1059  0.8575  0.3311
  919MOL0     C26748   9.066   5.260   6.691 -0.1635 -0.8572  0.2402
  919MOL0     C26749   9.178   5.254   6.646 -1.0442  0.3403 -0.1260
  919MOL0     C26750   8.310   5.322   6.991  1.1656 -0.4732 -0.2367
  919MOL0     C26751   8.235   5.367   7.101  0.0416  0.0883  0.6049
  919MOL0     C26752   8.087   5.338   7.090 -0.5194 -0.0158  0.5107
  919MOL0     H26753   8.394   5.588   7.623 -1.4236 -0.6074  4.5984
  919MOL0     H26754   8.351   5.740   7.789 -0.8670 -1.3024 -0.1837
  919MOL0     H26755   8.276   5.890   7.958 -0.0900  0.0575  1.4033
  919MOL0     H26756   8.134   5.778   7.938 -1.8161  0.3746  2.8323
  919MOL0     H26757   8.110   6.072   7.977  3.1366 -1.1503  0.5364
  919MOL0     H26758   7.984   5.951   7.994  0.6905 -0.7754  0.4150
  919MOL0     H26759   8.124   5.840   8.181  1.3860 -0.5055 -1.7225
  919MOL0     H26760   8.210   5.997   8.186  0.7843 -2.0885  0.8030
  919MOL0     H26761   8.002   6.108   8.214  2.7626 -0.3894 -0.9255
  919MOL0     H26762   7.913   5.953   8.219 -0.6692  0.2842  0.9677
  919MOL0     H26763   7.973   6.033   8.451  2.0562  1.6163  1.1524
  919MOL0     H26764   8.142   6.046   8.414  1.0854 -0.3421 -0.7918
  919MOL0     H26765   7.963   5.807   8.398 -1.1992  4.4513 -2.2306
  919MOL0     H26766   8.148   5.801   8.399  0.1051  0.3652  0.4722
  919MOL0     H26767   8.000   5.874   8.650 -0.2610 -4.1126  0.8236
  919MOL0     H26768   8.171   5.905   8.627 -0.4150 -0.0319 -0.4193
  919MOL0     H26769   8.217   5.669   8.577 -0.5174  2.6510 -2.5392
  919MOL0     H26770   8.123   5.692   8.731 -3.5048 -0.7038  0.2687
  919MOL0     H26771   8.108   5.407   8.582  0.6382  0.9353 -0.3107
  919MOL0     H26772   7.830   5.289   8.408 -0.4997 -1.7941 -0.2465
  919MOL0     H26773   7.755   5.271   8.573 -2.5493  1.4553 -2.4370
  919MOL0     H26774   8.027   5.152   8.493 -1.3154 -5.3283 -0.2846
  919MOL0     H26775   7.956   5.167   8.657 -3.8231 -1.9800  1.3525
  919MOL0     H26776   7.881   4.960   8.595 -1.1177 -3.3327 -1.5103
  919MOL0     H26777   7.738   5.058   8.556 -0.2582 -0.8211 -1.8093
  919MOL0     H26778   7.844   5.073   8.304 -1.1957  1.6998  1.5975
  919MOL0     H26779   7.966   4.981   8.368 -0.3033 -0.2062  1.3934
  919MOL0     H26780   7.611   4.697   8.395 -0.1228 -2.4769 -0.6894
  919MOL0     H26781   7.592   4.381   8.536 -0.7066 -0.2466  1.3364
  919MOL0     H26782   7.501   4.525   8.496 -1.0227 -0.3885  1.1257
  919MOL0     H26783   7.545   4.491   8.662  2.2866 -1.4721  1.7740
  919MOL0     H26784   7.653   4.233   8.936  1.6796  2.1635 -0.0544
  919MOL0     H26785   7.722   4.018   9.065  0.9268  1.5154  0.1662
  919MOL0     H26786   7.885   3.954   9.178 -2.1333  0.1307 -0.9427
  919MOL0     H26787   7.819   3.794   9.152 -0.5357  0.5666  0.1522
  919MOL0     H26788   8.090   3.894   9.227 -1.7074  1.5623 -1.8880
  919MOL0     H26789   7.998   3.767   9.312  4.9413 -4.3392  0.1077
  919MOL0     H26790   8.020   3.647   9.083 -0.3410 -0.4907  0.6800
  919MOL0     H26791   8.122   3.596   9.215 -1.2176 -1.9280 -0.8780
  919MOL0     H26792   8.283   3.614   9.037  1.5421  1.5566 -0.5617
  919MOL0     H26793   8.306   3.740   9.146  1.0216 -1.2819  1.7627
  919MOL0     H26794   8.149   3.729   8.882  0.1356 -0.8723 -0.4895
  919MOL0     H26795   8.179   3.881   8.972 -0.4639  0.3941 -2.5295
  919MOL0     H26796   8.305   3.852   8.759 -0.9081  1.0706  0.4589
  919MOL0     H26797   8.402   3.732   8.854  1.9636  2.6648  1.1266
  919MOL0     H26798   8.472   3.866   9.004  1.7245  3.4347  1.7125
  919MOL0     H26799   8.384   4.011   8.959 -0.7926  2.0588 -3.3717
  919MOL0     H26800   8.586   3.850   8.787 -0.6845 -0.3472  1.0013
  919MOL0     H26801   8.630   3.996   8.887 -1.5319  2.7549  0.5494
  919MOL0     H26802   8.005   3.924   8.767 -3.6004 -2.4722 -0.0808
  919MOL0     H26803   7.946   4.120   8.644 -1.0532  0.0158 -0.7187
  919MOL0     H26804   8.042   4.589   8.598  1.0000  1.1541 -1.1255
  919MOL0     H26805   8.015   4.779   8.464  0.1486 -0.4217 -0.3034
  919MOL0     H26806   8.037   5.935   7.559  1.0958 -0.1943 -0.5318
  919MOL0     H26807   8.134   5.804   7.360 -1.1464  0.2062  0.5220
  919MOL0     H26808   8.499   5.499   7.273 -1.3188 -0.1589  0.5889
  919MOL0     H26809   8.618   5.405   7.099  0.4335 -1.4152 -2.9400
  919MOL0     H26810   8.677   5.408   6.879  0.2513 -0.7730  0.7059
  919MOL0     H26811   8.706   5.241   6.924  1.3506 -0.4666 -0.6573
  919MOL0     H26812   8.617   5.295   6.645  1.7306  0.1839 -2.1533
  919MOL0     H26813   8.690   5.154   6.721  0.2637 -0.1716  0.0922
  919MOL0     H26814   8.863   5.301   6.576  3.3619  3.0952 -0.9671
  919MOL0     H26815   8.833   5.424   6.712 -0.2919  0.5678 -2.3244
  919MOL0     H26816   8.926   5.162   6.802  0.9284  1.6481  3.4660
  919MOL0     H26817   8.962   5.325   6.856  1.3329  1.4783 -0.3531
  919MOL0     H26818   9.273   5.259   6.598  0.0627  2.0257  2.0531
  919MOL0     H26819   8.260   5.269   6.911 -0.1429 -0.1457  0.3447
  919MOL0     H26820   8.053   5.262   7.160 -0.9219 -0.1693  0.1551
  919MOL0     H26821   8.027   5.428   7.107  1.0217  1.7119 -2.3456
  919MOL0     H26822   8.056   5.317   6.987  1.7988  0.8355 -0.4494
  920MOL0     O26823   7.081   2.579   1.448  0.0098  0.6290  0.0247
  920MOL0     C26824   7.167   2.633   1.379  0.1092 -0.8412  0.5983
  920MOL0     O26825   7.283   2.682   1.425  0.2880  0.3470  0.3871
  920MOL0     C26826   7.365   2.601   1.490 -0.3651 -0.6663  0.4962
  920MOL0     C26827   7.491   2.655   1.516  0.1292 -0.3259 -0.3358
  920MOL0     C26828   7.583   2.594   1.603  0.3033  0.4422 -0.3906
  920MOL0     C26829   7.555   2.465   1.654  0.3557  0.1206 -0.3074
  920MOL0     O26830   7.651   2.413   1.736  0.6202 -0.0146 -0.4621
  920MOL0     C26831   7.702   2.486   1.842  0.6858 -0.1658  0.7232
  920MOL0     C26832   7.790   2.401   1.921  0.9304  1.0760 -0.0501
  920MOL0     C26833   7.875   2.478   2.011  0.1078 -0.3578 -1.4480
  920MOL0     C26834   7.803   2.585   2.113 -0.4668  0.3640 -0.4622
  920MOL0     C26835   7.725   2.514   2.229  0.9287 -0.5861 -0.2931
  920MOL0     C26836   7.813   2.447   2.336 -0.9653 -0.8428 -0.2670
  920MOL0     C26837   7.724   2.385   2.452 -1.1311 -0.2820  0.2396
  920MOL0     C26838   7.810   2.313   2.558 -0.6619 -0.3067 -0.0687
  920MOL0     N26839   7.894   2.410   2.628 -0.1879  0.1515 -0.3393
  920MOL0     C26840   8.031   2.427   2.613  0.3722 -0.9878  0.7640
  920MOL0     C26841   8.061   2.535   2.686  0.1737  0.8618  0.2286
  920MOL0     C26842   8.197   2.606   2.707  0.2102 -1.3186 -0.0313
  920MOL0     C26843   8.236   2.662   2.573  0.2925 -0.4690  0.7648
  920MOL0     C26844   8.350   2.756   2.593 -0.1197  0.4054  0.9255
  920MOL0     C26845   8.382   2.852   2.471  0.4480  0.4356 -0.0731
  920MOL0     O26846   8.497   2.934   2.503  0.1198  0.0564 -0.5707
  920MOL0     C26847   8.527   3.035   2.422 -0.7686 -0.0364  0.3314
  920MOL0     C26848   8.480   3.062   2.291 -0.0346  0.0444  0.0525
  920MOL0     C26849   8.532   3.166   2.209 -0.4363  0.3715 -1.6258
  920MOL0     C26850   8.467   3.179   2.074 -0.0408  0.4251  0.7654
  920MOL0     C26851   8.649   3.237   2.261 -0.2267  0.1685 -0.9373
  920MOL0     C26852   8.730   3.339   2.187 -0.0583 -1.0556 -0.1701
  920MOL0     O26853   8.796   3.421   2.266  0.4325 -0.4321  0.1314
  920MOL0     C26854   8.879   3.514   2.214 -0.3153 -0.0578  0.3876
  920MOL0     C26855   9.021   3.511   2.215 -1.4515  0.4977  0.5999
  920MOL0     C26856   9.092   3.626   2.175 -0.1007  1.0302  0.5458
  920MOL0     C26857   9.024   3.734   2.114 -0.2291 -0.1536  0.4619
  920MOL0     O26858   9.092   3.839   2.070 -0.6979  0.2392 -0.6167
  920MOL0     C26859   9.237   3.844   2.065  0.2876 -0.2051  0.0125
  920MOL0     C26860   9.312   3.905   2.183  1.4337 -0.6215  0.1328
  920MOL0     C26861   9.241   4.040   2.242  0.0152 -0.2795  0.2952
  920MOL0     C26862   9.240   4.161   2.143  0.7490  0.3551  0.2043
  920MOL0     C26863   9.187   4.294   2.196  0.4285  0.0222 -0.6512
  920MOL0     C26864   9.198   4.412   2.104  0.2932  0.2947  0.4203
  920MOL0     C26865   9.164   4.547   2.170  0.6534  0.7415 -0.0278
  920MOL0     C26866   9.145   4.666   2.080  0.2088  0.6921 -0.1136
  920MOL0    Cl26867   8.971   4.683   2.018 -0.2013  0.0260 -0.1996
  920MOL0     C26868   8.886   3.738   2.118 -0.7728 -0.5279 -0.2559
  920MOL0     C26869   8.811   3.626   2.160  0.4846  0.3888 -0.4841
  920MOL0     O26870   8.737   3.346   2.064  1.0744  0.4993 -0.4861
  920MOL0     C26871   8.690   3.209   2.392  0.3708 -0.1393  0.1797
  920MOL0     C26872   8.632   3.116   2.477 -0.2125  0.8042 -0.1777
  920MOL0     N26873   7.947   2.574   2.752  0.3703  0.6996 -0.4018
  920MOL0     N26874   7.853   2.494   2.722 -0.4510  1.0596  0.3632
  920MOL0     C26875   7.442   2.399   1.605 -0.7470 -0.4262 -1.3079
  920MOL0     C26876   7.347   2.469   1.530 -0.7742  0.4090 -0.4094
  920MOL0     C26877   7.155   2.628   1.228 -0.2418 -0.3872 -0.4728
  920MOL0     C26878   7.262   2.558   1.164 -0.2714 -0.0075 -0.0865
  920MOL0     C26879   7.270   2.552   1.027  0.3427 -0.3585  0.1433
  920MOL0     C26880   7.164   2.615   0.954 -0.2396 -0.2644  0.6713
  920MOL0     O26881   7.144   2.591   0.821  0.3252 -0.1498 -0.4046
  920MOL0     C26882   7.068   2.474   0.799 -0.2064  0.7120 -0.6146
  920MOL0     C26883   7.133   2.398   0.682  0.0363 -0.1611  0.1110
  920MOL0     C26884   7.052   2.285   0.629  0.1118 -0.0358 -0.8559
  920MOL0     C26885   7.143   2.181   0.559  0.2387 -0.3074  0.5244
  920MOL0     C26886   7.209   2.086   0.654  0.3098 -0.0167  1.4078
  920MOL0     C26887   7.251   1.986   0.712  0.2166  0.5236 -0.4733
  920MOL0     C26888   7.060   2.677   1.021  0.3650  0.7831 -0.9886
  920MOL0     C26889   7.045   2.681   1.160  0.7781  0.9612  1.0372
  920MOL0     C26890   6.913   2.719   1.226  0.2211 -0.4293 -0.1905
  920MOL0     H26891   7.510   2.742   1.454 -1.7258  0.3556 -0.0161
  920MOL0     H26892   7.679   2.635   1.634  0.1657 -0.7399  1.8540
  920MOL0     H26893   7.625   2.525   1.910 -1.2930 -1.5218 -0.6053
  920MOL0     H26894   7.750   2.576   1.804 -1.4620 -0.2954 -2.7532
  920MOL0     H26895   7.731   2.341   1.991  2.2122  1.0726  1.0652
  920MOL0     H26896   7.856   2.340   1.859  2.4724  2.6441 -0.0448
  920MOL0     H26897   7.944   2.412   2.065  1.7487  0.5594 -2.3281
  920MOL0     H26898   7.938   2.542   1.948  1.7338 -1.3244 -0.8833
  920MOL0     H26899   7.868   2.658   2.159 -1.1188  0.3376  0.5222
  920MOL0     H26900   7.734   2.648   2.055  0.4516  0.9463 -0.9344
  920MOL0     H26901   7.657   2.440   2.188  3.4308 -2.9884 -0.3882
  920MOL0     H26902   7.676   2.597   2.280  0.0007  0.1952 -2.3083
  920MOL0     H26903   7.859   2.362   2.285 -3.7431 -1.3986 -2.0484
  920MOL0     H26904   7.880   2.528   2.366 -2.3092  1.1259 -2.2810
  920MOL0     H26905   7.660   2.312   2.400 -0.3259  0.0099 -1.2055
  920MOL0     H26906   7.675   2.464   2.510 -1.7779 -0.6792  0.2443
  920MOL0     H26907   7.745   2.269   2.635  1.1458 -0.2026  1.5818
  920MOL0     H26908   7.868   2.233   2.511 -0.7571 -0.5325  0.1977
  920MOL0     H26909   8.097   2.370   2.549  2.3564  0.2935  1.5663
  920MOL0     H26910   8.279   2.547   2.750  1.1487 -0.3138 -0.3821
  920MOL0     H26911   8.176   2.692   2.772  2.5090 -0.9498  0.3120
  920MOL0     H26912   8.275   2.579   2.513  4.3723  0.5901  1.6340
  920MOL0     H26913   8.148   2.700   2.521 -0.4444 -3.4274 -0.3375
  920MOL0     H26914   8.337   2.805   2.690  0.2166  3.1493 -0.3143
  920MOL0     H26915   8.446   2.703   2.598 -0.4944 -0.5246 -0.8674
  920MOL0     H26916   8.399   2.788   2.385 -1.6903 -1.3971  0.7758
  920MOL0     H26917   8.292   2.914   2.461 -0.6735  0.1455  5.2081
  920MOL0     H26918   8.393   3.008   2.254 -0.6946 -0.8227  2.6216
  920MOL0     H26919   8.469   3.282   2.038 -1.4750 -0.1339 -1.0358
  920MOL0     H26920   8.363   3.146   2.070  0.1913 -0.2168 -1.4599
  920MOL0     H26921   8.527   3.122   2.003  1.1826  1.6238  0.8077
  920MOL0     H26922   9.067   3.419   2.250 -5.0629 -1.2872  1.1331
  920MOL0     H26923   9.199   3.616   2.191  0.2671  2.1835 -0.9842
  920MOL0     H26924   9.290   3.750   2.049  1.0908  0.0554  1.0080
  920MOL0     H26925   9.253   3.915   1.983 -0.9141  0.2216  0.1312
  920MOL0     H26926   9.325   3.824   2.254  2.4499  0.4380  1.2055
  920MOL0     H26927   9.410   3.949   2.160  1.1520  0.8667  1.5486
  920MOL0     H26928   9.296   4.079   2.328  0.7981  1.4056 -0.9165
  920MOL0     H26929   9.139   4.008   2.267  0.0607  0.0875  0.9692
  920MOL0     H26930   9.177   4.132   2.058  1.6729 -0.7129 -0.1473
  920MOL0     H26931   9.343   4.173   2.108  2.3979  1.6922  4.8014
  920MOL0     H26932   9.081   4.274   2.217  1.0416 -3.2195 -0.1416
  920MOL0     H26933   9.231   4.309   2.295  1.2076  1.0680 -1.1385
  920MOL0     H26934   9.134   4.413   2.016 -0.7939  2.1859  1.1681
  920MOL0     H26935   9.304   4.408   2.074  0.6942  1.8548  1.4981
  920MOL0     H26936   9.242   4.556   2.246  2.1614  2.9381 -1.7104
  920MOL0     H26937   9.066   4.540   2.218  1.2237  0.9978  1.2100
  920MOL0     H26938   9.211   4.658   1.994 -1.2789  0.4010 -1.2707
  920MOL0     H26939   9.164   4.754   2.142 -1.4321 -0.0168  1.5022
  920MOL0     H26940   8.839   3.827   2.077 -0.7803 -0.6778 -0.5703
  920MOL0     H26941   8.707   3.651   2.144  0.7093  1.6262 -0.1519
  920MOL0     H26942   8.768   3.264   2.445  0.1325 -2.2812  3.0339
  920MOL0     H26943   8.666   3.098   2.578  3.3584 -2.9415 -1.7365
  920MOL0     H26944   7.428   2.295   1.633  2.3122 -0.6017 -0.0811
  920MOL0     H26945   7.257   2.417   1.499 -1.5151  2.4019 -1.8527
  920MOL0     H26946   7.322   2.499   1.232  1.4600  2.2346  0.4527
  920MOL0     H26947   7.338   2.488   0.972 -0.6898 -1.0113 -0.4161
  920MOL0     H26948   7.086   2.410   0.886  0.9169  0.5880 -0.9129
  920MOL0     H26949   6.962   2.485   0.776 -1.1787 -0.4878  2.7300
  920MOL0     H26950   7.232   2.364   0.714 -0.4514 -2.0947 -0.3089
  920MOL0     H26951   7.127   2.469   0.599  1.6853 -2.0448 -1.7574
  920MOL0     H26952   6.988   2.242   0.707  1.0134 -2.2400 -1.2378
  920MOL0     H26953   6.985   2.327   0.553 -1.1888  0.0697  0.3070
  920MOL0     H26954   7.216   2.239   0.503 -1.5572  0.4846 -1.1036
  920MOL0     H26955   7.077   2.130   0.488  0.3661  0.5867 -0.2541
  920MOL0     H26956   7.284   1.900   0.766  1.0452  0.5754 -0.8938
  920MOL0     H26957   6.984   2.733   0.967  1.9795  2.6519 -1.4378
  920MOL0     H26958   6.855   2.626   1.230  0.8374 -0.8073  0.1170
  920MOL0     H26959   6.922   2.758   1.328 -2.2997 -1.0028  0.3337
  920MOL0     H26960   6.856   2.788   1.163  2.8639 -0.5019 -2.8806
  921MOL0     O26961   5.477   6.180   0.064  0.7015 -0.0759 -0.7170
  921MOL0     C26962   5.369   6.136   0.019 -0.4092  0.3829 -0.2923
  921MOL0     O26963   5.287   6.188  -0.070  0.2870  0.1331 -0.0969
  921MOL0     C26964   5.338   6.306  -0.119  0.1833  0.2115  0.5578
  921MOL0     C26965   5.303   6.426  -0.058 -0.0974  1.2855 -0.5579
  921MOL0     C26966   5.341   6.550  -0.101 -0.2772 -0.6829  0.1315
  921MOL0     C26967   5.430   6.558  -0.209 -0.2398  0.0761  0.5591
  921MOL0     O26968   5.452   6.682  -0.260  0.0355 -0.6901  0.0467
  921MOL0     C26969   5.499   6.691  -0.396 -0.3865  0.5084 -0.1460
  921MOL0     C26970   5.515   6.846  -0.431  0.2076  0.1286 -0.2265
  921MOL0     C26971   5.380   6.904  -0.463 -0.2145 -0.5439  0.7464
  921MOL0     C26972   5.389   7.059  -0.484 -0.4267 -0.1357 -0.2645
  921MOL0     C26973   5.276   7.098  -0.586  0.0071  0.1669 -0.4081
  921MOL0     C26974   5.253   7.245  -0.609 -0.3289  0.8845  0.6998
  921MOL0     C26975   5.127   7.300  -0.670  0.5884  0.0874 -0.1172
  921MOL0     C26976   5.012   7.322  -0.563 -0.1655  0.7102 -0.1797
  921MOL0     N26977   4.901   7.395  -0.641 -0.9978 -0.0080  0.0281
  921MOL0     C26978   4.858   7.521  -0.611  0.0221  0.2669 -0.3906
  921MOL0     C26979   4.732   7.534  -0.662 -0.4586  0.1687  0.5482
  921MOL0     C26980   4.628   7.645  -0.651 -0.4933  0.5340  0.4281
  921MOL0     C26981   4.641   7.713  -0.513  0.7208 -0.3022  0.2079
  921MOL0     C26982   4.557   7.629  -0.407  0.0220 -0.2347  0.1795
  921MOL0     C26983   4.592   7.682  -0.269 -0.0909  0.3510 -0.7361
  921MOL0     O26984   4.718   7.643  -0.230 -0.6471  0.2577  0.5202
  921MOL0     C26985   4.803   7.729  -0.175  0.9797  0.4755 -0.8349
  921MOL0     C26986   4.789   7.755  -0.046  0.1629  0.2458 -0.5163
  921MOL0     C26987   4.862   7.859   0.013  0.2371 -0.0097  0.6372
  921MOL0     C26988   4.847   7.891   0.159  0.7549  0.7504  0.0962
  921MOL0     C26989   4.958   7.933  -0.064 -0.5065  0.0288 -0.4239
  921MOL0     C26990   5.046   8.050  -0.018  0.6686 -0.2968 -0.0138
  921MOL0     O26991   5.123   8.110  -0.110  0.4370 -0.1026  0.6634
  921MOL0     C26992   5.224   8.200  -0.082 -0.5619 -0.3054 -0.0684
  921MOL0     C26993   5.208   8.336  -0.108 -0.0553 -0.2678 -0.4308
  921MOL0     C26994   5.312   8.429  -0.089 -0.6136  0.5282  0.6915
  921MOL0     C26995   5.437   8.382  -0.055  0.9016  0.9590 -0.1735
  921MOL0     O26996   5.541   8.470  -0.047  0.9171  0.5585 -0.2025
  921MOL0     C26997   5.660   8.442   0.026 -0.3051 -0.7060  0.1848
  921MOL0     C26998   5.741   8.570   0.071  0.1962  0.1186  0.1223
  921MOL0     C26999   5.850   8.527   0.170 -0.7573 -0.5679  0.3260
  921MOL0     C27000   5.912   8.653   0.238 -0.8206 -0.1022  0.4681
  921MOL0     C27001   6.041   8.610   0.316  0.9661 -0.2735 -0.3521
  921MOL0     C27002   6.168   8.626   0.234 -0.6373 -0.1220 -0.0032
  921MOL0     C27003   6.289   8.583   0.306 -0.4897  0.4349 -0.4458
  921MOL0     C27004   6.398   8.539   0.209 -0.7294  0.5200  0.6753
  921MOL0    Cl27005   6.373   8.365   0.151 -0.2179  0.1528 -0.3191
  921MOL0     C27006   5.460   8.244  -0.037  0.6756  0.1751 -0.0831
  921MOL0     C27007   5.353   8.154  -0.049  0.0153 -0.4797 -0.6824
  921MOL0     O27008   5.041   8.087   0.101 -0.8272  0.0719  0.1583
  921MOL0     C27009   4.960   7.906  -0.204 -0.0467 -0.5033 -0.0150
  921MOL0     C27010   4.887   7.802  -0.251  0.3678  0.1607 -0.0044
  921MOL0     N27011   4.706   7.417  -0.733  0.7478  0.7790  0.7026
  921MOL0     N27012   4.803   7.336  -0.719 -0.2715  0.4343  0.6552
  921MOL0     C27013   5.465   6.434  -0.276  0.1989  0.3092  1.1216
  921MOL0     C27014   5.417   6.310  -0.240 -0.1359 -0.0854 -0.0471
  921MOL0     C27015   5.326   5.999   0.068  0.4207 -0.1923  1.0002
  921MOL0     C27016   5.287   5.971   0.198 -0.4455 -0.8539 -0.1731
  921MOL0     C27017   5.239   5.848   0.237  0.3424  0.0067  0.2261
  921MOL0     C27018   5.225   5.744   0.147  0.6730  0.0699 -0.0235
  921MOL0     O27019   5.201   5.613   0.172  0.1168 -0.5671 -0.1268
  921MOL0     C27020   5.171   5.559   0.303 -0.4216  0.5511 -0.1429
  921MOL0     C27021   5.170   5.410   0.280  0.1849 -0.0498 -0.0292
  921MOL0     C27022   5.132   5.339   0.419  0.2411 -0.6901 -0.2307
  921MOL0     C27023   5.011   5.246   0.411  0.8921  0.5991 -0.2015
  921MOL0     C27024   4.880   5.307   0.374 -0.4661  0.5185 -0.2042
  921MOL0     C27025   4.773   5.357   0.335  0.2659 -0.5794 -0.3770
  921MOL0     C27026   5.247   5.771   0.015  0.0431  0.2245 -0.8406
  921MOL0     C27027   5.297   5.892  -0.030  0.3021 -0.3722  0.8055
  921MOL0     C27028   5.336   5.903  -0.182 -0.3357 -1.0084  0.0255
  921MOL0     H27029   5.244   6.408   0.031 -1.4430  0.7308 -1.5319
  921MOL0     H27030   5.304   6.640  -0.052 -1.4964  2.0006 -5.0565
  921MOL0     H27031   5.434   6.642  -0.469 -1.5565  2.1027 -0.2308
  921MOL0     H27032   5.596   6.641  -0.396 -0.9203 -0.5406 -0.3083
  921MOL0     H27033   5.562   6.894  -0.345  0.8894 -3.0390  1.3152
  921MOL0     H27034   5.581   6.846  -0.518  0.8385 -0.1999  0.2482
  921MOL0     H27035   5.347   6.858  -0.556  1.0054 -1.7717  0.8862
  921MOL0     H27036   5.303   6.888  -0.386 -0.6858 -0.8520  0.2195
  921MOL0     H27037   5.389   7.112  -0.388 -0.3451  1.4290 -1.0925
  921MOL0     H27038   5.478   7.106  -0.527 -0.1243  0.0536  0.5568
  921MOL0     H27039   5.179   7.066  -0.546 -0.8291  1.4411 -1.3410
  921MOL0     H27040   5.315   7.069  -0.684  0.8146  2.0482 -0.6802
  921MOL0     H27041   5.266   7.288  -0.510  2.3572 -0.5491  1.0588
  921MOL0     H27042   5.343   7.269  -0.666  0.7732 -0.3094  1.8708
  921MOL0     H27043   5.104   7.237  -0.756  2.7141  0.0127 -0.6713
  921MOL0     H27044   5.140   7.399  -0.716 -0.9155  1.0357  1.3538
  921MOL0     H27045   4.977   7.221  -0.539 -0.0470  0.2716 -1.7274
  921MOL0     H27046   5.053   7.376  -0.478  3.9262 -0.7706 -0.9816
  921MOL0     H27047   4.898   7.581  -0.530 -3.3705  1.9250  0.2661
  921MOL0     H27048   4.526   7.616  -0.678 -0.2878  0.4260 -0.2759
  921MOL0     H27049   4.647   7.725  -0.724  4.5715  2.7857  3.6831
  921MOL0     H27050   4.746   7.733  -0.489  1.3627  0.0067 -2.4988
  921MOL0     H27051   4.598   7.813  -0.521  2.8258  0.5649 -0.8890
  921MOL0     H27052   4.451   7.649  -0.423 -0.0515 -2.6899 -3.5807
  921MOL0     H27053   4.585   7.524  -0.419  1.5510  0.0035  1.3431
  921MOL0     H27054   4.583   7.790  -0.285 -2.4788  0.1061 -1.4208
  921MOL0     H27055   4.528   7.649  -0.187  0.6902  3.0344  1.1086
  921MOL0     H27056   4.724   7.699   0.021 -1.0881 -0.4886 -2.2978
  921MOL0     H27057   4.941   7.890   0.215 -0.9334  1.8194  3.1755
  921MOL0     H27058   4.772   7.821   0.197 -1.9904  1.5040 -3.3418
  921MOL0     H27059   4.803   7.989   0.179 -0.1595  0.3907 -0.1097
  921MOL0     H27060   5.124   8.383  -0.161  0.3976 -0.5122 -1.3965
  921MOL0     H27061   5.308   8.530  -0.128  1.2776  0.0082 -1.0522
  921MOL0     H27062   5.633   8.385   0.116 -0.0644  0.2860  0.9024
  921MOL0     H27063   5.722   8.376  -0.035 -2.1285  0.0198 -2.6623
  921MOL0     H27064   5.785   8.617  -0.017 -0.2339  0.4077  0.0608
  921MOL0     H27065   5.688   8.652   0.120  2.0964  1.3028  0.2783
  921MOL0     H27066   5.941   8.487   0.126  1.3136  0.7427  3.1357
  921MOL0     H27067   5.806   8.463   0.248 -0.9561  1.3651  1.8993
  921MOL0     H27068   5.839   8.704   0.301 -0.0881  2.1406 -0.3893
  921MOL0     H27069   5.936   8.727   0.161  1.4076  1.0686  2.1759
  921MOL0     H27070   6.046   8.679   0.401  0.7337 -2.5579  1.6018
  921MOL0     H27071   6.025   8.506   0.345  0.7294 -0.4805 -1.1876
  921MOL0     H27072   6.182   8.728   0.197 -2.5696 -0.0114 -0.5302
  921MOL0     H27073   6.162   8.571   0.139  2.6281 -0.0059 -0.3774
  921MOL0     H27074   6.269   8.499   0.373  2.8908  0.2962  0.5326
  921MOL0     H27075   6.332   8.667   0.360  1.9868 -0.6469 -0.6249
  921MOL0     H27076   6.494   8.533   0.262 -0.2579  3.1649  0.2175
  921MOL0     H27077   6.411   8.603   0.122  0.2275  0.4283  0.7395
  921MOL0     H27078   5.563   8.211  -0.035  0.9848  1.0911  1.9764
  921MOL0     H27079   5.347   8.046  -0.039 -2.4618 -0.2300  2.2763
  921MOL0     H27080   5.011   7.971  -0.275 -0.4898 -0.0705  0.0551
  921MOL0     H27081   4.897   7.768  -0.354 -3.6527 -0.7322 -0.2679
  921MOL0     H27082   5.530   6.433  -0.364 -0.4256 -0.9011  0.6456
  921MOL0     H27083   5.452   6.219  -0.289 -2.1949  0.9598 -3.8623
  921MOL0     H27084   5.312   6.057   0.258  1.2436 -1.8262  0.5972
  921MOL0     H27085   5.202   5.825   0.337 -2.9117  0.3330 -0.7944
  921MOL0     H27086   5.243   5.580   0.383 -0.9895 -1.2878  0.9150
  921MOL0     H27087   5.073   5.602   0.324 -1.5645 -0.6310 -2.6833
  921MOL0     H27088   5.266   5.371   0.248  0.2450 -0.1295  0.2463
  921MOL0     H27089   5.096   5.393   0.201 -1.1474  1.4310  0.8431
  921MOL0     H27090   5.214   5.284   0.468 -1.6517 -0.5960  3.4106
  921MOL0     H27091   5.086   5.417   0.480 -1.4397 -1.1171 -0.8816
  921MOL0     H27092   5.010   5.225   0.519  2.2724 -0.4062 -0.3600
  921MOL0     H27093   5.011   5.152   0.354  1.6301  0.4710  0.0032
  921MOL0     H27094   4.681   5.409   0.318  0.7256  0.6394  0.5861
  921MOL0     H27095   5.257   5.696  -0.063 -0.1845 -0.6206 -0.0742
  921MOL0     H27096   5.243   5.901  -0.240 -2.2700  1.5692  2.6649
  921MOL0     H27097   5.398   5.989  -0.208 -0.9435 -0.9166 -1.1897
  921MOL0     H27098   5.390   5.809  -0.199 -1.9376 -1.8143 -0.8188
  922MOL0     O27099   5.605   0.292   0.434 -0.3139  0.7590 -0.1724
  922MOL0     C27100   5.581   0.238   0.541  0.3317 -0.3835 -0.0178
  922MOL0     O27101   5.548   0.310   0.648  0.5746 -0.4719 -0.5140
  922MOL0     C27102   5.568   0.442   0.652 -0.4471 -0.0488  0.1989
  922MOL0     C27103   5.452   0.519   0.627 -0.0962 -0.0083  0.2596
  922MOL0     C27104   5.469   0.659   0.620  0.6912 -0.5045  0.5792
  922MOL0     C27105   5.588   0.717   0.643  0.2378 -0.5460  0.1911
  922MOL0     O27106   5.608   0.852   0.631  0.0002  0.3754 -0.9044
  922MOL0     C27107   5.582   0.906   0.497  0.8857 -0.1080 -0.1670
  922MOL0     C27108   5.718   0.957   0.445 -1.6108  0.0081  0.3036
  922MOL0     C27109   5.834   0.853   0.437 -1.1104 -0.5897 -0.5305
  922MOL0     C27110   5.955   0.921   0.372  0.6664  0.2641  0.3769
  922MOL0     C27111   6.086   0.849   0.386  0.7922 -0.0777  0.1434
  922MOL0     C27112   6.202   0.881   0.295  0.6791 -0.4516 -0.7650
  922MOL0     C27113   6.324   0.788   0.296  0.1603  0.7624 -0.0531
  922MOL0     C27114   6.448   0.855   0.234  0.4890 -0.7023  0.6321
  922MOL0     N27115   6.559   0.798   0.310 -0.5846  0.0118 -0.7794
  922MOL0     C27116   6.645   0.692   0.269  1.0150  0.4312 -0.3040
  922MOL0     C27117   6.729   0.671   0.370 -0.1885  0.0497 -0.5120
  922MOL0     C27118   6.839   0.567   0.401 -0.4803  0.0425  0.4929
  922MOL0     C27119   6.952   0.568   0.294 -0.1438 -0.1741 -0.1954
  922MOL0     C27120   6.977   0.430   0.227 -0.0426  0.3526  0.1209
  922MOL0     C27121   7.127   0.446   0.167 -0.0729 -0.0142 -0.2733
  922MOL0     O27122   7.122   0.532   0.060  0.3798 -0.1428 -0.4801
  922MOL0     C27123   7.242   0.517   0.003 -0.2744 -0.6660 -0.1375
  922MOL0     C27124   7.345   0.601   0.043 -0.3505  0.1607 -0.2552
  922MOL0     C27125   7.476   0.583  -0.009 -0.0359 -0.1719 -0.1123
  922MOL0     C27126   7.583   0.670   0.051 -0.8571 -0.1375 -0.4014
  922MOL0     C27127   7.505   0.480  -0.104 -1.0338  0.3571  0.5679
  922MOL0     C27128   7.640   0.457  -0.164 -0.0663  0.4360  0.7019
  922MOL0     O27129   7.735   0.550  -0.157 -0.3249 -0.8540 -0.5210
  922MOL0     C27130   7.868   0.541  -0.196 -0.6219 -0.5132 -0.0411
  922MOL0     C27131   7.929   0.660  -0.243  0.7287  0.9077  0.7396
  922MOL0     C27132   8.072   0.664  -0.270  0.2179  0.1223 -0.6694
  922MOL0     C27133   8.139   0.541  -0.266  0.1635 -0.8707  0.4075
  922MOL0     O27134   8.273   0.548  -0.288  0.0648  0.0233  0.2944
  922MOL0     C27135   8.370   0.482  -0.209  0.7797  0.9044  0.5259
  922MOL0     C27136   8.508   0.540  -0.227  0.4555 -1.2708 -0.5626
  922MOL0     C27137   8.613   0.475  -0.151  0.1394 -0.0775  0.9409
  922MOL0     C27138   8.746   0.501  -0.220  0.0545 -0.4101 -0.5033
  922MOL0     C27139   8.869   0.452  -0.134 -0.2928 -0.0358 -0.1345
  922MOL0     C27140   9.019   0.500  -0.163  0.4750  0.1794 -0.3160
  922MOL0     C27141   9.080   0.476  -0.301  0.8582  0.5405  0.3349
  922MOL0     C27142   9.214   0.551  -0.336 -1.0971 -0.3135  0.0617
  922MOL0    Cl27143   9.199   0.733  -0.328  0.1841  0.0921 -0.7123
  922MOL0     C27144   8.082   0.427  -0.217 -0.6784 -0.4826 -1.2619
  922MOL0     C27145   7.947   0.428  -0.181 -0.0687 -0.2346  0.1561
  922MOL0     O27146   7.654   0.353  -0.228 -0.4269 -0.1623  0.2580
  922MOL0     C27147   7.396   0.401  -0.144 -0.3443  0.8999 -0.2301
  922MOL0     C27148   7.265   0.420  -0.097 -0.1578  0.1649  0.4749
  922MOL0     N27149   6.706   0.773   0.463 -0.5339  0.3246  0.7346
  922MOL0     N27150   6.607   0.851   0.427  0.3220  0.5270  0.4563
  922MOL0     C27151   5.700   0.639   0.686 -0.7398  0.2103 -0.2717
  922MOL0     C27152   5.689   0.502   0.677 -0.1200 -0.5018 -1.0401
  922MOL0     C27153   5.568   0.089   0.538 -0.7475  0.5728 -0.7704
  922MOL0     C27154   5.466   0.035   0.621  0.0327  0.2422  0.0999
  922MOL0     C27155   5.432  -0.103   0.619  0.0843 -0.2642  0.7599
  922MOL0     C27156   5.498  -0.188   0.528 -0.1597 -0.3330 -0.7089
  922MOL0     O27157   5.470  -0.319   0.541 -1.3227 -0.2244 -0.4481
  922MOL0     C27158   5.533  -0.427   0.465  0.1576 -1.0034 -0.1619
  922MOL0     C27159   5.674  -0.458   0.509 -0.0474  0.0598 -0.4912
  922MOL0     C27160   5.683  -0.495   0.661  0.3820  0.3920 -0.5262
  922MOL0     C27161   5.833  -0.526   0.705 -0.8193  0.0182 -0.3597
  922MOL0     C27162   5.835  -0.540   0.849 -0.8236  0.2860  0.0846
  922MOL0     C27163   5.836  -0.563   0.971 -0.4798  0.5904  0.3948
  922MOL0     C27164   5.596  -0.132   0.446  0.7550  0.2785 -0.2939
  922MOL0     C27165   5.634   0.006   0.439  0.9220  0.2505  0.2651
  922MOL0     C27166   5.748   0.060   0.346 -0.6720  0.2175  0.2131
  922MOL0     H27167   5.359   0.474   0.597  0.3843  0.0858 -1.5134
  922MOL0     H27168   5.387   0.716   0.578  2.1059 -0.6851 -2.8306
  922MOL0     H27169   5.511   0.989   0.497 -0.8037 -1.4964 -0.8327
  922MOL0     H27170   5.531   0.832   0.434 -1.4190  2.6004 -1.7353
  922MOL0     H27171   5.696   0.997   0.346 -3.1023  0.8780  0.9640
  922MOL0     H27172   5.747   1.037   0.514  0.3258 -1.6233  1.5395
  922MOL0     H27173   5.852   0.811   0.537 -2.7797 -1.2231 -0.4618
  922MOL0     H27174   5.798   0.767   0.378 -2.4004 -0.6542  0.3028
  922MOL0     H27175   5.938   0.937   0.265 -0.1120 -1.0463  0.2910
  922MOL0     H27176   5.969   1.021   0.415  0.5322 -0.7132  2.8969
  922MOL0     H27177   6.059   0.744   0.371  0.8005  0.2552 -2.9592
  922MOL0     H27178   6.118   0.847   0.490 -1.0711 -3.3925  0.7845
  922MOL0     H27179   6.169   0.892   0.191  0.5261 -0.5601 -0.7278
  922MOL0     H27180   6.241   0.980   0.320 -1.5341  0.6504 -1.4287
  922MOL0     H27181   6.302   0.696   0.241 -1.2252  0.1691  1.4126
  922MOL0     H27182   6.348   0.772   0.401  1.2655 -1.4682 -0.5872
  922MOL0     H27183   6.444   0.855   0.125 -0.5539  0.6300  0.6555
  922MOL0     H27184   6.436   0.960   0.262 -2.1868 -1.3740  2.4348
  922MOL0     H27185   6.630   0.629   0.181  3.5582  2.2503 -2.1868
  922MOL0     H27186   6.780   0.475   0.392 -1.3818  0.7917 -3.0131
  922MOL0     H27187   6.879   0.574   0.502  0.4987  1.2751  0.0394
  922MOL0     H27188   6.934   0.642   0.216 -1.1555 -0.5136 -0.3008
  922MOL0     H27189   7.042   0.612   0.338 -2.3456  3.0587  1.4548
  922MOL0     H27190   6.963   0.357   0.307 -1.0300 -0.2217 -0.5434
  922MOL0     H27191   6.909   0.410   0.143 -1.0265  1.3467  0.6544
  922MOL0     H27192   7.188   0.475   0.253 -0.4174 -1.2128  0.4007
  922MOL0     H27193   7.151   0.345   0.134 -4.4494 -0.7219 -1.9439
  922MOL0     H27194   7.329   0.681   0.115  2.5318 -0.0935  0.7685
  922MOL0     H27195   7.580   0.767  -0.001 -2.8698  1.4149  2.3638
  922MOL0     H27196   7.682   0.625   0.061 -1.8548 -1.9939  2.1616
  922MOL0     H27197   7.551   0.685   0.154  0.5069 -1.7302  0.2863
  922MOL0     H27198   7.863   0.746  -0.247 -2.1787 -0.8431  4.6099
  922MOL0     H27199   8.111   0.764  -0.286 -0.7764  0.5868 -0.2708
  922MOL0     H27200   8.335   0.501  -0.107 -0.6063  0.9336  0.0620
  922MOL0     H27201   8.367   0.376  -0.236  0.4236  1.6119 -2.7204
  922MOL0     H27202   8.529   0.532  -0.334  2.0542  0.6158 -0.4606
  922MOL0     H27203   8.512   0.643  -0.191 -0.0183 -2.0774  1.9922
  922MOL0     H27204   8.593   0.367  -0.151 -3.6339  0.4279  2.9530
  922MOL0     H27205   8.614   0.511  -0.047 -2.4576 -0.4586  1.1821
  922MOL0     H27206   8.747   0.606  -0.249  0.1870 -0.6457 -1.3718
  922MOL0     H27207   8.754   0.450  -0.316  2.4553 -2.9903  0.9123
  922MOL0     H27208   8.867   0.480  -0.028  3.3366  0.9906 -0.1908
  922MOL0     H27209   8.874   0.343  -0.137  2.4025 -0.2154  3.5833
  922MOL0     H27210   9.078   0.449  -0.087 -1.3468 -0.5682  0.6648
  922MOL0     H27211   9.018   0.604  -0.129 -0.6053  0.1410 -0.1952
  922MOL0     H27212   9.013   0.496  -0.385  1.3391 -0.0668 -0.2036
  922MOL0     H27213   9.103   0.369  -0.306 -1.4383  0.0714 -1.7967
  922MOL0     H27214   9.250   0.522  -0.435  0.2376 -1.9238  0.9681
  922MOL0     H27215   9.288   0.523  -0.261 -1.9067  0.4422  1.1838
  922MOL0     H27216   8.123   0.327  -0.203 -2.2928 -0.9059  0.9648
  922MOL0     H27217   7.914   0.337  -0.131  0.2603 -0.0719  0.6796
  922MOL0     H27218   7.419   0.323  -0.216  2.5525  0.5303  0.9914
  922MOL0     H27219   7.185   0.358  -0.135  0.2003  0.9534 -1.7184
  922MOL0     H27220   5.796   0.681   0.715 -0.1058 -0.0965 -1.8510
  922MOL0     H27221   5.779   0.443   0.691  0.8611  1.2650  0.5099
  922MOL0     H27222   5.416   0.098   0.695  0.6947 -1.4009  2.0596
  922MOL0     H27223   5.364  -0.146   0.691 -2.3307  2.0546  0.0275
  922MOL0     H27224   5.476  -0.515   0.495 -1.3807 -0.2779 -0.8180
  922MOL0     H27225   5.517  -0.409   0.359 -4.7642  2.8717  0.8333
  922MOL0     H27226   5.746  -0.381   0.479  0.6542 -0.2020  0.4841
  922MOL0     H27227   5.718  -0.545   0.458  0.3363 -0.1285  0.1518
  922MOL0     H27228   5.651  -0.413   0.725  0.1695 -0.3373  0.3258
  922MOL0     H27229   5.625  -0.585   0.683  1.7383 -0.3176  0.2519
  922MOL0     H27230   5.899  -0.442   0.679 -2.7212  1.0081 -2.2829
  922MOL0     H27231   5.874  -0.615   0.656  0.3892  0.9620 -1.1335
  922MOL0     H27232   5.850  -0.580   1.076  1.2490 -0.1375  0.0776
  922MOL0     H27233   5.669  -0.185   0.387  1.2282 -0.0867  0.6092
  922MOL0     H27234   5.825  -0.018   0.352 -1.9422 -0.9589  4.8455
  922MOL0     H27235   5.711   0.085   0.246 -0.4074  1.0670  0.3269
  922MOL0     H27236   5.788   0.151   0.391 -0.3785  0.2689 -0.1427
  923MOL0     O27237   9.252   4.059  11.466  0.0536 -0.3715  0.1148
  923MOL0     C27238   9.224   4.116  11.361  0.3141 -0.3956  0.0207
  923MOL0     O27239   9.293   4.232  11.320 -0.0493  0.0105  0.2094
  923MOL0     C27240   9.407   4.281  11.390  0.6480  0.7319  0.0190
  923MOL0     C27241   9.508   4.201  11.436  0.4557 -0.3582 -0.0189
  923MOL0     C27242   9.619   4.255  11.504 -0.4120  0.1834 -0.0235
  923MOL0     C27243   9.648   4.390  11.512  0.1851 -0.7498 -0.3248
  923MOL0     O27244   9.765   4.435  11.570 -0.2999  1.1640 -0.0990
  923MOL0     C27245   9.769   4.507  11.694  0.1844  1.0191 -0.9630
  923MOL0     C27246   9.750   4.401  11.814  0.5252  0.3421  0.2289
  923MOL0     C27247   9.890   4.338  11.847 -0.5648  0.1527  0.6133
  923MOL0     C27248   9.887   4.269  11.981  0.0619  0.0814  0.6185
  923MOL0     C27249  10.018   4.180  12.016  0.0172  0.0469  0.6061
  923MOL0     C27250  10.024   4.059  11.925 -0.1398 -0.1635  1.0646
  923MOL0     C27251  10.158   3.985  11.945 -0.3456  0.3941 -1.3220
  923MOL0     C27252  10.160   3.858  11.862  0.0653  0.3854  0.7338
  923MOL0     N27253  10.081   3.753  11.933  0.2234 -0.3156 -0.3847
  923MOL0     C27254   9.962   3.697  11.884 -0.0541 -0.0330  1.1593
  923MOL0     C27255   9.929   3.608  11.978 -0.0274  0.7303  0.6103
  923MOL0     C27256   9.805   3.525  11.982  0.6333 -0.6130  0.2488
  923MOL0     C27257   9.824   3.366  11.966 -1.3150 -0.7177 -0.5273
  923MOL0     C27258   9.862   3.284  12.089  0.0912 -0.9386  0.1373
  923MOL0     C27259   9.817   3.137  12.090 -0.3971  0.0826  0.2612
  923MOL0     O27260   9.685   3.134  12.147 -0.3892 -0.0249  0.1543
  923MOL0     C27261   9.618   3.020  12.164 -0.4706  1.1940 -1.5050
  923MOL0     C27262   9.491   3.036  12.228 -0.2293  0.2860 -0.3514
  923MOL0     C27263   9.408   2.937  12.275  0.7524 -0.1590  0.9852
  923MOL0     C27264   9.277   2.974  12.346 -0.9562 -0.0592 -0.1805
  923MOL0     C27265   9.455   2.801  12.254  0.9470  0.5237 -0.6049
  923MOL0     C27266   9.389   2.683  12.319  0.8410 -1.1050 -0.1902
  923MOL0     O27267   9.248   2.699  12.337  0.3387 -0.7625  0.6370
  923MOL0     C27268   9.173   2.610  12.408 -0.9338  0.1403  0.4535
  923MOL0     C27269   9.040   2.619  12.388  0.2851 -0.1093  0.2203
  923MOL0     C27270   8.948   2.532  12.444 -0.1987 -0.7742 -0.1812
  923MOL0     C27271   8.992   2.427  12.526  0.2786 -0.1259 -0.1572
  923MOL0     O27272   8.921   2.349  12.611 -0.6431  0.4289  0.0976
  923MOL0     C27273   8.784   2.335  12.604 -0.5747 -0.7780  0.1137
  923MOL0     C27274   8.730   2.264  12.718 -0.1614 -0.3334 -0.4072
  923MOL0     C27275   8.578   2.282  12.733  0.2675 -0.3720 -0.6580
  923MOL0     C27276   8.527   2.316  12.879  0.1392  0.0157 -0.1712
  923MOL0     C27277   8.381   2.372  12.870  0.8896 -1.2079  0.2162
  923MOL0     C27278   8.321   2.387  13.009  0.7605 -0.9167 -0.8431
  923MOL0     C27279   8.175   2.427  13.005 -0.2562 -0.6905  0.5497
  923MOL0     C27280   8.099   2.424  13.157  1.0742 -0.5606  0.4392
  923MOL0    Cl27281   8.081   2.257  13.208  0.3828  0.1631  0.0400
  923MOL0     C27282   9.132   2.416  12.544  1.0884  0.3637 -0.0676
  923MOL0     C27283   9.218   2.498  12.486  0.0921  0.0173  0.4985
  923MOL0     O27284   9.446   2.577  12.336  0.2665  0.1181 -0.3217
  923MOL0     C27285   9.567   2.781  12.176 -0.3062 -0.0957 -0.3336
  923MOL0     C27286   9.653   2.891  12.130 -0.1847  0.3875 -0.4041
  923MOL0     N27287  10.029   3.602  12.075 -1.0562 -0.3271 -0.0283
  923MOL0     N27288  10.117   3.692  12.046  0.1231 -0.0359  0.4695
  923MOL0     C27289   9.556   4.473  11.436 -0.1446  0.0321  0.0935
  923MOL0     C27290   9.435   4.414  11.387 -0.0217 -0.4645 -0.4829
  923MOL0     C27291   9.103   4.068  11.294  0.6791  0.6053  0.8144
  923MOL0     C27292   9.071   3.930  11.305 -0.4388  0.3912  0.4655
  923MOL0     C27293   8.958   3.878  11.238  1.1786 -0.1492 -0.1197
  923MOL0     C27294   8.873   3.961  11.156 -0.4217 -0.2878  0.1239
  923MOL0     O27295   8.755   3.931  11.095  0.2286  0.0706 -0.1285
  923MOL0     C27296   8.722   3.799  11.078 -0.0142  0.5306 -0.4332
  923MOL0     C27297   8.579   3.793  11.041  0.3268 -0.5934  0.2238
  923MOL0     C27298   8.532   3.647  11.043 -0.4524 -0.0256 -0.0274
  923MOL0     C27299   8.377   3.639  11.067  0.1950  0.7129 -0.0249
  923MOL0     C27300   8.312   3.662  10.939  1.1491  0.5997 -1.0406
  923MOL0     C27301   8.246   3.673  10.835 -0.3379 -0.4879  0.4586
  923MOL0     C27302   8.918   4.098  11.137 -0.3384 -0.2326  0.0737
  923MOL0     C27303   9.035   4.151  11.200  0.4205  0.4478 -0.5250
  923MOL0     C27304   9.075   4.283  11.152  0.2424 -0.4876 -0.2933
  923MOL0     H27305   9.502   4.092  11.435  1.6240 -0.4732 -2.1344
  923MOL0     H27306   9.692   4.190  11.551 -2.1978 -1.1297  1.0703
  923MOL0     H27307   9.687   4.579  11.700  0.9279  1.7720  1.3086
  923MOL0     H27308   9.868   4.552  11.703  1.0470 -0.8840 -0.4599
  923MOL0     H27309   9.715   4.455  11.902 -2.9639 -0.0425 -0.7792
  923MOL0     H27310   9.669   4.332  11.787  1.6940 -0.6881 -0.7824
  923MOL0     H27311   9.923   4.273  11.765  0.0038  0.3794  0.6555
  923MOL0     H27312   9.961   4.421  11.857 -0.6363  1.3409 -5.2750
  923MOL0     H27313   9.887   4.347  12.057 -1.2990 -1.9320  2.7947
  923MOL0     H27314   9.801   4.202  11.993 -0.3372  0.1356 -1.5133
  923MOL0     H27315  10.008   4.160  12.123  0.7116  1.9374  1.0530
  923MOL0     H27316  10.101   4.250  12.005 -1.0806  1.1994 -0.9151
  923MOL0     H27317   9.940   3.991  11.944 -1.6574  2.0422  2.8438
  923MOL0     H27318  10.017   4.095  11.822 -1.2793  0.6152  1.3993
  923MOL0     H27319  10.164   3.972  12.053  0.3131  1.4621 -1.2243
  923MOL0     H27320  10.239   4.054  11.923  2.7630 -2.4366  0.3095
  923MOL0     H27321  10.136   3.871  11.756  1.5685 -4.0607 -0.3849
  923MOL0     H27322  10.265   3.831  11.870 -0.3441 -0.7707  3.0812
  923MOL0     H27323   9.904   3.740  11.803 -1.0835 -1.8335  0.8912
  923MOL0     H27324   9.741   3.549  11.897 -0.4513 -2.4701  0.4943
  923MOL0     H27325   9.743   3.549  12.070 -0.6840  1.0660 -1.0705
  923MOL0     H27326   9.727   3.326  11.935 -2.1425 -0.0126  1.0528
  923MOL0     H27327   9.901   3.355  11.889 -0.7836  0.5768 -0.2019
  923MOL0     H27328   9.969   3.289  12.114 -0.4419  1.3047  2.4521
  923MOL0     H27329   9.821   3.349  12.167  0.7152 -0.6748  0.2575
  923MOL0     H27330   9.820   3.084  11.994 -1.5022 -0.2111  0.3811
  923MOL0     H27331   9.882   3.077  12.155 -3.1833 -2.1899  1.1630
  923MOL0     H27332   9.471   3.137  12.262 -1.9230 -1.0777  3.2839
  923MOL0     H27333   9.297   2.954  12.451  1.0340  2.8800  0.1375
  923MOL0     H27334   9.185   2.929  12.307 -1.2107 -0.2203  0.5811
  923MOL0     H27335   9.262   3.082  12.341  1.6829  0.3499 -2.7806
  923MOL0     H27336   9.006   2.701  12.326  0.1107  0.6942  1.3408
  923MOL0     H27337   8.843   2.548  12.422 -0.7061 -1.9063  1.2288
  923MOL0     H27338   8.744   2.436  12.611 -0.2640 -0.5861 -0.7749
  923MOL0     H27339   8.758   2.298  12.504  0.8469 -1.0625 -0.1836
  923MOL0     H27340   8.745   2.156  12.714  0.1684 -0.6369  3.8056
  923MOL0     H27341   8.773   2.293  12.815  3.8456 -0.9049 -1.8141
  923MOL0     H27342   8.518   2.195  12.704  0.0680 -0.1998 -0.7608
  923MOL0     H27343   8.547   2.364  12.668  0.0223 -0.0899 -0.1886
  923MOL0     H27344   8.590   2.399  12.913 -1.8474  1.3211  0.4374
  923MOL0     H27345   8.532   2.232  12.949 -1.2431  0.0591 -0.0064
  923MOL0     H27346   8.384   2.472  12.825 -1.8874 -1.9553 -1.8994
  923MOL0     H27347   8.313   2.306  12.816 -3.2615  2.9491 -0.2831
  923MOL0     H27348   8.378   2.461  13.067  1.1607 -2.7853  1.2626
  923MOL0     H27349   8.344   2.293  13.059 -0.5370 -1.2432 -0.8314
  923MOL0     H27350   8.126   2.367  12.928  0.5982 -1.3995  0.5431
  923MOL0     H27351   8.173   2.531  12.971  2.4062 -1.0508 -0.9905
  923MOL0     H27352   8.002   2.472  13.143  1.2269 -0.8025 -1.7779
  923MOL0     H27353   8.174   2.479  13.215  0.4785  2.1220 -1.1540
  923MOL0     H27354   9.174   2.347  12.616 -3.3499 -1.9542  0.6386
  923MOL0     H27355   9.324   2.486  12.505 -0.1894 -1.1076  1.5180
  923MOL0     H27356   9.600   2.682  12.144 -0.7246 -0.3098 -0.1034
  923MOL0     H27357   9.742   2.868  12.072  0.5871  1.3184  0.3880
  923MOL0     H27358   9.599   4.572  11.438  1.3931 -0.6155  1.0266
  923MOL0     H27359   9.363   4.482  11.342 -0.7745 -2.2733 -2.1943
  923MOL0     H27360   9.150   3.875  11.356  0.2907  2.3184  1.5240
  923MOL0     H27361   8.927   3.774  11.240  0.6937 -0.0047 -0.0005
  923MOL0     H27362   8.765   3.745  10.993  0.5874  1.4512 -0.7267
  923MOL0     H27363   8.743   3.738  11.167  2.4188 -0.1508 -1.3780
  923MOL0     H27364   8.555   3.846  10.948  1.4829  2.3557  1.4904
  923MOL0     H27365   8.532   3.836  11.129  3.4317 -0.5286  1.9805
  923MOL0     H27366   8.564   3.603  10.948 -0.6758  1.4141 -0.7825
  923MOL0     H27367   8.587   3.580  11.110 -0.2765 -2.3541 -2.3537
  923MOL0     H27368   8.369   3.725  11.134  4.0638  0.2859  1.1883
  923MOL0     H27369   8.357   3.551  11.128  2.0474  0.7109  0.6368
  923MOL0     H27370   8.196   3.671  10.741  2.0556 -2.6448 -0.8949
  923MOL0     H27371   8.854   4.157  11.073 -1.8252 -1.5236  0.3034
  923MOL0     H27372   9.100   4.348  11.236 -1.7619  1.6447 -1.2484
  923MOL0     H27373   9.155   4.295  11.079 -1.2843  3.5102 -1.5801
  923MOL0     H27374   8.989   4.330  11.102 -0.0876 -0.3068  0.4277
  924MOL0     O27375   8.711  10.065   8.909 -1.0666 -0.2534  0.1081
  924MOL0     C27376   8.717  10.183   8.863 -0.4496  0.3243 -0.1227
  924MOL0     O27377   8.636  10.277   8.910 -0.2458  0.1928  0.7703
  924MOL0     C27378   8.559  10.236   9.021 -1.0747 -0.8762  0.7249
  924MOL0     C27379   8.611  10.214   9.146 -0.2007 -0.2374 -0.2896
  924MOL0     C27380   8.526  10.161   9.242 -0.2309 -0.2563 -0.3384
  924MOL0     C27381   8.383  10.142   9.216 -1.1721 -0.7363  0.7361
  924MOL0     O27382   8.302  10.118   9.321 -0.0640  0.1324  0.7277
  924MOL0     C27383   8.158  10.145   9.325 -0.7094 -1.0935 -0.3732
  924MOL0     C27384   8.121  10.157   9.474 -0.9602 -0.6666 -0.0077
  924MOL0     C27385   7.975  10.173   9.518  0.3553  0.1269  0.6399
  924MOL0     C27386   7.874  10.083   9.448  0.4990  0.1787 -0.2917
  924MOL0     C27387   7.799   9.978   9.537  0.3024 -0.3905 -0.0332
  924MOL0     C27388   7.685   9.909   9.448 -0.4975  0.7876 -0.2313
  924MOL0     C27389   7.660   9.761   9.492  0.0545  0.1203 -0.3066
  924MOL0     C27390   7.599   9.715   9.621  0.0622 -0.5719  0.1435
  924MOL0     N27391   7.482   9.804   9.660  0.1591 -0.1746 -0.4474
  924MOL0     C27392   7.372   9.820   9.576 -0.5597  0.4162 -0.4946
  924MOL0     C27393   7.289   9.892   9.652  0.0666 -0.0165  0.2442
  924MOL0     C27394   7.161   9.945   9.612 -0.3193 -1.4217  0.1062
  924MOL0     C27395   7.159  10.100   9.585  0.0054  0.4537  0.0925
  924MOL0     C27396   7.037  10.143   9.503  0.3279  0.4456  0.7482
  924MOL0     C27397   7.023  10.298   9.479  0.2669 -0.5408  0.1313
  924MOL0     O27398   6.906  10.343   9.413  0.2934 -0.7278 -0.6263
  924MOL0     C27399   6.908  10.372   9.275 -0.0126  0.3145 -0.4697
  924MOL0     C27400   7.015  10.436   9.220  0.0866 -0.1220  0.1618
  924MOL0     C27401   7.000  10.502   9.095 -0.4669  0.5841  0.5983
  924MOL0     C27402   7.137  10.546   9.034 -0.4058 -0.5815 -0.0799
  924MOL0     C27403   6.864  10.504   9.035  0.1977  0.7004 -0.0797
  924MOL0     C27404   6.838  10.582   8.909 -0.5544  0.3319 -0.2761
  924MOL0     O27405   6.915  10.678   8.876  0.5357 -0.1055  0.0311
  924MOL0     C27406   6.870  10.739   8.757  0.4350 -0.2330  0.9245
  924MOL0     C27407   6.754  10.834   8.741 -0.3095  0.6639  0.0723
  924MOL0     C27408   6.730  10.897   8.611  0.6023  0.3223 -0.6825
  924MOL0     C27409   6.816  10.863   8.506 -0.0875 -0.5363  0.6433
  924MOL0     O27410   6.775  10.921   8.390  0.4100  0.9399 -0.4840
  924MOL0     C27411   6.867  10.917   8.278 -0.0992 -0.1192  0.7876
  924MOL0     C27412   6.820  11.009   8.166 -0.0569 -0.4715 -0.1167
  924MOL0     C27413   6.680  10.992   8.121  0.4850  0.4181  0.8119
  924MOL0     C27414   6.630  11.076   8.001 -0.4295 -0.2202 -0.1482
  924MOL0     C27415   6.502  11.031   7.937  0.0752  0.1021 -0.9897
  924MOL0     C27416   6.474  11.104   7.803  0.0357 -0.9611  0.0045
  924MOL0     C27417   6.329  11.096   7.748  0.9300  0.4368 -0.1538
  924MOL0     C27418   6.287  10.953   7.715  0.4710 -0.0189 -0.0908
  924MOL0    Cl27419   6.229  10.858   7.851 -0.4028 -0.4213 -0.2064
  924MOL0     C27420   6.927  10.785   8.521  0.2966 -1.3760  0.3869
  924MOL0     C27421   6.955  10.732   8.645 -0.0328  0.1918  0.7321
  924MOL0     O27422   6.744  10.529   8.841 -0.0341  0.2029 -0.7599
  924MOL0     C27423   6.765  10.432   9.090 -0.6496  0.3502 -0.8309
  924MOL0     C27424   6.788  10.364   9.211 -0.4539  0.3317  0.4812
  924MOL0     N27425   7.351   9.932   9.771  0.8029 -0.0869  0.2924
  924MOL0     N27426   7.463   9.868   9.775  0.8533 -0.1297 -0.1709
  924MOL0     C27427   8.335  10.173   9.086 -0.2189 -1.8000 -0.1221
  924MOL0     C27428   8.424  10.225   8.993 -0.0232  0.2517 -0.4655
  924MOL0     C27429   8.817  10.200   8.758  0.1538  0.2120  0.9361
  924MOL0     C27430   8.907  10.098   8.728 -0.3367 -0.5730  0.2016
  924MOL0     C27431   9.007  10.100   8.634  0.4443 -0.1097 -0.0092
  924MOL0     C27432   9.021  10.215   8.560  0.2715 -0.4579 -0.0811
  924MOL0     O27433   9.113  10.241   8.458 -0.4241  0.0815 -0.9744
  924MOL0     C27434   9.190  10.121   8.418  0.2396 -0.1486  0.1212
  924MOL0     C27435   9.256  10.150   8.283 -0.8899 -0.8706  0.3632
  924MOL0     C27436   9.368  10.051   8.269  0.4209  0.3007  0.3696
  924MOL0     C27437   9.453  10.069   8.146 -0.6175  0.4277  0.0409
  924MOL0     C27438   9.387  10.033   8.015  0.0758  0.7355 -0.3269
  924MOL0     C27439   9.346   9.987   7.909 -0.1496  0.2383 -0.4745
  924MOL0     C27440   8.931  10.319   8.583  0.4221  0.4592  0.4810
  924MOL0     C27441   8.832  10.316   8.683 -0.7905  0.0247  0.2076
  924MOL0     C27442   8.743  10.438   8.691 -0.3366 -0.3022  0.1256
  924MOL0     H27443   8.712  10.242   9.174 -0.8241  0.0693  1.7771
  924MOL0     H27444   8.554  10.148   9.346  0.7558  3.6267  0.0210
  924MOL0     H27445   8.113  10.061   9.271 -0.8137 -0.7450 -0.8384
  924MOL0     H27446   8.139  10.246   9.287 -0.1368  1.0009  4.3093
  924MOL0     H27447   8.156  10.070   9.530  1.3278  0.8607  1.0383
  924MOL0     H27448   8.179  10.236   9.521  0.5430 -0.0903 -2.6136
  924MOL0     H27449   7.969  10.161   9.626  5.3594  2.1264  1.3941
  924MOL0     H27450   7.944  10.274   9.491  0.2743 -0.5111 -1.9745
  924MOL0     H27451   7.805  10.155   9.402  0.2636  1.1504  1.5194
  924MOL0     H27452   7.929  10.033   9.367  1.1940  0.1173  0.2182
  924MOL0     H27453   7.755  10.026   9.625  1.1213  0.9396 -0.3172
  924MOL0     H27454   7.857   9.896   9.581  0.3550 -0.3883 -0.0961
  924MOL0     H27455   7.594   9.969   9.442 -1.1052 -0.1400 -0.4874
  924MOL0     H27456   7.732   9.900   9.349 -0.5809 -1.1983 -0.1292
  924MOL0     H27457   7.756   9.708   9.496 -0.0295  0.0243  0.9920
  924MOL0     H27458   7.592   9.729   9.412 -0.2328 -1.2565  0.4571
  924MOL0     H27459   7.547   9.620   9.611 -2.2401  0.6582 -0.4029
  924MOL0     H27460   7.671   9.705   9.703 -1.0907 -3.7543  0.8884
  924MOL0     H27461   7.347   9.800   9.473 -0.8938  0.0859 -0.3485
  924MOL0     H27462   7.088   9.916   9.688  1.8102 -2.9346  1.6677
  924MOL0     H27463   7.132   9.891   9.522 -4.3110 -1.4434  1.2292
  924MOL0     H27464   7.162  10.154   9.680 -0.3430  0.1410  0.2808
  924MOL0     H27465   7.253  10.125   9.534  1.0313 -1.7059  0.7911
  924MOL0     H27466   7.054  10.096   9.406  0.0555  2.6575 -0.4599
  924MOL0     H27467   6.943  10.110   9.548  1.3442 -1.1351  1.7708
  924MOL0     H27468   7.013  10.334   9.582  4.1951 -0.1022  0.5086
  924MOL0     H27469   7.120  10.332   9.442 -0.1116 -0.2681 -0.6499
  924MOL0     H27470   7.108  10.435   9.276  0.2787 -0.5441 -0.1489
  924MOL0     H27471   7.134  10.632   8.967 -1.9119  0.5969  1.4126
  924MOL0     H27472   7.191  10.459   8.995 -0.8433 -1.3959  1.0771
  924MOL0     H27473   7.195  10.586   9.118 -3.0380  4.4274 -0.2696
  924MOL0     H27474   6.684  10.846   8.823 -0.1183 -0.8264  0.4736
  924MOL0     H27475   6.636  10.948   8.591  1.3285  0.9952 -2.6683
  924MOL0     H27476   6.969  10.936   8.311  0.2988 -1.2020  0.2329
  924MOL0     H27477   6.858  10.815   8.239  1.7573 -0.2938  0.7718
  924MOL0     H27478   6.831  11.109   8.209 -0.3881 -0.2314 -0.5843
  924MOL0     H27479   6.884  11.000   8.078 -1.2726 -3.2213 -0.8297
  924MOL0     H27480   6.621  11.028   8.207 -3.1121 -0.9838 -0.8681
  924MOL0     H27481   6.652  10.887   8.114  1.8540 -0.0586  2.0131
  924MOL0     H27482   6.708  11.064   7.925 -2.5649  1.2146 -2.7462
  924MOL0     H27483   6.630  11.182   8.028  0.8117 -0.6794  1.8989
  924MOL0     H27484   6.492  10.923   7.928  2.6748 -0.0737 -2.9080
  924MOL0     H27485   6.430  11.077   8.006 -1.7442  4.9713 -5.4812
  924MOL0     H27486   6.555  11.093   7.730  0.4336  0.6293  0.1731
  924MOL0     H27487   6.479  11.210   7.829 -1.4338 -0.1032 -2.7661
  924MOL0     H27488   6.324  11.157   7.657 -1.2474  1.0882  0.3434
  924MOL0     H27489   6.254  11.141   7.814 -0.3537 -1.5329 -0.1860
  924MOL0     H27490   6.377  10.902   7.679  1.4921  2.3900 -1.2058
  924MOL0     H27491   6.207  10.953   7.641 -1.9479 -1.7403  2.3453
  924MOL0     H27492   6.986  10.761   8.433  1.0274  1.6178 -0.0645
  924MOL0     H27493   7.039  10.664   8.655 -1.1673 -1.2127  0.9702
  924MOL0     H27494   6.667  10.429   9.043 -0.0398 -3.7168 -2.2910
  924MOL0     H27495   6.702  10.318   9.258  0.9863 -2.4173  0.6446
  924MOL0     H27496   8.232  10.179   9.053 -0.0196 -1.2260 -0.6730
  924MOL0     H27497   8.375  10.254   8.901 -0.7555  0.9196  0.1174
  924MOL0     H27498   8.913  10.004   8.782 -1.0986 -1.3024 -0.9380
  924MOL0     H27499   9.073  10.015   8.622  0.6096  0.0868 -0.4869
  924MOL0     H27500   9.272  10.097   8.487 -0.1157 -1.2388  0.1926
  924MOL0     H27501   9.121  10.036   8.409 -0.6160  0.7659 -3.0637
  924MOL0     H27502   9.307  10.247   8.285  0.6427 -1.6655  1.3452
  924MOL0     H27503   9.189  10.140   8.197 -1.1797 -2.5778  0.7546
  924MOL0     H27504   9.428  10.058   8.360  0.9136  1.7054 -0.0377
  924MOL0     H27505   9.317   9.954   8.259  2.1324 -0.6706  0.4968
  924MOL0     H27506   9.546  10.012   8.160 -0.1975  1.3348  1.1808
  924MOL0     H27507   9.487  10.173   8.145 -0.1416  0.2789 -0.8553
  924MOL0     H27508   9.320   9.946   7.814 -2.0458 -0.8768  0.4653
  924MOL0     H27509   8.949  10.405   8.520  2.8488 -0.7773 -0.6461
  924MOL0     H27510   8.644  10.421   8.648 -0.5508 -0.9111  0.8439
  924MOL0     H27511   8.752  10.467   8.796  2.9261 -0.5889  0.0466
  924MOL0     H27512   8.789  10.523   8.639  1.8490 -1.3263  0.2684
  925MOL0     O27513   8.963   7.634  10.858 -0.1070  0.1339  0.1318
  925MOL0     C27514   8.975   7.746  10.819  0.4853 -0.0466 -0.0128
  925MOL0     O27515   8.877   7.838  10.817  0.1206  0.3489 -0.0289
  925MOL0     C27516   8.784   7.829  10.911  0.4947 -1.0277  0.1895
  925MOL0     C27517   8.646   7.838  10.873 -0.5396  0.7313  0.1457
  925MOL0     C27518   8.543   7.829  10.969  0.2658 -0.6629 -0.1294
  925MOL0     C27519   8.573   7.803  11.106  0.0947  0.0776 -0.1150
  925MOL0     O27520   8.482   7.804  11.210 -0.1774 -0.3342 -0.3124
  925MOL0     C27521   8.349   7.753  11.173  0.5212  1.0215  0.1742
  925MOL0     C27522   8.287   7.706  11.296  1.1125 -0.7796  0.0868
  925MOL0     C27523   8.130   7.703  11.267  0.0403 -0.0374  0.0624
  925MOL0     C27524   8.048   7.657  11.393  0.0188 -0.3813  0.1311
  925MOL0     C27525   8.065   7.507  11.432  0.4846  0.0924  0.6553
  925MOL0     C27526   7.969   7.452  11.523  0.0847 -0.0002 -0.8297
  925MOL0     C27527   8.004   7.315  11.577  0.1059 -0.4978 -0.1241
  925MOL0     C27528   7.867   7.253  11.623 -0.5135 -0.7208  0.1064
  925MOL0     N27529   7.886   7.125  11.692 -0.5291  0.2025  0.4808
  925MOL0     C27530   7.906   7.008  11.615  0.4833  0.0547  0.7922
  925MOL0     C27531   7.961   6.922  11.700 -0.0906  0.3335 -0.3926
  925MOL0     C27532   7.990   6.776  11.662  0.7681  0.1492 -0.5370
  925MOL0     C27533   7.848   6.710  11.667  0.3086  1.0707  0.3770
  925MOL0     C27534   7.846   6.567  11.626  0.0467  0.1845  1.0324
  925MOL0     C27535   7.775   6.487  11.723 -0.0430 -0.0153 -0.0515
  925MOL0     O27536   7.870   6.456  11.830  0.8388  0.8574 -0.1113
  925MOL0     C27537   7.828   6.399  11.948  0.3395  0.6641  0.4442
  925MOL0     C27538   7.694   6.381  11.980  0.0050  0.2812  0.6533
  925MOL0     C27539   7.652   6.317  12.102  0.2617 -0.3227 -0.1772
  925MOL0     C27540   7.507   6.300  12.127 -0.2626  0.0331 -0.0030
  925MOL0     C27541   7.752   6.262  12.193  1.0216 -0.4088  0.0678
  925MOL0     C27542   7.731   6.185  12.311  0.4801  0.2582  0.3729
  925MOL0     O27543   7.802   6.220  12.421 -0.3918 -0.5451 -0.6504
  925MOL0     C27544   7.833   6.122  12.507  0.0414  0.0181  0.6976
  925MOL0     C27545   7.862   5.990  12.458  0.7009  0.2402  0.0678
  925MOL0     C27546   7.906   5.897  12.547 -0.9396  0.3515  0.0495
  925MOL0     C27547   7.930   5.923  12.685  0.4520 -0.2359  0.2865
  925MOL0     O27548   7.971   5.814  12.765 -0.3917  0.1594 -0.8301
  925MOL0     C27549   8.021   5.850  12.900  0.8937 -0.1823  0.5942
  925MOL0     C27550   8.046   5.717  12.971 -0.4840  0.5044  0.0001
  925MOL0     C27551   8.111   5.720  13.107  0.0186 -0.5830 -0.9302
  925MOL0     C27552   8.133   5.578  13.166 -0.2572 -0.1703 -0.2195
  925MOL0     C27553   8.178   5.592  13.316 -0.0505 -0.0386  1.3280
  925MOL0     C27554   8.063   5.601  13.407  0.0763 -0.0684 -0.8409
  925MOL0     C27555   7.993   5.461  13.436 -0.6899  1.0205 -0.2823
  925MOL0     C27556   7.856   5.493  13.499 -0.3427  0.2253  0.1514
  925MOL0    Cl27557   7.858   5.572  13.653 -0.3461 -0.0351  0.7550
  925MOL0     C27558   7.897   6.049  12.736  0.8261 -0.1165  0.6170
  925MOL0     C27559   7.853   6.147  12.644  0.6433 -0.0999 -0.3169
  925MOL0     O27560   7.652   6.094  12.296  0.6872  0.1452 -0.6629
  925MOL0     C27561   7.887   6.282  12.154  0.0156 -0.0727 -0.0662
  925MOL0     C27562   7.923   6.347  12.035 -1.3634  0.3240 -0.5900
  925MOL0     N27563   7.961   6.971  11.824  0.6879  0.3616 -0.1002
  925MOL0     N27564   7.940   7.097  11.811  0.1152  0.3836  1.0811
  925MOL0     C27565   8.714   7.786  11.138  0.3937  0.1794 -0.2402
  925MOL0     C27566   8.808   7.807  11.042 -0.5602 -0.0282 -0.4573
  925MOL0     C27567   9.103   7.787  10.746  0.3013  0.4327 -0.3185
  925MOL0     C27568   9.104   7.885  10.647  0.4472 -0.1878  0.6627
  925MOL0     C27569   9.219   7.960  10.601  0.1771  0.6572  0.0671
  925MOL0     C27570   9.345   7.925  10.648 -0.1096 -0.2031 -0.0912
  925MOL0     O27571   9.457   7.991  10.598 -0.0236  0.2402 -0.5524
  925MOL0     C27572   9.584   7.984  10.676 -0.0559 -0.2120 -0.0131
  925MOL0     C27573   9.572   8.065  10.808 -0.0777 -0.2162  0.6318
  925MOL0     C27574   9.706   8.072  10.881  0.0716  0.4793 -0.5012
  925MOL0     C27575   9.708   7.965  10.993  0.4316  0.6841  0.0680
  925MOL0     C27576   9.723   7.823  10.942 -0.4515  0.7478 -0.6718
  925MOL0     C27577   9.726   7.702  10.918 -0.4257  0.3161 -0.0183
  925MOL0     C27578   9.341   7.812  10.735 -0.7605 -0.2866  0.3165
  925MOL0     C27579   9.231   7.747  10.793  0.2053 -0.3256 -0.2330
  925MOL0     C27580   9.266   7.651  10.906 -0.2742  0.1660  0.7190
  925MOL0     H27581   8.625   7.852  10.767  0.1813 -1.7331 -0.3947
  925MOL0     H27582   8.440   7.843  10.937  0.5648  1.0985 -0.3853
  925MOL0     H27583   8.363   7.662  11.113 -0.1663  1.6078 -0.9029
  925MOL0     H27584   8.278   7.821  11.126 -1.3881 -1.8393 -1.3836
  925MOL0     H27585   8.336   7.618  11.338  3.8077 -0.4887 -2.1158
  925MOL0     H27586   8.311   7.778  11.375  3.1651 -0.8625 -0.3986
  925MOL0     H27587   8.088   7.797  11.231  0.3943  0.4566  0.9166
  925MOL0     H27588   8.109   7.630  11.187 -1.5951  1.4449 -0.9369
  925MOL0     H27589   8.098   7.722  11.466  2.2310 -0.8433 -0.8950
  925MOL0     H27590   7.946   7.695  11.387  0.8551  2.6431  2.4483
  925MOL0     H27591   8.162   7.491  11.480  0.8490 -2.1470 -0.6561
  925MOL0     H27592   8.069   7.449  11.340 -0.2405  0.2466  0.5229
  925MOL0     H27593   7.943   7.511  11.611  2.7809 -2.6123  1.9714
  925MOL0     H27594   7.866   7.444  11.489  0.2118 -1.0448 -1.0071
  925MOL0     H27595   8.070   7.326  11.664  0.3947  3.3415 -0.6308
  925MOL0     H27596   8.058   7.243  11.516  3.4245  0.1292  1.7752
  925MOL0     H27597   7.807   7.311  11.694 -4.6488 -2.0684 -1.9849
  925MOL0     H27598   7.803   7.240  11.535  0.8173 -1.0075 -0.8513
  925MOL0     H27599   7.895   6.997  11.507 -3.2102 -3.5945  1.2930
  925MOL0     H27600   8.052   6.726  11.737 -1.1362  3.1272  3.3778
  925MOL0     H27601   8.033   6.779  11.561 -0.3213 -0.6743 -1.0446
  925MOL0     H27602   7.813   6.721  11.770 -0.6856 -1.9342  0.4434
  925MOL0     H27603   7.774   6.758  11.602 -0.5891 -1.4795 -0.5719
  925MOL0     H27604   7.785   6.566  11.536 -0.1344 -0.7844  1.1499
  925MOL0     H27605   7.948   6.528  11.610  0.3676  0.2808  2.5940
  925MOL0     H27606   7.690   6.545  11.760 -1.6266 -1.6013 -1.0298
  925MOL0     H27607   7.728   6.398  11.681 -0.6465 -1.3018  3.0707
  925MOL0     H27608   7.619   6.419  11.912  1.1665 -2.1913 -2.2487
  925MOL0     H27609   7.452   6.338  12.041  0.4641  0.5771 -0.2415
  925MOL0     H27610   7.474   6.371  12.203 -0.3666 -0.6241  0.5782
  925MOL0     H27611   7.466   6.199  12.142 -1.7292  0.9950  3.4972
  925MOL0     H27612   7.838   5.954  12.359 -0.3731  2.0014 -0.3685
  925MOL0     H27613   7.920   5.795  12.513 -0.4117  0.2374  0.5869
  925MOL0     H27614   8.109   5.915  12.901  1.3134 -0.5614  4.3911
  925MOL0     H27615   7.936   5.896  12.952 -2.5502 -1.1710 -3.5705
  925MOL0     H27616   7.950   5.664  12.967 -2.2317  3.4228  0.6351
  925MOL0     H27617   8.116   5.666  12.904 -0.5656 -0.7272  0.8269
  925MOL0     H27618   8.054   5.792  13.166  2.6263  1.4620 -0.7140
  925MOL0     H27619   8.208   5.767  13.087  0.6735 -1.6543 -0.3330
  925MOL0     H27620   8.212   5.520  13.118 -0.7402 -0.1111 -1.1029
  925MOL0     H27621   8.038   5.524  13.155  1.1751 -2.4565 -2.4495
  925MOL0     H27622   8.243   5.509  13.343  0.1336 -0.3880 -0.1181
  925MOL0     H27623   8.247   5.676  13.310 -1.1058  0.7447 -1.1393
  925MOL0     H27624   7.994   5.676  13.368  0.8484 -0.9310 -4.1170
  925MOL0     H27625   8.102   5.639  13.502  0.5136  1.3055 -1.5498
  925MOL0     H27626   8.062   5.406  13.502  1.0550  1.2056 -1.8638
  925MOL0     H27627   7.977   5.401  13.346 -0.6220 -0.4369  0.6552
  925MOL0     H27628   7.820   5.392  13.520  4.3865 -1.0891  3.3797
  925MOL0     H27629   7.796   5.549  13.426  0.0037  3.7707  2.3111
  925MOL0     H27630   7.894   6.081  12.840 -3.4892 -1.3362  1.0606
  925MOL0     H27631   7.819   6.241  12.684 -2.7467 -1.0347 -0.6270
  925MOL0     H27632   7.968   6.248  12.218  0.4861  0.1365 -0.5429
  925MOL0     H27633   8.029   6.346  12.010 -1.2081 -2.0764 -0.0591
  925MOL0     H27634   8.749   7.774  11.240  3.6105 -0.7495 -1.3531
  925MOL0     H27635   8.909   7.793  11.081  0.4918  1.2682 -2.4915
  925MOL0     H27636   9.012   7.924  10.604  1.4211  1.8596  0.3065
  925MOL0     H27637   9.203   8.046  10.538 -3.3693  0.8329  0.9873
  925MOL0     H27638   9.597   7.876  10.685 -0.7845 -0.2692  0.4176
  925MOL0     H27639   9.668   8.029  10.621  1.3088  1.5006  3.1982
  925MOL0     H27640   9.503   8.004  10.867  1.1327 -0.9748  1.3105
  925MOL0     H27641   9.528   8.163  10.788 -0.7019 -0.9736 -2.2896
  925MOL0     H27642   9.796   8.061  10.820  2.0706 -0.1751  2.3126
  925MOL0     H27643   9.718   8.165  10.936 -0.1641 -0.7174  1.7171
  925MOL0     H27644   9.620   7.982  11.056  0.7246  2.3034  0.0678
  925MOL0     H27645   9.796   7.976  11.058  1.6870 -4.1917 -0.4122
  925MOL0     H27646   9.734   7.597  10.899 -1.9306  0.4072 -1.4577
  925MOL0     H27647   9.436   7.768  10.765 -0.6271 -0.1388  0.1171
  925MOL0     H27648   9.332   7.699  10.978 -0.6139 -2.4092  2.9133
  925MOL0     H27649   9.179   7.618  10.965  1.8672 -0.2455  3.8672
  925MOL0     H27650   9.333   7.573  10.871  1.7852  0.3165  3.9201
  926MOL0     O27651   2.402   4.143  10.295  1.0170  0.7616  0.7714
  926MOL0     C27652   2.323   4.221  10.348  0.1439 -0.3347 -0.5521
  926MOL0     O27653   2.350   4.354  10.373 -0.1141 -0.1684 -0.5504
  926MOL0     C27654   2.445   4.418  10.301  0.2637  0.0288 -0.5698
  926MOL0     C27655   2.414   4.449  10.169  0.0862  0.6520  0.2868
  926MOL0     C27656   2.505   4.521  10.090 -0.3893 -0.0213  0.3426
  926MOL0     C27657   2.624   4.577  10.140 -0.7183  0.2071 -0.6646
  926MOL0     O27658   2.716   4.647  10.069  0.4475 -0.0394 -0.3050
  926MOL0     C27659   2.711   4.648   9.922  0.1916  0.7581 -0.1349
  926MOL0     C27660   2.816   4.551   9.883 -0.4281 -0.2234 -0.0235
  926MOL0     C27661   2.844   4.530   9.738 -0.3700 -0.5207 -0.1866
  926MOL0     C27662   2.898   4.667   9.669  0.1700  0.5197 -1.2874
  926MOL0     C27663   2.954   4.643   9.525  0.5263 -0.2318  0.4674
  926MOL0     C27664   3.023   4.770   9.485  0.3093 -0.3032 -1.2418
  926MOL0     C27665   3.034   4.779   9.331  0.3776  0.7001 -0.0048
  926MOL0     C27666   3.139   4.892   9.301 -0.0760  1.1047  0.1741
  926MOL0     N27667   3.173   4.898   9.157  0.4138 -0.6169 -1.0032
  926MOL0     C27668   3.261   4.975   9.089 -0.1083  0.3737 -0.1636
  926MOL0     C27669   3.267   4.925   8.959  0.5085 -0.5575 -0.4456
  926MOL0     C27670   3.360   4.972   8.844 -0.2136 -0.5358  0.2211
  926MOL0     C27671   3.389   4.873   8.729  0.1501 -0.0545  0.3932
  926MOL0     C27672   3.435   4.960   8.609  0.1478 -0.4001 -0.0452
  926MOL0     C27673   3.572   5.010   8.615 -0.7745  0.5739  0.1572
  926MOL0     O27674   3.667   4.910   8.579  0.6189  0.1446 -0.0909
  926MOL0     C27675   3.806   4.920   8.587  0.8024  0.2906 -0.2244
  926MOL0     C27676   3.887   4.808   8.597 -0.7749  0.8478  1.1056
  926MOL0     C27677   4.027   4.817   8.607  0.6212  0.6315 -0.5449
  926MOL0     C27678   4.107   4.690   8.628 -0.4647 -0.1260  0.1542
  926MOL0     C27679   4.085   4.943   8.599  0.0594  0.0252 -0.4190
  926MOL0     C27680   4.226   4.969   8.616 -0.4531 -0.1888  0.4134
  926MOL0     O27681   4.288   5.029   8.516 -1.1033  0.5784 -0.3424
  926MOL0     C27682   4.428   5.030   8.519 -1.5063 -0.7446 -0.4251
  926MOL0     C27683   4.505   4.915   8.550  0.5684 -0.3888 -0.4643
  926MOL0     C27684   4.644   4.920   8.526 -0.0178 -0.2117  0.5567
  926MOL0     C27685   4.707   5.040   8.489 -0.3646 -0.4463 -0.6738
  926MOL0     O27686   4.851   5.049   8.479 -0.4193 -0.0736 -1.2909
  926MOL0     C27687   4.929   4.955   8.555 -0.7142 -0.2221 -0.0220
  926MOL0     C27688   5.082   4.981   8.535  0.2345  0.6480 -0.3402
  926MOL0     C27689   5.120   4.989   8.387  0.6674  0.3741 -0.5794
  926MOL0     C27690   5.266   5.022   8.372  0.3986  1.3483  0.4017
  926MOL0     C27691   5.300   5.160   8.425  0.5691  0.2435 -0.3397
  926MOL0     C27692   5.417   5.215   8.355  0.2587  0.1055 -0.0008
  926MOL0     C27693   5.459   5.346   8.414  0.6170 -0.3174  0.9853
  926MOL0     C27694   5.558   5.414   8.318 -0.1362  0.3628 -0.5377
  926MOL0    Cl27695   5.702   5.305   8.339 -0.0764  0.3504  0.5555
  926MOL0     C27696   4.633   5.153   8.462 -0.9977 -0.5706 -0.1314
  926MOL0     C27697   4.491   5.147   8.473 -0.0469  0.6735  0.1473
  926MOL0     O27698   4.274   4.925   8.721 -0.2101  0.2369  0.2772
  926MOL0     C27699   4.002   5.053   8.578  0.3196 -0.2304  0.5254
  926MOL0     C27700   3.861   5.047   8.569  0.2663  0.3358  0.2193
  926MOL0     N27701   3.175   4.828   8.947 -0.1243 -0.7737  0.7841
  926MOL0     N27702   3.112   4.817   9.061 -0.6485  0.3806 -0.1615
  926MOL0     C27703   2.648   4.556  10.282  0.4282  0.1496  0.0610
  926MOL0     C27704   2.555   4.480  10.365 -0.8760 -0.1508  0.4907
  926MOL0     C27705   2.190   4.169  10.396  0.2777 -0.6502  0.1741
  926MOL0     C27706   2.176   4.030  10.404  0.3397 -0.3989 -0.1265
  926MOL0     C27707   2.053   3.968  10.442  0.3845  0.0172  0.9399
  926MOL0     C27708   1.941   4.040  10.475 -0.2487 -0.3718  0.1506
  926MOL0     O27709   1.822   3.987  10.500 -0.3630 -0.5688  0.9904
  926MOL0     C27710   1.822   3.858  10.553 -0.1363  1.2505  0.4962
  926MOL0     C27711   1.677   3.841  10.607 -0.4265  0.7160  0.2107
  926MOL0     C27712   1.630   3.702  10.639 -0.4007  0.4650  0.0634
  926MOL0     C27713   1.696   3.651  10.776 -0.0464  0.0852 -0.1816
  926MOL0     C27714   1.661   3.739  10.888 -0.7722 -0.0425 -0.2106
  926MOL0     C27715   1.653   3.816  10.983  0.5313  0.6409  0.2613
  926MOL0     C27716   1.964   4.182  10.468 -0.6962 -0.0736 -0.2051
  926MOL0     C27717   2.083   4.245  10.429  0.1756 -0.8212 -0.5788
  926MOL0     C27718   2.073   4.390  10.437 -0.1989 -0.7101  0.4000
  926MOL0     H27719   2.322   4.411  10.126 -0.7340  1.7568  1.0111
  926MOL0     H27720   2.470   4.549   9.991 -0.6208  2.7600  1.1312
  926MOL0     H27721   2.745   4.742   9.877 -1.3754  0.1243 -2.7851
  926MOL0     H27722   2.614   4.628   9.876 -0.0271 -1.9687  1.3478
  926MOL0     H27723   2.913   4.575   9.927  0.8429 -4.9003  0.2881
  926MOL0     H27724   2.777   4.459   9.929  1.4544  0.5775  3.5394
  926MOL0     H27725   2.931   4.466   9.722  0.8126  1.5356 -2.7774
  926MOL0     H27726   2.750   4.497   9.692  0.0432  0.7688 -2.0568
  926MOL0     H27727   2.819   4.741   9.659 -0.0315  0.9734  2.2026
  926MOL0     H27728   2.969   4.721   9.733 -0.4776  2.0004 -1.7839
  926MOL0     H27729   2.863   4.622   9.468  0.8790  0.0854 -0.2300
  926MOL0     H27730   3.027   4.561   9.518 -0.2360 -0.7924 -1.9161
  926MOL0     H27731   2.957   4.852   9.517  0.3033 -0.8306  0.1773
  926MOL0     H27732   3.120   4.782   9.534  0.0206  3.1672 -1.2394
  926MOL0     H27733   2.944   4.784   9.269 -0.3235 -1.1647  0.7831
  926MOL0     H27734   3.082   4.684   9.307  2.6010  0.9830  2.6951
  926MOL0     H27735   3.107   4.989   9.342  0.5007  1.0848  0.6861
  926MOL0     H27736   3.233   4.872   9.354 -0.0392  0.1770 -0.2324
  926MOL0     H27737   3.332   5.052   9.119 -4.6275  4.7861  0.4990
  926MOL0     H27738   3.463   4.987   8.879 -0.6364  1.6855  0.6452
  926MOL0     H27739   3.315   5.068   8.820  0.7591 -0.0583  0.2510
  926MOL0     H27740   3.459   4.792   8.751 -0.2847 -0.8047 -0.8908
  926MOL0     H27741   3.292   4.827   8.709  0.7872 -0.1904 -2.9150
  926MOL0     H27742   3.426   4.904   8.516 -0.3027  0.3747 -0.4818
  926MOL0     H27743   3.359   5.039   8.603  1.7534  1.0409 -3.4348
  926MOL0     H27744   3.584   5.077   8.529 -2.1671 -0.8466 -1.2433
  926MOL0     H27745   3.597   5.063   8.707  0.5014  0.0743  0.1175
  926MOL0     H27746   3.847   4.707   8.603  0.5352 -0.0606 -2.6325
  926MOL0     H27747   4.101   4.677   8.736  1.6240 -0.3483  0.2857
  926MOL0     H27748   4.209   4.689   8.588 -0.0888 -0.4369  1.0926
  926MOL0     H27749   4.056   4.605   8.580  2.4838 -2.3763  0.7168
  926MOL0     H27750   4.443   4.829   8.572 -3.4870  2.4926  0.5628
  926MOL0     H27751   4.697   4.829   8.552 -2.9147 -1.4553  2.6377
  926MOL0     H27752   4.892   4.979   8.655 -1.5006 -2.3009  0.2317
  926MOL0     H27753   4.905   4.853   8.526 -0.6678 -0.2613  0.0758
  926MOL0     H27754   5.108   5.070   8.593  0.8920  0.2856 -0.0761
  926MOL0     H27755   5.136   4.894   8.573 -1.9860 -0.9428 -0.6184
  926MOL0     H27756   5.062   5.071   8.344  0.6648  1.6374  1.6617
  926MOL0     H27757   5.102   4.892   8.340 -0.4198  1.5430 -2.7423
  926MOL0     H27758   5.295   5.015   8.267  0.8145  3.2807  0.3488
  926MOL0     H27759   5.319   4.945   8.430 -2.9057 -1.1148  0.4266
  926MOL0     H27760   5.220   5.228   8.396 -2.3901 -2.6948  0.3157
  926MOL0     H27761   5.301   5.167   8.534 -1.5027 -1.5815 -0.1255
  926MOL0     H27762   5.383   5.226   8.252  0.5834  3.1749  0.1045
  926MOL0     H27763   5.500   5.144   8.353  0.4529  0.3388 -2.1531
  926MOL0     H27764   5.510   5.345   8.510  0.7653  0.8936  0.9333
  926MOL0     H27765   5.380   5.422   8.416  2.2163  1.6296 -1.7302
  926MOL0     H27766   5.567   5.519   8.349 -0.5873 -0.0040  0.9148
  926MOL0     H27767   5.523   5.402   8.215  0.6404 -0.5083 -0.7089
  926MOL0     H27768   4.684   5.238   8.419 -2.0968  2.3872  3.8003
  926MOL0     H27769   4.434   5.236   8.448  2.4126  2.0779 -0.8078
  926MOL0     H27770   4.048   5.151   8.583 -0.5437  0.1389  1.6296
  926MOL0     H27771   3.809   5.142   8.564  5.3186  3.5265  0.9527
  926MOL0     H27772   2.737   4.595  10.330  0.6316  1.9640 -1.6479
  926MOL0     H27773   2.561   4.470  10.472 -2.7853  0.8444  0.7232
  926MOL0     H27774   2.257   3.959  10.394  0.5874 -0.4469  1.8268
  926MOL0     H27775   2.051   3.860  10.440  0.7196 -0.0332  2.1722
  926MOL0     H27776   1.816   3.782  10.475 -0.4411  0.1400  1.5645
  926MOL0     H27777   1.902   3.839  10.626 -0.4564 -3.0878 -0.0071
  926MOL0     H27778   1.610   3.871  10.526  1.2354  0.1553 -1.4546
  926MOL0     H27779   1.670   3.906  10.694  1.1337 -1.4598  2.0736
  926MOL0     H27780   1.521   3.698  10.637 -0.3868  0.0591 -1.6714
  926MOL0     H27781   1.669   3.645  10.554 -2.0990  1.2644 -1.3036
  926MOL0     H27782   1.804   3.638  10.759 -0.5743 -1.1504 -3.4188
  926MOL0     H27783   1.674   3.545  10.793  2.9891 -1.9741 -6.0272
  926MOL0     H27784   1.633   3.869  11.074 -0.0022  0.7329  0.0911
  926MOL0     H27785   1.881   4.245  10.498 -0.6109 -0.8752  1.8712
  926MOL0     H27786   2.120   4.431  10.347  5.1527 -3.5167  1.5506
  926MOL0     H27787   1.972   4.429  10.452  1.0650  2.5202  1.5616
  926MOL0     H27788   2.141   4.425  10.516  1.3224  2.1075 -1.9340
  927MOL0     O27789   2.657   0.960   3.803 -0.6850 -0.1102 -0.6163
  927MOL0     C27790   2.571   1.038   3.849  0.0986  0.2188 -0.3958
  927MOL0     O27791   2.484   1.112   3.765 -0.2718  0.5530 -0.3913
  927MOL0     C27792   2.486   1.079   3.629  0.2627  0.1332 -0.9692
  927MOL0     C27793   2.554   1.157   3.541 -0.9926 -0.0534 -0.6770
  927MOL0     C27794   2.557   1.129   3.405 -0.1076 -0.2314  1.1432
  927MOL0     C27795   2.497   1.015   3.356 -0.4924  0.3492  0.7407
  927MOL0     O27796   2.482   0.989   3.225 -0.2154  0.8406  0.1106
  927MOL0     C27797   2.607   0.956   3.156  0.6109  0.0967 -0.5635
  927MOL0     C27798   2.573   0.885   3.027 -0.5506 -0.3146  0.4861
  927MOL0     C27799   2.531   0.736   3.041  0.9281  0.4216 -0.3487
  927MOL0     C27800   2.647   0.643   3.071  0.1258  0.4896 -0.0826
  927MOL0     C27801   2.625   0.501   3.030 -0.3388 -0.1779 -0.3967
  927MOL0     C27802   2.664   0.469   2.890  0.7861  0.7316  0.0340
  927MOL0     C27803   2.635   0.322   2.851  0.1254  0.7012  0.4299
  927MOL0     C27804   2.676   0.279   2.708  0.1574 -0.4371 -0.2415
  927MOL0     N27805   2.644   0.372   2.606  0.0769 -0.4800 -0.3577
  927MOL0     C27806   2.521   0.416   2.584  0.4241 -0.9839  0.6959
  927MOL0     C27807   2.530   0.478   2.460 -0.5577 -0.2092  0.2508
  927MOL0     C27808   2.398   0.513   2.390  0.0977 -0.0237 -0.3809
  927MOL0     C27809   2.345   0.384   2.331  0.5142 -1.3237 -0.3568
  927MOL0     C27810   2.238   0.413   2.214 -0.8152 -0.6525 -0.3038
  927MOL0     C27811   2.102   0.473   2.266  0.2608  0.0457 -0.6949
  927MOL0     O27812   2.027   0.368   2.334 -0.0247 -1.2382  0.4202
  927MOL0     C27813   1.905   0.397   2.372  1.0999  0.4536 -1.0192
  927MOL0     C27814   1.820   0.290   2.385  0.5945 -0.3347  0.7901
  927MOL0     C27815   1.689   0.306   2.433 -0.0009  1.0161 -1.0534
  927MOL0     C27816   1.622   0.173   2.459 -0.7762  0.6554 -0.4567
  927MOL0     C27817   1.642   0.433   2.461  0.0654 -0.0762 -0.0608
  927MOL0     C27818   1.498   0.468   2.506 -0.8175  0.3605 -0.3375
  927MOL0     O27819   1.394   0.385   2.481 -0.4740  0.4544  0.5818
  927MOL0     C27820   1.269   0.424   2.497  0.7062  0.4303  0.4150
  927MOL0     C27821   1.186   0.374   2.596  0.5911 -0.8237 -0.3618
  927MOL0     C27822   1.063   0.436   2.627 -0.6085  0.7095 -0.3323
  927MOL0     C27823   1.015   0.538   2.550 -0.5894  0.5103  0.0416
  927MOL0     O27824   0.909   0.608   2.587  0.6127  0.6657 -0.1128
  927MOL0     C27825   0.827   0.656   2.480 -0.4917 -0.1902 -0.4862
  927MOL0     C27826   0.685   0.688   2.527  0.3298  0.3325  0.6818
  927MOL0     C27827   0.679   0.811   2.622  0.0042  0.5967 -0.4228
  927MOL0     C27828   0.731   0.783   2.764 -0.4896 -0.1728 -0.2948
  927MOL0     C27829   0.684   0.894   2.859  0.4955  0.6602 -0.3109
  927MOL0     C27830   0.729   0.855   3.007 -0.4110 -1.2342 -0.0956
  927MOL0     C27831   0.680   0.965   3.106 -0.1106 -0.0039 -0.5300
  927MOL0     C27832   0.666   0.925   3.250  0.7190 -0.1670  0.2816
  927MOL0    Cl27833   0.534   0.814   3.277  0.1652  0.0100 -0.1861
  927MOL0     C27834   1.102   0.589   2.449  0.1484  1.0656 -0.1101
  927MOL0     C27835   1.219   0.530   2.417 -0.6561 -0.6849  0.0228
  927MOL0     O27836   1.488   0.578   2.554 -0.0720 -0.3477 -0.2820
  927MOL0     C27837   1.736   0.539   2.454 -0.0649  0.3023 -0.8685
  927MOL0     C27838   1.872   0.518   2.429 -0.4260  1.1270  0.4928
  927MOL0     N27839   2.656   0.471   2.416 -0.1819  0.4202 -0.6607
  927MOL0     N27840   2.728   0.409   2.499 -0.4463 -0.0547 -0.5159
  927MOL0     C27841   2.436   0.925   3.447  1.2759  0.5207  0.2822
  927MOL0     C27842   2.430   0.959   3.581 -0.6742  0.7774 -0.5927
  927MOL0     C27843   2.530   1.041   3.997 -0.3429  0.6808 -0.9066
  927MOL0     C27844   2.566   0.934   4.075 -0.1056  0.1852 -0.1659
  927MOL0     C27845   2.527   0.917   4.211  0.3879  0.7166  0.0956
  927MOL0     C27846   2.440   1.013   4.266 -1.1399 -0.0416  0.4460
  927MOL0     O27847   2.392   1.002   4.397 -0.1902  0.0310 -0.5762
  927MOL0     C27848   2.442   0.898   4.488  0.5685  0.2250 -0.0306
  927MOL0     C27849   2.440   0.939   4.636 -0.8707 -0.1691 -0.4302
  927MOL0     C27850   2.480   0.821   4.731 -0.1268  0.6932 -0.0554
  927MOL0     C27851   2.359   0.743   4.782  0.3813  0.1952 -0.2418
  927MOL0     C27852   2.406   0.626   4.859 -0.4805  0.0300 -0.0736
  927MOL0     C27853   2.445   0.520   4.899 -0.4949  0.2840  0.0252
  927MOL0     C27854   2.400   1.121   4.189  0.1030 -0.8154  0.4102
  927MOL0     C27855   2.436   1.136   4.055 -0.5342  0.6466  0.2056
  927MOL0     C27856   2.418   1.269   3.989 -0.2902 -0.6600  0.1632
  927MOL0     H27857   2.594   1.251   3.575 -0.2089  0.5574 -3.0858
  927MOL0     H27858   2.606   1.193   3.332 -1.0470  0.3640  1.0187
  927MOL0     H27859   2.668   0.902   3.228 -0.2016 -0.8470 -0.5662
  927MOL0     H27860   2.649   1.051   3.119 -0.2971 -0.4275 -3.1182
  927MOL0     H27861   2.489   0.943   2.990 -0.8160 -1.6079 -1.0316
  927MOL0     H27862   2.658   0.891   2.958  1.9168 -1.3274  3.1765
  927MOL0     H27863   2.463   0.718   3.124  0.8517  0.7606 -0.3399
  927MOL0     H27864   2.497   0.709   2.940  3.4807 -5.3352 -0.1159
  927MOL0     H27865   2.737   0.672   3.017  0.1772  1.0164  0.2708
  927MOL0     H27866   2.665   0.641   3.179 -0.6160 -2.3269  0.0607
  927MOL0     H27867   2.520   0.477   3.048 -0.1600 -0.8404 -0.2289
  927MOL0     H27868   2.682   0.434   3.094 -0.8706 -2.0362 -1.7644
  927MOL0     H27869   2.586   0.519   2.833 -1.8656 -2.1846  0.8120
  927MOL0     H27870   2.764   0.502   2.859  0.7693  2.1704  1.3415
  927MOL0     H27871   2.529   0.301   2.859  0.3107 -0.0822  0.8330
  927MOL0     H27872   2.679   0.259   2.928 -0.2030  0.1816  0.1963
  927MOL0     H27873   2.785   0.271   2.717  0.0712 -1.9437 -0.2905
  927MOL0     H27874   2.634   0.183   2.677 -0.1796 -1.1164  2.1041
  927MOL0     H27875   2.436   0.415   2.652  1.1746 -1.1257  1.6588
  927MOL0     H27876   2.415   0.592   2.317  1.3242  0.7428  0.6723
  927MOL0     H27877   2.324   0.560   2.456  1.2120  4.3701 -1.9112
  927MOL0     H27878   2.426   0.334   2.277 -0.0231  0.7173 -3.2538
  927MOL0     H27879   2.296   0.333   2.415 -3.5263  0.2707 -1.4974
  927MOL0     H27880   2.270   0.494   2.148 -1.1065 -0.2596  0.0344
  927MOL0     H27881   2.210   0.331   2.148 -0.5904  0.3153 -1.6249
  927MOL0     H27882   2.125   0.565   2.319  3.2835  0.3709 -2.3676
  927MOL0     H27883   2.045   0.497   2.176  2.3837 -1.4088 -2.5465
  927MOL0     H27884   1.856   0.191   2.360  2.3280  0.2731  0.7504
  927MOL0     H27885   1.695   0.095   2.481  0.1774  1.3767 -0.9946
  927MOL0     H27886   1.559   0.149   2.373  2.1081 -3.0005 -1.7756
  927MOL0     H27887   1.553   0.171   2.544 -2.4890 -1.5339 -1.7963
  927MOL0     H27888   1.218   0.286   2.650 -1.3872  0.1726  2.7083
  927MOL0     H27889   1.019   0.414   2.724  2.0461 -1.5105  0.4971
  927MOL0     H27890   0.871   0.745   2.435  2.2770 -0.3508  1.6516
  927MOL0     H27891   0.809   0.577   2.406 -1.3086 -2.8854  2.3868
  927MOL0     H27892   0.625   0.723   2.442 -0.2374  0.6079  1.1821
  927MOL0     H27893   0.631   0.603   2.571  1.3410 -0.2245  0.8743
  927MOL0     H27894   0.582   0.861   2.621 -1.7168 -2.4892 -0.9727
  927MOL0     H27895   0.747   0.887   2.583 -1.5354  2.4661  0.3667
  927MOL0     H27896   0.841   0.786   2.768 -0.3571 -1.3083 -2.0100
  927MOL0     H27897   0.688   0.688   2.797 -2.3193  0.1856 -1.5121
  927MOL0     H27898   0.731   0.990   2.834 -0.2145  0.8651 -0.8737
  927MOL0     H27899   0.576   0.905   2.866  0.6409  1.5526  0.7496
  927MOL0     H27900   0.838   0.846   3.016  0.4234  0.4003 -4.9767
  927MOL0     H27901   0.674   0.765   3.034 -2.6537 -0.1816 -0.9178
  927MOL0     H27902   0.587   1.014   3.076  0.3624  1.4098  0.2144
  927MOL0     H27903   0.758   1.043   3.112  0.9784 -1.1427  0.7861
  927MOL0     H27904   0.661   1.011   3.318 -6.4476 -0.0395  0.3537
  927MOL0     H27905   0.757   0.867   3.268  0.8915  0.0054 -0.0199
  927MOL0     H27906   1.077   0.678   2.394  0.2987  0.1336 -1.7612
  927MOL0     H27907   1.282   0.585   2.349  0.1435 -1.6292 -0.0281
  927MOL0     H27908   1.711   0.641   2.482 -1.9570 -0.0016 -1.3564
  927MOL0     H27909   1.935   0.605   2.419  0.8860  0.2314  0.6173
  927MOL0     H27910   2.390   0.835   3.408 -0.5526  1.2939  0.5576
  927MOL0     H27911   2.374   0.901   3.654 -0.8763  0.5454 -0.9283
  927MOL0     H27912   2.617   0.849   4.031 -1.7460 -1.1952  0.4888
  927MOL0     H27913   2.548   0.820   4.254 -2.8500 -2.1520 -4.0178
  927MOL0     H27914   2.383   0.807   4.474  1.5916 -0.4266 -0.1844
  927MOL0     H27915   2.543   0.862   4.464  0.0508 -2.3882  1.3334
  927MOL0     H27916   2.338   0.974   4.654 -0.5609  0.0651  0.9873
  927MOL0     H27917   2.508   1.024   4.646  0.3006 -0.9688 -1.3202
  927MOL0     H27918   2.551   0.752   4.684  0.8248  1.9948 -0.5921
  927MOL0     H27919   2.530   0.869   4.816  0.4426  1.5258 -0.8405
  927MOL0     H27920   2.289   0.708   4.705  1.5506 -1.3685 -0.6482
  927MOL0     H27921   2.296   0.809   4.842 -0.9552 -0.9474 -0.3155
  927MOL0     H27922   2.459   0.418   4.929 -0.8086  0.3301  0.3419
  927MOL0     H27923   2.327   1.194   4.224 -0.2859 -1.4327  0.9153
  927MOL0     H27924   2.489   1.296   3.911 -0.6760  1.8016  0.5714
  927MOL0     H27925   2.315   1.282   3.954 -0.5003  3.8667  1.7911
  927MOL0     H27926   2.439   1.353   4.056  0.9276  0.0723 -1.0961
  928MOL0     O27927   4.821  10.906   4.996 -0.2252 -0.4826 -0.4336
  928MOL0     C27928   4.894  10.993   4.962  0.2054 -0.4895 -0.3550
  928MOL0     O27929   4.948  11.079   5.044  0.3502 -0.0875 -0.5512
  928MOL0     C27930   4.972  11.035   5.175 -0.6644  1.0740  0.1023
  928MOL0     C27931   4.878  10.996   5.264 -0.6562  0.8654  0.5181
  928MOL0     C27932   4.905  10.989   5.398 -0.2652  0.1767 -0.4614
  928MOL0     C27933   5.036  10.995   5.452 -0.1296 -0.5924 -0.2937
  928MOL0     O27934   5.068  10.996   5.588  0.5644  0.0436 -0.2747
  928MOL0     C27935   4.972  10.997   5.695 -0.3169  0.5370  0.6193
  928MOL0     C27936   5.055  11.017   5.827 -0.1787  0.2965  1.1768
  928MOL0     C27937   4.972  11.032   5.952  0.6694 -0.2421 -0.4874
  928MOL0     C27938   5.059  11.012   6.081  0.5402  0.2873  0.4238
  928MOL0     C27939   5.164  11.125   6.101  0.1260 -0.0583 -0.3006
  928MOL0     C27940   5.239  11.098   6.232 -0.0311  0.2632 -0.1137
  928MOL0     C27941   5.336  11.210   6.287 -0.2913 -0.7498 -0.9847
  928MOL0     C27942   5.282  11.348   6.284  0.4612  0.2069 -0.4505
  928MOL0     N27943   5.175  11.355   6.392  0.4051 -0.5219 -0.1486
  928MOL0     C27944   5.190  11.352   6.527  0.0601 -0.5593 -0.0828
  928MOL0     C27945   5.075  11.389   6.580 -0.5554 -0.1250 -0.2503
  928MOL0     C27946   5.042  11.374   6.726 -0.3141  0.0131 -0.3320
  928MOL0     C27947   4.936  11.261   6.738  0.3123  0.0364  0.7808
  928MOL0     C27948   4.881  11.228   6.873 -0.0019 -0.2471 -0.9580
  928MOL0     C27949   4.887  11.339   6.976  0.1904  0.0573  0.5896
  928MOL0     O27950   4.818  11.297   7.102 -0.1369 -0.9507 -0.4977
  928MOL0     C27951   4.812  11.381   7.217  0.2318  0.2884  0.3580
  928MOL0     C27952   4.713  11.359   7.311  0.9155 -0.1367 -0.2330
  928MOL0     C27953   4.703  11.433   7.432 -0.0483  0.4434  0.9298
  928MOL0     C27954   4.582  11.390   7.524 -0.1604 -0.3311  0.0347
  928MOL0     C27955   4.796  11.542   7.455  0.1786  0.6102  1.0247
  928MOL0     C27956   4.783  11.628   7.569  0.4588 -0.3264 -0.4929
  928MOL0     O27957   4.734  11.572   7.696 -0.8228  0.1826 -0.2901
  928MOL0     C27958   4.685  11.656   7.788  0.3989  0.7758 -0.1972
  928MOL0     C27959   4.760  11.687   7.889 -0.6750 -0.8870  0.3271
  928MOL0     C27960   4.708  11.766   7.989 -0.6550  0.4389 -0.1347
  928MOL0     C27961   4.569  11.803   7.990  0.3554  0.1145 -0.4308
  928MOL0     O27962   4.515  11.880   8.091 -0.0673 -0.5965  0.8309
  928MOL0     C27963   4.591  11.913   8.208 -0.4957 -0.3730  0.3437
  928MOL0     C27964   4.508  11.993   8.311  0.5289  0.2058  0.3805
  928MOL0     C27965   4.580  12.049   8.437  0.6162 -0.7419  0.0931
  928MOL0     C27966   4.629  11.963   8.552 -0.1077 -0.2341  0.2943
  928MOL0     C27967   4.520  11.911   8.637 -0.4242  0.1114  0.1194
  928MOL0     C27968   4.582  11.817   8.747 -0.3755 -1.0820  0.3106
  928MOL0     C27969   4.688  11.868   8.861 -0.4551  0.0651 -0.8898
  928MOL0     C27970   4.753  11.769   8.962 -0.1447  0.8948  0.1019
  928MOL0    Cl27971   4.632  11.634   8.981  0.2294  0.0579  0.3268
  928MOL0     C27972   4.493  11.769   7.886  0.1323 -0.5802  0.4906
  928MOL0     C27973   4.550  11.697   7.778  1.0632 -0.1364 -0.4728
  928MOL0     O27974   4.786  11.750   7.546 -0.3431  0.8762 -0.0445
  928MOL0     C27975   4.883  11.571   7.344 -0.4334  0.5944 -0.4813
  928MOL0     C27976   4.902  11.483   7.237 -0.2804  0.2801 -0.3340
  928MOL0     N27977   4.982  11.406   6.482 -0.2846 -0.4998 -0.9017
  928MOL0     N27978   5.052  11.393   6.367  0.2882 -0.6511 -1.3037
  928MOL0     C27979   5.132  11.019   5.357 -0.3140  0.6082  0.5891
  928MOL0     C27980   5.105  11.026   5.222  1.0234 -0.4897  0.0518
  928MOL0     C27981   4.921  10.988   4.817 -1.1745 -0.0871  0.7349
  928MOL0     C27982   4.981  11.103   4.764  0.3901 -0.0074 -0.0031
  928MOL0     C27983   5.007  11.107   4.632  0.9600 -0.2162 -0.5390
  928MOL0     C27984   4.968  11.005   4.543 -0.6784 -0.2260 -0.4297
  928MOL0     O27985   4.986  10.998   4.405 -0.3281  0.4190 -0.7756
  928MOL0     C27986   5.024  11.119   4.335  0.3487  0.6576  0.4131
  928MOL0     C27987   4.988  11.105   4.182  0.1487  0.4486 -0.0741
  928MOL0     C27988   5.010  11.230   4.095 -0.5498  0.2668  1.1484
  928MOL0     C27989   5.156  11.212   4.041  0.1016  1.0061 -0.9173
  928MOL0     C27990   5.192  11.307   3.941 -0.7166  0.4671  0.3723
  928MOL0     C27991   5.222  11.366   3.837 -0.5721  0.2583  1.0445
  928MOL0     C27992   4.923  10.893   4.598  0.2030  0.0416 -0.2792
  928MOL0     C27993   4.890  10.878   4.732 -0.6250 -0.0868  0.1958
  928MOL0     C27994   4.847  10.737   4.772 -1.0438 -0.6210 -0.0096
  928MOL0     H27995   4.778  10.982   5.225  0.1468 -1.2198 -0.9274
  928MOL0     H27996   4.826  10.952   5.463 -1.0697  0.4619 -1.2568
  928MOL0     H27997   4.924  10.899   5.697  2.7062 -1.0601  1.3822
  928MOL0     H27998   4.904  11.082   5.683  0.1082  1.3745  3.4020
  928MOL0     H27999   5.132  10.941   5.838 -0.2563  0.0309  0.0291
  928MOL0     H28000   5.112  11.109   5.810 -1.4599  0.7711 -0.8528
  928MOL0     H28001   4.919  11.128   5.946  0.1427 -0.5991 -2.2699
  928MOL0     H28002   4.887  10.963   5.952 -0.4838  1.1314 -1.0032
  928MOL0     H28003   4.998  11.003   6.171 -0.3385  1.9408  0.0262
  928MOL0     H28004   5.123  10.925   6.062  1.3452  1.0922 -0.6924
  928MOL0     H28005   5.126  11.228   6.113  5.8636  2.2462  1.4227
  928MOL0     H28006   5.235  11.123   6.018 -1.9973 -0.6535 -2.2029
  928MOL0     H28007   5.161  11.091   6.309 -0.1336 -0.2630 -0.2621
  928MOL0     H28008   5.294  11.004   6.230  1.7109  1.2408 -1.5874
  928MOL0     H28009   5.422  11.212   6.220 -1.3424 -0.2494 -2.3763
  928MOL0     H28010   5.359  11.196   6.393  2.7156 -2.3493 -1.7404
  928MOL0     H28011   5.356  11.425   6.309 -0.8970  0.9166  1.6179
  928MOL0     H28012   5.242  11.379   6.188 -2.0712  0.7729  0.7231
  928MOL0     H28013   5.280  11.319   6.579  0.5539 -1.6640 -1.5466
  928MOL0     H28014   4.991  11.462   6.766 -2.1037 -1.9810  2.0866
  928MOL0     H28015   5.132  11.351   6.784  0.8374 -0.4774 -2.2305
  928MOL0     H28016   4.845  11.275   6.679  0.9026 -2.9087 -1.0409
  928MOL0     H28017   4.986  11.167   6.713 -0.8580 -0.6212  0.8276
  928MOL0     H28018   4.780  11.190   6.861 -3.1563  6.7663 -1.4550
  928MOL0     H28019   4.941  11.151   6.922 -0.5619  0.1116  0.3211
  928MOL0     H28020   4.989  11.368   7.002  1.2871 -1.8957 -1.1551
  928MOL0     H28021   4.833  11.423   6.932 -0.1127  0.0242  0.8978
  928MOL0     H28022   4.663  11.263   7.300 -1.5843  1.1377 -0.6789
  928MOL0     H28023   4.509  11.464   7.558 -1.0921 -0.5162 -1.4549
  928MOL0     H28024   4.623  11.333   7.608 -1.7898 -1.2925  0.2189
  928MOL0     H28025   4.517  11.322   7.468  1.4792 -1.4010 -0.6311
  928MOL0     H28026   4.864  11.656   7.884 -0.2067  0.6387 -3.6096
  928MOL0     H28027   4.768  11.805   8.070 -0.0173 -3.0192  1.2370
  928MOL0     H28028   4.641  11.831   8.262 -0.1963 -1.0148 -0.8578
  928MOL0     H28029   4.670  11.986   8.190  0.7939 -1.2575  2.1224
  928MOL0     H28030   4.465  12.067   8.243  1.1590 -0.0800 -0.3532
  928MOL0     H28031   4.418  11.936   8.336 -1.5922  1.1721 -4.0527
  928MOL0     H28032   4.519  12.128   8.484  1.3689  0.2992 -0.6420
  928MOL0     H28033   4.663  12.111   8.404  1.6626 -1.8689  0.5473
  928MOL0     H28034   4.697  12.021   8.614  3.1140 -0.9811 -2.2812
  928MOL0     H28035   4.690  11.881   8.513  0.1112  0.0229  0.0899
  928MOL0     H28036   4.471  11.994   8.689  0.4945  1.5010 -1.1528
  928MOL0     H28037   4.454  11.854   8.571 -2.0636  1.8573  0.1435
  928MOL0     H28038   4.626  11.729   8.699  0.3051 -0.0274 -1.0460
  928MOL0     H28039   4.498  11.795   8.814 -0.5843  1.2789  0.9005
  928MOL0     H28040   4.637  11.943   8.923  0.4633 -1.7062  2.2581
  928MOL0     H28041   4.771  11.923   8.816  0.0249 -1.1246 -1.4822
  928MOL0     H28042   4.769  11.814   9.060 -0.1712 -0.0282  0.5391
  928MOL0     H28043   4.853  11.746   8.924 -0.4943 -0.7353  0.1004
  928MOL0     H28044   4.387  11.791   7.882  0.5575  1.4060 -1.5229
  928MOL0     H28045   4.489  11.679   7.690  0.3626 -1.5934  0.2638
  928MOL0     H28046   4.942  11.663   7.344  1.1155 -0.3443  0.4648
  928MOL0     H28047   4.962  11.522   7.156  0.2649  0.9455  0.3834
  928MOL0     H28048   5.235  11.027   5.388  0.9953 -3.0315 -2.0746
  928MOL0     H28049   5.180  11.045   5.146  0.9410  1.5928  0.4407
  928MOL0     H28050   5.000  11.192   4.823  1.1546  0.0149 -0.2703
  928MOL0     H28051   5.046  11.204   4.603 -0.4469  0.3048 -0.7888
  928MOL0     H28052   4.955  11.195   4.374 -2.1733 -1.1773 -0.2344
  928MOL0     H28053   5.130  11.138   4.354  1.3493 -0.6870 -3.1438
  928MOL0     H28054   4.886  11.067   4.171  0.3599 -0.6472  1.5112
  928MOL0     H28055   5.049  11.023   4.143  0.4509 -0.2749  1.8225
  928MOL0     H28056   4.949  11.233   4.004 -0.6697  0.1846  1.2258
  928MOL0     H28057   5.007  11.327   4.145 -0.2071  2.1528 -2.2210
  928MOL0     H28058   5.157  11.118   3.986 -1.1943 -2.3160  4.0300
  928MOL0     H28059   5.226  11.205   4.124 -3.6979  2.2843  2.8187
  928MOL0     H28060   5.245  11.437   3.761 -1.8690  2.3976  2.5493
  928MOL0     H28061   4.900  10.815   4.525 -2.1822 -1.0406  1.4903
  928MOL0     H28062   4.745  10.725   4.809 -0.6952 -3.1672  0.2632
  928MOL0     H28063   4.851  10.667   4.688 -3.6780  1.6901 -2.2844
  928MOL0     H28064   4.909  10.691   4.850 -2.9939  1.2693  2.8996
  929MOL0     O28065  10.507   2.053  10.174 -0.7164 -0.9044  0.3106
  929MOL0     C28066  10.464   1.952  10.216  0.7654  0.1780 -0.0393
  929MOL0     O28067  10.485   1.829  10.171 -0.8331 -0.3414 -0.3987
  929MOL0     C28068  10.555   1.797  10.058 -0.3460  0.2058  0.9349
  929MOL0     C28069  10.600   1.882   9.959 -0.0741  0.1477  0.2705
  929MOL0     C28070  10.672   1.848   9.852 -0.1845  0.1876 -0.1985
  929MOL0     C28071  10.706   1.711   9.836 -0.4315  0.6592  0.3748
  929MOL0     O28072  10.776   1.662   9.726 -0.5328 -0.4696  0.2518
  929MOL0     C28073  10.808   1.530   9.702 -0.2253  1.2086  0.3498
  929MOL0     C28074  10.891   1.511   9.566 -0.0295 -0.2590 -0.8043
  929MOL0     C28075  11.039   1.555   9.593  0.4538  0.7215 -0.6644
  929MOL0     C28076  11.073   1.687   9.524 -0.0363  0.2211  0.8039
  929MOL0     C28077  11.197   1.756   9.577 -0.6722  0.1364 -0.0533
  929MOL0     C28078  11.271   1.836   9.467  0.1919 -0.5007 -0.3167
  929MOL0     C28079  11.393   1.906   9.530 -0.4458 -0.5555 -0.6838
  929MOL0     C28080  11.358   2.032   9.611 -0.6658 -0.5485  0.1456
  929MOL0     N28081  11.321   2.148   9.526  0.0976  0.1933 -0.3322
  929MOL0     C28082  11.218   2.239   9.536 -0.2373  0.1837 -0.6777
  929MOL0     C28083  11.233   2.331   9.435 -0.9684 -0.1181  0.1458
  929MOL0     C28084  11.153   2.452   9.405  0.8761 -0.7306  0.0432
  929MOL0     C28085  11.201   2.585   9.458 -0.8096  1.2042  0.0427
  929MOL0     C28086  11.300   2.647   9.356 -0.4589 -0.3583  0.3925
  929MOL0     C28087  11.250   2.728   9.237  0.8005  0.0335  0.0861
  929MOL0     O28088  11.175   2.838   9.299 -0.0254 -0.0760  0.2345
  929MOL0     C28089  11.081   2.907   9.225 -0.0616 -0.1443 -0.3756
  929MOL0     C28090  11.078   2.923   9.084 -0.2135  0.0886  0.5786
  929MOL0     C28091  10.978   2.998   9.020 -0.0509  0.3822 -0.0617
  929MOL0     C28092  10.992   3.013   8.866 -0.3910  0.0741 -0.3039
  929MOL0     C28093  10.883   3.055   9.100  0.1294  0.4562  0.1367
  929MOL0     C28094  10.767   3.125   9.046 -0.4739  0.4677  0.3245
  929MOL0     O28095  10.731   3.238   9.106  0.2505  0.0763  0.7063
  929MOL0     C28096  10.622   3.295   9.047 -0.4380 -0.1860 -0.2973
  929MOL0     C28097  10.648   3.386   8.946  0.1878 -0.6997 -0.1819
  929MOL0     C28098  10.551   3.437   8.861 -0.1598 -0.1063 -0.4909
  929MOL0     C28099  10.417   3.412   8.890  0.9445 -0.1074  0.5351
  929MOL0     O28100  10.315   3.481   8.816  0.3252 -0.8434  0.0393
  929MOL0     C28101  10.182   3.470   8.866  0.1893  0.4206  0.5628
  929MOL0     C28102  10.085   3.524   8.770  0.3861  0.5316 -0.0674
  929MOL0     C28103   9.948   3.571   8.833 -0.2635  0.0024  0.4552
  929MOL0     C28104   9.880   3.456   8.899  0.0837 -0.3807  0.2722
  929MOL0     C28105   9.751   3.494   8.956 -0.5563  0.5481 -0.1111
  929MOL0     C28106   9.661   3.374   8.995  0.1385 -0.2891 -0.1535
  929MOL0     C28107   9.544   3.429   9.084  0.3191  0.3487  1.0138
  929MOL0     C28108   9.450   3.316   9.117 -0.8931 -0.0698  0.3353
  929MOL0    Cl28109   9.339   3.278   8.988  0.0700 -0.1742  0.1028
  929MOL0     C28110  10.394   3.322   8.992 -0.1236 -0.5258 -0.6873
  929MOL0     C28111  10.490   3.267   9.077  0.1642  0.1901 -1.3612
  929MOL0     O28112  10.699   3.069   8.960  0.9054  0.1454 -0.2561
  929MOL0     C28113  10.880   3.040   9.237 -0.2066  0.7551 -0.9497
  929MOL0     C28114  10.982   2.972   9.300 -0.9688  0.1544  0.9184
  929MOL0     N28115  11.354   2.291   9.367  0.2118  0.2303  0.4444
  929MOL0     N28116  11.399   2.194   9.422 -0.1068 -0.2772 -1.2690
  929MOL0     C28117  10.663   1.619   9.930 -0.6003 -0.5626  0.1686
  929MOL0     C28118  10.573   1.658  10.031 -0.5633  1.5504  0.6538
  929MOL0     C28119  10.389   1.969  10.335 -1.2846  0.0280  0.7271
  929MOL0     C28120  10.449   1.910  10.450 -0.5081 -0.4958  0.0237
  929MOL0     C28121  10.402   1.926  10.577  0.7502  0.0833 -0.4669
  929MOL0     C28122  10.276   1.987  10.585  0.2645  0.5416  0.2564
  929MOL0     O28123  10.227   2.007  10.709  0.5332 -0.9924 -0.6533
  929MOL0     C28124  10.105   1.935  10.728 -0.2337  0.2832 -0.5034
  929MOL0     C28125  10.089   1.868  10.868 -0.7200  0.6539  0.5473
  929MOL0     C28126  10.220   1.798  10.917 -0.1632  0.2197  0.3970
  929MOL0     C28127  10.266   1.679  10.822 -0.3759 -1.4656  0.4847
  929MOL0     C28128  10.231   1.553  10.871 -0.5720  0.5767  0.0907
  929MOL0     C28129  10.201   1.449  10.920 -0.9199  0.7040  0.1471
  929MOL0     C28130  10.211   2.036  10.474  0.4123 -0.1210 -0.9316
  929MOL0     C28131  10.263   2.030  10.351 -0.7122  0.2823  0.7494
  929MOL0     C28132  10.188   2.079  10.228  0.7840  0.6256  0.3390
  929MOL0     H28133  10.606   1.988   9.983  4.4352  0.0316  0.5794
  929MOL0     H28134  10.701   1.925   9.782  0.9110  2.6958  2.7697
  929MOL0     H28135  10.720   1.466   9.691  2.0921 -2.0855 -0.2683
  929MOL0     H28136  10.860   1.481   9.784  0.7972 -1.2853 -1.6443
  929MOL0     H28137  10.891   1.407   9.532  0.6782 -1.3384  2.1873
  929MOL0     H28138  10.851   1.567   9.482 -0.9207 -2.1059 -1.6801
  929MOL0     H28139  11.053   1.569   9.701  2.4403 -0.4129 -0.7253
  929MOL0     H28140  11.108   1.475   9.565  0.1962  0.7580 -1.4188
  929MOL0     H28141  11.074   1.657   9.419 -4.0734 -1.6500  1.1462
  929MOL0     H28142  10.987   1.753   9.538  1.2587  2.2013 -0.1632
  929MOL0     H28143  11.270   1.687   9.621  1.5628  1.8517 -0.8713
  929MOL0     H28144  11.173   1.826   9.657 -0.1264  0.0089  0.2265
  929MOL0     H28145  11.299   1.772   9.383  1.0138 -0.2585 -0.2298
  929MOL0     H28146  11.212   1.923   9.437  0.8289 -0.4997 -1.6206
  929MOL0     H28147  11.462   1.945   9.454 -0.2036  2.5623  0.9525
  929MOL0     H28148  11.446   1.829   9.587  0.2158 -0.7287 -1.5176
  929MOL0     H28149  11.275   2.021   9.682  1.6747 -0.8674  3.0255
  929MOL0     H28150  11.437   2.064   9.679 -1.3391 -1.2861  1.3109
  929MOL0     H28151  11.143   2.235   9.614 -1.3659  2.3208 -1.5714
  929MOL0     H28152  11.058   2.430   9.455  1.4151 -3.8355 -0.0924
  929MOL0     H28153  11.133   2.468   9.299 -2.1953  1.0504  0.7656
  929MOL0     H28154  11.124   2.656   9.488 -2.0783 -0.6382  1.3757
  929MOL0     H28155  11.247   2.551   9.551 -1.8449 -0.4816 -0.0178
  929MOL0     H28156  11.361   2.718   9.414 -0.4236  1.6676 -1.9588
  929MOL0     H28157  11.375   2.573   9.324  0.9247  1.1584 -0.0246
  929MOL0     H28158  11.333   2.764   9.176  0.9620 -0.6036 -0.0763
  929MOL0     H28159  11.186   2.670   9.171  0.4964 -0.0047  0.4132
  929MOL0     H28160  11.163   2.889   9.026 -2.0985  0.3070 -2.5340
  929MOL0     H28161  10.985   3.118   8.835  0.7244  1.5553  3.8289
  929MOL0     H28162  10.911   2.954   8.822  1.2790 -2.3652 -0.3349
  929MOL0     H28163  11.090   2.972   8.839 -0.6770 -0.2664 -0.8384
  929MOL0     H28164  10.753   3.398   8.922  0.2863  0.0842  0.6071
  929MOL0     H28165  10.579   3.503   8.779  1.8641  0.2709  0.4422
  929MOL0     H28166  10.143   3.368   8.866 -2.5659  1.3730  0.8914
  929MOL0     H28167  10.166   3.507   8.968 -1.1228 -1.8334  1.2480
  929MOL0     H28168  10.133   3.612   8.724  2.8583 -1.5163 -1.6809
  929MOL0     H28169  10.057   3.453   8.692  0.9391 -2.2615  2.1540
  929MOL0     H28170   9.879   3.618   8.763 -1.4231  3.0782  3.3562
  929MOL0     H28171   9.966   3.655   8.901  0.7363 -0.9538  1.4117
  929MOL0     H28172   9.946   3.408   8.972  0.9879 -1.9585 -1.4930
  929MOL0     H28173   9.853   3.382   8.822 -3.2383  0.9424  0.0113
  929MOL0     H28174   9.773   3.548   9.048 -2.1639 -2.8587  2.5116
  929MOL0     H28175   9.692   3.564   8.897 -0.6492  1.6503  1.2506
  929MOL0     H28176   9.714   3.291   9.043  3.2713  0.9068 -1.2802
  929MOL0     H28177   9.619   3.331   8.903 -1.2135 -0.8329  0.6873
  929MOL0     H28178   9.484   3.505   9.032 -0.5426 -2.2987 -2.2714
  929MOL0     H28179   9.590   3.460   9.178 -2.4801 -0.4361  2.7558
  929MOL0     H28180   9.399   3.348   9.209  1.4940  1.6056  1.2024
  929MOL0     H28181   9.503   3.225   9.145 -0.6239  0.6929  2.5679
  929MOL0     H28182  10.298   3.285   9.024 -0.5181  0.4976 -0.6450
  929MOL0     H28183  10.468   3.219   9.172  3.3790  1.7522  0.3664
  929MOL0     H28184  10.812   3.096   9.301  0.3859 -1.4872  1.8778
  929MOL0     H28185  10.977   2.963   9.408 -1.2623 -0.6999  0.8449
  929MOL0     H28186  10.674   1.511   9.926 -2.8177 -0.8646  0.7104
  929MOL0     H28187  10.529   1.591  10.104 -0.7150 -0.3681 -1.0845
  929MOL0     H28188  10.553   1.878  10.460 -0.1247  1.5061  4.7177
  929MOL0     H28189  10.455   1.887  10.663  3.2020  3.0439 -0.4539
  929MOL0     H28190  10.014   1.989  10.701 -1.0628 -1.1512 -0.7211
  929MOL0     H28191  10.110   1.849  10.659  2.5834  0.6656 -0.8760
  929MOL0     H28192  10.003   1.800  10.869  0.3555 -0.7401  1.1125
  929MOL0     H28193  10.071   1.942  10.947  2.8688  1.9024  0.3660
  929MOL0     H28194  10.303   1.870  10.916 -1.9237  2.3703  0.8365
  929MOL0     H28195  10.214   1.759  11.019 -1.3790  1.2418  0.7454
  929MOL0     H28196  10.371   1.681  10.789 -1.1579 -0.4479 -2.2041
  929MOL0     H28197  10.228   1.687  10.720 -0.9926 -1.3738  0.7212
  929MOL0     H28198  10.175   1.363  10.977 -3.7490  2.2007  1.3159
  929MOL0     H28199  10.124   2.099  10.493  2.7295  4.2824 -3.2605
  929MOL0     H28200  10.260   2.130  10.163 -0.1954  0.0848 -1.2193
  929MOL0     H28201  10.139   1.997  10.175  1.7620  0.6096 -0.5634
  929MOL0     H28202  10.111   2.150  10.258 -0.9444 -0.8239 -0.5206
  930MOL0     O28203   9.993   9.114   3.718 -0.1554 -0.0539  0.2177
  930MOL0     C28204   9.932   9.109   3.608 -0.2635 -0.2599 -0.7396
  930MOL0     O28205   9.844   9.200   3.570  0.2763 -0.4796 -0.1197
  930MOL0     C28206   9.818   9.304   3.655  0.0638  0.5131  0.4397
  930MOL0     C28207   9.772   9.277   3.783  0.4956  0.8441 -0.1602
  930MOL0     C28208   9.767   9.390   3.870  0.0673 -0.0335 -0.2844
  930MOL0     C28209   9.810   9.521   3.835 -0.2879  0.3190  0.0410
  930MOL0     O28210   9.819   9.621   3.932 -0.0175 -0.0729 -0.0177
  930MOL0     C28211   9.826   9.592   4.071  0.2107 -0.0893 -0.4298
  930MOL0     C28212   9.869   9.708   4.155  0.2741 -0.3143 -0.2026
  930MOL0     C28213   9.877   9.670   4.302  0.5268 -0.2100 -0.0923
  930MOL0     C28214   9.823   9.767   4.408 -0.0533  0.5074  0.0673
  930MOL0     C28215   9.866   9.721   4.543 -0.0920 -0.1882 -0.9364
  930MOL0     C28216   9.810   9.811   4.651  0.6963 -1.1243 -0.8130
  930MOL0     C28217   9.827   9.753   4.797 -0.0269  0.4793  0.2724
  930MOL0     C28218   9.727   9.811   4.897  0.4084  0.1269 -0.3114
  930MOL0     N28219   9.775   9.801   5.033 -0.4043  0.1687 -1.2395
  930MOL0     C28220   9.716   9.870   5.135 -0.3752 -0.5440  0.6289
  930MOL0     C28221   9.768   9.811   5.246  0.4598 -0.4598 -0.5045
  930MOL0     C28222   9.741   9.842   5.395 -0.0686 -0.4465  0.7135
  930MOL0     C28223   9.792   9.721   5.482 -1.1057 -0.7528 -0.9182
  930MOL0     C28224   9.764   9.762   5.630 -0.5501  0.9877 -0.8285
  930MOL0     C28225   9.630   9.714   5.676 -0.4618 -0.1646  0.5179
  930MOL0     O28226   9.590   9.775   5.799  0.7185 -0.3926  0.5998
  930MOL0     C28227   9.585   9.700   5.915  0.3896  0.3486  0.3850
  930MOL0     C28228   9.562   9.773   6.024  0.9308 -0.5313 -0.6665
  930MOL0     C28229   9.551   9.728   6.156  0.5389 -0.8222 -0.9193
  930MOL0     C28230   9.520   9.833   6.266 -0.7137 -0.7501  0.1036
  930MOL0     C28231   9.563   9.586   6.186  0.5513 -0.3937  1.2125
  930MOL0     C28232   9.557   9.520   6.320 -0.3252 -0.0359 -0.0991
  930MOL0     O28233   9.588   9.393   6.328  0.1989 -0.2505  0.5440
  930MOL0     C28234   9.589   9.341   6.458  1.1216  0.0412 -0.2072
  930MOL0     C28235   9.465   9.304   6.525  0.3554  0.0234 -0.0786
  930MOL0     C28236   9.465   9.230   6.646 -1.0006  0.6571 -0.6349
  930MOL0     C28237   9.588   9.203   6.714  0.2040 -0.4866  0.0451
  930MOL0     O28238   9.602   9.136   6.837 -0.6385 -0.3795 -0.1665
  930MOL0     C28239   9.513   9.024   6.870 -0.1932  0.2189 -0.4468
  930MOL0     C28240   9.550   8.904   6.788 -0.1652 -0.3885 -0.1260
  930MOL0     C28241   9.702   8.851   6.813  0.0385 -0.0540  0.3293
  930MOL0     C28242   9.707   8.767   6.930  0.4696 -0.7270 -0.3782
  930MOL0     C28243   9.840   8.734   6.999 -0.3226 -0.7625  0.0569
  930MOL0     C28244   9.931   8.648   6.907 -0.3874 -0.6467  0.2284
  930MOL0     C28245  10.059   8.596   6.978 -0.3286  0.3680  0.5570
  930MOL0     C28246  10.158   8.531   6.888 -0.3036 -0.1197  0.1651
  930MOL0    Cl28247  10.097   8.387   6.804  0.6428  0.2750 -0.5241
  930MOL0     C28248   9.700   9.256   6.654  0.2958 -0.3257 -0.5934
  930MOL0     C28249   9.707   9.324   6.533  0.3147  1.0180  0.2648
  930MOL0     O28250   9.529   9.591   6.417  0.4623  0.4584 -0.1526
  930MOL0     C28251   9.577   9.508   6.073  0.0495 -0.2810  0.1660
  930MOL0     C28252   9.581   9.564   5.937 -0.1360  1.2205  0.1577
  930MOL0     N28253   9.826   9.688   5.202 -0.2482 -0.3734 -0.9427
  930MOL0     N28254   9.838   9.681   5.074 -0.0685 -0.0193  0.5634
  930MOL0     C28255   9.866   9.531   3.708 -0.1362  0.8848 -0.2061
  930MOL0     C28256   9.865   9.427   3.620 -0.5155  0.3342  0.7075
  930MOL0     C28257   9.945   8.986   3.523 -0.2527  0.1830 -0.1681
  930MOL0     C28258   9.832   8.937   3.464 -0.5928  0.1003  0.2860
  930MOL0     C28259   9.843   8.846   3.359 -0.9120 -0.5271 -0.7807
  930MOL0     C28260   9.959   8.779   3.325  0.5104  1.1970  0.0427
  930MOL0     O28261   9.965   8.690   3.214  0.8171  0.3466  0.1815
  930MOL0     C28262   9.854   8.678   3.126 -1.2644 -0.2546 -0.9290
  930MOL0     C28263   9.852   8.793   3.039  1.0453 -0.6400  0.2493
  930MOL0     C28264   9.949   8.807   2.930 -0.5553 -0.0660  0.6405
  930MOL0     C28265   9.944   8.936   2.850 -0.4963 -0.2019 -0.2012
  930MOL0     C28266   9.830   8.912   2.764  1.3652 -0.0124  0.3386
  930MOL0     C28267   9.733   8.896   2.689 -0.0102  0.3994 -0.2435
  930MOL0     C28268  10.069   8.810   3.401  0.0715  0.3510 -0.2324
  930MOL0     C28269  10.069   8.914   3.496  0.7585 -0.0973  0.3101
  930MOL0     C28270  10.207   8.957   3.546  0.8320  0.1173 -0.6369
  930MOL0     H28271   9.742   9.176   3.808 -1.3870  0.8367 -2.1319
  930MOL0     H28272   9.716   9.383   3.965 -0.9439 -0.3113 -0.8278
  930MOL0     H28273   9.898   9.511   4.085 -0.4824 -0.5936  0.2733
  930MOL0     H28274   9.732   9.551   4.109 -0.3203  2.1106  0.8466
  930MOL0     H28275   9.956   9.759   4.111  0.2524 -0.3529 -0.2912
  930MOL0     H28276   9.793   9.784   4.137 -0.4087 -1.4705 -2.5010
  930MOL0     H28277   9.834   9.570   4.311  0.8400 -0.5172 -1.7407
  930MOL0     H28278   9.984   9.660   4.321  0.3922 -0.3184  0.6594
  930MOL0     H28279   9.879   9.860   4.397  1.9481 -0.8082 -1.6223
  930MOL0     H28280   9.717   9.793   4.402  0.2057  1.6880  0.3244
  930MOL0     H28281   9.975   9.718   4.554 -0.1478 -1.1220 -0.5178
  930MOL0     H28282   9.828   9.620   4.563 -2.2722  0.7298 -0.0898
  930MOL0     H28283   9.854   9.910   4.634  0.3450 -1.3741 -3.6693
  930MOL0     H28284   9.703   9.825   4.634  0.7612  2.5185  0.8126
  930MOL0     H28285   9.933   9.759   4.824 -0.0091  3.5803 -0.1269
  930MOL0     H28286   9.810   9.645   4.799  0.4974  0.3919  0.1761
  930MOL0     H28287   9.720   9.918   4.877 -0.7339  0.2347  0.5520
  930MOL0     H28288   9.631   9.759   4.899 -0.3510  1.4830 -0.4625
  930MOL0     H28289   9.647   9.954   5.140 -0.7955 -0.8952  0.7777
  930MOL0     H28290   9.632   9.847   5.404 -0.1463  3.8961 -0.5280
  930MOL0     H28291   9.785   9.934   5.433 -1.5675  1.2265 -1.3650
  930MOL0     H28292   9.736   9.628   5.465 -1.0510 -0.2302 -4.6218
  930MOL0     H28293   9.899   9.702   5.469 -1.1630 -1.3953 -0.4885
  930MOL0     H28294   9.829   9.700   5.693 -0.9719  1.1205 -0.2515
  930MOL0     H28295   9.779   9.866   5.660  2.8955  0.2555  0.4257
  930MOL0     H28296   9.550   9.748   5.609  0.6374  1.2843 -0.1117
  930MOL0     H28297   9.620   9.606   5.688  0.8937 -0.4363 -0.5768
  930MOL0     H28298   9.534   9.876   6.007  0.3485 -0.7613 -1.1480
  930MOL0     H28299   9.442   9.787   6.328  0.5199 -3.4015 -0.1690
  930MOL0     H28300   9.481   9.929   6.230 -2.2259 -1.5680 -0.5436
  930MOL0     H28301   9.610   9.869   6.316 -1.0406  0.9004 -0.4437
  930MOL0     H28302   9.362   9.317   6.491 -0.4873 -0.5792  2.1068
  930MOL0     H28303   9.374   9.213   6.703  1.0007  0.3790  2.8020
  930MOL0     H28304   9.532   9.007   6.976  2.7862  0.5071 -0.8266
  930MOL0     H28305   9.409   9.048   6.846 -0.1949  1.1949  0.4456
  930MOL0     H28306   9.475   8.826   6.807 -1.3706  1.3664  2.9945
  930MOL0     H28307   9.548   8.934   6.683  2.1634  2.8536  0.6134
  930MOL0     H28308   9.764   8.941   6.824  2.6212 -1.9214  2.4309
  930MOL0     H28309   9.736   8.790   6.728 -0.9223  0.4321 -0.4207
  930MOL0     H28310   9.664   8.673   6.896 -2.8195  0.0995  1.1328
  930MOL0     H28311   9.628   8.801   6.998  0.9012  0.6362 -0.5317
  930MOL0     H28312   9.895   8.826   7.021 -1.7388  0.2056 -0.3200
  930MOL0     H28313   9.814   8.679   7.089  1.3141  0.0091  1.0522
  930MOL0     H28314   9.962   8.705   6.820 -0.2670  0.9356  1.2648
  930MOL0     H28315   9.876   8.565   6.862 -5.0838  2.1187  0.2439
  930MOL0     H28316  10.030   8.519   7.051 -1.4598  0.4431  0.2040
  930MOL0     H28317  10.103   8.672   7.043  1.8324 -1.3605  1.2702
  930MOL0     H28318  10.248   8.505   6.945  1.5902  1.1319 -2.0929
  930MOL0     H28319  10.182   8.611   6.818  0.3260 -0.5248 -0.0883
  930MOL0     H28320   9.795   9.238   6.702 -0.6983 -1.2336  1.1167
  930MOL0     H28321   9.803   9.351   6.490  0.7313 -0.6377  0.1083
  930MOL0     H28322   9.576   9.400   6.064 -0.4636 -0.3091  0.5702
  930MOL0     H28323   9.591   9.492   5.857  0.8938 -0.2177  1.5362
  930MOL0     H28324   9.923   9.614   3.668  0.8647  0.4152  0.2097
  930MOL0     H28325   9.910   9.450   3.524 -0.0622  3.9561  1.6425
  930MOL0     H28326   9.739   8.992   3.467 -2.1797 -2.4639  1.0448
  930MOL0     H28327   9.752   8.830   3.302 -0.6307 -1.4259 -0.9967
  930MOL0     H28328   9.867   8.591   3.061 -0.3032  1.4199 -3.1174
  930MOL0     H28329   9.759   8.667   3.180  0.1121 -0.3231  1.6708
  930MOL0     H28330   9.866   8.872   3.113 -0.8823 -0.2797  0.2860
  930MOL0     H28331   9.755   8.808   2.990  1.1405 -2.8061 -0.7533
  930MOL0     H28332  10.051   8.793   2.967  0.4433  1.6008 -1.3142
  930MOL0     H28333   9.944   8.721   2.864 -2.6630  1.3482 -1.1713
  930MOL0     H28334  10.026   8.956   2.780 -0.6311  1.6252  0.1009
  930MOL0     H28335   9.938   9.021   2.918  1.3865  0.9825 -1.4143
  930MOL0     H28336   9.647   8.871   2.630 -1.0023  0.7268  1.0464
  930MOL0     H28337  10.162   8.754   3.394  1.3678  1.7242  3.5301
  930MOL0     H28338  10.291   8.915   3.491  0.0195 -1.2679 -0.8902
  930MOL0     H28339  10.214   9.066   3.539  1.5707  0.2086  0.9368
  930MOL0     H28340  10.220   8.930   3.652  0.3687 -0.1168 -0.6348
  931MOL0     O28341  11.264   0.518   5.831  0.5411  1.2364  0.0809
  931MOL0     C28342  11.166   0.437   5.816 -0.3327 -0.0561  0.7031
  931MOL0     O28343  11.180   0.304   5.839 -0.1892  0.2955  0.1940
  931MOL0     C28344  11.310   0.249   5.873  0.5420 -0.1160 -0.0072
  931MOL0     C28345  11.314   0.182   5.998 -0.6138  0.7299 -0.6939
  931MOL0     C28346  11.429   0.097   6.020  0.0823  0.1444  0.4323
  931MOL0     C28347  11.522   0.079   5.920  0.0773  0.3621 -0.1526
  931MOL0     O28348  11.623   0.001   5.954 -0.8493  0.1218  0.3154
  931MOL0     C28349  11.699  -0.081   5.860 -0.3482 -1.2068  1.1644
  931MOL0     C28350  11.791  -0.166   5.952  0.7852  0.0947  1.1638
  931MOL0     C28351  11.926  -0.100   5.986  0.2673  0.0473 -0.2758
  931MOL0     C28352  12.016  -0.200   6.047  0.0124  0.1157  0.7155
  931MOL0     C28353  12.025  -0.226   6.194 -0.2754  0.1100 -0.1023
  931MOL0     C28354  12.114  -0.342   6.229 -0.0858 -0.0538  0.2385
  931MOL0     C28355  12.165  -0.338   6.379  0.3199  0.5302 -0.5550
  931MOL0     C28356  12.049  -0.349   6.473 -0.2794 -0.7107  0.0165
  931MOL0     N28357  12.089  -0.333   6.610  0.5777  0.0105  0.3039
  931MOL0     C28358  12.112  -0.442   6.693  0.3407 -0.2451 -0.6010
  931MOL0     C28359  12.151  -0.387   6.814 -0.7107  0.0075  0.2357
  931MOL0     C28360  12.182  -0.466   6.938  0.0504  0.3886 -0.0965
  931MOL0     C28361  12.268  -0.591   6.915  0.0294 -0.3169  0.5074
  931MOL0     C28362  12.231  -0.703   7.020  0.0666  0.8006  0.1956
  931MOL0     C28363  12.259  -0.685   7.171  0.6553 -0.7012 -0.1585
  931MOL0     O28364  12.374  -0.752   7.218 -0.2284 -0.1154 -0.5550
  931MOL0     C28365  12.339  -0.859   7.296 -0.3106  0.3736  0.0787
  931MOL0     C28366  12.415  -0.888   7.414 -0.6470 -0.1104  0.5581
  931MOL0     C28367  12.411  -1.009   7.482 -1.0657 -0.3987 -0.1008
  931MOL0     C28368  12.509  -1.027   7.599  0.2368 -1.0460  1.0287
  931MOL0     C28369  12.306  -1.109   7.456  0.5746 -0.6898 -0.0624
  931MOL0     C28370  12.280  -1.248   7.524 -0.0710  0.9625  0.2310
  931MOL0     O28371  12.154  -1.304   7.525  0.6367 -0.3887 -0.5524
  931MOL0     C28372  12.141  -1.428   7.566  0.1179  0.3796 -0.0004
  931MOL0     C28373  12.168  -1.542   7.481  0.6182  0.2461 -0.4136
  931MOL0     C28374  12.137  -1.675   7.521 -0.1974 -0.7297  0.0868
  931MOL0     C28375  12.089  -1.691   7.649 -0.7216 -0.7432  0.4366
  931MOL0     O28376  12.075  -1.820   7.675  0.3071 -0.2413 -0.0613
  931MOL0     C28377  12.043  -1.860   7.812  0.1215 -0.6823 -0.0314
  931MOL0     C28378  12.070  -2.014   7.835  0.0937  1.1043  0.8853
  931MOL0     C28379  12.207  -2.068   7.786  0.3730 -0.1859  0.1553
  931MOL0     C28380  12.321  -2.018   7.883  0.1094  0.4094 -0.0594
  931MOL0     C28381  12.472  -2.047   7.829  0.3641 -0.0506  0.0316
  931MOL0     C28382  12.493  -1.976   7.693 -0.2397 -0.2961 -0.5202
  931MOL0     C28383  12.473  -1.825   7.682  0.5027  0.4027 -0.5238
  931MOL0     C28384  12.521  -1.750   7.552 -0.1302  0.5995  0.8375
  931MOL0    Cl28385  12.438  -1.832   7.410 -0.0402  0.5724 -0.0920
  931MOL0     C28386  12.063  -1.590   7.730 -1.0716 -0.3265 -0.0458
  931MOL0     C28387  12.084  -1.458   7.689 -0.6589  0.2259  0.6123
  931MOL0     O28388  12.380  -1.300   7.565  0.5000  0.2170  0.1358
  931MOL0     C28389  12.241  -1.079   7.333 -0.1471 -0.3168  0.0277
  931MOL0     C28390  12.248  -0.963   7.248 -0.0842  0.0041  0.8878
  931MOL0     N28391  12.138  -0.251   6.791  0.4289 -0.4798  0.0399
  931MOL0     N28392  12.100  -0.217   6.676  0.5085 -0.0959  0.0066
  931MOL0     C28393  11.513   0.139   5.794  0.4372 -0.0793 -0.0591
  931MOL0     C28394  11.415   0.239   5.779  0.9252 -0.1559  0.1515
  931MOL0     C28395  11.034   0.499   5.793  0.3458 -0.0252 -0.2975
  931MOL0     C28396  11.023   0.644   5.783 -0.5644  0.2001 -0.4806
  931MOL0     C28397  10.900   0.702   5.766  0.5310 -0.2820  0.3106
  931MOL0     C28398  10.782   0.625   5.726 -0.0009  0.1575 -0.5727
  931MOL0     O28399  10.654   0.665   5.706  0.1727 -0.2987  0.4420
  931MOL0     C28400  10.643   0.799   5.656 -0.1706 -0.5664 -0.0488
  931MOL0     C28401  10.621   0.891   5.782  0.2272  0.6180 -1.0865
  931MOL0     C28402  10.606   1.034   5.730  0.8733 -0.6871  0.0221
  931MOL0     C28403  10.733   1.101   5.706  0.3499  0.9766  1.1112
  931MOL0     C28404  10.711   1.245   5.688 -0.6602 -1.3114  0.3757
  931MOL0     C28405  10.704   1.368   5.682 -0.4001 -0.5359  0.2165
  931MOL0     C28406  10.787   0.481   5.742 -0.2468  0.1666 -0.2508
  931MOL0     C28407  10.914   0.418   5.777  0.0514 -0.5433  0.0336
  931MOL0     C28408  10.909   0.263   5.781 -0.2882  0.4815  0.8244
  931MOL0     H28409  11.247   0.209   6.078  1.6193  0.8497  1.2461
  931MOL0     H28410  11.438   0.033   6.107 -0.6838 -3.3496 -1.8707
  931MOL0     H28411  11.752  -0.023   5.784  0.0360 -1.9636  0.8412
  931MOL0     H28412  11.628  -0.140   5.801 -0.9084  0.0341  0.5701
  931MOL0     H28413  11.750  -0.194   6.049 -0.2348 -0.6245  0.5403
  931MOL0     H28414  11.812  -0.257   5.895 -2.1909  0.9005 -1.5429
  931MOL0     H28415  11.974  -0.052   5.900  3.3227  0.3589  1.4655
  931MOL0     H28416  11.892  -0.024   6.057 -0.4556 -0.5698  0.0481
  931MOL0     H28417  12.010  -0.300   6.004 -1.0787 -0.9967  3.2667
  931MOL0     H28418  12.110  -0.150   6.019 -1.0150  2.1516  0.6862
  931MOL0     H28419  11.922  -0.244   6.226 -0.7136  0.4459 -1.2868
  931MOL0     H28420  12.056  -0.143   6.257  0.0414 -0.4401  0.4809
  931MOL0     H28421  12.059  -0.436   6.219  0.0903 -0.1244 -0.0716
  931MOL0     H28422  12.200  -0.342   6.162 -1.4590  1.3158 -1.6255
  931MOL0     H28423  12.201  -0.240   6.414 -3.9613  1.1846  2.8347
  931MOL0     H28424  12.240  -0.413   6.404 -1.5040 -1.9591 -2.0941
  931MOL0     H28425  11.978  -0.271   6.445  1.4767  0.2832 -2.0033
  931MOL0     H28426  12.007  -0.449   6.460 -0.3204 -0.5181 -1.5066
  931MOL0     H28427  12.112  -0.546   6.663  0.6208  0.4392 -3.2738
  931MOL0     H28428  12.089  -0.487   6.992 -1.4336  0.4752 -2.4882
  931MOL0     H28429  12.233  -0.397   7.006 -2.6308  1.3640  1.0910
  931MOL0     H28430  12.259  -0.627   6.813 -0.7155 -2.3137  1.2292
  931MOL0     H28431  12.372  -0.558   6.916  0.7508 -2.2829 -1.9987
  931MOL0     H28432  12.127  -0.736   7.014  0.8659 -2.3643  1.6966
  931MOL0     H28433  12.280  -0.799   7.001  1.7865  1.4219  1.2101
  931MOL0     H28434  12.295  -0.582   7.181  3.2476 -1.3452 -1.8791
  931MOL0     H28435  12.174  -0.708   7.237 -1.3762  2.8037 -1.2686
  931MOL0     H28436  12.496  -0.817   7.429  0.2959 -1.2653  1.0816
  931MOL0     H28437  12.475  -1.101   7.672  2.3017 -3.7967 -0.5819
  931MOL0     H28438  12.523  -0.933   7.652  1.4212  0.6093 -1.9895
  931MOL0     H28439  12.600  -1.064   7.550 -1.4131 -2.2297 -1.3468
  931MOL0     H28440  12.216  -1.525   7.385  0.4284 -2.9165 -1.1951
  931MOL0     H28441  12.152  -1.759   7.455 -1.2893 -0.6829 -0.2408
  931MOL0     H28442  12.107  -1.809   7.884  0.4598  0.1813 -0.9206
  931MOL0     H28443  11.938  -1.840   7.830  0.1848 -1.3267  1.1128
  931MOL0     H28444  12.041  -2.049   7.934 -1.0478  2.2947  1.0039
  931MOL0     H28445  11.994  -2.067   7.776 -0.8485  1.8278  1.4111
  931MOL0     H28446  12.230  -2.057   7.679  0.0470  1.0468  0.1968
  931MOL0     H28447  12.213  -2.177   7.788  4.3044 -0.1864 -1.3911
  931MOL0     H28448  12.311  -2.075   7.975 -3.0155  0.0210 -0.5456
  931MOL0     H28449  12.311  -1.911   7.906  0.4584  0.1807  1.2325
  931MOL0     H28450  12.541  -2.011   7.906  1.8130 -1.1939 -0.6809
  931MOL0     H28451  12.486  -2.155   7.817  0.1227  0.0710 -1.5705
  931MOL0     H28452  12.422  -2.019   7.623 -1.7516  2.9961 -1.1866
  931MOL0     H28453  12.594  -2.003   7.660  0.0688 -0.1057  0.2237
  931MOL0     H28454  12.517  -1.790   7.776 -0.1214 -3.4547  1.3805
  931MOL0     H28455  12.367  -1.799   7.674  1.1571  2.9648 -1.9429
  931MOL0     H28456  12.630  -1.761   7.546 -0.0844 -0.2511  2.5306
  931MOL0     H28457  12.497  -1.643   7.549  0.0830  0.7224  2.5612
  931MOL0     H28458  12.028  -1.605   7.832  2.1796  3.8171  1.9816
  931MOL0     H28459  12.067  -1.376   7.758 -0.2742 -0.2410  1.2759
  931MOL0     H28460  12.167  -1.154   7.309  0.4091 -0.7001 -0.5016
  931MOL0     H28461  12.181  -0.955   7.163 -1.7207 -1.6189  1.9620
  931MOL0     H28462  11.595   0.132   5.724  1.6318  0.3415  1.2361
  931MOL0     H28463  11.409   0.291   5.684 -0.4117 -1.7441 -0.7018
  931MOL0     H28464  11.118   0.694   5.797  0.2754 -1.9178  2.4834
  931MOL0     H28465  10.881   0.808   5.777  0.9265  0.1276 -2.3416
  931MOL0     H28466  10.740   0.822   5.611  0.1034  3.1104  2.0435
  931MOL0     H28467  10.563   0.824   5.585 -0.9343  0.4992  1.1464
  931MOL0     H28468  10.703   0.882   5.854 -1.2083  0.1952  0.5649
  931MOL0     H28469  10.525   0.858   5.824  1.7275 -4.2504 -0.8602
  931MOL0     H28470  10.559   1.041   5.631 -0.2650 -1.0963  0.5253
  931MOL0     H28471  10.552   1.099   5.799 -1.7653 -2.3012 -0.3875
  931MOL0     H28472  10.782   1.059   5.618 -1.8150  0.8670 -0.0924
  931MOL0     H28473  10.799   1.083   5.792  2.9619  1.1948 -0.7486
  931MOL0     H28474  10.680   1.472   5.679  1.8822  0.0431  0.7520
  931MOL0     H28475  10.694   0.424   5.744  0.4840 -1.0752 -0.1164
  931MOL0     H28476  10.895   0.242   5.888  1.8106 -1.8004  0.7448
  931MOL0     H28477  10.819   0.230   5.729  0.1576 -1.2106  1.0553
  931MOL0     H28478  10.991   0.211   5.731  0.4756  0.7950  1.7160
  932MOL0     O28479   7.169   6.469   0.556  0.5003  0.1316 -0.6176
  932MOL0     C28480   7.106   6.446   0.453 -0.0031 -0.5568 -1.1149
  932MOL0     O28481   7.132   6.499   0.334 -0.2953 -0.5509  0.2599
  932MOL0     C28482   7.220   6.604   0.330 -0.2424  0.2814  0.0960
  932MOL0     C28483   7.199   6.733   0.391 -0.6556 -0.1358  0.8351
  932MOL0     C28484   7.307   6.829   0.377 -0.3378 -0.0751  0.4280
  932MOL0     C28485   7.424   6.796   0.297 -0.2857 -1.1384 -0.6169
  932MOL0     O28486   7.536   6.873   0.280 -0.9918  0.6957  0.3107
  932MOL0     C28487   7.570   6.964   0.376 -0.4801  0.7446 -0.2518
  932MOL0     C28488   7.528   7.095   0.322 -0.2785 -0.5645 -0.5957
  932MOL0     C28489   7.612   7.201   0.415  0.2345 -0.0392  0.2072
  932MOL0     C28490   7.550   7.343   0.383  0.4816  0.9219  0.0845
  932MOL0     C28491   7.616   7.454   0.461 -0.1896  0.0949  0.3905
  932MOL0     C28492   7.522   7.572   0.495 -0.1745  0.2172 -0.8647
  932MOL0     C28493   7.598   7.703   0.527  0.1575  0.4328 -0.4902
  932MOL0     C28494   7.697   7.685   0.644  0.4889 -0.4403 -0.4769
  932MOL0     N28495   7.719   7.818   0.708  0.0263 -0.1673  0.6954
  932MOL0     C28496   7.774   7.918   0.635  0.0042 -0.0059  0.1726
  932MOL0     C28497   7.774   8.028   0.716 -0.3687 -0.6215 -1.0009
  932MOL0     C28498   7.820   8.164   0.688  0.3266  0.2171 -0.0548
  932MOL0     C28499   7.746   8.203   0.564 -0.1550 -0.4032  0.2740
  932MOL0     C28500   7.722   8.357   0.550 -0.5988 -0.9322  0.2186
  932MOL0     C28501   7.849   8.440   0.571 -0.8541 -0.8661 -0.7073
  932MOL0     O28502   7.962   8.374   0.515  0.2100 -0.0047  0.2498
  932MOL0     C28503   8.080   8.430   0.530 -0.4135  0.4940  0.9478
  932MOL0     C28504   8.180   8.340   0.491  0.1932  0.1945  0.4343
  932MOL0     C28505   8.310   8.387   0.493  0.1709  1.1350  1.0206
  932MOL0     C28506   8.420   8.287   0.469  0.6755 -0.0876 -0.8541
  932MOL0     C28507   8.342   8.517   0.528 -0.3371 -0.5834  0.6984
  932MOL0     C28508   8.481   8.583   0.506 -0.3481 -0.2367  0.3291
  932MOL0     O28509   8.490   8.700   0.569 -0.2222 -0.0417 -0.4914
  932MOL0     C28510   8.558   8.807   0.527  0.9192  0.1349 -0.6327
  932MOL0     C28511   8.611   8.883   0.631 -0.6690  0.4101 -0.0299
  932MOL0     C28512   8.701   8.991   0.606 -0.2671  0.0663 -1.1180
  932MOL0     C28513   8.731   9.032   0.471  0.3448  0.5168  0.3759
  932MOL0     O28514   8.821   9.128   0.428  0.2166  0.3041  0.0820
  932MOL0     C28515   8.920   9.174   0.527  1.1362  0.2988 -0.6938
  932MOL0     C28516   9.057   9.230   0.480 -0.7069 -0.1964  0.5120
  932MOL0     C28517   9.039   9.345   0.379  0.2623 -0.3506 -0.1956
  932MOL0     C28518   9.157   9.365   0.288 -1.0485  0.7755 -0.3927
  932MOL0     C28519   9.117   9.451   0.170 -0.8495  0.8047 -0.0174
  932MOL0     C28520   9.109   9.598   0.206  0.1459 -0.9766 -0.6302
  932MOL0     C28521   9.079   9.684   0.084 -1.2589  0.2249 -0.2446
  932MOL0     C28522   9.110   9.837   0.092 -0.5738 -0.0124 -0.1091
  932MOL0    Cl28523   9.004   9.904   0.224 -0.1414  0.0129 -0.5388
  932MOL0     C28524   8.671   8.952   0.369 -0.3425 -0.1311 -0.5310
  932MOL0     C28525   8.579   8.850   0.397  0.1137 -0.9337  0.5650
  932MOL0     O28526   8.564   8.530   0.428 -0.4532 -0.4654 -0.2077
  932MOL0     C28527   8.237   8.609   0.559  0.3131  0.8403  0.7868
  932MOL0     C28528   8.104   8.564   0.564  0.0807  0.1057 -0.3478
  932MOL0     N28529   7.715   7.986   0.834  0.5592  0.1502  0.0571
  932MOL0     N28530   7.692   7.860   0.830  0.5369 -0.1329  0.6096
  932MOL0     C28531   7.432   6.670   0.234 -0.2904 -0.0436  0.3359
  932MOL0     C28532   7.326   6.582   0.248 -0.0499 -0.3487 -0.8647
  932MOL0     C28533   6.996   6.344   0.461  0.8142 -0.0917  0.4387
  932MOL0     C28534   6.964   6.265   0.353  0.0170  0.2691  0.2023
  932MOL0     C28535   6.863   6.173   0.347 -0.3419 -0.2514  0.4580
  932MOL0     C28536   6.788   6.136   0.465 -0.5540  0.3707 -0.2588
  932MOL0     O28537   6.688   6.044   0.469  0.5429  0.5836 -1.0828
  932MOL0     C28538   6.655   5.991   0.593 -0.2118 -0.0370  0.2850
  932MOL0     C28539   6.529   6.065   0.644  0.0637  1.2770 -0.8963
  932MOL0     C28540   6.486   6.005   0.779 -0.2940 -0.2072 -0.6058
  932MOL0     C28541   6.524   6.090   0.906 -0.7313 -0.1759 -0.3451
  932MOL0     C28542   6.668   6.073   0.932 -0.7611 -0.5305 -0.6043
  932MOL0     C28543   6.786   6.073   0.966 -0.1614  0.9673 -0.7481
  932MOL0     C28544   6.823   6.223   0.571 -0.0425  0.8949 -0.4621
  932MOL0     C28545   6.928   6.324   0.575  0.8085 -0.6047  0.5867
  932MOL0     C28546   6.936   6.392   0.703 -0.1002  0.1614  0.4044
  932MOL0     H28547   7.115   6.747   0.458 -0.8402  2.5238  0.1679
  932MOL0     H28548   7.300   6.929   0.419  0.3424  1.1629 -2.1857
  932MOL0     H28549   7.678   6.955   0.389 -0.8121 -2.2596  1.0115
  932MOL0     H28550   7.530   6.930   0.471  1.5317 -1.0085  0.0493
  932MOL0     H28551   7.564   7.124   0.223  1.4746 -0.1280  0.1288
  932MOL0     H28552   7.419   7.102   0.329 -0.1218 -0.0224  2.4970
  932MOL0     H28553   7.592   7.165   0.517 -2.6331  0.8826  0.0644
  932MOL0     H28554   7.718   7.192   0.392  0.8104  2.8318  1.3353
  932MOL0     H28555   7.559   7.364   0.276  0.9064  0.8572  0.1075
  932MOL0     H28556   7.446   7.332   0.416  0.9336  1.1004  1.6567
  932MOL0     H28557   7.696   7.497   0.400 -1.3093  2.4246  0.4354
  932MOL0     H28558   7.673   7.408   0.542 -0.2060 -1.4790 -0.4433
  932MOL0     H28559   7.453   7.594   0.413 -2.1495  2.8608  1.3103
  932MOL0     H28560   7.459   7.544   0.580  0.8495 -1.6545 -0.6794
  932MOL0     H28561   7.531   7.779   0.568  1.7474  1.1870  0.8230
  932MOL0     H28562   7.646   7.742   0.437  0.5687  0.0942 -0.4147
  932MOL0     H28563   7.662   7.607   0.712 -0.4771 -0.4856 -1.0091
  932MOL0     H28564   7.796   7.645   0.618  0.1764 -2.4131  1.1968
  932MOL0     H28565   7.813   7.920   0.534 -0.5864 -3.0864 -0.2030
  932MOL0     H28566   7.928   8.162   0.674  0.1407  2.7054 -3.0450
  932MOL0     H28567   7.810   8.239   0.768  0.8200  1.0540 -0.7672
  932MOL0     H28568   7.807   8.153   0.488 -1.6541 -2.1572  0.1526
  932MOL0     H28569   7.646   8.159   0.553 -1.2268  2.0867 -0.6510
  932MOL0     H28570   7.682   8.374   0.450 -0.3127 -0.3195  0.2022
  932MOL0     H28571   7.658   8.399   0.628  0.1047 -2.4862  1.7120
  932MOL0     H28572   7.833   8.544   0.539  0.7871 -0.2364  0.3923
  932MOL0     H28573   7.864   8.453   0.679 -3.1015  1.4366 -0.5621
  932MOL0     H28574   8.152   8.239   0.463 -3.6905  0.9626  0.8807
  932MOL0     H28575   8.384   8.186   0.489 -2.8326  1.7297  3.6421
  932MOL0     H28576   8.498   8.310   0.542  2.6232  1.2780 -3.2222
  932MOL0     H28577   8.455   8.297   0.366  0.5622 -0.6463 -0.9512
  932MOL0     H28578   8.591   8.869   0.737  3.2050  1.4042  1.0095
  932MOL0     H28579   8.727   9.054   0.691  0.5875 -1.7203  0.0220
  932MOL0     H28580   8.875   9.256   0.583  0.2295  0.7133 -1.9908
  932MOL0     H28581   8.942   9.087   0.590 -4.7318 -3.4233 -2.9382
  932MOL0     H28582   9.121   9.254   0.565  2.8670  0.1185 -2.0457
  932MOL0     H28583   9.111   9.148   0.431 -0.5526  0.5062 -0.5206
  932MOL0     H28584   9.027   9.433   0.444  1.6346  0.3546 -0.8506
  932MOL0     H28585   8.948   9.324   0.322 -1.0784  2.5657  0.6330
  932MOL0     H28586   9.194   9.273   0.241  0.2309  1.6810 -1.2251
  932MOL0     H28587   9.254   9.395   0.329 -0.9964 -0.9611  0.8404
  932MOL0     H28588   9.198   9.449   0.096 -0.4039  1.0923  0.4625
  932MOL0     H28589   9.028   9.403   0.127 -0.8709 -0.3539  1.2655
  932MOL0     H28590   9.207   9.623   0.248 -0.8706  0.7898  0.8314
  932MOL0     H28591   9.031   9.618   0.280  1.6792 -0.6027  0.9370
  932MOL0     H28592   8.972   9.671   0.065 -0.9988 -1.9540 -0.4129
  932MOL0     H28593   9.136   9.652  -0.004 -1.2458  0.6100 -0.3822
  932MOL0     H28594   9.073   9.893   0.006  1.1092 -1.8741 -2.1681
  932MOL0     H28595   9.218   9.845   0.111 -0.4858 -0.9254 -0.1669
  932MOL0     H28596   8.685   8.981   0.266 -1.5261  3.4331  0.1626
  932MOL0     H28597   8.529   8.799   0.315  4.3633 -0.5411 -2.5694
  932MOL0     H28598   8.254   8.714   0.578 -1.7200  1.2370  0.6104
  932MOL0     H28599   8.020   8.632   0.562  1.3616  1.7260 -1.8438
  932MOL0     H28600   7.515   6.664   0.165  0.3362 -1.0729  1.1451
  932MOL0     H28601   7.332   6.498   0.179  2.4116  0.1826 -1.3887
  932MOL0     H28602   7.017   6.295   0.263  0.0676 -1.9201 -0.5599
  932MOL0     H28603   6.843   6.121   0.253 -1.0392  1.0666 -0.1473
  932MOL0     H28604   6.640   5.883   0.582  1.4480  0.0036 -4.1551
  932MOL0     H28605   6.743   5.991   0.659  1.4540 -0.5446 -1.8210
  932MOL0     H28606   6.451   6.043   0.571 -1.5400  1.7197  0.6068
  932MOL0     H28607   6.562   6.169   0.647  2.1824  0.6775 -1.8433
  932MOL0     H28608   6.377   5.995   0.778 -0.2131 -1.2292 -1.9199
  932MOL0     H28609   6.517   5.901   0.788  0.1363 -0.2654 -2.3009
  932MOL0     H28610   6.467   6.057   0.992  0.1111 -1.1314 -0.1310
  932MOL0     H28611   6.515   6.198   0.890 -1.9906 -0.0129  1.2687
  932MOL0     H28612   6.876   6.061   1.023 -1.1958 -3.2146  0.3654
  932MOL0     H28613   6.777   6.208   0.668  0.2807  0.4863 -0.3683
  932MOL0     H28614   6.860   6.349   0.768 -0.8008  0.0305 -0.4766
  932MOL0     H28615   7.032   6.380   0.754  1.0917  0.5576 -1.6330
  932MOL0     H28616   6.925   6.498   0.682  2.8898  0.0877 -2.4208
  933MOL0     O28617   2.202   6.236   5.165  0.8153 -0.2385 -0.3220
  933MOL0     C28618   2.221   6.199   5.058 -0.0132 -0.1333 -0.2602
  933MOL0     O28619   2.172   6.262   4.950 -1.5220 -0.7507 -1.0214
  933MOL0     C28620   2.138   6.390   4.953  0.2988  0.1592 -0.1230
  933MOL0     C28621   2.008   6.416   4.906 -0.4631 -0.2354 -0.1898
  933MOL0     C28622   1.951   6.548   4.920 -0.1368  0.7959 -0.4191
  933MOL0     C28623   2.026   6.651   4.985  0.0339  0.4761  0.0107
  933MOL0     O28624   1.974   6.774   5.011 -0.2085 -0.8117 -0.6474
  933MOL0     C28625   2.018   6.872   5.100  0.6830  0.0679 -0.4258
  933MOL0     C28626   1.957   7.009   5.057  0.1930 -0.0358  0.7516
  933MOL0     C28627   1.809   6.996   5.036  0.4442  0.5021  0.0072
  933MOL0     C28628   1.739   7.141   5.035  0.6029 -0.3960 -0.0803
  933MOL0     C28629   1.593   7.132   5.012  0.0931  0.5011  0.3131
  933MOL0     C28630   1.559   7.135   4.868  0.6876 -0.5121 -0.1910
  933MOL0     C28631   1.401   7.141   4.826  0.3775 -0.7345 -1.3739
  933MOL0     C28632   1.304   7.217   4.912  0.2403  0.0713 -0.4972
  933MOL0     N28633   1.165   7.200   4.869 -0.1708  0.9293  0.5141
  933MOL0     C28634   1.089   7.281   4.787 -1.0501  0.0439  0.3822
  933MOL0     C28635   0.997   7.201   4.745 -0.8151  0.7599 -0.7437
  933MOL0     C28636   0.885   7.230   4.639 -0.5953  0.6455  0.6661
  933MOL0     C28637   0.816   7.100   4.585 -1.0006  0.2540  1.0237
  933MOL0     C28638   0.912   6.999   4.513  0.1575  0.3949  0.6922
  933MOL0     C28639   0.957   7.066   4.379  1.0153  0.7143  0.3729
  933MOL0     O28640   1.013   6.959   4.302 -0.4118  0.0227  0.6575
  933MOL0     C28641   1.133   6.900   4.338 -0.2327 -0.3477 -0.7410
  933MOL0     C28642   1.167   6.792   4.256 -0.9716 -0.3199  0.3659
  933MOL0     C28643   1.262   6.694   4.288  0.1297  0.5018  1.2025
  933MOL0     C28644   1.276   6.582   4.186 -0.2519 -0.3427  0.3587
  933MOL0     C28645   1.334   6.700   4.413 -0.3990  0.1063 -1.8000
  933MOL0     C28646   1.448   6.607   4.458  0.0098 -0.3941 -0.4127
  933MOL0     O28647   1.491   6.626   4.588  0.7842  0.6431 -0.0537
  933MOL0     C28648   1.533   6.510   4.650  0.0110 -0.1108  0.4361
  933MOL0     C28649   1.672   6.485   4.633 -0.3781 -0.3711 -0.1095
  933MOL0     C28650   1.718   6.362   4.677 -1.0826  0.1983 -0.8533
  933MOL0     C28651   1.641   6.270   4.740 -0.1131 -0.8850 -0.2285
  933MOL0     O28652   1.714   6.169   4.806  0.0144 -0.7368 -0.3036
  933MOL0     C28653   1.661   6.104   4.922 -0.0083 -0.9109 -0.3287
  933MOL0     C28654   1.746   5.985   4.951 -0.1203  0.5127  0.0023
  933MOL0     C28655   1.731   5.924   5.093  0.4899  0.6857 -0.4450
  933MOL0     C28656   1.718   6.024   5.201  0.0280 -0.3282  0.0657
  933MOL0     C28657   1.853   6.101   5.224 -0.0217 -0.1002  1.6880
  933MOL0     C28658   1.886   6.172   5.357  0.3963 -0.2942 -0.3958
  933MOL0     C28659   1.931   6.070   5.472  0.0227 -0.0784 -0.1714
  933MOL0     C28660   1.995   6.155   5.580  0.4435  0.0962  0.0565
  933MOL0    Cl28661   2.042   6.058   5.724  0.0908  0.6357 -0.1780
  933MOL0     C28662   1.496   6.291   4.755 -0.4558 -0.3892 -0.1174
  933MOL0     C28663   1.441   6.417   4.701  0.1686  0.9357 -0.3073
  933MOL0     O28664   1.466   6.509   4.386 -0.5608  0.3953  0.1713
  933MOL0     C28665   1.309   6.819   4.491 -0.5787  0.1336  0.9811
  933MOL0     C28666   1.212   6.917   4.452 -0.7558 -0.0544 -0.0005
  933MOL0     N28667   1.012   7.074   4.805  0.2020 -0.2952  0.1732
  933MOL0     N28668   1.101   7.078   4.890  0.3619  0.2096 -0.0002
  933MOL0     C28669   2.153   6.618   5.016  0.1641 -0.2539 -0.5721
  933MOL0     C28670   2.214   6.499   5.008  0.3149  0.2261  1.1114
  933MOL0     C28671   2.308   6.075   5.052  1.0308 -0.2799 -0.5742
  933MOL0     C28672   2.389   6.063   4.937 -0.3031 -0.4046 -0.9661
  933MOL0     C28673   2.490   5.963   4.934 -0.1494 -0.2297  0.2389
  933MOL0     C28674   2.507   5.869   5.028  0.3151  0.1426  0.7507
  933MOL0     O28675   2.586   5.756   5.014 -0.2949  0.3805 -0.0749
  933MOL0     C28676   2.642   5.721   4.885  0.7188  0.0127  0.0453
  933MOL0     C28677   2.534   5.636   4.804 -1.1887 -0.1026 -0.7707
  933MOL0     C28678   2.533   5.496   4.863  0.1996 -1.2838  0.7820
  933MOL0     C28679   2.435   5.419   4.785 -0.4743 -0.0887 -0.2618
  933MOL0     C28680   2.361   5.318   4.869 -1.1795  0.4016 -0.6070
  933MOL0     C28681   2.305   5.224   4.921  0.2524 -0.0147  0.1284
  933MOL0     C28682   2.439   5.887   5.151  0.5015 -0.0671 -0.1061
  933MOL0     C28683   2.330   5.983   5.156  1.0413 -0.7570  0.0394
  933MOL0     C28684   2.250   5.980   5.282  0.6017  0.3801  0.5051
  933MOL0     H28685   1.949   6.330   4.877 -1.0432  1.2660 -3.9804
  933MOL0     H28686   1.852   6.570   4.881 -0.5310  0.5123  0.4077
  933MOL0     H28687   2.127   6.874   5.111  0.5726 -1.8948  1.7718
  933MOL0     H28688   1.976   6.843   5.196  0.4419 -1.4318 -0.9515
  933MOL0     H28689   1.983   7.093   5.122  2.7602  0.6122 -0.9601
  933MOL0     H28690   2.011   7.052   4.972  0.8035  0.0708  1.1845
  933MOL0     H28691   1.798   6.945   4.940 -3.7139  1.9336 -0.4723
  933MOL0     H28692   1.776   6.936   5.121  2.4517 -1.1130 -0.2876
  933MOL0     H28693   1.761   7.185   5.133  0.1850 -2.7625  1.1376
  933MOL0     H28694   1.787   7.213   4.967 -0.1236  1.3011  1.1267
  933MOL0     H28695   1.549   7.220   5.061 -3.3768 -0.3860 -0.9295
  933MOL0     H28696   1.548   7.044   5.058  0.1600 -0.3543 -1.2063
  933MOL0     H28697   1.596   7.232   4.834  0.4739 -1.7966 -4.7066
  933MOL0     H28698   1.606   7.059   4.806  1.2166  1.0459 -1.7607
  933MOL0     H28699   1.360   7.040   4.830 -1.7420  0.0709  1.1300
  933MOL0     H28700   1.391   7.175   4.723 -2.5686 -1.6248 -1.4904
  933MOL0     H28701   1.312   7.188   5.017 -0.0686  0.0613 -0.4731
  933MOL0     H28702   1.325   7.324   4.906 -3.0323  1.3747  4.4203
  933MOL0     H28703   1.104   7.382   4.749  1.2932 -0.8192 -1.2149
  933MOL0     H28704   0.929   7.283   4.555 -0.8260 -1.1346 -0.6364
  933MOL0     H28705   0.810   7.291   4.690 -0.3391 -1.3979  3.8094
  933MOL0     H28706   0.776   7.039   4.666 -0.6581 -2.1560 -0.5241
  933MOL0     H28707   0.741   7.135   4.513 -3.1720 -0.7985  2.6689
  933MOL0     H28708   0.999   6.976   4.574 -0.1891  0.2279  1.1338
  933MOL0     H28709   0.862   6.903   4.496 -2.5223  1.6787  0.7784
  933MOL0     H28710   0.876   7.106   4.317 -1.5453 -2.7236  1.1452
  933MOL0     H28711   1.032   7.144   4.392  2.5390 -0.2148 -2.1104
  933MOL0     H28712   1.119   6.794   4.159  3.0235 -2.8765 -1.9573
  933MOL0     H28713   1.378   6.598   4.151 -1.2412  2.9447 -1.4679
  933MOL0     H28714   1.208   6.606   4.104 -1.1390  1.2582  1.4983
  933MOL0     H28715   1.258   6.482   4.226  0.7089 -0.3088  0.9100
  933MOL0     H28716   1.736   6.562   4.592 -0.3679 -1.5307 -2.4140
  933MOL0     H28717   1.823   6.338   4.664 -1.6244 -2.2916 -1.0573
  933MOL0     H28718   1.674   6.173   5.006  0.6326 -1.6675  0.2052
  933MOL0     H28719   1.558   6.074   4.901  0.0513 -2.4539  1.4020
  933MOL0     H28720   1.737   5.912   4.870  1.4551 -1.9461  1.9166
  933MOL0     H28721   1.851   6.015   4.948 -0.5501  2.0986 -2.2655
  933MOL0     H28722   1.820   5.867   5.122 -0.4607  0.9579  3.4964
  933MOL0     H28723   1.637   5.869   5.100 -1.1580  3.4538  0.7864
  933MOL0     H28724   1.692   5.968   5.291  0.7341  1.0617  1.1832
  933MOL0     H28725   1.635   6.095   5.190  0.0228 -0.0062  1.8570
  933MOL0     H28726   1.938   6.034   5.208  1.1078  1.1201  2.3194
  933MOL0     H28727   1.857   6.176   5.145  2.6807  0.0552  1.8892
  933MOL0     H28728   1.797   6.216   5.404 -1.6692  0.2240 -4.4108
  933MOL0     H28729   1.961   6.247   5.334  0.1920  0.8560  2.3235
  933MOL0     H28730   2.007   5.997   5.444  0.6141 -0.2206  1.6513
  933MOL0     H28731   1.845   6.015   5.511  0.8883 -0.1241  1.7942
  933MOL0     H28732   1.927   6.232   5.617  1.0728  0.0015  1.4521
  933MOL0     H28733   2.092   6.188   5.542 -0.0394 -1.5880 -2.9773
  933MOL0     H28734   1.430   6.238   4.822 -1.6009  2.0022  0.7720
  933MOL0     H28735   1.338   6.448   4.707 -0.4982 -1.3250  1.4187
  933MOL0     H28736   1.379   6.851   4.568 -0.1520  0.9144  0.2879
  933MOL0     H28737   1.211   7.009   4.510  1.3406 -0.8166  1.3846
  933MOL0     H28738   2.207   6.691   5.076 -1.3932 -0.3989  1.0907
  933MOL0     H28739   2.313   6.466   5.038  1.0287 -0.0057 -1.2973
  933MOL0     H28740   2.368   6.135   4.858 -3.9765  0.8890  0.9672
  933MOL0     H28741   2.540   5.961   4.838 -1.0703 -1.1335 -0.2338
  933MOL0     H28742   2.664   5.805   4.818 -1.7886 -2.5501 -4.4754
  933MOL0     H28743   2.725   5.653   4.907  1.6366  0.2196 -2.5173
  933MOL0     H28744   2.564   5.627   4.700  1.2461 -1.5916 -0.0299
  933MOL0     H28745   2.441   5.693   4.813  0.3614  2.1935  3.0620
  933MOL0     H28746   2.635   5.457   4.865  1.5595  1.8792 -1.0426
  933MOL0     H28747   2.490   5.512   4.963 -0.3813 -0.6003  0.4306
  933MOL0     H28748   2.494   5.372   4.706  0.0398  0.3258 -0.1293
  933MOL0     H28749   2.356   5.485   4.749  1.5568  3.8688  1.8863
  933MOL0     H28750   2.258   5.139   4.965 -0.7779  0.3354 -0.2619
  933MOL0     H28751   2.454   5.818   5.232 -0.5118  0.9227  0.9685
  933MOL0     H28752   2.156   6.036   5.282  1.0548  1.2691 -1.7064
  933MOL0     H28753   2.241   5.873   5.303  1.2490  0.4590  1.1917
  933MOL0     H28754   2.308   6.031   5.359 -1.5863  1.7259  1.3575
  934MOL0     O28755   2.487   7.779   5.247  0.1536 -0.1498  0.5609
  934MOL0     C28756   2.555   7.717   5.325  0.5177  0.1934  0.3142
  934MOL0     O28757   2.664   7.647   5.290 -1.0744  0.5388 -0.0487
  934MOL0     C28758   2.706   7.651   5.157 -0.3078 -0.0186 -1.0508
  934MOL0     C28759   2.736   7.766   5.092 -1.1236 -0.3194 -0.4302
  934MOL0     C28760   2.768   7.790   4.965 -0.4900 -0.5356  0.3858
  934MOL0     C28761   2.771   7.678   4.882  0.0525 -0.0252  0.1987
  934MOL0     O28762   2.795   7.692   4.746 -0.2130 -0.3953 -0.8690
  934MOL0     C28763   2.865   7.815   4.714  0.2767  1.4482  0.2706
  934MOL0     C28764   2.891   7.823   4.560  0.0445  0.7585 -0.0245
  934MOL0     C28765   2.993   7.926   4.529  0.1277  0.1426 -0.1998
  934MOL0     C28766   3.037   7.920   4.380  0.3037  0.6594  0.0526
  934MOL0     C28767   3.131   8.036   4.345  0.3412  0.8065  0.6038
  934MOL0     C28768   3.266   8.024   4.413  0.5180  0.0214  0.2361
  934MOL0     C28769   3.356   8.147   4.397 -0.2409 -0.4289 -0.8015
  934MOL0     C28770   3.505   8.109   4.444  0.5541  0.3581  1.2048
  934MOL0     N28771   3.584   8.063   4.338 -0.4123  0.4687  1.0399
  934MOL0     C28772   3.616   8.117   4.213  0.1218  0.0897  0.2428
  934MOL0     C28773   3.702   8.024   4.159  0.4252 -0.3636  0.3996
  934MOL0     C28774   3.789   8.040   4.047  0.4380 -0.9241  0.6875
  934MOL0     C28775   3.755   7.950   3.936 -0.3746 -1.0942 -0.6756
  934MOL0     C28776   3.870   7.934   3.835  0.2600  0.5139  0.2030
  934MOL0     C28777   3.862   7.801   3.763 -0.3960 -0.6278 -0.3007
  934MOL0     O28778   3.725   7.762   3.726  0.1564  0.2475 -0.8955
  934MOL0     C28779   3.702   7.708   3.602  0.2119  0.0747 -0.0190
  934MOL0     C28780   3.790   7.628   3.536 -0.1995 -0.1397 -0.0297
  934MOL0     C28781   3.759   7.557   3.422 -0.3098  0.6803  0.4840
  934MOL0     C28782   3.872   7.474   3.365 -0.8462  0.2959 -0.7459
  934MOL0     C28783   3.628   7.578   3.359 -1.7291 -0.5320 -0.3643
  934MOL0     C28784   3.584   7.518   3.231 -0.4743 -0.3143  0.2019
  934MOL0     O28785   3.450   7.553   3.200  0.1842 -0.2247  0.1587
  934MOL0     C28786   3.380   7.507   3.092  0.3111 -0.2718 -0.5108
  934MOL0     C28787   3.406   7.553   2.960  0.3533  0.7958  0.4034
  934MOL0     C28788   3.311   7.527   2.858 -0.3216 -0.0744  0.9525
  934MOL0     C28789   3.202   7.442   2.888  0.0902 -0.0226 -0.7587
  934MOL0     O28790   3.109   7.416   2.788 -0.0548 -0.4942 -0.4317
  934MOL0     C28791   3.074   7.289   2.753 -0.6266  0.0602  0.1973
  934MOL0     C28792   3.192   7.204   2.698  0.7510 -0.6808 -0.2677
  934MOL0     C28793   3.140   7.074   2.639 -0.5109 -0.6059 -0.6882
  934MOL0     C28794   3.057   7.085   2.511 -0.3519 -0.3230 -0.1352
  934MOL0     C28795   2.964   6.966   2.491  0.0494  0.4722  0.3843
  934MOL0     C28796   2.865   7.000   2.383 -0.6454  0.0887 -0.4477
  934MOL0     C28797   2.780   6.873   2.346  0.6320  0.0677  0.1882
  934MOL0     C28798   2.843   6.772   2.265 -0.5002  0.6850  0.2752
  934MOL0    Cl28799   2.815   6.826   2.092  0.2570  0.1007 -0.1608
  934MOL0     C28800   3.172   7.408   3.026  0.5611  0.1227  0.0581
  934MOL0     C28801   3.257   7.447   3.128  0.7776 -1.1749  0.0562
  934MOL0     O28802   3.649   7.438   3.162 -0.2117 -0.6485  0.0317
  934MOL0     C28803   3.539   7.667   3.431 -0.8483 -0.2108  0.9076
  934MOL0     C28804   3.579   7.732   3.549  0.2967  1.4996  0.2802
  934MOL0     N28805   3.705   7.915   4.241 -0.9046 -0.6627  0.5428
  934MOL0     N28806   3.640   7.936   4.348  0.1333 -0.2249 -0.0057
  934MOL0     C28807   2.734   7.549   4.934 -0.8066  0.5040  0.3103
  934MOL0     C28808   2.704   7.541   5.067 -0.1168  0.2760  0.2463
  934MOL0     C28809   2.521   7.744   5.468  0.8704  1.3210  0.3346
  934MOL0     C28810   2.627   7.740   5.560 -0.3400  0.1716 -0.1308
  934MOL0     C28811   2.611   7.774   5.691  0.9738  0.8860  0.1972
  934MOL0     C28812   2.482   7.814   5.733  0.4774  0.1282  0.8272
  934MOL0     O28813   2.461   7.859   5.861  0.0851 -0.3364 -0.5984
  934MOL0     C28814   2.522   7.793   5.972  0.9326  0.3228  0.4638
  934MOL0     C28815   2.550   7.884   6.089 -0.1763  0.6410 -0.0738
  934MOL0     C28816   2.681   7.969   6.090  1.2188  1.0809  0.1835
  934MOL0     C28817   2.668   8.055   5.970 -0.0583  0.2760 -0.0457
  934MOL0     C28818   2.760   8.177   5.990 -0.0372  0.9023 -0.0592
  934MOL0     C28819   2.834   8.275   6.010  1.7114 -0.8219  0.0243
  934MOL0     C28820   2.376   7.819   5.645 -0.6058  0.5821 -0.0909
  934MOL0     C28821   2.388   7.771   5.514  0.4334  0.4131  0.5837
  934MOL0     C28822   2.267   7.770   5.434  0.8117  0.2506  0.8400
  934MOL0     H28823   2.742   7.855   5.154  1.0283 -0.9551  0.3822
  934MOL0     H28824   2.802   7.891   4.942 -1.3741 -0.4664 -0.7143
  934MOL0     H28825   2.960   7.806   4.768 -0.4138 -1.8236  1.1418
  934MOL0     H28826   2.797   7.899   4.730 -2.2050 -0.6827  1.7082
  934MOL0     H28827   2.926   7.728   4.520  0.3181  2.3245 -3.9914
  934MOL0     H28828   2.799   7.842   4.503  0.6061  0.8340 -0.9200
  934MOL0     H28829   2.968   8.028   4.559 -0.1797 -0.1651  0.6320
  934MOL0     H28830   3.072   7.890   4.595 -0.0819 -0.9976 -0.5431
  934MOL0     H28831   3.096   7.832   4.352  0.9908  0.9733  0.4792
  934MOL0     H28832   2.951   7.931   4.313 -0.8649 -1.1170  1.1643
  934MOL0     H28833   3.086   8.129   4.380 -2.1777 -1.1475  3.0036
  934MOL0     H28834   3.134   8.041   4.236  0.0688 -0.1116  0.5475
  934MOL0     H28835   3.278   8.009   4.520  3.0436  0.4587  0.0744
  934MOL0     H28836   3.302   7.934   4.363 -3.4759 -0.3903 -2.4254
  934MOL0     H28837   3.340   8.237   4.457  1.2505 -1.4959  1.3152
  934MOL0     H28838   3.363   8.173   4.291  1.2812 -3.1086 -1.4346
  934MOL0     H28839   3.562   8.196   4.479  0.5157  0.5073  0.9041
  934MOL0     H28840   3.498   8.025   4.514 -3.3456  0.3202  1.0198
  934MOL0     H28841   3.581   8.214   4.180 -2.2725 -1.9695 -4.1485
  934MOL0     H28842   3.884   8.002   4.084 -0.0702 -0.0489  3.0868
  934MOL0     H28843   3.799   8.145   4.016  1.7600 -1.8896 -2.4862
  934MOL0     H28844   3.716   7.857   3.978  3.3089 -1.2325  3.0801
  934MOL0     H28845   3.674   7.996   3.878 -1.5877  1.3245  2.6278
  934MOL0     H28846   3.856   8.008   3.755 -3.3249  0.0704  0.2417
  934MOL0     H28847   3.967   7.936   3.884  0.9592 -1.0833 -1.0233
  934MOL0     H28848   3.926   7.807   3.674  0.4911 -0.3032  0.3403
  934MOL0     H28849   3.908   7.727   3.829 -0.6544 -1.8827 -1.4750
  934MOL0     H28850   3.887   7.608   3.580 -0.3122  1.7113  1.1866
  934MOL0     H28851   3.857   7.368   3.390 -2.6404  0.5303 -0.6802
  934MOL0     H28852   3.970   7.507   3.400  0.9723 -4.2160 -0.9118
  934MOL0     H28853   3.867   7.474   3.256  0.8547  1.1044 -0.8456
  934MOL0     H28854   3.491   7.616   2.932  0.7899  1.3956  2.8958
  934MOL0     H28855   3.317   7.567   2.757 -2.3516  0.0318  0.8340
  934MOL0     H28856   3.034   7.238   2.841  0.6590  1.9690  1.9695
  934MOL0     H28857   3.004   7.292   2.669 -0.3744 -1.3624 -0.0989
  934MOL0     H28858   3.233   7.265   2.617 -2.5225  0.3890 -1.2838
  934MOL0     H28859   3.248   7.177   2.789 -3.1414  0.9936  2.9163
  934MOL0     H28860   3.091   7.021   2.721 -1.2437 -2.4433 -2.2403
  934MOL0     H28861   3.227   7.012   2.614 -0.0820 -1.2245  1.9570
  934MOL0     H28862   3.127   7.088   2.428 -0.7791  1.3460 -0.4802
  934MOL0     H28863   2.997   7.177   2.501 -0.6633 -0.3816  1.0502
  934MOL0     H28864   3.014   6.876   2.456 -0.8907  0.3410 -0.6757
  934MOL0     H28865   2.925   6.933   2.588  1.2778  2.4940  1.6513
  934MOL0     H28866   2.911   7.045   2.295 -0.8668 -1.3798 -1.3406
  934MOL0     H28867   2.790   7.069   2.422 -0.3335  0.6780 -0.8608
  934MOL0     H28868   2.689   6.903   2.294  1.2779 -1.1192 -1.7389
  934MOL0     H28869   2.756   6.832   2.445 -1.5815 -0.2504 -0.4315
  934MOL0     H28870   2.780   6.684   2.278  0.4292 -0.1813 -0.8930
  934MOL0     H28871   2.942   6.734   2.293 -1.5515 -3.0010 -0.5005
  934MOL0     H28872   3.081   7.352   3.044  1.1591 -0.6973  0.6262
  934MOL0     H28873   3.230   7.429   3.231 -0.7563  3.3875  0.6870
  934MOL0     H28874   3.435   7.682   3.405 -0.7751 -0.9281  0.1464
  934MOL0     H28875   3.509   7.801   3.595 -1.6101  1.4211 -2.2548
  934MOL0     H28876   2.738   7.466   4.864  2.8063 -1.8899  3.0177
  934MOL0     H28877   2.666   7.446   5.103  1.9333 -0.1644  1.3951
  934MOL0     H28878   2.725   7.720   5.518  0.7551  1.9744  1.3824
  934MOL0     H28879   2.690   7.780   5.765 -2.7364  1.9265  4.5233
  934MOL0     H28880   2.449   7.721   6.010  0.4864  0.3050 -0.4105
  934MOL0     H28881   2.615   7.738   5.954 -0.3762 -1.8265 -0.1056
  934MOL0     H28882   2.558   7.826   6.181  3.2870  0.9337 -0.0663
  934MOL0     H28883   2.473   7.961   6.099 -1.3625 -0.7922  3.4295
  934MOL0     H28884   2.686   8.018   6.188 -1.2106  2.4100 -0.2875
  934MOL0     H28885   2.764   7.898   6.077  0.4866  0.5871 -2.1713
  934MOL0     H28886   2.567   8.096   5.959 -0.6937 -1.7054 -2.3220
  934MOL0     H28887   2.694   7.992   5.884 -0.6048 -0.2429  0.1649
  934MOL0     H28888   2.890   8.366   6.022  0.6125 -0.1868  0.4240
  934MOL0     H28889   2.276   7.845   5.680 -0.2111  0.2284  1.3894
  934MOL0     H28890   2.240   7.871   5.401 -0.5598  0.0556  1.3058
  934MOL0     H28891   2.282   7.705   5.347 -1.2311 -0.0773  0.6792
  934MOL0     H28892   2.177   7.728   5.479  1.5182 -1.7476  0.5067
  935MOL0     O28893   8.308   3.142   7.927  0.9419 -0.0406 -0.2336
  935MOL0     C28894   8.203   3.169   7.852 -1.5247  0.0277 -0.3850
  935MOL0     O28895   8.209   3.204   7.716 -0.6645 -0.2659 -0.1230
  935MOL0     C28896   8.325   3.279   7.684  0.7944 -0.3972 -0.3994
  935MOL0     C28897   8.373   3.274   7.556 -0.2056  0.2349 -0.2220
  935MOL0     C28898   8.461   3.366   7.507 -0.0434 -0.1492 -1.1876
  935MOL0     C28899   8.503   3.480   7.589  0.2636  0.5702  0.6721
  935MOL0     O28900   8.592   3.562   7.524  0.2184 -0.1402 -0.1372
  935MOL0     C28901   8.616   3.689   7.583  0.1836 -0.9353 -0.2641
  935MOL0     C28902   8.739   3.684   7.669 -0.6130  0.4451  1.2117
  935MOL0     C28903   8.863   3.666   7.573 -0.7542 -0.3731  0.6658
  935MOL0     C28904   8.993   3.665   7.655  0.1653  0.3918 -0.1167
  935MOL0     C28905   9.019   3.541   7.747 -0.2552 -0.6231  0.0486
  935MOL0     C28906   9.154   3.552   7.811  0.3912  0.4057  0.5220
  935MOL0     C28907   9.190   3.448   7.914 -0.3301 -0.4367 -0.2721
  935MOL0     C28908   9.307   3.497   7.985  0.0189 -0.0102 -0.4145
  935MOL0     N28909   9.363   3.400   8.087  0.8190 -0.3587  0.3511
  935MOL0     C28910   9.289   3.303   8.144  0.3251 -0.6968  0.0001
  935MOL0     C28911   9.369   3.233   8.228  0.3624  0.1080  0.0601
  935MOL0     C28912   9.324   3.111   8.312 -0.4188 -0.2135  0.4394
  935MOL0     C28913   9.239   3.012   8.239 -0.0210  0.5186 -0.1382
  935MOL0     C28914   9.216   2.888   8.323 -0.2255  0.3414 -0.0686
  935MOL0     C28915   9.343   2.792   8.315  0.9985  0.5757 -0.0778
  935MOL0     O28916   9.356   2.748   8.180 -0.0560 -1.4010  0.6235
  935MOL0     C28917   9.447   2.654   8.145 -0.7307  0.1020 -0.3955
  935MOL0     C28918   9.494   2.549   8.233  0.0752 -0.5598  0.5669
  935MOL0     C28919   9.595   2.457   8.184  1.0025  0.3360 -0.5194
  935MOL0     C28920   9.615   2.333   8.274 -0.4867 -0.7733  0.1174
  935MOL0     C28921   9.621   2.456   8.045  0.0835 -0.0505  0.4484
  935MOL0     C28922   9.736   2.383   7.980 -0.6052  0.3521 -0.2801
  935MOL0     O28923   9.842   2.364   8.065 -0.5070 -0.4200  0.6795
  935MOL0     C28924   9.959   2.294   8.037 -0.4615  0.3006  0.1831
  935MOL0     C28925  10.009   2.267   7.903 -0.6081 -0.1296 -0.4324
  935MOL0     C28926  10.125   2.180   7.886  0.2251 -1.0371  0.1693
  935MOL0     C28927  10.192   2.132   7.997  0.0722  0.8146  0.6386
  935MOL0     O28928  10.301   2.053   7.968 -0.0098 -0.0999  0.3826
  935MOL0     C28929  10.340   1.950   8.064 -0.5463 -1.1495  0.2586
  935MOL0     C28930  10.394   1.835   7.965  0.7923 -0.0086 -0.8777
  935MOL0     C28931  10.415   1.700   8.036  0.7481  0.8020  0.6346
  935MOL0     C28932  10.448   1.588   7.941  0.2675  0.3596  0.1329
  935MOL0     C28933  10.439   1.440   7.992  0.7334  1.3591  0.5755
  935MOL0     C28934  10.407   1.354   7.871 -1.0521 -0.3173 -0.3368
  935MOL0     C28935  10.382   1.206   7.893  0.6287  0.6509 -0.7212
  935MOL0     C28936  10.273   1.171   7.991 -0.4908  0.4635 -0.1322
  935MOL0    Cl28937  10.125   1.174   7.907  0.1167  0.0846 -0.0626
  935MOL0     C28938  10.149   2.167   8.128  0.8103 -0.1293  0.3527
  935MOL0     C28939  10.028   2.239   8.143  0.8570 -0.2010  0.0122
  935MOL0     O28940   9.718   2.324   7.872  0.0063  0.1908  0.6186
  935MOL0     C28941   9.571   2.558   7.962 -0.6787 -0.1883 -0.3438
  935MOL0     C28942   9.493   2.663   8.015  0.4496 -1.4788  0.7151
  935MOL0     N28943   9.500   3.279   8.202 -0.0143  0.3794 -0.3779
  935MOL0     N28944   9.490   3.376   8.118 -0.2585 -0.4633 -0.1797
  935MOL0     C28945   8.454   3.484   7.723  0.6724 -0.2021  0.5787
  935MOL0     C28946   8.357   3.390   7.764 -0.9403  0.9196 -1.0809
  935MOL0     C28947   8.073   3.160   7.909 -0.9879 -0.5453 -0.3552
  935MOL0     C28948   8.065   3.060   8.007 -0.1771  0.7065 -0.2816
  935MOL0     C28949   7.947   3.023   8.058 -0.2355  0.2073 -0.1771
  935MOL0     C28950   7.826   3.086   8.013  0.0863  0.5062 -0.4965
  935MOL0     O28951   7.704   3.049   8.047  0.8856  0.9684  0.3141
  935MOL0     C28952   7.663   2.949   8.143  0.9876 -0.8010  0.4694
  935MOL0     C28953   7.544   2.993   8.206 -0.1372 -0.5925  0.5276
  935MOL0     C28954   7.556   3.121   8.284  0.9010  0.4320 -0.6496
  935MOL0     C28955   7.419   3.165   8.353 -0.3455  0.0389 -0.1058
  935MOL0     C28956   7.320   3.181   8.250  0.2956  1.2553 -0.0521
  935MOL0     C28957   7.224   3.190   8.173 -0.0770 -0.1962 -0.4522
  935MOL0     C28958   7.836   3.177   7.912  0.1180  0.2044 -0.5365
  935MOL0     C28959   7.954   3.212   7.856  0.6093  0.3293  0.4871
  935MOL0     C28960   7.949   3.322   7.745  0.3232 -0.1570 -0.5964
  935MOL0     H28961   8.356   3.191   7.489  1.0840  0.6017 -1.0236
  935MOL0     H28962   8.500   3.355   7.406  0.4907  0.1443 -1.0207
  935MOL0     H28963   8.530   3.729   7.638 -1.9220 -1.0965 -3.2276
  935MOL0     H28964   8.625   3.760   7.500 -0.2166 -1.0810 -0.4368
  935MOL0     H28965   8.742   3.773   7.733 -3.2137 -0.7763  3.1918
  935MOL0     H28966   8.733   3.596   7.733 -0.4817 -0.3728  0.1400
  935MOL0     H28967   8.852   3.560   7.546 -2.0878 -0.2252  0.5534
  935MOL0     H28968   8.859   3.729   7.484  0.2172  1.0064  1.5637
  935MOL0     H28969   9.072   3.665   7.579  0.3426 -2.1985 -0.0163
  935MOL0     H28970   9.008   3.752   7.719  1.1085 -1.4675  2.3232
  935MOL0     H28971   9.011   3.449   7.688  1.5181 -0.0578 -1.1725
  935MOL0     H28972   8.942   3.539   7.824 -0.2035  1.8320  0.2442
  935MOL0     H28973   9.233   3.538   7.736 -1.0489 -0.2211 -0.9431
  935MOL0     H28974   9.158   3.651   7.857 -1.6984  2.4101 -3.1804
  935MOL0     H28975   9.225   3.353   7.874  0.3654 -1.1025  1.7929
  935MOL0     H28976   9.112   3.429   7.988 -0.3152  0.7345  0.0654
  935MOL0     H28977   9.382   3.512   7.907 -1.2672 -0.9640 -1.8827
  935MOL0     H28978   9.299   3.597   8.030 -0.1949  0.5796 -1.7044
  935MOL0     H28979   9.181   3.292   8.133  0.5672 -1.0699 -2.4869
  935MOL0     H28980   9.276   3.142   8.405 -0.2509 -0.8994  0.7558
  935MOL0     H28981   9.417   3.069   8.351  1.0547  3.0095  0.7752
  935MOL0     H28982   9.138   3.048   8.217 -0.4704 -1.4108 -1.5131
  935MOL0     H28983   9.285   2.978   8.146  2.5178  0.4651  1.0749
  935MOL0     H28984   9.214   2.908   8.430 -2.3380  2.1501 -0.3581
  935MOL0     H28985   9.126   2.830   8.302 -0.4747  0.3029  1.0487
  935MOL0     H28986   9.436   2.839   8.347  0.7263  0.4493  0.9614
  935MOL0     H28987   9.327   2.711   8.388  1.7047 -0.2619 -0.8301
  935MOL0     H28988   9.446   2.548   8.331 -2.3794  1.3992 -0.5190
  935MOL0     H28989   9.557   2.246   8.243  0.9398 -1.2608 -1.2933
  935MOL0     H28990   9.581   2.348   8.377 -0.7266  1.4246 -0.2341
  935MOL0     H28991   9.722   2.312   8.281 -0.2064  0.2516 -0.8549
  935MOL0     H28992   9.962   2.308   7.814  0.4809  0.6387 -0.6655
  935MOL0     H28993  10.168   2.152   7.791  0.7705  0.8046 -0.1713
  935MOL0     H28994  10.420   1.979   8.133 -2.4783 -1.9234  2.9968
  935MOL0     H28995  10.255   1.930   8.128 -1.8217  2.5826  0.0063
  935MOL0     H28996  10.321   1.813   7.887 -1.6712  1.7829  0.7555
  935MOL0     H28997  10.489   1.868   7.922  1.2967 -1.9069 -1.2811
  935MOL0     H28998  10.326   1.666   8.091 -0.2030 -1.1083 -1.8834
  935MOL0     H28999  10.491   1.704   8.114 -0.1454  0.8710  1.5280
  935MOL0     H29000  10.549   1.597   7.900  0.1366 -4.3820 -1.8429
  935MOL0     H29001  10.374   1.600   7.862 -0.8183 -0.0026  1.0676
  935MOL0     H29002  10.532   1.406   8.039  1.4704 -2.1498 -2.8532
  935MOL0     H29003  10.360   1.437   8.067 -0.6420  3.3219 -0.7035
  935MOL0     H29004  10.487   1.369   7.798 -1.5237 -0.4905 -0.8935
  935MOL0     H29005  10.322   1.399   7.819 -1.2118 -2.1405 -1.7388
  935MOL0     H29006  10.479   1.168   7.924  0.2574  0.6932  0.5384
  935MOL0     H29007  10.356   1.156   7.799 -1.2708 -2.7758  1.4239
  935MOL0     H29008  10.276   1.232   8.081 -1.8876  2.4526 -1.3465
  935MOL0     H29009  10.290   1.066   8.015  0.0864  0.4311 -0.6535
  935MOL0     H29010  10.186   2.115   8.215 -0.0141 -0.4503  0.5243
  935MOL0     H29011   9.987   2.261   8.240 -1.2914 -0.7252 -0.7297
  935MOL0     H29012   9.605   2.569   7.860 -3.6038 -0.5939 -1.4813
  935MOL0     H29013   9.470   2.755   7.963  1.2805 -0.9517  1.2535
  935MOL0     H29014   8.482   3.567   7.787  1.6407  0.5789 -0.8123
  935MOL0     H29015   8.318   3.401   7.865 -0.3944  1.2093 -0.8996
  935MOL0     H29016   8.152   3.004   8.042 -0.8435  1.2027  2.3751
  935MOL0     H29017   7.954   2.941   8.128  3.6683  0.0223 -0.5817
  935MOL0     H29018   7.651   2.857   8.085  0.0414 -0.5880  0.3248
  935MOL0     H29019   7.746   2.949   8.215  1.5843  2.1217 -0.0849
  935MOL0     H29020   7.497   2.914   8.266 -1.2494 -1.3216 -1.2399
  935MOL0     H29021   7.469   3.008   8.128 -1.9585  2.4366  2.6402
  935MOL0     H29022   7.627   3.109   8.367  1.1382 -0.4518 -0.9661
  935MOL0     H29023   7.569   3.209   8.220  2.2037  0.9550  0.2651
  935MOL0     H29024   7.444   3.258   8.405  1.9989 -1.8724  2.4894
  935MOL0     H29025   7.392   3.095   8.433 -1.2255  1.2155  0.6610
  935MOL0     H29026   7.141   3.224   8.113 -0.3782  1.5808  0.8857
  935MOL0     H29027   7.742   3.212   7.871 -0.4894  0.7285  1.2177
  935MOL0     H29028   7.860   3.378   7.774  1.1630  0.8665  0.0339
  935MOL0     H29029   8.034   3.390   7.748  0.2085 -0.0455  0.9063
  935MOL0     H29030   7.940   3.273   7.647  0.5531 -1.7618  0.1498
  936MOL0     O29031   5.020   6.482   4.788 -0.4167 -0.3037 -0.3729
  936MOL0     C29032   5.061   6.564   4.870 -0.3006 -1.3220  0.0093
  936MOL0     O29033   5.155   6.660   4.846 -0.7816  0.2017  0.0697
  936MOL0     C29034   5.187   6.690   4.711 -0.2896 -1.1503 -0.1374
  936MOL0     C29035   5.132   6.812   4.651 -0.1181 -0.1347 -0.2490
  936MOL0     C29036   5.170   6.835   4.521 -0.9294  0.2407  0.2750
  936MOL0     C29037   5.245   6.743   4.445 -0.0956 -0.2167 -0.7146
  936MOL0     O29038   5.267   6.746   4.313  0.0189 -0.8235 -0.0248
  936MOL0     C29039   5.240   6.869   4.244 -0.3236 -0.4250  0.9237
  936MOL0     C29040   5.129   6.854   4.142  0.3014  0.5810  0.6994
  936MOL0     C29041   5.180   6.819   4.000 -0.0571 -0.4491 -0.8952
  936MOL0     C29042   5.224   6.944   3.925 -0.1051 -0.7921 -0.8357
  936MOL0     C29043   5.235   6.927   3.773 -0.0279 -0.2925 -0.4693
  936MOL0     C29044   5.334   6.816   3.736 -0.1944 -0.5499  0.4317
  936MOL0     C29045   5.375   6.813   3.591 -0.3951 -0.2123  0.6390
  936MOL0     C29046   5.508   6.737   3.579 -0.2369  0.0736 -0.7506
  936MOL0     N29047   5.537   6.716   3.437  0.2271 -0.7750  0.0020
  936MOL0     C29048   5.465   6.741   3.318 -0.3574  0.1921 -0.4381
  936MOL0     C29049   5.550   6.703   3.217  0.8461  0.7476 -0.0343
  936MOL0     C29050   5.505   6.684   3.073  0.3994 -0.4909  0.2417
  936MOL0     C29051   5.499   6.545   3.035 -0.1208 -0.0648  0.6024
  936MOL0     C29052   5.452   6.536   2.889  0.3901  0.3191 -0.5355
  936MOL0     C29053   5.441   6.390   2.821  0.0659  0.2755  0.0768
  936MOL0     O29054   5.342   6.313   2.900  0.0695  0.8180  0.2582
  936MOL0     C29055   5.311   6.186   2.866 -0.6193 -0.4924 -0.3917
  936MOL0     C29056   5.224   6.123   2.950  0.0419  0.3030  0.1602
  936MOL0     C29057   5.159   6.002   2.922 -0.6213 -0.1117  0.8282
  936MOL0     C29058   5.058   5.955   3.011  0.6741 -0.7048  0.4187
  936MOL0     C29059   5.215   5.921   2.816 -0.3308  0.5623 -0.4121
  936MOL0     C29060   5.178   5.791   2.785  0.2725 -0.1434  0.0165
  936MOL0     O29061   5.050   5.761   2.812  0.0013 -0.0381 -0.1363
  936MOL0     C29062   5.009   5.638   2.847 -0.8476  0.4842 -0.5001
  936MOL0     C29063   5.076   5.549   2.933 -0.5959  0.2106  0.0847
  936MOL0     C29064   5.020   5.424   2.967 -0.9140  0.9252  0.7594
  936MOL0     C29065   4.886   5.396   2.942  0.9483  0.5871 -0.4459
  936MOL0     O29066   4.810   5.285   2.968 -0.1273 -0.2378 -0.1560
  936MOL0     C29067   4.865   5.185   3.055 -0.1074 -0.3746 -0.2467
  936MOL0     C29068   4.782   5.062   3.028 -0.3170  0.5889 -0.1405
  936MOL0     C29069   4.795   5.025   2.887 -0.1717 -0.3770 -0.6753
  936MOL0     C29070   4.726   4.885   2.876  0.0080  0.7174 -0.7558
  936MOL0     C29071   4.721   4.853   2.730  0.1052  0.2447  0.6096
  936MOL0     C29072   4.643   4.722   2.715  0.2363  0.1712  0.0502
  936MOL0     C29073   4.738   4.608   2.740  0.4455 -0.2561  0.8762
  936MOL0     C29074   4.856   4.591   2.649 -0.3166  0.9617  0.5866
  936MOL0    Cl29075   5.005   4.634   2.727 -0.1318  0.1284 -0.2901
  936MOL0     C29076   4.816   5.487   2.868 -0.1241 -1.5065 -1.1469
  936MOL0     C29077   4.877   5.607   2.824 -0.2674 -0.0759  0.0449
  936MOL0     O29078   5.259   5.717   2.734 -0.2879  0.0952  0.0384
  936MOL0     C29079   5.311   5.989   2.732 -1.0473 -0.5285  0.2927
  936MOL0     C29080   5.364   6.118   2.754  0.2646  0.4355  0.1193
  936MOL0     N29081   5.662   6.649   3.276 -0.2201  0.0751 -0.5226
  936MOL0     N29082   5.650   6.654   3.406  0.5712  0.2860 -0.1525
  936MOL0     C29083   5.286   6.623   4.505 -0.8133  0.5201  0.4447
  936MOL0     C29084   5.252   6.590   4.633  0.2620  0.1328 -0.4282
  936MOL0     C29085   5.016   6.549   5.009  1.1525 -1.3236 -0.3439
  936MOL0     C29086   4.976   6.665   5.082  0.0630 -0.5788 -0.1242
  936MOL0     C29087   4.939   6.658   5.220  0.6139 -0.2119 -0.1615
  936MOL0     C29088   4.943   6.535   5.286  0.5059 -0.5873  0.4585
  936MOL0     O29089   4.894   6.542   5.414  0.0863 -0.0647 -0.0167
  936MOL0     C29090   4.879   6.415   5.490  0.5315  1.1776 -1.2366
  936MOL0     C29091   4.808   6.443   5.617  0.4359 -0.1724  0.0303
  936MOL0     C29092   4.663   6.445   5.595  0.4030 -0.4279 -0.4247
  936MOL0     C29093   4.584   6.483   5.721 -0.3386 -0.4514  0.8912
  936MOL0     C29094   4.605   6.382   5.827  0.5399  0.8693  1.0796
  936MOL0     C29095   4.620   6.289   5.903 -0.8101 -0.2636  0.9755
  936MOL0     C29096   4.973   6.421   5.212  0.7973 -0.2362  1.3307
  936MOL0     C29097   5.027   6.428   5.075 -0.3443  0.2079 -0.8302
  936MOL0     C29098   5.069   6.302   5.015 -0.5557 -0.3041 -0.8798
  936MOL0     H29099   5.061   6.864   4.715 -1.1652  2.6697 -3.3571
  936MOL0     H29100   5.126   6.926   4.479  0.0851  1.0543  0.9257
  936MOL0     H29101   5.336   6.872   4.192  1.0245  3.3467  3.2514
  936MOL0     H29102   5.240   6.967   4.292 -0.1355  1.2946 -2.2650
  936MOL0     H29103   5.050   6.782   4.165  1.3716 -1.0039 -0.3930
  936MOL0     H29104   5.076   6.950   4.135 -1.2142 -0.0625  2.5494
  936MOL0     H29105   5.269   6.756   4.005  0.8349  0.6983 -1.8234
  936MOL0     H29106   5.094   6.769   3.954 -0.5435  0.0047 -0.4953
  936MOL0     H29107   5.152   7.023   3.947  0.9668 -0.6746  2.8516
  936MOL0     H29108   5.314   6.983   3.974 -0.6082 -0.0335 -0.4859
  936MOL0     H29109   5.267   7.021   3.726 -0.4838  0.1457  0.0806
  936MOL0     H29110   5.131   6.911   3.742  0.0815  1.1287 -1.7397
  936MOL0     H29111   5.426   6.831   3.793  0.1663  1.7778 -0.6280
  936MOL0     H29112   5.285   6.719   3.751  0.7798 -1.7738 -3.1593
  936MOL0     H29113   5.386   6.907   3.537  0.2801 -1.3637 -1.3395
  936MOL0     H29114   5.298   6.759   3.534 -0.5943  0.2142  0.5025
  936MOL0     H29115   5.591   6.796   3.618 -0.6066  0.5597 -0.6888
  936MOL0     H29116   5.515   6.647   3.642  4.1922  1.2381  0.8372
  936MOL0     H29117   5.365   6.783   3.307 -0.4843 -0.1210 -0.5077
  936MOL0     H29118   5.566   6.737   3.000 -1.7301  2.3063  0.3579
  936MOL0     H29119   5.407   6.733   3.070  1.9702  3.2589  2.6251
  936MOL0     H29120   5.595   6.492   3.043  0.9920  1.9472  1.2176
  936MOL0     H29121   5.423   6.489   3.089 -1.9477 -0.9743 -2.6473
  936MOL0     H29122   5.352   6.579   2.883  1.2766  2.7945  0.9744
  936MOL0     H29123   5.511   6.595   2.819  0.0467  0.4228 -0.7425
  936MOL0     H29124   5.403   6.406   2.720  0.9388 -0.9608 -0.4743
  936MOL0     H29125   5.533   6.331   2.829 -0.2860 -0.4862 -1.0852
  936MOL0     H29126   5.194   6.175   3.040 -2.5805  0.6477 -0.8238
  936MOL0     H29127   4.963   5.946   2.957  0.3323  0.7704  0.7305
  936MOL0     H29128   5.033   6.037   3.079 -0.6435 -1.0178  0.3472
  936MOL0     H29129   5.083   5.867   3.071  1.3486  0.3961  1.7936
  936MOL0     H29130   5.184   5.555   2.940 -0.4570 -1.0649 -0.7279
  936MOL0     H29131   5.090   5.353   3.009 -1.0397  0.3529  0.0132
  936MOL0     H29132   4.968   5.166   3.021 -0.1464  0.0779 -0.6191
  936MOL0     H29133   4.859   5.216   3.160 -2.3689  1.0979 -0.7442
  936MOL0     H29134   4.820   4.977   3.086  3.9559  1.7368 -0.8542
  936MOL0     H29135   4.678   5.080   3.055 -1.2482 -3.4638 -0.3521
  936MOL0     H29136   4.903   5.027   2.872  0.2005 -0.9307  1.6390
  936MOL0     H29137   4.747   5.095   2.818  2.0688  1.2166 -0.6989
  936MOL0     H29138   4.625   4.874   2.916  1.3405 -2.0638  2.2249
  936MOL0     H29139   4.802   4.822   2.922 -0.1619  1.1452  0.1208
  936MOL0     H29140   4.676   4.922   2.658  1.3591 -0.2735 -0.7377
  936MOL0     H29141   4.824   4.857   2.694 -0.0339  0.8327  0.2674
  936MOL0     H29142   4.609   4.723   2.611  1.0255 -4.0433 -0.4254
  936MOL0     H29143   4.550   4.717   2.772 -0.7130  1.4178 -1.3074
  936MOL0     H29144   4.673   4.522   2.721  0.1037 -0.0334  1.0271
  936MOL0     H29145   4.767   4.606   2.845  0.1409 -1.1675  0.9568
  936MOL0     H29146   4.844   4.650   2.558 -0.6218  0.7963  0.5168
  936MOL0     H29147   4.876   4.485   2.629 -0.3098  0.8893  0.9608
  936MOL0     H29148   4.712   5.461   2.847 -0.9944 -2.2796  3.1348
  936MOL0     H29149   4.809   5.675   2.773 -1.4937 -1.0803  0.2977
  936MOL0     H29150   5.352   5.929   2.652 -1.1290  0.9005 -0.8576
  936MOL0     H29151   5.430   6.163   2.681 -0.7500 -1.4562 -2.0664
  936MOL0     H29152   5.341   6.554   4.441  1.7865  2.1069  0.7824
  936MOL0     H29153   5.274   6.491   4.671  1.2120  0.5072  0.0265
  936MOL0     H29154   4.969   6.761   5.032  1.5140 -0.2379  0.2691
  936MOL0     H29155   4.913   6.754   5.265 -0.1014  1.1329 -3.1844
  936MOL0     H29156   4.823   6.340   5.432  0.2368 -0.2830  0.8219
  936MOL0     H29157   4.974   6.370   5.521  0.5061  1.2436 -1.0608
  936MOL0     H29158   4.838   6.542   5.653 -3.3065  0.7962  0.8898
  936MOL0     H29159   4.836   6.365   5.687 -1.1420 -1.6808 -0.9512
  936MOL0     H29160   4.644   6.521   5.518  0.6779  0.2754  0.1820
  936MOL0     H29161   4.636   6.351   5.547  1.5062  0.0072 -1.9819
  936MOL0     H29162   4.476   6.491   5.702  0.0577  1.3405 -0.9560
  936MOL0     H29163   4.606   6.587   5.744  1.3163 -0.1415 -1.6392
  936MOL0     H29164   4.640   6.207   5.970  2.7188 -2.8477 -2.6914
  936MOL0     H29165   4.980   6.320   5.252  0.8743 -0.4377  0.8185
  936MOL0     H29166   4.981   6.241   4.996 -2.4501  2.5036 -1.8492
  936MOL0     H29167   5.132   6.310   4.925  3.0140 -1.5385  1.3102
  936MOL0     H29168   5.143   6.251   5.077 -1.9756 -1.3293  0.0027
  937MOL0     O29169  11.093   5.840   1.306 -0.8309 -0.2352  0.1859
  937MOL0     C29170  11.145   5.827   1.419  0.1650  0.3312  0.2394
  937MOL0     O29171  11.138   5.712   1.489  0.5927 -0.6480  0.4169
  937MOL0     C29172  11.051   5.603   1.461 -0.8821  0.0633  0.8035
  937MOL0     C29173  11.076   5.491   1.546  0.4709 -0.6363  0.0382
  937MOL0     C29174  11.004   5.369   1.530 -0.7409  0.2253 -1.3603
  937MOL0     C29175  10.906   5.355   1.431 -0.5710 -0.3445 -0.4472
  937MOL0     O29176  10.847   5.227   1.416 -0.3532 -0.1460  0.6446
  937MOL0     C29177  10.721   5.222   1.352 -0.7267 -0.4144  0.0752
  937MOL0     C29178  10.676   5.087   1.383  0.2627 -0.0232  0.2955
  937MOL0     C29179  10.731   4.980   1.289 -0.5526 -0.2061  0.4075
  937MOL0     C29180  10.635   4.858   1.259 -0.0304  0.0476 -0.9694
  937MOL0     C29181  10.654   4.738   1.356 -0.4657  0.5681 -0.7970
  937MOL0     C29182  10.603   4.602   1.304 -0.3236  0.0002 -0.7918
  937MOL0     C29183  10.459   4.614   1.244  0.3247 -0.6638 -0.3185
  937MOL0     C29184  10.354   4.600   1.352  0.6369 -0.0754 -0.9429
  937MOL0     N29185  10.322   4.462   1.400  0.3674  0.3029  1.4358
  937MOL0     C29186  10.246   4.364   1.337 -0.3552 -0.2431  0.3465
  937MOL0     C29187  10.267   4.250   1.407 -0.3211  0.1476  0.5633
  937MOL0     C29188  10.219   4.115   1.379 -0.1048  0.1049  0.7929
  937MOL0     C29189  10.092   4.111   1.285 -1.3383  0.0248 -0.1132
  937MOL0     C29190  10.021   3.981   1.305  0.2598 -0.1495  1.0468
  937MOL0     C29191   9.893   3.977   1.221 -0.1232  0.0150 -0.4366
  937MOL0     O29192   9.817   4.102   1.221  0.0077  0.2325 -0.6214
  937MOL0     C29193   9.700   4.105   1.144 -0.4515  0.0093 -0.5990
  937MOL0     C29194   9.636   3.985   1.098  0.8065  1.0291  0.3306
  937MOL0     C29195   9.528   3.985   1.004  0.4400 -0.1518 -0.2153
  937MOL0     C29196   9.468   3.858   0.968  0.5933  0.2653 -0.7392
  937MOL0     C29197   9.482   4.114   0.955  0.0870 -0.8801  0.4041
  937MOL0     C29198   9.378   4.122   0.841 -0.0856 -0.7357  0.1852
  937MOL0     O29199   9.391   4.239   0.773  0.1053 -0.0146 -0.3144
  937MOL0     C29200   9.307   4.253   0.666 -0.8295 -0.4324 -0.1260
  937MOL0     C29201   9.356   4.217   0.539 -0.8893 -0.0343  0.1717
  937MOL0     C29202   9.270   4.223   0.430  0.1429 -0.1668  0.3443
  937MOL0     C29203   9.145   4.273   0.438  0.1626  0.5236 -0.2091
  937MOL0     O29204   9.050   4.277   0.338 -1.0518  0.3982  0.0667
  937MOL0     C29205   9.086   4.210   0.210  0.5587 -0.0428 -0.0790
  937MOL0     C29206   8.962   4.218   0.135  0.1577 -0.0733 -0.4887
  937MOL0     C29207   8.939   4.359   0.064 -0.0334 -0.1349  0.0296
  937MOL0     C29208   8.811   4.374  -0.014 -0.5251  0.1121  0.4281
  937MOL0     C29209   8.810   4.485  -0.123  0.0409 -0.4007  1.4684
  937MOL0     C29210   8.817   4.633  -0.071  0.0650  0.3215 -0.3254
  937MOL0     C29211   8.839   4.720  -0.198  0.2963  0.2827  0.2995
  937MOL0     C29212   8.851   4.860  -0.149  0.1097  0.3453 -0.1104
  937MOL0    Cl29213   8.829   4.974  -0.278 -0.2270 -0.0771  0.2573
  937MOL0     C29214   9.105   4.309   0.564  0.2006  0.2490 -0.1140
  937MOL0     C29215   9.184   4.310   0.675 -1.3727  0.5124  0.2162
  937MOL0     O29216   9.303   4.034   0.820 -0.2311  0.3660 -0.0815
  937MOL0     C29217   9.547   4.230   1.002  0.2189 -0.3502  0.8525
  937MOL0     C29218   9.648   4.226   1.092 -0.9305 -0.1007 -0.1638
  937MOL0     N29219  10.356   4.273   1.506 -0.4549  0.4640  0.3178
  937MOL0     N29220  10.386   4.395   1.504 -0.1563  0.1816  1.4158
  937MOL0     C29221  10.865   5.472   1.358 -0.2264 -0.1663  0.9223
  937MOL0     C29222  10.945   5.590   1.372 -0.6571  0.1160 -0.4614
  937MOL0     C29223  11.231   5.936   1.458 -0.2973 -0.0626 -0.4358
  937MOL0     C29224  11.354   5.895   1.523 -0.0262 -0.4925  1.0335
  937MOL0     C29225  11.441   5.997   1.566  0.8249 -0.3846 -1.0302
  937MOL0     C29226  11.418   6.138   1.538  0.6827  0.6091 -0.1043
  937MOL0     O29227  11.500   6.244   1.561 -0.2303 -0.9590  0.0982
  937MOL0     C29228  11.634   6.218   1.616  0.4151 -0.0025 -0.6272
  937MOL0     C29229  11.708   6.348   1.642  0.7251  0.5768  0.2920
  937MOL0     C29230  11.858   6.331   1.672 -0.4753 -0.3280  0.0215
  937MOL0     C29231  11.965   6.362   1.559 -0.3290 -0.5784  0.6012
  937MOL0     C29232  11.990   6.235   1.493  1.0381  0.2654  0.9198
  937MOL0     C29233  12.003   6.114   1.459  1.0178  0.1281  0.5652
  937MOL0     C29234  11.295   6.168   1.487  0.8026 -1.0573  0.4243
  937MOL0     C29235  11.195   6.071   1.444 -0.3176 -0.5266 -0.3638
  937MOL0     C29236  11.058   6.121   1.392  0.4018  0.0619  0.5902
  937MOL0     H29237  11.160   5.497   1.614 -0.1649  0.7890  0.7346
  937MOL0     H29238  11.046   5.281   1.578  0.5924  0.4990 -1.9863
  937MOL0     H29239  10.738   5.232   1.244 -4.6191  0.0131 -0.6279
  937MOL0     H29240  10.659   5.302   1.394 -2.3639 -1.9521  0.6744
  937MOL0     H29241  10.696   5.067   1.488  2.2911  1.4378  0.2497
  937MOL0     H29242  10.568   5.093   1.366  0.1568 -3.6370 -1.3045
  937MOL0     H29243  10.745   5.034   1.195 -4.0875 -0.9069 -0.6817
  937MOL0     H29244  10.822   4.942   1.335  0.4641 -0.1478 -1.4747
  937MOL0     H29245  10.529   4.884   1.261 -1.0535 -3.3626  3.3819
  937MOL0     H29246  10.640   4.831   1.153  2.4006  3.4716 -1.9151
  937MOL0     H29247  10.603   4.756   1.451  3.1342  2.3124  0.9961
  937MOL0     H29248  10.760   4.719   1.375 -0.9973 -1.9064  0.0271
  937MOL0     H29249  10.672   4.565   1.228  0.5029 -0.6881  0.2585
  937MOL0     H29250  10.598   4.523   1.379 -4.5226  0.7124 -0.0623
  937MOL0     H29251  10.452   4.526   1.179  0.2311 -0.1414 -1.0255
  937MOL0     H29252  10.423   4.700   1.187 -1.2489 -1.9671 -1.3621
  937MOL0     H29253  10.381   4.656   1.442 -0.6283  0.7288 -1.0416
  937MOL0     H29254  10.269   4.650   1.305  1.4235  1.6016 -0.6590
  937MOL0     H29255  10.168   4.377   1.262 -0.6918 -1.0308  0.5479
  937MOL0     H29256  10.187   4.070   1.473  3.5201 -1.3932  1.4950
  937MOL0     H29257  10.299   4.056   1.333  0.6822  0.8874  1.1143
  937MOL0     H29258  10.031   4.198   1.309 -0.8533 -0.0015  1.3136
  937MOL0     H29259  10.134   4.107   1.184 -0.6029  0.7652  0.1402
  937MOL0     H29260  10.091   3.901   1.278  0.2171 -0.6483  2.3132
  937MOL0     H29261   9.997   3.967   1.411  2.9505  0.2345  1.8032
  937MOL0     H29262   9.911   3.952   1.117 -2.0248 -0.0252 -0.7910
  937MOL0     H29263   9.833   3.897   1.265 -1.5585 -0.2854 -2.8058
  937MOL0     H29264   9.652   3.884   1.137  1.2689  1.0695  0.2586
  937MOL0     H29265   9.364   3.851   1.002  2.0277 -2.4449  3.9932
  937MOL0     H29266   9.514   3.770   1.014 -1.8785 -0.1048  1.2629
  937MOL0     H29267   9.470   3.838   0.861 -0.9283  4.2069 -1.6888
  937MOL0     H29268   9.458   4.181   0.536 -0.2724  1.5779  0.5700
  937MOL0     H29269   9.321   4.195   0.338  2.6479  0.5005  1.4408
  937MOL0     H29270   9.163   4.262   0.152  0.9869 -0.3987  0.1609
  937MOL0     H29271   9.101   4.102   0.215 -1.3876 -0.3794 -0.7621
  937MOL0     H29272   8.968   4.141   0.057 -0.3108 -0.2476 -0.3560
  937MOL0     H29273   8.877   4.208   0.202 -0.1168 -0.3770 -0.8793
  937MOL0     H29274   9.027   4.373   0.001  0.3181  2.8324  1.0149
  937MOL0     H29275   8.944   4.440   0.137 -0.8999  0.5815 -0.6830
  937MOL0     H29276   8.723   4.379   0.050 -1.5248 -4.9145 -0.1895
  937MOL0     H29277   8.803   4.279  -0.067  1.0758  1.2250 -2.0128
  937MOL0     H29278   8.893   4.457  -0.190 -0.5418 -3.3736  1.8485
  937MOL0     H29279   8.713   4.471  -0.170 -0.4447  0.2891  2.2404
  937MOL0     H29280   8.895   4.648   0.005  0.4056 -0.7574 -0.4529
  937MOL0     H29281   8.721   4.653  -0.023  1.2991  0.6906  2.1660
  937MOL0     H29282   8.747   4.713  -0.257  1.3217 -0.5739 -1.2935
  937MOL0     H29283   8.924   4.690  -0.261  0.2634  2.6729 -1.0065
  937MOL0     H29284   8.945   4.877  -0.096 -0.2412 -0.1449  0.7062
  937MOL0     H29285   8.771   4.876  -0.075 -0.1958 -1.2150 -0.0671
  937MOL0     H29286   9.005   4.349   0.576  0.1396  0.1409 -0.2502
  937MOL0     H29287   9.148   4.338   0.773  1.7845 -2.8448  2.6153
  937MOL0     H29288   9.517   4.328   0.968 -3.3743 -2.6257 -3.7075
  937MOL0     H29289   9.707   4.315   1.113  0.7761 -0.5360 -2.5711
  937MOL0     H29290  10.794   5.462   1.276 -0.7008  0.1325  1.2908
  937MOL0     H29291  10.929   5.676   1.309  2.9422  0.5379 -1.0125
  937MOL0     H29292  11.396   5.795   1.532  0.7714 -0.1252  1.5122
  937MOL0     H29293  11.538   5.960   1.596  0.1646  0.8691  3.3790
  937MOL0     H29294  11.620   6.162   1.708  0.9326  3.5368  1.7986
  937MOL0     H29295  11.687   6.151   1.547  1.2026 -0.2880  0.2383
  937MOL0     H29296  11.661   6.411   1.718  0.8552  0.4581  0.4733
  937MOL0     H29297  11.700   6.410   1.552  1.1154 -3.1100 -2.5002
  937MOL0     H29298  11.888   6.411   1.740  1.3633  0.0164 -1.0974
  937MOL0     H29299  11.875   6.241   1.732  0.6014 -0.6708 -0.7593
  937MOL0     H29300  12.062   6.391   1.600 -0.0458  0.6046 -0.8058
  937MOL0     H29301  11.923   6.443   1.499 -2.1784 -1.4129  0.6753
  937MOL0     H29302  12.025   6.015   1.425 -1.4781 -0.6998  1.2138
  937MOL0     H29303  11.264   6.271   1.472  2.6223 -0.3234  1.3756
  937MOL0     H29304  11.069   6.208   1.326  4.2933 -0.1196  0.7695
  937MOL0     H29305  10.998   6.046   1.340  1.4693 -0.4858  0.1242
  937MOL0     H29306  10.997   6.157   1.475 -3.0177 -1.1041 -1.2043
  938MOL0     O29307   1.813   0.325   1.452  0.7444 -0.5092 -0.2386
  938MOL0     C29308   1.903   0.389   1.408 -0.7331  0.1381  0.3097
  938MOL0     O29309   1.904   0.441   1.278 -0.2390 -0.3699 -0.7125
  938MOL0     C29310   1.832   0.392   1.172  0.2388  0.2699 -1.2771
  938MOL0     C29311   1.798   0.477   1.072  0.1076  0.7261  0.4919
  938MOL0     C29312   1.722   0.437   0.958 -0.6075  0.3155  0.3022
  938MOL0     C29313   1.680   0.316   0.941  0.1610 -0.1381 -0.3638
  938MOL0     O29314   1.609   0.287   0.823  0.1592 -1.2028  0.6893
  938MOL0     C29315   1.503   0.194   0.826 -0.5126  0.1804 -0.6375
  938MOL0     C29316   1.464   0.157   0.691 -0.2208 -0.4134  0.0012
  938MOL0     C29317   1.395   0.276   0.613 -1.1227 -0.2824 -0.2760
  938MOL0     C29318   1.332   0.219   0.480  0.7331  0.1715  0.2952
  938MOL0     C29319   1.202   0.156   0.498 -0.0636  0.7020 -0.1094
  938MOL0     C29320   1.181   0.051   0.383 -0.0846  0.1279  0.6280
  938MOL0     C29321   1.043  -0.013   0.387  0.0605 -0.7084 -0.2461
  938MOL0     C29322   0.937   0.062   0.322 -0.3642  0.1481  0.1441
  938MOL0     N29323   0.815  -0.013   0.314 -0.4737  0.4242  0.5110
  938MOL0     C29324   0.693   0.039   0.352  0.6820 -0.1891 -0.4687
  938MOL0     C29325   0.600  -0.058   0.322 -0.3906 -0.3795 -0.0734
  938MOL0     C29326   0.461  -0.039   0.349  0.2222 -0.0884 -0.2774
  938MOL0     C29327   0.414  -0.109   0.476 -0.9480 -0.4769 -1.3125
  938MOL0     C29328   0.469  -0.244   0.503  0.3637 -0.1928  0.3739
  938MOL0     C29329   0.395  -0.350   0.412  0.2418 -0.8231  0.5231
  938MOL0     O29330   0.361  -0.472   0.484  0.8520  0.1200  0.4202
  938MOL0     C29331   0.341  -0.589   0.419  1.0403 -0.0081  0.3918
  938MOL0     C29332   0.321  -0.696   0.514  0.0248 -0.0043  0.3130
  938MOL0     C29333   0.268  -0.817   0.476 -0.0374 -1.1517 -0.2492
  938MOL0     C29334   0.257  -0.922   0.586  0.2330  0.0186  1.0114
  938MOL0     C29335   0.249  -0.835   0.328  0.4439 -0.6336  0.4400
  938MOL0     C29336   0.205  -0.958   0.280 -0.2010  0.7043  0.3544
  938MOL0     O29337   0.082  -0.978   0.218 -0.5275 -0.4847 -0.1241
  938MOL0     C29338  -0.016  -0.887   0.231 -0.1910  0.4312  0.7556
  938MOL0     C29339  -0.056  -0.832   0.114  0.1719 -0.4971  0.0631
  938MOL0     C29340  -0.163  -0.740   0.103 -0.2951  0.6899  1.0879
  938MOL0     C29341  -0.225  -0.701   0.219  0.2638  0.2676  0.4679
  938MOL0     O29342  -0.336  -0.618   0.212 -0.2244  0.4610 -0.3634
  938MOL0     C29343  -0.325  -0.490   0.279 -0.0949  1.2239 -0.1383
  938MOL0     C29344  -0.461  -0.437   0.306 -0.0660 -0.3903  0.5605
  938MOL0     C29345  -0.455  -0.297   0.392 -0.1492  0.4559 -0.1709
  938MOL0     C29346  -0.399  -0.184   0.318 -0.9362 -0.1399 -0.2045
  938MOL0     C29347  -0.442  -0.048   0.370 -0.8406  0.8630 -0.4078
  938MOL0     C29348  -0.360   0.056   0.302 -0.3481 -0.4305 -0.0847
  938MOL0     C29349  -0.412   0.200   0.322 -0.0300  0.0882 -0.1447
  938MOL0     C29350  -0.354   0.293   0.218  0.0499  0.5420  0.2510
  938MOL0    Cl29351  -0.173   0.280   0.220 -0.4216 -0.3909 -0.2001
  938MOL0     C29352  -0.176  -0.764   0.345 -0.0559 -0.3293  0.1178
  938MOL0     C29353  -0.071  -0.847   0.352 -0.0859  0.1462  0.0984
  938MOL0     O29354   0.290  -1.044   0.281  0.4284 -0.1758  0.0512
  938MOL0     C29355   0.273  -0.733   0.239 -0.1127 -0.5360  0.1043
  938MOL0     C29356   0.318  -0.607   0.280 -0.0485  0.6236  0.1821
  938MOL0     N29357   0.675  -0.170   0.296 -0.3937  0.3180  0.3391
  938MOL0     N29358   0.797  -0.145   0.281 -0.6564 -0.2975  0.5168
  938MOL0     C29359   1.707   0.224   1.045 -0.7117  0.9287 -0.2078
  938MOL0     C29360   1.791   0.260   1.155 -0.2191  0.2658 -0.0339
  938MOL0     C29361   2.009   0.419   1.507  0.3639 -0.5128 -0.1205
  938MOL0     C29362   2.075   0.546   1.481  0.5898 -0.2033  0.1053
  938MOL0     C29363   2.180   0.579   1.565  0.9963  0.0634  0.1670
  938MOL0     C29364   2.223   0.495   1.668 -0.6662  0.2937 -0.1782
  938MOL0     O29365   2.329   0.543   1.744  0.6981 -0.0710 -0.0526
  938MOL0     C29366   2.377   0.481   1.865 -0.5778  0.0684  0.8486
  938MOL0     C29367   2.525   0.459   1.841  0.1119  0.0105  0.6410
  938MOL0     C29368   2.600   0.575   1.779 -0.8946 -0.9272  0.0483
  938MOL0     C29369   2.583   0.707   1.864  0.2945  0.7734  0.5461
  938MOL0     C29370   2.647   0.712   1.995 -0.5785  1.0400 -0.3016
  938MOL0     C29371   2.688   0.727   2.106  0.7113 -0.8361 -0.8804
  938MOL0     C29372   2.165   0.363   1.681  0.3396 -0.1749  0.2869
  938MOL0     C29373   2.060   0.325   1.597 -0.0104 -0.2719 -0.2216
  938MOL0     C29374   2.015   0.185   1.607  0.2850  0.5540 -0.6437
  938MOL0     H29375   1.834   0.580   1.073 -1.1726  1.2049 -0.2187
  938MOL0     H29376   1.709   0.509   0.878  0.3326 -2.0196 -2.1313
  938MOL0     H29377   1.420   0.238   0.880  1.0230  0.2194  1.8489
  938MOL0     H29378   1.543   0.100   0.865 -1.1644 -0.0229 -0.4618
  938MOL0     H29379   1.548   0.122   0.631  1.0819  2.6418 -0.1022
  938MOL0     H29380   1.384   0.081   0.696 -2.6471  1.9380 -0.6549
  938MOL0     H29381   1.336   0.340   0.680  2.4659  1.1492  1.8412
  938MOL0     H29382   1.474   0.346   0.580 -0.0732 -0.9430  0.7725
  938MOL0     H29383   1.321   0.301   0.409 -2.2978  0.3454  0.8253
  938MOL0     H29384   1.404   0.150   0.437 -0.5532 -1.3568  0.5203
  938MOL0     H29385   1.124   0.232   0.504 -0.1181  1.0657 -3.4808
  938MOL0     H29386   1.206   0.107   0.596  3.0884 -2.0979 -1.4276
  938MOL0     H29387   1.194   0.096   0.284 -1.9759 -0.7234 -0.0602
  938MOL0     H29388   1.245  -0.037   0.395  2.2442  1.5143 -0.9723
  938MOL0     H29389   1.018  -0.026   0.493  1.1622  1.7047  0.3925
  938MOL0     H29390   1.056  -0.112   0.342  1.1864  0.3730 -2.4762
  938MOL0     H29391   0.929   0.157   0.376 -0.0285 -0.0047  0.4684
  938MOL0     H29392   0.971   0.077   0.219 -3.1150  2.6726 -0.5119
  938MOL0     H29393   0.677   0.135   0.398 -0.0005 -0.4053 -0.2519
  938MOL0     H29394   0.408  -0.088   0.266 -2.2823 -1.4288  1.9622
  938MOL0     H29395   0.431   0.066   0.355  0.8744  0.1679 -1.3575
  938MOL0     H29396   0.441  -0.045   0.560 -0.8791 -1.6981 -0.3741
  938MOL0     H29397   0.306  -0.100   0.489 -1.1511  1.7122 -3.5912
  938MOL0     H29398   0.578  -0.252   0.510  0.1788 -2.4836  2.0622
  938MOL0     H29399   0.438  -0.264   0.607 -2.3110  2.6917  0.2941
  938MOL0     H29400   0.301  -0.313   0.370  1.6507  1.5954 -0.6955
  938MOL0     H29401   0.450  -0.368   0.319 -1.2194  2.4944 -1.1587
  938MOL0     H29402   0.335  -0.661   0.616 -0.5488  0.6171  0.1887
  938MOL0     H29403   0.344  -0.912   0.652 -0.8947  1.2945  2.3966
  938MOL0     H29404   0.243  -1.019   0.537 -0.2436  1.6865 -2.4935
  938MOL0     H29405   0.176  -0.876   0.644  0.9875  1.6671  0.8309
  938MOL0     H29406  -0.013  -0.858   0.017  1.5327  2.9781 -0.4005
  938MOL0     H29407  -0.187  -0.714   0.000  1.7564 -0.6973  0.1791
  938MOL0     H29408  -0.269  -0.500   0.373 -3.4707  1.0573  2.0476
  938MOL0     H29409  -0.275  -0.413   0.220 -0.7188  2.7273  1.2138
  938MOL0     H29410  -0.519  -0.417   0.216  0.5492  1.1508  0.4739
  938MOL0     H29411  -0.512  -0.511   0.368 -2.2538  1.0875  0.6777
  938MOL0     H29412  -0.396  -0.323   0.481 -3.8137 -2.5384  1.7265
  938MOL0     H29413  -0.557  -0.283   0.431 -0.4036 -0.0278 -0.6474
  938MOL0     H29414  -0.417  -0.190   0.210 -1.1677  1.4887 -0.2817
  938MOL0     H29415  -0.289  -0.192   0.322 -0.9246  0.0596 -0.1746
  938MOL0     H29416  -0.549  -0.037   0.351 -1.6246 -1.4986  1.9805
  938MOL0     H29417  -0.420  -0.047   0.477  2.8270 -1.0200 -0.9876
  938MOL0     H29418  -0.382   0.029   0.198  0.5437 -0.9719 -0.1510
  938MOL0     H29419  -0.251   0.051   0.313 -0.5618 -1.4331  2.0667
  938MOL0     H29420  -0.388   0.234   0.423  0.8879  0.5811 -0.5224
  938MOL0     H29421  -0.520   0.207   0.305  0.1774  1.1180 -1.1037
  938MOL0     H29422  -0.394   0.393   0.233  0.2442  0.5529  0.6952
  938MOL0     H29423  -0.369   0.264   0.113 -3.3487 -2.1954  1.2634
  938MOL0     H29424  -0.213  -0.732   0.442  3.0183  0.0360  1.2747
  938MOL0     H29425  -0.024  -0.889   0.440 -0.9795 -1.7861 -0.3003
  938MOL0     H29426   0.266  -0.766   0.136 -1.1881  0.1197 -0.0460
  938MOL0     H29427   0.335  -0.530   0.206  0.7602 -0.3668 -0.7004
  938MOL0     H29428   1.665   0.124   1.051 -2.3509  1.6206  0.0906
  938MOL0     H29429   1.800   0.192   1.240 -2.1995  0.7209  0.5970
  938MOL0     H29430   2.037   0.624   1.416  0.7711 -1.8075 -2.0069
  938MOL0     H29431   2.236   0.670   1.549 -0.2021  0.3618 -2.9808
  938MOL0     H29432   2.360   0.543   1.953  1.3121 -0.5875  1.7158
  938MOL0     H29433   2.330   0.385   1.891 -0.5474  0.1921  1.3737
  938MOL0     H29434   2.537   0.380   1.766 -0.6463  1.7285 -1.4086
  938MOL0     H29435   2.570   0.416   1.931  1.2086  0.2989  0.2583
  938MOL0     H29436   2.702   0.536   1.775 -1.0731 -1.4754  0.7702
  938MOL0     H29437   2.564   0.584   1.676 -1.5684 -2.1121  0.1683
  938MOL0     H29438   2.480   0.735   1.887 -0.2049 -0.3428 -0.2036
  938MOL0     H29439   2.625   0.785   1.800  1.0081  0.2579  0.3597
  938MOL0     H29440   2.706   0.732   2.211 -1.4755 -1.8047 -0.3886
  938MOL0     H29441   2.204   0.288   1.749  2.4835  1.8091  1.3915
  938MOL0     H29442   1.930   0.165   1.542  1.0212  1.1050 -1.8208
  938MOL0     H29443   2.097   0.130   1.560  0.8767  3.7562 -3.8769
  938MOL0     H29444   2.006   0.156   1.712 -3.1319  1.9821 -0.4105
  939MOL0     O29445   6.327   8.431   3.871  0.2843 -0.0443  0.2556
  939MOL0     C29446   6.217   8.475   3.824 -0.6864  0.4405 -1.1860
  939MOL0     O29447   6.151   8.423   3.716 -0.6994 -0.3274 -0.6951
  939MOL0     C29448   6.208   8.322   3.649 -0.0785  0.0218 -0.6109
  939MOL0     C29449   6.351   8.321   3.619  0.4354  0.0632  0.5429
  939MOL0     C29450   6.400   8.221   3.546  0.3903 -0.0628  0.5363
  939MOL0     C29451   6.325   8.113   3.508 -0.2045  0.6646 -0.4403
  939MOL0     O29452   6.391   8.014   3.430  0.1402 -0.1690 -0.0151
  939MOL0     C29453   6.345   7.872   3.427 -0.1341 -0.6761  0.0420
  939MOL0     C29454   6.460   7.799   3.357 -0.6211  0.3843 -0.0519
  939MOL0     C29455   6.594   7.821   3.434  0.1611 -0.1964  0.0949
  939MOL0     C29456   6.699   7.740   3.373  0.1587  0.0958  0.3170
  939MOL0     C29457   6.840   7.769   3.427 -0.0639  1.0191 -0.3469
  939MOL0     C29458   6.886   7.731   3.565 -0.2342  0.0487 -0.0689
  939MOL0     C29459   7.007   7.816   3.616  0.9413 -0.1571 -0.5422
  939MOL0     C29460   7.077   7.766   3.750 -0.5400 -0.5791 -0.1266
  939MOL0     N29461   7.199   7.830   3.790 -0.5373 -0.2822 -0.1775
  939MOL0     C29462   7.295   7.764   3.862  0.0781 -0.2594 -1.9722
  939MOL0     C29463   7.407   7.843   3.862 -0.5239  0.2444  0.0179
  939MOL0     C29464   7.525   7.815   3.945  0.2206 -0.4801  0.5993
  939MOL0     C29465   7.593   7.703   3.876 -0.1575  0.2523 -0.1108
  939MOL0     C29466   7.723   7.677   3.956  0.0153  0.2232  0.5996
  939MOL0     C29467   7.718   7.581   4.078  0.9356 -1.0195 -0.5970
  939MOL0     O29468   7.699   7.454   4.035  0.1648  0.9059  0.2735
  939MOL0     C29469   7.694   7.350   4.121  0.5106  0.1173 -1.0672
  939MOL0     C29470   7.705   7.357   4.256  0.4642  0.5900 -0.2896
  939MOL0     C29471   7.696   7.241   4.346 -0.2742 -0.1259 -0.7994
  939MOL0     C29472   7.704   7.288   4.487  0.0635 -0.5837  0.5306
  939MOL0     C29473   7.673   7.114   4.290 -0.8520  0.1589  0.5339
  939MOL0     C29474   7.690   6.982   4.370  0.5083 -0.7279  0.2669
  939MOL0     O29475   7.646   6.868   4.313  0.0684 -0.5490 -0.3246
  939MOL0     C29476   7.693   6.759   4.370 -0.3926 -0.3954  0.2306
  939MOL0     C29477   7.826   6.748   4.394 -0.1851 -0.2977  0.2481
  939MOL0     C29478   7.873   6.627   4.457  0.5633  0.1061 -0.1735
  939MOL0     C29479   7.784   6.523   4.486 -0.4293 -0.2502 -0.1112
  939MOL0     O29480   7.818   6.410   4.558  0.0030 -0.4476  0.0800
  939MOL0     C29481   7.878   6.432   4.687  0.4091  0.1704  0.2261
  939MOL0     C29482   7.860   6.306   4.763 -0.5239 -0.3924 -0.0121
  939MOL0     C29483   7.939   6.191   4.701  0.2269 -0.4887  0.2873
  939MOL0     C29484   7.952   6.087   4.803 -0.4547  0.6367 -0.0526
  939MOL0     C29485   8.001   5.956   4.736  0.5236 -0.0604 -0.5296
  939MOL0     C29486   8.128   5.969   4.641 -0.2140  0.4145  0.5118
  939MOL0     C29487   8.189   5.830   4.607  0.1314  0.0783  0.9422
  939MOL0     C29488   8.092   5.727   4.564 -0.5307  0.2037 -0.5233
  939MOL0    Cl29489   8.178   5.595   4.503  0.1790 -0.0524 -0.4324
  939MOL0     C29490   7.654   6.531   4.441  0.4424 -0.4187  0.0727
  939MOL0     C29491   7.609   6.651   4.388 -0.4994  0.1816  0.4477
  939MOL0     O29492   7.712   6.993   4.490  0.7208  0.5182 -0.1023
  939MOL0     C29493   7.665   7.106   4.147  0.3569  0.3688  0.1990
  939MOL0     C29494   7.672   7.225   4.072  0.1610 -0.6678  1.1638
  939MOL0     N29495   7.371   7.957   3.775  0.0122  0.2668 -0.6050
  939MOL0     N29496   7.248   7.934   3.730 -0.2921 -0.0804 -0.6997
  939MOL0     C29497   6.195   8.101   3.543  0.7569 -0.3201 -0.1872
  939MOL0     C29498   6.137   8.208   3.618  0.6664 -0.0286  0.1996
  939MOL0     C29499   6.176   8.609   3.874 -0.4846 -0.0225  0.6673
  939MOL0     C29500   6.149   8.704   3.780  0.3201  0.3759  0.4808
  939MOL0     C29501   6.131   8.836   3.811 -0.7906  0.6754 -0.7326
  939MOL0     C29502   6.124   8.876   3.948 -0.0892 -0.2675  0.0456
  939MOL0     O29503   6.107   9.004   3.986 -0.2083 -0.2947 -0.1810
  939MOL0     C29504   6.004   9.079   3.916  0.5045 -0.4273 -0.2966
  939MOL0     C29505   5.978   9.212   3.964 -0.3922  0.6783 -0.2362
  939MOL0     C29506   6.107   9.291   3.983 -1.0267 -0.4947 -0.1788
  939MOL0     C29507   6.152   9.379   3.864  0.1739 -0.3806  0.5630
  939MOL0     C29508   6.217   9.312   3.753 -0.6982  0.1921 -1.4561
  939MOL0     C29509   6.258   9.260   3.654  0.9557 -0.8236  0.1450
  939MOL0     C29510   6.148   8.787   4.047 -0.1448  0.3099 -0.6081
  939MOL0     C29511   6.176   8.657   4.010  0.4571 -0.2455  0.5645
  939MOL0     C29512   6.193   8.562   4.116 -0.3441 -0.2756 -0.4836
  939MOL0     H29513   6.416   8.398   3.658  1.7472 -0.6612 -0.1406
  939MOL0     H29514   6.502   8.218   3.507 -0.5519  0.5916 -2.2280
  939MOL0     H29515   6.256   7.864   3.365  0.7597 -1.5064 -1.1911
  939MOL0     H29516   6.332   7.837   3.529  0.0352 -0.7857  0.0269
  939MOL0     H29517   6.452   7.690   3.344 -0.1928  0.6150 -2.7496
  939MOL0     H29518   6.476   7.835   3.256  0.4965  0.0065 -0.0198
  939MOL0     H29519   6.615   7.928   3.426 -4.6222  1.0665  1.1868
  939MOL0     H29520   6.595   7.793   3.540  0.8485 -1.3813 -0.1996
  939MOL0     H29521   6.676   7.633   3.382 -0.1935  0.0442 -0.9602
  939MOL0     H29522   6.701   7.774   3.269 -0.3997  0.9075  0.5602
  939MOL0     H29523   6.848   7.877   3.407  0.4912  0.9850 -0.3169
  939MOL0     H29524   6.911   7.719   3.361 -0.4464  2.3603 -1.8524
  939MOL0     H29525   6.800   7.732   3.632  0.7222 -0.4642  1.2119
  939MOL0     H29526   6.918   7.626   3.559  1.1977  0.4230  0.6024
  939MOL0     H29527   6.971   7.920   3.621 -2.3575 -1.1867 -0.8333
  939MOL0     H29528   7.087   7.813   3.541  1.2028  1.5013 -0.3834
  939MOL0     H29529   6.999   7.777   3.825 -1.3654  0.7151 -1.1324
  939MOL0     H29530   7.095   7.659   3.737  1.1735 -0.2212 -0.9706
  939MOL0     H29531   7.286   7.662   3.899 -2.0335  0.0203 -1.5656
  939MOL0     H29532   7.490   7.800   4.047 -1.2204  2.0664  0.5757
  939MOL0     H29533   7.598   7.896   3.939  0.5977 -0.9218 -2.8667
  939MOL0     H29534   7.532   7.615   3.851 -0.5536  0.7786 -1.0372
  939MOL0     H29535   7.623   7.738   3.777 -1.1456  1.9610  0.1522
  939MOL0     H29536   7.797   7.633   3.887  0.2014 -1.5194  1.8375
  939MOL0     H29537   7.753   7.776   3.992 -1.5440  0.1966  2.0565
  939MOL0     H29538   7.818   7.592   4.121  2.7847 -1.0646 -4.4760
  939MOL0     H29539   7.640   7.612   4.149  0.1068 -1.8244 -1.1305
  939MOL0     H29540   7.715   7.455   4.303  5.5258  0.8340 -1.2748
  939MOL0     H29541   7.639   7.373   4.509  0.0689 -0.7826  1.3380
  939MOL0     H29542   7.809   7.316   4.504  0.2979  0.2497 -1.8744
  939MOL0     H29543   7.673   7.216   4.563 -0.3252 -0.1512  0.7858
  939MOL0     H29544   7.893   6.832   4.380  0.7248 -0.5613  2.6493
  939MOL0     H29545   7.979   6.615   4.474  0.2116 -0.1414  2.1273
  939MOL0     H29546   7.981   6.463   4.668 -0.1334  2.2385  0.4246
  939MOL0     H29547   7.821   6.515   4.729 -1.1617 -0.0687 -1.3327
  939MOL0     H29548   7.871   6.321   4.871 -0.0084 -2.3648  0.2393
  939MOL0     H29549   7.756   6.276   4.749 -0.4960  0.2477 -1.8507
  939MOL0     H29550   8.035   6.236   4.675  0.0225  0.0312  0.4235
  939MOL0     H29551   7.897   6.160   4.604 -1.6696  1.1254  0.5166
  939MOL0     H29552   7.851   6.079   4.846 -0.7551  0.1744 -0.8318
  939MOL0     H29553   8.011   6.116   4.890 -0.4858 -2.3781  1.0963
  939MOL0     H29554   8.028   5.885   4.814 -1.4002  1.4224  1.5965
  939MOL0     H29555   7.910   5.913   4.691 -1.1179 -0.3534  2.7795
  939MOL0     H29556   8.202   6.021   4.702  1.4845  1.9382 -2.6278
  939MOL0     H29557   8.117   6.035   4.554  1.9626 -0.4913 -0.5277
  939MOL0     H29558   8.241   5.796   4.696  0.5127 -0.5329  0.4923
  939MOL0     H29559   8.266   5.836   4.530 -2.9856  3.8614 -2.3960
  939MOL0     H29560   8.027   5.756   4.481 -0.0579  0.7501 -0.7109
  939MOL0     H29561   8.022   5.692   4.640 -0.0875 -1.2052 -0.7255
  939MOL0     H29562   7.586   6.447   4.445  0.0090 -0.5347 -4.3625
  939MOL0     H29563   7.509   6.651   4.345 -0.6070 -4.1694  0.3066
  939MOL0     H29564   7.654   7.005   4.108 -1.3517  0.2783  0.8128
  939MOL0     H29565   7.661   7.216   3.965  3.1663 -2.0834  0.8694
  939MOL0     H29566   6.138   8.023   3.494 -1.5492  0.4459  1.1300
  939MOL0     H29567   6.034   8.198   3.651  0.9037 -1.5060  0.5447
  939MOL0     H29568   6.140   8.686   3.674 -3.0823  3.3458  0.0683
  939MOL0     H29569   6.129   8.910   3.732  1.6959 -0.1739 -1.7061
  939MOL0     H29570   6.023   9.076   3.808  0.7141 -2.0906 -0.2534
  939MOL0     H29571   5.904   9.037   3.934  0.2430  0.4269  0.2854
  939MOL0     H29572   5.936   9.188   4.062  0.3413 -2.6869 -0.6382
  939MOL0     H29573   5.904   9.268   3.906 -1.2591  0.2337  0.4168
  939MOL0     H29574   6.096   9.362   4.065 -2.2339  1.8199 -2.1949
  939MOL0     H29575   6.193   9.233   4.018  0.9887  3.5761  2.3615
  939MOL0     H29576   6.221   9.461   3.889  1.3066 -1.1112 -0.0664
  939MOL0     H29577   6.069   9.437   3.824  1.0345  1.3221  1.1365
  939MOL0     H29578   6.290   9.225   3.559 -1.1833  1.4787 -1.5583
  939MOL0     H29579   6.141   8.809   4.153  0.1551  0.8207 -0.6915
  939MOL0     H29580   6.149   8.584   4.213  0.7764 -1.8021  0.4166
  939MOL0     H29581   6.153   8.465   4.085  0.3141  0.0294 -2.4592
  939MOL0     H29582   6.302   8.554   4.126 -0.3092  0.7488  0.1358
  940MOL0     O29583   2.193   4.914   5.062 -0.1283 -0.6378 -0.0615
  940MOL0     C29584   2.144   4.877   5.168 -0.2070 -0.4653 -0.4388
  940MOL0     O29585   2.186   4.925   5.286 -0.6020 -0.6773 -0.3026
  940MOL0     C29586   2.290   5.024   5.280 -0.3275 -0.2878  0.7736
  940MOL0     C29587   2.424   4.991   5.288  0.0620  0.2127  0.9722
  940MOL0     C29588   2.518   5.102   5.285 -0.1546 -0.5175  0.1068
  940MOL0     C29589   2.480   5.234   5.281  0.6629 -0.2986 -0.3782
  940MOL0     O29590   2.578   5.327   5.276 -0.8852  0.3897  0.0338
  940MOL0     C29591   2.535   5.469   5.264 -0.0462  0.0654  0.1064
  940MOL0     C29592   2.525   5.525   5.405 -0.1811  0.9859  0.1925
  940MOL0     C29593   2.665   5.529   5.466  1.0461  0.5049 -0.3267
  940MOL0     C29594   2.639   5.571   5.618 -0.3056  0.2957  0.3452
  940MOL0     C29595   2.772   5.568   5.703  0.4126 -0.1666  0.2940
  940MOL0     C29596   2.749   5.617   5.850 -0.0463 -0.9835  1.1039
  940MOL0     C29597   2.737   5.771   5.865  0.3969 -0.3343 -0.9834
  940MOL0     C29598   2.864   5.832   5.813 -0.3488 -0.1984  0.0451
  940MOL0     N29599   2.863   5.974   5.855 -0.3850 -0.2101  0.0181
  940MOL0     C29600   2.919   6.027   5.972 -1.1110  0.0692  0.1908
  940MOL0     C29601   2.897   6.156   5.970 -0.0293 -0.3465 -0.1881
  940MOL0     C29602   2.925   6.262   6.071 -1.1542 -0.2743  0.6104
  940MOL0     C29603   2.827   6.244   6.188 -0.0818 -0.8666  0.4586
  940MOL0     C29604   2.769   6.381   6.248  0.0196 -0.0899  0.3946
  940MOL0     C29605   2.691   6.367   6.380 -1.1559  0.5383 -0.3253
  940MOL0     O29606   2.726   6.474   6.459  0.3807 -0.6838  0.2779
  940MOL0     C29607   2.829   6.476   6.555  0.4236  0.1858  0.5865
  940MOL0     C29608   2.845   6.576   6.649  0.3550 -0.4747 -0.4530
  940MOL0     C29609   2.943   6.563   6.750  0.9740 -1.1302 -0.3583
  940MOL0     C29610   2.971   6.680   6.844 -0.2628  0.9876 -0.7515
  940MOL0     C29611   3.024   6.452   6.746  0.3824  0.3818 -0.1084
  940MOL0     C29612   3.138   6.447   6.833  1.1847 -0.8165  0.3638
  940MOL0     O29613   3.253   6.440   6.765  0.1022 -0.1275  0.1832
  940MOL0     C29614   3.367   6.477   6.822  0.6626  0.8243 -0.0467
  940MOL0     C29615   3.410   6.606   6.811 -0.5317 -0.8341  0.4724
  940MOL0     C29616   3.517   6.658   6.888  0.8912  0.7416 -0.2378
  940MOL0     C29617   3.575   6.575   6.987 -0.0330 -1.1372 -0.4055
  940MOL0     O29618   3.687   6.629   7.051  0.3739  0.4098  0.5947
  940MOL0     C29619   3.780   6.547   7.112  0.4505  0.3913 -0.8744
  940MOL0     C29620   3.848   6.445   7.025 -0.7751  0.7451  0.6567
  940MOL0     C29621   3.946   6.348   7.098 -0.4340  0.2818 -0.7217
  940MOL0     C29622   4.089   6.406   7.115 -0.3692  0.3595  0.5198
  940MOL0     C29623   4.191   6.289   7.157  0.5956 -0.0099  0.2268
  940MOL0     C29624   4.335   6.332   7.167  0.1854 -0.6615  0.9592
  940MOL0     C29625   4.428   6.225   7.198  0.2927  0.2764  0.2429
  940MOL0     C29626   4.574   6.252   7.185 -0.3623  0.4822 -0.2572
  940MOL0    Cl29627   4.612   6.382   7.306  0.2360  0.0358 -0.4984
  940MOL0     C29628   3.521   6.450   7.004  0.3743  0.0299 -0.5331
  940MOL0     C29629   3.406   6.403   6.934  0.1525 -0.2691 -0.5080
  940MOL0     O29630   3.121   6.420   6.949  0.6901 -0.3526  0.4734
  940MOL0     C29631   3.001   6.354   6.651  0.0451 -0.0754 -1.0433
  940MOL0     C29632   2.915   6.375   6.544  0.0176 -0.5255  0.3152
  940MOL0     N29633   2.834   6.184   5.843 -0.3242 -0.5069  0.7789
  940MOL0     N29634   2.835   6.077   5.767 -0.7148  0.6282 -0.5700
  940MOL0     C29635   2.339   5.264   5.286 -0.1252 -0.3026  0.2044
  940MOL0     C29636   2.249   5.160   5.277 -0.3039  1.3275  0.2771
  940MOL0     C29637   2.025   4.778   5.162 -0.0584  0.6370  0.4496
  940MOL0     C29638   2.045   4.673   5.073 -0.4271 -0.7817  0.0410
  940MOL0     C29639   1.962   4.566   5.067  0.2986 -1.1334 -0.1869
  940MOL0     C29640   1.845   4.560   5.144 -0.4949 -0.7647 -0.7588
  940MOL0     O29641   1.760   4.462   5.132  0.2903 -0.3114  0.1868
  940MOL0     C29642   1.785   4.325   5.180  0.2567  0.6612  0.8834
  940MOL0     C29643   1.666   4.233   5.151 -0.3230 -0.5104  1.0521
  940MOL0     C29644   1.702   4.083   5.198 -0.4423 -0.0678  1.1480
  940MOL0     C29645   1.573   3.994   5.179  0.5843  0.2068  0.0203
  940MOL0     C29646   1.563   3.873   5.258  0.3971  0.0481  0.4321
  940MOL0     C29647   1.553   3.773   5.332  0.0403  0.7256  0.0604
  940MOL0     C29648   1.826   4.672   5.226 -0.3766  1.1465  0.4709
  940MOL0     C29649   1.912   4.776   5.241 -0.8331 -1.4008  0.0599
  940MOL0     C29650   1.884   4.878   5.355  0.4352  0.2899  0.3861
  940MOL0     H29651   2.460   4.892   5.315 -0.3888 -0.3588 -0.4237
  940MOL0     H29652   2.619   5.068   5.266 -1.0226 -2.9022 -0.6503
  940MOL0     H29653   2.444   5.494   5.210 -0.7161  0.0340  1.1977
  940MOL0     H29654   2.614   5.519   5.207 -0.0936 -0.3363 -0.3136
  940MOL0     H29655   2.475   5.622   5.399  0.0980  1.2296  1.5996
  940MOL0     H29656   2.460   5.462   5.467  1.8937  2.6715  4.4917
  940MOL0     H29657   2.718   5.436   5.444  1.5978  0.8020 -0.2809
  940MOL0     H29658   2.722   5.616   5.431  1.0711  1.2522  1.4873
  940MOL0     H29659   2.580   5.662   5.611 -0.8557 -0.1436 -1.2190
  940MOL0     H29660   2.573   5.494   5.659 -1.1463  0.4224 -0.7319
  940MOL0     H29661   2.847   5.622   5.643 -1.8035 -0.4362 -3.0213
  940MOL0     H29662   2.807   5.464   5.710 -3.0490 -1.4409  0.4298
  940MOL0     H29663   2.660   5.569   5.891 -0.3727 -1.7690 -0.4591
  940MOL0     H29664   2.836   5.593   5.912 -0.2044 -2.0090  0.9417
  940MOL0     H29665   2.699   5.795   5.965 -0.4631  2.2996 -1.8914
  940MOL0     H29666   2.654   5.811   5.806  0.9082  0.3748 -1.2344
  940MOL0     H29667   2.938   5.779   5.873 -1.9844 -2.4184  0.2210
  940MOL0     H29668   2.887   5.824   5.706  2.9768  0.0508  0.6327
  940MOL0     H29669   2.981   5.963   6.034  0.1933 -1.7753 -2.7760
  940MOL0     H29670   2.909   6.364   6.033  0.0012  1.1893  3.7509
  940MOL0     H29671   3.031   6.260   6.098 -1.4809 -0.4669  1.9245
  940MOL0     H29672   2.751   6.169   6.164  3.8787 -4.4895 -2.3261
  940MOL0     H29673   2.896   6.194   6.258  1.0134  0.2571  0.2159
  940MOL0     H29674   2.851   6.452   6.258  1.8869 -2.1898  0.9810
  940MOL0     H29675   2.699   6.420   6.174 -0.5414  3.0784  2.4341
  940MOL0     H29676   2.583   6.362   6.361 -1.0676 -0.9489 -0.5117
  940MOL0     H29677   2.699   6.267   6.423 -1.3108  0.5861 -0.1848
  940MOL0     H29678   2.792   6.666   6.622 -2.2957 -2.1315 -1.1935
  940MOL0     H29679   2.900   6.763   6.843  0.7257  1.9167  1.2437
  940MOL0     H29680   3.072   6.707   6.812  0.5075 -2.1528 -1.3751
  940MOL0     H29681   2.966   6.639   6.946  1.9710 -0.2512 -1.0832
  940MOL0     H29682   3.386   6.674   6.730 -0.5030 -1.1671  0.1841
  940MOL0     H29683   3.554   6.760   6.888 -3.1404  2.4221  1.4011
  940MOL0     H29684   3.845   6.619   7.163  0.1179  1.4793 -1.9279
  940MOL0     H29685   3.733   6.484   7.188  2.8185 -1.6301 -0.9724
  940MOL0     H29686   3.772   6.374   6.992 -1.2177  1.4868  0.0338
  940MOL0     H29687   3.893   6.508   6.947 -0.1744  0.0060  0.3972
  940MOL0     H29688   3.959   6.254   7.043 -1.5901 -1.6800  2.1191
  940MOL0     H29689   3.899   6.327   7.194  0.9259  1.9115  0.3644
  940MOL0     H29690   4.100   6.495   7.177 -3.0262  1.4969 -0.4708
  940MOL0     H29691   4.117   6.440   7.015  0.3606  3.0602  1.5600
  940MOL0     H29692   4.164   6.258   7.258  1.9018  1.0880  0.9437
  940MOL0     H29693   4.182   6.201   7.092  2.1707  1.6330 -2.3932
  940MOL0     H29694   4.332   6.408   7.246  1.0439 -3.2476  3.6443
  940MOL0     H29695   4.349   6.377   7.068 -1.0004 -1.8137  0.2363
  940MOL0     H29696   4.409   6.147   7.124  3.6233 -0.7698  0.3620
  940MOL0     H29697   4.403   6.201   7.302 -1.1842  0.0784 -0.1294
  940MOL0     H29698   4.600   6.287   7.085  0.9742 -3.3110 -1.4107
  940MOL0     H29699   4.625   6.158   7.205 -1.6499 -0.5808 -1.7711
  940MOL0     H29700   3.554   6.390   7.088  1.2781  0.2866 -0.6959
  940MOL0     H29701   3.361   6.311   6.969 -1.4387  0.5263 -0.3684
  940MOL0     H29702   3.068   6.268   6.649 -1.3185 -1.2401  0.6723
  940MOL0     H29703   2.914   6.301   6.465 -2.2497  0.4755 -0.6861
  940MOL0     H29704   2.300   5.364   5.299 -0.6320 -0.7594  2.9838
  940MOL0     H29705   2.140   5.163   5.275 -0.3149  0.6120 -0.9639
  940MOL0     H29706   2.122   4.665   4.997 -1.1278  1.6718 -1.0473
  940MOL0     H29707   1.987   4.487   4.996 -0.7468 -2.3882  0.7953
  940MOL0     H29708   1.880   4.284   5.145 -0.7881 -1.5003  0.4086
  940MOL0     H29709   1.794   4.323   5.289  3.8888 -0.8216  0.6960
  940MOL0     H29710   1.635   4.238   5.046 -1.6636  3.8695  1.4623
  940MOL0     H29711   1.583   4.274   5.208  1.3740 -2.1403  5.0809
  940MOL0     H29712   1.785   4.030   5.151 -1.3743  0.5128 -1.2842
  940MOL0     H29713   1.725   4.101   5.304  2.3799  3.6790  0.1079
  940MOL0     H29714   1.572   3.966   5.073  2.0411 -0.6734  0.2213
  940MOL0     H29715   1.489   4.064   5.188 -0.2594 -0.8157  0.3783
  940MOL0     H29716   1.532   3.696   5.403 -0.6761  3.0295  2.5536
  940MOL0     H29717   1.736   4.666   5.286 -1.0245 -0.4826 -0.5805
  940MOL0     H29718   1.790   4.929   5.334  0.0739 -1.0559 -1.5327
  940MOL0     H29719   1.883   4.829   5.453 -0.6142 -1.5407 -0.4879
  940MOL0     H29720   1.963   4.954   5.367  0.8867 -0.3533  1.6677
  941MOL0     O29721   8.809  10.749   2.831  0.3233 -0.5990  0.1525
  941MOL0     C29722   8.783  10.688   2.727 -0.1707 -0.1886 -0.7081
  941MOL0     O29723   8.862  10.592   2.669 -0.2355 -0.4660  0.5648
  941MOL0     C29724   8.965  10.544   2.751  0.0893 -1.2722 -0.0879
  941MOL0     C29725   8.941  10.489   2.876 -0.5861 -0.3409  0.7040
  941MOL0     C29726   9.047  10.432   2.949 -0.2510 -0.0265  0.2614
  941MOL0     C29727   9.171  10.426   2.903 -0.2534 -0.0781 -0.3339
  941MOL0     O29728   9.288  10.391   2.963 -0.1778 -0.0782  0.1221
  941MOL0     C29729   9.274  10.311   3.085 -0.5777  0.5476  0.1491
  941MOL0     C29730   9.418  10.305   3.148  0.4559 -0.2318 -0.0481
  941MOL0     C29731   9.517  10.208   3.092 -0.6758 -0.1108  0.3419
  941MOL0     C29732   9.654  10.217   3.156  0.0940 -1.0442  0.0168
  941MOL0     C29733   9.664  10.176   3.308 -1.2712 -0.1546 -0.2162
  941MOL0     C29734   9.651  10.022   3.319  0.1941  0.0358 -0.3832
  941MOL0     C29735   9.682   9.976   3.469  1.1741  0.7012 -0.4081
  941MOL0     C29736   9.688   9.823   3.476 -0.5083 -0.1222 -0.1314
  941MOL0     N29737   9.808   9.771   3.407  0.8099  0.3126  0.0542
  941MOL0     C29738   9.936   9.803   3.433  0.0161  0.3282 -0.6716
  941MOL0     C29739  10.012   9.721   3.358 -0.1885 -1.4403  0.8596
  941MOL0     C29740  10.155   9.675   3.355 -0.6340  0.1601 -1.0142
  941MOL0     C29741  10.244   9.800   3.336  0.2369 -0.8450  0.2018
  941MOL0     C29742  10.368   9.780   3.252 -0.7459  0.1209  0.4925
  941MOL0     C29743  10.459   9.664   3.304  0.9388  0.5523 -0.3265
  941MOL0     O29744  10.567   9.644   3.217 -0.8448 -0.0173  0.3608
  941MOL0     C29745  10.682   9.593   3.266  0.4027  0.4958 -0.7510
  941MOL0     C29746  10.767   9.530   3.180  0.6583 -0.2680 -0.1225
  941MOL0     C29747  10.900   9.503   3.223 -0.3037 -0.0184 -0.3279
  941MOL0     C29748  10.977   9.443   3.101  0.1877  0.7144 -0.0694
  941MOL0     C29749  10.946   9.520   3.358 -0.0345 -0.0286  0.5758
  941MOL0     C29750  11.085   9.486   3.397  0.7789  0.1872  0.1269
  941MOL0     O29751  11.138   9.570   3.491 -0.6503 -0.2914 -0.1886
  941MOL0     C29752  11.252   9.538   3.570  0.1805 -0.0935  0.0483
  941MOL0     C29753  11.311   9.648   3.639  0.4439  0.0439 -0.5314
  941MOL0     C29754  11.419   9.633   3.719  0.1260 -0.6797  0.4072
  941MOL0     C29755  11.491   9.513   3.723  0.0734 -0.1966 -0.8673
  941MOL0     O29756  11.607   9.511   3.797  0.7451  0.2045  0.4762
  941MOL0     C29757  11.697   9.404   3.768  0.1657  0.1550 -1.3164
  941MOL0     C29758  11.842   9.459   3.811 -1.2204  0.6251 -0.2915
  941MOL0     C29759  11.942   9.349   3.779 -0.7523 -0.0104 -0.3795
  941MOL0     C29760  12.083   9.419   3.796  0.3545 -0.0906  0.3057
  941MOL0     C29761  12.201   9.320   3.803 -0.0155 -0.4741  0.4206
  941MOL0     C29762  12.339   9.388   3.798 -0.5380 -0.6386 -0.1122
  941MOL0     C29763  12.368   9.517   3.889  0.2393  0.0982  0.5550
  941MOL0     C29764  12.513   9.559   3.879 -0.5391  0.2396  0.5389
  941MOL0    Cl29765  12.541   9.681   3.755 -0.2701  0.1569 -0.2501
  941MOL0     C29766  11.447   9.400   3.656  0.5571  0.0803  1.1811
  941MOL0     C29767  11.324   9.418   3.580 -0.5468  0.5705 -0.8764
  941MOL0     O29768  11.142   9.390   3.354 -0.3319  0.5514  0.1721
  941MOL0     C29769  10.860   9.589   3.444 -0.7833 -0.6809 -0.6515
  941MOL0     C29770  10.732   9.615   3.398 -0.2494  0.1480 -0.0899
  941MOL0     N29771   9.924   9.648   3.284 -0.5026  0.0766  0.3924
  941MOL0     N29772   9.801   9.674   3.312  0.6287  0.2140  0.6675
  941MOL0     C29773   9.190  10.471   2.774 -0.6330  0.2300  0.2222
  941MOL0     C29774   9.088  10.523   2.698 -0.9162 -0.2988 -0.6660
  941MOL0     C29775   8.655  10.728   2.656 -1.1563  0.7666  0.3322
  941MOL0     C29776   8.533  10.751   2.733  0.0076  0.2522 -0.0826
  941MOL0     C29777   8.411  10.789   2.674  0.7951  0.3294  0.1326
  941MOL0     C29778   8.403  10.791   2.536  0.4223  0.2098  0.8778
  941MOL0     O29779   8.299  10.803   2.454  0.5141 -0.1012  0.2490
  941MOL0     C29780   8.163  10.795   2.490  0.2878 -0.7879 -0.3568
  941MOL0     C29781   8.102  10.652   2.475 -0.0451 -0.9060  0.4254
  941MOL0     C29782   7.964  10.651   2.545 -0.5197  0.4241  0.4125
  941MOL0     C29783   7.871  10.535   2.507 -0.9532  0.8502 -0.2039
  941MOL0     C29784   7.735  10.560   2.550  0.6846 -0.3558  0.7968
  941MOL0     C29785   7.620  10.573   2.582 -0.5520  0.1523  0.7128
  941MOL0     C29786   8.514  10.760   2.459 -0.0398 -0.8068 -0.1700
  941MOL0     C29787   8.641  10.737   2.517  0.9588 -0.3081  0.4707
  941MOL0     C29788   8.762  10.748   2.431 -0.4240 -0.0201 -0.3995
  941MOL0     H29789   8.840  10.500   2.913  0.4728  1.9027  3.2289
  941MOL0     H29790   9.018  10.385   3.042  4.7954 -2.0751  1.1265
  941MOL0     H29791   9.240  10.208   3.070 -0.8535  0.0924  3.2357
  941MOL0     H29792   9.207  10.352   3.162 -0.5081 -1.0832  1.1281
  941MOL0     H29793   9.453  10.408   3.161  0.1934 -0.2675  0.9836
  941MOL0     H29794   9.394  10.268   3.248  2.0336  0.8550  0.7757
  941MOL0     H29795   9.479  10.105   3.093 -0.1470 -0.3125  1.2676
  941MOL0     H29796   9.531  10.223   2.985 -1.4600  3.7704  0.6280
  941MOL0     H29797   9.737  10.163   3.110 -0.9248 -0.9949 -1.9431
  941MOL0     H29798   9.695  10.318   3.139  0.0518 -1.3897 -2.4859
  941MOL0     H29799   9.592  10.225   3.374 -1.4978  0.1836 -0.7058
  941MOL0     H29800   9.758  10.204   3.355 -1.5674 -0.8327  0.8048
  941MOL0     H29801   9.550   9.999   3.284 -0.9492  1.7600  1.5650
  941MOL0     H29802   9.729   9.986   3.250  0.2979  1.1310 -0.8465
  941MOL0     H29803   9.614  10.022   3.541 -0.2548 -2.5730  0.5367
  941MOL0     H29804   9.783  10.012   3.493  1.5584 -0.1010 -0.7583
  941MOL0     H29805   9.701   9.804   3.583  2.1436  0.9247 -0.2096
  941MOL0     H29806   9.593   9.779   3.444  0.8414 -2.4702 -1.1920
  941MOL0     H29807   9.980   9.855   3.517 -0.0982 -2.0912  0.9754
  941MOL0     H29808  10.158   9.595   3.280  3.5465 -2.8902  1.9531
  941MOL0     H29809  10.181   9.628   3.450 -2.4818 -2.0729 -1.5376
  941MOL0     H29810  10.179   9.874   3.287 -2.9062 -0.5907  4.2631
  941MOL0     H29811  10.262   9.840   3.436 -1.7841 -1.0375  0.6895
  941MOL0     H29812  10.338   9.745   3.153  0.6318 -1.9679  0.7601
  941MOL0     H29813  10.415   9.879   3.251 -2.5778  1.0563 -1.0523
  941MOL0     H29814  10.482   9.701   3.405 -1.9114  4.0561 -0.7299
  941MOL0     H29815  10.402   9.572   3.318 -2.2476  2.4083 -0.2013
  941MOL0     H29816  10.736   9.536   3.076 -0.2102  2.3700  0.2266
  941MOL0     H29817  10.967   9.334   3.094  0.3778  0.6607  0.4703
  941MOL0     H29818  11.084   9.461   3.112  0.6040 -1.3450 -0.1947
  941MOL0     H29819  10.950   9.483   3.003  0.8686 -2.1530 -1.5367
  941MOL0     H29820  11.277   9.750   3.624  2.7867  1.7294  3.9295
  941MOL0     H29821  11.447   9.725   3.770 -2.6601  2.3646 -2.9722
  941MOL0     H29822  11.676   9.310   3.821  1.8886  0.7100  0.4743
  941MOL0     H29823  11.708   9.392   3.660  0.8415  0.3771 -1.2742
  941MOL0     H29824  11.878   9.544   3.753  4.6688 -0.3561  1.2432
  941MOL0     H29825  11.843   9.485   3.917 -2.0355 -1.7753  0.3737
  941MOL0     H29826  11.923   9.318   3.676 -1.6010 -1.0139  0.0618
  941MOL0     H29827  11.941   9.266   3.851 -1.4944  0.7373  0.4925
  941MOL0     H29828  12.076   9.481   3.885 -0.2951  0.5391 -0.1768
  941MOL0     H29829  12.100   9.489   3.714  3.5161 -0.7229  0.3186
  941MOL0     H29830  12.197   9.259   3.894 -0.4210  1.0755  1.4700
  941MOL0     H29831  12.193   9.250   3.719 -2.8550  1.5197 -1.1556
  941MOL0     H29832  12.359   9.425   3.697 -0.2027 -0.9945 -0.1833
  941MOL0     H29833  12.422   9.322   3.829  1.2228  1.5604  0.0982
  941MOL0     H29834  12.335   9.494   3.991  0.2924  2.5128  1.1731
  941MOL0     H29835  12.303   9.599   3.857 -0.3415 -0.8915 -0.9184
  941MOL0     H29836  12.582   9.480   3.849 -1.9150 -0.2986 -1.3850
  941MOL0     H29837  12.539   9.577   3.984  0.5345  1.1071  0.1421
  941MOL0     H29838  11.503   9.308   3.660  2.1010  0.9284 -0.0604
  941MOL0     H29839  11.283   9.330   3.530  1.2579 -1.4898  1.0180
  941MOL0     H29840  10.882   9.618   3.546  0.1759  0.6808 -1.2123
  941MOL0     H29841  10.671   9.682   3.457 -0.1936  2.8660 -2.8794
  941MOL0     H29842   9.288  10.462   2.729 -0.7751 -1.0047  0.1413
  941MOL0     H29843   9.101  10.547   2.593 -1.4621  0.8219 -0.4930
  941MOL0     H29844   8.538  10.729   2.839  3.8515 -1.8205 -0.5041
  941MOL0     H29845   8.319  10.793   2.732  1.4546  0.7615  1.1789
  941MOL0     H29846   8.145  10.833   2.591 -0.3853 -2.5354  0.2009
  941MOL0     H29847   8.115  10.861   2.417  0.2199  1.9529  1.9754
  941MOL0     H29848   8.170  10.582   2.523  0.0556 -0.2865  1.2098
  941MOL0     H29849   8.090  10.637   2.367 -1.7698 -2.6398  0.8015
  941MOL0     H29850   7.974  10.647   2.653 -2.8278  0.5926  0.6841
  941MOL0     H29851   7.903  10.740   2.524 -1.9482 -0.8564 -1.1307
  941MOL0     H29852   7.912  10.447   2.556  1.4701  2.2396  0.4617
  941MOL0     H29853   7.876  10.509   2.401  0.6221  0.0037  0.0510
  941MOL0     H29854   7.519  10.584   2.614 -1.2479  1.8559 -1.7653
  941MOL0     H29855   8.506  10.751   2.351 -0.1298 -0.3269 -0.2062
  941MOL0     H29856   8.748  10.675   2.351 -5.6922  2.4522 -2.2104
  941MOL0     H29857   8.757  10.845   2.381 -0.7009  2.4191  3.9258
  941MOL0     H29858   8.856  10.747   2.486 -2.7301 -2.1114  4.0164
  942MOL0     O29859  11.325   3.462   6.418  0.4065 -0.3956 -0.3560
  942MOL0     C29860  11.232   3.381   6.417  0.6852  1.1011 -0.3450
  942MOL0     O29861  11.135   3.359   6.317 -0.5607 -0.5076 -0.9550
  942MOL0     C29862  11.150   3.433   6.208 -0.1324 -0.5833 -0.4599
  942MOL0     C29863  11.061   3.542   6.188  0.3699  0.3352  0.6967
  942MOL0     C29864  11.079   3.613   6.066  0.7715 -0.0226 -0.4662
  942MOL0     C29865  11.185   3.582   5.976 -0.1857  0.6609  0.1107
  942MOL0     O29866  11.213   3.639   5.859 -0.3661 -0.4198 -0.5323
  942MOL0     C29867  11.101   3.679   5.775 -0.0465  0.1924 -1.1943
  942MOL0     C29868  11.131   3.697   5.631 -0.2720 -0.1233  0.3748
  942MOL0     C29869  11.093   3.571   5.554  0.8869 -0.1715 -1.1323
  942MOL0     C29870  10.937   3.569   5.534  0.0637 -0.4346  0.6707
  942MOL0     C29871  10.885   3.431   5.490 -1.0026 -0.3478  1.2832
  942MOL0     C29872  10.955   3.369   5.369 -0.0367 -0.4892  1.3360
  942MOL0     C29873  10.970   3.454   5.242  0.2430  0.4774 -0.7124
  942MOL0     C29874  10.850   3.514   5.176  0.2849 -0.3085  0.5185
  942MOL0     N29875  10.737   3.427   5.142  0.6619 -0.4215  1.4052
  942MOL0     C29876  10.609   3.480   5.133  0.6707  0.8422  1.2576
  942MOL0     C29877  10.535   3.375   5.092  0.1320 -0.2871  0.2386
  942MOL0     C29878  10.386   3.378   5.064  0.5185  0.2820 -0.4279
  942MOL0     C29879  10.308   3.267   5.133 -0.2194  1.7706 -0.8847
  942MOL0     C29880  10.278   3.154   5.035 -0.2995  0.9920  0.0311
  942MOL0     C29881  10.214   3.032   5.108 -0.1410 -0.0203  0.3702
  942MOL0     O29882  10.268   3.003   5.235 -0.0887  0.2884 -0.2305
  942MOL0     C29883  10.294   2.868   5.260  0.1707  0.4328  0.5282
  942MOL0     C29884  10.255   2.814   5.382  0.6007 -0.1449  0.2240
  942MOL0     C29885  10.276   2.676   5.402 -0.2916  0.0498 -0.2726
  942MOL0     C29886  10.240   2.636   5.547 -0.3365 -0.0115 -0.5196
  942MOL0     C29887  10.340   2.594   5.309  0.6324  0.3068  0.4230
  942MOL0     C29888  10.369   2.454   5.332 -0.2916 -0.6913  0.2472
  942MOL0     O29889  10.481   2.412   5.272  0.7201  0.3036 -0.0109
  942MOL0     C29890  10.487   2.272   5.286  0.9416 -1.0414 -0.2250
  942MOL0     C29891  10.450   2.194   5.173 -0.2238 -0.2347 -1.3147
  942MOL0     C29892  10.471   2.058   5.172  0.4414 -0.1358  0.0535
  942MOL0     C29893  10.518   1.997   5.287 -1.0853  0.7478  0.3812
  942MOL0     O29894  10.547   1.865   5.275 -0.5037 -0.1824  0.1428
  942MOL0     C29895  10.685   1.836   5.234  0.0692  0.7068  0.1555
  942MOL0     C29896  10.697   1.679   5.267 -0.0705  0.2616 -0.3324
  942MOL0     C29897  10.838   1.614   5.270  1.2190  0.2687  0.6104
  942MOL0     C29898  10.849   1.470   5.325  0.1574 -0.6819 -0.2515
  942MOL0     C29899  10.999   1.433   5.353 -0.4858  0.2157  0.2209
  942MOL0     C29900  11.004   1.294   5.423 -0.1593 -0.5280  0.1522
  942MOL0     C29901  11.138   1.281   5.485 -0.2344  0.1498  0.2711
  942MOL0     C29902  11.125   1.203   5.615  1.1189  0.5302  0.0261
  942MOL0    Cl29903  11.261   1.195   5.723 -0.2205 -0.3545  0.4009
  942MOL0     C29904  10.560   2.077   5.394 -0.7639 -1.3518 -0.2865
  942MOL0     C29905  10.532   2.215   5.399 -0.4647 -0.4221  0.8544
  942MOL0     O29906  10.286   2.389   5.393  0.1936 -0.1341 -0.2598
  942MOL0     C29907  10.397   2.651   5.189  0.5717  0.9024  0.1979
  942MOL0     C29908  10.374   2.788   5.167  0.2041  0.3579  0.8514
  942MOL0     N29909  10.616   3.258   5.087 -0.0175  0.7258  0.2570
  942MOL0     N29910  10.741   3.299   5.116 -0.8958 -0.2510 -0.1765
  942MOL0     C29911  11.269   3.473   6.008  0.3177 -0.0219 -0.4655
  942MOL0     C29912  11.248   3.398   6.123 -0.2419  0.1187  0.0043
  942MOL0     C29913  11.204   3.307   6.539 -0.0709 -1.0590  0.7074
  942MOL0     C29914  11.181   3.368   6.658  0.5919 -0.2858 -0.7888
  942MOL0     C29915  11.129   3.299   6.764 -1.0398  0.2177 -0.7361
  942MOL0     C29916  11.098   3.160   6.744  0.6635 -0.3548  0.1884
  942MOL0     O29917  11.027   3.099   6.841 -0.3900  0.5920  0.2542
  942MOL0     C29918  10.928   2.998   6.810 -0.8340 -0.3394 -0.1570
  942MOL0     C29919  10.834   2.973   6.919  0.1687 -0.0097 -0.0511
  942MOL0     C29920  10.729   3.088   6.923 -0.5897  0.2497 -0.4246
  942MOL0     C29921  10.646   3.079   7.045 -0.0933  0.7610 -0.5320
  942MOL0     C29922  10.555   2.959   7.040 -1.0647  0.2234  0.1291
  942MOL0     C29923  10.485   2.870   7.016 -0.5129 -0.0206  0.5036
  942MOL0     C29924  11.143   3.100   6.631  0.3472  0.0300 -0.1742
  942MOL0     C29925  11.203   3.167   6.526  0.0879 -0.3094  0.4923
  942MOL0     C29926  11.245   3.084   6.404  0.6684 -0.4113 -0.5044
  942MOL0     H29927  10.975   3.553   6.253  0.7065  3.7821  0.7657
  942MOL0     H29928  11.008   3.693   6.045  1.1027  0.5593  0.5727
  942MOL0     H29929  11.067   3.772   5.821  2.0625  1.1839 -1.5467
  942MOL0     H29930  11.017   3.610   5.789 -1.7704  2.4593  0.3849
  942MOL0     H29931  11.087   3.787   5.585  0.3408 -1.1308 -2.3804
  942MOL0     H29932  11.236   3.721   5.615  0.6282 -1.5135  3.5299
  942MOL0     H29933  11.127   3.577   5.451  1.3024 -0.9583 -1.0489
  942MOL0     H29934  11.140   3.480   5.592  0.8790  0.8903  1.6569
  942MOL0     H29935  10.883   3.595   5.625 -1.0085  1.9484 -0.5724
  942MOL0     H29936  10.910   3.645   5.461 -1.7232  1.2778  2.9465
  942MOL0     H29937  10.777   3.422   5.477 -0.7616 -0.3219 -1.4910
  942MOL0     H29938  10.910   3.361   5.570  0.9984 -3.6160 -1.8723
  942MOL0     H29939  11.059   3.344   5.393  0.0589  0.7901  2.3695
  942MOL0     H29940  10.910   3.271   5.352 -1.4034 -0.1537  2.8066
  942MOL0     H29941  11.019   3.384   5.175 -0.5166 -2.2969  1.4344
  942MOL0     H29942  11.043   3.532   5.266 -0.2299  0.3943  1.1338
  942MOL0     H29943  10.819   3.600   5.236 -2.3040 -0.9688  0.2217
  942MOL0     H29944  10.886   3.554   5.081 -0.6206 -1.5263 -0.3749
  942MOL0     H29945  10.575   3.582   5.153 -1.9521 -0.3495  3.5422
  942MOL0     H29946  10.373   3.376   4.956 -1.6320 -0.3576 -0.2062
  942MOL0     H29947  10.346   3.473   5.101 -2.7259 -1.1874  0.1527
  942MOL0     H29948  10.373   3.225   5.210  0.4457 -1.8934 -3.2264
  942MOL0     H29949  10.220   3.316   5.177  0.4461  1.0786  1.3584
  942MOL0     H29950  10.228   3.186   4.943  3.2913  4.0284 -1.0780
  942MOL0     H29951  10.373   3.125   4.990 -0.9488  0.7428 -1.2155
  942MOL0     H29952  10.110   3.061   5.122  0.5835  2.9352  0.4243
  942MOL0     H29953  10.234   2.952   5.037 -0.2083  1.2254 -1.0935
  942MOL0     H29954  10.198   2.873   5.453 -0.9512  0.9192 -1.7969
  942MOL0     H29955  10.311   2.559   5.579 -2.4830 -0.2799  4.4100
  942MOL0     H29956  10.136   2.607   5.561 -1.4584  4.2450  1.7831
  942MOL0     H29957  10.251   2.728   5.605 -3.4384  0.8758 -1.1691
  942MOL0     H29958  10.407   2.241   5.086 -2.3346 -3.9286 -2.5142
  942MOL0     H29959  10.434   2.001   5.087  0.8146  0.2556 -0.3689
  942MOL0     H29960  10.710   1.854   5.129 -1.4412 -0.3574 -0.4292
  942MOL0     H29961  10.755   1.895   5.293  0.4251  0.5857 -0.1405
  942MOL0     H29962  10.652   1.670   5.366 -1.3890 -0.8789 -0.9932
  942MOL0     H29963  10.637   1.617   5.200  1.3281 -0.2730 -1.1340
  942MOL0     H29964  10.900   1.683   5.327  2.0156 -1.1826  1.5620
  942MOL0     H29965  10.872   1.604   5.166 -1.4857 -0.1608 -0.3247
  942MOL0     H29966  10.804   1.395   5.260 -0.6427 -2.1657  1.8783
  942MOL0     H29967  10.798   1.461   5.422  1.8334 -3.5688  0.4694
  942MOL0     H29968  11.053   1.423   5.258  1.0786 -2.2273  1.2880
  942MOL0     H29969  11.037   1.516   5.414  0.7647 -0.0193 -0.2109
  942MOL0     H29970  10.986   1.206   5.361  0.3268 -1.0532  0.7383
  942MOL0     H29971  10.931   1.281   5.503 -3.2420  0.5851 -2.2750
  942MOL0     H29972  11.184   1.377   5.511 -1.3102  0.9610 -0.6979
  942MOL0     H29973  11.210   1.238   5.414  1.7491  0.8741  1.7407
  942MOL0     H29974  11.090   1.103   5.586  2.3247  0.1439 -0.1631
  942MOL0     H29975  11.054   1.259   5.677  0.8713 -0.0596  0.2825
  942MOL0     H29976  10.592   2.028   5.485 -0.4346 -0.0155  0.3507
  942MOL0     H29977  10.561   2.265   5.491 -0.3727 -1.8516  1.6351
  942MOL0     H29978  10.452   2.589   5.119  0.7902 -0.0312  1.1619
  942MOL0     H29979  10.406   2.812   5.066 -2.8133 -1.1642 -0.6000
  942MOL0     H29980  11.355   3.450   5.946  0.6862  1.2112 -0.4441
  942MOL0     H29981  11.311   3.316   6.157 -2.0656 -1.1422  0.5339
  942MOL0     H29982  11.200   3.475   6.659  2.9569 -0.6541 -0.8921
  942MOL0     H29983  11.114   3.342   6.862 -3.0708 -2.7551  0.3844
  942MOL0     H29984  10.882   3.028   6.715 -0.7642  0.2388 -0.0132
  942MOL0     H29985  10.993   2.913   6.789  1.1911  1.2315 -0.5587
  942MOL0     H29986  10.888   2.971   7.015  1.0947  0.3931 -0.5558
  942MOL0     H29987  10.785   2.875   6.911 -1.8862  0.5644  3.2131
  942MOL0     H29988  10.776   3.187   6.917  1.8855 -0.6963  1.9134
  942MOL0     H29989  10.670   3.068   6.833 -2.5467  0.2601  0.8069
  942MOL0     H29990  10.580   3.161   7.075  0.4151  0.6950  0.8332
  942MOL0     H29991  10.711   3.052   7.129 -0.9899 -0.5262 -0.2262
  942MOL0     H29992  10.424   2.783   7.002  2.8377 -2.5207  0.2476
  942MOL0     H29993  11.121   2.997   6.606 -0.2134 -0.2124  1.2254
  942MOL0     H29994  11.238   2.976   6.420 -0.1374 -0.7548 -2.7657
  942MOL0     H29995  11.189   3.116   6.316  1.8914 -0.9996 -1.5389
  942MOL0     H29996  11.348   3.115   6.381 -0.7888  3.0449 -3.3087
  943MOL0     O29997   1.649   2.871  10.356  0.3405 -0.4938 -0.5731
  943MOL0     C29998   1.719   2.819  10.274 -0.8539  0.0423  0.0659
  943MOL0     O29999   1.677   2.789  10.147  0.7568 -0.7244 -0.6986
  943MOL0     C30000   1.542   2.805  10.121 -0.4971 -0.3272 -1.0066
  943MOL0     C30001   1.485   2.926  10.073 -1.1634  1.4936 -0.2225
  943MOL0     C30002   1.348   2.931  10.036  0.4006  0.0767 -0.2640
  943MOL0     C30003   1.268   2.823  10.049 -0.0815  0.8666  0.9424
  943MOL0     O30004   1.139   2.846  10.008  0.5698  0.7313 -0.0200
  943MOL0     C30005   1.037   2.755  10.065  0.1776 -0.6193  0.4661
  943MOL0     C30006   0.914   2.771   9.969 -0.1274  0.0758 -0.2910
  943MOL0     C30007   0.865   2.911   9.959  0.2692  0.7848  0.2433
  943MOL0     C30008   0.719   2.912   9.911 -0.0153 -0.2668  0.3659
  943MOL0     C30009   0.679   3.058   9.891  0.0462  0.4029 -0.0918
  943MOL0     C30010   0.648   3.139  10.013  0.4313 -0.7951 -0.3628
  943MOL0     C30011   0.549   3.254   9.991  0.1950 -0.5151 -0.0207
  943MOL0     C30012   0.601   3.370   9.900 -0.4297  0.3093 -0.1508
  943MOL0     N30013   0.718   3.446   9.952  0.4565  0.0569  0.4282
  943MOL0     C30014   0.716   3.578   9.993  0.4663 -0.1201  0.1229
  943MOL0     C30015   0.837   3.612  10.036  0.0805  0.0261 -1.0689
  943MOL0     C30016   0.876   3.739  10.099  0.1865 -0.6577 -0.6189
  943MOL0     C30017   0.988   3.805  10.005  0.4363  0.4621 -0.8547
  943MOL0     C30018   1.063   3.917  10.084 -0.0419  0.8199 -0.4159
  943MOL0     C30019   1.169   3.986   9.998  0.3634 -1.0281  0.3084
  943MOL0     O30020   1.231   4.102  10.068 -0.1508 -0.2843  0.0068
  943MOL0     C30021   1.304   4.194   9.992 -0.1707  0.8257  0.6425
  943MOL0     C30022   1.335   4.170   9.853 -0.7994 -0.7754 -0.3936
  943MOL0     C30023   1.423   4.266   9.782 -0.5453 -0.1546  0.5524
  943MOL0     C30024   1.435   4.228   9.639 -0.3041 -1.1345 -0.1483
  943MOL0     C30025   1.483   4.378   9.844  0.8728 -0.1366  0.4451
  943MOL0     C30026   1.569   4.480   9.782 -0.0328  0.3465 -0.1542
  943MOL0     O30027   1.571   4.596   9.856  0.8622  0.9548 -0.1418
  943MOL0     C30028   1.624   4.713   9.801 -0.4179  0.2307 -0.8176
  943MOL0     C30029   1.593   4.763   9.673 -0.5415  0.3526  0.9921
  943MOL0     C30030   1.655   4.882   9.619 -0.9770 -0.0204 -0.4321
  943MOL0     C30031   1.742   4.959   9.691  0.8377  0.1730 -0.7065
  943MOL0     O30032   1.813   5.067   9.647  0.5609 -0.0931  0.6058
  943MOL0     C30033   1.742   5.158   9.552  0.0366  0.0526  0.4513
  943MOL0     C30034   1.675   5.272   9.620  0.0239 -0.1360 -0.5996
  943MOL0     C30035   1.609   5.243   9.758 -0.3811  0.0514  0.2505
  943MOL0     C30036   1.543   5.370   9.817  0.7961 -0.0282  0.2293
  943MOL0     C30037   1.467   5.334   9.944 -1.2546  0.2866 -0.1099
  943MOL0     C30038   1.417   5.458  10.017 -0.7641 -0.6255 -0.0864
  943MOL0     C30039   1.302   5.417  10.114 -0.7457  0.1539  0.4522
  943MOL0     C30040   1.297   5.527  10.227 -0.0182 -0.9015 -0.4931
  943MOL0    Cl30041   1.241   5.667  10.142 -0.4768 -0.6711 -0.3123
  943MOL0     C30042   1.765   4.915   9.819  0.1541  0.3566  0.1809
  943MOL0     C30043   1.713   4.794   9.876  0.0258 -0.1783 -0.7710
  943MOL0     O30044   1.627   4.478   9.673 -0.3206 -0.5495  0.0665
  943MOL0     C30045   1.442   4.390   9.977 -0.2734 -0.4919  0.3356
  943MOL0     C30046   1.362   4.298  10.049 -0.5975  0.3082  0.2531
  943MOL0     N30047   0.912   3.501  10.015 -0.0279  1.3688  0.1028
  943MOL0     N30048   0.843   3.411   9.957 -0.0111  0.8684  0.3236
  943MOL0     C30049   1.321   2.703  10.097 -0.4261 -0.0089 -0.6127
  943MOL0     C30050   1.452   2.692  10.124  0.0478 -0.2368  0.2440
  943MOL0     C30051   1.862   2.780  10.297  0.5417 -0.9281 -0.7015
  943MOL0     C30052   1.933   2.709  10.191 -0.9075 -0.5328 -0.3194
  943MOL0     C30053   2.067   2.679  10.207 -0.0127 -0.4123  0.7231
  943MOL0     C30054   2.132   2.696  10.333  0.3119  0.2792 -0.5534
  943MOL0     O30055   2.266   2.669  10.362 -0.0629 -0.1058 -0.4122
  943MOL0     C30056   2.342   2.606  10.255 -0.6310  0.1013  1.0479
  943MOL0     C30057   2.495   2.596  10.288  0.6421  0.4345  1.0877
  943MOL0     C30058   2.565   2.533  10.164  1.1280  0.1962 -0.3111
  943MOL0     C30059   2.712   2.501  10.191 -0.0023 -0.5554  0.5151
  943MOL0     C30060   2.738   2.400  10.089  0.5038 -0.0261  0.2144
  943MOL0     C30061   2.770   2.297  10.036  1.2032 -0.6248 -0.4110
  943MOL0     C30062   2.063   2.759  10.426 -0.6489  0.1064  0.2332
  943MOL0     C30063   1.933   2.805  10.412 -0.0366  0.0086 -0.6597
  943MOL0     C30064   1.876   2.884  10.528 -0.2376 -0.3641  0.0267
  943MOL0     H30065   1.553   3.010  10.072  0.1322  0.5298 -3.1057
  943MOL0     H30066   1.315   3.027   9.998 -0.8436 -0.3377 -0.2814
  943MOL0     H30067   1.013   2.796  10.164 -0.6457 -1.1306  0.4834
  943MOL0     H30068   1.076   2.654  10.079  1.6060 -0.4692 -2.0124
  943MOL0     H30069   0.940   2.726   9.873 -1.4625  1.6204 -1.4263
  943MOL0     H30070   0.831   2.716  10.014 -0.8593 -0.1501 -1.8727
  943MOL0     H30071   0.874   2.947  10.062  3.0216 -2.7917  1.4496
  943MOL0     H30072   0.918   2.966   9.881 -0.8634 -1.8248 -2.6177
  943MOL0     H30073   0.701   2.861   9.816 -0.1765 -0.4886  0.5160
  943MOL0     H30074   0.644   2.871   9.979 -0.8988  0.8026  0.0617
  943MOL0     H30075   0.587   3.047   9.833  0.6602 -1.2904 -0.8037
  943MOL0     H30076   0.746   3.111   9.822 -0.3674 -1.4209 -2.0019
  943MOL0     H30077   0.601   3.075  10.088 -2.5766 -0.2544 -1.6328
  943MOL0     H30078   0.741   3.183  10.048  0.7621  0.3323 -2.4625
  943MOL0     H30079   0.522   3.293  10.090  0.1120 -1.5046  0.3547
  943MOL0     H30080   0.460   3.207   9.948 -0.9672  1.3595  0.2137
  943MOL0     H30081   0.644   3.318   9.814  5.8878 -1.1320  3.2942
  943MOL0     H30082   0.517   3.434   9.871 -1.4105  0.1514  2.1243
  943MOL0     H30083   0.626   3.637   9.986  0.1704 -0.7631 -2.7907
  943MOL0     H30084   0.923   3.717  10.195 -0.3738  1.5311  0.1993
  943MOL0     H30085   0.790   3.803  10.119  1.5285 -0.0283  4.7021
  943MOL0     H30086   1.053   3.725   9.969  0.1083  0.0418 -0.5133
  943MOL0     H30087   0.939   3.840   9.913 -1.8378 -2.2297 -0.8167
  943MOL0     H30088   0.992   3.994  10.116 -0.7486 -0.3005  0.8049
  943MOL0     H30089   1.116   3.874  10.169 -0.0944 -1.5220 -1.4948
  943MOL0     H30090   1.248   3.921   9.961  0.5847 -0.6977  0.1933
  943MOL0     H30091   1.125   4.009   9.900  3.7803 -1.6346 -1.5151
  943MOL0     H30092   1.287   4.091   9.796 -0.7434  0.2715 -1.9587
  943MOL0     H30093   1.377   4.306   9.588 -2.7247 -0.3676  3.4186
  943MOL0     H30094   1.391   4.130   9.619 -0.8073 -1.1231  0.8505
  943MOL0     H30095   1.541   4.232   9.610 -0.6654  2.9335 -1.5197
  943MOL0     H30096   1.530   4.706   9.606  1.5030 -1.9165  0.8638
  943MOL0     H30097   1.648   4.900   9.512 -0.1243 -1.6107 -0.7901
  943MOL0     H30098   1.811   5.201   9.479 -0.2621  0.4305  0.3817
  943MOL0     H30099   1.668   5.108   9.489 -0.4258 -0.2596  1.2282
  943MOL0     H30100   1.756   5.346   9.623  0.1005 -0.2313 -0.3152
  943MOL0     H30101   1.602   5.317   9.552  0.1354  0.9813  0.0075
  943MOL0     H30102   1.678   5.199   9.831  0.4517  0.3350 -0.3502
  943MOL0     H30103   1.539   5.161   9.745 -1.7072  1.0340  0.9492
  943MOL0     H30104   1.468   5.407   9.746 -0.7571 -1.3994  1.0997
  943MOL0     H30105   1.611   5.451   9.848  0.2574 -0.6601  3.3786
  943MOL0     H30106   1.386   5.264   9.917 -1.3973  0.0256  0.9733
  943MOL0     H30107   1.521   5.275  10.018 -2.3894 -1.8814 -0.9006
  943MOL0     H30108   1.381   5.524   9.938  2.1467 -0.1762 -1.1887
  943MOL0     H30109   1.500   5.512  10.065 -0.8269  1.0659 -1.7564
  943MOL0     H30110   1.319   5.323  10.168 -0.3664 -1.3774 -2.1135
  943MOL0     H30111   1.209   5.406  10.057 -0.1023  0.7289 -0.7487
  943MOL0     H30112   1.389   5.541  10.285 -0.8610  1.2241  0.3983
  943MOL0     H30113   1.215   5.508  10.296 -0.1187 -0.3770 -0.4697
  943MOL0     H30114   1.845   4.968   9.871 -0.8725  3.5764 -1.2590
  943MOL0     H30115   1.737   4.774   9.980 -3.3571  0.4219  0.2384
  943MOL0     H30116   1.470   4.477  10.036 -2.1630 -1.3820  2.7173
  943MOL0     H30117   1.328   4.306  10.152 -0.6882 -3.0250  0.6185
  943MOL0     H30118   1.261   2.614  10.106 -0.5552  0.1982  0.7552
  943MOL0     H30119   1.507   2.606  10.163 -1.1035 -1.6907 -1.1940
  943MOL0     H30120   1.893   2.674  10.096 -1.6730 -1.4798  0.3237
  943MOL0     H30121   2.126   2.634  10.128  1.1678  2.8000 -0.3711
  943MOL0     H30122   2.305   2.510  10.218  0.2193  0.7768 -1.7326
  943MOL0     H30123   2.355   2.684  10.180  0.2080 -0.5557  0.5045
  943MOL0     H30124   2.508   2.524  10.369  2.2806 -0.2661  0.2450
  943MOL0     H30125   2.529   2.699  10.308  0.3589  0.3504  2.0880
  943MOL0     H30126   2.512   2.440  10.145 -1.6950  1.1683  2.1191
  943MOL0     H30127   2.552   2.605  10.083 -0.4665  1.1136  0.7137
  943MOL0     H30128   2.726   2.441  10.281 -0.9809 -3.5484 -1.2014
  943MOL0     H30129   2.774   2.591  10.192  2.0909 -1.9375  1.6075
  943MOL0     H30130   2.798   2.202   9.996  2.3917 -1.3252  1.9178
  943MOL0     H30131   2.125   2.766  10.515 -0.4988 -0.9509  0.2156
  943MOL0     H30132   1.869   2.989  10.499  1.2716 -0.8647 -2.4001
  943MOL0     H30133   1.779   2.846  10.561  0.6842  0.7138  4.6516
  943MOL0     H30134   1.945   2.886  10.614 -2.2107 -0.9891  1.7079
  944MOL0     O30135   3.371   8.137   9.314  0.8184 -0.6968 -0.3656
  944MOL0     C30136   3.383   8.023   9.356 -0.3078 -0.1438  0.1056
  944MOL0     O30137   3.465   7.992   9.465  0.4693 -0.7198 -0.1672
  944MOL0     C30138   3.537   8.085   9.536  0.4331 -0.7199  0.4008
  944MOL0     C30139   3.646   8.147   9.481  1.2726 -0.2987  0.6502
  944MOL0     C30140   3.725   8.234   9.551  0.6800  0.0712  0.0287
  944MOL0     C30141   3.694   8.262   9.686  0.0340  0.1045 -0.4702
  944MOL0     O30142   3.781   8.323   9.784  0.0064 -0.2799  0.2396
  944MOL0     C30143   3.920   8.357   9.757  0.2021  0.8912  0.1642
  944MOL0     C30144   4.016   8.332   9.873  0.6966  0.6771 -0.4816
  944MOL0     C30145   4.120   8.442   9.875 -0.1062 -0.3172  0.0195
  944MOL0     C30146   4.210   8.471   9.754 -0.5362  0.4055 -0.0884
  944MOL0     C30147   4.314   8.357   9.738  0.3604 -0.6168  0.8240
  944MOL0     C30148   4.437   8.399   9.649  0.2111  0.2246 -0.6615
  944MOL0     C30149   4.537   8.276   9.645  0.3084  0.2966 -0.1182
  944MOL0     C30150   4.658   8.288   9.730  0.3652 -1.0327  0.4143
  944MOL0     N30151   4.761   8.382   9.674  0.3861  0.0435  0.3258
  944MOL0     C30152   4.853   8.353   9.571 -0.2604 -0.0097  0.7262
  944MOL0     C30153   4.932   8.457   9.558 -1.0018  0.3714  0.7084
  944MOL0     C30154   5.039   8.462   9.457  0.3807  0.0556 -0.2407
  944MOL0     C30155   5.185   8.470   9.517  1.0471  0.2439  0.5190
  944MOL0     C30156   5.243   8.340   9.585  0.1731 -0.3051 -0.1479
  944MOL0     C30157   5.303   8.239   9.483 -0.2438 -0.5526  0.0959
  944MOL0     O30158   5.222   8.196   9.376 -0.3697 -0.3274  0.2162
  944MOL0     C30159   5.113   8.123   9.395  0.3089  0.2077  0.8302
  944MOL0     C30160   5.084   8.054   9.511  0.0460 -0.5158 -0.4520
  944MOL0     C30161   4.962   7.980   9.528 -0.0312  0.4569 -0.1541
  944MOL0     C30162   4.949   7.897   9.659 -0.2987 -0.1781  0.3922
  944MOL0     C30163   4.869   7.977   9.427  1.1248  0.1753 -0.0154
  944MOL0     C30164   4.742   7.920   9.454 -0.6174 -0.2693 -0.3109
  944MOL0     O30165   4.696   7.803   9.381 -0.4397 -0.2067 -0.0067
  944MOL0     C30166   4.788   7.716   9.329 -0.0320  0.3429  0.9535
  944MOL0     C30167   4.858   7.622   9.408 -0.7991 -0.3822  0.0063
  944MOL0     C30168   4.969   7.552   9.349  1.2468  0.0310  0.5415
  944MOL0     C30169   4.989   7.552   9.207  0.7224  0.1152  0.2518
  944MOL0     O30170   5.080   7.489   9.138  0.8445  0.2097  0.3693
  944MOL0     C30171   5.201   7.446   9.215  0.3956  0.2978  0.5270
  944MOL0     C30172   5.296   7.384   9.110 -0.3636  0.5417 -0.5409
  944MOL0     C30173   5.429   7.344   9.170 -0.0551  0.0050  0.4202
  944MOL0     C30174   5.498   7.433   9.276  1.0878 -0.1828  0.1558
  944MOL0     C30175   5.639   7.393   9.307 -0.1306  0.6018 -0.3820
  944MOL0     C30176   5.646   7.246   9.338 -0.6477  0.5544  0.2095
  944MOL0     C30177   5.564   7.210   9.457  0.9603  0.6153 -0.4249
  944MOL0     C30178   5.587   7.059   9.504  0.6226  0.4468  0.8177
  944MOL0    Cl30179   5.759   7.040   9.553  0.2001  0.1823 -0.0155
  944MOL0     C30180   4.911   7.639   9.133  0.4542  0.2142 -0.7798
  944MOL0     C30181   4.813   7.719   9.191 -0.7810  0.4504  0.1022
  944MOL0     O30182   4.674   7.992   9.522 -0.3939  0.5142 -0.7945
  944MOL0     C30183   4.889   8.050   9.305 -0.2838  0.5605 -0.2658
  944MOL0     C30184   5.013   8.120   9.290  0.3829 -0.1279 -0.0866
  944MOL0     N30185   4.895   8.546   9.649 -0.2136 -0.7624  0.6165
  944MOL0     N30186   4.791   8.509   9.722 -0.5854 -0.7962  1.4283
  944MOL0     C30187   3.569   8.214   9.736 -0.5764 -0.4627  0.4204
  944MOL0     C30188   3.497   8.126   9.658  0.4601  0.4614 -0.2063
  944MOL0     C30189   3.309   7.915   9.282 -0.7472 -0.8911  0.3237
  944MOL0     C30190   3.291   7.788   9.338 -0.4934 -0.0425  0.2658
  944MOL0     C30191   3.206   7.692   9.274 -1.1398 -0.1814  0.3481
  944MOL0     C30192   3.141   7.727   9.161  0.3377 -0.3326 -0.4762
  944MOL0     O30193   3.053   7.645   9.092 -0.2504 -0.7012 -0.0542
  944MOL0     C30194   3.010   7.530   9.162  0.2965 -0.1638 -0.7620
  944MOL0     C30195   2.910   7.436   9.095  0.9359 -1.0040 -0.5085
  944MOL0     C30196   2.770   7.494   9.077 -0.5723 -0.2167 -0.2407
  944MOL0     C30197   2.665   7.410   9.001  0.2220  0.5408 -0.2171
  944MOL0     C30198   2.711   7.355   8.871  0.0940  0.5909 -0.5769
  944MOL0     C30199   2.732   7.290   8.770 -0.0503 -1.2786 -0.3379
  944MOL0     C30200   3.146   7.849   9.106 -1.0299 -0.4418 -0.8920
  944MOL0     C30201   3.230   7.947   9.159  0.4147 -0.1421 -0.5873
  944MOL0     C30202   3.215   8.077   9.097 -0.0213  0.2566  0.0751
  944MOL0     H30203   3.685   8.128   9.381 -1.1861 -1.8357 -0.1061
  944MOL0     H30204   3.819   8.264   9.504 -0.0644 -0.5192 -1.9160
  944MOL0     H30205   3.922   8.463   9.727  2.8240  0.1630 -2.7631
  944MOL0     H30206   3.962   8.295   9.678 -2.3328  0.5143 -0.9635
  944MOL0     H30207   3.955   8.334   9.964  0.6872  1.2412 -0.4933
  944MOL0     H30208   4.059   8.232   9.864 -0.2518  0.2139 -0.0771
  944MOL0     H30209   4.081   8.543   9.886  0.4947  0.0263 -0.8302
  944MOL0     H30210   4.194   8.433   9.956  0.8219  0.7360 -0.6768
  944MOL0     H30211   4.140   8.501   9.674 -2.5334  3.4092  2.5249
  944MOL0     H30212   4.261   8.566   9.773  2.7043 -0.9030 -1.5477
  944MOL0     H30213   4.269   8.264   9.704  0.5957 -0.8457  1.1333
  944MOL0     H30214   4.354   8.334   9.837  0.9578  1.8552  1.2352
  944MOL0     H30215   4.402   8.412   9.546  0.1938  4.5962 -0.2610
  944MOL0     H30216   4.486   8.487   9.689 -1.8707  0.7909  0.7730
  944MOL0     H30217   4.568   8.253   9.542 -1.1886  1.5584 -0.8801
  944MOL0     H30218   4.476   8.191   9.677 -0.5611  0.4534 -1.3140
  944MOL0     H30219   4.622   8.329   9.826  0.1397  1.6354 -0.7190
  944MOL0     H30220   4.700   8.191   9.756  1.5388 -1.1532 -1.7452
  944MOL0     H30221   4.854   8.260   9.515 -1.1616  1.3515 -1.7419
  944MOL0     H30222   5.012   8.549   9.396 -0.0894  0.7174  0.8857
  944MOL0     H30223   5.034   8.378   9.387 -1.2202  0.1292 -0.2447
  944MOL0     H30224   5.263   8.513   9.453  1.0467 -1.0997 -0.4089
  944MOL0     H30225   5.181   8.549   9.593  3.5381  2.2499 -1.2599
  944MOL0     H30226   5.326   8.378   9.646  2.3205 -1.1718 -2.3980
  944MOL0     H30227   5.174   8.302   9.660 -0.3660  1.5786  0.3730
  944MOL0     H30228   5.382   8.296   9.436 -1.8780 -0.5628 -2.8746
  944MOL0     H30229   5.342   8.154   9.541 -1.3171 -3.5348 -3.1497
  944MOL0     H30230   5.152   8.072   9.595  1.1024  1.1721 -1.6064
  944MOL0     H30231   5.047   7.887   9.706  0.2088  1.6708 -0.1810
  944MOL0     H30232   4.890   7.807   9.639 -4.0977  2.3827 -0.8931
  944MOL0     H30233   4.882   7.956   9.722 -1.1324  2.0619 -2.4054
  944MOL0     H30234   4.855   7.636   9.516  3.8716  1.2356  0.1661
  944MOL0     H30235   5.042   7.499   9.410  0.1551 -2.1291  0.1003
  944MOL0     H30236   5.246   7.530   9.269 -0.5488  0.1471  1.5777
  944MOL0     H30237   5.154   7.381   9.290 -1.3825  2.6608  1.6005
  944MOL0     H30238   5.243   7.299   9.067 -0.2462  0.2425 -0.0912
  944MOL0     H30239   5.317   7.459   9.033 -0.1393  1.2557  0.2019
  944MOL0     H30240   5.497   7.324   9.087 -1.2724 -0.5666 -0.4645
  944MOL0     H30241   5.413   7.250   9.224  4.4146 -0.6867  0.8838
  944MOL0     H30242   5.439   7.433   9.368 -1.2957  4.4174 -1.0460
  944MOL0     H30243   5.496   7.538   9.244 -1.2442  0.3205  1.7230
  944MOL0     H30244   5.711   7.412   9.226  2.2441 -3.5883  0.4074
  944MOL0     H30245   5.677   7.450   9.392 -0.4308  1.1403 -0.6042
  944MOL0     H30246   5.749   7.212   9.355 -2.2116 -4.3781  1.5455
  944MOL0     H30247   5.617   7.201   9.243 -2.2353  0.9755  0.4722
  944MOL0     H30248   5.457   7.213   9.434  1.2439  0.7184 -1.8319
  944MOL0     H30249   5.594   7.274   9.540  0.9109 -0.5619  0.5367
  944MOL0     H30250   5.564   6.995   9.419  3.0282  2.7426 -1.7578
  944MOL0     H30251   5.523   7.038   9.591  0.1855 -0.7929  0.2134
  944MOL0     H30252   4.940   7.625   9.029  1.1518 -0.9826 -0.4486
  944MOL0     H30253   4.757   7.773   9.115 -0.6019  0.4619 -0.0239
  944MOL0     H30254   4.817   8.050   9.224  1.0382  0.4302 -1.4828
  944MOL0     H30255   5.027   8.175   9.198  0.3980  0.8662  0.4968
  944MOL0     H30256   3.535   8.230   9.838 -1.6518 -1.2327  0.2007
  944MOL0     H30257   3.402   8.080   9.685  0.0726 -0.6340 -3.1248
  944MOL0     H30258   3.347   7.758   9.426  0.4927 -2.1119 -1.0045
  944MOL0     H30259   3.198   7.590   9.310 -1.2541 -0.0044  0.8396
  944MOL0     H30260   3.097   7.466   9.179 -0.7611 -1.0318  2.1115
  944MOL0     H30261   2.969   7.565   9.258  1.6508 -1.7450  0.4554
  944MOL0     H30262   2.895   7.349   9.160 -0.2078  0.6117  1.5179
  944MOL0     H30263   2.962   7.408   9.003  2.2191 -0.5782  0.0659
  944MOL0     H30264   2.728   7.536   9.169 -0.6506 -0.7411 -0.0294
  944MOL0     H30265   2.789   7.577   9.009 -2.4362  0.0612 -0.4841
  944MOL0     H30266   2.580   7.474   8.978 -0.4233  0.1409  0.9887
  944MOL0     H30267   2.620   7.320   9.045 -1.0963  1.6803  0.8430
  944MOL0     H30268   2.749   7.218   8.693  0.2845 -1.7496  0.1620
  944MOL0     H30269   3.103   7.860   9.006 -0.5329  1.9848 -0.8969
  944MOL0     H30270   3.317   8.108   9.074  0.3010 -0.0210  1.0705
  944MOL0     H30271   3.151   8.070   9.008 -2.9524 -0.7345  2.0918
  944MOL0     H30272   3.164   8.143   9.169  0.4815 -0.0089  0.6860
  945MOL0     O30273   2.721   0.099  10.973 -0.3773  0.6493 -0.0935
  945MOL0     C30274   2.691   0.162  10.872 -0.1989 -0.1548  0.5269
  945MOL0     O30275   2.681   0.109  10.747  0.3769 -0.0241 -0.3784
  945MOL0     C30276   2.735  -0.018  10.731  0.4874 -0.0681 -0.3179
  945MOL0     C30277   2.859  -0.063  10.769  0.2105 -0.3017  0.6293
  945MOL0     C30278   2.892  -0.196  10.774 -0.3982 -0.5772  0.1432
  945MOL0     C30279   2.802  -0.291  10.721  1.0315  0.6034 -0.1883
  945MOL0     O30280   2.845  -0.420  10.741 -0.2063  0.6605  0.4655
  945MOL0     C30281   2.769  -0.536  10.698 -0.0290  0.5685 -0.4121
  945MOL0     C30282   2.845  -0.662  10.711  0.3447 -0.2126 -0.3277
  945MOL0     C30283   2.954  -0.673  10.604 -0.0976  0.1209  0.8435
  945MOL0     C30284   3.019  -0.813  10.601  0.0081 -0.1310 -0.5702
  945MOL0     C30285   3.105  -0.830  10.475 -0.4175  0.2525 -0.3599
  945MOL0     C30286   3.219  -0.728  10.460 -0.1768 -0.6592  0.0973
  945MOL0     C30287   3.293  -0.753  10.318  0.0506  0.1238 -1.0446
  945MOL0     C30288   3.444  -0.721  10.332  0.9249 -0.3314  0.1931
  945MOL0     N30289   3.512  -0.831  10.392 -0.1969 -0.2794 -0.6049
  945MOL0     C30290   3.563  -0.935  10.313 -0.0098  0.6598  0.9253
  945MOL0     C30291   3.576  -1.038  10.404  0.7604 -0.6411 -0.4738
  945MOL0     C30292   3.619  -1.179  10.368 -0.0538 -0.4338 -0.3850
  945MOL0     C30293   3.763  -1.199  10.315  0.5087 -0.1146  0.1849
  945MOL0     C30294   3.877  -1.217  10.416  0.1290 -0.1803  1.0544
  945MOL0     C30295   4.000  -1.250  10.332  0.4705  0.2678  0.1013
  945MOL0     O30296   3.987  -1.386  10.295  0.0097 -0.5587  0.5576
  945MOL0     C30297   4.097  -1.449  10.251  0.0797 -0.8071 -0.1587
  945MOL0     C30298   4.177  -1.518  10.341 -0.7249 -0.8465  1.3664
  945MOL0     C30299   4.292  -1.581  10.302  0.1701 -0.0779  0.1218
  945MOL0     C30300   4.386  -1.643  10.404 -0.6148  0.4401 -0.3302
  945MOL0     C30301   4.325  -1.574  10.165 -0.0197  0.8720  0.8936
  945MOL0     C30302   4.457  -1.628  10.113  0.5392 -0.8253  0.7438
  945MOL0     O30303   4.570  -1.596  10.173  0.6071 -0.7981 -0.0117
  945MOL0     C30304   4.697  -1.585  10.114 -0.3580  0.1023 -0.2998
  945MOL0     C30305   4.803  -1.588  10.200 -0.6363 -0.8659  1.0003
  945MOL0     C30306   4.943  -1.573  10.163 -0.4215  0.1661 -0.3710
  945MOL0     C30307   4.972  -1.558  10.027 -1.0431 -0.6193  0.4493
  945MOL0     O30308   5.100  -1.538   9.978 -0.1990  0.5865  0.1635
  945MOL0     C30309   5.190  -1.640  10.017  0.7468 -0.4472  0.0638
  945MOL0     C30310   5.298  -1.660   9.905 -0.7657  0.0558 -0.6488
  945MOL0     C30311   5.394  -1.787   9.938  0.5106  0.5960 -0.5215
  945MOL0     C30312   5.516  -1.751  10.024 -0.5490 -0.2816  0.0264
  945MOL0     C30313   5.486  -1.758  10.174 -0.3465 -0.1358 -0.2427
  945MOL0     C30314   5.618  -1.748  10.265  0.1723 -0.2444  0.2243
  945MOL0     C30315   5.613  -1.840  10.383  0.3404  1.0656  0.7837
  945MOL0     C30316   5.652  -1.985  10.356 -0.1033 -0.4776  0.1275
  945MOL0    Cl30317   5.621  -2.072  10.507  0.1801  0.0143 -0.2183
  945MOL0     C30318   4.858  -1.559   9.932  0.8370  0.1976  0.0050
  945MOL0     C30319   4.722  -1.571   9.973  0.0458 -0.1149  0.0955
  945MOL0     O30320   4.449  -1.695  10.010  0.2003 -0.2643 -0.1304
  945MOL0     C30321   4.252  -1.491  10.081  1.0714 -1.1303  0.6576
  945MOL0     C30322   4.134  -1.429  10.120  0.1366 -0.7409 -0.1094
  945MOL0     N30323   3.542  -0.985  10.528  0.2708 -0.3835 -0.0707
  945MOL0     N30324   3.508  -0.869  10.516 -0.3407 -0.8827  0.3481
  945MOL0     C30325   2.681  -0.249  10.672 -0.6064 -0.6521 -0.3381
  945MOL0     C30326   2.639  -0.116  10.683 -0.5488 -0.2224  0.0029
  945MOL0     C30327   2.660   0.311  10.867  0.0725 -0.5209  0.4900
  945MOL0     C30328   2.718   0.377  10.759  0.0579 -0.3941  0.3985
  945MOL0     C30329   2.682   0.507  10.722 -0.1024 -0.7238  1.4169
  945MOL0     C30330   2.580   0.573  10.786  0.2975  0.2185 -0.6487
  945MOL0     O30331   2.534   0.696  10.740 -0.5812  0.4117  0.0561
  945MOL0     C30332   2.558   0.808  10.836  0.4036 -1.1260  0.0242
  945MOL0     C30333   2.708   0.837  10.843  0.6955 -0.4325  0.1799
  945MOL0     C30334   2.738   0.983  10.896 -0.8874  0.4106  0.6227
  945MOL0     C30335   2.887   1.008  10.910  0.0533 -0.5954 -0.2043
  945MOL0     C30336   2.964   0.975  10.785  0.6916  0.6997 -0.2706
  945MOL0     C30337   3.022   0.950  10.686  0.4856  0.8462  0.9916
  945MOL0     C30338   2.512   0.503  10.892 -0.5685 -0.4247 -0.7086
  945MOL0     C30339   2.560   0.376  10.944  1.3228  0.2096  0.7147
  945MOL0     C30340   2.508   0.308  11.057  0.4892 -0.0006 -0.5945
  945MOL0     H30341   2.931   0.009  10.807  0.2735  0.2267 -0.4480
  945MOL0     H30342   2.987  -0.227  10.817 -0.1714 -0.5117 -0.3019
  945MOL0     H30343   2.728  -0.514  10.599 -2.4682  3.5342  1.0621
  945MOL0     H30344   2.686  -0.547  10.769  0.2563  2.9648  0.4003
  945MOL0     H30345   2.885  -0.667  10.813 -0.9817 -0.8734  0.1926
  945MOL0     H30346   2.778  -0.747  10.726 -0.9114  1.1247  2.5786
  945MOL0     H30347   2.914  -0.654  10.504 -1.4124 -1.0944  1.1139
  945MOL0     H30348   3.033  -0.600  10.627  3.6764 -3.1478 -0.5823
  945MOL0     H30349   3.087  -0.823  10.686  0.7839 -1.6429 -1.3447
  945MOL0     H30350   2.942  -0.890  10.604  2.9624 -3.2961  0.4099
  945MOL0     H30351   3.031  -0.827  10.395 -1.2151  0.2947  0.3671
  945MOL0     H30352   3.147  -0.930  10.489 -0.4791  0.6078  3.3405
  945MOL0     H30353   3.176  -0.628  10.461  1.6957  0.2224  2.6782
  945MOL0     H30354   3.285  -0.728  10.547  0.4877 -2.5128 -0.3554
  945MOL0     H30355   3.252  -0.678  10.249  0.3876  0.7922 -0.5266
  945MOL0     H30356   3.270  -0.854  10.283  1.1874 -0.5268  0.0381
  945MOL0     H30357   3.491  -0.695  10.237  0.4995  0.4731  0.1890
  945MOL0     H30358   3.459  -0.630  10.391 -1.0693 -0.2141  0.6003
  945MOL0     H30359   3.599  -0.937  10.210 -0.9500 -0.6230  0.5938
  945MOL0     H30360   3.542  -1.223  10.303 -0.6381  0.2730 -0.1754
  945MOL0     H30361   3.612  -1.234  10.462 -1.8660  0.0818 -0.1910
  945MOL0     H30362   3.759  -1.294  10.261 -0.6529 -1.4037  2.3875
  945MOL0     H30363   3.776  -1.119  10.241 -0.5562 -0.0211  0.0790
  945MOL0     H30364   3.880  -1.125  10.476 -0.8790 -0.9353  2.3143
  945MOL0     H30365   3.865  -1.298  10.489  1.6569 -0.4607  1.0283
  945MOL0     H30366   4.014  -1.173  10.256  1.8544  0.0337  0.1022
  945MOL0     H30367   4.085  -1.242  10.401 -0.2656  1.6659  0.8838
  945MOL0     H30368   4.151  -1.497  10.444  0.0704 -1.3795  1.6878
  945MOL0     H30369   4.434  -1.730  10.360 -2.9241 -1.5393  0.7867
  945MOL0     H30370   4.340  -1.694  10.489  2.4394 -1.7750  0.1598
  945MOL0     H30371   4.463  -1.571  10.436 -1.6244  3.3062 -3.6653
  945MOL0     H30372   4.786  -1.604  10.306  0.9887 -0.8983  1.2710
  945MOL0     H30373   5.017  -1.571  10.243 -2.7210 -3.2067  2.1449
  945MOL0     H30374   5.230  -1.625  10.117 -0.4881 -1.1225  0.6810
  945MOL0     H30375   5.128  -1.729  10.028 -0.8643  0.6499  0.1011
  945MOL0     H30376   5.240  -1.695   9.818  1.7915 -0.2058 -2.3715
  945MOL0     H30377   5.355  -1.567   9.898  2.6636 -1.4348  3.4041
  945MOL0     H30378   5.420  -1.841   9.847 -3.5104 -0.8162 -1.0421
  945MOL0     H30379   5.336  -1.866   9.986  0.6359 -2.2678 -4.6190
  945MOL0     H30380   5.547  -1.648  10.007 -0.6589 -0.2404  0.0731
  945MOL0     H30381   5.609  -1.806  10.006 -0.6272  0.1742 -1.9732
  945MOL0     H30382   5.418  -1.680  10.209 -3.7627 -2.6420 -0.8726
  945MOL0     H30383   5.446  -1.859  10.188  2.0222 -2.2991 -5.9200
  945MOL0     H30384   5.631  -1.649  10.310  0.5732  0.0328 -0.4969
  945MOL0     H30385   5.713  -1.760  10.213  0.0034  1.8060 -0.6531
  945MOL0     H30386   5.515  -1.848  10.432 -0.2024 -1.5490 -0.5328
  945MOL0     H30387   5.687  -1.804  10.454  0.5453  0.3456  0.9456
  945MOL0     H30388   5.756  -2.003  10.327  0.1968 -0.3476  1.0890
  945MOL0     H30389   5.580  -2.038  10.292 -0.7001 -0.3983  0.7208
  945MOL0     H30390   4.880  -1.561   9.826  1.7245 -1.4594  0.1973
  945MOL0     H30391   4.648  -1.574   9.893  1.6462 -0.0143 -1.4306
  945MOL0     H30392   4.290  -1.468   9.982  3.5034 -2.1453  1.2852
  945MOL0     H30393   4.081  -1.362  10.053  1.5711  2.1162  1.4271
  945MOL0     H30394   2.602  -0.320  10.653 -0.3401 -0.9184 -0.4566
  945MOL0     H30395   2.535  -0.094  10.661 -0.7984 -0.6248  0.7476
  945MOL0     H30396   2.785   0.328  10.689  0.4607 -0.0732  0.5556
  945MOL0     H30397   2.722   0.558  10.635  0.6569  0.0514  2.2030
  945MOL0     H30398   2.512   0.902  10.801  1.9561 -0.4804 -0.3656
  945MOL0     H30399   2.516   0.791  10.935 -0.6534 -0.8444 -0.3598
  945MOL0     H30400   2.756   0.826  10.745 -3.3847  3.0394 -2.5384
  945MOL0     H30401   2.745   0.763  10.914 -0.6748 -0.7133  0.6279
  945MOL0     H30402   2.706   1.045  10.812  0.8739  1.5278  0.7280
  945MOL0     H30403   2.679   1.006  10.985 -2.6411 -1.4199  0.0258
  945MOL0     H30404   2.930   0.959  10.998 -1.9240  0.6200  1.5622
  945MOL0     H30405   2.913   1.110  10.941 -2.4455 -1.0627  4.4265
  945MOL0     H30406   3.072   0.926  10.595  1.2093  1.1327  1.3085
  945MOL0     H30407   2.433   0.561  10.938  1.9414  3.2169 -0.6552
  945MOL0     H30408   2.440   0.380  11.103 -0.6881 -0.6530 -1.2699
  945MOL0     H30409   2.449   0.219  11.035 -1.2598  0.8642  0.3126
  945MOL0     H30410   2.593   0.293  11.124  0.9482  0.4458 -1.0730
  946MOL0     O30411   2.980   7.818   7.789 -1.3306 -0.2069  0.3915
  946MOL0     C30412   3.092   7.779   7.828  0.1050 -0.0474  0.4531
  946MOL0     O30413   3.157   7.822   7.946  0.6936  0.1962  0.2048
  946MOL0     C30414   3.096   7.938   7.993 -0.1601  0.2226  0.2606
  946MOL0     C30415   2.997   7.941   8.087  0.1922  0.6852  0.2354
  946MOL0     C30416   2.929   8.056   8.117  0.3789 -0.0738 -0.0298
  946MOL0     C30417   2.975   8.187   8.058  0.0274  0.1973  0.4634
  946MOL0     O30418   2.927   8.312   8.088  0.5064  0.2089 -0.3653
  946MOL0     C30419   2.807   8.308   8.163 -0.0318  0.6770 -0.2737
  946MOL0     C30420   2.753   8.452   8.199  0.0869  0.0031 -0.0818
  946MOL0     C30421   2.742   8.470   8.358 -0.5542 -1.5302  0.4226
  946MOL0     C30422   2.669   8.602   8.411 -0.3107  0.3682  0.3054
  946MOL0     C30423   2.758   8.733   8.405 -0.8561  0.0435 -0.7103
  946MOL0     C30424   2.680   8.855   8.448 -0.6526 -0.3180 -0.2723
  946MOL0     C30425   2.773   8.979   8.407  0.6661  1.1028  0.0099
  946MOL0     C30426   2.710   9.117   8.441 -0.2897 -0.0305  0.4819
  946MOL0     N30427   2.576   9.141   8.386 -0.0640  0.7495 -0.7952
  946MOL0     C30428   2.537   9.224   8.282 -1.3052 -0.1627  0.2269
  946MOL0     C30429   2.404   9.245   8.288 -0.2547 -0.1777 -0.6854
  946MOL0     C30430   2.325   9.348   8.204  0.6419 -0.2470  0.3802
  946MOL0     C30431   2.243   9.442   8.289  0.0505  0.6773 -0.2804
  946MOL0     C30432   2.183   9.548   8.194  0.1575  0.3472  0.8660
  946MOL0     C30433   2.066   9.620   8.270 -0.2301 -0.2722 -0.3652
  946MOL0     O30434   2.020   9.727   8.185 -0.6187  0.1190 -0.0558
  946MOL0     C30435   1.984   9.707   8.055  0.8630  0.5788  0.7099
  946MOL0     C30436   1.913   9.595   8.015 -0.1611  0.0157 -0.4556
  946MOL0     C30437   1.856   9.590   7.888  0.0988  1.0992  1.1964
  946MOL0     C30438   1.796   9.457   7.837  0.8086 -0.5198  0.0790
  946MOL0     C30439   1.863   9.699   7.800  0.0751  0.6906 -0.0894
  946MOL0     C30440   1.792   9.702   7.661  0.6302 -0.4894 -0.8796
  946MOL0     O30441   1.675   9.626   7.631 -0.1875  0.1864 -0.2530
  946MOL0     C30442   1.603   9.642   7.508 -0.2343  1.2201 -0.2448
  946MOL0     C30443   1.665   9.630   7.388  0.9963 -0.0897  0.1837
  946MOL0     C30444   1.589   9.625   7.266 -0.5319 -0.4997 -0.8650
  946MOL0     C30445   1.447   9.615   7.268  0.1164 -0.5750  0.7649
  946MOL0     O30446   1.380   9.596   7.150 -0.0403 -0.2429  0.2253
  946MOL0     C30447   1.248   9.528   7.136  0.2849  0.1186  0.6262
  946MOL0     C30448   1.257   9.375   7.152  0.8394 -0.0585  0.7786
  946MOL0     C30449   1.113   9.317   7.159 -0.0675 -0.6659 -0.6313
  946MOL0     C30450   1.055   9.313   7.017 -0.3279  0.9921 -0.6550
  946MOL0     C30451   0.901   9.286   7.013  0.5609  0.5513  0.4772
  946MOL0     C30452   0.814   9.399   7.085 -0.2387  0.1493 -1.0424
  946MOL0     C30453   0.661   9.385   7.048  0.1190 -0.3880  0.8092
  946MOL0     C30454   0.566   9.492   7.093 -0.7611 -0.2503 -0.4052
  946MOL0    Cl30455   0.402   9.472   7.011 -0.1711 -0.0540  0.0838
  946MOL0     C30456   1.383   9.629   7.394 -0.1867  0.6184 -0.8098
  946MOL0     C30457   1.462   9.651   7.506 -0.1521  0.1719 -0.2588
  946MOL0     O30458   1.843   9.783   7.580  0.0263 -0.6137 -0.1772
  946MOL0     C30459   1.945   9.803   7.839 -0.1901 -0.2787  0.1871
  946MOL0     C30460   2.004   9.810   7.969  0.6865 -0.8152  1.2786
  946MOL0     N30461   2.356   9.181   8.404 -0.6023  0.6076  0.4867
  946MOL0     N30462   2.463   9.128   8.459  0.3447  0.0901  0.2031
  946MOL0     C30463   3.073   8.177   7.958 -0.6341 -0.3275 -1.0997
  946MOL0     C30464   3.129   8.053   7.934  0.3009 -0.4143  0.6013
  946MOL0     C30465   3.158   7.670   7.749 -1.1188 -0.9329 -0.2454
  946MOL0     C30466   3.291   7.687   7.705 -0.6301 -0.7292  0.0770
  946MOL0     C30467   3.363   7.581   7.637 -0.2009 -0.0721  0.1100
  946MOL0     C30468   3.296   7.469   7.595 -0.4943  0.1356  1.0064
  946MOL0     O30469   3.358   7.376   7.509  0.3705  0.1653 -0.1617
  946MOL0     C30470   3.371   7.242   7.569 -0.5623  0.6585 -0.2924
  946MOL0     C30471   3.513   7.214   7.613  0.6093 -0.1522 -0.1156
  946MOL0     C30472   3.504   7.078   7.684 -0.2277  0.2508  1.6707
  946MOL0     C30473   3.494   6.950   7.597  0.0310 -0.4423 -0.1867
  946MOL0     C30474   3.495   6.825   7.672  0.0584 -0.2481 -0.3127
  946MOL0     C30475   3.502   6.719   7.719  0.1488  0.4038 -0.2875
  946MOL0     C30476   3.160   7.452   7.621 -0.6214 -0.1066 -0.2305
  946MOL0     C30477   3.093   7.543   7.702  0.4918 -0.9592 -0.7336
  946MOL0     C30478   2.945   7.523   7.719  1.2994 -0.1635  0.6770
  946MOL0     H30479   2.966   7.845   8.126  1.9281 -1.3371 -2.9203
  946MOL0     H30480   2.843   8.046   8.181  0.5054  2.8179  0.7513
  946MOL0     H30481   2.836   8.258   8.256  3.6231 -0.0990 -1.6484
  946MOL0     H30482   2.740   8.245   8.103  2.4688 -1.1060 -1.3612
  946MOL0     H30483   2.817   8.523   8.147  0.8770 -1.8167 -1.7122
  946MOL0     H30484   2.652   8.457   8.156  0.0041 -0.1931  0.0859
  946MOL0     H30485   2.688   8.388   8.405  2.7503 -2.5267  2.8954
  946MOL0     H30486   2.836   8.460   8.414  1.1633  1.3304 -1.6440
  946MOL0     H30487   2.579   8.608   8.348  0.5319  0.2995 -0.9529
  946MOL0     H30488   2.638   8.598   8.516 -0.6236  1.7193  0.2871
  946MOL0     H30489   2.801   8.749   8.306 -0.9341 -0.0633 -0.7610
  946MOL0     H30490   2.846   8.717   8.468 -0.2441  1.0323 -1.2861
  946MOL0     H30491   2.593   8.862   8.382  1.6239  1.2726 -3.3973
  946MOL0     H30492   2.654   8.840   8.553  2.8395  0.3067  0.8125
  946MOL0     H30493   2.768   8.986   8.298  1.5671 -1.6268 -0.2828
  946MOL0     H30494   2.874   8.977   8.449  1.1928  2.5011 -1.1306
  946MOL0     H30495   2.701   9.116   8.551  2.2138 -0.9764  0.7501
  946MOL0     H30496   2.770   9.200   8.403 -2.4120  0.8099 -1.2249
  946MOL0     H30497   2.611   9.268   8.216 -2.0353  0.2838 -0.3137
  946MOL0     H30498   2.249   9.296   8.145 -1.6915  1.7193  1.4716
  946MOL0     H30499   2.401   9.402   8.147 -0.4955 -0.2029 -1.1499
  946MOL0     H30500   2.159   9.381   8.324  0.3537 -2.1942 -3.9199
  946MOL0     H30501   2.294   9.496   8.369 -1.6387  1.2231  0.4756
  946MOL0     H30502   2.259   9.619   8.161  0.5099  0.9547  2.8327
  946MOL0     H30503   2.142   9.498   8.106  0.6036  0.1527  0.7666
  946MOL0     H30504   1.976   9.561   8.288  0.5557 -2.6317 -3.3798
  946MOL0     H30505   2.111   9.658   8.363  0.7176 -0.3359 -0.7916
  946MOL0     H30506   1.902   9.517   8.090 -0.3559  1.0420  0.6119
  946MOL0     H30507   1.842   9.446   7.738  0.1490  2.4039 -0.6549
  946MOL0     H30508   1.688   9.471   7.833  0.7798  1.1041  3.2932
  946MOL0     H30509   1.819   9.373   7.903 -0.0294  0.1568  1.2784
  946MOL0     H30510   1.773   9.624   7.388  0.9687 -2.3711  2.6113
  946MOL0     H30511   1.641   9.623   7.171 -1.0654 -1.5449 -1.1565
  946MOL0     H30512   1.175   9.566   7.207 -1.2899 -1.3466 -0.1484
  946MOL0     H30513   1.224   9.559   7.034  0.4081 -0.0104  0.5575
  946MOL0     H30514   1.313   9.350   7.061  1.8683  1.0687  1.0742
  946MOL0     H30515   1.313   9.351   7.243 -0.4387 -0.2948  1.5240
  946MOL0     H30516   1.048   9.380   7.220  1.2653  0.9847 -0.8464
  946MOL0     H30517   1.113   9.217   7.202  0.7598 -1.6623 -2.8313
  946MOL0     H30518   1.103   9.224   6.975  0.6073 -0.0030  2.2571
  946MOL0     H30519   1.090   9.402   6.963  2.7531 -0.5032 -1.3496
  946MOL0     H30520   0.861   9.269   6.912  3.3420 -0.7588 -0.5079
  946MOL0     H30521   0.881   9.190   7.062  1.8393 -0.7140 -1.3538
  946MOL0     H30522   0.841   9.504   7.069 -2.2522  0.6822 -1.2422
  946MOL0     H30523   0.843   9.388   7.190 -2.4598 -2.7062 -0.5917
  946MOL0     H30524   0.624   9.291   7.089 -0.1243 -0.1376  1.1666
  946MOL0     H30525   0.657   9.402   6.940  0.1084  2.4278  1.1642
  946MOL0     H30526   0.610   9.589   7.069  0.2870 -0.6584 -0.1637
  946MOL0     H30527   0.554   9.476   7.201 -3.0873  0.1018 -0.5683
  946MOL0     H30528   1.277   9.616   7.412 -0.2177  2.7195  0.8140
  946MOL0     H30529   1.409   9.670   7.599 -0.8560  0.4329 -0.7111
  946MOL0     H30530   1.956   9.882   7.765 -2.9552  1.1547  1.1432
  946MOL0     H30531   2.056   9.900   7.997  1.9715 -1.2828  0.4733
  946MOL0     H30532   3.121   8.261   7.908  0.2219 -1.1342 -1.6726
  946MOL0     H30533   3.202   8.044   7.855 -1.1403  1.2954 -1.0336
  946MOL0     H30534   3.346   7.774   7.740 -0.7828 -1.2510  1.7169
  946MOL0     H30535   3.470   7.585   7.618 -0.3196  2.0241 -0.4014
  946MOL0     H30536   3.291   7.229   7.643 -0.1972  2.6823  0.5392
  946MOL0     H30537   3.337   7.158   7.509 -1.8925  1.6423 -0.9853
  946MOL0     H30538   3.532   7.294   7.685 -0.0891 -1.1196  1.1813
  946MOL0     H30539   3.586   7.225   7.532 -0.4339  1.1937 -0.9003
  946MOL0     H30540   3.588   7.072   7.753  1.9232  1.9065 -0.6176
  946MOL0     H30541   3.413   7.078   7.744 -1.0907  0.3350  0.4152
  946MOL0     H30542   3.585   6.944   7.537  0.1564 -0.8486  0.0456
  946MOL0     H30543   3.405   6.950   7.533 -0.2530 -1.5683  0.1916
  946MOL0     H30544   3.511   6.614   7.736 -0.2753  0.1147 -1.7045
  946MOL0     H30545   3.091   7.379   7.583 -2.1331  1.9510 -1.6701
  946MOL0     H30546   2.915   7.561   7.817 -3.6981  0.8257 -0.9567
  946MOL0     H30547   2.896   7.583   7.641 -1.7238  1.2201  3.3942
  946MOL0     H30548   2.913   7.418   7.715 -1.8188  0.5459  2.8870
  947MOL0     O30549   5.422   5.954  10.299  0.1730  0.4788 -0.2250
  947MOL0     C30550   5.370   5.870  10.375 -1.2627 -0.2647 -0.2883
  947MOL0     O30551   5.432   5.753  10.411 -1.3414  0.3291 -0.5653
  947MOL0     C30552   5.539   5.722  10.335  0.4954 -0.0180  0.8361
  947MOL0     C30553   5.520   5.695  10.199  0.0494  0.2833  0.6100
  947MOL0     C30554   5.628   5.669  10.112  0.1974 -0.2679 -0.1206
  947MOL0     C30555   5.756   5.642  10.164  0.3233 -0.0344  0.0166
  947MOL0     O30556   5.870   5.596  10.097  0.8141  0.0786 -0.8266
  947MOL0     C30557   5.887   5.634   9.965  0.4976 -0.5667 -0.7985
  947MOL0     C30558   5.972   5.540   9.881 -0.0522 -0.4475  0.2427
  947MOL0     C30559   5.914   5.403   9.879 -0.1210 -0.2585  0.1486
  947MOL0     C30560   6.002   5.312   9.968 -0.1325 -0.2576  0.2349
  947MOL0     C30561   6.122   5.263   9.879 -0.3779 -1.0031 -0.4270
  947MOL0     C30562   6.237   5.218   9.963  0.0526 -0.3014 -0.9001
  947MOL0     C30563   6.353   5.152   9.884 -0.0718  0.4770  0.2791
  947MOL0     C30564   6.314   5.026   9.814  0.5029 -0.1886 -0.7759
  947MOL0     N30565   6.427   4.942   9.778 -0.2307  0.5836 -0.1448
  947MOL0     C30566   6.530   4.897   9.863  0.5253  0.3385 -0.5297
  947MOL0     C30567   6.603   4.809   9.793 -0.4671 -1.0356 -0.3557
  947MOL0     C30568   6.737   4.752   9.838  0.1438  0.3626 -0.1511
  947MOL0     C30569   6.837   4.863   9.833  0.3108  1.7004 -0.1003
  947MOL0     C30570   6.986   4.807   9.832  0.0665 -0.9428  0.1478
  947MOL0     C30571   7.089   4.916   9.834 -0.1271  0.1861  0.1006
  947MOL0     O30572   7.219   4.861   9.792 -0.0350  0.3175  0.0562
  947MOL0     C30573   7.326   4.926   9.846 -0.6242 -1.1343  0.0816
  947MOL0     C30574   7.326   5.051   9.909  1.5287  0.6490 -0.4180
  947MOL0     C30575   7.438   5.122   9.956 -1.1628  0.5381  1.2283
  947MOL0     C30576   7.416   5.266  10.022 -0.2018 -0.0145 -0.1828
  947MOL0     C30577   7.563   5.056   9.941 -0.1344 -0.5332  0.5896
  947MOL0     C30578   7.693   5.112   9.976  0.3113 -0.5817 -0.0980
  947MOL0     O30579   7.804   5.064   9.909 -0.0448  0.4075  0.0146
  947MOL0     C30580   7.925   5.135   9.927  0.3977  0.7138 -0.5720
  947MOL0     C30581   8.035   5.065   9.982  0.2383  0.0174 -0.3555
  947MOL0     C30582   8.165   5.119   9.979  0.4016  0.3122 -0.2097
  947MOL0     C30583   8.180   5.237   9.893 -0.0931  0.1643  0.5427
  947MOL0     O30584   8.304   5.294   9.871  0.0333  0.3188  0.1851
  947MOL0     C30585   8.423   5.241   9.918 -0.3843 -0.0631 -0.1891
  947MOL0     C30586   8.429   5.274  10.064 -0.9013  0.4899  0.5424
  947MOL0     C30587   8.459   5.418  10.084 -0.0722  1.5720  0.8664
  947MOL0     C30588   8.507   5.452  10.223  0.1221 -0.2593  0.1338
  947MOL0     C30589   8.504   5.597  10.240 -0.1962  0.2015 -0.3026
  947MOL0     C30590   8.385   5.652  10.320  0.2017 -0.6931  0.4162
  947MOL0     C30591   8.396   5.590  10.464 -0.2081  0.9489 -0.1945
  947MOL0     C30592   8.337   5.674  10.572  0.2412  0.5507 -0.4209
  947MOL0    Cl30593   8.432   5.811  10.629 -0.1371  0.1479  0.1612
  947MOL0     C30594   8.073   5.306   9.841  0.8106  0.4541  0.0441
  947MOL0     C30595   7.943   5.263   9.874  0.2933 -0.0291 -0.5585
  947MOL0     O30596   7.703   5.211  10.053 -0.3215 -0.0469  0.0745
  947MOL0     C30597   7.559   4.931   9.875 -0.1109  0.5524 -1.0226
  947MOL0     C30598   7.448   4.862   9.826  0.1221  0.6195  0.4566
  947MOL0     N30599   6.543   4.793   9.674  0.4389 -0.1995  1.2133
  947MOL0     N30600   6.432   4.871   9.660 -0.0734  0.0649 -0.9358
  947MOL0     C30601   5.770   5.652  10.308 -0.4311  0.3974 -0.3134
  947MOL0     C30602   5.663   5.695  10.389 -0.1788  0.7399  0.1801
  947MOL0     C30603   5.237   5.902  10.434 -0.2150  0.3649 -0.5867
  947MOL0     C30604   5.173   5.809  10.516  0.4456  0.6090  0.3941
  947MOL0     C30605   5.046   5.821  10.562 -0.7837  0.8325 -0.5420
  947MOL0     C30606   4.977   5.935  10.539  0.0177 -0.2173  0.1238
  947MOL0     O30607   4.849   5.958  10.583  0.6086  0.3735 -0.4915
  947MOL0     C30608   4.779   5.865  10.670 -0.5119 -0.3101 -0.3809
  947MOL0     C30609   4.702   5.756  10.606 -0.0132 -0.5771 -0.6949
  947MOL0     C30610   4.582   5.812  10.518 -0.9129  0.8151  0.0479
  947MOL0     C30611   4.510   5.714  10.421 -0.9686 -0.2516 -0.1650
  947MOL0     C30612   4.409   5.778  10.340 -0.3699 -0.0760 -0.1239
  947MOL0     C30613   4.345   5.851  10.278  1.0365  0.5978  0.7606
  947MOL0     C30614   5.034   6.027  10.453  1.1861 -0.1690 -0.3381
  947MOL0     C30615   5.162   6.020  10.406  0.5450 -0.1501  0.3726
  947MOL0     C30616   5.191   6.120  10.304  0.6900 -0.7060  0.7948
  947MOL0     H30617   5.426   5.701  10.146 -1.0891  2.2559  2.6768
  947MOL0     H30618   5.610   5.668  10.005 -1.1841 -0.4928  0.0858
  947MOL0     H30619   5.944   5.727   9.969  0.2081 -0.2377 -2.9196
  947MOL0     H30620   5.793   5.657   9.914  0.7392 -1.0811 -1.4966
  947MOL0     H30621   5.973   5.572   9.776 -2.2347 -2.8260 -0.6123
  947MOL0     H30622   6.072   5.556   9.922 -0.5735  5.7983 -0.0198
  947MOL0     H30623   5.816   5.407   9.926  1.1006 -0.2729  2.9401
  947MOL0     H30624   5.913   5.367   9.776 -2.3206  2.7196 -1.0147
  947MOL0     H30625   6.042   5.366  10.055  0.8612 -1.3006  0.4366
  947MOL0     H30626   5.951   5.220   9.997  0.6635 -1.4376 -1.8799
  947MOL0     H30627   6.153   5.341   9.809 -4.0940 -1.1229 -2.4504
  947MOL0     H30628   6.095   5.180   9.813  3.9148 -0.7001 -2.8990
  947MOL0     H30629   6.272   5.309  10.012 -2.1367  0.9158 -1.4536
  947MOL0     H30630   6.187   5.146  10.029 -0.6471 -1.4307 -2.5667
  947MOL0     H30631   6.435   5.140   9.955  1.5441  3.4220 -0.8945
  947MOL0     H30632   6.397   5.222   9.811 -0.0965  1.1093  0.8647
  947MOL0     H30633   6.264   4.960   9.885  0.4847 -0.9173 -1.4533
  947MOL0     H30634   6.248   5.047   9.729 -0.8382  0.4453  0.3984
  947MOL0     H30635   6.534   4.920   9.969  1.0522  1.7986 -0.8440
  947MOL0     H30636   6.766   4.668   9.773 -0.4296  0.6367 -0.7644
  947MOL0     H30637   6.730   4.709   9.939  1.0934  1.6390  0.4832
  947MOL0     H30638   6.814   4.919   9.742 -0.1291  1.1307 -0.3447
  947MOL0     H30639   6.825   4.925   9.923 -1.0717  0.0269  0.9427
  947MOL0     H30640   7.006   4.752   9.924 -1.5679 -0.2414  0.9632
  947MOL0     H30641   7.009   4.742   9.747 -1.5222 -0.6983 -0.5034
  947MOL0     H30642   7.062   4.997   9.766 -2.1920  1.9098  2.7897
  947MOL0     H30643   7.085   4.967   9.931 -0.9820  0.5898 -0.1427
  947MOL0     H30644   7.235   5.100   9.939 -0.3436 -3.0905  0.6717
  947MOL0     H30645   7.317   5.305  10.001  0.7223  1.0918 -2.8890
  947MOL0     H30646   7.480   5.350   9.992 -1.1670  0.8536  0.1108
  947MOL0     H30647   7.434   5.259  10.130  0.1846  2.8673  0.0340
  947MOL0     H30648   8.024   4.974  10.040  0.1667  0.5144  0.4395
  947MOL0     H30649   8.249   5.074  10.031  0.8630 -2.5840 -3.1194
  947MOL0     H30650   8.422   5.132   9.905 -1.9161 -0.3572  1.9316
  947MOL0     H30651   8.510   5.287   9.870  2.0233  0.2004  4.0046
  947MOL0     H30652   8.340   5.240  10.118 -0.7024 -0.4246  0.3138
  947MOL0     H30653   8.518   5.218  10.094  0.5665  1.4499 -1.7012
  947MOL0     H30654   8.365   5.470  10.063 -1.1772 -1.2632 -2.0626
  947MOL0     H30655   8.541   5.454  10.021  1.6190 -0.6982  1.6244
  947MOL0     H30656   8.610   5.416  10.227 -0.2210 -1.6225 -1.8930
  947MOL0     H30657   8.455   5.398  10.304  2.4005 -2.1016  0.4887
  947MOL0     H30658   8.591   5.628  10.299  0.2979 -0.3423 -0.7359
  947MOL0     H30659   8.515   5.649  10.145 -1.8719 -1.5000 -1.5151
  947MOL0     H30660   8.286   5.628  10.280 -0.1673  1.5319 -0.1369
  947MOL0     H30661   8.394   5.761  10.323  0.3141 -0.6544 -0.8905
  947MOL0     H30662   8.503   5.581  10.484 -0.0854  0.1696 -1.1493
  947MOL0     H30663   8.350   5.491  10.467  0.2146  0.6358  5.0499
  947MOL0     H30664   8.317   5.621  10.665 -0.9636  1.1837 -0.2996
  947MOL0     H30665   8.238   5.709  10.542 -1.3201 -2.0606  1.3388
  947MOL0     H30666   8.092   5.395   9.782  2.0841 -0.0081 -0.2618
  947MOL0     H30667   7.855   5.312   9.833 -0.7007 -0.6614  0.7581
  947MOL0     H30668   7.651   4.874   9.876 -1.1440 -1.1940 -0.7116
  947MOL0     H30669   7.469   4.772   9.769  3.7973  0.7996  1.2437
  947MOL0     H30670   5.863   5.631  10.359 -0.7796  0.3138  0.2854
  947MOL0     H30671   5.666   5.700  10.497  1.1181  0.3270  0.1733
  947MOL0     H30672   5.228   5.715  10.518 -0.6265 -0.0549 -0.2624
  947MOL0     H30673   5.002   5.739  10.619  0.5238 -2.6583 -4.0682
  947MOL0     H30674   4.857   5.816  10.729 -0.8003 -0.3113  0.0036
  947MOL0     H30675   4.727   5.924  10.746  1.8583 -1.0255  1.9393
  947MOL0     H30676   4.658   5.681  10.672 -0.8169 -0.2726 -0.8789
  947MOL0     H30677   4.771   5.708  10.535  0.9565  0.1535 -0.2641
  947MOL0     H30678   4.500   5.851  10.580  0.5940  0.2545  2.5257
  947MOL0     H30679   4.627   5.887  10.452  2.8266 -2.2688 -1.2282
  947MOL0     H30680   4.467   5.637  10.486 -2.2190  1.7038  1.4465
  947MOL0     H30681   4.588   5.671  10.358  0.2418  0.6465  0.6711
  947MOL0     H30682   4.281   5.917  10.223 -0.5343 -2.2688 -1.0999
  947MOL0     H30683   4.968   6.111  10.436  0.7950 -0.5241 -0.6103
  947MOL0     H30684   5.293   6.159  10.301 -0.4788  2.6270 -0.7966
  947MOL0     H30685   5.156   6.106  10.201 -1.2063  2.0463  0.9633
  947MOL0     H30686   5.148   6.216  10.333  1.6619  0.7373 -2.1081
  948MOL0     O30687   7.850  11.119   3.058 -0.6192  0.0596 -0.5923
  948MOL0     C30688   7.861  11.225   2.995  0.6021  0.6051  0.3573
  948MOL0     O30689   7.973  11.282   2.937  0.3330  0.7872  0.1436
  948MOL0     C30690   8.088  11.203   2.948  0.5289  0.0037 -0.0482
  948MOL0     C30691   8.169  11.187   3.063  1.5800  0.2408 -0.3143
  948MOL0     C30692   8.283  11.110   3.057 -1.2137  0.0454  0.1361
  948MOL0     C30693   8.340  11.063   2.940  0.1017 -0.0908 -0.9061
  948MOL0     O30694   8.462  11.005   2.928  0.1059  0.4026 -0.0147
  948MOL0     C30695   8.577  11.015   3.027 -0.1676  0.2851  0.5048
  948MOL0     C30696   8.632  11.147   3.044 -0.4770 -0.0148 -0.5678
  948MOL0     C30697   8.741  11.159   3.159  0.7604 -0.0288  0.5526
  948MOL0     C30698   8.877  11.093   3.140  0.7121  0.8994 -1.5347
  948MOL0     C30699   8.999  11.192   3.130  0.0589 -0.8284  0.1722
  948MOL0     C30700   8.978  11.296   3.018 -0.6444 -0.2255 -0.0216
  948MOL0     C30701   9.113  11.353   2.972  0.3444 -0.5689 -1.3488
  948MOL0     C30702   9.091  11.457   2.861  0.6205 -0.1909  0.6183
  948MOL0     N30703   9.199  11.550   2.857 -0.2945  0.1241  0.8989
  948MOL0     C30704   9.278  11.571   2.748 -0.5082  0.0016  0.2926
  948MOL0     C30705   9.372  11.652   2.794  0.4423  0.3397 -0.7797
  948MOL0     C30706   9.486  11.719   2.715  1.1081 -0.1257  0.8068
  948MOL0     C30707   9.585  11.630   2.640  0.4092 -0.1447 -0.6877
  948MOL0     C30708   9.580  11.653   2.484 -0.0859  0.4037 -0.4514
  948MOL0     C30709   9.442  11.618   2.427 -0.1633  0.2396 -0.2873
  948MOL0     O30710   9.425  11.484   2.474  0.1287 -0.6238 -0.4973
  948MOL0     C30711   9.325  11.405   2.423  0.1525  0.3047  0.6353
  948MOL0     C30712   9.262  11.427   2.296  0.3074  0.8969 -0.3373
  948MOL0     C30713   9.187  11.327   2.242  1.1792 -0.4545  0.2798
  948MOL0     C30714   9.116  11.365   2.105 -0.0354  0.0618 -0.9028
  948MOL0     C30715   9.159  11.208   2.313  0.6904  0.7467 -0.2825
  948MOL0     C30716   9.050  11.104   2.277 -0.4096  0.4119  0.9512
  948MOL0     O30717   8.962  11.121   2.168  0.1106  0.1223 -0.3737
  948MOL0     C30718   8.871  11.025   2.143 -0.4865 -0.3556  0.4107
  948MOL0     C30719   8.738  11.069   2.122  0.0172 -0.3644 -0.4564
  948MOL0     C30720   8.641  10.978   2.100  0.8100 -0.7801  0.1088
  948MOL0     C30721   8.669  10.839   2.086  0.1145 -0.1488  0.5170
  948MOL0     O30722   8.577  10.743   2.056  0.3945 -0.3060  0.0567
  948MOL0     C30723   8.541  10.725   1.920  0.3134 -0.1817  0.2477
  948MOL0     C30724   8.615  10.614   1.844 -0.0903 -0.1192  0.4303
  948MOL0     C30725   8.559  10.577   1.706 -0.7831  0.7120  0.3985
  948MOL0     C30726   8.672  10.511   1.615  0.1615  0.1492  0.6687
  948MOL0     C30727   8.625  10.515   1.467 -0.3148  0.6111  0.0460
  948MOL0     C30728   8.751  10.494   1.371  0.0815 -0.1094  0.5170
  948MOL0     C30729   8.722  10.513   1.220  0.3538 -0.1220 -0.1697
  948MOL0     C30730   8.614  10.423   1.165  0.4706  0.7255 -0.5266
  948MOL0    Cl30731   8.452  10.501   1.195 -0.2507 -0.0685 -0.1158
  948MOL0     C30732   8.803  10.795   2.086  0.2317  0.4872 -0.5176
  948MOL0     C30733   8.904  10.885   2.120  0.5083 -0.9867 -0.9223
  948MOL0     O30734   9.048  11.009   2.345 -0.7579 -0.3373 -0.3003
  948MOL0     C30735   9.225  11.184   2.433 -0.0105 -1.1310 -0.9910
  948MOL0     C30736   9.310  11.283   2.492  0.6627  0.3241  0.3297
  948MOL0     N30737   9.322  11.697   2.917 -0.2707 -0.5540  0.0863
  948MOL0     N30738   9.225  11.631   2.963 -0.0194  0.5820  0.0793
  948MOL0     C30739   8.253  11.075   2.835 -0.3416 -0.6985  0.5109
  948MOL0     C30740   8.134  11.148   2.830 -0.8052 -0.6831 -0.6449
  948MOL0     C30741   7.730  11.299   2.965  0.7622  1.1359  0.0165
  948MOL0     C30742   7.637  11.306   3.066 -0.0380  0.2022  0.2731
  948MOL0     C30743   7.518  11.358   3.039  0.2953 -1.2947  0.5372
  948MOL0     C30744   7.491  11.437   2.924 -0.2797 -0.5427 -0.6427
  948MOL0     O30745   7.380  11.513   2.910  0.2456  0.4385 -0.6108
  948MOL0     C30746   7.252  11.459   2.950  0.2724 -0.6691  0.8696
  948MOL0     C30747   7.137  11.552   2.897 -0.8151 -0.0365 -0.9562
  948MOL0     C30748   7.090  11.653   2.995 -0.2549 -0.1796  0.0622
  948MOL0     C30749   7.003  11.761   2.920 -0.0003 -0.2695 -0.5817
  948MOL0     C30750   6.970  11.870   3.019  0.2660  1.3479 -0.6019
  948MOL0     C30751   6.945  11.944   3.110 -0.5000 -0.3150 -1.1396
  948MOL0     C30752   7.596  11.436   2.829 -0.0200  0.5932  0.0461
  948MOL0     C30753   7.708  11.362   2.849 -0.6649 -0.0676  0.9052
  948MOL0     C30754   7.804  11.352   2.723 -0.0257  0.9347 -0.4990
  948MOL0     H30755   8.149  11.227   3.162  3.6233  0.8495 -0.1172
  948MOL0     H30756   8.334  11.095   3.152 -1.4050 -1.2954  0.0324
  948MOL0     H30757   8.650  10.941   2.992 -2.6759 -1.5084 -1.2835
  948MOL0     H30758   8.541  10.982   3.124 -0.0747  0.6797  0.6766
  948MOL0     H30759   8.685  11.185   2.956  1.0270 -3.1708 -1.1529
  948MOL0     H30760   8.553  11.213   3.079 -0.7577 -1.0954  0.9299
  948MOL0     H30761   8.748  11.269   3.163  0.2239  0.2568 -2.9333
  948MOL0     H30762   8.705  11.126   3.256  1.5534  0.7058  1.1128
  948MOL0     H30763   8.899  11.027   3.224  1.8299  1.4408 -1.3896
  948MOL0     H30764   8.873  11.027   3.052 -3.3771  0.1575 -1.0104
  948MOL0     H30765   9.092  11.138   3.112  0.0693  0.1142 -3.5642
  948MOL0     H30766   9.013  11.243   3.226  1.6957 -0.0274 -0.4589
  948MOL0     H30767   8.918  11.245   2.942  1.3811 -1.1782 -1.0780
  948MOL0     H30768   8.919  11.378   3.060  0.3854 -0.0901  1.2207
  948MOL0     H30769   9.185  11.279   2.937  3.1362  0.4300  1.7521
  948MOL0     H30770   9.154  11.401   3.062 -0.2749 -0.1766 -1.2698
  948MOL0     H30771   9.083  11.409   2.764 -0.3021  1.9166 -0.4193
  948MOL0     H30772   8.999  11.514   2.877  1.1136  0.9416 -0.4277
  948MOL0     H30773   9.259  11.523   2.652 -1.2926  1.1298 -0.1364
  948MOL0     H30774   9.548  11.789   2.771  0.4957  0.7729  0.3895
  948MOL0     H30775   9.430  11.777   2.641 -0.7552 -1.9544  0.6975
  948MOL0     H30776   9.684  11.655   2.680 -0.5652  1.6747  0.7448
  948MOL0     H30777   9.569  11.525   2.668  0.3532  0.4220  1.6586
  948MOL0     H30778   9.602  11.758   2.463 -1.3153  0.2750 -2.6479
  948MOL0     H30779   9.658  11.584   2.451 -1.7444 -2.0971  0.5163
  948MOL0     H30780   9.362  11.677   2.472  0.4906 -1.4366  3.4750
  948MOL0     H30781   9.449  11.631   2.318  2.8133  2.1202  0.0060
  948MOL0     H30782   9.288  11.514   2.237  0.4760  1.4081  0.4779
  948MOL0     H30783   9.169  11.440   2.047 -2.6900  1.7742 -1.3086
  948MOL0     H30784   9.012  11.396   2.120 -0.4751 -0.9494 -1.7355
  948MOL0     H30785   9.116  11.272   2.048  0.8105 -1.2246  1.0783
  948MOL0     H30786   8.709  11.172   2.136  1.8288 -0.0097  1.1432
  948MOL0     H30787   8.535  11.000   2.088  0.5439 -2.8360 -2.0096
  948MOL0     H30788   8.433  10.703   1.917 -0.4438  3.0189  0.8044
  948MOL0     H30789   8.550  10.822   1.872 -0.8131 -0.1615  0.0432
  948MOL0     H30790   8.719  10.648   1.834 -0.1741  0.3683  1.1772
  948MOL0     H30791   8.635  10.521   1.899  2.3668 -0.7016 -1.2519
  948MOL0     H30792   8.523  10.669   1.658  3.7212  2.2522 -0.5265
  948MOL0     H30793   8.482  10.500   1.704  2.0751 -2.3262 -0.2776
  948MOL0     H30794   8.690  10.406   1.640 -0.4654 -1.0889 -3.2951
  948MOL0     H30795   8.763  10.569   1.630 -0.4964  2.3546 -2.7213
  948MOL0     H30796   8.557  10.434   1.438 -1.3927  1.9027 -1.1989
  948MOL0     H30797   8.579  10.613   1.450  3.3590  2.3003 -1.3133
  948MOL0     H30798   8.795  10.394   1.372  3.0334  1.0576 -0.8319
  948MOL0     H30799   8.828  10.562   1.408 -0.1954  0.4405  0.1103
  948MOL0     H30800   8.815  10.492   1.166  1.9758  0.7087  2.0969
  948MOL0     H30801   8.688  10.613   1.190 -0.1412  0.1404  1.1965
  948MOL0     H30802   8.635  10.326   1.212  0.5482  0.8028 -0.3997
  948MOL0     H30803   8.621  10.419   1.056 -2.7870 -0.3772 -0.7934
  948MOL0     H30804   8.818  10.689   2.064  3.8821  1.0200 -1.3185
  948MOL0     H30805   9.008  10.853   2.131  0.4307 -0.9994 -0.1700
  948MOL0     H30806   9.199  11.096   2.490  0.9997 -1.2938 -0.7553
  948MOL0     H30807   9.347  11.282   2.594  0.1478  4.5842  0.7011
  948MOL0     H30808   8.273  11.027   2.740 -1.0075 -0.3016  0.1650
  948MOL0     H30809   8.089  11.150   2.731  2.1727  0.9211 -2.0839
  948MOL0     H30810   7.646  11.253   3.161  0.8294 -1.0268 -0.4735
  948MOL0     H30811   7.446  11.360   3.121  0.6029  0.1596  0.7972
  948MOL0     H30812   7.242  11.362   2.899  1.7683 -0.4649  0.1162
  948MOL0     H30813   7.240  11.448   3.058  1.1021  0.0083  1.0456
  948MOL0     H30814   7.068  11.471   2.871 -1.5672  0.4884 -0.6301
  948MOL0     H30815   7.162  11.609   2.807 -1.1327  4.0486  1.3197
  948MOL0     H30816   7.036  11.600   3.074 -2.3207  1.5291 -0.1292
  948MOL0     H30817   7.182  11.693   3.040  1.4826 -1.7466 -1.8769
  948MOL0     H30818   6.911  11.716   2.883  0.4620 -1.1156 -0.7422
  948MOL0     H30819   7.065  11.801   2.839  1.1687 -1.3561 -0.2692
  948MOL0     H30820   6.916  12.021   3.179  0.4523  0.7745 -1.9302
  948MOL0     H30821   7.579  11.468   2.727 -2.5218 -0.8445 -0.0690
  948MOL0     H30822   7.842  11.250   2.712  1.4003  1.3646  0.1775
  948MOL0     H30823   7.749  11.376   2.632  0.0899  2.8559 -0.1049
  948MOL0     H30824   7.888  11.421   2.737  0.8249  0.2514 -2.0390
  949MOL0     O30825   4.935   9.657   5.564  0.1566  0.7540  0.1001
  949MOL0     C30826   5.011   9.554   5.548  0.4357 -0.1668 -0.3182
  949MOL0     O30827   4.965   9.428   5.557  0.0103  0.1032 -0.0762
  949MOL0     C30828   4.828   9.410   5.588 -0.5657 -0.6683 -0.5714
  949MOL0     C30829   4.785   9.376   5.719 -0.1085  0.1186 -0.1204
  949MOL0     C30830   4.654   9.354   5.759 -0.3250  0.5631  1.1145
  949MOL0     C30831   4.556   9.379   5.663  0.1808 -0.3003 -0.1030
  949MOL0     O30832   4.423   9.364   5.694  0.0068  0.1813  0.2652
  949MOL0     C30833   4.354   9.253   5.645 -0.1038 -0.1553  0.4404
  949MOL0     C30834   4.207   9.262   5.704 -0.1752 -0.7799  0.4756
  949MOL0     C30835   4.154   9.403   5.730  0.2542  0.5480 -0.1475
  949MOL0     C30836   4.027   9.411   5.817  0.3008  0.4400  0.4448
  949MOL0     C30837   4.057   9.366   5.966  0.4962  0.1603  0.7614
  949MOL0     C30838   3.921   9.330   6.020 -0.6720  0.0095 -0.4668
  949MOL0     C30839   3.922   9.266   6.166  0.4150  0.2517 -0.1048
  949MOL0     C30840   3.894   9.369   6.280 -0.5231 -0.5011  0.2934
  949MOL0     N30841   3.822   9.307   6.398 -0.6739 -0.4234 -0.1516
  949MOL0     C30842   3.763   9.394   6.494 -0.7285  0.8882  0.4170
  949MOL0     C30843   3.711   9.305   6.588  0.7158 -0.1085  0.4677
  949MOL0     C30844   3.659   9.344   6.725  0.8255  0.2797  0.5312
  949MOL0     C30845   3.775   9.408   6.795 -0.4344  0.5058  0.2534
  949MOL0     C30846   3.741   9.470   6.929  0.2489 -0.5552 -0.5036
  949MOL0     C30847   3.680   9.373   7.037 -0.7476  0.3953  0.1003
  949MOL0     O30848   3.656   9.456   7.151 -0.3451  0.0330  0.4111
  949MOL0     C30849   3.753   9.471   7.244  0.3152  0.3132  0.2956
  949MOL0     C30850   3.713   9.525   7.370 -0.7999  0.0255 -0.5814
  949MOL0     C30851   3.804   9.536   7.482 -0.0668 -0.5350  0.1142
  949MOL0     C30852   3.748   9.605   7.607  0.9692  0.2996  0.1363
  949MOL0     C30853   3.937   9.505   7.471  0.3762 -0.2387  1.3246
  949MOL0     C30854   4.034   9.505   7.576 -0.0712 -1.1274  0.4894
  949MOL0     O30855   3.988   9.505   7.709  0.0298 -0.2890 -0.1259
  949MOL0     C30856   4.076   9.482   7.813 -0.1655  0.6676  0.5034
  949MOL0     C30857   4.197   9.554   7.827 -0.7121  0.5682  0.3137
  949MOL0     C30858   4.291   9.518   7.927 -0.2001 -0.2576  0.3412
  949MOL0     C30859   4.274   9.408   8.012 -0.0825 -0.4245 -0.5567
  949MOL0     O30860   4.387   9.383   8.089  0.5032 -0.4792  0.4745
  949MOL0     C30861   4.405   9.249   8.137 -0.1738  0.0449  0.3003
  949MOL0     C30862   4.497   9.251   8.260  0.6917  0.6304 -0.5470
  949MOL0     C30863   4.541   9.115   8.315 -0.0543  0.0885  0.8382
  949MOL0     C30864   4.469   9.054   8.444 -0.4366 -0.4421  0.7006
  949MOL0     C30865   4.543   9.089   8.570  0.1130 -1.0650 -0.8554
  949MOL0     C30866   4.461   9.036   8.693 -0.1911  0.6835  0.7427
  949MOL0     C30867   4.556   9.074   8.809  1.1379  0.3432 -0.3911
  949MOL0     C30868   4.527   9.000   8.938  0.4700 -0.5063  0.6600
  949MOL0    Cl30869   4.377   9.038   9.021  0.5390  0.2396 -0.1771
  949MOL0     C30870   4.154   9.343   7.996 -1.1159  0.7610  0.4036
  949MOL0     C30871   4.062   9.370   7.896 -1.3848  0.0365 -1.1113
  949MOL0     O30872   4.154   9.500   7.543  0.5516  0.6761 -0.3021
  949MOL0     C30873   3.979   9.458   7.346  0.2596 -0.3580 -0.3529
  949MOL0     C30874   3.888   9.442   7.234 -0.0950  0.1078 -0.3905
  949MOL0     N30875   3.733   9.175   6.536 -0.1217  0.6385 -0.9097
  949MOL0     N30876   3.802   9.172   6.427 -0.0171  0.5232 -0.1291
  949MOL0     C30877   4.596   9.407   5.528  0.2935 -0.5630 -0.1011
  949MOL0     C30878   4.731   9.419   5.495 -0.0706 -0.8171  0.7196
  949MOL0     C30879   5.161   9.571   5.553 -0.3560  0.1743 -0.5543
  949MOL0     C30880   5.216   9.686   5.622 -0.5001 -0.4161 -0.5093
  949MOL0     C30881   5.348   9.724   5.603 -0.3766  0.1472 -0.0231
  949MOL0     C30882   5.442   9.632   5.550  0.1268 -0.4402  0.1899
  949MOL0     O30883   5.580   9.652   5.562 -0.1799 -0.1919  0.1933
  949MOL0     C30884   5.622   9.695   5.692  0.3258 -0.3846 -0.7323
  949MOL0     C30885   5.753   9.618   5.726  0.3772  0.3681 -0.0712
  949MOL0     C30886   5.729   9.470   5.752 -0.2018  0.4160  0.8371
  949MOL0     C30887   5.870   9.399   5.757 -0.8051  0.6654  0.1374
  949MOL0     C30888   5.975   9.468   5.834 -0.4289 -1.1634 -0.9967
  949MOL0     C30889   6.057   9.541   5.884  0.1917 -0.5581  0.4879
  949MOL0     C30890   5.394   9.506   5.504  0.2870 -0.1615 -0.0537
  949MOL0     C30891   5.257   9.475   5.505  0.1622 -0.0960  0.5461
  949MOL0     C30892   5.207   9.346   5.433 -0.2502  0.0837  0.4828
  949MOL0     H30893   4.867   9.371   5.791  0.8103 -1.7245 -1.1984
  949MOL0     H30894   4.640   9.332   5.865  2.2834 -1.6788  1.0879
  949MOL0     H30895   4.385   9.151   5.669  0.6972 -0.3117 -1.1484
  949MOL0     H30896   4.339   9.264   5.537  1.0113 -0.2582  0.2580
  949MOL0     H30897   4.138   9.207   5.640 -0.0530 -0.9707  0.5062
  949MOL0     H30898   4.213   9.209   5.799  1.5006 -2.3135 -0.4245
  949MOL0     H30899   4.227   9.467   5.781  1.8706  0.6186 -2.3719
  949MOL0     H30900   4.120   9.455   5.640 -2.0762 -0.3555  0.1359
  949MOL0     H30901   3.998   9.517   5.813  0.4942  0.5289  1.2255
  949MOL0     H30902   3.944   9.349   5.784 -0.4420  0.2418  2.5013
  949MOL0     H30903   4.086   9.453   6.026  3.7362  1.4606 -2.3560
  949MOL0     H30904   4.138   9.293   5.972 -1.3780 -2.5653 -3.1664
  949MOL0     H30905   3.854   9.417   6.022  1.3322  1.6382  0.8059
  949MOL0     H30906   3.884   9.256   5.949  0.6009  0.9405 -2.1822
  949MOL0     H30907   4.021   9.228   6.193  0.7312  1.4044  0.4390
  949MOL0     H30908   3.846   9.187   6.171  0.8491 -0.1535  0.1191
  949MOL0     H30909   3.986   9.423   6.306 -1.3889  1.6965 -0.8923
  949MOL0     H30910   3.823   9.439   6.234 -1.7044  1.7151  4.8665
  949MOL0     H30911   3.761   9.502   6.502  1.1218  0.9145  1.1541
  949MOL0     H30912   3.618   9.261   6.785 -0.5256 -1.0698 -2.0999
  949MOL0     H30913   3.580   9.416   6.702 -1.1468 -1.7974  0.4292
  949MOL0     H30914   3.850   9.329   6.807 -0.3400  0.3826 -0.9505
  949MOL0     H30915   3.823   9.482   6.731 -0.0910  0.3545  0.3348
  949MOL0     H30916   3.824   9.533   6.962  0.1675 -1.1136  0.8419
  949MOL0     H30917   3.660   9.541   6.914  0.9276  0.6707  1.3668
  949MOL0     H30918   3.588   9.326   7.000 -1.1708  2.2899 -1.4423
  949MOL0     H30919   3.749   9.291   7.057 -2.4735 -0.9006  0.9368
  949MOL0     H30920   3.616   9.573   7.377 -0.6050  0.8061 -2.5032
  949MOL0     H30921   3.815   9.685   7.639  0.7162  0.0748  1.2957
  949MOL0     H30922   3.738   9.547   7.700 -0.3371 -0.6042 -0.5316
  949MOL0     H30923   3.649   9.648   7.588  0.9299  0.0916 -0.1461
  949MOL0     H30924   4.229   9.640   7.769  2.6956  0.5544  1.8781
  949MOL0     H30925   4.373   9.587   7.946  1.4069 -2.2047  0.8277
  949MOL0     H30926   4.311   9.198   8.160 -1.6035  1.6843 -1.5912
  949MOL0     H30927   4.453   9.182   8.065  0.1528 -0.1032  0.6484
  949MOL0     H30928   4.592   9.293   8.227  3.5391 -4.6257 -0.0792
  949MOL0     H30929   4.477   9.319   8.344  2.0242  2.6290 -1.7525
  949MOL0     H30930   4.651   9.115   8.322 -0.0291  2.1727  1.0039
  949MOL0     H30931   4.527   9.038   8.239  0.8621  0.9765 -0.2757
  949MOL0     H30932   4.471   8.946   8.429  1.7117 -0.3608  0.0649
  949MOL0     H30933   4.363   9.081   8.449 -0.4309 -0.4486  0.8927
  949MOL0     H30934   4.636   9.031   8.558  0.1143 -1.3616  0.5063
  949MOL0     H30935   4.561   9.195   8.588  1.5442 -0.8741 -2.9483
  949MOL0     H30936   4.456   8.927   8.690 -0.8167  0.7107  0.7176
  949MOL0     H30937   4.357   9.071   8.702 -1.9752 -4.1252  1.8330
  949MOL0     H30938   4.549   9.178   8.840  1.2877 -0.0914  1.2154
  949MOL0     H30939   4.658   9.044   8.784  1.9408  1.7679  0.9884
  949MOL0     H30940   4.611   9.000   9.008 -0.7459 -2.0921  2.1995
  949MOL0     H30941   4.515   8.894   8.916 -1.4717 -0.4458  1.2523
  949MOL0     H30942   4.145   9.248   8.048 -2.6749  2.1218  2.8090
  949MOL0     H30943   3.967   9.318   7.889 -4.0496  3.8489  1.7724
  949MOL0     H30944   4.083   9.465   7.313 -0.0011 -2.4604 -1.8155
  949MOL0     H30945   3.940   9.409   7.145  0.1805 -1.6374  0.3757
  949MOL0     H30946   4.523   9.420   5.448 -0.5638  0.0367  0.7646
  949MOL0     H30947   4.758   9.413   5.390  0.1890 -0.1451  0.7454
  949MOL0     H30948   5.161   9.775   5.651  0.1226 -0.4875  0.9572
  949MOL0     H30949   5.392   9.815   5.642 -2.4170  0.9116  0.6049
  949MOL0     H30950   5.640   9.802   5.680 -4.5319  0.9630  1.3512
  949MOL0     H30951   5.543   9.685   5.767  1.2055  2.8950  0.8257
  949MOL0     H30952   5.789   9.659   5.821  0.7575 -2.2575  1.0110
  949MOL0     H30953   5.834   9.628   5.654 -0.9115 -0.5305 -1.7318
  949MOL0     H30954   5.677   9.454   5.847 -3.3932 -0.4274 -0.9294
  949MOL0     H30955   5.651   9.430   5.687  0.0527  0.6249  0.4014
  949MOL0     H30956   5.897   9.403   5.652  1.0625  1.7190  0.6165
  949MOL0     H30957   5.857   9.297   5.796  1.5830 -0.1819 -1.1124
  949MOL0     H30958   6.110   9.620   5.933  2.6071 -2.1735  0.6805
  949MOL0     H30959   5.466   9.433   5.469  0.8891 -0.6538  2.0171
  949MOL0     H30960   5.284   9.282   5.389  0.4009  2.0694 -1.4575
  949MOL0     H30961   5.140   9.290   5.498 -1.4137  0.0523 -0.6915
  949MOL0     H30962   5.149   9.376   5.345 -0.2649  1.8688  1.0669
  950MOL0     O30963   3.277   1.188   2.298 -0.3352 -0.1237  0.6984
  950MOL0     C30964   3.207   1.240   2.210  0.1884  0.1320 -0.1841
  950MOL0     O30965   3.253   1.291   2.094  0.1387  0.3115  0.2857
  950MOL0     C30966   3.385   1.276   2.063  0.0262  0.2880  0.4733
  950MOL0     C30967   3.488   1.321   2.136  0.0479 -0.5935 -0.4762
  950MOL0     C30968   3.614   1.301   2.095 -0.6362  0.7246  0.1306
  950MOL0     C30969   3.645   1.243   1.971  0.0421 -1.0101 -0.3401
  950MOL0     O30970   3.764   1.187   1.922 -0.1379  0.0577  0.3356
  950MOL0     C30971   3.883   1.252   1.963 -0.5586  1.4029 -0.3567
  950MOL0     C30972   3.996   1.174   1.916 -0.0466  0.7011 -0.3146
  950MOL0     C30973   4.111   1.239   1.846 -0.6020 -0.3117 -0.6925
  950MOL0     C30974   4.202   1.157   1.756 -0.2449 -1.4663 -0.5917
  950MOL0     C30975   4.329   1.241   1.712 -0.5566  0.9550  0.0949
  950MOL0     C30976   4.289   1.351   1.613  0.4392 -0.2107  0.1878
  950MOL0     C30977   4.406   1.405   1.530 -0.4195 -0.3409  0.0246
  950MOL0     C30978   4.374   1.526   1.439 -0.3636 -0.7926 -0.5732
  950MOL0     N30979   4.470   1.538   1.331 -0.2015  0.2486 -0.1001
  950MOL0     C30980   4.481   1.459   1.221 -0.2286  0.0335 -0.1122
  950MOL0     C30981   4.570   1.523   1.143  0.5415  0.6109  1.1684
  950MOL0     C30982   4.630   1.475   1.011  0.5546 -0.7087 -0.0450
  950MOL0     C30983   4.729   1.370   1.046 -0.0443 -0.5423 -0.1801
  950MOL0     C30984   4.834   1.353   0.935 -0.3133 -0.1805 -0.9567
  950MOL0     C30985   4.777   1.287   0.813 -0.2579  0.0780 -0.0141
  950MOL0     O30986   4.881   1.301   0.712 -0.5539 -0.0588  0.0404
  950MOL0     C30987   4.902   1.415   0.646  0.0121  0.1876 -0.0186
  950MOL0     C30988   4.797   1.507   0.622  0.7294 -0.2359 -0.4330
  950MOL0     C30989   4.808   1.611   0.524 -0.6274 -0.5340  0.0999
  950MOL0     C30990   4.692   1.698   0.495 -0.0829 -0.1285 -0.5253
  950MOL0     C30991   4.926   1.619   0.444  0.0429 -0.2472 -1.0255
  950MOL0     C30992   4.936   1.717   0.342  0.7377  0.6887 -0.4237
  950MOL0     O30993   4.904   1.844   0.366  0.3020 -0.1276  0.2044
  950MOL0     C30994   4.955   1.942   0.280 -0.2713  0.1177 -1.4833
  950MOL0     C30995   4.873   2.036   0.224  0.1897 -0.7845  0.1018
  950MOL0     C30996   4.927   2.136   0.153 -0.0748 -0.6957  0.7176
  950MOL0     C30997   5.052   2.162   0.137 -0.4405  0.0661  0.5025
  950MOL0     O30998   5.090   2.249   0.039  0.6560  0.1878 -0.3212
  950MOL0     C30999   5.223   2.226  -0.004 -0.1243 -0.4601  0.7479
  950MOL0     C31000   5.256   2.325  -0.119  1.6032 -0.8374  0.5800
  950MOL0     C31001   5.391   2.398  -0.126 -0.0249  0.4120  0.2842
  950MOL0     C31002   5.519   2.294  -0.142  0.1425  0.4267  0.4985
  950MOL0     C31003   5.642   2.378  -0.141  0.3535  0.3808 -1.1718
  950MOL0     C31004   5.663   2.425   0.007 -0.2787 -0.5081 -0.4848
  950MOL0     C31005   5.812   2.478   0.012  0.7762  0.1810  0.6085
  950MOL0     C31006   5.843   2.530   0.143  0.2979 -0.2986 -0.2923
  950MOL0    Cl31007   5.772   2.696   0.179 -0.0190  0.0870 -0.3708
  950MOL0     C31008   5.144   2.066   0.203  0.2623 -0.1873  0.3162
  950MOL0     C31009   5.088   1.964   0.276 -0.0971  0.1925  0.5345
  950MOL0     O31010   5.001   1.676   0.242  0.4667 -0.5891  0.1566
  950MOL0     C31011   5.025   1.525   0.469  0.4041  0.0304  0.3536
  950MOL0     C31012   5.014   1.420   0.564 -0.5666 -0.0807  0.2320
  950MOL0     N31013   4.605   1.645   1.195  0.5049  0.8901 -0.6137
  950MOL0     N31014   4.534   1.659   1.307 -0.3499 -0.1168 -0.4169
  950MOL0     C31015   3.538   1.186   1.903 -0.4576 -0.5895  0.5035
  950MOL0     C31016   3.406   1.203   1.945 -0.5302  0.8073 -0.3671
  950MOL0     C31017   3.061   1.259   2.247 -0.4145  1.2458  0.4578
  950MOL0     C31018   2.999   1.384   2.232 -0.5072  0.3023  0.5425
  950MOL0     C31019   2.874   1.404   2.282 -0.4863  0.6631 -0.7833
  950MOL0     C31020   2.798   1.306   2.351 -0.6593  0.3382  0.8545
  950MOL0     O31021   2.677   1.316   2.415  0.2910 -0.3292 -0.0620
  950MOL0     C31022   2.590   1.429   2.404  0.2637  0.4075  0.2260
  950MOL0     C31023   2.528   1.423   2.260  0.5921 -0.4131 -0.3030
  950MOL0     C31024   2.405   1.525   2.251  0.0444 -0.2488 -0.4439
  950MOL0     C31025   2.391   1.576   2.105 -0.9617  1.0965  0.4773
  950MOL0     C31026   2.304   1.688   2.068 -0.1662  0.8068 -0.1132
  950MOL0     C31027   2.247   1.794   2.060  0.4929  0.0696 -0.2732
  950MOL0     C31028   2.859   1.180   2.357  0.6719 -0.5421  0.1183
  950MOL0     C31029   2.985   1.148   2.301 -0.1790  0.1297 -0.4006
  950MOL0     C31030   3.039   1.008   2.324  0.0402  0.0250 -0.5584
  950MOL0     H31031   3.481   1.371   2.232 -0.3877  3.0610 -2.2232
  950MOL0     H31032   3.694   1.340   2.157  0.1533 -2.4324  1.2695
  950MOL0     H31033   3.880   1.245   2.072 -1.9220  3.8597 -0.1548
  950MOL0     H31034   3.885   1.354   1.924  1.8850  1.3798 -0.4485
  950MOL0     H31035   4.030   1.118   2.004  2.2763 -1.1501 -2.2691
  950MOL0     H31036   3.936   1.107   1.853  1.0983  0.8079 -1.5460
  950MOL0     H31037   4.060   1.304   1.775  0.6445 -0.0414 -1.3790
  950MOL0     H31038   4.172   1.296   1.917 -3.0330  2.9456 -0.9937
  950MOL0     H31039   4.241   1.077   1.820 -2.0942  0.0421  2.6606
  950MOL0     H31040   4.157   1.122   1.662 -3.6276 -0.0132  0.3567
  950MOL0     H31041   4.384   1.174   1.645 -2.1860  2.3020 -2.7785
  950MOL0     H31042   4.377   1.285   1.800 -1.8633  3.2088 -0.2449
  950MOL0     H31043   4.216   1.321   1.537  0.4775  1.1415 -0.4079
  950MOL0     H31044   4.238   1.431   1.668 -2.0294 -1.4330 -0.1665
  950MOL0     H31045   4.431   1.315   1.472 -1.5977  0.5543 -1.9485
  950MOL0     H31046   4.490   1.435   1.592 -3.3152  1.2992  3.5060
  950MOL0     H31047   4.271   1.518   1.403 -0.2319 -2.3307 -0.6899
  950MOL0     H31048   4.377   1.609   1.510  2.0049 -1.0375 -0.3164
  950MOL0     H31049   4.457   1.353   1.218 -1.0451  0.2060 -0.0193
  950MOL0     H31050   4.676   1.559   0.960  1.6837 -1.1451  0.2226
  950MOL0     H31051   4.548   1.435   0.950  2.8589 -2.4542 -2.1751
  950MOL0     H31052   4.784   1.408   1.132  1.1331 -0.4876 -0.9366
  950MOL0     H31053   4.692   1.270   1.072  2.1234 -1.5085 -0.5554
  950MOL0     H31054   4.876   1.449   0.903  0.8376 -0.7841 -1.3168
  950MOL0     H31055   4.918   1.296   0.976 -1.4615 -1.7372 -0.6857
  950MOL0     H31056   4.760   1.179   0.821  2.4396 -0.4402 -0.3173
  950MOL0     H31057   4.689   1.342   0.778  1.8868  4.2922  0.4837
  950MOL0     H31058   4.701   1.490   0.670  0.8199 -0.2091 -0.2420
  950MOL0     H31059   4.687   1.705   0.386 -0.2806  2.1018 -0.4265
  950MOL0     H31060   4.715   1.797   0.537 -0.2911 -0.2341 -0.1574
  950MOL0     H31061   4.597   1.675   0.544  0.4638  0.1613  0.7030
  950MOL0     H31062   4.766   2.018   0.230  0.2978 -2.2671 -1.4830
  950MOL0     H31063   4.865   2.208   0.100  3.7007  1.9703 -0.5328
  950MOL0     H31064   5.289   2.256   0.078  2.9802 -2.9423 -0.6490
  950MOL0     H31065   5.240   2.123  -0.036 -0.1267 -0.1792 -0.2112
  950MOL0     H31066   5.239   2.266  -0.210 -1.7707 -0.6023  0.9336
  950MOL0     H31067   5.180   2.404  -0.122  1.7722 -0.5319  2.8233
  950MOL0     H31068   5.393   2.464  -0.039 -2.4914  1.5079 -0.4376
  950MOL0     H31069   5.388   2.468  -0.210  0.7995 -0.3802 -0.4371
  950MOL0     H31070   5.512   2.236  -0.234  1.4671 -2.8992  2.3094
  950MOL0     H31071   5.521   2.225  -0.057 -3.7893 -1.5074 -0.7387
  950MOL0     H31072   5.733   2.325  -0.170  0.8266  0.9077 -0.6889
  950MOL0     H31073   5.628   2.470  -0.199 -1.7471  2.2594  1.9614
  950MOL0     H31074   5.659   2.344   0.081  0.0040 -0.3437 -0.2860
  950MOL0     H31075   5.586   2.495   0.039  0.2692  0.5868 -1.5263
  950MOL0     H31076   5.837   2.541  -0.074  0.9184 -0.8828 -0.1692
  950MOL0     H31077   5.869   2.385  -0.001  1.1738  0.3398  1.2092
  950MOL0     H31078   5.952   2.533   0.154  0.4300 -2.3526 -0.7110
  950MOL0     H31079   5.803   2.463   0.220 -1.8925  1.1462 -0.0855
  950MOL0     H31080   5.249   2.055   0.178 -0.0684 -2.1535 -0.4431
  950MOL0     H31081   5.145   1.880   0.314  1.7487 -0.5068 -3.2477
  950MOL0     H31082   5.120   1.533   0.417  0.8398  2.1313  1.3342
  950MOL0     H31083   5.092   1.345   0.559  1.9931  2.4301 -5.1158
  950MOL0     H31084   3.574   1.126   1.821 -0.6717 -0.1333  0.0665
  950MOL0     H31085   3.322   1.155   1.894  0.0297  0.2495 -0.7796
  950MOL0     H31086   3.052   1.472   2.196  1.6732 -1.6516 -1.3699
  950MOL0     H31087   2.822   1.499   2.282 -0.3104  0.8261  1.4508
  950MOL0     H31088   2.523   1.432   2.490  0.2878 -1.4536  0.3468
  950MOL0     H31089   2.645   1.523   2.414 -1.4191  1.4524  0.1141
  950MOL0     H31090   2.489   1.321   2.253  2.2057 -0.9990 -1.2698
  950MOL0     H31091   2.613   1.439   2.193  4.5596 -1.9505  3.8778
  950MOL0     H31092   2.315   1.468   2.279  0.4533 -2.0882 -2.5779
  950MOL0     H31093   2.421   1.614   2.312  2.0233 -0.2528 -0.8995
  950MOL0     H31094   2.359   1.484   2.055 -2.2936  1.3709  0.8020
  950MOL0     H31095   2.487   1.598   2.057 -1.1960 -0.0662 -0.6130
  950MOL0     H31096   2.202   1.891   2.060  0.1646 -0.0805 -0.0802
  950MOL0     H31097   2.800   1.111   2.415 -0.8935 -1.0788 -1.9801
  950MOL0     H31098   2.954   0.939   2.330 -1.2498  1.6513  3.7144
  950MOL0     H31099   3.110   0.982   2.244  1.8362  0.6644  0.7649
  950MOL0     H31100   3.089   0.994   2.420  0.0065  2.2057 -0.1569
  951MOL0     O31101   5.465   8.788   6.319 -0.3798 -0.3664 -1.2459
  951MOL0     C31102   5.354   8.834   6.357  0.4080 -0.1186  0.6453
  951MOL0     O31103   5.336   8.942   6.436  0.1992 -0.0215 -0.3050
  951MOL0     C31104   5.440   9.013   6.489 -0.4799  1.0016 -0.4975
  951MOL0     C31105   5.552   8.936   6.537 -0.2582  0.1456 -1.1219
  951MOL0     C31106   5.663   8.999   6.588 -0.3784  0.5468  0.4283
  951MOL0     C31107   5.673   9.138   6.600  0.1086 -0.1564 -0.1947
  951MOL0     O31108   5.782   9.193   6.657  0.1901 -0.1384 -0.3703
  951MOL0     C31109   5.762   9.265   6.780 -0.1452  0.0860  0.0426
  951MOL0     C31110   5.870   9.359   6.825 -0.5779 -0.5629 -0.3536
  951MOL0     C31111   5.823   9.467   6.935  0.3581  0.5034  0.4359
  951MOL0     C31112   5.801   9.414   7.074 -0.1068 -0.5326  0.6369
  951MOL0     C31113   5.770   9.518   7.186  0.2135 -0.4340 -0.2261
  951MOL0     C31114   5.880   9.626   7.218 -0.5907 -0.4960  0.0490
  951MOL0     C31115   5.830   9.739   7.307 -0.0957  0.0526 -0.2621
  951MOL0     C31116   5.931   9.851   7.295  0.3219 -0.7418 -0.1020
  951MOL0     N31117   5.886   9.985   7.347  0.4818  0.3117  0.1931
  951MOL0     C31118   5.758  10.037   7.330 -0.2522 -0.0957  0.2536
  951MOL0     C31119   5.752  10.147   7.418  0.4964  0.2004 -0.0303
  951MOL0     C31120   5.629  10.234   7.423 -0.8065 -0.0754 -0.1472
  951MOL0     C31121   5.661  10.366   7.353  0.6919 -1.2713 -0.5032
  951MOL0     C31122   5.627  10.378   7.203 -0.1061 -0.9022 -0.9356
  951MOL0     C31123   5.475  10.342   7.165 -0.0749 -0.8241 -0.9865
  951MOL0     O31124   5.456  10.353   7.025 -0.6905  0.1425  0.6852
  951MOL0     C31125   5.483  10.240   6.952  0.8239 -0.6173  0.0287
  951MOL0     C31126   5.533  10.119   6.997 -0.0699 -0.3949 -0.7182
  951MOL0     C31127   5.549  10.008   6.918  0.6024 -0.0717  0.2629
  951MOL0     C31128   5.599   9.886   6.996  0.1265  0.1409  0.0934
  951MOL0     C31129   5.517  10.016   6.778 -0.8498 -1.8609  0.0090
  951MOL0     C31130   5.529   9.907   6.677  0.6088  0.9564 -0.1461
  951MOL0     O31131   5.558   9.780   6.723 -0.6448 -0.8904 -0.1229
  951MOL0     C31132   5.604   9.688   6.627  0.2512  0.6912  0.0531
  951MOL0     C31133   5.509   9.620   6.540 -0.7444 -0.1027 -0.1781
  951MOL0     C31134   5.560   9.533   6.444 -1.1388  0.9016  0.3655
  951MOL0     C31135   5.703   9.524   6.424  0.5665  0.5924  0.0372
  951MOL0     O31136   5.748   9.450   6.317 -0.1439  0.0558  0.7589
  951MOL0     C31137   5.876   9.472   6.266 -0.4139  0.2887  0.4364
  951MOL0     C31138   5.924   9.364   6.169 -0.4955 -0.5044  0.3153
  951MOL0     C31139   5.917   9.227   6.235  0.4440 -0.2900 -0.3441
  951MOL0     C31140   5.979   9.214   6.380 -0.4420 -0.6641  0.5563
  951MOL0     C31141   6.021   9.069   6.402 -0.5817  0.4761  0.6323
  951MOL0     C31142   6.123   9.056   6.514 -0.1599  0.2332 -0.5123
  951MOL0     C31143   6.144   8.910   6.565 -0.4883  0.1367 -0.3242
  951MOL0     C31144   6.051   8.887   6.682  0.6625  0.3971 -0.0491
  951MOL0    Cl31145   6.100   8.746   6.783  0.0859  0.0222 -0.2960
  951MOL0     C31146   5.784   9.584   6.516 -0.6956 -0.0427  0.3275
  951MOL0     C31147   5.737   9.664   6.620  0.1015  0.0810 -0.3264
  951MOL0     O31148   5.503   9.934   6.558  0.9775 -0.8801  0.0831
  951MOL0     C31149   5.470  10.143   6.733 -0.4217  0.1190 -0.2394
  951MOL0     C31150   5.444  10.245   6.821 -0.3778  0.2531 -0.5228
  951MOL0     N31151   5.875  10.158   7.477 -0.1732  0.0325 -0.6035
  951MOL0     N31152   5.958  10.064   7.426  0.2010 -0.3847 -0.2432
  951MOL0     C31153   5.560   9.215   6.561 -0.9346 -0.3065  0.1152
  951MOL0     C31154   5.450   9.152   6.505  0.2709  0.0963 -0.5728
  951MOL0     C31155   5.234   8.789   6.287 -0.7982  0.8208 -0.7535
  951MOL0     C31156   5.131   8.876   6.253  0.1231 -0.0103  0.6199
  951MOL0     C31157   5.020   8.830   6.177  0.1118 -0.0923 -0.1807
  951MOL0     C31158   5.014   8.704   6.134  0.1278  0.4008  0.2070
  951MOL0     O31159   4.908   8.667   6.062  0.3418 -0.2130  0.4005
  951MOL0     C31160   4.800   8.616   6.155 -0.9206  0.1200  0.5080
  951MOL0     C31161   4.688   8.711   6.183  0.6624 -0.8744  0.4934
  951MOL0     C31162   4.641   8.790   6.055 -0.0576 -1.2728  0.3641
  951MOL0     C31163   4.579   8.702   5.944  0.0780  0.2054 -0.1763
  951MOL0     C31164   4.452   8.641   5.976  0.2741 -0.0636 -0.9851
  951MOL0     C31165   4.354   8.582   6.016 -0.9447  0.3884 -0.7190
  951MOL0     C31166   5.098   8.610   6.179 -0.1420 -0.8682  0.4131
  951MOL0     C31167   5.209   8.653   6.251 -0.4634  0.5727  0.2913
  951MOL0     C31168   5.281   8.536   6.322  0.6547  0.5703 -0.0308
  951MOL0     H31169   5.547   8.828   6.539 -1.6969  0.1936 -1.1490
  951MOL0     H31170   5.753   8.948   6.621 -0.8867 -1.2926 -0.8675
  951MOL0     H31171   5.725   9.206   6.864 -0.2604 -0.4265 -0.3601
  951MOL0     H31172   5.679   9.336   6.768 -1.9680 -1.5656  2.1485
  951MOL0     H31173   5.962   9.306   6.855  0.5415  2.5277  2.3213
  951MOL0     H31174   5.897   9.419   6.738 -2.0929 -0.1569 -0.5720
  951MOL0     H31175   5.894   9.550   6.933  0.3460  0.5504  1.4391
  951MOL0     H31176   5.727   9.508   6.903  0.3693  1.5088  1.6037
  951MOL0     H31177   5.719   9.343   7.073  0.1543 -0.8347 -0.0919
  951MOL0     H31178   5.892   9.357   7.097 -1.4848 -2.5717  1.2785
  951MOL0     H31179   5.756   9.461   7.278  0.9701 -2.0690 -1.0687
  951MOL0     H31180   5.682   9.580   7.167 -0.2240 -0.6624  0.9941
  951MOL0     H31181   5.964   9.580   7.270  0.6996  0.7889 -0.8034
  951MOL0     H31182   5.924   9.665   7.125  1.0968 -0.6445  0.7490
  951MOL0     H31183   5.828   9.718   7.414  1.0611 -1.7831 -0.5584
  951MOL0     H31184   5.738   9.783   7.267 -1.0302  1.8411  3.4104
  951MOL0     H31185   6.028   9.827   7.339 -1.2929 -2.1901  2.9843
  951MOL0     H31186   5.946   9.867   7.187 -3.6922  0.3444 -0.6699
  951MOL0     H31187   5.687  10.000   7.257  2.1371  1.2627 -2.9778
  951MOL0     H31188   5.633  10.267   7.527  2.1751  2.3599 -0.8908
  951MOL0     H31189   5.538  10.194   7.376  0.4095  1.0272 -3.8506
  951MOL0     H31190   5.603  10.442   7.406  1.8294  1.6504 -3.1605
  951MOL0     H31191   5.767  10.390   7.362  0.4745 -0.9689  2.3334
  951MOL0     H31192   5.658  10.480   7.175 -0.3263 -0.5599  0.0206
  951MOL0     H31193   5.694  10.301   7.165  0.4064  0.1585 -2.2667
  951MOL0     H31194   5.453  10.242   7.204 -2.5106  0.1412  0.3754
  951MOL0     H31195   5.416  10.401   7.236  0.6148  0.3979 -1.4147
  951MOL0     H31196   5.564  10.116   7.101 -0.8267  2.4139 -0.3146
  951MOL0     H31197   5.708   9.875   6.999  0.0153 -1.0858  2.5292
  951MOL0     H31198   5.564   9.789   6.959  0.5726  0.0568 -0.1122
  951MOL0     H31199   5.569   9.896   7.100 -0.3661 -2.2958  0.2443
  951MOL0     H31200   5.406   9.648   6.561 -0.2495 -0.1483  2.7032
  951MOL0     H31201   5.491   9.487   6.374 -0.5002  1.0734 -0.3960
  951MOL0     H31202   5.865   9.571   6.222 -3.5277 -0.1498  0.0004
  951MOL0     H31203   5.943   9.481   6.352  1.6347  3.1451 -1.2712
  951MOL0     H31204   5.857   9.375   6.084 -2.3814  1.6596  1.9562
  951MOL0     H31205   6.031   9.370   6.145 -0.1133 -2.3000  1.3459
  951MOL0     H31206   5.972   9.160   6.168 -2.5718 -1.6916 -1.5973
  951MOL0     H31207   5.811   9.201   6.229  0.5394 -0.4164 -2.5402
  951MOL0     H31208   5.901   9.238   6.454 -1.6195 -1.2074 -0.4706
  951MOL0     H31209   6.060   9.286   6.394  0.0946 -0.1138 -4.0450
  951MOL0     H31210   5.929   9.014   6.423  1.3093 -2.5151  1.6763
  951MOL0     H31211   6.067   9.037   6.308  0.2694  1.8360  0.5681
  951MOL0     H31212   6.104   9.116   6.604  2.0949  2.0985 -1.1946
  951MOL0     H31213   6.214   9.103   6.478  0.1239 -0.3843 -0.6198
  951MOL0     H31214   6.245   8.900   6.604 -0.6233  2.1743  0.6814
  951MOL0     H31215   6.133   8.836   6.485  1.1148 -2.6016  1.8157
  951MOL0     H31216   5.952   8.880   6.637  0.6433  1.2046 -0.1458
  951MOL0     H31217   6.061   8.979   6.740  0.2455  1.3042 -1.3865
  951MOL0     H31218   5.891   9.568   6.508 -0.4578  1.6636 -0.3263
  951MOL0     H31219   5.818   9.701   6.682  0.7074 -1.7059  0.0071
  951MOL0     H31220   5.449  10.152   6.627 -4.4221 -3.0987  0.0197
  951MOL0     H31221   5.410  10.336   6.773  0.1932 -1.0074 -3.5022
  951MOL0     H31222   5.554   9.322   6.578 -2.9351 -0.3822  0.1703
  951MOL0     H31223   5.364   9.217   6.491 -1.3258 -1.2622  2.0450
  951MOL0     H31224   5.149   8.982   6.268 -2.4349  0.3786  1.2841
  951MOL0     H31225   4.949   8.906   6.145 -0.8533  0.3068  2.6435
  951MOL0     H31226   4.743   8.532   6.113 -1.1510  1.0636 -1.1701
  951MOL0     H31227   4.846   8.592   6.251  2.1908 -0.8537 -1.0994
  951MOL0     H31228   4.723   8.784   6.256 -0.2045 -1.3152  1.3657
  951MOL0     H31229   4.602   8.657   6.224  0.5157 -0.7536  0.3488
  951MOL0     H31230   4.574   8.872   6.084 -0.3068 -1.6743  0.9628
  951MOL0     H31231   4.727   8.835   6.006 -0.7532 -0.3740 -0.0702
  951MOL0     H31232   4.648   8.628   5.902  1.0872  1.0152  0.0271
  951MOL0     H31233   4.569   8.770   5.858  0.1702  2.9138  1.8355
  951MOL0     H31234   4.282   8.520   6.066  0.3636 -2.7853 -2.4180
  951MOL0     H31235   5.085   8.508   6.145 -2.2055 -0.6446  0.4230
  951MOL0     H31236   5.377   8.564   6.365  0.5839 -0.3309  0.7446
  951MOL0     H31237   5.215   8.516   6.406 -1.5024 -0.5245 -1.8675
  951MOL0     H31238   5.295   8.445   6.262  2.0217 -0.1847  1.3748
  952MOL0     O31239   9.187   1.669   2.697  0.4662  0.6660 -0.5919
  952MOL0     C31240   9.213   1.685   2.577  0.4707 -0.0637 -0.2673
  952MOL0     O31241   9.120   1.668   2.471  0.2510  0.3501 -0.0604
  952MOL0     C31242   8.997   1.626   2.473  0.8328 -0.4235 -0.4936
  952MOL0     C31243   8.921   1.630   2.348 -0.2909  0.6061 -0.2472
  952MOL0     C31244   8.789   1.589   2.333 -0.3955 -0.6676 -0.4406
  952MOL0     C31245   8.724   1.541   2.449 -0.1827  0.9267  0.3714
  952MOL0     O31246   8.590   1.513   2.428  0.7868  0.0545  0.0411
  952MOL0     C31247   8.522   1.409   2.506 -0.1590 -0.5641 -0.0507
  952MOL0     C31248   8.368   1.426   2.489  0.2557  0.7784  0.0908
  952MOL0     C31249   8.329   1.575   2.515 -0.7688  1.1577 -0.3193
  952MOL0     C31250   8.180   1.580   2.546  1.2799  0.2054  0.4827
  952MOL0     C31251   8.116   1.722   2.549 -0.6618 -0.5858 -0.0465
  952MOL0     C31252   7.965   1.720   2.582  0.4657  0.0398 -0.2870
  952MOL0     C31253   7.920   1.862   2.619  0.4011 -0.1825 -0.3806
  952MOL0     C31254   7.762   1.869   2.610 -0.4786 -0.4092 -0.0595
  952MOL0     N31255   7.698   1.763   2.692  0.3426  0.5676 -0.6043
  952MOL0     C31256   7.570   1.715   2.681  0.5619  0.3512 -0.1718
  952MOL0     C31257   7.546   1.648   2.796 -0.3909 -0.3359 -0.5622
  952MOL0     C31258   7.418   1.585   2.839  0.4427 -0.5410 -0.4042
  952MOL0     C31259   7.428   1.497   2.969 -0.2455  1.0342 -0.9423
  952MOL0     C31260   7.294   1.424   3.001  0.5355  0.9531  0.0479
  952MOL0     C31261   7.250   1.301   2.926  0.1671 -0.8271 -0.0743
  952MOL0     O31262   7.109   1.300   2.921 -0.4975  0.2922 -0.2275
  952MOL0     C31263   7.065   1.195   2.840  0.1867 -0.4360 -0.4778
  952MOL0     C31264   7.136   1.113   2.751 -0.3015  0.4009  0.2464
  952MOL0     C31265   7.079   1.026   2.653 -0.1347 -0.4478 -0.7512
  952MOL0     C31266   7.163   0.946   2.556  0.5659  0.2918 -0.1937
  952MOL0     C31267   6.938   1.006   2.652  0.0531 -0.2013  0.6850
  952MOL0     C31268   6.861   0.902   2.578 -0.3438 -1.0694  0.5553
  952MOL0     O31269   6.744   0.856   2.638 -0.5439  0.0070 -0.5448
  952MOL0     C31270   6.649   0.795   2.559 -0.5104 -0.5408 -0.1319
  952MOL0     C31271   6.541   0.875   2.520 -0.3887  0.7261 -0.5226
  952MOL0     C31272   6.434   0.809   2.445 -0.7486 -1.2009 -0.3449
  952MOL0     C31273   6.447   0.674   2.411 -0.4101  0.5717  0.1584
  952MOL0     O31274   6.346   0.631   2.330  0.4751  1.1914 -0.3026
  952MOL0     C31275   6.292   0.501   2.358  0.3506  0.1590  0.4751
  952MOL0     C31276   6.137   0.498   2.355  0.1093 -0.7125  0.2357
  952MOL0     C31277   6.080   0.358   2.362 -0.2003  0.2111  0.1445
  952MOL0     C31278   5.945   0.346   2.301  0.1317  0.4496  0.1621
  952MOL0     C31279   5.891   0.203   2.277 -0.5941  0.3187  0.2496
  952MOL0     C31280   5.746   0.197   2.232  0.1814 -0.3240  0.0255
  952MOL0     C31281   5.692   0.059   2.263  0.4751  0.6571  0.3329
  952MOL0     C31282   5.532   0.070   2.279  0.4890 -0.1858  0.3478
  952MOL0    Cl31283   5.485   0.132   2.438 -0.4027  0.0833 -0.2340
  952MOL0     C31284   6.560   0.598   2.452  0.5005 -0.3558  0.1861
  952MOL0     C31285   6.658   0.665   2.515 -0.3066 -0.5129 -0.5020
  952MOL0     O31286   6.891   0.894   2.459 -0.4750 -0.8827 -0.5902
  952MOL0     C31287   6.871   1.090   2.737 -0.0819  0.5256 -0.5775
  952MOL0     C31288   6.927   1.189   2.821 -0.1647 -0.6146 -0.1152
  952MOL0     N31289   7.664   1.648   2.866  0.6408 -0.3373 -1.1887
  952MOL0     N31290   7.749   1.719   2.811 -0.1898  0.2682  0.9748
  952MOL0     C31291   8.799   1.529   2.568 -1.0309 -0.0600  0.1429
  952MOL0     C31292   8.932   1.561   2.581  0.3631  0.3611 -1.0773
  952MOL0     C31293   9.355   1.702   2.555  0.2121 -0.1002 -0.1745
  952MOL0     C31294   9.445   1.638   2.646 -0.1962 -0.1620 -0.0568
  952MOL0     C31295   9.576   1.609   2.620  1.1140  1.1236  0.1306
  952MOL0     C31296   9.628   1.661   2.505  0.1127  0.8957 -0.0165
  952MOL0     O31297   9.755   1.637   2.455  0.7262 -0.1057  0.6056
  952MOL0     C31298   9.849   1.549   2.514 -0.5355 -0.0001  0.0659
  952MOL0     C31299   9.917   1.622   2.633 -0.7556 -0.0017  0.0648
  952MOL0     C31300   9.999   1.751   2.603  0.7943 -0.1403 -0.2367
  952MOL0     C31301  10.112   1.693   2.523  0.0241 -0.3358 -0.8365
  952MOL0     C31302  10.239   1.773   2.547  0.7961 -0.3750  0.1926
  952MOL0     C31303  10.344   1.832   2.560  0.0860 -0.7971 -0.1505
  952MOL0     C31304   9.543   1.720   2.411  0.2177 -0.4770 -0.0660
  952MOL0     C31305   9.409   1.744   2.436  0.2987  0.1526 -1.0842
  952MOL0     C31306   9.341   1.833   2.332 -0.1906 -0.3751 -0.1026
  952MOL0     H31307   8.978   1.671   2.266 -1.0283 -2.8400 -2.6497
  952MOL0     H31308   8.737   1.597   2.238 -0.0144 -0.8979 -0.6724
  952MOL0     H31309   8.556   1.418   2.609 -0.4665  4.0560 -0.1584
  952MOL0     H31310   8.550   1.308   2.474 -0.3515 -0.5052 -0.4179
  952MOL0     H31311   8.340   1.393   2.389 -0.0014  2.5526 -0.4468
  952MOL0     H31312   8.318   1.359   2.559 -0.1973  1.2826  0.2546
  952MOL0     H31313   8.391   1.602   2.601 -0.6523  1.0294 -0.3624
  952MOL0     H31314   8.358   1.629   2.425  3.3787 -3.1499 -1.9903
  952MOL0     H31315   8.112   1.519   2.486 -0.5391  3.2249 -0.7959
  952MOL0     H31316   8.167   1.534   2.644 -0.1528 -3.0949 -1.0923
  952MOL0     H31317   8.122   1.769   2.451  2.0522  1.1759  0.8684
  952MOL0     H31318   8.180   1.772   2.622 -0.2953 -2.4561  0.9918
  952MOL0     H31319   7.912   1.679   2.495 -1.3811 -0.4309  0.9824
  952MOL0     H31320   7.948   1.648   2.663 -0.7708  0.5024 -0.1068
  952MOL0     H31321   7.962   1.933   2.547 -2.4621  1.6571 -0.3888
  952MOL0     H31322   7.950   1.894   2.720 -3.1613 -0.7580  1.0032
  952MOL0     H31323   7.726   1.968   2.637  0.0479 -0.1691 -0.2408
  952MOL0     H31324   7.750   1.855   2.502  1.0447  0.7267 -0.4095
  952MOL0     H31325   7.499   1.730   2.600 -1.9135 -3.0348  1.1073
  952MOL0     H31326   7.388   1.520   2.756  4.2099 -2.0373 -0.8070
  952MOL0     H31327   7.343   1.663   2.852 -1.8815 -2.8352  0.9642
  952MOL0     H31328   7.505   1.424   2.940 -0.4931  0.3240  0.1377
  952MOL0     H31329   7.467   1.552   3.055  2.0196 -1.4457 -0.2710
  952MOL0     H31330   7.319   1.394   3.103 -2.5729  2.4515  1.3739
  952MOL0     H31331   7.219   1.504   3.005  0.2656  0.7228 -0.4180
  952MOL0     H31332   7.298   1.316   2.828  0.6610  4.1173  0.6871
  952MOL0     H31333   7.290   1.218   2.985 -0.2702 -2.4948 -1.9764
  952MOL0     H31334   7.242   1.124   2.772 -0.6475  0.1467  2.3235
  952MOL0     H31335   7.106   0.857   2.529 -2.9306  1.8393  1.4669
  952MOL0     H31336   7.256   0.921   2.608  0.4063 -3.3513 -1.3624
  952MOL0     H31337   7.201   0.985   2.460  1.1901 -2.1408 -1.0028
  952MOL0     H31338   6.548   0.975   2.559  0.4159 -0.1464  1.7462
  952MOL0     H31339   6.344   0.868   2.432  0.2999  1.3259  2.5319
  952MOL0     H31340   6.322   0.443   2.270  0.7053  0.9232  0.0807
  952MOL0     H31341   6.328   0.454   2.450  0.5417  2.7396  1.8298
  952MOL0     H31342   6.097   0.561   2.435 -1.6670 -1.7100  0.1619
  952MOL0     H31343   6.103   0.543   2.262 -0.0527 -1.3481 -0.0122
  952MOL0     H31344   6.079   0.327   2.467 -0.9282 -0.3173 -0.0156
  952MOL0     H31345   6.142   0.279   2.318  0.8063  1.9001 -1.6556
  952MOL0     H31346   5.935   0.392   2.203 -3.1190 -5.4694 -2.8379
  952MOL0     H31347   5.871   0.385   2.372 -1.5587 -1.6148 -0.3805
  952MOL0     H31348   5.958   0.159   2.203  0.0681 -1.2041  1.6900
  952MOL0     H31349   5.906   0.152   2.372  1.9277 -1.3235 -0.9324
  952MOL0     H31350   5.734   0.213   2.125 -0.7612  0.1772  0.1994
  952MOL0     H31351   5.690   0.272   2.288  6.1227  4.1608  0.9117
  952MOL0     H31352   5.727   0.010   2.354  2.5360 -1.2081 -1.3367
  952MOL0     H31353   5.712  -0.001   2.174 -4.2881 -0.4148 -0.2910
  952MOL0     H31354   5.499  -0.033   2.268 -0.0031  0.0330 -0.3421
  952MOL0     H31355   5.493   0.135   2.200  0.4917 -2.8198 -1.9491
  952MOL0     H31356   6.559   0.495   2.418 -2.4507 -0.9672  1.7761
  952MOL0     H31357   6.750   0.618   2.546  0.2010  1.1495  0.6950
  952MOL0     H31358   6.763   1.081   2.750  0.0077 -1.1477 -0.7954
  952MOL0     H31359   6.876   1.250   2.895  2.7812  1.3010  0.4735
  952MOL0     H31360   8.756   1.503   2.664  1.5797 -3.0412  0.6453
  952MOL0     H31361   8.984   1.551   2.676 -2.9460 -2.2978  0.6748
  952MOL0     H31362   9.409   1.598   2.741  2.2762 -2.3893  0.0332
  952MOL0     H31363   9.635   1.546   2.686 -1.1019 -0.0609  1.0874
  952MOL0     H31364   9.804   1.457   2.554  2.5033 -0.6985  2.2387
  952MOL0     H31365   9.913   1.518   2.430  1.7945 -0.3187  1.8396
  952MOL0     H31366   9.989   1.546   2.667  3.3018  2.5426 -1.9755
  952MOL0     H31367   9.851   1.648   2.716  0.3742 -0.4623  1.1567
  952MOL0     H31368   9.927   1.823   2.562  1.0885  1.6616  2.2189
  952MOL0     H31369  10.041   1.793   2.695  1.3095 -0.6045 -0.2526
  952MOL0     H31370  10.087   1.681   2.417  3.9657  1.0938 -2.1171
  952MOL0     H31371  10.125   1.589   2.554 -0.8895  0.1392  1.3455
  952MOL0     H31372  10.425   1.900   2.572 -1.1920  0.7010  0.2824
  952MOL0     H31373   9.591   1.770   2.327  0.0011  1.0189  0.6561
  952MOL0     H31374   9.249   1.784   2.297  0.2436 -3.1683  2.2528
  952MOL0     H31375   9.334   1.938   2.363 -0.7530 -0.2805 -0.5304
  952MOL0     H31376   9.399   1.840   2.240 -2.1017  0.9059 -1.3010
  953MOL0     O31377   4.451   8.596   3.221 -0.6303  0.6050  0.5896
  953MOL0     C31378   4.506   8.562   3.114 -0.2804  0.0659  0.4427
  953MOL0     O31379   4.547   8.654   3.021 -0.5293  0.0364 -0.8817
  953MOL0     C31380   4.531   8.785   3.043  0.9657 -0.6488  0.0034
  953MOL0     C31381   4.437   8.853   2.955 -0.1159  0.7621  0.5870
  953MOL0     C31382   4.448   8.987   2.947  0.5138  0.8011 -0.0690
  953MOL0     C31383   4.531   9.064   3.040  0.0573 -0.2685 -0.2621
  953MOL0     O31384   4.573   9.194   3.030 -0.6321 -0.7481  0.8386
  953MOL0     C31385   4.627   9.243   2.902 -0.5628 -0.8548 -0.7512
  953MOL0     C31386   4.632   9.393   2.918  0.4864 -0.0909 -0.0417
  953MOL0     C31387   4.749   9.465   2.994 -0.0253 -0.3534 -0.1322
  953MOL0     C31388   4.869   9.494   2.906 -0.4115  0.1268  0.6662
  953MOL0     C31389   5.003   9.509   2.993 -0.1167  0.2654 -1.0881
  953MOL0     C31390   5.125   9.557   2.916 -0.3265 -0.4802 -0.3972
  953MOL0     C31391   5.249   9.572   3.001  0.4162  0.2277 -0.3216
  953MOL0     C31392   5.288   9.464   3.103 -0.1396  0.0225 -0.4746
  953MOL0     N31393   5.430   9.455   3.136 -0.3910  0.3456  0.7708
  953MOL0     C31394   5.497   9.346   3.154 -0.1554  0.6022  0.4392
  953MOL0     C31395   5.631   9.379   3.152  0.1750 -0.0867 -0.1918
  953MOL0     C31396   5.745   9.284   3.172  0.5571  0.8915 -0.5940
  953MOL0     C31397   5.813   9.245   3.033 -0.5776  0.4849  0.5268
  953MOL0     C31398   5.793   9.096   2.980 -0.2554  1.0082 -0.1471
  953MOL0     C31399   5.872   8.999   3.070  0.0299  0.0947 -0.0044
  953MOL0     O31400   5.881   8.861   3.017 -0.1858  0.0852  0.0232
  953MOL0     C31401   5.992   8.789   3.046 -0.4294 -0.8287 -0.3443
  953MOL0     C31402   6.051   8.782   3.178  1.4974  0.6800  0.0270
  953MOL0     C31403   6.161   8.707   3.216 -0.4728 -0.0577 -0.4305
  953MOL0     C31404   6.190   8.681   3.365 -0.8902 -0.5770 -0.7034
  953MOL0     C31405   6.225   8.644   3.107 -0.1031  0.0877  0.1424
  953MOL0     C31406   6.357   8.586   3.120 -0.0793  0.1218  1.2023
  953MOL0     O31407   6.397   8.487   3.028  1.1091  0.1764 -0.0313
  953MOL0     C31408   6.492   8.395   3.074  0.1875 -0.5855  0.0615
  953MOL0     C31409   6.596   8.357   2.978  1.0368  0.0719  0.5461
  953MOL0     C31410   6.684   8.252   2.999  0.3599 -0.5808  0.3696
  953MOL0     C31411   6.685   8.186   3.121  0.3961  0.6429 -0.6988
  953MOL0     O31412   6.765   8.083   3.163  0.1371 -0.4150 -0.1560
  953MOL0     C31413   6.807   7.997   3.052  0.0875 -1.0186  0.5979
  953MOL0     C31414   6.925   7.913   3.090 -0.5558  1.0809 -0.1272
  953MOL0     C31415   6.926   7.770   3.030 -1.0134 -0.6056 -0.3814
  953MOL0     C31416   7.060   7.695   3.062 -0.2585  0.9513  0.5527
  953MOL0     C31417   7.041   7.558   2.990 -0.2938  0.1919  0.1116
  953MOL0     C31418   7.183   7.491   2.985  0.3276  0.0192  0.0219
  953MOL0     C31419   7.199   7.355   2.915  0.0378  0.3107  0.3127
  953MOL0     C31420   7.119   7.240   2.979  0.5598 -0.3907 -0.9897
  953MOL0    Cl31421   7.140   7.098   2.877 -0.5962 -0.2627 -0.0661
  953MOL0     C31422   6.585   8.222   3.220 -0.6314 -0.7711  0.9818
  953MOL0     C31423   6.493   8.328   3.195  0.6801  1.0725 -0.4463
  953MOL0     O31424   6.438   8.642   3.193 -0.0480  0.7315 -0.3953
  953MOL0     C31425   6.171   8.647   2.976 -0.0345  0.6039  0.8689
  953MOL0     C31426   6.052   8.719   2.945 -1.0025 -0.0211 -0.1808
  953MOL0     N31427   5.638   9.515   3.128  0.3082  0.8394 -0.1598
  953MOL0     N31428   5.522   9.555   3.117  0.5268 -0.3181 -0.0701
  953MOL0     C31429   4.581   8.991   3.147  0.5628  0.6832 -1.1623
  953MOL0     C31430   4.579   8.851   3.157 -0.2978 -0.6877  0.2353
  953MOL0     C31431   4.506   8.423   3.066  0.4388  0.4765 -0.4979
  953MOL0     C31432   4.587   8.395   2.952  0.6138  0.0784 -0.0734
  953MOL0     C31433   4.580   8.264   2.911  0.8098 -1.0042  0.2806
  953MOL0     C31434   4.522   8.162   2.974 -0.5291 -0.7781  0.2981
  953MOL0     O31435   4.525   8.027   2.936 -0.5437 -1.1793 -0.8426
  953MOL0     C31436   4.652   7.963   2.961 -0.5206  0.7036 -0.1027
  953MOL0     C31437   4.640   7.846   3.061  0.4115 -0.2776 -0.3642
  953MOL0     C31438   4.695   7.894   3.192  0.8356 -0.5368  0.1867
  953MOL0     C31439   4.623   7.839   3.310 -0.5745  0.6663  0.0178
  953MOL0     C31440   4.698   7.841   3.433 -0.3588 -0.3340 -0.0765
  953MOL0     C31441   4.751   7.855   3.539  0.2680  0.3547 -0.8909
  953MOL0     C31442   4.452   8.190   3.089 -0.2708  0.2189  0.0421
  953MOL0     C31443   4.448   8.317   3.142  0.7333 -0.4497  0.6376
  953MOL0     C31444   4.365   8.329   3.265  1.0598  0.1374 -0.2907
  953MOL0     H31445   4.389   8.793   2.878  1.6033  0.5662 -0.3909
  953MOL0     H31446   4.381   9.034   2.876 -1.4700 -1.7729 -0.0348
  953MOL0     H31447   4.557   9.218   2.822 -2.0192 -0.3568  0.3245
  953MOL0     H31448   4.723   9.191   2.889 -1.1579 -2.5849  1.1304
  953MOL0     H31449   4.625   9.437   2.818 -1.2042 -0.7280 -0.2410
  953MOL0     H31450   4.541   9.408   2.977 -0.2401 -3.6581 -0.0229
  953MOL0     H31451   4.707   9.547   3.053  1.9031  0.1654  0.6088
  953MOL0     H31452   4.779   9.382   3.059 -1.9275 -0.9247  0.0822
  953MOL0     H31453   4.877   9.413   2.833  0.5750  1.5641 -0.9014
  953MOL0     H31454   4.852   9.580   2.840  5.0605 -1.4449 -3.6510
  953MOL0     H31455   5.022   9.409   3.032 -2.0427 -0.7436 -2.5191
  953MOL0     H31456   4.984   9.563   3.086 -2.0285 -0.8096 -0.7946
  953MOL0     H31457   5.150   9.485   2.838  0.1125 -0.7459 -0.0172
  953MOL0     H31458   5.103   9.658   2.880  1.1505 -0.8871 -2.6847
  953MOL0     H31459   5.248   9.661   3.064  2.1925  1.2745 -1.7112
  953MOL0     H31460   5.339   9.576   2.939  1.0412 -1.7519  0.3812
  953MOL0     H31461   5.244   9.485   3.201 -0.1446  2.2072 -0.8923
  953MOL0     H31462   5.250   9.370   3.062 -0.4402 -0.9023  1.7564
  953MOL0     H31463   5.469   9.241   3.144 -0.6012  0.9211 -2.6083
  953MOL0     H31464   5.703   9.196   3.221 -2.3714  2.7516  0.4683
  953MOL0     H31465   5.821   9.318   3.243  1.2590 -1.5893 -0.0355
  953MOL0     H31466   5.777   9.316   2.958 -1.2565  0.3745  0.7460
  953MOL0     H31467   5.918   9.273   3.045 -0.7396  0.7099  1.5092
  953MOL0     H31468   5.686   9.073   2.980 -0.1137  0.3220 -0.3590
  953MOL0     H31469   5.823   9.098   2.875  1.9012  1.8835  0.4243
  953MOL0     H31470   5.972   9.043   3.076  0.7345 -1.4767  0.4822
  953MOL0     H31471   5.821   8.990   3.166 -0.6281 -0.9723 -0.4361
  953MOL0     H31472   6.004   8.833   3.262 -0.7333  1.1738 -1.4567
  953MOL0     H31473   6.100   8.688   3.426  1.9627 -1.3310  4.1348
  953MOL0     H31474   6.266   8.749   3.405  0.8768 -3.2015  0.6662
  953MOL0     H31475   6.218   8.577   3.385 -0.5116 -0.4097 -0.3545
  953MOL0     H31476   6.608   8.411   2.885  3.0720  2.3625  2.0355
  953MOL0     H31477   6.753   8.227   2.919  0.8212  0.6998  0.3433
  953MOL0     H31478   6.735   7.919   3.025  3.1171 -4.1454  0.8197
  953MOL0     H31479   6.833   8.051   2.961  2.8606  2.1813  3.0369
  953MOL0     H31480   7.014   7.965   3.053 -0.1751  1.3433  1.1137
  953MOL0     H31481   6.924   7.917   3.199 -0.3810  3.7672 -0.1613
  953MOL0     H31482   6.913   7.778   2.922  0.6528 -2.1493 -0.7559
  953MOL0     H31483   6.843   7.711   3.069 -1.2015 -0.4084 -0.4847
  953MOL0     H31484   7.088   7.675   3.166 -1.5893  1.4089  1.0209
  953MOL0     H31485   7.145   7.749   3.019 -1.2064  1.5902 -0.5660
  953MOL0     H31486   6.957   7.500   3.029 -0.7980 -0.6243 -2.0570
  953MOL0     H31487   7.022   7.583   2.885  1.4491  2.8829  0.3435
  953MOL0     H31488   7.219   7.507   3.087  1.2264 -0.9505 -0.1292
  953MOL0     H31489   7.243   7.553   2.918  0.9354 -1.9896 -1.4032
  953MOL0     H31490   7.306   7.337   2.904 -0.0599 -1.3754  1.6984
  953MOL0     H31491   7.159   7.372   2.814 -1.3466  0.1378  0.8143
  953MOL0     H31492   7.013   7.269   2.979  0.4573 -0.7595 -0.8687
  953MOL0     H31493   7.143   7.217   3.083 -1.5799  0.1920 -0.3155
  953MOL0     H31494   6.586   8.168   3.315  1.1352 -3.1173 -0.2648
  953MOL0     H31495   6.407   8.343   3.258 -0.5292 -3.8686 -0.5660
  953MOL0     H31496   6.227   8.597   2.897 -1.0732  2.2955 -1.0455
  953MOL0     H31497   6.014   8.705   2.844  1.0987 -0.5429 -0.9708
  953MOL0     H31498   4.643   9.041   3.220  0.5781 -2.1012  0.8897
  953MOL0     H31499   4.619   8.806   3.248  0.1829 -0.9745 -0.1162
  953MOL0     H31500   4.637   8.467   2.887  0.3477  2.0272  1.7699
  953MOL0     H31501   4.626   8.238   2.817  1.8979  1.9152 -0.1006
  953MOL0     H31502   4.688   7.924   2.865  0.7530  2.7642 -0.5296
  953MOL0     H31503   4.742   8.023   2.979  1.4397 -2.3339  1.0545
  953MOL0     H31504   4.692   7.753   3.038  3.3171  1.5552 -1.8158
  953MOL0     H31505   4.535   7.823   3.084  1.7544 -3.8923  3.2091
  953MOL0     H31506   4.801   7.866   3.189  1.2491  0.9667 -2.6919
  953MOL0     H31507   4.696   8.003   3.195  2.6824 -0.4794 -0.7713
  953MOL0     H31508   4.593   7.735   3.295  0.4235 -0.0754  2.6171
  953MOL0     H31509   4.541   7.908   3.331 -0.0453  1.3571 -0.1507
  953MOL0     H31510   4.811   7.854   3.627 -2.7998  0.9971  1.3495
  953MOL0     H31511   4.398   8.104   3.127  0.3689 -0.2017  0.0084
  953MOL0     H31512   4.338   8.232   3.308 -0.0683 -0.3057 -1.8721
  953MOL0     H31513   4.414   8.383   3.346  2.3962 -2.0108  0.4308
  953MOL0     H31514   4.268   8.371   3.239  0.2693 -0.9021  0.8733
  954MOL0     O31515  11.196   7.521   2.566  0.9041  0.2359 -0.6104
  954MOL0     C31516  11.175   7.623   2.625  0.3595  0.6920  0.6693
  954MOL0     O31517  11.251   7.677   2.722  0.2828  0.7901  0.8633
  954MOL0     C31518  11.373   7.617   2.748  0.4226  0.2156 -0.5399
  954MOL0     C31519  11.491   7.691   2.743  0.2842 -0.9588  0.8773
  954MOL0     C31520  11.623   7.633   2.764 -0.2539 -0.0165  0.1105
  954MOL0     C31521  11.632   7.497   2.791 -0.4556  0.4174 -0.2382
  954MOL0     O31522  11.755   7.450   2.789 -0.0375  0.2019  0.0222
  954MOL0     C31523  11.780   7.310   2.783  0.1281 -1.1724  0.5617
  954MOL0     C31524  11.750   7.251   2.635  0.1427 -0.3524 -0.4263
  954MOL0     C31525  11.838   7.320   2.529  0.4982  0.4522 -0.1822
  954MOL0     C31526  11.835   7.241   2.400 -0.8395  0.3106  0.6767
  954MOL0     C31527  11.925   7.305   2.293  0.1796 -0.2251 -0.6073
  954MOL0     C31528  11.891   7.245   2.151  0.1375  0.4036 -0.3601
  954MOL0     C31529  11.959   7.316   2.040  0.6597  0.1474  0.0918
  954MOL0     C31530  12.089   7.249   2.001 -0.8124 -0.0022  0.8835
  954MOL0     N31531  12.082   7.170   1.869 -0.3098  0.0732  0.0758
  954MOL0     C31532  12.064   7.038   1.864  0.6064  0.6198 -0.2023
  954MOL0     C31533  12.043   7.007   1.732 -0.1986 -0.2605  0.1762
  954MOL0     C31534  12.002   6.874   1.671  0.3834 -0.4502 -1.6725
  954MOL0     C31535  11.963   6.880   1.525  0.5540  0.4221  0.7846
  954MOL0     C31536  12.092   6.882   1.435 -0.0065  0.6796 -1.3726
  954MOL0     C31537  12.081   6.803   1.309  0.0551  0.0639 -0.3193
  954MOL0     O31538  12.072   6.668   1.352 -0.1916  0.3345  0.1809
  954MOL0     C31539  12.018   6.580   1.265 -0.4399 -0.7527 -0.2177
  954MOL0     C31540  11.887   6.552   1.274 -0.8760 -0.3090 -0.1677
  954MOL0     C31541  11.825   6.460   1.196  0.1028  0.0636  0.6085
  954MOL0     C31542  11.674   6.444   1.213 -0.2243 -0.2830  0.7520
  954MOL0     C31543  11.903   6.375   1.115  0.8107  0.6228  0.5174
  954MOL0     C31544  11.839   6.307   1.005  0.5193  0.5229 -0.2053
  954MOL0     O31545  11.917   6.206   0.962  0.1701  0.3286  0.4565
  954MOL0     C31546  11.886   6.143   0.840  0.4646  0.5912  0.3973
  954MOL0     C31547  11.763   6.130   0.776 -0.1556 -0.6445 -0.4315
  954MOL0     C31548  11.747   6.079   0.647 -0.5236  0.2264 -0.0225
  954MOL0     C31549  11.859   6.029   0.577 -0.5892  0.0374  0.2686
  954MOL0     O31550  11.866   5.964   0.453  0.1545 -0.4722 -0.1804
  954MOL0     C31551  11.745   5.965   0.366  0.7020 -0.5078  1.3542
  954MOL0     C31552  11.778   5.935   0.215  0.9785 -0.9335  0.4693
  954MOL0     C31553  11.788   6.067   0.131 -0.2819 -0.3650  0.1329
  954MOL0     C31554  11.770   6.052  -0.022 -0.9516 -0.1424  0.1413
  954MOL0     C31555  11.788   6.189  -0.100  0.3125  0.1302  0.3446
  954MOL0     C31556  11.830   6.155  -0.246  0.0032 -0.7709  0.6109
  954MOL0     C31557  11.880   6.271  -0.318  0.0681 -0.0498  1.2035
  954MOL0     C31558  11.983   6.230  -0.421  0.1065 -0.1737 -0.8870
  954MOL0    Cl31559  11.902   6.109  -0.530 -0.2229 -0.2471 -0.0872
  954MOL0     C31560  11.982   6.036   0.643 -0.2100  0.7555 -0.0824
  954MOL0     C31561  11.992   6.084   0.773  0.3574 -0.5572  0.1215
  954MOL0     O31562  11.728   6.343   0.963  0.0745  0.0118  0.0045
  954MOL0     C31563  12.042   6.397   1.113 -0.2101 -0.1249  0.0394
  954MOL0     C31564  12.099   6.508   1.186  0.6180  0.1835 -0.4405
  954MOL0     N31565  12.047   7.127   1.655 -1.2146  0.0646  0.5861
  954MOL0     N31566  12.083   7.217   1.739 -0.8553  0.1402 -0.9403
  954MOL0     C31567  11.516   7.427   2.798  1.8841 -0.5895 -0.5254
  954MOL0     C31568  11.385   7.482   2.775 -0.0608  0.4638  0.0516
  954MOL0     C31569  11.041   7.699   2.591 -0.4875 -0.2133 -1.0693
  954MOL0     C31570  11.034   7.837   2.624  0.8581 -0.3329 -1.0033
  954MOL0     C31571  10.924   7.916   2.601  0.0184  0.2231 -0.4676
  954MOL0     C31572  10.808   7.868   2.539 -0.4528 -1.0450 -0.0035
  954MOL0     O31573  10.688   7.947   2.542 -0.1860  0.6125 -0.2451
  954MOL0     C31574  10.587   7.894   2.456 -0.1008 -0.3162  0.1451
  954MOL0     C31575  10.489   8.008   2.430 -0.0388 -0.1648 -0.6821
  954MOL0     C31576  10.412   7.987   2.302  0.0673  0.3156 -0.1549
  954MOL0     C31577  10.291   7.886   2.291 -0.2028 -1.0906  0.5830
  954MOL0     C31578  10.308   7.751   2.333  0.5207 -0.3201 -0.8698
  954MOL0     C31579  10.288   7.631   2.362  0.8764  0.4856  0.5402
  954MOL0     C31580  10.812   7.734   2.497  0.3103  0.6526 -0.3569
  954MOL0     C31581  10.928   7.649   2.516  0.7052 -0.4039 -0.9819
  954MOL0     C31582  10.926   7.516   2.437 -0.4376  0.0047  0.4736
  954MOL0     H31583  11.486   7.788   2.695 -1.0055 -0.2458  2.3397
  954MOL0     H31584  11.714   7.690   2.748 -0.5467  0.4524  0.1147
  954MOL0     H31585  11.721   7.250   2.853  1.0817  1.2785  3.7581
  954MOL0     H31586  11.888   7.301   2.802  0.7516 -0.5217 -2.2585
  954MOL0     H31587  11.770   7.144   2.637  1.8413 -0.0764  2.1191
  954MOL0     H31588  11.643   7.256   2.614 -0.1557 -1.1130  0.8335
  954MOL0     H31589  11.802   7.421   2.508 -0.8162 -0.5702 -3.7380
  954MOL0     H31590  11.939   7.335   2.566  0.1297 -0.4612  1.2978
  954MOL0     H31591  11.858   7.135   2.410  0.1895  0.3486 -0.9777
  954MOL0     H31592  11.733   7.233   2.363 -1.5164 -0.6623  2.6125
  954MOL0     H31593  12.028   7.287   2.325  0.5855 -0.2340 -1.8841
  954MOL0     H31594  11.898   7.412   2.291 -0.2117 -0.2353  1.4291
  954MOL0     H31595  11.921   7.140   2.142  0.0652  0.5018 -1.9103
  954MOL0     H31596  11.785   7.259   2.131 -0.7431 -3.4808  0.6923
  954MOL0     H31597  11.965   7.422   2.065 -2.6150  1.1519 -2.6325
  954MOL0     H31598  11.892   7.331   1.955  0.4953 -0.9574  0.0170
  954MOL0     H31599  12.156   7.334   1.986 -1.8241  0.6287 -0.2424
  954MOL0     H31600  12.120   7.189   2.087  1.7790  3.0378  2.3059
  954MOL0     H31601  12.044   6.974   1.949  0.9401  1.1586  0.2833
  954MOL0     H31602  11.916   6.838   1.729  0.8780  1.2414  0.2358
  954MOL0     H31603  12.071   6.796   1.703 -1.7444 -1.1176  1.9357
  954MOL0     H31604  11.903   6.790   1.508 -2.1269  2.1715  0.2116
  954MOL0     H31605  11.895   6.963   1.506  0.4784  0.4052  0.9767
  954MOL0     H31606  12.108   6.989   1.420 -2.2384  1.3769  0.6649
  954MOL0     H31607  12.181   6.840   1.482  0.8718  1.8549 -1.9135
  954MOL0     H31608  11.989   6.836   1.260  0.0483  0.6912  0.1023
  954MOL0     H31609  12.154   6.829   1.232 -1.6033 -4.3578 -3.8547
  954MOL0     H31610  11.815   6.615   1.326 -1.3623  0.1603 -1.3708
  954MOL0     H31611  11.610   6.502   1.147  1.7919  0.6100 -0.5138
  954MOL0     H31612  11.645   6.480   1.312 -1.0628  0.6286  0.1918
  954MOL0     H31613  11.648   6.338   1.208  0.7597 -0.5358  0.6096
  954MOL0     H31614  11.675   6.157   0.833  1.4683  1.8325  1.0889
  954MOL0     H31615  11.654   6.085   0.591  0.4134  1.1982 -1.5479
  954MOL0     H31616  11.677   5.886   0.399  0.1558 -0.1822  1.0229
  954MOL0     H31617  11.681   6.054   0.368  0.5913 -0.5342 -0.1059
  954MOL0     H31618  11.870   5.875   0.216 -0.7208 -3.7396  2.1232
  954MOL0     H31619  11.697   5.881   0.164  1.2009 -1.8317  1.0502
  954MOL0     H31620  11.881   6.121   0.148 -0.4145  1.1563 -3.2378
  954MOL0     H31621  11.704   6.125   0.172  1.4989  0.6208  2.6055
  954MOL0     H31622  11.668   6.018  -0.039 -1.0033 -1.2312  2.2783
  954MOL0     H31623  11.842   5.980  -0.062  1.4628  2.2219 -0.0489
  954MOL0     H31624  11.693   6.243  -0.099  0.3481  0.2342 -0.7586
  954MOL0     H31625  11.854   6.256  -0.045 -0.0091  0.3373  0.4787
  954MOL0     H31626  11.745   6.121  -0.306 -0.1739 -1.0344  1.0097
  954MOL0     H31627  11.904   6.075  -0.242  3.3470  2.0043 -0.7886
  954MOL0     H31628  11.929   6.335  -0.246  2.7827 -1.3974  0.6883
  954MOL0     H31629  11.796   6.329  -0.358 -2.0617 -2.9567  1.1083
  954MOL0     H31630  12.065   6.183  -0.367  0.1778 -0.2272 -1.0416
  954MOL0     H31631  12.035   6.312  -0.471  0.0905  0.7895  0.6009
  954MOL0     H31632  12.072   5.986   0.606  0.1493  1.5116 -0.2506
  954MOL0     H31633  12.082   6.082   0.835  0.2875  3.8842  0.6937
  954MOL0     H31634  12.103   6.344   1.040 -0.1957  1.3543 -1.0653
  954MOL0     H31635  12.200   6.546   1.184 -0.4873  3.4711 -0.9161
  954MOL0     H31636  11.510   7.319   2.810  0.0520 -0.7296 -2.1909
  954MOL0     H31637  11.297   7.420   2.779 -1.2017  2.0539  0.8131
  954MOL0     H31638  11.109   7.884   2.687 -1.2216  1.4175  0.3306
  954MOL0     H31639  10.923   8.012   2.651 -0.0770 -2.0684  4.4543
  954MOL0     H31640  10.631   7.876   2.357  0.2929  3.0386 -0.3832
  954MOL0     H31641  10.543   7.798   2.486  0.8257 -1.0284 -0.6798
  954MOL0     H31642  10.548   8.100   2.424 -2.1598  1.2147 -1.7044
  954MOL0     H31643  10.420   8.005   2.515  1.5204  0.3850  0.6593
  954MOL0     H31644  10.368   8.086   2.281  1.2604  0.5474 -1.7267
  954MOL0     H31645  10.487   7.972   2.224  2.5070  2.0917  1.7048
  954MOL0     H31646  10.261   7.885   2.186 -4.0659 -2.0663  1.5164
  954MOL0     H31647  10.204   7.939   2.332  0.0816  2.0349 -2.3763
  954MOL0     H31648  10.263   7.528   2.344 -0.6357  1.0160 -0.6543
  954MOL0     H31649  10.727   7.685   2.450  2.0513  1.0222 -4.2398
  954MOL0     H31650  10.999   7.525   2.356  1.1913 -0.2916  1.8592
  954MOL0     H31651  10.960   7.432   2.498  0.6731  0.0861 -0.0190
  954MOL0     H31652  10.823   7.489   2.413  0.4094 -2.9968 -0.1743
  955MOL0     O31653   4.618   6.575   9.030  0.2680 -0.6367 -0.4626
  955MOL0     C31654   4.612   6.472   9.093 -0.3038  0.0447  0.5661
  955MOL0     O31655   4.710   6.438   9.187 -0.8037 -0.3726  0.0477
  955MOL0     C31656   4.834   6.495   9.156 -0.1884  0.0375 -0.1972
  955MOL0     C31657   4.919   6.430   9.073 -0.7827  0.1786 -0.4091
  955MOL0     C31658   5.051   6.470   9.060 -0.6866 -0.1343 -0.0967
  955MOL0     C31659   5.096   6.584   9.118  0.2984 -1.0251 -0.0486
  955MOL0     O31660   5.220   6.624   9.083 -0.5976 -0.5796 -0.2109
  955MOL0     C31661   5.304   6.671   9.191 -0.1949 -0.1411 -0.1569
  955MOL0     C31662   5.290   6.817   9.225 -0.2129 -0.3678 -1.6065
  955MOL0     C31663   5.262   6.917   9.105 -0.2328  0.3823 -0.9335
  955MOL0     C31664   5.391   6.957   9.023  0.2765 -0.0974 -0.2041
  955MOL0     C31665   5.364   6.967   8.871  0.2311 -0.0636  0.4614
  955MOL0     C31666   5.296   7.102   8.831  0.5886  0.1118  0.2792
  955MOL0     C31667   5.286   7.132   8.673 -0.0112 -0.1644 -0.4358
  955MOL0     C31668   5.222   7.256   8.633 -0.1366 -1.2403 -0.0070
  955MOL0     N31669   5.079   7.250   8.611  0.4876  0.0880  0.6740
  955MOL0     C31670   4.980   7.246   8.710 -0.0899 -0.4613  0.3738
  955MOL0     C31671   4.858   7.234   8.643  0.1471 -0.1328  0.4807
  955MOL0     C31672   4.723   7.240   8.705  0.2168  0.9082  0.1696
  955MOL0     C31673   4.715   7.354   8.808 -0.0409  0.9721  0.3229
  955MOL0     C31674   4.762   7.498   8.773 -0.8263  0.2658  0.5651
  955MOL0     C31675   4.682   7.574   8.682  0.2401  0.6359  0.6079
  955MOL0     O31676   4.757   7.698   8.656  0.7684  0.0026  0.9493
  955MOL0     C31677   4.726   7.759   8.538  0.3730 -0.7572  0.4854
  955MOL0     C31678   4.809   7.837   8.468 -0.1922 -0.1487  0.1232
  955MOL0     C31679   4.776   7.888   8.346  0.1192  0.0488 -0.4392
  955MOL0     C31680   4.895   7.951   8.274 -0.6551  0.0157 -0.0325
  955MOL0     C31681   4.646   7.880   8.285 -0.0312  0.2878 -0.7202
  955MOL0     C31682   4.603   7.925   8.158  0.9506  0.3833  0.2251
  955MOL0     O31683   4.675   8.008   8.077 -0.4776  0.2784  0.1310
  955MOL0     C31684   4.667   8.018   7.946  0.4059 -0.3175  0.4121
  955MOL0     C31685   4.716   8.127   7.892 -0.4307 -0.9553  0.1971
  955MOL0     C31686   4.706   8.154   7.753  0.1847  0.2599  0.6268
  955MOL0     C31687   4.643   8.062   7.664  0.2052  0.0197  0.1998
  955MOL0     O31688   4.621   8.103   7.535  0.1736  0.2567 -0.3134
  955MOL0     C31689   4.550   8.016   7.444 -1.1843  0.8127 -0.1143
  955MOL0     C31690   4.558   8.082   7.310  1.0268  0.1362  0.5794
  955MOL0     C31691   4.464   8.019   7.204  0.5652  0.4300  0.1109
  955MOL0     C31692   4.501   8.083   7.065 -0.6698 -0.1187  0.1824
  955MOL0     C31693   4.391   8.071   6.960 -0.6335  0.8033  0.4007
  955MOL0     C31694   4.426   8.139   6.835  0.0439 -0.9573  0.0449
  955MOL0     C31695   4.310   8.149   6.735  0.3809 -0.3574 -0.6649
  955MOL0     C31696   4.300   8.048   6.619 -0.1234  0.1607  0.3193
  955MOL0    Cl31697   4.315   7.880   6.686 -0.3208 -0.4883  0.0823
  955MOL0     C31698   4.604   7.938   7.719  0.0794  0.0860  0.7544
  955MOL0     C31699   4.629   7.916   7.862 -0.1946 -0.1740 -0.3653
  955MOL0     O31700   4.493   7.880   8.118 -0.2477  0.8185  0.0299
  955MOL0     C31701   4.551   7.805   8.368  1.3725 -0.6072  0.5286
  955MOL0     C31702   4.593   7.746   8.485  0.3417 -0.2366 -0.6650
  955MOL0     N31703   4.890   7.245   8.506  0.8017 -0.0694  0.1469
  955MOL0     N31704   5.019   7.248   8.495  0.0694  0.0112 -0.1490
  955MOL0     C31705   4.996   6.664   9.185 -0.5027 -0.2410 -0.4093
  955MOL0     C31706   4.865   6.619   9.208 -0.2110  0.3357 -0.1218
  955MOL0     C31707   4.476   6.389   9.088 -0.1676 -0.9481  0.2351
  955MOL0     C31708   4.449   6.278   9.169 -0.2003 -0.7708  0.2307
  955MOL0     C31709   4.325   6.209   9.162  0.5331  0.1686  0.3421
  955MOL0     C31710   4.227   6.244   9.073  1.3012 -0.3098  1.7044
  955MOL0     O31711   4.100   6.187   9.060 -0.1366  0.2798  0.0149
  955MOL0     C31712   4.055   6.128   9.185  0.1952 -0.3757  0.2236
  955MOL0     C31713   3.926   6.049   9.145 -1.4136 -0.0228  0.1100
  955MOL0     C31714   3.959   5.936   9.056 -0.0189  0.2185 -0.1071
  955MOL0     C31715   3.844   5.838   9.048  0.3720  0.3658  0.2102
  955MOL0     C31716   3.807   5.763   9.169 -0.3859  0.4073 -0.0437
  955MOL0     C31717   3.781   5.711   9.274  0.0298 -0.0751 -0.6701
  955MOL0     C31718   4.257   6.341   8.975  0.2458  0.1866 -0.5833
  955MOL0     C31719   4.371   6.422   8.993  0.8546 -0.2482  0.3621
  955MOL0     C31720   4.388   6.526   8.875  0.8325 -0.6866 -0.3033
  955MOL0     H31721   4.892   6.340   9.017 -1.2496  0.0719 -0.0138
  955MOL0     H31722   5.125   6.419   8.999 -0.4361 -0.9881  0.9060
  955MOL0     H31723   5.407   6.643   9.167 -0.0265  0.7768 -0.5187
  955MOL0     H31724   5.275   6.620   9.284 -1.3740 -0.0473 -0.4562
  955MOL0     H31725   5.206   6.819   9.295 -3.0035 -1.9940 -4.6681
  955MOL0     H31726   5.378   6.852   9.281 -0.9704  2.3585 -2.0060
  955MOL0     H31727   5.189   6.876   9.036  0.4455  0.6908 -1.8555
  955MOL0     H31728   5.225   7.002   9.163  0.7416 -1.0804  2.0552
  955MOL0     H31729   5.443   7.040   9.070  0.2193  0.5890 -1.3340
  955MOL0     H31730   5.458   6.873   9.043  0.7491  0.3906  0.2984
  955MOL0     H31731   5.313   6.874   8.844  0.7270 -0.6856  1.5856
  955MOL0     H31732   5.463   6.967   8.825  0.3762 -0.3856  0.7699
  955MOL0     H31733   5.201   7.104   8.886  0.4953  2.2531  0.1399
  955MOL0     H31734   5.349   7.184   8.882  3.1147 -0.0073 -1.9533
  955MOL0     H31735   5.230   7.050   8.628  1.4323 -1.2233 -0.3620
  955MOL0     H31736   5.388   7.135   8.633  0.2867  0.1436  0.3403
  955MOL0     H31737   5.242   7.322   8.719  1.6048 -2.6051  0.6949
  955MOL0     H31738   5.269   7.313   8.553 -3.6183  4.7294  1.5695
  955MOL0     H31739   5.002   7.249   8.816  1.4459  0.7352  0.0498
  955MOL0     H31740   4.698   7.141   8.746  2.0824  0.4943  0.3810
  955MOL0     H31741   4.648   7.248   8.625  1.2037 -0.8928 -1.0058
  955MOL0     H31742   4.612   7.352   8.846  0.8833 -1.0333  2.9715
  955MOL0     H31743   4.775   7.328   8.895 -0.2591 -0.5144  0.0637
  955MOL0     H31744   4.764   7.556   8.866  0.0951 -1.2452  1.5283
  955MOL0     H31745   4.861   7.487   8.729 -1.7370 -2.2853 -1.0907
  955MOL0     H31746   4.666   7.520   8.588 -0.9699 -3.4516  2.9162
  955MOL0     H31747   4.587   7.611   8.724  1.5629  1.5934  2.9544
  955MOL0     H31748   4.908   7.855   8.508 -1.0865  0.5580  2.1565
  955MOL0     H31749   4.969   7.870   8.273 -1.1506 -0.5488 -3.4621
  955MOL0     H31750   4.925   8.051   8.306 -2.4389  0.8399 -0.8126
  955MOL0     H31751   4.886   7.974   8.168  0.7375  0.4638 -0.0739
  955MOL0     H31752   4.766   8.201   7.953  0.1511 -1.8562  0.8314
  955MOL0     H31753   4.746   8.245   7.709 -2.7411  0.1659 -2.7206
  955MOL0     H31754   4.597   7.918   7.442 -0.8002  0.8990  1.9914
  955MOL0     H31755   4.443   8.010   7.467 -1.6169  1.9817 -1.6499
  955MOL0     H31756   4.524   8.186   7.315  0.7848  0.0471  0.8476
  955MOL0     H31757   4.662   8.098   7.281  1.1772  1.1843  1.6427
  955MOL0     H31758   4.358   8.034   7.226  0.3321 -1.3422  0.3045
  955MOL0     H31759   4.486   7.912   7.212  0.8499  0.5414  1.0548
  955MOL0     H31760   4.602   8.056   7.031 -0.3095  0.3144  0.8841
  955MOL0     H31761   4.512   8.188   7.093  0.0626 -0.5616  1.6650
  955MOL0     H31762   4.374   7.965   6.938 -2.3370  0.8252  1.4304
  955MOL0     H31763   4.296   8.110   6.999 -2.5508 -2.8269 -0.2482
  955MOL0     H31764   4.503   8.081   6.784 -1.1622 -2.3193 -0.2871
  955MOL0     H31765   4.467   8.237   6.860 -0.7444 -0.5265 -0.2863
  955MOL0     H31766   4.320   8.244   6.682 -1.2474  0.1934 -0.0582
  955MOL0     H31767   4.218   8.163   6.792  0.7721  0.3850 -0.1973
  955MOL0     H31768   4.392   8.064   6.562 -0.4135  0.5318 -0.0476
  955MOL0     H31769   4.214   8.058   6.552  0.6172 -1.2764 -0.9228
  955MOL0     H31770   4.550   7.863   7.662 -0.5481  2.9699 -2.7370
  955MOL0     H31771   4.595   7.819   7.898  1.1826 -0.5662 -0.0546
  955MOL0     H31772   4.446   7.796   8.341  1.0668  3.4724 -0.3340
  955MOL0     H31773   4.520   7.687   8.539 -1.5257  0.3012 -2.4801
  955MOL0     H31774   5.024   6.766   9.208 -0.8866 -0.1465 -0.3603
  955MOL0     H31775   4.782   6.673   9.254  1.7874  0.6278  3.5695
  955MOL0     H31776   4.532   6.255   9.235  1.8905 -0.7050 -2.2158
  955MOL0     H31777   4.316   6.128   9.235 -0.3577 -0.0976 -0.0500
  955MOL0     H31778   4.131   6.066   9.234  2.4642 -0.0641 -2.5970
  955MOL0     H31779   4.028   6.204   9.259  1.6790 -0.1332  0.5651
  955MOL0     H31780   3.844   6.111   9.110 -2.9608 -2.7277 -1.3990
  955MOL0     H31781   3.881   6.010   9.237  1.8262 -0.5435  1.6383
  955MOL0     H31782   3.962   5.980   8.956  2.1734  0.8283  0.1692
  955MOL0     H31783   4.052   5.884   9.081 -0.4933 -1.4891 -1.6222
  955MOL0     H31784   3.877   5.780   8.961 -0.2597 -0.0211  0.2261
  955MOL0     H31785   3.759   5.903   9.023  1.3811  1.8509  0.5012
  955MOL0     H31786   3.764   5.679   9.375  1.0133 -1.1777 -0.8315
  955MOL0     H31787   4.187   6.364   8.896 -1.2347  3.2465  1.4048
  955MOL0     H31788   4.488   6.511   8.833  1.7626 -2.8146  2.3681
  955MOL0     H31789   4.307   6.518   8.801  1.4565 -0.3849 -1.0270
  955MOL0     H31790   4.374   6.623   8.924 -1.9355  0.8739 -3.7235
  956MOL0     O31791   7.402   2.431   2.911 -0.1127  0.8325 -0.3313
  956MOL0     C31792   7.420   2.309   2.896  0.5473 -0.2094 -0.4304
  956MOL0     O31793   7.319   2.217   2.852 -0.4540 -0.6564 -0.2796
  956MOL0     C31794   7.196   2.276   2.818 -0.1928  0.7378 -0.1829
  956MOL0     C31795   7.085   2.198   2.853 -0.1638  0.3126 -0.9092
  956MOL0     C31796   6.956   2.236   2.823 -0.5521  0.1095  0.4323
  956MOL0     C31797   6.929   2.348   2.740  0.0208  0.9572  0.2138
  956MOL0     O31798   6.798   2.373   2.724 -0.4153  0.9720  0.3416
  956MOL0     C31799   6.771   2.473   2.629 -0.0063 -0.0008 -0.4387
  956MOL0     C31800   6.628   2.481   2.598 -0.1635 -1.1806  0.4817
  956MOL0     C31801   6.563   2.619   2.592 -0.0850  0.5836 -0.0546
  956MOL0     C31802   6.418   2.623   2.616 -0.4430  0.4555  0.5965
  956MOL0     C31803   6.381   2.774   2.607 -0.4767  0.1916  0.1252
  956MOL0     C31804   6.230   2.790   2.628 -0.3180  0.0559  0.0843
  956MOL0     C31805   6.178   2.765   2.778 -0.4778 -0.3934 -0.1060
  956MOL0     C31806   6.106   2.637   2.812  0.3381 -0.7910  0.4452
  956MOL0     N31807   5.982   2.660   2.888  0.7019 -0.0921  0.3670
  956MOL0     C31808   5.974   2.629   3.020  1.0110 -0.2378  0.6185
  956MOL0     C31809   5.844   2.587   3.039  0.1214  0.0945 -0.0492
  956MOL0     C31810   5.756   2.537   3.163 -0.8385  0.1880 -0.6697
  956MOL0     C31811   5.618   2.591   3.160  0.9273 -0.5536  0.2061
  956MOL0     C31812   5.545   2.561   3.292 -0.6727  0.7506 -0.1690
  956MOL0     C31813   5.401   2.621   3.282 -0.4613  0.5686 -0.3810
  956MOL0     O31814   5.405   2.763   3.279 -0.0866 -1.3395 -0.2774
  956MOL0     C31815   5.277   2.828   3.278  0.9084 -0.0558 -0.1328
  956MOL0     C31816   5.249   2.932   3.199 -0.2387  0.4415  0.9521
  956MOL0     C31817   5.122   2.996   3.191 -0.5460 -0.7372 -0.2755
  956MOL0     C31818   5.099   3.110   3.091 -0.5493  0.2976  0.2820
  956MOL0     C31819   5.025   2.948   3.276  0.5181 -1.0137 -0.0033
  956MOL0     C31820   4.882   3.017   3.286 -0.4943  0.3279  0.3969
  956MOL0     O31821   4.820   2.995   3.407  0.5007  0.7844  0.4401
  956MOL0     C31822   4.697   3.058   3.437 -0.7138 -0.4823  0.0898
  956MOL0     C31823   4.605   3.098   3.344  0.7375 -0.7029  0.3522
  956MOL0     C31824   4.501   3.187   3.377  0.3767  0.2423  0.3250
  956MOL0     C31825   4.476   3.215   3.512 -0.3656  1.0258 -0.0452
  956MOL0     O31826   4.381   3.302   3.557  0.5872  0.1516  0.0562
  956MOL0     C31827   4.248   3.241   3.526  0.0900  0.0032 -0.6651
  956MOL0     C31828   4.174   3.238   3.659  0.0254  0.5113 -0.2164
  956MOL0     C31829   4.242   3.140   3.757  0.5762  0.0694 -0.3845
  956MOL0     C31830   4.139   3.067   3.841 -0.3530  0.8104 -0.5436
  956MOL0     C31831   4.171   3.018   3.980  0.1892 -0.8295 -0.0844
  956MOL0     C31832   4.292   2.928   3.987  0.0191 -0.2128 -0.3289
  956MOL0     C31833   4.284   2.793   3.907 -0.8895 -0.1447  0.9842
  956MOL0     C31834   4.414   2.719   3.901  0.3755 -0.9548  0.0170
  956MOL0    Cl31835   4.464   2.703   4.069 -0.1847 -0.0103 -0.1514
  956MOL0     C31836   4.573   3.175   3.602 -0.0559  1.4816 -0.0296
  956MOL0     C31837   4.689   3.090   3.570  0.7276 -0.3375 -1.0988
  956MOL0     O31838   4.840   3.085   3.196  0.0468  0.3508  0.4409
  956MOL0     C31839   5.045   2.840   3.359  0.2514  0.4488 -0.5183
  956MOL0     C31840   5.179   2.789   3.372 -0.3436 -0.7425 -0.7564
  956MOL0     N31841   5.795   2.576   2.913 -0.2963  0.3194 -0.3188
  956MOL0     N31842   5.877   2.606   2.824 -0.6573 -0.2602  0.6244
  956MOL0     C31843   7.040   2.417   2.692 -0.1218 -0.8145  0.2649
  956MOL0     C31844   7.170   2.396   2.747  0.9302 -0.3293  0.1461
  956MOL0     C31845   7.553   2.254   2.919 -0.5506  0.3535  0.5964
  956MOL0     C31846   7.656   2.345   2.947 -0.3761  0.1557 -0.3985
  956MOL0     C31847   7.790   2.302   2.964  0.3893 -0.3411 -0.6766
  956MOL0     C31848   7.829   2.169   2.950  0.1321 -0.2539  0.6830
  956MOL0     O31849   7.957   2.132   2.966 -0.4006 -0.1925 -0.1853
  956MOL0     C31850   8.056   2.202   2.882  0.0245 -0.3183  0.0773
  956MOL0     C31851   8.186   2.128   2.865 -0.3282 -0.2444 -0.1633
  956MOL0     C31852   8.298   2.223   2.809  1.3314  0.7822  0.6543
  956MOL0     C31853   8.416   2.146   2.749  0.6081  0.0651  0.6154
  956MOL0     C31854   8.473   2.223   2.636  0.0082 -0.0083  0.0740
  956MOL0     C31855   8.525   2.300   2.552  0.7282 -0.1791 -1.1471
  956MOL0     C31856   7.723   2.081   2.929 -0.0658 -0.1973 -0.2255
  956MOL0     C31857   7.591   2.114   2.920  0.1837 -0.2778  0.3179
  956MOL0     C31858   7.498   1.999   2.895 -0.7039  0.0929 -0.4882
  956MOL0     H31859   7.111   2.108   2.908  4.3727  2.1543  0.4253
  956MOL0     H31860   6.874   2.190   2.878 -1.2971  0.6057 -0.2503
  956MOL0     H31861   6.829   2.450   2.538  2.3918 -0.8830  1.2088
  956MOL0     H31862   6.802   2.564   2.680 -0.3463 -0.4117  0.5304
  956MOL0     H31863   6.611   2.422   2.507 -2.8692  1.4441 -0.9145
  956MOL0     H31864   6.578   2.425   2.678  2.2543 -1.9150  1.5505
  956MOL0     H31865   6.616   2.688   2.658 -1.2018  0.2257  1.2528
  956MOL0     H31866   6.583   2.655   2.490 -2.6003 -1.0514 -1.2510
  956MOL0     H31867   6.368   2.568   2.535  1.2309 -2.2717  1.2846
  956MOL0     H31868   6.388   2.574   2.709  0.2493  1.9915  1.6626
  956MOL0     H31869   6.399   2.805   2.503  0.0493 -0.4069  0.0333
  956MOL0     H31870   6.436   2.835   2.679  1.4497 -1.8061  0.4738
  956MOL0     H31871   6.213   2.894   2.600  1.1180  1.0380  2.5055
  956MOL0     H31872   6.175   2.735   2.551  0.6893 -0.6634 -0.1470
  956MOL0     H31873   6.110   2.849   2.798 -0.6831 -1.1092  2.6023
  956MOL0     H31874   6.263   2.779   2.846 -1.3673  2.1880  0.6317
  956MOL0     H31875   6.083   2.592   2.715  0.4521  0.9891 -0.4474
  956MOL0     H31876   6.178   2.584   2.876  2.6214  1.3332 -0.1828
  956MOL0     H31877   6.050   2.639   3.097  0.8269 -0.6970  0.8618
  956MOL0     H31878   5.818   2.558   3.251 -1.9310  2.4248 -0.3896
  956MOL0     H31879   5.736   2.429   3.161  0.4224 -0.0587 -0.6604
  956MOL0     H31880   5.640   2.698   3.167  2.6315 -0.7168 -1.6566
  956MOL0     H31881   5.560   2.559   3.073  0.4517 -3.3117  1.4325
  956MOL0     H31882   5.549   2.452   3.298 -0.9053  0.6627 -1.4822
  956MOL0     H31883   5.606   2.594   3.377  1.0806 -3.6302  0.5531
  956MOL0     H31884   5.350   2.579   3.195  0.2599 -0.5967 -0.2584
  956MOL0     H31885   5.350   2.577   3.368  0.3249 -1.0404 -0.7113
  956MOL0     H31886   5.326   2.948   3.124 -0.0575 -2.3239  0.4411
  956MOL0     H31887   5.191   3.136   3.038 -0.4314 -0.3552  0.1517
  956MOL0     H31888   5.058   3.196   3.145  1.5737  2.3294 -1.1631
  956MOL0     H31889   5.025   3.073   3.019 -1.6504 -1.0236  2.0034
  956MOL0     H31890   4.613   3.075   3.239  2.1973  0.8534  0.0899
  956MOL0     H31891   4.436   3.239   3.307 -0.4560 -1.0802  0.0837
  956MOL0     H31892   4.180   3.295   3.460 -1.7147  0.0501  1.1352
  956MOL0     H31893   4.253   3.143   3.476 -1.0000 -1.2636  1.5749
  956MOL0     H31894   4.184   3.338   3.702 -0.3459  0.8698 -0.9432
  956MOL0     H31895   4.067   3.219   3.641  0.0490 -0.2180  0.3552
  956MOL0     H31896   4.306   3.200   3.823  2.3054  0.3462 -2.2304
  956MOL0     H31897   4.316   3.079   3.704  1.8426  2.9631 -2.1767
  956MOL0     H31898   4.102   2.987   3.776 -1.6536  0.0668  1.0331
  956MOL0     H31899   4.054   3.133   3.861 -0.7464  0.5802 -1.4360
  956MOL0     H31900   4.179   3.110   4.040 -2.7028 -1.1716  0.9479
  956MOL0     H31901   4.093   2.960   4.030  0.1300 -0.0934  0.7002
  956MOL0     H31902   4.317   2.924   4.093 -2.8851  1.1644  0.5006
  956MOL0     H31903   4.385   2.980   3.961  1.5012 -1.8996  1.2941
  956MOL0     H31904   4.256   2.808   3.802 -2.2473 -1.2944  1.1466
  956MOL0     H31905   4.204   2.732   3.951 -2.9777  0.7871 -1.2471
  956MOL0     H31906   4.491   2.774   3.847  1.7365 -1.8514  0.9813
  956MOL0     H31907   4.406   2.626   3.844 -0.1626 -0.8365 -0.1145
  956MOL0     H31908   4.572   3.202   3.707 -0.6631 -1.4381  0.7997
  956MOL0     H31909   4.763   3.078   3.649 -0.9588 -0.6903  0.4794
  956MOL0     H31910   4.964   2.823   3.429  0.2765 -2.2508 -1.0203
  956MOL0     H31911   5.200   2.723   3.456  0.5740  3.1856  2.4788
  956MOL0     H31912   7.017   2.509   2.640 -2.5557 -1.3048  0.3611
  956MOL0     H31913   7.257   2.447   2.709 -0.3740 -0.2730 -3.1265
  956MOL0     H31914   7.629   2.451   2.942 -1.6495 -0.0095  1.4937
  956MOL0     H31915   7.871   2.371   2.983 -0.6884  0.1669  3.1238
  956MOL0     H31916   8.016   2.214   2.781  0.4925  1.7967  0.0866
  956MOL0     H31917   8.068   2.304   2.921 -0.2745  0.1317 -0.9690
  956MOL0     H31918   8.170   2.046   2.794 -2.0413 -0.7602  0.7692
  956MOL0     H31919   8.220   2.096   2.964 -3.5305  1.3306  1.6309
  956MOL0     H31920   8.237   2.277   2.736  0.9064 -2.2312 -1.4229
  956MOL0     H31921   8.341   2.299   2.875 -1.7942  1.5759  1.9419
  956MOL0     H31922   8.378   2.050   2.712  0.7960  1.2179 -2.9590
  956MOL0     H31923   8.481   2.107   2.827  0.1265 -1.5374  0.2460
  956MOL0     H31924   8.541   2.373   2.474 -1.3423  2.4641  0.7139
  956MOL0     H31925   7.746   1.975   2.929  0.1086 -0.2406 -3.0765
  956MOL0     H31926   7.467   2.017   2.792  0.9835  2.4325 -0.6463
  956MOL0     H31927   7.550   1.902   2.901 -1.4724 -0.6776 -4.1180
  956MOL0     H31928   7.413   1.999   2.964 -1.5025  0.7059 -1.4637
  957MOL0     O31929   5.187   3.032   0.203  0.0791 -0.1111  1.0093
  957MOL0     C31930   5.066   3.047   0.180  0.3393  0.2935  0.3916
  957MOL0     O31931   4.973   2.982   0.245  0.0238  0.4331 -0.9151
  957MOL0     C31932   5.003   2.872   0.321  0.0233 -0.5777  0.6873
  957MOL0     C31933   4.979   2.747   0.256  0.3780 -0.7602 -0.1145
  957MOL0     C31934   5.005   2.628   0.333  0.4837 -0.2894 -0.2346
  957MOL0     C31935   5.029   2.645   0.465 -0.2160 -0.3197 -0.7438
  957MOL0     O31936   5.047   2.546   0.561 -0.1552  0.1418  0.8264
  957MOL0     C31937   5.108   2.423   0.514 -0.0038  0.6283  0.5839
  957MOL0     C31938   5.128   2.318   0.630  0.4722 -0.1666 -0.0449
  957MOL0     C31939   5.127   2.174   0.574  0.6773 -0.4762  0.7155
  957MOL0     C31940   5.156   2.088   0.696  0.2683 -0.6327 -0.3592
  957MOL0     C31941   5.135   1.941   0.671  0.0967 -0.3351  0.1733
  957MOL0     C31942   5.218   1.864   0.783 -0.0491  0.1462 -0.0038
  957MOL0     C31943   5.181   1.720   0.788  0.1224 -0.1985  0.4650
  957MOL0     C31944   5.282   1.631   0.880  0.2831 -1.1855  0.7186
  957MOL0     N31945   5.400   1.602   0.802  0.2170  0.6591 -0.3951
  957MOL0     C31946   5.463   1.477   0.822 -0.0843  0.2217 -0.3566
  957MOL0     C31947   5.575   1.485   0.742 -0.0495 -0.2898  0.3130
  957MOL0     C31948   5.666   1.376   0.703 -0.8988 -0.7726 -0.0992
  957MOL0     C31949   5.810   1.430   0.726 -0.2704 -0.4504 -0.5005
  957MOL0     C31950   5.907   1.312   0.731  0.2637 -0.1824  0.3032
  957MOL0     C31951   6.048   1.360   0.729  0.0831 -0.1844 -0.5628
  957MOL0     O31952   6.132   1.296   0.626 -0.0402  0.0367 -0.4967
  957MOL0     C31953   6.268   1.285   0.631  0.2351  0.1314  0.2800
  957MOL0     C31954   6.348   1.387   0.683  0.5366 -1.1255  1.1615
  957MOL0     C31955   6.485   1.401   0.647  0.5683 -0.3892  0.1086
  957MOL0     C31956   6.552   1.522   0.709 -0.6426  0.1968 -0.2120
  957MOL0     C31957   6.549   1.295   0.575 -0.2966  0.9933  0.0530
  957MOL0     C31958   6.701   1.280   0.554  0.1595 -0.3593 -0.8844
  957MOL0     O31959   6.727   1.176   0.488  0.4027 -0.5327 -0.6922
  957MOL0     C31960   6.841   1.156   0.414  1.0044  0.6143 -0.7697
  957MOL0     C31961   6.883   1.025   0.395  0.0273  0.7043  0.0156
  957MOL0     C31962   6.991   0.999   0.311 -0.5970 -0.5384 -0.4576
  957MOL0     C31963   7.059   1.094   0.232  0.0129 -0.0797  0.0963
  957MOL0     O31964   7.152   1.065   0.136  0.3491  0.7599  0.3666
  957MOL0     C31965   7.113   0.959   0.034  0.0643 -1.1581 -0.3226
  957MOL0     C31966   7.218   0.942  -0.087  0.5763  0.6141 -0.4220
  957MOL0     C31967   7.259   1.079  -0.138  0.4437  0.1734 -0.2641
  957MOL0     C31968   7.400   1.074  -0.196 -0.7392  0.3669 -0.2500
  957MOL0     C31969   7.467   1.213  -0.210 -0.1355  0.5071  0.5402
  957MOL0     C31970   7.396   1.297  -0.321 -0.2591  0.4272 -1.1515
  957MOL0     C31971   7.487   1.398  -0.385  0.6420  0.2284  0.1991
  957MOL0     C31972   7.393   1.506  -0.456 -0.3627  0.1616  1.2483
  957MOL0    Cl31973   7.497   1.646  -0.485  0.4855 -0.2100  0.0557
  957MOL0     C31974   7.028   1.229   0.260 -0.1616 -0.2785 -0.4933
  957MOL0     C31975   6.916   1.257   0.344  0.1385  0.8666  0.4041
  957MOL0     O31976   6.781   1.356   0.605 -0.5818  0.5025 -0.0978
  957MOL0     C31977   6.463   1.189   0.538  0.1949  0.0969 -0.0395
  957MOL0     C31978   6.328   1.184   0.566 -1.0245  0.6802 -0.4785
  957MOL0     N31979   5.586   1.613   0.693  0.4579 -0.0284 -0.0571
  957MOL0     N31980   5.480   1.685   0.732 -0.5340 -0.0141  0.2194
  957MOL0     C31981   5.039   2.768   0.526 -0.0099  1.1660 -1.3474
  957MOL0     C31982   5.037   2.886   0.452 -0.0063 -0.4609  0.4704
  957MOL0     C31983   5.018   3.155   0.082  0.5588  0.0262 -0.7935
  957MOL0     C31984   5.108   3.242   0.017  0.7136 -1.1581 -0.6058
  957MOL0     C31985   5.076   3.346  -0.063 -0.1544 -0.3384 -1.1221
  957MOL0     C31986   4.944   3.378  -0.097 -0.4388  0.2001  0.8630
  957MOL0     O31987   4.886   3.473  -0.179 -0.2792 -0.5088  0.2705
  957MOL0     C31988   4.979   3.548  -0.260  0.1458  0.9861 -0.5586
  957MOL0     C31989   4.999   3.686  -0.202  0.1141  1.4385 -0.7291
  957MOL0     C31990   4.880   3.790  -0.190  1.0767 -0.0905 -0.7499
  957MOL0     C31991   4.923   3.914  -0.102  0.3656  0.2142  0.3633
  957MOL0     C31992   4.829   4.020  -0.145 -0.2296 -0.2738  0.2672
  957MOL0     C31993   4.755   4.115  -0.188  0.4280 -0.0774 -0.6945
  957MOL0     C31994   4.851   3.294  -0.039  0.4608  0.5537 -0.3514
  957MOL0     C31995   4.881   3.192   0.054 -0.0942  0.2380 -0.1910
  957MOL0     C31996   4.766   3.111   0.112 -0.2837  1.0999 -0.0397
  957MOL0     H31997   4.967   2.746   0.148  2.2448  2.6046 -0.4930
  957MOL0     H31998   5.001   2.533   0.281  0.2511 -0.9333  0.9404
  957MOL0     H31999   5.206   2.454   0.477  0.4362 -3.0989 -1.8820
  957MOL0     H32000   5.065   2.377   0.425  3.6748  0.2679 -1.1768
  957MOL0     H32001   5.225   2.338   0.676  0.6013 -2.2874  0.7370
  957MOL0     H32002   5.047   2.329   0.704 -0.5281  3.2383 -1.4428
  957MOL0     H32003   5.033   2.149   0.525  1.4485 -2.3936  0.1557
  957MOL0     H32004   5.201   2.174   0.494 -0.9576  0.6340 -0.8835
  957MOL0     H32005   5.255   2.108   0.736  0.0647 -2.9705  1.5344
  957MOL0     H32006   5.084   2.125   0.770 -0.4223 -0.0472 -1.2958
  957MOL0     H32007   5.172   1.932   0.568  1.0335  3.2305  0.0799
  957MOL0     H32008   5.029   1.922   0.691 -0.1167  0.9085  0.2652
  957MOL0     H32009   5.320   1.871   0.745 -1.0145 -1.9060 -3.4081
  957MOL0     H32010   5.191   1.911   0.878 -1.7915  2.0578 -1.3486
  957MOL0     H32011   5.177   1.676   0.688  0.5566  1.9138 -0.5320
  957MOL0     H32012   5.085   1.704   0.838  0.4109  0.0239  1.1024
  957MOL0     H32013   5.309   1.693   0.967 -2.5836  0.0730  0.8280
  957MOL0     H32014   5.233   1.540   0.914 -1.1327 -0.4025  0.8888
  957MOL0     H32015   5.434   1.388   0.877  4.0768 -1.2476 -0.2085
  957MOL0     H32016   5.639   1.362   0.597 -1.6725  2.8381 -0.5081
  957MOL0     H32017   5.650   1.286   0.763 -0.1331 -1.9214 -1.5553
  957MOL0     H32018   5.833   1.505   0.649  0.3725  1.0358  1.0668
  957MOL0     H32019   5.827   1.482   0.821  1.2501  1.3230 -1.6660
  957MOL0     H32020   5.897   1.255   0.824  0.1076 -1.0873 -0.2614
  957MOL0     H32021   5.894   1.250   0.642 -1.8720 -1.3522  1.3452
  957MOL0     H32022   6.063   1.466   0.707  4.7148 -0.2079  1.3832
  957MOL0     H32023   6.093   1.339   0.826  2.4451  0.9204 -1.3550
  957MOL0     H32024   6.295   1.465   0.735  1.1064  0.2299 -0.2106
  957MOL0     H32025   6.610   1.580   0.637  1.4181  0.1037  1.2767
  957MOL0     H32026   6.622   1.480   0.783 -1.5795  0.1551  0.6791
  957MOL0     H32027   6.475   1.583   0.756 -0.6832  0.4697 -0.6306
  957MOL0     H32028   6.846   0.950   0.464 -0.6105  1.3332  0.3614
  957MOL0     H32029   7.018   0.894   0.298 -0.0532 -0.0055 -5.5089
  957MOL0     H32030   7.092   0.862   0.080 -0.7122 -0.9406 -0.2040
  957MOL0     H32031   7.016   0.987  -0.008  0.3517  1.0964  0.3392
  957MOL0     H32032   7.302   0.898  -0.033  1.6827  3.8045  0.6810
  957MOL0     H32033   7.184   0.878  -0.168 -2.3868  1.8297 -0.2590
  957MOL0     H32034   7.259   1.145  -0.051 -0.9943 -3.8813  3.1922
  957MOL0     H32035   7.186   1.121  -0.209  2.2154  1.9214 -1.1571
  957MOL0     H32036   7.404   1.019  -0.290 -0.9393 -2.8852  1.5291
  957MOL0     H32037   7.460   1.015  -0.126  1.0628  1.4158 -0.8412
  957MOL0     H32038   7.459   1.279  -0.123  0.4639 -0.1089  1.0783
  957MOL0     H32039   7.573   1.199  -0.230  0.0209  3.6214 -1.4672
  957MOL0     H32040   7.316   1.349  -0.267  1.0142  0.1238  1.1700
  957MOL0     H32041   7.357   1.234  -0.401  1.7073  0.4237 -2.1873
  957MOL0     H32042   7.538   1.345  -0.466 -1.4533 -0.2859 -0.8551
  957MOL0     H32043   7.542   1.448  -0.305 -0.3026 -0.0646  1.0530
  957MOL0     H32044   7.307   1.529  -0.393 -2.4003  1.4558 -1.7443
  957MOL0     H32045   7.345   1.470  -0.548 -2.5581 -4.3688  3.8132
  957MOL0     H32046   7.088   1.309   0.217  1.4685  0.5474  2.9106
  957MOL0     H32047   6.899   1.364   0.354 -0.4036  1.1254 -2.4545
  957MOL0     H32048   6.493   1.102   0.479  0.7025  0.3627 -0.1781
  957MOL0     H32049   6.253   1.110   0.538 -2.3046  1.6112  0.3758
  957MOL0     H32050   5.060   2.768   0.633 -1.4551 -1.3002 -0.9975
  957MOL0     H32051   5.048   2.984   0.497  3.6331  1.9909 -4.6722
  957MOL0     H32052   5.213   3.224   0.037  1.0826 -0.4395 -1.8539
  957MOL0     H32053   5.164   3.399  -0.099  2.8274 -1.9588  2.9536
  957MOL0     H32054   5.071   3.489  -0.268 -1.8666 -2.3121 -1.5844
  957MOL0     H32055   4.935   3.567  -0.358 -0.9792  1.4840  0.0290
  957MOL0     H32056   5.075   3.741  -0.259 -0.3817  2.1049 -0.7584
  957MOL0     H32057   5.035   3.664  -0.101 -1.1564 -0.7456 -0.6962
  957MOL0     H32058   4.829   3.812  -0.284 -2.2081 -0.9484  0.6999
  957MOL0     H32059   4.801   3.744  -0.130 -0.2855  0.7693 -1.8331
  957MOL0     H32060   5.025   3.949  -0.125  0.7551 -0.5684  0.8585
  957MOL0     H32061   4.917   3.900   0.006 -0.0550  0.9679  0.4459
  957MOL0     H32062   4.702   4.207  -0.203  0.3487 -0.0370 -0.1768
  957MOL0     H32063   4.746   3.313  -0.062  0.1898 -1.3239 -0.8090
  957MOL0     H32064   4.769   3.004   0.089 -3.9812  1.3732 -2.7757
  957MOL0     H32065   4.748   3.139   0.216 -0.0145  0.6597  0.1214
  957MOL0     H32066   4.680   3.147   0.054  1.4151  4.7341 -0.6094
  958MOL0     O32067   4.768   7.686   5.682 -0.5072 -0.2806  0.0341
  958MOL0     C32068   4.770   7.613   5.584  0.1506 -0.1571  0.3595
  958MOL0     O32069   4.663   7.530   5.557  0.1959  0.2291  0.6935
  958MOL0     C32070   4.534   7.563   5.587 -0.0549 -0.5415  0.1090
  958MOL0     C32071   4.453   7.627   5.485 -0.0646  0.8048  0.4503
  958MOL0     C32072   4.324   7.676   5.520  0.3779  0.0980  0.0108
  958MOL0     C32073   4.269   7.650   5.648 -0.2802 -0.6901 -0.8104
  958MOL0     O32074   4.150   7.678   5.701  0.0933 -0.3417  0.5150
  958MOL0     C32075   4.041   7.683   5.601  0.5385 -0.3242  0.1470
  958MOL0     C32076   3.919   7.721   5.692 -0.4552  0.0631 -0.0678
  958MOL0     C32077   3.883   7.612   5.793  0.4807  0.2125 -0.1933
  958MOL0     C32078   3.861   7.473   5.725 -0.2152 -0.1236  0.2715
  958MOL0     C32079   3.817   7.370   5.828 -0.2700 -0.1722 -0.5613
  958MOL0     C32080   3.841   7.222   5.788  0.5803 -0.2742  0.2313
  958MOL0     C32081   3.766   7.132   5.880  0.8166  0.2474 -0.1635
  958MOL0     C32082   3.764   6.984   5.836 -0.4447 -0.4876 -0.6620
  958MOL0     N32083   3.883   6.913   5.884 -0.1122 -0.4785  1.0221
  958MOL0     C32084   4.004   6.920   5.820  0.6987  0.4558  0.1477
  958MOL0     C32085   4.069   6.815   5.871 -0.7725 -1.0245  0.0236
  958MOL0     C32086   4.216   6.794   5.830 -0.0487 -0.1508 -1.0802
  958MOL0     C32087   4.221   6.707   5.703  0.3199  0.2031  0.4614
  958MOL0     C32088   4.342   6.722   5.604  0.1432  0.2637 -0.0100
  958MOL0     C32089   4.322   6.851   5.512  0.0398  0.6032  0.0182
  958MOL0     O32090   4.197   6.843   5.434  0.5551 -0.3112  0.5053
  958MOL0     C32091   4.137   6.961   5.405 -0.4425 -0.3444 -0.8717
  958MOL0     C32092   4.194   7.087   5.404  0.1391 -0.0079  0.2944
  958MOL0     C32093   4.121   7.199   5.390 -0.5048  0.1354  0.4827
  958MOL0     C32094   4.189   7.333   5.421 -0.8432  0.1163 -0.0606
  958MOL0     C32095   3.979   7.189   5.373 -0.2722 -0.5470  0.0408
  958MOL0     C32096   3.885   7.292   5.360 -1.4231 -0.2928  0.3770
  958MOL0     O32097   3.754   7.260   5.338  0.3453 -0.0770  0.3094
  958MOL0     C32098   3.658   7.354   5.308  0.2006 -0.2376 -0.3254
  958MOL0     C32099   3.561   7.318   5.218 -0.9966  0.6477 -0.1784
  958MOL0     C32100   3.453   7.400   5.193  0.0969 -0.2133  0.7126
  958MOL0     C32101   3.429   7.518   5.259  0.4729 -0.0276  0.7060
  958MOL0     O32102   3.319   7.605   5.234 -0.0383  0.4228  0.6027
  958MOL0     C32103   3.214   7.569   5.148  0.3566 -0.4760  0.1890
  958MOL0     C32104   3.229   7.643   5.012 -0.6444  0.3018 -0.5688
  958MOL0     C32105   3.150   7.780   4.999 -0.4891  0.2999 -0.9854
  958MOL0     C32106   3.189   7.880   5.109 -0.5200  0.2656 -0.3700
  958MOL0     C32107   3.100   8.007   5.118  0.0763  0.6354  0.1658
  958MOL0     C32108   3.078   8.077   4.989  0.1821 -0.5262  0.0959
  958MOL0     C32109   3.017   8.216   5.007 -0.5338  0.3022 -0.0272
  958MOL0     C32110   2.982   8.289   4.881  0.5754  0.6758 -0.1129
  958MOL0    Cl32111   3.139   8.326   4.795  0.0827 -0.2457 -0.1573
  958MOL0     C32112   3.516   7.548   5.355  0.5487 -0.8943  0.1504
  958MOL0     C32113   3.625   7.473   5.376  0.3565  1.1428 -1.1338
  958MOL0     O32114   3.926   7.411   5.372  0.1183 -0.3698  0.2952
  958MOL0     C32115   3.927   7.060   5.363 -0.2930 -0.3058 -0.0180
  958MOL0     C32116   4.006   6.951   5.377  0.7149 -0.6376 -0.0868
  958MOL0     N32117   4.000   6.751   5.961  0.2473 -0.1278 -0.5410
  958MOL0     N32118   3.885   6.805   5.964  0.1015  0.3960  0.5184
  958MOL0     C32119   4.352   7.592   5.737  0.2106 -0.4938 -0.5038
  958MOL0     C32120   4.485   7.560   5.717 -0.0697  0.0378 -0.3038
  958MOL0     C32121   4.890   7.605   5.500  0.5819  1.1169 -0.8527
  958MOL0     C32122   4.873   7.591   5.361 -0.2961 -0.2014 -0.7786
  958MOL0     C32123   4.981   7.563   5.275  0.5276  0.0580  0.5171
  958MOL0     C32124   5.111   7.555   5.327  0.3633  0.2274 -0.1654
  958MOL0     O32125   5.205   7.537   5.226  0.9597 -0.1550 -0.1089
  958MOL0     C32126   5.345   7.520   5.259  0.5149  0.2718  0.5503
  958MOL0     C32127   5.420   7.636   5.305 -0.2056  0.0526 -0.2570
  958MOL0     C32128   5.574   7.620   5.298 -0.8451 -0.3391 -0.7544
  958MOL0     C32129   5.640   7.745   5.347  1.0841 -0.3636 -1.1708
  958MOL0     C32130   5.788   7.742   5.348 -0.1654 -0.5905 -0.0538
  958MOL0     C32131   5.906   7.722   5.364  0.0481 -0.0774  0.5119
  958MOL0     C32132   5.124   7.556   5.461 -0.5949  0.2062 -0.2684
  958MOL0     C32133   5.012   7.578   5.553 -0.0902 -0.0647 -0.9244
  958MOL0     C32134   5.040   7.569   5.694  0.2986  0.8457 -1.2119
  958MOL0     H32135   4.498   7.640   5.387 -1.2341  0.1916 -0.1861
  958MOL0     H32136   4.262   7.732   5.451 -0.5590  1.4037  1.8089
  958MOL0     H32137   4.035   7.590   5.543  0.3990 -2.2007  2.9469
  958MOL0     H32138   4.053   7.770   5.536 -2.6718  0.6064  0.5969
  958MOL0     H32139   3.931   7.816   5.744  1.0712 -0.8827  1.4225
  958MOL0     H32140   3.833   7.734   5.626  0.9404 -1.3187 -2.2939
  958MOL0     H32141   3.960   7.606   5.870 -0.4484 -0.9165  0.6878
  958MOL0     H32142   3.794   7.644   5.848  0.3102 -0.5745 -0.0024
  958MOL0     H32143   3.783   7.493   5.651 -1.3999  2.5616  2.0856
  958MOL0     H32144   3.948   7.438   5.668  0.6332  2.0680  0.1321
  958MOL0     H32145   3.714   7.390   5.860  0.2815 -0.3966  1.5018
  958MOL0     H32146   3.869   7.387   5.923 -1.1834  0.5207 -0.1758
  958MOL0     H32147   3.814   7.203   5.684  4.2262 -0.3863 -0.8393
  958MOL0     H32148   3.949   7.202   5.790  0.7177  0.3475 -0.4026
  958MOL0     H32149   3.662   7.168   5.873  0.3976 -1.0144 -6.6511
  958MOL0     H32150   3.807   7.144   5.980  0.2528  0.7127  0.0162
  958MOL0     H32151   3.690   6.939   5.902  0.5246 -0.7158  0.2843
  958MOL0     H32152   3.748   6.986   5.727  1.2705  3.1807 -0.9837
  958MOL0     H32153   4.034   7.000   5.753  0.8540  0.0958 -0.2098
  958MOL0     H32154   4.259   6.737   5.912  0.0000  0.8390 -0.4034
  958MOL0     H32155   4.272   6.887   5.819  1.4268 -0.9598 -0.6020
  958MOL0     H32156   4.215   6.603   5.734 -0.2103  0.6603  1.9611
  958MOL0     H32157   4.130   6.722   5.644 -0.5985 -0.7101  1.6172
  958MOL0     H32158   4.433   6.724   5.664 -0.4419 -2.4421  1.0745
  958MOL0     H32159   4.361   6.638   5.536  1.1904  0.3551  0.1465
  958MOL0     H32160   4.323   6.938   5.579  0.0871  0.7534 -0.1741
  958MOL0     H32161   4.408   6.868   5.446  1.3427 -1.0785  1.1961
  958MOL0     H32162   4.299   7.102   5.430 -0.2142  0.3066  1.6406
  958MOL0     H32163   4.291   7.318   5.457 -1.6136 -0.4998  2.0008
  958MOL0     H32164   4.141   7.389   5.501  1.2349 -0.3961  1.6254
  958MOL0     H32165   4.190   7.393   5.329  1.0110  0.9299  0.4424
  958MOL0     H32166   3.578   7.218   5.180 -3.0548 -0.6850  2.0825
  958MOL0     H32167   3.387   7.363   5.115  0.7958 -3.5455  1.5174
  958MOL0     H32168   3.203   7.462   5.127 -2.1633 -0.2622  0.0711
  958MOL0     H32169   3.126   7.592   5.209 -0.0558 -3.1026  0.7133
  958MOL0     H32170   3.332   7.654   4.976 -0.6369 -1.8284 -1.3184
  958MOL0     H32171   3.187   7.573   4.940 -0.4381 -0.3222 -0.0879
  958MOL0     H32172   3.046   7.747   5.003 -0.1595 -0.6907  0.1449
  958MOL0     H32173   3.174   7.823   4.901  4.0951  0.1501 -0.1731
  958MOL0     H32174   3.286   7.921   5.079 -0.1274  1.1804  1.9125
  958MOL0     H32175   3.202   7.830   5.205  1.8856  0.4281 -0.5436
  958MOL0     H32176   3.003   7.973   5.156  0.2133 -1.4950 -1.2620
  958MOL0     H32177   3.145   8.080   5.186  2.1706 -1.2197  0.8684
  958MOL0     H32178   3.006   8.016   4.933 -0.8921 -0.1835  1.0726
  958MOL0     H32179   3.180   8.073   4.950  0.6281 -0.0011  1.1670
  958MOL0     H32180   3.092   8.280   5.056  0.5660 -0.8244 -0.1835
  958MOL0     H32181   2.923   8.210   5.062 -2.0725  2.6521 -2.1612
  958MOL0     H32182   2.918   8.378   4.890 -1.9784 -0.7528 -2.5205
  958MOL0     H32183   2.931   8.224   4.809  3.1305 -0.2912 -1.1507
  958MOL0     H32184   3.504   7.639   5.413 -4.5556 -1.6294  0.7857
  958MOL0     H32185   3.689   7.516   5.453 -0.3522  0.9776 -0.4442
  958MOL0     H32186   3.823   7.035   5.343 -0.3388 -0.0441 -0.1045
  958MOL0     H32187   3.963   6.852   5.367 -3.6572  1.1636 -1.6541
  958MOL0     H32188   4.322   7.566   5.838  1.5215 -0.1999 -0.0151
  958MOL0     H32189   4.552   7.526   5.795  0.7822  0.0998 -0.9885
  958MOL0     H32190   4.775   7.608   5.317  0.1449  0.3374 -1.5766
  958MOL0     H32191   4.965   7.561   5.168 -2.5992 -0.8601  0.9122
  958MOL0     H32192   5.359   7.437   5.329  1.7909  1.0438  1.2273
  958MOL0     H32193   5.380   7.492   5.159 -1.0292  0.6997 -0.1481
  958MOL0     H32194   5.395   7.656   5.409  3.4108 -0.4931  0.8358
  958MOL0     H32195   5.387   7.717   5.239  0.4508 -1.2359 -2.2655
  958MOL0     H32196   5.599   7.527   5.351 -5.4260 -0.0741  2.4797
  958MOL0     H32197   5.599   7.597   5.195  0.5806 -0.4148 -0.4094
  958MOL0     H32198   5.598   7.766   5.446  1.0329  0.4822 -1.3646
  958MOL0     H32199   5.607   7.828   5.284 -1.5074  1.5064  2.2658
  958MOL0     H32200   6.008   7.690   5.372  0.7524 -0.6099 -5.8134
  958MOL0     H32201   5.228   7.550   5.493 -0.4836  3.1012  0.1829
  958MOL0     H32202   5.010   7.645   5.766  2.3001 -0.1843  0.8240
  958MOL0     H32203   4.994   7.472   5.715  1.9107 -0.2038 -2.3547
  958MOL0     H32204   5.148   7.565   5.705  0.0918 -1.0446  0.7863
  959MOL0     O32205   4.129   3.888   9.965 -0.1444 -0.4069  0.2271
  959MOL0     C32206   4.090   3.780  10.014 -0.4951  1.0762  0.4233
  959MOL0     O32207   4.148   3.714  10.120 -0.0046 -0.2035  0.3602
  959MOL0     C32208   4.251   3.789  10.172 -0.1348  0.2276 -0.2465
  959MOL0     C32209   4.230   3.911  10.244 -0.0389  0.5196  0.3118
  959MOL0     C32210   4.346   3.983  10.281 -0.6106  1.4798  1.0349
  959MOL0     C32211   4.481   3.927  10.276 -0.8321 -0.8208 -0.8674
  959MOL0     O32212   4.588   4.005  10.324  0.6629  0.1094  0.3252
  959MOL0     C32213   4.627   3.954  10.443  0.0944 -0.3685 -0.8346
  959MOL0     C32214   4.707   4.073  10.513  0.3937 -0.1785 -1.0127
  959MOL0     C32215   4.619   4.186  10.571  0.1795 -0.7746 -0.0049
  959MOL0     C32216   4.575   4.169  10.716  0.3589  0.1105  0.3365
  959MOL0     C32217   4.692   4.202  10.813 -0.9757  0.2622 -0.3139
  959MOL0     C32218   4.645   4.226  10.952 -0.3313 -0.1011  1.4681
  959MOL0     C32219   4.568   4.122  11.016  0.3930  0.4398 -0.6361
  959MOL0     C32220   4.629   3.981  11.032 -0.7601  0.0075  0.0391
  959MOL0     N32221   4.599   3.890  10.916 -0.7639 -0.6186  0.1857
  959MOL0     C32222   4.480   3.829  10.890 -0.3842 -0.5724  0.3959
  959MOL0     C32223   4.496   3.746  10.783 -0.1780  1.4462 -0.2844
  959MOL0     C32224   4.389   3.656  10.712 -0.7778 -0.1391  0.2430
  959MOL0     C32225   4.280   3.746  10.658 -0.3930  0.2467 -0.0680
  959MOL0     C32226   4.193   3.674  10.555  0.6375  0.9914 -0.0158
  959MOL0     C32227   4.060   3.751  10.526  0.1494 -0.5296 -1.5290
  959MOL0     O32228   3.997   3.670  10.418  0.5270 -0.2821  0.9132
  959MOL0     C32229   3.893   3.720  10.349  0.0249 -0.9762  0.5937
  959MOL0     C32230   3.832   3.837  10.373  0.0022 -0.3159  1.0630
  959MOL0     C32231   3.730   3.888  10.288 -0.6013  0.6267 -0.0467
  959MOL0     C32232   3.665   4.017  10.330 -0.4856 -0.5047 -0.2637
  959MOL0     C32233   3.665   3.801  10.187 -0.3783  0.1825  0.0307
  959MOL0     C32234   3.545   3.836  10.111 -0.3207 -0.0732 -0.8717
  959MOL0     O32235   3.536   3.774   9.987 -0.0895  0.3276  0.7144
  959MOL0     C32236   3.427   3.811   9.919 -0.6619 -0.4542  0.0451
  959MOL0     C32237   3.447   3.877   9.798 -0.6684 -0.7455 -0.1066
  959MOL0     C32238   3.348   3.896   9.705 -0.1923 -0.7524 -0.0718
  959MOL0     C32239   3.220   3.853   9.738 -0.8097  0.1482 -0.6163
  959MOL0     O32240   3.111   3.858   9.653 -0.8978  0.4183  0.3485
  959MOL0     C32241   3.152   3.851   9.510  0.2552 -0.3696  0.4101
  959MOL0     C32242   3.043   3.789   9.422  0.1488  0.0614 -0.2941
  959MOL0     C32243   3.084   3.768   9.274  0.1616 -0.0393 -0.8954
  959MOL0     C32244   2.960   3.742   9.193  0.5074 -0.1238  0.0554
  959MOL0     C32245   2.998   3.757   9.047  0.0045  0.1558  0.8622
  959MOL0     C32246   2.892   3.722   8.941 -0.5634  0.4756  0.2445
  959MOL0     C32247   2.850   3.581   8.936  1.0813 -0.0903 -0.2696
  959MOL0     C32248   2.758   3.551   8.819  0.4228 -0.3402  0.5229
  959MOL0    Cl32249   2.858   3.559   8.669  0.3196 -0.0426 -0.5984
  959MOL0     C32250   3.200   3.785   9.864 -0.3864 -0.3761 -0.3041
  959MOL0     C32251   3.301   3.764   9.945  0.2706  0.0802  0.8013
  959MOL0     O32252   3.461   3.903  10.159  0.4008  0.0991 -0.1208
  959MOL0     C32253   3.734   3.674  10.166 -0.0668 -0.0822 -1.1859
  959MOL0     C32254   3.841   3.634  10.254 -0.5294 -0.1001  0.5388
  959MOL0     N32255   4.620   3.785  10.729  1.2061  0.4465 -0.7140
  959MOL0     N32256   4.688   3.864  10.818 -0.2412  0.1728 -0.7820
  959MOL0     C32257   4.497   3.807  10.215  0.3825  0.2576  0.2024
  959MOL0     C32258   4.388   3.733  10.159  0.3408  0.7656  0.2252
  959MOL0     C32259   3.975   3.711   9.942  0.1433  0.0132 -0.6989
  959MOL0     C32260   3.956   3.573   9.964 -0.7748 -0.2735 -0.0023
  959MOL0     C32261   3.853   3.503   9.906  0.5060  0.4141 -0.2877
  959MOL0     C32262   3.773   3.556   9.817 -0.1349  0.6390  0.5144
  959MOL0     O32263   3.671   3.479   9.775 -0.5048  0.4028 -0.2032
  959MOL0     C32264   3.582   3.527   9.677 -0.2088 -1.0368 -0.1153
  959MOL0     C32265   3.642   3.516   9.536 -0.3490  0.1586  0.0780
  959MOL0     C32266   3.526   3.529   9.432 -0.7212 -0.3586 -0.3388
  959MOL0     C32267   3.575   3.530   9.284 -1.1357 -0.3977 -0.0239
  959MOL0     C32268   3.473   3.535   9.185  0.1035 -0.4935  0.3655
  959MOL0     C32269   3.385   3.520   9.102 -0.6450  0.2620 -0.1406
  959MOL0     C32270   3.785   3.695   9.802 -0.6404 -0.1320  1.6048
  959MOL0     C32271   3.884   3.777   9.856 -0.4488 -0.3559 -1.2783
  959MOL0     C32272   3.878   3.925   9.837  0.0798 -0.2256 -0.7734
  959MOL0     H32273   4.128   3.943  10.266  0.8884  2.2196  2.5637
  959MOL0     H32274   4.350   4.078  10.333  2.5441  1.8418  0.3097
  959MOL0     H32275   4.696   3.874  10.417 -0.5833 -0.9010 -1.0229
  959MOL0     H32276   4.544   3.927  10.509  0.5998 -1.3426 -0.5788
  959MOL0     H32277   4.776   4.041  10.592 -0.7628 -2.0543 -0.7011
  959MOL0     H32278   4.770   4.119  10.436  0.4661  1.3075 -0.1010
  959MOL0     H32279   4.671   4.279  10.549 -3.0923  1.2306  0.1099
  959MOL0     H32280   4.524   4.187  10.516  1.0437  0.5776 -1.5661
  959MOL0     H32281   4.492   4.237  10.739 -1.3175 -1.4178 -0.8933
  959MOL0     H32282   4.547   4.064  10.725  1.6045 -0.2429  0.0995
  959MOL0     H32283   4.738   4.298  10.787  1.2669  0.2062  2.8669
  959MOL0     H32284   4.765   4.122  10.824 -1.6805 -0.1522  1.7721
  959MOL0     H32285   4.738   4.238  11.010  3.4385 -3.7909 -3.0006
  959MOL0     H32286   4.588   4.319  10.953 -3.7655 -1.9929  3.6912
  959MOL0     H32287   4.466   4.115  10.977 -0.8678 -4.3163  2.6737
  959MOL0     H32288   4.538   4.152  11.117 -1.7006  1.3061 -1.4511
  959MOL0     H32289   4.736   3.993  11.047 -1.0215  1.7537  0.8315
  959MOL0     H32290   4.593   3.934  11.124 -1.4500  3.4877  1.7489
  959MOL0     H32291   4.385   3.840  10.941  0.3696 -1.7755  2.1678
  959MOL0     H32292   4.351   3.583  10.784  0.2660  0.3753  1.3771
  959MOL0     H32293   4.448   3.615  10.630  1.0793  4.1641 -0.8756
  959MOL0     H32294   4.208   3.769  10.737 -4.9586  0.1114 -3.7673
  959MOL0     H32295   4.325   3.835  10.614 -0.2342 -0.7877 -2.1108
  959MOL0     H32296   4.250   3.683  10.462  1.4432  3.6503  0.6341
  959MOL0     H32297   4.178   3.568  10.578  0.5794  1.2807  1.3449
  959MOL0     H32298   4.007   3.763  10.621  1.4574  0.3634 -0.8890
  959MOL0     H32299   4.088   3.854  10.503  0.4144  1.0285  4.3433
  959MOL0     H32300   3.866   3.899  10.456  0.7651  1.7786 -0.7212
  959MOL0     H32301   3.657   4.091  10.249 -0.7798 -1.0754 -0.7636
  959MOL0     H32302   3.721   4.070  10.408 -0.3426 -2.8641  1.3284
  959MOL0     H32303   3.568   3.999  10.378 -1.6615 -0.2310 -2.4018
  959MOL0     H32304   3.545   3.915   9.774 -1.0386  0.1713 -0.2270
  959MOL0     H32305   3.371   3.955   9.617  2.7661 -1.1177  0.3600
  959MOL0     H32306   3.171   3.954   9.477  0.8890 -0.0325  1.7414
  959MOL0     H32307   3.239   3.788   9.494 -0.0499 -0.3157 -1.7559
  959MOL0     H32308   3.013   3.690   9.457 -0.5232 -0.1890 -1.5515
  959MOL0     H32309   2.955   3.853   9.435  0.7217  0.3339  3.2195
  959MOL0     H32310   3.156   3.688   9.252 -1.5494 -1.4945 -1.4314
  959MOL0     H32311   3.128   3.863   9.241 -0.5814  0.8446  0.5392
  959MOL0     H32312   2.874   3.804   9.220 -0.3942 -1.6247  0.7037
  959MOL0     H32313   2.919   3.642   9.208  0.6452  0.0842  2.0307
  959MOL0     H32314   3.034   3.859   9.035  0.4655  0.3495  3.3426
  959MOL0     H32315   3.082   3.688   9.031 -1.3216 -1.0955 -1.1871
  959MOL0     H32316   2.924   3.744   8.839 -1.5697 -3.6646 -1.1395
  959MOL0     H32317   2.804   3.786   8.953 -1.1344 -0.0983 -0.7949
  959MOL0     H32318   2.794   3.548   9.024 -0.4903  1.4232 -0.6689
  959MOL0     H32319   2.936   3.514   8.926 -0.0141 -1.1814 -4.6173
  959MOL0     H32320   2.677   3.624   8.815  0.2038 -0.5133  1.5683
  959MOL0     H32321   2.704   3.456   8.819 -1.0788  0.4857 -0.1782
  959MOL0     H32322   3.099   3.755   9.890 -0.9500  2.1262  0.7372
  959MOL0     H32323   3.293   3.716  10.042  1.4821  0.6348  1.1899
  959MOL0     H32324   3.694   3.600  10.097 -1.5184 -0.1369 -0.3266
  959MOL0     H32325   3.884   3.535  10.243  1.0547  0.3242  2.3753
  959MOL0     H32326   4.598   3.769  10.208  0.1257 -0.1457 -1.6716
  959MOL0     H32327   4.401   3.631  10.122  3.8259  0.8279  0.8937
  959MOL0     H32328   4.028   3.528  10.031 -2.2125  1.2119  2.6870
  959MOL0     H32329   3.831   3.400   9.931 -3.0747  0.5012 -2.2758
  959MOL0     H32330   3.498   3.457   9.673  0.2983 -1.7893  1.4874
  959MOL0     H32331   3.557   3.630   9.706 -0.9098 -1.6530  1.6351
  959MOL0     H32332   3.681   3.414   9.537  2.0272  0.9196  4.0712
  959MOL0     H32333   3.736   3.572   9.524 -0.5007  0.1214 -1.5998
  959MOL0     H32334   3.453   3.448   9.439  0.1568 -1.0808  0.9183
  959MOL0     H32335   3.480   3.625   9.457 -0.2841 -0.6413  1.6439
  959MOL0     H32336   3.638   3.443   9.268  0.0259 -0.0514  2.1630
  959MOL0     H32337   3.646   3.613   9.280 -4.1416  2.6181  2.5939
  959MOL0     H32338   3.302   3.510   9.036 -0.9636 -1.3793  0.4560
  959MOL0     H32339   3.729   3.748   9.726  2.7442  1.8761  0.3014
  959MOL0     H32340   3.790   3.951   9.778 -1.4022  1.3859  1.9468
  959MOL0     H32341   3.851   3.978   9.928 -1.5363 -2.2634  0.0229
  959MOL0     H32342   3.964   3.969   9.784  1.2563 -0.1024  1.1509
  960MOL0     O32343   9.578   1.607   5.684  0.0611  0.0623 -0.1143
  960MOL0     C32344   9.609   1.663   5.579 -0.7381 -0.4361  0.2220
  960MOL0     O32345   9.605   1.802   5.555  0.7793 -0.3409 -0.4883
  960MOL0     C32346   9.577   1.888   5.665 -0.7689  0.1091  0.1711
  960MOL0     C32347   9.449   1.935   5.693  0.4512  0.8885  0.1193
  960MOL0     C32348   9.438   2.016   5.810  0.4595 -0.6255 -0.5972
  960MOL0     C32349   9.542   2.048   5.896 -0.6357 -0.4098 -0.5169
  960MOL0     O32350   9.516   2.132   6.003  0.1819  0.2528  0.3905
  960MOL0     C32351   9.596   2.123   6.115 -0.1184  0.1759 -0.8975
  960MOL0     C32352   9.497   2.140   6.232  0.1986 -0.7604  0.2782
  960MOL0     C32353   9.447   2.281   6.230 -0.3977 -0.5730 -0.0514
  960MOL0     C32354   9.550   2.393   6.192 -0.5147  0.6558 -0.1329
  960MOL0     C32355   9.484   2.528   6.213  0.3628  0.4143 -0.6314
  960MOL0     C32356   9.589   2.641   6.234  0.4743  0.4461  0.0396
  960MOL0     C32357   9.531   2.779   6.275  0.3537  0.4557 -1.0536
  960MOL0     C32358   9.638   2.859   6.349 -0.6752 -0.6288  0.0567
  960MOL0     N32359   9.757   2.873   6.274 -0.5642 -0.4365  1.0184
  960MOL0     C32360   9.771   2.898   6.139  0.3808 -0.3444  0.6183
  960MOL0     C32361   9.901   2.906   6.108  0.5634 -0.2421  1.6481
  960MOL0     C32362   9.971   2.942   5.978  0.1767 -1.3921 -0.7230
  960MOL0     C32363   9.969   3.088   5.929  0.6921  0.2217 -0.5202
  960MOL0     C32364  10.056   3.120   5.808  0.8897  0.6588  0.0664
  960MOL0     C32365  10.202   3.132   5.837  0.1890  0.2190  0.5272
  960MOL0     O32366  10.273   3.101   5.715  0.1841  0.6555 -0.3331
  960MOL0     C32367  10.406   3.095   5.710  0.6062 -0.3841  0.8011
  960MOL0     C32368  10.451   3.113   5.577 -0.4284  0.3774 -0.4727
  960MOL0     C32369  10.588   3.120   5.551  0.5113  0.8188 -0.2281
  960MOL0     C32370  10.623   3.164   5.407  0.6294 -0.1061  0.3858
  960MOL0     C32371  10.689   3.095   5.648  0.3935 -0.5297 -0.6182
  960MOL0     C32372  10.835   3.106   5.618  0.3341  0.1550 -0.4699
  960MOL0     O32373  10.918   3.132   5.720 -0.7009 -0.0135 -0.2548
  960MOL0     C32374  11.053   3.122   5.713 -0.3123 -0.4137 -0.7223
  960MOL0     C32375  11.121   3.239   5.744  0.7126 -0.4247  0.0030
  960MOL0     C32376  11.259   3.243   5.737 -0.3107 -0.4459 -0.1399
  960MOL0     C32377  11.328   3.131   5.695  0.0283 -0.0560  0.1094
  960MOL0     O32378  11.469   3.124   5.695  0.6570 -0.1056  0.2861
  960MOL0     C32379  11.539   3.240   5.645 -0.2649  0.6451  0.5752
  960MOL0     C32380  11.691   3.208   5.651  0.0870 -0.7153 -0.0591
  960MOL0     C32381  11.746   3.197   5.800 -0.3548 -0.5170 -0.1815
  960MOL0     C32382  11.785   3.333   5.858  0.5792  0.8484 -0.5093
  960MOL0     C32383  11.848   3.323   5.996  0.0579 -0.3717  0.0931
  960MOL0     C32384  11.755   3.260   6.098 -0.5604 -0.5958 -0.0919
  960MOL0     C32385  11.607   3.314   6.123 -0.5469 -0.0510 -0.0231
  960MOL0     C32386  11.605   3.453   6.180  0.3429  0.2456 -0.6752
  960MOL0    Cl32387  11.644   3.456   6.350 -0.1612 -0.3017  0.0173
  960MOL0     C32388  11.257   3.018   5.655  0.0870 -0.7962  0.0500
  960MOL0     C32389  11.122   3.014   5.673  0.2404 -0.2966  0.1586
  960MOL0     O32390  10.868   3.059   5.511 -0.7068  0.6992 -0.0953
  960MOL0     C32391  10.640   3.076   5.782  1.0385  0.2126 -0.7035
  960MOL0     C32392  10.503   3.091   5.810 -0.2117 -0.8804 -0.1920
  960MOL0     N32393   9.968   2.884   6.227 -0.1792 -0.1326 -1.6339
  960MOL0     N32394   9.888   2.872   6.327 -0.3150  0.6422  0.1626
  960MOL0     C32395   9.669   2.014   5.857  0.1776  0.3404 -0.0293
  960MOL0     C32396   9.689   1.933   5.744  0.6052  0.6020 -0.6715
  960MOL0     C32397   9.663   1.583   5.460  1.1016  0.7507 -0.1967
  960MOL0     C32398   9.727   1.649   5.348 -0.9126 -0.3437  0.6997
  960MOL0     C32399   9.777   1.572   5.242  0.5312 -0.3050 -0.0616
  960MOL0     C32400   9.765   1.435   5.234 -0.2251  0.6328 -0.5601
  960MOL0     O32401   9.798   1.367   5.118  0.1145  0.4190  0.3079
  960MOL0     C32402   9.874   1.439   5.009  0.7490  1.0786  0.2383
  960MOL0     C32403   9.877   1.357   4.881  0.3437  0.1755  0.4481
  960MOL0     C32404   9.742   1.365   4.804  0.1323  0.2398  1.1247
  960MOL0     C32405   9.750   1.287   4.674  0.6583  0.3187  0.1809
  960MOL0     C32406   9.841   1.348   4.576 -0.3791 -0.7319 -0.1971
  960MOL0     C32407   9.915   1.383   4.495 -0.2894  0.3941  0.2821
  960MOL0     C32408   9.699   1.369   5.341 -0.4624 -0.3126 -1.1649
  960MOL0     C32409   9.646   1.445   5.447 -0.8501  0.5255  0.9987
  960MOL0     C32410   9.581   1.360   5.547 -1.5143  0.4183  0.7303
  960MOL0     H32411   9.369   1.920   5.622 -0.0404  2.5833  0.2687
  960MOL0     H32412   9.340   2.056   5.835  0.8379 -0.7684  1.2706
  960MOL0     H32413   9.676   2.197   6.105 -0.6720  0.7976 -0.7442
  960MOL0     H32414   9.625   2.019   6.131 -4.5701 -1.1507  0.0320
  960MOL0     H32415   9.406   2.079   6.228 -0.6718  0.3255  2.0412
  960MOL0     H32416   9.558   2.118   6.320  5.1820  0.3188 -2.5314
  960MOL0     H32417   9.365   2.281   6.158 -0.3187  1.0763 -0.1772
  960MOL0     H32418   9.394   2.303   6.323 -3.5550 -0.7409 -1.6991
  960MOL0     H32419   9.645   2.394   6.247 -0.4051  3.8671 -0.1809
  960MOL0     H32420   9.586   2.393   6.088  1.0894 -0.4384  0.3823
  960MOL0     H32421   9.413   2.517   6.296  0.8298  0.7179 -0.1862
  960MOL0     H32422   9.420   2.554   6.129 -2.3170 -1.3054  0.7164
  960MOL0     H32423   9.666   2.609   6.305  3.0873  2.3260 -1.7462
  960MOL0     H32424   9.644   2.654   6.140  0.7507 -0.7882  0.0244
  960MOL0     H32425   9.456   2.749   6.348  2.9828 -1.9878  0.8661
  960MOL0     H32426   9.490   2.817   6.180 -0.3642  0.7550 -0.6287
  960MOL0     H32427   9.610   2.958   6.385  2.0631 -0.0910  0.9769
  960MOL0     H32428   9.652   2.817   6.449 -0.4167  1.9941  1.1894
  960MOL0     H32429   9.689   2.922   6.072  1.1596 -0.2078 -0.3072
  960MOL0     H32430   9.917   2.885   5.902 -1.8336 -0.6631  0.0884
  960MOL0     H32431  10.074   2.906   5.990  0.4971 -0.8497 -1.7174
  960MOL0     H32432   9.867   3.123   5.917  0.2532 -1.5791 -2.8025
  960MOL0     H32433   9.996   3.161   6.005  1.6433 -2.7550  2.2274
  960MOL0     H32434  10.043   3.034   5.741  2.5309 -1.2709  2.0688
  960MOL0     H32435  10.029   3.211   5.754 -1.5236 -0.1611 -0.2281
  960MOL0     H32436  10.219   3.236   5.867 -0.4077  0.5182 -0.1219
  960MOL0     H32437  10.233   3.059   5.912 -1.7457 -0.7947  0.4125
  960MOL0     H32438  10.384   3.119   5.491  1.1658  0.7469 -1.7593
  960MOL0     H32439  10.673   3.261   5.409 -0.7751  0.6387  0.9369
  960MOL0     H32440  10.536   3.176   5.342  0.7627  1.0506  0.3979
  960MOL0     H32441  10.690   3.091   5.360  0.4566 -0.0592  0.0619
  960MOL0     H32442  11.066   3.328   5.770  2.9389  1.0951 -0.2162
  960MOL0     H32443  11.314   3.332   5.766  1.1853 -1.2826 -0.3551
  960MOL0     H32444  11.505   3.256   5.543  0.0287 -0.2406  0.3327
  960MOL0     H32445  11.526   3.329   5.707  0.1938  0.4845  0.9121
  960MOL0     H32446  11.716   3.113   5.603 -1.1004 -1.1577  0.1631
  960MOL0     H32447  11.751   3.285   5.602  0.0568  1.2086  2.6719
  960MOL0     H32448  11.834   3.134   5.807  2.8521  3.5521  0.2628
  960MOL0     H32449  11.674   3.148   5.866 -1.4010  1.7981  0.5181
  960MOL0     H32450  11.694   3.394   5.854  0.0420  0.0614 -0.7071
  960MOL0     H32451  11.855   3.378   5.787  0.0143  1.8967 -0.4277
  960MOL0     H32452  11.939   3.264   5.997  0.7773  0.6946 -0.3710
  960MOL0     H32453  11.872   3.426   6.026  0.3440 -0.8333  1.4842
  960MOL0     H32454  11.806   3.267   6.195  0.0561  2.1251 -0.5325
  960MOL0     H32455  11.733   3.156   6.074 -3.2494  0.6847 -4.3006
  960MOL0     H32456  11.560   3.250   6.199  1.5867  1.2624  2.5454
  960MOL0     H32457  11.561   3.301   6.024  1.0332  0.8132 -0.9005
  960MOL0     H32458  11.511   3.507   6.166  1.7734  3.5255  1.1509
  960MOL0     H32459  11.692   3.510   6.144  4.4784 -2.6304  3.5316
  960MOL0     H32460  11.309   2.930   5.617 -0.6978 -1.9310  1.5088
  960MOL0     H32461  11.067   2.922   5.654  2.4922 -1.5731 -0.5600
  960MOL0     H32462  10.720   3.057   5.852  1.2748  1.2222 -0.6753
  960MOL0     H32463  10.473   3.079   5.914  2.1553 -0.5538  0.5884
  960MOL0     H32464   9.753   2.057   5.911  0.4728 -3.4300  2.9387
  960MOL0     H32465   9.793   1.908   5.726  0.3889 -3.8938  2.6406
  960MOL0     H32466   9.744   1.756   5.349  2.3167 -0.7638 -0.1077
  960MOL0     H32467   9.830   1.626   5.164  0.8673  0.2374  0.5347
  960MOL0     H32468   9.832   1.536   4.980 -0.0969  0.5956 -0.1954
  960MOL0     H32469   9.972   1.461   5.051  1.0769  2.4456 -1.1804
  960MOL0     H32470   9.909   1.253   4.897  0.4120  0.5782  3.3426
  960MOL0     H32471   9.962   1.396   4.823 -0.0851 -1.4918 -1.4616
  960MOL0     H32472   9.661   1.315   4.858 -1.3943  0.9654 -0.3879
  960MOL0     H32473   9.702   1.462   4.774 -0.5074 -0.2759  0.2446
  960MOL0     H32474   9.656   1.300   4.620  0.7152 -0.6283 -0.1558
  960MOL0     H32475   9.774   1.181   4.690 -2.3217 -0.3602  0.6244
  960MOL0     H32476   9.982   1.399   4.413  2.3901  0.6284  2.4054
  960MOL0     H32477   9.680   1.263   5.341  0.5427 -0.5700  1.5231
  960MOL0     H32478   9.635   1.350   5.641  1.5190 -1.5531 -1.0874
  960MOL0     H32479   9.485   1.401   5.580 -2.0942 -1.3518  1.3298
  960MOL0     H32480   9.576   1.255   5.518 -1.0434  0.1805  1.4959
  961MOL0     O32481   5.856   0.006   1.738 -0.6607  0.7938 -0.6903
  961MOL0     C32482   5.744   0.031   1.696 -0.5518  0.0080 -0.8533
  961MOL0     O32483   5.660   0.137   1.726 -1.0808  0.1112 -0.0058
  961MOL0     C32484   5.708   0.246   1.796 -0.0154  0.3414  0.3295
  961MOL0     C32485   5.828   0.300   1.749  0.7693  0.1596  0.2336
  961MOL0     C32486   5.880   0.410   1.799  0.4730 -0.5406  0.8107
  961MOL0     C32487   5.817   0.477   1.901  0.9268 -0.4972  0.4414
  961MOL0     O32488   5.874   0.595   1.949  0.2118 -0.0033  0.8471
  961MOL0     C32489   6.020   0.601   1.951 -0.0247  0.1369  0.3963
  961MOL0     C32490   6.063   0.715   2.034 -0.7190 -0.7614  0.2903
  961MOL0     C32491   6.067   0.841   1.942 -0.1755  0.3805 -0.0717
  961MOL0     C32492   6.065   0.984   2.011 -0.1120  0.5120  1.0498
  961MOL0     C32493   6.006   0.998   2.151  0.4708  0.0144  0.0036
  961MOL0     C32494   6.102   0.935   2.264  0.5385  0.4503 -0.2519
  961MOL0     C32495   6.059   0.952   2.408  0.3156  0.0972  0.1162
  961MOL0     C32496   5.965   0.845   2.448  0.4502  0.5346  0.0829
  961MOL0     N32497   5.877   0.902   2.558  0.0122 -0.1122  0.5585
  961MOL0     C32498   5.737   0.879   2.567  0.2045 -1.3108 -1.5748
  961MOL0     C32499   5.717   0.930   2.686  0.3188 -0.4393  0.3381
  961MOL0     C32500   5.581   0.928   2.743  1.6526 -0.1697 -0.1148
  961MOL0     C32501   5.553   0.814   2.840  0.2140  0.1730  1.1555
  961MOL0     C32502   5.545   0.681   2.763 -0.2840 -0.1736  0.6687
  961MOL0     C32503   5.513   0.561   2.852 -0.1883  0.8894  0.7591
  961MOL0     O32504   5.440   0.468   2.772  0.8299 -0.4892  0.1019
  961MOL0     C32505   5.425   0.340   2.817  0.4513  0.4371 -0.0240
  961MOL0     C32506   5.461   0.303   2.948 -0.7887 -0.5191  0.3750
  961MOL0     C32507   5.453   0.174   2.982 -0.3812 -0.6626  0.0141
  961MOL0     C32508   5.505   0.137   3.112  0.4549 -1.0171 -0.5548
  961MOL0     C32509   5.409   0.075   2.893 -0.3264  0.5577  0.1052
  961MOL0     C32510   5.413  -0.073   2.914  0.1547 -0.4864  0.3174
  961MOL0     O32511   5.396  -0.147   2.798 -0.1822  0.1272  0.7874
  961MOL0     C32512   5.371  -0.281   2.804  0.0825 -0.1432 -0.3878
  961MOL0     C32513   5.250  -0.330   2.852  0.0422  0.2287 -0.0892
  961MOL0     C32514   5.213  -0.463   2.828 -0.3696  0.2524 -0.2469
  961MOL0     C32515   5.297  -0.554   2.758 -0.5514 -0.6738 -0.0375
  961MOL0     O32516   5.266  -0.686   2.755  0.1913 -0.9449 -0.2299
  961MOL0     C32517   5.341  -0.774   2.668 -1.0092 -0.6885  0.5176
  961MOL0     C32518   5.260  -0.892   2.628 -0.7081 -0.2356  0.4870
  961MOL0     C32519   5.239  -0.998   2.730  0.4446 -0.3526 -0.4374
  961MOL0     C32520   5.182  -1.126   2.673 -0.1444  0.1846  0.2842
  961MOL0     C32521   5.279  -1.202   2.587 -0.0179 -0.0695  1.0171
  961MOL0     C32522   5.230  -1.329   2.520  0.0144  0.6048 -0.2387
  961MOL0     C32523   5.134  -1.310   2.401 -0.1075 -1.1097 -1.0012
  961MOL0     C32524   5.218  -1.302   2.274 -0.4577 -0.1507  0.3335
  961MOL0    Cl32525   5.131  -1.237   2.138 -0.0891 -0.0113  0.0303
  961MOL0     C32526   5.424  -0.502   2.721 -0.1610 -0.2906  0.2286
  961MOL0     C32527   5.461  -0.372   2.742  0.5382  0.2942  0.2077
  961MOL0     O32528   5.414  -0.113   3.029 -0.2044 -0.2880  0.7039
  961MOL0     C32529   5.349   0.114   2.775 -1.2766  0.2857 -0.5348
  961MOL0     C32530   5.360   0.247   2.734  0.2950  0.6877 -0.2165
  961MOL0     N32531   5.829   0.990   2.745  0.7387 -0.2162 -0.9681
  961MOL0     N32532   5.922   0.974   2.664 -0.2085 -0.7308  0.0433
  961MOL0     C32533   5.694   0.424   1.952  0.2531 -0.3189 -0.3861
  961MOL0     C32534   5.640   0.311   1.896  0.1585 -0.1822  0.4234
  961MOL0     C32535   5.710  -0.077   1.602  0.2445  0.5973  0.1512
  961MOL0     C32536   5.695  -0.058   1.459 -0.6608  0.2483  0.1907
  961MOL0     C32537   5.681  -0.172   1.382 -0.5278  1.1679  0.2467
  961MOL0     C32538   5.666  -0.294   1.434  0.9025  0.0920 -0.5445
  961MOL0     O32539   5.639  -0.388   1.341 -0.0556 -0.2575  0.6229
  961MOL0     C32540   5.582  -0.516   1.382 -1.1593  0.8588  1.7838
  961MOL0     C32541   5.517  -0.576   1.260  0.3575 -0.1241  0.3852
  961MOL0     C32542   5.490  -0.734   1.279 -0.7285  0.6925 -0.3782
  961MOL0     C32543   5.415  -0.809   1.165 -1.0946  1.0661  0.5482
  961MOL0     C32544   5.482  -0.817   1.037 -0.9105  0.8007 -0.1255
  961MOL0     C32545   5.536  -0.800   0.932 -0.0735  0.2994  0.8400
  961MOL0     C32546   5.682  -0.322   1.576  0.0329  0.0983 -0.0056
  961MOL0     C32547   5.693  -0.211   1.659  0.0858 -0.3873 -1.0985
  961MOL0     C32548   5.685  -0.233   1.807 -0.6217 -0.6365 -0.3821
  961MOL0     H32549   5.872   0.249   1.664 -4.2628  1.2178 -3.4261
  961MOL0     H32550   5.969   0.444   1.747  0.3450 -2.8688 -1.1315
  961MOL0     H32551   6.053   0.604   1.847 -2.0790 -0.3208 -0.3253
  961MOL0     H32552   6.058   0.510   1.999 -0.9403  0.4082  1.6989
  961MOL0     H32553   5.996   0.714   2.121 -1.8368  0.6875 -0.5005
  961MOL0     H32554   6.164   0.684   2.060 -0.5767 -0.7053 -0.1826
  961MOL0     H32555   6.162   0.837   1.887 -0.8326 -0.1334 -1.2094
  961MOL0     H32556   5.979   0.848   1.878 -0.7147  0.9899  0.7281
  961MOL0     H32557   6.165   1.025   2.025  0.4474  0.1368 -1.3385
  961MOL0     H32558   6.010   1.056   1.949 -1.8672 -1.2580  0.4416
  961MOL0     H32559   5.907   0.950   2.155  0.8560 -0.9539 -1.3284
  961MOL0     H32560   5.989   1.102   2.178  0.7322 -0.6751  3.2575
  961MOL0     H32561   6.134   0.831   2.253 -1.8232 -0.2161 -1.5877
  961MOL0     H32562   6.196   0.989   2.251 -0.7053  2.6002 -0.9519
  961MOL0     H32563   6.013   1.051   2.417  1.7538  0.6534  1.9428
  961MOL0     H32564   6.144   0.951   2.476  0.4642 -1.5987 -0.0701
  961MOL0     H32565   5.897   0.801   2.374  0.6729 -2.1417  1.3605
  961MOL0     H32566   6.018   0.756   2.482  1.4275 -0.0756 -2.7647
  961MOL0     H32567   5.673   0.834   2.491  0.9621  1.0503 -3.7797
  961MOL0     H32568   5.508   0.912   2.664 -0.3891 -1.1170  1.8446
  961MOL0     H32569   5.567   1.031   2.779 -0.8896  0.6721 -3.0809
  961MOL0     H32570   5.625   0.806   2.923 -0.4295 -0.9051  1.6263
  961MOL0     H32571   5.452   0.829   2.880 -1.1696  0.2600 -2.0545
  961MOL0     H32572   5.471   0.677   2.683  0.3124 -3.0296  0.1668
  961MOL0     H32573   5.642   0.654   2.721 -0.8272  0.2194 -0.8941
  961MOL0     H32574   5.609   0.514   2.875 -1.7766 -1.7660  2.5539
  961MOL0     H32575   5.445   0.589   2.933 -1.6205 -0.2308 -0.0037
  961MOL0     H32576   5.501   0.375   3.018 -2.7614  1.8461 -0.7636
  961MOL0     H32577   5.552   0.225   3.157 -0.2250 -0.8780 -0.1006
  961MOL0     H32578   5.574   0.052   3.102 -2.6637 -3.5559 -2.5442
  961MOL0     H32579   5.422   0.111   3.178  1.0298  2.2639  1.7102
  961MOL0     H32580   5.185  -0.268   2.912 -0.1004 -3.2483  3.7355
  961MOL0     H32581   5.116  -0.498   2.859 -0.5053  3.0371  3.0908
  961MOL0     H32582   5.360  -0.717   2.576 -1.4467  0.1079  0.9092
  961MOL0     H32583   5.439  -0.799   2.709 -0.3896 -2.3926 -1.8054
  961MOL0     H32584   5.164  -0.849   2.600  0.3722  1.9289 -0.1677
  961MOL0     H32585   5.307  -0.936   2.539  3.4973 -2.3207  3.3743
  961MOL0     H32586   5.176  -0.955   2.808  3.0260  1.8522  0.6158
  961MOL0     H32587   5.341  -1.024   2.762  0.5210 -3.0392 -2.5505
  961MOL0     H32588   5.085  -1.104   2.627 -1.1200 -2.1819  0.9872
  961MOL0     H32589   5.165  -1.191   2.760 -2.6444  0.5109  0.1095
  961MOL0     H32590   5.324  -1.145   2.505 -0.3126  0.2588  1.0840
  961MOL0     H32591   5.363  -1.228   2.653  0.7499 -0.8042 -0.2065
  961MOL0     H32592   5.177  -1.387   2.596 -1.6856  1.7657 -0.4788
  961MOL0     H32593   5.318  -1.387   2.491 -0.5816 -0.6049  0.2873
  961MOL0     H32594   5.079  -1.215   2.409 -0.8856 -1.7016  3.5463
  961MOL0     H32595   5.059  -1.390   2.392 -0.5975 -1.1647  2.2486
  961MOL0     H32596   5.258  -1.396   2.234 -0.1111  0.9152 -2.0149
  961MOL0     H32597   5.306  -1.239   2.289 -1.0622  0.9093 -0.4106
  961MOL0     H32598   5.499  -0.563   2.671  1.3116  2.6406 -1.3788
  961MOL0     H32599   5.558  -0.337   2.707  1.1396 -1.8594 -0.4371
  961MOL0     H32600   5.301   0.032   2.722 -0.1876 -2.2472  2.0998
  961MOL0     H32601   5.330   0.273   2.633 -2.6811  1.2192  0.7023
  961MOL0     H32602   5.650   0.474   2.038  1.9025  0.3941  0.0769
  961MOL0     H32603   5.543   0.276   1.930 -0.9446  2.2508 -0.0325
  961MOL0     H32604   5.713   0.042   1.419 -2.8441  1.2149  1.4309
  961MOL0     H32605   5.674  -0.161   1.274 -0.7667 -1.0084 -0.0026
  961MOL0     H32606   5.668  -0.580   1.403  2.0295  4.3149  0.3650
  961MOL0     H32607   5.516  -0.503   1.469 -1.8305  1.9626  1.1244
  961MOL0     H32608   5.575  -0.564   1.168 -0.0192 -0.5603  0.0879
  961MOL0     H32609   5.419  -0.528   1.259  0.7167  0.7041  1.8806
  961MOL0     H32610   5.588  -0.780   1.295 -2.3025 -3.4158 -1.2921
  961MOL0     H32611   5.435  -0.748   1.372 -0.2231  0.1033 -0.1621
  961MOL0     H32612   5.321  -0.758   1.145 -1.2955  1.8046  3.0465
  961MOL0     H32613   5.417  -0.912   1.201  3.1837 -0.2009 -2.5148
  961MOL0     H32614   5.592  -0.800   0.841  0.9173 -2.0697  1.3594
  961MOL0     H32615   5.660  -0.422   1.611  0.3621 -0.1565 -0.5163
  961MOL0     H32616   5.581  -0.247   1.838 -1.3200  4.1034  0.1537
  961MOL0     H32617   5.734  -0.322   1.847  0.8002  0.4260  0.3258
  961MOL0     H32618   5.714  -0.144   1.862 -1.6816 -0.4539 -0.0872
  962MOL0     O32619   7.930  11.347   3.768 -0.7728 -0.4360 -0.2145
  962MOL0     C32620   7.997  11.330   3.663  0.9513 -0.0104  0.4733
  962MOL0     O32621   7.936  11.298   3.547  0.1850 -0.5315 -0.1053
  962MOL0     C32622   7.797  11.319   3.537 -0.5752  0.2664 -0.1241
  962MOL0     C32623   7.755  11.415   3.450  0.5052 -0.1684  0.6514
  962MOL0     C32624   7.624  11.417   3.399 -0.0498 -0.1464 -0.1610
  962MOL0     C32625   7.530  11.342   3.466  0.3416  0.0862 -0.2369
  962MOL0     O32626   7.393  11.365   3.458  0.8301 -0.0153 -0.0562
  962MOL0     C32627   7.349  11.506   3.461 -0.5364  0.3097 -0.2293
  962MOL0     C32628   7.206  11.523   3.502  0.0538  0.3008  1.2890
  962MOL0     C32629   7.180  11.507   3.656 -0.2678  0.4022  0.8692
  962MOL0     C32630   7.260  11.399   3.729 -1.1034  0.2581  0.5622
  962MOL0     C32631   7.237  11.395   3.877  0.7056 -0.1559  0.4406
  962MOL0     C32632   7.337  11.326   3.965 -0.0949 -0.4078  0.1856
  962MOL0     C32633   7.449  11.418   4.001 -0.0168 -0.3249  0.0707
  962MOL0     C32634   7.562  11.325   4.065 -0.3681  0.4480  0.6861
  962MOL0     N32635   7.671  11.408   4.124 -0.3965 -0.5688  0.2352
  962MOL0     C32636   7.724  11.525   4.075  0.5954 -0.9001  0.3046
  962MOL0     C32637   7.816  11.570   4.163 -0.2144  0.1116  0.1401
  962MOL0     C32638   7.889  11.702   4.155  0.7285  0.2584 -0.9384
  962MOL0     C32639   7.809  11.819   4.094  0.4844 -0.2414  0.1471
  962MOL0     C32640   7.884  11.953   4.108 -0.6055 -0.1724 -0.8915
  962MOL0     C32641   7.795  12.067   4.065 -0.0350 -0.4734 -0.1219
  962MOL0     O32642   7.664  12.076   4.123 -0.3326 -0.0189  0.3611
  962MOL0     C32643   7.591  12.181   4.091 -0.0765  0.3842  0.3690
  962MOL0     C32644   7.606  12.255   3.974 -0.2490  0.0529  0.8937
  962MOL0     C32645   7.528  12.365   3.949  0.1284 -0.4496  0.3319
  962MOL0     C32646   7.577  12.450   3.826 -0.1423 -0.9864  0.2592
  962MOL0     C32647   7.440  12.414   4.051 -0.2305 -0.8427  0.3573
  962MOL0     C32648   7.363  12.543   4.048 -0.2304 -0.0070 -0.6371
  962MOL0     O32649   7.312  12.589   4.162  0.9772  0.2926 -0.1372
  962MOL0     C32650   7.202  12.670   4.154 -0.5483 -0.2986  0.5774
  962MOL0     C32651   7.084  12.621   4.198  0.2342 -0.6214 -0.1310
  962MOL0     C32652   6.965  12.688   4.179 -0.0210 -0.1963  1.1800
  962MOL0     C32653   6.972  12.819   4.134 -0.3886  0.1608  0.2101
  962MOL0     O32654   6.856  12.885   4.105  0.6725 -0.3027 -0.2709
  962MOL0     C32655   6.846  13.023   4.062 -0.5789  0.5034  0.3099
  962MOL0     C32656   6.697  13.070   4.046  0.2895  0.4909 -0.6678
  962MOL0     C32657   6.677  13.215   4.017  0.1948  1.0997 -1.1168
  962MOL0     C32658   6.668  13.246   3.865 -0.5048 -0.8169  1.0348
  962MOL0     C32659   6.619  13.384   3.837 -1.2036 -0.2555 -0.4546
  962MOL0     C32660   6.618  13.401   3.686 -0.7849 -0.7756 -0.3660
  962MOL0     C32661   6.503  13.343   3.607 -0.3220 -1.3002  0.0370
  962MOL0     C32662   6.371  13.397   3.644  1.5448 -0.0274  0.1330
  962MOL0    Cl32663   6.249  13.360   3.515  0.1500 -0.5011 -0.7700
  962MOL0     C32664   7.090  12.887   4.101 -1.1508 -0.1264 -0.4634
  962MOL0     C32665   7.203  12.808   4.117 -1.0549  0.1884 -0.5184
  962MOL0     O32666   7.357  12.603   3.941 -0.3353 -0.5176  0.6300
  962MOL0     C32667   7.416  12.328   4.156 -0.3605  0.7712 -0.1879
  962MOL0     C32668   7.485  12.211   4.172 -0.4318 -0.1033 -1.0185
  962MOL0     N32669   7.817  11.476   4.267  0.2352 -0.9069 -0.5774
  962MOL0     N32670   7.724  11.383   4.240  0.1130  0.8642 -0.0606
  962MOL0     C32671   7.563  11.235   3.557 -0.4086 -0.0207 -0.3782
  962MOL0     C32672   7.701  11.230   3.591  1.7640 -0.4070 -0.7933
  962MOL0     C32673   8.141  11.340   3.652  0.8618 -0.5558  0.3960
  962MOL0     C32674   8.204  11.292   3.532  0.2553  0.2507 -0.0267
  962MOL0     C32675   8.343  11.312   3.518  0.4100  1.0183 -0.3392
  962MOL0     C32676   8.417  11.360   3.612 -0.8142 -0.5873  0.3786
  962MOL0     O32677   8.557  11.367   3.604 -0.2723  0.1868  0.8778
  962MOL0     C32678   8.641  11.348   3.484 -0.7908  0.3140 -0.3552
  962MOL0     C32679   8.781  11.378   3.523 -0.8860  0.8775  0.1660
  962MOL0     C32680   8.795  11.531   3.571 -0.5143  0.8695 -0.7030
  962MOL0     C32681   8.938  11.575   3.564  0.3677 -1.4149 -0.3227
  962MOL0     C32682   8.992  11.576   3.425 -0.0769  0.4831  0.4950
  962MOL0     C32683   9.028  11.587   3.306 -0.2862  0.6558 -0.1183
  962MOL0     C32684   8.360  11.421   3.726  0.5874 -0.3397 -0.6115
  962MOL0     C32685   8.226  11.411   3.750  0.1695 -0.0934  0.3765
  962MOL0     C32686   8.186  11.451   3.889  0.6143  0.7081  0.3786
  962MOL0     H32687   7.829  11.484   3.411 -0.3483  0.7486  0.6240
  962MOL0     H32688   7.585  11.493   3.333  1.5288 -0.5033 -1.5793
  962MOL0     H32689   7.366  11.522   3.354 -0.0306 -0.9690 -0.3690
  962MOL0     H32690   7.410  11.568   3.527 -0.5574 -2.0541  2.1999
  962MOL0     H32691   7.158  11.615   3.468  0.9016  0.2927 -0.0236
  962MOL0     H32692   7.156  11.443   3.446 -1.1011  1.0718  1.1853
  962MOL0     H32693   7.212  11.600   3.704  1.9826  0.0113  0.2436
  962MOL0     H32694   7.073  11.490   3.674 -0.4462 -0.0423 -0.4885
  962MOL0     H32695   7.238  11.301   3.686 -1.8549 -0.0808  1.6931
  962MOL0     H32696   7.363  11.436   3.723 -1.6753  1.7919 -0.6085
  962MOL0     H32697   7.141  11.346   3.889  0.2457  0.6064 -0.0351
  962MOL0     H32698   7.233  11.503   3.897  0.1041  0.1114 -1.0365
  962MOL0     H32699   7.292  11.295   4.059  0.6857  0.9729  1.0449
  962MOL0     H32700   7.363  11.238   3.905 -1.6953 -1.0787  0.4243
  962MOL0     H32701   7.402  11.494   4.065  0.5085  0.5883 -0.5955
  962MOL0     H32702   7.481  11.476   3.914  2.0417  1.5243  1.9194
  962MOL0     H32703   7.521  11.270   4.150  1.9606  0.2844  1.7625
  962MOL0     H32704   7.607  11.257   3.992 -0.1564  0.9677  0.3318
  962MOL0     H32705   7.680  11.571   3.987  0.6708 -0.3864  0.5262
  962MOL0     H32706   7.985  11.696   4.104  0.7279 -1.0808 -0.8293
  962MOL0     H32707   7.913  11.721   4.260 -1.7159  0.4734 -0.3388
  962MOL0     H32708   7.784  11.809   3.988 -3.5801  0.9481  0.8314
  962MOL0     H32709   7.719  11.836   4.153  0.4951  2.6904 -0.5512
  962MOL0     H32710   7.904  11.979   4.212  0.4694  0.7494 -1.3134
  962MOL0     H32711   7.978  11.949   4.052  1.4863 -1.6112  2.3942
  962MOL0     H32712   7.859  12.151   4.092 -0.6697 -0.3291  1.0098
  962MOL0     H32713   7.782  12.057   3.957 -0.4194  1.4142 -0.2848
  962MOL0     H32714   7.666  12.222   3.890 -3.9409 -1.3789 -1.4374
  962MOL0     H32715   7.655  12.394   3.773  0.8064 -1.5066  2.0982
  962MOL0     H32716   7.606  12.550   3.858 -0.7120 -1.2544  1.7069
  962MOL0     H32717   7.498  12.470   3.753  0.8468  3.2498  0.0979
  962MOL0     H32718   7.096  12.515   4.218  0.8231 -0.1928  2.0730
  962MOL0     H32719   6.869  12.638   4.189  1.1792 -2.9976 -0.2774
  962MOL0     H32720   6.906  13.086   4.128 -0.2243 -0.7467  1.2359
  962MOL0     H32721   6.900  13.024   3.967 -0.5889 -1.4234  0.2428
  962MOL0     H32722   6.645  13.011   3.971  1.7136  1.4814 -2.5225
  962MOL0     H32723   6.653  13.050   4.144 -1.7319  3.1268 -0.9376
  962MOL0     H32724   6.748  13.285   4.063 -1.4692  0.0832  3.4738
  962MOL0     H32725   6.578  13.249   4.048  0.3117  0.9174 -0.5403
  962MOL0     H32726   6.603  13.172   3.819  0.4300 -1.4444  0.7043
  962MOL0     H32727   6.767  13.230   3.822 -0.9570 -3.5511  0.8470
  962MOL0     H32728   6.526  13.409   3.888 -0.9704  0.7425 -0.4896
  962MOL0     H32729   6.687  13.450   3.893 -2.0579  0.3590 -0.1128
  962MOL0     H32730   6.712  13.367   3.641 -0.7912 -1.6092  0.2202
  962MOL0     H32731   6.617  13.510   3.673 -0.6645 -0.4107  2.0621
  962MOL0     H32732   6.503  13.235   3.619  2.5404 -1.5640 -1.4367
  962MOL0     H32733   6.522  13.369   3.503  1.1840  1.8610  0.9713
  962MOL0     H32734   6.378  13.506   3.631  2.4896 -0.1155 -0.1829
  962MOL0     H32735   6.333  13.359   3.739  1.5529 -1.5459 -0.4478
  962MOL0     H32736   7.110  12.987   4.065 -1.9679  0.8890  1.7310
  962MOL0     H32737   7.300  12.846   4.087 -0.7328 -0.8592 -0.8577
  962MOL0     H32738   7.346  12.349   4.236  1.2210  2.3554  0.8699
  962MOL0     H32739   7.475  12.143   4.256  3.1270 -2.1105 -1.9817
  962MOL0     H32740   7.492  11.160   3.589 -0.5439  1.0520  2.0443
  962MOL0     H32741   7.741  11.149   3.651 -1.6134  0.8217  3.6479
  962MOL0     H32742   8.145  11.243   3.455 -1.4301  0.6084  0.9855
  962MOL0     H32743   8.378  11.266   3.426 -0.6398 -2.0173  0.6606
  962MOL0     H32744   8.638  11.248   3.440 -1.1915 -0.9591  2.3759
  962MOL0     H32745   8.613  11.415   3.402 -0.4768 -1.5448 -2.0569
  962MOL0     H32746   8.849  11.344   3.445  1.3721  0.6093  2.1358
  962MOL0     H32747   8.806  11.309   3.604 -0.1327 -0.5545 -1.2547
  962MOL0     H32748   8.720  11.598   3.528 -2.7103  0.4877  2.2036
  962MOL0     H32749   8.778  11.526   3.679 -0.3138 -0.0771 -0.7075
  962MOL0     H32750   8.995  11.502   3.622 -0.2525 -1.4335  0.2856
  962MOL0     H32751   8.940  11.677   3.603 -1.3465 -1.1085 -0.9072
  962MOL0     H32752   9.059  11.604   3.205 -0.8058  0.1229 -0.3809
  962MOL0     H32753   8.425  11.468   3.799 -1.6774 -1.2831  2.1756
  962MOL0     H32754   8.148  11.365   3.946  0.6437  0.4655  0.0372
  962MOL0     H32755   8.273  11.487   3.943  2.2133 -3.5189  1.0463
  962MOL0     H32756   8.099  11.516   3.875 -0.0008 -0.4868 -1.8207
  963MOL0     O32757   6.566   3.266   7.871 -0.3132  0.3007  1.2071
  963MOL0     C32758   6.587   3.364   7.937  0.1599  0.7691 -0.4047
  963MOL0     O32759   6.674   3.365   8.047  0.6964  0.1042  0.2559
  963MOL0     C32760   6.736   3.260   8.115  0.5611 -0.9556 -0.7332
  963MOL0     C32761   6.795   3.151   8.055 -0.1501  0.5415  0.1852
  963MOL0     C32762   6.846   3.044   8.121 -0.0768 -0.4666 -0.5823
  963MOL0     C32763   6.865   3.058   8.259 -1.0897 -0.4275 -0.3379
  963MOL0     O32764   6.923   2.963   8.341  0.2029 -0.2104  0.0235
  963MOL0     C32765   7.015   2.866   8.290  0.1591  0.1200  0.0256
  963MOL0     C32766   7.071   2.804   8.416  0.5592 -0.6618 -0.0205
  963MOL0     C32767   7.195   2.721   8.390  0.7977  0.5098  0.1382
  963MOL0     C32768   7.240   2.671   8.528 -0.5667 -0.8058 -0.4761
  963MOL0     C32769   7.365   2.578   8.522  0.2825 -0.8677 -0.8906
  963MOL0     C32770   7.483   2.670   8.498 -0.1927  0.2770 -0.7068
  963MOL0     C32771   7.619   2.592   8.514  0.4922 -0.4983 -0.1489
  963MOL0     C32772   7.710   2.659   8.624  0.6951  0.0919  0.2789
  963MOL0     N32773   7.756   2.792   8.574 -0.0158 -0.9111  0.0475
  963MOL0     C32774   7.887   2.825   8.539  0.7161  0.2102 -0.3443
  963MOL0     C32775   7.885   2.966   8.548 -0.6331 -0.1714  0.3869
  963MOL0     C32776   7.997   3.066   8.532 -0.2675 -0.1500 -0.2789
  963MOL0     C32777   7.980   3.144   8.394  0.1485  0.0508  0.3377
  963MOL0     C32778   8.076   3.254   8.397 -0.2417  0.2093 -1.0740
  963MOL0     C32779   8.076   3.343   8.277  0.2162 -0.2304 -0.0314
  963MOL0     O32780   8.209   3.403   8.241 -0.7433  0.2509  0.0240
  963MOL0     C32781   8.218   3.495   8.141  0.6582  0.2811 -1.2775
  963MOL0     C32782   8.327   3.588   8.139 -0.1659  0.0806  0.1513
  963MOL0     C32783   8.336   3.698   8.049  0.5872  0.2921 -1.1934
  963MOL0     C32784   8.451   3.786   8.054 -0.0689  0.0053  0.4527
  963MOL0     C32785   8.244   3.704   7.950  0.1689 -0.3432  0.2152
  963MOL0     C32786   8.248   3.814   7.847  0.4478  0.1749  0.0262
  963MOL0     O32787   8.144   3.907   7.853  0.2191  0.0971 -0.6673
  963MOL0     C32788   8.151   3.988   7.743  0.4051  0.1905  0.3582
  963MOL0     C32789   8.204   4.119   7.734 -0.6326  0.1640 -0.7387
  963MOL0     C32790   8.202   4.193   7.609 -0.3886  0.9403  0.4789
  963MOL0     C32791   8.134   4.151   7.498  0.0367  0.0725  0.7728
  963MOL0     O32792   8.112   4.215   7.376  0.5664  0.7003 -0.0706
  963MOL0     C32793   8.161   4.345   7.371 -0.0986  1.1788 -0.5453
  963MOL0     C32794   8.101   4.422   7.255 -0.1205 -0.5937 -0.0061
  963MOL0     C32795   8.165   4.395   7.118  0.2092 -0.2054 -0.9700
  963MOL0     C32796   8.253   4.512   7.068 -0.0508  0.8657 -1.2568
  963MOL0     C32797   8.268   4.510   6.921 -0.3138  0.2852  0.3355
  963MOL0     C32798   8.371   4.620   6.871  0.6193  0.1221 -0.5033
  963MOL0     C32799   8.364   4.649   6.723 -0.1160 -0.4573 -0.1575
  963MOL0     C32800   8.242   4.723   6.682  0.9744 -0.0313 -0.3734
  963MOL0    Cl32801   8.207   4.864   6.774  0.0122 -0.0389 -0.0862
  963MOL0     C32802   8.080   4.021   7.501 -0.1203 -0.1513  0.3950
  963MOL0     C32803   8.085   3.944   7.621 -0.3239 -0.3238  0.1418
  963MOL0     O32804   8.346   3.813   7.769 -0.0787 -0.8700 -0.1790
  963MOL0     C32805   8.132   3.615   7.950  0.2032 -0.1887 -0.0447
  963MOL0     C32806   8.118   3.515   8.045  0.3290  0.7008 -0.1708
  963MOL0     N32807   7.762   3.005   8.594 -0.0777 -0.9680  0.3968
  963MOL0     N32808   7.690   2.905   8.615 -1.1224  0.3177 -0.2631
  963MOL0     C32809   6.807   3.168   8.326  0.1300 -0.8462  0.3781
  963MOL0     C32810   6.740   3.263   8.254 -0.7829 -1.0639  0.3205
  963MOL0     C32811   6.526   3.488   7.892 -0.8350  0.2400 -0.7472
  963MOL0     C32812   6.556   3.600   7.976  0.5951  0.2945  0.6869
  963MOL0     C32813   6.506   3.722   7.951  0.7714 -0.3034  0.1877
  963MOL0     C32814   6.396   3.743   7.859 -0.5632  1.0074 -0.0154
  963MOL0     O32815   6.322   3.855   7.836  0.2908  0.8420 -0.2595
  963MOL0     C32816   6.323   3.962   7.930  0.1223 -0.2771 -0.0546
  963MOL0     C32817   6.239   4.078   7.881  0.3456 -0.1859 -0.2865
  963MOL0     C32818   6.224   4.185   7.996 -0.3116 -0.4107 -0.0754
  963MOL0     C32819   6.181   4.327   7.952 -0.4207  1.5855  0.3006
  963MOL0     C32820   6.277   4.390   7.864  0.0275 -0.8234 -0.7238
  963MOL0     C32821   6.363   4.428   7.790 -1.0572 -0.2818 -0.1597
  963MOL0     C32822   6.363   3.630   7.785 -0.1570  0.0584 -0.8518
  963MOL0     C32823   6.425   3.504   7.791  0.4557  0.4791  0.2330
  963MOL0     C32824   6.375   3.387   7.697  0.2065 -0.7282 -0.1689
  963MOL0     H32825   6.770   3.158   7.950  0.0443  0.2949  0.1228
  963MOL0     H32826   6.881   2.957   8.066  1.0991  0.1521 -0.8517
  963MOL0     H32827   7.094   2.919   8.236  2.3918 -1.6794  1.3266
  963MOL0     H32828   6.963   2.801   8.220 -0.2667 -1.0739  1.3949
  963MOL0     H32829   7.105   2.887   8.480  1.5982 -2.4459  1.8676
  963MOL0     H32830   6.985   2.752   8.461 -1.8201  2.1405 -0.9442
  963MOL0     H32831   7.169   2.633   8.330 -4.1521  0.0064  2.4823
  963MOL0     H32832   7.257   2.792   8.335 -0.0991  0.6647 -0.7091
  963MOL0     H32833   7.263   2.759   8.588  3.4125 -0.6913 -1.8828
  963MOL0     H32834   7.155   2.626   8.581  1.3540 -0.7934  2.8814
  963MOL0     H32835   7.349   2.509   8.439 -1.1258 -0.5757 -0.8904
  963MOL0     H32836   7.380   2.522   8.615  0.9064  1.3738  0.4087
  963MOL0     H32837   7.475   2.712   8.397  1.6085 -0.4512 -1.1995
  963MOL0     H32838   7.480   2.755   8.566  0.2242 -0.1345 -0.1678
  963MOL0     H32839   7.682   2.595   8.424  0.9971  1.1626  0.2295
  963MOL0     H32840   7.602   2.489   8.546  1.1702 -0.0442  1.7993
  963MOL0     H32841   7.652   2.677   8.715  1.9126 -4.7036  2.3239
  963MOL0     H32842   7.800   2.599   8.644  1.1066 -0.2021 -2.1715
  963MOL0     H32843   7.975   2.772   8.505  0.1632 -0.6815 -0.4185
  963MOL0     H32844   8.096   3.020   8.522 -0.8273 -1.0898 -2.0743
  963MOL0     H32845   8.003   3.142   8.609 -1.6765  0.4445 -0.7290
  963MOL0     H32846   8.007   3.072   8.316 -1.2661  0.0886 -0.2237
  963MOL0     H32847   7.876   3.169   8.369  0.2244 -1.5099 -1.8036
  963MOL0     H32848   8.069   3.321   8.484 -2.3624 -1.6548  0.2925
  963MOL0     H32849   8.169   3.199   8.408  0.3552  1.7518  3.2886
  963MOL0     H32850   8.043   3.273   8.199 -2.7771  2.9264 -1.8850
  963MOL0     H32851   8.000   3.420   8.292 -0.0474 -0.5230  0.1256
  963MOL0     H32852   8.411   3.560   8.202 -0.3127 -0.6481  0.0299
  963MOL0     H32853   8.436   3.882   8.004  2.3569  0.9572  1.3888
  963MOL0     H32854   8.530   3.738   7.995 -0.6964  2.3280 -2.5441
  963MOL0     H32855   8.491   3.799   8.155  0.1150  1.7955  0.1708
  963MOL0     H32856   8.240   4.165   7.826 -0.7695  1.6977 -1.4188
  963MOL0     H32857   8.243   4.294   7.611 -0.4752  1.2170 -3.4335
  963MOL0     H32858   8.131   4.398   7.462  1.9934 -0.1902  1.0229
  963MOL0     H32859   8.267   4.330   7.350 -0.3620 -0.5477 -0.8152
  963MOL0     H32860   7.998   4.385   7.248 -0.3802 -0.0563  0.7932
  963MOL0     H32861   8.115   4.527   7.281  1.4402 -0.7500 -0.1386
  963MOL0     H32862   8.078   4.395   7.052 -0.9154  2.9158  0.2867
  963MOL0     H32863   8.222   4.302   7.116  1.0543  0.0518  3.0359
  963MOL0     H32864   8.344   4.498   7.127 -1.6791  0.7334  1.4124
  963MOL0     H32865   8.202   4.607   7.088 -0.0807  0.4366  0.9391
  963MOL0     H32866   8.297   4.409   6.892 -2.1276  0.4165 -2.2583
  963MOL0     H32867   8.170   4.535   6.879 -0.7345 -2.8559 -0.7446
  963MOL0     H32868   8.468   4.572   6.888 -1.2763 -3.6566  0.9235
  963MOL0     H32869   8.350   4.712   6.927 -2.3834  0.2248 -1.6261
  963MOL0     H32870   8.354   4.558   6.663 -4.4398  0.1302 -0.6848
  963MOL0     H32871   8.452   4.712   6.712 -0.1690 -0.5342 -1.0411
  963MOL0     H32872   8.147   4.670   6.687 -0.8743  2.2384 -4.8852
  963MOL0     H32873   8.261   4.751   6.577 -1.1538 -0.6431 -0.9594
  963MOL0     H32874   8.044   3.973   7.410  2.2819 -2.4755  0.5630
  963MOL0     H32875   8.057   3.839   7.620 -0.0161 -0.4801 -3.4628
  963MOL0     H32876   8.065   3.625   7.865  1.3782 -1.6943 -1.2091
  963MOL0     H32877   8.022   3.465   8.036  1.5699 -1.6730 -1.0688
  963MOL0     H32878   6.822   3.177   8.433  0.8084 -1.2567  0.3173
  963MOL0     H32879   6.687   3.343   8.304  0.8029 -0.5466  1.2619
  963MOL0     H32880   6.632   3.587   8.052  2.9005 -1.7073 -1.7564
  963MOL0     H32881   6.541   3.809   8.006  0.3521  1.3668 -2.0507
  963MOL0     H32882   6.284   3.930   8.026 -0.2765  1.7339  0.4963
  963MOL0     H32883   6.426   3.996   7.946  0.8498 -1.4705 -1.8350
  963MOL0     H32884   6.139   4.040   7.857  0.2603  0.7486 -1.5498
  963MOL0     H32885   6.280   4.117   7.787  3.0469 -4.4123 -1.1446
  963MOL0     H32886   6.162   4.137   8.073  1.7763 -1.7446  0.8598
  963MOL0     H32887   6.324   4.196   8.038 -1.7603 -0.1397  3.7279
  963MOL0     H32888   6.176   4.402   8.031  0.2423  1.7704  0.1698
  963MOL0     H32889   6.081   4.310   7.910 -0.8763 -2.8686  2.6102
  963MOL0     H32890   6.451   4.458   7.737 -1.5341  2.4457  0.4470
  963MOL0     H32891   6.286   3.648   7.711  0.0859 -1.2226 -1.4441
  963MOL0     H32892   6.460   3.346   7.642  0.6809  0.7838 -0.6211
  963MOL0     H32893   6.339   3.301   7.753  0.5294 -0.2949  0.7270
  963MOL0     H32894   6.303   3.429   7.626 -0.4652  1.5091  1.7068
  964MOL0     O32895   8.181   4.300   8.168 -0.2181 -0.9043  0.5776
  964MOL0     C32896   8.097   4.208   8.157 -0.0032 -0.0026  0.2442
  964MOL0     O32897   7.996   4.204   8.062 -0.2426 -0.6729 -0.4567
  964MOL0     C32898   7.965   4.306   7.978  0.9578  0.6752 -0.1222
  964MOL0     C32899   7.908   4.256   7.862 -0.4779 -0.6005 -0.1168
  964MOL0     C32900   7.885   4.346   7.749  0.2544  1.6814 -0.8052
  964MOL0     C32901   7.916   4.482   7.753  0.1786 -0.6130  0.1700
  964MOL0     O32902   7.885   4.555   7.642  0.0980  0.3059  0.3455
  964MOL0     C32903   7.916   4.687   7.635  0.1909  0.3403  0.3405
  964MOL0     C32904   7.862   4.759   7.510 -0.4068  0.5075  0.4595
  964MOL0     C32905   7.917   4.685   7.379 -0.6006  0.0825 -0.0252
  964MOL0     C32906   7.869   4.754   7.259 -0.0332 -0.0259  0.1969
  964MOL0     C32907   7.957   4.727   7.134  0.5578  0.4972  0.4485
  964MOL0     C32908   7.898   4.796   7.008  1.0075  0.9234 -1.1767
  964MOL0     C32909   7.933   4.945   7.009 -0.3051  0.2775  0.0323
  964MOL0     C32910   7.827   5.034   6.942  0.3553 -1.4534 -0.1984
  964MOL0     N32911   7.700   5.068   7.010  0.4579  0.6017  0.1692
  964MOL0     C32912   7.629   4.982   7.093  0.2288 -0.0927 -0.0549
  964MOL0     C32913   7.543   5.063   7.156 -0.7280  0.4792  0.8508
  964MOL0     C32914   7.443   5.011   7.248 -0.2862 -0.5193  0.0521
  964MOL0     C32915   7.458   5.053   7.394  0.6527 -0.2930  0.0446
  964MOL0     C32916   7.399   5.191   7.419  0.3223  0.4641 -0.2219
  964MOL0     C32917   7.388   5.211   7.567 -0.1136 -0.2023 -0.0236
  964MOL0     O32918   7.321   5.335   7.594  0.3047  0.4231  0.0650
  964MOL0     C32919   7.334   5.377   7.728 -0.3532 -1.2163  0.0481
  964MOL0     C32920   7.268   5.309   7.829  0.6285  0.2738  0.1298
  964MOL0     C32921   7.276   5.354   7.958  0.9776 -0.5093 -0.3882
  964MOL0     C32922   7.213   5.268   8.064 -0.4398  0.1766  0.2398
  964MOL0     C32923   7.337   5.480   7.981  0.2011  0.7400 -0.0143
  964MOL0     C32924   7.372   5.523   8.122 -0.7190  0.1983 -0.5657
  964MOL0     O32925   7.449   5.641   8.136 -1.0563 -0.0916 -0.0754
  964MOL0     C32926   7.445   5.699   8.265 -0.5741  0.7404 -0.0206
  964MOL0     C32927   7.565   5.736   8.333 -0.2326  0.1206 -0.7773
  964MOL0     C32928   7.561   5.788   8.462  0.2540 -0.8556  0.6558
  964MOL0     C32929   7.446   5.834   8.521  0.9017  0.0563  0.1463
  964MOL0     O32930   7.441   5.900   8.640  0.1614 -0.1661 -0.8241
  964MOL0     C32931   7.525   5.843   8.748 -0.6330 -0.0640  0.9341
  964MOL0     C32932   7.561   5.948   8.852  0.3448 -0.0273  0.1077
  964MOL0     C32933   7.658   5.901   8.955 -0.2331  0.2643  0.2529
  964MOL0     C32934   7.586   5.818   9.059  0.0671  0.6081 -0.2554
  964MOL0     C32935   7.488   5.891   9.151 -0.3312  0.4383  0.3956
  964MOL0     C32936   7.457   5.807   9.273 -0.0479 -0.3125 -0.2866
  964MOL0     C32937   7.332   5.855   9.350 -0.1990  1.4554 -0.4161
  964MOL0     C32938   7.331   5.996   9.386 -0.2655 -0.6200 -0.5084
  964MOL0    Cl32939   7.482   6.032   9.476  0.3429  0.0039 -0.1383
  964MOL0     C32940   7.336   5.796   8.457 -0.2632  0.0617 -0.4659
  964MOL0     C32941   7.325   5.734   8.329  0.4815  0.0167 -0.9005
  964MOL0     O32942   7.347   5.458   8.224 -0.2362  0.0497 -0.1547
  964MOL0     C32943   7.395   5.552   7.880 -0.0385 -0.5656  0.2790
  964MOL0     C32944   7.393   5.497   7.756 -0.6297  0.7715 -0.5601
  964MOL0     N32945   7.558   5.191   7.107  0.8552 -1.1576 -0.2146
  964MOL0     N32946   7.650   5.197   7.019 -0.1250  0.6005 -0.5930
  964MOL0     C32947   7.966   4.524   7.879 -0.1604  0.0651 -0.2102
  964MOL0     C32948   7.987   4.446   7.991  0.3097 -0.4083  0.5155
  964MOL0     C32949   8.119   4.083   8.239  0.1691 -0.0120 -0.0870
  964MOL0     C32950   8.084   3.957   8.170 -0.3395 -0.2106  0.4733
  964MOL0     C32951   8.104   3.834   8.243  0.5811  0.8011  0.2951
  964MOL0     C32952   8.130   3.834   8.375 -0.3235  0.7719  0.0327
  964MOL0     O32953   8.111   3.712   8.445 -0.4327  0.0506 -0.6506
  964MOL0     C32954   8.069   3.724   8.580  0.6329 -0.8722 -0.9701
  964MOL0     C32955   7.981   3.602   8.598  0.1864  0.1945 -0.5220
  964MOL0     C32956   7.900   3.626   8.730  0.0780  0.1413  0.0765
  964MOL0     C32957   7.799   3.515   8.744  0.2040 -0.8136  0.4432
  964MOL0     C32958   7.744   3.526   8.878 -0.0824 -0.0376  1.0404
  964MOL0     C32959   7.695   3.535   8.988 -0.4223 -0.4553 -0.0193
  964MOL0     C32960   8.172   3.954   8.428  0.1966  0.2929 -0.1803
  964MOL0     C32961   8.172   4.080   8.365  0.0092  0.7342 -1.5295
  964MOL0     C32962   8.232   4.194   8.446 -0.2209 -0.5293 -0.8996
  964MOL0     H32963   7.881   4.151   7.856 -1.7383 -0.2364 -1.6024
  964MOL0     H32964   7.840   4.290   7.668 -1.4619 -0.8654  1.7204
  964MOL0     H32965   8.023   4.708   7.648  0.2494  0.5219 -0.3511
  964MOL0     H32966   7.866   4.723   7.724  0.6282 -1.1523  1.2327
  964MOL0     H32967   7.753   4.769   7.518 -0.6311 -0.7537 -0.6675
  964MOL0     H32968   7.900   4.861   7.496 -0.0304  0.0964 -1.9905
  964MOL0     H32969   8.026   4.686   7.381 -0.6048  1.1590  1.4932
  964MOL0     H32970   7.883   4.581   7.372 -0.7409  0.2392 -2.8369
  964MOL0     H32971   7.768   4.714   7.247  0.6482 -1.4590 -1.1879
  964MOL0     H32972   7.854   4.860   7.279  1.4225  0.3635 -0.6383
  964MOL0     H32973   7.956   4.619   7.114  0.8521  0.4198  0.8280
  964MOL0     H32974   8.062   4.756   7.145  1.7966 -3.7765  2.0324
  964MOL0     H32975   7.926   4.742   6.917 -0.3375 -1.4900 -0.2443
  964MOL0     H32976   7.793   4.768   7.010  1.7028 -2.0017 -0.7217
  964MOL0     H32977   8.025   4.974   6.958 -0.9149  2.0253 -0.1385
  964MOL0     H32978   7.942   4.986   7.111  2.0406 -1.7218  0.7241
  964MOL0     H32979   7.874   5.129   6.913 -0.7820 -0.9976 -0.6139
  964MOL0     H32980   7.795   4.991   6.846  1.2450 -1.9949 -0.2683
  964MOL0     H32981   7.640   4.875   7.107  0.8145  0.0059  0.2771
  964MOL0     H32982   7.444   4.902   7.243 -0.1941 -0.5134 -0.0583
  964MOL0     H32983   7.344   5.038   7.210 -1.3136 -2.4016  1.2336
  964MOL0     H32984   7.413   4.974   7.454 -1.8419  1.6914  0.9834
  964MOL0     H32985   7.565   5.053   7.419  0.8251  2.8182 -0.2413
  964MOL0     H32986   7.472   5.260   7.375  2.3924 -1.6320 -0.2507
  964MOL0     H32987   7.301   5.209   7.375 -1.4635  1.5699  3.7507
  964MOL0     H32988   7.329   5.129   7.607 -1.0903  0.8126  0.6720
  964MOL0     H32989   7.487   5.211   7.614 -0.3586  1.9292  0.5987
  964MOL0     H32990   7.218   5.214   7.815  2.2440 -1.4419  4.4494
  964MOL0     H32991   7.279   5.236   8.145 -1.2736 -0.0557  0.8553
  964MOL0     H32992   7.175   5.174   8.022 -0.4734  0.5380 -0.5516
  964MOL0     H32993   7.125   5.319   8.106 -0.5565 -0.3721  0.6817
  964MOL0     H32994   7.663   5.707   8.296  1.4104  2.5057  1.3214
  964MOL0     H32995   7.660   5.822   8.491  0.7355 -2.2963  0.7585
  964MOL0     H32996   7.473   5.753   8.784  0.9091 -2.5602 -2.4928
  964MOL0     H32997   7.614   5.797   8.704 -0.4742  0.5710  0.5831
  964MOL0     H32998   7.628   6.025   8.811  0.7702 -1.3278 -1.8007
  964MOL0     H32999   7.463   5.978   8.890  1.1584 -0.0630  2.3666
  964MOL0     H33000   7.705   5.994   8.990  1.6890 -0.2155 -0.9397
  964MOL0     H33001   7.744   5.854   8.907  0.6856  1.6976  0.4423
  964MOL0     H33002   7.660   5.764   9.118 -3.2773 -1.4493  2.4401
  964MOL0     H33003   7.526   5.739   9.012 -1.8331  1.2452  0.9429
  964MOL0     H33004   7.533   5.981   9.193 -1.1314 -0.4995  3.5159
  964MOL0     H33005   7.400   5.918   9.092 -0.0576  0.8973  0.1933
  964MOL0     H33006   7.540   5.791   9.341 -0.3979 -1.3315 -0.0856
  964MOL0     H33007   7.442   5.703   9.245  1.3731  0.1400 -3.1999
  964MOL0     H33008   7.315   5.792   9.438 -0.6230  0.5186 -1.1480
  964MOL0     H33009   7.246   5.837   9.285 -1.5597 -0.0115  1.6655
  964MOL0     H33010   7.243   6.015   9.447 -0.9833 -0.7768 -1.4652
  964MOL0     H33011   7.330   6.069   9.304 -0.4924  0.4174  0.4046
  964MOL0     H33012   7.240   5.818   8.503  0.6109 -0.1424  1.5727
  964MOL0     H33013   7.229   5.708   8.287  0.9288 -2.9901 -0.3025
  964MOL0     H33014   7.462   5.633   7.909  0.8498 -1.1340 -0.1328
  964MOL0     H33015   7.434   5.547   7.669  3.6067 -2.7586 -0.9368
  964MOL0     H33016   7.988   4.627   7.906 -0.7779  0.1885 -0.1713
  964MOL0     H33017   8.037   4.501   8.070 -0.2477  1.1092 -0.1540
  964MOL0     H33018   8.037   3.953   8.072 -1.3703  1.3084  0.8649
  964MOL0     H33019   8.100   3.742   8.185  0.9546  0.1943  1.2142
  964MOL0     H33020   8.153   3.726   8.650  1.2088  1.4356 -1.6303
  964MOL0     H33021   8.007   3.814   8.593  1.1955 -0.5405 -0.5407
  964MOL0     H33022   8.045   3.513   8.593 -0.1283 -0.0888  0.3085
  964MOL0     H33023   7.908   3.595   8.517 -1.9855  1.5909  1.1746
  964MOL0     H33024   7.963   3.644   8.817  0.0989  0.9873 -0.1067
  964MOL0     H33025   7.845   3.719   8.712 -0.6757 -0.5908 -1.6980
  964MOL0     H33026   7.850   3.421   8.722 -0.9760 -1.7058  1.3546
  964MOL0     H33027   7.725   3.525   8.665  0.6423  1.0181  0.2222
  964MOL0     H33028   7.661   3.541   9.090  3.4088  2.1328  1.3932
  964MOL0     H33029   8.201   3.944   8.532 -1.4036 -2.6440  0.0870
  964MOL0     H33030   8.150   4.224   8.513  0.5810 -0.5333  0.1017
  964MOL0     H33031   8.317   4.162   8.507  0.0878  1.1198 -0.4044
  964MOL0     H33032   8.261   4.278   8.382  0.3721 -0.7393 -0.9127
  965MOL0     O33033   1.462   3.824   8.302  0.7099  0.3912  0.3271
  965MOL0     C33034   1.445   3.832   8.423 -0.5077  0.5708  0.1179
  965MOL0     O33035   1.350   3.758   8.502 -0.1809  0.3305  0.5498
  965MOL0     C33036   1.247   3.678   8.446 -0.1069 -0.5899  0.6199
  965MOL0     C33037   1.118   3.672   8.503  0.8604 -0.6352 -0.1124
  965MOL0     C33038   1.019   3.602   8.441  0.0391  0.9593 -0.1889
  965MOL0     C33039   1.043   3.517   8.336 -0.2355 -0.1259 -0.3356
  965MOL0     O33040   0.954   3.425   8.300 -0.1312 -0.5203 -0.2770
  965MOL0     C33041   0.874   3.467   8.188  0.4425  0.5381 -0.5539
  965MOL0     C33042   0.773   3.352   8.156 -0.0418  0.0796  0.6510
  965MOL0     C33043   0.702   3.310   8.284  0.4132 -0.9830 -0.8327
  965MOL0     C33044   0.609   3.192   8.265  0.5366  0.6584 -0.3598
  965MOL0     C33045   0.467   3.228   8.216  0.2297 -0.6936  0.3137
  965MOL0     C33046   0.386   3.285   8.326 -0.1073  0.1448  0.5377
  965MOL0     C33047   0.238   3.274   8.296 -0.2494 -0.2529  0.2277
  965MOL0     C33048   0.155   3.312   8.421 -0.1548  0.6231 -0.2116
  965MOL0     N33049   0.171   3.460   8.441 -0.4745 -0.6239  0.3235
  965MOL0     C33050   0.152   3.558   8.349 -0.0141 -0.6658 -0.2884
  965MOL0     C33051   0.184   3.672   8.422 -0.0747  0.2867 -0.4335
  965MOL0     C33052   0.190   3.810   8.371  0.5988 -0.1352  0.5698
  965MOL0     C33053   0.061   3.891   8.403  0.4350  0.1839  0.0380
  965MOL0     C33054   0.095   3.994   8.507 -0.2883 -0.3549  0.4929
  965MOL0     C33055  -0.030   4.066   8.565 -1.5815  0.2764  0.0674
  965MOL0     O33056  -0.092   4.126   8.451  0.2606 -0.3462  0.4756
  965MOL0     C33057  -0.194   4.219   8.489 -0.6948  0.1574  1.1795
  965MOL0     C33058  -0.212   4.336   8.417  0.5709  0.0607  0.2590
  965MOL0     C33059  -0.321   4.431   8.464 -1.3563  0.1876  0.4970
  965MOL0     C33060  -0.290   4.570   8.419 -0.4239 -0.7654 -0.1837
  965MOL0     C33061  -0.421   4.405   8.565 -0.6379  0.0913  0.4438
  965MOL0     C33062  -0.525   4.499   8.600 -0.1389 -0.0694 -0.7955
  965MOL0     O33063  -0.621   4.441   8.692  0.4401 -0.6753  0.7177
  965MOL0     C33064  -0.725   4.506   8.743  0.4833 -0.9719  0.0253
  965MOL0     C33065  -0.847   4.442   8.758 -0.3239 -0.0498  0.3253
  965MOL0     C33066  -0.960   4.511   8.803 -0.5361  0.3667  0.6697
  965MOL0     C33067  -0.956   4.646   8.830 -0.8282 -0.1635 -0.8474
  965MOL0     O33068  -1.082   4.698   8.861  0.5829  0.6659  0.0990
  965MOL0     C33069  -1.078   4.817   8.942 -0.9530  0.1479  0.9044
  965MOL0     C33070  -1.197   4.836   9.034  0.3566  0.1249 -0.0568
  965MOL0     C33071  -1.240   4.707   9.103 -0.4585 -0.3206 -0.2318
  965MOL0     C33072  -1.376   4.732   9.158  0.0391  0.2978 -0.3789
  965MOL0     C33073  -1.431   4.616   9.233 -0.6561  0.3347  0.7163
  965MOL0     C33074  -1.365   4.608   9.368  0.0620 -0.3021  0.0563
  965MOL0     C33075  -1.390   4.474   9.435 -0.7702 -0.0984 -0.4421
  965MOL0     C33076  -1.311   4.480   9.566  0.8566  0.1488  0.3506
  965MOL0    Cl33077  -1.352   4.346   9.674 -0.1524  0.1287 -0.1879
  965MOL0     C33078  -0.835   4.715   8.819  0.1701  0.0323  0.9031
  965MOL0     C33079  -0.723   4.643   8.770  0.3429  0.3425 -0.3138
  965MOL0     O33080  -0.532   4.608   8.558 -0.3266 -0.5967  0.2948
  965MOL0     C33081  -0.390   4.288   8.630  0.1699  0.2124  0.3903
  965MOL0     C33082  -0.282   4.197   8.597  0.5472  0.0547  0.0388
  965MOL0     N33083   0.208   3.639   8.551 -0.5478  0.2831 -0.0501
  965MOL0     N33084   0.209   3.510   8.559 -0.0210 -0.3005  0.4756
  965MOL0     C33085   1.173   3.509   8.290  0.2978 -1.5073 -0.1851
  965MOL0     C33086   1.272   3.598   8.339 -0.2085 -0.0331  0.3384
  965MOL0     C33087   1.522   3.926   8.507 -0.3835 -0.1746  0.4907
  965MOL0     C33088   1.443   3.995   8.612 -1.0074  0.4479  0.0793
  965MOL0     C33089   1.501   4.088   8.699  0.4070 -0.6630  0.2810
  965MOL0     C33090   1.636   4.113   8.693 -0.5265  0.5708  0.7466
  965MOL0     O33091   1.709   4.193   8.773 -0.9573 -0.7142 -1.0286
  965MOL0     C33092   1.641   4.264   8.872  0.5164 -0.0367 -0.2023
  965MOL0     C33093   1.753   4.334   8.952  0.6905  0.0796  0.4275
  965MOL0     C33094   1.694   4.405   9.071 -0.2307  0.0219  0.3182
  965MOL0     C33095   1.813   4.464   9.152 -0.4033 -0.4649  1.1587
  965MOL0     C33096   1.770   4.509   9.277  0.1911 -0.1432 -0.7791
  965MOL0     C33097   1.741   4.561   9.388 -0.2718  0.2195 -0.2311
  965MOL0     C33098   1.708   4.054   8.587 -0.7753 -0.0006  0.2991
  965MOL0     C33099   1.658   3.960   8.495 -0.3231  0.2323  0.7814
  965MOL0     C33100   1.754   3.887   8.394  0.3995 -0.0473  0.2477
  965MOL0     H33101   1.088   3.726   8.592  0.7532  3.7227 -2.5563
  965MOL0     H33102   0.914   3.607   8.471 -0.3386  1.9018 -1.5663
  965MOL0     H33103   0.920   3.499   8.093  1.2750 -0.9742 -0.6884
  965MOL0     H33104   0.816   3.551   8.227  0.0311  0.9987 -2.0640
  965MOL0     H33105   0.697   3.396   8.091 -0.1862 -0.0442  0.7375
  965MOL0     H33106   0.819   3.268   8.104 -3.2248 -0.5109 -1.4769
  965MOL0     H33107   0.774   3.274   8.357  1.1812  2.5316  0.3099
  965MOL0     H33108   0.641   3.395   8.317  1.4617 -0.1391 -1.0459
  965MOL0     H33109   0.644   3.120   8.192 -0.8091 -1.6034  1.1003
  965MOL0     H33110   0.605   3.128   8.354  0.9171 -0.8278 -1.3779
  965MOL0     H33111   0.420   3.139   8.172 -2.4383  0.8120 -0.1410
  965MOL0     H33112   0.468   3.301   8.135  0.8033 -0.1364  0.8164
  965MOL0     H33113   0.414   3.237   8.420 -3.4175  1.0592  2.1308
  965MOL0     H33114   0.410   3.391   8.340 -2.1497  0.6967  0.2874
  965MOL0     H33115   0.208   3.174   8.265 -0.5736 -0.0871 -0.0019
  965MOL0     H33116   0.221   3.340   8.210 -2.6807  2.0712  2.2953
  965MOL0     H33117   0.051   3.286   8.396  0.8320  0.2178 -4.8123
  965MOL0     H33118   0.183   3.243   8.501  1.7348  0.2078 -1.1895
  965MOL0     H33119   0.131   3.560   8.243 -0.0929  0.3880 -0.2625
  965MOL0     H33120   0.208   3.801   8.264  0.9238  1.8439  0.4151
  965MOL0     H33121   0.284   3.859   8.399  1.1710 -2.4894  3.2753
  965MOL0     H33122   0.024   3.943   8.314 -0.2639  1.9401  1.3006
  965MOL0     H33123  -0.017   3.828   8.447 -2.8128  3.8355  0.0221
  965MOL0     H33124   0.143   3.945   8.593 -1.5030  1.3154  2.2027
  965MOL0     H33125   0.155   4.079   8.473  0.7662 -1.8568 -1.6536
  965MOL0     H33126  -0.093   3.990   8.612 -0.9303  0.3943  1.1582
  965MOL0     H33127   0.023   4.134   8.633  1.2895 -0.6983 -1.0629
  965MOL0     H33128  -0.147   4.366   8.336 -0.0183  0.2611 -0.1442
  965MOL0     H33129  -0.184   4.575   8.391 -0.4123  0.3869  0.0263
  965MOL0     H33130  -0.285   4.638   8.504  0.7935 -0.4514 -0.4914
  965MOL0     H33131  -0.362   4.604   8.344 -0.7950 -0.9739  0.0746
  965MOL0     H33132  -0.850   4.337   8.730  5.9568 -0.7243  0.7454
  965MOL0     H33133  -1.059   4.467   8.804 -0.4585  0.1853  1.6935
  965MOL0     H33134  -0.988   4.813   9.003 -2.0480 -1.5336  2.5149
  965MOL0     H33135  -1.069   4.909   8.883  0.6247  1.2528  2.7760
  965MOL0     H33136  -1.171   4.907   9.113  0.5963 -1.0434  0.9456
  965MOL0     H33137  -1.284   4.880   8.984 -0.8655 -2.7155 -0.6224
  965MOL0     H33138  -1.171   4.670   9.180  0.9872 -2.8360 -2.5233
  965MOL0     H33139  -1.247   4.630   9.025  0.5749  1.0261 -1.7277
  965MOL0     H33140  -1.449   4.738   9.077 -0.5119  0.3082  0.1098
  965MOL0     H33141  -1.387   4.824   9.218  0.2641 -0.8835  1.5626
  965MOL0     H33142  -1.539   4.631   9.240 -1.1211 -1.7445 -0.9505
  965MOL0     H33143  -1.411   4.520   9.183  0.6298  0.8888  0.1062
  965MOL0     H33144  -1.394   4.686   9.438 -1.4862 -0.1843 -0.6664
  965MOL0     H33145  -1.258   4.624   9.356  0.7580 -1.3042  3.8097
  965MOL0     H33146  -1.359   4.391   9.371  0.5670 -1.1832  1.4883
  965MOL0     H33147  -1.499   4.463   9.445 -1.3673  3.8611 -0.8666
  965MOL0     H33148  -1.323   4.573   9.621  0.6244 -0.9264  2.2083
  965MOL0     H33149  -1.203   4.475   9.545  0.6770  1.0081 -0.9146
  965MOL0     H33150  -0.841   4.820   8.845  0.4285  0.7942 -1.8425
  965MOL0     H33151  -0.633   4.704   8.767 -0.3770  1.5413  0.7902
  965MOL0     H33152  -0.459   4.254   8.707 -1.2352  0.1791 -0.8463
  965MOL0     H33153  -0.274   4.102   8.648 -2.3716 -0.9332 -1.1564
  965MOL0     H33154   1.207   3.442   8.212 -0.6205  1.4990 -3.4012
  965MOL0     H33155   1.368   3.579   8.291 -1.3511 -2.1381 -1.2394
  965MOL0     H33156   1.336   3.984   8.625 -0.5407 -2.7962  2.3282
  965MOL0     H33157   1.438   4.128   8.778  0.3584  0.0934 -0.1316
  965MOL0     H33158   1.576   4.343   8.832  0.1191  0.6026  1.5769
  965MOL0     H33159   1.572   4.205   8.933  0.4254  2.4124  2.2912
  965MOL0     H33160   1.817   4.398   8.890 -2.1462  0.9873 -1.8009
  965MOL0     H33161   1.815   4.254   8.992  1.4803 -0.0554 -1.0045
  965MOL0     H33162   1.630   4.491   9.047  0.6869  0.9641  1.1163
  965MOL0     H33163   1.644   4.332   9.136 -0.3173  1.0601  1.4630
  965MOL0     H33164   1.839   4.558   9.102 -4.4197 -0.6313 -1.8291
  965MOL0     H33165   1.899   4.396   9.152  1.1914  0.9708 -4.6220
  965MOL0     H33166   1.732   4.609   9.483  2.1741 -1.7518  1.1304
  965MOL0     H33167   1.814   4.076   8.575 -0.5775 -0.9969  0.1821
  965MOL0     H33168   1.861   3.910   8.405 -0.0219  2.5330 -0.4020
  965MOL0     H33169   1.735   3.780   8.377  0.1587 -0.6773  3.7894
  965MOL0     H33170   1.742   3.940   8.299  2.0984  1.8688  1.0291
  966MOL0     O33171   7.125   8.751   8.286  0.6081  0.0300 -0.3381
  966MOL0     C33172   7.069   8.852   8.248 -0.7357 -0.0518  0.8763
  966MOL0     O33173   7.117   8.935   8.152  0.7585 -0.3264 -0.3533
  966MOL0     C33174   7.243   8.931   8.107  0.5821 -1.0306  0.4281
  966MOL0     C33175   7.258   8.884   7.980  0.1066  0.1506 -0.0061
  966MOL0     C33176   7.380   8.896   7.917 -0.8495  0.4710 -0.1480
  966MOL0     C33177   7.494   8.960   7.972  0.0593 -0.2537 -0.4146
  966MOL0     O33178   7.624   8.967   7.929  0.2683 -0.4567 -0.2790
  966MOL0     C33179   7.655   8.933   7.792  0.2567 -0.5984 -1.8561
  966MOL0     C33180   7.745   9.039   7.735 -0.8079  0.4142 -0.3543
  966MOL0     C33181   7.846   8.969   7.644 -0.3061 -0.4876 -0.5931
  966MOL0     C33182   7.969   9.063   7.632 -0.1840 -0.5285  0.4541
  966MOL0     C33183   8.089   9.006   7.554  0.5283 -0.1039 -0.3511
  966MOL0     C33184   8.200   9.104   7.529  0.5397 -0.1507 -0.4335
  966MOL0     C33185   8.289   9.128   7.646  0.5103  0.8226  0.1975
  966MOL0     C33186   8.401   9.220   7.597  0.4614  0.0454  0.1306
  966MOL0     N33187   8.477   9.282   7.713 -0.2760  0.2079  0.2241
  966MOL0     C33188   8.516   9.211   7.819 -0.3302 -0.1994  0.5753
  966MOL0     C33189   8.601   9.296   7.884  0.0847  0.2066  0.0526
  966MOL0     C33190   8.702   9.243   7.988 -0.2427  0.0661 -0.5697
  966MOL0     C33191   8.661   9.296   8.132  0.1018  1.0568  0.2014
  966MOL0     C33192   8.581   9.181   8.197  0.0204 -0.8980  1.0118
  966MOL0     C33193   8.514   9.237   8.325  0.4887 -0.1586  0.0147
  966MOL0     O33194   8.431   9.136   8.375 -0.4898  0.1072 -0.3429
  966MOL0     C33195   8.343   9.162   8.478 -0.4277  0.3890 -1.4202
  966MOL0     C33196   8.351   9.284   8.551  0.4063  0.1085  1.0529
  966MOL0     C33197   8.259   9.305   8.660 -0.0601  0.6074  0.2077
  966MOL0     C33198   8.275   9.426   8.750  0.2803 -0.4533 -0.3971
  966MOL0     C33199   8.155   9.208   8.692 -0.3014  0.3626  0.2013
  966MOL0     C33200   8.056   9.220   8.810  0.3277 -0.7817  0.3043
  966MOL0     O33201   7.934   9.158   8.789  0.2530  0.2202 -0.1308
  966MOL0     C33202   7.840   9.137   8.883 -0.3668 -0.5774 -0.8569
  966MOL0     C33203   7.713   9.124   8.850 -0.1031  0.4592  0.4453
  966MOL0     C33204   7.614   9.074   8.938  0.4601 -0.9173 -0.2128
  966MOL0     C33205   7.643   9.052   9.074 -0.3342  0.4834 -0.1605
  966MOL0     O33206   7.539   9.023   9.163  0.6078  0.5094  0.2751
  966MOL0     C33207   7.590   8.995   9.296 -0.0021 -0.1976  0.0122
  966MOL0     C33208   7.465   8.972   9.388 -1.0872 -0.1471  0.4258
  966MOL0     C33209   7.501   8.901   9.520 -0.6248 -0.0098  0.9578
  966MOL0     C33210   7.372   8.914   9.598 -0.4961  0.0064  0.1517
  966MOL0     C33211   7.396   8.851   9.730 -1.1922  0.6708  0.2299
  966MOL0     C33212   7.272   8.853   9.821 -0.1270  0.0125  0.1412
  966MOL0     C33213   7.305   8.806   9.963  0.0091 -0.2899  0.0747
  966MOL0     C33214   7.226   8.887  10.064 -0.7242  0.8508  0.0571
  966MOL0    Cl33215   7.047   8.866  10.040 -0.0971 -0.4952 -0.2384
  966MOL0     C33216   7.777   9.062   9.112 -0.6822 -0.4222  0.7549
  966MOL0     C33217   7.876   9.105   9.016 -1.4351  0.3479 -1.3129
  966MOL0     O33218   8.100   9.277   8.915 -0.4701 -0.2231  0.2014
  966MOL0     C33219   8.135   9.110   8.595  0.2797  0.6581 -0.1176
  966MOL0     C33220   8.227   9.087   8.492 -0.2195  0.8086 -0.0764
  966MOL0     N33221   8.604   9.420   7.825 -0.1033  0.3287  0.4255
  966MOL0     N33222   8.529   9.409   7.717 -0.7357  0.6034  0.0713
  966MOL0     C33223   7.471   9.002   8.098 -0.3542 -1.1639  0.3002
  966MOL0     C33224   7.350   8.993   8.164 -0.3963 -0.6488  0.5095
  966MOL0     C33225   6.930   8.884   8.300  0.5756  0.6379  0.0471
  966MOL0     C33226   6.836   8.784   8.305 -0.0714  0.9607  0.6977
  966MOL0     C33227   6.701   8.806   8.313 -0.1933 -0.5409  0.1214
  966MOL0     C33228   6.652   8.932   8.346 -0.7544 -0.0491  0.4121
  966MOL0     O33229   6.522   8.946   8.363 -0.4081  0.0635  1.1697
  966MOL0     C33230   6.466   9.078   8.356  0.5044  0.0726  0.0130
  966MOL0     C33231   6.322   9.031   8.344 -1.0907  0.2488 -0.0546
  966MOL0     C33232   6.225   9.145   8.349  0.1992 -0.1228 -0.1492
  966MOL0     C33233   6.078   9.112   8.352  0.3546 -0.3676  0.3885
  966MOL0     C33234   6.005   9.216   8.407  0.8885 -0.2251  0.4184
  966MOL0     C33235   5.928   9.306   8.442 -0.0077 -0.6194 -0.4782
  966MOL0     C33236   6.744   9.040   8.337 -0.1804 -0.0192  0.2436
  966MOL0     C33237   6.886   9.013   8.330  0.4683 -0.0803  0.4682
  966MOL0     C33238   6.971   9.131   8.347  0.4668 -0.3343  0.6853
  966MOL0     H33239   7.167   8.851   7.931  0.4389 -0.7632 -0.0169
  966MOL0     H33240   7.394   8.834   7.830 -2.6562 -1.3426  0.7688
  966MOL0     H33241   7.561   8.936   7.736 -1.7996  0.6608  1.3318
  966MOL0     H33242   7.698   8.832   7.792  1.3861 -0.2243  1.3979
  966MOL0     H33243   7.688   9.121   7.688 -2.8155 -0.4935  0.4003
  966MOL0     H33244   7.799   9.069   7.825 -1.8821 -2.1481  1.2277
  966MOL0     H33245   7.885   8.875   7.683  0.0443  0.5875  1.8657
  966MOL0     H33246   7.799   8.959   7.545  0.1060 -0.5915 -0.7814
  966MOL0     H33247   7.941   9.158   7.586 -0.9850 -0.9683 -0.0113
  966MOL0     H33248   8.005   9.096   7.729 -1.3629  0.7774  0.4729
  966MOL0     H33249   8.046   8.958   7.466  1.4351 -1.5154 -0.0517
  966MOL0     H33250   8.127   8.921   7.611 -2.0972 -0.1401  1.5168
  966MOL0     H33251   8.261   9.066   7.447  0.4191 -0.0063 -0.5909
  966MOL0     H33252   8.166   9.200   7.490  3.7264  0.2203 -2.6698
  966MOL0     H33253   8.329   9.042   7.700 -0.0516  1.0443  1.0012
  966MOL0     H33254   8.219   9.171   7.718 -1.8327 -1.7359 -0.3863
  966MOL0     H33255   8.463   9.159   7.530 -0.4723  0.2485 -0.9348
  966MOL0     H33256   8.371   9.301   7.531  0.7481  0.8683  0.9868
  966MOL0     H33257   8.515   9.103   7.813 -1.7484 -0.3423 -7.6294
  966MOL0     H33258   8.800   9.281   7.958 -0.5538 -0.3295 -2.2441
  966MOL0     H33259   8.712   9.134   7.989 -2.1357 -0.1470 -0.5807
  966MOL0     H33260   8.750   9.315   8.193  1.7958  0.2210 -1.8974
  966MOL0     H33261   8.606   9.389   8.117 -2.5617 -0.3717  0.5438
  966MOL0     H33262   8.508   9.165   8.116  3.0785  1.4513 -2.5334
  966MOL0     H33263   8.649   9.096   8.211 -0.3149 -1.6800 -1.5853
  966MOL0     H33264   8.586   9.266   8.402  0.4658  2.7943 -0.9424
  966MOL0     H33265   8.456   9.326   8.301 -1.9154 -0.9281  2.4822
  966MOL0     H33266   8.425   9.361   8.536  0.8801 -0.1681  1.8948
  966MOL0     H33267   8.351   9.491   8.706 -1.1088  2.3484  1.1064
  966MOL0     H33268   8.305   9.391   8.850  0.7072 -0.9288 -0.6854
  966MOL0     H33269   8.183   9.481   8.773 -1.4401 -2.1314 -2.7527
  966MOL0     H33270   7.691   9.163   8.751  3.1432  4.2673  0.9224
  966MOL0     H33271   7.509   9.059   8.912 -0.3917  0.0214  2.3787
  966MOL0     H33272   7.650   8.904   9.291 -0.1000 -0.2171 -1.1825
  966MOL0     H33273   7.648   9.076   9.342 -2.3244  0.5797  1.7475
  966MOL0     H33274   7.418   9.068   9.410 -1.4356 -0.2084 -0.0497
  966MOL0     H33275   7.391   8.910   9.337 -1.5676  0.6099  0.1925
  966MOL0     H33276   7.576   8.958   9.575  0.3918  0.1402 -0.5179
  966MOL0     H33277   7.519   8.794   9.506  0.9858  0.5105 -1.8142
  966MOL0     H33278   7.289   8.861   9.550 -3.4307  4.3392 -0.1527
  966MOL0     H33279   7.347   9.019   9.617  0.6806  0.4409 -0.6068
  966MOL0     H33280   7.437   8.751   9.717  1.3927  1.7762 -0.7152
  966MOL0     H33281   7.474   8.910   9.780 -0.4589 -0.9767  1.0880
  966MOL0     H33282   7.195   8.787   9.780  0.5905  0.4384 -2.0677
  966MOL0     H33283   7.236   8.956   9.822  0.4099  0.2931 -2.2756
  966MOL0     H33284   7.412   8.817   9.985  0.0419 -1.8002  0.7874
  966MOL0     H33285   7.284   8.699   9.967 -0.7775 -0.1974 -1.2347
  966MOL0     H33286   7.261   8.991  10.056  1.6784  0.0676 -0.2097
  966MOL0     H33287   7.246   8.860  10.168  0.3513  2.9722  0.4637
  966MOL0     H33288   7.824   9.032   9.205  2.2385 -1.2529 -0.8654
  966MOL0     H33289   7.977   9.097   9.054 -1.8300  1.4507  0.0611
  966MOL0     H33290   8.046   9.051   8.611 -1.1113  2.0459 -2.2370
  966MOL0     H33291   8.211   9.001   8.428  2.1106 -0.7902  1.3420
  966MOL0     H33292   7.552   9.047   8.154 -0.7960 -0.2150  0.2015
  966MOL0     H33293   7.341   9.044   8.259  2.6726  0.5422  0.3075
  966MOL0     H33294   6.867   8.685   8.273 -2.3525  0.3617  0.1204
  966MOL0     H33295   6.633   8.722   8.308  0.7416 -1.3514  0.8097
  966MOL0     H33296   6.491   9.142   8.441  0.7048 -0.4762  0.3787
  966MOL0     H33297   6.489   9.133   8.265  3.8341  1.6685  1.6268
  966MOL0     H33298   6.300   8.968   8.432 -0.1011 -0.3506 -0.2207
  966MOL0     H33299   6.307   8.976   8.250  0.7139 -2.5217  1.1467
  966MOL0     H33300   6.245   9.202   8.440 -4.4252  0.5407  0.7441
  966MOL0     H33301   6.246   9.198   8.256  2.5456 -0.1247  0.3308
  966MOL0     H33302   6.067   9.030   8.423  0.5867 -0.6545  0.0998
  966MOL0     H33303   6.052   9.098   8.247 -0.2276  1.4979  0.2574
  966MOL0     H33304   5.865   9.380   8.487  0.4712 -0.0103 -0.7950
  966MOL0     H33305   6.713   9.138   8.372  4.4048  1.9321 -0.4234
  966MOL0     H33306   7.023   9.105   8.440 -0.9793  0.8876  1.8793
  966MOL0     H33307   7.038   9.147   8.262 -1.7868  1.4280 -0.8859
  966MOL0     H33308   6.917   9.226   8.353  3.3075  1.3320  2.6670
  967MOL0     O33309   4.816   4.589   9.496  0.1720 -0.7037  0.0483
  967MOL0     C33310   4.926   4.530   9.497  0.5393 -0.5867 -0.2912
  967MOL0     O33311   5.017   4.525   9.392  0.2934 -0.1147 -0.5869
  967MOL0     C33312   4.967   4.563   9.264 -0.2675 -0.3160  0.4456
  967MOL0     C33313   4.852   4.505   9.189 -0.3057 -0.2930 -0.1191
  967MOL0     C33314   4.799   4.563   9.070 -0.7891 -0.5204  0.1431
  967MOL0     C33315   4.863   4.684   9.019 -1.0387  1.4651 -0.3377
  967MOL0     O33316   4.800   4.752   8.923  0.8534 -0.1072  0.1449
  967MOL0     C33317   4.663   4.787   8.938 -0.0692  0.9755 -0.5969
  967MOL0     C33318   4.651   4.938   8.954 -0.7170 -1.0520 -0.3837
  967MOL0     C33319   4.520   4.977   9.023  0.3214  0.2861 -0.5733
  967MOL0     C33320   4.474   5.125   8.994 -0.6669 -0.1457  0.4249
  967MOL0     C33321   4.589   5.215   9.042  0.1863  0.0577  0.4164
  967MOL0     C33322   4.556   5.368   9.033  0.4752 -0.5305 -0.4058
  967MOL0     C33323   4.533   5.422   8.900 -0.8341 -0.0444 -1.1015
  967MOL0     C33324   4.656   5.396   8.802 -0.4368 -0.0018  0.0571
  967MOL0     N33325   4.646   5.482   8.682  0.1267 -1.0615  0.3753
  967MOL0     C33326   4.690   5.618   8.678 -0.1821 -0.1954 -0.9263
  967MOL0     C33327   4.640   5.664   8.563 -0.0747 -0.5109 -0.4449
  967MOL0     C33328   4.675   5.804   8.517 -0.8505 -0.1410 -0.6138
  967MOL0     C33329   4.822   5.833   8.470 -0.7279 -0.4629  0.2569
  967MOL0     C33330   4.834   5.971   8.400  0.6035  0.2636  0.3298
  967MOL0     C33331   4.981   6.004   8.375  0.2399  0.1884 -0.8066
  967MOL0     O33332   5.034   5.924   8.273 -0.1457  1.1117 -0.0827
  967MOL0     C33333   5.112   5.977   8.171  0.0771 -0.8668  1.4189
  967MOL0     C33334   5.144   5.894   8.068  0.3102  0.4055 -0.2136
  967MOL0     C33335   5.237   5.931   7.970  0.8574  1.0181 -0.3394
  967MOL0     C33336   5.232   5.833   7.854 -0.0200  0.2212 -0.4580
  967MOL0     C33337   5.294   6.056   7.982  0.0048 -0.1716  0.1259
  967MOL0     C33338   5.371   6.110   7.866  0.6591  0.2121  0.2958
  967MOL0     O33339   5.469   6.204   7.893 -0.2488  0.5653 -0.1223
  967MOL0     C33340   5.569   6.258   7.810  0.1230 -0.2548 -0.2571
  967MOL0     C33341   5.633   6.374   7.856  0.1527 -0.2432 -0.0884
  967MOL0     C33342   5.747   6.412   7.773 -0.0173 -0.3531 -0.4874
  967MOL0     C33343   5.782   6.352   7.652  0.8594 -0.2662  0.2859
  967MOL0     O33344   5.866   6.414   7.563  0.0012 -0.7341 -0.3466
  967MOL0     C33345   5.915   6.540   7.582 -0.7521  0.1433  1.0122
  967MOL0     C33346   6.004   6.568   7.462  0.1226 -0.2659  0.2264
  967MOL0     C33347   6.109   6.467   7.423 -0.9419  0.2290 -0.7921
  967MOL0     C33348   6.214   6.430   7.528 -0.0533  0.0393  0.5446
  967MOL0     C33349   6.325   6.332   7.455  0.5598 -0.2566 -0.1837
  967MOL0     C33350   6.439   6.305   7.556  0.3633  0.9496 -0.1835
  967MOL0     C33351   6.537   6.213   7.474 -0.0323  0.4730  0.1966
  967MOL0     C33352   6.669   6.175   7.550  0.6578  0.0909  0.2379
  967MOL0    Cl33353   6.633   6.067   7.692  0.2967 -0.0048  0.2631
  967MOL0     C33354   5.712   6.243   7.611  0.0059  0.0255  1.1575
  967MOL0     C33355   5.604   6.196   7.692 -0.7859 -0.0141  0.4418
  967MOL0     O33356   5.325   6.080   7.759 -0.0251 -0.4717  0.4853
  967MOL0     C33357   5.265   6.138   8.095 -1.2517 -0.4667  0.0899
  967MOL0     C33358   5.175   6.103   8.183 -0.1205  0.3378 -0.6017
  967MOL0     N33359   4.574   5.564   8.493 -0.7973  0.2024 -0.4569
  967MOL0     N33360   4.569   5.456   8.574  0.2532  0.2036 -0.1430
  967MOL0     C33361   4.972   4.737   9.090 -0.6678 -0.9785  0.4635
  967MOL0     C33362   5.018   4.684   9.211 -0.1631 -0.4669  0.0806
  967MOL0     C33363   4.974   4.488   9.628 -0.0106  0.5926  0.7936
  967MOL0     C33364   5.096   4.536   9.669  0.5120  0.9063 -0.3297
  967MOL0     C33365   5.149   4.473   9.787  0.0862  0.0086  0.2185
  967MOL0     C33366   5.089   4.377   9.855  0.0630 -0.2427  0.3878
  967MOL0     O33367   5.157   4.334   9.968  0.1372  0.4574  0.8742
  967MOL0     C33368   5.132   4.201  10.021  0.2434  0.2542  0.4255
  967MOL0     C33369   5.215   4.167  10.149 -0.2349 -0.2726 -0.3916
  967MOL0     C33370   5.183   4.037  10.197  0.2021  0.3655  0.4082
  967MOL0     C33371   5.275   3.976  10.308  0.1264 -1.0125  0.3722
  967MOL0     C33372   5.277   4.050  10.436  0.5158 -0.5443  0.3898
  967MOL0     C33373   5.280   4.095  10.548  0.7160 -0.2757  0.5316
  967MOL0     C33374   4.958   4.333   9.819  0.5163  0.8047 -0.3651
  967MOL0     C33375   4.894   4.384   9.697 -0.3488 -0.0697  0.6635
  967MOL0     C33376   4.757   4.330   9.651 -0.5057 -0.2092 -0.2406
  967MOL0     H33377   4.805   4.419   9.235 -2.2537  0.8098  0.0398
  967MOL0     H33378   4.709   4.530   9.019  0.1919 -1.5193 -0.9997
  967MOL0     H33379   4.621   4.733   9.023 -1.4216  2.1814 -0.4581
  967MOL0     H33380   4.621   4.752   8.844  3.0370 -0.9093 -1.4370
  967MOL0     H33381   4.740   4.980   9.002 -0.8413 -0.0069 -1.0205
  967MOL0     H33382   4.653   4.980   8.853  0.7895  2.3108  0.8886
  967MOL0     H33383   4.438   4.913   8.988 -1.1315  3.0939 -2.8538
  967MOL0     H33384   4.531   4.964   9.131 -1.0269  0.0338 -0.4434
  967MOL0     H33385   4.451   5.140   8.888  2.2138 -2.9333 -0.7733
  967MOL0     H33386   4.380   5.150   9.043  0.1086 -0.1922  1.9937
  967MOL0     H33387   4.683   5.210   8.986  0.8710 -0.7902  1.5939
  967MOL0     H33388   4.618   5.193   9.145  0.0472  1.3275  0.7414
  967MOL0     H33389   4.465   5.386   9.091  0.4896  2.7216 -1.2154
  967MOL0     H33390   4.634   5.419   9.089 -0.0931 -0.0774 -0.0071
  967MOL0     H33391   4.537   5.531   8.906 -1.4511 -0.0620 -0.0381
  967MOL0     H33392   4.437   5.382   8.867 -1.3767 -0.0412  0.3875
  967MOL0     H33393   4.750   5.407   8.856 -0.0060 -1.1337 -0.4298
  967MOL0     H33394   4.634   5.300   8.754 -2.9039  2.0375 -3.3536
  967MOL0     H33395   4.759   5.658   8.752  0.6659 -2.4388 -0.3946
  967MOL0     H33396   4.665   5.861   8.610  1.3885 -1.2482  0.3785
  967MOL0     H33397   4.600   5.841   8.446 -3.7050 -1.2044  1.6595
  967MOL0     H33398   4.883   5.822   8.560 -0.3419 -3.1916 -0.2499
  967MOL0     H33399   4.850   5.750   8.405  1.6094  0.0933  0.4793
  967MOL0     H33400   4.786   5.964   8.302  2.7472  3.1579 -1.0771
  967MOL0     H33401   4.787   6.052   8.457 -1.7151  0.8945 -2.2950
  967MOL0     H33402   4.988   6.107   8.340 -2.5325 -0.5988 -4.1849
  967MOL0     H33403   5.046   5.989   8.462  0.6023 -3.7385 -1.5815
  967MOL0     H33404   5.095   5.796   8.067  2.4510 -0.7338  0.2237
  967MOL0     H33405   5.170   5.862   7.768 -1.9683 -0.0850  0.7871
  967MOL0     H33406   5.205   5.731   7.880  1.9804 -0.1539  0.3286
  967MOL0     H33407   5.339   5.829   7.829 -0.0101  1.3225 -0.6776
  967MOL0     H33408   5.581   6.431   7.933  0.9885  0.7291 -0.2172
  967MOL0     H33409   5.795   6.505   7.801 -0.6383 -0.2755  0.3843
  967MOL0     H33410   5.844   6.623   7.574 -0.0376  0.6476 -0.6010
  967MOL0     H33411   5.960   6.551   7.681  2.5956 -1.4189 -0.1802
  967MOL0     H33412   5.934   6.582   7.379 -0.3984  1.8214  0.9569
  967MOL0     H33413   6.058   6.660   7.488 -2.2388  0.9737  1.0318
  967MOL0     H33414   6.162   6.490   7.330 -1.2034  1.9890 -0.5323
  967MOL0     H33415   6.050   6.376   7.407 -3.0576  1.3203  0.3265
  967MOL0     H33416   6.173   6.384   7.618 -2.1123  0.0375 -0.3383
  967MOL0     H33417   6.261   6.521   7.566 -2.8266  1.1015  1.6977
  967MOL0     H33418   6.283   6.237   7.420  0.3299 -0.1085 -0.3081
  967MOL0     H33419   6.354   6.398   7.373 -0.0809  0.5737  0.2496
  967MOL0     H33420   6.391   6.250   7.638 -0.9557  1.3980 -0.6337
  967MOL0     H33421   6.486   6.397   7.590  1.7638 -0.1781  1.1078
  967MOL0     H33422   6.576   6.252   7.380  1.0209 -1.5904 -0.2729
  967MOL0     H33423   6.494   6.119   7.441  6.1773 -3.0773  0.7009
  967MOL0     H33424   6.699   6.267   7.599  0.6659 -0.4144  1.2177
  967MOL0     H33425   6.740   6.133   7.478 -0.6769 -2.2514  0.1661
  967MOL0     H33426   5.723   6.181   7.522  0.8921 -0.0462  1.3023
  967MOL0     H33427   5.571   6.100   7.654 -0.6006  0.8772 -2.2391
  967MOL0     H33428   5.311   6.236   8.095  0.9401 -1.3268 -3.3544
  967MOL0     H33429   5.143   6.173   8.259 -1.4598 -0.8908  0.0069
  967MOL0     H33430   5.009   4.833   9.056 -0.9388 -0.8631  0.4898
  967MOL0     H33431   5.102   4.728   9.263 -0.2498 -0.8743  0.5689
  967MOL0     H33432   5.140   4.610   9.603 -1.7152 -1.0550 -4.4416
  967MOL0     H33433   5.249   4.504   9.816  0.3552 -1.5708  1.0829
  967MOL0     H33434   5.025   4.192  10.045  0.2156 -0.5894  0.0109
  967MOL0     H33435   5.153   4.135   9.936 -1.3313  2.6209 -1.9596
  967MOL0     H33436   5.203   4.239  10.231  3.1138 -0.1372  0.1254
  967MOL0     H33437   5.320   4.180  10.122  0.1388  2.2059  1.7744
  967MOL0     H33438   5.082   4.033  10.239 -0.3198  4.6722  0.0896
  967MOL0     H33439   5.201   3.971  10.112 -1.2608 -1.0048  1.1131
  967MOL0     H33440   5.380   3.994  10.285  1.2855 -0.3835  5.2025
  967MOL0     H33441   5.256   3.869  10.314 -0.4219 -0.9582 -0.2076
  967MOL0     H33442   5.276   4.138  10.646 -1.6455 -3.4412  1.9989
  967MOL0     H33443   4.893   4.262   9.869  1.6655 -0.1060 -0.1366
  967MOL0     H33444   4.779   4.227   9.624  3.6648  0.0420  1.4196
  967MOL0     H33445   4.691   4.335   9.739  0.7401 -1.9516  0.8605
  967MOL0     H33446   4.711   4.387   9.570  1.3461  1.4707 -0.1900
  968MOL0     O33447   4.634   8.158   6.552 -0.3571  0.0583  0.2378
  968MOL0     C33448   4.713   8.235   6.489  0.4942  0.7957 -0.8511
  968MOL0     O33449   4.691   8.311   6.379 -0.2138  0.9110  0.1583
  968MOL0     C33450   4.564   8.339   6.350  0.4719  0.1137  0.5025
  968MOL0     C33451   4.513   8.278   6.241  0.3451  0.6732  0.0541
  968MOL0     C33452   4.371   8.268   6.224 -0.1338 -0.0338  0.2556
  968MOL0     C33453   4.289   8.342   6.307  0.5187 -0.5804 -0.1409
  968MOL0     O33454   4.147   8.345   6.283 -0.4693  0.9209  0.0714
  968MOL0     C33455   4.077   8.465   6.307  0.2194  1.0555 -0.7632
  968MOL0     C33456   3.943   8.456   6.242 -0.2226 -0.1499 -0.1178
  968MOL0     C33457   3.838   8.390   6.320  0.3997  0.7774  0.0155
  968MOL0     C33458   3.767   8.492   6.428 -0.4615  0.3780  0.0308
  968MOL0     C33459   3.629   8.543   6.386 -0.6895 -0.3539 -0.3750
  968MOL0     C33460   3.566   8.618   6.499  1.4816 -0.6346 -0.0273
  968MOL0     C33461   3.439   8.676   6.446  0.3109 -0.3482 -0.5192
  968MOL0     C33462   3.326   8.678   6.555  0.6519 -0.0612 -0.1482
  968MOL0     N33463   3.278   8.541   6.597  1.0474  0.6414  0.0596
  968MOL0     C33464   3.317   8.473   6.710  0.3709  0.4111 -0.1352
  968MOL0     C33465   3.234   8.369   6.721 -0.3561 -0.5118  0.1208
  968MOL0     C33466   3.206   8.272   6.829  0.4368  1.0202 -0.2750
  968MOL0     C33467   3.290   8.293   6.961  0.0739  0.4033 -0.2641
  968MOL0     C33468   3.221   8.216   7.076  0.4522  0.7671  0.3971
  968MOL0     C33469   3.270   8.263   7.223  0.7655  0.1375 -0.6125
  968MOL0     O33470   3.232   8.401   7.252 -0.2240 -0.2285  0.2801
  968MOL0     C33471   3.105   8.437   7.287  0.3666  0.0786 -0.1986
  968MOL0     C33472   3.073   8.574   7.315 -0.0376 -0.5190  0.0126
  968MOL0     C33473   2.950   8.624   7.340  0.6289  0.0936 -0.3189
  968MOL0     C33474   2.962   8.778   7.366  0.1398  0.2898 -0.3110
  968MOL0     C33475   2.840   8.544   7.337 -0.0870  1.1658 -0.8893
  968MOL0     C33476   2.706   8.600   7.373  0.6319 -0.5092  0.3359
  968MOL0     O33477   2.696   8.733   7.423  0.3680  0.7939  0.2564
  968MOL0     C33478   2.579   8.800   7.409  0.3720 -0.4874  0.1731
  968MOL0     C33479   2.507   8.810   7.285 -1.2076 -0.7373  0.1821
  968MOL0     C33480   2.379   8.861   7.277 -0.0136 -0.0257  0.4897
  968MOL0     C33481   2.316   8.912   7.399  0.9242  0.0588  1.0196
  968MOL0     O33482   2.192   8.954   7.397 -0.0420  0.1432 -0.1697
  968MOL0     C33483   2.102   8.905   7.489 -0.0807 -0.5759  0.1961
  968MOL0     C33484   1.966   8.889   7.425  0.1353  0.1532 -0.0391
  968MOL0     C33485   1.871   8.821   7.521 -0.4453 -0.1011 -0.3434
  968MOL0     C33486   1.729   8.798   7.460  0.7167  0.3795 -0.4298
  968MOL0     C33487   1.608   8.757   7.542  0.7586  0.4921  0.0519
  968MOL0     C33488   1.598   8.601   7.554  1.5936 -0.1620  0.3592
  968MOL0     C33489   1.500   8.549   7.667 -0.0657  0.2800  0.1813
  968MOL0     C33490   1.559   8.419   7.721  0.6066  0.3404 -0.2693
  968MOL0    Cl33491   1.440   8.328   7.807 -0.4636 -0.0557  0.5896
  968MOL0     C33492   2.393   8.915   7.510 -0.8670 -0.3747 -0.0569
  968MOL0     C33493   2.521   8.862   7.517 -0.9224  0.7177 -0.4057
  968MOL0     O33494   2.611   8.526   7.343 -0.4546 -0.5311 -0.7219
  968MOL0     C33495   2.860   8.406   7.328 -0.3331  0.2636  0.6459
  968MOL0     C33496   2.991   8.355   7.294 -0.8266  0.9010 -0.4546
  968MOL0     N33497   3.139   8.388   6.619 -0.0069  0.1044  0.5259
  968MOL0     N33498   3.174   8.481   6.541 -0.8060  0.3411 -0.5805
  968MOL0     C33499   4.345   8.426   6.408  0.5403  1.3528  0.1001
  968MOL0     C33500   4.486   8.421   6.428 -0.1321  0.0609  0.0491
  968MOL0     C33501   4.848   8.243   6.555  0.3328 -0.1769 -0.6202
  968MOL0     C33502   4.858   8.202   6.689 -1.1799 -0.2070 -0.2524
  968MOL0     C33503   4.989   8.174   6.749 -0.0582  0.2355  0.6518
  968MOL0     C33504   5.109   8.196   6.680 -0.5512 -0.8766 -0.0725
  968MOL0     O33505   5.235   8.185   6.740 -0.0467 -0.0238 -0.4596
  968MOL0     C33506   5.358   8.209   6.671  0.0567  1.3489  0.0862
  968MOL0     C33507   5.386   8.359   6.683  1.1371  0.0417  0.4038
  968MOL0     C33508   5.525   8.387   6.632 -0.0411 -0.4254 -0.8536
  968MOL0     C33509   5.572   8.526   6.695  0.2751  0.8677  1.3527
  968MOL0     C33510   5.700   8.551   6.635 -0.1192 -0.4787 -0.6274
  968MOL0     C33511   5.807   8.588   6.586  0.8773  0.6867  0.6301
  968MOL0     C33512   5.099   8.234   6.550 -0.2069  0.1952  0.1637
  968MOL0     C33513   4.976   8.268   6.488 -0.4812  0.8083 -0.6479
  968MOL0     C33514   4.983   8.308   6.343  0.0312  0.2451 -0.0877
  968MOL0     H33515   4.575   8.213   6.180 -1.5990  1.0090 -2.4120
  968MOL0     H33516   4.323   8.206   6.149  0.4850 -1.3923  0.9279
  968MOL0     H33517   4.122   8.551   6.257 -2.4097  1.0423 -3.4563
  968MOL0     H33518   4.079   8.488   6.414  2.2759 -1.3761 -0.1942
  968MOL0     H33519   3.913   8.549   6.194  0.4228  0.3337  0.3983
  968MOL0     H33520   3.942   8.406   6.145 -3.8581 -0.2832 -0.1400
  968MOL0     H33521   3.762   8.343   6.257  0.5179  2.3217 -1.3459
  968MOL0     H33522   3.883   8.308   6.377 -0.7683  0.7761  0.9860
  968MOL0     H33523   3.759   8.432   6.520 -1.9899  0.1439 -0.2277
  968MOL0     H33524   3.830   8.577   6.455 -2.3026  1.3632  1.5267
  968MOL0     H33525   3.573   8.455   6.353  0.8030 -1.1715 -0.8160
  968MOL0     H33526   3.641   8.616   6.305 -0.7654 -1.1390 -1.1167
  968MOL0     H33527   3.547   8.551   6.584  1.3007  0.2076  0.6168
  968MOL0     H33528   3.635   8.692   6.541 -0.6895  1.1523  0.5894
  968MOL0     H33529   3.396   8.629   6.356  0.2104 -1.1846 -0.0493
  968MOL0     H33530   3.449   8.776   6.404 -3.5099  0.2447 -0.4050
  968MOL0     H33531   3.349   8.739   6.643 -0.9551  1.1777 -0.5447
  968MOL0     H33532   3.248   8.727   6.497  1.2008 -0.3921 -1.2020
  968MOL0     H33533   3.404   8.500   6.770  1.4319  0.7084 -1.7332
  968MOL0     H33534   3.230   8.171   6.794 -3.2646 -0.6711  1.5425
  968MOL0     H33535   3.100   8.271   6.857  0.2018  1.9306 -1.0593
  968MOL0     H33536   3.394   8.265   6.939  0.8335  2.2743  0.7132
  968MOL0     H33537   3.289   8.401   6.981  4.5078  0.4730  0.7161
  968MOL0     H33538   3.112   8.230   7.076  0.7483  3.6505  0.8591
  968MOL0     H33539   3.232   8.110   7.053 -1.5519  0.9033 -1.6252
  968MOL0     H33540   3.238   8.194   7.302  0.5035  1.8556  0.8666
  968MOL0     H33541   3.378   8.245   7.228  0.3072 -2.8564  0.2121
  968MOL0     H33542   3.165   8.631   7.310 -0.6787  0.4385 -2.6827
  968MOL0     H33543   2.881   8.832   7.315  0.9611  0.2928 -1.6666
  968MOL0     H33544   3.053   8.825   7.328  0.3845  0.8894  0.9639
  968MOL0     H33545   2.962   8.800   7.473  1.5826  5.0113 -1.0295
  968MOL0     H33546   2.547   8.772   7.191 -1.8330 -2.9953  0.7936
  968MOL0     H33547   2.323   8.870   7.185 -0.6321 -0.9687  0.7637
  968MOL0     H33548   2.130   8.807   7.527 -1.0258 -1.3326 -1.0122
  968MOL0     H33549   2.093   8.976   7.572 -0.5879  1.5083 -1.5321
  968MOL0     H33550   1.937   8.989   7.392  1.2078  1.6849  3.1888
  968MOL0     H33551   1.966   8.833   7.331 -0.4156 -1.3382  0.8072
  968MOL0     H33552   1.870   8.876   7.615  1.6907 -0.3528 -0.1215
  968MOL0     H33553   1.913   8.726   7.556  2.3185  0.6255 -1.4725
  968MOL0     H33554   1.752   8.733   7.375 -1.6586  0.9827 -1.6177
  968MOL0     H33555   1.706   8.895   7.414  1.0597  1.0461  0.7565
  968MOL0     H33556   1.614   8.811   7.637 -0.7726  2.2878 -0.8197
  968MOL0     H33557   1.517   8.788   7.489 -1.0028 -1.5716  1.6789
  968MOL0     H33558   1.698   8.561   7.573  2.1205  1.3490  0.8878
  968MOL0     H33559   1.573   8.555   7.458  0.4246  1.1477  0.0146
  968MOL0     H33560   1.402   8.517   7.631  0.2467 -1.4551  0.8063
  968MOL0     H33561   1.498   8.617   7.753 -1.2109  2.1425 -1.2313
  968MOL0     H33562   1.632   8.448   7.797 -0.3729  1.4176  0.2953
  968MOL0     H33563   1.595   8.351   7.643  1.0893  0.5682 -0.2506
  968MOL0     H33564   2.343   8.965   7.592 -1.5736  2.5934 -2.1305
  968MOL0     H33565   2.572   8.866   7.613  1.5846 -1.9908 -1.4843
  968MOL0     H33566   2.770   8.346   7.318 -1.4348  1.8654  0.5002
  968MOL0     H33567   3.009   8.249   7.283  2.4596  1.3975 -0.8689
  968MOL0     H33568   4.281   8.483   6.474 -3.3074 -0.4352 -1.7982
  968MOL0     H33569   4.530   8.468   6.515  0.0280  2.3406 -1.2066
  968MOL0     H33570   4.777   8.174   6.756 -0.9016 -0.0658  0.1461
  968MOL0     H33571   4.974   8.162   6.856 -0.3236 -0.9982  0.4843
  968MOL0     H33572   5.438   8.155   6.722 -1.0702 -1.5270 -0.9860
  968MOL0     H33573   5.353   8.177   6.567  1.2509  0.4949  0.2647
  968MOL0     H33574   5.368   8.384   6.787 -0.9640 -0.9778  0.3403
  968MOL0     H33575   5.313   8.424   6.634  1.6105  1.3506  1.3960
  968MOL0     H33576   5.594   8.308   6.663 -0.0045  0.5918  1.9830
  968MOL0     H33577   5.519   8.395   6.523  0.9565  0.4891 -0.8532
  968MOL0     H33578   5.565   8.527   6.804 -1.6966  0.2871  1.2581
  968MOL0     H33579   5.506   8.610   6.670 -2.0627 -0.9528  1.1459
  968MOL0     H33580   5.908   8.594   6.551  1.6070 -3.8958  1.3302
  968MOL0     H33581   5.194   8.259   6.503  0.7021 -1.5619  0.9853
  968MOL0     H33582   4.933   8.404   6.330  0.4752  0.2007 -2.7969
  968MOL0     H33583   5.081   8.321   6.295 -0.6429 -2.2647 -2.4205
  968MOL0     H33584   4.934   8.239   6.273 -0.4314  1.4783 -1.0282
  969MOL0     O33585  11.310   2.206   2.547  0.2022 -0.4218 -0.0115
  969MOL0     C33586  11.287   2.321   2.576 -0.1567 -0.1412 -0.0395
  969MOL0     O33587  11.379   2.422   2.557 -0.5818  0.0844 -0.7298
  969MOL0     C33588  11.506   2.382   2.554 -0.6493 -0.4046 -0.6182
  969MOL0     C33589  11.563   2.332   2.435 -0.4531 -0.5675  0.2398
  969MOL0     C33590  11.690   2.274   2.452  0.1357 -0.3367 -1.0924
  969MOL0     C33591  11.763   2.295   2.575 -0.2142  0.2003 -0.6618
  969MOL0     O33592  11.886   2.237   2.581 -0.0956  0.0847 -0.0003
  969MOL0     C33593  11.996   2.315   2.641  0.0143  0.5545  0.9049
  969MOL0     C33594  12.014   2.454   2.569 -0.6298  0.2693 -1.3634
  969MOL0     C33595  12.085   2.464   2.435  0.3037 -0.3840 -0.3478
  969MOL0     C33596  12.032   2.380   2.322 -0.2469  0.0093  0.2708
  969MOL0     C33597  12.128   2.413   2.203 -0.6690  0.2437 -0.4385
  969MOL0     C33598  12.060   2.389   2.064  0.2091  0.2037  0.0380
  969MOL0     C33599  12.142   2.439   1.946 -0.7844 -0.7784 -0.2134
  969MOL0     C33600  12.116   2.360   1.824  0.3170 -1.0601  0.0360
  969MOL0     N33601  12.199   2.414   1.713  0.6360 -0.4925 -0.8533
  969MOL0     C33602  12.331   2.376   1.695  1.0670 -0.4177 -1.6102
  969MOL0     C33603  12.380   2.479   1.628 -0.0447 -0.2863 -0.0453
  969MOL0     C33604  12.523   2.493   1.576 -0.2895 -0.3970 -1.1529
  969MOL0     C33605  12.529   2.465   1.423 -0.0688  0.3289  0.2727
  969MOL0     C33606  12.560   2.311   1.394 -0.0624 -0.0106  0.4431
  969MOL0     C33607  12.711   2.283   1.402 -0.2515  0.9979  0.4587
  969MOL0     O33608  12.750   2.140   1.401  0.4493 -0.1297 -0.5830
  969MOL0     C33609  12.882   2.106   1.395 -0.3572 -0.3576  0.5225
  969MOL0     C33610  12.993   2.191   1.397 -1.0203 -0.5050 -0.2770
  969MOL0     C33611  13.123   2.147   1.371  0.6283 -0.5279  0.7982
  969MOL0     C33612  13.226   2.245   1.394  0.0177 -1.1661  0.5206
  969MOL0     C33613  13.148   2.006   1.346  0.4988  0.6346 -0.3584
  969MOL0     C33614  13.286   1.947   1.328  0.1066  0.6293  0.4033
  969MOL0     O33615  13.314   1.815   1.331  0.1131 -0.5952 -0.3152
  969MOL0     C33616  13.438   1.773   1.275 -0.3304 -0.4073 -0.3575
  969MOL0     C33617  13.437   1.658   1.195 -0.5573 -0.3915 -0.0586
  969MOL0     C33618  13.551   1.604   1.149  0.3116  0.4277 -0.0808
  969MOL0     C33619  13.679   1.647   1.184 -0.4472 -0.3138  0.5070
  969MOL0     O33620  13.797   1.579   1.163 -0.2914  0.7851 -0.0700
  969MOL0     C33621  13.805   1.466   1.071 -0.6124  0.1363 -0.9656
  969MOL0     C33622  13.938   1.382   1.087 -0.2108  0.4988 -0.3570
  969MOL0     C33623  13.926   1.234   1.036  0.0804 -0.6758 -0.7256
  969MOL0     C33624  14.032   1.129   1.081 -0.9207 -0.4931  0.2137
  969MOL0     C33625  13.991   0.997   1.023 -0.9867 -0.8437  0.6652
  969MOL0     C33626  14.088   0.872   1.056  0.1509 -0.1831  0.0197
  969MOL0     C33627  14.026   0.749   0.992  0.3690 -0.0066  0.7131
  969MOL0     C33628  14.086   0.631   1.055 -1.2919 -0.6096 -0.3521
  969MOL0    Cl33629  14.008   0.607   1.216 -0.0538 -0.6107 -0.1954
  969MOL0     C33630  13.689   1.758   1.264 -0.0815  0.0757  0.5626
  969MOL0     C33631  13.569   1.819   1.318 -0.5749 -0.4596  0.6808
  969MOL0     O33632  13.364   2.027   1.278  0.8082 -0.2575  0.7950
  969MOL0     C33633  13.039   1.920   1.345 -0.3035 -0.5100 -0.4774
  969MOL0     C33634  12.908   1.973   1.372 -0.6259  0.7222  0.1491
  969MOL0     N33635  12.284   2.567   1.586 -0.0293  0.3311 -0.9261
  969MOL0     N33636  12.175   2.521   1.631  1.0947  0.1003 -0.2047
  969MOL0     C33637  11.701   2.347   2.685 -0.5882 -0.4166  0.1097
  969MOL0     C33638  11.573   2.382   2.678 -0.9511 -0.6271 -0.7936
  969MOL0     C33639  11.147   2.368   2.623 -0.2059  0.4518 -0.4188
  969MOL0     C33640  11.119   2.508   2.627  0.7116  0.5167  0.2585
  969MOL0     C33641  10.994   2.549   2.668 -0.3156  0.8397 -0.3442
  969MOL0     C33642  10.897   2.467   2.721  0.5188  0.1799  0.1677
  969MOL0     O33643  10.785   2.535   2.760  0.3180  0.2907  0.1759
  969MOL0     C33644  10.682   2.473   2.841  0.9396 -0.2116  0.3673
  969MOL0     C33645  10.588   2.389   2.751 -0.9065  0.2622  0.2489
  969MOL0     C33646  10.476   2.347   2.846  0.4783  0.6388 -0.4313
  969MOL0     C33647  10.359   2.313   2.761 -0.1993  0.0709 -0.8995
  969MOL0     C33648  10.302   2.179   2.793 -0.0129  0.3672 -0.7029
  969MOL0     C33649  10.272   2.063   2.820 -0.1438 -0.4209 -0.0533
  969MOL0     C33650  10.921   2.332   2.726 -0.2202  0.2145  0.3767
  969MOL0     C33651  11.052   2.278   2.679  1.3133  0.8390 -0.1863
  969MOL0     C33652  11.046   2.127   2.643  0.7602  0.2385  0.1998
  969MOL0     H33653  11.521   2.345   2.336  2.4491  0.2695 -0.9731
  969MOL0     H33654  11.732   2.221   2.368  0.0175  1.8496 -2.6001
  969MOL0     H33655  12.075   2.240   2.635 -0.6913 -0.0836 -1.4663
  969MOL0     H33656  11.966   2.315   2.747  0.8423  0.6674  1.1488
  969MOL0     H33657  11.914   2.498   2.572 -1.0427 -0.6788 -0.1268
  969MOL0     H33658  12.060   2.515   2.647 -0.5586 -0.4295 -0.8453
  969MOL0     H33659  12.069   2.567   2.401 -0.3429 -0.7213 -1.0764
  969MOL0     H33660  12.193   2.452   2.452  0.1348 -0.9439  0.3639
  969MOL0     H33661  12.040   2.273   2.344  2.1270 -0.5622 -2.7193
  969MOL0     H33662  11.927   2.401   2.302 -0.4102 -1.3919 -0.4866
  969MOL0     H33663  12.218   2.352   2.214 -0.9099  0.0226  0.3540
  969MOL0     H33664  12.161   2.517   2.213  0.1513 -0.1743  1.6217
  969MOL0     H33665  12.033   2.284   2.051  1.3334 -0.3659  1.8467
  969MOL0     H33666  11.964   2.440   2.077  0.0988 -0.3983  1.8886
  969MOL0     H33667  12.249   2.421   1.964 -0.0384  1.3668 -2.0415
  969MOL0     H33668  12.128   2.547   1.941  1.1755 -0.5286 -1.5336
  969MOL0     H33669  12.143   2.256   1.844  1.7444 -0.1859  3.2382
  969MOL0     H33670  12.012   2.371   1.792  0.9114 -0.3129 -1.8002
  969MOL0     H33671  12.374   2.289   1.745 -4.0191 -1.5188  1.6308
  969MOL0     H33672  12.578   2.431   1.648  0.1305  1.7994  0.5173
  969MOL0     H33673  12.550   2.597   1.596  0.4677 -0.9708  1.0359
  969MOL0     H33674  12.437   2.486   1.366  2.6554  0.7288 -4.5432
  969MOL0     H33675  12.607   2.531   1.384  0.0690  0.1423  0.2301
  969MOL0     H33676  12.508   2.247   1.466 -3.8154  1.6238 -0.5191
  969MOL0     H33677  12.522   2.270   1.300  0.6869  0.6966 -0.1813
  969MOL0     H33678  12.759   2.343   1.324 -1.6838  2.8109  0.8952
  969MOL0     H33679  12.749   2.321   1.497 -0.6730  0.1891  0.9658
  969MOL0     H33680  12.979   2.295   1.425  2.8724 -0.0352  0.4178
  969MOL0     H33681  13.289   2.215   1.479  1.7892 -1.0482 -0.7181
  969MOL0     H33682  13.192   2.340   1.435 -0.4200 -1.5143  0.9868
  969MOL0     H33683  13.284   2.255   1.302 -0.5914 -1.7658  0.0656
  969MOL0     H33684  13.342   1.610   1.175 -0.7043  0.3216 -1.2293
  969MOL0     H33685  13.544   1.512   1.091  0.8407  0.6006 -0.4226
  969MOL0     H33686  13.720   1.401   1.095  0.2586 -1.0635 -1.0114
  969MOL0     H33687  13.795   1.490   0.964 -1.3170 -2.9567 -1.6896
  969MOL0     H33688  14.027   1.428   1.043  0.8551  2.6053  3.5065
  969MOL0     H33689  13.961   1.382   1.194  0.9425  0.1885 -0.5888
  969MOL0     H33690  13.948   1.249   0.930  0.1975 -0.0192 -0.6178
  969MOL0     H33691  13.822   1.205   1.050  0.4134 -0.7044  2.3257
  969MOL0     H33692  14.015   1.126   1.189 -1.7573 -0.7707  0.0869
  969MOL0     H33693  14.136   1.144   1.051 -1.3694  1.4993 -0.4754
  969MOL0     H33694  13.883   0.984   1.032 -1.1681  0.3917  0.4009
  969MOL0     H33695  13.985   1.020   0.916 -0.7646 -2.6035  0.2448
  969MOL0     H33696  14.081   0.877   1.165  0.3774  1.4657 -0.0223
  969MOL0     H33697  14.194   0.878   1.032  0.1944  3.2919  0.6285
  969MOL0     H33698  14.057   0.749   0.887 -0.6205  1.1051  0.3955
  969MOL0     H33699  13.918   0.762   1.002  0.4715  3.0927 -1.0505
  969MOL0     H33700  14.196   0.628   1.060 -1.3031  0.0307  0.6783
  969MOL0     H33701  14.056   0.542   1.000  1.2563 -1.2550 -0.8242
  969MOL0     H33702  13.788   1.785   1.300  0.1676  0.1023 -0.1287
  969MOL0     H33703  13.572   1.905   1.384  1.8558  0.6922 -0.7800
  969MOL0     H33704  13.042   1.812   1.335  3.2390 -0.8743  2.2664
  969MOL0     H33705  12.830   1.899   1.384  0.5649 -0.5838  0.0704
  969MOL0     H33706  11.765   2.365   2.771  1.0589  4.6191 -1.8425
  969MOL0     H33707  11.520   2.428   2.760  1.8466 -0.9373  1.3455
  969MOL0     H33708  11.186   2.579   2.581  0.7233 -0.0555 -0.6334
  969MOL0     H33709  10.979   2.657   2.674 -3.2144  0.5587 -0.8970
  969MOL0     H33710  10.725   2.423   2.929 -1.2637  0.9706  2.2420
  969MOL0     H33711  10.614   2.547   2.885 -2.0563 -0.6778 -2.9906
  969MOL0     H33712  10.634   2.304   2.700 -1.0029  0.2003  0.2658
  969MOL0     H33713  10.544   2.452   2.673  1.2083  1.0527 -0.3834
  969MOL0     H33714  10.512   2.267   2.911  4.2221  0.8804 -1.9504
  969MOL0     H33715  10.439   2.436   2.898 -1.3359 -0.7618  0.8234
  969MOL0     H33716  10.380   2.321   2.653 -0.6876  0.4421 -0.9670
  969MOL0     H33717  10.276   2.380   2.785 -0.5609 -0.7968  0.3674
  969MOL0     H33718  10.240   1.965   2.851 -4.7801  0.4388 -1.4087
  969MOL0     H33719  10.851   2.254   2.754  0.4583  0.1230  1.8874
  969MOL0     H33720  11.062   2.121   2.535  1.5124 -2.4903  0.3918
  969MOL0     H33721  11.115   2.054   2.686  2.9434  1.2093 -1.4284
  969MOL0     H33722  10.943   2.096   2.663 -0.3313  3.6737  0.5341
  970MOL0     O33723   3.110   7.709   3.833  0.4494  0.4602 -0.5173
  970MOL0     C33724   3.213   7.678   3.778  0.1048 -0.3067 -0.0723
  970MOL0     O33725   3.238   7.666   3.646 -0.0388  0.0263 -1.1845
  970MOL0     C33726   3.138   7.669   3.555  0.1790  1.2901 -0.3726
  970MOL0     C33727   3.180   7.719   3.434 -0.4439  0.4287 -0.4857
  970MOL0     C33728   3.111   7.686   3.319  0.0596 -1.5105 -0.5509
  970MOL0     C33729   2.983   7.627   3.329 -0.5245 -0.2711 -0.6869
  970MOL0     O33730   2.895   7.612   3.234 -0.0547 -0.1253 -0.5155
  970MOL0     C33731   2.902   7.704   3.117 -0.6820 -0.1670 -0.8934
  970MOL0     C33732   2.787   7.685   3.033  0.9607 -0.3851  0.4089
  970MOL0     C33733   2.802   7.556   2.955 -0.2103 -0.9802 -0.6469
  970MOL0     C33734   2.669   7.544   2.872  0.9663 -0.5269 -0.0095
  970MOL0     C33735   2.630   7.412   2.796 -0.8528  0.2612 -0.0749
  970MOL0     C33736   2.705   7.404   2.666 -0.3567 -0.1176 -0.2469
  970MOL0     C33737   2.660   7.293   2.563  0.1222 -0.1297 -0.4392
  970MOL0     C33738   2.726   7.321   2.428 -0.1336 -0.1233 -0.6105
  970MOL0     N33739   2.651   7.263   2.313  0.9751  0.1698  0.4476
  970MOL0     C33740   2.666   7.300   2.179  0.0747  0.1157  0.2482
  970MOL0     C33741   2.590   7.215   2.107 -1.0994  0.3185 -0.4663
  970MOL0     C33742   2.568   7.221   1.964 -0.5215  0.3818  0.3325
  970MOL0     C33743   2.680   7.164   1.875 -0.8435 -0.3541  0.5062
  970MOL0     C33744   2.686   7.203   1.729  0.0167 -0.4796  1.0000
  970MOL0     C33745   2.556   7.168   1.657 -0.0264  0.8679  0.2207
  970MOL0     O33746   2.518   7.025   1.659 -0.2738  0.2048 -0.5157
  970MOL0     C33747   2.612   6.946   1.601  0.6568 -0.0038  0.5987
  970MOL0     C33748   2.670   6.846   1.687  0.7808 -1.4541 -0.6439
  970MOL0     C33749   2.770   6.763   1.630  0.5865  0.0473 -0.3573
  970MOL0     C33750   2.836   6.664   1.715 -0.0714  0.0760  0.3456
  970MOL0     C33751   2.808   6.770   1.493  0.5260 -0.3294 -0.2748
  970MOL0     C33752   2.911   6.694   1.424  0.0528  0.1574  0.7447
  970MOL0     O33753   3.032   6.689   1.477 -0.2111 -0.1825 -0.1246
  970MOL0     C33754   3.128   6.591   1.448  0.4446 -0.3725  0.7707
  970MOL0     C33755   3.108   6.481   1.360 -0.7366  0.4873  0.6549
  970MOL0     C33756   3.210   6.393   1.330 -0.2714 -0.4466  0.9915
  970MOL0     C33757   3.334   6.408   1.392  0.2541  0.7119 -0.2935
  970MOL0     O33758   3.433   6.314   1.373  0.8771 -0.0562  1.0523
  970MOL0     C33759   3.556   6.369   1.330  0.5903  0.2896  0.0417
  970MOL0     C33760   3.633   6.240   1.281  1.0433 -1.0582  0.0764
  970MOL0     C33761   3.745   6.284   1.186  0.4466 -0.4688  0.0175
  970MOL0     C33762   3.868   6.337   1.258  0.3926  0.3890  0.0111
  970MOL0     C33763   3.958   6.404   1.160  0.0543 -0.1414 -0.1630
  970MOL0     C33764   4.045   6.320   1.082 -0.6754  0.5944 -0.1536
  970MOL0     C33765   4.127   6.412   0.998  0.1187  0.4219 -0.0439
  970MOL0     C33766   4.256   6.346   0.933 -0.5388  0.5746 -0.0903
  970MOL0    Cl33767   4.389   6.305   1.044 -0.4884 -0.2586 -0.3972
  970MOL0     C33768   3.351   6.510   1.484  0.8849  0.1242 -0.0285
  970MOL0     C33769   3.247   6.608   1.495 -0.2705  0.5686 -0.9906
  970MOL0     O33770   2.889   6.658   1.303 -0.0696  0.6576 -0.0154
  970MOL0     C33771   2.737   6.868   1.415  0.1278  0.0546  0.1265
  970MOL0     C33772   2.648   6.961   1.468 -0.0122 -0.0780 -0.6923
  970MOL0     N33773   2.521   7.134   2.197 -0.2308 -0.7394 -0.0445
  970MOL0     N33774   2.558   7.166   2.313 -0.4055 -0.3096 -0.8569
  970MOL0     C33775   2.937   7.591   3.453  0.0517  0.7382  0.3696
  970MOL0     C33776   3.016   7.607   3.568 -0.2362 -1.1134  0.0528
  970MOL0     C33777   3.317   7.650   3.873  1.0626  0.1702  0.4809
  970MOL0     C33778   3.344   7.521   3.891 -0.1773 -0.7702 -0.7144
  970MOL0     C33779   3.440   7.480   3.993 -0.7583 -0.8056 -0.6595
  970MOL0     C33780   3.515   7.572   4.060 -0.5798 -0.4495  0.4524
  970MOL0     O33781   3.613   7.537   4.150  0.6219 -0.8091 -0.4963
  970MOL0     C33782   3.738   7.516   4.087  0.4708  0.1236  0.2834
  970MOL0     C33783   3.843   7.495   4.202 -0.2569 -0.9807 -0.2020
  970MOL0     C33784   3.838   7.368   4.267  1.2908 -0.8650  0.5237
  970MOL0     C33785   3.913   7.267   4.174 -0.5539 -0.1206  0.6149
  970MOL0     C33786   3.961   7.151   4.246  0.7387 -0.7701  0.5513
  970MOL0     C33787   4.000   7.058   4.305  0.8600  0.3478  0.5763
  970MOL0     C33788   3.474   7.709   4.051  0.8445  0.0052  0.2592
  970MOL0     C33789   3.382   7.745   3.952 -0.4543 -0.5584  0.4106
  970MOL0     C33790   3.364   7.888   3.936 -0.0521 -0.3587  0.4469
  970MOL0     H33791   3.267   7.784   3.433 -1.2628  1.5600 -0.7366
  970MOL0     H33792   3.152   7.720   3.224  0.4477 -3.0615 -0.9697
  970MOL0     H33793   2.996   7.691   3.062  0.2839  2.7068 -0.1299
  970MOL0     H33794   2.909   7.800   3.170 -0.3742 -1.0525  0.7565
  970MOL0     H33795   2.694   7.696   3.090  2.3934  1.4662  2.5992
  970MOL0     H33796   2.784   7.769   2.964  2.4848  0.9620  1.8968
  970MOL0     H33797   2.885   7.557   2.884 -0.5359 -0.5026 -1.0310
  970MOL0     H33798   2.793   7.465   3.016 -4.0118 -1.2285 -1.3016
  970MOL0     H33799   2.582   7.570   2.933  0.1989 -1.2113 -0.7873
  970MOL0     H33800   2.668   7.627   2.800 -3.1565 -5.1693 -6.4016
  970MOL0     H33801   2.524   7.404   2.770 -0.2091  1.2730 -3.6187
  970MOL0     H33802   2.648   7.328   2.863 -0.2781  0.3256 -0.1462
  970MOL0     H33803   2.707   7.498   2.611  1.6216  1.4008  2.2091
  970MOL0     H33804   2.809   7.378   2.687 -0.7030  0.4184  2.5506
  970MOL0     H33805   2.551   7.301   2.555 -0.1447 -0.6982  1.8898
  970MOL0     H33806   2.669   7.192   2.604 -2.0584 -0.8019 -1.4929
  970MOL0     H33807   2.719   7.427   2.403 -1.8633 -0.5659 -2.2606
  970MOL0     H33808   2.825   7.276   2.415  1.5845  4.0892 -4.9951
  970MOL0     H33809   2.727   7.382   2.144 -2.0158  1.6760  0.0828
  970MOL0     H33810   2.549   7.323   1.931 -0.0034  0.0123 -1.1579
  970MOL0     H33811   2.480   7.158   1.947 -0.6372 -0.1099  2.4506
  970MOL0     H33812   2.775   7.202   1.914 -0.0578 -0.4787 -1.2049
  970MOL0     H33813   2.695   7.056   1.887  1.3361 -0.6909 -3.4834
  970MOL0     H33814   2.721   7.304   1.704 -2.4749  0.3227  0.4772
  970MOL0     H33815   2.761   7.142   1.677 -0.4087  1.1797 -1.7660
  970MOL0     H33816   2.466   7.218   1.694 -1.0863 -0.6404 -0.2261
  970MOL0     H33817   2.566   7.201   1.553 -3.0950  0.3476 -0.3483
  970MOL0     H33818   2.630   6.849   1.788 -0.9154  0.5438 -1.2880
  970MOL0     H33819   2.820   6.562   1.678  1.0563 -0.8151  2.2368
  970MOL0     H33820   2.790   6.665   1.814 -0.1193 -0.6297  0.3351
  970MOL0     H33821   2.944   6.679   1.716  0.1358 -0.3550 -3.0915
  970MOL0     H33822   3.014   6.449   1.318 -0.3561 -1.6105  1.2591
  970MOL0     H33823   3.187   6.310   1.265 -2.3459  0.7449  0.0994
  970MOL0     H33824   3.546   6.439   1.247  0.1137 -0.4021 -0.4883
  970MOL0     H33825   3.612   6.423   1.408 -0.2536  1.5059 -0.1616
  970MOL0     H33826   3.667   6.183   1.369 -2.1697 -1.2566  1.3453
  970MOL0     H33827   3.567   6.176   1.221  2.4282 -0.2684 -2.4210
  970MOL0     H33828   3.696   6.357   1.121 -1.3833 -2.0694 -0.4960
  970MOL0     H33829   3.784   6.201   1.126 -0.5419 -4.0859  3.8669
  970MOL0     H33830   3.929   6.260   1.305 -0.8833 -1.4135 -1.1644
  970MOL0     H33831   3.823   6.408   1.329 -1.1254  0.7256 -1.2325
  970MOL0     H33832   3.887   6.454   1.093  0.3646  3.5969  2.0592
  970MOL0     H33833   4.020   6.478   1.211 -1.9000  1.3877  0.1297
  970MOL0     H33834   3.979   6.258   1.020 -0.8161 -2.8849  3.1223
  970MOL0     H33835   4.118   6.261   1.138 -1.1067 -0.7796 -0.9809
  970MOL0     H33836   4.159   6.491   1.066 -0.0504 -1.6725  2.6234
  970MOL0     H33837   4.062   6.447   0.917  1.0107  0.7427 -0.6419
  970MOL0     H33838   4.294   6.406   0.850 -0.4269 -1.4936 -1.6179
  970MOL0     H33839   4.211   6.263   0.878  0.4492 -0.0027 -0.0513
  970MOL0     H33840   3.449   6.521   1.530  1.4272  0.6402 -1.2393
  970MOL0     H33841   3.266   6.689   1.565  0.1074  2.4376 -3.1311
  970MOL0     H33842   2.758   6.864   1.309  2.1475 -0.9928  0.5187
  970MOL0     H33843   2.603   7.027   1.395  0.4856  1.2738  0.1805
  970MOL0     H33844   2.838   7.548   3.460  0.0426  0.4295 -1.2410
  970MOL0     H33845   2.982   7.562   3.660 -0.4098 -0.2021  0.4525
  970MOL0     H33846   3.282   7.444   3.846 -2.0738 -1.1542  2.2713
  970MOL0     H33847   3.444   7.373   4.009 -0.8917 -0.8560 -0.9625
  970MOL0     H33848   3.735   7.426   4.026  1.5736 -1.4385  2.4076
  970MOL0     H33849   3.761   7.603   4.025  0.9953 -1.0904 -1.2873
  970MOL0     H33850   3.821   7.577   4.271 -2.6834 -0.0959 -1.9250
  970MOL0     H33851   3.948   7.514   4.178 -0.3027  0.4508  0.6141
  970MOL0     H33852   3.890   7.386   4.362  3.3670  3.4421 -1.1719
  970MOL0     H33853   3.732   7.346   4.286  0.0631  2.3530 -1.7785
  970MOL0     H33854   4.001   7.311   4.125 -0.1166  2.0603  3.1171
  970MOL0     H33855   3.850   7.219   4.098 -0.6773  0.6567  0.2121
  970MOL0     H33856   4.041   6.995   4.382  2.1524  1.2510  0.6684
  970MOL0     H33857   3.536   7.775   4.112  1.8600 -0.3065 -0.4069
  970MOL0     H33858   3.393   7.957   4.016 -0.8768 -0.4115  0.8024
  970MOL0     H33859   3.408   7.913   3.839 -2.3281 -0.8806 -0.8095
  970MOL0     H33860   3.257   7.901   3.916  0.3472 -0.1228 -1.8605
  971MOL0     O33861   1.772   1.437   2.300  0.9183  0.2833 -0.6021
  971MOL0     C33862   1.822   1.516   2.220  0.0123 -0.2112  0.4292
  971MOL0     O33863   1.944   1.518   2.167 -0.2024  0.3067  0.3326
  971MOL0     C33864   2.031   1.417   2.166 -0.6480  0.3540 -0.7242
  971MOL0     C33865   2.076   1.339   2.273  0.0735  0.6130  0.1896
  971MOL0     C33866   2.152   1.223   2.244 -0.7307 -0.4299  0.2364
  971MOL0     C33867   2.202   1.199   2.115  1.2707 -0.4604 -0.3786
  971MOL0     O33868   2.291   1.095   2.098 -0.3367  0.5495  0.6131
  971MOL0     C33869   2.299   1.034   1.963  0.6893  0.0583 -0.4718
  971MOL0     C33870   2.415   1.085   1.875 -0.3832  0.2250 -0.2954
  971MOL0     C33871   2.536   1.099   1.968  0.2915  0.1836 -0.3027
  971MOL0     C33872   2.657   1.132   1.886  0.2874 -0.6580  0.5414
  971MOL0     C33873   2.755   1.209   1.974  0.1852  0.1113 -0.3803
  971MOL0     C33874   2.884   1.258   1.905 -0.3817  0.3119 -0.0910
  971MOL0     C33875   2.846   1.330   1.778  0.5879  0.4446 -0.0168
  971MOL0     C33876   2.748   1.452   1.796 -0.6757  0.1852  0.4472
  971MOL0     N33877   2.750   1.548   1.684 -0.1270  0.3115 -0.1848
  971MOL0     C33878   2.697   1.533   1.559  0.6088  0.0433  0.5715
  971MOL0     C33879   2.744   1.639   1.491 -0.3409 -1.0715 -0.0696
  971MOL0     C33880   2.710   1.675   1.347  1.0975 -0.2296 -0.6926
  971MOL0     C33881   2.694   1.542   1.258 -0.0026  0.3847 -0.2144
  971MOL0     C33882   2.830   1.465   1.242  0.0748  0.2161  0.1730
  971MOL0     C33883   2.807   1.322   1.186  0.7300  0.2620 -0.5772
  971MOL0     O33884   2.730   1.234   1.262 -0.5453  0.5269  0.3332
  971MOL0     C33885   2.787   1.170   1.370 -1.0139 -0.2540  0.8338
  971MOL0     C33886   2.920   1.190   1.420 -0.1537 -0.7355 -0.6126
  971MOL0     C33887   2.975   1.108   1.523  0.5541  0.5469  0.4433
  971MOL0     C33888   3.120   1.132   1.551  0.8325  0.4099 -0.5781
  971MOL0     C33889   2.883   1.005   1.582 -0.1794  0.7095  0.2339
  971MOL0     C33890   2.928   0.908   1.684  0.3900  0.6659 -0.3428
  971MOL0     O33891   3.049   0.921   1.750  0.1242  0.3719  0.4760
  971MOL0     C33892   3.087   0.850   1.858  0.3776 -0.5052  0.7862
  971MOL0     C33893   3.208   0.792   1.866 -0.2448  0.2131  0.0732
  971MOL0     C33894   3.248   0.711   1.978 -0.2724  0.7297 -0.5906
  971MOL0     C33895   3.163   0.695   2.095  0.1329 -0.2764 -0.3325
  971MOL0     O33896   3.224   0.620   2.200  0.1110  0.2249  0.2446
  971MOL0     C33897   3.160   0.644   2.323 -0.8665 -0.5530  0.1090
  971MOL0     C33898   3.221   0.559   2.428  0.0125  0.6805 -0.1797
  971MOL0     C33899   3.126   0.492   2.528 -0.1851  0.0415 -0.3178
  971MOL0     C33900   3.191   0.372   2.604 -0.2261 -0.0136  0.8795
  971MOL0     C33901   3.113   0.352   2.731 -0.6940  1.0485 -0.5505
  971MOL0     C33902   3.162   0.248   2.831 -0.9223  0.1404  0.2666
  971MOL0     C33903   3.159   0.107   2.777 -0.1017 -0.7053 -0.8198
  971MOL0     C33904   3.219   0.008   2.882 -0.1764  0.1822  0.0882
  971MOL0    Cl33905   3.210  -0.154   2.804 -0.1326 -0.4609  0.2172
  971MOL0     C33906   3.041   0.762   2.091 -0.1491  0.3619  0.4114
  971MOL0     C33907   3.005   0.845   1.976 -0.1166  0.2668  0.9159
  971MOL0     O33908   2.853   0.811   1.699  0.5156  0.0788 -0.6718
  971MOL0     C33909   2.756   0.987   1.529  0.4904  0.2002 -0.4912
  971MOL0     C33910   2.710   1.067   1.425  0.2082 -0.3713 -0.4349
  971MOL0     N33911   2.829   1.711   1.574 -0.2328 -0.0885  0.2637
  971MOL0     N33912   2.836   1.650   1.687  0.0657 -0.0637  0.9022
  971MOL0     C33913   2.160   1.287   2.014  0.6176  0.5148 -0.2692
  971MOL0     C33914   2.080   1.392   2.044  0.4118 -1.4632  0.3890
  971MOL0     C33915   1.735   1.635   2.174  0.0238  0.0424  0.5113
  971MOL0     C33916   1.793   1.745   2.124 -0.0334 -0.2140  0.3138
  971MOL0     C33917   1.727   1.864   2.087 -0.6532  0.1081 -0.7081
  971MOL0     C33918   1.595   1.876   2.099  0.8255  0.1569 -0.8021
  971MOL0     O33919   1.519   1.992   2.089 -0.3669  0.0989  0.1538
  971MOL0     C33920   1.415   1.987   1.993  0.8658 -0.4410  0.7197
  971MOL0     C33921   1.371   2.132   1.962  0.0458  1.2673 -0.2967
  971MOL0     C33922   1.273   2.125   1.850  0.1251 -0.4834 -0.6177
  971MOL0     C33923   1.218   2.259   1.800 -0.9383  0.2637 -0.8487
  971MOL0     C33924   1.126   2.310   1.902  0.4076  0.7782  0.4370
  971MOL0     C33925   1.029   2.332   1.973 -0.2620  0.1197  0.1032
  971MOL0     C33926   1.532   1.763   2.159  0.9309  0.1499 -0.6907
  971MOL0     C33927   1.600   1.642   2.193 -0.5347 -0.0602  0.1616
  971MOL0     C33928   1.501   1.538   2.241 -0.6314 -0.0215 -0.0614
  971MOL0     H33929   2.042   1.366   2.373 -0.8544  0.5441 -0.0949
  971MOL0     H33930   2.187   1.162   2.326  1.9648  0.1225 -0.4155
  971MOL0     H33931   2.202   1.047   1.915  1.2115 -0.6489 -1.7714
  971MOL0     H33932   2.313   0.929   1.988  2.6916  1.0399  3.4450
  971MOL0     H33933   2.429   1.015   1.792 -4.1403  0.6199 -1.4305
  971MOL0     H33934   2.387   1.183   1.837 -1.4130 -0.1380 -0.4983
  971MOL0     H33935   2.504   1.167   2.047 -0.7901 -0.9715  0.2779
  971MOL0     H33936   2.552   1.010   2.030  0.2159  1.6591  1.9290
  971MOL0     H33937   2.697   1.037   1.849 -0.4042 -1.6129  2.1251
  971MOL0     H33938   2.612   1.197   1.811 -2.6491 -2.7921  0.2870
  971MOL0     H33939   2.785   1.151   2.062 -0.2463  2.0858  1.1181
  971MOL0     H33940   2.709   1.296   2.022 -1.2874 -2.6399  3.7600
  971MOL0     H33941   2.935   1.321   1.978  0.0486 -0.5170  0.3267
  971MOL0     H33942   2.948   1.175   1.876 -0.7890 -0.5200  1.3135
  971MOL0     H33943   2.798   1.263   1.706  3.1596  0.5361 -1.9588
  971MOL0     H33944   2.935   1.370   1.727 -0.5097 -0.4548 -2.8316
  971MOL0     H33945   2.647   1.419   1.822 -0.5065 -0.9157 -0.2309
  971MOL0     H33946   2.764   1.501   1.893 -0.4833 -1.1767  1.1337
  971MOL0     H33947   2.627   1.458   1.523 -0.1684  0.6901  0.7166
  971MOL0     H33948   2.774   1.751   1.301 -0.0092  1.8000  0.9276
  971MOL0     H33949   2.617   1.733   1.350  1.1202 -0.2362  0.6129
  971MOL0     H33950   2.612   1.480   1.296 -0.6524  1.6782  0.5572
  971MOL0     H33951   2.658   1.567   1.158 -0.4417 -0.5720 -0.3105
  971MOL0     H33952   2.881   1.521   1.163  0.1474  1.0018  0.7635
  971MOL0     H33953   2.897   1.464   1.329  1.5470 -0.6916 -0.9195
  971MOL0     H33954   2.764   1.325   1.085  0.0285 -0.3262 -0.3081
  971MOL0     H33955   2.908   1.282   1.170  0.8266 -0.1048  0.8156
  971MOL0     H33956   2.979   1.266   1.371 -1.1060  0.6591  0.3397
  971MOL0     H33957   3.167   1.034   1.559  2.0155  1.0786  1.3224
  971MOL0     H33958   3.135   1.186   1.644  2.2239 -0.6505 -0.1605
  971MOL0     H33959   3.175   1.185   1.472  2.1275 -2.1673 -1.5113
  971MOL0     H33960   3.266   0.810   1.777  2.6496  2.2557  2.1686
  971MOL0     H33961   3.350   0.674   1.974 -0.3325  0.1158  1.8940
  971MOL0     H33962   3.171   0.749   2.351  1.2124 -1.2351  2.2131
  971MOL0     H33963   3.059   0.610   2.302 -0.3965 -0.7498 -2.0664
  971MOL0     H33964   3.260   0.467   2.382 -0.0572  0.2191  0.6706
  971MOL0     H33965   3.300   0.611   2.484  1.1510 -3.3386  2.3274
  971MOL0     H33966   3.033   0.452   2.488 -0.0774 -1.1747  0.5814
  971MOL0     H33967   3.087   0.570   2.593 -1.8365 -0.0438 -1.1692
  971MOL0     H33968   3.294   0.387   2.635 -0.3772  1.5219  0.7374
  971MOL0     H33969   3.192   0.285   2.538 -2.9090 -0.6530  1.5409
  971MOL0     H33970   3.098   0.443   2.789 -1.8438 -0.0984  1.0572
  971MOL0     H33971   3.014   0.318   2.699  0.3657 -0.7118 -2.1808
  971MOL0     H33972   3.088   0.257   2.911 -0.5157 -1.7183  0.8795
  971MOL0     H33973   3.262   0.280   2.862 -0.6727  1.3424 -1.6077
  971MOL0     H33974   3.230   0.093   2.696  0.3463 -0.1880 -0.5235
  971MOL0     H33975   3.057   0.083   2.744  0.4252 -3.1363 -0.7965
  971MOL0     H33976   3.159   0.010   2.973 -1.4159 -3.4752 -0.4809
  971MOL0     H33977   3.323   0.037   2.903 -0.7011  2.8268 -0.5997
  971MOL0     H33978   2.972   0.768   2.175  0.2027 -0.9137  0.8241
  971MOL0     H33979   2.910   0.897   1.988 -0.7573 -1.3464  3.6347
  971MOL0     H33980   2.693   0.901   1.549  1.4400 -0.7152 -1.3376
  971MOL0     H33981   2.612   1.042   1.385 -1.7544 -1.0995  4.1639
  971MOL0     H33982   2.176   1.275   1.908 -2.1875 -2.2324 -0.5265
  971MOL0     H33983   2.048   1.460   1.966  4.2385 -3.1277 -3.0292
  971MOL0     H33984   1.897   1.771   2.104 -0.7810  2.4240 -0.5689
  971MOL0     H33985   1.793   1.944   2.055 -2.0564  1.4774 -0.2819
  971MOL0     H33986   1.441   1.933   1.901  0.8802 -0.1137  0.5319
  971MOL0     H33987   1.323   1.951   2.039  1.1244 -2.3887 -0.1764
  971MOL0     H33988   1.453   2.199   1.936  2.8862 -2.3238 -1.3613
  971MOL0     H33989   1.327   2.177   2.052  0.2900 -1.3203  1.2204
  971MOL0     H33990   1.333   2.095   1.764 -0.9141  2.2491 -2.4286
  971MOL0     H33991   1.187   2.061   1.869 -1.3782  0.2464 -4.2458
  971MOL0     H33992   1.157   2.239   1.712  0.4315 -1.0875 -1.5561
  971MOL0     H33993   1.292   2.333   1.765  0.7662 -0.9015  0.1288
  971MOL0     H33994   0.945   2.355   2.036 -0.1423  1.6390 -0.2653
  971MOL0     H33995   1.427   1.769   2.187  1.2102  2.3044  0.1005
  971MOL0     H33996   1.421   1.526   2.168 -1.4750  2.7536  0.3168
  971MOL0     H33997   1.544   1.438   2.254  0.5854  0.5804  0.8132
  971MOL0     H33998   1.455   1.565   2.336  0.3386 -0.6281  0.6018
  972MOL0     O33999  10.963  10.440  10.601  0.3352  0.5907  0.1216
  972MOL0     C34000  10.967  10.480  10.721  0.6843 -0.9563  0.3583
  972MOL0     O34001  11.079  10.525  10.793  0.5772  0.1248 -0.0815
  972MOL0     C34002  11.190  10.546  10.711 -0.8426  0.0658  0.9936
  972MOL0     C34003  11.189  10.645  10.616  0.8582  0.3885  0.2298
  972MOL0     C34004  11.305  10.669  10.542  0.7447 -0.1753 -0.8640
  972MOL0     C34005  11.423  10.596  10.554 -0.7064 -0.3862 -0.0861
  972MOL0     O34006  11.541  10.628  10.496 -0.2096  0.2228  0.0757
  972MOL0     C34007  11.537  10.764  10.438 -0.8513  1.1170 -0.0324
  972MOL0     C34008  11.680  10.826  10.404 -0.5899 -0.5041  0.1866
  972MOL0     C34009  11.754  10.889  10.521 -0.2932 -0.8032  0.1410
  972MOL0     C34010  11.908  10.911  10.489  0.3053  0.3452  0.2107
  972MOL0     C34011  11.976  10.966  10.615  0.1212 -0.3687 -0.0822
  972MOL0     C34012  12.131  10.988  10.593  0.1065  0.6818  0.0579
  972MOL0     C34013  12.205  11.058  10.718 -0.4638  0.3509 -0.0315
  972MOL0     C34014  12.125  11.023  10.851 -0.1841  0.7685 -0.0149
  972MOL0     N34015  12.187  11.094  10.970 -0.1862 -0.0531  0.6393
  972MOL0     C34016  12.293  11.044  11.034  0.7055  0.7869 -0.2835
  972MOL0     C34017  12.323  11.145  11.121 -0.5289  0.0475  0.3567
  972MOL0     C34018  12.443  11.134  11.216  0.7227  0.0527  0.1556
  972MOL0     C34019  12.571  11.100  11.146  0.3848  0.8720  0.0405
  972MOL0     C34020  12.589  10.943  11.146  0.4559  0.1161  0.5043
  972MOL0     C34021  12.649  10.891  11.018 -0.0828 -0.0589  0.3983
  972MOL0     O34022  12.575  10.932  10.900 -0.3383  0.7778 -0.0141
  972MOL0     C34023  12.616  10.857  10.797  0.7592  0.8777  0.4219
  972MOL0     C34024  12.549  10.737  10.788 -0.9571 -0.3350  0.8272
  972MOL0     C34025  12.574  10.652  10.680  0.3176 -0.2489 -0.2013
  972MOL0     C34026  12.481  10.531  10.659  0.1711  0.1218  0.5510
  972MOL0     C34027  12.656  10.706  10.575  1.6149  0.5869 -0.0684
  972MOL0     C34028  12.675  10.633  10.451 -0.5248  0.6799 -0.2009
  972MOL0     O34029  12.700  10.707  10.339  0.7909 -0.2603  0.0821
  972MOL0     C34030  12.719  10.644  10.221 -0.7851 -0.3831 -0.3610
  972MOL0     C34031  12.852  10.612  10.196 -0.0150  0.2316 -0.3847
  972MOL0     C34032  12.875  10.561  10.074 -0.4823 -0.2806 -0.6584
  972MOL0     C34033  12.775  10.530   9.983  0.9471 -0.5121  0.5410
  972MOL0     O34034  12.795  10.463   9.860 -0.2511 -0.4020  0.1043
  972MOL0     C34035  12.912  10.395   9.853 -0.1954 -0.0589  0.1664
  972MOL0     C34036  12.912  10.303   9.736  0.0264 -0.4732  0.5095
  972MOL0     C34037  13.028  10.198   9.742  0.1169 -0.0416  0.0883
  972MOL0     C34038  13.002  10.089   9.649  0.1420  0.1320  0.6254
  972MOL0     C34039  13.104   9.986   9.645 -0.5633  0.2128  0.0072
  972MOL0     C34040  13.078   9.886   9.528  0.4357  0.2566  0.2922
  972MOL0     C34041  13.199   9.792   9.504  0.3343  0.7325 -0.3518
  972MOL0     C34042  13.197   9.690   9.622  0.7514  0.1918  0.2170
  972MOL0    Cl34043  13.100   9.543   9.584 -0.2107 -0.2962 -0.1837
  972MOL0     C34044  12.643  10.569  10.011 -0.3059  0.4961  0.1198
  972MOL0     C34045  12.616  10.639  10.127  0.4333  1.2765  0.1890
  972MOL0     O34046  12.701  10.506  10.462 -0.7861 -0.0951  0.1289
  972MOL0     C34047  12.722  10.828  10.589 -0.4176 -0.4866  1.5464
  972MOL0     C34048  12.700  10.907  10.699 -0.4986 -0.2536  0.4184
  972MOL0     N34049  12.239  11.252  11.105  0.2467 -0.3291 -0.1620
  972MOL0     N34050  12.151  11.216  11.012 -0.9090 -0.6557  0.2803
  972MOL0     C34051  11.433  10.508  10.657  0.6829  0.8557 -0.8774
  972MOL0     C34052  11.317  10.481  10.736 -0.4112  0.0062 -0.2869
  972MOL0     C34053  10.840  10.495  10.793  0.9636  0.0071 -0.1541
  972MOL0     C34054  10.728  10.536  10.721  0.6656 -0.2793 -0.2018
  972MOL0     C34055  10.607  10.555  10.782  0.2795 -0.4449  1.2769
  972MOL0     C34056  10.586  10.533  10.912 -0.0411 -0.1444  0.3499
  972MOL0     O34057  10.455  10.536  10.948 -0.2497 -0.1960 -0.0609
  972MOL0     C34058  10.413  10.516  11.085 -0.3609 -0.0636 -0.6689
  972MOL0     C34059  10.268  10.489  11.086 -0.2295  0.0865  0.4248
  972MOL0     C34060  10.223  10.450  11.226  0.3996 -0.9871 -0.6092
  972MOL0     C34061  10.153  10.303  11.230 -0.5342 -0.3317  0.4016
  972MOL0     C34062  10.011  10.320  11.190  0.1036  0.3873 -0.4126
  972MOL0     C34063   9.896  10.330  11.154 -0.8687  0.1358 -0.7684
  972MOL0     C34064  10.692  10.495  10.993 -0.1580  0.1049  0.1797
  972MOL0     C34065  10.820  10.465  10.932  0.4056  0.2314 -0.5688
  972MOL0     C34066  10.932  10.416  11.009  0.3239 -0.3165  0.2556
  972MOL0     H34067  11.102  10.701  10.584 -0.1781 -1.6837 -0.7653
  972MOL0     H34068  11.298  10.751  10.472  3.2582  1.1189  0.2668
  972MOL0     H34069  11.507  10.834  10.516  0.9365  3.6456 -1.4842
  972MOL0     H34070  11.477  10.754  10.347 -0.6807  1.8418 -0.2276
  972MOL0     H34071  11.726  10.754  10.335 -4.8043 -1.6622 -1.7717
  972MOL0     H34072  11.674  10.915  10.341 -1.2190  1.8083  3.3027
  972MOL0     H34073  11.707  10.986  10.538  2.2393  0.1612  2.3975
  972MOL0     H34074  11.743  10.829  10.612 -1.2138  3.4743  3.1642
  972MOL0     H34075  11.949  10.809  10.484  1.1036  0.7285 -2.0041
  972MOL0     H34076  11.915  10.974  10.400  1.5947 -2.6089 -1.9668
  972MOL0     H34077  11.959  10.897  10.698  0.6327  3.2620  3.3251
  972MOL0     H34078  11.925  11.060  10.640  1.6465  0.3501  0.4263
  972MOL0     H34079  12.179  10.892  10.572 -0.6047  0.4073 -0.3243
  972MOL0     H34080  12.147  11.046  10.501  0.1058  1.2191  0.3932
  972MOL0     H34081  12.201  11.165  10.697  2.1196  1.0900  2.5465
  972MOL0     H34082  12.307  11.019  10.732 -0.9913 -0.9048  0.4922
  972MOL0     H34083  12.023  11.061  10.846  0.5006  2.5936 -2.3176
  972MOL0     H34084  12.128  10.915  10.864 -3.5099  0.6504  0.6531
  972MOL0     H34085  12.333  10.945  11.017  0.4125  0.8366 -1.3123
  972MOL0     H34086  12.426  11.052  11.286  1.3950  1.7534  2.4108
  972MOL0     H34087  12.465  11.225  11.272 -0.3950  1.0092 -0.9035
  972MOL0     H34088  12.565  11.139  11.044  2.9333  0.1697 -0.4397
  972MOL0     H34089  12.658  11.145  11.195  2.0223 -0.2612 -1.7120
  972MOL0     H34090  12.648  10.904  11.230  0.8232 -1.8310 -0.5838
  972MOL0     H34091  12.495  10.886  11.146  2.2451 -3.0925 -0.2661
  972MOL0     H34092  12.753  10.920  10.997  0.7644 -0.8592  3.1440
  972MOL0     H34093  12.652  10.783  11.033 -1.5263  0.2339  3.5165
  972MOL0     H34094  12.484  10.713  10.872  0.1868 -0.4432  1.7161
  972MOL0     H34095  12.467  10.512  10.552  2.2543 -2.5672  0.6701
  972MOL0     H34096  12.381  10.556  10.697 -0.4077  1.9329 -1.8698
  972MOL0     H34097  12.512  10.433  10.696 -2.8494 -1.4288 -0.6720
  972MOL0     H34098  12.927  10.627  10.273  0.2318 -0.2600 -0.5230
  972MOL0     H34099  12.978  10.541  10.046  0.3033  0.9433  1.1519
  972MOL0     H34100  12.995  10.466   9.845 -0.2826  0.1514  1.0922
  972MOL0     H34101  12.916  10.330   9.941 -0.6231 -2.6960 -1.6207
  972MOL0     H34102  12.815  10.251   9.732 -0.8535  1.1519 -1.1946
  972MOL0     H34103  12.926  10.359   9.643  3.7748  0.1887  1.3044
  972MOL0     H34104  13.033  10.169   9.847 -1.5786  0.4039  0.3304
  972MOL0     H34105  13.129  10.238   9.729  1.2619 -1.5017  3.4592
  972MOL0     H34106  12.984  10.129   9.549  3.1869  0.0599 -0.0457
  972MOL0     H34107  12.914  10.034   9.684  0.0549 -1.7119 -2.2274
  972MOL0     H34108  13.201  10.031   9.622 -0.0015 -1.9768 -2.3560
  972MOL0     H34109  13.104   9.932   9.741  2.4293  1.9288  1.0850
  972MOL0     H34110  13.067   9.942   9.435  0.6145  0.9137  0.6538
  972MOL0     H34111  12.980   9.845   9.556 -0.4960  1.2816 -1.2805
  972MOL0     H34112  13.288   9.855   9.507 -0.3617  1.6776  1.8807
  972MOL0     H34113  13.199   9.735   9.410 -2.4264 -2.3936  1.3526
  972MOL0     H34114  13.163   9.721   9.721 -1.5695  0.6616 -0.6448
  972MOL0     H34115  13.298   9.652   9.636 -0.3749 -3.7776 -0.9231
  972MOL0     H34116  12.567  10.558   9.934 -0.9117 -2.0580  0.9500
  972MOL0     H34117  12.519  10.678  10.153  0.5168  4.4840 -3.5110
  972MOL0     H34118  12.796  10.849  10.512 -2.6578  3.1873  0.1147
  972MOL0     H34119  12.758  10.998  10.710  0.3274 -0.3961 -2.2205
  972MOL0     H34120  11.524  10.459  10.690 -0.7441  1.7203  5.4704
  972MOL0     H34121  11.334  10.413  10.819 -0.5796  0.8036  0.4187
  972MOL0     H34122  10.734  10.548  10.614  1.6903  0.5164 -0.0722
  972MOL0     H34123  10.529  10.581  10.711  1.3197 -2.4392 -0.7236
  972MOL0     H34124  10.465  10.427  11.121 -1.4094  0.1447  1.5153
  972MOL0     H34125  10.437  10.604  11.146 -0.7789 -0.7196  0.4534
  972MOL0     H34126  10.257  10.406  11.016  1.5282 -0.2741  0.5297
  972MOL0     H34127  10.212  10.572  11.043  2.2180  0.8049 -1.5702
  972MOL0     H34128  10.318  10.446  11.280  0.3516  2.6619 -0.0262
  972MOL0     H34129  10.161  10.524  11.277  2.0301 -0.0908  0.1396
  972MOL0     H34130  10.154  10.265  11.333  0.1994  1.7961  1.2335
  972MOL0     H34131  10.211  10.235  11.166 -0.6163  1.3194 -1.5060
  972MOL0     H34132   9.791  10.330  11.132 -0.7246 -1.8567 -1.6848
  972MOL0     H34133  10.675  10.472  11.097  3.7212 -1.0327  0.7033
  972MOL0     H34134  10.985  10.339  10.953 -0.3762  0.2476 -1.2368
  972MOL0     H34135  11.001  10.499  11.030  0.0029 -0.6556  3.1247
  972MOL0     H34136  10.902  10.376  11.107 -1.5261 -0.8138 -0.4675
  973MOL0     O34137   1.325  11.450   1.967 -0.1708  0.2114 -0.0641
  973MOL0     C34138   1.390  11.535   2.026 -0.5387  1.0800 -0.4261
  973MOL0     O34139   1.437  11.525   2.151  0.7423 -0.9489  0.9569
  973MOL0     C34140   1.484  11.405   2.197  0.2132  0.0019 -0.0898
  973MOL0     C34141   1.482  11.367   2.328  0.5626 -0.1029 -0.1139
  973MOL0     C34142   1.529  11.244   2.372  0.5069  0.4388  0.2976
  973MOL0     C34143   1.585  11.154   2.278  0.6698 -0.1391 -0.3070
  973MOL0     O34144   1.642  11.040   2.320  0.3035  0.0705 -0.2182
  973MOL0     C34145   1.615  10.989   2.450  0.1303  0.6986  0.2151
  973MOL0     C34146   1.644  10.837   2.455  1.0742  0.6534  0.7804
  973MOL0     C34147   1.789  10.806   2.488 -0.4894 -0.3204 -0.2151
  973MOL0     C34148   1.843  10.670   2.437  0.2616  0.2015 -0.2429
  973MOL0     C34149   1.797  10.561   2.527  0.5987  0.5758 -1.4860
  973MOL0     C34150   1.852  10.415   2.495  0.7048  0.4174 -0.2235
  973MOL0     C34151   2.001  10.391   2.519  0.0784 -0.2357  0.6633
  973MOL0     C34152   2.058  10.401   2.661  0.9654  0.4048  0.3787
  973MOL0     N34153   2.205  10.384   2.659  0.9847 -0.1455  0.4916
  973MOL0     C34154   2.266  10.320   2.768 -0.9264  0.0248 -0.4416
  973MOL0     C34155   2.393  10.283   2.719 -0.1649 -1.0136 -0.1138
  973MOL0     C34156   2.501  10.228   2.805  0.6786 -0.1979  0.3293
  973MOL0     C34157   2.626  10.312   2.823 -0.5900 -0.5073  0.3021
  973MOL0     C34158   2.722  10.318   2.707 -0.7129 -0.1596  0.4517
  973MOL0     C34159   2.822  10.433   2.732 -0.1570  0.2596 -0.9127
  973MOL0     O34160   2.904  10.420   2.854 -0.4701  0.4238  0.1424
  973MOL0     C34161   3.022  10.346   2.845 -0.7041  0.8978  1.0379
  973MOL0     C34162   3.107  10.344   2.963  1.2866 -0.0736  0.7012
  973MOL0     C34163   3.224  10.275   2.963  0.8830  0.1722 -0.2221
  973MOL0     C34164   3.292  10.290   3.098  2.2014  0.5945 -0.3144
  973MOL0     C34165   3.260  10.190   2.859  1.0040 -0.5587 -0.6732
  973MOL0     C34166   3.357  10.084   2.867  0.3523  0.1509  0.2999
  973MOL0     O34167   3.410  10.040   2.756 -0.6711 -0.1039 -0.1759
  973MOL0     C34168   3.491   9.931   2.739  0.1680  0.0514  0.4305
  973MOL0     C34169   3.479   9.822   2.823 -0.9638 -0.0029 -1.0813
  973MOL0     C34170   3.547   9.699   2.797  1.1091 -0.2337 -0.2958
  973MOL0     C34171   3.642   9.693   2.689 -0.3551 -0.0634 -0.6018
  973MOL0     O34172   3.708   9.578   2.660  0.0246 -0.0574 -0.0869
  973MOL0     C34173   3.698   9.464   2.744 -0.1577 -0.0073  0.0842
  973MOL0     C34174   3.791   9.465   2.871  0.3673 -0.2452  1.3883
  973MOL0     C34175   3.802   9.334   2.942 -0.5028  1.0388 -0.0504
  973MOL0     C34176   3.674   9.286   3.013  0.3858 -0.0137 -0.4700
  973MOL0     C34177   3.611   9.391   3.103 -0.3866  0.6548  0.2693
  973MOL0     C34178   3.475   9.349   3.156 -0.0700  0.4832  0.1319
  973MOL0     C34179   3.373   9.311   3.044 -0.4090  0.2540 -1.0598
  973MOL0     C34180   3.231   9.331   3.096  0.5214  0.3219  0.9174
  973MOL0    Cl34181   3.122   9.307   2.955  0.6576  0.4939  0.3686
  973MOL0     C34182   3.652   9.807   2.613 -0.5831 -0.6451 -1.0046
  973MOL0     C34183   3.572   9.922   2.633 -0.1558 -0.6927  0.0993
  973MOL0     O34184   3.381  10.036   2.975 -0.6356 -0.5968 -0.6022
  973MOL0     C34185   3.182  10.193   2.740 -0.0331 -0.2608 -0.7769
  973MOL0     C34186   3.069  10.272   2.733 -0.2330 -0.1953 -0.2800
  973MOL0     N34187   2.399  10.315   2.585  0.0193  0.8253 -0.0934
  973MOL0     N34188   2.287  10.376   2.550 -0.6677 -0.7035 -0.1240
  973MOL0     C34189   1.603  11.190   2.147 -0.1789 -0.0400  0.8841
  973MOL0     C34190   1.562  11.322   2.108 -0.2635  0.6635 -0.4622
  973MOL0     C34191   1.413  11.668   1.950 -1.2443  0.0988  0.3487
  973MOL0     C34192   1.418  11.661   1.810  0.1334  0.5963  0.2345
  973MOL0     C34193   1.427  11.780   1.731  0.2026  0.2932  1.0910
  973MOL0     C34194   1.447  11.907   1.792 -0.3502 -0.5330  0.6334
  973MOL0     O34195   1.470  12.023   1.722 -0.2910 -0.0299  0.1207
  973MOL0     C34196   1.602  12.013   1.666  0.8630 -0.5324 -0.3615
  973MOL0     C34197   1.659  12.138   1.593  0.3336  0.4006 -0.1163
  973MOL0     C34198   1.563  12.171   1.475  0.2633  0.1845  0.6204
  973MOL0     C34199   1.639  12.155   1.346 -0.3650  0.0131  0.7930
  973MOL0     C34200   1.565  12.221   1.234 -0.4929 -0.8990  0.2943
  973MOL0     C34201   1.523  12.261   1.130 -0.3303  0.3793  0.3293
  973MOL0     C34202   1.445  11.904   1.930  1.1015 -0.2654  0.5679
  973MOL0     C34203   1.430  11.793   2.014 -0.2286  0.7348  0.5251
  973MOL0     C34204   1.415  11.842   2.155 -0.2663  0.2472 -0.2676
  973MOL0     H34205   1.435  11.442   2.391 -0.9622  1.3738 -2.7904
  973MOL0     H34206   1.528  11.219   2.478  1.7408  0.9314  0.4476
  973MOL0     H34207   1.517  11.025   2.481  0.3641  1.2972  0.2786
  973MOL0     H34208   1.677  11.045   2.521  1.0498 -0.5641  0.4581
  973MOL0     H34209   1.580  10.784   2.526 -1.1960  1.5735 -0.4638
  973MOL0     H34210   1.616  10.800   2.356 -1.4193  2.9705  0.5132
  973MOL0     H34211   1.853  10.884   2.445 -2.9527  0.7576 -2.1399
  973MOL0     H34212   1.803  10.808   2.596  1.3226 -3.5692 -0.2453
  973MOL0     H34213   1.808  10.644   2.336 -1.9141 -1.7998  0.9522
  973MOL0     H34214   1.952  10.664   2.431  0.6380  0.7349  3.6926
  973MOL0     H34215   1.687  10.557   2.527  0.5519 -0.9320  1.3584
  973MOL0     H34216   1.830  10.587   2.628 -0.8952 -0.1758 -0.7696
  973MOL0     H34217   1.789  10.340   2.544 -0.2378  2.5733  2.1010
  973MOL0     H34218   1.835  10.394   2.389 -0.1152 -5.5715  0.7656
  973MOL0     H34219   2.056  10.462   2.457  4.5225 -3.0992  0.8644
  973MOL0     H34220   2.025  10.294   2.476 -0.0656  0.6373 -1.5175
  973MOL0     H34221   2.027  10.498   2.701 -0.1800 -0.2259  1.0923
  973MOL0     H34222   2.017  10.318   2.720  0.0280  1.7199  1.6438
  973MOL0     H34223   2.234  10.317   2.872 -1.3194  0.4218 -0.5487
  973MOL0     H34224   2.538  10.137   2.757 -2.1828 -0.9744 -0.5698
  973MOL0     H34225   2.462  10.206   2.904 -2.4044 -0.6442 -0.8913
  973MOL0     H34226   2.583  10.409   2.851  1.1578  0.6645 -0.8737
  973MOL0     H34227   2.687  10.273   2.905  0.8512  0.1197 -0.4355
  973MOL0     H34228   2.768  10.221   2.690 -0.9524 -0.0237 -1.0868
  973MOL0     H34229   2.667  10.343   2.616  0.2533 -2.5222 -0.8829
  973MOL0     H34230   2.888  10.423   2.645 -1.5636 -1.0913 -1.8737
  973MOL0     H34231   2.774  10.531   2.734  3.8066  2.4037  0.3662
  973MOL0     H34232   3.078  10.426   3.027  0.0951  0.9917 -1.1120
  973MOL0     H34233   3.279  10.190   3.140 -0.4764  0.5712 -1.0723
  973MOL0     H34234   3.244  10.362   3.165 -1.7754 -0.5258 -1.7009
  973MOL0     H34235   3.399  10.297   3.076  2.5809 -4.5223 -1.3134
  973MOL0     H34236   3.413   9.823   2.909  0.5795  1.7793  0.1669
  973MOL0     H34237   3.535   9.618   2.868  1.0591  0.8312  0.9534
  973MOL0     H34238   3.595   9.436   2.764  0.0850  1.3962  4.4290
  973MOL0     H34239   3.751   9.389   2.685  1.3104 -0.1101  1.4576
  973MOL0     H34240   3.891   9.501   2.847 -0.6392  1.8767  0.0561
  973MOL0     H34241   3.751   9.545   2.934  0.8525  0.7304  0.4812
  973MOL0     H34242   3.875   9.352   3.022  0.5183 -2.6932  0.0718
  973MOL0     H34243   3.836   9.252   2.877 -1.6905 -0.3100  0.9627
  973MOL0     H34244   3.708   9.204   3.077  2.0414  0.7409 -0.3360
  973MOL0     H34245   3.599   9.252   2.941 -3.2368 -0.3364  3.0710
  973MOL0     H34246   3.685   9.418   3.179 -0.1868  2.0964 -0.4057
  973MOL0     H34247   3.591   9.483   3.048 -3.9139 -0.0759  0.1046
  973MOL0     H34248   3.449   9.442   3.206 -1.6117  0.5304 -0.6851
  973MOL0     H34249   3.482   9.277   3.238 -1.7752 -0.5367 -0.5533
  973MOL0     H34250   3.394   9.207   3.015 -0.6447  0.7145 -2.9797
  973MOL0     H34251   3.380   9.375   2.956 -1.3652  0.0821 -1.2671
  973MOL0     H34252   3.223   9.432   3.138  0.8006  0.6309  0.2434
  973MOL0     H34253   3.203   9.263   3.176  2.6534 -0.2928  1.2156
  973MOL0     H34254   3.731   9.811   2.539  0.5960 -0.7839  0.2034
  973MOL0     H34255   3.575  10.001   2.559 -0.3079  1.1937  2.0293
  973MOL0     H34256   3.189  10.128   2.653 -2.8506 -2.0085  0.1837
  973MOL0     H34257   3.011  10.246   2.646  0.7545  0.3177 -1.1091
  973MOL0     H34258   1.652  11.124   2.076  1.0862  1.2510  0.5114
  973MOL0     H34259   1.584  11.346   2.005  1.5455 -2.5048 -0.9204
  973MOL0     H34260   1.419  11.562   1.767  0.7911  0.0644  1.4330
  973MOL0     H34261   1.425  11.771   1.623 -0.7356 -0.7450  1.1788
  973MOL0     H34262   1.655  11.990   1.759  0.3816 -0.4369 -0.0589
  973MOL0     H34263   1.611  11.923   1.605 -2.1792 -3.1029  2.5710
  973MOL0     H34264   1.760  12.114   1.558  1.0038 -1.0111  2.5258
  973MOL0     H34265   1.673  12.228   1.654  3.0836 -1.1205  1.7034
  973MOL0     H34266   1.475  12.106   1.474  0.6698 -0.4028  1.6606
  973MOL0     H34267   1.552  12.280   1.481  2.4225  0.5138 -0.3115
  973MOL0     H34268   1.649  12.049   1.318 -1.2526  0.4706 -1.4980
  973MOL0     H34269   1.743  12.189   1.355  0.4235 -1.9462 -0.2253
  973MOL0     H34270   1.485  12.304   1.040 -0.8801  0.5400  0.6285
  973MOL0     H34271   1.458  12.003   1.974 -4.2984  1.0236  0.0648
  973MOL0     H34272   1.380  11.946   2.157  1.9924  1.2372 -3.7037
  973MOL0     H34273   1.347  11.778   2.211  1.3415 -1.0938  0.2118
  973MOL0     H34274   1.511  11.837   2.206 -0.6461 -1.5953  0.3355
  974MOL0     O34275   6.290   2.677   3.093 -0.1111  0.7210  0.0576
  974MOL0     C34276   6.358   2.725   3.181 -0.5829  0.9923  0.1423
  974MOL0     O34277   6.305   2.815   3.266 -0.1414 -0.8289  0.4937
  974MOL0     C34278   6.190   2.874   3.236 -0.0014 -0.3984  0.8539
  974MOL0     C34279   6.181   2.985   3.145 -0.3375 -0.7468 -0.1943
  974MOL0     C34280   6.068   3.062   3.143  0.3280  0.0429  0.7306
  974MOL0     C34281   5.940   3.022   3.201 -0.4833 -0.1634 -0.1117
  974MOL0     O34282   5.837   3.108   3.173  0.6972  0.3492 -0.5563
  974MOL0     C34283   5.712   3.080   3.224 -0.1472 -0.0922 -0.5326
  974MOL0     C34284   5.594   3.168   3.173  0.2910 -0.7542  0.0399
  974MOL0     C34285   5.603   3.310   3.229 -0.3352  0.8735  0.1265
  974MOL0     C34286   5.680   3.395   3.121 -1.0531 -0.1856 -0.1717
  974MOL0     C34287   5.744   3.526   3.177 -1.0065 -0.8546  0.2265
  974MOL0     C34288   5.818   3.600   3.069 -0.7412  0.6104 -0.0734
  974MOL0     C34289   5.962   3.547   3.054  0.4671 -0.2226 -0.7069
  974MOL0     C34290   6.048   3.651   2.986 -0.2204 -0.6373 -0.6926
  974MOL0     N34291   6.002   3.696   2.851 -0.4671 -0.2962 -0.3857
  974MOL0     C34292   5.957   3.616   2.750  0.7386 -0.6635  0.6166
  974MOL0     C34293   5.915   3.688   2.645 -0.4321 -0.5275  0.8281
  974MOL0     C34294   5.879   3.639   2.500 -0.0129  0.2238 -0.6639
  974MOL0     C34295   5.801   3.502   2.502 -0.2696 -0.6003  0.1498
  974MOL0     C34296   5.692   3.495   2.599  0.5541 -0.1894 -0.1117
  974MOL0     C34297   5.711   3.385   2.712 -0.7079  0.4258  0.2506
  974MOL0     O34298   5.604   3.286   2.707  0.0738 -0.8593 -0.3821
  974MOL0     C34299   5.472   3.320   2.751 -0.8863 -0.3911  0.2306
  974MOL0     C34300   5.374   3.226   2.739 -1.3445  1.2052 -0.2845
  974MOL0     C34301   5.241   3.245   2.764  0.0899 -0.2990 -0.0597
  974MOL0     C34302   5.156   3.132   2.729 -0.4597  0.7435  0.2293
  974MOL0     C34303   5.197   3.375   2.801  0.1725 -0.9866  0.2548
  974MOL0     C34304   5.057   3.409   2.831 -0.6472  0.4128 -0.4543
  974MOL0     O34305   5.015   3.535   2.805 -0.4009  0.4622  0.1519
  974MOL0     C34306   4.911   3.603   2.864  0.4443 -0.7500  0.9927
  974MOL0     C34307   4.860   3.704   2.787 -0.2734 -0.3691  0.0415
  974MOL0     C34308   4.752   3.786   2.821 -1.1831  0.3378 -0.0751
  974MOL0     C34309   4.701   3.760   2.947  0.8166 -0.1093  0.2207
  974MOL0     O34310   4.595   3.841   2.992  0.8445  0.7807  0.3700
  974MOL0     C34311   4.531   3.816   3.119  0.2573  0.6987 -1.1165
  974MOL0     C34312   4.390   3.874   3.141 -1.0583 -0.5619 -0.6906
  974MOL0     C34313   4.412   4.032   3.140  0.0765  0.3371 -0.4673
  974MOL0     C34314   4.295   4.104   3.209  0.8473 -0.3986  0.5757
  974MOL0     C34315   4.332   4.252   3.225 -0.1145  0.0811 -0.2852
  974MOL0     C34316   4.244   4.338   3.313  0.4389 -0.4847  0.2916
  974MOL0     C34317   4.096   4.317   3.262 -0.0845  0.0988  0.0810
  974MOL0     C34318   4.071   4.396   3.132  0.2086  0.4347  0.5846
  974MOL0    Cl34319   3.890   4.385   3.090 -0.3167 -0.1179 -0.3287
  974MOL0     C34320   4.747   3.656   3.026  0.3671 -0.0207  0.2751
  974MOL0     C34321   4.844   3.568   2.977 -0.8368  0.4286  0.0316
  974MOL0     O34322   4.985   3.326   2.894  0.3297  1.0766 -0.0157
  974MOL0     C34323   5.295   3.476   2.814  0.9172  0.3998  0.2043
  974MOL0     C34324   5.433   3.444   2.798 -0.3907 -1.3362  0.0394
  974MOL0     N34325   5.944   3.818   2.691 -0.8340  0.1604  0.5586
  974MOL0     N34326   5.988   3.822   2.810  0.2317  0.3914  0.4002
  974MOL0     C34327   5.956   2.914   3.289 -0.0372  0.8640 -0.5482
  974MOL0     C34328   6.074   2.836   3.304 -0.0120  0.1969 -0.4176
  974MOL0     C34329   6.497   2.680   3.205  0.6284  0.5996  0.2107
  974MOL0     C34330   6.544   2.694   3.337 -0.4465  0.0602 -0.8010
  974MOL0     C34331   6.667   2.642   3.366  0.8000  0.0261  0.2216
  974MOL0     C34332   6.752   2.580   3.274  0.1535  0.0050  0.7373
  974MOL0     O34333   6.884   2.551   3.301  0.5351 -0.1583 -0.2061
  974MOL0     C34334   6.978   2.526   3.205  0.3627  0.6154  0.3133
  974MOL0     C34335   7.121   2.508   3.264  0.1554 -0.3298  0.1486
  974MOL0     C34336   7.129   2.406   3.386 -1.2274 -0.7782  0.1491
  974MOL0     C34337   7.274   2.409   3.429 -0.4410  0.2808  0.8327
  974MOL0     C34338   7.364   2.325   3.339  0.6233 -0.0155  0.7743
  974MOL0     C34339   7.431   2.270   3.258  0.5809 -0.6543  0.3248
  974MOL0     C34340   6.702   2.567   3.142  1.2878  0.2404  0.3247
  974MOL0     C34341   6.570   2.616   3.105 -0.2226  0.1162  0.9234
  974MOL0     C34342   6.532   2.603   2.958 -0.0204 -0.5915 -0.0509
  974MOL0     H34343   6.269   3.011   3.086 -0.3561 -0.7128 -0.2069
  974MOL0     H34344   6.072   3.162   3.103  0.1713  1.3935  3.8342
  974MOL0     H34345   5.718   3.088   3.333  0.7884 -1.3631 -0.4580
  974MOL0     H34346   5.684   2.975   3.205  2.5963 -0.8535 -0.7846
  974MOL0     H34347   5.575   3.163   3.065  2.0215  0.6612 -0.3599
  974MOL0     H34348   5.505   3.129   3.224  0.5532  1.1945  2.1251
  974MOL0     H34349   5.503   3.352   3.236 -0.1779  1.6236 -1.5838
  974MOL0     H34350   5.645   3.315   3.330 -3.5468 -2.8058  1.8761
  974MOL0     H34351   5.759   3.330   3.082 -2.2717 -5.0058  4.2601
  974MOL0     H34352   5.616   3.428   3.039 -1.6339  3.1103  1.4634
  974MOL0     H34353   5.799   3.504   3.269 -3.3792 -2.5652  1.3300
  974MOL0     H34354   5.664   3.588   3.217 -1.5741 -0.9190 -0.7683
  974MOL0     H34355   5.773   3.581   2.971 -1.5520  0.1818  0.3736
  974MOL0     H34356   5.816   3.705   3.099  1.2032  1.8928 -3.7438
  974MOL0     H34357   5.963   3.452   3.000  1.0321 -2.0866  2.3266
  974MOL0     H34358   6.010   3.536   3.152 -0.8711  0.4362  0.0544
  974MOL0     H34359   6.066   3.740   3.047  2.8413 -1.1508 -0.6850
  974MOL0     H34360   6.147   3.606   2.990  0.7294  1.3866  2.6906
  974MOL0     H34361   5.956   3.507   2.749 -1.6003 -0.6983  0.8579
  974MOL0     H34362   5.971   3.619   2.445  0.9754 -0.4652  1.1464
  974MOL0     H34363   5.822   3.717   2.448  0.8154  1.1793 -0.1819
  974MOL0     H34364   5.759   3.485   2.402  1.9040  1.0748 -1.1511
  974MOL0     H34365   5.875   3.422   2.506  1.8811  0.9047 -3.6303
  974MOL0     H34366   5.686   3.596   2.639  0.2790  1.3714 -3.6567
  974MOL0     H34367   5.601   3.468   2.545 -0.6959 -1.2947  2.4253
  974MOL0     H34368   5.801   3.324   2.700 -1.0149 -0.1285  0.7130
  974MOL0     H34369   5.728   3.418   2.815 -0.3941 -2.7300  1.3059
  974MOL0     H34370   5.416   3.136   2.695 -0.5547  1.5743 -0.3029
  974MOL0     H34371   5.068   3.123   2.793 -1.2583  3.1642 -0.4366
  974MOL0     H34372   5.215   3.040   2.745 -1.2942  0.1172 -0.2289
  974MOL0     H34373   5.121   3.137   2.626  3.1213  0.8916 -1.1451
  974MOL0     H34374   4.905   3.710   2.688  2.3586 -0.5572  1.1650
  974MOL0     H34375   4.716   3.869   2.762 -1.4844  0.3855  0.1750
  974MOL0     H34376   4.507   3.710   3.125 -0.1914  0.8591  3.2148
  974MOL0     H34377   4.605   3.834   3.197  0.2767 -3.2481 -0.0417
  974MOL0     H34378   4.317   3.844   3.065 -1.9316  1.3170 -0.6318
  974MOL0     H34379   4.352   3.837   3.237  2.8004 -2.3097  0.3827
  974MOL0     H34380   4.425   4.065   3.036  3.5561  0.9257  0.0344
  974MOL0     H34381   4.505   4.063   3.190  0.2264 -1.8943  0.7435
  974MOL0     H34382   4.277   4.074   3.313 -1.9621 -0.5296  0.1228
  974MOL0     H34383   4.214   4.092   3.137  1.6813  1.8463 -0.8639
  974MOL0     H34384   4.429   4.248   3.276 -0.5338  0.1646  0.5444
  974MOL0     H34385   4.345   4.291   3.124  1.9924 -3.8498 -1.7420
  974MOL0     H34386   4.273   4.443   3.301 -0.9341 -0.0782  0.4373
  974MOL0     H34387   4.246   4.303   3.416  1.7135 -1.7949 -0.1405
  974MOL0     H34388   4.040   4.364   3.343 -0.6732 -0.7110  0.1629
  974MOL0     H34389   4.064   4.212   3.261 -0.5476  0.2141  1.2840
  974MOL0     H34390   4.131   4.350   3.054 -3.9539 -5.4257  0.1519
  974MOL0     H34391   4.106   4.498   3.147  0.5828  0.2146  1.2917
  974MOL0     H34392   4.710   3.640   3.127  2.5847 -0.6534  1.0394
  974MOL0     H34393   4.877   3.478   3.028  1.8530  0.2003 -1.8837
  974MOL0     H34394   5.262   3.574   2.848  1.2098  0.6589 -0.2548
  974MOL0     H34395   5.512   3.517   2.814 -0.2101 -1.7730  1.2484
  974MOL0     H34396   5.869   2.899   3.352 -1.1459 -1.1244 -2.4019
  974MOL0     H34397   6.076   2.756   3.378 -0.5017  0.3980 -0.1814
  974MOL0     H34398   6.484   2.740   3.415 -0.0539 -2.5040  1.1247
  974MOL0     H34399   6.698   2.651   3.470 -3.6943 -2.9022  2.1114
  974MOL0     H34400   6.953   2.427   3.166  2.0840 -1.4460  3.8629
  974MOL0     H34401   6.978   2.599   3.124 -0.4207 -1.1237 -1.3329
  974MOL0     H34402   7.157   2.603   3.303 -1.9977  0.6141 -0.0354
  974MOL0     H34403   7.187   2.469   3.186 -0.5195  1.5486 -1.4143
  974MOL0     H34404   7.068   2.432   3.473 -0.5360 -0.9958  0.7075
  974MOL0     H34405   7.093   2.311   3.348 -0.7321 -0.8171 -0.2319
  974MOL0     H34406   7.279   2.380   3.534 -0.7465  0.7506  0.9797
  974MOL0     H34407   7.299   2.515   3.427  0.4095  0.0834  0.2509
  974MOL0     H34408   7.503   2.226   3.192 -1.9781 -4.0800 -0.4712
  974MOL0     H34409   6.765   2.524   3.065 -0.4933 -0.6373 -0.7277
  974MOL0     H34410   6.485   2.509   2.926  1.6801 -1.4230 -0.2296
  974MOL0     H34411   6.467   2.688   2.936  1.4642  0.4180 -0.6221
  974MOL0     H34412   6.613   2.615   2.887 -1.3620 -1.9543 -1.9043
  975MOL0     O34413   9.221   6.452   7.254  0.7566 -0.1554  0.3157
  975MOL0     C34414   9.160   6.498   7.351  0.3667  0.6924  0.4341
  975MOL0     O34415   9.220   6.546   7.462  0.0312 -0.1929 -0.3172
  975MOL0     C34416   9.362   6.537   7.480  0.1007 -0.6657  0.1995
  975MOL0     C34417   9.452   6.443   7.427  0.0036  0.7667  0.1786
  975MOL0     C34418   9.580   6.456   7.461  0.3239  0.5284  0.1358
  975MOL0     C34419   9.633   6.557   7.547  0.3145 -0.8140  0.2015
  975MOL0     O34420   9.772   6.581   7.557 -0.2796 -0.6606 -0.2348
  975MOL0     C34421   9.870   6.501   7.494  0.0898  1.1021  0.0272
  975MOL0     C34422  10.008   6.521   7.564 -0.6581 -0.1195 -0.1972
  975MOL0     C34423   9.995   6.486   7.715  1.0097  1.1017  0.3566
  975MOL0     C34424  10.080   6.352   7.748 -0.2664 -0.3073 -0.3559
  975MOL0     C34425  10.030   6.273   7.863 -0.5043 -0.6334  0.4854
  975MOL0     C34426  10.050   6.347   7.998 -0.1137  0.1506 -0.1806
  975MOL0     C34427  10.032   6.259   8.114 -0.8015 -0.4503 -0.1746
  975MOL0     C34428  10.093   6.303   8.246 -0.0293 -0.6954 -0.1779
  975MOL0     N34429  10.019   6.422   8.299 -1.0676 -0.3157  0.3337
  975MOL0     C34430   9.990   6.443   8.431 -0.0766 -0.6450 -0.4378
  975MOL0     C34431   9.978   6.576   8.442 -0.1592  0.0438  0.5635
  975MOL0     C34432   9.972   6.650   8.573  0.6944  1.0223 -0.8539
  975MOL0     C34433   9.922   6.791   8.551 -0.6268 -0.5060  0.3801
  975MOL0     C34434   9.912   6.861   8.691  0.7435 -0.1287  1.0816
  975MOL0     C34435   9.864   7.004   8.682  0.9352 -0.5074 -0.2563
  975MOL0     O34436   9.949   7.082   8.591  0.3361 -0.1943  0.6539
  975MOL0     C34437   9.934   7.215   8.579 -0.8355 -0.1921  1.0597
  975MOL0     C34438   9.876   7.303   8.666 -0.4625  0.0415  0.7437
  975MOL0     C34439   9.880   7.444   8.636  1.1079 -0.2463 -0.9830
  975MOL0     C34440   9.794   7.529   8.734  0.4287 -0.1987 -0.5405
  975MOL0     C34441   9.942   7.496   8.523 -0.0903  0.5693 -0.3241
  975MOL0     C34442   9.948   7.639   8.480  0.0491  0.0945 -0.4221
  975MOL0     O34443   9.852   7.724   8.526  0.3328 -0.3513 -0.1693
  975MOL0     C34444   9.829   7.849   8.479 -0.5164 -0.0274 -0.4706
  975MOL0     C34445   9.928   7.946   8.428 -0.6801 -0.2468 -0.3054
  975MOL0     C34446   9.899   8.082   8.416  0.5661  0.5151  1.3291
  975MOL0     C34447   9.763   8.134   8.438  0.4255 -0.7110 -0.6406
  975MOL0     O34448   9.725   8.264   8.424 -0.6331 -0.1479  0.9903
  975MOL0     C34449   9.838   8.348   8.401 -0.1386  0.3251 -0.7672
  975MOL0     C34450   9.798   8.494   8.436 -0.2167  1.0567 -0.3458
  975MOL0     C34451   9.902   8.594   8.379  0.5436  0.8146  0.7817
  975MOL0     C34452   9.860   8.737   8.417  0.2434  0.9078  0.1370
  975MOL0     C34453   9.915   8.832   8.316  0.3454 -0.0150  0.1174
  975MOL0     C34454   9.914   8.978   8.373 -0.0124  1.0211 -0.9683
  975MOL0     C34455   9.918   9.088   8.265  1.2600 -0.0895 -0.3616
  975MOL0     C34456   9.925   9.227   8.325  0.2018 -0.4108  0.0968
  975MOL0    Cl34457   9.876   9.347   8.206 -0.4393  0.0469  0.3910
  975MOL0     C34458   9.677   8.041   8.503 -0.2619 -0.1144  1.1632
  975MOL0     C34459   9.702   7.900   8.507 -1.3328  0.9750 -0.0030
  975MOL0     O34460  10.033   7.669   8.393  0.4343  0.0020  0.2730
  975MOL0     C34461  10.002   7.403   8.432  0.5974  0.7290  0.1356
  975MOL0     C34462  10.007   7.265   8.476 -0.9430 -0.4255  0.6292
  975MOL0     N34463   9.988   6.632   8.322 -0.0068  0.3890 -0.0454
  975MOL0     N34464  10.018   6.541   8.234  0.4245 -0.2764  0.4181
  975MOL0     C34465   9.536   6.640   7.610 -0.5066  0.5232 -0.5925
  975MOL0     C34466   9.407   6.632   7.582  1.1405  0.0624 -0.3470
  975MOL0     C34467   9.016   6.524   7.332  0.4184  0.2915  0.4815
  975MOL0     C34468   8.928   6.431   7.268  0.7477  0.0803  0.6789
  975MOL0     C34469   8.796   6.466   7.244 -0.2147 -0.0575 -1.1766
  975MOL0     C34470   8.743   6.597   7.266 -0.5750  0.6518  0.1523
  975MOL0     O34471   8.622   6.637   7.210 -1.0331  0.1454 -0.2058
  975MOL0     C34472   8.574   6.766   7.241 -0.1083 -0.7491  0.7720
  975MOL0     C34473   8.444   6.794   7.168 -0.9257 -0.6185  0.7867
  975MOL0     C34474   8.316   6.718   7.221 -0.0970  0.2517 -0.1783
  975MOL0     C34475   8.234   6.630   7.124 -0.8844 -0.9786 -0.3913
  975MOL0     C34476   8.314   6.515   7.100 -0.1950 -0.4238  0.0109
  975MOL0     C34477   8.388   6.421   7.080  0.7264  0.1152  0.0035
  975MOL0     C34478   8.827   6.684   7.332 -0.1185  0.3044 -0.3237
  975MOL0     C34479   8.959   6.654   7.371 -0.4329 -0.3910 -0.4467
  975MOL0     C34480   9.028   6.765   7.448 -0.2921  0.1937 -1.0907
  975MOL0     H34481   9.426   6.369   7.352  0.5600  0.1777  0.5612
  975MOL0     H34482   9.635   6.382   7.405 -0.7968 -1.8470  1.9456
  975MOL0     H34483   9.877   6.512   7.386  0.7424  0.4731  0.0035
  975MOL0     H34484   9.849   6.399   7.528  1.3850  1.6893  2.9675
  975MOL0     H34485  10.092   6.463   7.523  0.2484  0.1045  1.2665
  975MOL0     H34486  10.033   6.627   7.559 -1.5798  0.4484  4.0339
  975MOL0     H34487  10.035   6.559   7.786 -2.1872  1.8527  1.5563
  975MOL0     H34488   9.893   6.478   7.752  1.1266  1.0374  0.6756
  975MOL0     H34489  10.071   6.286   7.661 -0.5004 -0.8038  0.0382
  975MOL0     H34490  10.182   6.387   7.765 -0.0588  0.8122 -3.3012
  975MOL0     H34491  10.073   6.173   7.853 -0.5293 -0.5712 -0.2807
  975MOL0     H34492   9.923   6.260   7.844 -0.3968 -0.6240 -0.1366
  975MOL0     H34493  10.144   6.402   7.990 -1.1345  1.8403 -1.4026
  975MOL0     H34494   9.974   6.425   8.006  0.6380  0.7097  2.4189
  975MOL0     H34495  10.071   6.160   8.090  0.8446 -0.5912  2.7026
  975MOL0     H34496   9.924   6.253   8.129 -0.9185 -2.7910 -1.4902
  975MOL0     H34497  10.088   6.215   8.311  0.1046 -1.0427 -0.6266
  975MOL0     H34498  10.195   6.342   8.248 -1.1380  3.2523  6.0932
  975MOL0     H34499   9.956   6.368   8.502 -1.3756 -1.4128 -1.8381
  975MOL0     H34500  10.072   6.657   8.616  1.2409  0.5856 -2.0239
  975MOL0     H34501   9.898   6.606   8.640  0.2291  3.0121  0.0374
  975MOL0     H34502  10.000   6.842   8.493 -1.1591  0.9178  0.8567
  975MOL0     H34503   9.825   6.806   8.501 -0.0395  4.0324  0.1360
  975MOL0     H34504   9.852   6.794   8.753 -0.0353 -1.4012 -0.9374
  975MOL0     H34505  10.013   6.869   8.733  0.6985  1.3783  0.9479
  975MOL0     H34506   9.762   7.011   8.643  1.2380  1.4402 -0.7746
  975MOL0     H34507   9.860   7.054   8.779 -0.1500 -1.3516  0.1546
  975MOL0     H34508   9.818   7.255   8.743 -1.1207 -1.4290 -0.6135
  975MOL0     H34509   9.835   7.623   8.771 -0.6653 -0.4438  1.4294
  975MOL0     H34510   9.758   7.469   8.819 -0.7729 -1.2251 -1.7358
  975MOL0     H34511   9.700   7.550   8.683 -0.4462 -1.0280  0.6875
  975MOL0     H34512  10.030   7.914   8.408  0.0654  1.9664 -0.2993
  975MOL0     H34513   9.975   8.136   8.360  2.0612 -2.3858  0.3519
  975MOL0     H34514   9.919   8.317   8.467 -0.3227  3.0096  0.8720
  975MOL0     H34515   9.866   8.354   8.296  1.4870 -1.1222 -0.4693
  975MOL0     H34516   9.699   8.519   8.396 -2.8630 -3.6928  2.3578
  975MOL0     H34517   9.770   8.500   8.541 -0.0791 -0.1199 -0.2270
  975MOL0     H34518   9.913   8.577   8.272  0.3505 -1.1764  1.0371
  975MOL0     H34519   9.997   8.580   8.431 -0.2342 -1.3189  1.7393
  975MOL0     H34520   9.887   8.757   8.521 -1.7544 -0.4955  0.9876
  975MOL0     H34521   9.752   8.756   8.412  0.5334  2.7915  0.0601
  975MOL0     H34522  10.014   8.809   8.275  1.1383  2.3737  0.5236
  975MOL0     H34523   9.845   8.823   8.232 -1.0319 -1.8747  1.4026
  975MOL0     H34524   9.999   8.985   8.442  0.8608  0.7458 -1.9906
  975MOL0     H34525   9.823   8.991   8.432 -1.0966  1.4258 -2.6585
  975MOL0     H34526   9.829   9.082   8.202  2.2217  0.3867 -1.8194
  975MOL0     H34527  10.004   9.097   8.198  0.8093  0.7633 -0.8435
  975MOL0     H34528  10.020   9.250   8.374  0.5942  0.8595 -1.2151
  975MOL0     H34529   9.853   9.227   8.408  1.8572 -3.1247  1.7215
  975MOL0     H34530   9.578   8.078   8.531  0.4800  0.2748  3.5413
  975MOL0     H34531   9.627   7.830   8.544  2.0172 -1.6648  2.5292
  975MOL0     H34532  10.061   7.426   8.344 -1.3362  1.6311 -0.9978
  975MOL0     H34533  10.059   7.189   8.418 -1.1751 -0.6995  0.7770
  975MOL0     H34534   9.585   6.711   7.677  4.4138 -0.5604 -2.6079
  975MOL0     H34535   9.343   6.703   7.633 -1.5419 -3.7294  2.1037
  975MOL0     H34536   8.952   6.330   7.239 -2.0974 -0.6450  0.5012
  975MOL0     H34537   8.733   6.394   7.191 -0.5893  0.8422 -1.9868
  975MOL0     H34538   8.559   6.786   7.348  0.0460 -1.0727  0.8546
  975MOL0     H34539   8.641   6.847   7.208  0.9527 -1.1633  1.8388
  975MOL0     H34540   8.458   6.770   7.062  0.7488  3.1975 -0.0393
  975MOL0     H34541   8.419   6.900   7.180  0.0844  0.1586 -2.7667
  975MOL0     H34542   8.345   6.660   7.309  2.1996 -0.3976 -1.2934
  975MOL0     H34543   8.247   6.796   7.255 -1.3250 -0.7974 -0.1935
  975MOL0     H34544   8.198   6.691   7.041 -3.3322 -0.8208  0.6907
  975MOL0     H34545   8.136   6.606   7.165 -1.0064 -1.7520 -1.1162
  975MOL0     H34546   8.462   6.344   7.088 -1.2204 -1.7571  1.4709
  975MOL0     H34547   8.789   6.785   7.344 -1.3353 -0.2255  0.5468
  975MOL0     H34548   8.975   6.860   7.463 -2.3226 -1.0277 -0.0586
  975MOL0     H34549   9.053   6.729   7.548  2.1739  3.7341 -0.2276
  975MOL0     H34550   9.121   6.791   7.397  0.6757  0.1802  0.5983
  976MOL0     O34551  11.096   2.715   6.911  0.0166  0.0267  0.1263
  976MOL0     C34552  11.151   2.605   6.934  0.3967 -0.6155  0.1911
  976MOL0     O34553  11.125   2.525   7.046 -0.5792 -0.0752 -0.8078
  976MOL0     C34554  11.013   2.561   7.116  0.0257  0.8254 -0.9175
  976MOL0     C34555  11.023   2.578   7.255 -0.5731  1.0827  0.1939
  976MOL0     C34556  10.919   2.599   7.337  0.3709 -0.9185 -0.3228
  976MOL0     C34557  10.789   2.612   7.276 -0.6194 -0.3920 -0.6494
  976MOL0     O34558  10.677   2.649   7.356  0.8508  1.4517 -0.2106
  976MOL0     C34559  10.606   2.768   7.310 -0.0398 -0.5110  0.2401
  976MOL0     C34560  10.537   2.819   7.428  0.7881 -0.8045  0.5254
  976MOL0     C34561  10.633   2.885   7.532 -0.2297 -0.4174 -0.8306
  976MOL0     C34562  10.579   2.875   7.678 -0.8756  0.6077  0.1529
  976MOL0     C34563  10.451   2.960   7.703 -0.0994 -0.0444  0.0500
  976MOL0     C34564  10.419   2.955   7.849  0.0140 -0.1523 -0.0631
  976MOL0     C34565  10.285   3.023   7.893  0.2291 -0.1213  0.1754
  976MOL0     C34566  10.292   3.174   7.896  0.3495 -0.4833  0.6006
  976MOL0     N34567  10.153   3.217   7.930  0.5482  0.1290 -0.1500
  976MOL0     C34568  10.082   3.158   8.042  0.1376 -0.3176 -0.1480
  976MOL0     C34569   9.955   3.190   8.016 -0.2578 -0.2355  0.9881
  976MOL0     C34570   9.838   3.151   8.096 -0.7961  0.7197 -0.4500
  976MOL0     C34571   9.825   2.993   8.138 -0.1684 -0.2469 -0.7843
  976MOL0     C34572   9.854   2.902   8.017  0.0582 -0.1783 -0.1421
  976MOL0     C34573   9.739   2.907   7.913 -0.0879 -0.4863 -0.6313
  976MOL0     O34574   9.745   2.806   7.819 -0.9349 -0.8983 -0.1240
  976MOL0     C34575   9.856   2.802   7.732  0.6982  0.8278  0.0591
  976MOL0     C34576   9.940   2.903   7.690 -0.0636  0.1685  0.6777
  976MOL0     C34577  10.018   2.887   7.566  0.2225  0.6294 -0.7237
  976MOL0     C34578  10.103   3.006   7.520 -0.0132  0.3223  0.7249
  976MOL0     C34579  10.019   2.763   7.499 -0.2051 -0.6728 -0.0580
  976MOL0     C34580  10.099   2.732   7.376 -0.0626 -0.3027 -0.3483
  976MOL0     O34581  10.101   2.598   7.324  0.6930 -0.1831  0.3197
  976MOL0     C34582  10.176   2.578   7.206  0.6106 -0.2106 -0.6863
  976MOL0     C34583  10.287   2.501   7.218 -0.2831  0.0280  0.8440
  976MOL0     C34584  10.359   2.458   7.102  0.7318 -0.5202 -0.2966
  976MOL0     C34585  10.313   2.498   6.977  0.1810 -0.6916 -1.1455
  976MOL0     O34586  10.375   2.474   6.854 -0.2527 -0.5069 -0.3924
  976MOL0     C34587  10.479   2.382   6.841 -0.5929 -0.1481 -0.1938
  976MOL0     C34588  10.598   2.465   6.800  0.2338  0.2869  0.9230
  976MOL0     C34589  10.720   2.374   6.769  0.4265 -0.3153  0.4494
  976MOL0     C34590  10.711   2.287   6.648  0.2029  0.2127 -0.6939
  976MOL0     C34591  10.829   2.186   6.650 -1.0198 -0.5975 -0.0936
  976MOL0     C34592  10.972   2.251   6.622 -0.1033 -0.6472 -1.1663
  976MOL0     C34593  11.072   2.143   6.607 -0.0642  0.4269 -0.3305
  976MOL0     C34594  11.185   2.212   6.539 -0.3655  0.3844  0.1977
  976MOL0    Cl34595  11.337   2.113   6.533 -0.0771  0.5551 -0.0525
  976MOL0     C34596  10.199   2.581   6.974  0.4647 -0.3500  0.9685
  976MOL0     C34597  10.126   2.607   7.082 -0.1470 -0.7149  0.6675
  976MOL0     O34598  10.155   2.824   7.317  0.1525 -0.4111 -0.0135
  976MOL0     C34599   9.948   2.655   7.558  0.0642 -0.1381  0.2538
  976MOL0     C34600   9.861   2.678   7.661  0.5142  0.0545  0.5872
  976MOL0     N34601   9.949   3.274   7.904 -0.0121 -0.0856  0.4523
  976MOL0     N34602  10.067   3.286   7.851 -0.3063  0.0940  0.7209
  976MOL0     C34603  10.776   2.613   7.141  0.1508 -0.9269  0.7454
  976MOL0     C34604  10.884   2.589   7.065  0.2415  0.5098 -0.1308
  976MOL0     C34605  11.255   2.551   6.839  0.5600 -0.0343  0.6691
  976MOL0     C34606  11.325   2.430   6.862 -0.5951 -0.5083 -0.3548
  976MOL0     C34607  11.432   2.388   6.788 -0.0462  0.0357 -0.7894
  976MOL0     C34608  11.482   2.468   6.681  0.6323 -0.6078  1.0775
  976MOL0     O34609  11.589   2.438   6.599 -0.4904 -0.1768  0.2535
  976MOL0     C34610  11.637   2.305   6.590 -0.3728 -0.5192  0.5363
  976MOL0     C34611  11.781   2.318   6.639 -0.1162  0.3898 -0.5901
  976MOL0     C34612  11.865   2.194   6.595  0.3671 -0.4331 -0.1672
  976MOL0     C34613  12.003   2.181   6.647 -0.4766 -0.3512  0.0512
  976MOL0     C34614  12.014   2.176   6.795  0.9852 -0.1213  0.1539
  976MOL0     C34615  12.016   2.209   6.909 -1.0652  0.1047  0.3313
  976MOL0     C34616  11.409   2.586   6.653 -0.0666 -0.0034  1.0355
  976MOL0     C34617  11.293   2.625   6.719  1.5969  0.1291 -0.3477
  976MOL0     C34618  11.224   2.750   6.670 -0.6038  0.2205 -0.4867
  976MOL0     H34619  11.117   2.557   7.306 -1.3904  0.6586  1.5749
  976MOL0     H34620  10.919   2.605   7.445  1.1316  2.6328 -0.4195
  976MOL0     H34621  10.525   2.748   7.239 -0.7157  2.8994 -0.1135
  976MOL0     H34622  10.663   2.852   7.270 -0.2505 -1.0583 -1.2825
  976MOL0     H34623  10.472   2.902   7.402 -0.1617 -2.2074 -1.9874
  976MOL0     H34624  10.464   2.744   7.461  1.7302 -3.0159 -2.0454
  976MOL0     H34625  10.727   2.829   7.534  1.1461  1.7422 -0.7764
  976MOL0     H34626  10.642   2.993   7.512 -0.3789 -0.4463 -1.0548
  976MOL0     H34627  10.553   2.769   7.690 -0.9010  0.5169 -0.6786
  976MOL0     H34628  10.663   2.900   7.743 -2.2826 -0.1036  2.3844
  976MOL0     H34629  10.370   2.913   7.646 -1.6940  0.5249  1.7482
  976MOL0     H34630  10.471   3.062   7.670 -2.0445 -0.0799 -1.3679
  976MOL0     H34631  10.418   2.853   7.889 -3.4177  1.0144  3.5740
  976MOL0     H34632  10.494   3.005   7.910  0.0746  0.1173 -0.3589
  976MOL0     H34633  10.266   2.987   7.995  2.0310  0.6149  0.8049
  976MOL0     H34634  10.190   3.002   7.843  0.1390 -2.0711  1.0425
  976MOL0     H34635  10.371   3.206   7.965  1.3707 -0.8693 -0.3670
  976MOL0     H34636  10.315   3.209   7.795  0.2427  0.7779  0.9928
  976MOL0     H34637  10.114   3.099   8.127 -2.4316 -1.7872 -0.1130
  976MOL0     H34638   9.757   3.174   8.027 -0.9981  2.0672  0.2054
  976MOL0     H34639   9.845   3.223   8.178 -0.0373  4.1546 -3.2917
  976MOL0     H34640   9.893   2.984   8.223  2.4879  1.3456 -2.6005
  976MOL0     H34641   9.728   2.964   8.181  0.2758  1.1104  1.3276
  976MOL0     H34642   9.951   2.927   7.972  0.0232  0.3635  0.0690
  976MOL0     H34643   9.855   2.806   8.069 -0.4574  0.0348  0.2756
  976MOL0     H34644   9.649   2.905   7.975  1.7639  0.7735  2.3276
  976MOL0     H34645   9.731   3.005   7.863 -0.4331  0.2102  0.7278
  976MOL0     H34646   9.954   2.998   7.743 -1.0558  1.6430 -1.5718
  976MOL0     H34647  10.063   3.038   7.423 -0.0519 -4.0611 -0.9311
  976MOL0     H34648  10.204   2.975   7.493 -1.5887 -4.4597 -0.5857
  976MOL0     H34649  10.101   3.083   7.598 -1.4343 -1.1592  2.2408
  976MOL0     H34650  10.317   2.472   7.319  0.6809  0.2410  0.6260
  976MOL0     H34651  10.449   2.399   7.118  0.4693 -0.4500  1.7537
  976MOL0     H34652  10.510   2.331   6.933 -1.0171  0.7552  0.4722
  976MOL0     H34653  10.462   2.303   6.768  0.0595 -1.4825  1.0599
  976MOL0     H34654  10.580   2.530   6.713  2.1817  0.5004  0.6276
  976MOL0     H34655  10.628   2.536   6.877 -1.6983  0.1517  1.8488
  976MOL0     H34656  10.740   2.311   6.856  2.6395 -1.5605 -0.8596
  976MOL0     H34657  10.808   2.439   6.760 -0.4328  0.7436 -0.7293
  976MOL0     H34658  10.705   2.345   6.555 -2.0898  0.1061 -0.6771
  976MOL0     H34659  10.617   2.230   6.646  0.0378  0.4912 -1.3246
  976MOL0     H34660  10.825   2.130   6.743 -0.6962 -1.6986 -0.7193
  976MOL0     H34661  10.803   2.107   6.579 -3.1901 -1.3270  1.4012
  976MOL0     H34662  10.996   2.306   6.714  0.6055  0.8469 -2.2118
  976MOL0     H34663  10.963   2.319   6.538 -2.1557 -1.9740 -2.1060
  976MOL0     H34664  11.038   2.066   6.537  3.6933 -0.5578 -1.3243
  976MOL0     H34665  11.097   2.107   6.707  1.2590  4.0839  0.8225
  976MOL0     H34666  11.201   2.301   6.601  0.8635 -0.2605  0.8369
  976MOL0     H34667  11.160   2.250   6.440  1.5394  2.0904  0.3018
  976MOL0     H34668  10.161   2.612   6.877  0.0513 -1.2870  0.8181
  976MOL0     H34669  10.036   2.667   7.078 -0.6409 -1.4899 -0.0961
  976MOL0     H34670   9.949   2.559   7.507 -0.1322  1.6973 -3.5336
  976MOL0     H34671   9.791   2.598   7.684  0.5012  0.2201  1.1410
  976MOL0     H34672  10.678   2.632   7.099  0.9748  0.8498 -0.4812
  976MOL0     H34673  10.869   2.590   6.958  2.7571 -4.6725 -0.8831
  976MOL0     H34674  11.298   2.370   6.948  0.8080  0.5478  0.8703
  976MOL0     H34675  11.473   2.292   6.817 -0.2134 -0.3624 -1.8076
  976MOL0     H34676  11.564   2.230   6.622 -1.0987 -1.2716 -2.5254
  976MOL0     H34677  11.646   2.278   6.484  1.5256  0.2543  0.4647
  976MOL0     H34678  11.762   2.318   6.747  1.9716  0.2653 -0.1766
  976MOL0     H34679  11.832   2.410   6.608 -1.8413  1.7022  0.3417
  976MOL0     H34680  11.801   2.112   6.629 -1.5577 -0.2568 -3.0571
  976MOL0     H34681  11.866   2.201   6.486  2.5154 -0.7313 -0.2020
  976MOL0     H34682  12.061   2.264   6.605  0.0235 -0.5532  0.3437
  976MOL0     H34683  12.048   2.094   6.600 -0.6289 -0.6518  0.4523
  976MOL0     H34684  12.020   2.260   7.003  2.0272  1.0531 -0.2007
  976MOL0     H34685  11.445   2.643   6.568 -1.2420 -2.6502 -1.3912
  976MOL0     H34686  11.122   2.720   6.642 -2.5059  4.5227  0.8823
  976MOL0     H34687  11.222   2.817   6.757  0.2899  0.1986 -0.4457
  976MOL0     H34688  11.278   2.794   6.586  0.9390  1.6879  1.2019
  977MOL0     O34689   3.199   0.575   5.637  0.4427 -0.2173 -0.0467
  977MOL0     C34690   3.265   0.584   5.737  0.0907 -0.0486  0.0744
  977MOL0     O34691   3.392   0.553   5.745  0.1135 -0.0371  0.3733
  977MOL0     C34692   3.462   0.481   5.646 -0.2859  0.5246  0.1357
  977MOL0     C34693   3.578   0.536   5.591 -0.1857  0.3541 -0.2056
  977MOL0     C34694   3.629   0.489   5.472 -0.0661  0.5862  0.4212
  977MOL0     C34695   3.563   0.383   5.405 -0.2318  0.4855 -0.1624
  977MOL0     O34696   3.623   0.345   5.288  0.5786  0.2102 -0.7027
  977MOL0     C34697   3.610   0.212   5.241  0.8964 -0.0253  0.0563
  977MOL0     C34698   3.723   0.174   5.141 -0.3045  0.0833 -0.6705
  977MOL0     C34699   3.810   0.066   5.203  0.0098  0.7411  0.3676
  977MOL0     C34700   3.739  -0.067   5.181 -0.1134 -0.0727 -0.6084
  977MOL0     C34701   3.800  -0.176   5.281 -0.3358 -0.0375 -0.0451
  977MOL0     C34702   3.741  -0.318   5.262  1.1851  0.5892 -0.2772
  977MOL0     C34703   3.766  -0.379   5.124  0.4935  0.9118 -0.1519
  977MOL0     C34704   3.905  -0.440   5.121 -0.6483  0.0638 -0.5302
  977MOL0     N34705   3.931  -0.526   5.005 -0.2331 -0.3990  0.3944
  977MOL0     C34706   3.989  -0.477   4.884  0.6528 -0.0885 -0.2919
  977MOL0     C34707   3.957  -0.574   4.797  0.3164  0.3703  0.0526
  977MOL0     C34708   3.977  -0.575   4.650  0.2613  0.4402  0.0611
  977MOL0     C34709   4.085  -0.679   4.596  0.5082  0.0726 -0.0494
  977MOL0     C34710   4.062  -0.683   4.442 -0.5955  0.5340 -0.2479
  977MOL0     C34711   4.164  -0.772   4.383 -0.3024  0.7628  0.1499
  977MOL0     O34712   4.135  -0.783   4.246 -0.0163  0.2057 -0.3024
  977MOL0     C34713   4.246  -0.813   4.166  0.2013 -1.3786  0.8399
  977MOL0     C34714   4.337  -0.711   4.121  0.2258  0.7396  0.6157
  977MOL0     C34715   4.451  -0.742   4.052 -0.5154  0.1462 -0.7909
  977MOL0     C34716   4.531  -0.620   4.014 -0.0542  0.1768 -0.8994
  977MOL0     C34717   4.477  -0.878   4.014  0.4443 -0.0669 -0.5214
  977MOL0     C34718   4.604  -0.918   3.962  0.2774 -1.2773  0.5187
  977MOL0     O34719   4.715  -0.867   4.020 -0.8699  0.4832  0.3514
  977MOL0     C34720   4.854  -0.893   3.985  0.5376  0.4260 -0.9717
  977MOL0     C34721   4.903  -1.007   3.919  0.7814 -0.0531  0.2779
  977MOL0     C34722   5.043  -1.022   3.916  0.3599 -2.1347  0.6775
  977MOL0     C34723   5.131  -0.937   3.979  0.5684  0.5305  0.3527
  977MOL0     O34724   5.266  -0.957   3.952  0.0388 -0.2520  0.0321
  977MOL0     C34725   5.363  -0.894   4.038 -0.3243  0.9300 -0.0862
  977MOL0     C34726   5.421  -0.761   3.986 -0.9802 -0.0486 -0.4990
  977MOL0     C34727   5.546  -0.713   4.069 -0.1859  1.0645 -0.2515
  977MOL0     C34728   5.679  -0.715   3.981  0.1551  1.0016  0.2360
  977MOL0     C34729   5.791  -0.617   4.044 -0.4262  1.1551  0.7094
  977MOL0     C34730   5.771  -0.466   4.003  0.1589  0.2094 -0.7910
  977MOL0     C34731   5.854  -0.372   4.090 -0.4075 -0.5406  0.2146
  977MOL0     C34732   5.839  -0.231   4.057  0.8753 -0.1922 -0.4641
  977MOL0    Cl34733   5.938  -0.126   4.158 -0.0992  0.1527 -0.1403
  977MOL0     C34734   5.074  -0.832   4.052  0.5612  0.3537 -0.6170
  977MOL0     C34735   4.941  -0.812   4.054  1.2465 -0.4178 -0.4185
  977MOL0     O34736   4.600  -0.989   3.863  0.1176  0.0017 -0.1667
  977MOL0     C34737   4.392  -0.978   4.068 -0.0103  0.1703 -0.5863
  977MOL0     C34738   4.280  -0.949   4.145  0.1981 -0.8146 -0.5857
  977MOL0     N34739   3.873  -0.668   4.850 -0.0790  0.9941 -1.2998
  977MOL0     N34740   3.865  -0.641   4.980  0.0370 -0.0313  0.1777
  977MOL0     C34741   3.447   0.326   5.465  0.4723  0.5508 -0.0701
  977MOL0     C34742   3.394   0.368   5.587 -0.3658 -0.2567  0.4124
  977MOL0     C34743   3.193   0.632   5.854  0.1532  0.4546  0.8862
  977MOL0     C34744   3.052   0.630   5.857 -0.1493 -0.2556 -0.9036
  977MOL0     C34745   2.979   0.656   5.974  1.1158  0.7058  0.4483
  977MOL0     C34746   3.039   0.689   6.089  1.4852 -0.5761  0.4596
  977MOL0     O34747   2.950   0.726   6.190  0.5117  0.5207 -0.2304
  977MOL0     C34748   2.994   0.762   6.320  0.0474  0.1144  0.5220
  977MOL0     C34749   2.876   0.782   6.416 -0.3907 -0.4084  0.2462
  977MOL0     C34750   2.758   0.878   6.367  0.0609  0.4590  0.8589
  977MOL0     C34751   2.615   0.848   6.424 -0.2572 -0.5355 -0.1610
  977MOL0     C34752   2.547   0.726   6.374 -0.4002 -0.3254  0.5603
  977MOL0     C34753   2.515   0.617   6.335  0.2308 -1.2997 -0.6582
  977MOL0     C34754   3.175   0.705   6.086  0.4260  0.3181 -0.0638
  977MOL0     C34755   3.257   0.679   5.977  0.4431 -0.4644 -0.5397
  977MOL0     C34756   3.404   0.710   5.996 -0.0140  0.9725 -0.5553
  977MOL0     H34757   3.628   0.618   5.642 -0.7714  2.0901 -2.3135
  977MOL0     H34758   3.712   0.537   5.421 -0.8266  0.6143 -0.8314
  977MOL0     H34759   3.520   0.189   5.184  0.7065 -1.5869  0.9430
  977MOL0     H34760   3.614   0.148   5.329  2.5552 -0.1356 -0.0678
  977MOL0     H34761   3.685   0.147   5.042 -2.2875  1.0107 -0.2171
  977MOL0     H34762   3.792   0.259   5.136  0.2602 -0.2792  0.5691
  977MOL0     H34763   3.906   0.055   5.152 -0.3791 -2.3068  0.1104
  977MOL0     H34764   3.823   0.094   5.308  1.6251  0.6730  0.2038
  977MOL0     H34765   3.630  -0.061   5.191 -0.3072  1.4500 -2.9317
  977MOL0     H34766   3.755  -0.089   5.075 -1.9309 -0.2459 -0.8804
  977MOL0     H34767   3.788  -0.143   5.384 -3.1753 -1.2030  0.0741
  977MOL0     H34768   3.908  -0.182   5.265 -0.3492 -0.8500  0.1159
  977MOL0     H34769   3.784  -0.379   5.342 -1.9067  1.2322  2.0853
  977MOL0     H34770   3.632  -0.311   5.264  1.0843 -0.6667  2.2237
  977MOL0     H34771   3.742  -0.310   5.043 -1.9662  1.2550  0.7619
  977MOL0     H34772   3.700  -0.466   5.112 -0.6223  1.9644 -2.0222
  977MOL0     H34773   3.978  -0.358   5.113  0.8076 -0.7489  2.8028
  977MOL0     H34774   3.922  -0.493   5.215 -1.7708  0.5057 -0.0665
  977MOL0     H34775   4.055  -0.393   4.868 -1.3894  1.5438 -0.5906
  977MOL0     H34776   4.002  -0.478   4.607  0.1253  0.5288  0.1796
  977MOL0     H34777   3.880  -0.602   4.607 -2.0238  1.6294  3.9360
  977MOL0     H34778   4.186  -0.644   4.616  0.2925  1.5636 -1.3545
  977MOL0     H34779   4.067  -0.778   4.639  0.9295 -1.0618 -2.3318
  977MOL0     H34780   3.960  -0.716   4.423 -1.0371  0.6140  1.8253
  977MOL0     H34781   4.082  -0.585   4.396 -1.1791  0.4918 -0.5930
  977MOL0     H34782   4.262  -0.725   4.393  0.0352 -0.0606  0.8899
  977MOL0     H34783   4.170  -0.867   4.438 -1.9903 -0.4476 -1.6339
  977MOL0     H34784   4.297  -0.612   4.135 -1.5111 -0.1387  2.3325
  977MOL0     H34785   4.584  -0.569   4.095 -1.6334  0.2581  0.1264
  977MOL0     H34786   4.466  -0.539   3.980 -0.5616 -0.4123 -1.3646
  977MOL0     H34787   4.596  -0.652   3.932 -0.2080 -2.7790 -0.0066
  977MOL0     H34788   4.841  -1.085   3.875  1.1163  0.8364 -1.9171
  977MOL0     H34789   5.079  -1.105   3.856  0.9002 -1.6074  0.2570
  977MOL0     H34790   5.328  -0.893   4.142 -3.2492 -0.5781 -0.9552
  977MOL0     H34791   5.443  -0.969   4.037  0.1775  1.4225 -2.3824
  977MOL0     H34792   5.436  -0.761   3.878 -3.2634 -0.3318 -0.8591
  977MOL0     H34793   5.333  -0.698   3.996  0.6966  2.2118  0.9728
  977MOL0     H34794   5.554  -0.787   4.149  0.8582  0.4669 -0.8865
  977MOL0     H34795   5.524  -0.611   4.101  0.7509  1.7611 -1.7236
  977MOL0     H34796   5.652  -0.672   3.885  1.4142  3.3608  0.8624
  977MOL0     H34797   5.716  -0.815   3.960 -1.4802  0.7492 -1.6783
  977MOL0     H34798   5.769  -0.624   4.151 -2.0805 -1.6653  0.2755
  977MOL0     H34799   5.888  -0.658   4.016 -1.0432 -1.0235  1.5350
  977MOL0     H34800   5.667  -0.431   4.002  0.8445  2.6169 -3.8335
  977MOL0     H34801   5.791  -0.463   3.896 -2.9150  1.6258 -1.4345
  977MOL0     H34802   5.956  -0.406   4.070  0.0275 -0.7246  2.4437
  977MOL0     H34803   5.841  -0.384   4.198 -0.3407 -1.5357  0.1226
  977MOL0     H34804   5.739  -0.188   4.066  1.9126  2.4208 -0.4882
  977MOL0     H34805   5.868  -0.210   3.954  0.2628 -1.4438 -0.9112
  977MOL0     H34806   5.141  -0.761   4.100  1.8894  0.6536 -2.7889
  977MOL0     H34807   4.910  -0.732   4.120  0.7099  0.4817 -1.7297
  977MOL0     H34808   4.406  -1.080   4.034  0.9769 -0.8914  2.6603
  977MOL0     H34809   4.219  -1.029   4.186  1.7138 -1.8478 -0.2438
  977MOL0     H34810   3.396   0.248   5.409 -0.2280  2.8663 -2.9112
  977MOL0     H34811   3.299   0.336   5.629 -1.7566  3.0741  0.1734
  977MOL0     H34812   2.994   0.616   5.766 -1.9778  0.9849  0.0064
  977MOL0     H34813   2.870   0.657   5.968  1.0636 -2.2841 -0.6362
  977MOL0     H34814   3.064   0.693   6.367  3.0521  2.3584 -0.3931
  977MOL0     H34815   3.037   0.862   6.311  0.1532  0.1417  1.2706
  977MOL0     H34816   2.928   0.813   6.507  0.9011 -0.4458 -0.4538
  977MOL0     H34817   2.827   0.689   6.446  0.9802 -0.6549  1.8758
  977MOL0     H34818   2.791   0.979   6.390  4.6772 -0.3960 -0.9446
  977MOL0     H34819   2.747   0.865   6.259  0.3397 -0.3531  0.9223
  977MOL0     H34820   2.551   0.933   6.397  2.4216  1.8166  0.4592
  977MOL0     H34821   2.616   0.842   6.533 -2.2431  2.7172  0.1865
  977MOL0     H34822   2.483   0.525   6.291  1.5919 -0.5190 -3.5318
  977MOL0     H34823   3.225   0.751   6.171  1.6174  0.5601 -0.8789
  977MOL0     H34824   3.452   0.764   5.914  0.5972  0.3743 -0.5998
  977MOL0     H34825   3.413   0.763   6.091 -4.8025  5.1746 -1.9801
  977MOL0     H34826   3.456   0.614   5.989 -2.2209 -0.4644  1.2304
  978MOL0     O34827   7.189   4.373  10.378  0.6200  0.2402  0.1900
  978MOL0     C34828   7.280   4.310  10.325 -0.4412  0.3505  0.7299
  978MOL0     O34829   7.264   4.216  10.231  0.1436 -0.1404  0.5346
  978MOL0     C34830   7.137   4.193  10.173  0.0015 -0.6019 -0.1145
  978MOL0     C34831   7.057   4.091  10.221  0.1162  0.1233 -0.4388
  978MOL0     C34832   6.935   4.071  10.155  0.4796 -0.2367 -0.3898
  978MOL0     C34833   6.879   4.163  10.070 -0.0799  0.5687  0.7690
  978MOL0     O34834   6.760   4.148  10.004  0.0229  0.2327  0.3637
  978MOL0     C34835   6.685   4.025  10.003  0.5154  0.0558 -1.0313
  978MOL0     C34836   6.591   4.019  10.121  0.9121 -0.3450 -0.8100
  978MOL0     C34837   6.525   3.878  10.145  0.0658 -1.1680  0.1806
  978MOL0     C34838   6.436   3.877  10.266  0.6930  0.0162 -0.1299
  978MOL0     C34839   6.380   3.731  10.275 -0.0363  0.7636  0.4253
  978MOL0     C34840   6.283   3.678  10.163  0.1742 -0.8424 -0.0501
  978MOL0     C34841   6.229   3.534  10.189  0.4543 -0.0559  0.3791
  978MOL0     C34842   6.126   3.481  10.080 -0.3674  0.2000 -0.0680
  978MOL0     N34843   6.194   3.385   9.983  0.2423  0.0505 -0.1428
  978MOL0     C34844   6.269   3.430   9.875  0.6461  0.3646 -0.7257
  978MOL0     C34845   6.312   3.313   9.818  0.5897 -0.1503 -0.9066
  978MOL0     C34846   6.397   3.299   9.693  0.1930  0.6629 -0.6329
  978MOL0     C34847   6.546   3.291   9.740 -0.3475  0.0354  0.3453
  978MOL0     C34848   6.610   3.160   9.694  0.0542 -0.1072 -0.0051
  978MOL0     C34849   6.674   3.170   9.554  0.1462  0.8817  0.0543
  978MOL0     O34850   6.693   3.039   9.501  0.6622 -0.1651 -0.3253
  978MOL0     C34851   6.802   3.001   9.427 -0.4340  0.0299  1.0354
  978MOL0     C34852   6.887   3.102   9.375  0.8426  0.1096 -0.9198
  978MOL0     C34853   6.996   3.072   9.290  0.0779 -0.4750 -0.5845
  978MOL0     C34854   7.081   3.184   9.235 -0.2054 -0.5446 -0.2734
  978MOL0     C34855   7.016   2.936   9.259  0.4550  0.5201 -0.4771
  978MOL0     C34856   7.135   2.890   9.179  0.5638  0.4440  0.3806
  978MOL0     O34857   7.125   2.760   9.135 -0.2337 -1.2873  0.6431
  978MOL0     C34858   7.239   2.709   9.090  0.4266  0.7461  1.0674
  978MOL0     C34859   7.338   2.660   9.177 -0.0422  0.1398 -0.0369
  978MOL0     C34860   7.453   2.610   9.119 -0.8523  0.3247  0.1624
  978MOL0     C34861   7.483   2.619   8.985 -0.2440  0.3242  0.4970
  978MOL0     O34862   7.582   2.552   8.924  0.6414  0.7652 -0.3744
  978MOL0     C34863   7.714   2.566   8.980  0.4777 -0.3525  0.8607
  978MOL0     C34864   7.807   2.456   8.917 -0.2999 -0.5118  0.4388
  978MOL0     C34865   7.909   2.415   9.036 -0.5813 -1.0171  0.0501
  978MOL0     C34866   7.975   2.280   8.994  0.2895 -0.5564  0.8371
  978MOL0     C34867   8.102   2.248   9.076 -0.2578  0.5100 -0.4287
  978MOL0     C34868   8.107   2.287   9.226  1.0392 -0.0752 -0.0071
  978MOL0     C34869   8.237   2.260   9.294  0.1509  0.5848 -0.5137
  978MOL0     C34870   8.218   2.260   9.457  0.5959 -0.1804  0.3935
  978MOL0    Cl34871   8.105   2.387   9.510  0.2997  0.0473 -0.3693
  978MOL0     C34872   7.388   2.678   8.904  0.0486 -0.0876  0.3408
  978MOL0     C34873   7.269   2.724   8.952  0.3856 -0.6344 -0.0990
  978MOL0     O34874   7.227   2.961   9.154  0.2151 -0.8561 -0.4781
  978MOL0     C34875   6.927   2.838   9.303 -0.6863 -0.8088  0.7465
  978MOL0     C34876   6.827   2.873   9.391  0.9311  1.4575 -0.6581
  978MOL0     N34877   6.271   3.212   9.899 -0.8271  0.8403 -0.6777
  978MOL0     N34878   6.207   3.248   9.994  0.4231 -0.7071 -0.0538
  978MOL0     C34879   6.952   4.274  10.032 -0.0270  0.3144  0.6630
  978MOL0     C34880   7.084   4.286  10.077  0.0404  0.2808 -0.9172
  978MOL0     C34881   7.429   4.336  10.350 -0.1966  0.0354 -0.7460
  978MOL0     C34882   7.531   4.240  10.328 -0.5381  0.7176  0.1509
  978MOL0     C34883   7.672   4.264  10.346  0.8216  0.0172  0.0537
  978MOL0     C34884   7.720   4.377  10.403  0.1300  0.4690 -0.2625
  978MOL0     O34885   7.846   4.428  10.416  0.4724 -0.3918 -0.3976
  978MOL0     C34886   7.922   4.393  10.300 -0.5018 -0.2835  0.0813
  978MOL0     C34887   8.053   4.483  10.277  0.0611  0.5826  0.5798
  978MOL0     C34888   8.158   4.470  10.384 -0.4852 -0.3628  0.5820
  978MOL0     C34889   8.107   4.490  10.531 -0.0582  1.4910  0.0661
  978MOL0     C34890   8.228   4.506  10.622  0.8905  0.6682 -0.7439
  978MOL0     C34891   8.317   4.487  10.704  0.8421  0.4719  0.2677
  978MOL0     C34892   7.616   4.458  10.461 -0.7782  0.2871  0.6841
  978MOL0     C34893   7.480   4.440  10.428  0.0117  0.7715  0.1769
  978MOL0     C34894   7.390   4.541  10.502 -0.9093 -0.5477  0.3889
  978MOL0     H34895   7.096   4.012  10.284 -1.3087  0.5440  1.0614
  978MOL0     H34896   6.882   3.980  10.183  1.2113 -0.8104 -0.8281
  978MOL0     H34897   6.745   3.933  10.004  0.8544  0.2766 -0.1214
  978MOL0     H34898   6.619   4.019   9.916  0.0545 -2.2392 -0.5909
  978MOL0     H34899   6.655   4.038  10.208  0.4313  2.0412 -0.8931
  978MOL0     H34900   6.516   4.096  10.102  2.8404  1.5855 -1.0377
  978MOL0     H34901   6.473   3.848  10.054  0.6831 -1.1882 -0.1721
  978MOL0     H34902   6.604   3.805  10.166  2.1756  1.0590  0.4891
  978MOL0     H34903   6.481   3.896  10.364 -1.9912  0.3932  1.1081
  978MOL0     H34904   6.361   3.956  10.252  1.8741  1.7990  2.6301
  978MOL0     H34905   6.343   3.725  10.377 -0.5987  0.6271  0.2179
  978MOL0     H34906   6.465   3.661  10.268 -0.4847  0.2941 -0.6012
  978MOL0     H34907   6.197   3.743  10.179  0.5675 -0.2476 -0.3248
  978MOL0     H34908   6.321   3.699  10.063 -0.2678 -2.0186 -0.4889
  978MOL0     H34909   6.185   3.546  10.288 -0.4265  1.6634 -0.1869
  978MOL0     H34910   6.317   3.468  10.192  2.2734  2.2445  3.1052
  978MOL0     H34911   6.047   3.420  10.125 -1.3100  0.6109 -1.1275
  978MOL0     H34912   6.080   3.566  10.029 -2.4044 -2.0921 -2.3244
  978MOL0     H34913   6.290   3.535   9.855  0.2259  0.7238  0.6445
  978MOL0     H34914   6.385   3.376   9.615  2.2628  1.8143  0.1046
  978MOL0     H34915   6.372   3.201   9.651  0.7463 -0.0370  0.6421
  978MOL0     H34916   6.605   3.377   9.707  0.7940 -1.0379 -0.5074
  978MOL0     H34917   6.555   3.297   9.849  1.6915  0.3877  0.2102
  978MOL0     H34918   6.686   3.122   9.764  0.6665 -0.4853 -0.8632
  978MOL0     H34919   6.530   3.085   9.692 -0.3365  0.2955 -2.4611
  978MOL0     H34920   6.598   3.223   9.496 -1.7612 -1.2836  0.4162
  978MOL0     H34921   6.764   3.231   9.550  0.4876  0.4013  0.3071
  978MOL0     H34922   6.856   3.204   9.393 -0.4462 -0.4044 -0.0955
  978MOL0     H34923   7.045   3.283   9.262  1.2832  0.2163 -0.9740
  978MOL0     H34924   7.073   3.162   9.128 -1.9990 -0.9406 -0.0911
  978MOL0     H34925   7.181   3.187   9.279 -0.3270  0.1498 -0.0460
  978MOL0     H34926   7.314   2.660   9.283 -2.5432  4.2390 -0.3799
  978MOL0     H34927   7.526   2.569   9.188  0.2610  2.4183  0.3037
  978MOL0     H34928   7.744   2.670   8.962  3.5401 -1.4162 -0.8377
  978MOL0     H34929   7.714   2.556   9.089 -1.1459 -5.0164  0.6501
  978MOL0     H34930   7.739   2.374   8.890  0.0573 -0.3495 -1.0726
  978MOL0     H34931   7.863   2.497   8.832 -4.0125 -1.9394 -3.0533
  978MOL0     H34932   7.855   2.402   9.130 -0.9538  1.2362  0.2192
  978MOL0     H34933   7.977   2.500   9.048 -3.3488  1.7935 -2.2517
  978MOL0     H34934   8.007   2.290   8.890 -1.7749 -0.0576  0.1996
  978MOL0     H34935   7.897   2.203   8.996  0.8335 -1.1442 -0.2147
  978MOL0     H34936   8.135   2.145   9.062  1.3740  0.8812  0.4102
  978MOL0     H34937   8.169   2.320   9.027  0.3204  0.4349  0.2520
  978MOL0     H34938   8.027   2.230   9.274  3.0521 -3.6727 -0.5574
  978MOL0     H34939   8.093   2.396   9.228  2.0427  0.1226 -1.7767
  978MOL0     H34940   8.317   2.333   9.281 -0.5113  1.9706  2.3986
  978MOL0     H34941   8.266   2.159   9.263 -1.5987 -0.8369  2.0477
  978MOL0     H34942   8.306   2.269   9.521  0.7875 -1.5768  0.3531
  978MOL0     H34943   8.176   2.161   9.476  0.3856 -0.6051 -2.0235
  978MOL0     H34944   7.406   2.688   8.797 -1.7327  2.3673  0.1907
  978MOL0     H34945   7.195   2.772   8.888  0.7175 -0.3560 -0.2749
  978MOL0     H34946   6.940   2.733   9.278 -1.0532 -0.5308 -0.6962
  978MOL0     H34947   6.768   2.794   9.438  0.3709  2.6209  0.6516
  978MOL0     H34948   6.921   4.345   9.956 -1.0493 -0.4492  0.3359
  978MOL0     H34949   7.134   4.378  10.049  2.4425 -1.0087 -1.1265
  978MOL0     H34950   7.503   4.154  10.268  1.8123  1.6133 -2.4617
  978MOL0     H34951   7.749   4.192  10.321 -1.1491 -2.0425 -0.4419
  978MOL0     H34952   7.960   4.290  10.299  3.0476  0.8581  0.3310
  978MOL0     H34953   7.857   4.411  10.214 -1.7825 -1.9442  0.6503
  978MOL0     H34954   8.024   4.588  10.273 -4.0669 -0.4325 -0.5643
  978MOL0     H34955   8.096   4.448  10.183  0.2738 -0.4703  1.0584
  978MOL0     H34956   8.218   4.379  10.382  0.3554  0.1741  0.6885
  978MOL0     H34957   8.221   4.556  10.359  0.8036 -1.6346 -0.7658
  978MOL0     H34958   8.056   4.397  10.557 -0.9440  2.1333  0.7090
  978MOL0     H34959   8.039   4.575  10.545 -0.6200  0.7433  2.4674
  978MOL0     H34960   8.402   4.485  10.769  0.9516 -0.0433  0.1176
  978MOL0     H34961   7.653   4.535  10.528 -0.6719  2.0349 -1.2982
  978MOL0     H34962   7.302   4.570  10.443  1.7013  2.8145 -2.2858
  978MOL0     H34963   7.367   4.493  10.597  1.1008  1.4488  1.9885
  978MOL0     H34964   7.439   4.628  10.546  0.7165 -1.0629 -0.3271
  979MOL0     O34965   8.176   4.593   3.858 -0.2721 -0.0801 -0.3692
  979MOL0     C34966   8.235   4.580   3.749 -0.0924  1.0080  0.5001
  979MOL0     O34967   8.303   4.472   3.716 -0.2183  0.6690  0.3035
  979MOL0     C34968   8.296   4.364   3.801  0.1970  0.0343 -0.3427
  979MOL0     C34969   8.209   4.261   3.774  0.2823 -0.0933 -0.5211
  979MOL0     C34970   8.196   4.154   3.859  0.3318 -0.4374 -0.9189
  979MOL0     C34971   8.288   4.143   3.967 -0.1425  0.7305  0.1250
  979MOL0     O34972   8.281   4.041   4.057 -0.0752  0.4592  0.6833
  979MOL0     C34973   8.206   3.926   4.030  0.2463  0.2559  0.6342
  979MOL0     C34974   8.245   3.811   4.133  0.5704 -0.1670 -0.2758
  979MOL0     C34975   8.235   3.842   4.279 -0.0951  0.4410 -0.6347
  979MOL0     C34976   8.267   3.705   4.352  0.0540  0.0563 -0.0488
  979MOL0     C34977   8.151   3.646   4.430 -0.5964  0.1743 -0.1014
  979MOL0     C34978   8.187   3.504   4.499 -0.3930 -1.1124  1.1515
  979MOL0     C34979   8.065   3.482   4.599 -0.1806  0.1742 -0.4086
  979MOL0     C34980   8.068   3.352   4.684 -0.3697 -0.4420 -0.0606
  979MOL0     N34981   7.950   3.344   4.776  0.2715  0.7869  0.4119
  979MOL0     C34982   7.936   3.390   4.900 -0.1066 -0.7929  0.0078
  979MOL0     C34983   7.823   3.327   4.938 -0.2353 -0.7716  0.1287
  979MOL0     C34984   7.765   3.344   5.081  0.2678 -0.7428 -0.1348
  979MOL0     C34985   7.708   3.481   5.116 -0.4891 -0.4831 -0.1874
  979MOL0     C34986   7.624   3.550   5.007  0.1574  0.4188  0.0163
  979MOL0     C34987   7.701   3.636   4.909  0.5158  0.5108  0.8446
  979MOL0     O34988   7.795   3.726   4.976  0.5987  0.7586 -0.0173
  979MOL0     C34989   7.720   3.837   5.004  0.0114  0.0022 -0.8677
  979MOL0     C34990   7.714   3.932   4.904  0.0931 -0.4043 -0.2624
  979MOL0     C34991   7.661   4.060   4.933  0.2733  0.1429  0.9859
  979MOL0     C34992   7.676   4.175   4.837 -0.3459  0.4824 -0.5271
  979MOL0     C34993   7.601   4.082   5.055 -0.0863 -0.0876 -0.3517
  979MOL0     C34994   7.535   4.211   5.069  0.2096  0.3684  0.4302
  979MOL0     O34995   7.605   4.324   5.076  0.3893 -0.5898  0.1105
  979MOL0     C34996   7.536   4.440   5.092  0.8113 -0.7879 -0.8601
  979MOL0     C34997   7.522   4.489   5.224  0.3938 -0.6522  0.1524
  979MOL0     C34998   7.464   4.614   5.245  0.1605 -0.3471 -0.7000
  979MOL0     C34999   7.415   4.685   5.139  1.0274 -0.1434  1.6457
  979MOL0     O35000   7.376   4.812   5.151  0.1349  0.0381  0.2628
  979MOL0     C35001   7.386   4.914   5.049  0.5845  0.0899 -0.2440
  979MOL0     C35002   7.349   5.056   5.106 -0.9617 -0.0854 -0.4420
  979MOL0     C35003   7.456   5.110   5.205 -0.2711 -0.2100 -1.2368
  979MOL0     C35004   7.427   5.050   5.352 -0.5718 -0.5427 -0.5409
  979MOL0     C35005   7.495   5.129   5.466  1.2485 -0.3476  0.0846
  979MOL0     C35006   7.401   5.234   5.539 -0.3424  0.0395 -0.2574
  979MOL0     C35007   7.458   5.285   5.670  0.5473 -0.1494  0.4851
  979MOL0     C35008   7.351   5.372   5.737  0.4045  0.4164  0.2769
  979MOL0    Cl35009   7.416   5.403   5.903 -0.2982 -0.3057 -0.0351
  979MOL0     C35010   7.403   4.620   5.009 -0.1311 -0.0627  0.8670
  979MOL0     C35011   7.468   4.494   4.983 -0.0158 -0.0825 -0.0072
  979MOL0     O35012   7.411   4.205   5.074  0.2542  0.2109 -0.4218
  979MOL0     C35013   7.603   3.982   5.151 -0.2029 -0.4872 -0.5477
  979MOL0     C35014   7.664   3.860   5.133  1.2001  0.1745 -0.5217
  979MOL0     N35015   7.782   3.238   4.845  0.4668 -0.8164 -0.1666
  979MOL0     N35016   7.861   3.240   4.760  0.0384  0.4426 -0.1234
  979MOL0     C35017   8.385   4.239   3.993  0.4152 -0.0245  0.5630
  979MOL0     C35018   8.388   4.348   3.902 -0.3602  0.1744  0.3618
  979MOL0     C35019   8.232   4.691   3.648 -0.8240 -0.0139  0.2802
  979MOL0     C35020   8.253   4.669   3.513  0.1367  0.7237 -0.5077
  979MOL0     C35021   8.242   4.773   3.415  0.2508 -0.4283 -0.7282
  979MOL0     C35022   8.207   4.900   3.458  1.1811  0.0705  0.8194
  979MOL0     O35023   8.184   5.019   3.380 -0.3980 -0.2540  0.3342
  979MOL0     C35024   8.226   5.024   3.244  0.1339  0.0425 -0.0380
  979MOL0     C35025   8.161   5.149   3.174  0.2328  0.3266  0.2510
  979MOL0     C35026   8.009   5.138   3.163 -0.6898 -0.4080 -0.3557
  979MOL0     C35027   7.940   5.258   3.123  0.4584  0.9693  0.6311
  979MOL0     C35028   7.805   5.216   3.091 -0.1191  0.0999  0.0512
  979MOL0     C35029   7.688   5.192   3.080  0.2685 -0.5882  0.2217
  979MOL0     C35030   8.186   4.924   3.590  0.0209  0.5066 -0.1817
  979MOL0     C35031   8.187   4.823   3.683 -0.8361  0.1478  0.8203
  979MOL0     C35032   8.148   4.879   3.819 -0.2890  0.7258  0.0207
  979MOL0     H35033   8.154   4.261   3.680  1.9322  0.5606 -1.5393
  979MOL0     H35034   8.115   4.083   3.851  0.9344 -1.5539  1.8123
  979MOL0     H35035   8.200   3.887   3.928 -0.8933 -1.7231  1.3993
  979MOL0     H35036   8.098   3.943   4.036  0.6294  4.7706 -1.4746
  979MOL0     H35037   8.178   3.726   4.118  0.5174 -0.2996  0.6643
  979MOL0     H35038   8.345   3.772   4.109  1.3597  0.3942  1.8963
  979MOL0     H35039   8.320   3.909   4.295  0.4400 -0.0427 -1.4290
  979MOL0     H35040   8.132   3.875   4.302 -0.4947 -2.0708  1.7275
  979MOL0     H35041   8.292   3.629   4.278  2.7712  1.7255 -0.9768
  979MOL0     H35042   8.350   3.722   4.421 -0.3868  2.2351  0.0424
  979MOL0     H35043   8.071   3.626   4.358 -0.4562 -2.5930  0.4404
  979MOL0     H35044   8.105   3.717   4.499 -1.0361  1.0837 -1.2902
  979MOL0     H35045   8.186   3.424   4.424  1.6517  2.0434 -2.6120
  979MOL0     H35046   8.286   3.508   4.545 -0.5264  1.4153  1.3348
  979MOL0     H35047   7.974   3.475   4.540  0.3609 -4.6454 -1.0617
  979MOL0     H35048   8.058   3.574   4.656  0.5326  1.5929 -2.4787
  979MOL0     H35049   8.055   3.269   4.614  1.2832  0.0057 -0.9442
  979MOL0     H35050   8.165   3.342   4.733  1.4804  0.5566 -3.2429
  979MOL0     H35051   7.998   3.458   4.957  0.6926  0.2983 -2.0229
  979MOL0     H35052   7.855   3.318   5.137  1.2272  1.1317 -0.7023
  979MOL0     H35053   7.683   3.276   5.101  2.5104 -3.5567  0.1341
  979MOL0     H35054   7.654   3.471   5.211  2.0675 -0.3185  1.3825
  979MOL0     H35055   7.792   3.549   5.130 -1.0948  0.3621 -0.5880
  979MOL0     H35056   7.567   3.471   4.958  1.9146 -0.6268 -0.4472
  979MOL0     H35057   7.560   3.631   5.043 -0.7584  0.3473 -1.3850
  979MOL0     H35058   7.765   3.569   4.851  2.9015  3.9679 -0.8306
  979MOL0     H35059   7.628   3.692   4.849 -2.5575 -1.8361  2.0957
  979MOL0     H35060   7.782   3.901   4.825 -0.0798 -5.1478  1.1156
  979MOL0     H35061   7.733   4.138   4.752  1.7932 -3.0800  2.1381
  979MOL0     H35062   7.734   4.259   4.877 -2.0724  0.1240  3.2303
  979MOL0     H35063   7.586   4.220   4.794 -0.8550 -0.0126 -0.0096
  979MOL0     H35064   7.550   4.438   5.315  0.1239  1.4441  1.4729
  979MOL0     H35065   7.465   4.650   5.347 -0.2533  0.3027 -0.9168
  979MOL0     H35066   7.489   4.920   5.011 -0.5666  2.2076 -3.3580
  979MOL0     H35067   7.323   4.889   4.963 -0.7205  0.8338  0.4695
  979MOL0     H35068   7.328   5.126   5.025 -0.6497 -0.0135 -0.4646
  979MOL0     H35069   7.253   5.057   5.158  0.6966 -3.4050  3.2417
  979MOL0     H35070   7.461   5.217   5.225  2.3105 -0.3594 -0.8293
  979MOL0     H35071   7.557   5.076   5.181  0.1097 -2.8353  3.0558
  979MOL0     H35072   7.459   4.946   5.358  2.3093  0.2725 -0.2387
  979MOL0     H35073   7.321   5.056   5.376 -0.9862 -2.2842 -1.7837
  979MOL0     H35074   7.540   5.063   5.540  2.0334 -0.3652 -0.4070
  979MOL0     H35075   7.582   5.182   5.427  0.4275 -1.1129 -3.0464
  979MOL0     H35076   7.309   5.180   5.564  0.9728 -1.7811  0.8339
  979MOL0     H35077   7.376   5.311   5.465  2.5372  1.7570  0.3941
  979MOL0     H35078   7.556   5.332   5.664 -0.5853  3.4864  4.5648
  979MOL0     H35079   7.464   5.195   5.732  0.0989 -1.5358 -1.3993
  979MOL0     H35080   7.251   5.327   5.730  0.3908  0.6531 -1.3683
  979MOL0     H35081   7.340   5.469   5.688 -0.5032  1.2115  1.9916
  979MOL0     H35082   7.348   4.661   4.926 -1.8251 -0.0933  1.9259
  979MOL0     H35083   7.464   4.448   4.885 -0.4279  2.9848 -1.5777
  979MOL0     H35084   7.556   3.998   5.248  0.5422  2.6548 -0.5903
  979MOL0     H35085   7.679   3.791   5.215 -1.7692 -0.4474 -0.4063
  979MOL0     H35086   8.453   4.234   4.078 -0.5605  0.9939  1.4448
  979MOL0     H35087   8.469   4.421   3.901  1.0294 -1.3071 -1.4671
  979MOL0     H35088   8.272   4.563   3.495 -1.8218  0.2243  0.1138
  979MOL0     H35089   8.251   4.748   3.310 -2.1109  0.8654 -1.3099
  979MOL0     H35090   8.334   5.037   3.252  0.1485  2.2202 -2.4667
  979MOL0     H35091   8.196   4.932   3.192 -0.1677 -1.6835  2.9492
  979MOL0     H35092   8.187   5.161   3.068 -3.3869  2.5176 -0.5791
  979MOL0     H35093   8.186   5.234   3.237 -0.4862 -0.6546  1.9161
  979MOL0     H35094   7.981   5.046   3.111 -1.3512 -0.8364  0.7331
  979MOL0     H35095   7.982   5.110   3.265 -0.1557 -1.8756 -0.5871
  979MOL0     H35096   7.990   5.290   3.031  0.9816  2.4223  1.3823
  979MOL0     H35097   7.944   5.336   3.200 -0.7694  0.6899  1.0076
  979MOL0     H35098   7.586   5.173   3.053  0.1431 -0.4531  0.5861
  979MOL0     H35099   8.143   5.018   3.622 -0.3557  0.4886 -0.6292
  979MOL0     H35100   8.104   4.979   3.817  0.7657  1.2647  1.5875
  979MOL0     H35101   8.074   4.819   3.871  1.1964  1.2479  3.0033
  979MOL0     H35102   8.237   4.872   3.883 -1.1855  4.6956  2.0111
  980MOL0     O35103   0.655   6.072   7.650  0.2746 -0.4816 -0.0035
  980MOL0     C35104   0.694   6.179   7.694 -0.0446  0.1448  0.2738
  980MOL0     O35105   0.617   6.261   7.766 -0.1312 -0.0692  0.6853
  980MOL0     C35106   0.479   6.230   7.777 -0.1784 -0.0080  0.9670
  980MOL0     C35107   0.391   6.340   7.758  0.1578  0.4678  0.2695
  980MOL0     C35108   0.249   6.330   7.766  0.0996  0.3914  0.1292
  980MOL0     C35109   0.196   6.208   7.802  0.6232 -0.1154 -0.2117
  980MOL0     O35110   0.062   6.181   7.791  0.3972  0.2065  1.2647
  980MOL0     C35111  -0.034   6.285   7.752 -0.6063  1.4425 -0.0376
  980MOL0     C35112  -0.181   6.239   7.757  0.6001 -0.5976 -0.2331
  980MOL0     C35113  -0.275   6.324   7.672 -0.1786  0.1377  0.6423
  980MOL0     C35114  -0.294   6.459   7.735 -0.5252 -1.3274 -0.4033
  980MOL0     C35115  -0.396   6.446   7.848 -0.9116 -0.3058  0.3439
  980MOL0     C35116  -0.468   6.577   7.891 -0.4536  0.4851  0.0578
  980MOL0     C35117  -0.365   6.684   7.927  0.0302  0.3279  0.2826
  980MOL0     C35118  -0.283   6.644   8.056 -0.2184  0.2987 -0.2639
  980MOL0     N35119  -0.339   6.694   8.184 -0.9854  0.4423 -0.8791
  980MOL0     C35120  -0.353   6.825   8.225  0.7487  0.3037  0.1960
  980MOL0     C35121  -0.397   6.829   8.356  0.2728  0.8361  0.4341
  980MOL0     C35122  -0.406   6.948   8.438  0.4474  0.1558 -0.3601
  980MOL0     C35123  -0.283   6.992   8.499  0.1382  0.3984 -0.3839
  980MOL0     C35124  -0.287   7.142   8.544 -0.4618  0.5442  0.1972
  980MOL0     C35125  -0.179   7.166   8.654 -0.3377  0.3795 -0.0628
  980MOL0     O35126  -0.161   7.310   8.674  0.4092 -0.2775 -0.0296
  980MOL0     C35127  -0.041   7.368   8.637 -0.3747 -0.7768 -0.0725
  980MOL0     C35128   0.036   7.428   8.738  0.3928  0.6464 -0.0225
  980MOL0     C35129   0.158   7.507   8.710  0.6179  1.7963  0.4467
  980MOL0     C35130   0.243   7.526   8.831  0.4642  0.2562 -0.4447
  980MOL0     C35131   0.198   7.515   8.566  0.1636  0.0599 -0.6759
  980MOL0     C35132   0.321   7.576   8.517 -0.1304 -0.6281  0.2733
  980MOL0     O35133   0.333   7.633   8.394 -0.5051  0.4114 -0.2480
  980MOL0     C35134   0.457   7.638   8.342  0.0430  0.7786 -0.1689
  980MOL0     C35135   0.521   7.526   8.285  0.2377  0.2686 -0.3558
  980MOL0     C35136   0.646   7.540   8.229 -0.0743  0.8613  0.5497
  980MOL0     C35137   0.706   7.662   8.219 -0.9487  0.0611 -0.2878
  980MOL0     O35138   0.830   7.665   8.164  0.1083 -0.3211  0.7766
  980MOL0     C35139   0.920   7.769   8.192 -0.1269 -0.0996  0.4325
  980MOL0     C35140   1.060   7.741   8.123 -0.1826  0.7287 -0.6814
  980MOL0     C35141   1.102   7.592   8.154  0.6993  0.7828 -0.6914
  980MOL0     C35142   1.255   7.585   8.138  0.0355 -0.1002 -0.1607
  980MOL0     C35143   1.319   7.447   8.161 -0.8572 -0.6384  1.0476
  980MOL0     C35144   1.296   7.391   8.302  0.8430  0.7161 -0.4494
  980MOL0     C35145   1.379   7.257   8.311 -1.8227  0.0230  0.5701
  980MOL0     C35146   1.386   7.181   8.445  0.4500  0.5405 -0.3924
  980MOL0    Cl35147   1.473   7.277   8.557  0.3397 -0.2665  0.1840
  980MOL0     C35148   0.644   7.774   8.274 -0.4043 -0.8245  0.5850
  980MOL0     C35149   0.519   7.765   8.329  0.0889 -0.0358  0.1950
  980MOL0     O35150   0.412   7.546   8.586 -0.6866  0.1799  0.5229
  980MOL0     C35151   0.111   7.457   8.466 -0.1103 -0.3637 -0.4998
  980MOL0     C35152   0.006   7.375   8.507 -0.6804 -0.0710  0.2119
  980MOL0     N35153  -0.404   6.696   8.389 -0.6997 -0.5526 -0.1990
  980MOL0     N35154  -0.364   6.621   8.295  0.7424  0.1613 -0.3638
  980MOL0     C35155   0.284   6.102   7.829  0.5066  0.4844  0.1279
  980MOL0     C35156   0.427   6.106   7.816 -0.5908  0.2971  0.9501
  980MOL0     C35157   0.827   6.236   7.644  0.1287 -0.8811 -0.3074
  980MOL0     C35158   0.855   6.382   7.649  0.5000  0.6007  0.2729
  980MOL0     C35159   0.973   6.430   7.609  0.0135 -0.0322  0.2742
  980MOL0     C35160   1.073   6.356   7.549 -0.3289  0.4526 -0.5662
  980MOL0     O35161   1.181   6.400   7.478  0.8131 -0.4560 -0.2623
  980MOL0     C35162   1.180   6.540   7.436  1.1994  0.4314  0.7417
  980MOL0     C35163   1.265   6.527   7.316  1.2299  1.0609 -0.4155
  980MOL0     C35164   1.304   6.660   7.247  0.0866 -0.1276 -0.4743
  980MOL0     C35165   1.379   6.760   7.337  0.1169  0.3014 -0.3423
  980MOL0     C35166   1.463   6.848   7.256 -0.5703  1.2551  0.3768
  980MOL0     C35167   1.533   6.920   7.183 -0.7673  0.5432  0.3290
  980MOL0     C35168   1.050   6.219   7.542  0.7658  0.9055  0.3767
  980MOL0     C35169   0.927   6.159   7.579 -0.3413  0.3541  0.6709
  980MOL0     C35170   0.930   6.019   7.529 -0.6039 -0.0836 -0.7687
  980MOL0     H35171   0.429   6.437   7.729  1.1718 -0.6920 -2.5880
  980MOL0     H35172   0.187   6.412   7.731 -0.3851  0.8206  1.9254
  980MOL0     H35173  -0.011   6.327   7.653  0.8782  1.8932  0.4722
  980MOL0     H35174  -0.022   6.371   7.818 -0.1453 -0.1868  2.1018
  980MOL0     H35175  -0.199   6.135   7.729 -0.3021 -0.2912 -0.8325
  980MOL0     H35176  -0.221   6.237   7.859 -3.5968 -2.6973 -1.7204
  980MOL0     H35177  -0.220   6.344   7.579  1.6789  3.8060  2.2954
  980MOL0     H35178  -0.370   6.286   7.634  0.0147 -1.0048  1.2637
  980MOL0     H35179  -0.201   6.489   7.784 -0.4383 -2.6158  0.2797
  980MOL0     H35180  -0.317   6.538   7.664 -1.8821 -0.0549  1.3697
  980MOL0     H35181  -0.356   6.392   7.934 -2.1002 -2.6678 -0.4986
  980MOL0     H35182  -0.475   6.380   7.811 -0.1971 -0.9893  0.0034
  980MOL0     H35183  -0.511   6.625   7.803  1.0657  0.2730 -0.8237
  980MOL0     H35184  -0.555   6.555   7.954 -1.4221 -1.6407 -1.9090
  980MOL0     H35185  -0.425   6.775   7.938  1.1799  1.4133 -1.8419
  980MOL0     H35186  -0.304   6.714   7.842 -0.9569  3.1376  0.4544
  980MOL0     H35187  -0.268   6.536   8.067  0.5120 -0.0545 -3.6812
  980MOL0     H35188  -0.182   6.686   8.050  0.7955 -1.7276  1.3011
  980MOL0     H35189  -0.329   6.910   8.162 -0.8475  1.0453  0.5476
  980MOL0     H35190  -0.483   6.930   8.514  0.0645  1.8682 -0.2992
  980MOL0     H35191  -0.438   7.035   8.381 -0.4161  1.7821  2.4061
  980MOL0     H35192  -0.262   6.919   8.578  1.1652  1.5566  0.4558
  980MOL0     H35193  -0.194   6.984   8.435  1.1629 -0.8397  1.1309
  980MOL0     H35194  -0.271   7.213   8.462 -0.1420  0.6930  0.3875
  980MOL0     H35195  -0.390   7.167   8.568 -1.2933 -2.0773 -0.2497
  980MOL0     H35196  -0.218   7.119   8.745  1.5076 -2.7841 -0.7596
  980MOL0     H35197  -0.081   7.129   8.622  0.1172  1.3042  0.2497
  980MOL0     H35198   0.009   7.406   8.841  0.9667 -0.5703 -0.1147
  980MOL0     H35199   0.309   7.438   8.830 -1.5747 -1.3490  0.4699
  980MOL0     H35200   0.190   7.523   8.926 -0.3187 -0.2171 -0.8837
  980MOL0     H35201   0.304   7.617   8.828 -0.6327  0.9945 -1.0577
  980MOL0     H35202   0.467   7.432   8.275  0.8636 -0.5927  3.1076
  980MOL0     H35203   0.686   7.452   8.181  0.6819  1.4154  0.1453
  980MOL0     H35204   0.876   7.864   8.160 -0.5528 -0.1244  0.9335
  980MOL0     H35205   0.930   7.779   8.300  3.1299  0.5696  0.1779
  980MOL0     H35206   1.055   7.751   8.015 -0.1071 -2.6276 -1.1084
  980MOL0     H35207   1.131   7.812   8.167  0.8161 -0.3657 -0.4849
  980MOL0     H35208   1.053   7.530   8.078 -2.2789 -0.4537  2.0333
  980MOL0     H35209   1.060   7.552   8.246 -0.8526 -2.3514 -2.5774
  980MOL0     H35210   1.301   7.655   8.209 -2.8171 -0.6014  2.4089
  980MOL0     H35211   1.275   7.627   8.039 -1.3591  0.4848 -0.2286
  980MOL0     H35212   1.262   7.372   8.104  0.4508  0.5211 -1.9949
  980MOL0     H35213   1.426   7.447   8.139 -0.9292  3.2293  0.0024
  980MOL0     H35214   1.189   7.377   8.319  0.9819  0.8715  0.6080
  980MOL0     H35215   1.333   7.464   8.376 -1.1031  0.4470  0.8552
  980MOL0     H35216   1.479   7.296   8.289 -1.5263 -0.3119  1.3158
  980MOL0     H35217   1.352   7.195   8.225  2.0150  0.0800 -0.8736
  980MOL0     H35218   1.444   7.089   8.439 -2.4311 -1.4749  0.5885
  980MOL0     H35219   1.284   7.161   8.479  1.1297 -1.8204  0.3842
  980MOL0     H35220   0.689   7.873   8.267 -4.1651  1.0335  0.0157
  980MOL0     H35221   0.461   7.853   8.355 -2.2964 -1.8600  1.5214
  980MOL0     H35222   0.143   7.464   8.363  0.6297  1.9057 -0.1836
  980MOL0     H35223  -0.048   7.317   8.433 -2.5021  0.0624  1.3846
  980MOL0     H35224   0.231   6.010   7.849  1.7810 -0.3910 -0.4375
  980MOL0     H35225   0.487   6.022   7.851 -2.3684 -0.4764  2.2566
  980MOL0     H35226   0.791   6.456   7.696  0.7894  1.1042 -0.1184
  980MOL0     H35227   0.973   6.537   7.591 -3.0996 -0.2727 -1.9921
  980MOL0     H35228   1.082   6.575   7.403  0.3155  0.7780  3.4269
  980MOL0     H35229   1.220   6.607   7.513  1.0753 -0.1376  1.3154
  980MOL0     H35230   1.219   6.456   7.248  2.0355  1.5692 -1.5170
  980MOL0     H35231   1.354   6.474   7.350 -0.4338 -0.9553  1.0924
  980MOL0     H35232   1.379   6.629   7.174  2.4683 -0.0829  1.8315
  980MOL0     H35233   1.217   6.705   7.198  1.1182  2.2941 -0.2242
  980MOL0     H35234   1.450   6.709   7.403 -0.3598  0.9428  0.6892
  980MOL0     H35235   1.314   6.818   7.403 -1.2132  0.0751 -1.3921
  980MOL0     H35236   1.582   6.991   7.119 -3.4469  1.2733 -1.0807
  980MOL0     H35237   1.125   6.163   7.486 -0.4627 -0.7579  0.3258
  980MOL0     H35238   0.968   5.955   7.609  0.2350 -1.1635 -1.9742
  980MOL0     H35239   0.825   5.990   7.515 -1.8460  0.5584  4.8023
  980MOL0     H35240   1.003   6.011   7.448  2.5088  1.9752  1.6211
  981MOL0     O35241   6.201   9.929   0.268  0.1297 -0.0581 -0.8274
  981MOL0     C35242   6.151  10.042   0.277 -0.0654 -0.0757  0.4771
  981MOL0     O35243   6.197  10.146   0.348  0.0184 -0.4032 -0.4550
  981MOL0     C35244   6.324  10.175   0.341  0.0431 -0.2452 -0.6286
  981MOL0     C35245   6.384  10.243   0.451  0.3459  0.8408 -0.2582
  981MOL0     C35246   6.520  10.292   0.445  0.3249  0.1995  0.0669
  981MOL0     C35247   6.603  10.263   0.339 -0.6117  0.3688  0.0513
  981MOL0     O35248   6.738  10.304   0.354 -0.2253  0.4456 -0.6305
  981MOL0     C35249   6.809  10.342   0.233 -1.0262  0.5849  0.4730
  981MOL0     C35250   6.797  10.489   0.188 -0.5230  0.6901  0.3637
  981MOL0     C35251   6.652  10.533   0.152 -0.2394 -0.7022 -0.0014
  981MOL0     C35252   6.596  10.491   0.013 -0.3578 -0.6631  0.1759
  981MOL0     C35253   6.453  10.531  -0.032  0.3409 -0.5734  0.0254
  981MOL0     C35254   6.359  10.569   0.082  0.1253 -0.3477  0.9168
  981MOL0     C35255   6.220  10.598   0.033  0.6841  1.0291 -0.3139
  981MOL0     C35256   6.117  10.646   0.136 -0.7277  0.1058 -0.4175
  981MOL0     N35257   5.979  10.665   0.072 -0.2657 -0.2763 -0.9028
  981MOL0     C35258   5.941  10.730  -0.043 -0.3505  0.2547  1.1556
  981MOL0     C35259   5.824  10.669  -0.077  0.6977  0.7316  0.6679
  981MOL0     C35260   5.719  10.708  -0.189  0.3086  0.2546  0.2784
  981MOL0     C35261   5.569  10.692  -0.130 -0.4216 -0.4089  0.4526
  981MOL0     C35262   5.471  10.766  -0.224 -0.0228  0.2161 -0.1176
  981MOL0     C35263   5.491  10.704  -0.368  1.1346 -0.4893  0.7659
  981MOL0     O35264   5.370  10.737  -0.442  0.0157 -0.2901  0.3261
  981MOL0     C35265   5.249  10.673  -0.433 -0.6859  0.8332 -0.3187
  981MOL0     C35266   5.142  10.732  -0.497  0.3527 -0.3458  0.7427
  981MOL0     C35267   5.010  10.689  -0.484  0.6588  0.8345  0.4253
  981MOL0     C35268   4.915  10.754  -0.588 -0.0602  0.2365  1.1181
  981MOL0     C35269   4.976  10.572  -0.407 -1.2805 -0.2712  0.1185
  981MOL0     C35270   4.847  10.502  -0.405 -0.9144  0.3624  0.4958
  981MOL0     O35271   4.744  10.559  -0.471 -0.3036 -0.3979  0.5047
  981MOL0     C35272   4.627  10.494  -0.507  0.0307 -0.5406  0.0666
  981MOL0     C35273   4.513  10.577  -0.509  0.2100  0.0570  0.7212
  981MOL0     C35274   4.379  10.530  -0.537 -0.1333 -0.1125  0.2204
  981MOL0     C35275   4.359  10.393  -0.566  0.0758  0.6723 -0.3772
  981MOL0     O35276   4.232  10.330  -0.592 -0.7726 -0.0713  0.1774
  981MOL0     C35277   4.178  10.376  -0.718  0.0354 -0.6138  0.0460
  981MOL0     C35278   4.042  10.318  -0.753  1.0917  0.1049 -0.9941
  981MOL0     C35279   3.941  10.329  -0.649  1.1005  0.5362  0.1527
  981MOL0     C35280   3.813  10.252  -0.705 -0.4300  0.2310 -0.3642
  981MOL0     C35281   3.693  10.271  -0.614  0.5249  0.7679 -0.8441
  981MOL0     C35282   3.576  10.180  -0.653  0.0728  0.6029 -0.3328
  981MOL0     C35283   3.477  10.162  -0.542  0.8993  0.3274 -0.3161
  981MOL0     C35284   3.395  10.036  -0.555 -0.3810  0.1282  0.0603
  981MOL0    Cl35285   3.284  10.063  -0.681  0.7845  0.3061 -0.4127
  981MOL0     C35286   4.480  10.317  -0.574 -0.2004  0.3857 -0.4607
  981MOL0     C35287   4.607  10.370  -0.547 -0.1356 -0.1403 -0.1396
  981MOL0     O35288   4.856  10.382  -0.366  0.4556 -0.2609 -0.6119
  981MOL0     C35289   5.093  10.513  -0.344  0.3487  0.3959 -0.2424
  981MOL0     C35290   5.224  10.562  -0.356 -0.2895  0.3670  0.1926
  981MOL0     N35291   5.793  10.574   0.010  0.5176  0.2269 -0.4493
  981MOL0     N35292   5.882  10.581   0.103 -0.1381 -0.1996  0.4237
  981MOL0     C35293   6.544  10.198   0.229 -0.7155  0.6650 -0.7194
  981MOL0     C35294   6.414  10.152   0.233  0.5435  0.7858  0.4348
  981MOL0     C35295   6.021  10.065   0.203 -0.0638  0.6249  0.5948
  981MOL0     C35296   5.995  10.199   0.155 -1.0326  0.4592 -0.5923
  981MOL0     C35297   5.887  10.229   0.073  0.3469 -0.7096 -1.4218
  981MOL0     C35298   5.791  10.128   0.038 -0.7596 -0.3822  0.3626
  981MOL0     O35299   5.672  10.172  -0.020 -0.1635 -0.1566 -0.5521
  981MOL0     C35300   5.560  10.085  -0.021  0.1540  0.5670  0.1253
  981MOL0     C35301   5.440  10.182  -0.034 -0.0693  0.0831  0.1477
  981MOL0     C35302   5.444  10.284  -0.151 -0.3310  0.0841 -0.5618
  981MOL0     C35303   5.384  10.227  -0.284  1.0995  0.4366  0.1227
  981MOL0     C35304   5.245  10.187  -0.283  1.5830 -0.3271  0.2048
  981MOL0     C35305   5.131  10.151  -0.299  0.7493 -0.1596 -0.1015
  981MOL0     C35306   5.814   9.998   0.082 -0.1431 -0.1858  0.9803
  981MOL0     C35307   5.929   9.963   0.159 -0.6807  0.4782 -0.3292
  981MOL0     C35308   5.931   9.823   0.200  0.4383  0.3649 -0.5127
  981MOL0     H35309   6.324  10.263   0.539 -2.7958 -0.8461 -1.8600
  981MOL0     H35310   6.572  10.344   0.524 -1.4034  0.4337  1.1009
  981MOL0     H35311   6.783  10.274   0.151 -0.8167 -1.1649  1.8028
  981MOL0     H35312   6.915  10.325   0.256 -0.5793  0.9430 -1.1728
  981MOL0     H35313   6.841  10.542   0.272  1.2903  1.5680 -1.0854
  981MOL0     H35314   6.857  10.517   0.101 -0.4756  3.4066  1.1888
  981MOL0     H35315   6.592  10.489   0.232  1.9212 -1.6470  1.1765
  981MOL0     H35316   6.634  10.641   0.162 -1.1125 -0.9695  1.7560
  981MOL0     H35317   6.674  10.539  -0.047  0.7306 -0.4281  1.7157
  981MOL0     H35318   6.611  10.383   0.005 -0.1293 -0.5345 -1.6527
  981MOL0     H35319   6.418  10.445  -0.089  1.5433  1.3760 -4.0790
  981MOL0     H35320   6.455  10.621  -0.095 -0.0298  2.2385  3.7117
  981MOL0     H35321   6.370  10.498   0.165  2.7411  0.9929  1.8510
  981MOL0     H35322   6.399  10.663   0.122 -0.8161  0.4640 -0.0238
  981MOL0     H35323   6.186  10.503  -0.010 -0.8738 -0.0064  2.8735
  981MOL0     H35324   6.224  10.674  -0.047  0.6518  0.2537 -1.0672
  981MOL0     H35325   6.100  10.569   0.212 -0.2361 -0.1914 -0.6047
  981MOL0     H35326   6.154  10.739   0.181 -1.3769  1.2546 -2.1147
  981MOL0     H35327   5.990  10.809  -0.100  1.2030 -0.2998  1.6665
  981MOL0     H35328   5.738  10.641  -0.272  3.3319  0.2339  0.8613
  981MOL0     H35329   5.738  10.812  -0.217  2.5584  0.1576  1.2316
  981MOL0     H35330   5.540  10.587  -0.141  0.4120 -0.6388  0.3673
  981MOL0     H35331   5.548  10.732  -0.031  0.5660 -2.0538  1.3736
  981MOL0     H35332   5.369  10.744  -0.193  0.5709 -1.0120  1.0514
  981MOL0     H35333   5.489  10.874  -0.222  0.1623  0.2026 -0.6411
  981MOL0     H35334   5.565  10.759  -0.428 -1.1198 -0.8429 -2.6179
  981MOL0     H35335   5.523  10.599  -0.371  1.5588 -0.3463 -0.6702
  981MOL0     H35336   5.178  10.815  -0.557 -0.6197  1.7724  2.9318
  981MOL0     H35337   4.812  10.768  -0.556 -0.8740  1.1602 -1.5870
  981MOL0     H35338   4.914  10.703  -0.685  4.0984  2.1495 -0.1980
  981MOL0     H35339   4.947  10.856  -0.613 -0.3055 -0.5491 -3.3505
  981MOL0     H35340   4.534  10.680  -0.482 -0.5958  0.1699  0.9308
  981MOL0     H35341   4.286  10.586  -0.524  0.0561  0.5577 -1.1608
  981MOL0     H35342   4.163  10.484  -0.714  2.1535 -0.2590 -0.4123
  981MOL0     H35343   4.240  10.356  -0.807 -0.7941  0.2949 -0.7656
  981MOL0     H35344   4.003  10.367  -0.843 -1.6170  1.7181  0.9092
  981MOL0     H35345   4.055  10.214  -0.783 -0.9876 -0.0295 -1.5753
  981MOL0     H35346   3.935  10.435  -0.622  2.2572  0.4193  0.9547
  981MOL0     H35347   3.976  10.271  -0.564  1.3672 -1.6891 -1.3934
  981MOL0     H35348   3.822  10.143  -0.703 -0.7492  0.1932 -0.7999
  981MOL0     H35349   3.791  10.285  -0.808 -2.3210  1.0203  0.2350
  981MOL0     H35350   3.728  10.264  -0.511  2.2147 -0.6277 -1.4707
  981MOL0     H35351   3.666  10.377  -0.618  1.3210  0.9655 -1.1188
  981MOL0     H35352   3.621  10.084  -0.680  0.5865  0.4482  0.9938
  981MOL0     H35353   3.533  10.223  -0.744  3.7122 -1.7574 -3.5133
  981MOL0     H35354   3.405  10.245  -0.549 -3.3725 -3.0857 -5.4732
  981MOL0     H35355   3.521  10.167  -0.442  0.8373  1.2009 -0.3203
  981MOL0     H35356   3.345  10.001  -0.464  0.9138 -1.5798  0.1619
  981MOL0     H35357   3.464   9.954  -0.579 -0.1101  0.4266 -0.1901
  981MOL0     H35358   4.473  10.212  -0.604 -2.5645  0.0069  1.0944
  981MOL0     H35359   4.693  10.303  -0.545 -1.7846 -2.3531  0.7834
  981MOL0     H35360   5.086  10.416  -0.295  0.2065  0.4456 -0.1657
  981MOL0     H35361   5.298  10.506  -0.299 -0.6840 -0.7238 -0.3395
  981MOL0     H35362   6.594  10.161   0.141 -2.1808  1.2363 -1.8407
  981MOL0     H35363   6.391  10.097   0.142  0.2792 -1.1166  1.5771
  981MOL0     H35364   6.057  10.284   0.182 -3.1376  1.3370  1.8808
  981MOL0     H35365   5.856  10.329   0.043 -0.0555 -0.6425 -0.7999
  981MOL0     H35366   5.568  10.013  -0.102 -0.1768 -0.2491  0.8073
  981MOL0     H35367   5.559  10.018   0.065  0.0106 -1.7191 -1.5587
  981MOL0     H35368   5.434  10.235   0.062 -1.7095 -0.6358  0.4772
  981MOL0     H35369   5.359  10.111  -0.055  1.3679 -1.7254  0.4848
  981MOL0     H35370   5.378  10.363  -0.114 -1.0243 -0.0677 -1.4631
  981MOL0     H35371   5.538  10.339  -0.168  0.2392  0.2250  2.4620
  981MOL0     H35372   5.443  10.140  -0.312  0.4706 -0.6661  1.9855
  981MOL0     H35373   5.402  10.301  -0.363  1.3648 -0.8242 -1.0224
  981MOL0     H35374   5.036  10.108  -0.321  1.2300 -1.9130  1.0466
  981MOL0     H35375   5.740   9.930   0.039 -0.3702 -0.9688  2.5297
  981MOL0     H35376   5.861   9.763   0.141 -1.3672  3.3679 -1.7033
  981MOL0     H35377   6.031   9.779   0.193  1.5676  2.3714  1.6349
  981MOL0     H35378   5.923   9.826   0.309 -3.2043  1.1382 -0.6553
  982MOL0     O35379   5.404   3.584   8.325 -0.6840  0.2467 -0.2798
  982MOL0     C35380   5.284   3.552   8.359 -0.5099  0.1455  0.4886
  982MOL0     O35381   5.171   3.626   8.350  0.3903 -0.4891  0.2056
  982MOL0     C35382   5.176   3.749   8.302  0.1569  0.7724 -1.0603
  982MOL0     C35383   5.272   3.837   8.347 -0.5584 -0.2969 -0.0244
  982MOL0     C35384   5.302   3.952   8.263  0.8155  0.8145 -0.1176
  982MOL0     C35385   5.222   3.970   8.150 -0.1113 -1.0452 -0.1810
  982MOL0     O35386   5.252   4.067   8.055  0.5318 -0.1198  0.2920
  982MOL0     C35387   5.341   4.177   8.090  0.4976  0.2975  0.4098
  982MOL0     C35388   5.302   4.301   8.009  0.0318  0.0134 -0.6151
  982MOL0     C35389   5.420   4.387   7.975  0.3594 -0.6629  0.5216
  982MOL0     C35390   5.367   4.525   7.913 -0.1940 -0.4948 -0.1877
  982MOL0     C35391   5.466   4.629   7.866 -0.4721  0.9491  0.0649
  982MOL0     C35392   5.394   4.748   7.797 -0.1178  0.4150  0.0238
  982MOL0     C35393   5.479   4.869   7.763 -0.3691 -0.0204 -0.2912
  982MOL0     C35394   5.421   4.960   7.646  0.6622 -0.0057 -0.0044
  982MOL0     N35395   5.531   5.029   7.582 -0.9615 -0.0758  0.5426
  982MOL0     C35396   5.646   5.087   7.640 -0.9497 -0.5876 -0.0656
  982MOL0     C35397   5.694   5.164   7.539  0.1012 -0.1848 -0.4589
  982MOL0     C35398   5.811   5.256   7.550  0.7230  0.3602  0.8729
  982MOL0     C35399   5.924   5.227   7.448  0.3768 -0.3661 -0.7779
  982MOL0     C35400   5.977   5.078   7.441  0.8586  0.2594 -0.3817
  982MOL0     C35401   6.068   5.036   7.553  0.0904  0.0105  0.3524
  982MOL0     O35402   5.998   5.016   7.679 -0.6729 -0.0651  0.0464
  982MOL0     C35403   5.949   4.895   7.724 -0.4347  0.0747 -0.1782
  982MOL0     C35404   5.978   4.779   7.662 -0.9154  0.8227 -0.7131
  982MOL0     C35405   5.947   4.655   7.713  0.0502  0.4128 -1.1033
  982MOL0     C35406   5.956   4.534   7.616 -0.5603 -0.6907 -0.4443
  982MOL0     C35407   5.898   4.650   7.840 -0.1930 -0.2518 -0.1156
  982MOL0     C35408   5.857   4.530   7.912 -0.0620 -0.1769 -0.4624
  982MOL0     O35409   5.834   4.540   8.048  0.0627  0.7522 -0.4037
  982MOL0     C35410   5.785   4.433   8.120  0.7550  0.8419 -0.3392
  982MOL0     C35411   5.737   4.474   8.242 -0.0014  0.0509  0.1667
  982MOL0     C35412   5.685   4.390   8.341  0.1165  0.9307 -0.3950
  982MOL0     C35413   5.691   4.255   8.311  0.2867 -0.5082 -0.0952
  982MOL0     O35414   5.640   4.156   8.379  0.2707 -0.3353 -0.1825
  982MOL0     C35415   5.542   4.185   8.474  1.0381  0.6535 -1.4409
  982MOL0     C35416   5.512   4.054   8.551  0.2545  0.8572 -1.0292
  982MOL0     C35417   5.404   4.070   8.664 -0.1604  0.1784 -0.2618
  982MOL0     C35418   5.251   4.079   8.612  0.2428  0.4729  0.2822
  982MOL0     C35419   5.160   4.124   8.715 -0.2880  0.3179  0.2515
  982MOL0     C35420   5.022   4.088   8.696 -0.8530 -0.9617 -0.2780
  982MOL0     C35421   4.946   4.110   8.826 -0.0446 -0.0142  0.8129
  982MOL0     C35422   4.846   4.224   8.807  0.7880 -0.0605 -0.2438
  982MOL0    Cl35423   4.757   4.244   8.951  0.3695 -0.4292 -0.4302
  982MOL0     C35424   5.744   4.212   8.189  0.1134 -0.0892  0.6829
  982MOL0     C35425   5.777   4.299   8.091  0.1945 -0.0259 -0.4175
  982MOL0     O35426   5.822   4.436   7.843  0.5116 -0.3359  0.2375
  982MOL0     C35427   5.858   4.774   7.903  0.4022 -0.0560 -1.2752
  982MOL0     C35428   5.878   4.897   7.841 -0.3080 -0.7875 -0.3224
  982MOL0     N35429   5.604   5.170   7.431 -0.3261  0.9188 -0.4013
  982MOL0     N35430   5.518   5.087   7.453  0.1652 -0.1338  0.9029
  982MOL0     C35431   5.117   3.888   8.120  0.4189 -0.3075 -0.6427
  982MOL0     C35432   5.090   3.771   8.197  0.6402 -0.9008 -0.4372
  982MOL0     C35433   5.264   3.423   8.422  0.4141 -0.4604 -0.1697
  982MOL0     C35434   5.193   3.320   8.357 -0.7474 -0.5392 -0.0297
  982MOL0     C35435   5.160   3.200   8.430 -0.5787  0.1049  0.1344
  982MOL0     C35436   5.192   3.188   8.563 -0.5432  0.1751 -0.9652
  982MOL0     O35437   5.154   3.085   8.636 -0.6962 -0.4184 -0.3987
  982MOL0     C35438   5.024   3.025   8.604 -0.0055 -0.0178  1.0079
  982MOL0     C35439   4.900   3.125   8.617 -0.4706  0.4699  0.9032
  982MOL0     C35440   4.898   3.190   8.757  0.4864 -0.9161 -0.8750
  982MOL0     C35441   4.947   3.118   8.879 -0.2954 -0.9114 -1.0323
  982MOL0     C35442   4.882   2.988   8.898 -0.2838  0.1250  0.5266
  982MOL0     C35443   4.829   2.879   8.890 -0.5757  0.1806  0.0560
  982MOL0     C35444   5.254   3.296   8.627 -0.2878  0.3063  0.5071
  982MOL0     C35445   5.289   3.413   8.562  0.5576 -0.1160  0.4328
  982MOL0     C35446   5.369   3.500   8.653 -0.0495 -0.8467  0.3130
  982MOL0     H35447   5.334   3.810   8.432  2.5521  1.8437 -1.4053
  982MOL0     H35448   5.389   4.015   8.278  3.4583 -2.5082 -0.2362
  982MOL0     H35449   5.445   4.146   8.071  0.2115 -1.1263  1.0387
  982MOL0     H35450   5.324   4.198   8.196  0.3401  1.8425  0.0958
  982MOL0     H35451   5.242   4.272   7.922 -0.4541 -0.8564 -0.0156
  982MOL0     H35452   5.225   4.355   8.066 -1.6814  0.2528 -3.0020
  982MOL0     H35453   5.478   4.428   8.059  3.3303  4.0950 -3.2442
  982MOL0     H35454   5.493   4.338   7.910  0.4528 -0.5958  0.5743
  982MOL0     H35455   5.292   4.508   7.836  1.5425  1.9271 -2.5856
  982MOL0     H35456   5.319   4.563   8.004 -1.9207 -2.7652 -0.0506
  982MOL0     H35457   5.544   4.593   7.798 -0.8557 -1.3857  0.7742
  982MOL0     H35458   5.527   4.665   7.949  0.2327  1.8173 -0.8014
  982MOL0     H35459   5.345   4.710   7.707 -1.2283  1.2664  0.2460
  982MOL0     H35460   5.315   4.784   7.862 -0.4850 -1.1661  0.4862
  982MOL0     H35461   5.573   4.834   7.719  0.5502  1.4407  0.4423
  982MOL0     H35462   5.499   4.935   7.847  0.2098 -0.7634  0.1581
  982MOL0     H35463   5.372   4.895   7.573  0.4637  0.0375  0.0904
  982MOL0     H35464   5.344   5.027   7.686 -0.0052 -0.4922 -0.4587
  982MOL0     H35465   5.691   5.072   7.737 -0.6795  0.3389 -0.0341
  982MOL0     H35466   5.855   5.247   7.650  1.5847  0.0834  0.4746
  982MOL0     H35467   5.778   5.360   7.540 -3.0547 -0.4314  3.0354
  982MOL0     H35468   5.879   5.237   7.348 -0.5900 -0.3408 -0.3521
  982MOL0     H35469   6.001   5.303   7.458  0.1316 -0.2624  0.4167
  982MOL0     H35470   5.888   5.016   7.429  1.0405  0.3226 -2.2872
  982MOL0     H35471   6.034   5.053   7.351  1.7322 -0.9829  0.4805
  982MOL0     H35472   6.117   4.946   7.515 -3.0032 -2.0775  0.9611
  982MOL0     H35473   6.148   5.110   7.565  1.0851 -1.2607  2.0005
  982MOL0     H35474   6.007   4.784   7.558  0.2602 -2.0199 -0.6136
  982MOL0     H35475   5.996   4.563   7.519 -1.2062  0.4603 -0.3770
  982MOL0     H35476   5.853   4.503   7.597 -1.2786  2.3243 -1.9220
  982MOL0     H35477   6.011   4.447   7.654  1.5570  1.1144  0.9432
  982MOL0     H35478   5.727   4.582   8.255 -2.3726  0.3421 -2.8624
  982MOL0     H35479   5.638   4.423   8.433  0.7796  0.5043  0.1135
  982MOL0     H35480   5.567   4.265   8.544  1.4030 -1.2894  0.7780
  982MOL0     H35481   5.448   4.208   8.423 -0.1607 -0.6086  0.0685
  982MOL0     H35482   5.490   3.971   8.484  1.8498 -0.4558 -0.0107
  982MOL0     H35483   5.590   3.995   8.600  2.1287  0.7415 -3.8908
  982MOL0     H35484   5.431   4.156   8.725  0.2787 -2.1867  3.2028
  982MOL0     H35485   5.411   3.985   8.733 -2.5733  1.0874  1.2585
  982MOL0     H35486   5.226   3.976   8.585  2.4805  0.6363 -3.1054
  982MOL0     H35487   5.228   4.140   8.524 -3.4536 -0.6765  0.2543
  982MOL0     H35488   5.197   4.094   8.814 -1.1419  0.0513  0.4989
  982MOL0     H35489   5.164   4.232   8.735  2.0980  0.3586 -0.1787
  982MOL0     H35490   5.013   3.989   8.650 -0.9124 -0.5406 -1.1879
  982MOL0     H35491   4.992   4.151   8.612  1.4168 -1.0335 -1.2195
  982MOL0     H35492   5.014   4.126   8.910  2.6533 -1.7150 -0.8754
  982MOL0     H35493   4.896   4.014   8.844 -0.2855 -0.3971 -1.5742
  982MOL0     H35494   4.778   4.190   8.729  1.8060  0.6656 -1.4822
  982MOL0     H35495   4.902   4.312   8.774  1.8980  0.7876  3.4540
  982MOL0     H35496   5.743   4.108   8.159 -0.6444  0.8521 -3.0968
  982MOL0     H35497   5.795   4.264   7.990 -1.4406 -1.1639 -0.3538
  982MOL0     H35498   5.807   4.787   7.997  0.1186  2.6650 -1.7208
  982MOL0     H35499   5.848   4.994   7.879 -0.2435 -0.4451 -1.1314
  982MOL0     H35500   5.068   3.900   8.024  1.5985  1.0774 -1.0970
  982MOL0     H35501   5.004   3.715   8.162  0.9898 -0.1233 -2.7497
  982MOL0     H35502   5.179   3.306   8.250 -0.8623 -1.3151  0.0770
  982MOL0     H35503   5.115   3.119   8.374 -0.7032 -0.6727  1.3493
  982MOL0     H35504   5.016   2.989   8.501  1.8123  1.8289  0.1542
  982MOL0     H35505   5.025   2.944   8.678 -0.5931 -0.3136  0.6993
  982MOL0     H35506   4.814   3.060   8.603 -0.6235  0.3501  2.2604
  982MOL0     H35507   4.907   3.184   8.524 -1.2262 -3.5689 -1.9579
  982MOL0     H35508   4.936   3.293   8.752 -4.2695  1.1194 -0.6872
  982MOL0     H35509   4.791   3.205   8.770  0.8800  1.4532  0.2823
  982MOL0     H35510   4.921   3.168   8.973 -3.6603 -1.9231 -1.2996
  982MOL0     H35511   5.057   3.113   8.880 -0.3240 -2.2529 -2.0805
  982MOL0     H35512   4.787   2.782   8.905 -1.0880  0.4324  0.2737
  982MOL0     H35513   5.265   3.307   8.734 -2.5352 -0.7936  0.9026
  982MOL0     H35514   5.309   3.528   8.740  1.2918  1.4174  0.5767
  982MOL0     H35515   5.463   3.458   8.689 -0.4109 -1.2848  0.7751
  982MOL0     H35516   5.402   3.594   8.609  2.6561 -2.3287 -1.0850
  983MOL0     O35517   6.210   9.590   8.334 -0.5392 -1.2197 -0.1336
  983MOL0     C35518   6.176   9.537   8.233  0.4881 -0.0039 -0.1939
  983MOL0     O35519   6.265   9.453   8.151  0.2040 -0.3380  0.9682
  983MOL0     C35520   6.400   9.456   8.163 -0.6270 -0.4512  0.2092
  983MOL0     C35521   6.495   9.499   8.069 -0.0956  0.4984 -0.3069
  983MOL0     C35522   6.632   9.501   8.101 -0.1669 -0.1912  0.0952
  983MOL0     C35523   6.668   9.461   8.228  0.1707 -0.2225  0.1202
  983MOL0     O35524   6.798   9.443   8.258  0.3743 -0.5683 -0.6891
  983MOL0     C35525   6.875   9.565   8.267 -0.8507 -0.4426 -0.9978
  983MOL0     C35526   7.009   9.526   8.334  0.2112 -0.2049  0.6909
  983MOL0     C35527   7.082   9.650   8.388  0.3995 -1.0198  0.1444
  983MOL0     C35528   7.219   9.667   8.311 -0.0168 -0.1136 -0.3106
  983MOL0     C35529   7.319   9.757   8.373 -0.8996  0.3453  0.5596
  983MOL0     C35530   7.261   9.892   8.397 -0.2999 -0.3497 -0.5179
  983MOL0     C35531   7.357   9.981   8.474 -0.4299 -0.0963 -0.2941
  983MOL0     C35532   7.502  10.002   8.406 -0.3339  1.0667  0.6530
  983MOL0     N35533   7.559  10.137   8.447  0.5173  0.0914 -0.3046
  983MOL0     C35534   7.530  10.264   8.397 -0.0922 -0.0717 -1.4726
  983MOL0     C35535   7.628  10.344   8.456 -0.8813 -1.0122 -0.7311
  983MOL0     C35536   7.657  10.489   8.432 -0.5246 -0.2306  0.0960
  983MOL0     C35537   7.760  10.564   8.521  0.0492  0.1115 -0.1375
  983MOL0     C35538   7.764  10.713   8.496 -0.6871 -1.3738  0.7791
  983MOL0     C35539   7.884  10.773   8.572  1.4605  0.6660 -0.2984
  983MOL0     O35540   7.885  10.915   8.586 -0.3788  0.1904 -0.2537
  983MOL0     C35541   7.921  10.996   8.481  0.8276  0.5434 -0.0344
  983MOL0     C35542   7.890  11.129   8.483 -0.7624 -0.2013  0.6873
  983MOL0     C35543   7.921  11.218   8.375 -0.2966 -0.3315 -0.4421
  983MOL0     C35544   7.905  11.367   8.400 -0.1632  0.1423  0.0290
  983MOL0     C35545   7.978  11.164   8.259  0.3743 -0.1539 -0.1335
  983MOL0     C35546   8.019  11.235   8.141  0.3320 -0.3371  0.1664
  983MOL0     O35547   8.022  11.165   8.020  0.0704  0.1260 -0.4290
  983MOL0     C35548   8.007  11.237   7.905  1.1893 -0.3578  0.3672
  983MOL0     C35549   8.109  11.291   7.828  0.1305  0.6433 -0.1514
  983MOL0     C35550   8.096  11.369   7.727  0.1817 -1.3843  0.7392
  983MOL0     C35551   7.969  11.405   7.679 -1.5138  0.5292  0.5173
  983MOL0     O35552   7.953  11.471   7.558  0.9247 -0.2787  0.0401
  983MOL0     C35553   7.933  11.618   7.569 -0.3801  0.6348  0.0491
  983MOL0     C35554   8.051  11.682   7.489  0.4959  0.2366  0.2291
  983MOL0     C35555   8.046  11.826   7.522  0.1224 -0.2751  0.3687
  983MOL0     C35556   8.130  11.857   7.647 -0.3334 -1.1823  0.1245
  983MOL0     C35557   8.143  12.012   7.684 -0.1460  0.2251 -0.3928
  983MOL0     C35558   8.162  12.109   7.566  0.6749 -0.0533 -0.1036
  983MOL0     C35559   8.183  12.259   7.595  0.5726  0.5959 -0.6722
  983MOL0     C35560   8.178  12.335   7.461  0.4146 -0.2502  0.0380
  983MOL0    Cl35561   8.290  12.286   7.336 -0.0228  0.5253 -0.1958
  983MOL0     C35562   7.858  11.351   7.752  0.7417  0.5572  0.0007
  983MOL0     C35563   7.875  11.265   7.865  0.1812 -0.3700 -0.1076
  983MOL0     O35564   8.056  11.349   8.155 -0.0249 -1.0179 -0.3859
  983MOL0     C35565   8.007  11.031   8.257  0.1435 -0.6363  1.0153
  983MOL0     C35566   7.967  10.940   8.352 -0.1741 -0.5783  0.4265
  983MOL0     N35567   7.694  10.271   8.555  0.2878 -0.3119 -0.9194
  983MOL0     N35568   7.659  10.145   8.536 -0.2700 -0.4323 -0.1348
  983MOL0     C35569   6.573   9.423   8.327  0.7932  0.3073  0.8966
  983MOL0     C35570   6.438   9.420   8.290 -1.2528 -0.5153  0.8759
  983MOL0     C35571   6.038   9.534   8.193  1.0661 -0.7262  0.9147
  983MOL0     C35572   5.992   9.420   8.116 -0.8299  0.0954 -0.8076
  983MOL0     C35573   5.864   9.419   8.069 -0.0440 -0.4555  1.1940
  983MOL0     C35574   5.768   9.518   8.100 -0.4349  0.6477 -0.0474
  983MOL0     O35575   5.645   9.501   8.029 -0.2715 -0.1715 -0.2645
  983MOL0     C35576   5.571   9.621   8.016  0.1408  0.2778 -0.9401
  983MOL0     C35577   5.459   9.629   8.121 -0.9811  0.4090  0.9109
  983MOL0     C35578   5.345   9.524   8.107 -0.6055 -0.3961  0.6795
  983MOL0     C35579   5.263   9.507   8.230  0.1167  0.2615 -0.6062
  983MOL0     C35580   5.176   9.635   8.251 -0.2545  1.0441  0.4912
  983MOL0     C35581   5.109   9.735   8.244 -0.4186  0.3084  0.4144
  983MOL0     C35582   5.809   9.619   8.182 -0.3927 -0.1542 -0.2661
  983MOL0     C35583   5.937   9.636   8.221  0.1660 -0.5785  0.3141
  983MOL0     C35584   5.967   9.768   8.291 -0.0576 -0.5326  0.1218
  983MOL0     H35585   6.452   9.517   7.971 -1.1846 -2.6652 -0.5226
  983MOL0     H35586   6.708   9.510   8.024  0.2636 -3.3578  0.0353
  983MOL0     H35587   6.823   9.642   8.324  2.2425  1.4323 -0.4311
  983MOL0     H35588   6.899   9.603   8.167  0.0061 -0.4276 -0.8024
  983MOL0     H35589   6.989   9.465   8.423 -1.6374 -0.9525 -0.1968
  983MOL0     H35590   7.074   9.468   8.268 -0.1926 -2.3630  2.0806
  983MOL0     H35591   7.027   9.745   8.395 -0.6993 -1.7825  3.4747
  983MOL0     H35592   7.106   9.625   8.492  0.6931 -0.1040  0.3070
  983MOL0     H35593   7.252   9.566   8.285 -0.4079 -0.3094 -0.0609
  983MOL0     H35594   7.198   9.715   8.215 -0.1160  0.1824 -0.1395
  983MOL0     H35595   7.402   9.752   8.301 -1.4437 -1.7991  0.0108
  983MOL0     H35596   7.363   9.723   8.468 -0.4579  0.5250  0.4236
  983MOL0     H35597   7.234   9.955   8.311 -1.6559  2.8677  2.0460
  983MOL0     H35598   7.173   9.881   8.461  2.0694 -0.1828  2.9800
  983MOL0     H35599   7.362   9.943   8.576 -1.3776  2.7745  0.9362
  983MOL0     H35600   7.310  10.079   8.484  1.1328  0.6672 -0.0507
  983MOL0     H35601   7.572   9.920   8.419 -1.1813  0.0772 -0.6959
  983MOL0     H35602   7.487  10.013   8.298 -1.4520 -1.0507  0.5338
  983MOL0     H35603   7.460  10.300   8.322 -1.9016 -0.5631 -0.1048
  983MOL0     H35604   7.565  10.547   8.431  0.8188  2.1632 -2.7121
  983MOL0     H35605   7.690  10.501   8.328  3.3970  0.2956  1.2405
  983MOL0     H35606   7.727  10.558   8.625  0.3847  0.5688 -0.0008
  983MOL0     H35607   7.863  10.530   8.505 -0.1833  0.2291 -2.0268
  983MOL0     H35608   7.778  10.733   8.390  1.9241  1.9707  1.5815
  983MOL0     H35609   7.672  10.765   8.525  0.1006 -0.0277  0.9474
  983MOL0     H35610   7.878  10.749   8.679  1.1098  1.9853  0.0004
  983MOL0     H35611   7.981  10.736   8.538  0.9880 -0.2770 -0.6595
  983MOL0     H35612   7.832  11.175   8.563 -0.6485 -0.7350  1.0836
  983MOL0     H35613   7.862  11.403   8.494  3.1984  3.2335  0.6233
  983MOL0     H35614   7.852  11.420   8.320 -0.0646 -0.1321 -0.2187
  983MOL0     H35615   8.004  11.413   8.393  0.9307 -1.3813  3.2650
  983MOL0     H35616   8.204  11.262   7.873 -2.9106 -2.4525  5.4229
  983MOL0     H35617   8.184  11.412   7.679 -1.5759  3.5881  1.3703
  983MOL0     H35618   7.849  11.648   7.506 -0.6423 -0.7284 -0.2885
  983MOL0     H35619   7.927  11.649   7.674  0.3099 -0.4905  0.4412
  983MOL0     H35620   8.148  11.634   7.506 -0.8325 -2.5701  0.4142
  983MOL0     H35621   8.032  11.664   7.382  1.4034 -1.6654  0.3355
  983MOL0     H35622   7.945  11.857   7.550 -0.3715 -2.9695  1.8916
  983MOL0     H35623   8.072  11.892   7.439  1.4519 -0.0829  0.9179
  983MOL0     H35624   8.228  11.809   7.635 -0.3768 -0.9124 -1.5825
  983MOL0     H35625   8.082  11.814   7.736  0.2988  1.5082  1.8660
  983MOL0     H35626   8.056  12.037   7.745 -1.7447 -2.0423 -1.5784
  983MOL0     H35627   8.225  12.016   7.756 -0.4843 -0.7715  0.0741
  983MOL0     H35628   8.069  12.102   7.508  0.8388 -2.7763 -0.1533
  983MOL0     H35629   8.240  12.061   7.506  0.3189  0.3654 -0.9146
  983MOL0     H35630   8.286  12.259   7.632  0.5799 -0.7513 -0.6523
  983MOL0     H35631   8.110  12.289   7.670  2.2693 -0.9749  1.7558
  983MOL0     H35632   8.210  12.436   7.487 -1.6527  0.6540 -0.6954
  983MOL0     H35633   8.083  12.362   7.415  1.1335  1.9478 -0.2921
  983MOL0     H35634   7.759  11.375   7.715  0.9160  1.0292 -0.1572
  983MOL0     H35635   7.790  11.234   7.924 -0.2374  1.7795  0.5110
  983MOL0     H35636   8.038  10.990   8.161 -0.5683  3.6950 -1.3140
  983MOL0     H35637   7.988  10.834   8.339  2.0697 -0.2734  1.0533
  983MOL0     H35638   6.616   9.382   8.417 -2.0930 -2.0146  1.3854
  983MOL0     H35639   6.364   9.400   8.367 -1.0934  1.6120  1.6592
  983MOL0     H35640   6.058   9.336   8.099  0.2233  0.0523  2.7270
  983MOL0     H35641   5.841   9.329   8.012  3.1044 -0.9857  0.5689
  983MOL0     H35642   5.643   9.703   8.024 -0.6451  1.0287 -1.4750
  983MOL0     H35643   5.524   9.610   7.918 -0.0399 -0.0370 -0.8193
  983MOL0     H35644   5.396   9.718   8.114 -1.0333  0.3190  0.1835
  983MOL0     H35645   5.499   9.615   8.222 -1.4140 -3.3456  0.7096
  983MOL0     H35646   5.283   9.550   8.021 -0.7962 -1.9040  0.3505
  983MOL0     H35647   5.383   9.425   8.083 -2.2154 -0.2274 -3.1968
  983MOL0     H35648   5.331   9.493   8.315  0.5655 -0.0859 -1.0130
  983MOL0     H35649   5.202   9.416   8.220 -0.9274  0.7800  0.7932
  983MOL0     H35650   5.055   9.827   8.235 -1.6867 -0.5796 -1.8801
  983MOL0     H35651   5.738   9.684   8.232 -2.5165 -3.3305  1.1824
  983MOL0     H35652   5.883   9.838   8.291  0.5732  0.2571 -0.9945
  983MOL0     H35653   5.991   9.757   8.398  3.3628  1.4742 -0.2736
  983MOL0     H35654   6.049   9.820   8.240 -1.5593  0.5485 -1.2904
  984MOL0     O35655   0.318   4.754   4.055  0.1745 -0.6393 -0.2801
  984MOL0     C35656   0.201   4.796   4.056 -0.2823  0.6665  1.0590
  984MOL0     O35657   0.093   4.725   4.040 -0.1533 -0.1759  0.0881
  984MOL0     C35658   0.111   4.588   4.008 -0.2792 -0.3246 -0.2360
  984MOL0     C35659   0.196   4.508   4.085  0.0378  0.0219 -0.0226
  984MOL0     C35660   0.208   4.370   4.049 -0.5218  0.4883  0.0438
  984MOL0     C35661   0.127   4.316   3.941 -0.0343 -0.4915  0.2961
  984MOL0     O35662   0.139   4.191   3.893  0.4453  1.1758 -0.8422
  984MOL0     C35663   0.261   4.124   3.895 -0.4955 -0.8180  0.1375
  984MOL0     C35664   0.224   3.979   3.844 -0.3494 -0.7421 -0.3021
  984MOL0     C35665   0.157   3.976   3.711 -0.0185  0.2669 -0.6711
  984MOL0     C35666   0.126   3.835   3.675  0.3909 -0.1413 -0.1723
  984MOL0     C35667   0.076   3.814   3.533 -0.1901  0.7242 -1.2981
  984MOL0     C35668  -0.049   3.899   3.493 -0.0678 -0.6157 -0.3926
  984MOL0     C35669  -0.054   3.890   3.345  0.4725 -0.1194 -0.6076
  984MOL0     C35670  -0.187   3.911   3.279  0.2321  0.7145  0.2910
  984MOL0     N35671  -0.245   4.048   3.307  0.3611 -0.1781 -0.3391
  984MOL0     C35672  -0.289   4.086   3.436 -1.4470 -0.8281 -0.3571
  984MOL0     C35673  -0.357   4.208   3.417  0.5757  0.3146 -0.2187
  984MOL0     C35674  -0.438   4.299   3.511  0.3242  0.1840  0.0394
  984MOL0     C35675  -0.353   4.343   3.625 -0.8122  0.0687  0.3884
  984MOL0     C35676  -0.409   4.440   3.722 -0.1656 -0.5780 -0.0416
  984MOL0     C35677  -0.392   4.589   3.700  0.1011 -0.3045  0.3407
  984MOL0     O35678  -0.262   4.606   3.653  0.3278  0.5942 -0.4772
  984MOL0     C35679  -0.220   4.736   3.636 -0.6060 -1.8613  0.2079
  984MOL0     C35680  -0.278   4.857   3.667  0.6055  0.6197 -0.5198
  984MOL0     C35681  -0.210   4.973   3.656 -0.0967  0.1361  0.1535
  984MOL0     C35682  -0.275   5.094   3.727 -0.6492 -0.0087  0.0779
  984MOL0     C35683  -0.084   4.985   3.588  0.0198 -0.1647 -0.2551
  984MOL0     C35684  -0.005   5.108   3.564  0.3997 -0.8009  0.0526
  984MOL0     O35685   0.132   5.093   3.578  0.3644  0.0052 -0.2240
  984MOL0     C35686   0.209   5.196   3.545  0.5889 -0.5512  0.1130
  984MOL0     C35687   0.296   5.237   3.644 -0.5522  0.0732 -0.1000
  984MOL0     C35688   0.372   5.352   3.613  0.5172  0.1290  0.3309
  984MOL0     C35689   0.377   5.415   3.489 -0.1456 -0.2283  0.6569
  984MOL0     O35690   0.463   5.523   3.483 -0.3820  0.0576  0.3985
  984MOL0     C35691   0.469   5.604   3.369  0.1361  0.2562 -0.7552
  984MOL0     C35692   0.582   5.713   3.376 -0.1598  0.0468 -0.4379
  984MOL0     C35693   0.726   5.655   3.404 -0.1624 -0.0636 -0.0677
  984MOL0     C35694   0.843   5.751   3.421  0.0775  0.2038 -0.0376
  984MOL0     C35695   0.864   5.812   3.281  0.5976  0.4951 -0.2985
  984MOL0     C35696   0.996   5.883   3.272  0.3609  0.3023 -0.2503
  984MOL0     C35697   1.122   5.792   3.284  0.1254  0.3721  0.0391
  984MOL0     C35698   1.246   5.851   3.206  0.3884 -0.2866 -0.3404
  984MOL0    Cl35699   1.300   6.009   3.267  0.1903  0.2359 -0.3205
  984MOL0     C35700   0.293   5.370   3.382  0.0652  1.5475  0.0137
  984MOL0     C35701   0.214   5.244   3.407  0.6974  0.8036 -0.2122
  984MOL0     O35702  -0.062   5.213   3.539 -0.4453  0.0802  0.2301
  984MOL0     C35703  -0.022   4.861   3.555  0.0802 -0.0396 -0.6442
  984MOL0     C35704  -0.090   4.739   3.574  0.1435 -0.5646 -0.3810
  984MOL0     N35705  -0.356   4.241   3.282 -0.1255  0.2190  0.1010
  984MOL0     N35706  -0.291   4.143   3.219  0.0918  0.3816 -0.3111
  984MOL0     C35707   0.035   4.396   3.882 -0.5955 -0.3381  0.4464
  984MOL0     C35708   0.030   4.532   3.910  0.6766  1.3744  0.3068
  984MOL0     C35709   0.171   4.943   4.055 -0.4181  0.7985 -0.4569
  984MOL0     C35710   0.058   4.987   3.992 -0.2416  0.4634  0.3756
  984MOL0     C35711   0.017   5.122   3.995 -0.2132  0.3233 -1.2306
  984MOL0     C35712   0.109   5.212   4.056  0.4462 -0.6596  0.4554
  984MOL0     O35713   0.081   5.349   4.065 -0.4561  0.3577 -0.7964
  984MOL0     C35714   0.144   5.424   3.963 -1.0799 -0.0708  0.1077
  984MOL0     C35715   0.047   5.448   3.856 -0.6478  0.1517 -1.2742
  984MOL0     C35716  -0.072   5.538   3.892 -0.2186  0.3682  0.3796
  984MOL0     C35717  -0.032   5.678   3.947 -0.4505  0.5188  0.1921
  984MOL0     C35718   0.054   5.751   3.854 -0.2046 -0.5948  0.5015
  984MOL0     C35719   0.148   5.793   3.796 -1.2910  0.4797  0.2040
  984MOL0     C35720   0.217   5.169   4.122  0.1408 -0.7820 -0.6614
  984MOL0     C35721   0.247   5.033   4.136 -0.8998  0.2353  0.7465
  984MOL0     C35722   0.355   4.995   4.248  0.0339  0.8434 -0.4713
  984MOL0     H35723   0.258   4.549   4.164 -0.7627  3.4015 -0.9871
  984MOL0     H35724   0.281   4.305   4.097 -0.8977  0.4557  0.5867
  984MOL0     H35725   0.294   4.109   3.999 -2.3467 -1.9098  0.6184
  984MOL0     H35726   0.337   4.170   3.832  2.1400 -3.8221  0.8237
  984MOL0     H35727   0.315   3.919   3.837  1.7950  2.3203 -0.8624
  984MOL0     H35728   0.151   3.938   3.914  0.5397  1.3487  1.9816
  984MOL0     H35729   0.067   4.037   3.700 -0.4971 -0.3115 -0.0494
  984MOL0     H35730   0.230   3.999   3.633  2.7301 -4.2790  0.1578
  984MOL0     H35731   0.213   3.770   3.687 -1.2346 -2.1718  1.4695
  984MOL0     H35732   0.045   3.789   3.733 -0.2484 -0.6727 -1.4563
  984MOL0     H35733   0.029   3.716   3.515 -2.3118  0.9182  2.0799
  984MOL0     H35734   0.158   3.825   3.463 -0.7907 -1.2887 -2.4211
  984MOL0     H35735  -0.131   3.844   3.540 -0.5094  1.5257  1.5545
  984MOL0     H35736  -0.041   4.002   3.529 -1.4280 -0.9584  1.0147
  984MOL0     H35737  -0.016   3.792   3.313 -0.0143 -1.1669  1.7816
  984MOL0     H35738   0.023   3.958   3.308  1.5843 -1.5749 -1.0684
  984MOL0     H35739  -0.175   3.901   3.171 -0.0631 -1.4654  0.4170
  984MOL0     H35740  -0.263   3.839   3.311 -0.7993  1.9763  0.7483
  984MOL0     H35741  -0.274   4.024   3.524 -2.0917 -0.6851 -0.1419
  984MOL0     H35742  -0.522   4.249   3.560  1.3666  1.3065  3.2975
  984MOL0     H35743  -0.467   4.382   3.446 -2.0892 -0.6751 -0.0557
  984MOL0     H35744  -0.343   4.254   3.688  2.4353  0.5362  0.6706
  984MOL0     H35745  -0.252   4.374   3.597 -0.9472 -0.3499 -0.6298
  984MOL0     H35746  -0.514   4.415   3.739  0.4258 -2.6345  0.7443
  984MOL0     H35747  -0.352   4.422   3.813  0.5302 -1.2485 -0.5947
  984MOL0     H35748  -0.463   4.627   3.627  0.2614  0.3471  0.5116
  984MOL0     H35749  -0.415   4.644   3.792  1.4620 -3.4877  2.7824
  984MOL0     H35750  -0.373   4.849   3.720 -0.2787  0.1713 -2.1189
  984MOL0     H35751  -0.326   5.068   3.820 -0.3007  0.8052  0.5047
  984MOL0     H35752  -0.360   5.132   3.670 -0.3486  0.6705  0.0652
  984MOL0     H35753  -0.210   5.182   3.738  1.3790 -1.0969 -2.3136
  984MOL0     H35754   0.311   5.197   3.744 -0.0481  0.3186 -0.0695
  984MOL0     H35755   0.451   5.372   3.684  1.3459 -2.0584  0.1040
  984MOL0     H35756   0.484   5.547   3.277  3.2448 -0.5598  0.1320
  984MOL0     H35757   0.373   5.657   3.365 -2.1724 -3.4858  0.0924
  984MOL0     H35758   0.582   5.766   3.280  0.3603  2.8455  0.9970
  984MOL0     H35759   0.565   5.792   3.450 -1.4527 -1.5468  1.0505
  984MOL0     H35760   0.756   5.584   3.326  0.4590 -0.4284  0.4952
  984MOL0     H35761   0.742   5.594   3.493 -0.3413 -0.5093 -0.3391
  984MOL0     H35762   0.937   5.699   3.440  0.9286  0.6670 -2.6708
  984MOL0     H35763   0.829   5.818   3.507  1.6667 -1.8381  1.9403
  984MOL0     H35764   0.866   5.735   3.204 -1.1835 -0.6605  0.7246
  984MOL0     H35765   0.785   5.883   3.257  1.2734  0.7034 -2.0234
  984MOL0     H35766   1.001   5.960   3.348 -3.5965 -0.0529  0.5991
  984MOL0     H35767   0.982   5.922   3.171  0.4078  0.1200 -0.3284
  984MOL0     H35768   1.088   5.695   3.248 -0.6201  0.6017  0.0966
  984MOL0     H35769   1.141   5.776   3.390 -1.2693 -2.1999 -0.0274
  984MOL0     H35770   1.223   5.861   3.099  0.9303  2.3607 -0.2680
  984MOL0     H35771   1.334   5.786   3.209  0.0225 -0.9705 -2.4422
  984MOL0     H35772   0.298   5.422   3.287  0.4499  0.1608 -0.7525
  984MOL0     H35773   0.154   5.196   3.331 -1.6124  3.4871 -0.2439
  984MOL0     H35774   0.072   4.846   3.503 -0.4330  2.5360 -2.5034
  984MOL0     H35775  -0.060   4.644   3.531  0.6661 -0.0682 -1.1409
  984MOL0     H35776  -0.031   4.360   3.805 -2.8998  1.7054  1.3284
  984MOL0     H35777  -0.027   4.595   3.842  1.9172  2.0403 -0.1390
  984MOL0     H35778  -0.017   4.919   3.952 -1.0225  1.3381  0.2971
  984MOL0     H35779  -0.078   5.156   3.957 -1.2644 -1.2599 -0.1206
  984MOL0     H35780   0.181   5.522   3.994 -0.2509 -0.7091  1.2176
  984MOL0     H35781   0.232   5.381   3.915  0.1833  0.0536  2.2114
  984MOL0     H35782   0.008   5.354   3.814 -1.6954  0.2628 -0.5920
  984MOL0     H35783   0.099   5.501   3.776 -1.2444 -0.0762 -1.8251
  984MOL0     H35784  -0.147   5.546   3.812 -1.1193  3.3503  1.3907
  984MOL0     H35785  -0.123   5.494   3.978 -3.5014  1.3182 -0.9250
  984MOL0     H35786   0.023   5.660   4.039 -3.3376  0.3719  2.0210
  984MOL0     H35787  -0.126   5.732   3.963 -0.6226  0.4661 -0.5696
  984MOL0     H35788   0.225   5.821   3.727 -1.2872 -4.2539 -2.0922
  984MOL0     H35789   0.268   5.224   4.200 -5.0611  0.0041  2.6847
  984MOL0     H35790   0.347   4.897   4.295 -0.0168 -0.5082 -3.1650
  984MOL0     H35791   0.453   4.983   4.200  1.2898 -1.7975  2.4269
  984MOL0     H35792   0.348   5.070   4.328 -0.8970 -1.6438  1.9381
  985MOL0     O35793   2.528   9.618   0.787  0.8529  0.0152  0.0877
  985MOL0     C35794   2.506   9.632   0.911  0.3573 -0.5792  0.0336
  985MOL0     O35795   2.605   9.626   1.018 -0.4716 -0.3739 -0.2518
  985MOL0     C35796   2.723   9.568   0.991  0.3544 -0.3278  0.4199
  985MOL0     C35797   2.832   9.654   1.018  0.8943  0.6974 -0.3942
  985MOL0     C35798   2.963   9.611   0.994  0.2447 -0.5314  0.7867
  985MOL0     C35799   2.990   9.484   0.939 -0.2683 -0.5399 -0.0291
  985MOL0     O35800   3.116   9.434   0.895  0.3237  0.0541  1.2566
  985MOL0     C35801   3.228   9.444   0.979  0.2588 -0.2978 -0.5534
  985MOL0     C35802   3.325   9.547   0.943 -0.5041  0.4206  0.1923
  985MOL0     C35803   3.389   9.519   0.803 -0.0259  0.0158 -0.4897
  985MOL0     C35804   3.436   9.377   0.778  0.3240 -0.1461 -0.5152
  985MOL0     C35805   3.523   9.363   0.650 -0.2003 -0.3014  0.0680
  985MOL0     C35806   3.572   9.224   0.633 -0.2238 -0.1592 -0.2784
  985MOL0     C35807   3.659   9.210   0.499  0.5353  0.0381  0.5384
  985MOL0     C35808   3.759   9.095   0.500 -0.0559 -0.6807  1.0420
  985MOL0     N35809   3.873   9.108   0.584  0.2826 -1.4684 -1.0935
  985MOL0     C35810   3.952   9.215   0.599 -0.2915  0.7702 -0.3948
  985MOL0     C35811   4.042   9.171   0.680  0.7458 -0.3292 -0.1429
  985MOL0     C35812   4.145   9.263   0.745 -0.4800 -0.1316 -0.1405
  985MOL0     C35813   4.250   9.291   0.635 -0.8256 -0.0110 -0.4508
  985MOL0     C35814   4.368   9.395   0.679 -0.0597 -0.0291 -0.1449
  985MOL0     C35815   4.327   9.546   0.655 -0.4337  1.1356  0.2533
  985MOL0     O35816   4.361   9.600   0.775 -0.4903  0.1626  0.0178
  985MOL0     C35817   4.394   9.732   0.779  0.2689 -1.1684  0.7223
  985MOL0     C35818   4.469   9.795   0.873  0.7298  0.0490  0.7535
  985MOL0     C35819   4.490   9.937   0.888 -0.8351 -0.3599 -0.6049
  985MOL0     C35820   4.569   9.979   1.015  0.0363 -0.0453  0.1311
  985MOL0     C35821   4.451  10.017   0.775 -0.5235 -0.3541 -0.5760
  985MOL0     C35822   4.494  10.155   0.751 -0.3074 -0.3791 -0.0087
  985MOL0     O35823   4.597  10.204   0.834 -0.0577 -0.3060 -0.3085
  985MOL0     C35824   4.670  10.323   0.810 -0.2911 -0.5533  0.2796
  985MOL0     C35825   4.735  10.364   0.923 -0.7124  0.0860  0.0465
  985MOL0     C35826   4.810  10.482   0.915 -0.6866  0.5825  0.2803
  985MOL0     C35827   4.804  10.569   0.801 -0.1941 -0.0545  0.3929
  985MOL0     O35828   4.866  10.692   0.789  0.5301 -0.4167 -0.2302
  985MOL0     C35829   4.938  10.767   0.895  1.3253  0.1094  0.8389
  985MOL0     C35830   4.949  10.901   0.850 -0.3528 -0.8260  0.6337
  985MOL0     C35831   5.055  10.977   0.938 -0.7707  0.7568  0.8393
  985MOL0     C35832   5.101  11.107   0.871 -0.2171 -0.2050  0.0704
  985MOL0     C35833   5.186  11.199   0.967 -0.5678 -0.1766  0.5516
  985MOL0     C35834   5.320  11.153   1.011  0.0763  0.0022  0.0443
  985MOL0     C35835   5.381  11.249   1.117  0.1438 -0.5982  0.5132
  985MOL0     C35836   5.370  11.408   1.116  0.6061  0.5636 -0.7262
  985MOL0    Cl35837   5.436  11.465   0.957 -0.1687 -0.1226 -0.0076
  985MOL0     C35838   4.727  10.528   0.697  0.1775  0.3368  0.1997
  985MOL0     C35839   4.656  10.407   0.698  0.9273 -0.1472  0.0350
  985MOL0     O35840   4.430  10.219   0.677  0.8677 -0.4719  0.5947
  985MOL0     C35841   4.380   9.962   0.669 -1.0212  0.5642  0.3670
  985MOL0     C35842   4.350   9.822   0.672  1.1864 -0.3379 -1.2377
  985MOL0     N35843   4.029   9.042   0.716 -0.2772  0.4468  0.9619
  985MOL0     N35844   3.921   9.001   0.652 -0.6483  0.6513 -0.3625
  985MOL0     C35845   2.882   9.397   0.920  0.6990 -0.7330  0.7303
  985MOL0     C35846   2.746   9.436   0.943 -0.1013  0.4240 -0.1556
  985MOL0     C35847   2.374   9.669   0.962  0.1543 -1.1039  0.2245
  985MOL0     C35848   2.355   9.748   1.080  0.5635  0.1258  1.0514
  985MOL0     C35849   2.224   9.790   1.112 -0.0727  0.2095 -0.5626
  985MOL0     C35850   2.117   9.779   1.028 -0.3992 -0.4673 -0.2420
  985MOL0     O35851   1.991   9.830   1.047 -0.4024 -1.1566 -0.4117
  985MOL0     C35852   1.934   9.876   1.177 -0.3947 -0.1984 -1.3742
  985MOL0     C35853   1.917   9.765   1.279  0.4937  0.9534 -0.1849
  985MOL0     C35854   1.841   9.803   1.408 -0.5507  0.0405  0.3468
  985MOL0     C35855   1.928   9.893   1.499  1.0197  0.4558 -0.5136
  985MOL0     C35856   1.944   9.815   1.625 -0.1507 -0.7755  0.7918
  985MOL0     C35857   1.938   9.752   1.733  0.1667  0.1208  0.7202
  985MOL0     C35858   2.136   9.705   0.913 -0.5502 -0.0045 -0.8069
  985MOL0     C35859   2.263   9.650   0.880 -0.1224 -0.0859  0.2608
  985MOL0     C35860   2.249   9.557   0.757  1.3870  0.4121 -0.2344
  985MOL0     H35861   2.814   9.744   1.075 -1.3738  0.9945 -1.4818
  985MOL0     H35862   3.045   9.680   1.010  1.9616 -3.0983  4.6365
  985MOL0     H35863   3.277   9.347   0.974  0.0247 -0.4992  0.6808
  985MOL0     H35864   3.192   9.443   1.083  1.5587 -3.4581 -0.0278
  985MOL0     H35865   3.271   9.642   0.937 -0.5523  0.4727  1.2222
  985MOL0     H35866   3.391   9.549   1.030 -0.7741 -0.3760  0.4232
  985MOL0     H35867   3.320   9.535   0.720 -0.3495 -2.4117 -0.7572
  985MOL0     H35868   3.482   9.577   0.802 -0.7772  1.2698 -2.3032
  985MOL0     H35869   3.501   9.337   0.857 -0.6156 -3.4741 -1.3064
  985MOL0     H35870   3.356   9.303   0.777  1.8602 -1.9128  0.8447
  985MOL0     H35871   3.600   9.439   0.663 -2.9099  2.7762 -0.5335
  985MOL0     H35872   3.475   9.394   0.557  0.9311 -4.4393 -2.1552
  985MOL0     H35873   3.633   9.194   0.718 -2.8075 -3.0001  0.7580
  985MOL0     H35874   3.475   9.174   0.633 -0.1219 -0.3614  0.1133
  985MOL0     H35875   3.707   9.306   0.478 -0.5216  0.7465  1.2439
  985MOL0     H35876   3.583   9.198   0.422  0.2490  0.3393  0.7702
  985MOL0     H35877   3.704   9.003   0.521  1.2506 -0.9252  3.8353
  985MOL0     H35878   3.795   9.094   0.397 -2.3535  0.2461  0.1691
  985MOL0     H35879   3.940   9.317   0.564 -1.2371  1.3467  1.4763
  985MOL0     H35880   4.189   9.194   0.818  1.4940 -0.9387 -2.0139
  985MOL0     H35881   4.103   9.354   0.789  0.0084 -0.5114  1.1698
  985MOL0     H35882   4.297   9.201   0.594  0.0853  1.1848 -2.1579
  985MOL0     H35883   4.205   9.325   0.541  1.1240 -0.6828 -1.6896
  985MOL0     H35884   4.399   9.377   0.782  2.7465  1.7185 -0.5928
  985MOL0     H35885   4.449   9.373   0.610 -1.1579  2.8505 -2.5588
  985MOL0     H35886   4.397   9.587   0.581  0.9957  3.6094  2.7833
  985MOL0     H35887   4.221   9.566   0.638 -0.7550  0.4533  1.3587
  985MOL0     H35888   4.492   9.729   0.956  0.6436 -0.8507  0.0720
  985MOL0     H35889   4.532   9.910   1.092  1.4541 -2.2806 -1.0702
  985MOL0     H35890   4.538  10.076   1.055 -1.4483 -0.1495 -0.7007
  985MOL0     H35891   4.675   9.968   0.992 -0.3946  0.3231 -2.4095
  985MOL0     H35892   4.752  10.283   0.994  1.7767 -1.6792 -2.3839
  985MOL0     H35893   4.866  10.494   1.007 -2.6799 -0.6808  1.7467
  985MOL0     H35894   4.885  10.755   0.990  0.7105 -0.0395  0.4804
  985MOL0     H35895   5.033  10.714   0.908  0.3257 -2.0779 -0.3422
  985MOL0     H35896   4.980  10.913   0.745 -3.2141  1.8780 -0.0632
  985MOL0     H35897   4.852  10.952   0.847  0.7537  1.6130 -4.4786
  985MOL0     H35898   5.147  10.920   0.954 -0.2021  1.5902  0.6045
  985MOL0     H35899   5.011  11.014   1.031 -1.5978  0.4189  0.5864
  985MOL0     H35900   5.010  11.158   0.838  0.9735  0.4076 -2.5727
  985MOL0     H35901   5.141  11.079   0.772  1.0294  2.2225 -0.1820
  985MOL0     H35902   5.200  11.292   0.912  1.3255 -3.0025 -4.4857
  985MOL0     H35903   5.122  11.194   1.055 -1.8018 -0.1653 -0.3222
  985MOL0     H35904   5.392  11.140   0.930  1.2215  0.1828  1.0140
  985MOL0     H35905   5.318  11.052   1.052 -0.6015 -0.3660 -0.8553
  985MOL0     H35906   5.489  11.236   1.112 -0.0306 -1.7632 -1.2744
  985MOL0     H35907   5.352  11.206   1.213 -0.4714 -0.2508  0.4877
  985MOL0     H35908   5.423  11.445   1.204 -0.0975  0.3325 -0.1923
  985MOL0     H35909   5.269  11.449   1.126 -0.1974 -1.1484 -1.4352
  985MOL0     H35910   4.735  10.598   0.614  0.5831 -1.6096 -1.4860
  985MOL0     H35911   4.598  10.369   0.614 -0.8656  3.3106 -0.4800
  985MOL0     H35912   4.352  10.020   0.581  3.5570 -1.0766 -2.5339
  985MOL0     H35913   4.275   9.785   0.602 -0.4154 -2.8541  1.5530
  985MOL0     H35914   2.893   9.295   0.885 -0.6799 -0.5400 -0.3661
  985MOL0     H35915   2.675   9.355   0.927  2.8608 -2.2796 -0.5767
  985MOL0     H35916   2.440   9.782   1.138  0.5635 -0.7627  1.5868
  985MOL0     H35917   2.212   9.864   1.191  0.4183  1.4365 -1.5869
  985MOL0     H35918   1.996   9.948   1.231 -2.5724 -0.6495  2.0624
  985MOL0     H35919   1.839   9.926   1.158  0.5042  0.4202 -4.9804
  985MOL0     H35920   2.012   9.713   1.290  0.1172  0.2178 -0.3443
  985MOL0     H35921   1.850   9.694   1.228 -0.1065  0.5087  1.1768
  985MOL0     H35922   1.753   9.859   1.373 -0.9025 -0.1139  0.9718
  985MOL0     H35923   1.791   9.721   1.461 -1.5564  1.6391  1.9976
  985MOL0     H35924   1.871   9.982   1.528  2.1238  0.5924  1.4699
  985MOL0     H35925   2.031   9.898   1.463  0.6919 -0.9713 -1.7591
  985MOL0     H35926   1.941   9.715   1.834  3.8862 -1.3074  0.2435
  985MOL0     H35927   2.042   9.691   0.862 -1.2032 -2.1895  0.8262
  985MOL0     H35928   2.323   9.477   0.752  0.8586 -0.5886  4.0775
  985MOL0     H35929   2.149   9.512   0.759  1.0939  1.0623 -0.0211
  985MOL0     H35930   2.253   9.613   0.663  0.1358  1.2218  0.1651
  986MOL0     O35931   9.660   3.412   9.750 -0.6967  0.4822  0.4820
  986MOL0     C35932   9.622   3.311   9.816 -0.6655  0.3151  0.7120
  986MOL0     O35933   9.709   3.214   9.867  0.7362  0.3466  0.8732
  986MOL0     C35934   9.837   3.243   9.818  0.8325 -0.3973 -0.6215
  986MOL0     C35935   9.874   3.197   9.696  0.9577 -0.8122 -0.9686
  986MOL0     C35936  10.001   3.213   9.647 -0.2105 -0.3121  0.2735
  986MOL0     C35937  10.100   3.269   9.729  0.0942 -0.3170  0.4293
  986MOL0     O35938  10.226   3.287   9.674  0.7524  0.1358  0.3555
  986MOL0     C35939  10.337   3.274   9.767  0.2702  0.4610 -0.3385
  986MOL0     C35940  10.406   3.405   9.774  0.9210  0.0008  0.1851
  986MOL0     C35941  10.506   3.402   9.888 -0.3712 -0.1335 -1.0446
  986MOL0     C35942  10.545   3.556   9.898 -0.0684  0.3178  0.3444
  986MOL0     C35943  10.643   3.559  10.013 -0.3818 -0.6524  0.2474
  986MOL0     C35944  10.775   3.498   9.973  0.4900 -0.2105 -0.7681
  986MOL0     C35945  10.870   3.536  10.090 -0.4312 -0.3391  0.0827
  986MOL0     C35946  11.011   3.485  10.078 -0.6806 -0.0025  0.2674
  986MOL0     N35947  11.018   3.343  10.106 -0.4642  0.1924  0.0831
  986MOL0     C35948  10.958   3.285  10.208 -0.3093  0.0485  0.5832
  986MOL0     C35949  10.995   3.158  10.209 -0.6883  1.0776  0.2432
  986MOL0     C35950  10.927   3.067  10.306 -1.0863 -1.0172 -0.8936
  986MOL0     C35951  10.783   3.044  10.266  0.1230  0.2552 -0.1586
  986MOL0     C35952  10.739   2.929  10.357  0.0381  0.0891  0.4026
  986MOL0     C35953  10.687   2.963  10.498 -1.0768 -0.1237  0.1744
  986MOL0     O35954  10.623   2.844  10.545  0.3671 -0.1619  0.3626
  986MOL0     C35955  10.673   2.779  10.656  1.2708 -1.6991 -0.9341
  986MOL0     C35956  10.810   2.769  10.683 -0.0755 -0.5110  0.7093
  986MOL0     C35957  10.864   2.682  10.783  0.0717  0.1853 -1.2930
  986MOL0     C35958  11.007   2.683  10.828 -0.0479 -0.1830  0.4564
  986MOL0     C35959  10.763   2.600  10.854 -0.6598 -0.0188  0.1961
  986MOL0     C35960  10.796   2.503  10.958  0.2870 -0.2820  0.3826
  986MOL0     O35961  10.897   2.411  10.951  0.4176  0.2750  0.7544
  986MOL0     C35962  10.918   2.315  11.048  0.0716  0.3107  0.3384
  986MOL0     C35963  11.042   2.293  11.114 -0.6461 -0.0084  0.0319
  986MOL0     C35964  11.065   2.188  11.210  0.1227 -0.4015 -0.6571
  986MOL0     C35965  10.964   2.101  11.253 -0.1096 -0.9479  0.3375
  986MOL0     O35966  10.957   2.014  11.351 -0.3640 -0.6413 -0.4082
  986MOL0     C35967  11.072   1.977  11.422  0.2965  0.6854  0.0517
  986MOL0     C35968  11.047   1.841  11.469  0.2223  0.3768 -0.0587
  986MOL0     C35969  11.170   1.761  11.518  0.1451 -0.3269 -0.5112
  986MOL0     C35970  11.121   1.627  11.578  0.4368  0.1819  0.6303
  986MOL0     C35971  11.244   1.550  11.604  0.3093 -0.3332  0.0995
  986MOL0     C35972  11.222   1.409  11.651  0.3413 -0.4712 -0.4006
  986MOL0     C35973  11.344   1.343  11.702 -0.0878  0.3127  0.0369
  986MOL0     C35974  11.350   1.187  11.733  0.6021  0.1568  0.0519
  986MOL0    Cl35975  11.348   1.101  11.567  0.0153  0.1830 -0.3208
  986MOL0     C35976  10.844   2.119  11.175  0.5141 -0.2143 -0.2181
  986MOL0     C35977  10.830   2.202  11.067  0.4194 -1.1355 -0.9351
  986MOL0     O35978  10.714   2.500  11.048 -0.2817 -0.3723  0.5092
  986MOL0     C35979  10.625   2.610  10.819 -1.1450  0.7721 -0.0241
  986MOL0     C35980  10.585   2.703  10.723  0.1446  1.4549 -0.8881
  986MOL0     N35981  11.080   3.128  10.096  0.0132 -0.4292  1.3844
  986MOL0     N35982  11.093   3.248  10.037  0.4310  0.4076  0.2671
  986MOL0     C35983  10.067   3.318   9.856  0.4701 -0.0869  0.7514
  986MOL0     C35984   9.936   3.306   9.899  0.4179 -0.8935  0.4310
  986MOL0     C35985   9.487   3.315   9.863  0.5626 -0.8240  0.8036
  986MOL0     C35986   9.437   3.433   9.913 -0.1778 -0.0537  0.5128
  986MOL0     C35987   9.296   3.462   9.936 -1.0754  0.1244  0.4200
  986MOL0     C35988   9.206   3.356   9.908 -0.8424 -0.7578 -0.0090
  986MOL0     O35989   9.073   3.378   9.940  0.0497 -0.7874 -0.1010
  986MOL0     C35990   8.969   3.308   9.879  0.4658  0.2812  0.9509
  986MOL0     C35991   8.843   3.369   9.936 -0.3710  0.0336  0.1678
  986MOL0     C35992   8.831   3.396  10.084 -0.2620  0.0047 -0.9377
  986MOL0     C35993   8.682   3.399  10.127  0.0202  0.4410 -1.5800
  986MOL0     C35994   8.616   3.515  10.069 -0.7260 -0.3219  0.4677
  986MOL0     C35995   8.588   3.617  10.001 -0.7000  0.6715 -0.5801
  986MOL0     C35996   9.252   3.243   9.838  1.3616  0.4298  0.0726
  986MOL0     C35997   9.391   3.224   9.814 -0.0487 -0.1899 -1.2947
  986MOL0     C35998   9.433   3.097   9.739 -0.1184 -0.6382  0.2899
  986MOL0     H35999   9.811   3.149   9.622  0.5567 -1.0736 -0.4629
  986MOL0     H36000  10.030   3.174   9.550  2.5540  0.2635  0.7654
  986MOL0     H36001  10.403   3.191   9.740 -2.4425 -1.8758 -0.1781
  986MOL0     H36002  10.312   3.238   9.866  2.7228 -0.2445  0.0869
  986MOL0     H36003  10.463   3.426   9.683  3.4496  2.2248  2.1051
  986MOL0     H36004  10.333   3.486   9.782  2.4081  1.2921  1.4857
  986MOL0     H36005  10.464   3.371   9.984  0.6152 -2.9637 -1.4207
  986MOL0     H36006  10.591   3.334   9.872 -0.4559 -1.0408  1.8861
  986MOL0     H36007  10.583   3.602   9.806  0.5219 -0.6591  0.0810
  986MOL0     H36008  10.455   3.611   9.928  2.1754  3.3419  2.1439
  986MOL0     H36009  10.604   3.504  10.100 -3.2121 -1.9100 -1.6472
  986MOL0     H36010  10.654   3.664  10.043 -0.6982  0.1540 -2.2399
  986MOL0     H36011  10.788   3.389   9.965 -1.2551 -0.5539  0.4176
  986MOL0     H36012  10.809   3.532   9.875  0.6093 -0.1952 -0.7218
  986MOL0     H36013  10.826   3.497  10.183 -0.8623 -1.6624 -0.6538
  986MOL0     H36014  10.876   3.645  10.096 -1.5337 -0.3332  3.8161
  986MOL0     H36015  11.058   3.514   9.984  0.2087  2.4859  1.3937
  986MOL0     H36016  11.066   3.537  10.157  0.4870 -0.3863 -0.2626
  986MOL0     H36017  10.877   3.324  10.270  0.6272 -3.5553  4.5441
  986MOL0     H36018  10.934   3.111  10.405 -0.2471 -1.0859 -0.9176
  986MOL0     H36019  10.983   2.973  10.312 -0.7273 -0.8056 -0.9407
  986MOL0     H36020  10.722   3.133  10.279  1.4462  1.5655 -2.3340
  986MOL0     H36021  10.775   3.012  10.162 -0.1847  1.8121 -0.6261
  986MOL0     H36022  10.649   2.892  10.306  1.1248 -1.4367 -0.4982
  986MOL0     H36023  10.805   2.841  10.354  0.8750  0.7129  0.2588
  986MOL0     H36024  10.768   2.992  10.566 -0.2763 -0.2083 -0.7128
  986MOL0     H36025  10.607   3.037  10.498 -0.4712  0.5443 -0.0564
  986MOL0     H36026  10.884   2.832  10.634 -0.5777 -0.3798  0.1091
  986MOL0     H36027  11.040   2.787  10.827  1.5506 -0.6030  2.4610
  986MOL0     H36028  11.073   2.622  10.767  0.3449  0.0386  0.6607
  986MOL0     H36029  11.011   2.650  10.932 -1.9582 -1.0078  0.3272
  986MOL0     H36030  11.109   2.375  11.089  0.7195 -1.2729 -0.6256
  986MOL0     H36031  11.164   2.179  11.253 -0.9094 -3.6989  1.4512
  986MOL0     H36032  11.160   1.975  11.357 -0.1356  0.3586 -0.5410
  986MOL0     H36033  11.088   2.047  11.505 -0.9726  1.8921 -0.6715
  986MOL0     H36034  10.964   1.849  11.540  0.2709  1.4178 -0.1165
  986MOL0     H36035  11.009   1.785  11.383  0.6612  0.8871 -0.5841
  986MOL0     H36036  11.216   1.831  11.588  0.4186  0.2646 -1.2692
  986MOL0     H36037  11.235   1.755  11.431  2.2427  3.6153  0.5572
  986MOL0     H36038  11.045   1.584  11.513  0.2809  0.0721  0.8861
  986MOL0     H36039  11.078   1.631  11.679  0.2212 -0.6461  0.5723
  986MOL0     H36040  11.299   1.541  11.510  0.5403  0.5781  0.1370
  986MOL0     H36041  11.301   1.612  11.675  2.1609  0.0994 -1.6781
  986MOL0     H36042  11.167   1.347  11.579  0.7393 -0.2373 -0.9097
  986MOL0     H36043  11.146   1.415  11.730  0.1815 -0.5289 -0.5493
  986MOL0     H36044  11.371   1.399  11.792  2.9540 -1.3181  0.2532
  986MOL0     H36045  11.427   1.350  11.632  1.6557 -2.6500  1.6381
  986MOL0     H36046  11.263   1.161  11.793  0.8042  0.0737  0.3118
  986MOL0     H36047  11.438   1.153  11.788 -0.0032 -2.9487 -0.7381
  986MOL0     H36048  10.762   2.053  11.203 -0.4639 -0.3459 -3.1292
  986MOL0     H36049  10.744   2.213  11.001 -1.2385 -0.2436  1.2533
  986MOL0     H36050  10.552   2.546  10.867  0.6205  0.3638  2.2894
  986MOL0     H36051  10.478   2.703  10.704  0.2153  0.0730 -1.4342
  986MOL0     H36052  10.135   3.385   9.909 -0.1647  3.3030 -2.3007
  986MOL0     H36053   9.904   3.345   9.996 -1.3273  0.1057 -0.5038
  986MOL0     H36054   9.501   3.512   9.951 -0.5472  0.0232  0.9897
  986MOL0     H36055   9.255   3.553   9.978 -0.8906  0.5135 -0.2368
  986MOL0     H36056   8.978   3.332   9.773  0.4379  1.5868  1.2311
  986MOL0     H36057   8.966   3.198   9.882  0.9489  0.2656  0.9034
  986MOL0     H36058   8.764   3.300   9.905 -1.0203  0.0559  1.6929
  986MOL0     H36059   8.820   3.460   9.878 -2.1197 -1.5146 -1.7318
  986MOL0     H36060   8.877   3.317  10.143  1.3402  2.4279  1.2776
  986MOL0     H36061   8.874   3.494  10.108 -0.7626 -0.2577  1.2720
  986MOL0     H36062   8.673   3.379  10.234 -0.7155 -3.7278 -2.2458
  986MOL0     H36063   8.641   3.302  10.097  1.0300 -0.0431 -1.4506
  986MOL0     H36064   8.567   3.708   9.949 -1.0093  0.6081 -0.5665
  986MOL0     H36065   9.174   3.175   9.805 -2.2353  3.6264  1.2134
  986MOL0     H36066   9.342   3.045   9.708 -1.1405  0.9654  0.4908
  986MOL0     H36067   9.475   3.128   9.642 -1.9674  0.1033 -0.3275
  986MOL0     H36068   9.500   3.036   9.801 -1.2796  0.6719  3.0029
  987MOL0     O36069   9.673   3.985   2.198  1.1223  0.4770 -0.0672
  987MOL0     C36070   9.656   4.081   2.121  0.3369 -0.1423 -0.9899
  987MOL0     O36071   9.634   4.074   1.989 -0.0118 -0.2278 -0.5018
  987MOL0     C36072   9.653   3.959   1.908 -0.3036 -0.5898  0.4567
  987MOL0     C36073   9.774   3.881   1.920 -0.1967  0.2363  0.1803
  987MOL0     C36074   9.817   3.795   1.821  0.0918  0.2058 -0.5503
  987MOL0     C36075   9.729   3.761   1.723  0.0002 -0.2794  0.5499
  987MOL0     O36076   9.758   3.661   1.637  0.4748 -0.4877 -0.0528
  987MOL0     C36077   9.884   3.649   1.578 -0.9918  0.1041  0.0053
  987MOL0     C36078   9.923   3.504   1.547 -1.0491  0.7946 -0.4125
  987MOL0     C36079   9.949   3.425   1.688 -0.0656 -0.6098  0.7802
  987MOL0     C36080   9.838   3.333   1.741  0.3134 -0.6048 -0.2681
  987MOL0     C36081   9.823   3.363   1.891 -0.2500  0.2931  0.5366
  987MOL0     C36082   9.734   3.479   1.919 -0.7544 -0.4680 -0.2627
  987MOL0     C36083   9.668   3.462   2.058 -0.5102  0.1000  0.4205
  987MOL0     C36084   9.550   3.566   2.064 -0.2200 -0.1231  0.0124
  987MOL0     N36085   9.506   3.569   2.205  0.7689 -0.1498  0.2557
  987MOL0     C36086   9.561   3.650   2.294 -0.1520  0.4753  0.1944
  987MOL0     C36087   9.525   3.609   2.413 -0.0443  0.0397  0.3685
  987MOL0     C36088   9.565   3.637   2.541 -0.5006 -0.1397  0.3866
  987MOL0     C36089   9.481   3.750   2.605 -0.0400 -1.3134 -0.9177
  987MOL0     C36090   9.542   3.884   2.564 -0.7952 -0.2741 -0.3980
  987MOL0     C36091   9.489   3.997   2.641  0.6061 -0.4585 -0.2875
  987MOL0     O36092   9.359   4.034   2.590 -0.1031  0.2258 -0.4142
  987MOL0     C36093   9.302   4.153   2.626  0.3708 -0.2214 -0.2324
  987MOL0     C36094   9.363   4.236   2.722  0.7352  0.5284 -0.3722
  987MOL0     C36095   9.289   4.347   2.774  1.1883 -0.6570 -0.0799
  987MOL0     C36096   9.360   4.441   2.874  0.1693  0.9205 -0.4403
  987MOL0     C36097   9.154   4.370   2.732  0.7040  0.0888 -0.3496
  987MOL0     C36098   9.079   4.491   2.773  0.8782  1.2130  1.7027
  987MOL0     O36099   8.954   4.470   2.828  0.3277 -0.4989  0.7288
  987MOL0     C36100   8.871   4.570   2.883 -0.6098  0.8094  0.3381
  987MOL0     C36101   8.883   4.703   2.855 -0.3701 -0.3650  0.9578
  987MOL0     C36102   8.787   4.791   2.908  0.3672 -0.2417 -0.3002
  987MOL0     C36103   8.689   4.752   3.001 -0.3266  0.5246  0.0459
  987MOL0     O36104   8.599   4.844   3.050 -0.4631  0.6653 -0.7143
  987MOL0     C36105   8.528   4.807   3.174  0.1862  0.3874  1.0657
  987MOL0     C36106   8.608   4.836   3.309 -0.8871 -0.1884  0.2087
  987MOL0     C36107   8.701   4.957   3.292  0.4788 -0.2861 -0.0169
  987MOL0     C36108   8.637   5.085   3.245 -0.0512  0.0906 -0.6954
  987MOL0     C36109   8.739   5.195   3.203  0.4315 -1.0092 -0.2040
  987MOL0     C36110   8.759   5.194   3.056 -0.3361 -0.7428  0.3501
  987MOL0     C36111   8.853   5.310   3.019 -0.0183  0.3982  0.8288
  987MOL0     C36112   8.874   5.333   2.863 -0.5841  0.5256 -0.1225
  987MOL0    Cl36113   8.995   5.476   2.853  0.2106  0.0931  0.1207
  987MOL0     C36114   8.687   4.614   3.029  0.0525 -0.4447 -0.2109
  987MOL0     C36115   8.767   4.530   2.960 -0.6218  0.8809  0.1490
  987MOL0     O36116   9.140   4.588   2.772 -0.6964 -0.1824  0.5052
  987MOL0     C36117   9.090   4.281   2.646 -0.3885  0.6157  0.0475
  987MOL0     C36118   9.167   4.177   2.591 -1.2689 -0.7136  0.4820
  987MOL0     N36119   9.440   3.505   2.393  0.5083 -0.3119 -0.9673
  987MOL0     N36120   9.427   3.480   2.266 -0.4087 -0.7491  0.4272
  987MOL0     C36121   9.607   3.828   1.715 -0.7130  0.6445 -0.3334
  987MOL0     C36122   9.569   3.933   1.798  0.4249 -0.0183 -0.1074
  987MOL0     C36123   9.619   4.208   2.185 -0.1021 -0.4372 -1.0019
  987MOL0     C36124   9.569   4.208   2.311  0.7166  1.2435 -0.4325
  987MOL0     C36125   9.529   4.325   2.380  0.2797  0.1848 -0.0628
  987MOL0     C36126   9.551   4.447   2.320 -0.3615 -1.3011 -0.8915
  987MOL0     O36127   9.518   4.574   2.380  0.8606 -0.1021 -0.2491
  987MOL0     C36128   9.458   4.566   2.507 -0.2925  0.3831  0.2213
  987MOL0     C36129   9.403   4.698   2.535 -0.5419 -0.4788  0.1863
  987MOL0     C36130   9.283   4.735   2.448 -0.1191 -0.0711  0.3527
  987MOL0     C36131   9.205   4.856   2.484  0.1211 -0.7279  0.1744
  987MOL0     C36132   9.097   4.863   2.382  0.8330 -0.2203  0.1346
  987MOL0     C36133   9.002   4.899   2.310 -0.4951 -0.6729  0.5198
  987MOL0     C36134   9.621   4.447   2.202 -0.3137 -0.5333  0.2941
  987MOL0     C36135   9.656   4.333   2.133  0.0540 -0.1769 -0.5077
  987MOL0     C36136   9.725   4.359   1.995 -1.0745 -0.2103 -0.3285
  987MOL0     H36137   9.840   3.897   2.005 -0.5085 -2.3293  1.0054
  987MOL0     H36138   9.910   3.745   1.846 -0.7926 -0.4805  1.6325
  987MOL0     H36139   9.969   3.686   1.638 -0.9446  0.1634 -0.0988
  987MOL0     H36140   9.877   3.708   1.487  1.8870  1.5375  0.5703
  987MOL0     H36141   9.837   3.458   1.497 -0.9315 -0.5356  0.5624
  987MOL0     H36142  10.016   3.501   1.490  0.1450  0.9451  1.4454
  987MOL0     H36143  10.031   3.353   1.677  1.8958  1.0966  3.0872
  987MOL0     H36144   9.973   3.493   1.770  2.0077 -1.7705  1.2249
  987MOL0     H36145   9.742   3.350   1.691 -0.2188  1.6960  1.3848
  987MOL0     H36146   9.867   3.231   1.715 -0.2069 -0.8094 -0.0560
  987MOL0     H36147   9.915   3.388   1.944 -0.0903  1.4368 -0.2457
  987MOL0     H36148   9.783   3.266   1.921 -0.2924 -0.8168 -2.7105
  987MOL0     H36149   9.801   3.566   1.922 -0.6859 -0.3578 -2.5638
  987MOL0     H36150   9.671   3.514   1.837  0.2713  4.4684  0.7226
  987MOL0     H36151   9.743   3.479   2.136  0.8141  0.2488 -0.8519
  987MOL0     H36152   9.621   3.365   2.081 -0.0258  0.1225  1.5589
  987MOL0     H36153   9.580   3.668   2.040  0.8159 -0.1380  1.1453
  987MOL0     H36154   9.465   3.534   2.002  0.3240  0.8110 -1.2574
  987MOL0     H36155   9.625   3.732   2.262 -0.1283  0.5470  0.4225
  987MOL0     H36156   9.671   3.661   2.538 -0.5517  0.3615  1.8140
  987MOL0     H36157   9.561   3.545   2.600  2.5762  0.6272  2.0020
  987MOL0     H36158   9.376   3.747   2.573 -0.3480 -1.2950  0.0441
  987MOL0     H36159   9.492   3.745   2.714  0.7546  0.2996 -0.8827
  987MOL0     H36160   9.650   3.881   2.583 -0.5350  1.5365 -1.4018
  987MOL0     H36161   9.507   3.911   2.464 -3.9506  1.3477  1.0209
  987MOL0     H36162   9.491   3.980   2.749  2.3591 -1.2131 -0.3905
  987MOL0     H36163   9.565   4.075   2.632 -0.0982  0.6607  2.4169
  987MOL0     H36164   9.455   4.201   2.768  0.0744  0.4772  0.9390
  987MOL0     H36165   9.419   4.517   2.823 -0.9213  0.6823 -2.1637
  987MOL0     H36166   9.436   4.385   2.929 -1.3280 -1.0521 -0.2649
  987MOL0     H36167   9.294   4.492   2.944 -0.6822 -1.7261  0.8390
  987MOL0     H36168   8.962   4.749   2.796  0.6372 -0.9691  1.7881
  987MOL0     H36169   8.786   4.895   2.881  0.7355 -0.5197 -1.4307
  987MOL0     H36170   8.431   4.858   3.162  0.0332  0.2391  1.6811
  987MOL0     H36171   8.494   4.703   3.179  0.6543  0.1624 -0.1060
  987MOL0     H36172   8.553   4.839   3.404 -1.0890  2.9096  0.0955
  987MOL0     H36173   8.676   4.750   3.316  1.1123  1.2665 -0.5521
  987MOL0     H36174   8.783   4.935   3.223 -1.0369 -0.0372 -1.9954
  987MOL0     H36175   8.747   4.988   3.386  3.3815  0.4916 -1.5637
  987MOL0     H36176   8.581   5.127   3.329 -0.8820 -2.2879  0.0459
  987MOL0     H36177   8.565   5.059   3.167  0.2039  1.0246 -1.2577
  987MOL0     H36178   8.695   5.294   3.221  2.4374 -0.5397  3.1510
  987MOL0     H36179   8.836   5.179   3.251  1.2473  0.5547 -1.2681
  987MOL0     H36180   8.669   5.219   2.998  1.9961  2.5000 -2.2640
  987MOL0     H36181   8.805   5.098   3.030  0.6894 -0.0575 -0.4922
  987MOL0     H36182   8.953   5.293   3.060  0.7749 -0.8685 -1.4572
  987MOL0     H36183   8.818   5.397   3.075  0.9595 -0.9437  3.7544
  987MOL0     H36184   8.778   5.357   2.815 -1.8467  1.4725  2.6333
  987MOL0     H36185   8.920   5.247   2.815  1.1541  1.2634  0.1542
  987MOL0     H36186   8.623   4.575   3.107  0.5040 -2.1550 -0.6581
  987MOL0     H36187   8.770   4.422   2.969  2.8908  0.7953 -0.5034
  987MOL0     H36188   8.988   4.298   2.611 -0.3473  0.4911 -0.1365
  987MOL0     H36189   9.119   4.107   2.523  0.1536 -1.3052  0.0370
  987MOL0     H36190   9.560   3.796   1.622  1.8184 -1.0175 -1.1409
  987MOL0     H36191   9.469   3.969   1.778 -0.2481 -0.8034  1.6221
  987MOL0     H36192   9.545   4.116   2.362 -1.4126  0.3426 -2.8342
  987MOL0     H36193   9.490   4.314   2.480  1.2956  0.5256  0.3781
  987MOL0     H36194   9.377   4.493   2.514 -0.3308  0.5099  1.2035
  987MOL0     H36195   9.538   4.537   2.576  2.9780  3.9615 -1.6724
  987MOL0     H36196   9.486   4.766   2.514 -2.1990  0.7053 -3.2133
  987MOL0     H36197   9.373   4.711   2.640 -2.4394  3.4113 -0.6483
  987MOL0     H36198   9.329   4.771   2.355  1.1627  2.6902  1.9324
  987MOL0     H36199   9.220   4.649   2.426  0.5260 -0.2350 -0.9672
  987MOL0     H36200   9.265   4.948   2.475  1.2909 -1.6033 -1.3287
  987MOL0     H36201   9.171   4.842   2.587 -0.9199 -1.3199 -0.2382
  987MOL0     H36202   8.920   4.924   2.245  0.3104 -0.1531 -0.3208
  987MOL0     H36203   9.642   4.547   2.164  0.8607 -1.2036 -0.9008
  987MOL0     H36204   9.765   4.461   1.997  0.8123 -0.8657  2.5419
  987MOL0     H36205   9.803   4.284   1.982 -2.7635 -1.9841 -0.5654
  987MOL0     H36206   9.650   4.342   1.918 -0.2254 -4.4804 -0.4235
  988MOL0     O36207   1.452   8.755   8.905 -0.1245  0.3981  0.4702
  988MOL0     C36208   1.339   8.745   8.946  0.0687 -0.0163 -1.1241
  988MOL0     O36209   1.311   8.715   9.079 -1.0498 -0.0415 -0.0829
  988MOL0     C36210   1.407   8.684   9.174 -0.3684 -0.1356 -0.8432
  988MOL0     C36211   1.417   8.753   9.291 -0.6633  0.8588 -0.2858
  988MOL0     C36212   1.501   8.710   9.396 -0.2056 -0.3562 -1.0894
  988MOL0     C36213   1.577   8.603   9.386 -0.8677  1.0556  0.1856
  988MOL0     O36214   1.666   8.571   9.485 -0.4854 -0.2879 -0.2547
  988MOL0     C36215   1.718   8.434   9.490 -1.0736  0.3722  0.0073
  988MOL0     C36216   1.612   8.335   9.523  0.9924 -0.4757  0.4595
  988MOL0     C36217   1.596   8.329   9.679  0.1471  0.4515 -0.1916
  988MOL0     C36218   1.548   8.197   9.726 -0.8141  0.4705  0.2851
  988MOL0     C36219   1.526   8.210   9.876  0.2389 -0.0772 -1.2878
  988MOL0     C36220   1.503   8.084   9.961 -0.0680 -1.0636  0.2682
  988MOL0     C36221   1.379   8.007   9.927  0.2602  0.0406 -0.5385
  988MOL0     C36222   1.382   7.881  10.008 -0.0975  0.3575  0.0066
  988MOL0     N36223   1.259   7.808   9.988  1.2596  0.3765  0.1016
  988MOL0     C36224   1.127   7.847  10.014 -0.8008  0.4424  0.3211
  988MOL0     C36225   1.056   7.739   9.990  0.1048 -0.8140 -0.4166
  988MOL0     C36226   0.917   7.733  10.024  0.0856  0.5080  0.0274
  988MOL0     C36227   0.892   7.751  10.174  1.2789  0.0785 -0.3785
  988MOL0     C36228   0.738   7.742  10.218 -0.4475 -0.1224 -0.0002
  988MOL0     C36229   0.656   7.857  10.159  0.1541  0.0263  0.2186
  988MOL0     O36230   0.724   7.982  10.147  0.0336  0.4715 -0.1800
  988MOL0     C36231   0.661   8.106  10.161  0.6276 -0.0687 -0.0944
  988MOL0     C36232   0.541   8.130  10.217 -0.4631  0.5119  0.5634
  988MOL0     C36233   0.497   8.261  10.219  1.3494 -0.3624  0.2517
  988MOL0     C36234   0.367   8.289  10.299 -0.1102 -0.0821  0.0683
  988MOL0     C36235   0.578   8.367  10.164  0.1122  0.9200 -0.5597
  988MOL0     C36236   0.535   8.503  10.171 -0.7008  0.1236  0.6455
  988MOL0     O36237   0.409   8.541  10.204 -0.2665  0.3896 -0.2833
  988MOL0     C36238   0.385   8.673  10.232 -0.0776 -0.7962 -0.5183
  988MOL0     C36239   0.470   8.762  10.297  0.2902 -0.4819  0.3109
  988MOL0     C36240   0.432   8.896  10.315  0.3781 -1.1459 -0.3038
  988MOL0     C36241   0.301   8.942  10.272  0.2159  0.9058  0.4012
  988MOL0     O36242   0.262   9.065  10.282  0.5729  0.0397  0.4696
  988MOL0     C36243   0.277   9.136  10.404  0.2995  1.2247  0.5765
  988MOL0     C36244   0.261   9.297  10.401  0.1836  0.2678  0.3915
  988MOL0     C36245   0.117   9.333  10.378  0.3892 -0.6125 -0.8201
  988MOL0     C36246   0.096   9.482  10.368  0.8008 -0.0713 -1.2840
  988MOL0     C36247   0.055   9.537  10.230 -0.3307  0.2296 -0.1182
  988MOL0     C36248  -0.091   9.505  10.182 -1.7840 -0.4229 -0.4925
  988MOL0     C36249  -0.134   9.594  10.059  0.1921  0.2235 -0.2087
  988MOL0     C36250  -0.265   9.543   9.998  0.0065  0.0794 -0.0454
  988MOL0    Cl36251  -0.354   9.649   9.884 -0.0596 -0.0154  0.5074
  988MOL0     C36252   0.214   8.854  10.210 -0.9005  0.7139  0.2794
  988MOL0     C36253   0.262   8.721  10.191  0.1192 -0.9672  1.2596
  988MOL0     O36254   0.620   8.583  10.148 -0.5006 -0.4038 -0.2885
  988MOL0     C36255   0.697   8.337  10.098 -0.3817  0.4174 -0.4130
  988MOL0     C36256   0.732   8.200  10.092 -0.8225 -0.1243  0.2944
  988MOL0     N36257   1.131   7.629   9.954  0.3076 -0.7621  0.9058
  988MOL0     N36258   1.251   7.677   9.949  0.2378 -0.7639 -0.0640
  988MOL0     C36259   1.570   8.533   9.266 -0.3031 -0.2714  0.0295
  988MOL0     C36260   1.486   8.566   9.161 -0.0506  0.2421  0.0991
  988MOL0     C36261   1.229   8.793   8.858  0.2352 -1.1609 -0.1112
  988MOL0     C36262   1.261   8.809   8.722 -0.4155  1.0876  0.1121
  988MOL0     C36263   1.175   8.862   8.632  0.1369 -0.0598  0.5778
  988MOL0     C36264   1.051   8.914   8.671  0.5419 -0.4711 -0.3016
  988MOL0     O36265   0.953   8.963   8.583 -0.8390 -0.0978  0.4282
  988MOL0     C36266   0.978   8.980   8.444  0.4162 -0.7915 -0.5850
  988MOL0     C36267   0.857   9.058   8.399  0.0144 -0.0676  0.1531
  988MOL0     C36268   0.729   8.975   8.418  0.6333  0.1294 -0.1654
  988MOL0     C36269   0.647   9.021   8.537  1.4780 -0.1924  0.0453
  988MOL0     C36270   0.515   8.940   8.527 -0.5593 -0.4511  0.4600
  988MOL0     C36271   0.411   8.886   8.509 -0.1369  1.3243  0.2916
  988MOL0     C36272   1.015   8.895   8.812 -0.6832  0.2336  0.1791
  988MOL0     C36273   1.104   8.828   8.898  0.9625 -0.0694 -0.1446
  988MOL0     C36274   1.050   8.817   9.038  0.1634 -0.3772  0.6698
  988MOL0     H36275   1.358   8.843   9.301  1.2842  2.2360 -0.6390
  988MOL0     H36276   1.490   8.766   9.488  1.0734 -0.1627 -1.0403
  988MOL0     H36277   1.796   8.433   9.567  1.1746 -0.5535 -2.1883
  988MOL0     H36278   1.767   8.411   9.396 -0.7645 -2.0507  0.7030
  988MOL0     H36279   1.514   8.364   9.485  0.9631  0.0335  0.9082
  988MOL0     H36280   1.640   8.238   9.480  1.2041 -0.6863  1.0491
  988MOL0     H36281   1.695   8.354   9.718 -0.6445  0.8977  1.6121
  988MOL0     H36282   1.528   8.404   9.719  1.5438  1.0792  1.0897
  988MOL0     H36283   1.456   8.171   9.673 -1.5638  0.6134  1.4892
  988MOL0     H36284   1.606   8.107   9.702 -1.9118 -0.0203 -0.6326
  988MOL0     H36285   1.447   8.282   9.900  1.4058 -0.0141  3.2566
  988MOL0     H36286   1.619   8.256   9.911  0.0449 -1.2177  0.8589
  988MOL0     H36287   1.578   8.014   9.922  0.0929 -1.3840  1.1214
  988MOL0     H36288   1.510   8.107  10.068 -1.0341  1.7393 -0.1797
  988MOL0     H36289   1.377   7.981   9.820 -3.2135 -1.2646 -0.3015
  988MOL0     H36290   1.296   8.072   9.957  0.6597 -0.0933  0.9083
  988MOL0     H36291   1.462   7.812   9.982  0.5170  1.4177 -1.0209
  988MOL0     H36292   1.393   7.904  10.114 -1.3550  1.3407 -0.0419
  988MOL0     H36293   1.107   7.944  10.057  1.8253 -0.1156  3.0859
  988MOL0     H36294   0.872   7.638   9.994 -1.3142  0.8603  0.9080
  988MOL0     H36295   0.868   7.814   9.970 -1.4348  0.7071  1.6085
  988MOL0     H36296   0.951   7.675  10.225  1.4452  1.2883  1.3095
  988MOL0     H36297   0.927   7.849  10.208 -0.3516  0.4840  0.2523
  988MOL0     H36298   0.704   7.642  10.187  0.2843 -0.3005 -0.2425
  988MOL0     H36299   0.734   7.741  10.327 -0.3549 -0.2125  0.0030
  988MOL0     H36300   0.619   7.838  10.058  0.5310  1.9104 -0.3294
  988MOL0     H36301   0.564   7.858  10.218 -0.2449  2.5136 -0.3211
  988MOL0     H36302   0.479   8.054  10.264 -0.0138  0.7478  1.5672
  988MOL0     H36303   0.349   8.208  10.370  1.3035  0.0912  0.6476
  988MOL0     H36304   0.276   8.283  10.238 -2.1337  2.4488  2.5250
  988MOL0     H36305   0.378   8.381  10.359  2.2569  0.3607 -0.9481
  988MOL0     H36306   0.564   8.727  10.339 -1.2036 -1.9041  2.7554
  988MOL0     H36307   0.510   8.964  10.349  0.2137  0.0973 -2.2363
  988MOL0     H36308   0.199   9.104  10.473 -0.5961  1.6453 -0.2247
  988MOL0     H36309   0.374   9.116  10.452 -0.1911  1.8784  1.8905
  988MOL0     H36310   0.288   9.347  10.494 -0.1437  0.1524  0.5485
  988MOL0     H36311   0.319   9.336  10.317 -1.2655  2.9582  0.5421
  988MOL0     H36312   0.054   9.287  10.454  0.6983  1.3913  0.7169
  988MOL0     H36313   0.095   9.298  10.277 -1.0248  1.3592 -1.2581
  988MOL0     H36314   0.180   9.536  10.412 -0.3423  0.9522 -0.2617
  988MOL0     H36315   0.006   9.507  10.426  0.5925  1.2453 -2.1304
  988MOL0     H36316   0.077   9.644  10.239  3.1897 -0.5228  1.8092
  988MOL0     H36317   0.116   9.483  10.157 -1.8590 -1.8011  0.0245
  988MOL0     H36318  -0.158   9.510  10.268 -0.7381 -1.7492  0.4377
  988MOL0     H36319  -0.098   9.402  10.145 -1.7807 -0.0313 -1.6383
  988MOL0     H36320  -0.052   9.595   9.985  1.7179 -3.0794  1.2298
  988MOL0     H36321  -0.149   9.691  10.108  0.0412 -0.6606  1.5771
  988MOL0     H36322  -0.330   9.518  10.082 -0.5534  0.9296 -0.2179
  988MOL0     H36323  -0.254   9.454   9.934 -1.6451 -0.7241  0.7205
  988MOL0     H36324   0.120   8.897  10.177 -0.2947  0.1743 -2.4679
  988MOL0     H36325   0.187   8.667  10.135 -1.9450  5.0696 -2.9053
  988MOL0     H36326   0.763   8.408  10.049  2.3889 -0.4008  1.8356
  988MOL0     H36327   0.820   8.156  10.045  0.6008  0.8452  1.9295
  988MOL0     H36328   1.638   8.453   9.236  2.3621  1.2696  1.5363
  988MOL0     H36329   1.462   8.502   9.077 -2.3363 -1.4544  1.9132
  988MOL0     H36330   1.363   8.799   8.685 -0.1218  1.2132  0.8538
  988MOL0     H36331   1.221   8.863   8.533 -1.6140 -0.7534 -0.2998
  988MOL0     H36332   1.064   9.042   8.417  0.7138 -0.8177  0.2721
  988MOL0     H36333   0.975   8.883   8.393  0.6526  0.1095 -2.3996
  988MOL0     H36334   0.873   9.077   8.292 -1.8011  0.4727 -0.0539
  988MOL0     H36335   0.841   9.156   8.443 -0.5769  0.5592 -1.4056
  988MOL0     H36336   0.665   9.008   8.335 -0.5691 -0.7796  0.3717
  988MOL0     H36337   0.740   8.867   8.407  2.1015  0.3099 -0.6759
  988MOL0     H36338   0.638   9.130   8.539 -0.9130 -0.3550  0.5092
  988MOL0     H36339   0.702   8.986   8.624  0.7884  0.5828  0.8051
  988MOL0     H36340   0.326   8.822   8.499  1.6392 -0.8770 -2.1499
  988MOL0     H36341   0.913   8.928   8.830 -0.8159 -0.0424 -0.0517
  988MOL0     H36342   1.095   8.896   9.099 -1.1004  1.5002 -0.7231
  988MOL0     H36343   0.943   8.835   9.045 -0.1092 -2.0430  1.4211
  988MOL0     H36344   1.079   8.723   9.087  1.2619 -0.2443  0.3054
  989MOL0     O36345   3.821   7.646   7.723  0.0216  0.9033 -0.8898
  989MOL0     C36346   3.782   7.631   7.838  0.4603  0.1187  0.1439
  989MOL0     O36347   3.800   7.517   7.913  0.5386  0.2151 -0.1017
  989MOL0     C36348   3.887   7.420   7.858 -0.3672 -0.1679  0.5498
  989MOL0     C36349   3.988   7.358   7.926  0.9802  0.1045 -1.5860
  989MOL0     C36350   4.062   7.252   7.884  0.3324  0.4130  1.0224
  989MOL0     C36351   4.037   7.184   7.765  0.5866 -0.2425 -0.4238
  989MOL0     O36352   4.122   7.081   7.730 -0.2288  0.4699 -0.2200
  989MOL0     C36353   4.168   7.074   7.596 -0.3847 -0.9310  0.2347
  989MOL0     C36354   4.278   7.179   7.585  0.5905  0.2979  1.3620
  989MOL0     C36355   4.323   7.225   7.442 -0.3636  0.1235  0.6534
  989MOL0     C36356   4.442   7.141   7.385 -0.0931  0.6192  1.0561
  989MOL0     C36357   4.507   7.194   7.253  0.5483  0.8640  0.7302
  989MOL0     C36358   4.410   7.151   7.136  0.6151  0.6200  0.6329
  989MOL0     C36359   4.480   7.176   7.007  0.0820 -0.5002  1.1905
  989MOL0     C36360   4.394   7.114   6.888  0.5938 -0.4357 -0.3699
  989MOL0     N36361   4.269   7.174   6.864 -0.4180  0.2701 -0.3304
  989MOL0     C36362   4.251   7.261   6.762  0.5284  1.1695  0.2520
  989MOL0     C36363   4.114   7.289   6.763 -1.1366  0.0736 -0.2318
  989MOL0     C36364   4.046   7.400   6.688 -0.4571  0.2493 -0.0174
  989MOL0     C36365   3.950   7.346   6.580 -0.5214 -1.0613 -0.6189
  989MOL0     C36366   4.017   7.235   6.497  0.2072  0.3771  0.9159
  989MOL0     C36367   3.965   7.235   6.352  0.0034  0.0419  0.4698
  989MOL0     O36368   3.819   7.217   6.363  0.1492  0.1510  0.4674
  989MOL0     C36369   3.758   7.097   6.320 -0.1096 -0.1787  0.6266
  989MOL0     C36370   3.643   7.108   6.247 -0.1036  0.0425 -1.2318
  989MOL0     C36371   3.578   7.004   6.172  0.1921  0.7953 -0.5698
  989MOL0     C36372   3.450   7.032   6.111 -0.1824 -0.3770  0.4005
  989MOL0     C36373   3.645   6.876   6.180 -0.7888  0.3427  0.3172
  989MOL0     C36374   3.596   6.753   6.112  0.0891  0.4907  0.4389
  989MOL0     O36375   3.661   6.628   6.141 -0.2149 -0.6493 -0.0280
  989MOL0     C36376   3.641   6.514   6.063 -0.2356 -0.1219  0.3405
  989MOL0     C36377   3.746   6.458   5.990  0.4521  0.8595 -0.8585
  989MOL0     C36378   3.726   6.328   5.943 -0.7594  0.2246  0.9792
  989MOL0     C36379   3.598   6.256   5.950  0.0637  0.0992 -0.3908
  989MOL0     O36380   3.580   6.124   5.908  0.3034 -0.1809  0.2440
  989MOL0     C36381   3.677   6.062   5.830  0.0698 -0.3946  0.2778
  989MOL0     C36382   3.608   5.933   5.776 -0.8029 -0.0026 -0.7385
  989MOL0     C36383   3.685   5.881   5.646  0.0900 -0.7821 -0.6127
  989MOL0     C36384   3.666   5.727   5.633 -1.0524  1.2600  0.4397
  989MOL0     C36385   3.646   5.689   5.483  0.8851 -0.5922  0.2155
  989MOL0     C36386   3.656   5.540   5.455  0.3003  0.4425  1.1140
  989MOL0     C36387   3.637   5.501   5.307 -0.1369  0.1386  0.2809
  989MOL0     C36388   3.641   5.349   5.291 -0.5312  0.2276 -0.4785
  989MOL0    Cl36389   3.808   5.297   5.326 -0.0462 -0.0443  0.1464
  989MOL0     C36390   3.491   6.322   6.014 -0.0785  0.6441  0.2053
  989MOL0     C36391   3.513   6.448   6.075  0.5275  0.1824  0.2853
  989MOL0     O36392   3.514   6.765   6.033  0.2812 -0.1377  0.3913
  989MOL0     C36393   3.764   6.865   6.256 -0.4510 -0.6325 -1.1020
  989MOL0     C36394   3.819   6.980   6.330 -0.6768  0.2806 -0.2050
  989MOL0     N36395   4.058   7.211   6.863 -0.1116 -0.7315 -0.1983
  989MOL0     N36396   4.154   7.151   6.930  0.7132 -0.1133  0.3253
  989MOL0     C36397   3.924   7.234   7.690 -0.3043 -0.2909  0.5931
  989MOL0     C36398   3.854   7.350   7.734  0.0675 -0.2001  1.3230
  989MOL0     C36399   3.694   7.735   7.903  0.7544  0.1463  0.5714
  989MOL0     C36400   3.610   7.702   8.008  0.1288  1.2585 -0.4284
  989MOL0     C36401   3.543   7.794   8.090  0.1541 -0.1924  0.2630
  989MOL0     C36402   3.525   7.922   8.046 -0.4187  0.8870 -0.0008
  989MOL0     O36403   3.436   8.018   8.094 -0.0574 -0.2886 -0.1804
  989MOL0     C36404   3.380   8.000   8.225  0.6140  0.2881 -0.0817
  989MOL0     C36405   3.319   8.142   8.247  0.4849  0.7744  0.3567
  989MOL0     C36406   3.270   8.163   8.386  0.2703  0.6537 -0.4104
  989MOL0     C36407   3.206   8.297   8.413 -0.2273 -0.0777 -0.5901
  989MOL0     C36408   3.326   8.380   8.449 -0.2693 -0.1726  0.1061
  989MOL0     C36409   3.401   8.470   8.480 -0.2098  0.7855  0.3189
  989MOL0     C36410   3.612   7.959   7.941 -0.4164  0.6249 -0.1364
  989MOL0     C36411   3.692   7.874   7.860 -0.3912 -0.1423  1.2570
  989MOL0     C36412   3.757   7.933   7.738  0.5164  1.8673 -0.1115
  989MOL0     H36413   4.018   7.388   8.026 -0.2582  1.4932 -1.6020
  989MOL0     H36414   4.136   7.203   7.946  0.3762 -0.8792 -0.0086
  989MOL0     H36415   4.085   7.102   7.530 -1.5739  0.0527  2.0657
  989MOL0     H36416   4.207   6.976   7.567  0.8003  0.1096 -1.9150
  989MOL0     H36417   4.242   7.268   7.638 -1.0243  0.8544 -0.5370
  989MOL0     H36418   4.364   7.133   7.633  1.2872 -0.4913 -0.5179
  989MOL0     H36419   4.240   7.220   7.371  2.1675 -0.9921 -2.4510
  989MOL0     H36420   4.354   7.330   7.439  2.4799 -0.6544 -1.5405
  989MOL0     H36421   4.524   7.142   7.458  0.6330  1.0064  0.2425
  989MOL0     H36422   4.409   7.038   7.364 -1.1328  0.9454  1.0138
  989MOL0     H36423   4.608   7.157   7.232 -0.0602 -0.0631 -0.7286
  989MOL0     H36424   4.508   7.302   7.267 -0.2830  1.0520 -0.5323
  989MOL0     H36425   4.374   7.048   7.143  0.8462  0.6185  2.1565
  989MOL0     H36426   4.315   7.205   7.145  0.9819  1.3300  0.3484
  989MOL0     H36427   4.579   7.129   7.003 -0.5728 -1.8630  0.2536
  989MOL0     H36428   4.509   7.280   6.991  4.6438 -1.7336 -0.4485
  989MOL0     H36429   4.459   7.124   6.801  1.7901  1.4129  0.6755
  989MOL0     H36430   4.366   7.010   6.904 -3.5837  0.8135  1.9303
  989MOL0     H36431   4.324   7.314   6.701 -0.2432  1.6209 -0.3101
  989MOL0     H36432   4.122   7.466   6.645 -2.1738  0.9855 -2.1331
  989MOL0     H36433   3.989   7.452   6.765  0.3567  1.7467 -0.3837
  989MOL0     H36434   3.861   7.297   6.620 -0.0034 -0.5631  1.2028
  989MOL0     H36435   3.932   7.431   6.513  0.1586 -0.8209 -0.5026
  989MOL0     H36436   4.125   7.253   6.493 -0.1795  3.4154  1.4131
  989MOL0     H36437   3.996   7.142   6.550  0.4138  0.9338  1.9959
  989MOL0     H36438   3.978   7.329   6.299 -1.5836  0.5600  0.9460
  989MOL0     H36439   4.016   7.157   6.294  0.1226  2.2046 -2.5928
  989MOL0     H36440   3.599   7.208   6.250 -0.8852 -0.2978 -1.1469
  989MOL0     H36441   3.377   6.953   6.131 -1.2723  0.5544  0.2584
  989MOL0     H36442   3.458   7.053   6.004 -0.7936  3.1497  0.9293
  989MOL0     H36443   3.401   7.125   6.142  2.1222  2.0983 -2.7624
  989MOL0     H36444   3.845   6.498   6.008  1.2294 -2.3312  3.8698
  989MOL0     H36445   3.813   6.289   5.890 -1.2982 -0.0839  0.3087
  989MOL0     H36446   3.722   6.131   5.757 -1.8376 -0.6965 -1.2608
  989MOL0     H36447   3.755   6.038   5.903  0.3331 -1.4245 -0.3125
  989MOL0     H36448   3.594   5.851   5.847  0.1281  0.0944 -0.4335
  989MOL0     H36449   3.504   5.954   5.749 -1.3181 -0.5181  0.7521
  989MOL0     H36450   3.788   5.918   5.637 -0.9499  2.7651  0.2070
  989MOL0     H36451   3.631   5.928   5.563  1.7647  0.5915 -0.9976
  989MOL0     H36452   3.580   5.701   5.696 -0.2748  1.4981  1.6421
  989MOL0     H36453   3.754   5.675   5.671 -0.9220  0.7414 -0.5549
  989MOL0     H36454   3.557   5.743   5.449  2.3930  2.3039  0.5676
  989MOL0     H36455   3.726   5.732   5.422 -0.9240  0.4837 -1.5317
  989MOL0     H36456   3.583   5.486   5.516  0.4090 -0.1762  0.7158
  989MOL0     H36457   3.761   5.518   5.475  0.1302 -1.0391  0.5144
  989MOL0     H36458   3.714   5.550   5.247 -2.4049  0.1286 -2.8661
  989MOL0     H36459   3.545   5.540   5.262  0.2925 -1.4895 -2.2317
  989MOL0     H36460   3.606   5.316   5.192 -2.3420 -1.6284  0.6888
  989MOL0     H36461   3.572   5.309   5.366 -0.5898 -3.2222 -2.1540
  989MOL0     H36462   3.398   6.267   6.026 -0.7620  1.3013 -1.7375
  989MOL0     H36463   3.432   6.500   6.124 -1.0160 -1.9217  0.1129
  989MOL0     H36464   3.830   6.780   6.268 -0.9632 -0.6239  2.9989
  989MOL0     H36465   3.909   6.961   6.387 -0.8260 -0.2955 -0.1588
  989MOL0     H36466   3.884   7.183   7.603 -2.9821  2.4280  0.0955
  989MOL0     H36467   3.777   7.377   7.662  0.7176 -1.6329  0.0452
  989MOL0     H36468   3.601   7.598   8.036  1.0162  1.7719  2.0324
  989MOL0     H36469   3.495   7.757   8.180  3.1554 -1.6079  1.4032
  989MOL0     H36470   3.299   7.927   8.229  1.3744 -0.5274  2.4337
  989MOL0     H36471   3.449   7.978   8.307  2.7839 -2.7457 -2.5014
  989MOL0     H36472   3.224   8.132   8.194 -0.5064 -3.3219  2.5245
  989MOL0     H36473   3.388   8.219   8.210  2.3564 -1.2543 -0.5771
  989MOL0     H36474   3.204   8.078   8.405  2.2483 -1.7458 -3.3468
  989MOL0     H36475   3.346   8.135   8.460 -0.0194 -0.1082 -0.3899
  989MOL0     H36476   3.127   8.293   8.489  0.6616  0.0738  0.3546
  989MOL0     H36477   3.159   8.325   8.318 -1.1283 -1.9309 -0.7474
  989MOL0     H36478   3.474   8.543   8.507  0.8894 -1.1995  3.2598
  989MOL0     H36479   3.594   8.062   7.910 -1.9463  0.7632  1.0660
  989MOL0     H36480   3.711   7.893   7.647  0.6324 -1.9211  1.3204
  989MOL0     H36481   3.758   8.042   7.745 -0.1362  1.7772  4.0915
  989MOL0     H36482   3.857   7.893   7.721  0.4008  1.3293  0.4433
  990MOL0     O36483   7.786  11.116   6.194  0.0225 -0.4871  0.3677
  990MOL0     C36484   7.747  11.080   6.081  0.5737 -0.4477 -0.7163
  990MOL0     O36485   7.719  11.163   5.972 -0.3269 -0.8410 -0.0067
  990MOL0     C36486   7.710  11.299   5.996  0.4958 -0.4051  0.0533
  990MOL0     C36487   7.580  11.353   6.021  0.2570 -0.9894 -0.2354
  990MOL0     C36488   7.568  11.476   6.084 -0.1779  0.0754 -0.5981
  990MOL0     C36489   7.679  11.552   6.115 -0.3406  1.0834  0.2771
  990MOL0     O36490   7.658  11.661   6.194 -0.5220 -1.1967  0.1213
  990MOL0     C36491   7.769  11.748   6.211 -0.4023 -0.1887 -0.7164
  990MOL0     C36492   7.718  11.874   6.272  0.0656  0.0305  0.0582
  990MOL0     C36493   7.835  11.961   6.328 -0.5924  0.1702 -0.6838
  990MOL0     C36494   7.781  12.087   6.397 -0.2960  0.6987  0.5398
  990MOL0     C36495   7.894  12.163   6.458  0.5785  0.4364 -1.1627
  990MOL0     C36496   7.958  12.078   6.574  0.9330  0.6758  0.3901
  990MOL0     C36497   8.072  12.164   6.626  0.5966 -0.1619 -0.3453
  990MOL0     C36498   8.006  12.272   6.720  0.3306  0.2980  0.8805
  990MOL0     N36499   8.117  12.339   6.778 -0.0254 -0.7399  0.2245
  990MOL0     C36500   8.090  12.415   6.892 -0.1413 -0.5678  0.3260
  990MOL0     C36501   8.204  12.481   6.919 -0.0504 -0.9015 -0.5906
  990MOL0     C36502   8.227  12.587   7.020  0.7213  0.3765  0.4132
  990MOL0     C36503   8.380  12.605   7.051  0.3733  0.0987 -0.2434
  990MOL0     C36504   8.399  12.743   7.099  0.1836  0.2747  0.9286
  990MOL0     C36505   8.537  12.749   7.172  0.3478  0.5652 -0.3918
  990MOL0     O36506   8.649  12.753   7.086  0.1476  0.1517  0.4910
  990MOL0     C36507   8.656  12.853   6.997 -0.1938  0.0770  0.7420
  990MOL0     C36508   8.620  12.986   7.016 -0.1982  0.5563 -0.2248
  990MOL0     C36509   8.609  13.076   6.913 -0.2526 -0.5992 -0.1713
  990MOL0     C36510   8.557  13.217   6.943 -0.2402  0.6499 -0.3367
  990MOL0     C36511   8.661  13.042   6.789 -0.3122  0.1672  0.2923
  990MOL0     C36512   8.683  13.142   6.687 -0.4507  0.4470  0.0647
  990MOL0     O36513   8.760  13.254   6.722  0.5323  0.0197 -0.5895
  990MOL0     C36514   8.793  13.348   6.625  0.4330  0.1699 -0.2987
  990MOL0     C36515   8.866  13.319   6.508 -0.2815  0.3119  0.9517
  990MOL0     C36516   8.890  13.415   6.399  0.2763  0.0491  0.4080
  990MOL0     C36517   8.841  13.545   6.426 -0.5194 -0.0587  0.7663
  990MOL0     O36518   8.859  13.643   6.331 -0.0326 -0.2551 -0.4369
  990MOL0     C36519   8.971  13.732   6.360  0.6968 -0.3821  0.2910
  990MOL0     C36520   8.935  13.862   6.285 -0.1092  0.7087  0.5079
  990MOL0     C36521   9.037  13.982   6.312 -0.0830 -0.0449  1.1059
  990MOL0     C36522   8.992  14.105   6.236 -0.0790  0.5672 -0.3781
  990MOL0     C36523   9.084  14.219   6.239  0.7111 -0.2795 -1.0654
  990MOL0     C36524   9.030  14.349   6.175  0.2902  0.5969  0.0658
  990MOL0     C36525   9.142  14.453   6.175  0.2122  0.1122  0.0171
  990MOL0     C36526   9.116  14.552   6.284 -0.4534 -0.1329  0.0023
  990MOL0    Cl36527   9.260  14.658   6.286  0.1865  0.0358  0.0353
  990MOL0     C36528   8.771  13.575   6.542  0.7587  0.6196  0.2543
  990MOL0     C36529   8.743  13.473   6.635 -0.3253  0.8543  0.0289
  990MOL0     O36530   8.633  13.121   6.576  0.5583  0.5115  0.0565
  990MOL0     C36531   8.711  12.913   6.767 -0.1211 -0.1347  0.0114
  990MOL0     C36532   8.707  12.818   6.871 -0.0860 -0.9708  0.2849
  990MOL0     N36533   8.299  12.455   6.820  1.0148 -0.4916 -0.0714
  990MOL0     N36534   8.245  12.370   6.734 -0.6675 -0.2961 -0.6776
  990MOL0     C36535   7.805  11.506   6.072 -0.1331 -0.2588 -0.0436
  990MOL0     C36536   7.818  11.375   6.027 -0.4991 -0.1472 -0.3646
  990MOL0     C36537   7.731  10.934   6.054 -0.0743 -0.9991 -0.0776
  990MOL0     C36538   7.632  10.901   5.967  0.1353  0.4756  0.3453
  990MOL0     C36539   7.600  10.772   5.941 -0.6861  0.2901  0.8262
  990MOL0     C36540   7.655  10.667   6.015  0.5465  0.0129 -0.6242
  990MOL0     O36541   7.624  10.537   5.979  0.7231  0.1841 -0.3730
  990MOL0     C36542   7.478  10.513   5.968 -0.7847 -1.0685  0.7145
  990MOL0     C36543   7.404  10.566   6.087 -0.5865 -0.1208 -0.6488
  990MOL0     C36544   7.253  10.518   6.097  0.0559  0.4486 -0.1924
  990MOL0     C36545   7.195  10.562   6.230 -0.4714 -0.3716  0.1411
  990MOL0     C36546   7.057  10.523   6.238  0.0471  0.6862  0.0328
  990MOL0     C36547   6.949  10.467   6.239 -0.5221 -0.5318 -0.1402
  990MOL0     C36548   7.761  10.697   6.094  0.3449 -0.1085 -0.2728
  990MOL0     C36549   7.797  10.835   6.117 -0.1144 -0.6159  0.8021
  990MOL0     C36550   7.904  10.858   6.208 -0.0170  0.7198 -0.3175
  990MOL0     H36551   7.484  11.301   6.014  0.6678 -1.8521  0.3835
  990MOL0     H36552   7.474  11.518   6.119  1.8540  3.1163  1.7125
  990MOL0     H36553   7.808  11.763   6.110 -1.0858 -1.9956 -1.2965
  990MOL0     H36554   7.848  11.705   6.273 -0.6219  0.4840  0.0467
  990MOL0     H36555   7.653  11.929   6.203  1.0051 -0.0548 -0.9088
  990MOL0     H36556   7.653  11.850   6.356  1.5162  0.8336  1.4521
  990MOL0     H36557   7.896  11.899   6.394  2.0504  1.3669 -1.8961
  990MOL0     H36558   7.898  11.990   6.243 -1.8018 -0.8691 -1.9991
  990MOL0     H36559   7.734  12.163   6.334 -2.4259  1.3449  2.7461
  990MOL0     H36560   7.702  12.061   6.468  0.8499  0.2832  1.6794
  990MOL0     H36561   7.843  12.248   6.503  0.0666  0.1547 -1.2071
  990MOL0     H36562   7.962  12.207   6.386  0.5425  1.3360 -0.6609
  990MOL0     H36563   7.891  12.047   6.655  1.1642  0.2922  0.4355
  990MOL0     H36564   8.009  11.993   6.528  0.6101  1.7823 -2.1548
  990MOL0     H36565   8.140  12.205   6.551  3.0593 -1.6271  0.9481
  990MOL0     H36566   8.139  12.098   6.682 -1.5509 -2.6511 -0.5181
  990MOL0     H36567   7.949  12.348   6.666  0.0566 -0.2924  0.3265
  990MOL0     H36568   7.944  12.219   6.794 -3.2443  1.7586 -0.8057
  990MOL0     H36569   7.995  12.434   6.940 -2.6512  0.1876 -4.3858
  990MOL0     H36570   8.178  12.565   7.115  1.1692  2.0174  1.0545
  990MOL0     H36571   8.188  12.684   6.989  0.8230  0.0751 -0.6921
  990MOL0     H36572   8.410  12.536   7.130  0.2009 -0.7894 -0.9302
  990MOL0     H36573   8.442  12.585   6.963 -1.2085 -0.5964 -1.2512
  990MOL0     H36574   8.395  12.811   7.013 -2.3668  0.4872  1.1385
  990MOL0     H36575   8.321  12.784   7.164 -0.3110  3.2894 -1.3262
  990MOL0     H36576   8.557  12.840   7.229  1.8178 -1.2708  2.2116
  990MOL0     H36577   8.545  12.663   7.239 -0.0385 -0.0483 -1.1167
  990MOL0     H36578   8.576  13.023   7.108  1.6589  1.6579  0.2565
  990MOL0     H36579   8.508  13.254   6.852 -1.8486 -2.6739 -0.9600
  990MOL0     H36580   8.636  13.284   6.979  0.1489  0.7683 -1.3677
  990MOL0     H36581   8.486  13.208   7.026  1.6531  0.0733  1.2762
  990MOL0     H36582   8.902  13.220   6.485 -0.0051  0.3282  1.3037
  990MOL0     H36583   8.944  13.382   6.311 -2.8521  0.4460 -1.7823
  990MOL0     H36584   8.985  13.757   6.466  1.2971 -1.5733  0.5070
  990MOL0     H36585   9.059  13.686   6.316  0.9921 -0.2460  0.7366
  990MOL0     H36586   8.916  13.845   6.179  0.7216 -2.4535  0.7634
  990MOL0     H36587   8.839  13.890   6.328 -0.0046  3.5271 -0.8682
  990MOL0     H36588   9.137  13.956   6.278  0.4292  1.5873  1.2928
  990MOL0     H36589   9.042  14.012   6.417 -1.8028  0.1042  1.1688
  990MOL0     H36590   8.902  14.129   6.294 -0.7926 -1.5290 -0.5435
  990MOL0     H36591   8.962  14.077   6.134  1.3310  1.7779 -1.1730
  990MOL0     H36592   9.120  14.259   6.334 -3.5107 -2.0734  1.5584
  990MOL0     H36593   9.167  14.186   6.176  0.6899  0.4082 -1.4653
  990MOL0     H36594   8.934  14.369   6.223  0.9598  0.4393  1.5292
  990MOL0     H36595   9.000  14.325   6.073 -2.5829  4.6053 -0.2443
  990MOL0     H36596   9.139  14.507   6.080  0.0252 -1.1715 -0.7223
  990MOL0     H36597   9.243  14.414   6.191 -0.1375 -0.8673 -0.1006
  990MOL0     H36598   9.111  14.496   6.377 -0.7729 -0.9160 -0.4737
  990MOL0     H36599   9.019  14.602   6.271 -1.0289 -1.5173 -1.5029
  990MOL0     H36600   8.741  13.679   6.537  0.7511  0.5583 -3.0476
  990MOL0     H36601   8.677  13.500   6.717  3.1446  0.6629  3.1179
  990MOL0     H36602   8.765  12.884   6.677  1.3755  1.3359  0.3955
  990MOL0     H36603   8.745  12.718   6.849  0.6184 -0.4341 -1.0558
  990MOL0     H36604   7.904  11.550   6.084  0.6122 -2.0607  0.8710
  990MOL0     H36605   7.921  11.357   5.998  0.2859  0.6229  1.7501
  990MOL0     H36606   7.570  10.977   5.921 -0.3593  1.0426  1.8870
  990MOL0     H36607   7.533  10.764   5.856  0.9938  3.7832 -1.0720
  990MOL0     H36608   7.439  10.553   5.874  0.9595 -0.0481  0.3768
  990MOL0     H36609   7.465  10.404   5.974 -2.5036 -0.9390 -0.1781
  990MOL0     H36610   7.400  10.675   6.090  0.3363 -0.1032  0.8172
  990MOL0     H36611   7.450  10.532   6.180 -1.8509  2.5658  1.0773
  990MOL0     H36612   7.190  10.566   6.023  0.3969 -0.8073 -1.3371
  990MOL0     H36613   7.262  10.409   6.093  0.7815  0.2867  2.8932
  990MOL0     H36614   7.212  10.670   6.243  0.2433 -0.4312 -0.2556
  990MOL0     H36615   7.242  10.508   6.312  1.6339 -1.5301 -1.7493
  990MOL0     H36616   6.849  10.431   6.253 -1.1856  1.5397  0.8513
  990MOL0     H36617   7.819  10.617   6.138 -0.2901 -0.4541 -0.0563
  990MOL0     H36618   7.968  10.770   6.197  1.7333  2.1307 -2.0971
  990MOL0     H36619   7.966  10.946   6.189  1.6115  0.1497  1.9535
  990MOL0     H36620   7.874  10.859   6.313 -1.1712 -1.9607 -0.5600
  991MOL0     O36621   2.839   9.227   2.144 -0.3430 -0.0600 -0.3830
  991MOL0     C36622   2.887   9.118   2.175 -0.0402 -0.4677 -0.0777
  991MOL0     O36623   2.927   9.015   2.092  0.1495 -0.5742 -0.0364
  991MOL0     C36624   2.938   9.029   1.958 -0.7197 -0.8043  0.0516
  991MOL0     C36625   2.972   9.146   1.897 -1.5394  0.4964 -0.2313
  991MOL0     C36626   2.996   9.156   1.758 -0.5227  0.8641 -0.4936
  991MOL0     C36627   2.962   9.048   1.676  0.3622 -0.7807 -0.7232
  991MOL0     O36628   2.976   9.044   1.545  0.3458 -0.8695  0.0257
  991MOL0     C36629   2.984   9.170   1.466 -0.0128  0.3228  0.1314
  991MOL0     C36630   3.007   9.134   1.327 -0.6053  0.5141 -0.3993
  991MOL0     C36631   2.881   9.099   1.256  0.2640 -0.2778 -0.7732
  991MOL0     C36632   2.898   9.093   1.105  0.3426  0.2050 -0.8253
  991MOL0     C36633   3.036   9.030   1.065 -0.0281  0.4040 -0.2510
  991MOL0     C36634   3.049   9.019   0.906 -0.3069 -0.5611  0.1763
  991MOL0     C36635   2.957   8.917   0.846 -0.7853 -0.0214  0.1737
  991MOL0     C36636   2.978   8.879   0.701 -1.0780 -0.8503  0.7658
  991MOL0     N36637   2.927   8.748   0.658  0.8838 -0.4673 -0.4700
  991MOL0     C36638   2.823   8.716   0.577  0.4117 -0.6314  0.1844
  991MOL0     C36639   2.817   8.582   0.564 -0.0499  0.6726  0.5894
  991MOL0     C36640   2.727   8.496   0.487  0.8432 -0.6326 -0.7871
  991MOL0     C36641   2.683   8.544   0.346 -0.0480 -0.6997 -0.5834
  991MOL0     C36642   2.807   8.580   0.255  0.6677  0.4600 -0.1315
  991MOL0     C36643   2.769   8.662   0.133  1.0275 -0.3830  0.3888
  991MOL0     O36644   2.790   8.807   0.164 -0.0265 -0.4350 -0.3937
  991MOL0     C36645   2.762   8.882   0.048 -0.5381 -0.7720 -0.8008
  991MOL0     C36646   2.859   8.955  -0.007 -0.8561  0.5917  0.5684
  991MOL0     C36647   2.837   9.041  -0.111  0.0805 -0.1669  0.5892
  991MOL0     C36648   2.963   9.119  -0.161  0.3873  0.2190  0.2799
  991MOL0     C36649   2.704   9.052  -0.160  0.0301  0.1731 -0.0970
  991MOL0     C36650   2.652   9.125  -0.291 -1.5399  0.0992  0.2453
  991MOL0     O36651   2.729   9.236  -0.339  0.1489  0.3227  0.1405
  991MOL0     C36652   2.698   9.329  -0.436 -0.7743 -0.0435 -0.4042
  991MOL0     C36653   2.570   9.355  -0.487 -0.1489  0.0846  1.1473
  991MOL0     C36654   2.534   9.448  -0.583  0.0030 -0.2888 -0.1822
  991MOL0     C36655   2.633   9.514  -0.643  0.0480  0.4972 -0.5546
  991MOL0     O36656   2.598   9.592  -0.756  0.6561  0.2787 -0.1674
  991MOL0     C36657   2.701   9.627  -0.847  0.0469 -0.4868  0.0617
  991MOL0     C36658   2.650   9.683  -0.980  1.1263  0.3069 -1.4121
  991MOL0     C36659   2.753   9.767  -1.046  0.2945  1.0925 -0.7177
  991MOL0     C36660   2.743   9.793  -1.198  0.1096  0.7042  0.2847
  991MOL0     C36661   2.876   9.815  -1.273  0.1893  0.1663  0.2033
  991MOL0     C36662   2.842   9.848  -1.418  1.0009  0.1484  0.1891
  991MOL0     C36663   2.970   9.908  -1.477  0.7293 -0.1483 -0.4401
  991MOL0     C36664   2.936   9.938  -1.629 -0.3282 -1.0760  0.1355
  991MOL0    Cl36665   2.969  10.114  -1.654  0.0778 -0.1299 -0.8332
  991MOL0     C36666   2.766   9.488  -0.601 -0.2724 -0.0777  0.8906
  991MOL0     C36667   2.799   9.404  -0.495 -0.2118 -0.0080  0.7244
  991MOL0     O36668   2.545   9.080  -0.336  0.4307  0.6079 -0.3831
  991MOL0     C36669   2.602   8.985  -0.094 -0.0037 -0.1189  0.4005
  991MOL0     C36670   2.634   8.896   0.006  0.0607 -0.0795 -0.5645
  991MOL0     N36671   2.915   8.533   0.654  0.1698 -0.9155 -0.5684
  991MOL0     N36672   2.984   8.638   0.696  0.6742  0.3349 -0.3467
  991MOL0     C36673   2.920   8.930   1.741  0.4005  0.6823  0.4870
  991MOL0     C36674   2.911   8.919   1.880  0.1746  0.7476 -0.3174
  991MOL0     C36675   2.912   9.104   2.320  0.1261  0.7130 -0.0858
  991MOL0     C36676   2.924   8.971   2.371  0.7356 -0.1917  0.4486
  991MOL0     C36677   2.928   8.953   2.513 -1.0305 -0.9538 -0.2836
  991MOL0     C36678   2.921   9.057   2.608  0.1597  0.0989  0.9108
  991MOL0     O36679   2.912   9.045   2.741 -0.4998 -0.1054  0.3828
  991MOL0     C36680   2.831   8.942   2.805  0.0107 -0.4549 -0.6233
  991MOL0     C36681   2.858   8.947   2.965 -0.1253  0.8289 -0.4830
  991MOL0     C36682   3.005   8.935   3.009  0.6247  0.2854  0.1916
  991MOL0     C36683   3.001   8.931   3.168 -0.6032  0.8261 -0.8701
  991MOL0     C36684   3.141   8.947   3.219  0.2023 -0.9679  0.0990
  991MOL0     C36685   3.257   8.960   3.255 -0.2352 -0.5166 -0.8087
  991MOL0     C36686   2.910   9.182   2.547 -0.0156  0.9176  0.2362
  991MOL0     C36687   2.909   9.203   2.415  0.2592 -0.6113  0.5223
  991MOL0     C36688   2.910   9.350   2.376 -0.1022  0.5709 -0.5054
  991MOL0     H36689   2.980   9.230   1.966 -2.0342 -0.9982  1.7435
  991MOL0     H36690   3.026   9.256   1.729  1.3870  1.2756  2.4625
  991MOL0     H36691   3.078   9.214   1.498  0.7738  1.1826 -2.9974
  991MOL0     H36692   2.895   9.234   1.466 -1.5704 -1.5494 -3.2506
  991MOL0     H36693   3.047   9.218   1.269  2.7779  1.0172  2.3012
  991MOL0     H36694   3.097   9.072   1.319  0.2987  1.1971  2.6540
  991MOL0     H36695   2.844   9.002   1.292  1.3100 -0.5930 -0.4846
  991MOL0     H36696   2.813   9.181   1.280  2.7939  2.5647 -2.5851
  991MOL0     H36697   2.812   9.043   1.058  1.0809 -0.5538 -1.4179
  991MOL0     H36698   2.899   9.199   1.078 -1.2043  0.4187 -0.1121
  991MOL0     H36699   3.048   8.930   1.109  0.3102  0.4077 -0.3366
  991MOL0     H36700   3.115   9.097   1.098 -1.7347  2.1933  0.4264
  991MOL0     H36701   3.028   9.118   0.864  0.4380  0.8767  2.9376
  991MOL0     H36702   3.155   8.999   0.889  0.2206 -0.2336  2.6832
  991MOL0     H36703   2.852   8.940   0.865 -0.2390  1.1487  2.1150
  991MOL0     H36704   2.981   8.822   0.894  0.3064  0.2311  0.1746
  991MOL0     H36705   2.941   8.961   0.638 -1.3045 -1.4316  0.1291
  991MOL0     H36706   3.084   8.884   0.675 -1.7884 -0.4763 -2.5353
  991MOL0     H36707   2.766   8.795   0.528  1.8001 -1.0232 -2.2015
  991MOL0     H36708   2.631   8.481   0.538  1.6388 -2.6230  0.2600
  991MOL0     H36709   2.774   8.397   0.489  0.8455 -0.6701  2.0201
  991MOL0     H36710   2.621   8.469   0.296  1.0132 -1.2291 -1.1321
  991MOL0     H36711   2.629   8.637   0.368  0.2880 -0.5652 -0.3206
  991MOL0     H36712   2.881   8.629   0.318  3.2108 -2.9908 -0.1468
  991MOL0     H36713   2.844   8.484   0.218 -1.3202  0.5968 -2.8250
  991MOL0     H36714   2.829   8.664   0.042 -1.8691 -1.1453 -1.6955
  991MOL0     H36715   2.667   8.632   0.105  2.3767 -2.9311 -2.2718
  991MOL0     H36716   2.961   8.929   0.017 -1.1325 -0.8843  0.1921
  991MOL0     H36717   2.947   9.225  -0.142  1.8868  0.3781  0.8441
  991MOL0     H36718   2.984   9.104  -0.267 -1.0744  1.6669 -0.2455
  991MOL0     H36719   3.050   9.094  -0.099 -1.4469  0.3197  3.0813
  991MOL0     H36720   2.483   9.299  -0.456 -0.5839 -0.6366 -1.2414
  991MOL0     H36721   2.433   9.446  -0.623  0.2923 -1.7622 -0.9075
  991MOL0     H36722   2.769   9.690  -0.789 -0.4164 -0.6782  0.8379
  991MOL0     H36723   2.756   9.534  -0.863 -0.4241 -0.4734 -1.8012
  991MOL0     H36724   2.621   9.604  -1.050  1.5108  0.1686 -1.4191
  991MOL0     H36725   2.568   9.746  -0.945  1.5869 -0.4998  1.3454
  991MOL0     H36726   2.849   9.714  -1.044  0.5824  1.6323  0.4754
  991MOL0     H36727   2.777   9.855  -0.985 -2.1687  0.1532  1.7902
  991MOL0     H36728   2.697   9.892  -1.201 -0.1649  0.6290  1.3393
  991MOL0     H36729   2.674   9.725  -1.249 -0.0370 -2.2620  3.9732
  991MOL0     H36730   2.923   9.897  -1.218 -1.5706  1.9513 -0.8064
  991MOL0     H36731   2.947   9.732  -1.269  1.8749  1.5968  0.8576
  991MOL0     H36732   2.750   9.907  -1.421 -1.3816 -3.2746  0.2875
  991MOL0     H36733   2.824   9.756  -1.475 -0.5956 -1.3673  2.9243
  991MOL0     H36734   3.048   9.835  -1.453 -0.7270 -1.6581 -0.1003
  991MOL0     H36735   2.993  10.003  -1.429  0.9747 -0.0044 -0.8338
  991MOL0     H36736   2.828   9.927  -1.637 -0.4926 -0.2704  1.1305
  991MOL0     H36737   2.988   9.882  -1.708  1.0483  0.1404  0.1274
  991MOL0     H36738   2.853   9.528  -0.651  0.3571  0.7802  2.5907
  991MOL0     H36739   2.906   9.391  -0.482  0.4642  0.9706 -2.8473
  991MOL0     H36740   2.499   9.002  -0.125  0.3906  0.9563 -0.4035
  991MOL0     H36741   2.554   8.839   0.052 -0.6276 -0.5965 -2.3547
  991MOL0     H36742   2.900   8.839   1.684  0.6952  1.5480 -1.0613
  991MOL0     H36743   2.884   8.827   1.931 -0.9608  1.6519  0.7509
  991MOL0     H36744   2.912   8.886   2.304 -0.4530  0.7529 -0.5990
  991MOL0     H36745   2.932   8.846   2.534 -2.4169 -1.0827 -0.5730
  991MOL0     H36746   2.729   8.981   2.798  0.2493  1.4097  3.5032
  991MOL0     H36747   2.841   8.840   2.768  0.8566 -1.1170  1.3090
  991MOL0     H36748   2.808   8.867   3.020  3.6848 -1.0856  0.5258
  991MOL0     H36749   2.817   9.042   3.000 -0.3157  0.0898  1.4088
  991MOL0     H36750   3.050   8.846   2.964  1.9548  0.9469  0.1623
  991MOL0     H36751   3.056   9.024   2.971 -0.6549 -0.2879 -3.1587
  991MOL0     H36752   2.959   8.836   3.201  0.7918 -0.2125 -1.9699
  991MOL0     H36753   2.938   9.013   3.205 -1.3127 -0.3056  0.5340
  991MOL0     H36754   3.362   8.969   3.275 -0.2635  0.7370 -1.1175
  991MOL0     H36755   2.906   9.274   2.605 -2.2835  1.0671 -0.0797
  991MOL0     H36756   2.944   9.405   2.465 -0.2355 -1.7882  1.1197
  991MOL0     H36757   2.980   9.362   2.293  3.0070 -4.2077  1.0247
  991MOL0     H36758   2.809   9.383   2.350 -0.2540 -1.8445 -3.5154
  992MOL0     O36759  10.208   3.333   1.486  0.1741 -0.0880  0.2374
  992MOL0     C36760  10.292   3.247   1.454  0.2477 -0.1116 -0.4872
  992MOL0     O36761  10.421   3.258   1.486 -0.5889  0.5878  0.7066
  992MOL0     C36762  10.483   3.362   1.543 -0.6112  0.7238 -0.3099
  992MOL0     C36763  10.605   3.323   1.589  0.2486 -0.1672  0.7772
  992MOL0     C36764  10.703   3.416   1.629 -1.0160  1.0348  0.2542
  992MOL0     C36765  10.667   3.548   1.647  0.1866 -0.6006  0.0588
  992MOL0     O36766  10.750   3.637   1.707 -0.7184 -0.7099  0.3443
  992MOL0     C36767  10.896   3.628   1.697  0.1711  0.3427  0.7631
  992MOL0     C36768  10.979   3.730   1.769 -0.4211  0.3231 -0.2162
  992MOL0     C36769  10.956   3.875   1.703 -0.1549 -0.0945  0.7543
  992MOL0     C36770  10.817   3.940   1.734 -0.1271  0.1796  0.2695
  992MOL0     C36771  10.791   4.091   1.690 -0.1095 -0.6852 -0.4571
  992MOL0     C36772  10.701   4.158   1.803  0.4148 -0.1491 -0.1682
  992MOL0     C36773  10.629   4.286   1.763  0.9563  0.0385  0.4384
  992MOL0     C36774  10.571   4.365   1.881  0.6283 -0.9639  0.4077
  992MOL0     N36775  10.517   4.493   1.845  0.2766  0.3061  0.0584
  992MOL0     C36776  10.397   4.510   1.783  0.0840  0.3738 -0.1059
  992MOL0     C36777  10.378   4.647   1.774 -0.2087 -0.3581  0.4504
  992MOL0     C36778  10.262   4.707   1.707  0.0237 -0.0077 -0.1443
  992MOL0     C36779  10.137   4.673   1.792 -0.3278 -0.1195  0.3632
  992MOL0     C36780  10.004   4.683   1.704  1.1633  1.2193 -0.6835
  992MOL0     C36781   9.889   4.617   1.784 -0.3219 -0.0324  0.4635
  992MOL0     O36782   9.860   4.686   1.905  0.9529 -1.1725 -0.3295
  992MOL0     C36783   9.741   4.771   1.911 -0.0977  0.0649  0.5321
  992MOL0     C36784   9.718   4.839   2.029  0.6032  0.0419 -0.2405
  992MOL0     C36785   9.613   4.918   2.061  0.3717 -0.3085 -0.1975
  992MOL0     C36786   9.595   4.977   2.203 -0.5030 -0.2240  0.0265
  992MOL0     C36787   9.525   4.956   1.955  0.2745 -0.5306  0.6669
  992MOL0     C36788   9.423   5.072   1.967  0.1112  0.5811  0.3213
  992MOL0     O36789   9.346   5.071   2.082 -0.5380  0.4233  0.4660
  992MOL0     C36790   9.251   5.164   2.121  0.8441  0.1336 -0.1046
  992MOL0     C36791   9.214   5.164   2.261 -1.5439  0.5202  0.6612
  992MOL0     C36792   9.108   5.247   2.308  0.0080  0.1724  0.0070
  992MOL0     C36793   9.048   5.338   2.222 -0.0385  0.4013 -1.2728
  992MOL0     O36794   8.953   5.433   2.270  0.0047  0.7902  0.4718
  992MOL0     C36795   8.940   5.496   2.409  0.2579 -0.3393 -0.6856
  992MOL0     C36796   8.800   5.465   2.465 -0.0775  0.0043 -0.0604
  992MOL0     C36797   8.781   5.314   2.467 -0.0470  0.5780 -0.2735
  992MOL0     C36798   8.653   5.288   2.540  0.9744 -0.5785 -0.0856
  992MOL0     C36799   8.634   5.137   2.558 -1.2844  0.4341  0.3974
  992MOL0     C36800   8.524   5.114   2.659  0.6255  2.4652 -0.0031
  992MOL0     C36801   8.476   4.964   2.680 -1.4530 -0.2588  1.0165
  992MOL0     C36802   8.382   4.942   2.791  0.5792  0.0345 -0.2175
  992MOL0    Cl36803   8.224   5.009   2.762 -0.0881  0.3008 -0.5217
  992MOL0     C36804   9.079   5.337   2.090 -0.5705 -0.5589  0.2974
  992MOL0     C36805   9.178   5.254   2.041 -1.4852 -0.0201 -0.6570
  992MOL0     O36806   9.439   5.166   1.895  0.2935 -0.2863 -0.0660
  992MOL0     C36807   9.547   4.897   1.835 -0.2012 -0.1201  0.3808
  992MOL0     C36808   9.650   4.803   1.813 -0.0265 -0.5128  0.4554
  992MOL0     N36809  10.496   4.704   1.827  0.2383 -0.5356 -0.0444
  992MOL0     N36810  10.575   4.612   1.867 -0.0822 -0.5926  0.4929
  992MOL0     C36811  10.540   3.592   1.613 -0.2769 -0.4221  0.5701
  992MOL0     C36812  10.445   3.495   1.576  1.0906 -0.4080  0.0206
  992MOL0     C36813  10.250   3.119   1.391  0.2064 -0.4008 -0.3217
  992MOL0     C36814  10.355   3.041   1.339  0.2196 -0.0828  0.1937
  992MOL0     C36815  10.328   2.912   1.294 -0.6724 -0.4262  0.1681
  992MOL0     C36816  10.199   2.856   1.285 -0.2408  0.1978 -0.5284
  992MOL0     O36817  10.162   2.726   1.251  0.0520 -0.4444  0.0648
  992MOL0     C36818  10.261   2.635   1.197  0.5168 -0.7831 -0.4858
  992MOL0     C36819  10.305   2.688   1.066  0.2058 -0.0072 -1.1142
  992MOL0     C36820  10.356   2.576   0.983  0.1225  0.8511  0.0356
  992MOL0     C36821  10.472   2.486   1.046 -0.0186 -0.0966 -0.5002
  992MOL0     C36822  10.484   2.357   0.980 -0.0777 -0.0045  1.2448
  992MOL0     C36823  10.489   2.267   0.899 -0.4357 -0.3333  0.3081
  992MOL0     C36824  10.098   2.938   1.334 -0.6488 -0.4555 -0.4394
  992MOL0     C36825  10.119   3.070   1.387 -0.1450 -0.2663 -0.4364
  992MOL0     C36826   9.990   3.148   1.412 -0.6037  0.5550  0.2989
  992MOL0     H36827  10.639   3.220   1.583  1.9814  0.4037  0.3061
  992MOL0     H36828  10.802   3.376   1.647 -2.5548 -3.2329  0.6283
  992MOL0     H36829  10.919   3.630   1.590  2.6641 -1.3940  1.1623
  992MOL0     H36830  10.939   3.538   1.742 -1.8002 -1.3805 -0.6410
  992MOL0     H36831  10.946   3.752   1.871  0.6134  1.2917 -0.0703
  992MOL0     H36832  11.086   3.709   1.774 -0.1769  1.6653  1.0036
  992MOL0     H36833  11.037   3.942   1.735  0.3741 -0.9058  1.1449
  992MOL0     H36834  10.969   3.870   1.594 -1.2744  1.8957  0.4712
  992MOL0     H36835  10.737   3.878   1.692  1.2125 -0.5611 -1.3084
  992MOL0     H36836  10.793   3.926   1.840 -0.3685 -2.0977 -0.0351
  992MOL0     H36837  10.747   4.092   1.589  2.0400  0.5165 -1.4462
  992MOL0     H36838  10.878   4.154   1.672 -0.3907 -0.0156  0.4665
  992MOL0     H36839  10.626   4.083   1.827  2.0524 -0.8597  3.3590
  992MOL0     H36840  10.750   4.179   1.898 -1.8846 -3.6928  2.0370
  992MOL0     H36841  10.553   4.255   1.690 -0.7619 -0.0927  2.2033
  992MOL0     H36842  10.681   4.351   1.692 -0.9129  1.4395  0.2617
  992MOL0     H36843  10.491   4.310   1.932 -1.7734  1.5206 -0.3957
  992MOL0     H36844  10.641   4.375   1.964  0.0781 -1.7592  0.9779
  992MOL0     H36845  10.333   4.431   1.745  2.6340 -2.2019  0.5657
  992MOL0     H36846  10.249   4.684   1.601  0.1674  0.7046 -0.3245
  992MOL0     H36847  10.273   4.816   1.715 -1.3501  0.0595  1.3658
  992MOL0     H36848  10.145   4.569   1.827  2.0155  0.2157  1.0028
  992MOL0     H36849  10.132   4.738   1.880 -0.5515 -0.4554  0.6026
  992MOL0     H36850   9.984   4.789   1.688  0.7075  1.3927  0.9322
  992MOL0     H36851  10.014   4.638   1.605 -1.5487  2.3363 -1.5431
  992MOL0     H36852   9.801   4.611   1.719 -0.6237  2.9691  0.4640
  992MOL0     H36853   9.924   4.519   1.819 -0.8640 -0.2112  0.5175
  992MOL0     H36854   9.785   4.817   2.110 -2.4946 -1.1674  2.2094
  992MOL0     H36855   9.500   4.937   2.240 -2.5135  1.4174 -2.8482
  992MOL0     H36856   9.591   5.086   2.195 -0.7076 -0.3113 -1.4747
  992MOL0     H36857   9.675   4.946   2.270 -0.4350  1.6227  0.8472
  992MOL0     H36858   9.260   5.090   2.326  0.8017  0.7617 -0.6039
  992MOL0     H36859   9.086   5.227   2.412  1.1769  2.3233  0.7090
  992MOL0     H36860   9.024   5.464   2.471  0.0596 -2.0769 -1.2381
  992MOL0     H36861   8.962   5.602   2.395  1.5502 -0.4510  0.2830
  992MOL0     H36862   8.791   5.499   2.568  1.2268  2.3469 -0.6503
  992MOL0     H36863   8.718   5.515   2.412  0.9389  2.0319  0.1739
  992MOL0     H36864   8.873   5.273   2.510 -0.4043  0.2090  0.1436
  992MOL0     H36865   8.777   5.274   2.365 -0.6164 -1.2692  0.4287
  992MOL0     H36866   8.572   5.333   2.481  1.8193  1.3640  0.1487
  992MOL0     H36867   8.663   5.343   2.634  1.7083  1.6535 -1.3854
  992MOL0     H36868   8.599   5.092   2.464 -1.4572 -0.0466  0.6881
  992MOL0     H36869   8.730   5.090   2.580 -1.3160 -1.2049 -2.3663
  992MOL0     H36870   8.432   5.154   2.617 -0.2989  1.5376  1.0598
  992MOL0     H36871   8.547   5.160   2.756  1.0860 -1.4342  1.9923
  992MOL0     H36872   8.562   4.901   2.706 -0.8799 -2.7535 -5.2569
  992MOL0     H36873   8.433   4.918   2.591  3.4151 -1.8946 -0.8419
  992MOL0     H36874   8.395   4.994   2.886 -0.6812  2.0482 -1.0719
  992MOL0     H36875   8.380   4.833   2.798  3.7185 -0.1908 -1.2708
  992MOL0     H36876   9.027   5.400   2.018 -1.1456 -1.7344 -0.3378
  992MOL0     H36877   9.211   5.254   1.937 -1.9461  0.8582 -0.8147
  992MOL0     H36878   9.484   4.913   1.748  0.6762  0.1178 -0.2323
  992MOL0     H36879   9.655   4.766   1.711  1.8139 -1.4881  0.8596
  992MOL0     H36880  10.503   3.694   1.617  0.4775  0.0156 -1.9109
  992MOL0     H36881  10.339   3.510   1.560  1.0372 -1.1676 -0.4128
  992MOL0     H36882  10.458   3.073   1.332 -0.1440  1.5410  1.6942
  992MOL0     H36883  10.415   2.865   1.250  0.3425  0.3178  1.2993
  992MOL0     H36884  10.344   2.621   1.267 -0.2690  0.6752  0.7948
  992MOL0     H36885  10.218   2.535   1.194  0.6585 -0.9521  1.5576
  992MOL0     H36886  10.386   2.760   1.082  1.9361 -2.1368  0.2467
  992MOL0     H36887  10.221   2.738   1.015  0.8568  0.6667 -1.5597
  992MOL0     H36888  10.271   2.516   0.947 -0.5549  0.6254  1.8899
  992MOL0     H36889  10.393   2.628   0.894 -1.2368  1.6113 -0.1111
  992MOL0     H36890  10.451   2.473   1.153  0.8874 -0.0432 -0.3080
  992MOL0     H36891  10.568   2.538   1.042  0.9034 -1.7861 -1.8627
  992MOL0     H36892  10.501   2.191   0.824 -0.8865  1.3022 -1.5097
  992MOL0     H36893   9.994   2.907   1.330 -1.0665  0.8009  0.0636
  992MOL0     H36894   9.900   3.086   1.407 -0.2211  0.0689 -3.2339
  992MOL0     H36895  10.003   3.183   1.515 -1.2874  1.5406  0.0668
  992MOL0     H36896   9.990   3.235   1.345 -0.9899  1.1945  1.1122
  993MOL0     O36897   1.222   1.714   1.932 -0.3729  0.2873 -0.2548
  993MOL0     C36898   1.226   1.595   1.890  0.1603  0.4723  0.1087
  993MOL0     O36899   1.344   1.539   1.846 -0.1491  0.5445  0.2829
  993MOL0     C36900   1.444   1.620   1.808 -0.0479  1.1892  0.5059
  993MOL0     C36901   1.572   1.594   1.847 -0.6033 -0.5601  0.1805
  993MOL0     C36902   1.675   1.679   1.802 -0.0636  0.1045 -0.8041
  993MOL0     C36903   1.645   1.787   1.721  0.4013  0.4031  0.3038
  993MOL0     O36904   1.726   1.880   1.655 -0.3485  0.1502  0.2074
  993MOL0     C36905   1.864   1.842   1.643 -0.0862 -0.2971  0.3137
  993MOL0     C36906   1.949   1.906   1.755 -0.7033 -0.2956  0.4022
  993MOL0     C36907   1.908   2.047   1.773 -0.4568  0.1424 -0.1056
  993MOL0     C36908   2.006   2.125   1.856 -0.2665  0.3033 -0.6471
  993MOL0     C36909   2.118   2.165   1.770 -0.1084  0.4179 -0.1502
  993MOL0     C36910   2.198   2.271   1.844 -0.0684 -0.2417 -0.0972
  993MOL0     C36911   2.304   2.346   1.767  0.9480 -0.0348 -0.0052
  993MOL0     C36912   2.336   2.496   1.796  0.2219  0.2320 -0.7097
  993MOL0     N36913   2.214   2.577   1.795  0.6078  0.0625 -0.1640
  993MOL0     C36914   2.119   2.586   1.697 -0.4668  0.3935  0.3687
  993MOL0     C36915   2.024   2.671   1.737 -0.0300 -1.2861  0.6829
  993MOL0     C36916   1.905   2.728   1.660 -0.0227  0.2649 -0.6232
  993MOL0     C36917   1.946   2.783   1.526  1.3522 -0.0839  0.0303
  993MOL0     C36918   1.815   2.800   1.441 -0.3908  1.0714 -0.0425
  993MOL0     C36919   1.838   2.839   1.295 -0.4525 -0.2381  0.0021
  993MOL0     O36920   1.708   2.844   1.240 -0.4496  0.1480 -0.4268
  993MOL0     C36921   1.708   2.884   1.106  0.5275  0.2226 -0.4738
  993MOL0     C36922   1.606   2.824   1.047 -0.1733  0.6713  0.5975
  993MOL0     C36923   1.585   2.833   0.899  0.3915  0.9336  0.1480
  993MOL0     C36924   1.448   2.791   0.853 -0.2033 -0.1651  0.1150
  993MOL0     C36925   1.684   2.892   0.814  0.6344 -1.4022 -0.0719
  993MOL0     C36926   1.675   2.916   0.665  0.3487 -0.3407 -0.4250
  993MOL0     O36927   1.550   2.904   0.602  0.4329  0.3338  0.1912
  993MOL0     C36928   1.554   2.916   0.465 -0.2252  0.1178  0.1031
  993MOL0     C36929   1.569   2.804   0.390 -0.6402  0.6822  1.3449
  993MOL0     C36930   1.563   2.799   0.249 -0.8443  0.4097 -0.5177
  993MOL0     C36931   1.538   2.912   0.179 -0.3617 -1.2237 -0.4006
  993MOL0     O36932   1.554   2.919   0.042  1.2664  0.4199  0.0155
  993MOL0     C36933   1.625   3.021  -0.025  0.9010  0.1446 -0.1491
  993MOL0     C36934   1.520   3.125  -0.068  0.7151 -0.5617 -0.0300
  993MOL0     C36935   1.394   3.054  -0.131  0.2251  0.6397 -0.1262
  993MOL0     C36936   1.300   3.160  -0.201  0.3293  0.5558  0.3063
  993MOL0     C36937   1.159   3.112  -0.190  0.3768 -0.0713  0.4283
  993MOL0     C36938   1.057   3.194  -0.266 -0.0919  0.1073  0.0929
  993MOL0     C36939   1.047   3.341  -0.217  0.3357  0.0513 -0.8133
  993MOL0     C36940   0.957   3.411  -0.319 -0.6522 -0.6636  0.3110
  993MOL0    Cl36941   0.792   3.379  -0.282 -0.3356 -0.0062  0.0732
  993MOL0     C36942   1.506   3.032   0.248  0.1590  0.1054  0.1804
  993MOL0     C36943   1.520   3.034   0.389 -0.8574  0.1934  0.6218
  993MOL0     O36944   1.786   2.922   0.606  1.0883 -0.2046 -0.2133
  993MOL0     C36945   1.784   2.963   0.886 -0.6725  0.2850 -0.2572
  993MOL0     C36946   1.801   2.962   1.029 -0.5216 -0.2976 -0.4708
  993MOL0     N36947   2.059   2.695   1.865 -0.0139  0.1115 -0.3338
  993MOL0     N36948   2.170   2.634   1.906 -0.2032  0.3313  0.4464
  993MOL0     C36949   1.512   1.815   1.694 -0.1574  0.4437 -0.2697
  993MOL0     C36950   1.413   1.734   1.734 -0.1234  0.2775  0.3841
  993MOL0     C36951   1.109   1.501   1.903 -0.3768  1.5950 -0.3334
  993MOL0     C36952   1.123   1.374   1.844 -0.0214  0.5133 -0.4485
  993MOL0     C36953   1.016   1.284   1.845  0.3436 -0.0712 -0.4019
  993MOL0     C36954   0.902   1.306   1.921  0.2168  0.1571  0.3633
  993MOL0     O36955   0.805   1.216   1.947 -0.1375  0.0148 -1.0397
  993MOL0     C36956   0.832   1.077   1.925  0.0537  0.1813  0.2736
  993MOL0     C36957   0.806   1.022   1.787  0.7067 -0.4416  0.3257
  993MOL0     C36958   0.665   1.064   1.735 -0.6508  0.5356  0.1106
  993MOL0     C36959   0.551   0.964   1.785  0.4408 -0.2914  0.2211
  993MOL0     C36960   0.542   0.841   1.714 -0.5437  0.0384  0.2945
  993MOL0     C36961   0.519   0.737   1.659  0.1035 -1.6545  0.4241
  993MOL0     C36962   0.895   1.425   1.985 -0.1127  0.1857 -0.5680
  993MOL0     C36963   0.992   1.525   1.979 -0.1344 -0.6197  0.3693
  993MOL0     C36964   0.964   1.655   2.051 -0.5364 -0.0294  0.9910
  993MOL0     H36965   1.609   1.507   1.901  0.7468 -0.7840 -1.0088
  993MOL0     H36966   1.778   1.679   1.838 -0.5902 -1.1108  0.8615
  993MOL0     H36967   1.896   1.888   1.549  3.3991 -0.7796  1.1131
  993MOL0     H36968   1.883   1.734   1.632 -3.5606 -1.0378  0.4300
  993MOL0     H36969   1.935   1.848   1.846 -0.6474  0.1411  0.6899
  993MOL0     H36970   2.051   1.900   1.716 -1.9765  0.3591 -3.5657
  993MOL0     H36971   1.897   2.104   1.681 -3.9421 -0.9525 -0.4974
  993MOL0     H36972   1.812   2.054   1.825 -1.1036  3.1171 -1.4905
  993MOL0     H36973   1.958   2.210   1.905 -1.5661 -0.6401 -0.2042
  993MOL0     H36974   2.041   2.057   1.935 -1.7235  0.3338  0.0682
  993MOL0     H36975   2.077   2.213   1.681 -3.0593  1.4102  1.6165
  993MOL0     H36976   2.178   2.080   1.736  1.4648 -0.4446  4.1954
  993MOL0     H36977   2.123   2.345   1.870 -0.8763 -0.4611 -1.6508
  993MOL0     H36978   2.237   2.225   1.935 -1.7092 -3.5105 -0.8794
  993MOL0     H36979   2.265   2.342   1.665 -0.5702 -1.2499  0.5927
  993MOL0     H36980   2.403   2.299   1.770  2.1787  2.2764 -1.3413
  993MOL0     H36981   2.383   2.510   1.894 -2.1762 -0.1782  0.5693
  993MOL0     H36982   2.404   2.536   1.720 -0.9338  1.2195 -1.2508
  993MOL0     H36983   2.118   2.566   1.591 -0.5352  1.5992  0.1172
  993MOL0     H36984   1.872   2.810   1.724 -0.3413 -0.9437  0.7990
  993MOL0     H36985   1.822   2.657   1.670 -2.5722  3.2449  1.3139
  993MOL0     H36986   1.990   2.882   1.541  0.3309  0.3272  0.4058
  993MOL0     H36987   2.014   2.720   1.469 -0.9435  0.2900 -3.4126
  993MOL0     H36988   1.756   2.708   1.449  1.4396 -0.0750  1.0534
  993MOL0     H36989   1.756   2.881   1.485 -1.7279 -0.0838  0.3795
  993MOL0     H36990   1.872   2.943   1.304 -2.3212  0.3073  1.3290
  993MOL0     H36991   1.902   2.768   1.242  0.4857  0.3887  0.2613
  993MOL0     H36992   1.534   2.772   1.108 -1.1275  0.8922 -0.3152
  993MOL0     H36993   1.398   2.881   0.817  1.8434  0.9955  0.0220
  993MOL0     H36994   1.390   2.756   0.938  0.1638 -0.7024  0.1473
  993MOL0     H36995   1.447   2.710   0.780  1.4169  0.1320 -0.2776
  993MOL0     H36996   1.590   2.709   0.438 -0.0914 -2.4596 -4.2937
  993MOL0     H36997   1.601   2.714   0.194  0.4692  0.7536 -0.1622
  993MOL0     H36998   1.695   3.079   0.035 -0.4177  0.5256  1.0770
  993MOL0     H36999   1.662   2.966  -0.112 -3.6098 -3.0868 -0.3731
  993MOL0     H37000   1.494   3.206   0.001  0.3596 -0.5101 -0.2239
  993MOL0     H37001   1.567   3.179  -0.151  1.9678 -1.2592  0.2024
  993MOL0     H37002   1.339   3.004  -0.051  1.2117  0.5626  0.5167
  993MOL0     H37003   1.426   2.976  -0.201  1.2772 -0.3445  1.3869
  993MOL0     H37004   1.313   3.177  -0.308 -4.6595  0.5548 -0.5198
  993MOL0     H37005   1.314   3.254  -0.147 -0.3120  1.4601 -1.0550
  993MOL0     H37006   1.163   3.013  -0.236  0.8905  0.5722 -0.9770
  993MOL0     H37007   1.142   3.105  -0.082 -0.8940 -2.2763  0.1460
  993MOL0     H37008   0.959   3.146  -0.260 -0.3204  0.5335 -0.2102
  993MOL0     H37009   1.083   3.207  -0.371 -1.2441 -0.8339 -0.3246
  993MOL0     H37010   1.148   3.383  -0.219  0.4863 -0.3350 -1.7865
  993MOL0     H37011   1.010   3.344  -0.114  5.5690 -1.4318  1.4556
  993MOL0     H37012   0.960   3.386  -0.425 -3.1196 -1.8930  0.4751
  993MOL0     H37013   0.961   3.520  -0.307 -2.8705 -0.5193  0.2047
  993MOL0     H37014   1.478   3.126   0.202 -2.5570  0.7024  2.7562
  993MOL0     H37015   1.485   3.121   0.443 -2.7886 -0.0998 -0.0957
  993MOL0     H37016   1.847   3.031   0.830  0.3975 -0.7805 -0.3787
  993MOL0     H37017   1.887   3.006   1.079 -0.3647 -0.3069 -0.7301
  993MOL0     H37018   1.489   1.901   1.633  0.8795  1.7611  1.1248
  993MOL0     H37019   1.310   1.749   1.707  0.3286  0.9448 -1.0298
  993MOL0     H37020   1.210   1.340   1.787  0.9909  1.6627  0.3532
  993MOL0     H37021   1.035   1.187   1.801 -2.4681 -1.0965  0.4287
  993MOL0     H37022   0.930   1.041   1.959 -0.8244 -2.2608  0.4233
  993MOL0     H37023   0.763   1.021   1.989  1.0559  0.5114  1.7221
  993MOL0     H37024   0.810   0.913   1.796 -0.4865 -0.5028  0.3395
  993MOL0     H37025   0.888   1.049   1.720 -0.0765  1.3284  0.0332
  993MOL0     H37026   0.643   1.160   1.783 -0.9330  0.6644 -0.2738
  993MOL0     H37027   0.658   1.069   1.626 -3.0194  2.0972  0.2627
  993MOL0     H37028   0.453   1.012   1.776 -0.6208 -2.1174  1.4736
  993MOL0     H37029   0.573   0.949   1.891  2.1118  2.4078  0.3687
  993MOL0     H37030   0.515   0.648   1.599 -1.1905 -0.9508 -0.5898
  993MOL0     H37031   0.800   1.433   2.036 -0.1323  0.3655 -0.6317
  993MOL0     H37032   1.019   1.667   2.145 -3.3466  2.5445  2.4591
  993MOL0     H37033   0.978   1.742   1.987 -1.2072  0.5224  1.5823
  993MOL0     H37034   0.862   1.653   2.090 -0.4301  2.0548  1.4968
  994MOL0     O37035   1.678   8.886   8.242  0.6465 -0.6105 -0.4987
  994MOL0     C37036   1.769   8.946   8.195  0.1549 -0.4228  0.8139
  994MOL0     O37037   1.870   8.889   8.122  0.3302  0.1047 -0.2996
  994MOL0     C37038   1.879   8.750   8.125  1.0887  0.4741  0.1682
  994MOL0     C37039   1.833   8.666   8.024  0.8499  0.1324 -0.1064
  994MOL0     C37040   1.842   8.528   8.040 -0.7293 -0.4891 -0.0636
  994MOL0     C37041   1.913   8.470   8.151  0.6720 -0.0768 -0.3918
  994MOL0     O37042   1.943   8.334   8.165  0.4681  0.6197  0.0688
  994MOL0     C37043   1.882   8.244   8.076 -0.0307 -0.3523  0.5908
  994MOL0     C37044   1.885   8.099   8.117 -0.0117 -0.7111  0.1200
  994MOL0     C37045   2.013   8.035   8.067 -0.0939  0.4461  0.0344
  994MOL0     C37046   1.989   7.882   8.081 -0.6987  0.6302  0.3045
  994MOL0     C37047   2.126   7.800   8.085 -1.4363  0.0917  0.4294
  994MOL0     C37048   2.098   7.651   8.117 -0.3900  0.2852  0.4006
  994MOL0     C37049   2.222   7.561   8.113 -0.4065  0.1506 -0.1999
  994MOL0     C37050   2.208   7.423   8.172  0.0490 -0.0505 -0.5950
  994MOL0     N37051   2.230   7.418   8.318 -0.1056 -0.5051  0.2399
  994MOL0     C37052   2.132   7.439   8.416 -0.2497  0.4942  0.2995
  994MOL0     C37053   2.190   7.382   8.524  0.1245  0.5721 -0.1202
  994MOL0     C37054   2.120   7.387   8.658  0.2931  0.6676 -0.5763
  994MOL0     C37055   2.090   7.236   8.714  0.6631 -0.0182  0.4660
  994MOL0     C37056   1.983   7.245   8.829  0.0780 -0.0745  0.7409
  994MOL0     C37057   1.841   7.261   8.783 -0.4558 -0.7499 -0.0695
  994MOL0     O37058   1.761   7.266   8.899  0.4993 -1.2748 -1.0435
  994MOL0     C37059   1.690   7.156   8.925 -0.1399 -0.4072  1.3596
  994MOL0     C37060   1.687   7.124   9.060  0.1524 -0.5914 -0.5014
  994MOL0     C37061   1.615   7.013   9.109  1.1638  0.1737  0.3624
  994MOL0     C37062   1.626   6.989   9.257  0.1096 -0.5311  0.1293
  994MOL0     C37063   1.535   6.938   9.023 -0.9110  0.3109 -0.4367
  994MOL0     C37064   1.461   6.813   9.059 -0.6893 -0.4085  0.1492
  994MOL0     O37065   1.335   6.812   9.013  0.1756  0.0305 -0.1960
  994MOL0     C37066   1.247   6.720   9.061  0.9013 -0.7578  0.7477
  994MOL0     C37067   1.112   6.761   9.062 -0.0846  0.2076 -0.9268
  994MOL0     C37068   1.018   6.683   9.121 -0.9128  0.1456  0.7487
  994MOL0     C37069   1.055   6.566   9.181  0.6995  1.4380 -0.8491
  994MOL0     O37070   0.952   6.500   9.244  0.3437  0.3031  0.6511
  994MOL0     C37071   0.965   6.431   9.364 -0.5359 -0.0583 -0.2291
  994MOL0     C37072   0.901   6.297   9.357  0.7096  0.1908  0.5544
  994MOL0     C37073   0.923   6.225   9.493 -0.8975  0.3259  0.3622
  994MOL0     C37074   1.057   6.144   9.499 -0.0110  0.9965 -0.5821
  994MOL0     C37075   1.080   6.087   9.646 -0.3729 -0.1290  0.6097
  994MOL0     C37076   1.208   5.997   9.639 -0.2653 -0.8496  0.7334
  994MOL0     C37077   1.239   5.939   9.778  0.5124  0.8774 -0.7943
  994MOL0     C37078   1.143   5.817   9.801 -0.1921 -0.5344  0.1030
  994MOL0    Cl37079   1.192   5.665   9.715 -0.0029 -0.0474 -0.1290
  994MOL0     C37080   1.187   6.520   9.176  0.5311 -0.2893 -0.2521
  994MOL0     C37081   1.280   6.597   9.112 -0.4528  0.6381 -0.2795
  994MOL0     O37082   1.514   6.731   9.128 -0.1342 -0.1171  0.2169
  994MOL0     C37083   1.541   6.970   8.884  0.0437 -0.4694  0.4486
  994MOL0     C37084   1.610   7.089   8.836 -0.0285  0.6047  0.4873
  994MOL0     N37085   2.311   7.328   8.488 -0.1149  0.1713  0.2700
  994MOL0     N37086   2.330   7.351   8.366 -0.6766  0.3637  0.3156
  994MOL0     C37087   1.956   8.560   8.243 -0.1353  0.0473 -0.2625
  994MOL0     C37088   1.951   8.702   8.231  0.1388 -0.5034 -0.4479
  994MOL0     C37089   1.763   9.088   8.224  0.1855 -0.5935  0.7408
  994MOL0     C37090   1.652   9.168   8.185  0.2311 -0.5278  0.1947
  994MOL0     C37091   1.655   9.311   8.194 -0.1511  0.5649  0.2349
  994MOL0     C37092   1.760   9.376   8.268 -0.4464  0.2514 -0.0715
  994MOL0     O37093   1.757   9.507   8.289  0.0144  1.0431 -0.0051
  994MOL0     C37094   1.643   9.583   8.259  0.2575  0.1980  0.0963
  994MOL0     C37095   1.659   9.724   8.298  0.2695  0.3600 -0.0284
  994MOL0     C37096   1.550   9.816   8.235 -0.0359  1.1049  0.3158
  994MOL0     C37097   1.554   9.865   8.084 -0.0859 -0.1146 -0.2007
  994MOL0     C37098   1.525   9.773   7.979  0.4580  0.7285  0.7709
  994MOL0     C37099   1.494   9.694   7.893  1.2216 -0.0649 -0.2608
  994MOL0     C37100   1.865   9.291   8.312  0.1994 -0.0597 -0.7602
  994MOL0     C37101   1.872   9.150   8.281 -0.5304 -0.0612  0.0949
  994MOL0     C37102   2.000   9.072   8.306  0.2077  0.6622 -0.0958
  994MOL0     H37103   1.765   8.692   7.943  2.7645 -4.0975 -3.4867
  994MOL0     H37104   1.786   8.465   7.972  2.8719 -1.1376 -2.7517
  994MOL0     H37105   1.925   8.251   7.975 -0.0066 -0.0393  0.6228
  994MOL0     H37106   1.780   8.280   8.088  0.7005  1.9823  0.4667
  994MOL0     H37107   1.885   8.094   8.226  0.7665 -0.0589  0.1584
  994MOL0     H37108   1.793   8.055   8.076  0.3256 -3.0759  1.7476
  994MOL0     H37109   2.035   8.070   7.966 -0.3464  2.5137  0.6367
  994MOL0     H37110   2.090   8.067   8.138 -1.2772  5.2574 -0.5108
  994MOL0     H37111   1.932   7.863   8.172 -0.0358  1.0814  0.8254
  994MOL0     H37112   1.927   7.838   8.002 -0.0377 -2.2465  1.2709
  994MOL0     H37113   2.192   7.847   8.159  2.1031 -2.0694 -1.0875
  994MOL0     H37114   2.173   7.813   7.988  1.9008 -0.0981  1.8824
  994MOL0     H37115   2.053   7.650   8.217  0.1966  1.2083  0.6834
  994MOL0     H37116   2.023   7.627   8.041  1.0728  0.8030 -1.2655
  994MOL0     H37117   2.294   7.625   8.165 -2.6771  1.5654  1.4252
  994MOL0     H37118   2.246   7.555   8.007  1.7398  2.3430  0.0833
  994MOL0     H37119   2.101   7.400   8.163  0.0849 -1.3629  1.6953
  994MOL0     H37120   2.265   7.346   8.120  0.2332 -0.5183  0.2831
  994MOL0     H37121   2.036   7.490   8.411 -2.5429 -3.4624 -1.6552
  994MOL0     H37122   2.025   7.441   8.649  0.6221  1.7123  1.5417
  994MOL0     H37123   2.180   7.442   8.731  0.0618  3.1685 -2.1738
  994MOL0     H37124   2.040   7.190   8.628 -2.2631  0.1164  1.9982
  994MOL0     H37125   2.174   7.174   8.748 -0.2981 -0.4051  2.2057
  994MOL0     H37126   1.972   7.144   8.870  2.6078  0.0945  2.0503
  994MOL0     H37127   2.010   7.326   8.897  3.6431  1.2975 -2.0250
  994MOL0     H37128   1.829   7.353   8.727  1.2075 -1.1956 -1.2487
  994MOL0     H37129   1.825   7.174   8.719 -0.8618 -0.8833  0.2086
  994MOL0     H37130   1.757   7.176   9.125 -0.3658 -0.4118 -0.0781
  994MOL0     H37131   1.559   6.918   9.307  1.1749 -0.6066  1.5383
  994MOL0     H37132   1.599   7.085   9.303 -2.5674 -0.1586 -1.9975
  994MOL0     H37133   1.728   6.958   9.279  0.5902 -1.1190 -2.6547
  994MOL0     H37134   1.072   6.859   9.038 -1.7578  0.3414  1.9599
  994MOL0     H37135   0.912   6.708   9.127 -1.3346 -0.8564 -1.5018
  994MOL0     H37136   1.068   6.418   9.396  0.0170 -1.0315 -2.2350
  994MOL0     H37137   0.922   6.491   9.444  1.1829 -1.0446  1.4986
  994MOL0     H37138   0.795   6.319   9.342  0.5472  0.6220  2.1511
  994MOL0     H37139   0.942   6.237   9.275 -0.2065  0.7196 -0.3097
  994MOL0     H37140   0.832   6.169   9.513 -2.2434  1.3717 -2.2760
  994MOL0     H37141   0.931   6.301   9.570  1.3802  0.3030  0.2273
  994MOL0     H37142   1.129   6.220   9.466 -1.6224  1.7643 -2.5487
  994MOL0     H37143   1.052   6.067   9.420  0.8708  2.7583 -2.4587
  994MOL0     H37144   1.080   6.170   9.717 -3.9069  2.8739 -2.4843
  994MOL0     H37145   1.000   6.016   9.672 -0.7903  1.0183  2.6431
  994MOL0     H37146   1.289   6.058   9.597 -3.2380  2.9225 -0.0511
  994MOL0     H37147   1.191   5.913   9.571  1.8012 -1.8438  1.3535
  994MOL0     H37148   1.209   6.014   9.852 -0.4449  0.4032 -0.6791
  994MOL0     H37149   1.343   5.907   9.788  0.7083  1.3406 -1.3447
  994MOL0     H37150   1.045   5.855   9.772  0.9004  1.6984 -0.9652
  994MOL0     H37151   1.144   5.793   9.907 -1.4176 -0.4671  0.1333
  994MOL0     H37152   1.222   6.429   9.223  0.7229  2.4725  5.8837
  994MOL0     H37153   1.376   6.547   9.115 -0.7851 -0.0498  2.7253
  994MOL0     H37154   1.487   6.908   8.813  1.4892 -3.9966  2.1704
  994MOL0     H37155   1.587   7.115   8.733  1.2585  1.2087  0.3274
  994MOL0     H37156   2.003   8.507   8.326 -0.3441  0.6192  0.2304
  994MOL0     H37157   1.994   8.763   8.309  2.3646 -0.7941 -1.3730
  994MOL0     H37158   1.573   9.114   8.135  1.1441 -1.7031 -0.0336
  994MOL0     H37159   1.573   9.359   8.142 -0.3410  0.0959  0.0960
  994MOL0     H37160   1.626   9.588   8.151 -0.0344 -1.4498  0.0419
  994MOL0     H37161   1.556   9.531   8.299  0.1471 -3.8658 -4.5187
  994MOL0     H37162   1.758   9.766   8.279 -0.2291  2.1964  1.1781
  994MOL0     H37163   1.623   9.727   8.401 -1.3360 -1.6838 -0.4694
  994MOL0     H37164   1.455   9.765   8.251  1.6291 -2.9871 -1.5750
  994MOL0     H37165   1.550   9.904   8.301 -3.6794  1.5431 -0.0467
  994MOL0     H37166   1.653   9.907   8.065  1.6855 -3.7254  0.0964
  994MOL0     H37167   1.476   9.941   8.082  0.1213  0.2698  2.2897
  994MOL0     H37168   1.461   9.629   7.815 -0.6856  1.5332 -0.8795
  994MOL0     H37169   1.935   9.339   8.379  1.0717  0.6419 -2.1361
  994MOL0     H37170   1.967   8.987   8.366  1.6414 -0.3319 -0.6527
  994MOL0     H37171   2.030   9.036   8.207 -0.1753  1.1649 -0.3975
  994MOL0     H37172   2.072   9.138   8.356 -0.0975 -1.5644  3.6564
  995MOL0     O37173   1.895   2.916   9.879  0.6340  0.1435 -0.2729
  995MOL0     C37174   1.912   2.936   9.755  0.2333 -0.0247 -0.3647
  995MOL0     O37175   2.009   2.871   9.676  0.6403 -0.1045  0.8837
  995MOL0     C37176   2.078   2.771   9.739 -0.6235 -0.0130  0.9381
  995MOL0     C37177   2.021   2.657   9.798  0.3233  0.4264 -0.6630
  995MOL0     C37178   2.101   2.554   9.848 -0.4696  0.3525 -0.3403
  995MOL0     C37179   2.239   2.561   9.842 -0.6597 -0.3125  0.5109
  995MOL0     O37180   2.331   2.458   9.874 -0.5450 -0.1303 -0.2277
  995MOL0     C37181   2.270   2.331   9.903  0.3734 -0.5648  0.0375
  995MOL0     C37182   2.379   2.229   9.931 -0.1607 -0.1589  0.6932
  995MOL0     C37183   2.409   2.156   9.809 -0.4727  0.9957  1.6356
  995MOL0     C37184   2.452   2.235   9.679  0.0894 -0.2231 -0.7769
  995MOL0     C37185   2.588   2.305   9.708  0.5378  0.2660 -0.9583
  995MOL0     C37186   2.678   2.349   9.593  0.6904 -0.0245  0.8854
  995MOL0     C37187   2.812   2.385   9.657 -0.0550  0.1384 -0.3540
  995MOL0     C37188   2.909   2.434   9.555 -0.0284  0.0288  0.1925
  995MOL0     N37189   2.979   2.317   9.506 -0.1490 -0.0168 -0.7865
  995MOL0     C37190   2.952   2.251   9.388  0.1148 -0.2153 -0.2334
  995MOL0     C37191   3.037   2.146   9.382  0.4170 -0.5253  0.1425
  995MOL0     C37192   3.070   2.061   9.252 -0.5801 -0.8062  0.0422
  995MOL0     C37193   3.184   1.963   9.271 -0.4070 -0.2586 -0.0427
  995MOL0     C37194   3.210   1.868   9.144 -0.0785 -0.4155 -0.3959
  995MOL0     C37195   3.319   1.911   9.052 -1.0357 -0.3761 -0.1389
  995MOL0     O37196   3.274   1.859   8.926  0.5267  0.3341  0.5123
  995MOL0     C37197   3.357   1.783   8.845 -1.3268 -0.1374  0.1760
  995MOL0     C37198   3.339   1.648   8.854 -0.5268 -0.5989 -0.4945
  995MOL0     C37199   3.420   1.556   8.791 -0.3954 -0.8680  0.1643
  995MOL0     C37200   3.391   1.406   8.798 -0.2180 -0.4690  0.0023
  995MOL0     C37201   3.515   1.618   8.701  0.4213 -0.5506  0.6033
  995MOL0     C37202   3.608   1.545   8.622 -0.6911  0.0128 -0.6498
  995MOL0     O37203   3.557   1.433   8.552  0.8029  0.8956  0.5779
  995MOL0     C37204   3.646   1.335   8.511  0.1641  0.0207 -0.0432
  995MOL0     C37205   3.761   1.362   8.430 -0.8602  0.2741 -0.0715
  995MOL0     C37206   3.824   1.250   8.370  0.0194 -0.2035  0.9151
  995MOL0     C37207   3.782   1.119   8.376 -0.1764 -0.1849  0.6053
  995MOL0     O37208   3.849   1.010   8.328 -0.1166 -0.3534  0.1366
  995MOL0     C37209   3.965   1.036   8.248 -0.3089 -1.2025  1.0105
  995MOL0     C37210   4.037   0.907   8.202 -0.4009  0.2236  0.0272
  995MOL0     C37211   4.124   0.843   8.300 -0.4483  0.2214 -0.6071
  995MOL0     C37212   4.055   0.809   8.440  0.4522 -0.1812  0.7461
  995MOL0     C37213   4.134   0.743   8.555  0.0415  0.0999 -0.3638
  995MOL0     C37214   4.047   0.699   8.671  0.5008  0.6034 -0.3853
  995MOL0     C37215   4.124   0.656   8.798 -0.0966 -0.0563  0.3625
  995MOL0     C37216   4.219   0.543   8.787 -0.9087  0.0642 -0.1412
  995MOL0    Cl37217   4.288   0.506   8.947 -0.2113 -0.3048 -0.0424
  995MOL0     C37218   3.668   1.094   8.453  0.3940 -0.3433  0.0968
  995MOL0     C37219   3.600   1.199   8.512  0.2089 -0.0470  0.3363
  995MOL0     O37220   3.723   1.583   8.612  0.3525  0.3718  0.4535
  995MOL0     C37221   3.531   1.755   8.689  0.6198 -0.2882  0.9188
  995MOL0     C37222   3.456   1.846   8.761  0.8976  0.3916 -0.4003
  995MOL0     N37223   3.121   2.150   9.492 -0.4284  0.3420  0.0471
  995MOL0     N37224   3.085   2.246   9.567 -1.1644  0.3245  0.0567
  995MOL0     C37225   2.303   2.670   9.785  0.7492 -0.5541  0.3679
  995MOL0     C37226   2.217   2.772   9.730 -0.3573 -0.7617 -0.1239
  995MOL0     C37227   1.836   3.037   9.681  1.0086 -0.5104  0.0148
  995MOL0     C37228   1.820   3.018   9.541 -0.1002 -0.0222 -0.3352
  995MOL0     C37229   1.726   3.090   9.466 -0.9389 -0.9118 -1.1867
  995MOL0     C37230   1.651   3.185   9.519 -0.3393 -0.2480 -0.4673
  995MOL0     O37231   1.559   3.256   9.438  0.4753 -0.4266  0.2726
  995MOL0     C37232   1.496   3.376   9.492  0.5920  0.2958  0.6309
  995MOL0     C37233   1.586   3.500   9.479 -0.1459 -0.2059  0.1549
  995MOL0     C37234   1.628   3.524   9.337  0.4163 -0.3737  0.4630
  995MOL0     C37235   1.719   3.642   9.316  0.1648 -0.1226 -0.3130
  995MOL0     C37236   1.756   3.643   9.174 -0.2330  0.7057  0.2581
  995MOL0     C37237   1.791   3.651   9.057 -0.9341 -0.5237  0.2710
  995MOL0     C37238   1.683   3.219   9.653  0.0556 -0.1427 -0.9585
  995MOL0     C37239   1.765   3.139   9.739 -0.7977 -0.4470 -0.3439
  995MOL0     C37240   1.786   3.170   9.888 -0.8042 -0.0128 -0.6064
  995MOL0     H37241   1.915   2.649   9.820  0.0403  3.0825 -0.7077
  995MOL0     H37242   2.053   2.464   9.886  0.8978 -0.3940 -0.3308
  995MOL0     H37243   2.213   2.301   9.814  0.0602 -2.8131  0.9255
  995MOL0     H37244   2.196   2.331   9.984  0.9475 -4.3560  0.7488
  995MOL0     H37245   2.456   2.294   9.973 -2.8442  2.6209  1.6486
  995MOL0     H37246   2.357   2.163  10.016  1.3418  1.4755  2.4419
  995MOL0     H37247   2.478   2.073   9.827  0.5969  1.5708  0.3626
  995MOL0     H37248   2.315   2.110   9.776 -0.3542  1.2718  0.8954
  995MOL0     H37249   2.468   2.175   9.590 -3.7720  0.6558 -2.2370
  995MOL0     H37250   2.373   2.305   9.649  0.1001  1.1745  2.0873
  995MOL0     H37251   2.650   2.236   9.766 -0.3007  0.4046  0.1457
  995MOL0     H37252   2.571   2.393   9.772  2.0252  0.1190 -0.3366
  995MOL0     H37253   2.702   2.277   9.514 -0.8290  2.0339 -1.6002
  995MOL0     H37254   2.625   2.436   9.554 -0.4224 -0.7452  0.7216
  995MOL0     H37255   2.852   2.296   9.708  0.1050  0.7633  0.6347
  995MOL0     H37256   2.797   2.466   9.728 -1.8922 -0.0062 -0.5305
  995MOL0     H37257   2.860   2.494   9.478 -4.3212 -1.4156  1.5308
  995MOL0     H37258   2.975   2.506   9.606 -1.4079 -0.2037  2.4237
  995MOL0     H37259   2.864   2.274   9.329 -2.3617 -1.1291  2.8341
  995MOL0     H37260   3.078   2.123   9.162 -1.4533 -1.9320 -0.8311
  995MOL0     H37261   2.981   1.997   9.249 -1.0062 -0.4760  2.6852
  995MOL0     H37262   3.278   2.012   9.298 -0.6937  0.8506 -0.9931
  995MOL0     H37263   3.159   1.899   9.357  2.5391  1.0969  1.9875
  995MOL0     H37264   3.239   1.768   9.177 -0.1609 -0.7944 -1.4364
  995MOL0     H37265   3.111   1.868   9.099 -2.9839  1.1216  4.9998
  995MOL0     H37266   3.332   2.019   9.042 -1.8945 -0.2252  0.3377
  995MOL0     H37267   3.418   1.868   9.072  0.2703  0.7473 -3.5147
  995MOL0     H37268   3.263   1.631   8.930 -1.0893 -0.6944 -1.0689
  995MOL0     H37269   3.329   1.386   8.711  0.6220  0.9610 -0.9638
  995MOL0     H37270   3.330   1.400   8.888  0.9620  1.1337  0.9471
  995MOL0     H37271   3.475   1.336   8.809 -1.4645 -2.6207 -2.7511
  995MOL0     H37272   3.807   1.457   8.405  3.9953 -1.9559 -0.8782
  995MOL0     H37273   3.916   1.275   8.319 -0.5954 -0.2305 -0.2457
  995MOL0     H37274   3.937   1.091   8.158 -1.9148  0.3842  2.4118
  995MOL0     H37275   4.027   1.096   8.316 -1.9456  0.4546  1.1256
  995MOL0     H37276   3.959   0.837   8.172 -0.9938  0.2831  1.3945
  995MOL0     H37277   4.096   0.943   8.116 -0.8900  0.2461 -0.3014
  995MOL0     H37278   4.217   0.900   8.309  0.5238 -1.0416 -2.1001
  995MOL0     H37279   4.148   0.746   8.255 -1.6734 -1.4515  2.0328
  995MOL0     H37280   3.970   0.748   8.409  0.0700  1.8631 -2.8123
  995MOL0     H37281   4.030   0.900   8.496  1.8285  0.5021  0.3033
  995MOL0     H37282   4.202   0.663   8.524  0.3887  0.1180  0.3487
  995MOL0     H37283   4.204   0.815   8.598  1.0086 -1.9921  1.8045
  995MOL0     H37284   3.993   0.606   8.649 -1.1172  1.4166  0.0119
  995MOL0     H37285   3.967   0.765   8.705  0.7022  1.4670 -1.5134
  995MOL0     H37286   4.053   0.629   8.876  2.5313 -2.4038  2.1555
  995MOL0     H37287   4.181   0.740   8.839  1.0825 -0.3506 -0.5842
  995MOL0     H37288   4.297   0.566   8.714 -2.9318 -0.2377 -2.5756
  995MOL0     H37289   4.171   0.456   8.740 -0.5044  1.2254 -2.9379
  995MOL0     H37290   3.620   0.997   8.440 -0.1526 -0.1150  0.3984
  995MOL0     H37291   3.504   1.180   8.559 -0.2504 -1.3194 -1.0547
  995MOL0     H37292   3.605   1.804   8.627  0.6896 -0.1393  1.1181
  995MOL0     H37293   3.477   1.952   8.746 -0.3255  1.0276  1.8715
  995MOL0     H37294   2.406   2.685   9.755  0.2991  2.0687 -0.1312
  995MOL0     H37295   2.271   2.857   9.690  3.1848 -1.3288  2.8371
  995MOL0     H37296   1.876   2.937   9.495 -0.4383 -0.7798  0.5680
  995MOL0     H37297   1.708   3.064   9.362  1.4730  2.5956 -2.6569
  995MOL0     H37298   1.400   3.397   9.443  0.8270 -0.1745 -0.0415
  995MOL0     H37299   1.471   3.365   9.598 -2.2401  0.3461  0.0566
  995MOL0     H37300   1.674   3.499   9.544 -1.0920 -0.0705  1.4771
  995MOL0     H37301   1.530   3.584   9.522 -0.7948 -1.1349  1.1911
  995MOL0     H37302   1.674   3.432   9.302 -1.3314 -0.9946 -0.2988
  995MOL0     H37303   1.543   3.523   9.270  0.8850 -4.0588 -0.2895
  995MOL0     H37304   1.815   3.632   9.365 -0.2790  1.4404  0.9345
  995MOL0     H37305   1.665   3.732   9.345 -2.9859 -2.4076  1.5804
  995MOL0     H37306   1.827   3.654   8.956 -2.5266 -1.0101 -0.3388
  995MOL0     H37307   1.629   3.305   9.693  0.0386  0.5983 -2.5015
  995MOL0     H37308   1.740   3.265   9.916 -0.2822 -0.8888  4.2453
  995MOL0     H37309   1.734   3.093   9.946  0.5564 -0.1795  0.4440
  995MOL0     H37310   1.894   3.165   9.908 -0.9982 -1.4523  0.2265
  996MOL0     O37311   5.049   2.716   1.622 -0.1413 -0.2012 -0.5971
  996MOL0     C37312   5.042   2.786   1.726  0.9818  0.0562  0.5838
  996MOL0     O37313   5.083   2.914   1.742  0.4050 -0.5147  0.1002
  996MOL0     C37314   5.127   2.995   1.637 -0.3366  0.7415 -0.6814
  996MOL0     C37315   5.163   2.955   1.508 -0.5394  0.2869 -0.3880
  996MOL0     C37316   5.205   3.048   1.421 -0.2377  0.3014  0.6939
  996MOL0     C37317   5.204   3.178   1.452  0.1143 -0.1185  0.1795
  996MOL0     O37318   5.240   3.261   1.350 -0.5203 -0.2842  0.5060
  996MOL0     C37319   5.150   3.378   1.334  0.1596  0.1901  0.2373
  996MOL0     C37320   5.133   3.417   1.188  0.2173 -0.5089 -0.6251
  996MOL0     C37321   5.019   3.516   1.182  0.4183 -0.1581 -0.4074
  996MOL0     C37322   4.987   3.544   1.039  0.1022 -0.8580  0.1140
  996MOL0     C37323   4.881   3.649   1.031 -1.0623 -0.5097 -0.0576
  996MOL0     C37324   4.787   3.615   0.918 -0.2145 -1.5247  0.1014
  996MOL0     C37325   4.670   3.713   0.898  0.5508  0.4282 -0.1505
  996MOL0     C37326   4.533   3.636   0.918 -0.4854  0.0713  0.2333
  996MOL0     N37327   4.504   3.608   1.061 -0.0579  0.7046 -0.0298
  996MOL0     C37328   4.450   3.694   1.150  1.2941 -0.2404 -0.7035
  996MOL0     C37329   4.434   3.614   1.260  0.3993  0.1826  0.2423
  996MOL0     C37330   4.394   3.671   1.398  0.3172 -0.6664 -0.2623
  996MOL0     C37331   4.498   3.778   1.442 -0.4746  0.1424 -0.2134
  996MOL0     C37332   4.647   3.732   1.440 -0.4587  0.4609  0.1179
  996MOL0     C37333   4.738   3.849   1.393  0.2503  0.9276 -0.5527
  996MOL0     O37334   4.710   3.906   1.266  0.3955  0.6795  0.5312
  996MOL0     C37335   4.792   3.999   1.203  0.0482  0.0539  0.2008
  996MOL0     C37336   4.911   4.036   1.245  0.3262  0.5049 -0.5880
  996MOL0     C37337   4.973   4.142   1.185 -1.3449  0.2042  0.6749
  996MOL0     C37338   5.103   4.199   1.252  0.9393 -0.5587  0.2749
  996MOL0     C37339   4.919   4.207   1.067 -0.6329 -1.5627 -0.9690
  996MOL0     C37340   4.969   4.337   1.025 -0.4880  0.1577 -0.0621
  996MOL0     O37341   4.866   4.425   1.005 -0.0568 -0.5658 -0.3839
  996MOL0     C37342   4.905   4.555   0.975 -0.1954 -0.5175 -0.0534
  996MOL0     C37343   5.006   4.632   1.038  0.9840 -0.0109  0.0373
  996MOL0     C37344   5.034   4.760   1.001  0.2148 -0.9905  0.0714
  996MOL0     C37345   4.954   4.832   0.908 -0.1321 -0.1608 -0.1761
  996MOL0     O37346   4.994   4.958   0.881  0.7868 -0.1198  0.5450
  996MOL0     C37347   5.110   4.963   0.800  0.9248  0.4694  0.5302
  996MOL0     C37348   5.070   4.915   0.657 -0.5086  0.0784  0.2535
  996MOL0     C37349   5.140   4.794   0.591  0.2559 -0.1278  0.2511
  996MOL0     C37350   5.094   4.668   0.659 -0.4608  0.2964 -0.4424
  996MOL0     C37351   5.157   4.553   0.586  0.4078 -1.0015  0.4001
  996MOL0     C37352   5.310   4.529   0.596 -0.2219  0.2646 -0.9236
  996MOL0     C37353   5.356   4.499   0.744 -0.3175 -0.4560 -0.7213
  996MOL0     C37354   5.295   4.369   0.794  0.0583 -0.7142  1.0016
  996MOL0    Cl37355   5.379   4.263   0.691  0.3982  0.3893 -0.1941
  996MOL0     C37356   4.843   4.761   0.850 -0.3207 -0.5758 -0.6300
  996MOL0     C37357   4.823   4.628   0.878  0.1800  0.5066 -0.4145
  996MOL0     O37358   5.093   4.353   1.000 -0.7148  0.3203  0.4022
  996MOL0     C37359   4.795   4.163   1.020  0.0266 -0.2110  0.1504
  996MOL0     C37360   4.735   4.056   1.086 -0.2554 -0.0174  0.7349
  996MOL0     N37361   4.485   3.483   1.245 -0.3229 -0.0992  0.4100
  996MOL0     N37362   4.529   3.482   1.121  0.1070 -0.5791  0.0100
  996MOL0     C37363   5.173   3.222   1.579  0.3646  0.4273 -0.6686
  996MOL0     C37364   5.130   3.126   1.676 -0.5481 -0.1413 -0.9025
  996MOL0     C37365   4.991   2.720   1.841  0.6234  0.8216  0.5307
  996MOL0     C37366   5.024   2.578   1.861 -0.0539  0.1523 -0.1870
  996MOL0     C37367   4.998   2.513   1.983 -0.5518 -1.0147  0.4711
  996MOL0     C37368   4.921   2.576   2.079 -1.2293  0.0853 -0.0508
  996MOL0     O37369   4.889   2.529   2.202  0.4530  0.0180  0.1184
  996MOL0     C37370   4.957   2.409   2.252  0.2697 -0.0065  0.5464
  996MOL0     C37371   4.884   2.356   2.379  1.0086 -0.0549 -0.2091
  996MOL0     C37372   4.917   2.418   2.515 -0.4784 -0.1223 -0.0383
  996MOL0     C37373   4.863   2.346   2.642 -0.1118  0.5655 -0.2954
  996MOL0     C37374   4.715   2.336   2.648  0.0060 -0.4212 -0.3947
  996MOL0     C37375   4.603   2.304   2.691 -0.8921  0.1011  0.1749
  996MOL0     C37376   4.873   2.700   2.044 -0.6197  0.7469  0.2248
  996MOL0     C37377   4.897   2.771   1.932  0.0045 -0.2971 -0.1137
  996MOL0     C37378   4.821   2.903   1.910 -0.6438  0.2960  0.4531
  996MOL0     H37379   5.153   2.851   1.477  1.5593  0.4261 -1.7106
  996MOL0     H37380   5.234   3.021   1.320  0.5003  0.7448  0.7797
  996MOL0     H37381   5.191   3.458   1.396  0.9751  0.1320 -0.2052
  996MOL0     H37382   5.055   3.351   1.380 -1.4086  1.3754 -2.1094
  996MOL0     H37383   5.224   3.467   1.153 -0.3718 -1.4864 -3.8567
  996MOL0     H37384   5.115   3.323   1.136  2.7712 -2.6841  2.1019
  996MOL0     H37385   4.935   3.482   1.243  0.5490  0.2314 -0.0106
  996MOL0     H37386   5.064   3.606   1.226  0.0982 -0.0579 -0.2817
  996MOL0     H37387   5.082   3.559   0.987 -0.6923 -0.3519 -1.2348
  996MOL0     H37388   4.952   3.450   0.994 -3.8912 -0.0927  1.2214
  996MOL0     H37389   4.921   3.748   1.008  0.4642 -1.4690 -1.7075
  996MOL0     H37390   4.825   3.641   1.125 -0.9297 -1.7968 -0.0642
  996MOL0     H37391   4.839   3.599   0.823  0.5320 -4.4840  0.8927
  996MOL0     H37392   4.748   3.514   0.935  0.2025 -1.4371  1.7717
  996MOL0     H37393   4.662   3.744   0.793  1.2559 -3.3013 -1.4598
  996MOL0     H37394   4.674   3.790   0.976  0.6858  1.3131 -1.0043
  996MOL0     H37395   4.450   3.693   0.874 -0.5271 -1.4520 -1.8051
  996MOL0     H37396   4.543   3.550   0.851  2.0615  1.1529 -0.8976
  996MOL0     H37397   4.423   3.799   1.142 -1.1214 -0.5124  2.0670
  996MOL0     H37398   4.402   3.581   1.461  1.1739  0.4948  1.3604
  996MOL0     H37399   4.293   3.712   1.402 -0.1857 -1.9437  1.3398
  996MOL0     H37400   4.490   3.863   1.374  2.5145 -0.4349 -1.4598
  996MOL0     H37401   4.458   3.820   1.535 -0.9095  1.2078 -0.8583
  996MOL0     H37402   4.677   3.705   1.542  4.7330  1.6835 -0.8046
  996MOL0     H37403   4.662   3.651   1.369 -1.1144  1.5705 -1.3421
  996MOL0     H37404   4.740   3.925   1.472 -3.5083 -2.7469  3.6422
  996MOL0     H37405   4.842   3.815   1.394 -0.1653 -0.4949  1.9820
  996MOL0     H37406   4.966   3.982   1.321 -1.3323 -2.5416 -1.3727
  996MOL0     H37407   5.117   4.157   1.352 -2.1896  0.1087  1.1209
  996MOL0     H37408   5.091   4.308   1.258  0.8920 -0.6056  1.0766
  996MOL0     H37409   5.194   4.178   1.196  1.7740  0.4869  1.1940
  996MOL0     H37410   5.064   4.584   1.116  0.7571 -2.5497 -1.2345
  996MOL0     H37411   5.132   4.794   1.033 -0.5121  1.1550  0.2257
  996MOL0     H37412   5.143   5.068   0.794 -0.1835  1.0090  2.8235
  996MOL0     H37413   5.190   4.900   0.841  1.0682  1.3283  1.6081
  996MOL0     H37414   4.961   4.907   0.657 -0.7505  2.4094  1.2359
  996MOL0     H37415   5.090   5.000   0.590  1.5147  0.0722  0.7847
  996MOL0     H37416   5.249   4.804   0.589  0.3692 -1.3611 -0.9786
  996MOL0     H37417   5.109   4.787   0.486 -1.8568 -3.2205  0.9330
  996MOL0     H37418   4.985   4.664   0.664 -0.3729 -0.5994  3.2606
  996MOL0     H37419   5.124   4.660   0.764 -1.3592  0.8792 -0.1343
  996MOL0     H37420   5.100   4.464   0.612  1.2674 -1.8233 -0.4279
  996MOL0     H37421   5.136   4.572   0.480 -2.3908 -3.8378  0.3288
  996MOL0     H37422   5.382   4.603   0.559  0.0935  0.5565  0.2437
  996MOL0     H37423   5.323   4.449   0.523  1.4694 -1.4798  1.1391
  996MOL0     H37424   5.314   4.583   0.799  0.8168 -2.0071  2.8450
  996MOL0     H37425   5.465   4.501   0.746 -0.3157 -0.4370 -0.8367
  996MOL0     H37426   5.188   4.356   0.772  0.3226 -1.3768  0.0359
  996MOL0     H37427   5.319   4.357   0.900  0.2428  0.0577  1.0487
  996MOL0     H37428   4.762   4.820   0.808  0.0147  0.5802  0.2896
  996MOL0     H37429   4.745   4.568   0.832  0.9270 -1.1184  0.3810
  996MOL0     H37430   4.747   4.207   0.933  0.3011  3.8707  1.8089
  996MOL0     H37431   4.643   4.009   1.052 -0.3383  0.0520  0.8629
  996MOL0     H37432   5.161   3.327   1.602  0.6163  0.5440 -1.0734
  996MOL0     H37433   5.114   3.152   1.781 -0.0766 -1.8595 -0.3757
  996MOL0     H37434   5.095   2.537   1.790  2.0796  1.2792  1.1974
  996MOL0     H37435   5.042   2.414   1.989 -0.1353 -0.9532 -1.1038
  996MOL0     H37436   4.955   2.340   2.168 -3.6273  1.2616 -0.6294
  996MOL0     H37437   5.059   2.439   2.275  0.5210 -0.3219 -0.1638
  996MOL0     H37438   4.927   2.256   2.388 -0.4722 -1.1670 -3.8101
  996MOL0     H37439   4.776   2.356   2.362  0.9850 -2.0171 -0.2143
  996MOL0     H37440   5.026   2.411   2.522 -0.5347 -2.6892 -0.8605
  996MOL0     H37441   4.897   2.526   2.514  1.5312  0.4424  3.5327
  996MOL0     H37442   4.895   2.412   2.723  0.4805 -2.3697  2.0170
  996MOL0     H37443   4.912   2.250   2.656 -2.4954 -0.4710  1.5103
  996MOL0     H37444   4.503   2.280   2.720 -1.8845  1.4250 -1.8742
  996MOL0     H37445   4.810   2.739   2.124 -1.1549 -1.5690  1.0251
  996MOL0     H37446   4.795   2.919   1.805  0.4614  2.1929  0.4221
  996MOL0     H37447   4.727   2.909   1.965 -0.6763 -0.0713  0.4351
  996MOL0     H37448   4.877   2.993   1.939  0.3027  0.0269 -0.4716
  997MOL0     O37449   1.696   6.309   9.820  0.0905 -0.5065  0.2857
  997MOL0     C37450   1.705   6.383   9.918  0.4625  1.0569  0.4300
  997MOL0     O37451   1.822   6.436   9.964  0.0110  0.4462 -0.0017
  997MOL0     C37452   1.920   6.477   9.875  0.5016  0.2904  0.8030
  997MOL0     C37453   1.888   6.513   9.748 -0.1472  0.1820  0.1910
  997MOL0     C37454   1.988   6.518   9.648 -0.6269 -0.4768 -0.7595
  997MOL0     C37455   2.121   6.500   9.685  0.1041  0.1743 -0.6175
  997MOL0     O37456   2.207   6.527   9.587 -0.0483  0.5245 -0.5401
  997MOL0     C37457   2.299   6.418   9.563 -0.4989 -0.3161  0.4199
  997MOL0     C37458   2.426   6.481   9.516 -0.2323  0.1391 -0.1973
  997MOL0     C37459   2.509   6.555   9.621  0.7638 -0.0575  0.2655
  997MOL0     C37460   2.653   6.587   9.568  1.0142 -0.6613  0.0195
  997MOL0     C37461   2.757   6.613   9.675  0.1208  0.4723 -0.1501
  997MOL0     C37462   2.889   6.621   9.603  0.4860 -0.0212  0.0329
  997MOL0     C37463   2.984   6.660   9.704 -0.3245  0.1108  0.5176
  997MOL0     C37464   3.127   6.651   9.649  0.6309  0.5858 -0.7738
  997MOL0     N37465   3.227   6.714   9.741 -0.8476  0.4956  0.5726
  997MOL0     C37466   3.285   6.819   9.686 -0.4870 -0.3417  0.0430
  997MOL0     C37467   3.387   6.844   9.774 -0.6542  0.1326 -0.7375
  997MOL0     C37468   3.464   6.969   9.774  0.0254  0.7421 -0.3763
  997MOL0     C37469   3.541   6.969   9.650  0.0792  0.2464  0.3938
  997MOL0     C37470   3.619   7.106   9.647 -0.9752 -0.1294 -0.1499
  997MOL0     C37471   3.721   7.112   9.530 -0.1701 -0.1446 -0.3904
  997MOL0     O37472   3.863   7.115   9.575  0.7104  0.2364  0.0088
  997MOL0     C37473   3.923   7.212   9.666  0.1566  0.6084 -0.0082
  997MOL0     C37474   4.048   7.182   9.706 -0.9381 -1.1047 -0.4493
  997MOL0     C37475   4.116   7.260   9.797 -0.4258  0.5206 -0.0815
  997MOL0     C37476   4.257   7.205   9.836  0.1315  0.7033 -0.1050
  997MOL0     C37477   4.057   7.382   9.855 -0.5307  0.2526  0.2338
  997MOL0     C37478   4.133   7.488   9.929  0.2654  0.6449  1.1936
  997MOL0     O37479   4.070   7.608   9.938  0.2645  0.5407 -0.5481
  997MOL0     C37480   4.136   7.725   9.977  0.6935 -0.1339  0.8114
  997MOL0     C37481   4.115   7.839   9.906 -0.2655 -0.6942  0.6325
  997MOL0     C37482   4.181   7.963   9.928 -0.6753  0.5548  0.2042
  997MOL0     C37483   4.265   7.966  10.046  0.6472 -0.5406 -0.1255
  997MOL0     O37484   4.352   8.065  10.080 -0.2491 -0.3532 -0.4262
  997MOL0     C37485   4.297   8.198  10.095 -0.5334 -0.4627 -0.0685
  997MOL0     C37486   4.394   8.284  10.169 -0.4349 -0.2587 -1.2001
  997MOL0     C37487   4.331   8.373  10.273 -0.7374 -0.5456 -0.1920
  997MOL0     C37488   4.269   8.497  10.225  1.0476 -1.5526  0.1751
  997MOL0     C37489   4.204   8.591  10.331  0.3083  0.5131 -0.1742
  997MOL0     C37490   4.116   8.695  10.268  0.5064 -0.0600  0.3854
  997MOL0     C37491   4.151   8.772  10.143 -0.9050 -0.2366 -0.4889
  997MOL0     C37492   4.072   8.909  10.123  0.4955  0.3382  0.4625
  997MOL0    Cl37493   3.897   8.883  10.144  0.1223 -0.3979 -0.4509
  997MOL0     C37494   4.267   7.859  10.132  0.1710  0.3646  0.5546
  997MOL0     C37495   4.210   7.733  10.095  0.6256 -1.1935 -0.8545
  997MOL0     O37496   4.252   7.467   9.956 -0.0830  0.2770 -0.2983
  997MOL0     C37497   3.925   7.400   9.815 -0.3600 -0.7701 -0.1740
  997MOL0     C37498   3.862   7.319   9.719  0.0712  0.5244  0.7198
  997MOL0     N37499   3.387   6.750   9.875  0.2902 -0.6057 -0.1209
  997MOL0     N37500   3.288   6.676   9.854  0.5786  0.3952 -0.4323
  997MOL0     C37501   2.153   6.497   9.816 -1.1500  0.5582  0.2193
  997MOL0     C37502   2.053   6.476   9.913 -0.2827 -0.3204  0.3429
  997MOL0     C37503   1.579   6.399   9.995  0.2196  0.1375 -0.4736
  997MOL0     C37504   1.578   6.449  10.124 -0.1364 -0.2444 -0.7587
  997MOL0     C37505   1.468   6.450  10.208 -0.3562 -0.1900 -0.1338
  997MOL0     C37506   1.343   6.412  10.163  0.4855 -0.3574  1.3926
  997MOL0     O37507   1.247   6.412  10.256 -1.8622  0.1644 -0.0737
  997MOL0     C37508   1.113   6.371  10.226  0.1405 -0.3961  0.1019
  997MOL0     C37509   1.032   6.386  10.352 -0.3704  0.4548 -0.0631
  997MOL0     C37510   0.884   6.351  10.325  0.5252 -0.4096  0.0759
  997MOL0     C37511   0.809   6.315  10.461  0.0907  0.2880  0.3591
  997MOL0     C37512   0.784   6.434  10.536  0.0342  0.8558 -0.4999
  997MOL0     C37513   0.766   6.532  10.611  0.0314 -0.0946  0.2168
  997MOL0     C37514   1.336   6.367  10.029  0.1959  0.0187  0.6767
  997MOL0     C37515   1.446   6.360   9.947  0.9640  0.7864 -0.0804
  997MOL0     C37516   1.417   6.313   9.809 -0.0321 -0.4786  0.4884
  997MOL0     H37517   1.788   6.530   9.711  0.8442  0.9101 -2.4008
  997MOL0     H37518   1.957   6.541   9.547 -1.2302 -2.5691 -1.1060
  997MOL0     H37519   2.277   6.337   9.493 -1.3186 -0.3852  0.7482
  997MOL0     H37520   2.325   6.372   9.659 -1.6240 -0.8178  0.4989
  997MOL0     H37521   2.491   6.398   9.485  2.6978  0.9509  3.0962
  997MOL0     H37522   2.413   6.550   9.432  1.1221  0.2762 -0.3103
  997MOL0     H37523   2.468   6.654   9.645  1.0137  0.4380 -1.2148
  997MOL0     H37524   2.517   6.493   9.711  2.2734 -1.8160 -1.0173
  997MOL0     H37525   2.685   6.505   9.503  2.2233 -1.1682  1.2146
  997MOL0     H37526   2.651   6.675   9.503  1.2468 -0.2909  0.5058
  997MOL0     H37527   2.764   6.529   9.746  1.9832 -0.8712 -1.8079
  997MOL0     H37528   2.758   6.705   9.735 -0.6187 -0.3253  1.1429
  997MOL0     H37529   2.923   6.525   9.564  0.0179 -1.3418  2.6651
  997MOL0     H37530   2.893   6.684   9.513 -2.0729 -3.5879 -2.8533
  997MOL0     H37531   2.979   6.594   9.791 -0.1839  0.3532  0.7119
  997MOL0     H37532   2.964   6.764   9.733  0.3922  0.9827 -1.8447
  997MOL0     H37533   3.150   6.546   9.629 -0.7609  0.1728 -0.3133
  997MOL0     H37534   3.145   6.691   9.549 -2.6346  0.1519 -1.6500
  997MOL0     H37535   3.263   6.884   9.602  0.7182 -0.5136 -0.4205
  997MOL0     H37536   3.544   6.960   9.848  2.8918  0.7684 -3.2662
  997MOL0     H37537   3.407   7.060   9.795  1.8139  2.1532 -1.3562
  997MOL0     H37538   3.609   6.883   9.653 -1.3614 -0.9705 -0.3320
  997MOL0     H37539   3.491   6.940   9.557  2.1267  1.7267 -1.2630
  997MOL0     H37540   3.549   7.190   9.647 -2.4623 -1.3380 -0.3934
  997MOL0     H37541   3.667   7.118   9.744 -1.4936 -0.5066  0.1537
  997MOL0     H37542   3.708   7.025   9.465  1.4240 -0.7067  0.0031
  997MOL0     H37543   3.692   7.192   9.461 -0.6541 -2.5219 -3.1319
  997MOL0     H37544   4.097   7.095   9.664 -0.6150 -0.6075 -1.1133
  997MOL0     H37545   4.263   7.097   9.820  4.4137  1.0935 -2.5344
  997MOL0     H37546   4.278   7.218   9.943  1.0539 -1.3064  0.0018
  997MOL0     H37547   4.338   7.232   9.768  2.3972 -0.3362  2.0201
  997MOL0     H37548   4.049   7.839   9.820 -1.2748  1.6091  1.3121
  997MOL0     H37549   4.176   8.044   9.856  1.6759  0.4455 -0.1835
  997MOL0     H37550   4.279   8.238   9.994  3.5368  1.0822 -0.4002
  997MOL0     H37551   4.200   8.195  10.145 -0.3079  3.5380  0.9940
  997MOL0     H37552   4.448   8.213  10.232 -3.9071 -2.0719 -0.0158
  997MOL0     H37553   4.467   8.328  10.100  1.1268  0.4096  0.7654
  997MOL0     H37554   4.399   8.408  10.352 -2.5738  3.8420 -0.2522
  997MOL0     H37555   4.259   8.308  10.324 -0.5169 -1.1262 -0.6044
  997MOL0     H37556   4.194   8.462  10.153 -0.8224  0.2787  1.1232
  997MOL0     H37557   4.349   8.544  10.167 -1.3074  1.3135 -1.0460
  997MOL0     H37558   4.156   8.529  10.407  3.0368 -1.8889 -0.2358
  997MOL0     H37559   4.289   8.634  10.387  0.0704  1.7215 -0.6988
  997MOL0     H37560   4.100   8.766  10.350 -0.9452 -3.2648  3.0900
  997MOL0     H37561   4.022   8.642  10.251 -0.0384  0.5100  1.5009
  997MOL0     H37562   4.118   8.711  10.058 -1.2514 -1.2479  0.3507
  997MOL0     H37563   4.257   8.792  10.128 -0.6648 -3.0769 -3.9502
  997MOL0     H37564   4.085   8.940  10.019 -1.0537 -0.4262  0.0114
  997MOL0     H37565   4.107   8.989  10.189 -1.6065 -0.3068  2.5108
  997MOL0     H37566   4.343   7.862  10.210  1.3853 -0.5372 -0.5425
  997MOL0     H37567   4.228   7.645  10.155 -1.7082 -1.5121 -0.5107
  997MOL0     H37568   3.872   7.490   9.845  0.0518 -0.9481  1.1137
  997MOL0     H37569   3.759   7.334   9.687  0.8711 -2.4461 -4.2390
  997MOL0     H37570   2.260   6.503   9.835 -1.2373  0.5658  0.7289
  997MOL0     H37571   2.096   6.470  10.012  2.7361  0.1764 -0.7965
  997MOL0     H37572   1.667   6.474  10.181 -0.9692  4.8416 -1.2216
  997MOL0     H37573   1.473   6.478  10.313  0.1012  2.5188 -0.7822
  997MOL0     H37574   1.083   6.431  10.140  1.0151  0.6257  0.4924
  997MOL0     H37575   1.106   6.266  10.196 -2.7278  0.2021 -1.6914
  997MOL0     H37576   1.030   6.485  10.399  0.2737  1.3333 -1.7898
  997MOL0     H37577   1.069   6.316  10.427 -1.5870  1.5313  1.6424
  997MOL0     H37578   0.828   6.425  10.266  1.8802  0.6939  0.1385
  997MOL0     H37579   0.884   6.253  10.276  2.4790 -0.9375  1.0313
  997MOL0     H37580   0.865   6.236  10.512 -0.1748 -0.5584 -0.6307
  997MOL0     H37581   0.712   6.267  10.443  0.0798 -0.2511  1.7504
  997MOL0     H37582   0.747   6.614  10.676 -1.7901  0.9087 -1.4731
  997MOL0     H37583   1.239   6.322  10.009  0.0549  1.4481 -2.2611
  997MOL0     H37584   1.461   6.383   9.736 -0.9546  1.5611  1.7879
  997MOL0     H37585   1.462   6.215   9.791  1.2694  0.1958 -0.1160
  997MOL0     H37586   1.310   6.301   9.788  0.1681  0.8313 -1.6326
  998MOL0     O37587   3.724  10.461   5.757 -0.3247  0.0834 -0.0985
  998MOL0     C37588   3.796  10.371   5.730  1.0918  0.1372 -0.5187
  998MOL0     O37589   3.765  10.273   5.643 -0.2639 -0.1316  0.9674
  998MOL0     C37590   3.672  10.280   5.543 -0.6826 -1.2828 -0.3497
  998MOL0     C37591   3.646  10.165   5.475 -0.2394 -0.2336  0.9221
  998MOL0     C37592   3.547  10.159   5.372 -0.6787 -0.5432 -0.5215
  998MOL0     C37593   3.493  10.283   5.323  0.5468  0.2969  0.8851
  998MOL0     O37594   3.412  10.300   5.208  0.1889 -0.5084 -1.0232
  998MOL0     C37595   3.382  10.189   5.132  0.8413  0.6129 -0.1987
  998MOL0     C37596   3.286  10.231   5.019  0.1283 -0.3503 -0.4049
  998MOL0     C37597   3.222  10.109   4.956 -0.1368  0.7724  0.0454
  998MOL0     C37598   3.307  10.051   4.842  0.3536 -0.3036  0.4769
  998MOL0     C37599   3.271   9.915   4.803  0.3715  0.7003  0.5836
  998MOL0     C37600   3.135   9.902   4.727 -0.4804  0.5968  0.1374
  998MOL0     C37601   3.074   9.757   4.715 -0.6640 -0.0384  0.2612
  998MOL0     C37602   3.168   9.676   4.624  0.3475 -0.5650  0.2031
  998MOL0     N37603   3.277   9.611   4.691  0.0363 -0.1319  0.0029
  998MOL0     C37604   3.278   9.511   4.786  0.5609  0.8732  0.2705
  998MOL0     C37605   3.412   9.478   4.801  0.7198 -0.0701 -0.5520
  998MOL0     C37606   3.462   9.356   4.875 -0.2981  0.7667 -0.5822
  998MOL0     C37607   3.451   9.231   4.781 -0.1399 -0.9023  0.5359
  998MOL0     C37608   3.375   9.118   4.844 -0.3962 -0.5949  0.6231
  998MOL0     C37609   3.442   9.073   4.975  0.6369  0.5982  0.5525
  998MOL0     O37610   3.585   9.065   4.965  0.0550  0.0461  0.2592
  998MOL0     C37611   3.644   8.948   4.927  0.6544 -0.9644 -1.1816
  998MOL0     C37612   3.584   8.833   4.882 -0.3616  0.0543 -0.5634
  998MOL0     C37613   3.652   8.718   4.842  0.3745 -0.0319 -1.4747
  998MOL0     C37614   3.574   8.604   4.791 -0.4201  0.2299  0.3867
  998MOL0     C37615   3.790   8.715   4.854 -0.6166 -0.4393 -0.1334
  998MOL0     C37616   3.877   8.600   4.818 -0.6602  0.4045 -0.2450
  998MOL0     O37617   4.005   8.576   4.871  0.0928  0.0462 -0.4777
  998MOL0     C37618   4.084   8.475   4.825  1.3610 -0.3612 -0.0257
  998MOL0     C37619   4.134   8.374   4.904  0.5169 -0.1745  0.7709
  998MOL0     C37620   4.227   8.274   4.866 -0.1763  0.2212 -0.0102
  998MOL0     C37621   4.272   8.281   4.733 -0.8283  0.5571 -0.0813
  998MOL0     O37622   4.357   8.177   4.701  0.4524 -0.7716 -0.1935
  998MOL0     C37623   4.322   8.111   4.582 -0.4674 -0.1993  0.4457
  998MOL0     C37624   4.446   8.031   4.529  0.1358 -0.7400 -0.5841
  998MOL0     C37625   4.454   8.005   4.378  0.4476 -0.1231  0.2347
  998MOL0     C37626   4.471   7.862   4.333  0.2239 -0.2744  0.7270
  998MOL0     C37627   4.517   7.852   4.193 -0.6323 -0.1711 -0.3156
  998MOL0     C37628   4.666   7.864   4.174  0.0403  0.2474 -0.5574
  998MOL0     C37629   4.729   7.729   4.215 -0.1533 -0.6504 -1.2726
  998MOL0     C37630   4.727   7.633   4.093 -1.3154 -0.3430 -1.2911
  998MOL0    Cl37631   4.828   7.697   3.961  0.0913 -0.2987  0.3249
  998MOL0     C37632   4.239   8.385   4.651 -0.2801 -0.4771  0.2691
  998MOL0     C37633   4.152   8.485   4.700  0.2318 -0.0601  0.6424
  998MOL0     O37634   3.838   8.541   4.724 -0.4730 -0.0341  0.2415
  998MOL0     C37635   3.857   8.824   4.906 -0.6326 -0.0978 -0.2706
  998MOL0     C37636   3.787   8.939   4.936  0.9495  0.0492  0.1378
  998MOL0     N37637   3.487   9.551   4.711 -0.4146 -0.1204 -0.0416
  998MOL0     N37638   3.405   9.630   4.644  0.0092  0.0674  0.3877
  998MOL0     C37639   3.537  10.394   5.385  0.5283 -0.2213 -0.5500
  998MOL0     C37640   3.617  10.399   5.494 -0.1443  0.5237 -0.6089
  998MOL0     C37641   3.921  10.355   5.810  0.4789 -0.3535 -0.6515
  998MOL0     C37642   3.931  10.436   5.931 -0.3927  0.4460  0.6717
  998MOL0     C37643   4.036  10.407   6.018 -1.3911 -0.2652  0.1057
  998MOL0     C37644   4.126  10.296   5.996  0.5348  0.2167 -0.7731
  998MOL0     O37645   4.213  10.247   6.087  0.1383 -0.4916  0.0641
  998MOL0     C37646   4.222  10.306   6.216 -0.8480 -0.6809 -0.2256
  998MOL0     C37647   4.297  10.220   6.316 -0.6181 -0.6181  0.0163
  998MOL0     C37648   4.422  10.156   6.247  0.5669 -0.2828  0.3505
  998MOL0     C37649   4.457  10.038   6.331  0.2704 -0.2089  0.6049
  998MOL0     C37650   4.532  10.091   6.448 -0.0336  0.4436  0.3147
  998MOL0     C37651   4.565  10.144   6.547 -0.6794  0.1818 -0.7213
  998MOL0     C37652   4.129  10.233   5.871 -0.0485  0.9123 -0.7344
  998MOL0     C37653   4.031  10.268   5.778 -0.1796  0.5179 -0.1159
  998MOL0     C37654   4.047  10.181   5.651  1.2434  0.3242  0.1794
  998MOL0     H37655   3.694  10.078   5.519 -4.3599 -2.6102  1.2094
  998MOL0     H37656   3.548  10.064   5.320  1.0008 -0.8705  0.0472
  998MOL0     H37657   3.330  10.112   5.190  0.2893 -1.0131 -2.7049
  998MOL0     H37658   3.467  10.131   5.095 -0.6718  0.1802 -3.3998
  998MOL0     H37659   3.208  10.299   5.053 -0.2238 -0.8723 -0.1410
  998MOL0     H37660   3.352  10.279   4.946  2.9567 -1.9980  0.8764
  998MOL0     H37661   3.200  10.040   5.038 -0.9415 -0.1656 -0.9237
  998MOL0     H37662   3.126  10.143   4.917  0.2309  3.3963  1.2161
  998MOL0     H37663   3.297  10.126   4.763 -1.3817  0.6170  1.5097
  998MOL0     H37664   3.413  10.060   4.867 -0.1393 -0.0622  2.7103
  998MOL0     H37665   3.258   9.858   4.896 -1.8850 -1.3374 -0.8284
  998MOL0     H37666   3.350   9.869   4.742  0.6261  0.1525  1.3139
  998MOL0     H37667   3.065   9.968   4.779 -2.3418 -0.7727 -0.5467
  998MOL0     H37668   3.152   9.937   4.625  1.2785 -1.8713 -0.4957
  998MOL0     H37669   2.982   9.771   4.657 -0.8648 -0.5452  0.4468
  998MOL0     H37670   3.073   9.704   4.810  0.2467 -1.7130 -0.6194
  998MOL0     H37671   3.115   9.598   4.567  1.9186 -0.7214 -1.1074
  998MOL0     H37672   3.208   9.749   4.554  0.1150  0.9249  1.5576
  998MOL0     H37673   3.186   9.460   4.816 -0.0521 -0.5060 -3.3997
  998MOL0     H37674   3.394   9.359   4.960  0.8959  2.3449  0.3854
  998MOL0     H37675   3.567   9.351   4.906 -0.2823  0.1429 -0.7229
  998MOL0     H37676   3.398   9.259   4.690 -3.2053 -1.3288  2.0213
  998MOL0     H37677   3.551   9.195   4.755  0.2330  0.1867  0.4019
  998MOL0     H37678   3.272   9.150   4.863 -1.2942 -1.6152 -2.0088
  998MOL0     H37679   3.365   9.030   4.779 -0.5060  0.7862 -1.3187
  998MOL0     H37680   3.413   9.143   5.054 -2.0421 -1.1713  1.2274
  998MOL0     H37681   3.388   8.982   5.002  0.4298  0.7742  0.7328
  998MOL0     H37682   3.477   8.823   4.862 -0.5875  0.9759  0.0800
  998MOL0     H37683   3.597   8.516   4.851  0.8293  1.0684  1.1735
  998MOL0     H37684   3.597   8.604   4.684 -0.3732 -0.2015  0.3955
  998MOL0     H37685   3.465   8.613   4.789 -0.4959 -0.5257 -1.2555
  998MOL0     H37686   4.091   8.357   5.002 -3.9809  0.0562 -0.9385
  998MOL0     H37687   4.238   8.181   4.921 -0.6035 -1.1351 -2.0973
  998MOL0     H37688   4.246   8.035   4.605 -0.7119  0.1638  0.8577
  998MOL0     H37689   4.273   8.170   4.505 -0.5140 -2.2762 -1.1890
  998MOL0     H37690   4.535   8.089   4.556  0.4779 -1.3403 -0.4067
  998MOL0     H37691   4.456   7.935   4.580 -0.8367 -1.6451 -2.0172
  998MOL0     H37692   4.538   8.065   4.343 -0.2096  0.8375  0.2544
  998MOL0     H37693   4.365   8.047   4.331  2.7238  1.4628 -3.0197
  998MOL0     H37694   4.373   7.815   4.338 -0.0189  0.1474  0.0880
  998MOL0     H37695   4.541   7.812   4.400  1.3736  0.7917  0.3699
  998MOL0     H37696   4.478   7.762   4.144 -1.3165 -0.8326  1.3811
  998MOL0     H37697   4.463   7.928   4.136 -0.6507 -0.8573 -1.2391
  998MOL0     H37698   4.718   7.937   4.236  0.0074  1.2505 -1.6626
  998MOL0     H37699   4.680   7.891   4.069 -0.0637  2.9688  0.0467
  998MOL0     H37700   4.680   7.691   4.305  3.6840  0.6251  1.6781
  998MOL0     H37701   4.834   7.752   4.240 -0.6430  2.1054 -1.3735
  998MOL0     H37702   4.624   7.615   4.061 -1.8039  0.6424 -0.3454
  998MOL0     H37703   4.762   7.536   4.128  0.3649  0.9809  0.9966
  998MOL0     H37704   4.298   8.386   4.559  0.8901 -2.3432  0.9490
  998MOL0     H37705   4.146   8.572   4.635 -1.4371  0.3671  1.3217
  998MOL0     H37706   3.965   8.822   4.921 -0.3414  2.3569 -1.5746
  998MOL0     H37707   3.835   9.029   4.973 -2.4066  2.8254 -1.5754
  998MOL0     H37708   3.514  10.491   5.342  1.4493 -0.2229 -1.0584
  998MOL0     H37709   3.659  10.497   5.516  0.0781 -0.5278  5.0657
  998MOL0     H37710   3.852  10.508   5.952 -1.9382 -0.5768 -1.2516
  998MOL0     H37711   4.024  10.456   6.114  0.5835 -0.3528  0.4328
  998MOL0     H37712   4.279  10.399   6.212 -1.5450 -0.2450 -0.2560
  998MOL0     H37713   4.119  10.325   6.250 -0.4685  1.7334 -0.2720
  998MOL0     H37714   4.229  10.146   6.358  1.4539 -1.1514  2.6743
  998MOL0     H37715   4.333  10.283   6.398  0.4792 -0.6875 -0.3920
  998MOL0     H37716   4.400  10.125   6.145 -1.9417 -3.1533  1.5977
  998MOL0     H37717   4.507  10.225   6.249  0.9894 -0.7955  0.1695
  998MOL0     H37718   4.523   9.981   6.266  1.9175  0.8164  1.3240
  998MOL0     H37719   4.371   9.974   6.354  1.8886 -2.2507  1.3282
  998MOL0     H37720   4.588  10.181   6.645  1.7581  0.2170 -1.2558
  998MOL0     H37721   4.195  10.151   5.845  0.7040  1.2952 -0.0606
  998MOL0     H37722   4.028  10.246   5.565 -1.3031 -0.2304  0.2545
  998MOL0     H37723   4.143  10.129   5.648  1.5855  0.9838 -1.7533
  998MOL0     H37724   3.971  10.102   5.643 -1.3960  2.8932 -2.7927
  999MOL0     O37725   6.905  10.245   2.918  0.3210 -0.0683 -0.7521
  999MOL0     C37726   6.802  10.318   2.882 -0.4782  0.0612 -0.1302
  999MOL0     O37727   6.777  10.442   2.919  0.1572 -0.4875 -0.3410
  999MOL0     C37728   6.879  10.513   2.983  1.0373 -0.0337  0.6360
  999MOL0     C37729   6.939  10.620   2.919  0.1873  0.1154 -0.1131
  999MOL0     C37730   7.028  10.706   2.982 -0.2817  0.7499 -0.0670
  999MOL0     C37731   7.067  10.683   3.114 -0.2014 -0.2442 -0.3561
  999MOL0     O37732   7.149  10.755   3.189  0.3898  0.1038 -0.1299
  999MOL0     C37733   7.179  10.887   3.142 -0.4859  0.5334  1.2249
  999MOL0     C37734   7.281  10.968   3.216  0.0261  0.0234 -0.6153
  999MOL0     C37735   7.415  10.895   3.219 -0.7271  0.5579 -0.1191
  999MOL0     C37736   7.525  10.958   3.317 -0.0370  0.3570 -0.1561
  999MOL0     C37737   7.660  10.885   3.281  0.1692 -0.1005  0.0489
  999MOL0     C37738   7.774  10.950   3.371  0.0621 -0.1319  0.3539
  999MOL0     C37739   7.908  10.888   3.330 -0.1202  0.2840 -0.1618
  999MOL0     C37740   8.020  10.970   3.405  0.5472 -0.7405 -0.3168
  999MOL0     N37741   8.157  10.918   3.412 -0.1329 -0.8247 -0.1983
  999MOL0     C37742   8.257  10.966   3.499  0.2162  0.2449 -0.3412
  999MOL0     C37743   8.370  10.910   3.456  0.8453 -0.9178 -0.2605
  999MOL0     C37744   8.509  10.941   3.513 -0.7012  0.1602  0.1173
  999MOL0     C37745   8.553  10.854   3.632 -0.8816  0.1761  0.1817
  999MOL0     C37746   8.525  10.701   3.604 -0.5665 -0.2348  0.3068
  999MOL0     C37747   8.589  10.604   3.705 -0.1404 -0.5276  0.2358
  999MOL0     O37748   8.552  10.649   3.841 -0.0224  0.1834  0.4181
  999MOL0     C37749   8.424  10.621   3.889  0.2749 -0.7686 -0.4708
  999MOL0     C37750   8.390  10.685   4.012 -0.2515 -0.6755  0.5217
  999MOL0     C37751   8.261  10.681   4.073  0.7317 -0.2840 -0.1731
  999MOL0     C37752   8.234  10.776   4.184 -0.4697 -0.1385  0.0078
  999MOL0     C37753   8.167  10.602   4.017  0.2375 -0.2614  0.2299
  999MOL0     C37754   8.034  10.575   4.083 -0.4818  0.3329 -0.3212
  999MOL0     O37755   7.942  10.561   3.993  0.7745  0.3915  0.0255
  999MOL0     C37756   7.816  10.508   4.026  0.0415  0.0956  0.2059
  999MOL0     C37757   7.704  10.558   3.948 -0.1017 -0.2040 -0.3518
  999MOL0     C37758   7.579  10.514   3.986  0.6213  0.4786  0.3091
  999MOL0     C37759   7.558  10.404   4.068  0.4490  0.6965 -0.6539
  999MOL0     O37760   7.423  10.359   4.093  0.2021  0.0058 -0.6022
  999MOL0     C37761   7.366  10.385   4.228  0.2718  0.1314  0.0041
  999MOL0     C37762   7.245  10.486   4.234  0.6552 -0.0457 -0.0074
  999MOL0     C37763   7.287  10.632   4.206 -0.6004 -0.2830 -0.5620
  999MOL0     C37764   7.166  10.716   4.166  1.1174  0.3001  0.1369
  999MOL0     C37765   7.053  10.710   4.265  0.2012  0.0434  0.7626
  999MOL0     C37766   7.089  10.739   4.407 -0.1294 -0.2760 -0.1521
  999MOL0     C37767   7.127  10.887   4.420 -0.4650 -0.2515  0.6070
  999MOL0     C37768   7.122  10.922   4.571  0.1140  1.0606  0.6016
  999MOL0    Cl37769   7.131  11.101   4.564  0.1244 -0.0341 -0.0764
  999MOL0     C37770   7.662  10.347   4.133  0.2204 -0.3096 -0.8911
  999MOL0     C37771   7.791  10.409   4.120  0.1865 -0.2751  0.1823
  999MOL0     O37772   8.021  10.584   4.206  0.2208  0.1426  0.4535
  999MOL0     C37773   8.206  10.523   3.906 -0.0407 -0.7078  1.0261
  999MOL0     C37774   8.325  10.535   3.839  0.1766  0.6364  0.0284
  999MOL0     N37775   8.344  10.841   3.335  0.8140  0.0860  0.2094
  999MOL0     N37776   8.221  10.844   3.316  0.6177 -0.1555 -0.3688
  999MOL0     C37777   7.015  10.567   3.180  0.7818 -1.0196 -0.1291
  999MOL0     C37778   6.920  10.482   3.111  0.4669 -0.1626 -0.0040
  999MOL0     C37779   6.695  10.264   2.813 -0.2791  0.9650 -0.5273
  999MOL0     C37780   6.562  10.261   2.860 -0.4996 -0.2284  0.1866
  999MOL0     C37781   6.454  10.243   2.775 -0.4831 -0.2797  0.6162
  999MOL0     C37782   6.472  10.191   2.643 -0.2354 -0.8043 -0.4148
  999MOL0     O37783   6.366  10.183   2.558 -0.6020  0.3127 -0.8134
  999MOL0     C37784   6.237  10.117   2.607 -0.4365 -0.4977 -0.4488
  999MOL0     C37785   6.270   9.976   2.650 -0.6561 -0.4475  0.3386
  999MOL0     C37786   6.236   9.869   2.554 -1.3423  0.8368 -0.4571
  999MOL0     C37787   6.300   9.730   2.600 -0.0694 -0.2514  0.5640
  999MOL0     C37788   6.235   9.694   2.727 -0.5254  0.9413 -0.1610
  999MOL0     C37789   6.172   9.647   2.819  0.5384  0.0980  0.7673
  999MOL0     C37790   6.607  10.165   2.603  0.6933  0.7786 -0.8946
  999MOL0     C37791   6.717  10.211   2.685  0.4640  0.3760 -0.6605
  999MOL0     C37792   6.846  10.191   2.623 -0.4315  0.4091 -0.2510
  999MOL0     H37793   6.902  10.646   2.820  2.7622 -1.6006 -1.6470
  999MOL0     H37794   7.051  10.788   2.915 -2.2215 -0.1629 -1.9859
  999MOL0     H37795   7.091  10.951   3.124  2.4888  4.0719 -2.8473
  999MOL0     H37796   7.227  10.870   3.045  0.0420 -1.6528  1.8364
  999MOL0     H37797   7.286  11.068   3.172  0.9213  0.4608  0.4093
  999MOL0     H37798   7.248  10.978   3.320  2.6650 -1.4751  0.4869
  999MOL0     H37799   7.404  10.800   3.272  3.6679  1.4070  2.8371
  999MOL0     H37800   7.453  10.879   3.118 -1.8651  1.1436 -0.6616
  999MOL0     H37801   7.527  11.066   3.300  0.6883  0.1859 -1.2451
  999MOL0     H37802   7.497  10.926   3.418 -1.3556  0.5635 -0.4343
  999MOL0     H37803   7.683  10.911   3.177  0.0978  1.5554  0.4192
  999MOL0     H37804   7.657  10.778   3.302  0.1948 -0.1707 -0.2997
  999MOL0     H37805   7.779  11.059   3.364  1.2475 -0.0755  1.7349
  999MOL0     H37806   7.763  10.915   3.473 -0.2137 -0.7749  0.1069
  999MOL0     H37807   7.915  10.888   3.221 -2.8327 -4.1219 -0.5967
  999MOL0     H37808   7.899  10.785   3.367 -0.0568  1.0962  2.2788
  999MOL0     H37809   8.027  11.069   3.360  4.6557 -0.2543  0.9556
  999MOL0     H37810   7.998  10.981   3.511  3.0866 -0.8260  0.2752
  999MOL0     H37811   8.242  11.014   3.595 -3.2134 -1.4410  0.1221
  999MOL0     H37812   8.517  11.045   3.548  4.2674 -0.0163  0.2852
  999MOL0     H37813   8.584  10.941   3.434  1.9340 -0.7271  2.4251
  999MOL0     H37814   8.662  10.854   3.631 -0.8043 -2.7016 -0.2530
  999MOL0     H37815   8.516  10.880   3.731 -1.6374 -0.1514 -0.0068
  999MOL0     H37816   8.417  10.683   3.602 -0.7153 -0.1576  3.5361
  999MOL0     H37817   8.561  10.682   3.502 -2.7451 -1.4410 -0.2911
  999MOL0     H37818   8.567  10.500   3.679 -1.3826 -0.6391  1.6187
  999MOL0     H37819   8.698  10.604   3.702 -0.0837  2.0002  0.4792
  999MOL0     H37820   8.450  10.767   4.050 -0.5788  0.9883 -2.2420
  999MOL0     H37821   8.127  10.799   4.193 -0.3799 -0.4071  6.3621
  999MOL0     H37822   8.296  10.865   4.173  0.3275 -0.8362 -1.3215
  999MOL0     H37823   8.261  10.730   4.280 -3.1117 -1.8679  0.0390
  999MOL0     H37824   7.710  10.639   3.877  2.5002  1.2549  1.3845
  999MOL0     H37825   7.497  10.576   3.953 -0.6395 -2.1912 -2.0304
  999MOL0     H37826   7.325  10.290   4.263  2.0803 -0.3456  0.9806
  999MOL0     H37827   7.439  10.417   4.303  0.3613  1.7628 -0.7407
  999MOL0     H37828   7.166  10.450   4.167  0.0624 -1.1478  1.2403
  999MOL0     H37829   7.203  10.481   4.335  0.2394  0.1019 -0.1695
  999MOL0     H37830   7.368  10.622   4.134 -1.7173 -1.2545 -1.7311
  999MOL0     H37831   7.333  10.673   4.297 -1.7170  0.0319 -0.1161
  999MOL0     H37832   7.133  10.698   4.063 -1.4357  1.4637  0.6747
  999MOL0     H37833   7.191  10.822   4.177  2.7684 -0.1694  1.2951
  999MOL0     H37834   6.969  10.766   4.223  0.8883  0.3508 -0.2431
  999MOL0     H37835   7.010  10.610   4.260 -1.7121  0.8456  0.4972
  999MOL0     H37836   7.166  10.671   4.445  1.4932  1.5482 -0.0004
  999MOL0     H37837   6.993  10.726   4.458 -0.3961  0.5541 -0.4183
  999MOL0     H37838   7.063  10.946   4.355  3.0852 -1.1421 -4.2464
  999MOL0     H37839   7.228  10.898   4.380 -0.1255 -2.3652  0.7627
  999MOL0     H37840   7.197  10.871   4.632  2.0706  0.4903 -2.0975
  999MOL0     H37841   7.027  10.885   4.610  0.2670 -2.1036 -1.6950
  999MOL0     H37842   7.658  10.265   4.203 -1.3005  2.3416  2.4259
  999MOL0     H37843   7.852  10.385   4.207 -0.3067 -0.1091  0.5817
  999MOL0     H37844   8.131  10.453   3.870  0.4996 -1.7819  1.9403
  999MOL0     H37845   8.338  10.484   3.744  1.2576 -0.5977  0.8043
  999MOL0     H37846   7.051  10.549   3.280 -4.3123  0.8813  2.4295
  999MOL0     H37847   6.880  10.403   3.174 -0.6340 -0.0810 -0.5816
  999MOL0     H37848   6.538  10.291   2.961 -1.1377  1.1696 -0.3521
  999MOL0     H37849   6.352  10.269   2.799 -0.3158  0.1116  0.9135
  999MOL0     H37850   6.192  10.169   2.692 -0.4192  1.4201 -1.5557
  999MOL0     H37851   6.166  10.137   2.526  0.1778  3.9618 -0.1324
  999MOL0     H37852   6.214   9.955   2.741  0.9912 -0.6759  1.3445
  999MOL0     H37853   6.372   9.968   2.690  0.5241 -1.3426 -2.5398
  999MOL0     H37854   6.129   9.869   2.532 -1.1320 -3.5815 -2.5062
  999MOL0     H37855   6.290   9.892   2.461  0.1463 -1.2824 -0.1839
  999MOL0     H37856   6.409   9.727   2.617 -0.1241 -0.2091  0.9439
  999MOL0     H37857   6.287   9.653   2.524 -1.2694 -0.7861  1.2862
  999MOL0     H37858   6.121   9.634   2.913 -1.4972 -2.2658 -0.5761
  999MOL0     H37859   6.621  10.141   2.498 -2.2534  0.2792 -1.2393
  999MOL0     H37860   6.872  10.282   2.568  3.4355  1.0934  2.2822
  999MOL0     H37861   6.932  10.178   2.690  0.9371  2.6396 -1.4307
  999MOL0     H37862   6.830  10.110   2.552 -3.7724  1.7906 -1.2791
 1000MOL0     O37863   6.058   2.815  11.232 -0.9543  0.0642 -0.8443
 1000MOL0     C37864   6.060   2.866  11.119  0.2386  0.0656  0.2053
 1000MOL0     O37865   5.967   2.846  11.027  1.5654 -0.1173  0.5552
 1000MOL0     C37866   5.837   2.796  11.057  0.2210  0.3884 -0.6814
 1000MOL0     C37867   5.787   2.745  11.169 -0.0244 -0.2992 -0.4168
 1000MOL0     C37868   5.659   2.703  11.186 -0.2032 -0.6194  0.1744
 1000MOL0     C37869   5.567   2.707  11.071 -0.3033 -0.5345 -0.5262
 1000MOL0     O37870   5.436   2.677  11.089 -0.8514  0.4131  0.6360
 1000MOL0     C37871   5.346   2.673  10.976 -0.0917  0.0171  0.0021
 1000MOL0     C37872   5.204   2.628  11.022  0.0382 -0.6308  0.3951
 1000MOL0     C37873   5.126   2.745  11.086 -0.1280 -0.0682 -0.3135
 1000MOL0     C37874   4.976   2.725  11.088  0.1405  0.1083 -0.2635
 1000MOL0     C37875   4.919   2.680  10.947  0.8125 -0.6432  0.1642
 1000MOL0     C37876   4.764   2.688  10.965  0.1487 -0.2996 -0.5806
 1000MOL0     C37877   4.695   2.685  10.831  0.0464 -0.2878  0.8299
 1000MOL0     C37878   4.543   2.699  10.852  0.3121  0.0856 -0.4722
 1000MOL0     N37879   4.500   2.844  10.897 -0.5610  1.0487  0.0395
 1000MOL0     C37880   4.416   2.863  11.007  0.2020  0.9557 -0.7182
 1000MOL0     C37881   4.365   2.984  10.972  0.1865  0.6703  0.1194
 1000MOL0     C37882   4.261   3.054  11.057  0.5312 -0.8647  1.3005
 1000MOL0     C37883   4.161   3.118  10.956 -0.1485 -0.3143  0.8826
 1000MOL0     C37884   4.015   3.154  11.011 -0.3317 -0.2217 -1.2849
 1000MOL0     C37885   4.001   3.290  11.084 -1.0287  0.7551 -0.5829
 1000MOL0     O37886   3.978   3.408  11.004 -0.5935 -0.4985 -0.3084
 1000MOL0     C37887   3.860   3.415  10.923 -1.5297  0.3002 -0.1684
 1000MOL0     C37888   3.741   3.346  10.955 -0.4549 -0.5025 -0.3650
 1000MOL0     C37889   3.618   3.374  10.880 -0.3099  0.5597 -0.6531
 1000MOL0     C37890   3.499   3.297  10.920 -0.1379  0.7477 -1.0073
 1000MOL0     C37891   3.626   3.458  10.770 -0.2491 -0.7122  0.4391
 1000MOL0     C37892   3.511   3.494  10.681  0.1656 -0.4492 -0.0150
 1000MOL0     O37893   3.525   3.495  10.541 -0.5854  0.2128  0.3041
 1000MOL0     C37894   3.419   3.507  10.456  0.4400  0.2121 -0.3401
 1000MOL0     C37895   3.337   3.394  10.415 -0.4076 -0.5566  0.2985
 1000MOL0     C37896   3.226   3.419  10.328  0.4438  0.4356 -0.2436
 1000MOL0     C37897   3.205   3.548  10.268  0.3929  0.0474 -0.5949
 1000MOL0     O37898   3.110   3.581  10.174 -0.1668  0.2410 -0.8294
 1000MOL0     C37899   3.024   3.467  10.126 -1.1629 -0.6660  0.2439
 1000MOL0     C37900   2.903   3.440  10.213 -0.3767 -0.5170 -0.0334
 1000MOL0     C37901   2.791   3.344  10.161  0.3240  0.7138 -0.7162
 1000MOL0     C37902   2.854   3.215  10.107  0.3041 -1.2429  0.6279
 1000MOL0     C37903   2.752   3.119  10.056  0.1339 -0.1513 -0.0746
 1000MOL0     C37904   2.819   2.997   9.991  0.0061 -0.1393  0.5091
 1000MOL0     C37905   2.709   2.902   9.944  0.3696  0.2172 -0.1765
 1000MOL0     C37906   2.775   2.792   9.875  0.3708  0.2797 -0.3206
 1000MOL0    Cl37907   2.645   2.685   9.800 -0.1303 -0.1683  0.1751
 1000MOL0     C37908   3.281   3.653  10.314  0.3556  0.2730  0.3253
 1000MOL0     C37909   3.389   3.633  10.406 -0.5814 -0.1374 -0.0456
 1000MOL0     O37910   3.414   3.528  10.742  0.1088 -0.9873  0.3934
 1000MOL0     C37911   3.755   3.511  10.734  0.3206  0.8535 -0.5856
 1000MOL0     C37912   3.871   3.495  10.815 -0.5192  0.5189  0.2159
 1000MOL0     N37913   4.423   3.041  10.859  0.4882  1.1668 -0.1951
 1000MOL0     N37914   4.506   2.951  10.815 -0.3683 -1.0227 -0.8213
 1000MOL0     C37915   5.628   2.761  10.951  0.0478  0.2071 -0.3918
 1000MOL0     C37916   5.761   2.798  10.945  0.3740  0.0798  0.4431
 1000MOL0     C37917   6.183   2.936  11.074 -0.3635  0.3201 -0.4443
 1000MOL0     C37918   6.181   3.000  10.945 -1.0239  0.0912 -0.6826
 1000MOL0     C37919   6.291   3.077  10.898  0.1096  0.1509  0.0457
 1000MOL0     C37920   6.406   3.085  10.975 -0.4950 -0.1295  0.8371
 1000MOL0     O37921   6.516   3.156  10.926 -0.3389 -0.2837 -0.6188
 1000MOL0     C37922   6.634   3.141  10.993 -0.1885 -0.1148 -1.0872
 1000MOL0     C37923   6.738   3.194  10.904  0.3906 -0.3452  1.1806
 1000MOL0     C37924   6.781   3.102  10.777 -0.3192  0.6854 -0.3811
 1000MOL0     C37925   6.798   3.166  10.636 -0.2035  0.3927 -0.2236
 1000MOL0     C37926   6.894   3.285  10.638  0.3911  0.2308 -0.6443
 1000MOL0     C37927   6.977   3.368  10.672 -0.0431  0.5738  0.1461
 1000MOL0     C37928   6.408   3.016  11.098  0.0977 -0.2689  0.8959
 1000MOL0     C37929   6.298   2.950  11.153 -0.0743  0.7298  0.7944
 1000MOL0     C37930   6.324   2.884  11.284 -0.1780 -0.2521 -1.0316
 1000MOL0     H37931   5.846   2.738  11.260 -1.6033 -4.3966  0.5230
 1000MOL0     H37932   5.626   2.679  11.286 -0.1987  0.5076  0.4688
 1000MOL0     H37933   5.385   2.587  10.920  2.4757  0.7701  0.5205
 1000MOL0     H37934   5.340   2.773  10.933  1.2871 -0.4534 -1.3928
 1000MOL0     H37935   5.154   2.590  10.932  0.4458  0.0679 -0.1403
 1000MOL0     H37936   5.206   2.548  11.096 -1.1434  0.7207  1.9792
 1000MOL0     H37937   5.163   2.779  11.184 -1.4028 -0.0676  0.1878
 1000MOL0     H37938   5.134   2.835  11.025  0.0241  2.2910  2.8860
 1000MOL0     H37939   4.948   2.664  11.174  2.7518 -1.1183 -0.1806
 1000MOL0     H37940   4.936   2.825  11.108  0.4215  1.5243 -5.2264
 1000MOL0     H37941   4.961   2.582  10.923  2.8800 -0.1365  1.5000
 1000MOL0     H37942   4.958   2.742  10.866  0.7355 -2.0783 -0.9949
 1000MOL0     H37943   4.737   2.606  11.032  0.3296  1.1169  1.3235
 1000MOL0     H37944   4.746   2.781  11.021 -2.6369 -0.5807 -0.8656
 1000MOL0     H37945   4.709   2.598  10.766 -0.2083  1.0205 -1.0629
 1000MOL0     H37946   4.731   2.776  10.782  0.2613  0.7879  2.8604
 1000MOL0     H37947   4.487   2.668  10.764  1.7202 -4.1541 -0.1164
 1000MOL0     H37948   4.520   2.627  10.931  1.7431 -0.7936 -0.8328
 1000MOL0     H37949   4.384   2.805  11.092 -2.2432  2.2941 -0.6483
 1000MOL0     H37950   4.303   3.134  11.117 -2.3141  2.3231 -0.5949
 1000MOL0     H37951   4.208   2.972  11.107 -4.3617  1.5994  0.8395
 1000MOL0     H37952   4.200   3.201  10.897 -0.7618  0.1138  1.0801
 1000MOL0     H37953   4.138   3.034  10.889  2.9430 -0.3845 -0.2473
 1000MOL0     H37954   3.938   3.148  10.933 -0.2840  0.5125 -1.3986
 1000MOL0     H37955   3.991   3.081  11.089  1.8442  0.8895  0.5665
 1000MOL0     H37956   3.912   3.276  11.146 -0.7681 -1.0121 -0.5733
 1000MOL0     H37957   4.083   3.298  11.156 -2.3505 -3.5898  1.7295
 1000MOL0     H37958   3.734   3.277  11.038  2.8390  0.1506  0.5888
 1000MOL0     H37959   3.442   3.360  10.989 -0.8943 -1.0968  0.1091
 1000MOL0     H37960   3.526   3.199  10.959  0.0415  1.4904  0.8454
 1000MOL0     H37961   3.432   3.271  10.837  1.9478 -4.5549 -1.3893
 1000MOL0     H37962   3.362   3.295  10.451  1.6473 -0.0037  0.4994
 1000MOL0     H37963   3.175   3.327  10.300 -1.2807  0.9656  0.9414
 1000MOL0     H37964   2.976   3.499  10.033 -1.2491  0.8385  0.7937
 1000MOL0     H37965   3.089   3.387  10.088 -0.6747 -0.0850 -0.1514
 1000MOL0     H37966   2.950   3.395  10.301  1.5846 -1.9165 -1.7058
 1000MOL0     H37967   2.851   3.531  10.244  0.1870  0.5096 -1.9594
 1000MOL0     H37968   2.726   3.386  10.084 -0.4709  2.5323  0.8753
 1000MOL0     H37969   2.723   3.318  10.243  0.3145 -0.0166 -0.9494
 1000MOL0     H37970   2.909   3.167  10.189 -0.4572  0.2719  2.0871
 1000MOL0     H37971   2.926   3.240  10.029  1.9259 -3.8179  1.1566
 1000MOL0     H37972   2.677   3.082  10.127  1.3269 -2.3358  0.1118
 1000MOL0     H37973   2.692   3.166   9.977 -2.6999  0.7580  2.3889
 1000MOL0     H37974   2.885   2.954  10.067  2.5635  1.3601 -0.7103
 1000MOL0     H37975   2.887   3.038   9.915  0.1980 -1.2130  0.0810
 1000MOL0     H37976   2.638   2.944   9.873 -2.2162  0.4744  2.3975
 1000MOL0     H37977   2.658   2.862  10.032  0.7922  1.3806  0.6114
 1000MOL0     H37978   2.834   2.736   9.948 -0.3930 -0.5687 -0.3358
 1000MOL0     H37979   2.846   2.828   9.799  1.9704 -1.1507  0.4365
 1000MOL0     H37980   3.260   3.756  10.286  1.4281  0.6853  1.0119
 1000MOL0     H37981   3.451   3.716  10.437 -0.4003 -0.7034  1.1601
 1000MOL0     H37982   3.763   3.565  10.640 -0.3132 -0.6087 -1.5091
 1000MOL0     H37983   3.968   3.539  10.795 -0.9461  0.6208 -1.8761
 1000MOL0     H37984   5.569   2.777  10.861 -0.8935  1.5567  0.4234
 1000MOL0     H37985   5.804   2.837  10.853  1.2649 -1.6123  0.1053
 1000MOL0     H37986   6.094   2.972  10.886  0.4346 -1.9016 -2.0187
 1000MOL0     H37987   6.289   3.134  10.806  1.1438 -1.8058 -1.2617
 1000MOL0     H37988   6.637   3.199  11.086  2.7123  0.3370 -1.3478
 1000MOL0     H37989   6.666   3.038  11.011  0.5007 -0.0431 -1.8420
 1000MOL0     H37990   6.831   3.209  10.960  0.2977  1.9581  0.8002
 1000MOL0     H37991   6.707   3.289  10.859 -0.0155 -2.6134 -4.1212
 1000MOL0     H37992   6.880   3.057  10.788 -1.2519 -1.3241  0.3709
 1000MOL0     H37993   6.711   3.017  10.771 -1.5292  0.9987  4.9121
 1000MOL0     H37994   6.700   3.189  10.592 -0.3018 -1.2015 -0.9012
 1000MOL0     H37995   6.833   3.092  10.564  1.5220 -0.7648  1.7133
 1000MOL0     H37996   7.053   3.430  10.714  1.1437  0.1341 -1.2706
 1000MOL0     H37997   6.496   3.016  11.162 -0.1818  1.0556  1.3108
 1000MOL0     H37998   6.259   2.928  11.361  1.8439  0.6172  0.2828
 1000MOL0     H37999   6.318   2.776  11.271  1.6086 -0.2337 -2.3460
 1000MOL0     H38000   6.423   2.900  11.327 -0.3341 -2.3596  0.2526
 1001MOL0     O38001   4.356  11.037   6.295 -0.2356  0.5067  0.5142
 1001MOL0     C38002   4.324  11.128   6.217 -0.2674  0.4201  0.3019
 1001MOL0     O38003   4.201  11.143   6.159  0.2953  0.2230 -0.3583
 1001MOL0     C38004   4.126  11.024   6.168 -0.5486  0.7992  0.0154
 1001MOL0     C38005   4.026  11.005   6.268 -0.3386 -0.2938 -0.9506
 1001MOL0     C38006   3.933  10.896   6.266 -0.3334 -0.3698 -0.6618
 1001MOL0     C38007   3.947  10.801   6.158 -0.1006 -1.3011  0.7723
 1001MOL0     O38008   3.859  10.691   6.149  0.1306  0.0466  0.3372
 1001MOL0     C38009   3.773  10.649   6.259  0.0397 -0.4541  0.6604
 1001MOL0     C38010   3.847  10.556   6.346  0.4216 -0.7541 -0.9015
 1001MOL0     C38011   3.760  10.479   6.453  0.4983 -0.3096 -0.1315
 1001MOL0     C38012   3.839  10.411   6.562  0.3820  0.7239 -0.3051
 1001MOL0     C38013   3.764  10.326   6.658  0.3915 -0.1568  0.3642
 1001MOL0     C38014   3.699  10.202   6.587  0.8727  0.0450  0.2636
 1001MOL0     C38015   3.594  10.128   6.670  0.3729 -0.4368  0.1436
 1001MOL0     C38016   3.648  10.078   6.806 -1.4074 -0.3943  0.6075
 1001MOL0     N38017   3.743   9.963   6.804  0.3209 -0.5051 -0.3195
 1001MOL0     C38018   3.880   9.986   6.784  0.4750 -0.2094  0.3411
 1001MOL0     C38019   3.916   9.874   6.728  0.4203  0.2338 -0.6123
 1001MOL0     C38020   4.037   9.839   6.650 -1.8308 -0.0425 -0.2279
 1001MOL0     C38021   4.132   9.738   6.720 -0.1230  0.2321 -0.2586
 1001MOL0     C38022   4.272   9.745   6.658  0.1295 -0.1081 -0.7337
 1001MOL0     C38023   4.367   9.635   6.699  0.5589  0.2518 -0.0737
 1001MOL0     O38024   4.493   9.669   6.636 -0.6880 -0.1803  0.1061
 1001MOL0     C38025   4.572   9.568   6.593 -0.1065  1.1673 -0.7545
 1001MOL0     C38026   4.686   9.606   6.523  0.7287  0.4495 -0.2929
 1001MOL0     C38027   4.791   9.520   6.486  0.0056  0.3280  0.3905
 1001MOL0     C38028   4.898   9.589   6.405 -0.0743 -0.2029  0.0145
 1001MOL0     C38029   4.776   9.381   6.517  0.1773 -0.3486  0.9510
 1001MOL0     C38030   4.883   9.281   6.490 -0.5065  0.8629  0.1459
 1001MOL0     O38031   4.844   9.156   6.458  0.0921  0.1120 -0.1559
 1001MOL0     C38032   4.910   9.041   6.505 -0.7440  0.2019  0.0851
 1001MOL0     C38033   4.839   8.931   6.467 -0.1091 -0.5496  0.4904
 1001MOL0     C38034   4.886   8.806   6.510 -0.7392 -0.4239  0.0801
 1001MOL0     C38035   5.005   8.790   6.587 -0.2761 -0.0561 -0.4214
 1001MOL0     O38036   5.066   8.671   6.617  0.0697  0.0383 -0.2631
 1001MOL0     C38037   5.004   8.604   6.724 -0.5951 -0.3290  1.2084
 1001MOL0     C38038   5.098   8.557   6.831 -0.5485  0.7380  0.2223
 1001MOL0     C38039   5.221   8.635   6.863 -0.2161  0.7615  0.3416
 1001MOL0     C38040   5.178   8.744   6.960  0.1323  0.0263 -0.4318
 1001MOL0     C38041   5.305   8.824   7.013  0.5693 -0.0317 -0.0610
 1001MOL0     C38042   5.401   8.879   6.897 -0.6866 -0.6706  0.1190
 1001MOL0     C38043   5.453   9.014   6.919  0.2939  0.2044 -0.4384
 1001MOL0     C38044   5.347   9.120   6.915 -0.5024 -0.7248 -0.5779
 1001MOL0    Cl38045   5.439   9.266   6.900  0.3349 -0.1457  0.2902
 1001MOL0     C38046   5.069   8.903   6.634  0.2712 -0.5345  0.6130
 1001MOL0     C38047   5.014   9.029   6.599  0.2542  0.0812  0.0641
 1001MOL0     O38048   5.002   9.307   6.516  0.2794 -0.0885  0.0299
 1001MOL0     C38049   4.659   9.341   6.587  0.0669  0.1767  0.3063
 1001MOL0     C38050   4.564   9.433   6.628  0.7755  0.7236  0.6741
 1001MOL0     N38051   3.818   9.779   6.735  0.1882 -1.0832 -0.4086
 1001MOL0     N38052   3.711   9.836   6.772  0.5357 -0.1221 -0.7706
 1001MOL0     C38053   4.054  10.818   6.065  1.2354  0.6773 -0.3110
 1001MOL0     C38054   4.142  10.923   6.068  0.7861  0.9837 -0.2024
 1001MOL0     C38055   4.417  11.240   6.189 -0.0666  0.4783 -0.2018
 1001MOL0     C38056   4.526  11.262   6.270  0.4021 -1.1169 -0.1223
 1001MOL0     C38057   4.620  11.358   6.245  0.0131 -0.3990  0.5390
 1001MOL0     C38058   4.613  11.443   6.126 -0.2783 -0.7457 -0.4666
 1001MOL0     O38059   4.696  11.549   6.103  0.4840 -0.4075  0.4198
 1001MOL0     C38060   4.839  11.526   6.104  0.7939  0.1877  0.4245
 1001MOL0     C38061   4.884  11.541   5.955 -1.0846  0.5819 -0.5987
 1001MOL0     C38062   4.977  11.421   5.911  0.8803 -0.6905 -0.1039
 1001MOL0     C38063   5.080  11.450   5.794 -0.8175  0.2935 -0.3997
 1001MOL0     C38064   5.061  11.383   5.667  0.0121 -0.2686 -0.4675
 1001MOL0     C38065   5.027  11.341   5.557 -0.1067  0.1252  0.5080
 1001MOL0     C38066   4.501  11.430   6.045  0.3130  0.1116  0.1336
 1001MOL0     C38067   4.404  11.334   6.073 -0.5169 -0.0518  0.1978
 1001MOL0     C38068   4.296  11.327   5.979  0.2496  0.2432  0.9947
 1001MOL0     H38069   4.024  11.072   6.353 -1.3143 -2.2824  0.6696
 1001MOL0     H38070   3.850  10.907   6.335  0.2995  1.3206 -0.1174
 1001MOL0     H38071   3.674  10.613   6.228 -0.5511 -2.5181  4.3729
 1001MOL0     H38072   3.753  10.740   6.315 -2.3624  1.6958 -3.2390
 1001MOL0     H38073   3.890  10.474   6.288  0.3222 -0.2080 -1.7600
 1001MOL0     H38074   3.931  10.608   6.391  0.9683 -1.8592 -0.6025
 1001MOL0     H38075   3.694  10.547   6.508 -0.8874 -2.2076  0.7040
 1001MOL0     H38076   3.696  10.408   6.399 -1.9163 -0.5427  2.7380
 1001MOL0     H38077   3.922  10.358   6.514 -0.7175 -1.2964 -0.1166
 1001MOL0     H38078   3.882  10.492   6.621 -2.6401  3.4205 -1.5216
 1001MOL0     H38079   3.685  10.377   6.715 -0.0022  0.1593 -0.4487
 1001MOL0     H38080   3.838  10.293   6.731 -1.2259  2.0404  3.2074
 1001MOL0     H38081   3.652  10.243   6.497  1.9759 -1.1069 -0.8660
 1001MOL0     H38082   3.783  10.143   6.550  2.1642  1.8727  0.1600
 1001MOL0     H38083   3.547  10.042   6.621 -3.1529  0.9776  0.7443
 1001MOL0     H38084   3.511  10.192   6.700 -0.7151 -2.0551  0.7762
 1001MOL0     H38085   3.698  10.159   6.861  1.9670 -1.1655 -1.0780
 1001MOL0     H38086   3.561  10.042   6.861 -2.3616 -0.6158 -1.0094
 1001MOL0     H38087   3.945  10.070   6.803 -0.1005  0.0033  1.4363
 1001MOL0     H38088   4.093   9.930   6.627 -0.7584 -0.0213  2.2332
 1001MOL0     H38089   4.004   9.796   6.555  0.9025  0.4502 -1.4875
 1001MOL0     H38090   4.155   9.753   6.826  1.7961 -2.5829 -0.1651
 1001MOL0     H38091   4.085   9.639   6.721  1.8856 -0.7675  0.5406
 1001MOL0     H38092   4.260   9.734   6.550 -0.1937  0.5470 -0.7716
 1001MOL0     H38093   4.301   9.849   6.675 -4.0272  0.8738  1.7061
 1001MOL0     H38094   4.383   9.631   6.807  2.0256  0.5540 -0.2617
 1001MOL0     H38095   4.319   9.539   6.678 -1.8506  1.1156  1.1725
 1001MOL0     H38096   4.705   9.713   6.514  0.2934  0.4658 -1.1240
 1001MOL0     H38097   4.859   9.657   6.328  0.9393 -1.3102 -1.5275
 1001MOL0     H38098   4.946   9.511   6.347  0.8492 -0.0636  0.5764
 1001MOL0     H38099   4.975   9.632   6.469 -2.1157  0.4620  2.1822
 1001MOL0     H38100   4.749   8.933   6.405  0.6764 -0.1631 -0.6795
 1001MOL0     H38101   4.845   8.707   6.495 -1.2922 -0.4670  1.6891
 1001MOL0     H38102   4.926   8.667   6.768 -0.9455  0.5533 -0.5886
 1001MOL0     H38103   4.940   8.530   6.675 -0.6841  0.2789  0.3851
 1001MOL0     H38104   5.052   8.525   6.925  0.1693 -5.1027 -1.0318
 1001MOL0     H38105   5.141   8.469   6.783 -0.7965  1.7926 -2.0914
 1001MOL0     H38106   5.267   8.668   6.770  0.3827 -0.5557  0.1538
 1001MOL0     H38107   5.280   8.567   6.925 -0.8976 -1.7352 -1.5989
 1001MOL0     H38108   5.132   8.701   7.050  1.5329  0.4563  0.5352
 1001MOL0     H38109   5.104   8.813   6.918 -0.0056 -0.3960 -0.8902
 1001MOL0     H38110   5.267   8.911   7.068 -0.5528 -0.0449 -0.7658
 1001MOL0     H38111   5.356   8.757   7.082 -1.0480  0.6297  1.8542
 1001MOL0     H38112   5.333   8.885   6.812 -0.5877  1.1106  0.1240
 1001MOL0     H38113   5.479   8.806   6.873  2.7317  2.2038  1.5126
 1001MOL0     H38114   5.533   9.027   6.846  0.9269  0.3269  0.2764
 1001MOL0     H38115   5.493   9.022   7.021 -1.6632 -1.7431  0.5757
 1001MOL0     H38116   5.288   9.125   7.007 -0.4816  0.2366 -0.6087
 1001MOL0     H38117   5.271   9.104   6.837 -0.8224  0.0894 -0.4390
 1001MOL0     H38118   5.158   8.901   6.696  0.4656  2.1503  0.5331
 1001MOL0     H38119   5.071   9.110   6.643 -0.8757  0.1097  1.5549
 1001MOL0     H38120   4.639   9.238   6.612 -3.3203  0.4894 -0.6179
 1001MOL0     H38121   4.480   9.386   6.679  1.4279 -2.1984 -0.7293
 1001MOL0     H38122   4.066  10.745   5.986  0.0245 -2.2378  1.9826
 1001MOL0     H38123   4.215  10.943   5.990 -2.2371  0.3007 -3.4355
 1001MOL0     H38124   4.522  11.197   6.357  3.7276 -0.5384  0.6155
 1001MOL0     H38125   4.706  11.352   6.310  0.5957  1.8614  0.0439
 1001MOL0     H38126   4.902  11.587   6.170  2.3147 -0.6843 -0.1786
 1001MOL0     H38127   4.858  11.427   6.145 -1.2511  0.3815  2.0097
 1001MOL0     H38128   4.936  11.637   5.946  0.6137  0.2053  3.2815
 1001MOL0     H38129   4.806  11.546   5.878  1.5137 -2.1799 -3.7632
 1001MOL0     H38130   5.038  11.397   5.998  2.2900  0.2517 -0.7875
 1001MOL0     H38131   4.904  11.342   5.888  2.0987 -0.9635 -3.6392
 1001MOL0     H38132   5.176  11.407   5.826 -1.4536  0.6048  2.1290
 1001MOL0     H38133   5.077  11.558   5.780 -3.7707  0.7124  2.2979
 1001MOL0     H38134   5.024  11.301   5.458  1.2481 -0.1021  0.5456
 1001MOL0     H38135   4.459  11.514   5.991 -2.5826 -0.2879  1.5680
 1001MOL0     H38136   4.299  11.235   5.920  1.0709  2.1799 -2.2259
 1001MOL0     H38137   4.205  11.341   6.037 -0.0066 -0.8415  0.8843
 1001MOL0     H38138   4.308  11.402   5.901  1.0561 -0.3783  0.5085
 1002MOL0     O38139   3.005   8.013   7.330 -0.7776  0.2773 -0.2671
 1002MOL0     C38140   3.005   7.898   7.383 -0.4984  0.3895  0.9431
 1002MOL0     O38141   3.115   7.830   7.426 -0.6142 -0.0604  0.0079
 1002MOL0     C38142   3.234   7.898   7.424 -0.0690  1.1405 -0.8238
 1002MOL0     C38143   3.265   7.977   7.534  0.0792 -1.0260 -0.0132
 1002MOL0     C38144   3.388   8.039   7.539 -0.0560  0.2778  0.8689
 1002MOL0     C38145   3.480   8.036   7.439  0.1153  0.3111  0.1491
 1002MOL0     O38146   3.592   8.108   7.470  0.3639 -0.0114 -1.3270
 1002MOL0     C38147   3.703   8.128   7.372  0.3563 -0.1190 -0.1634
 1002MOL0     C38148   3.819   8.030   7.375 -0.0216 -0.0557  0.3003
 1002MOL0     C38149   3.908   8.039   7.255 -0.2945  0.3208  0.0485
 1002MOL0     C38150   3.994   7.910   7.249  0.4991  0.6630 -0.6617
 1002MOL0     C38151   4.051   7.899   7.111  0.4777 -1.5770  0.9264
 1002MOL0     C38152   4.146   7.790   7.089  0.1066  0.1978 -0.5872
 1002MOL0     C38153   4.071   7.652   7.093  0.4303  0.6200  0.8814
 1002MOL0     C38154   4.152   7.535   7.126 -0.6077  0.6506  0.6317
 1002MOL0     N38155   4.206   7.538   7.263  0.2360  0.1684  1.0267
 1002MOL0     C38156   4.135   7.541   7.378 -0.2265 -0.7279 -0.8193
 1002MOL0     C38157   4.221   7.579   7.477 -0.0076  0.1863 -0.0969
 1002MOL0     C38158   4.198   7.611   7.625 -0.5726  1.0312 -0.5188
 1002MOL0     C38159   4.154   7.757   7.623  0.1470  0.1873 -0.4458
 1002MOL0     C38160   4.143   7.810   7.768  0.7180  0.1497  0.6555
 1002MOL0     C38161   4.215   7.945   7.779  0.7943  0.9699 -0.9472
 1002MOL0     O38162   4.160   8.033   7.674  0.3175  0.8341  0.3295
 1002MOL0     C38163   4.074   8.127   7.709  0.0138  0.3406 -0.0824
 1002MOL0     C38164   4.047   8.228   7.616  0.1841 -0.0203  0.2717
 1002MOL0     C38165   3.957   8.337   7.645  0.6811 -0.4779 -0.9198
 1002MOL0     C38166   3.946   8.448   7.546 -0.1914 -0.5920  0.7383
 1002MOL0     C38167   3.886   8.332   7.765  0.1832 -1.2635 -0.4762
 1002MOL0     C38168   3.783   8.434   7.811 -0.5841 -0.3438  0.2191
 1002MOL0     O38169   3.701   8.402   7.918 -0.2751  1.3176  0.4798
 1002MOL0     C38170   3.595   8.482   7.952 -0.4093  0.0181  0.4919
 1002MOL0     C38171   3.477   8.419   7.983 -0.3363 -0.3030  0.0243
 1002MOL0     C38172   3.366   8.494   8.015  0.8632 -0.4582  0.0481
 1002MOL0     C38173   3.361   8.628   8.011 -0.0686 -0.2112  1.1760
 1002MOL0     O38174   3.244   8.704   8.027 -0.2093 -0.8534  0.7249
 1002MOL0     C38175   3.139   8.651   8.108 -0.1808 -0.0572  0.3305
 1002MOL0     C38176   3.180   8.646   8.254 -0.2478  1.0328 -1.6314
 1002MOL0     C38177   3.210   8.784   8.319  0.1629  0.0462  0.2406
 1002MOL0     C38178   3.289   8.777   8.443 -0.5293 -0.0881  0.3512
 1002MOL0     C38179   3.270   8.896   8.534 -0.4535 -0.6792  0.2980
 1002MOL0     C38180   3.308   9.029   8.463  0.4088  0.5505  0.0620
 1002MOL0     C38181   3.280   9.152   8.540 -0.2656 -1.1266 -0.6159
 1002MOL0     C38182   3.355   9.267   8.490 -0.2798 -0.8363  0.3242
 1002MOL0    Cl38183   3.534   9.248   8.529 -0.2250  0.1259 -0.2188
 1002MOL0     C38184   3.476   8.704   7.983 -0.0552  1.0357  0.0403
 1002MOL0     C38185   3.595   8.629   7.958 -0.0923 -0.1267 -0.0345
 1002MOL0     O38186   3.785   8.545   7.757 -0.2122  0.6475  0.6068
 1002MOL0     C38187   3.904   8.225   7.850  0.1493  0.5046 -0.3319
 1002MOL0     C38188   4.001   8.131   7.829  0.3669 -0.0541  0.0913
 1002MOL0     N38189   4.345   7.598   7.406  0.9282  0.5738  0.2060
 1002MOL0     N38190   4.332   7.560   7.282  0.1619 -0.5860  0.5898
 1002MOL0     C38191   3.453   7.951   7.330  0.6183  0.2280  0.0710
 1002MOL0     C38192   3.327   7.881   7.324  0.0820 -0.6043  0.9582
 1002MOL0     C38193   2.872   7.828   7.377 -0.0882  0.1754  0.0764
 1002MOL0     C38194   2.883   7.690   7.398 -0.2531 -0.0925  0.3023
 1002MOL0     C38195   2.774   7.607   7.395  0.8699  0.4838 -0.5150
 1002MOL0     C38196   2.649   7.656   7.374  0.7613 -0.2821  0.7253
 1002MOL0     O38197   2.540   7.566   7.354 -0.3169 -0.4977  1.1679
 1002MOL0     C38198   2.457   7.583   7.244  0.1517  0.4793 -0.5418
 1002MOL0     C38199   2.323   7.652   7.300 -0.3501 -0.4333 -0.8282
 1002MOL0     C38200   2.270   7.566   7.410 -0.1176  1.3267  0.4397
 1002MOL0     C38201   2.141   7.630   7.465 -0.1715 -0.1353 -0.1571
 1002MOL0     C38202   2.152   7.694   7.592 -0.2193  0.3190  0.1688
 1002MOL0     C38203   2.146   7.775   7.680 -1.1551  0.2235 -0.2561
 1002MOL0     C38204   2.627   7.789   7.347 -0.3221 -0.0075  0.9571
 1002MOL0     C38205   2.737   7.879   7.351  0.3075  0.8098 -0.6778
 1002MOL0     C38206   2.712   8.019   7.308 -0.0914  0.3899 -0.2630
 1002MOL0     H38207   3.186   7.989   7.607 -1.6826  0.2917 -2.0309
 1002MOL0     H38208   3.416   8.109   7.617 -2.3022  1.5766  0.5960
 1002MOL0     H38209   3.733   8.230   7.397 -1.6808 -0.1915  3.1118
 1002MOL0     H38210   3.660   8.145   7.272  0.6559  0.8752 -0.1301
 1002MOL0     H38211   3.884   8.039   7.462  0.4782 -0.2665 -0.0409
 1002MOL0     H38212   3.772   7.931   7.379  0.8599 -0.5710 -1.1957
 1002MOL0     H38213   3.849   8.052   7.164  0.5174 -1.7937 -0.8426
 1002MOL0     H38214   3.977   8.120   7.281 -0.4915  0.3381  0.5325
 1002MOL0     H38215   4.080   7.909   7.317  1.1212 -1.2754 -1.4014
 1002MOL0     H38216   3.940   7.820   7.278  1.0525  0.7066  0.5769
 1002MOL0     H38217   4.101   7.996   7.107 -0.9392 -0.6762  3.1508
 1002MOL0     H38218   3.981   7.909   7.028  1.7529  2.6454  0.1111
 1002MOL0     H38219   4.188   7.805   6.989 -1.5851  0.6184 -1.2731
 1002MOL0     H38220   4.226   7.800   7.163  0.9387  1.3556 -1.6063
 1002MOL0     H38221   4.026   7.638   6.994 -0.4351 -2.5936  1.6161
 1002MOL0     H38222   3.994   7.650   7.170 -0.0942  2.9773  0.4803
 1002MOL0     H38223   4.079   7.458   7.100 -0.5069  1.3401 -1.9160
 1002MOL0     H38224   4.232   7.527   7.052  0.9977 -1.8812  2.4641
 1002MOL0     H38225   4.033   7.515   7.402  0.0966 -0.2667  1.2277
 1002MOL0     H38226   4.298   7.598   7.667 -0.3062  0.9318 -1.1661
 1002MOL0     H38227   4.129   7.537   7.666  1.0418 -1.5527 -2.2049
 1002MOL0     H38228   4.227   7.816   7.568 -0.9481 -0.9050 -3.2730
 1002MOL0     H38229   4.056   7.775   7.578  0.0564  1.3340  0.1690
 1002MOL0     H38230   4.037   7.823   7.794 -0.9156 -0.6820 -4.4728
 1002MOL0     H38231   4.192   7.741   7.837 -0.2564 -1.2963 -0.0444
 1002MOL0     H38232   4.203   7.990   7.878 -3.4563  0.8957 -1.2741
 1002MOL0     H38233   4.321   7.927   7.760  0.5483  1.1092 -2.6155
 1002MOL0     H38234   4.096   8.217   7.519  0.8491 -0.4615  0.6487
 1002MOL0     H38235   3.987   8.534   7.599  0.1715 -1.4529  1.8971
 1002MOL0     H38236   3.844   8.471   7.517  0.9378  3.0550 -0.8544
 1002MOL0     H38237   4.001   8.428   7.453  0.7532  0.4493  1.0510
 1002MOL0     H38238   3.476   8.312   7.997  0.3736 -0.0437  2.8502
 1002MOL0     H38239   3.282   8.431   8.040  0.3949  0.2328  0.2516
 1002MOL0     H38240   3.054   8.719   8.123 -1.8405 -1.5978 -1.5472
 1002MOL0     H38241   3.097   8.559   8.066  0.7293 -0.9063  1.2210
 1002MOL0     H38242   3.090   8.612   8.307  0.7360  1.0866  0.1457
 1002MOL0     H38243   3.258   8.572   8.277 -2.7234 -1.2537  0.0525
 1002MOL0     H38244   3.118   8.838   8.343  1.9204  3.1889  0.4142
 1002MOL0     H38245   3.259   8.857   8.254  4.0039 -0.2286  2.5270
 1002MOL0     H38246   3.393   8.751   8.422 -0.6568 -2.8556  2.5064
 1002MOL0     H38247   3.256   8.688   8.497  1.7006 -0.9995  0.3231
 1002MOL0     H38248   3.166   8.911   8.566  0.1673 -0.1166  2.1888
 1002MOL0     H38249   3.326   8.868   8.623  2.2103 -3.2553 -1.9812
 1002MOL0     H38250   3.252   9.036   8.369  1.1325 -3.1857 -0.8487
 1002MOL0     H38251   3.408   9.028   8.418 -0.4033  4.9310 -2.3736
 1002MOL0     H38252   3.308   9.130   8.643  0.9903 -2.3837 -1.1891
 1002MOL0     H38253   3.173   9.172   8.528 -0.2879 -1.1057 -0.3700
 1002MOL0     H38254   3.315   9.360   8.531 -1.3506 -1.5700  0.9644
 1002MOL0     H38255   3.341   9.270   8.381  1.8945 -1.5628 -0.0219
 1002MOL0     H38256   3.479   8.812   7.997 -3.7534  1.0811  1.5674
 1002MOL0     H38257   3.690   8.678   7.939  0.1330 -0.9227 -1.0634
 1002MOL0     H38258   3.850   8.238   7.944 -0.4417  3.4337 -0.9582
 1002MOL0     H38259   4.003   8.052   7.904 -0.3152  1.0751  1.3554
 1002MOL0     H38260   3.519   7.917   7.250  0.2187  0.6466 -0.4433
 1002MOL0     H38261   3.284   7.811   7.254 -2.6008 -1.9563  3.7255
 1002MOL0     H38262   2.981   7.642   7.404  1.8045  3.3375 -2.2010
 1002MOL0     H38263   2.788   7.503   7.421  1.6357  0.2631 -1.7396
 1002MOL0     H38264   2.495   7.647   7.164 -3.0263  1.4446 -1.4193
 1002MOL0     H38265   2.440   7.479   7.215  1.9286 -0.5234  1.7320
 1002MOL0     H38266   2.251   7.649   7.218 -0.6067 -1.5909 -0.5717
 1002MOL0     H38267   2.343   7.756   7.330  1.8240 -1.6919  2.7419
 1002MOL0     H38268   2.251   7.462   7.380 -0.7971  1.8757 -1.1385
 1002MOL0     H38269   2.340   7.558   7.494  1.9126 -1.6896 -1.3078
 1002MOL0     H38270   2.058   7.559   7.476 -0.9346  0.4055 -1.9831
 1002MOL0     H38271   2.105   7.709   7.399 -0.9149  0.1909  0.6178
 1002MOL0     H38272   2.154   7.861   7.743 -0.6130  1.8830 -2.4631
 1002MOL0     H38273   2.528   7.825   7.323 -0.5055 -1.4966 -0.7605
 1002MOL0     H38274   2.805   8.052   7.259  0.1400  4.4552  2.4294
 1002MOL0     H38275   2.631   8.011   7.235 -0.4825 -1.0085  0.3005
 1002MOL0     H38276   2.679   8.089   7.385 -0.6230  1.5501 -1.5051
 1003MOL0     O38277   7.073  11.063   0.354 -0.6555  0.7538 -0.4381
 1003MOL0     C38278   7.113  11.139   0.268 -0.2120 -0.4169 -0.4689
 1003MOL0     O38279   7.075  11.266   0.264  0.8006 -0.7736 -0.0048
 1003MOL0     C38280   6.967  11.299   0.339  0.3385  0.3094 -0.0752
 1003MOL0     C38281   6.977  11.390   0.447  0.9025 -0.0758  0.9278
 1003MOL0     C38282   6.862  11.452   0.498  0.0478  0.4043  0.4622
 1003MOL0     C38283   6.736  11.407   0.455  0.4630  0.4620  0.0482
 1003MOL0     O38284   6.635  11.479   0.509 -0.4614 -0.2679  0.1516
 1003MOL0     C38285   6.501  11.436   0.483 -0.4393 -0.3966 -0.2404
 1003MOL0     C38286   6.407  11.530   0.544 -0.4502 -0.4004  1.5218
 1003MOL0     C38287   6.255  11.511   0.510  0.5944  0.3200 -0.2833
 1003MOL0     C38288   6.150  11.534   0.630  0.4372  0.1518  0.5776
 1003MOL0     C38289   6.010  11.529   0.579  0.9667  0.2407 -0.0622
 1003MOL0     C38290   5.919  11.524   0.701  0.1077  0.4431  1.0377
 1003MOL0     C38291   5.931  11.404   0.797  0.6472  0.7220 -0.5143
 1003MOL0     C38292   5.838  11.402   0.911 -0.1448 -0.1365 -0.3473
 1003MOL0     N38293   5.831  11.531   0.975  1.6141  0.4868 -0.2119
 1003MOL0     C38294   5.744  11.630   0.936 -0.1685  0.4053 -0.0538
 1003MOL0     C38295   5.749  11.715   1.042 -0.6507  0.2800 -0.1597
 1003MOL0     C38296   5.639  11.816   1.055 -0.3270  0.3383  0.3379
 1003MOL0     C38297   5.694  11.957   1.054  0.4147  0.6927 -0.2511
 1003MOL0     C38298   5.564  12.046   1.080 -0.4382  0.3031  0.1466
 1003MOL0     C38299   5.577  12.195   1.034  0.7791 -0.2225 -0.5587
 1003MOL0     O38300   5.522  12.280   1.137  0.1825 -0.0936 -0.1900
 1003MOL0     C38301   5.451  12.390   1.106  0.3792  0.0198  0.5108
 1003MOL0     C38302   5.408  12.437   0.978 -1.0179  0.0061  1.2023
 1003MOL0     C38303   5.343  12.549   0.967  0.1565  0.1694  0.5402
 1003MOL0     C38304   5.345  12.613   0.824  0.0346 -0.9639 -0.1598
 1003MOL0     C38305   5.303  12.628   1.085  0.1504 -0.6559  0.2288
 1003MOL0     C38306   5.253  12.772   1.089 -0.1315  0.3481  0.1911
 1003MOL0     O38307   5.241  12.834   1.202 -0.1042 -0.1374  0.3324
 1003MOL0     C38308   5.194  12.961   1.193 -0.1538 -0.8374  0.3821
 1003MOL0     C38309   5.271  13.076   1.204 -0.6490 -0.5416 -0.0884
 1003MOL0     C38310   5.219  13.199   1.230  0.1514  0.7284  0.2849
 1003MOL0     C38311   5.076  13.214   1.208  0.0180 -1.0659 -0.4547
 1003MOL0     O38312   5.029  13.344   1.212 -0.5930  0.8293  0.2405
 1003MOL0     C38313   4.921  13.363   1.119 -0.2182 -0.2190  0.0150
 1003MOL0     C38314   4.926  13.502   1.046  0.0874 -0.1794 -0.2061
 1003MOL0     C38315   4.782  13.561   1.038 -0.0695 -0.4637  0.3674
 1003MOL0     C38316   4.762  13.686   0.964  0.3425  0.2142  0.2285
 1003MOL0     C38317   4.767  13.677   0.812 -0.0485 -0.5147  0.7221
 1003MOL0     C38318   4.751  13.813   0.750  0.3012 -0.5242  0.3089
 1003MOL0     C38319   4.740  13.805   0.600  0.3489 -0.0050 -0.2727
 1003MOL0     C38320   4.724  13.945   0.534 -0.0440 -0.0845 -0.3374
 1003MOL0    Cl38321   4.724  13.915   0.350 -0.1049 -0.4089  0.2062
 1003MOL0     C38322   4.995  13.099   1.209 -0.7590  0.0815  1.5239
 1003MOL0     C38323   5.054  12.972   1.200  0.5142 -0.6674  0.1513
 1003MOL0     O38324   5.211  12.811   0.981  0.4151 -0.2322  0.3166
 1003MOL0     C38325   5.328  12.568   1.209 -0.9164 -0.1219 -1.1045
 1003MOL0     C38326   5.411  12.464   1.223  0.3159  0.0936 -0.2731
 1003MOL0     N38327   5.829  11.665   1.146  0.2563 -0.4625  0.5931
 1003MOL0     N38328   5.882  11.555   1.103 -0.0108 -0.3419  0.1565
 1003MOL0     C38329   6.721  11.295   0.366  0.3093  0.0757 -0.2754
 1003MOL0     C38330   6.842  11.245   0.317  0.8155 -0.8639 -0.3199
 1003MOL0     C38331   7.233  11.110   0.183  0.3208  0.3939 -0.0630
 1003MOL0     C38332   7.278  11.217   0.096  0.7727 -0.2443  0.6361
 1003MOL0     C38333   7.395  11.200   0.017 -0.9744 -0.6298  0.3033
 1003MOL0     C38334   7.466  11.077   0.019  0.1730 -0.3843  0.1432
 1003MOL0     O38335   7.578  11.075  -0.057 -0.5729  0.9081  0.1832
 1003MOL0     C38336   7.657  10.953  -0.073 -0.0769 -0.3380  0.0542
 1003MOL0     C38337   7.780  10.955  -0.168 -0.2194  0.7009 -0.1603
 1003MOL0     C38338   7.750  10.971  -0.319 -0.0933 -0.2767 -0.4548
 1003MOL0     C38339   7.876  10.987  -0.407 -0.8567 -0.6626  0.6108
 1003MOL0     C38340   7.958  10.863  -0.399 -0.1770  1.0490 -0.7353
 1003MOL0     C38341   8.026  10.768  -0.379 -0.7865  0.5295  0.2017
 1003MOL0     C38342   7.411  10.970   0.095 -0.0292 -0.6383 -0.4705
 1003MOL0     C38343   7.300  10.986   0.180  0.3911  0.4143 -0.3844
 1003MOL0     C38344   7.261  10.855   0.250 -0.1110  0.0133  0.4120
 1003MOL0     H38345   7.076  11.427   0.473  0.4951  0.6834  1.4483
 1003MOL0     H38346   6.861  11.531   0.572 -3.9305  1.5434 -0.5647
 1003MOL0     H38347   6.477  11.333   0.509 -2.9596 -0.7624 -3.3779
 1003MOL0     H38348   6.505  11.445   0.374 -0.6347 -0.7559 -0.2775
 1003MOL0     H38349   6.419  11.523   0.652  1.1873  2.7002  1.6777
 1003MOL0     H38350   6.430  11.636   0.525 -0.1928 -0.2237  2.7749
 1003MOL0     H38351   6.224  11.585   0.435  1.6603  0.9542 -0.1193
 1003MOL0     H38352   6.237  11.415   0.462 -0.6319  0.6597 -0.5246
 1003MOL0     H38353   6.162  11.456   0.705 -2.0452  0.3569  1.2547
 1003MOL0     H38354   6.167  11.633   0.672  1.0619 -1.0280  3.2916
 1003MOL0     H38355   5.992  11.439   0.518  0.3345  0.1084  0.3032
 1003MOL0     H38356   5.991  11.625   0.530 -0.1123 -0.5336 -1.2253
 1003MOL0     H38357   5.935  11.615   0.759 -1.8163  1.8511 -0.4921
 1003MOL0     H38358   5.819  11.516   0.656  1.2490 -2.0041 -1.3221
 1003MOL0     H38359   6.027  11.389   0.847 -0.0663 -3.0718  0.0551
 1003MOL0     H38360   5.916  11.312   0.739  0.2192 -0.8549  1.9156
 1003MOL0     H38361   5.745  11.365   0.867  2.0261 -5.6707 -1.0142
 1003MOL0     H38362   5.859  11.335   0.994  0.0535  1.7533  1.2033
 1003MOL0     H38363   5.697  11.614   0.839  0.9678  1.6278 -0.8360
 1003MOL0     H38364   5.588  11.800   1.151 -1.0017 -1.0255 -0.2190
 1003MOL0     H38365   5.561  11.791   0.983 -0.8747  0.4310  0.8899
 1003MOL0     H38366   5.772  11.968   1.130 -0.8020 -2.1495  1.5906
 1003MOL0     H38367   5.742  11.975   0.957  2.5476  0.9875  0.8085
 1003MOL0     H38368   5.475  12.004   1.031 -0.8165  0.8703  0.3365
 1003MOL0     H38369   5.542  12.056   1.187 -1.3686  0.1283 -0.0173
 1003MOL0     H38370   5.680  12.230   1.020  1.7837 -0.6344  4.0877
 1003MOL0     H38371   5.530  12.199   0.936  1.0338 -0.4013 -0.6887
 1003MOL0     H38372   5.453  12.386   0.894 -0.3557  2.3534  0.0618
 1003MOL0     H38373   5.247  12.625   0.778  0.0553 -1.1876 -0.2639
 1003MOL0     H38374   5.391  12.545   0.752 -0.3485 -0.5952 -0.7694
 1003MOL0     H38375   5.405  12.704   0.829 -0.2693 -0.8231  1.1367
 1003MOL0     H38376   5.378  13.062   1.218 -0.6988 -3.5082 -1.8281
 1003MOL0     H38377   5.285  13.279   1.262  1.2537  0.8688 -2.0990
 1003MOL0     H38378   4.917  13.290   1.038  0.1114  1.3337 -1.4466
 1003MOL0     H38379   4.822  13.356   1.167 -1.4966  5.5770 -0.9866
 1003MOL0     H38380   5.010  13.562   1.084 -0.1078  0.3996 -0.6767
 1003MOL0     H38381   4.936  13.481   0.939 -3.2008 -1.5248 -0.3715
 1003MOL0     H38382   4.749  13.567   1.143  0.1992 -1.6810  0.5364
 1003MOL0     H38383   4.722  13.487   0.984  1.3951 -2.7090  1.6410
 1003MOL0     H38384   4.840  13.755   0.997  0.5770  0.8014 -1.4760
 1003MOL0     H38385   4.665  13.721   1.000 -0.4887 -1.5001 -0.2373
 1003MOL0     H38386   4.867  13.643   0.783  0.7270  1.8807  0.3606
 1003MOL0     H38387   4.684  13.614   0.780 -0.8373  1.8794 -2.4862
 1003MOL0     H38388   4.834  13.875   0.786  1.9482 -2.8151  0.6760
 1003MOL0     H38389   4.659  13.862   0.783  0.9574  0.4044  0.8225
 1003MOL0     H38390   4.664  13.732   0.569 -1.4138  0.7153  2.1147
 1003MOL0     H38391   4.829  13.764   0.550  0.3507  1.6505 -1.7295
 1003MOL0     H38392   4.800  14.016   0.567 -0.1463  0.4561 -1.2293
 1003MOL0     H38393   4.630  13.991   0.566 -0.2897 -0.5282 -0.4064
 1003MOL0     H38394   4.887  13.109   1.200 -1.0888 -1.5367  3.1186
 1003MOL0     H38395   4.987  12.887   1.202  0.0633 -0.3037  1.4164
 1003MOL0     H38396   5.307  12.617   1.303  2.7419  0.6385 -0.5485
 1003MOL0     H38397   5.442  12.435   1.323  0.9853  3.7759  0.7362
 1003MOL0     H38398   6.624  11.253   0.341 -2.7621  5.1247  1.6771
 1003MOL0     H38399   6.836  11.173   0.236  0.3544  1.1966 -2.2292
 1003MOL0     H38400   7.206  11.298   0.098 -2.8814 -2.9507  6.7829
 1003MOL0     H38401   7.420  11.280  -0.052 -1.2553 -0.3710  0.4994
 1003MOL0     H38402   7.704  10.926   0.022 -1.3445 -2.1086  0.2296
 1003MOL0     H38403   7.583  10.877  -0.097 -0.6007 -0.2418  1.2613
 1003MOL0     H38404   7.833  10.859  -0.162 -0.1248  0.7026 -0.8853
 1003MOL0     H38405   7.838  11.041  -0.134  1.5026 -1.0058  1.5100
 1003MOL0     H38406   7.694  10.886  -0.358 -0.5245  0.8399 -2.4218
 1003MOL0     H38407   7.687  11.060  -0.334  0.6044  0.4041  0.5232
 1003MOL0     H38408   7.939  11.074  -0.386  1.4912 -2.2403  0.3805
 1003MOL0     H38409   7.831  11.003  -0.505 -1.5691  4.2411  1.4812
 1003MOL0     H38410   8.095  10.690  -0.354 -2.9388 -0.6949  2.9257
 1003MOL0     H38411   7.482  10.891   0.111  3.1380  1.7109 -1.8866
 1003MOL0     H38412   7.242  10.872   0.357 -0.5657 -0.9144  0.4889
 1003MOL0     H38413   7.169  10.817   0.206  1.0566 -1.7858 -0.6109
 1003MOL0     H38414   7.342  10.781   0.246  0.4096  0.2649  3.4323
 1004MOL0     O38415   6.970   6.250   8.885  0.3523 -0.9683 -0.6373
 1004MOL0     C38416   6.954   6.140   8.824 -1.1079 -0.6630 -0.0146
 1004MOL0     O38417   6.960   6.131   8.680  0.3313 -0.6033 -0.1014
 1004MOL0     C38418   7.006   6.239   8.609  0.2167  0.6458  0.2775
 1004MOL0     C38419   7.120   6.310   8.643  0.7905 -0.2075  0.3902
 1004MOL0     C38420   7.151   6.429   8.573 -0.4949 -0.2958  1.2325
 1004MOL0     C38421   7.068   6.471   8.468  0.3312  0.0612  0.4349
 1004MOL0     O38422   7.104   6.573   8.384 -0.2602  0.5213 -0.1951
 1004MOL0     C38423   7.240   6.605   8.354  0.3635  0.4621 -0.1987
 1004MOL0     C38424   7.297   6.494   8.276  0.5558  0.1564  0.0122
 1004MOL0     C38425   7.233   6.474   8.144 -0.8069 -0.1738 -0.0522
 1004MOL0     C38426   7.305   6.360   8.074 -0.1205  0.0645  0.0323
 1004MOL0     C38427   7.254   6.358   7.932  1.6941 -0.0268 -0.3385
 1004MOL0     C38428   7.318   6.251   7.843 -0.1720  0.0902  0.4350
 1004MOL0     C38429   7.215   6.217   7.727  1.1111 -0.1843  0.3404
 1004MOL0     C38430   7.277   6.167   7.606 -0.5005 -0.2369  0.2996
 1004MOL0     N38431   7.181   6.151   7.496 -0.0579  0.8796  0.0748
 1004MOL0     C38432   7.132   6.033   7.437 -0.5469 -0.2571 -0.1129
 1004MOL0     C38433   7.074   6.063   7.327 -0.0112 -1.7044 -0.2818
 1004MOL0     C38434   7.004   5.964   7.235  0.9534  1.3356 -0.1173
 1004MOL0     C38435   6.886   5.886   7.289 -0.7101 -0.4653 -0.4544
 1004MOL0     C38436   6.866   5.751   7.213 -0.3089 -0.3710 -0.4543
 1004MOL0     C38437   6.771   5.660   7.293 -0.3585  0.0585  0.0239
 1004MOL0     O38438   6.642   5.714   7.296 -0.3980  0.6254 -0.6367
 1004MOL0     C38439   6.551   5.656   7.212  0.5018 -0.1550  0.1487
 1004MOL0     C38440   6.582   5.572   7.104  0.3177 -0.2493  0.3922
 1004MOL0     C38441   6.487   5.516   7.020  0.2646 -0.1336 -0.1962
 1004MOL0     C38442   6.534   5.421   6.917 -0.4427 -0.1457  0.1612
 1004MOL0     C38443   6.350   5.537   7.063 -0.0347 -0.0081  0.1155
 1004MOL0     C38444   6.243   5.473   6.982 -0.5225 -0.1102 -0.4987
 1004MOL0     O38445   6.229   5.336   6.989 -0.2424 -0.7943 -0.5918
 1004MOL0     C38446   6.152   5.272   6.894 -0.0880 -0.7738 -0.0018
 1004MOL0     C38447   6.027   5.308   6.843  0.4440 -0.6314  0.1055
 1004MOL0     C38448   5.954   5.231   6.760 -0.0535  0.1692  0.6803
 1004MOL0     C38449   6.000   5.105   6.705  0.6047 -0.5207  0.1075
 1004MOL0     O38450   5.915   5.032   6.624  0.2120 -0.2837  0.4129
 1004MOL0     C38451   5.922   5.042   6.483 -0.3630 -1.0506  0.3457
 1004MOL0     C38452   6.038   4.967   6.418  0.2142  0.2274 -0.2609
 1004MOL0     C38453   6.032   4.951   6.268 -0.0297  0.7099 -0.0031
 1004MOL0     C38454   5.971   4.821   6.233  0.0949 -0.4026 -0.1139
 1004MOL0     C38455   5.945   4.798   6.083  0.2736 -0.7225 -0.1295
 1004MOL0     C38456   5.900   4.657   6.062  0.0240 -0.7211  0.2641
 1004MOL0     C38457   5.837   4.637   5.922  0.5386 -0.2047  0.7116
 1004MOL0     C38458   5.847   4.489   5.885  0.2353  0.3994  0.0753
 1004MOL0    Cl38459   6.019   4.444   5.838 -0.0929  0.2430  0.1239
 1004MOL0     C38460   6.128   5.063   6.756  0.5904  0.0931  0.7286
 1004MOL0     C38461   6.205   5.151   6.832  0.6036 -0.3507 -0.1725
 1004MOL0     O38462   6.174   5.552   6.912 -0.2908 -0.8726  0.2230
 1004MOL0     C38463   6.317   5.627   7.163  0.9085  0.0991  0.1237
 1004MOL0     C38464   6.414   5.688   7.234 -0.6564  0.2381  0.0658
 1004MOL0     N38465   7.085   6.201   7.311  0.2229 -0.1024  0.9199
 1004MOL0     N38466   7.145   6.253   7.411 -0.0743 -0.0754  0.3748
 1004MOL0     C38467   6.955   6.391   8.426 -0.8811  0.1118 -0.1802
 1004MOL0     C38468   6.924   6.280   8.497 -0.3491 -0.0528 -0.4481
 1004MOL0     C38469   6.980   6.018   8.904 -0.5169 -0.3096  0.6346
 1004MOL0     C38470   7.045   5.915   8.838  0.4829 -0.3079  0.1499
 1004MOL0     C38471   7.083   5.794   8.901 -0.3779 -0.1165 -0.1984
 1004MOL0     C38472   7.047   5.767   9.029  0.0447  0.7273  0.7197
 1004MOL0     O38473   7.061   5.647   9.093  0.4682 -0.0932 -1.0135
 1004MOL0     C38474   7.081   5.533   9.024 -0.6406  0.6432  0.7852
 1004MOL0     C38475   7.228   5.492   9.047 -0.2522  0.0840  0.2064
 1004MOL0     C38476   7.247   5.449   9.193 -0.2560 -0.0431 -0.1546
 1004MOL0     C38477   7.237   5.293   9.230  0.1257  0.4139  0.1485
 1004MOL0     C38478   7.102   5.242   9.262  0.5279  0.4668 -0.2141
 1004MOL0     C38479   6.998   5.193   9.308  0.4690 -0.0921 -0.2125
 1004MOL0     C38480   6.970   5.862   9.102  0.0282  0.0884  0.6444
 1004MOL0     C38481   6.945   5.993   9.043 -0.0916  0.5697  0.8240
 1004MOL0     C38482   6.885   6.102   9.132  0.1278  0.7885  0.5176
 1004MOL0     H38483   7.177   6.279   8.729  0.4099  0.3187  0.8414
 1004MOL0     H38484   7.241   6.486   8.596 -0.6079 -0.0234  0.9985
 1004MOL0     H38485   7.303   6.621   8.441 -0.8456 -2.9041  1.5040
 1004MOL0     H38486   7.242   6.690   8.285 -0.8046  0.7655  0.1224
 1004MOL0     H38487   7.398   6.530   8.257 -0.9146  3.4694 -2.4528
 1004MOL0     H38488   7.297   6.401   8.335 -2.3991 -0.3479 -0.6114
 1004MOL0     H38489   7.130   6.443   8.163 -1.1510  0.1699 -1.2593
 1004MOL0     H38490   7.235   6.573   8.096  2.6499  0.5827  1.3459
 1004MOL0     H38491   7.409   6.391   8.062 -0.6876  1.2461 -2.3452
 1004MOL0     H38492   7.296   6.256   8.106  0.9422 -2.0090 -5.2504
 1004MOL0     H38493   7.259   6.455   7.882  0.0467  0.0373 -0.4652
 1004MOL0     H38494   7.147   6.342   7.951  1.7927 -0.1707  0.1112
 1004MOL0     H38495   7.414   6.287   7.805  1.2669 -1.5465  2.2960
 1004MOL0     H38496   7.341   6.160   7.898  1.0884  0.4196  0.4714
 1004MOL0     H38497   7.171   6.316   7.708 -0.8133 -0.5072  2.5425
 1004MOL0     H38498   7.139   6.149   7.768  1.1767  1.8861  4.4709
 1004MOL0     H38499   7.359   6.234   7.580  0.4898 -0.9786  1.4002
 1004MOL0     H38500   7.325   6.073   7.635  0.9055 -0.0820 -1.3426
 1004MOL0     H38501   7.137   5.928   7.467 -0.4275 -0.9302 -2.3511
 1004MOL0     H38502   7.075   5.897   7.185 -0.4219  1.6405 -2.6455
 1004MOL0     H38503   6.963   6.034   7.162  0.8353  0.1150 -1.2551
 1004MOL0     H38504   6.893   5.863   7.395 -1.5153 -3.3791 -0.9397
 1004MOL0     H38505   6.800   5.953   7.284 -0.0342  0.4361 -0.2034
 1004MOL0     H38506   6.829   5.767   7.112  0.3547 -3.0684 -1.2001
 1004MOL0     H38507   6.952   5.688   7.190 -0.0214  0.0965 -0.6613
 1004MOL0     H38508   6.783   5.557   7.258 -3.2465 -0.0964 -0.7946
 1004MOL0     H38509   6.811   5.650   7.394 -1.0903  0.2456  0.3360
 1004MOL0     H38510   6.680   5.545   7.067 -0.1253 -1.6758  0.1929
 1004MOL0     H38511   6.618   5.358   6.945 -0.0188  0.9372  1.3807
 1004MOL0     H38512   6.564   5.478   6.829  0.2056  0.0324  0.4959
 1004MOL0     H38513   6.461   5.341   6.896  3.0146 -3.0843 -1.8600
 1004MOL0     H38514   5.986   5.404   6.872 -1.4998 -1.7084  1.1383
 1004MOL0     H38515   5.851   5.261   6.742 -0.2592 -1.7364 -1.8722
 1004MOL0     H38516   5.826   5.013   6.438 -0.1806 -1.6164  0.3041
 1004MOL0     H38517   5.938   5.146   6.454  1.2515 -1.2683  0.3645
 1004MOL0     H38518   6.129   5.022   6.442  0.6172 -0.4125 -0.3231
 1004MOL0     H38519   6.044   4.867   6.460 -1.2414 -1.1964 -3.1293
 1004MOL0     H38520   6.128   4.959   6.216  1.1166 -0.3686  1.8490
 1004MOL0     H38521   5.966   5.029   6.229 -0.5763  0.3347  0.1591
 1004MOL0     H38522   5.870   4.823   6.275 -0.0861 -5.4442  0.2613
 1004MOL0     H38523   6.024   4.736   6.275 -1.2273 -0.9813  0.4337
 1004MOL0     H38524   5.873   4.873   6.047 -0.8416 -1.3636  0.7232
 1004MOL0     H38525   6.044   4.808   6.038 -0.2119 -3.8120 -2.1753
 1004MOL0     H38526   5.827   4.626   6.138 -1.7939  5.3994  1.4986
 1004MOL0     H38527   5.985   4.587   6.071 -1.0470 -2.1379 -0.2315
 1004MOL0     H38528   5.890   4.689   5.841  0.8275 -0.5614  0.6650
 1004MOL0     H38529   5.732   4.668   5.922  1.1432  2.0564 -0.5558
 1004MOL0     H38530   5.780   4.469   5.800 -1.4380 -1.6462  1.7709
 1004MOL0     H38531   5.812   4.422   5.964 -2.2369 -1.5754 -2.4848
 1004MOL0     H38532   6.165   4.963   6.734  2.0338  0.7722 -0.0813
 1004MOL0     H38533   6.304   5.110   6.851  1.2931 -0.5834 -3.7090
 1004MOL0     H38534   6.225   5.675   7.193  0.0080 -1.8352  0.5815
 1004MOL0     H38535   6.390   5.760   7.311 -1.5629  0.1648 -0.1366
 1004MOL0     H38536   6.895   6.426   8.342  2.2718  2.1450 -1.8129
 1004MOL0     H38537   6.838   6.224   8.462 -0.8162 -0.5192  1.3439
 1004MOL0     H38538   7.077   5.930   8.735  1.9751 -2.1746  0.2868
 1004MOL0     H38539   7.159   5.738   8.848 -1.0434 -0.1895 -1.0913
 1004MOL0     H38540   7.026   5.448   9.067  3.5058 -2.2137  1.0805
 1004MOL0     H38541   7.059   5.528   8.917  0.6462  0.8887  0.4890
 1004MOL0     H38542   7.300   5.566   9.012 -2.2087  1.4805 -1.0554
 1004MOL0     H38543   7.262   5.406   8.989 -2.5911 -0.0680 -1.0323
 1004MOL0     H38544   7.343   5.495   9.219 -1.7947  1.5114  3.3642
 1004MOL0     H38545   7.177   5.508   9.254 -1.9143 -0.0524 -1.9491
 1004MOL0     H38546   7.296   5.276   9.321 -0.9305  1.1890  1.0056
 1004MOL0     H38547   7.287   5.227   9.158 -1.5241 -0.7905  0.0575
 1004MOL0     H38548   6.906   5.152   9.346  0.2447  1.3298  0.8716
 1004MOL0     H38549   6.943   5.837   9.204  1.9590 -3.6059  0.4465
 1004MOL0     H38550   6.818   6.057   9.206 -1.0683  1.1968 -0.2929
 1004MOL0     H38551   6.969   6.166   9.161  2.1868 -2.1420  1.4398
 1004MOL0     H38552   6.824   6.166   9.068  2.1062  0.9107 -1.3667
 1005MOL0     O38553   8.447   4.726  10.844  0.6911 -0.1972 -0.7589
 1005MOL0     C38554   8.462   4.753  10.969  0.5311  0.3690  0.1293
 1005MOL0     O38555   8.579   4.757  11.033  0.6629  0.1325  0.3362
 1005MOL0     C38556   8.673   4.673  10.973  0.5398  0.3427  0.3656
 1005MOL0     C38557   8.806   4.710  10.977 -0.1644 -0.0329  0.4784
 1005MOL0     C38558   8.912   4.616  10.941  0.2301 -0.1562  0.6142
 1005MOL0     C38559   8.882   4.485  10.891  0.0947 -0.2882  0.4307
 1005MOL0     O38560   8.978   4.400  10.834 -0.6961  0.6983  0.1082
 1005MOL0     C38561   8.938   4.274  10.772  0.4632  1.5381  0.2817
 1005MOL0     C38562   9.061   4.190  10.737 -0.7698 -0.4156  0.2312
 1005MOL0     C38563   9.166   4.266  10.661  0.0555  0.2599  0.0419
 1005MOL0     C38564   9.256   4.172  10.592 -0.2211 -0.0779  0.7274
 1005MOL0     C38565   9.354   4.247  10.507  0.0666 -0.1825 -0.0677
 1005MOL0     C38566   9.454   4.345  10.580  0.8804  0.3644 -0.3720
 1005MOL0     C38567   9.558   4.415  10.494  0.1571  0.3231  0.0552
 1005MOL0     C38568   9.663   4.474  10.582  0.0224  0.1539 -0.1153
 1005MOL0     N38569   9.791   4.479  10.506  0.3512 -0.2401 -0.4100
 1005MOL0     C38570   9.804   4.533  10.381  0.2568  0.0047  0.3075
 1005MOL0     C38571   9.938   4.555  10.362  0.0740  0.4193 -0.2055
 1005MOL0     C38572  10.007   4.614  10.243 -0.2721  0.4109  0.4530
 1005MOL0     C38573   9.992   4.765  10.237  0.7231 -0.7772 -0.2813
 1005MOL0     C38574   9.854   4.806  10.204 -0.1474  0.0230 -0.3991
 1005MOL0     C38575   9.834   4.957  10.167  0.2191  0.1347  0.2705
 1005MOL0     O38576   9.709   5.006  10.215 -0.4502  0.2159  0.2519
 1005MOL0     C38577   9.593   4.983  10.145 -0.0398  0.5516 -0.1333
 1005MOL0     C38578   9.477   5.041  10.196 -0.3352  0.8438 -0.0712
 1005MOL0     C38579   9.355   5.021  10.128 -0.0901 -1.3894  0.3309
 1005MOL0     C38580   9.233   5.078  10.188 -0.2427  0.3724 -0.1189
 1005MOL0     C38581   9.353   4.953  10.008  0.8055 -0.5417  0.3152
 1005MOL0     C38582   9.223   4.911   9.933  0.0741  0.8073 -0.2429
 1005MOL0     O38583   9.250   4.869   9.806 -0.2991  0.1225 -0.4666
 1005MOL0     C38584   9.145   4.845   9.725  0.1205  0.2012  0.5956
 1005MOL0     C38585   9.115   4.711   9.689  0.4238 -0.4068 -0.7242
 1005MOL0     C38586   9.024   4.683   9.593  0.3560  0.5840  1.1009
 1005MOL0     C38587   8.950   4.785   9.529 -0.0958  0.1737 -0.0809
 1005MOL0     O38588   8.870   4.770   9.416  0.5784  0.3316 -0.6605
 1005MOL0     C38589   8.807   4.633   9.397 -0.6785 -0.5378 -0.8745
 1005MOL0     C38590   8.702   4.628   9.288  1.2095  0.5787  0.5698
 1005MOL0     C38591   8.579   4.721   9.317  0.1251  0.7112  0.5267
 1005MOL0     C38592   8.511   4.784   9.190 -0.1168  0.3960 -0.1238
 1005MOL0     C38593   8.367   4.803   9.212 -0.3657 -0.2240  0.6609
 1005MOL0     C38594   8.307   4.858   9.079  0.5493 -0.6524  0.4800
 1005MOL0     C38595   8.159   4.837   9.072 -0.7540 -0.3317  0.9399
 1005MOL0     C38596   8.100   4.924   8.964 -0.4364 -0.7686 -0.0083
 1005MOL0    Cl38597   8.147   4.881   8.801  0.4157  0.1406  0.2256
 1005MOL0     C38598   8.971   4.911   9.582 -0.1045 -0.2585  0.5092
 1005MOL0     C38599   9.073   4.945   9.682 -0.1261  0.0080  0.5654
 1005MOL0     O38600   9.130   4.874  10.006 -0.0757 -0.9742 -0.6492
 1005MOL0     C38601   9.474   4.901   9.956 -0.3832 -0.1593 -0.0727
 1005MOL0     C38602   9.593   4.922  10.011 -0.3461  0.7123 -0.5211
 1005MOL0     N38603   9.997   4.530  10.488  0.3474  0.1962  0.4668
 1005MOL0     N38604   9.909   4.480  10.573 -1.1941 -0.2157 -0.5363
 1005MOL0     C38605   8.744   4.452  10.906 -0.2421 -0.5061  0.2532
 1005MOL0     C38606   8.638   4.544  10.936 -0.6856  0.2860 -1.2537
 1005MOL0     C38607   8.333   4.806  11.029 -0.5872  0.0439 -0.1091
 1005MOL0     C38608   8.215   4.815  10.947 -0.2724  0.5266 -0.2210
 1005MOL0     C38609   8.102   4.872  10.992 -0.3841  0.0913  0.8408
 1005MOL0     C38610   8.093   4.921  11.119 -0.0313  0.2126 -0.5999
 1005MOL0     O38611   7.981   4.969  11.182  0.3052 -0.1045  0.2089
 1005MOL0     C38612   7.895   5.044  11.100  1.0956  0.4604  0.0978
 1005MOL0     C38613   7.785   5.110  11.185 -0.6592  0.5448 -0.0860
 1005MOL0     C38614   7.845   5.199  11.300  0.3629  0.1655  0.5415
 1005MOL0     C38615   7.866   5.342  11.243 -0.1010 -0.0788  0.3764
 1005MOL0     C38616   7.923   5.436  11.342  0.1387 -0.1131  0.4785
 1005MOL0     C38617   7.954   5.525  11.429  0.1378  0.0524 -0.4659
 1005MOL0     C38618   8.202   4.906  11.206 -0.4178 -0.2401  0.1261
 1005MOL0     C38619   8.326   4.854  11.165  0.0587 -0.5536 -0.9535
 1005MOL0     C38620   8.431   4.841  11.270  0.9210 -0.0346  0.1060
 1005MOL0     H38621   8.838   4.810  11.007  3.8512  0.2203 -3.4985
 1005MOL0     H38622   9.017   4.637  10.962  0.2985 -0.1136  0.2423
 1005MOL0     H38623   8.877   4.293  10.683 -0.4153  2.1958  0.9993
 1005MOL0     H38624   8.878   4.212  10.839 -1.1682  1.1704 -1.4370
 1005MOL0     H38625   9.106   4.152  10.829 -0.5910  2.2387  1.3286
 1005MOL0     H38626   9.018   4.108  10.677 -1.9981  2.2186 -2.8228
 1005MOL0     H38627   9.126   4.323  10.576 -0.0559 -2.4078 -1.8067
 1005MOL0     H38628   9.224   4.329  10.729  3.4234 -0.1220 -2.2156
 1005MOL0     H38629   9.318   4.124  10.668  2.6722  0.1345 -1.3078
 1005MOL0     H38630   9.200   4.098  10.533  2.9902  0.5844 -3.7704
 1005MOL0     H38631   9.294   4.293  10.427 -0.2679  1.1986  0.9460
 1005MOL0     H38632   9.415   4.166  10.468 -2.1602 -0.9773 -2.1694
 1005MOL0     H38633   9.394   4.420  10.634  2.9846  0.3028  2.2876
 1005MOL0     H38634   9.501   4.293  10.664 -2.3108 -2.3634 -0.0327
 1005MOL0     H38635   9.503   4.485  10.429  1.6418  0.1547 -1.4547
 1005MOL0     H38636   9.602   4.343  10.425 -0.9523 -1.9016  1.5511
 1005MOL0     H38637   9.639   4.572  10.624  1.1224 -0.0456  1.0655
 1005MOL0     H38638   9.681   4.413  10.671 -3.5445  3.1498  3.0515
 1005MOL0     H38639   9.722   4.532  10.310  0.0735 -1.2256  0.5170
 1005MOL0     H38640   9.953   4.562  10.164 -1.5247 -0.7400  2.0067
 1005MOL0     H38641  10.112   4.588  10.229  0.7904  3.9902  0.6160
 1005MOL0     H38642  10.023   4.814  10.330  0.3715 -0.7930 -0.1522
 1005MOL0     H38643  10.046   4.803  10.150 -2.9190  1.3075 -1.8310
 1005MOL0     H38644   9.812   4.744  10.125 -1.8999  2.8175 -1.8364
 1005MOL0     H38645   9.793   4.789  10.293  2.8015  0.2930  1.8585
 1005MOL0     H38646   9.894   5.035  10.215 -0.1568 -0.1842  1.2967
 1005MOL0     H38647   9.867   4.965  10.063 -1.0178 -1.4222 -0.2698
 1005MOL0     H38648   9.489   5.098  10.288 -2.5197 -0.0675  0.8534
 1005MOL0     H38649   9.165   5.109  10.109 -1.2031  1.9383  1.2739
 1005MOL0     H38650   9.261   5.165  10.248 -1.2070  1.8129 -1.6968
 1005MOL0     H38651   9.182   5.015  10.262  0.9643 -0.3680  0.1319
 1005MOL0     H38652   9.177   4.629   9.723 -1.9894 -2.0862 -0.0547
 1005MOL0     H38653   9.016   4.582   9.556  0.0521  1.2350 -0.7098
 1005MOL0     H38654   8.884   4.565   9.360 -1.8198 -1.2628 -2.0204
 1005MOL0     H38655   8.762   4.602   9.492  0.4481  1.7635  0.5001
 1005MOL0     H38656   8.750   4.645   9.191  0.8326  1.4361  0.5312
 1005MOL0     H38657   8.665   4.525   9.283 -2.9464  1.9263  0.4173
 1005MOL0     H38658   8.609   4.807   9.377 -4.0097  0.8520  2.6929
 1005MOL0     H38659   8.507   4.670   9.381  0.8816 -1.3140 -0.1312
 1005MOL0     H38660   8.533   4.727   9.099 -3.1126 -2.8024  0.9166
 1005MOL0     H38661   8.544   4.886   9.168 -2.5916  0.9202 -1.8564
 1005MOL0     H38662   8.310   4.718   9.251 -4.2650  3.1736  3.0433
 1005MOL0     H38663   8.357   4.885   9.283  2.1490  1.1016 -0.3976
 1005MOL0     H38664   8.356   4.810   8.994 -0.6755  1.0378 -1.2704
 1005MOL0     H38665   8.323   4.966   9.076 -0.5496 -0.4824  0.1937
 1005MOL0     H38666   8.120   4.865   9.170  2.4489  2.3216  1.6677
 1005MOL0     H38667   8.136   4.734   9.043 -0.5801  0.1182 -0.9252
 1005MOL0     H38668   8.113   5.031   8.982 -1.2001 -1.0058  2.1800
 1005MOL0     H38669   7.993   4.905   8.980 -0.2441 -1.3200  0.6576
 1005MOL0     H38670   8.917   4.986   9.527 -1.2130 -2.3650 -1.4410
 1005MOL0     H38671   9.104   5.048   9.700 -1.5224  0.7621 -1.0513
 1005MOL0     H38672   9.470   4.838   9.867 -0.2444  0.1548 -0.3042
 1005MOL0     H38673   9.687   4.886   9.972 -0.8899 -1.6135  0.1785
 1005MOL0     H38674   8.709   4.356  10.869 -1.8781  0.0907  0.1625
 1005MOL0     H38675   8.536   4.507  10.930 -0.6088 -0.0006 -0.8881
 1005MOL0     H38676   8.225   4.764  10.852 -0.2861  0.4608 -0.1874
 1005MOL0     H38677   8.014   4.879  10.930 -0.5613  1.6968  1.2213
 1005MOL0     H38678   7.935   5.119  11.031 -0.5150 -0.8762 -2.4635
 1005MOL0     H38679   7.846   4.974  11.032  0.2637  0.4915  0.6446
 1005MOL0     H38680   7.729   5.024  11.222 -2.1900  0.3987 -2.5384
 1005MOL0     H38681   7.716   5.165  11.120 -1.6796  0.8862  1.2220
 1005MOL0     H38682   7.778   5.185  11.385  0.0674 -2.4448 -0.0198
 1005MOL0     H38683   7.941   5.171  11.347 -0.5505 -0.4645  2.1145
 1005MOL0     H38684   7.765   5.378  11.226 -1.5345 -1.0349  5.3016
 1005MOL0     H38685   7.933   5.330  11.157 -2.0677  0.6510 -1.3244
 1005MOL0     H38686   8.003   5.594  11.495  1.2128  0.2789 -1.4636
 1005MOL0     H38687   8.199   4.945  11.307 -1.7940 -2.2755  0.9388
 1005MOL0     H38688   8.399   4.888  11.364  0.0815 -0.6994  0.1613
 1005MOL0     H38689   8.449   4.737  11.297 -0.7482 -0.6471 -0.9849
 1005MOL0     H38690   8.524   4.887  11.237 -0.8991  0.3809 -5.6125
 1006MOL0     O38691   2.247   0.568   7.480 -0.7127  0.3969  0.1194
 1006MOL0     C38692   2.167   0.481   7.456  0.6373  0.2151  1.4498
 1006MOL0     O38693   2.051   0.449   7.525 -0.5275  0.0895  0.3675
 1006MOL0     C38694   2.010   0.516   7.639  0.0161 -0.2944  0.3314
 1006MOL0     C38695   1.992   0.453   7.758  0.0979 -0.3212 -0.6065
 1006MOL0     C38696   1.961   0.520   7.880 -0.0826  0.5772 -0.0052
 1006MOL0     C38697   1.919   0.653   7.872 -0.9077 -0.3535 -0.2000
 1006MOL0     O38698   1.890   0.719   7.987 -0.2311  0.4489  0.3742
 1006MOL0     C38699   1.936   0.857   8.009  0.2047  1.0648 -0.2781
 1006MOL0     C38700   1.835   0.909   8.108 -0.5769 -0.4188  0.1064
 1006MOL0     C38701   1.869   1.051   8.153  0.7615 -0.1503  0.0343
 1006MOL0     C38702   1.741   1.106   8.233 -0.6663  0.1982  0.1429
 1006MOL0     C38703   1.798   1.196   8.344 -0.4848 -0.6180  0.0014
 1006MOL0     C38704   1.679   1.232   8.451 -0.2392  0.1831  0.4026
 1006MOL0     C38705   1.721   1.361   8.530 -0.6200 -0.1959  0.2871
 1006MOL0     C38706   1.613   1.395   8.639 -0.5380  0.7529 -0.0868
 1006MOL0     N38707   1.485   1.425   8.571 -0.7655 -0.2825  0.1729
 1006MOL0     C38708   1.373   1.348   8.579 -0.1759  0.7369  0.2807
 1006MOL0     C38709   1.278   1.423   8.517  0.5070 -0.5850 -0.1645
 1006MOL0     C38710   1.141   1.390   8.469  0.0176  0.2083 -0.2238
 1006MOL0     C38711   1.028   1.418   8.573 -0.0714 -1.0920  0.5923
 1006MOL0     C38712   1.022   1.568   8.606  0.0004 -0.0131 -0.5295
 1006MOL0     C38713   0.974   1.648   8.485 -0.4973 -0.1554  0.1525
 1006MOL0     O38714   0.929   1.770   8.556  0.6334 -0.2144 -0.2204
 1006MOL0     C38715   1.005   1.884   8.553 -0.5184  0.1433 -1.0848
 1006MOL0     C38716   0.935   2.006   8.583  0.3548  0.3546 -0.3744
 1006MOL0     C38717   1.001   2.117   8.621  0.7367 -0.3718  0.4100
 1006MOL0     C38718   0.923   2.239   8.670 -0.2848  0.1482  0.3853
 1006MOL0     C38719   1.144   2.115   8.607 -0.1758  0.2699 -0.2743
 1006MOL0     C38720   1.238   2.195   8.685  0.6277  0.1815  0.4512
 1006MOL0     O38721   1.345   2.237   8.628  0.5508 -0.0710  0.1552
 1006MOL0     C38722   1.434   2.297   8.717 -0.8122  0.5628 -0.5039
 1006MOL0     C38723   1.413   2.413   8.793  0.4221  0.6377 -0.3995
 1006MOL0     C38724   1.514   2.474   8.871  0.8573 -1.2330 -0.4089
 1006MOL0     C38725   1.641   2.412   8.877  1.1248  0.5617 -0.1318
 1006MOL0     O38726   1.738   2.470   8.949 -0.2802  0.0256  0.0269
 1006MOL0     C38727   1.856   2.507   8.868  0.4740  0.1928  0.3460
 1006MOL0     C38728   1.976   2.463   8.952  0.6954  0.4745 -0.0089
 1006MOL0     C38729   1.982   2.544   9.078  0.1952 -0.3105  0.6025
 1006MOL0     C38730   2.044   2.677   9.039 -0.5368 -0.1729 -0.3796
 1006MOL0     C38731   2.039   2.805   9.138 -0.1458 -0.8396  0.4825
 1006MOL0     C38732   2.069   2.778   9.293 -0.1072 -0.2019 -0.3167
 1006MOL0     C38733   2.218   2.746   9.322 -0.3000 -0.6254 -0.8355
 1006MOL0     C38734   2.236   2.644   9.437 -0.5049  0.1623  0.0077
 1006MOL0    Cl38735   2.192   2.496   9.374  0.0168 -0.5047  0.4190
 1006MOL0     C38736   1.658   2.284   8.817  0.0307  0.1599 -0.6028
 1006MOL0     C38737   1.559   2.228   8.730  0.0296 -0.1381 -0.3553
 1006MOL0     O38738   1.215   2.206   8.804  0.8273 -0.3380  0.5459
 1006MOL0     C38739   1.212   2.007   8.550  0.3572  0.0610  0.4805
 1006MOL0     C38740   1.142   1.883   8.540  0.4675 -0.1487 -0.5680
 1006MOL0     N38741   1.342   1.534   8.472  0.3502 -0.1810 -0.0801
 1006MOL0     N38742   1.458   1.545   8.519 -0.5016 -0.6778 -0.1058
 1006MOL0     C38743   1.920   0.720   7.742 -0.2992 -0.5515  0.1324
 1006MOL0     C38744   1.971   0.656   7.627  0.4194 -0.0719 -0.0286
 1006MOL0     C38745   2.202   0.394   7.340  0.4328 -1.2530 -0.3734
 1006MOL0     C38746   2.158   0.262   7.346 -0.0412 -0.3125  0.1205
 1006MOL0     C38747   2.187   0.167   7.246 -0.2997 -0.2689 -0.8866
 1006MOL0     C38748   2.273   0.192   7.137  0.3316  0.0347  0.8106
 1006MOL0     O38749   2.328   0.092   7.056 -0.2732  0.6246  0.0201
 1006MOL0     C38750   2.296  -0.046   7.079  0.4357  0.3186 -0.0739
 1006MOL0     C38751   2.375  -0.156   7.005 -0.5535 -0.1424  0.2516
 1006MOL0     C38752   2.309  -0.290   7.041 -0.5709  0.7741  0.4351
 1006MOL0     C38753   2.364  -0.412   6.960 -0.1082  0.7952  0.2734
 1006MOL0     C38754   2.270  -0.524   6.967  0.1772  0.3403  1.1116
 1006MOL0     C38755   2.186  -0.617   6.960 -0.7831  0.3281  0.9216
 1006MOL0     C38756   2.309   0.327   7.128  0.4528 -0.4155  0.2125
 1006MOL0     C38757   2.279   0.424   7.215  0.1612 -0.8575  0.2891
 1006MOL0     C38758   2.343   0.557   7.199  0.4924 -0.0060  0.4560
 1006MOL0     H38759   2.008   0.346   7.766 -0.8624 -1.1111 -5.9557
 1006MOL0     H38760   1.956   0.471   7.977 -0.2930  0.4356 -0.0878
 1006MOL0     H38761   1.938   0.916   7.918  1.4278  1.0464 -0.2747
 1006MOL0     H38762   2.040   0.848   8.040  1.1875  2.3916 -2.9030
 1006MOL0     H38763   1.738   0.897   8.058  0.6184 -1.3230 -2.1822
 1006MOL0     H38764   1.853   0.850   8.198 -0.5300 -1.6119 -0.6674
 1006MOL0     H38765   1.964   1.053   8.208  1.3589 -0.9370 -0.9347
 1006MOL0     H38766   1.884   1.119   8.068 -0.0331  1.1680  0.9014
 1006MOL0     H38767   1.675   1.170   8.173 -0.6638 -0.0828 -0.1651
 1006MOL0     H38768   1.689   1.021   8.277  0.2650 -1.1921 -1.3193
 1006MOL0     H38769   1.848   1.283   8.301  1.2397 -1.1676  0.8339
 1006MOL0     H38770   1.879   1.143   8.394  2.3955  1.8800 -1.6484
 1006MOL0     H38771   1.590   1.248   8.389 -2.3998  0.7755  3.4157
 1006MOL0     H38772   1.655   1.146   8.513  1.9304 -0.8353 -0.0715
 1006MOL0     H38773   1.738   1.434   8.450 -0.8783 -1.9246 -1.4177
 1006MOL0     H38774   1.816   1.327   8.572  0.3693  0.6195 -1.1835
 1006MOL0     H38775   1.604   1.314   8.711 -2.0566 -0.6098 -1.7090
 1006MOL0     H38776   1.637   1.486   8.696  5.0319  1.6435 -3.1299
 1006MOL0     H38777   1.357   1.259   8.639 -1.0763  1.2719  0.8544
 1006MOL0     H38778   1.155   1.284   8.448  0.7273  0.2321  0.1017
 1006MOL0     H38779   1.117   1.448   8.380 -1.4935 -0.9354 -0.6177
 1006MOL0     H38780   0.932   1.382   8.536 -1.0937 -2.2746  4.0285
 1006MOL0     H38781   1.036   1.361   8.666 -0.5077  0.6423  1.7276
 1006MOL0     H38782   0.962   1.576   8.696  0.6484  1.9431 -0.2378
 1006MOL0     H38783   1.121   1.604   8.634 -0.0482  2.7004 -3.2814
 1006MOL0     H38784   1.059   1.670   8.419  2.4774 -2.3641  2.9407
 1006MOL0     H38785   0.888   1.603   8.435  0.5779 -1.0551 -0.9637
 1006MOL0     H38786   0.828   1.992   8.574  0.6483 -0.4389 -4.1482
 1006MOL0     H38787   0.947   2.251   8.776 -0.8325 -0.6759  0.6077
 1006MOL0     H38788   0.817   2.222   8.654 -0.3638  0.4325  0.5949
 1006MOL0     H38789   0.952   2.333   8.621 -0.1509 -0.6947 -1.2279
 1006MOL0     H38790   1.320   2.468   8.782 -0.2336 -0.4974 -0.6494
 1006MOL0     H38791   1.495   2.560   8.935  0.1597 -2.3797  0.9803
 1006MOL0     H38792   1.852   2.447   8.776  0.7430  1.9675 -0.8878
 1006MOL0     H38793   1.854   2.611   8.833 -0.6534 -0.4385 -1.6652
 1006MOL0     H38794   1.957   2.358   8.976 -0.3705  0.4057 -1.0777
 1006MOL0     H38795   2.072   2.473   8.900  1.7907 -1.6286  1.4691
 1006MOL0     H38796   2.035   2.486   9.154 -1.0305 -0.4887  1.3555
 1006MOL0     H38797   1.881   2.561   9.116 -0.0307 -1.0408  0.3397
 1006MOL0     H38798   2.011   2.704   8.938  4.1347 -0.1576 -2.1591
 1006MOL0     H38799   2.151   2.657   9.029 -0.2398  1.6605 -1.4716
 1006MOL0     H38800   2.119   2.872   9.108  1.0162 -1.5785  1.8280
 1006MOL0     H38801   1.941   2.853   9.122  1.3499  1.6556 -2.3984
 1006MOL0     H38802   2.007   2.696   9.331 -0.2516  0.4280  0.8490
 1006MOL0     H38803   2.053   2.875   9.340 -1.6108 -1.5237  2.1176
 1006MOL0     H38804   2.266   2.841   9.350 -1.8494 -0.0608  0.0119
 1006MOL0     H38805   2.279   2.699   9.245 -0.7651 -1.4299 -0.7213
 1006MOL0     H38806   2.183   2.668   9.530 -1.6532  0.3985 -0.6828
 1006MOL0     H38807   2.340   2.636   9.470 -0.4486 -1.4082 -0.4557
 1006MOL0     H38808   1.743   2.221   8.840 -0.5677 -0.1925  0.7804
 1006MOL0     H38809   1.570   2.131   8.682  1.0295  0.6995 -1.9105
 1006MOL0     H38810   1.319   2.014   8.534  0.3116 -2.6046 -1.6511
 1006MOL0     H38811   1.190   1.788   8.517 -0.7912 -0.3893 -2.4387
 1006MOL0     H38812   1.903   0.826   7.733 -0.0814 -0.5303 -0.0307
 1006MOL0     H38813   1.972   0.710   7.533 -2.9272  1.9183  0.9010
 1006MOL0     H38814   2.091   0.239   7.428  1.7619 -0.3509  1.6595
 1006MOL0     H38815   2.147   0.068   7.266 -0.5580 -0.3542 -1.8083
 1006MOL0     H38816   2.314  -0.060   7.186 -0.1191  3.9396  0.6228
 1006MOL0     H38817   2.188  -0.059   7.064  0.0695 -0.7000  2.7897
 1006MOL0     H38818   2.480  -0.147   7.036  0.0737 -2.8882 -0.7932
 1006MOL0     H38819   2.369  -0.143   6.896 -0.7609 -0.6733  0.1949
 1006MOL0     H38820   2.315  -0.313   7.148  1.5126 -0.1885  0.1641
 1006MOL0     H38821   2.206  -0.280   7.006  0.1251  2.8061 -1.2393
 1006MOL0     H38822   2.454  -0.446   7.013 -1.3252 -1.3592  1.0983
 1006MOL0     H38823   2.385  -0.370   6.861  1.8693  2.0573  1.1748
 1006MOL0     H38824   2.109  -0.692   6.950  0.9113 -1.4265  0.4861
 1006MOL0     H38825   2.365   0.353   7.039 -3.9037 -0.2870 -2.7778
 1006MOL0     H38826   2.425   0.567   7.270  2.1226 -2.3160 -0.9923
 1006MOL0     H38827   2.392   0.568   7.102 -1.1130  0.2799 -0.3599
 1006MOL0     H38828   2.268   0.636   7.213  1.3748  1.0275 -0.4206
 1007MOL0     O38829   6.091   9.940   3.593 -0.1885  0.6433  1.1707
 1007MOL0     C38830   6.057  10.053   3.558  0.3044  0.3310  0.4466
 1007MOL0     O38831   6.133  10.168   3.585  0.4815  0.0676  0.8222
 1007MOL0     C38832   6.253  10.166   3.649 -0.1011  0.9220 -0.3835
 1007MOL0     C38833   6.340  10.267   3.624 -0.6928 -0.3572  0.0643
 1007MOL0     C38834   6.448  10.300   3.705  0.9122  0.7820 -0.1441
 1007MOL0     C38835   6.466  10.219   3.817 -0.6931 -0.0405 -0.2066
 1007MOL0     O38836   6.569  10.249   3.901  0.4630  0.9009  0.5329
 1007MOL0     C38837   6.598  10.389   3.917  0.1499  0.6740 -0.4162
 1007MOL0     C38838   6.647  10.412   4.062  0.5453  0.1596 -0.7204
 1007MOL0     C38839   6.728  10.298   4.132 -0.8457 -0.4252  0.8370
 1007MOL0     C38840   6.786  10.356   4.258  0.4593  0.0313  0.4333
 1007MOL0     C38841   6.865  10.253   4.342 -0.3379  0.0738  0.1612
 1007MOL0     C38842   6.890  10.310   4.481  0.3864 -0.1614 -0.8276
 1007MOL0     C38843   6.956  10.207   4.572  0.2896  0.9121  0.8277
 1007MOL0     C38844   6.986  10.274   4.711  0.1893 -0.1964 -0.1311
 1007MOL0     N38845   7.115  10.340   4.727 -0.0963 -0.2524  0.1606
 1007MOL0     C38846   7.236  10.283   4.690  0.6676  0.5338 -0.0616
 1007MOL0     C38847   7.330  10.383   4.717  0.7307  0.2496  0.8338
 1007MOL0     C38848   7.483  10.389   4.720 -0.5390  0.0279 -0.6307
 1007MOL0     C38849   7.544  10.300   4.838  0.6988  0.7760  0.7019
 1007MOL0     C38850   7.681  10.237   4.809 -0.9569  0.1425 -0.1508
 1007MOL0     C38851   7.766  10.263   4.931  0.0705  0.0327  0.2400
 1007MOL0     O38852   7.879  10.174   4.924 -0.0810  0.3691 -0.3153
 1007MOL0     C38853   7.952  10.158   5.041  0.2566 -0.1451  0.3455
 1007MOL0     C38854   8.009  10.034   5.063 -0.6918 -0.8176 -0.4083
 1007MOL0     C38855   8.110  10.023   5.163 -0.3226 -0.1743  0.0950
 1007MOL0     C38856   8.180   9.890   5.147  1.4687 -0.4979  0.1141
 1007MOL0     C38857   8.142  10.127   5.257  1.3307 -0.9638  0.1411
 1007MOL0     C38858   8.245  10.121   5.370 -0.0349 -0.6924 -0.6259
 1007MOL0     O38859   8.292  10.245   5.420 -0.6106 -0.0497  0.4888
 1007MOL0     C38860   8.400  10.247   5.508  0.4675  0.5531 -0.0164
 1007MOL0     C38861   8.374  10.229   5.649  0.5472  0.1227  0.1861
 1007MOL0     C38862   8.471  10.215   5.748 -0.2335 -0.3701 -0.4898
 1007MOL0     C38863   8.604  10.221   5.703  0.2565 -0.8192 -0.7690
 1007MOL0     O38864   8.695  10.217   5.806  0.6892  0.3667 -0.3766
 1007MOL0     C38865   8.826  10.278   5.788  0.6996 -0.0320 -0.2845
 1007MOL0     C38866   8.822  10.438   5.754 -0.5037  0.7091 -0.5738
 1007MOL0     C38867   8.959  10.508   5.755  0.1676 -0.7346 -0.0009
 1007MOL0     C38868   9.043  10.488   5.631  0.1887 -0.3334 -0.6585
 1007MOL0     C38869   9.188  10.539   5.675 -0.1752  0.6955 -0.0392
 1007MOL0     C38870   9.286  10.527   5.553 -0.3994  0.1155  0.2531
 1007MOL0     C38871   9.258  10.615   5.434  0.3995  0.2856  0.5775
 1007MOL0     C38872   9.354  10.580   5.317  0.5699 -0.3580  0.3318
 1007MOL0    Cl38873   9.512  10.634   5.354 -0.3743 -0.1460  0.1325
 1007MOL0     C38874   8.633  10.225   5.567  0.0856 -0.3002  0.2972
 1007MOL0     C38875   8.536  10.241   5.471 -0.9095 -0.3397  0.4868
 1007MOL0     O38876   8.283  10.010   5.410 -0.7430 -0.4074  1.2726
 1007MOL0     C38877   8.072  10.244   5.232 -0.2058  0.3967  0.1439
 1007MOL0     C38878   7.984  10.264   5.120  0.2273 -0.1626  0.0962
 1007MOL0     N38879   7.265  10.492   4.752 -0.2203 -0.2089  0.5708
 1007MOL0     N38880   7.143  10.473   4.758  0.5592  1.2297 -0.1816
 1007MOL0     C38881   6.375  10.112   3.848 -0.6338 -0.1403 -0.2039
 1007MOL0     C38882   6.267  10.089   3.768 -0.8490  1.3514  0.0010
 1007MOL0     C38883   5.942  10.075   3.482  0.0630 -0.3180 -0.6761
 1007MOL0     C38884   5.943  10.166   3.373  0.1626  0.2975  0.7010
 1007MOL0     C38885   5.821  10.186   3.296 -0.7217  0.6194 -0.3164
 1007MOL0     C38886   5.706  10.121   3.334 -0.4927 -0.6081  0.2400
 1007MOL0     O38887   5.588  10.140   3.275 -0.0668 -0.1268 -0.1950
 1007MOL0     C38888   5.555  10.056   3.162 -0.1879 -0.5901 -0.1054
 1007MOL0     C38889   5.403  10.083   3.135 -0.2246 -0.6143 -0.8706
 1007MOL0     C38890   5.362  10.114   2.984  0.6758  0.5557 -0.4096
 1007MOL0     C38891   5.320   9.985   2.898  0.9708 -0.1626  0.7739
 1007MOL0     C38892   5.416   9.883   2.886  1.0757  0.7662  1.1547
 1007MOL0     C38893   5.489   9.790   2.862  0.1179 -0.7584 -0.9304
 1007MOL0     C38894   5.713  10.041   3.455  0.1396  0.5447  0.1011
 1007MOL0     C38895   5.831  10.009   3.520 -0.4309 -0.3487 -0.1708
 1007MOL0     C38896   5.810   9.913   3.627  0.7305 -1.3799  0.8744
 1007MOL0     H38897   6.339  10.329   3.536 -2.0807 -2.2693 -1.3616
 1007MOL0     H38898   6.520  10.376   3.676  1.4733  0.1109 -0.5595
 1007MOL0     H38899   6.515  10.460   3.911 -0.3996  0.0932  0.2348
 1007MOL0     H38900   6.682  10.425   3.856  0.7699  1.1229  0.6801
 1007MOL0     H38901   6.706  10.504   4.070  0.7117  0.2126 -2.3685
 1007MOL0     H38902   6.563  10.441   4.126 -0.6444 -1.2248 -1.5735
 1007MOL0     H38903   6.672  10.208   4.156 -1.2033 -0.0539  1.4064
 1007MOL0     H38904   6.799  10.270   4.053  0.9951  0.1597  2.2049
 1007MOL0     H38905   6.843  10.448   4.241  0.7409 -0.2287 -0.0584
 1007MOL0     H38906   6.694  10.376   4.314  0.3234  1.4789 -0.2452
 1007MOL0     H38907   6.964  10.233   4.299 -0.2003 -0.3995  0.6815
 1007MOL0     H38908   6.813  10.157   4.342  1.8140 -1.1733  0.0570
 1007MOL0     H38909   6.960  10.393   4.470 -0.9793  1.1502  0.0232
 1007MOL0     H38910   6.796  10.355   4.512  0.8598  0.8329 -0.7942
 1007MOL0     H38911   7.038  10.158   4.519 -1.5172 -1.1847 -0.1990
 1007MOL0     H38912   6.889  10.121   4.584  1.7841 -0.6367 -1.2169
 1007MOL0     H38913   6.907  10.348   4.725  0.2075 -0.5656  2.4909
 1007MOL0     H38914   6.969  10.205   4.795 -0.1308 -0.4141 -0.3769
 1007MOL0     H38915   7.259  10.185   4.650  0.8654  0.0626  1.1519
 1007MOL0     H38916   7.512  10.494   4.725  1.3769 -0.2960 -2.8064
 1007MOL0     H38917   7.522  10.347   4.627  0.9185  0.8202 -0.4051
 1007MOL0     H38918   7.546  10.369   4.922 -2.9059  1.5079  0.3389
 1007MOL0     H38919   7.467  10.226   4.863  0.3287 -0.1451 -2.6087
 1007MOL0     H38920   7.675  10.129   4.790  1.4734 -0.0327 -0.2917
 1007MOL0     H38921   7.731  10.286   4.725 -2.6508  1.4141 -0.4763
 1007MOL0     H38922   7.797  10.368   4.940 -2.8607  0.9042  1.3146
 1007MOL0     H38923   7.723  10.232   5.027  3.7581  1.9136  2.7687
 1007MOL0     H38924   7.993   9.954   4.991  2.3011 -2.1756  0.2730
 1007MOL0     H38925   8.106   9.810   5.158  1.2449 -0.9534 -3.4684
 1007MOL0     H38926   8.264   9.881   5.216  2.7440 -1.1457 -1.4844
 1007MOL0     H38927   8.214   9.888   5.043  2.7813 -3.6025  0.4818
 1007MOL0     H38928   8.269  10.224   5.676  0.0375  0.0038 -1.6448
 1007MOL0     H38929   8.428  10.216   5.848 -2.4671 -2.1156 -1.3381
 1007MOL0     H38930   8.866  10.261   5.888 -1.2455  0.6540  0.6602
 1007MOL0     H38931   8.887  10.220   5.719 -2.1913 -2.6905 -0.8493
 1007MOL0     H38932   8.782  10.462   5.656  0.5561 -0.1984 -1.2541
 1007MOL0     H38933   8.760  10.482   5.832 -0.3314 -1.3648  0.8019
 1007MOL0     H38934   9.013  10.482   5.846  3.1232  1.5386 -0.9211
 1007MOL0     H38935   8.951  10.617   5.759  1.8596 -0.5278 -0.9778
 1007MOL0     H38936   9.009  10.557   5.553 -1.0076 -2.1005 -1.7507
 1007MOL0     H38937   9.040  10.384   5.598  0.3021 -0.4610 -0.2716
 1007MOL0     H38938   9.182  10.642   5.712 -4.4064  0.4081  0.5190
 1007MOL0     H38939   9.228  10.472   5.751 -0.3318  0.4051 -0.2085
 1007MOL0     H38940   9.291  10.425   5.515  1.8128  0.9189 -1.8813
 1007MOL0     H38941   9.383  10.554   5.595  1.1528  0.6112 -3.3313
 1007MOL0     H38942   9.275  10.720   5.461  0.8309  0.4771 -0.3981
 1007MOL0     H38943   9.152  10.600   5.412  0.9843 -3.5463 -0.3429
 1007MOL0     H38944   9.327  10.620   5.219 -0.1212 -1.2531  0.1491
 1007MOL0     H38945   9.361  10.472   5.302 -0.6228 -0.3328 -0.4615
 1007MOL0     H38946   8.734  10.231   5.529  0.6030  2.6865  1.8479
 1007MOL0     H38947   8.569  10.249   5.368 -0.2997 -0.1551  0.6931
 1007MOL0     H38948   8.108  10.333   5.282  2.3638 -1.0937  1.1424
 1007MOL0     H38949   7.946  10.363   5.095 -2.4461 -0.5220  2.2274
 1007MOL0     H38950   6.400  10.039   3.924  0.7019 -1.6214 -1.9683
 1007MOL0     H38951   6.199  10.008   3.791  2.8111 -2.0444 -0.0467
 1007MOL0     H38952   6.035  10.211   3.337  1.0977 -1.8641  0.2856
 1007MOL0     H38953   5.832  10.246   3.205 -0.2246 -0.6734 -1.1418
 1007MOL0     H38954   5.619  10.075   3.075  2.4419  0.7770  1.9884
 1007MOL0     H38955   5.581   9.957   3.199 -0.3742 -0.4668  0.3572
 1007MOL0     H38956   5.365  10.163   3.199  4.8222  1.1835  0.3720
 1007MOL0     H38957   5.346   9.995   3.168  2.0427 -1.6378  0.6107
 1007MOL0     H38958   5.277  10.183   2.988 -1.9844 -2.5097  0.4877
 1007MOL0     H38959   5.451  10.159   2.940  1.9034 -0.8924  0.4661
 1007MOL0     H38960   5.301  10.029   2.800  3.4213  2.1636  1.2261
 1007MOL0     H38961   5.226   9.954   2.944  1.1766 -0.9859  0.6445
 1007MOL0     H38962   5.545   9.702   2.837 -0.1196 -0.4873 -2.5272
 1007MOL0     H38963   5.617   9.998   3.481  0.5613  0.1215  1.0070
 1007MOL0     H38964   5.848   9.956   3.721  2.6500  2.2741 -1.3450
 1007MOL0     H38965   5.702   9.900   3.634  0.8516 -1.7077  2.6273
 1007MOL0     H38966   5.863   9.822   3.596 -0.6104 -2.2161  0.9800
 1008MOL0     O38967   6.112   6.011   8.163  0.4432 -0.1527 -0.2222
 1008MOL0     C38968   6.179   6.116   8.163 -0.5293  0.3723  1.0866
 1008MOL0     O38969   6.225   6.186   8.051  0.8182  0.0164  0.1208
 1008MOL0     C38970   6.194   6.137   7.921  0.1101  0.2932 -0.2584
 1008MOL0     C38971   6.108   6.204   7.830  0.0569 -0.3622 -0.2326
 1008MOL0     C38972   6.087   6.150   7.703  0.2290  0.0840 -0.3227
 1008MOL0     C38973   6.152   6.032   7.664  1.8346  0.1049 -0.2943
 1008MOL0     O38974   6.130   5.979   7.541  0.9963  0.3863  0.4968
 1008MOL0     C38975   6.039   6.039   7.452 -0.6233  0.7490  0.2353
 1008MOL0     C38976   6.026   5.953   7.333  0.8574  0.2167  1.0241
 1008MOL0     C38977   5.964   5.818   7.374 -0.1687  0.8989 -0.6430
 1008MOL0     C38978   5.928   5.721   7.261 -0.4741  0.5499  0.6716
 1008MOL0     C38979   5.881   5.581   7.318  0.6023 -0.0367 -0.0032
 1008MOL0     C38980   5.847   5.480   7.210 -0.0848 -0.2076 -0.2028
 1008MOL0     C38981   5.746   5.529   7.097  0.3944 -0.1414 -0.9979
 1008MOL0     C38982   5.686   5.401   7.040 -0.2138  0.1976  0.5970
 1008MOL0     N38983   5.586   5.426   6.937 -0.7564  0.1224  0.0529
 1008MOL0     C38984   5.603   5.441   6.802 -0.8275  0.0511 -0.1666
 1008MOL0     C38985   5.476   5.449   6.748 -0.5604 -0.1597 -1.4034
 1008MOL0     C38986   5.429   5.468   6.603 -0.6947 -0.1233 -0.8589
 1008MOL0     C38987   5.449   5.342   6.524 -0.5724 -0.0545  1.5386
 1008MOL0     C38988   5.384   5.363   6.382 -0.7786  0.3527  0.5185
 1008MOL0     C38989   5.442   5.277   6.265  1.2704 -0.3367 -0.3471
 1008MOL0     O38990   5.412   5.140   6.278 -0.0507 -0.2493  0.2284
 1008MOL0     C38991   5.306   5.088   6.207  0.5705 -0.9881  0.0077
 1008MOL0     C38992   5.189   5.150   6.186 -0.9627 -0.0426  0.2514
 1008MOL0     C38993   5.088   5.086   6.115 -0.3498  0.7952  0.0015
 1008MOL0     C38994   4.963   5.170   6.091  0.3002  0.4286  0.2363
 1008MOL0     C38995   5.107   4.957   6.059  0.8620 -0.0474 -1.0974
 1008MOL0     C38996   4.999   4.874   5.990  0.5840 -0.3179  0.2289
 1008MOL0     O38997   5.040   4.791   5.890  0.1250  0.6647  0.4116
 1008MOL0     C38998   4.940   4.741   5.802  0.5175  0.2428  0.5468
 1008MOL0     C38999   4.886   4.811   5.690  0.0250 -0.4240 -0.3020
 1008MOL0     C39000   4.793   4.763   5.601  0.4470 -0.3878 -0.0330
 1008MOL0     C39001   4.750   4.634   5.624 -0.4582  0.1126 -0.3661
 1008MOL0     O39002   4.647   4.597   5.540 -0.6577 -0.2523 -0.1156
 1008MOL0     C39003   4.552   4.494   5.580  0.1242 -0.2141  1.2606
 1008MOL0     C39004   4.425   4.564   5.644 -0.3726  0.5296  0.5110
 1008MOL0     C39005   4.311   4.591   5.548  0.5499  0.3636  0.3255
 1008MOL0     C39006   4.235   4.463   5.499  0.5155 -0.9845  0.1004
 1008MOL0     C39007   4.092   4.476   5.476  1.1182  0.5183  0.4233
 1008MOL0     C39008   4.054   4.601   5.392  0.3075 -0.7695  0.7046
 1008MOL0     C39009   3.903   4.611   5.361 -1.5894 -0.5607  0.1820
 1008MOL0     C39010   3.818   4.502   5.283 -0.1586  0.1773  0.1747
 1008MOL0    Cl39011   3.671   4.572   5.220  0.1885  0.0087 -0.1860
 1008MOL0     C39012   4.814   4.554   5.724 -0.6753  0.3048 -0.6718
 1008MOL0     C39013   4.913   4.608   5.804 -0.4210  0.0888  0.1426
 1008MOL0     O39014   4.884   4.883   6.035  0.7573 -0.7142  1.2559
 1008MOL0     C39015   5.231   4.901   6.086  0.6148  0.7650 -0.4288
 1008MOL0     C39016   5.324   4.959   6.164  0.1877 -0.6541  0.2972
 1008MOL0     N39017   5.394   5.428   6.859  0.6468  0.1326 -0.1508
 1008MOL0     N39018   5.455   5.413   6.973 -0.0086  0.3572  0.0935
 1008MOL0     C39019   6.228   5.960   7.752 -0.5728  0.5349  0.1902
 1008MOL0     C39020   6.243   6.011   7.878  0.0501  0.4891 -0.2863
 1008MOL0     C39021   6.215   6.170   8.293 -0.7506 -0.1069  0.8035
 1008MOL0     C39022   6.121   6.240   8.364  0.4780 -1.2508  0.2328
 1008MOL0     C39023   6.146   6.299   8.491  0.9193 -0.4207  0.3786
 1008MOL0     C39024   6.270   6.268   8.546 -0.1571  0.3247 -0.5760
 1008MOL0     O39025   6.292   6.299   8.674  0.2852  0.5539  0.2979
 1008MOL0     C39026   6.211   6.239   8.777 -0.5311 -0.0285  0.4022
 1008MOL0     C39027   6.290   6.136   8.862 -0.3298 -0.1924 -0.4998
 1008MOL0     C39028   6.320   6.007   8.787  0.3211 -0.0961  0.4625
 1008MOL0     C39029   6.449   5.932   8.830  0.5190  0.1917  0.5487
 1008MOL0     C39030   6.551   6.017   8.768  0.7820 -0.0455 -0.3142
 1008MOL0     C39031   6.630   6.089   8.710  0.0109 -0.1865 -0.4930
 1008MOL0     C39032   6.364   6.185   8.476  0.3529 -0.6146  0.0114
 1008MOL0     C39033   6.344   6.138   8.349  0.2139  0.3469 -0.9637
 1008MOL0     C39034   6.445   6.042   8.275  0.2183  0.0676 -0.5518
 1008MOL0     H39035   6.057   6.291   7.869 -0.6580  1.4697 -4.5707
 1008MOL0     H39036   6.023   6.205   7.635  2.9391 -2.1922 -5.2406
 1008MOL0     H39037   6.075   6.136   7.416 -2.6567  1.0571 -1.1595
 1008MOL0     H39038   5.939   6.061   7.491 -0.3620 -0.7764  1.8954
 1008MOL0     H39039   5.947   6.002   7.276  0.7212 -1.2467 -0.1171
 1008MOL0     H39040   6.119   5.938   7.278 -1.4608  0.2775 -3.3384
 1008MOL0     H39041   6.039   5.778   7.442  0.1094 -0.0535 -1.4933
 1008MOL0     H39042   5.867   5.836   7.423  0.5621  2.1491  0.4248
 1008MOL0     H39043   5.846   5.773   7.211 -0.4428 -1.4055 -1.5683
 1008MOL0     H39044   6.011   5.705   7.191 -0.1841 -2.8256  1.6224
 1008MOL0     H39045   5.792   5.591   7.381  0.8472 -2.0945  0.7654
 1008MOL0     H39046   5.963   5.540   7.377 -0.9886  1.0825  3.2487
 1008MOL0     H39047   5.930   5.449   7.145 -1.5615 -0.0574 -2.2415
 1008MOL0     H39048   5.808   5.385   7.247 -0.5158 -0.6533 -1.7256
 1008MOL0     H39049   5.798   5.587   7.020  0.6708  0.5847 -0.2842
 1008MOL0     H39050   5.674   5.595   7.146  2.3605  1.6228 -0.3053
 1008MOL0     H39051   5.769   5.340   7.000 -0.1306 -0.2165  1.3747
 1008MOL0     H39052   5.637   5.353   7.125 -0.9441  0.2250  0.1999
 1008MOL0     H39053   5.698   5.442   6.749 -0.0048  1.9747  1.2407
 1008MOL0     H39054   5.468   5.554   6.548 -0.4363 -1.2011 -2.4560
 1008MOL0     H39055   5.321   5.483   6.601 -0.5779  0.8482 -0.3050
 1008MOL0     H39056   5.556   5.332   6.502 -0.9546  1.0624 -1.1836
 1008MOL0     H39057   5.402   5.256   6.572  0.2878 -1.7068 -0.4172
 1008MOL0     H39058   5.275   5.359   6.394 -0.6379  0.8785  2.3704
 1008MOL0     H39059   5.398   5.468   6.357 -3.6678  0.5228 -0.8311
 1008MOL0     H39060   5.418   5.318   6.167 -3.7622 -0.3263  0.6103
 1008MOL0     H39061   5.550   5.291   6.260  1.1833 -0.1620 -3.7321
 1008MOL0     H39062   5.181   5.247   6.233 -1.4917 -0.9174  2.0467
 1008MOL0     H39063   4.902   5.133   6.008  0.2724  0.3132  0.3078
 1008MOL0     H39064   4.989   5.271   6.057 -1.3136 -0.0901 -2.9229
 1008MOL0     H39065   4.901   5.158   6.181 -1.5035  1.8055 -0.7458
 1008MOL0     H39066   4.923   4.912   5.675  1.7090 -1.3491 -3.1587
 1008MOL0     H39067   4.752   4.828   5.524 -0.6485  0.0890  0.9199
 1008MOL0     H39068   4.530   4.451   5.482  3.5478  1.9278 -0.6665
 1008MOL0     H39069   4.591   4.414   5.645  3.6007  2.9307  3.4958
 1008MOL0     H39070   4.389   4.495   5.721 -0.9683 -0.1092 -0.3140
 1008MOL0     H39071   4.462   4.654   5.694 -1.5712 -0.0742  2.6173
 1008MOL0     H39072   4.357   4.641   5.463  1.0625  1.0087  0.9763
 1008MOL0     H39073   4.251   4.655   5.614  0.9224  1.8290 -0.7119
 1008MOL0     H39074   4.257   4.383   5.570 -0.5891 -0.0108  1.6012
 1008MOL0     H39075   4.286   4.434   5.407  0.0407 -0.7341 -0.2422
 1008MOL0     H39076   4.052   4.383   5.435  0.0331 -0.9225  4.2492
 1008MOL0     H39077   4.049   4.481   5.577 -2.1881 -2.0402 -0.6726
 1008MOL0     H39078   4.104   4.588   5.296  2.7963  0.7400  1.6916
 1008MOL0     H39079   4.087   4.696   5.436 -1.5995 -0.0524  0.6679
 1008MOL0     H39080   3.910   4.699   5.296 -0.0932  0.6003  1.8120
 1008MOL0     H39081   3.848   4.635   5.453  0.4993 -1.0235  1.6315
 1008MOL0     H39082   3.806   4.407   5.336  2.0368  0.2871  0.9926
 1008MOL0     H39083   3.883   4.472   5.201  0.3523  1.9027 -0.0829
 1008MOL0     H39084   4.780   4.452   5.737 -2.4364  0.5526 -2.8451
 1008MOL0     H39085   4.968   4.545   5.873  0.2074  1.1778  0.6583
 1008MOL0     H39086   5.251   4.803   6.043  1.3388  0.7507 -0.0868
 1008MOL0     H39087   5.421   4.914   6.185  2.1164  2.0467 -2.0625
 1008MOL0     H39088   6.285   5.874   7.717 -1.7072  0.4550 -1.6121
 1008MOL0     H39089   6.299   5.953   7.950 -1.3679  1.6784  1.9217
 1008MOL0     H39090   6.024   6.258   8.321  1.1915 -0.9702 -1.3192
 1008MOL0     H39091   6.067   6.341   8.554  3.9564 -1.0891  5.1379
 1008MOL0     H39092   6.176   6.314   8.849  1.0055  0.1248  1.0240
 1008MOL0     H39093   6.126   6.182   8.740 -1.5602  1.6540  0.0357
 1008MOL0     H39094   6.229   6.105   8.947  0.3735 -0.8070 -0.2117
 1008MOL0     H39095   6.381   6.186   8.895 -1.1287  0.9170  0.1193
 1008MOL0     H39096   6.235   5.942   8.807  0.0022  0.2668  0.3076
 1008MOL0     H39097   6.312   6.026   8.680  0.9113 -1.6318  0.1272
 1008MOL0     H39098   6.450   5.829   8.792 -1.8157  0.3715 -0.1630
 1008MOL0     H39099   6.466   5.940   8.937  1.1891  0.0144  0.4585
 1008MOL0     H39100   6.694   6.163   8.666 -0.0890 -0.6351 -1.4144
 1008MOL0     H39101   6.458   6.155   8.522  3.2384  0.6706 -4.3896
 1008MOL0     H39102   6.493   6.092   8.190  0.2740  2.3934  0.7362
 1008MOL0     H39103   6.524   6.003   8.341 -1.5223 -3.3014 -0.2432
 1008MOL0     H39104   6.392   5.954   8.237 -1.2570  0.5949  0.1952
 1009MOL0     O39105   3.549   5.807   3.875 -0.0876 -0.6882  0.9645
 1009MOL0     C39106   3.592   5.695   3.876 -0.2906  0.1234 -0.0345
 1009MOL0     O39107   3.668   5.647   3.786 -0.0080  0.0955  0.6593
 1009MOL0     C39108   3.675   5.717   3.665  0.4947  0.4426 -0.2887
 1009MOL0     C39109   3.573   5.721   3.570  0.2954  1.3949  0.0571
 1009MOL0     C39110   3.576   5.805   3.461 -0.2612 -0.4909  0.4563
 1009MOL0     C39111   3.690   5.882   3.445 -0.4523 -0.5257 -0.7424
 1009MOL0     O39112   3.683   5.982   3.353 -0.1773 -0.0232  0.3243
 1009MOL0     C39113   3.772   6.097   3.364 -0.5570  0.1470  0.9756
 1009MOL0     C39114   3.741   6.190   3.243 -0.6526 -0.0726  0.6081
 1009MOL0     C39115   3.853   6.293   3.224 -0.2037  0.0701  0.6865
 1009MOL0     C39116   3.849   6.348   3.082  0.2296  0.0079 -0.0017
 1009MOL0     C39117   3.910   6.487   3.073  0.3606 -0.6092  0.8297
 1009MOL0     C39118   3.893   6.557   2.934 -0.1822  0.5743 -0.0056
 1009MOL0     C39119   4.026   6.591   2.851  0.1951 -1.1845  0.0297
 1009MOL0     C39120   4.107   6.700   2.924 -0.8910 -0.7907  0.5618
 1009MOL0     N39121   4.226   6.728   2.840 -0.2336 -0.0420  0.4724
 1009MOL0     C39122   4.351   6.677   2.846 -0.3768 -1.1895 -0.8937
 1009MOL0     C39123   4.428   6.754   2.766 -0.4230  0.2707  0.6942
 1009MOL0     C39124   4.575   6.750   2.731 -0.5111  0.3833  0.4299
 1009MOL0     C39125   4.606   6.696   2.591 -0.2518 -1.2856 -1.1664
 1009MOL0     C39126   4.756   6.687   2.556 -0.1895  0.2289 -0.1290
 1009MOL0     C39127   4.803   6.822   2.512 -0.9959 -0.2985  0.3098
 1009MOL0     O39128   4.944   6.805   2.484 -0.1681  0.0246 -0.3713
 1009MOL0     C39129   4.999   6.855   2.368 -0.4800  0.1573 -0.6194
 1009MOL0     C39130   4.963   6.975   2.314  0.5466 -0.6145 -0.8078
 1009MOL0     C39131   5.016   7.015   2.190  0.2533 -1.1645 -1.2545
 1009MOL0     C39132   4.978   7.150   2.140 -0.9453 -0.0125  0.3076
 1009MOL0     C39133   5.100   6.933   2.111 -0.7412  0.0391  0.1420
 1009MOL0     C39134   5.153   6.958   1.970  0.8293  0.1704 -0.5296
 1009MOL0     O39135   5.186   6.843   1.890  0.0159  0.4348 -0.6061
 1009MOL0     C39136   5.257   6.856   1.769 -0.5478  0.3503 -0.2207
 1009MOL0     C39137   5.375   6.775   1.740  0.7129  0.5014  0.3478
 1009MOL0     C39138   5.442   6.788   1.617 -0.1482 -0.3647  0.1441
 1009MOL0     C39139   5.395   6.873   1.522  0.2168 -1.7487 -0.0817
 1009MOL0     O39140   5.479   6.881   1.410 -0.0102  0.4300 -0.1633
 1009MOL0     C39141   5.522   7.002   1.356  0.2738 -0.7141  1.2086
 1009MOL0     C39142   5.625   6.971   1.239  0.5070  0.8623  0.0486
 1009MOL0     C39143   5.677   7.104   1.168  0.1408  0.6774  0.5324
 1009MOL0     C39144   5.620   7.126   1.027 -0.4833  0.4384  0.2023
 1009MOL0     C39145   5.676   7.246   0.952  0.0876  1.1825 -0.1961
 1009MOL0     C39146   5.814   7.203   0.889 -0.2270  0.2632 -0.9211
 1009MOL0     C39147   5.894   7.321   0.843  0.1985  0.5884  0.0920
 1009MOL0     C39148   6.040   7.280   0.807  0.1624 -0.2712 -0.4877
 1009MOL0    Cl39149   6.049   7.186   0.658 -0.2598 -0.2390 -0.5495
 1009MOL0     C39150   5.283   6.958   1.552  0.5618  0.0762  0.9490
 1009MOL0     C39151   5.216   6.948   1.670 -0.1160  0.5491 -0.0104
 1009MOL0     O39152   5.190   7.068   1.938  0.3979 -0.1184 -0.3590
 1009MOL0     C39153   5.132   6.813   2.166  0.0931  1.2367 -0.2152
 1009MOL0     C39154   5.094   6.772   2.290 -0.4193 -0.2939 -0.6028
 1009MOL0     N39155   4.350   6.849   2.703 -0.0339  0.8741 -0.1464
 1009MOL0     N39156   4.231   6.832   2.745 -1.1588 -0.5835  0.3472
 1009MOL0     C39157   3.803   5.852   3.525 -1.4589 -1.0063 -0.0199
 1009MOL0     C39158   3.792   5.776   3.643 -0.2791 -0.5022 -0.3161
 1009MOL0     C39159   3.560   5.596   3.985 -0.3334 -0.0898 -0.0774
 1009MOL0     C39160   3.593   5.456   3.967 -0.7584  0.8156  0.3853
 1009MOL0     C39161   3.545   5.366   4.061 -0.1214  0.3223  0.3492
 1009MOL0     C39162   3.482   5.407   4.178  0.4591 -0.2306  0.4488
 1009MOL0     O39163   3.441   5.312   4.269  0.2238  0.4776 -0.5830
 1009MOL0     C39164   3.461   5.338   4.410  0.8547  0.1179  0.1986
 1009MOL0     C39165   3.538   5.220   4.471  0.2881 -0.2744 -1.2286
 1009MOL0     C39166   3.688   5.218   4.446 -0.0709 -0.2197 -0.2049
 1009MOL0     C39167   3.731   5.090   4.376 -0.1451  0.3970 -1.1539
 1009MOL0     C39168   3.873   5.065   4.354  0.8823  0.3162  0.0346
 1009MOL0     C39169   3.990   5.046   4.362 -0.0901  0.3944  0.3681
 1009MOL0     C39170   3.453   5.541   4.197  0.0284 -0.5356  0.7143
 1009MOL0     C39171   3.510   5.641   4.107  0.2847 -0.0884  0.5963
 1009MOL0     C39172   3.492   5.784   4.160  0.5508  0.4389  0.1725
 1009MOL0     H39173   3.481   5.671   3.601  1.0827 -0.5462 -0.5443
 1009MOL0     H39174   3.480   5.823   3.415  0.2966  0.3491 -0.4227
 1009MOL0     H39175   3.876   6.065   3.364 -0.3508  0.8088  0.9765
 1009MOL0     H39176   3.751   6.147   3.459  2.1513  1.1510  1.1145
 1009MOL0     H39177   3.727   6.145   3.145 -1.4293  4.2543 -1.5490
 1009MOL0     H39178   3.644   6.239   3.259 -0.4739  0.6410 -0.3771
 1009MOL0     H39179   3.841   6.373   3.298 -1.8638  1.7230 -1.2381
 1009MOL0     H39180   3.949   6.244   3.238 -0.2570  0.2432  1.7509
 1009MOL0     H39181   3.891   6.288   3.001 -0.5847  0.9748 -1.1809
 1009MOL0     H39182   3.740   6.354   3.071 -0.2344 -3.7564  1.1120
 1009MOL0     H39183   4.016   6.479   3.100  0.0362  0.8246  2.7288
 1009MOL0     H39184   3.870   6.559   3.145 -2.4010 -0.6462 -0.5615
 1009MOL0     H39185   3.823   6.508   2.865 -1.1996  1.4082  0.4090
 1009MOL0     H39186   3.845   6.648   2.970  1.0879 -0.4052  4.7617
 1009MOL0     H39187   3.987   6.630   2.756 -0.2747  2.3738  1.5270
 1009MOL0     H39188   4.086   6.503   2.828  2.5572 -0.4526  2.8580
 1009MOL0     H39189   4.064   6.800   2.941 -0.6934 -0.2054 -2.0177
 1009MOL0     H39190   4.129   6.664   3.025  0.2942 -0.2272  0.5255
 1009MOL0     H39191   4.396   6.601   2.909  1.9772  1.2201  0.5207
 1009MOL0     H39192   4.626   6.683   2.800 -1.4807  0.6929  1.4815
 1009MOL0     H39193   4.614   6.850   2.749  1.6789 -0.8397  3.3389
 1009MOL0     H39194   4.554   6.600   2.592 -2.0615 -0.4054  1.7444
 1009MOL0     H39195   4.557   6.766   2.522  2.0134  0.0618 -1.5018
 1009MOL0     H39196   4.807   6.652   2.647  1.3264  2.4345 -0.0750
 1009MOL0     H39197   4.770   6.611   2.478  0.4748 -0.8044  0.9534
 1009MOL0     H39198   4.770   6.844   2.410 -2.8084 -0.5786  0.8080
 1009MOL0     H39199   4.783   6.902   2.584 -2.5126 -0.4320  0.0635
 1009MOL0     H39200   4.901   7.041   2.374 -0.2162 -0.2790 -1.9258
 1009MOL0     H39201   5.072   7.206   2.137  0.1202 -1.7832 -1.3361
 1009MOL0     H39202   4.899   7.202   2.196 -0.0227  1.8946 -0.0638
 1009MOL0     H39203   4.930   7.142   2.041 -2.8658  0.4665  1.1448
 1009MOL0     H39204   5.414   6.693   1.801  1.7754 -0.2183 -1.2232
 1009MOL0     H39205   5.536   6.739   1.592  0.0964  0.3330 -0.3442
 1009MOL0     H39206   5.445   7.078   1.340  0.0593 -1.4357 -1.7804
 1009MOL0     H39207   5.577   7.065   1.426 -2.9439  3.3266  0.5197
 1009MOL0     H39208   5.714   6.921   1.279 -0.2299 -0.4944  0.0438
 1009MOL0     H39209   5.580   6.900   1.170  0.9032 -2.5133  2.9584
 1009MOL0     H39210   5.785   7.092   1.157  0.0439  1.9106 -3.5763
 1009MOL0     H39211   5.664   7.191   1.234  1.9198  1.6001 -0.2599
 1009MOL0     H39212   5.511   7.132   1.037 -0.3374  3.8007  0.9569
 1009MOL0     H39213   5.641   7.039   0.965 -1.1365 -1.1648  2.1434
 1009MOL0     H39214   5.611   7.266   0.867  1.0947  1.2613 -0.9662
 1009MOL0     H39215   5.669   7.331   1.021 -3.5039  1.0131 -0.1543
 1009MOL0     H39216   5.786   7.134   0.809 -1.4157 -1.9199  1.2324
 1009MOL0     H39217   5.876   7.157   0.968 -0.6868  1.2342  0.0253
 1009MOL0     H39218   5.908   7.404   0.913 -2.3872 -0.4212  1.9479
 1009MOL0     H39219   5.839   7.377   0.766 -0.2980 -3.3787 -2.7561
 1009MOL0     H39220   6.087   7.219   0.885 -1.7773  0.9722  1.7692
 1009MOL0     H39221   6.090   7.376   0.792 -0.8198  0.0991 -1.4791
 1009MOL0     H39222   5.251   7.034   1.481  0.3038 -1.3669 -0.5333
 1009MOL0     H39223   5.132   7.016   1.679 -2.1063 -1.3424 -2.7143
 1009MOL0     H39224   5.193   6.751   2.102  2.1564 -1.4984  3.9405
 1009MOL0     H39225   5.111   6.666   2.303 -0.0702 -0.0552  1.2056
 1009MOL0     H39226   3.900   5.891   3.497 -1.5125 -0.1729  0.8926
 1009MOL0     H39227   3.871   5.772   3.717 -1.5617  0.1450  1.1454
 1009MOL0     H39228   3.647   5.428   3.877 -2.1797  0.4502 -0.3888
 1009MOL0     H39229   3.570   5.262   4.047 -3.7114 -0.8093  1.1938
 1009MOL0     H39230   3.500   5.434   4.445 -2.4986  1.7614 -0.1418
 1009MOL0     H39231   3.361   5.337   4.454  0.7129 -0.3678 -0.1325
 1009MOL0     H39232   3.497   5.127   4.429 -2.2248 -0.4951  1.3715
 1009MOL0     H39233   3.521   5.219   4.579 -1.5229  0.6584 -1.4670
 1009MOL0     H39234   3.716   5.315   4.403 -1.4183  0.9958  1.5163
 1009MOL0     H39235   3.754   5.221   4.534  3.3487 -1.4613 -2.5000
 1009MOL0     H39236   3.678   5.097   4.281 -1.5793 -0.0576 -0.4135
 1009MOL0     H39237   3.698   4.994   4.416 -2.1411  1.6647  0.4082
 1009MOL0     H39238   4.097   5.055   4.370 -0.0467 -0.4929  0.9611
 1009MOL0     H39239   3.403   5.584   4.283  1.4620  1.6495  0.5511
 1009MOL0     H39240   3.567   5.857   4.128 -0.9820  2.2831  0.5443
 1009MOL0     H39241   3.397   5.812   4.113  1.8220  0.5788 -2.4518
 1009MOL0     H39242   3.473   5.790   4.268  0.2909 -0.3505  0.1712
 1010MOL0     O39243   1.679   7.142   8.173 -0.3072 -0.2173  0.0364
 1010MOL0     C39244   1.799   7.149   8.184 -0.2467 -0.3842 -0.2896
 1010MOL0     O39245   1.870   7.261   8.212 -0.0195  0.0307  0.7334
 1010MOL0     C39246   1.802   7.365   8.269 -0.9520  1.1555 -0.1109
 1010MOL0     C39247   1.780   7.376   8.401 -0.3239 -0.0268 -0.2852
 1010MOL0     C39248   1.733   7.498   8.454  1.1312  0.1246  0.0108
 1010MOL0     C39249   1.690   7.600   8.368  0.7834 -0.2227 -0.5634
 1010MOL0     O39250   1.640   7.713   8.433  0.4833  0.8748 -0.1582
 1010MOL0     C39251   1.722   7.825   8.409  0.5449 -0.1204 -0.0752
 1010MOL0     C39252   1.869   7.799   8.446  0.4333 -0.8356 -0.7034
 1010MOL0     C39253   1.882   7.793   8.601  0.3230  0.2068 -0.2758
 1010MOL0     C39254   2.019   7.828   8.662  0.1728 -0.0980  0.4369
 1010MOL0     C39255   2.049   7.970   8.623 -0.0443 -0.8059 -0.3413
 1010MOL0     C39256   1.970   8.079   8.707 -1.0106 -0.2615 -0.6004
 1010MOL0     C39257   2.009   8.220   8.657  0.2471 -0.2855 -0.0511
 1010MOL0     C39258   1.968   8.256   8.506  0.0391  0.1000 -0.0333
 1010MOL0     N39259   1.825   8.265   8.470  0.1075 -0.6874 -0.8865
 1010MOL0     C39260   1.770   8.385   8.442 -0.7633  0.8330 -0.2110
 1010MOL0     C39261   1.653   8.350   8.389  0.1151 -0.4411  0.3695
 1010MOL0     C39262   1.531   8.435   8.364 -0.3121 -0.5857 -0.2536
 1010MOL0     C39263   1.536   8.468   8.213  1.0006 -0.2650  0.4224
 1010MOL0     C39264   1.410   8.516   8.145  1.5145  0.1661  0.8674
 1010MOL0     C39265   1.363   8.639   8.222 -0.2031  0.1432  0.0405
 1010MOL0     O39266   1.248   8.696   8.152  0.2496  0.2500 -0.1921
 1010MOL0     C39267   1.224   8.833   8.156  0.4253 -0.0080  0.3264
 1010MOL0     C39268   1.143   8.886   8.055 -0.4196 -0.2630 -0.3871
 1010MOL0     C39269   1.115   9.029   8.050  1.3390 -0.1228 -0.1234
 1010MOL0     C39270   1.025   9.082   7.945 -0.6680 -0.2186  1.1787
 1010MOL0     C39271   1.181   9.109   8.140 -0.5957 -0.4491 -0.6972
 1010MOL0     C39272   1.178   9.263   8.135  0.6976  0.4624  0.8861
 1010MOL0     O39273   1.279   9.331   8.191  0.0366 -0.4849 -0.2898
 1010MOL0     C39274   1.260   9.470   8.204  0.0854 -0.9269  1.2542
 1010MOL0     C39275   1.268   9.552   8.091  0.0016 -0.8530  0.4647
 1010MOL0     C39276   1.212   9.683   8.095 -0.9725  0.2122 -0.0072
 1010MOL0     C39277   1.178   9.740   8.219 -0.1941 -0.1969  0.2710
 1010MOL0     O39278   1.158   9.880   8.224 -0.2552  0.2314  0.2449
 1010MOL0     C39279   1.180   9.953   8.349  0.4580 -0.5583  0.2062
 1010MOL0     C39280   1.150  10.103   8.328 -0.4491  0.1255 -0.0529
 1010MOL0     C39281   1.247  10.175   8.232 -0.4059 -0.4484  0.6084
 1010MOL0     C39282   1.245  10.328   8.244  0.3308 -0.3905  0.3852
 1010MOL0     C39283   1.109  10.391   8.246 -0.0766 -0.6304 -0.3024
 1010MOL0     C39284   1.134  10.540   8.271  0.3736  0.2150  0.0047
 1010MOL0     C39285   0.997  10.609   8.254 -0.3780  0.6602  0.4137
 1010MOL0     C39286   0.995  10.758   8.276 -0.2540 -0.1935  1.1501
 1010MOL0    Cl39287   1.073  10.790   8.428 -0.6180 -0.2564  0.1940
 1010MOL0     C39288   1.174   9.657   8.333  0.2635 -0.3325 -0.4626
 1010MOL0     C39289   1.220   9.523   8.323 -0.1254 -0.3555  0.3015
 1010MOL0     O39290   1.072   9.321   8.093  0.4183  0.8248 -0.5648
 1010MOL0     C39291   1.263   9.055   8.233  0.1529  0.2810 -0.1649
 1010MOL0     C39292   1.286   8.923   8.246  0.3175  0.0227  0.4167
 1010MOL0     N39293   1.649   8.214   8.375 -0.1999 -0.4300 -0.7501
 1010MOL0     N39294   1.750   8.163   8.432  0.4013  0.0473  0.1533
 1010MOL0     C39295   1.710   7.587   8.229 -0.1439 -0.1371 -1.5621
 1010MOL0     C39296   1.765   7.469   8.180 -0.2582  0.2848 -0.6459
 1010MOL0     C39297   1.869   7.020   8.152  0.6126 -0.8157 -0.5197
 1010MOL0     C39298   1.802   6.926   8.074  0.8303 -0.0631 -0.9372
 1010MOL0     C39299   1.864   6.808   8.042  0.1637  0.2483 -0.0713
 1010MOL0     C39300   1.999   6.782   8.080  0.4131 -0.2356  0.3816
 1010MOL0     O39301   2.063   6.666   8.036 -0.3604  0.4910  0.2876
 1010MOL0     C39302   2.186   6.624   8.093 -0.3770  0.0863  0.3366
 1010MOL0     C39303   2.227   6.492   8.031 -0.1509  0.0814 -1.1542
 1010MOL0     C39304   2.266   6.503   7.878 -0.5622 -0.7571 -0.3655
 1010MOL0     C39305   2.420   6.520   7.857  0.3737  0.5022  0.6152
 1010MOL0     C39306   2.430   6.536   7.712 -0.3111 -0.0023 -0.5495
 1010MOL0     C39307   2.449   6.547   7.595  0.1218  0.6102  0.3223
 1010MOL0     C39308   2.060   6.877   8.153 -0.3406  0.0759 -0.0604
 1010MOL0     C39309   1.997   6.988   8.202 -0.6938  0.2133  0.2124
 1010MOL0     C39310   2.092   7.080   8.286 -0.3146  0.4390 -0.9763
 1010MOL0     H39311   1.798   7.291   8.467  0.1026 -1.6090 -2.3170
 1010MOL0     H39312   1.735   7.520   8.561 -2.1056 -0.7064  0.3511
 1010MOL0     H39313   1.681   7.912   8.462  0.7119 -0.2286  0.2336
 1010MOL0     H39314   1.718   7.846   8.302 -0.9039 -1.9384 -0.4295
 1010MOL0     H39315   1.917   7.711   8.403 -0.7843 -1.3004 -1.1644
 1010MOL0     H39316   1.932   7.879   8.405 -0.6910  1.2033  1.2863
 1010MOL0     H39317   1.805   7.856   8.648 -1.1541 -1.4857 -0.2952
 1010MOL0     H39318   1.851   7.692   8.629 -3.6554  1.4361  0.4730
 1010MOL0     H39319   2.005   7.816   8.770 -1.1023 -1.7790  0.1222
 1010MOL0     H39320   2.094   7.760   8.618 -1.5633 -1.1621 -1.0144
 1010MOL0     H39321   2.029   7.986   8.517  0.2146 -2.1503 -0.6070
 1010MOL0     H39322   2.154   7.990   8.649 -0.5467 -0.5218  1.6840
 1010MOL0     H39323   1.864   8.061   8.686 -1.0429 -1.8674  0.7545
 1010MOL0     H39324   2.001   8.070   8.811  0.7691 -3.2305 -1.2646
 1010MOL0     H39325   2.115   8.244   8.662 -0.0707  1.6580 -1.3809
 1010MOL0     H39326   1.956   8.290   8.724  1.7844 -0.2168  1.1460
 1010MOL0     H39327   2.019   8.349   8.478 -0.4315  0.4772  0.3298
 1010MOL0     H39328   2.010   8.188   8.432  0.8553  4.3924 -4.0111
 1010MOL0     H39329   1.810   8.484   8.460 -1.2853  0.9906  0.0895
 1010MOL0     H39330   1.540   8.527   8.423  0.3921  0.3810 -1.7952
 1010MOL0     H39331   1.440   8.384   8.396 -0.3207  0.6543  1.8631
 1010MOL0     H39332   1.618   8.540   8.207  1.5149 -0.7846  1.0724
 1010MOL0     H39333   1.565   8.377   8.160  0.6928 -0.3411  0.3811
 1010MOL0     H39334   1.422   8.543   8.039  0.9519 -1.9394  0.2072
 1010MOL0     H39335   1.328   8.444   8.148  2.2025 -0.6216  0.9925
 1010MOL0     H39336   1.337   8.610   8.324  0.6744 -0.7003  0.0480
 1010MOL0     H39337   1.447   8.709   8.221 -0.1607  0.1613 -2.4113
 1010MOL0     H39338   1.090   8.825   7.982  1.5226 -0.1824 -1.9487
 1010MOL0     H39339   1.078   9.093   7.850 -0.8899 -1.7345  0.8498
 1010MOL0     H39340   0.977   9.179   7.960  1.5769  1.2239 -0.3298
 1010MOL0     H39341   0.948   9.006   7.926 -0.6182  0.1405 -0.7641
 1010MOL0     H39342   1.307   9.524   7.993 -2.1137 -0.6979 -0.4837
 1010MOL0     H39343   1.216   9.748   8.008 -0.7454  5.2684  3.3685
 1010MOL0     H39344   1.105   9.911   8.416 -2.4516 -0.5214 -2.7610
 1010MOL0     H39345   1.282   9.932   8.383  0.2595 -1.3437  0.3319
 1010MOL0     H39346   1.048  10.115   8.290 -0.2943  1.4861 -0.0732
 1010MOL0     H39347   1.163  10.156   8.423  2.4419 -3.0633  1.5443
 1010MOL0     H39348   1.231  10.141   8.129 -4.5869 -0.8840  1.2386
 1010MOL0     H39349   1.350  10.152   8.261 -0.8860 -1.7609  1.3679
 1010MOL0     H39350   1.310  10.360   8.162 -3.4101  1.7466 -1.9898
 1010MOL0     H39351   1.291  10.358   8.339 -0.0968 -0.4126  0.6032
 1010MOL0     H39352   1.066  10.364   8.149  0.2421 -0.0715 -0.5987
 1010MOL0     H39353   1.047  10.341   8.321 -3.6214  0.4480 -2.2700
 1010MOL0     H39354   1.202  10.590   8.202 -1.7572  1.5814 -1.2408
 1010MOL0     H39355   1.158  10.550   8.377 -2.0456  2.2690  0.4676
 1010MOL0     H39356   0.941  10.565   8.338 -0.8477  1.8962  0.7615
 1010MOL0     H39357   0.952  10.594   8.156 -1.6826 -3.0313  1.3931
 1010MOL0     H39358   0.904  10.816   8.255  0.1638 -0.3480 -1.3470
 1010MOL0     H39359   1.051  10.798   8.192 -1.6290 -0.3642  0.1151
 1010MOL0     H39360   1.130   9.689   8.427  1.6919 -2.6737  1.1248
 1010MOL0     H39361   1.208   9.450   8.402 -2.9252 -1.7606 -1.2555
 1010MOL0     H39362   1.308   9.114   8.311 -0.2862 -1.1436  1.2259
 1010MOL0     H39363   1.344   8.902   8.336  0.8552 -3.4795 -0.5914
 1010MOL0     H39364   1.672   7.665   8.165 -0.2357 -0.5217 -1.9784
 1010MOL0     H39365   1.769   7.434   8.077  0.4466 -2.1362  0.1486
 1010MOL0     H39366   1.704   6.942   8.030 -0.1851 -4.2184 -0.6328
 1010MOL0     H39367   1.812   6.738   7.978 -1.2018  0.0983  1.1437
 1010MOL0     H39368   2.260   6.703   8.076  1.0731 -1.2709  0.0380
 1010MOL0     H39369   2.187   6.619   8.202 -0.2692  0.4522  0.3543
 1010MOL0     H39370   2.155   6.414   8.058  1.1408 -0.4272  1.0558
 1010MOL0     H39371   2.319   6.467   8.085 -0.9307  2.3511  1.4930
 1010MOL0     H39372   2.227   6.419   7.821 -1.4145  1.7015 -3.7078
 1010MOL0     H39373   2.211   6.591   7.842 -0.1082 -0.0073  0.7157
 1010MOL0     H39374   2.468   6.426   7.887 -0.5984 -0.6455 -1.2614
 1010MOL0     H39375   2.471   6.599   7.914  0.0949  1.6085 -0.6235
 1010MOL0     H39376   2.460   6.541   7.488 -2.0923  0.7260  0.0504
 1010MOL0     H39377   2.165   6.873   8.181  0.3795  1.9210 -2.1479
 1010MOL0     H39378   2.056   7.093   8.388 -0.4933  1.6749 -1.1870
 1010MOL0     H39379   2.193   7.038   8.287  0.0386  0.9330 -4.1009
 1010MOL0     H39380   2.109   7.178   8.241  1.4849  1.0697  0.9603
 1011MOL0     O39381   1.818   6.095   2.127  0.0616 -0.3977 -0.3034
 1011MOL0     C39382   1.772   6.029   2.224  0.4763 -0.2770 -1.0255
 1011MOL0     O39383   1.691   5.919   2.211 -0.5569 -0.0601  0.6570
 1011MOL0     C39384   1.693   5.848   2.088  0.5178 -0.5358  0.0598
 1011MOL0     C39385   1.574   5.799   2.033 -1.1268 -0.0455 -0.2434
 1011MOL0     C39386   1.569   5.730   1.914  0.6416 -0.1206  0.3837
 1011MOL0     C39387   1.685   5.710   1.838  0.6880 -0.8559 -0.4100
 1011MOL0     O39388   1.685   5.642   1.718  0.2048  0.5218  0.0222
 1011MOL0     C39389   1.806   5.576   1.660 -0.8771  1.6294 -0.9199
 1011MOL0     C39390   1.849   5.434   1.725 -0.0148  0.0788  0.6675
 1011MOL0     C39391   1.740   5.329   1.722  0.1015 -0.7025  0.9575
 1011MOL0     C39392   1.700   5.273   1.587  0.6892 -0.0123  0.4126
 1011MOL0     C39393   1.571   5.181   1.599 -0.1571 -0.6004  0.2842
 1011MOL0     C39394   1.513   5.139   1.470 -0.7612 -0.0565 -0.3719
 1011MOL0     C39395   1.412   5.035   1.481  0.0841  0.1328  0.7453
 1011MOL0     C39396   1.355   5.010   1.345  0.5680 -0.0658 -0.9620
 1011MOL0     N39397   1.212   4.998   1.351  0.0591  0.5198 -0.6759
 1011MOL0     C39398   1.117   5.097   1.336  0.0565 -0.3621 -0.4397
 1011MOL0     C39399   1.003   5.027   1.324  0.0760 -0.0243 -0.0664
 1011MOL0     C39400   0.874   5.093   1.317  0.5800 -0.3723 -0.4173
 1011MOL0     C39401   0.864   5.210   1.223  0.4634  0.0333 -0.0109
 1011MOL0     C39402   0.727   5.249   1.178  0.6891  0.0457  0.5054
 1011MOL0     C39403   0.658   5.144   1.091 -0.7830  0.5141  1.2001
 1011MOL0     O39404   0.557   5.226   1.015 -1.1216  0.0674 -0.6968
 1011MOL0     C39405   0.450   5.163   0.964 -0.0449 -0.5191  0.1553
 1011MOL0     C39406   0.421   5.026   0.987  0.5262 -0.8324  0.7021
 1011MOL0     C39407   0.301   4.961   0.941 -0.0994 -0.8724  0.5875
 1011MOL0     C39408   0.294   4.811   0.969  0.6825 -0.1432 -0.0116
 1011MOL0     C39409   0.216   5.042   0.860 -0.2862 -0.2434  0.9366
 1011MOL0     C39410   0.090   4.989   0.806 -0.7160  0.2496 -0.6843
 1011MOL0     O39411   0.029   5.056   0.705  0.2010  0.0560 -0.3125
 1011MOL0     C39412  -0.094   5.015   0.650 -0.0038  0.0009  0.5148
 1011MOL0     C39413  -0.112   5.026   0.515 -0.7281 -0.4584 -0.1074
 1011MOL0     C39414  -0.220   4.968   0.441  0.2596  0.3482 -0.3227
 1011MOL0     C39415  -0.325   4.912   0.517 -0.5344  0.5321  0.3227
 1011MOL0     O39416  -0.440   4.871   0.445  0.0145 -0.1197  0.5002
 1011MOL0     C39417  -0.571   4.884   0.517 -0.2306  0.4980 -0.4941
 1011MOL0     C39418  -0.677   4.853   0.404 -0.7682 -0.5165  0.2700
 1011MOL0     C39419  -0.824   4.885   0.453 -0.7543  0.6034  0.0155
 1011MOL0     C39420  -0.925   4.826   0.355  0.2505 -0.3719  1.1232
 1011MOL0     C39421  -1.067   4.832   0.418  0.2922 -0.1152  0.7445
 1011MOL0     C39422  -1.168   4.811   0.309  0.2854 -0.9666  0.1428
 1011MOL0     C39423  -1.232   4.940   0.254 -0.4305 -0.0988 -0.3274
 1011MOL0     C39424  -1.339   4.927   0.144 -0.0450  0.1265  0.5443
 1011MOL0    Cl39425  -1.387   5.090   0.094  0.0099  0.2085  0.5115
 1011MOL0     C39426  -0.311   4.897   0.664 -0.2006  0.5728  0.1738
 1011MOL0     C39427  -0.199   4.955   0.730 -0.5293 -0.1070  0.0031
 1011MOL0     O39428   0.046   4.882   0.851 -0.3351  0.1637  0.4814
 1011MOL0     C39429   0.247   5.184   0.835  0.6507  1.8593  0.3311
 1011MOL0     C39430   0.359   5.239   0.888  0.0806 -0.4262 -1.0307
 1011MOL0     N39431   1.014   4.897   1.332 -0.2454  0.5852 -0.2699
 1011MOL0     N39432   1.143   4.881   1.349 -0.5930 -0.1375 -0.3439
 1011MOL0     C39433   1.804   5.754   1.890 -0.0667 -0.3782  0.0274
 1011MOL0     C39434   1.814   5.824   2.010  1.1476 -0.2985  0.3639
 1011MOL0     C39435   1.798   6.084   2.364  0.1376 -0.2929  1.1301
 1011MOL0     C39436   1.782   5.995   2.475 -0.0109 -0.2061  0.9094
 1011MOL0     C39437   1.770   6.041   2.603  0.7404  0.8778  0.4719
 1011MOL0     C39438   1.768   6.178   2.634  0.4886 -0.0360  0.8204
 1011MOL0     O39439   1.756   6.225   2.765 -0.2212  0.3372  0.3710
 1011MOL0     C39440   1.860   6.169   2.850  0.6871  0.2764  0.7092
 1011MOL0     C39441   1.828   6.217   3.002 -0.6044  0.3592 -0.3819
 1011MOL0     C39442   1.933   6.150   3.097 -0.0940  0.6474  1.0565
 1011MOL0     C39443   1.956   6.235   3.216 -0.1541 -0.9022  0.0298
 1011MOL0     C39444   1.971   6.162   3.340 -0.5603  0.4780 -0.2381
 1011MOL0     C39445   1.976   6.091   3.438  0.3444 -0.0274 -0.4531
 1011MOL0     C39446   1.769   6.272   2.522 -0.7770  0.6477  0.2054
 1011MOL0     C39447   1.799   6.220   2.385  0.1197 -0.0863 -0.9346
 1011MOL0     C39448   1.794   6.328   2.283  0.1031 -0.9895 -0.2836
 1011MOL0     H39449   1.480   5.810   2.087  1.2911  1.7534  4.0811
 1011MOL0     H39450   1.476   5.690   1.872  1.2400 -0.9463 -0.1832
 1011MOL0     H39451   1.893   5.642   1.660  2.1405 -1.9896  0.2086
 1011MOL0     H39452   1.780   5.556   1.556 -0.7768 -1.1865 -0.4792
 1011MOL0     H39453   1.943   5.400   1.682 -0.4280  0.0498 -0.2305
 1011MOL0     H39454   1.864   5.441   1.833 -0.7738  2.9219  0.6620
 1011MOL0     H39455   1.766   5.235   1.772  0.3229 -2.7908 -2.6909
 1011MOL0     H39456   1.653   5.364   1.778 -2.3408 -2.3244 -1.5700
 1011MOL0     H39457   1.666   5.359   1.529 -4.7378 -1.6595  0.6301
 1011MOL0     H39458   1.785   5.218   1.545  1.7214  0.2191  2.0850
 1011MOL0     H39459   1.499   5.227   1.669  1.1244 -0.1746  1.3746
 1011MOL0     H39460   1.610   5.098   1.658 -1.7568 -0.6756  1.3144
 1011MOL0     H39461   1.463   5.229   1.432 -1.8386 -1.5319 -2.6202
 1011MOL0     H39462   1.598   5.117   1.406 -0.4844  3.2063 -1.3046
 1011MOL0     H39463   1.336   5.066   1.552 -2.7746 -1.9286 -1.1804
 1011MOL0     H39464   1.454   4.945   1.526 -2.1470 -1.5176 -0.2511
 1011MOL0     H39465   1.371   5.098   1.281 -0.8201 -1.0786 -2.7852
 1011MOL0     H39466   1.397   4.920   1.299 -0.5156 -1.1319  0.0872
 1011MOL0     H39467   1.135   5.204   1.334 -2.3161  0.1864  2.0846
 1011MOL0     H39468   0.838   5.105   1.419  1.9748  0.7822 -0.0358
 1011MOL0     H39469   0.809   5.011   1.286 -1.3868  0.2976  1.6587
 1011MOL0     H39470   0.917   5.293   1.270 -1.1528  1.6033 -0.8538
 1011MOL0     H39471   0.924   5.192   1.133 -0.4896  1.3652 -0.9301
 1011MOL0     H39472   0.663   5.265   1.265 -0.2995  1.0986 -0.3892
 1011MOL0     H39473   0.726   5.349   1.134  2.5022 -1.7495 -4.1810
 1011MOL0     H39474   0.735   5.092   1.034  1.6933  2.1419  2.8120
 1011MOL0     H39475   0.614   5.065   1.152 -0.5715 -0.6844 -0.1520
 1011MOL0     H39476   0.478   4.956   1.048 -0.2091 -1.9300  0.1717
 1011MOL0     H39477   0.219   4.789   1.046 -0.3912 -2.5143 -1.5879
 1011MOL0     H39478   0.396   4.781   0.993  0.8303 -0.5591 -1.1253
 1011MOL0     H39479   0.257   4.759   0.880 -2.9021  3.0069 -0.6570
 1011MOL0     H39480  -0.042   5.077   0.449 -2.4225 -0.4699 -2.0060
 1011MOL0     H39481  -0.219   4.956   0.333  1.8314 -0.1343 -0.2692
 1011MOL0     H39482  -0.575   4.823   0.608  3.0882  1.8262  0.6990
 1011MOL0     H39483  -0.577   4.988   0.552 -0.8757  1.1364 -2.3903
 1011MOL0     H39484  -0.657   4.924   0.323  0.8492 -3.1485 -1.8274
 1011MOL0     H39485  -0.669   4.747   0.378 -0.4879 -1.1192  2.6599
 1011MOL0     H39486  -0.833   4.994   0.464 -3.1797  0.5146 -0.5464
 1011MOL0     H39487  -0.835   4.846   0.555 -0.2748  3.3455  1.2331
 1011MOL0     H39488  -0.901   4.723   0.328  0.8469  0.2162 -0.7599
 1011MOL0     H39489  -0.918   4.890   0.266  0.0084 -0.8547  0.7505
 1011MOL0     H39490  -1.086   4.747   0.485 -1.2745  0.0749  0.5595
 1011MOL0     H39491  -1.085   4.929   0.465  0.0941  0.1833  0.0673
 1011MOL0     H39492  -1.257   4.756   0.342 -0.3893 -0.2384 -0.4132
 1011MOL0     H39493  -1.116   4.757   0.229  2.9280 -3.1356  3.0764
 1011MOL0     H39494  -1.152   4.993   0.201 -0.0485 -2.1946 -1.9566
 1011MOL0     H39495  -1.269   5.003   0.336 -1.3318 -1.6453  0.5073
 1011MOL0     H39496  -1.429   4.878   0.183 -1.4129  3.4323  1.9862
 1011MOL0     H39497  -1.300   4.874   0.057  1.9458  0.9049  0.9008
 1011MOL0     H39498  -0.377   4.834   0.723 -2.6469  3.1153  0.3979
 1011MOL0     H39499  -0.194   4.947   0.838  0.5535  0.8149  0.0404
 1011MOL0     H39500   0.171   5.237   0.779 -0.5933 -0.9932 -0.8770
 1011MOL0     H39501   0.384   5.344   0.877  0.4141 -0.4798 -0.7800
 1011MOL0     H39502   1.899   5.738   1.839  0.2888  0.5038  0.3983
 1011MOL0     H39503   1.911   5.858   2.047  1.6408  0.2214 -1.3055
 1011MOL0     H39504   1.783   5.891   2.446  2.6156  0.7208 -3.1662
 1011MOL0     H39505   1.752   5.969   2.682 -3.0986  0.1264 -0.8884
 1011MOL0     H39506   1.879   6.062   2.844  1.5055  0.5006 -1.8737
 1011MOL0     H39507   1.957   6.208   2.817 -0.0612  1.1458 -0.5252
 1011MOL0     H39508   1.735   6.182   3.049  1.1823 -3.5461  0.6815
 1011MOL0     H39509   1.827   6.326   3.000 -2.5185  0.3940 -0.0384
 1011MOL0     H39510   1.884   6.058   3.129 -1.0331  1.6231  2.5063
 1011MOL0     H39511   2.026   6.132   3.042 -1.0665  1.3376 -0.8912
 1011MOL0     H39512   1.873   6.304   3.235 -0.1725 -0.7274 -0.6611
 1011MOL0     H39513   2.040   6.301   3.195 -1.6112  0.5951 -1.4313
 1011MOL0     H39514   1.990   6.037   3.529 -0.6164 -3.5382 -2.2199
 1011MOL0     H39515   1.760   6.377   2.546  1.4885  0.2848  3.0440
 1011MOL0     H39516   1.827   6.426   2.318 -0.4892 -0.2333 -1.7343
 1011MOL0     H39517   1.868   6.316   2.203  0.4129  0.1751 -0.1795
 1011MOL0     H39518   1.698   6.341   2.231  1.0202  1.4864 -1.5118
 1012MOL0     O39519   0.574   4.619   5.655  0.0923 -0.0500  0.5636
 1012MOL0     C39520   0.618   4.529   5.729 -0.0362  0.1408 -0.1780
 1012MOL0     O39521   0.743   4.523   5.788  0.4996  0.4104  0.0960
 1012MOL0     C39522   0.847   4.594   5.728 -0.1775  0.1859 -0.2698
 1012MOL0     C39523   0.858   4.622   5.592 -0.5899  0.1439  0.7307
 1012MOL0     C39524   0.972   4.694   5.534  0.1064 -0.1464 -0.2285
 1012MOL0     C39525   1.071   4.734   5.617 -0.7328 -0.7231  0.5146
 1012MOL0     O39526   1.176   4.807   5.583 -0.0969  0.0424  0.8529
 1012MOL0     C39527   1.203   4.825   5.448  0.4043  0.0723  0.0322
 1012MOL0     C39528   1.356   4.850   5.439 -0.5000  0.0504 -0.8682
 1012MOL0     C39529   1.378   4.896   5.295 -0.0395  0.6796  0.6776
 1012MOL0     C39530   1.528   4.892   5.266  1.5872 -0.4188 -0.7181
 1012MOL0     C39531   1.548   4.895   5.109 -0.0752 -0.0374 -1.0031
 1012MOL0     C39532   1.510   5.029   5.042  0.2916 -0.7329 -0.5800
 1012MOL0     C39533   1.562   5.056   4.896  0.6782  0.6324 -0.3915
 1012MOL0     C39534   1.468   4.997   4.806 -0.2037  0.1188  0.5055
 1012MOL0     N39535   1.521   5.002   4.671  0.0538 -0.6951 -0.1095
 1012MOL0     C39536   1.575   5.110   4.601  0.0590 -0.9474 -0.6783
 1012MOL0     C39537   1.613   5.060   4.477 -0.7376 -0.4072 -0.2697
 1012MOL0     C39538   1.680   5.144   4.368 -0.3655  0.2779  0.2444
 1012MOL0     C39539   1.555   5.233   4.314  0.2922 -0.2475 -0.2988
 1012MOL0     C39540   1.608   5.325   4.205 -0.9348  0.0262  0.4590
 1012MOL0     C39541   1.602   5.273   4.069 -0.3187  1.1355  0.8482
 1012MOL0     O39542   1.647   5.384   3.980 -0.0013  0.3484 -0.1699
 1012MOL0     C39543   1.619   5.351   3.855  0.3601  0.3497  0.3349
 1012MOL0     C39544   1.542   5.435   3.771  0.7179 -0.0402 -0.9033
 1012MOL0     C39545   1.515   5.406   3.638  0.1855 -1.0730 -0.2318
 1012MOL0     C39546   1.403   5.495   3.576  0.9080  0.0717  0.3431
 1012MOL0     C39547   1.579   5.286   3.586  1.0640  0.0205 -0.2864
 1012MOL0     C39548   1.574   5.261   3.442  0.3327 -0.3505  0.2304
 1012MOL0     O39549   1.586   5.131   3.412  0.3258  0.2705 -0.8893
 1012MOL0     C39550   1.626   5.105   3.284 -0.1082  0.1155 -0.0983
 1012MOL0     C39551   1.760   5.115   3.259 -0.6465 -0.2308  0.4606
 1012MOL0     C39552   1.814   5.059   3.138 -0.1484 -0.0601 -0.3668
 1012MOL0     C39553   1.733   5.018   3.039  0.1869 -0.5334  0.5356
 1012MOL0     O39554   1.781   4.992   2.919  0.0192 -0.7640  0.1973
 1012MOL0     C39555   1.747   4.860   2.866  0.1932  0.9053  0.5526
 1012MOL0     C39556   1.884   4.802   2.798  0.5124 -0.4687  0.4974
 1012MOL0     C39557   1.853   4.652   2.754  0.6342 -0.6281 -0.1775
 1012MOL0     C39558   1.932   4.617   2.628 -0.5594 -0.4726 -0.9697
 1012MOL0     C39559   1.899   4.466   2.602 -0.3022 -0.3963 -0.6715
 1012MOL0     C39560   1.990   4.426   2.493 -1.0874 -0.0276  0.3068
 1012MOL0     C39561   1.956   4.493   2.356 -0.2993  0.7073  0.4872
 1012MOL0     C39562   2.075   4.557   2.297 -0.3341 -0.9659  0.9038
 1012MOL0    Cl39563   2.025   4.698   2.186  0.0793 -0.0815 -0.1235
 1012MOL0     C39564   1.595   5.002   3.063 -0.1826 -0.0795 -0.1218
 1012MOL0     C39565   1.546   5.041   3.186  0.2158 -0.2335  0.7058
 1012MOL0     O39566   1.589   5.351   3.368 -0.2688 -0.0683  0.6856
 1012MOL0     C39567   1.654   5.208   3.672 -0.0406  0.4254  0.7024
 1012MOL0     C39568   1.674   5.240   3.803 -0.9040  1.0037  0.4686
 1012MOL0     N39569   1.584   4.926   4.475  0.5996  0.0912  0.3304
 1012MOL0     N39570   1.524   4.893   4.586  0.3498  0.3495  0.1014
 1012MOL0     C39571   1.066   4.706   5.751  0.3813  0.8915 -0.4337
 1012MOL0     C39572   0.957   4.635   5.800 -0.1152  0.7070 -0.2713
 1012MOL0     C39573   0.531   4.417   5.774  0.9222 -0.3064  0.3434
 1012MOL0     C39574   0.484   4.325   5.668  0.4793 -0.7939 -0.5840
 1012MOL0     C39575   0.401   4.215   5.709  0.1129  0.3128  0.6000
 1012MOL0     C39576   0.389   4.183   5.839 -0.6385  0.2364  0.1141
 1012MOL0     O39577   0.329   4.061   5.858 -0.1557 -0.2345  0.1974
 1012MOL0     C39578   0.368   3.986   5.966  0.0487  0.0698 -1.5586
 1012MOL0     C39579   0.323   3.844   5.946 -0.2037  0.6965  0.1141
 1012MOL0     C39580   0.187   3.821   5.874  0.0818 -0.7173  0.1905
 1012MOL0     C39581   0.058   3.847   5.956  0.5462  0.1183  0.1305
 1012MOL0     C39582   0.070   3.815   6.101 -0.4375  0.3007 -0.0894
 1012MOL0     C39583   0.048   3.777   6.215  0.4326  0.6423  1.3210
 1012MOL0     C39584   0.437   4.265   5.935  0.1686  0.2451 -0.0387
 1012MOL0     C39585   0.496   4.385   5.907 -0.9434 -0.7470 -0.3933
 1012MOL0     C39586   0.526   4.484   6.018 -0.9256  0.5710  0.4393
 1012MOL0     H39587   0.787   4.612   5.509  1.2752  1.1008 -1.0756
 1012MOL0     H39588   0.972   4.717   5.427 -1.2448  0.8490 -0.0449
 1012MOL0     H39589   1.161   4.918   5.408 -0.3711  0.4275  1.5875
 1012MOL0     H39590   1.173   4.736   5.393 -0.6720 -1.5984  3.0597
 1012MOL0     H39591   1.388   4.928   5.508  0.1195 -0.6467 -0.3509
 1012MOL0     H39592   1.416   4.761   5.461  2.9582  1.4986 -3.3765
 1012MOL0     H39593   1.317   4.835   5.227 -0.4744  5.5089 -4.0407
 1012MOL0     H39594   1.338   4.997   5.280  0.6161  0.8523  0.0370
 1012MOL0     H39595   1.569   4.977   5.321  1.9042 -3.0705  3.6466
 1012MOL0     H39596   1.568   4.797   5.304  0.2312 -0.7247  0.0177
 1012MOL0     H39597   1.488   4.817   5.061  0.8664 -1.7340  0.4677
 1012MOL0     H39598   1.655   4.875   5.101  0.2925 -0.5005  3.2369
 1012MOL0     H39599   1.402   5.027   5.033  0.3882  0.0557 -2.2419
 1012MOL0     H39600   1.544   5.112   5.105 -1.2250 -0.3058 -0.2877
 1012MOL0     H39601   1.662   5.016   4.880  0.8052  1.1325 -0.8708
 1012MOL0     H39602   1.582   5.161   4.873  3.9768 -0.1223 -1.3813
 1012MOL0     H39603   1.443   4.898   4.845  0.1879  0.5318  1.8717
 1012MOL0     H39604   1.375   5.054   4.803 -0.1049  0.2601 -0.0844
 1012MOL0     H39605   1.582   5.205   4.654  2.2450 -2.7148  2.5899
 1012MOL0     H39606   1.714   5.087   4.281  1.3952  1.4743  0.1142
 1012MOL0     H39607   1.761   5.205   4.409  2.6710 -1.2830 -2.8988
 1012MOL0     H39608   1.470   5.173   4.278 -1.2687  1.4487  0.3732
 1012MOL0     H39609   1.523   5.298   4.396  3.7444  2.7507 -1.0925
 1012MOL0     H39610   1.555   5.421   4.201 -0.5247  0.2215 -2.2282
 1012MOL0     H39611   1.710   5.354   4.233  0.0733 -2.2145 -0.6325
 1012MOL0     H39612   1.668   5.187   4.054  1.1694  2.5074 -0.9117
 1012MOL0     H39613   1.503   5.235   4.043  0.7615 -1.3783  0.1095
 1012MOL0     H39614   1.490   5.511   3.828 -0.0971 -3.2062  3.0110
 1012MOL0     H39615   1.347   5.562   3.642  1.1228  2.3730 -1.7036
 1012MOL0     H39616   1.337   5.425   3.524  0.8640  1.5611 -1.7370
 1012MOL0     H39617   1.457   5.558   3.505  0.8524 -1.5585 -1.2297
 1012MOL0     H39618   1.826   5.140   3.342  0.1242 -1.6549  0.3146
 1012MOL0     H39619   1.919   5.061   3.110 -0.4695 -3.5514 -2.3808
 1012MOL0     H39620   1.713   4.792   2.944  0.5142  1.8445  1.5304
 1012MOL0     H39621   1.674   4.858   2.784  1.8958 -4.2350 -1.2368
 1012MOL0     H39622   1.917   4.863   2.714  1.3765 -0.9095  0.5052
 1012MOL0     H39623   1.968   4.793   2.868  2.8113  1.5688 -1.7983
 1012MOL0     H39624   1.745   4.649   2.733  0.4104 -0.6885  0.8940
 1012MOL0     H39625   1.876   4.577   2.831  3.2444  1.0542  0.8171
 1012MOL0     H39626   2.037   4.626   2.660 -0.3303  0.6849 -1.9601
 1012MOL0     H39627   1.916   4.686   2.545  0.7620 -0.1467 -0.9790
 1012MOL0     H39628   1.925   4.407   2.691  0.2954 -0.9953 -1.2319
 1012MOL0     H39629   1.794   4.455   2.576 -0.2989  0.9779 -1.3645
 1012MOL0     H39630   1.967   4.319   2.487 -2.5383  0.2475  0.7004
 1012MOL0     H39631   2.094   4.440   2.526 -0.8251 -0.4403 -0.3196
 1012MOL0     H39632   1.878   4.570   2.362 -2.5576 -1.4681  0.4569
 1012MOL0     H39633   1.915   4.421   2.286  1.0986 -1.0121  1.3526
 1012MOL0     H39634   2.138   4.488   2.240  0.7685 -0.5931  1.6222
 1012MOL0     H39635   2.139   4.596   2.377 -0.7425  0.2660  0.6559
 1012MOL0     H39636   1.528   4.958   2.990  0.9441  2.1980 -2.7147
 1012MOL0     H39637   1.440   5.027   3.202  0.0701 -2.3206 -1.4172
 1012MOL0     H39638   1.720   5.137   3.623 -2.0259 -0.5229 -0.7597
 1012MOL0     H39639   1.724   5.155   3.849  0.7387  0.2706 -2.3723
 1012MOL0     H39640   1.127   4.765   5.819 -3.3348  6.1192 -1.0420
 1012MOL0     H39641   0.960   4.617   5.907 -0.0119 -1.4588 -0.5860
 1012MOL0     H39642   0.507   4.331   5.563  2.2314 -0.6114 -0.2253
 1012MOL0     H39643   0.367   4.139   5.639 -1.3528  2.3288 -1.0035
 1012MOL0     H39644   0.473   3.991   5.997 -0.6972  0.4934  1.2215
 1012MOL0     H39645   0.323   4.035   6.053 -1.1038  1.6640 -2.9692
 1012MOL0     H39646   0.323   3.797   6.045 -0.5885 -1.2677 -0.7628
 1012MOL0     H39647   0.398   3.786   5.892  0.0861 -0.3209  1.5361
 1012MOL0     H39648   0.190   3.877   5.780 -3.4381 -0.3398  0.1897
 1012MOL0     H39649   0.178   3.716   5.842 -1.1494 -0.9110  1.1112
 1012MOL0     H39650  -0.022   3.782   5.920  0.7300  0.5709 -1.1588
 1012MOL0     H39651   0.028   3.951   5.939 -1.9545 -0.2395  1.8945
 1012MOL0     H39652   0.026   3.734   6.310 -2.5924  1.6310  1.1917
 1012MOL0     H39653   0.396   4.253   6.035  0.2654 -2.7535 -0.2518
 1012MOL0     H39654   0.598   4.557   5.981 -1.2077 -0.3831 -2.2041
 1012MOL0     H39655   0.436   4.542   6.041 -2.1991 -1.4681  0.8944
 1012MOL0     H39656   0.576   4.438   6.104 -0.5149  0.5489  0.1918
 1013MOL0     O39657   2.274   1.920   3.458  0.3342 -0.5531  0.9892
 1013MOL0     C39658   2.191   1.971   3.379 -0.0751 -0.4968 -0.9371
 1013MOL0     O39659   2.197   2.105   3.341  0.1988  0.4113  0.0402
 1013MOL0     C39660   2.311   2.178   3.362 -0.0046 -0.4574  0.0492
 1013MOL0     C39661   2.349   2.221   3.492  0.2270 -0.2038 -0.5715
 1013MOL0     C39662   2.465   2.292   3.500 -0.6379  0.3128  0.5003
 1013MOL0     C39663   2.553   2.310   3.389  0.3502  0.0290  0.6266
 1013MOL0     O39664   2.669   2.377   3.406  0.3633 -0.9357  0.8046
 1013MOL0     C39665   2.793   2.305   3.394  0.2495  0.5079  0.2238
 1013MOL0     C39666   2.913   2.378   3.327 -0.9838 -0.1358  0.7496
 1013MOL0     C39667   2.885   2.415   3.181 -0.0741 -1.2299 -0.0561
 1013MOL0     C39668   2.977   2.539   3.127  0.6789 -0.1388 -0.0485
 1013MOL0     C39669   2.940   2.585   2.985 -0.0339 -0.8894  0.4687
 1013MOL0     C39670   2.831   2.694   2.981  0.9418 -0.8009  0.0067
 1013MOL0     C39671   2.786   2.735   2.838  0.2363 -0.0909 -0.4596
 1013MOL0     C39672   2.759   2.885   2.859  0.5051  0.4887  1.1693
 1013MOL0     N39673   2.688   2.936   2.730 -0.2947 -0.0910 -0.2629
 1013MOL0     C39674   2.706   3.055   2.681 -0.5158 -0.1677  0.0484
 1013MOL0     C39675   2.647   3.054   2.557  0.8407  0.1796  0.3716
 1013MOL0     C39676   2.662   3.187   2.479 -0.0074 -0.1175 -1.1761
 1013MOL0     C39677   2.671   3.159   2.326 -0.3029 -1.1343 -0.4111
 1013MOL0     C39678   2.686   3.286   2.245  0.7474 -0.2603  0.7401
 1013MOL0     C39679   2.693   3.256   2.091 -0.2195  0.6979  0.3485
 1013MOL0     O39680   2.567   3.202   2.057  0.3434 -0.3369 -0.5989
 1013MOL0     C39681   2.549   3.167   1.927  0.7682 -0.2216  0.4563
 1013MOL0     C39682   2.454   3.071   1.909  0.7213 -1.0390  1.0865
 1013MOL0     C39683   2.406   3.035   1.781  0.3438 -0.5466 -0.0355
 1013MOL0     C39684   2.292   2.940   1.765  0.7960  0.4794  0.7592
 1013MOL0     C39685   2.465   3.091   1.667 -0.9891  0.0232 -0.6550
 1013MOL0     C39686   2.414   3.081   1.534  0.3031  0.2485 -0.4982
 1013MOL0     O39687   2.279   3.086   1.516  0.2253  0.3067 -0.2814
 1013MOL0     C39688   2.230   3.084   1.382 -0.6961  0.4759  0.8731
 1013MOL0     C39689   2.154   2.980   1.328  0.7966  0.1829  0.6879
 1013MOL0     C39690   2.113   2.974   1.196  0.7073  0.1413 -0.7691
 1013MOL0     C39691   2.151   3.073   1.110  0.0846  0.0160 -0.7189
 1013MOL0     O39692   2.115   3.078   0.976 -0.0655  0.2976  0.6440
 1013MOL0     C39693   2.163   2.970   0.894  0.3184  0.7490  1.1394
 1013MOL0     C39694   2.183   3.045   0.758 -0.2145 -0.0674 -0.3820
 1013MOL0     C39695   2.237   2.974   0.634 -0.2709  0.5540 -0.2065
 1013MOL0     C39696   2.379   2.926   0.678  0.1077  0.1503  0.1021
 1013MOL0     C39697   2.459   2.869   0.552  0.2339 -0.3075 -0.3081
 1013MOL0     C39698   2.606   2.829   0.602 -0.8904 -0.6971  1.6462
 1013MOL0     C39699   2.688   2.719   0.518  0.0976  0.0270  0.9351
 1013MOL0     C39700   2.718   2.790   0.384  0.0054  0.6890 -0.1897
 1013MOL0    Cl39701   2.815   2.673   0.291 -0.1897 -0.1301 -0.1187
 1013MOL0     C39702   2.211   3.186   1.159 -0.1795 -0.0634 -0.1008
 1013MOL0     C39703   2.249   3.189   1.291 -0.2318 -0.1344  0.1894
 1013MOL0     O39704   2.497   3.061   1.446 -0.7422  0.8063  0.2883
 1013MOL0     C39705   2.579   3.171   1.690 -1.2106 -0.5087 -0.6360
 1013MOL0     C39706   2.622   3.208   1.817  0.3347  0.1411  0.3898
 1013MOL0     N39707   2.600   2.935   2.539  0.0360  0.1669  0.4644
 1013MOL0     N39708   2.607   2.863   2.646 -0.4060 -0.1481 -0.4314
 1013MOL0     C39709   2.511   2.263   3.271 -0.3191  0.8194 -0.1574
 1013MOL0     C39710   2.391   2.199   3.243  0.6528  0.0283 -0.4374
 1013MOL0     C39711   2.073   1.891   3.351  0.1611 -0.1100 -0.0562
 1013MOL0     C39712   2.069   1.748   3.380 -0.2664  0.1737 -0.2928
 1013MOL0     C39713   1.964   1.663   3.339 -0.1897  0.7881 -0.3660
 1013MOL0     C39714   1.860   1.715   3.260 -0.3129 -0.2769  0.1352
 1013MOL0     O39715   1.750   1.651   3.214 -0.0925  0.4601  0.0694
 1013MOL0     C39716   1.735   1.513   3.252  0.1603 -0.4867 -0.2040
 1013MOL0     C39717   1.612   1.444   3.214  0.3019  0.7027  0.4328
 1013MOL0     C39718   1.504   1.529   3.272  0.7505 -0.0017 -0.3005
 1013MOL0     C39719   1.367   1.462   3.257  0.4672  0.2012  0.5549
 1013MOL0     C39720   1.300   1.472   3.122  0.0786  0.2506  0.8611
 1013MOL0     C39721   1.224   1.498   3.027  0.0372  0.6405  0.0476
 1013MOL0     C39722   1.868   1.855   3.239 -0.2430 -0.1076  0.3355
 1013MOL0     C39723   1.965   1.945   3.290  0.0410 -0.3819 -0.6917
 1013MOL0     C39724   1.937   2.091   3.270 -1.0624 -0.7791 -0.1447
 1013MOL0     H39725   2.300   2.171   3.575  7.8286 -2.5297  3.5594
 1013MOL0     H39726   2.498   2.333   3.595 -0.3940  4.9441 -1.3387
 1013MOL0     H39727   2.772   2.208   3.348 -2.2820  1.4330 -0.7107
 1013MOL0     H39728   2.820   2.291   3.500  0.1279  0.3984  0.2405
 1013MOL0     H39729   2.922   2.475   3.378 -1.5341  1.2986 -1.7178
 1013MOL0     H39730   3.009   2.326   3.334 -1.8422 -1.8512  0.3899
 1013MOL0     H39731   2.884   2.330   3.112 -4.5838 -0.0779 -1.7306
 1013MOL0     H39732   2.782   2.449   3.177  0.8933  1.8043 -2.8481
 1013MOL0     H39733   2.983   2.622   3.197 -3.3013  1.7180 -1.5543
 1013MOL0     H39734   3.077   2.495   3.123  2.6909  3.5563  3.2805
 1013MOL0     H39735   2.926   2.511   2.906  3.8664 -0.4206 -0.8539
 1013MOL0     H39736   3.032   2.638   2.959  0.1876 -0.4201  2.1197
 1013MOL0     H39737   2.739   2.655   3.025  0.5666 -0.4116 -0.4170
 1013MOL0     H39738   2.864   2.778   3.043 -2.9872  1.5147 -0.7267
 1013MOL0     H39739   2.696   2.681   2.806 -0.9423  1.9766 -0.8220
 1013MOL0     H39740   2.867   2.736   2.764 -0.8056 -0.4818 -1.6413
 1013MOL0     H39741   2.691   2.896   2.944 -0.7691 -1.0007  0.3981
 1013MOL0     H39742   2.848   2.947   2.871  1.6058 -0.7988  0.0110
 1013MOL0     H39743   2.749   3.142   2.729 -3.9370  1.5878  0.1921
 1013MOL0     H39744   2.757   3.238   2.498  0.8171 -1.1901 -2.2789
 1013MOL0     H39745   2.586   3.260   2.509  1.4476  1.1154 -0.3239
 1013MOL0     H39746   2.762   3.103   2.307  0.0240 -0.4431 -0.9336
 1013MOL0     H39747   2.588   3.095   2.296  0.6200 -1.4370 -2.4055
 1013MOL0     H39748   2.596   3.345   2.268  0.7674  1.4097 -2.7558
 1013MOL0     H39749   2.770   3.347   2.278  0.3363 -0.6623  2.6890
 1013MOL0     H39750   2.717   3.349   2.041 -1.1670  1.7639  1.7959
 1013MOL0     H39751   2.772   3.182   2.070  1.4124  2.2093  0.8844
 1013MOL0     H39752   2.398   3.043   1.997 -1.9076  3.2885  1.0854
 1013MOL0     H39753   2.212   3.000   1.721  1.7943  0.8541 -0.6118
 1013MOL0     H39754   2.260   2.899   1.861 -2.8742 -0.6167 -0.7316
 1013MOL0     H39755   2.313   2.851   1.705 -1.0667 -0.7733  1.8464
 1013MOL0     H39756   2.138   2.886   1.379 -3.2580 -0.2408 -0.9769
 1013MOL0     H39757   2.066   2.882   1.163  1.5495 -0.5156 -0.1876
 1013MOL0     H39758   2.251   2.924   0.940 -0.0835 -1.8971 -0.5272
 1013MOL0     H39759   2.088   2.893   0.874  2.6348 -1.7227  1.2912
 1013MOL0     H39760   2.091   3.093   0.725 -0.1789 -0.4804 -1.1011
 1013MOL0     H39761   2.241   3.136   0.775 -0.5930  0.0639  0.2275
 1013MOL0     H39762   2.237   3.034   0.543  1.2304  3.2103  1.4379
 1013MOL0     H39763   2.172   2.890   0.605  1.6397 -0.3303 -2.2790
 1013MOL0     H39764   2.379   2.849   0.756  2.2035 -0.3201 -0.2955
 1013MOL0     H39765   2.444   3.005   0.715 -1.2558  1.9217 -1.0951
 1013MOL0     H39766   2.390   2.790   0.523 -0.1652 -0.6369  1.3859
 1013MOL0     H39767   2.459   2.941   0.470  0.1506 -0.1049 -0.1293
 1013MOL0     H39768   2.598   2.795   0.706 -2.0348 -0.3084  1.6904
 1013MOL0     H39769   2.657   2.926   0.604 -0.4088 -0.6504 -2.9880
 1013MOL0     H39770   2.606   2.647   0.514 -0.4198  0.6837 -2.5763
 1013MOL0     H39771   2.778   2.687   0.573 -1.6953 -0.8219  3.6134
 1013MOL0     H39772   2.784   2.875   0.401  3.6466 -1.9658  0.0037
 1013MOL0     H39773   2.632   2.836   0.335 -0.3587  2.9816  2.3525
 1013MOL0     H39774   2.234   3.275   1.101  0.9447 -0.6683 -0.6128
 1013MOL0     H39775   2.306   3.275   1.325  2.7896 -1.5823 -0.8934
 1013MOL0     H39776   2.644   3.207   1.611  0.1196 -0.3183  0.5171
 1013MOL0     H39777   2.718   3.257   1.820  0.8162 -0.8095  1.8258
 1013MOL0     H39778   2.563   2.270   3.176 -3.7157  0.1523 -2.2239
 1013MOL0     H39779   2.362   2.176   3.141 -0.5829  2.7505 -0.7956
 1013MOL0     H39780   2.145   1.706   3.445 -0.1539 -0.4052 -0.7939
 1013MOL0     H39781   1.983   1.561   3.369  0.8821  1.4655  1.4050
 1013MOL0     H39782   1.825   1.461   3.219  2.4066  4.4106 -2.9325
 1013MOL0     H39783   1.740   1.526   3.361  0.5309  0.6322 -0.3376
 1013MOL0     H39784   1.610   1.347   3.265 -0.4168  0.9658  0.9100
 1013MOL0     H39785   1.609   1.436   3.104  0.2445  4.2596  0.0723
 1013MOL0     H39786   1.512   1.537   3.380  1.8673  0.5738 -0.4014
 1013MOL0     H39787   1.511   1.631   3.231  0.6602  0.7248  1.4183
 1013MOL0     H39788   1.293   1.505   3.326  1.9951  2.6586  0.7833
 1013MOL0     H39789   1.378   1.358   3.287  0.3720 -0.0899 -0.3916
 1013MOL0     H39790   1.154   1.498   2.945 -1.2543 -1.9236  1.0654
 1013MOL0     H39791   1.790   1.908   3.185  3.6532  1.6344 -4.4081
 1013MOL0     H39792   1.847   2.110   3.210  0.1079  0.9770 -1.4693
 1013MOL0     H39793   1.951   2.150   3.361 -1.2950 -0.6201 -0.2112
 1013MOL0     H39794   2.011   2.114   3.192 -0.1054 -0.0994  0.9360
 1014MOL0     O39795   1.666   2.113   4.683  0.7598 -0.0545 -0.3272
 1014MOL0     C39796   1.587   2.026   4.634 -0.0071 -0.6649 -0.9563
 1014MOL0     O39797   1.453   2.024   4.647  0.1265  0.5073  0.2014
 1014MOL0     C39798   1.389   2.124   4.717 -0.4011  0.3229 -0.0269
 1014MOL0     C39799   1.381   2.125   4.853 -0.3392  0.3722 -0.5398
 1014MOL0     C39800   1.324   2.238   4.915 -0.1573 -0.0955 -0.8896
 1014MOL0     C39801   1.247   2.332   4.846 -0.8343 -0.2161 -0.1404
 1014MOL0     O39802   1.157   2.422   4.897 -0.6284 -0.0905 -0.3540
 1014MOL0     C39803   1.174   2.455   5.039 -0.1236  0.7066  0.8184
 1014MOL0     C39804   1.303   2.535   5.075 -0.1694  0.2439 -0.8100
 1014MOL0     C39805   1.284   2.584   5.217  0.7184  0.3617 -0.8692
 1014MOL0     C39806   1.398   2.671   5.262  0.6892  0.0626  0.4669
 1014MOL0     C39807   1.376   2.761   5.388  0.2865 -0.4539  1.0620
 1014MOL0     C39808   1.366   2.670   5.512  0.3613  0.3250  0.2460
 1014MOL0     C39809   1.315   2.750   5.636  0.0544  0.0214  0.2359
 1014MOL0     C39810   1.410   2.857   5.696  0.3264 -0.2334 -0.1678
 1014MOL0     N39811   1.535   2.797   5.748  0.1818  0.3389 -1.0770
 1014MOL0     C39812   1.558   2.737   5.871  0.7264 -0.0377 -0.6765
 1014MOL0     C39813   1.684   2.697   5.865  0.0759 -0.1786 -0.3461
 1014MOL0     C39814   1.754   2.632   5.986 -0.7328 -0.0074 -0.3389
 1014MOL0     C39815   1.903   2.597   5.957  0.7309  0.8936 -0.2602
 1014MOL0     C39816   1.924   2.479   5.855 -0.3260 -0.3454  0.4656
 1014MOL0     C39817   2.045   2.399   5.891 -0.1331 -0.6336 -0.2301
 1014MOL0     O39818   2.159   2.484   5.886 -0.1224  0.2482  0.7224
 1014MOL0     C39819   2.289   2.433   5.872 -0.0389  0.4715  0.3161
 1014MOL0     C39820   2.404   2.514   5.864  0.1348 -0.3366 -0.2630
 1014MOL0     C39821   2.538   2.469   5.845 -0.2798  0.2001 -0.1320
 1014MOL0     C39822   2.647   2.578   5.854  1.4691  0.0831 -0.0526
 1014MOL0     C39823   2.566   2.330   5.829 -0.5624  0.2209  0.5692
 1014MOL0     C39824   2.693   2.281   5.780  0.3393 -0.0630  0.7941
 1014MOL0     O39825   2.685   2.171   5.695  0.4652  0.4551  0.1820
 1014MOL0     C39826   2.776   2.074   5.700 -0.0645  0.7803 -0.0312
 1014MOL0     C39827   2.801   1.998   5.819 -0.1908  0.1170 -0.3953
 1014MOL0     C39828   2.900   1.890   5.822 -1.5649  0.2800 -0.0745
 1014MOL0     C39829   2.976   1.869   5.699  0.3745  0.0394 -0.3069
 1014MOL0     O39830   3.091   1.787   5.705 -0.0812  0.0307  0.3633
 1014MOL0     C39831   3.074   1.649   5.757  0.0320 -0.3087 -0.3904
 1014MOL0     C39832   3.194   1.553   5.727  0.3336 -0.4164 -0.2239
 1014MOL0     C39833   3.202   1.426   5.814  0.2949  0.3375  0.6079
 1014MOL0     C39834   3.067   1.369   5.868 -0.9144  1.1415 -0.5666
 1014MOL0     C39835   3.082   1.223   5.932  0.0476  0.0152  0.1859
 1014MOL0     C39836   3.207   1.198   6.026 -0.9705 -0.7216 -0.5428
 1014MOL0     C39837   3.199   1.063   6.108  0.5641  0.2561  0.8757
 1014MOL0     C39838   3.218   1.075   6.253  0.8617 -0.4523 -0.7865
 1014MOL0    Cl39839   3.066   1.163   6.324 -0.2335 -0.0820  0.1511
 1014MOL0     C39840   2.940   1.947   5.586  0.4053 -0.0746  0.3560
 1014MOL0     C39841   2.846   2.046   5.587  0.4417 -0.8580  1.1331
 1014MOL0     O39842   2.799   2.330   5.817  0.0830 -0.3097  0.5975
 1014MOL0     C39843   2.455   2.248   5.838  0.2187 -0.0190 -1.0310
 1014MOL0     C39844   2.322   2.299   5.866 -0.6218  1.2568  0.6489
 1014MOL0     N39845   1.745   2.728   5.745  0.6924  0.2872  0.4306
 1014MOL0     N39846   1.652   2.796   5.679 -0.4460 -0.5434 -0.0600
 1014MOL0     C39847   1.263   2.325   4.700 -0.5443 -0.3075 -0.6167
 1014MOL0     C39848   1.338   2.223   4.637  0.1246 -0.3346 -0.2360
 1014MOL0     C39849   1.644   1.903   4.571 -0.7252  0.7969  0.8670
 1014MOL0     C39850   1.561   1.788   4.552 -0.5709  0.5435  0.4302
 1014MOL0     C39851   1.603   1.669   4.493  0.1193  0.2544  0.3065
 1014MOL0     C39852   1.736   1.676   4.448 -0.3330 -0.4022  0.5574
 1014MOL0     O39853   1.805   1.578   4.388 -0.3189  0.2845  0.5308
 1014MOL0     C39854   1.767   1.439   4.407  0.7041  0.8684 -0.4528
 1014MOL0     C39855   1.715   1.373   4.277  0.4604  1.0928 -0.1916
 1014MOL0     C39856   1.656   1.229   4.313  0.5418  0.5987 -0.5305
 1014MOL0     C39857   1.535   1.196   4.220 -0.8441  0.1919 -0.0502
 1014MOL0     C39858   1.487   1.058   4.241 -1.0518 -0.6495 -0.9529
 1014MOL0     C39859   1.462   0.945   4.263 -0.2685  0.1280 -0.2485
 1014MOL0     C39860   1.814   1.785   4.468 -0.3351 -0.4152  0.1232
 1014MOL0     C39861   1.782   1.898   4.540 -0.5907  0.1763  0.2010
 1014MOL0     C39862   1.890   2.005   4.557  0.3333 -1.1470 -0.1011
 1014MOL0     H39863   1.428   2.056   4.922 -0.4024  0.8958  0.0330
 1014MOL0     H39864   1.320   2.232   5.023 -1.5408  1.2423 -0.8324
 1014MOL0     H39865   1.167   2.372   5.110 -0.1346  0.4452  0.5170
 1014MOL0     H39866   1.079   2.496   5.072 -1.6241 -2.7413  1.2339
 1014MOL0     H39867   1.393   2.473   5.072  0.9388  1.3871  2.7908
 1014MOL0     H39868   1.318   2.622   5.011  0.3966  1.0348  0.3507
 1014MOL0     H39869   1.189   2.638   5.212 -1.3064 -2.8312  0.2436
 1014MOL0     H39870   1.265   2.499   5.283  0.6445 -0.3290 -1.7516
 1014MOL0     H39871   1.481   2.604   5.284  1.0343  0.9458  2.0251
 1014MOL0     H39872   1.434   2.731   5.177  0.5577 -0.8472 -0.2447
 1014MOL0     H39873   1.285   2.821   5.379  0.8548  0.1706 -1.0565
 1014MOL0     H39874   1.470   2.817   5.398  0.1195  0.6851 -2.5605
 1014MOL0     H39875   1.291   2.592   5.500 -1.6695  2.3652 -1.0357
 1014MOL0     H39876   1.463   2.621   5.526  0.2729  0.4186  1.2927
 1014MOL0     H39877   1.291   2.681   5.718 -0.4726 -1.4620 -1.0981
 1014MOL0     H39878   1.226   2.808   5.612 -0.1433  0.3610  1.6772
 1014MOL0     H39879   1.427   2.924   5.612  0.9813  3.2580  2.5129
 1014MOL0     H39880   1.369   2.916   5.778 -1.4602 -1.9407  0.2445
 1014MOL0     H39881   1.491   2.714   5.953  1.0477 -4.9291 -1.5007
 1014MOL0     H39882   1.702   2.546   6.028 -0.8687 -0.8542 -2.1449
 1014MOL0     H39883   1.760   2.715   6.057 -0.5244 -0.8781  0.6952
 1014MOL0     H39884   1.956   2.687   5.924  1.9516  0.7342  1.1680
 1014MOL0     H39885   1.955   2.564   6.048  2.1835 -1.1772 -1.7186
 1014MOL0     H39886   1.839   2.410   5.844 -0.2039 -0.1467 -2.1850
 1014MOL0     H39887   1.924   2.530   5.759  1.7179 -0.8256  0.1768
 1014MOL0     H39888   2.030   2.354   5.990  4.1454  0.5419  1.1345
 1014MOL0     H39889   2.056   2.316   5.820 -0.2144  0.7130 -1.8733
 1014MOL0     H39890   2.386   2.620   5.880 -2.8931 -0.6636 -0.9653
 1014MOL0     H39891   2.717   2.570   5.770  0.8174 -0.3390 -0.5603
 1014MOL0     H39892   2.704   2.572   5.947 -1.5133  1.8123  2.0476
 1014MOL0     H39893   2.599   2.676   5.850 -1.7882 -1.3309  1.2671
 1014MOL0     H39894   2.759   2.042   5.909  2.4912  0.9601  0.5386
 1014MOL0     H39895   2.919   1.847   5.920  1.3847  1.4252 -0.0199
 1014MOL0     H39896   3.044   1.657   5.862  2.7843  1.6915  0.3769
 1014MOL0     H39897   2.992   1.601   5.704 -0.0388 -1.1453  0.4436
 1014MOL0     H39898   3.188   1.517   5.624  0.1254 -0.8865 -0.0472
 1014MOL0     H39899   3.285   1.613   5.728 -0.5863  1.0426  0.7355
 1014MOL0     H39900   3.269   1.444   5.899  3.7845 -0.0169 -1.8501
 1014MOL0     H39901   3.260   1.351   5.760  0.5289  0.0770  1.2047
 1014MOL0     H39902   2.997   1.358   5.785  1.3588 -0.2523 -2.4223
 1014MOL0     H39903   3.036   1.446   5.939  0.9232 -1.2569  3.1643
 1014MOL0     H39904   2.992   1.206   5.991 -1.0863  0.7149 -1.2595
 1014MOL0     H39905   3.061   1.150   5.853 -1.7785  1.5824 -0.8743
 1014MOL0     H39906   3.212   1.281   6.098  0.3068  0.2970 -1.7495
 1014MOL0     H39907   3.305   1.205   5.977 -0.6972 -1.5402 -0.1289
 1014MOL0     H39908   3.276   0.997   6.068  0.8992  1.2055 -0.1131
 1014MOL0     H39909   3.103   1.014   6.088  0.2356  1.9568 -2.6080
 1014MOL0     H39910   3.304   1.135   6.285  1.0926  0.0407 -2.2569
 1014MOL0     H39911   3.223   0.973   6.293  1.4186 -1.7785 -3.9206
 1014MOL0     H39912   3.008   1.931   5.503  2.2358  1.4928  1.4817
 1014MOL0     H39913   2.835   2.115   5.504  0.2637  1.5047  3.0425
 1014MOL0     H39914   2.462   2.140   5.836 -0.3520 -0.0860 -0.0728
 1014MOL0     H39915   2.249   2.219   5.877  2.0581 -1.2431  1.4101
 1014MOL0     H39916   1.200   2.391   4.640  0.7542  0.3499 -1.2922
 1014MOL0     H39917   1.346   2.205   4.530  1.1089 -0.4511 -0.1477
 1014MOL0     H39918   1.459   1.791   4.587 -1.0567  3.9676 -0.8964
 1014MOL0     H39919   1.539   1.582   4.481  0.9551 -0.8300  2.9513
 1014MOL0     H39920   1.854   1.380   4.434 -1.0469 -0.6913  2.1082
 1014MOL0     H39921   1.695   1.430   4.488  3.7060 -0.1022  2.2884
 1014MOL0     H39922   1.789   1.356   4.199 -0.0010  1.6619 -0.7609
 1014MOL0     H39923   1.631   1.430   4.236  1.0404 -0.1574 -3.3465
 1014MOL0     H39924   1.741   1.162   4.297  0.3976  0.4612 -0.7271
 1014MOL0     H39925   1.619   1.211   4.414 -1.4456 -1.4648 -1.5460
 1014MOL0     H39926   1.564   1.202   4.115 -2.9091 -1.2854 -0.7894
 1014MOL0     H39927   1.457   1.271   4.236  0.6268  1.5977  0.7176
 1014MOL0     H39928   1.432   0.844   4.283  2.0793 -0.7584 -0.9040
 1014MOL0     H39929   1.920   1.786   4.442 -0.3115  1.9846  0.0973
 1014MOL0     H39930   1.917   2.025   4.661  1.8806  0.6192 -0.8002
 1014MOL0     H39931   1.981   1.978   4.503 -0.8304  2.2595 -4.2914
 1014MOL0     H39932   1.850   2.097   4.515 -1.3530 -2.2619 -1.0613
 1015MOL0     O39933   2.580  11.520   0.359  0.3477  0.4844 -0.2063
 1015MOL0     C39934   2.620  11.488   0.469 -0.6943 -0.2825 -0.6882
 1015MOL0     O39935   2.744  11.490   0.509  0.0147  0.2013  0.1063
 1015MOL0     C39936   2.839  11.561   0.438  0.0388  0.2406 -0.1540
 1015MOL0     C39937   2.902  11.677   0.488  0.0886  0.6642 -0.0215
 1015MOL0     C39938   2.996  11.741   0.414 -1.2327  0.8510  0.3306
 1015MOL0     C39939   3.029  11.694   0.280 -0.0912  0.4377 -0.2978
 1015MOL0     O39940   3.121  11.752   0.198 -0.3181  0.3863 -0.1950
 1015MOL0     C39941   3.192  11.863   0.250  0.2565 -0.6305 -0.7522
 1015MOL0     C39942   3.327  11.865   0.183 -0.3973  0.1624 -0.1125
 1015MOL0     C39943   3.398  11.993   0.230 -0.2272 -0.3696 -0.4602
 1015MOL0     C39944   3.533  11.995   0.159 -0.2614  1.2493 -0.6556
 1015MOL0     C39945   3.616  12.120   0.194  0.5804 -0.1387  0.5011
 1015MOL0     C39946   3.698  12.110   0.315 -0.2998  0.4204 -0.4206
 1015MOL0     C39947   3.800  12.225   0.329  0.0851  0.8966  0.2464
 1015MOL0     C39948   3.913  12.206   0.225 -0.8294  0.1962  0.5244
 1015MOL0     N39949   4.046  12.210   0.282 -0.4052  0.1026  0.0855
 1015MOL0     C39950   4.117  12.094   0.309  0.3348  0.2126  0.1143
 1015MOL0     C39951   4.231  12.142   0.353  0.0541  0.3648  0.7369
 1015MOL0     C39952   4.351  12.063   0.377 -0.5675  0.1120 -0.3747
 1015MOL0     C39953   4.406  12.107   0.518 -0.4357 -0.1612  0.0731
 1015MOL0     C39954   4.299  12.071   0.631  0.2856  0.6698 -0.1231
 1015MOL0     C39955   4.371  12.073   0.767 -0.1621 -0.0623  0.2548
 1015MOL0     O39956   4.456  12.192   0.795 -0.0065  0.3562  0.1469
 1015MOL0     C39957   4.411  12.301   0.869 -0.0447  1.0071 -0.5645
 1015MOL0     C39958   4.497  12.385   0.940 -0.0960  1.1484  0.0162
 1015MOL0     C39959   4.456  12.499   1.003 -0.3613 -1.3105 -0.6429
 1015MOL0     C39960   4.558  12.587   1.053 -1.0676  1.8799 -0.2113
 1015MOL0     C39961   4.318  12.532   1.013 -0.4078 -0.0980  1.1601
 1015MOL0     C39962   4.272  12.639   1.107  0.7716 -0.2807  0.2099
 1015MOL0     O39963   4.140  12.680   1.087 -0.2374  0.3288  0.1457
 1015MOL0     C39964   4.077  12.748   1.191  0.0377 -0.3440 -0.9231
 1015MOL0     C39965   4.042  12.679   1.314 -0.1078  0.3782 -0.0882
 1015MOL0     C39966   3.974  12.752   1.417  0.1767 -0.2827  0.1072
 1015MOL0     C39967   3.950  12.891   1.411  0.5568 -0.1322  0.9672
 1015MOL0     O39968   3.898  12.976   1.504  0.8384 -0.0048  0.1047
 1015MOL0     C39969   3.825  12.922   1.613 -0.0250 -0.0665  0.2937
 1015MOL0     C39970   3.768  13.032   1.709 -0.0340  0.0348 -0.0363
 1015MOL0     C39971   3.876  13.124   1.762 -0.2930 -0.5623  0.7502
 1015MOL0     C39972   3.822  13.214   1.874  0.4280  0.6526  0.4942
 1015MOL0     C39973   3.786  13.145   2.009 -0.9059 -0.0377 -0.2351
 1015MOL0     C39974   3.694  13.232   2.100 -0.2620 -0.5992  0.5139
 1015MOL0     C39975   3.726  13.376   2.140  0.2196  0.6098 -0.2184
 1015MOL0     C39976   3.873  13.392   2.177  0.0554  0.0374  0.3387
 1015MOL0    Cl39977   3.878  13.570   2.202 -0.4092 -0.0191  0.4513
 1015MOL0     C39978   3.988  12.951   1.292  0.2704  0.0185  0.0374
 1015MOL0     C39979   4.049  12.883   1.185  0.4992 -0.2321  0.3568
 1015MOL0     O39980   4.339  12.683   1.199  0.1552  0.0519  0.8104
 1015MOL0     C39981   4.228  12.446   0.947 -0.3030  1.3993  0.1680
 1015MOL0     C39982   4.279  12.339   0.868 -0.1417  0.2093 -0.1423
 1015MOL0     N39983   4.226  12.279   0.369 -0.0818 -0.2715  0.2326
 1015MOL0     N39984   4.107  12.320   0.330  0.0629 -0.2031 -0.4181
 1015MOL0     C39985   2.970  11.574   0.233  0.8202 -0.6269  0.3971
 1015MOL0     C39986   2.878  11.503   0.311 -0.1519  0.1756 -1.2056
 1015MOL0     C39987   2.521  11.432   0.569 -1.1916  0.0714  0.0791
 1015MOL0     C39988   2.579  11.393   0.698  0.5631 -0.4885  0.5259
 1015MOL0     C39989   2.505  11.321   0.793  0.6401 -0.6033 -0.4130
 1015MOL0     C39990   2.375  11.281   0.771  0.3260  0.3253  0.6246
 1015MOL0     O39991   2.306  11.206   0.862  0.4403 -0.1348 -0.0774
 1015MOL0     C39992   2.176  11.254   0.901  0.3227 -0.2108 -0.9852
 1015MOL0     C39993   2.191  11.320   1.040 -0.1933  1.1846  1.0124
 1015MOL0     C39994   2.202  11.203   1.147  0.1024  0.1049  0.5613
 1015MOL0     C39995   2.141  11.251   1.280  0.2689 -0.2573  0.2084
 1015MOL0     C39996   2.122  11.152   1.385  1.2442  0.8373 -0.1573
 1015MOL0     C39997   2.127  11.077   1.485  0.6129 -0.3337 -0.4526
 1015MOL0     C39998   2.319  11.320   0.647 -0.1764 -0.2111 -0.4172
 1015MOL0     C39999   2.388  11.389   0.544 -0.3648 -0.9312 -0.0215
 1015MOL0     C40000   2.307  11.423   0.422  0.0838  0.0809 -0.3927
 1015MOL0     H40001   2.873  11.711   0.587 -0.2908  0.8751 -0.2020
 1015MOL0     H40002   3.047  11.816   0.474 -1.4988 -1.0601  3.1171
 1015MOL0     H40003   3.212  11.859   0.358  2.0369 -0.4317 -1.0520
 1015MOL0     H40004   3.129  11.951   0.231 -1.4734 -1.0622  2.2859
 1015MOL0     H40005   3.389  11.780   0.214 -3.2877 -2.7204 -1.6999
 1015MOL0     H40006   3.321  11.862   0.074 -0.4084  1.3706 -0.1636
 1015MOL0     H40007   3.348  12.082   0.190  1.5089  1.7581  1.7733
 1015MOL0     H40008   3.410  11.996   0.339  1.8406 -1.4745 -0.6028
 1015MOL0     H40009   3.581  11.902   0.191 -4.2801 -0.6591  0.4248
 1015MOL0     H40010   3.518  11.990   0.051  0.4844  3.1673 -0.8810
 1015MOL0     H40011   3.552  12.209   0.197 -0.7923 -0.9177 -2.3884
 1015MOL0     H40012   3.686  12.124   0.111 -0.5436  0.5545 -0.4407
 1015MOL0     H40013   3.622  12.117   0.394  1.7266  0.1437  1.6387
 1015MOL0     H40014   3.748  12.014   0.325 -3.1474 -1.0181  1.5991
 1015MOL0     H40015   3.834  12.224   0.433 -2.8634  0.1659  1.3155
 1015MOL0     H40016   3.748  12.321   0.314  1.8494  1.8066 -0.2497
 1015MOL0     H40017   3.893  12.112   0.174 -0.5563  0.6530 -0.4501
 1015MOL0     H40018   3.913  12.284   0.148  1.9954 -0.1064  0.0903
 1015MOL0     H40019   4.100  11.990   0.286 -2.2046 -0.4233  3.9757
 1015MOL0     H40020   4.425  12.098   0.304  1.2801  0.4048  1.5428
 1015MOL0     H40021   4.336  11.955   0.367  1.8934 -0.2389 -0.9283
 1015MOL0     H40022   4.503  12.056   0.523 -0.3445  0.0460  0.4565
 1015MOL0     H40023   4.428  12.214   0.530  0.5579 -0.4821  1.4810
 1015MOL0     H40024   4.218  12.145   0.638 -0.2002 -0.0107  2.5338
 1015MOL0     H40025   4.252  11.972   0.629 -0.4711  1.0323 -1.4417
 1015MOL0     H40026   4.296  12.069   0.846 -2.4168  0.2700 -1.7535
 1015MOL0     H40027   4.442  11.990   0.775 -0.9293 -1.1585 -3.0284
 1015MOL0     H40028   4.602  12.361   0.950 -0.5874 -0.2872  2.5718
 1015MOL0     H40029   4.584  12.559   1.156 -4.1644 -2.0989 -0.2187
 1015MOL0     H40030   4.524  12.690   1.058 -1.7744  1.5926  2.1407
 1015MOL0     H40031   4.643  12.580   0.985 -1.9714 -0.5052 -1.2216
 1015MOL0     H40032   4.077  12.576   1.316  0.7519  0.6285 -1.2605
 1015MOL0     H40033   3.939  12.706   1.509  1.8920 -0.0021  0.9536
 1015MOL0     H40034   3.739  12.864   1.579 -0.6686  0.0908  1.6093
 1015MOL0     H40035   3.897  12.857   1.664  0.9337 -1.8415 -2.9700
 1015MOL0     H40036   3.703  13.100   1.653 -0.0924  0.6366  0.7564
 1015MOL0     H40037   3.723  12.971   1.788 -0.8645  1.1429  0.3612
 1015MOL0     H40038   3.922  13.180   1.680 -0.6926 -1.6698 -0.2567
 1015MOL0     H40039   3.954  13.063   1.809 -0.0780 -1.4525 -0.7043
 1015MOL0     H40040   3.737  13.278   1.846  1.0293  2.2170  2.0719
 1015MOL0     H40041   3.902  13.286   1.888  0.9293  0.6285 -1.8613
 1015MOL0     H40042   3.741  13.046   1.995  0.6906 -0.4778 -2.9128
 1015MOL0     H40043   3.882  13.119   2.054 -1.0713  2.7556  2.0051
 1015MOL0     H40044   3.679  13.162   2.182 -0.6544 -1.4050 -0.2270
 1015MOL0     H40045   3.600  13.244   2.045  0.4294  2.6960 -0.2133
 1015MOL0     H40046   3.668  13.394   2.231  0.5396 -0.6185  0.2477
 1015MOL0     H40047   3.702  13.435   2.050 -1.2649 -2.9049 -2.3403
 1015MOL0     H40048   3.945  13.363   2.100 -1.1366 -0.5098 -0.6210
 1015MOL0     H40049   3.897  13.344   2.272  1.8112 -0.3004 -0.2538
 1015MOL0     H40050   3.976  13.059   1.302  1.4117 -0.0478  2.8484
 1015MOL0     H40051   4.092  12.951   1.112  1.5384  0.4109  1.5333
 1015MOL0     H40052   4.121  12.460   0.963 -0.5587 -1.2477  1.4307
 1015MOL0     H40053   4.210  12.283   0.806  2.7784  0.8661 -4.4733
 1015MOL0     H40054   2.985  11.534   0.133 -4.4374 -0.4756 -0.7804
 1015MOL0     H40055   2.846  11.405   0.276  0.1094 -0.8110  1.1754
 1015MOL0     H40056   2.682  11.418   0.721  0.5544  2.5271 -2.0323
 1015MOL0     H40057   2.550  11.309   0.892 -0.6322  1.9633  0.5828
 1015MOL0     H40058   2.140  11.338   0.841  0.8108  1.7315  1.2373
 1015MOL0     H40059   2.111  11.166   0.905  0.8570 -0.5708  1.2352
 1015MOL0     H40060   2.104  11.384   1.058 -2.4180 -0.8294 -1.5855
 1015MOL0     H40061   2.279  11.384   1.033 -1.6006  3.0002 -2.9841
 1015MOL0     H40062   2.152  11.114   1.109 -0.0939  1.1120 -1.6895
 1015MOL0     H40063   2.308  11.194   1.169  0.0947  1.6514  1.3792
 1015MOL0     H40064   2.049  11.304   1.256 -0.1184 -1.3280 -0.7822
 1015MOL0     H40065   2.212  11.321   1.324  0.0982 -0.2480  0.4738
 1015MOL0     H40066   2.118  11.015   1.571 -1.6680 -0.9306 -1.0395
 1015MOL0     H40067   2.216  11.287   0.634 -1.9576  4.7944 -0.8907
 1015MOL0     H40068   2.300  11.531   0.407 -0.1868  0.2702  0.9609
 1015MOL0     H40069   2.354  11.386   0.330 -1.5001  0.2808 -1.3194
 1015MOL0     H40070   2.207  11.379   0.425  0.7885 -1.5697  0.0860
 1016MOL0     O40071   3.339  10.953   7.491 -0.2840 -0.1145 -0.5008
 1016MOL0     C40072   3.350  10.831   7.475  0.7040 -0.4310 -0.2266
 1016MOL0     O40073   3.288  10.763   7.372 -0.2725  0.8687 -0.8650
 1016MOL0     C40074   3.211  10.830   7.281  0.5322  0.3126  0.6386
 1016MOL0     C40075   3.078  10.797   7.257 -0.4350 -0.4603  0.4412
 1016MOL0     C40076   2.991  10.859   7.177 -0.3240 -0.0916  0.6398
 1016MOL0     C40077   3.036  10.974   7.110 -0.1512 -0.2327 -0.4849
 1016MOL0     O40078   2.949  11.042   7.031  0.3456 -0.3481 -1.0974
 1016MOL0     C40079   2.996  11.063   6.896  0.4786  0.2432 -0.5349
 1016MOL0     C40080   2.879  11.090   6.805  0.6933  0.4722  0.4058
 1016MOL0     C40081   2.822  10.947   6.771  0.6170 -0.0127  0.3876
 1016MOL0     C40082   2.690  10.964   6.682 -0.6552  0.1811 -0.5974
 1016MOL0     C40083   2.636  10.832   6.632  0.1171 -0.6814 -0.0435
 1016MOL0     C40084   2.542  10.840   6.511  1.0897  0.1772  0.5241
 1016MOL0     C40085   2.414  10.925   6.531 -0.6688  0.2623  0.2514
 1016MOL0     C40086   2.310  10.881   6.644  0.7726 -0.3378  0.0326
 1016MOL0     N40087   2.242  10.755   6.619 -0.4721  0.1528 -0.3065
 1016MOL0     C40088   2.141  10.753   6.527  0.6309  0.3159 -0.0102
 1016MOL0     C40089   2.054  10.666   6.580 -0.1220 -0.6458  0.1932
 1016MOL0     C40090   1.939  10.611   6.503 -0.2004 -0.4021  0.3559
 1016MOL0     C40091   1.809  10.672   6.542  0.5722 -0.1069 -0.0818
 1016MOL0     C40092   1.699  10.664   6.422  1.0375  0.7472 -0.0645
 1016MOL0     C40093   1.634  10.527   6.413  0.3577 -0.4517 -0.1044
 1016MOL0     O40094   1.720  10.425   6.364  0.2337  0.4969 -0.5026
 1016MOL0     C40095   1.667  10.297   6.357 -0.7388 -0.5420 -0.7243
 1016MOL0     C40096   1.696  10.220   6.246  0.5415 -1.5174 -0.0900
 1016MOL0     C40097   1.652  10.089   6.238  1.2920 -0.8816 -0.5766
 1016MOL0     C40098   1.708  10.024   6.121  0.0956 -0.4476 -0.0385
 1016MOL0     C40099   1.581  10.027   6.344  0.1873 -0.0502  1.3355
 1016MOL0     C40100   1.529   9.877   6.333 -0.1710 -0.7917 -0.1232
 1016MOL0     O40101   1.602   9.798   6.247 -0.3052  0.0606  0.0754
 1016MOL0     C40102   1.555   9.671   6.249 -0.1595  0.8684 -0.5936
 1016MOL0     C40103   1.609   9.582   6.347  0.3628 -0.2695 -0.6423
 1016MOL0     C40104   1.565   9.452   6.346 -0.8395 -0.3054  0.5339
 1016MOL0     C40105   1.476   9.407   6.251  0.2736  0.1536 -0.4735
 1016MOL0     O40106   1.471   9.271   6.239  0.0043 -0.6901  0.3325
 1016MOL0     C40107   1.370   9.218   6.156  0.4013  0.2202  0.4886
 1016MOL0     C40108   1.355   9.066   6.179  0.0825  0.7297 -0.1923
 1016MOL0     C40109   1.240   8.997   6.107  0.1439  0.4156 -0.3716
 1016MOL0     C40110   1.221   8.850   6.159  0.8154  0.9429 -0.3424
 1016MOL0     C40111   1.141   8.825   6.289  0.3567  0.7032 -0.1575
 1016MOL0     C40112   0.998   8.866   6.283 -0.2464  0.2540  0.4428
 1016MOL0     C40113   0.931   8.842   6.418  0.7042 -0.0573  0.8714
 1016MOL0     C40114   0.921   8.694   6.464  0.8223  0.0090 -0.2218
 1016MOL0    Cl40115   0.780   8.618   6.397 -0.2408  0.2089  0.4981
 1016MOL0     C40116   1.415   9.497   6.166  0.1131 -0.4987  0.0351
 1016MOL0     C40117   1.457   9.626   6.165  0.5202 -0.0116  0.6464
 1016MOL0     O40118   1.438   9.840   6.415  0.1367 -0.5798 -0.2897
 1016MOL0     C40119   1.556  10.104   6.458  0.2008  0.1665  0.5819
 1016MOL0     C40120   1.593  10.237   6.463  0.7572 -0.3554 -0.4400
 1016MOL0     N40121   2.099  10.625   6.702  0.0894  0.5557 -0.1039
 1016MOL0     N40122   2.209  10.674   6.722  0.4726  0.1851 -0.4354
 1016MOL0     C40123   3.177  11.012   7.124  0.2307 -0.0037 -0.4146
 1016MOL0     C40124   3.267  10.942   7.207 -0.0066 -0.4087  0.4426
 1016MOL0     C40125   3.417  10.756   7.581  0.0040  0.1192  0.6638
 1016MOL0     C40126   3.382  10.618   7.590 -0.2111  0.6884  0.5265
 1016MOL0     C40127   3.435  10.545   7.694 -0.1285  0.5383  0.1835
 1016MOL0     C40128   3.520  10.596   7.795 -0.9642 -0.1185  0.7297
 1016MOL0     O40129   3.559  10.516   7.903 -0.2083 -0.2871  0.2791
 1016MOL0     C40130   3.645  10.556   8.010  0.5482  0.7679  0.1852
 1016MOL0     C40131   3.663  10.428   8.099 -0.4961  0.0654  0.7541
 1016MOL0     C40132   3.743  10.321   8.018 -1.4480  0.2259  0.5515
 1016MOL0     C40133   3.899  10.356   8.002  0.7009  0.0225 -0.4564
 1016MOL0     C40134   3.947  10.397   8.129  0.1507 -0.8747 -0.0224
 1016MOL0     C40135   3.991  10.451   8.232 -1.3758 -0.1912 -0.2523
 1016MOL0     C40136   3.573  10.726   7.780  0.1075  0.5365  0.2937
 1016MOL0     C40137   3.515  10.806   7.679  0.9426  0.4673 -0.6781
 1016MOL0     C40138   3.555  10.950   7.686  0.4053 -0.7961  0.1683
 1016MOL0     H40139   3.034  10.711   7.308 -0.0838 -1.3676 -0.7308
 1016MOL0     H40140   2.892  10.820   7.157 -1.0737  1.4625  1.1652
 1016MOL0     H40141   3.054  10.980   6.854  1.7567  2.0836 -2.6213
 1016MOL0     H40142   3.040  11.163   6.896 -1.8704  1.3507 -0.0367
 1016MOL0     H40143   2.801  11.149   6.855  1.1084 -0.3016  2.0655
 1016MOL0     H40144   2.906  11.150   6.718 -0.5417 -1.2522 -1.2638
 1016MOL0     H40145   2.899  10.879   6.732  1.4849  1.1186  0.0825
 1016MOL0     H40146   2.785  10.896   6.860 -0.8619 -2.8266 -1.6636
 1016MOL0     H40147   2.620  11.012   6.751  1.2242  1.3482  0.5913
 1016MOL0     H40148   2.705  11.027   6.593 -6.1525  0.1790 -1.8677
 1016MOL0     H40149   2.582  10.783   6.714  0.3865 -3.9562 -1.6586
 1016MOL0     H40150   2.715  10.767   6.595  0.0182 -0.7965 -0.0555
 1016MOL0     H40151   2.603  10.865   6.423  1.1680 -3.2917 -0.5747
 1016MOL0     H40152   2.503  10.738   6.498 -0.2493  0.4347  2.3000
 1016MOL0     H40153   2.352  10.929   6.441  0.7391  0.0145 -0.7822
 1016MOL0     H40154   2.463  11.023   6.540  1.0679 -0.4239 -1.0220
 1016MOL0     H40155   2.371  10.867   6.733 -0.5572  2.6354  1.5227
 1016MOL0     H40156   2.238  10.963   6.648  1.8749  0.6254  0.7054
 1016MOL0     H40157   2.131  10.813   6.438 -2.1200  0.0687  0.0574
 1016MOL0     H40158   1.954  10.504   6.522  1.3893 -0.3094 -0.2342
 1016MOL0     H40159   1.942  10.623   6.394 -1.4779 -0.6253  0.2798
 1016MOL0     H40160   1.778  10.616   6.631 -1.3595  0.7705 -0.1506
 1016MOL0     H40161   1.829  10.777   6.566  0.3480 -0.1926  0.5002
 1016MOL0     H40162   1.617  10.733   6.444  1.2663  0.4770  1.8434
 1016MOL0     H40163   1.738  10.695   6.325  0.4259  1.1225 -0.1897
 1016MOL0     H40164   1.586  10.510   6.511  1.3468  3.1613  1.1961
 1016MOL0     H40165   1.552  10.545   6.343  0.4306  0.0608 -0.0618
 1016MOL0     H40166   1.758  10.271   6.173  1.6638 -1.8253  0.6328
 1016MOL0     H40167   1.750  10.087   6.042 -1.2237  0.9352  0.3232
 1016MOL0     H40168   1.633   9.967   6.066 -0.3774 -2.8023  2.7791
 1016MOL0     H40169   1.777   9.945   6.154 -0.9433 -0.8476  1.2513
 1016MOL0     H40170   1.703   9.603   6.396 -0.6943  1.9466  0.5687
 1016MOL0     H40171   1.618   9.368   6.389  2.4438  0.2634 -2.0036
 1016MOL0     H40172   1.273   9.257   6.186  0.9514  0.4928  2.0161
 1016MOL0     H40173   1.399   9.235   6.052  1.6507 -2.2851  0.3419
 1016MOL0     H40174   1.453   9.020   6.160 -0.0093  0.8782 -1.0645
 1016MOL0     H40175   1.340   9.061   6.287 -0.7250  2.6441 -0.1760
 1016MOL0     H40176   1.269   8.989   6.002  0.1620 -0.3990 -0.3135
 1016MOL0     H40177   1.149   9.057   6.114  1.9757  3.3006  0.5221
 1016MOL0     H40178   1.322   8.819   6.187  1.0034  0.9709 -0.9725
 1016MOL0     H40179   1.181   8.790   6.077 -0.6456  1.4479 -0.0206
 1016MOL0     H40180   1.145   8.716   6.303 -0.1516  0.7088  0.0598
 1016MOL0     H40181   1.195   8.863   6.376 -0.8732 -0.5000  1.1867
 1016MOL0     H40182   0.949   8.803   6.207 -0.3584  1.8680 -0.8714
 1016MOL0     H40183   0.989   8.967   6.244 -0.3118 -0.3488 -1.1857
 1016MOL0     H40184   0.830   8.882   6.402  0.5444 -0.8853 -0.3285
 1016MOL0     H40185   0.976   8.908   6.492 -0.5465  1.4553  0.3333
 1016MOL0     H40186   0.901   8.697   6.571  1.8094  0.6099 -0.0346
 1016MOL0     H40187   1.012   8.641   6.432  0.9529 -0.4203  0.8311
 1016MOL0     H40188   1.338   9.472   6.094 -0.3897 -0.6253  0.6094
 1016MOL0     H40189   1.401   9.698   6.106  0.4500 -0.1140  0.5882
 1016MOL0     H40190   1.506  10.058   6.542 -0.8829 -0.1674 -0.2294
 1016MOL0     H40191   1.555  10.288   6.551 -0.2617 -1.2713 -0.3242
 1016MOL0     H40192   3.211  11.100   7.069 -0.3279 -1.8986 -4.1600
 1016MOL0     H40193   3.372  10.955   7.227 -0.2682  1.1444  0.9388
 1016MOL0     H40194   3.328  10.569   7.510  0.0779  4.1058 -2.0113
 1016MOL0     H40195   3.415  10.438   7.695  0.4345  0.2583 -3.7054
 1016MOL0     H40196   3.738  10.600   7.973  0.6931  0.5030  0.2298
 1016MOL0     H40197   3.606  10.629   8.082 -1.0431 -0.8999  1.1065
 1016MOL0     H40198   3.563  10.385   8.109 -0.5476  0.0272  0.1280
 1016MOL0     H40199   3.701  10.460   8.196 -0.5276 -0.9937  1.1278
 1016MOL0     H40200   3.743  10.224   8.067 -2.8453  0.2816  0.6844
 1016MOL0     H40201   3.702  10.303   7.918 -1.7920 -1.4784  0.9748
 1016MOL0     H40202   3.898  10.442   7.933  2.7091 -1.2412 -2.1914
 1016MOL0     H40203   3.959  10.269   7.976  3.4624  1.0074  2.0745
 1016MOL0     H40204   4.021  10.513   8.314 -1.6635 -0.4975  0.0908
 1016MOL0     H40205   3.626  10.772   7.863 -1.4551  2.9071  0.0753
 1016MOL0     H40206   3.572  10.991   7.586  0.9254 -0.2717  0.4726
 1016MOL0     H40207   3.481  11.013   7.736  0.2478 -1.9530  1.4574
 1016MOL0     H40208   3.652  10.951   7.736 -0.3905 -0.0987  1.7845
 1017MOL0     O40209   9.755   4.450   2.991 -0.1224 -0.4105 -0.4259
 1017MOL0     C40210   9.676   4.484   3.075  0.0141 -0.0530 -0.0784
 1017MOL0     O40211   9.629   4.611   3.083 -0.3220 -0.5121  0.3348
 1017MOL0     C40212   9.674   4.707   3.001 -0.2625 -0.3664  0.5639
 1017MOL0     C40213   9.737   4.818   3.060  0.1960  0.3217 -0.0200
 1017MOL0     C40214   9.790   4.925   2.990 -0.3122 -0.0762  0.8458
 1017MOL0     C40215   9.760   4.934   2.854 -0.5190  0.3228 -0.5138
 1017MOL0     O40216   9.789   5.040   2.784  0.0446 -0.2377  0.7503
 1017MOL0     C40217   9.909   5.018   2.702  0.7197 -0.1359 -0.2790
 1017MOL0     C40218   9.878   5.029   2.558  0.4338 -0.2912  0.4612
 1017MOL0     C40219  10.005   5.031   2.451  0.1798  1.0728 -0.5429
 1017MOL0     C40220   9.965   5.078   2.314  0.8325 -0.2060 -0.0555
 1017MOL0     C40221  10.084   5.119   2.237  0.4305  0.7695  0.4066
 1017MOL0     C40222  10.035   5.189   2.111  0.1675 -1.8270  0.4186
 1017MOL0     C40223   9.962   5.099   2.003  0.0082 -0.4026 -0.2966
 1017MOL0     C40224  10.046   4.973   1.961  0.0850 -0.5399  0.0789
 1017MOL0     N40225  10.142   5.020   1.864 -0.7798 -0.2122 -0.6643
 1017MOL0     C40226  10.251   5.086   1.905  0.5731  0.1951 -0.2808
 1017MOL0     C40227  10.292   5.168   1.805 -0.7899 -0.1125 -0.3668
 1017MOL0     C40228  10.413   5.267   1.809 -0.8169 -1.0251 -0.2719
 1017MOL0     C40229  10.536   5.225   1.723 -1.6531 -0.7135 -0.7616
 1017MOL0     C40230  10.640   5.340   1.698  0.0362 -1.0363 -0.3094
 1017MOL0     C40231  10.696   5.422   1.816  0.4192  0.1643 -0.1477
 1017MOL0     O40232  10.767   5.328   1.894  0.5419  0.3334 -0.3501
 1017MOL0     C40233  10.895   5.334   1.918  0.5688  0.6892 -0.0394
 1017MOL0     C40234  10.966   5.220   1.967  0.0141 -0.5918 -0.0020
 1017MOL0     C40235  11.100   5.230   2.004 -0.0404 -0.5280 -0.0342
 1017MOL0     C40236  11.170   5.107   2.042  0.3417 -0.6829  0.2693
 1017MOL0     C40237  11.155   5.357   2.005 -0.5258 -0.6933  0.4698
 1017MOL0     C40238  11.288   5.383   2.058 -0.2165  0.6914  0.2388
 1017MOL0     O40239  11.379   5.329   1.974 -0.4340 -0.1697 -0.0704
 1017MOL0     C40240  11.506   5.309   2.009 -0.2856  0.4980  0.4443
 1017MOL0     C40241  11.570   5.298   2.133 -0.0899  0.9691  0.3255
 1017MOL0     C40242  11.706   5.264   2.140 -0.5230  0.0365 -0.2385
 1017MOL0     C40243  11.782   5.223   2.029  0.3635  0.0537  0.0401
 1017MOL0     O40244  11.910   5.174   2.043 -0.2245  0.3864  0.2095
 1017MOL0     C40245  11.994   5.159   1.930 -0.4416 -0.1455 -0.2072
 1017MOL0     C40246  12.039   5.290   1.869  0.2424 -0.1356 -1.0923
 1017MOL0     C40247  12.093   5.270   1.730 -0.0566  0.9445 -0.1525
 1017MOL0     C40248  12.149   5.396   1.661 -0.5165  0.2356 -0.3600
 1017MOL0     C40249  12.188   5.374   1.516 -0.1057 -0.4056 -0.4797
 1017MOL0     C40250  12.246   5.492   1.445 -0.4796  0.2305  0.7445
 1017MOL0     C40251  12.361   5.560   1.502  0.0463 -0.1336 -0.5461
 1017MOL0     C40252  12.434   5.646   1.388 -0.0796  0.6724  0.1403
 1017MOL0    Cl40253  12.539   5.551   1.273  0.1852  0.0327 -0.2299
 1017MOL0     C40254  11.717   5.236   1.905 -0.0321 -0.2195 -0.4324
 1017MOL0     C40255  11.583   5.274   1.893 -0.1828 -0.1617  0.2790
 1017MOL0     O40256  11.307   5.455   2.161  0.2684  0.1749  1.1935
 1017MOL0     C40257  11.085   5.473   1.955 -0.1863  0.9345  1.0843
 1017MOL0     C40258  10.957   5.459   1.915 -0.2865  0.3918  0.4307
 1017MOL0     N40259  10.206   5.148   1.699 -1.0138  0.0652 -0.4532
 1017MOL0     N40260  10.116   5.066   1.740  0.4951 -0.1527  0.2420
 1017MOL0     C40261   9.697   4.825   2.785 -0.1051 -0.1452  0.5075
 1017MOL0     C40262   9.659   4.710   2.858  0.5373  0.0881  0.0767
 1017MOL0     C40263   9.617   4.378   3.173  0.3028  0.6908 -0.1499
 1017MOL0     C40264   9.516   4.423   3.258 -0.1387 -0.3808  0.8451
 1017MOL0     C40265   9.463   4.342   3.351  0.2878 -0.5686 -0.7668
 1017MOL0     C40266   9.489   4.205   3.353 -1.4839  1.1856 -0.1319
 1017MOL0     O40267   9.423   4.110   3.431  0.1559  0.5665 -0.6181
 1017MOL0     C40268   9.307   4.167   3.488 -0.2254  0.8187 -0.2474
 1017MOL0     C40269   9.237   4.061   3.569 -0.0366 -0.7433  0.1604
 1017MOL0     C40270   9.100   4.111   3.615 -0.0128 -0.3955 -0.3051
 1017MOL0     C40271   9.111   4.231   3.705 -0.1588  0.4166 -0.1540
 1017MOL0     C40272   8.995   4.246   3.796  0.5690 -0.3142  0.1299
 1017MOL0     C40273   8.908   4.267   3.878 -0.0001  0.1156 -1.2587
 1017MOL0     C40274   9.585   4.156   3.266  0.0180  1.4521  0.5147
 1017MOL0     C40275   9.655   4.241   3.179 -0.0827  0.9250  0.3680
 1017MOL0     C40276   9.745   4.174   3.074  0.7385  0.7483  0.1145
 1017MOL0     H40277   9.751   4.802   3.166  2.0530  1.3058 -0.0660
 1017MOL0     H40278   9.852   4.993   3.047  2.8066 -3.5914  2.0421
 1017MOL0     H40279   9.961   4.923   2.719  0.3408 -0.6619 -1.9421
 1017MOL0     H40280   9.986   5.090   2.731  0.7191 -1.3685  3.2994
 1017MOL0     H40281   9.808   4.952   2.524 -0.2740  0.6807 -0.3407
 1017MOL0     H40282   9.828   5.125   2.541  2.2159  0.3692 -1.5675
 1017MOL0     H40283  10.071   5.106   2.496  0.5672  1.0767 -1.1086
 1017MOL0     H40284  10.050   4.932   2.437  0.9237  1.2082  0.7012
 1017MOL0     H40285   9.918   4.997   2.257 -0.3103  0.1384  0.3676
 1017MOL0     H40286   9.890   5.157   2.323  0.8372 -0.4206  2.5891
 1017MOL0     H40287  10.163   5.045   2.223 -2.0765 -2.1780  0.9580
 1017MOL0     H40288  10.142   5.192   2.295  1.9475 -0.9390  1.1544
 1017MOL0     H40289   9.974   5.275   2.140 -0.1546 -1.6714 -0.6853
 1017MOL0     H40290  10.122   5.240   2.069 -2.2937  0.8692 -1.8051
 1017MOL0     H40291   9.936   5.159   1.915  3.1599  0.0309 -1.0578
 1017MOL0     H40292   9.867   5.069   2.047  0.5587 -0.7798  0.6773
 1017MOL0     H40293  10.100   4.930   2.047  0.2267  0.7786  0.6696
 1017MOL0     H40294   9.982   4.901   1.909  1.1172 -0.1884 -1.7667
 1017MOL0     H40295  10.291   5.076   2.006  2.1069 -1.7128 -1.0040
 1017MOL0     H40296  10.443   5.279   1.914  0.5562 -2.1551 -0.5073
 1017MOL0     H40297  10.377   5.361   1.767  0.4115 -1.2073 -1.8337
 1017MOL0     H40298  10.582   5.146   1.783  0.2390  2.6840  2.7235
 1017MOL0     H40299  10.510   5.174   1.630  3.6065  1.8432 -4.1049
 1017MOL0     H40300  10.729   5.293   1.656 -0.0201 -1.1394 -0.3141
 1017MOL0     H40301  10.587   5.406   1.629  0.0718  0.0495  0.6609
 1017MOL0     H40302  10.751   5.510   1.781  2.6486 -1.8034 -1.9519
 1017MOL0     H40303  10.617   5.464   1.879 -1.7277  0.0196 -2.5998
 1017MOL0     H40304  10.924   5.120   1.973  0.2128 -0.6288  0.9555
 1017MOL0     H40305  11.099   5.026   2.058 -1.0409  0.7085  1.4148
 1017MOL0     H40306  11.220   5.134   2.136 -0.7778  0.4941  0.5506
 1017MOL0     H40307  11.249   5.075   1.973  1.3763 -2.8414  2.3225
 1017MOL0     H40308  11.509   5.316   2.221  0.9363 -3.6488  2.2497
 1017MOL0     H40309  11.766   5.282   2.229  2.2902  1.6914 -2.2815
 1017MOL0     H40310  12.085   5.105   1.958  0.9403  1.9091 -0.5572
 1017MOL0     H40311  11.941   5.102   1.852  2.0232  3.9802 -5.6018
 1017MOL0     H40312  11.956   5.360   1.864  1.4379  1.2528 -2.8856
 1017MOL0     H40313  12.117   5.326   1.937 -2.4806  0.8123  1.7569
 1017MOL0     H40314  12.014   5.228   1.667 -0.0856  1.6732 -0.6090
 1017MOL0     H40315  12.165   5.187   1.734 -0.8871  0.2452  1.8909
 1017MOL0     H40316  12.228   5.440   1.722  0.1095 -0.4115 -0.6971
 1017MOL0     H40317  12.075   5.478   1.657  1.5949  2.2584 -0.0267
 1017MOL0     H40318  12.264   5.296   1.510 -0.8715 -1.4100  1.8442
 1017MOL0     H40319  12.103   5.339   1.456 -1.7559 -1.5754  2.3513
 1017MOL0     H40320  12.162   5.559   1.426 -2.0619 -1.9828 -0.5247
 1017MOL0     H40321  12.269   5.465   1.341 -1.1082  1.8415  0.1535
 1017MOL0     H40322  12.424   5.481   1.543 -0.6744 -0.2857  0.2923
 1017MOL0     H40323  12.328   5.628   1.582  1.0189 -0.6274  0.2977
 1017MOL0     H40324  12.494   5.724   1.435  0.7277  2.0105 -2.8405
 1017MOL0     H40325  12.357   5.694   1.326 -0.9002 -0.4111  0.2921
 1017MOL0     H40326  11.766   5.206   1.812 -0.6721  1.0435 -1.2118
 1017MOL0     H40327  11.528   5.267   1.800  1.6382  0.7975 -0.9392
 1017MOL0     H40328  11.120   5.575   1.967  1.0573  1.0259 -2.3765
 1017MOL0     H40329  10.911   5.556   1.903 -1.3582 -0.3376 -2.1506
 1017MOL0     H40330   9.685   4.821   2.678  1.6906  1.0537  0.2009
 1017MOL0     H40331   9.603   4.634   2.803  0.6969  0.0889 -0.0896
 1017MOL0     H40332   9.481   4.524   3.239 -2.5173 -1.3277 -0.2232
 1017MOL0     H40333   9.389   4.397   3.409  0.1993 -1.0688 -0.3937
 1017MOL0     H40334   9.339   4.240   3.562  1.7947  0.6887 -0.9155
 1017MOL0     H40335   9.241   4.211   3.413  2.5428 -0.6063 -3.8598
 1017MOL0     H40336   9.300   4.035   3.655  0.0254 -1.1998 -0.0211
 1017MOL0     H40337   9.218   3.970   3.511  0.4193  0.4884 -1.9994
 1017MOL0     H40338   9.052   4.132   3.519 -0.9325 -0.2566  0.1796
 1017MOL0     H40339   9.040   4.036   3.666  0.1896 -0.1466  0.3011
 1017MOL0     H40340   9.117   4.315   3.635  0.2714  0.1868 -0.3944
 1017MOL0     H40341   9.200   4.223   3.769 -0.8688 -0.0174  0.8039
 1017MOL0     H40342   8.826   4.263   3.948 -1.1792 -3.3039 -2.6257
 1017MOL0     H40343   9.621   4.054   3.271 -1.1224  1.0824  1.6907
 1017MOL0     H40344   9.678   4.155   2.990  1.6498  1.4000 -0.7818
 1017MOL0     H40345   9.832   4.238   3.053  1.8321 -0.6171  0.3619
 1017MOL0     H40346   9.791   4.083   3.113 -2.0416 -0.0088  1.9255
 1018MOL0     O40347   6.846   5.427   8.801 -0.9984 -0.4421  0.7160
 1018MOL0     C40348   6.791   5.528   8.763 -0.4695 -0.3950  0.5918
 1018MOL0     O40349   6.665   5.565   8.806  0.2220  0.1088 -0.4043
 1018MOL0     C40350   6.631   5.509   8.932 -0.0414  0.0199  0.2681
 1018MOL0     C40351   6.539   5.407   8.934  0.4106 -0.1464  1.1757
 1018MOL0     C40352   6.497   5.345   9.056 -0.1239 -0.9824 -0.0158
 1018MOL0     C40353   6.554   5.395   9.177 -0.0040 -0.0859  0.1423
 1018MOL0     O40354   6.521   5.351   9.300 -0.1422  0.6049  0.0785
 1018MOL0     C40355   6.516   5.205   9.314 -0.0397  0.0516 -0.1458
 1018MOL0     C40356   6.504   5.162   9.468 -1.4489  0.7110 -0.3982
 1018MOL0     C40357   6.624   5.200   9.556  0.1468 -0.1258 -0.0383
 1018MOL0     C40358   6.614   5.339   9.623  0.2074  0.1267  0.6785
 1018MOL0     C40359   6.720   5.350   9.731  1.0762  0.0352  0.4842
 1018MOL0     C40360   6.682   5.443   9.846  0.2340 -0.5997  0.4249
 1018MOL0     C40361   6.791   5.487   9.932  0.0823  0.7484 -0.4107
 1018MOL0     C40362   6.843   5.374  10.028  0.3627  0.4499 -0.6866
 1018MOL0     N40363   6.746   5.295  10.109  0.2127 -0.0900 -0.5792
 1018MOL0     C40364   6.665   5.338  10.215 -0.6736 -0.7815 -0.0720
 1018MOL0     C40365   6.595   5.230  10.258 -0.0554  0.8752  0.8114
 1018MOL0     C40366   6.507   5.214  10.386 -0.1516  0.1629 -0.7342
 1018MOL0     C40367   6.599   5.155  10.494  0.4460 -0.2252  0.3313
 1018MOL0     C40368   6.681   5.261  10.569  1.0789  0.0510  0.4484
 1018MOL0     C40369   6.791   5.189  10.645 -0.7186  0.2732  0.9578
 1018MOL0     O40370   6.880   5.271  10.711 -0.0362  0.0569  0.7539
 1018MOL0     C40371   6.852   5.316  10.841 -1.2096 -0.0410  0.2532
 1018MOL0     C40372   6.927   5.425  10.884 -0.3842  0.3631 -1.0187
 1018MOL0     C40373   6.911   5.498  11.001  0.4718  0.4367 -0.3997
 1018MOL0     C40374   7.003   5.620  11.022  0.5678 -0.0280  0.3692
 1018MOL0     C40375   6.802   5.458  11.084 -0.6561  0.2126 -0.3211
 1018MOL0     C40376   6.764   5.530  11.207 -0.4723  0.7649  0.2465
 1018MOL0     O40377   6.641   5.594  11.197  0.0281 -0.6727 -0.2917
 1018MOL0     C40378   6.608   5.682  11.297 -0.6186  0.3551 -0.4756
 1018MOL0     C40379   6.657   5.811  11.283  0.5174  0.1965 -1.6302
 1018MOL0     C40380   6.643   5.902  11.395 -0.4504 -0.0932  0.3269
 1018MOL0     C40381   6.567   5.867  11.504 -0.8277 -0.6147  0.0584
 1018MOL0     O40382   6.547   5.971  11.594 -0.0768  0.2603 -0.1962
 1018MOL0     C40383   6.457   5.951  11.705 -0.9484 -0.9161 -0.9034
 1018MOL0     C40384   6.476   6.076  11.794  0.1752 -0.0936  0.6311
 1018MOL0     C40385   6.393   6.197  11.746  0.3393 -0.0901  0.4830
 1018MOL0     C40386   6.424   6.322  11.834 -0.2994 -0.1236  0.4782
 1018MOL0     C40387   6.537   6.397  11.759  0.1291  0.2424  0.6397
 1018MOL0     C40388   6.642   6.461  11.856  0.4016  0.0309  0.2835
 1018MOL0     C40389   6.587   6.585  11.919 -1.0615  0.4804  1.0791
 1018MOL0     C40390   6.662   6.631  12.045 -0.4474 -0.4422  0.0774
 1018MOL0    Cl40391   6.830   6.667  12.007  0.2829  0.1704 -0.2402
 1018MOL0     C40392   6.516   5.735  11.513  0.9646  0.7637 -0.9186
 1018MOL0     C40393   6.539   5.642  11.407  1.0237  0.7087  0.0947
 1018MOL0     O40394   6.851   5.540  11.298 -0.0055  0.1945  0.5541
 1018MOL0     C40395   6.730   5.340  11.053  0.0421  0.3256  1.4093
 1018MOL0     C40396   6.754   5.266  10.935  1.0428 -0.1264  0.2150
 1018MOL0     N40397   6.636   5.124  10.180 -0.1252 -0.1244  0.4684
 1018MOL0     N40398   6.715   5.160  10.082 -0.0433  0.1317 -0.0791
 1018MOL0     C40399   6.646   5.495   9.172 -0.2979 -1.3164 -0.5006
 1018MOL0     C40400   6.685   5.551   9.049 -0.3434  0.0001  0.0232
 1018MOL0     C40401   6.859   5.619   8.655 -0.0872 -0.7397 -1.0105
 1018MOL0     C40402   6.807   5.747   8.645 -0.2629  0.1097  0.1657
 1018MOL0     C40403   6.853   5.827   8.541 -0.3143  0.0640  0.1985
 1018MOL0     C40404   6.957   5.785   8.454  1.1689 -0.1753  0.1832
 1018MOL0     O40405   7.018   5.849   8.343  0.0434 -0.7203 -0.1677
 1018MOL0     C40406   6.984   5.984   8.320  0.2450  0.3821 -0.1041
 1018MOL0     C40407   7.052   6.024   8.190 -0.0355  0.2206  0.2324
 1018MOL0     C40408   6.994   5.945   8.070  0.0565 -0.2932 -0.5526
 1018MOL0     C40409   7.087   5.829   8.021 -0.8517  0.2655 -1.2304
 1018MOL0     C40410   7.214   5.874   7.958  0.1004 -0.5058 -0.1366
 1018MOL0     C40411   7.312   5.907   7.896  0.0231 -0.1230 -0.5606
 1018MOL0     C40412   7.014   5.665   8.477  0.0372 -0.1015 -0.6884
 1018MOL0     C40413   6.969   5.576   8.574  0.7358  0.2466 -0.2593
 1018MOL0     C40414   7.010   5.437   8.552 -0.6560 -0.7280 -0.5504
 1018MOL0     H40415   6.494   5.378   8.839 -0.1034  1.1209  1.0080
 1018MOL0     H40416   6.420   5.276   9.024 -0.5706  1.8095 -6.4737
 1018MOL0     H40417   6.606   5.159   9.270 -0.1917  1.4439 -2.0657
 1018MOL0     H40418   6.433   5.160   9.258  0.5272 -2.1084  0.6488
 1018MOL0     H40419   6.411   5.198   9.511 -2.0921  0.2940 -1.4168
 1018MOL0     H40420   6.500   5.053   9.477  3.5419  0.3008 -0.2968
 1018MOL0     H40421   6.621   5.121   9.631 -0.6699  0.1011  0.1787
 1018MOL0     H40422   6.719   5.184   9.505 -0.1622  0.2002 -0.7385
 1018MOL0     H40423   6.633   5.404   9.538  0.6626 -1.1634 -0.2379
 1018MOL0     H40424   6.510   5.354   9.653 -0.4762 -0.5724 -1.2356
 1018MOL0     H40425   6.816   5.379   9.686  2.3553 -0.9882  2.3891
 1018MOL0     H40426   6.726   5.248   9.771 -1.7414 -0.4011  0.0168
 1018MOL0     H40427   6.643   5.535   9.801  2.3568  0.1218 -0.0680
 1018MOL0     H40428   6.607   5.395   9.909 -0.8273  0.5768  0.0995
 1018MOL0     H40429   6.754   5.572   9.990  1.0427  0.4837  0.6201
 1018MOL0     H40430   6.878   5.527   9.878 -1.9512  2.1073 -2.9157
 1018MOL0     H40431   6.906   5.303   9.974  1.0451  0.2003  0.3970
 1018MOL0     H40432   6.910   5.425  10.099  2.2672  0.3360 -2.3112
 1018MOL0     H40433   6.652   5.437  10.257  0.4996 -0.2402 -0.9342
 1018MOL0     H40434   6.430   5.140  10.363  1.6770 -2.1020  0.1392
 1018MOL0     H40435   6.460   5.305  10.426 -1.8083 -0.4065 -1.3058
 1018MOL0     H40436   6.546   5.082  10.556 -1.4845  1.1234  0.3465
 1018MOL0     H40437   6.671   5.097  10.435 -0.2195  2.1558 -3.1032
 1018MOL0     H40438   6.721   5.324  10.490  3.6530 -1.2553  0.6316
 1018MOL0     H40439   6.607   5.312  10.632 -0.2539 -0.4759 -0.6211
 1018MOL0     H40440   6.737   5.121  10.711 -2.5812 -0.3630 -1.0825
 1018MOL0     H40441   6.854   5.137  10.572 -1.5145 -1.8663  1.7487
 1018MOL0     H40442   7.013   5.448  10.822  1.3812 -0.1230  1.1143
 1018MOL0     H40443   7.073   5.606  11.105  3.0852 -0.3509 -1.6808
 1018MOL0     H40444   6.945   5.712  11.031  1.7135  1.0416 -2.2314
 1018MOL0     H40445   7.060   5.647  10.933  1.3176 -2.2409  0.1267
 1018MOL0     H40446   6.725   5.825  11.199  1.3372 -1.5188 -1.2905
 1018MOL0     H40447   6.692   5.999  11.385  0.9382 -0.8897 -1.1944
 1018MOL0     H40448   6.350   5.940  11.685 -2.2603  1.2860  3.6102
 1018MOL0     H40449   6.491   5.869  11.768 -2.0621 -0.6720  0.0343
 1018MOL0     H40450   6.455   6.055  11.899 -1.1548  0.8294  0.5725
 1018MOL0     H40451   6.582   6.103  11.790  0.1907 -0.2092 -3.2724
 1018MOL0     H40452   6.285   6.177  11.752  0.4680 -1.2604 -0.6133
 1018MOL0     H40453   6.417   6.218  11.641 -0.8158  3.6048  0.7980
 1018MOL0     H40454   6.452   6.297  11.937 -0.2886  0.7799  0.6979
 1018MOL0     H40455   6.337   6.387  11.839 -0.5166 -0.2813 -0.9145
 1018MOL0     H40456   6.601   6.328  11.702  2.3225  0.9691  2.0640
 1018MOL0     H40457   6.497   6.464  11.683  2.0016 -0.6838 -1.2656
 1018MOL0     H40458   6.738   6.491  11.812  0.7535  1.1187  1.7039
 1018MOL0     H40459   6.661   6.387  11.934 -0.1005 -3.1587 -2.3949
 1018MOL0     H40460   6.483   6.563  11.945 -1.7555  1.0630 -0.9868
 1018MOL0     H40461   6.583   6.670  11.850  1.5765 -0.2556 -0.1000
 1018MOL0     H40462   6.661   6.550  12.119 -1.2188  0.2910  0.8954
 1018MOL0     H40463   6.624   6.725  12.086 -0.8822 -0.4463 -0.3086
 1018MOL0     H40464   6.452   5.704  11.596  1.1308 -1.3763 -1.5256
 1018MOL0     H40465   6.490   5.545  11.408 -1.3916  1.8008 -1.8151
 1018MOL0     H40466   6.648   5.305  11.116 -2.0070 -3.9466 -2.9838
 1018MOL0     H40467   6.695   5.176  10.917 -1.0867  0.2001  4.4655
 1018MOL0     H40468   6.704   5.527   9.258 -1.4670  3.9542 -1.3277
 1018MOL0     H40469   6.747   5.639   9.037 -2.6505  1.5570 -1.2836
 1018MOL0     H40470   6.725   5.781   8.707 -0.6914  0.3169 -0.5118
 1018MOL0     H40471   6.818   5.929   8.530 -0.5922 -0.2292 -2.0625
 1018MOL0     H40472   6.878   5.989   8.292  0.3160 -2.1115 -1.1016
 1018MOL0     H40473   7.021   6.052   8.397  3.7434 -0.1686 -1.1064
 1018MOL0     H40474   7.159   6.011   8.208 -0.4532 -4.5124  0.3510
 1018MOL0     H40475   7.034   6.130   8.170  1.2924  0.2049 -1.2597
 1018MOL0     H40476   6.898   5.900   8.097  0.5735 -1.3534 -0.4216
 1018MOL0     H40477   6.976   6.007   7.982  3.1992 -1.0673 -1.8774
 1018MOL0     H40478   7.027   5.771   7.951 -2.4938 -0.7448  0.9124
 1018MOL0     H40479   7.120   5.771   8.108  0.0619  1.3042 -0.8552
 1018MOL0     H40480   7.394   5.920   7.828 -1.1353 -2.2451 -2.4685
 1018MOL0     H40481   7.092   5.624   8.413 -1.1572 -2.7248 -0.5708
 1018MOL0     H40482   7.071   5.404   8.637  0.4251  0.4328 -0.8448
 1018MOL0     H40483   6.931   5.361   8.555 -0.1299 -1.2462  1.7838
 1018MOL0     H40484   7.067   5.430   8.458 -1.8974 -0.2176 -1.3705
 1019MOL0     O40485   7.654   0.218   1.944 -0.3736  0.2642  0.1787
 1019MOL0     C40486   7.556   0.232   1.871 -0.2207 -0.6346  0.2159
 1019MOL0     O40487   7.554   0.281   1.752  0.1560 -0.1858  0.1243
 1019MOL0     C40488   7.652   0.354   1.691  0.2621 -0.0760  0.1496
 1019MOL0     C40489   7.613   0.415   1.568 -0.6416 -0.4738  0.4173
 1019MOL0     C40490   7.709   0.492   1.493  0.2841  0.3126 -0.0318
 1019MOL0     C40491   7.841   0.508   1.544 -0.2714  1.0378  0.4565
 1019MOL0     O40492   7.940   0.578   1.482 -0.2431  0.5583 -0.6261
 1019MOL0     C40493   7.976   0.538   1.352 -1.3379 -0.0171  0.4627
 1019MOL0     C40494   8.092   0.626   1.319  0.0593  0.4374  0.0692
 1019MOL0     C40495   8.219   0.592   1.392 -1.0323 -0.3362 -0.1134
 1019MOL0     C40496   8.323   0.676   1.322 -0.3627 -1.5268  0.1234
 1019MOL0     C40497   8.452   0.607   1.329 -0.8068  0.2134 -0.0224
 1019MOL0     C40498   8.577   0.703   1.293  0.0341  0.1669 -0.2671
 1019MOL0     C40499   8.582   0.742   1.153 -0.5099 -0.0833 -0.2476
 1019MOL0     C40500   8.664   0.869   1.130 -1.3474 -0.1048 -0.4514
 1019MOL0     N40501   8.805   0.839   1.088  0.7586 -0.1637  0.3787
 1019MOL0     C40502   8.921   0.881   1.162  1.1044  1.1828 -0.6239
 1019MOL0     C40503   9.024   0.874   1.080  0.0678 -0.1271 -0.5802
 1019MOL0     C40504   9.163   0.900   1.126 -0.4211  0.4413 -0.2721
 1019MOL0     C40505   9.268   0.866   1.019  0.7462  0.5843 -0.0495
 1019MOL0     C40506   9.337   0.980   0.955  0.1758  0.3057  0.6650
 1019MOL0     C40507   9.234   1.071   0.883 -0.1333  0.0025 -0.8875
 1019MOL0     O40508   9.303   1.189   0.847 -0.5716 -0.0879 -0.1835
 1019MOL0     C40509   9.254   1.258   0.744  0.1466  0.5632  0.1426
 1019MOL0     C40510   9.342   1.358   0.691  0.2724  0.9387 -0.8960
 1019MOL0     C40511   9.308   1.441   0.580  0.4252 -0.1426 -1.3243
 1019MOL0     C40512   9.410   1.537   0.540 -0.8322 -0.6948 -1.1782
 1019MOL0     C40513   9.179   1.420   0.521 -0.3746 -0.7873 -0.1561
 1019MOL0     C40514   9.131   1.489   0.396  0.4538  0.6074  0.3619
 1019MOL0     O40515   8.990   1.469   0.374 -0.7417 -0.3219 -0.3422
 1019MOL0     C40516   8.918   1.507   0.268 -0.5138  0.8191 -0.1711
 1019MOL0     C40517   8.785   1.438   0.248 -0.0351 -0.2922 -0.3652
 1019MOL0     C40518   8.711   1.472   0.129  0.0740 -0.1242 -0.0555
 1019MOL0     C40519   8.762   1.568   0.039 -0.1447 -0.1443  0.5637
 1019MOL0     O40520   8.685   1.608  -0.066  0.5687  0.7933 -0.4716
 1019MOL0     C40521   8.657   1.747  -0.055 -0.1523  0.0027 -0.0830
 1019MOL0     C40522   8.560   1.789  -0.174  0.0631 -0.6657 -0.6769
 1019MOL0     C40523   8.437   1.701  -0.181  0.1825  0.2611  0.5698
 1019MOL0     C40524   8.326   1.776  -0.260  0.5972  0.5559 -0.2096
 1019MOL0     C40525   8.199   1.695  -0.244  1.0378 -0.4208  1.1352
 1019MOL0     C40526   8.082   1.751  -0.336  0.2191  0.0900  0.5848
 1019MOL0     C40527   7.959   1.683  -0.293  0.5953 -0.0464 -0.0531
 1019MOL0     C40528   7.847   1.688  -0.399  0.1250  0.0841  0.4701
 1019MOL0    Cl40529   7.802   1.866  -0.425 -0.8595  0.1709 -0.1175
 1019MOL0     C40530   8.880   1.630   0.067  0.5136  0.6241 -0.0946
 1019MOL0     C40531   8.954   1.594   0.173 -0.0781  0.1179 -0.2038
 1019MOL0     O40532   9.209   1.555   0.325  0.3296  0.5254  0.2301
 1019MOL0     C40533   9.090   1.329   0.583 -0.7629 -0.0648 -0.4802
 1019MOL0     C40534   9.124   1.242   0.686  0.1912 -0.0997  0.0342
 1019MOL0     N40535   8.978   0.826   0.960  0.9590  0.0375  0.3266
 1019MOL0     N40536   8.844   0.807   0.963 -0.5418 -0.0539 -0.0390
 1019MOL0     C40537   7.873   0.466   1.674 -0.4649  0.1309  0.7023
 1019MOL0     C40538   7.778   0.389   1.745  0.7411  0.9681 -0.5763
 1019MOL0     C40539   7.422   0.189   1.913  0.3206 -1.3017 -0.3554
 1019MOL0     C40540   7.314   0.248   1.850  0.1021 -0.1385  0.4008
 1019MOL0     C40541   7.177   0.212   1.881 -0.9984 -1.0197 -0.4183
 1019MOL0     C40542   7.151   0.125   1.987 -0.0737  0.6839 -0.4042
 1019MOL0     O40543   7.033   0.069   2.023  0.2824 -0.6873  0.7408
 1019MOL0     C40544   6.910   0.087   1.936 -1.1788  0.3090 -0.5250
 1019MOL0     C40545   6.822   0.193   1.989 -0.2628  0.0783  1.3651
 1019MOL0     C40546   6.712   0.154   2.078 -0.5034 -0.2248 -0.4458
 1019MOL0     C40547   6.630   0.272   2.152 -0.2414  1.6591  0.1320
 1019MOL0     C40548   6.524   0.209   2.239 -0.2070  0.7410  0.2516
 1019MOL0     C40549   6.430   0.159   2.301 -0.0642  0.5449  0.4487
 1019MOL0     C40550   7.259   0.077   2.071 -0.0052  0.3466  0.6611
 1019MOL0     C40551   7.389   0.106   2.029  0.8079  0.3762 -0.5566
 1019MOL0     C40552   7.501   0.054   2.125 -0.2467 -0.1695  0.5850
 1019MOL0     H40553   7.519   0.393   1.518  0.9140  1.2674 -3.7159
 1019MOL0     H40554   7.677   0.523   1.394  1.3392 -1.5925 -1.0209
 1019MOL0     H40555   7.900   0.541   1.273 -2.2492  0.4456  1.3428
 1019MOL0     H40556   8.009   0.435   1.367 -0.1955  0.4996  1.7268
 1019MOL0     H40557   8.113   0.621   1.211  1.3170 -3.2682  0.3295
 1019MOL0     H40558   8.058   0.727   1.342  0.8556  0.3788  1.6193
 1019MOL0     H40559   8.210   0.620   1.497  2.6446  1.0794 -0.0462
 1019MOL0     H40560   8.246   0.487   1.373  3.6626  0.8737 -1.4069
 1019MOL0     H40561   8.298   0.694   1.217  1.5839  0.8689 -0.0409
 1019MOL0     H40562   8.332   0.775   1.369  1.8747 -1.7259  0.2502
 1019MOL0     H40563   8.443   0.524   1.257 -1.0519 -0.6158  0.9466
 1019MOL0     H40564   8.461   0.565   1.429 -0.3183 -3.4106 -1.4339
 1019MOL0     H40565   8.578   0.787   1.363  5.2412  0.8989 -0.8022
 1019MOL0     H40566   8.664   0.642   1.318 -0.2033  0.5517  1.6190
 1019MOL0     H40567   8.485   0.778   1.118 -0.7987 -1.3298 -0.7839
 1019MOL0     H40568   8.621   0.656   1.099 -1.7005 -1.3197  0.7961
 1019MOL0     H40569   8.613   0.923   1.050 -2.4878 -1.6731 -0.8278
 1019MOL0     H40570   8.670   0.921   1.226  0.3583  0.9246 -1.0623
 1019MOL0     H40571   8.927   0.914   1.265 -1.8873  0.2868 -0.0643
 1019MOL0     H40572   9.188   0.843   1.216 -1.5239  1.0525  0.4548
 1019MOL0     H40573   9.173   1.006   1.154  2.2884 -0.5003  2.8876
 1019MOL0     H40574   9.353   0.819   1.071  1.3223  1.2308 -0.3868
 1019MOL0     H40575   9.231   0.801   0.939  3.1257  1.0512 -1.6481
 1019MOL0     H40576   9.380   1.046   1.031  2.1704  0.8478 -0.8469
 1019MOL0     H40577   9.414   0.946   0.885 -0.3030  1.6054 -0.5340
 1019MOL0     H40578   9.182   1.021   0.801 -1.7383  2.1087 -1.2254
 1019MOL0     H40579   9.154   1.100   0.951  0.7429 -0.6674  0.4688
 1019MOL0     H40580   9.441   1.375   0.732  0.1769  1.0298 -0.7053
 1019MOL0     H40581   9.365   1.637   0.533 -1.2237 -0.7623  0.2254
 1019MOL0     H40582   9.443   1.511   0.439 -0.5012 -0.6322 -1.0843
 1019MOL0     H40583   9.497   1.541   0.606  1.2995 -2.3856 -3.6777
 1019MOL0     H40584   8.745   1.358   0.310  0.5016 -0.0269  0.3201
 1019MOL0     H40585   8.613   1.430   0.112  1.1966 -2.4027 -1.4118
 1019MOL0     H40586   8.613   1.765   0.044 -0.5501 -0.5113 -0.1635
 1019MOL0     H40587   8.744   1.811  -0.071  0.7948  0.2555  4.4778
 1019MOL0     H40588   8.539   1.893  -0.146  1.0552 -1.2490  2.6875
 1019MOL0     H40589   8.613   1.795  -0.269 -0.5090  3.1292 -0.9477
 1019MOL0     H40590   8.413   1.695  -0.075  1.0426 -1.4870  0.7028
 1019MOL0     H40591   8.452   1.594  -0.202 -0.8167 -0.1062  1.6316
 1019MOL0     H40592   8.349   1.779  -0.367  0.0633  1.8383 -0.3009
 1019MOL0     H40593   8.333   1.881  -0.229 -0.1786  0.0151  1.9846
 1019MOL0     H40594   8.220   1.590  -0.269  1.1876  0.5444 -3.5633
 1019MOL0     H40595   8.175   1.699  -0.137 -0.4473 -2.1737  0.9180
 1019MOL0     H40596   8.104   1.734  -0.442  0.6905 -0.9724  0.8367
 1019MOL0     H40597   8.081   1.858  -0.315  1.5980  0.8150 -2.4791
 1019MOL0     H40598   7.919   1.730  -0.202  2.9016  0.9133  0.5465
 1019MOL0     H40599   7.982   1.579  -0.268 -1.4940  0.2351  3.8295
 1019MOL0     H40600   7.761   1.630  -0.364 -0.2508  1.1915  1.4870
 1019MOL0     H40601   7.883   1.647  -0.493 -1.7112  0.5635 -0.5015
 1019MOL0     H40602   8.916   1.705  -0.003 -0.3239  2.0609  0.9564
 1019MOL0     H40603   9.050   1.645   0.184  0.6269 -1.2130  0.0811
 1019MOL0     H40604   8.991   1.306   0.544 -1.8653  1.1984  1.4043
 1019MOL0     H40605   9.065   1.154   0.711 -1.3165  1.2723  1.5564
 1019MOL0     H40606   7.973   0.496   1.703  0.0837  0.6986 -1.5751
 1019MOL0     H40607   7.808   0.351   1.842 -0.8575 -0.7836 -0.6984
 1019MOL0     H40608   7.324   0.310   1.762 -0.7605 -0.5560 -0.0023
 1019MOL0     H40609   7.089   0.239   1.823 -0.8872 -0.9687 -0.5651
 1019MOL0     H40610   6.937   0.114   1.833  1.8936 -0.4396 -0.0291
 1019MOL0     H40611   6.856  -0.008   1.938  2.5859 -2.1517 -2.6424
 1019MOL0     H40612   6.767   0.231   1.902  1.5817 -0.7763 -0.2429
 1019MOL0     H40613   6.882   0.274   2.030 -1.4724  0.7829  1.8197
 1019MOL0     H40614   6.640   0.082   2.039 -0.7933 -0.2882  0.1893
 1019MOL0     H40615   6.767   0.109   2.161 -0.0192 -1.2546 -1.2974
 1019MOL0     H40616   6.581   0.333   2.075  0.6449  1.9449 -0.2252
 1019MOL0     H40617   6.691   0.340   2.213  0.8805  1.2393 -0.4846
 1019MOL0     H40618   6.348   0.108   2.347 -2.3480  0.0164 -3.7770
 1019MOL0     H40619   7.229   0.003   2.144  0.7817 -1.5725 -0.8602
 1019MOL0     H40620   7.476  -0.019   2.202 -1.1180 -1.5954 -0.9930
 1019MOL0     H40621   7.583   0.012   2.067 -0.1121  1.8250 -0.7588
 1019MOL0     H40622   7.554   0.134   2.178 -0.6571  0.0362  0.6847
 1020MOL0     O40623   3.355  10.497   3.984 -0.7321  0.7394  0.2743
 1020MOL0     C40624   3.441  10.416   3.949 -0.7325  0.1464 -0.0099
 1020MOL0     O40625   3.420  10.283   3.918 -0.4671 -0.5258 -0.1666
 1020MOL0     C40626   3.284  10.257   3.909  0.0603  1.0246 -1.3936
 1020MOL0     C40627   3.202  10.304   3.813 -0.1531 -0.3248  0.5102
 1020MOL0     C40628   3.068  10.264   3.808  0.0692 -0.2755 -0.1008
 1020MOL0     C40629   3.014  10.162   3.890 -0.1658 -0.8403  0.0039
 1020MOL0     O40630   2.880  10.141   3.867 -0.8364 -0.1424  0.5292
 1020MOL0     C40631   2.820  10.064   3.970 -0.2965 -0.4241  0.1880
 1020MOL0     C40632   2.810   9.924   3.920 -0.7641 -0.6402 -0.4137
 1020MOL0     C40633   2.656   9.894   3.875 -1.0312  0.7478  1.4319
 1020MOL0     C40634   2.616   9.974   3.753 -0.6152  0.6177 -0.3293
 1020MOL0     C40635   2.476   9.932   3.711  0.2848 -0.3876  0.0741
 1020MOL0     C40636   2.438  10.000   3.586  0.2722 -0.2491  0.2222
 1020MOL0     C40637   2.295   9.987   3.537 -0.1894  0.6870  0.2468
 1020MOL0     C40638   2.246   9.845   3.518 -0.7133 -0.0016 -1.0297
 1020MOL0     N40639   2.125   9.846   3.444  0.7774 -0.7916 -0.0765
 1020MOL0     C40640   2.096   9.888   3.320  0.4901  0.5437  0.3143
 1020MOL0     C40641   1.960   9.859   3.306  0.0748 -0.5021 -0.1873
 1020MOL0     C40642   1.875   9.889   3.192  0.3054 -0.3635 -0.0416
 1020MOL0     C40643   1.758   9.785   3.171 -0.4492 -1.3276  0.3951
 1020MOL0     C40644   1.702   9.787   3.026 -1.3016 -0.0940 -0.0599
 1020MOL0     C40645   1.797   9.789   2.911  0.7179  0.1447 -0.3204
 1020MOL0     O40646   1.861   9.921   2.889  0.5442  0.3170 -0.8061
 1020MOL0     C40647   1.810   9.967   2.771 -1.1695  0.1715  0.3777
 1020MOL0     C40648   1.715  10.064   2.776  0.1413  0.4169  0.7821
 1020MOL0     C40649   1.644  10.106   2.661 -0.1592  0.8905  0.0965
 1020MOL0     C40650   1.548  10.217   2.688 -0.5049 -0.4594 -0.1899
 1020MOL0     C40651   1.680  10.057   2.537  0.8568 -0.8517 -0.1967
 1020MOL0     C40652   1.627  10.117   2.409  0.7316 -0.1906  0.2334
 1020MOL0     O40653   1.676  10.080   2.287 -0.6809 -0.5694 -0.7329
 1020MOL0     C40654   1.658  10.152   2.170  0.9261 -0.0872 -0.5186
 1020MOL0     C40655   1.545  10.144   2.080 -0.1345 -0.9896 -0.0973
 1020MOL0     C40656   1.543  10.229   1.968 -1.0437  0.2693  0.2246
 1020MOL0     C40657   1.645  10.314   1.934 -0.2825 -0.0285 -0.4963
 1020MOL0     O40658   1.645  10.385   1.813 -0.4451 -0.3628 -0.0629
 1020MOL0     C40659   1.527  10.440   1.759  0.1297 -0.5494 -0.2308
 1020MOL0     C40660   1.551  10.536   1.634 -0.3203  0.7478 -0.4070
 1020MOL0     C40661   1.650  10.641   1.677 -0.4803  0.8998  0.2575
 1020MOL0     C40662   1.714  10.710   1.555  0.0867 -0.0062 -0.4261
 1020MOL0     C40663   1.833  10.640   1.487 -0.4214  1.0263  0.3614
 1020MOL0     C40664   1.897  10.718   1.376  1.1457 -0.4790 -0.0486
 1020MOL0     C40665   1.824  10.704   1.243  0.5448 -1.5984 -0.1691
 1020MOL0     C40666   1.885  10.797   1.141 -0.5585 -0.3193  0.4813
 1020MOL0    Cl40667   1.770  10.812   0.989 -0.0857  0.0918 -0.5722
 1020MOL0     C40668   1.751  10.330   2.026 -0.6746  0.9960  0.6473
 1020MOL0     C40669   1.759  10.243   2.131 -0.7299  0.7920 -0.5223
 1020MOL0     O40670   1.535  10.200   2.427  0.4886 -0.1104  0.3820
 1020MOL0     C40671   1.781   9.969   2.527  0.1592 -0.0766  0.4625
 1020MOL0     C40672   1.840   9.919   2.644 -0.6554 -0.0011  0.2354
 1020MOL0     N40673   1.915   9.801   3.423 -0.0302 -0.2315  0.3360
 1020MOL0     N40674   2.016   9.798   3.509 -0.6094  0.1091 -0.7177
 1020MOL0     C40675   3.112  10.090   3.979  0.7121 -0.8222  0.2794
 1020MOL0     C40676   3.237  10.142   3.986  0.1373 -0.1649  0.8911
 1020MOL0     C40677   3.593  10.470   3.956 -0.5815  0.0789 -0.8102
 1020MOL0     C40678   3.615  10.612   3.941 -0.5042  0.4590  0.5382
 1020MOL0     C40679   3.747  10.656   3.924  0.3966 -0.3891  0.5636
 1020MOL0     C40680   3.851  10.571   3.923  0.2077 -0.3809 -0.9244
 1020MOL0     O40681   3.983  10.603   3.897 -0.1783 -0.0981  1.1733
 1020MOL0     C40682   4.015  10.736   3.862 -1.2390 -0.2221 -0.0198
 1020MOL0     C40683   4.151  10.740   3.792 -0.0625 -0.2098 -0.1896
 1020MOL0     C40684   4.207  10.882   3.750  0.9281 -0.0368  0.0488
 1020MOL0     C40685   4.352  10.872   3.702  0.1392 -0.0768 -0.1372
 1020MOL0     C40686   4.424  11.001   3.696  0.2796  0.0280  0.5263
 1020MOL0     C40687   4.483  11.108   3.692 -0.5298 -0.0379 -0.3805
 1020MOL0     C40688   3.837  10.436   3.922  0.4267 -0.6535 -0.7091
 1020MOL0     C40689   3.703  10.382   3.942 -0.7728 -0.4410  0.1075
 1020MOL0     C40690   3.688  10.229   3.940 -0.0828 -0.4619  0.6214
 1020MOL0     H40691   3.255  10.370   3.745  3.4536 -2.4357  1.0146
 1020MOL0     H40692   2.996  10.304   3.737  0.8308  0.8572 -0.2573
 1020MOL0     H40693   2.724  10.104   4.003 -0.1943 -1.0590  1.3031
 1020MOL0     H40694   2.877  10.064   4.063 -2.7025  0.3097  1.7611
 1020MOL0     H40695   2.872   9.899   3.834 -0.6066 -0.7589 -0.2658
 1020MOL0     H40696   2.831   9.856   4.003 -1.6326  1.0067  1.2182
 1020MOL0     H40697   2.631   9.788   3.860 -2.0617  1.0803  0.7166
 1020MOL0     H40698   2.598   9.934   3.959 -3.1853 -0.4294  0.5661
 1020MOL0     H40699   2.610  10.082   3.772 -2.0617  1.2693 -3.7440
 1020MOL0     H40700   2.694   9.952   3.679  0.0390 -1.5368  0.9079
 1020MOL0     H40701   2.398   9.950   3.786 -2.1096 -4.1655 -1.1973
 1020MOL0     H40702   2.477   9.824   3.696 -3.0157 -0.5756  0.4198
 1020MOL0     H40703   2.457  10.107   3.597  0.2060  0.5264 -4.7973
 1020MOL0     H40704   2.496   9.952   3.506  1.8802 -0.2504  1.3519
 1020MOL0     H40705   2.271  10.049   3.450 -1.9319  3.5307  2.5479
 1020MOL0     H40706   2.237  10.040   3.614  0.4082 -0.0690  1.2376
 1020MOL0     H40707   2.315   9.786   3.457 -0.5352 -0.1463 -0.6938
 1020MOL0     H40708   2.236   9.789   3.612  0.0426 -0.6812 -1.3434
 1020MOL0     H40709   2.168   9.928   3.249 -0.4911  3.9552  1.1035
 1020MOL0     H40710   1.943   9.896   3.106  1.4029 -1.2939  0.7175
 1020MOL0     H40711   1.818   9.981   3.210 -0.7447 -0.2178 -3.3928
 1020MOL0     H40712   1.794   9.684   3.193  1.9817 -0.8618 -1.0762
 1020MOL0     H40713   1.682   9.802   3.248  0.3508 -0.9052  1.1073
 1020MOL0     H40714   1.644   9.696   3.014  0.7604 -1.3917 -0.6204
 1020MOL0     H40715   1.634   9.873   3.020 -0.7597  0.3262 -0.2196
 1020MOL0     H40716   1.888   9.728   2.921  2.0024  1.9286 -0.5794
 1020MOL0     H40717   1.747   9.755   2.819 -1.6998  0.2599  0.8877
 1020MOL0     H40718   1.684  10.097   2.875 -1.5484 -2.0352  1.1764
 1020MOL0     H40719   1.538  10.229   2.796  2.9395 -3.3995  0.6795
 1020MOL0     H40720   1.448  10.204   2.646 -1.6583 -0.1159  2.2837
 1020MOL0     H40721   1.591  10.308   2.646 -2.6538  1.0726  0.7415
 1020MOL0     H40722   1.467  10.082   2.122 -1.9057  0.5399 -0.9749
 1020MOL0     H40723   1.474  10.217   1.885  0.2623  1.8301 -1.1572
 1020MOL0     H40724   1.467  10.354   1.728 -0.8952 -1.9255  4.7150
 1020MOL0     H40725   1.484  10.505   1.836 -0.2618  1.1093 -1.7915
 1020MOL0     H40726   1.586  10.480   1.547  0.5536  0.8206 -0.1165
 1020MOL0     H40727   1.463  10.591   1.600  0.3125  0.7693 -2.1110
 1020MOL0     H40728   1.735  10.601   1.732 -0.6361  4.8112  3.9055
 1020MOL0     H40729   1.596  10.701   1.751 -0.8523 -0.5592  1.2067
 1020MOL0     H40730   1.738  10.812   1.587 -1.3673 -0.3022  1.8136
 1020MOL0     H40731   1.630  10.710   1.486 -0.5865 -0.6031  0.3848
 1020MOL0     H40732   1.910  10.639   1.564 -0.1099  4.0194  0.1904
 1020MOL0     H40733   1.809  10.541   1.447 -0.5768  0.1343  2.5640
 1020MOL0     H40734   1.997  10.676   1.360  1.1204  0.8722 -6.1271
 1020MOL0     H40735   1.905  10.823   1.403  0.2271 -0.2589 -0.5967
 1020MOL0     H40736   1.718  10.728   1.252  0.6306 -1.3025  0.0481
 1020MOL0     H40737   1.835  10.601   1.207  0.8525 -1.4497 -0.5150
 1020MOL0     H40738   1.983  10.766   1.106 -2.3202 -2.5461 -3.1471
 1020MOL0     H40739   1.897  10.895   1.188 -0.5715  0.5112 -1.1766
 1020MOL0     H40740   1.830  10.401   2.005  0.6145 -0.5500  0.0387
 1020MOL0     H40741   1.842  10.262   2.198 -0.0447 -1.4600 -0.6518
 1020MOL0     H40742   1.823   9.932   2.434  1.3909 -0.2976  1.0890
 1020MOL0     H40743   1.913   9.840   2.630 -0.7259 -0.4908  2.3324
 1020MOL0     H40744   3.088   9.998   4.033 -2.0716 -2.1280 -2.8169
 1020MOL0     H40745   3.320  10.114   4.050  1.5261  1.9907  0.1475
 1020MOL0     H40746   3.536  10.685   3.946  0.0857  1.0793  0.9792
 1020MOL0     H40747   3.755  10.764   3.915  1.1159 -0.5276 -0.7301
 1020MOL0     H40748   3.934  10.778   3.801 -1.3800  2.6747  1.9614
 1020MOL0     H40749   4.024  10.786   3.959 -1.0137 -1.1769  0.4649
 1020MOL0     H40750   4.149  10.670   3.708 -1.2864 -1.9499  1.2051
 1020MOL0     H40751   4.233  10.703   3.855 -0.3051  1.7432  1.3662
 1020MOL0     H40752   4.141  10.921   3.673 -1.3271 -2.4190  0.6449
 1020MOL0     H40753   4.223  10.957   3.829  3.4865  0.8749 -1.1964
 1020MOL0     H40754   4.357  10.834   3.599 -0.2287 -0.6444  0.0472
 1020MOL0     H40755   4.407  10.797   3.760 -1.0333 -0.7505  0.1377
 1020MOL0     H40756   4.526  11.206   3.687  2.1682 -0.8411  3.3787
 1020MOL0     H40757   3.921  10.371   3.900  0.5633 -0.1206 -1.8031
 1020MOL0     H40758   3.640  10.197   3.847 -2.5793  0.3039  1.5527
 1020MOL0     H40759   3.786  10.184   3.957  0.8029  0.7653 -0.9442
 1020MOL0     H40760   3.625  10.204   4.026 -0.1909 -0.7131  0.4707
 1021MOL0     O40761   7.931   1.162   1.189 -0.1400 -0.2682 -0.5566
 1021MOL0     C40762   7.807   1.196   1.202 -0.2531  0.4032 -0.3348
 1021MOL0     O40763   7.741   1.284   1.121 -0.9411 -0.0022 -0.1567
 1021MOL0     C40764   7.796   1.322   1.001  0.0546  1.0847 -1.0346
 1021MOL0     C40765   7.819   1.458   0.983 -0.4545  0.5892  0.4455
 1021MOL0     C40766   7.869   1.506   0.859 -0.0127 -0.1374 -0.6413
 1021MOL0     C40767   7.899   1.417   0.759  1.2127 -0.0404  0.7722
 1021MOL0     O40768   7.953   1.444   0.636  0.0160  0.1343 -0.5038
 1021MOL0     C40769   7.983   1.574   0.599 -0.7566  0.4857 -0.3620
 1021MOL0     C40770   7.855   1.654   0.573 -0.3705 -0.3393 -0.0892
 1021MOL0     C40771   7.779   1.591   0.452 -0.8539  1.1011  0.6078
 1021MOL0     C40772   7.634   1.641   0.443 -0.2053  0.1221  0.4188
 1021MOL0     C40773   7.611   1.790   0.423 -1.1705  0.2928 -0.1542
 1021MOL0     C40774   7.667   1.837   0.283 -0.1053  0.6673 -0.8736
 1021MOL0     C40775   7.638   1.989   0.254  0.1866 -0.5546  0.9489
 1021MOL0     C40776   7.665   2.005   0.109  0.1198 -0.5648  0.2035
 1021MOL0     N40777   7.798   2.003   0.069 -0.4871 -0.0686  0.1521
 1021MOL0     C40778   7.872   2.117   0.041 -0.4335 -0.2315 -0.1234
 1021MOL0     C40779   7.995   2.066  -0.003  0.4398  0.3403  0.6550
 1021MOL0     C40780   8.116   2.143  -0.053  0.5929  0.9491 -0.3468
 1021MOL0     C40781   8.183   2.215   0.064  0.1149  0.0367  0.2306
 1021MOL0     C40782   8.340   2.220   0.032  0.4199 -0.0838  0.5017
 1021MOL0     C40783   8.394   2.361   0.070 -0.2588  0.0166  0.0255
 1021MOL0     O40784   8.533   2.358   0.091 -0.3009  0.2876 -0.2729
 1021MOL0     C40785   8.593   2.444   0.168 -0.0277  0.1317  0.3950
 1021MOL0     C40786   8.544   2.568   0.211  0.2676 -0.1501  0.3289
 1021MOL0     C40787   8.611   2.662   0.281  0.7651 -0.6049  0.0879
 1021MOL0     C40788   8.539   2.790   0.309 -0.1177  0.1983  0.0233
 1021MOL0     C40789   8.743   2.634   0.323 -0.3123 -0.5106 -0.0684
 1021MOL0     C40790   8.836   2.733   0.396  0.8446  0.3707 -0.1623
 1021MOL0     O40791   8.969   2.726   0.368 -0.1532 -0.0203 -0.7303
 1021MOL0     C40792   9.034   2.847   0.356 -0.4196 -0.8802 -1.3201
 1021MOL0     C40793   9.020   2.922   0.244 -0.8807 -0.6234 -0.4643
 1021MOL0     C40794   9.092   3.042   0.227 -0.9482  0.0992 -0.9092
 1021MOL0     C40795   9.181   3.089   0.324  0.3064  0.7721  0.1712
 1021MOL0     O40796   9.262   3.201   0.318  0.0312 -0.0370  0.5262
 1021MOL0     C40797   9.249   3.299   0.209  0.0219  1.0395 -0.7816
 1021MOL0     C40798   9.356   3.399   0.198 -0.1804  0.0139 -0.5149
 1021MOL0     C40799   9.346   3.500   0.320  0.3743  0.3318 -0.2883
 1021MOL0     C40800   9.408   3.446   0.454  0.8144 -0.4658  0.3329
 1021MOL0     C40801   9.346   3.519   0.572  0.2869 -0.2029 -0.3914
 1021MOL0     C40802   9.364   3.437   0.702 -0.2402 -0.2855 -1.0678
 1021MOL0     C40803   9.349   3.525   0.831  0.4914  0.1556  0.2719
 1021MOL0     C40804   9.212   3.588   0.827 -0.1242 -0.9831  0.7332
 1021MOL0    Cl40805   9.085   3.468   0.834 -0.2246  0.1855  0.1727
 1021MOL0     C40806   9.200   3.004   0.441  0.9041 -0.1863 -0.3796
 1021MOL0     C40807   9.134   2.883   0.452 -0.3206  0.1394  0.0706
 1021MOL0     O40808   8.786   2.814   0.472  0.5254 -0.7228 -0.1137
 1021MOL0     C40809   8.794   2.504   0.293 -0.0859  0.4892  0.4749
 1021MOL0     C40810   8.717   2.409   0.220 -0.4569 -0.3107  0.2560
 1021MOL0     N40811   7.990   1.929   0.003 -0.4915 -0.0131 -0.4339
 1021MOL0     N40812   7.878   1.891   0.059  0.9927 -0.4544 -0.7014
 1021MOL0     C40813   7.881   1.276   0.779  0.5417 -0.6759  0.7099
 1021MOL0     C40814   7.834   1.234   0.898 -0.2827 -0.0035  0.0979
 1021MOL0     C40815   7.716   1.128   1.302 -0.1966  0.6784 -0.2301
 1021MOL0     C40816   7.590   1.195   1.315  0.8687  1.0229 -0.8367
 1021MOL0     C40817   7.501   1.153   1.417 -0.0240  0.5135  0.2805
 1021MOL0     C40818   7.520   1.039   1.492 -0.2720 -0.1289 -0.2820
 1021MOL0     O40819   7.448   0.991   1.597  0.7566 -0.8983 -0.1105
 1021MOL0     C40820   7.330   1.068   1.623  0.0303  0.9220 -0.6020
 1021MOL0     C40821   7.345   1.191   1.713  0.0906  0.0894  0.3866
 1021MOL0     C40822   7.392   1.155   1.855  0.1077  1.7110 -0.3459
 1021MOL0     C40823   7.480   1.252   1.922  0.3668  0.1963  0.1137
 1021MOL0     C40824   7.393   1.367   1.956  0.6398 -0.8556 -0.5953
 1021MOL0     C40825   7.319   1.457   2.006 -0.5004 -0.1023  0.5021
 1021MOL0     C40826   7.637   0.964   1.459  0.2247 -0.0390  0.4083
 1021MOL0     C40827   7.738   1.001   1.372 -0.4068  0.4783 -0.2406
 1021MOL0     C40828   7.865   0.928   1.385 -0.3995 -0.1389 -0.1700
 1021MOL0     H40829   7.809   1.522   1.070 -2.5461 -1.0277  1.4775
 1021MOL0     H40830   7.882   1.614   0.856 -3.6063  0.5860  2.1816
 1021MOL0     H40831   8.037   1.584   0.505  0.7646  0.7830  0.5031
 1021MOL0     H40832   8.044   1.612   0.681  0.5176 -0.8620 -0.6524
 1021MOL0     H40833   7.787   1.653   0.659 -0.1366  1.2206  0.1429
 1021MOL0     H40834   7.887   1.757   0.553 -0.3253 -0.4866 -0.7816
 1021MOL0     H40835   7.837   1.624   0.365  2.3282  0.4701  2.3392
 1021MOL0     H40836   7.783   1.482   0.457  0.6353  0.9689 -1.8406
 1021MOL0     H40837   7.590   1.584   0.360  1.0201 -1.8048  1.0209
 1021MOL0     H40838   7.571   1.615   0.529  1.9184 -0.4580  1.8974
 1021MOL0     H40839   7.660   1.844   0.505  0.6223 -1.3926 -0.0461
 1021MOL0     H40840   7.503   1.806   0.430 -1.0722  0.2968  2.3950
 1021MOL0     H40841   7.771   1.811   0.260 -0.3212  1.3218 -2.8811
 1021MOL0     H40842   7.613   1.775   0.211  1.6895 -0.9574 -0.9051
 1021MOL0     H40843   7.695   2.055   0.319 -0.0836  0.2767  0.3656
 1021MOL0     H40844   7.531   2.012   0.260  0.1887 -0.9493  3.2033
 1021MOL0     H40845   7.607   1.925   0.061  1.9628  0.1317 -3.5190
 1021MOL0     H40846   7.615   2.095   0.073 -1.3934 -0.9138  1.3042
 1021MOL0     H40847   7.843   2.221   0.040 -0.2483 -0.1660 -1.8988
 1021MOL0     H40848   8.081   2.219  -0.124 -1.4805 -0.8210 -1.3499
 1021MOL0     H40849   8.192   2.077  -0.095 -1.3565 -0.6549 -1.5671
 1021MOL0     H40850   8.146   2.314   0.091  3.2734  1.2893  0.4591
 1021MOL0     H40851   8.173   2.149   0.150 -1.0996 -2.5294 -1.7322
 1021MOL0     H40852   8.377   2.144   0.101  2.7704 -0.6284 -1.2324
 1021MOL0     H40853   8.375   2.195  -0.069  0.9095 -0.7848  0.8356
 1021MOL0     H40854   8.380   2.434  -0.010  3.3749  1.7256  0.7545
 1021MOL0     H40855   8.348   2.394   0.164  1.7714 -0.6355  1.3158
 1021MOL0     H40856   8.441   2.596   0.190  0.4286 -1.2317 -2.3246
 1021MOL0     H40857   8.605   2.876   0.298 -1.3506  1.4502  1.7494
 1021MOL0     H40858   8.504   2.787   0.413  1.6591  0.8188  0.6709
 1021MOL0     H40859   8.451   2.798   0.244  2.3629  4.0246 -3.2992
 1021MOL0     H40860   8.955   2.891   0.162 -3.2654  0.5653  0.8600
 1021MOL0     H40861   9.067   3.104   0.141 -1.1286 -0.7679 -1.5014
 1021MOL0     H40862   9.252   3.241   0.116  1.7941 -0.1112 -0.0736
 1021MOL0     H40863   9.147   3.334   0.228  0.2429  0.0846  2.8405
 1021MOL0     H40864   9.454   3.352   0.205  0.0661 -0.0160 -3.3296
 1021MOL0     H40865   9.349   3.448   0.101 -0.2339  0.0796 -0.4783
 1021MOL0     H40866   9.244   3.539   0.328  0.8980  1.3007  3.6088
 1021MOL0     H40867   9.411   3.586   0.300 -0.0092  1.2386  2.0433
 1021MOL0     H40868   9.515   3.467   0.458  1.1217 -2.1199  2.1661
 1021MOL0     H40869   9.391   3.338   0.463  1.0803 -0.3978  1.8182
 1021MOL0     H40870   9.396   3.616   0.578 -0.9422  0.3718  1.6025
 1021MOL0     H40871   9.240   3.544   0.559  0.9993  2.4299 -1.9097
 1021MOL0     H40872   9.466   3.401   0.698  0.3758  1.3064 -0.6506
 1021MOL0     H40873   9.291   3.356   0.703 -0.5308 -0.0357  0.1301
 1021MOL0     H40874   9.418   3.609   0.823 -0.1901  0.5797 -1.7622
 1021MOL0     H40875   9.366   3.469   0.923 -2.8508 -2.1820 -0.3608
 1021MOL0     H40876   9.192   3.651   0.741 -4.5032 -2.8933  0.0786
 1021MOL0     H40877   9.194   3.653   0.913 -0.1740 -2.9494  2.2831
 1021MOL0     H40878   9.265   3.060   0.508 -0.5998  1.8143 -0.4807
 1021MOL0     H40879   9.160   2.820   0.537 -2.1655  1.3478  1.6095
 1021MOL0     H40880   8.900   2.487   0.310 -0.1350 -1.8414 -1.1885
 1021MOL0     H40881   8.764   2.316   0.188 -1.5395 -0.3127 -1.4776
 1021MOL0     H40882   7.917   1.225   0.690  0.0137  1.2452 -0.6738
 1021MOL0     H40883   7.824   1.127   0.915  0.1623 -0.1307 -0.4275
 1021MOL0     H40884   7.568   1.292   1.272 -0.9951  0.8636 -0.3106
 1021MOL0     H40885   7.413   1.216   1.428 -0.0748  0.3297  0.9701
 1021MOL0     H40886   7.276   1.095   1.532  1.0313  2.6467 -0.7233
 1021MOL0     H40887   7.263   1.010   1.687  1.6659 -0.2588  0.1094
 1021MOL0     H40888   7.249   1.243   1.711 -0.7462 -1.4264 -0.3229
 1021MOL0     H40889   7.414   1.259   1.662  1.0158 -0.7231  0.5175
 1021MOL0     H40890   7.305   1.135   1.920  1.4726 -0.4698  0.9300
 1021MOL0     H40891   7.448   1.062   1.841 -1.8232  0.6043 -1.1200
 1021MOL0     H40892   7.562   1.285   1.858 -0.3528 -4.4152 -3.7422
 1021MOL0     H40893   7.524   1.215   2.016  2.1423 -1.0724 -1.1560
 1021MOL0     H40894   7.260   1.536   2.047  1.9100  2.1102 -0.0166
 1021MOL0     H40895   7.648   0.877   1.524 -3.0228 -1.0540 -0.2030
 1021MOL0     H40896   7.883   0.858   1.302 -1.9974 -0.8532  0.0503
 1021MOL0     H40897   7.944   1.003   1.398 -0.3431 -0.5643  2.5175
 1021MOL0     H40898   7.869   0.881   1.484  1.5488  0.2870 -0.0073
 1022MOL0     O40899   4.039   2.790   4.537 -0.5960  0.1113  0.5545
 1022MOL0     C40900   4.113   2.728   4.460  0.0035 -0.6843 -0.0112
 1022MOL0     O40901   4.167   2.770   4.346  0.5463 -0.9963  0.0969
 1022MOL0     C40902   4.115   2.890   4.297 -0.1575 -0.0013  0.2714
 1022MOL0     C40903   3.988   2.888   4.231 -0.7787  0.2864 -0.7307
 1022MOL0     C40904   3.923   3.004   4.205 -0.1757  1.0767 -0.4293
 1022MOL0     C40905   3.970   3.133   4.242  1.3473  0.2443  0.1175
 1022MOL0     O40906   3.894   3.244   4.204  0.0293  0.2515  0.4093
 1022MOL0     C40907   3.773   3.271   4.274 -0.4300  0.0678  0.0940
 1022MOL0     C40908   3.783   3.411   4.337 -0.1195  0.1793  0.8694
 1022MOL0     C40909   3.667   3.456   4.436 -0.2461 -0.2004  0.4053
 1022MOL0     C40910   3.587   3.339   4.507  0.8539  0.0384 -0.3503
 1022MOL0     C40911   3.456   3.394   4.568 -1.4881 -0.3633  0.7821
 1022MOL0     C40912   3.477   3.479   4.694 -0.8173 -0.7990  0.3248
 1022MOL0     C40913   3.341   3.560   4.719 -0.4747 -0.4083  0.3962
 1022MOL0     C40914   3.340   3.634   4.855 -0.8783  0.6149  0.3791
 1022MOL0     N40915   3.342   3.528   4.965 -0.7008 -0.0328  0.1635
 1022MOL0     C40916   3.263   3.414   4.978 -0.5521  0.2951  0.2481
 1022MOL0     C40917   3.328   3.330   5.072 -0.4301  0.6007 -0.8713
 1022MOL0     C40918   3.271   3.210   5.116  0.1300  0.6320  0.6060
 1022MOL0     C40919   3.371   3.120   5.190 -0.4559 -0.5724 -1.0020
 1022MOL0     C40920   3.288   3.004   5.241 -0.8776 -0.6628 -0.2391
 1022MOL0     C40921   3.348   2.887   5.323  1.0689  0.0004 -1.1489
 1022MOL0     O40922   3.437   2.824   5.242 -0.2299  0.1173 -0.2120
 1022MOL0     C40923   3.515   2.726   5.287  0.3252  0.1788  0.6515
 1022MOL0     C40924   3.611   2.681   5.201 -0.0311  0.4597  0.0137
 1022MOL0     C40925   3.698   2.571   5.229 -1.2115 -0.6264  0.0345
 1022MOL0     C40926   3.772   2.519   5.115  0.3780 -0.3860 -0.3560
 1022MOL0     C40927   3.687   2.513   5.361 -0.1844  0.2732 -0.5497
 1022MOL0     C40928   3.767   2.407   5.409  0.1988 -0.5125  0.3245
 1022MOL0     O40929   3.696   2.311   5.480 -0.0558 -0.2904 -0.1278
 1022MOL0     C40930   3.786   2.238   5.546 -0.8303  0.2526  0.2527
 1022MOL0     C40931   3.792   2.228   5.684  0.6820  0.8366 -0.2967
 1022MOL0     C40932   3.893   2.159   5.755  0.0551  0.1134 -0.7351
 1022MOL0     C40933   3.970   2.073   5.693 -0.6692  0.4649 -0.2926
 1022MOL0     O40934   4.058   1.995   5.759 -0.2155  0.4688 -0.2344
 1022MOL0     C40935   4.137   2.061   5.868  0.5921  0.4333 -0.1136
 1022MOL0     C40936   4.197   1.949   5.947 -0.0168 -0.0414 -0.3266
 1022MOL0     C40937   4.274   1.866   5.844 -0.2626  0.3911  0.4705
 1022MOL0     C40938   4.398   1.790   5.900 -0.0313 -0.3026 -0.0906
 1022MOL0     C40939   4.502   1.736   5.800  0.0771  0.4000 -0.7863
 1022MOL0     C40940   4.472   1.589   5.772 -0.1304  0.3635 -1.0032
 1022MOL0     C40941   4.570   1.505   5.836 -0.4029  0.7356  0.3054
 1022MOL0     C40942   4.571   1.360   5.781 -0.0443 -0.0479 -0.7706
 1022MOL0    Cl40943   4.680   1.255   5.883  0.1130  0.0955 -0.2596
 1022MOL0     C40944   3.959   2.064   5.552 -0.1819 -0.1520  0.4655
 1022MOL0     C40945   3.874   2.145   5.479  0.7406  0.1019 -0.5451
 1022MOL0     O40946   3.893   2.409   5.391  0.2379 -0.6477 -0.5187
 1022MOL0     C40947   3.596   2.572   5.458 -0.5610 -0.2831  0.4015
 1022MOL0     C40948   3.509   2.676   5.413 -0.2360  0.0821  0.2665
 1022MOL0     N40949   3.444   3.402   5.113  0.2476  0.2555 -0.8481
 1022MOL0     N40950   3.451   3.512   5.048 -0.0198 -0.8185  1.1228
 1022MOL0     C40951   4.086   3.140   4.319 -0.2011  0.5684 -0.2396
 1022MOL0     C40952   4.163   3.012   4.344 -0.1668 -0.6188  0.8342
 1022MOL0     C40953   4.145   2.593   4.511 -0.9254 -0.1605  0.3274
 1022MOL0     C40954   4.040   2.505   4.543 -0.1911  0.2364  0.0827
 1022MOL0     C40955   4.067   2.374   4.599  0.0942  0.8141 -0.3103
 1022MOL0     C40956   4.201   2.329   4.604 -0.0440  0.6398  0.7348
 1022MOL0     O40957   4.256   2.207   4.644  0.4288 -0.2600 -0.5405
 1022MOL0     C40958   4.168   2.118   4.709  0.5139  0.3447 -0.1138
 1022MOL0     C40959   4.143   2.163   4.852  0.0363  0.0000  0.8201
 1022MOL0     C40960   4.032   2.088   4.926 -0.4520  0.9744  0.6919
 1022MOL0     C40961   4.031   2.116   5.072  0.3705  0.5886 -0.4158
 1022MOL0     C40962   3.963   2.001   5.130  0.1835  0.5450 -1.0789
 1022MOL0     C40963   3.916   1.913   5.204  0.7256  0.3765 -0.7839
 1022MOL0     C40964   4.299   2.418   4.565 -0.2457  0.5027  0.1548
 1022MOL0     C40965   4.279   2.548   4.523 -0.5944 -0.1504  1.5684
 1022MOL0     C40966   4.398   2.629   4.482 -0.6555  0.3496  0.2921
 1022MOL0     H40967   3.946   2.791   4.204 -1.5597  0.3978  0.0355
 1022MOL0     H40968   3.831   2.992   4.149  0.9891  1.4832 -2.5470
 1022MOL0     H40969   3.748   3.203   4.356 -1.0106 -0.1477 -0.2544
 1022MOL0     H40970   3.689   3.263   4.204 -3.2414  0.0478  3.2349
 1022MOL0     H40971   3.878   3.415   4.391  0.3173 -3.8451  0.6989
 1022MOL0     H40972   3.776   3.482   4.255  1.3689 -0.2031  0.3918
 1022MOL0     H40973   3.698   3.528   4.512 -1.7401 -2.1130  3.0007
 1022MOL0     H40974   3.592   3.515   4.383 -0.9222  1.8272  3.3785
 1022MOL0     H40975   3.565   3.252   4.445  1.2717 -0.9840  0.8951
 1022MOL0     H40976   3.653   3.313   4.591  2.0805 -0.8654 -1.5585
 1022MOL0     H40977   3.393   3.310   4.597 -1.6657 -0.2095  0.8456
 1022MOL0     H40978   3.400   3.451   4.493  0.7679  1.9400  0.6613
 1022MOL0     H40979   3.528   3.425   4.774  2.9300  1.8489 -0.0528
 1022MOL0     H40980   3.554   3.556   4.681  0.9401 -2.5553 -0.0452
 1022MOL0     H40981   3.254   3.495   4.706  0.0197 -0.9110 -0.5043
 1022MOL0     H40982   3.333   3.642   4.647  2.1341 -1.5336 -1.3237
 1022MOL0     H40983   3.434   3.689   4.867 -0.1058 -0.0804 -1.9794
 1022MOL0     H40984   3.265   3.712   4.868 -2.9772 -1.4859  1.8154
 1022MOL0     H40985   3.178   3.396   4.914  0.1180 -2.1535 -0.0658
 1022MOL0     H40986   3.236   3.152   5.030 -0.8036 -0.3828  1.6360
 1022MOL0     H40987   3.187   3.240   5.179 -0.8789  0.5084 -0.6427
 1022MOL0     H40988   3.455   3.094   5.125  0.2689 -1.1074  0.1032
 1022MOL0     H40989   3.417   3.169   5.277  2.2867 -3.1036 -0.8584
 1022MOL0     H40990   3.216   3.046   5.311 -0.8050 -1.7655  0.5310
 1022MOL0     H40991   3.239   2.953   5.158 -1.4437 -0.1082 -0.2558
 1022MOL0     H40992   3.396   2.925   5.413  0.4398  2.1807 -1.6779
 1022MOL0     H40993   3.269   2.817   5.351  1.1668  0.1982 -0.3687
 1022MOL0     H40994   3.625   2.731   5.106 -0.3987  0.6101  0.0329
 1022MOL0     H40995   3.732   2.564   5.023  2.7790  1.7276 -0.4581
 1022MOL0     H40996   3.758   2.411   5.121  2.1646 -0.5533  2.0609
 1022MOL0     H40997   3.879   2.541   5.113 -0.0373  1.8857 -1.4872
 1022MOL0     H40998   3.714   2.279   5.740 -0.0099 -0.6056  0.1070
 1022MOL0     H40999   3.896   2.175   5.862  1.1493 -2.1426 -0.3808
 1022MOL0     H41000   4.220   2.119   5.828  2.1394 -0.9466  0.9473
 1022MOL0     H41001   4.074   2.116   5.938  1.2899 -2.0118  2.6476
 1022MOL0     H41002   4.255   2.006   6.019 -0.3551  3.8778 -2.8432
 1022MOL0     H41003   4.124   1.890   6.004 -0.3521  1.7237  1.1661
 1022MOL0     H41004   4.312   1.936   5.769 -0.2124  1.4620  1.4561
 1022MOL0     H41005   4.204   1.802   5.792 -0.6903  1.9923 -1.0102
 1022MOL0     H41006   4.370   1.705   5.963  0.9629  0.5310  1.5793
 1022MOL0     H41007   4.450   1.862   5.964 -2.3794 -1.3599  3.2861
 1022MOL0     H41008   4.506   1.788   5.703 -1.6474 -1.4893 -1.9433
 1022MOL0     H41009   4.593   1.760   5.855  0.3301  1.9212 -1.7945
 1022MOL0     H41010   4.494   1.582   5.665  4.0981 -0.3908 -0.2693
 1022MOL0     H41011   4.367   1.568   5.793 -0.5145  3.5895  1.0598
 1022MOL0     H41012   4.554   1.498   5.944 -1.1806  2.7251  0.3633
 1022MOL0     H41013   4.670   1.546   5.816 -0.1969 -0.0264 -0.2379
 1022MOL0     H41014   4.610   1.371   5.679  1.5689 -0.5969 -0.2490
 1022MOL0     H41015   4.473   1.314   5.765  0.0893 -0.6535  0.0430
 1022MOL0     H41016   4.024   1.987   5.512  1.8995  0.5920  2.2304
 1022MOL0     H41017   3.866   2.130   5.372 -3.1590 -1.6656 -0.1799
 1022MOL0     H41018   3.578   2.529   5.556 -2.5266 -1.6052 -0.4769
 1022MOL0     H41019   3.446   2.712   5.494  1.5249  2.2431  0.7683
 1022MOL0     H41020   4.137   3.233   4.344  0.9361 -0.9924  4.1286
 1022MOL0     H41021   4.259   3.020   4.395 -0.6177  0.8340  1.5122
 1022MOL0     H41022   3.937   2.539   4.537 -0.3286  0.6138  3.1147
 1022MOL0     H41023   3.980   2.318   4.633  0.7533  0.3803  0.6749
 1022MOL0     H41024   4.074   2.106   4.653  2.0118 -2.5510 -2.3025
 1022MOL0     H41025   4.205   2.016   4.697 -2.4580 -0.6963 -1.4811
 1022MOL0     H41026   4.121   2.270   4.853 -0.6148 -0.1212  2.3828
 1022MOL0     H41027   4.238   2.157   4.905  1.0301  1.1660 -0.7492
 1022MOL0     H41028   3.935   2.116   4.883 -0.8454 -1.6406 -0.2720
 1022MOL0     H41029   4.044   1.981   4.907  0.5661  1.3859 -1.1647
 1022MOL0     H41030   3.963   2.200   5.090 -0.7514  0.0641 -1.9602
 1022MOL0     H41031   4.129   2.126   5.120  0.3810 -3.2974  0.7226
 1022MOL0     H41032   3.866   1.846   5.270 -2.1943  0.0792 -3.1115
 1022MOL0     H41033   4.398   2.383   4.591 -0.4659 -0.1175  0.1756
 1022MOL0     H41034   4.499   2.591   4.503  0.0617  2.1012  0.1795
 1022MOL0     H41035   4.410   2.658   4.377 -1.7976 -1.3950 -0.3573
 1022MOL0     H41036   4.389   2.727   4.529 -0.1442  0.7892 -0.4900
 1023MOL0     O41037  10.950   6.209   9.901  0.4919  0.0620 -0.0632
 1023MOL0     C41038  10.926   6.145  10.004 -0.5588 -0.0884  0.2740
 1023MOL0     O41039  10.877   6.200  10.122 -0.2184 -0.3864 -0.7503
 1023MOL0     C41040  10.922   6.333  10.156  0.4560 -0.8845 -0.3975
 1023MOL0     C41041  10.829   6.408  10.242  0.3942 -0.6423  0.4545
 1023MOL0     C41042  10.869   6.535  10.291  0.2585  0.2358  1.0878
 1023MOL0     C41043  10.997   6.585  10.257 -0.3306 -0.2141 -0.7538
 1023MOL0     O41044  11.040   6.711  10.296  0.1840  0.4315 -0.1824
 1023MOL0     C41045  10.969   6.766  10.399  0.2857  0.3204  0.1525
 1023MOL0     C41046  11.023   6.894  10.454 -0.3613 -0.1313 -0.3243
 1023MOL0     C41047  11.157   6.891  10.518  0.1670  0.3924  0.3976
 1023MOL0     C41048  11.232   7.024  10.522 -0.5719 -0.9932  0.1685
 1023MOL0     C41049  11.146   7.137  10.580  0.3901  0.4712 -0.0185
 1023MOL0     C41050  11.217   7.276  10.597  0.1052  0.8253 -0.0427
 1023MOL0     C41051  11.282   7.328  10.465 -0.3960 -0.0252  0.0641
 1023MOL0     C41052  11.195   7.369  10.350 -0.2848 -0.1543  0.1061
 1023MOL0     N41053  11.262   7.474  10.267  0.2421 -0.0343  0.0974
 1023MOL0     C41054  11.324   7.586  10.309  0.5229 -0.6331  0.9004
 1023MOL0     C41055  11.356   7.662  10.200  0.8355  0.6075 -0.1534
 1023MOL0     C41056  11.436   7.786  10.192 -0.4301 -0.1983  0.3061
 1023MOL0     C41057  11.580   7.750  10.205  0.3343 -0.8816  0.6156
 1023MOL0     C41058  11.667   7.865  10.241  0.9853  0.5597 -0.3836
 1023MOL0     C41059  11.624   7.957  10.343  0.0948 -0.6502  0.5986
 1023MOL0     O41060  11.611   7.891  10.473 -0.2628  0.8452 -0.0707
 1023MOL0     C41061  11.616   7.967  10.584  0.7764  0.1940  1.1014
 1023MOL0     C41062  11.498   8.023  10.631  0.1463 -0.2315  0.7550
 1023MOL0     C41063  11.491   8.091  10.759  0.4321  0.0809  0.1039
 1023MOL0     C41064  11.354   8.142  10.806 -0.5064 -0.1648  0.6254
 1023MOL0     C41065  11.601   8.095  10.846  0.5365 -0.3201  0.6633
 1023MOL0     C41066  11.591   8.146  10.985  0.4118 -0.3447 -0.7553
 1023MOL0     O41067  11.683   8.089  11.068  0.0526 -0.1492  0.1349
 1023MOL0     C41068  11.691   8.125  11.200 -0.7977  0.5501  0.1668
 1023MOL0     C41069  11.691   8.255  11.247 -0.0776  0.3269 -1.0003
 1023MOL0     C41070  11.692   8.266  11.389  0.2967 -0.5761  1.2624
 1023MOL0     C41071  11.683   8.157  11.472  0.1281 -0.0909  0.2071
 1023MOL0     O41072  11.691   8.165  11.615  0.7064 -0.6882 -0.5387
 1023MOL0     C41073  11.689   8.296  11.679 -0.3180 -0.9351  0.1876
 1023MOL0     C41074  11.672   8.296  11.833 -0.0062 -0.0685 -0.7998
 1023MOL0     C41075  11.790   8.212  11.894 -0.5452 -0.4116 -0.2170
 1023MOL0     C41076  11.762   8.158  12.039  0.9497 -0.5004 -0.1530
 1023MOL0     C41077  11.888   8.114  12.110 -0.6475  0.1802  0.1598
 1023MOL0     C41078  11.850   8.119  12.258 -0.2012 -0.4046 -0.1183
 1023MOL0     C41079  11.736   8.028  12.301  0.1494 -0.7420 -0.7185
 1023MOL0     C41080  11.711   8.021  12.446 -0.0915  0.7025  0.0925
 1023MOL0    Cl41081  11.845   7.938  12.529  0.2069 -0.0045  0.0864
 1023MOL0     C41082  11.655   8.030  11.413  0.0644 -0.2137  0.1469
 1023MOL0     C41083  11.678   8.009  11.281 -0.7183 -1.0287  0.2556
 1023MOL0     O41084  11.523   8.241  11.016  0.3904  0.8904  0.8231
 1023MOL0     C41085  11.722   8.035  10.803  0.1731 -0.0519  1.0140
 1023MOL0     C41086  11.729   7.977  10.671 -0.7072  0.2497 -0.0460
 1023MOL0     N41087  11.325   7.583  10.090  0.6288 -0.3152 -0.2979
 1023MOL0     N41088  11.272   7.470  10.132 -0.8397 -0.9624  0.3715
 1023MOL0     C41089  11.086   6.508  10.172  0.5047  0.1503  0.1133
 1023MOL0     C41090  11.042   6.386  10.123 -0.9063 -0.1070  0.8449
 1023MOL0     C41091  10.930   6.004   9.998 -0.1987 -0.1990 -0.4894
 1023MOL0     C41092  10.823   5.930  10.027  0.2153  0.3850  0.7002
 1023MOL0     C41093  10.839   5.788  10.028 -0.3427 -1.1000  0.5954
 1023MOL0     C41094  10.953   5.725   9.993 -0.0546  1.5417 -0.1798
 1023MOL0     O41095  10.958   5.583  10.000  1.2856 -0.3828  0.1581
 1023MOL0     C41096  11.086   5.516   9.998 -0.3550  0.0382 -1.1037
 1023MOL0     C41097  11.137   5.478  10.141  0.5001 -0.9905  0.0306
 1023MOL0     C41098  11.274   5.415  10.130  0.1058 -0.4632  1.1651
 1023MOL0     C41099  11.388   5.515  10.129  0.1089 -1.2647  0.2823
 1023MOL0     C41100  11.526   5.471  10.098 -0.1372 -0.4392  1.0033
 1023MOL0     C41101  11.627   5.422  10.047 -0.7249  0.7059  0.2245
 1023MOL0     C41102  11.067   5.812   9.968  0.2658 -0.1794 -0.3035
 1023MOL0     C41103  11.058   5.947   9.972 -0.6056  0.3093 -0.8805
 1023MOL0     C41104  11.199   6.016   9.970 -0.2832 -0.6357 -0.5867
 1023MOL0     H41105  10.742   6.356  10.282  2.3153 -3.2906  1.4379
 1023MOL0     H41106  10.799   6.579  10.361 -2.9141 -3.2131  0.4097
 1023MOL0     H41107  10.958   6.692  10.479 -1.9257  0.0005 -0.3947
 1023MOL0     H41108  10.866   6.783  10.366 -0.5624 -3.5846  0.3299
 1023MOL0     H41109  11.036   6.962  10.369  4.9059  2.6033  2.1456
 1023MOL0     H41110  10.954   6.934  10.528  1.6180  1.5692  0.7383
 1023MOL0     H41111  11.140   6.860  10.621 -1.2629 -2.1343 -0.5132
 1023MOL0     H41112  11.209   6.815  10.460 -4.6980 -1.1345 -2.5298
 1023MOL0     H41113  11.313   7.017  10.595 -0.8522  0.8610  0.7248
 1023MOL0     H41114  11.278   7.043  10.425 -3.3623 -0.8747 -1.2298
 1023MOL0     H41115  11.105   7.113  10.678 -0.2810  0.5403 -0.2747
 1023MOL0     H41116  11.060   7.151  10.513  0.8479 -1.9700 -1.2322
 1023MOL0     H41117  11.142   7.344  10.638 -0.6801 -1.0240  1.7024
 1023MOL0     H41118  11.292   7.256  10.675 -0.6681 -0.4353  0.3895
 1023MOL0     H41119  11.358   7.259  10.429 -0.0336  1.0159 -1.2568
 1023MOL0     H41120  11.341   7.415  10.495 -0.4221  0.7372 -1.9283
 1023MOL0     H41121  11.177   7.283  10.285  0.3505  1.6269 -2.5997
 1023MOL0     H41122  11.102   7.407  10.394  0.6718 -0.7193  2.7808
 1023MOL0     H41123  11.354   7.594  10.413  3.1238 -4.1744  0.6064
 1023MOL0     H41124  11.395   7.849  10.272 -0.7508 -0.6697  0.5184
 1023MOL0     H41125  11.414   7.839  10.099  0.9634  2.1069  1.2085
 1023MOL0     H41126  11.592   7.670  10.278 -0.2470  0.2652  2.0170
 1023MOL0     H41127  11.617   7.712  10.109  2.6009  1.6559  0.3542
 1023MOL0     H41128  11.764   7.835  10.282 -0.5098  0.6947  3.7623
 1023MOL0     H41129  11.688   7.917  10.147  0.5566  1.0784 -0.1916
 1023MOL0     H41130  11.701   8.035  10.348  0.4583 -0.7507 -2.0645
 1023MOL0     H41131  11.534   8.016  10.326  1.2111  0.6286 -1.2158
 1023MOL0     H41132  11.399   8.009  10.588  0.0366  0.5484  0.7271
 1023MOL0     H41133  11.334   8.121  10.911 -0.2645  2.0823  1.1743
 1023MOL0     H41134  11.275   8.099  10.743 -2.5633 -1.3345  3.7825
 1023MOL0     H41135  11.346   8.250  10.787 -4.2180 -0.0867  1.8415
 1023MOL0     H41136  11.686   8.347  11.190 -0.7284  0.3553 -0.9126
 1023MOL0     H41137  11.685   8.369  11.422 -0.1391  0.6943 -2.3765
 1023MOL0     H41138  11.782   8.347  11.652  0.9147 -2.5197  1.2688
 1023MOL0     H41139  11.602   8.355  11.648 -1.5998 -1.8775  1.8206
 1023MOL0     H41140  11.675   8.398  11.873  0.5161  0.1894 -1.4757
 1023MOL0     H41141  11.572   8.260  11.857 -0.8987  2.8508  0.3235
 1023MOL0     H41142  11.872   8.283  11.896 -1.8584  1.1629 -0.5769
 1023MOL0     H41143  11.824   8.126  11.835 -1.1485  0.6971 -2.2499
 1023MOL0     H41144  11.689   8.076  12.027 -0.3213  0.8136 -1.9383
 1023MOL0     H41145  11.710   8.241  12.088 -1.2183  0.6879 -4.0339
 1023MOL0     H41146  11.917   8.012  12.084 -1.4587 -0.3392  1.1552
 1023MOL0     H41147  11.972   8.180  12.090  0.7150  0.8558  6.0982
 1023MOL0     H41148  11.827   8.219  12.294  1.1673 -0.5642  1.2822
 1023MOL0     H41149  11.946   8.087  12.301 -1.0476 -1.6732  0.9269
 1023MOL0     H41150  11.752   7.927  12.260 -0.7764 -0.9048 -0.6988
 1023MOL0     H41151  11.646   8.076  12.263  0.8799  1.4869  0.2043
 1023MOL0     H41152  11.619   7.964  12.464  0.7803 -1.1765 -1.0356
 1023MOL0     H41153  11.680   8.123  12.472 -0.5986  0.6122 -0.1283
 1023MOL0     H41154  11.650   7.942  11.476  1.4250 -0.5833 -0.2156
 1023MOL0     H41155  11.682   7.909  11.239  0.8766  0.0454 -2.3585
 1023MOL0     H41156  11.808   8.038  10.869  1.3478  1.6396 -0.4748
 1023MOL0     H41157  11.826   7.935  10.645  0.3626 -1.4323  5.4654
 1023MOL0     H41158  11.185   6.542  10.146  0.1110  0.3613 -1.2292
 1023MOL0     H41159  11.109   6.325  10.064  0.3407 -0.2833  2.3589
 1023MOL0     H41160  10.733   5.981  10.058 -0.9325 -2.1288  1.7720
 1023MOL0     H41161  10.755   5.731  10.067 -0.4800  0.4923  2.8382
 1023MOL0     H41162  11.070   5.415   9.961 -2.7925 -0.8068  1.8148
 1023MOL0     H41163  11.168   5.563   9.943  0.1458  1.2642  0.5793
 1023MOL0     H41164  11.073   5.397  10.176  0.4927 -1.6256 -1.3841
 1023MOL0     H41165  11.148   5.563  10.210  0.2805 -1.5967  0.8278
 1023MOL0     H41166  11.277   5.365  10.228  0.9681  0.8411  1.8341
 1023MOL0     H41167  11.271   5.343  10.048 -2.5814  0.8363  0.0257
 1023MOL0     H41168  11.387   5.567  10.225 -1.1918 -0.5100 -0.1066
 1023MOL0     H41169  11.365   5.592  10.054  3.0186 -0.0298  0.5104
 1023MOL0     H41170  11.713   5.380   9.998  1.0392  3.5396  0.6151
 1023MOL0     H41171  11.161   5.760   9.955  1.5999  1.7209  1.1873
 1023MOL0     H41172  11.269   5.993  10.051  0.4655  3.1825  0.0588
 1023MOL0     H41173  11.250   5.981   9.880  0.2022 -0.7298 -0.2813
 1023MOL0     H41174  11.187   6.125   9.971 -2.5506 -0.8294  0.8742
 1024MOL0     O41175  11.282   3.136   8.685 -0.1275  0.4326 -1.0344
 1024MOL0     C41176  11.259   3.236   8.757 -0.0477  0.0881  0.1949
 1024MOL0     O41177  11.341   3.275   8.858 -0.5764 -0.2721 -0.8872
 1024MOL0     C41178  11.456   3.209   8.883  0.5939  0.7905 -0.2819
 1024MOL0     C41179  11.569   3.260   8.831 -0.1801 -0.3404 -0.1513
 1024MOL0     C41180  11.687   3.197   8.845  0.3741 -0.6003 -0.3858
 1024MOL0     C41181  11.693   3.086   8.931  0.1765 -0.8276  0.7653
 1024MOL0     O41182  11.816   3.042   8.964 -0.3126 -0.3969 -0.2880
 1024MOL0     C41183  11.834   3.021   9.104 -0.7546 -0.1868 -0.4334
 1024MOL0     C41184  11.974   2.978   9.138 -0.1288 -0.2878 -0.6226
 1024MOL0     C41185  12.088   3.065   9.078  0.6818 -0.5832 -0.1536
 1024MOL0     C41186  12.208   3.062   9.167 -0.0089 -0.0271 -0.1422
 1024MOL0     C41187  12.326   3.134   9.083 -0.5495 -0.5779 -0.3216
 1024MOL0     C41188  12.456   3.165   9.163 -0.4887  0.2581  0.0097
 1024MOL0     C41189  12.549   3.236   9.064  0.3706 -0.6647 -0.7242
 1024MOL0     C41190  12.686   3.274   9.123  0.3257 -0.3913  0.4802
 1024MOL0     N41191  12.688   3.396   9.206 -0.0749  0.1070 -0.3691
 1024MOL0     C41192  12.634   3.401   9.329 -0.0063  0.2402  0.2289
 1024MOL0     C41193  12.655   3.528   9.359  0.4774  0.3048  0.9719
 1024MOL0     C41194  12.591   3.567   9.487 -0.9327  0.7713 -0.4890
 1024MOL0     C41195  12.453   3.616   9.463  0.2839 -0.1171 -0.1060
 1024MOL0     C41196  12.403   3.666   9.596  0.9518 -0.7589  0.8495
 1024MOL0     C41197  12.454   3.802   9.631  0.6377 -0.1783 -0.3973
 1024MOL0     O41198  12.473   3.892   9.522  0.6324 -0.2447  0.2956
 1024MOL0     C41199  12.507   4.019   9.552  0.0543  0.2835  1.2802
 1024MOL0     C41200  12.497   4.086   9.672  0.1440 -0.4228 -0.4400
 1024MOL0     C41201  12.517   4.229   9.698 -0.2112  0.3057 -0.1796
 1024MOL0     C41202  12.515   4.278   9.839 -0.1356 -0.3033  0.5938
 1024MOL0     C41203  12.562   4.306   9.586  0.3977  0.6872 -0.7191
 1024MOL0     C41204  12.578   4.450   9.582  0.6949  0.3702  0.4661
 1024MOL0     O41205  12.600   4.505   9.460  0.8709  0.7692  0.1903
 1024MOL0     C41206  12.621   4.643   9.459 -0.4081  0.2262  0.1446
 1024MOL0     C41207  12.731   4.688   9.537 -0.2619  0.3309  0.1853
 1024MOL0     C41208  12.759   4.822   9.540 -0.3527 -0.5415  0.0752
 1024MOL0     C41209  12.680   4.919   9.467 -0.3489  0.4908  0.3262
 1024MOL0     O41210  12.689   5.055   9.458  0.1249  0.2599 -0.4114
 1024MOL0     C41211  12.808   5.122   9.515 -0.1244  0.5878  0.2847
 1024MOL0     C41212  12.782   5.261   9.553 -0.4161 -0.1778  0.2109
 1024MOL0     C41213  12.740   5.328   9.422 -0.1147 -1.5015  0.9346
 1024MOL0     C41214  12.718   5.479   9.442  0.3339  0.4935 -0.4225
 1024MOL0     C41215  12.677   5.551   9.310 -0.2419 -0.2192 -0.2723
 1024MOL0     C41216  12.684   5.700   9.321 -0.7638 -0.5474  0.1689
 1024MOL0     C41217  12.705   5.746   9.173  0.0632  0.1733 -0.0404
 1024MOL0     C41218  12.583   5.824   9.117  0.1631 -0.9894 -0.3133
 1024MOL0    Cl41219  12.420   5.754   9.150  0.0647 -0.3388 -0.2426
 1024MOL0     C41220  12.571   4.870   9.400  0.3107 -0.6716 -0.3999
 1024MOL0     C41221  12.539   4.733   9.394 -0.1183  0.1902  0.3114
 1024MOL0     O41222  12.561   4.512   9.687 -0.6984 -0.5754  0.1506
 1024MOL0     C41223  12.580   4.231   9.465  0.1532 -0.4333  0.3073
 1024MOL0     C41224  12.543   4.096   9.445 -0.1930 -1.2370 -1.0480
 1024MOL0     N41225  12.709   3.609   9.257  0.8482  0.5279 -0.5881
 1024MOL0     N41226  12.743   3.518   9.171 -0.1416  0.4456  0.1549
 1024MOL0     C41227  11.579   3.037   8.980  1.2239  0.0457 -0.8489
 1024MOL0     C41228  11.460   3.096   8.955  0.0982 -0.6295  0.0154
 1024MOL0     C41229  11.144   3.315   8.714  0.1461 -0.8611  0.5616
 1024MOL0     C41230  11.063   3.268   8.605  0.4350 -0.1737 -0.6631
 1024MOL0     C41231  10.954   3.332   8.559 -0.3863 -0.3914 -0.7446
 1024MOL0     C41232  10.915   3.454   8.609 -0.3692 -0.1749  0.7955
 1024MOL0     O41233  10.794   3.498   8.562  0.4171  0.2353  0.2980
 1024MOL0     C41234  10.772   3.635   8.570  0.9437  0.1753 -0.0865
 1024MOL0     C41235  10.636   3.662   8.505  0.3928 -0.8657  1.0333
 1024MOL0     C41236  10.603   3.806   8.512 -1.2440  1.3125 -0.2916
 1024MOL0     C41237  10.464   3.839   8.458  0.1739  0.3650 -0.5690
 1024MOL0     C41238  10.462   3.853   8.315  0.1808  0.4020  0.1895
 1024MOL0     C41239  10.451   3.834   8.198 -0.7397  0.7533  0.6198
 1024MOL0     C41240  10.989   3.509   8.719 -0.2986 -0.4266  0.7726
 1024MOL0     C41241  11.102   3.439   8.771  0.2966  1.1896  0.2993
 1024MOL0     C41242  11.146   3.479   8.904 -0.4890 -0.0179 -0.2264
 1024MOL0     H41243  11.563   3.344   8.764 -1.6362  0.8164  1.3528
 1024MOL0     H41244  11.784   3.237   8.818  0.9216  1.9105  4.1300
 1024MOL0     H41245  11.760   2.959   9.156 -1.3147 -0.0183 -1.0069
 1024MOL0     H41246  11.827   3.117   9.156  0.1233  1.0565 -2.5025
 1024MOL0     H41247  11.997   2.968   9.244  2.4056  2.5975 -0.7522
 1024MOL0     H41248  11.992   2.880   9.091  3.6946 -0.8036  1.5427
 1024MOL0     H41249  12.107   3.036   8.974 -1.6041  1.3171 -1.1926
 1024MOL0     H41250  12.048   3.166   9.067 -0.6101 -1.2761 -2.5789
 1024MOL0     H41251  12.192   3.118   9.260 -1.2549 -0.6202  0.0084
 1024MOL0     H41252  12.230   2.956   9.181  1.8569  0.2652 -0.6027
 1024MOL0     H41253  12.295   3.224   9.031  1.4810 -1.1583 -2.7427
 1024MOL0     H41254  12.350   3.063   9.003 -2.7771 -1.3897 -0.3236
 1024MOL0     H41255  12.433   3.232   9.246  2.4993  3.3376 -1.4350
 1024MOL0     H41256  12.498   3.068   9.191 -0.5813 -0.0330 -0.8361
 1024MOL0     H41257  12.508   3.326   9.018 -0.6233 -1.2282 -0.9651
 1024MOL0     H41258  12.555   3.157   8.989 -3.5293 -2.5022  0.6182
 1024MOL0     H41259  12.727   3.181   9.162  2.9748  0.7415  0.6265
 1024MOL0     H41260  12.745   3.311   9.038 -2.5285  0.6172 -1.2282
 1024MOL0     H41261  12.587   3.325   9.390  2.4533 -1.2100  0.4450
 1024MOL0     H41262  12.661   3.641   9.527  0.4833 -0.5810 -0.3588
 1024MOL0     H41263  12.585   3.481   9.554 -3.0734 -1.0870 -2.8683
 1024MOL0     H41264  12.438   3.695   9.389  0.0122  0.6003  0.6938
 1024MOL0     H41265  12.398   3.526   9.433  1.2856 -0.7242 -0.1617
 1024MOL0     H41266  12.294   3.674   9.591  0.9236 -1.7527 -1.2362
 1024MOL0     H41267  12.424   3.601   9.681  2.7976  0.4631  1.3802
 1024MOL0     H41268  12.380   3.844   9.700  1.8584  1.3788  0.0403
 1024MOL0     H41269  12.546   3.798   9.690 -0.0690 -1.1470  0.6865
 1024MOL0     H41270  12.460   4.037   9.761  0.4136  1.2985  0.6588
 1024MOL0     H41271  12.592   4.349   9.869 -1.7280 -0.1516  5.1771
 1024MOL0     H41272  12.519   4.196   9.911 -1.4926 -1.4834 -0.6047
 1024MOL0     H41273  12.419   4.326   9.857 -1.5160 -2.2272 -1.1711
 1024MOL0     H41274  12.792   4.612   9.586  0.2903  0.0927 -0.8457
 1024MOL0     H41275  12.847   4.842   9.599 -1.3135  4.8009  0.1278
 1024MOL0     H41276  12.827   5.066   9.607 -0.3805  2.0583  1.2720
 1024MOL0     H41277  12.893   5.115   9.447 -0.7074  0.4665 -0.4458
 1024MOL0     H41278  12.700   5.259   9.626 -1.5684  3.0504 -0.7868
 1024MOL0     H41279  12.870   5.311   9.596 -0.0146 -0.6419 -0.0682
 1024MOL0     H41280  12.647   5.282   9.386 -1.1295 -0.3066  1.9345
 1024MOL0     H41281  12.818   5.322   9.345  2.3863  0.9349  3.0685
 1024MOL0     H41282  12.813   5.508   9.487 -0.1081  1.3574 -0.0081
 1024MOL0     H41283  12.632   5.498   9.508  0.3704  1.8039 -0.7230
 1024MOL0     H41284  12.744   5.514   9.232  1.2506  1.1836  0.2806
 1024MOL0     H41285  12.576   5.520   9.285 -0.3016 -1.6934  1.5422
 1024MOL0     H41286  12.768   5.723   9.387 -0.6444 -1.0903  0.2124
 1024MOL0     H41287  12.591   5.733   9.370  0.4745  3.0811  0.4084
 1024MOL0     H41288  12.718   5.665   9.100  1.6119 -1.0040  1.4621
 1024MOL0     H41289  12.794   5.810   9.166 -0.9870  1.9861  1.9161
 1024MOL0     H41290  12.595   5.817   9.009  0.7630 -1.6743 -0.2085
 1024MOL0     H41291  12.588   5.917   9.175  4.7560 -1.2838  0.1498
 1024MOL0     H41292  12.507   4.947   9.357  1.5044  0.3856 -0.3573
 1024MOL0     H41293  12.448   4.697   9.347 -0.6081 -0.6857  1.8657
 1024MOL0     H41294  12.602   4.279   9.370  0.9642  0.0145  0.7135
 1024MOL0     H41295  12.562   4.053   9.348 -1.9030 -0.3929 -1.8014
 1024MOL0     H41296  11.586   2.954   9.050 -1.4974  0.7041  0.3214
 1024MOL0     H41297  11.369   3.057   8.999  1.2994 -1.0719  2.2383
 1024MOL0     H41298  11.069   3.164   8.576 -2.3722  0.8021 -6.0087
 1024MOL0     H41299  10.895   3.281   8.485 -1.8884  0.1697  0.0177
 1024MOL0     H41300  10.766   3.661   8.676  0.5532  0.7619 -0.2443
 1024MOL0     H41301  10.855   3.687   8.521  2.5629 -2.5722 -0.4231
 1024MOL0     H41302  10.559   3.592   8.539  1.4689 -3.2251 -1.0744
 1024MOL0     H41303  10.651   3.626   8.403 -2.5134 -1.7273  0.8113
 1024MOL0     H41304  10.593   3.816   8.621 -3.7770  0.7701 -0.4086
 1024MOL0     H41305  10.685   3.863   8.467 -1.2479  1.6299  0.0964
 1024MOL0     H41306  10.419   3.925   8.508  1.1153  0.5855 -0.0712
 1024MOL0     H41307  10.391   3.763   8.489 -1.8486  2.3295 -0.2763
 1024MOL0     H41308  10.441   3.817   8.092  1.3587 -3.5130  0.9018
 1024MOL0     H41309  10.944   3.602   8.753 -3.7989 -1.1872 -1.2791
 1024MOL0     H41310  11.119   3.416   8.988  0.0589  0.8206  0.5954
 1024MOL0     H41311  11.255   3.487   8.896 -0.5965  1.5221 -0.6134
 1024MOL0     H41312  11.099   3.577   8.921  0.8585  0.5377  0.4310
  11.53273  11.53273  11.53273
